Title
82257
    1SAPS     N    1   2.662   2.437  11.302 -0.1495 -0.6439  0.2653
    1SAPS   HN1    2   2.742   2.386  11.344 -0.0707 -0.0609  0.8343
    1SAPS   HN2    3   2.690   2.524  11.252  2.2793 -0.8254  1.1675
    1SAPS   HN3    4   2.598   2.468  11.378  0.4900  0.1211  0.5053
    1SAPS   C12    5   2.573   2.353  11.220 -0.3098 -0.3838  0.3737
    1SAPS  H12A    6   2.629   2.270  11.181  1.4160  0.3068  1.2575
    1SAPS   C13    7   2.464   2.279  11.301  0.2065 -1.0437  0.1499
    1SAPS  O13A    8   2.476   2.291  11.424  0.3264  0.4135  0.3626
    1SAPS  O13B    9   2.392   2.187  11.251 -0.0620 -0.0644  0.4537
    1SAPS   C11   10   2.507   2.444  11.112  0.9261 -0.1049 -0.6059
    1SAPS  H11A   11   2.443   2.382  11.045 -1.0775 -0.3823  1.4446
    1SAPS  H11B   12   2.588   2.476  11.042  0.9437 -0.4482 -0.7449
    1SAPS     P   13   2.411   2.695  11.098  0.2563  0.0264  0.1455
    1SAPS   O13   14   2.288   2.762  11.151 -0.1020 -0.3586 -0.6845
    1SAPS   O14   15   2.536   2.773  11.129  0.3045  0.8841 -0.3278
    1SAPS   O12   16   2.425   2.552  11.167 -0.0544  0.3815 -0.2789
    1SAPS   O11   17   2.398   2.666  10.950  0.2417  0.2347  0.8678
    1SAPS    C1   18   2.269   2.618  10.902  0.1727  0.5973  0.5044
    1SAPS    HA   19   2.261   2.509  10.922 -3.0646  0.7341  0.4112
    1SAPS    HB   20   2.187   2.678  10.947 -0.6831 -0.4183  0.3374
    1SAPS    C2   21   2.252   2.635  10.750 -0.3696 -0.7696 -0.7294
    1SAPS    HS   22   2.332   2.586  10.691 -0.3098  2.1375 -3.3011
    1SAPS   O21   23   2.249   2.776  10.721 -0.0380 -0.4231 -0.5303
    1SAPS   C21   24   2.296   2.801  10.599 -0.5390  0.6290  0.1981
    1SAPS   O22   25   2.340   2.714  10.526 -0.3859  0.6229  0.1332
    1SAPS   C22   26   2.263   2.943  10.551  0.3216 -0.1162 -0.0311
    1SAPS   H2R   27   2.287   3.005  10.640 -0.2913 -2.1284  1.6129
    1SAPS   H2S   28   2.324   2.972  10.463 -0.6067 -2.3614 -1.4903
    1SAPS    C3   29   2.121   2.575  10.711 -0.0631  0.2424 -0.3279
    1SAPS    HX   30   2.043   2.635  10.762  0.1011 -0.4572  0.7922
    1SAPS    HY   31   2.122   2.473  10.756  1.0489  1.1651  1.9096
    1SAPS   O31   32   2.107   2.572  10.569  0.4577  0.1190  0.2345
    1SAPS   C31   33   2.156   2.462  10.503 -0.0887  0.0422  0.1124
    1SAPS   O32   34   2.221   2.372  10.547 -0.0307  0.3508 -0.1616
    1SAPS   C32   35   2.123   2.467  10.359 -1.1686 -0.1266 -0.0656
    1SAPS   H2X   36   2.040   2.540  10.345 -0.1716  1.5182  1.9762
    1SAPS   H2Y   37   2.078   2.367  10.340  0.2222 -1.0470  1.3225
    1SAPS   C23   38   2.116   2.955  10.501  0.7128 -0.0083  0.1829
    1SAPS   H3R   39   2.121   3.060  10.465 -0.7585 -0.4179 -1.3009
    1SAPS   H3S   40   2.038   2.936  10.578  0.2230 -0.3132 -0.3853
    1SAPS   C24   41   2.096   2.873  10.371 -0.0851 -0.1630  0.4803
    1SAPS   H4R   42   2.091   2.764  10.395 -0.4824 -0.7298 -1.9218
    1SAPS   H4S   43   2.187   2.886  10.308 -1.1617  3.1143 -0.5883
    1SAPS   C25   44   1.968   2.897  10.297  0.6831 -0.3222 -0.2510
    1SAPS   H5R   45   1.885   2.938  10.356  0.2193 -0.7727 -0.5866
    1SAPS   C26   46   1.944   2.875  10.171  0.1736  0.4268 -0.1604
    1SAPS   H6R   47   1.842   2.890  10.134  0.0759  0.0014 -0.0697
    1SAPS   C27   48   2.036   2.820  10.062 -0.1526 -0.7605  0.0451
    1SAPS   H7R   49   2.009   2.713  10.050 -2.3726 -0.0462 -1.9488
    1SAPS   H7S   50   2.143   2.829  10.092 -0.0922  0.9680 -0.5376
    1SAPS   C28   51   2.022   2.898   9.933 -0.2918 -0.7381  0.5607
    1SAPS   H8R   52   1.960   2.989   9.940 -1.1121 -1.2575  0.1496
    1SAPS   C29   53   2.081   2.869   9.817 -1.5895  0.7336  0.3848
    1SAPS   H9R   54   2.070   2.941   9.735 -0.1783  2.5235  1.6859
    1SAPS  C210   55   2.172   2.747   9.799  0.4214 -0.7838 -0.1770
    1SAPS  H10R   56   2.138   2.679   9.718 -2.7200 -0.0547  0.4000
    1SAPS  H10S   57   2.152   2.683   9.887 -0.1613  0.6360  0.7519
    1SAPS  C211   58   2.311   2.800   9.782  0.3007 -0.3128 -0.5081
    1SAPS  H11R   59   2.368   2.794   9.876 -1.0387  1.7707  0.5278
    1SAPS  C212   60   2.374   2.814   9.667 -0.1236  0.1369 -0.1244
    1SAPS  H12R   61   2.476   2.853   9.662 -0.5483  1.1339 -1.5606
    1SAPS  C213   62   2.318   2.796   9.527 -0.1172  0.1227 -0.1815
    1SAPS  H13R   63   2.367   2.877   9.468 -1.4186  1.5280  0.6039
    1SAPS  H13S   64   2.209   2.816   9.523  0.1114  1.2213 -1.4182
    1SAPS  C214   65   2.361   2.661   9.463 -0.1390 -0.3958 -0.4458
    1SAPS  H14R   66   2.343   2.574   9.528 -0.3751  0.2739  0.4040
    1SAPS  C215   67   2.415   2.631   9.348  0.7068  0.2504  0.7590
    1SAPS  H15R   68   2.419   2.526   9.316  3.3587  0.4704  0.0690
    1SAPS  C216   69   2.449   2.713   9.228  0.0149 -0.0701 -0.1685
    1SAPS  H16R   70   2.451   2.632   9.152  0.8645 -0.6384  0.4515
    1SAPS  H16S   71   2.552   2.753   9.239 -0.1630 -0.0647  1.7582
    1SAPS  C217   72   2.348   2.819   9.176  0.5031 -0.7626  0.4753
    1SAPS  H17R   73   2.397   2.866   9.088  1.0894 -0.2605  1.0625
    1SAPS  H17S   74   2.347   2.902   9.249 -0.1349 -1.4121  1.2137
    1SAPS  C218   75   2.205   2.779   9.152  0.2770 -0.2243 -0.1611
    1SAPS  H18R   76   2.170   2.705   9.227  1.2699 -0.8530 -0.2906
    1SAPS  H18S   77   2.179   2.735   9.053  1.0066 -2.2456  0.4937
    1SAPS  C219   78   2.105   2.888   9.171 -0.0324  1.1008 -0.2301
    1SAPS  H19R   79   2.120   2.966   9.093 -1.6978  2.1512  0.4485
    1SAPS  H19S   80   2.118   2.944   9.265 -0.4755 -0.1067  0.5779
    1SAPS  C220   81   1.967   2.844   9.150 -0.3105  0.0811  0.4045
    1SAPS  H20R   82   1.951   2.799   9.050 -0.5872 -0.0068  0.4886
    1SAPS  H20S   83   1.903   2.934   9.140  1.2704  1.0778 -1.4042
    1SAPS  H20T   84   1.939   2.771   9.229  0.9321 -0.6550  0.1960
    1SAPS   C33   85   2.235   2.493  10.262  1.0835  0.3856 -0.3893
    1SAPS   H3X   86   2.308   2.413  10.285  1.2199  0.0629 -1.8381
    1SAPS   H3Y   87   2.283   2.592  10.273 -1.0008  1.3994  0.1252
    1SAPS   C34   88   2.193   2.470  10.112  0.0298 -0.7741 -0.1926
    1SAPS   H4X   89   2.105   2.535  10.091  0.5388 -0.9319 -3.2040
    1SAPS   H4Y   90   2.157   2.366  10.099 -1.6188 -0.1627 -0.8852
    1SAPS   C35   91   2.297   2.496  10.011  0.1792  0.1714 -0.0100
    1SAPS   H5X   92   2.333   2.600  10.027 -0.9934  0.4277  1.0838
    1SAPS   H5Y   93   2.245   2.495   9.913  0.5691  2.1372 -0.2945
    1SAPS   C36   94   2.411   2.394  10.024  0.5919  0.6547 -0.4323
    1SAPS   H6X   95   2.361   2.298  10.003 -0.8269  0.8589  1.7000
    1SAPS   H6Y   96   2.441   2.399  10.131 -0.3771  2.6874 -0.1994
    1SAPS   C37   97   2.528   2.411   9.927 -0.3847 -0.3733  0.0942
    1SAPS   H7X   98   2.613   2.348   9.962  0.2466  0.8460  0.8620
    1SAPS   H7Y   99   2.559   2.518   9.936 -0.6778 -0.3189  0.4929
    1SAPS   C38  100   2.488   2.379   9.790  0.3106  0.0449 -0.2977
    1SAPS   H8X  101   2.406   2.448   9.761  0.8099  0.6177 -0.3670
    1SAPS   H8Y  102   2.453   2.275   9.770  2.2232 -0.3608 -1.8599
    1SAPS   C39  103   2.598   2.409   9.692 -0.7163 -0.4004 -0.4444
    1SAPS   H9X  104   2.698   2.388   9.736 -1.2048 -0.4337  0.6792
    1SAPS   H9Y  105   2.590   2.515   9.661 -0.5453 -0.7573 -1.7358
    1SAPS  C310  106   2.591   2.330   9.565 -0.6657 -0.5541 -0.0106
    1SAPS  H10X  107   2.490   2.333   9.519  0.3335  1.6198 -2.3027
    1SAPS  H10Y  108   2.631   2.230   9.589  1.9450  0.2143 -0.8860
    1SAPS  C311  109   2.691   2.386   9.456 -0.6288 -0.4592  0.5303
    1SAPS  H11X  110   2.790   2.382   9.507  0.1835  1.2712 -0.8369
    1SAPS  H11Y  111   2.667   2.492   9.437 -0.6574 -0.5028  0.3248
    1SAPS  C312  112   2.675   2.305   9.326 -0.4067 -0.5867 -0.5461
    1SAPS  H12X  113   2.573   2.292   9.286 -1.2955 -0.8262  1.6723
    1SAPS  H12Y  114   2.704   2.199   9.343 -0.1395 -0.5333 -0.6548
    1SAPS  C313  115   2.760   2.360   9.209 -0.1747 -0.8422 -0.7135
    1SAPS  H13X  116   2.814   2.276   9.160 -1.8801 -1.3250 -1.8618
    1SAPS  H13Y  117   2.824   2.439   9.255  0.1108 -0.7544 -1.2559
    1SAPS  C314  118   2.675   2.429   9.103  0.2648 -0.2355 -0.1204
    1SAPS  H14X  119   2.638   2.516   9.162  0.2393 -0.9831  0.9992
    1SAPS  H14Y  120   2.588   2.370   9.070  1.3700 -2.0745  0.0874
    1SAPS  C315  121   2.758   2.471   8.976  0.2668  0.2454 -0.4769
    1SAPS  H15X  122   2.785   2.378   8.920  0.8198  0.2340 -0.2004
    1SAPS  H15Y  123   2.853   2.516   9.012 -0.4295  0.0355  1.7627
    1SAPS  C316  124   2.688   2.566   8.879  0.1564  0.1520  0.0052
    1SAPS  H16X  125   2.658   2.655   8.939 -0.8110 -0.6897  0.8099
    1SAPS  H16Y  126   2.603   2.506   8.842  0.9531  0.1378 -1.8782
    1SAPS  C317  127   2.783   2.616   8.770  0.5365  0.3532 -0.2832
    1SAPS  H17X  128   2.850   2.538   8.728  3.6462 -0.1998  4.8391
    1SAPS  H17Y  129   2.854   2.688   8.817  1.1804 -0.3424 -0.1667
    1SAPS  C318  130   2.709   2.694   8.661  0.5019  0.0822 -0.5574
    1SAPS  H18X  131   2.759   2.687   8.562 -1.0627 -2.7324 -1.2635
    1SAPS  H18Y  132   2.691   2.796   8.700 -1.2813  0.0134 -1.1059
    1SAPS  H18Z  133   2.610   2.646   8.647  0.2547  1.0579 -2.4737
    2SAPS     N  134   0.386   3.633  11.031 -0.5965  0.1307  0.3820
    2SAPS   HN1  135   0.312   3.686  10.981  1.1336  1.4736 -0.8771
    2SAPS   HN2  136   0.430   3.704  11.093  0.1480 -1.3280  1.6055
    2SAPS   HN3  137   0.455   3.599  10.961  0.6180  0.0399  1.5872
    2SAPS   C12  138   0.348   3.527  11.126 -0.2877  0.0289 -0.4519
    2SAPS  H12A  139   0.441   3.475  11.139 -0.8270 -0.8470 -0.0299
    2SAPS   C13  140   0.302   3.578  11.259  0.0375  0.4618 -0.1394
    2SAPS  O13A  141   0.315   3.697  11.287 -0.1624  0.1346 -0.2845
    2SAPS  O13B  142   0.232   3.501  11.332  0.0641  0.1141 -0.0849
    2SAPS   C11  143   0.268   3.418  11.044 -0.3388 -0.0962  0.0582
    2SAPS  H11A  144   0.165   3.458  11.032  0.1771  0.6211 -2.5558
    2SAPS  H11B  145   0.261   3.325  11.105  1.1262  0.9322  1.8859
    2SAPS     P  146   0.336   3.272  10.832 -0.0662  0.1470 -0.5498
    2SAPS   O13  147   0.471   3.208  10.849 -0.6487  0.2529 -0.1737
    2SAPS   O14  148   0.220   3.189  10.867  0.2392  0.2269 -1.0198
    2SAPS   O12  149   0.328   3.405  10.914 -0.9077  0.1370 -0.3213
    2SAPS   O11  150   0.313   3.324  10.688 -0.5911 -0.5714  0.1531
    2SAPS    C1  151   0.404   3.411  10.628  0.1545 -0.1806  0.5164
    2SAPS    HA  152   0.371   3.513  10.658 -2.0498 -0.6660 -0.0473
    2SAPS    HB  153   0.507   3.399  10.669  0.0445  1.0249  1.1751
    2SAPS    C2  154   0.390   3.409  10.472 -0.6299  0.1055  0.6743
    2SAPS    HS  155   0.300   3.458  10.430 -0.6703 -2.0578 -2.0491
    2SAPS   O21  156   0.388   3.271  10.433  0.0882  0.7951 -0.2813
    2SAPS   C21  157   0.268   3.206  10.439  0.2576 -1.0814 -0.0808
    2SAPS   O22  158   0.161   3.266  10.435 -0.0350 -0.1268  0.0921
    2SAPS   C22  159   0.278   3.053  10.450 -0.4638 -0.3494 -0.3489
    2SAPS   H2R  160   0.316   3.015  10.352 -0.4972 -1.1801 -0.0466
    2SAPS   H2S  161   0.346   3.034  10.535 -0.6337 -0.6559 -0.2790
    2SAPS    C3  162   0.511   3.481  10.401  0.0359  0.4471  0.3561
    2SAPS    HX  163   0.606   3.446  10.446 -0.3321 -0.1920  0.6547
    2SAPS    HY  164   0.497   3.588  10.427 -0.9620  0.4912 -0.2686
    2SAPS   O31  165   0.502   3.468  10.253 -0.0014  0.5360  0.0970
    2SAPS   C31  166   0.595   3.545  10.193 -0.1268  0.4549 -0.0402
    2SAPS   O32  167   0.680   3.618  10.249  1.0292  0.0080 -0.8795
    2SAPS   C32  168   0.591   3.518  10.037 -0.2455 -0.6580  0.0171
    2SAPS   H2X  169   0.506   3.570   9.989  0.8952 -0.7870 -2.2806
    2SAPS   H2Y  170   0.569   3.410  10.020 -0.5043 -0.5395 -0.4039
    2SAPS   C23  171   0.135   2.992  10.468 -0.3956 -0.9247  0.0679
    2SAPS   H3R  172   0.083   3.050  10.547  1.3438  2.7182 -1.2685
    2SAPS   H3S  173   0.139   2.892  10.516  2.2735 -0.2872  1.3154
    2SAPS   C24  174   0.053   2.974  10.331  0.6634 -0.2733  0.2541
    2SAPS   H4R  175   0.022   3.074  10.293  0.1432 -1.1932 -1.8690
    2SAPS   H4S  176  -0.047   2.933  10.359  0.3411  2.0553  3.0653
    2SAPS   C25  177   0.127   2.897  10.223  0.1433  0.0201 -0.1540
    2SAPS   H5R  178   0.139   2.791  10.248  1.8871  0.4977  1.2681
    2SAPS   C26  179   0.194   2.950  10.118 -0.0138 -0.1458  0.6143
    2SAPS   H6R  180   0.256   2.887  10.052  1.0483  0.8799  0.5924
    2SAPS   C27  181   0.184   3.098  10.090 -0.1317 -0.4454  0.1018
    2SAPS   H7R  182   0.187   3.162  10.181  0.3682 -0.2353 -0.0554
    2SAPS   H7S  183   0.092   3.123  10.033  1.5700  0.7979 -2.2890
    2SAPS   C28  184   0.307   3.138  10.018 -0.1618 -0.1527  0.8031
    2SAPS   H8R  185   0.397   3.160  10.078  1.1853 -2.7340 -0.0905
    2SAPS   C29  186   0.326   3.138   9.885  0.0025  0.0776 -0.0330
    2SAPS   H9R  187   0.418   3.187   9.849 -1.1154  2.4283  0.1303
    2SAPS  C210  188   0.219   3.105   9.783  0.0865 -0.2414 -0.3539
    2SAPS  H10R  189   0.176   3.199   9.743  1.0808  0.6667  0.6549
    2SAPS  H10S  190   0.132   3.055   9.832  1.0094 -1.2325  0.3367
    2SAPS  C211  191   0.278   3.030   9.670 -0.4885  0.0833 -0.4099
    2SAPS  H11R  192   0.255   2.923   9.670  0.4672 -0.1445  1.0904
    2SAPS  C212  193   0.345   3.078   9.564  0.3299  0.1492  0.4826
    2SAPS  H12R  194   0.371   3.011   9.480 -0.4451  1.3121 -0.7130
    2SAPS  C213  195   0.370   3.227   9.547 -0.5192 -0.0477 -1.3686
    2SAPS  H13R  196   0.340   3.286   9.637 -1.3768 -0.2783 -1.4942
    2SAPS  H13S  197   0.302   3.266   9.469 -1.7668  0.5479 -0.0271
    2SAPS  C214  198   0.509   3.246   9.506 -0.5441  0.2566 -0.9836
    2SAPS  H14R  199   0.586   3.215   9.578 -0.4405  1.0818 -0.7258
    2SAPS  C215  200   0.553   3.303   9.398 -0.1805 -0.4618  0.6062
    2SAPS  H15R  201   0.660   3.325   9.379 -1.3955  4.3897 -2.4962
    2SAPS  C216  202   0.486   3.368   9.279 -0.5364 -0.4006  0.0100
    2SAPS  H16R  203   0.530   3.468   9.258  0.7642 -0.8967  0.3067
    2SAPS  H16S  204   0.381   3.404   9.285 -0.9914 -1.5032 -0.9144
    2SAPS  C217  205   0.509   3.285   9.154 -1.2581  0.2145 -1.0137
    2SAPS  H17R  206   0.441   3.327   9.077 -0.2570 -0.0524 -2.0745
    2SAPS  H17S  207   0.488   3.177   9.169  0.0340  0.0517 -0.2390
    2SAPS  C218  208   0.647   3.288   9.087  0.3946 -0.1267 -0.2394
    2SAPS  H18R  209   0.713   3.211   9.131 -0.3624  0.7644  2.6519
    2SAPS  H18S  210   0.682   3.392   9.105 -2.1063  0.6290  0.6793
    2SAPS  C219  211   0.642   3.270   8.933  0.2929  0.1214  0.3454
    2SAPS  H19R  212   0.749   3.256   8.905  1.1021  1.8635  2.3475
    2SAPS  H19S  213   0.602   3.361   8.883 -1.0102 -0.4242  0.3542
    2SAPS  C220  214   0.556   3.152   8.892  0.5350 -0.4044 -0.5856
    2SAPS  H20R  215   0.565   3.116   8.788  1.3983  0.5708 -0.8577
    2SAPS  H20S  216   0.449   3.176   8.910  1.0549  0.5132  1.5580
    2SAPS  H20T  217   0.587   3.064   8.953 -0.2211 -0.2809  0.0059
    2SAPS   C33  218   0.720   3.550   9.965 -0.1562 -0.2798 -1.1675
    2SAPS   H3X  219   0.805   3.497  10.012 -0.8482 -1.3607 -1.1091
    2SAPS   H3Y  220   0.734   3.660   9.977 -3.5964  0.2877 -1.4180
    2SAPS   C34  221   0.710   3.518   9.814  0.5552 -0.0440  0.1166
    2SAPS   H4X  222   0.619   3.573   9.779 -0.8772 -3.2941 -1.8000
    2SAPS   H4Y  223   0.680   3.411   9.802  0.4479  0.0866 -0.9358
    2SAPS   C35  224   0.831   3.558   9.741  0.7000 -0.5879  0.0745
    2SAPS   H5X  225   0.917   3.496   9.775 -0.8401 -2.3768  0.8933
    2SAPS   H5Y  226   0.848   3.667   9.759 -0.4000 -0.6709  1.8662
    2SAPS   C36  227   0.812   3.525   9.593 -0.8791  0.6001  0.3532
    2SAPS   H6X  228   0.740   3.595   9.544  0.1436  3.0573  2.1580
    2SAPS   H6Y  229   0.758   3.429   9.579  1.7758 -0.7184 -1.5490
    2SAPS   C37  230   0.944   3.505   9.511 -0.1402  0.0883 -0.1528
    2SAPS   H7X  231   0.993   3.410   9.539  1.5186  0.5702 -1.3105
    2SAPS   H7Y  232   1.017   3.585   9.538  1.5045 -1.6206  0.6339
    2SAPS   C38  233   0.912   3.513   9.360  0.1958 -0.6000 -0.4430
    2SAPS   H8X  234   0.824   3.448   9.343  1.4424 -2.4383 -0.1422
    2SAPS   H8Y  235   0.999   3.470   9.305 -0.0401  1.5104 -2.6326
    2SAPS   C39  236   0.874   3.653   9.299 -0.2375 -0.7656 -0.0068
    2SAPS   H9X  237   0.784   3.689   9.353  0.0965  2.4025 -1.3208
    2SAPS   H9Y  238   0.862   3.636   9.190  0.9978 -2.4252  0.0823
    2SAPS  C310  239   0.981   3.764   9.314 -0.3078 -0.3027  0.4536
    2SAPS  H10X  240   0.981   3.793   9.421 -0.6499 -2.5614  1.1083
    2SAPS  H10Y  241   0.938   3.850   9.258  0.1548 -0.3273  0.0472
    2SAPS  C311  242   1.123   3.738   9.262 -0.0072 -0.5866 -0.4673
    2SAPS  H11X  243   1.109   3.704   9.157  2.7593 -2.5894 -0.3055
    2SAPS  H11Y  244   1.184   3.663   9.316  1.3671 -0.2009 -1.4267
    2SAPS  C312  245   1.200   3.869   9.250  0.4122  0.6857  0.1748
    2SAPS  H12X  246   1.224   3.914   9.348  1.4801  0.2160  0.1391
    2SAPS  H12Y  247   1.127   3.930   9.192 -1.1314 -0.2772  1.0339
    2SAPS  C313  248   1.326   3.859   9.165 -0.4506 -0.6111  0.0994
    2SAPS  H13X  249   1.304   3.835   9.059 -0.8205 -2.0349  0.4710
    2SAPS  H13Y  250   1.395   3.779   9.199  1.4821  1.0185  0.1723
    2SAPS  C314  251   1.410   3.988   9.159 -0.1097  0.1860  0.1658
    2SAPS  H14X  252   1.410   4.039   9.258 -3.4729 -0.4752  0.6377
    2SAPS  H14Y  253   1.360   4.055   9.086 -0.5793  0.5510  0.8050
    2SAPS  C315  254   1.556   3.962   9.111  0.3547  0.1032 -0.3384
    2SAPS  H15X  255   1.604   3.907   9.195 -0.2546 -0.2315 -0.2022
    2SAPS  H15Y  256   1.603   4.063   9.112 -1.8100  1.1904  1.8727
    2SAPS  C316  257   1.561   3.885   8.980  0.1468 -0.5410  0.1036
    2SAPS  H16X  258   1.490   3.923   8.903  2.8641  1.8097 -1.4359
    2SAPS  H16Y  259   1.532   3.780   9.002 -1.8929  0.2768  1.6920
    2SAPS  C317  260   1.701   3.873   8.919 -0.8302  0.4950  0.4722
    2SAPS  H17X  261   1.705   3.772   8.874 -2.8621 -1.7702  4.7162
    2SAPS  H17Y  262   1.776   3.882   9.000  3.0399  1.8573 -2.9167
    2SAPS  C318  263   1.734   3.977   8.810 -0.5176 -0.1029  0.6263
    2SAPS  H18X  264   1.668   3.960   8.722  0.9922  2.1412 -1.0462
    2SAPS  H18Y  265   1.835   3.967   8.766 -1.4159 -0.7461 -1.4173
    2SAPS  H18Z  266   1.717   4.081   8.847 -0.2029  0.6727 -1.2666
    3SAPS     N  267   0.907   5.470  10.898 -0.6783 -0.2450  0.0589
    3SAPS   HN1  268   0.934   5.445  10.800  1.9082 -1.8121  1.0849
    3SAPS   HN2  269   0.809   5.437  10.908 -1.0177  0.3017 -1.1888
    3SAPS   HN3  270   0.902   5.574  10.892  2.4896  0.1241  1.6351
    3SAPS   C12  271   1.001   5.424  11.003 -0.4289 -0.1303 -0.4425
    3SAPS  H12A  272   1.098   5.459  10.972 -0.6761 -0.2905 -1.4309
    3SAPS   C13  273   0.971   5.492  11.135 -0.1260 -0.4197 -0.5112
    3SAPS  O13A  274   0.917   5.608  11.123  0.2724  0.6476  0.3233
    3SAPS  O13B  275   1.053   5.467  11.227 -0.6977  0.1242  0.2863
    3SAPS   C11  276   1.008   5.275  11.012 -0.2472  0.8220 -0.8255
    3SAPS  H11A  277   0.905   5.236  11.024  0.3761 -0.8164 -0.6204
    3SAPS  H11B  278   1.062   5.249  11.105 -1.2879  1.3981 -0.0368
    3SAPS     P  279   1.067   5.072  10.855 -0.0510 -0.0391  0.0876
    3SAPS   O13  280   1.186   5.044  10.770  0.8242  0.4207  0.9619
    3SAPS   O14  281   1.062   4.995  10.978 -0.0298  0.3626  0.1317
    3SAPS   O12  282   1.068   5.222  10.895  0.2803  0.3417  1.1367
    3SAPS   O11  283   0.934   5.054  10.774  0.8237  0.3579 -0.0498
    3SAPS    C1  284   0.886   5.167  10.696 -0.1737 -0.2236 -0.5773
    3SAPS    HA  285   0.839   5.239  10.767 -2.9626  0.1616 -2.6277
    3SAPS    HB  286   0.968   5.214  10.637  0.3504 -3.1310 -2.3678
    3SAPS    C2  287   0.766   5.120  10.602  0.0872 -0.3832  0.0855
    3SAPS    HS  288   0.682   5.082  10.665 -0.6260  1.3665  0.2612
    3SAPS   O21  289   0.815   5.030  10.494  0.2561 -0.3137 -0.4080
    3SAPS   C21  290   0.731   4.954  10.436 -0.1065  0.1702 -0.5476
    3SAPS   O22  291   0.615   4.930  10.476  0.5086  0.2775  0.0597
    3SAPS   C22  292   0.787   4.899  10.312 -0.8264 -0.1084  0.2663
    3SAPS   H2R  293   0.896   4.892  10.332 -0.5454  1.2319 -0.6641
    3SAPS   H2S  294   0.743   4.798  10.298  2.1266 -1.2198 -2.0017
    3SAPS    C3  295   0.700   5.245  10.544 -0.9851  0.5080  0.0611
    3SAPS    HX  296   0.662   5.305  10.630  2.2241  2.4899  0.2695
    3SAPS    HY  297   0.618   5.210  10.479 -0.8915 -2.5795  1.4260
    3SAPS   O31  298   0.795   5.316  10.467 -0.0873  0.3767  0.0613
    3SAPS   C31  299   0.757   5.441  10.440 -0.0793  0.0869  0.6387
    3SAPS   O32  300   0.669   5.502  10.495  0.4481 -0.2213 -0.0061
    3SAPS   C32  301   0.845   5.497  10.323 -0.5567  0.4015 -0.0365
    3SAPS   H2X  302   0.955   5.506  10.336 -0.2212  0.4870 -2.4469
    3SAPS   H2Y  303   0.819   5.604  10.318  0.8870  0.8328  0.9104
    3SAPS   C23  304   0.752   4.985  10.194  0.1732  0.0892  0.4389
    3SAPS   H3R  305   0.767   5.093  10.215  2.8658 -0.1977  0.4337
    3SAPS   H3S  306   0.643   4.976  10.175  0.2285 -4.1827  1.0511
    3SAPS   C24  307   0.832   4.937  10.071 -0.3098 -0.5278 -0.4363
    3SAPS   H4R  308   0.782   4.841  10.043 -0.3558 -0.7981  0.5527
    3SAPS   H4S  309   0.939   4.919  10.095 -0.2354  0.7361  0.2572
    3SAPS   C25  310   0.835   5.040   9.961  0.0337 -0.0510 -0.4470
    3SAPS   H5R  311   0.889   5.133   9.983  0.5898 -0.4462 -0.1147
    3SAPS   C26  312   0.777   5.029   9.846  0.4932  0.2538 -0.1482
    3SAPS   H6R  313   0.774   5.119   9.782 -0.5464 -0.0994 -0.6134
    3SAPS   C27  314   0.700   4.905   9.790 -0.0001 -0.4586 -0.7845
    3SAPS   H7R  315   0.638   4.864   9.873  1.7458 -1.0727  0.2705
    3SAPS   H7S  316   0.770   4.820   9.777 -0.0333 -0.9123  1.6086
    3SAPS   C28  317   0.615   4.933   9.674 -0.0599 -1.3117  0.7969
    3SAPS   H8R  318   0.514   4.973   9.693 -0.2533  0.4552 -3.0508
    3SAPS   C29  319   0.661   4.930   9.543  0.2203  0.0864  0.5119
    3SAPS   H9R  320   0.599   4.956   9.456  1.4423  1.6161  0.0701
    3SAPS  C210  321   0.797   4.882   9.502  0.2142  0.4435  0.2929
    3SAPS  H10R  322   0.873   4.909   9.578 -0.1604 -2.2826  1.7886
    3SAPS  H10S  323   0.824   4.939   9.411  0.5704  1.9568  1.3112
    3SAPS  C211  324   0.813   4.733   9.474 -0.3986 -0.1126 -0.0578
    3SAPS  H11R  325   0.848   4.674   9.560  1.6953  2.0963  0.7390
    3SAPS  C212  326   0.789   4.662   9.357 -0.3106 -0.0329 -0.8181
    3SAPS  H12R  327   0.803   4.554   9.368 -1.3118  0.0373  1.5807
    3SAPS  C213  328   0.739   4.718   9.231  0.0536  0.3885 -0.0935
    3SAPS  H13R  329   0.803   4.806   9.210  0.9528 -0.2867 -0.2242
    3SAPS  H13S  330   0.631   4.745   9.236  0.5096  2.5115 -0.6119
    3SAPS  C214  331   0.744   4.618   9.108  0.2299 -0.2491  0.3173
    3SAPS  H14R  332   0.799   4.525   9.128  0.7168 -0.1354 -0.4462
    3SAPS  C215  333   0.705   4.643   8.985 -0.1913 -0.2667 -0.5195
    3SAPS  H15R  334   0.703   4.563   8.909 -3.9625 -0.5680 -0.3332
    3SAPS  C216  335   0.637   4.777   8.943  0.0534  0.0810 -0.9373
    3SAPS  H16R  336   0.678   4.811   8.846  0.9279  0.7551 -0.3463
    3SAPS  H16S  337   0.652   4.851   9.024  1.0525 -0.3177 -0.7446
    3SAPS  C217  338   0.490   4.776   8.919  0.6137 -0.0654 -0.1945
    3SAPS  H17R  339   0.456   4.881   8.907  0.0806 -0.1871  0.2145
    3SAPS  H17S  340   0.426   4.728   8.996  0.6668 -0.5131 -0.4252
    3SAPS  C218  341   0.456   4.714   8.788 -0.0221 -0.8860  0.2548
    3SAPS  H18R  342   0.494   4.610   8.785  0.4589 -0.7471  1.3675
    3SAPS  H18S  343   0.508   4.768   8.706  0.3331 -0.6625  0.6304
    3SAPS  C219  344   0.304   4.732   8.772  0.2803  0.1495 -0.4712
    3SAPS  H19R  345   0.267   4.710   8.670 -2.0872  0.2661  0.2982
    3SAPS  H19S  346   0.287   4.840   8.791 -0.0642 -0.1290  0.8822
    3SAPS  C220  347   0.219   4.629   8.858  0.6156  0.1380  0.8772
    3SAPS  H20R  348   0.117   4.671   8.850  1.2898  2.2910  2.4303
    3SAPS  H20S  349   0.246   4.608   8.964 -0.3630 -0.5960  0.9891
    3SAPS  H20T  350   0.222   4.529   8.811  1.1543  0.5048  0.1066
    3SAPS   C33  351   0.824   5.415  10.195  0.3451  0.6940 -0.4291
    3SAPS   H3X  352   0.715   5.395  10.188 -0.0077  2.5791 -0.9271
    3SAPS   H3Y  353   0.891   5.328  10.210  0.5180  0.8699 -0.1642
    3SAPS   C34  354   0.882   5.488  10.073  0.6780  0.1300  0.0821
    3SAPS   H4X  355   0.901   5.403  10.004 -0.9296  0.1002 -0.3499
    3SAPS   H4Y  356   0.982   5.530  10.097  0.8874 -0.4530  0.2521
    3SAPS   C35  357   0.796   5.595  10.009 -0.1157 -0.3133  0.4520
    3SAPS   H5X  358   0.784   5.684  10.074 -0.8121  0.5873 -0.8613
    3SAPS   H5Y  359   0.698   5.549   9.984 -1.1793  0.7686  2.4173
    3SAPS   C36  360   0.863   5.648   9.875 -0.1378 -0.3841 -0.2890
    3SAPS   H6X  361   0.856   5.576   9.791 -3.5787 -0.3028 -0.2151
    3SAPS   H6Y  362   0.970   5.671   9.893  0.6419 -3.2640 -0.6702
    3SAPS   C37  363   0.801   5.775   9.831  0.3072 -0.3000 -0.6617
    3SAPS   H7X  364   0.800   5.836   9.923  1.0090 -1.5469  0.1971
    3SAPS   H7Y  365   0.699   5.768   9.787  0.4146 -3.7869 -0.5725
    3SAPS   C38  366   0.893   5.860   9.738 -0.0927 -0.6457  0.2054
    3SAPS   H8X  367   0.994   5.847   9.784 -1.0650  3.1323  4.0187
    3SAPS   H8Y  368   0.875   5.969   9.752 -0.9184 -0.8691  1.0584
    3SAPS   C39  369   0.897   5.815   9.588  0.1351 -0.4229 -0.7691
    3SAPS   H9X  370   0.812   5.872   9.545 -0.9440 -0.6709  0.9491
    3SAPS   H9Y  371   0.888   5.704   9.589  0.1131 -0.4705 -2.3569
    3SAPS  C310  372   1.023   5.854   9.523 -0.3772  0.6262  0.8772
    3SAPS  H10X  373   1.104   5.784   9.553  0.1555  0.3146 -1.1427
    3SAPS  H10Y  374   1.056   5.956   9.553  1.9718 -0.0937  0.9454
    3SAPS  C311  375   0.999   5.859   9.367 -0.0923  0.3945  0.4483
    3SAPS  H11X  376   0.940   5.767   9.348  1.1276 -0.3762  0.2506
    3SAPS  H11Y  377   1.096   5.844   9.313 -0.6320  2.5416 -1.2559
    3SAPS  C312  378   0.930   5.986   9.318  0.2308  0.1567  0.7776
    3SAPS  H12X  379   0.989   6.081   9.325  0.6036 -0.0525  0.4726
    3SAPS  H12Y  380   0.836   6.007   9.373  0.7737  2.4177  0.9641
    3SAPS  C313  381   0.880   5.981   9.172 -0.3086  0.5278  0.0870
    3SAPS  H13X  382   0.812   5.893   9.166  0.2134  0.0951  0.3328
    3SAPS  H13Y  383   0.967   5.979   9.102  0.1207 -0.1579  0.6287
    3SAPS  C314  384   0.793   6.093   9.134  0.0652  0.0395 -1.5048
    3SAPS  H14X  385   0.843   6.190   9.152 -1.6859  0.4341  1.7400
    3SAPS  H14Y  386   0.703   6.105   9.197  0.9574  0.5252 -0.2973
    3SAPS  C315  387   0.746   6.082   8.992  0.7997  0.3765  1.2183
    3SAPS  H15X  388   0.682   6.172   8.984  0.9153  0.5480  2.0402
    3SAPS  H15Y  389   0.680   5.995   8.973 -0.1734  1.3033  0.2266
    3SAPS  C316  390   0.856   6.091   8.890  0.5777  0.7671 -0.5989
    3SAPS  H16X  391   0.815   6.081   8.787  1.4158 -0.5421 -0.8476
    3SAPS  H16Y  392   0.924   6.003   8.904 -0.4794  0.0165 -0.0596
    3SAPS  C317  393   0.943   6.215   8.899 -0.2547  0.5708 -0.2440
    3SAPS  H17X  394   0.996   6.229   8.995  1.7797 -2.0621 -0.8694
    3SAPS  H17Y  395   0.884   6.309   8.888  0.2193  1.4728  3.6829
    3SAPS  C318  396   1.031   6.219   8.776  0.5462 -0.6875  0.0733
    3SAPS  H18X  397   1.113   6.293   8.790  1.1828 -0.6268 -3.2014
    3SAPS  H18Y  398   0.970   6.245   8.686  1.4131 -0.3846 -0.4435
    3SAPS  H18Z  399   1.080   6.122   8.754  0.6057 -0.8785  1.0214
    4SAPS     N  400   1.659   0.152  11.120  0.1375  0.0263  0.0050
    4SAPS   HN1  401   1.575   0.212  11.107 -0.7732 -1.3454 -0.6601
    4SAPS   HN2  402   1.655   0.073  11.053 -1.3550  0.9166 -1.0147
    4SAPS   HN3  403   1.664   0.121  11.219  0.3173  3.3176  1.1686
    4SAPS   C12  404   1.786   0.236  11.099  0.2479  0.1249 -0.4152
    4SAPS  H12A  405   1.774   0.299  11.012 -0.8590  0.5896  0.0527
    4SAPS   C13  406   1.796   0.330  11.222  0.3776  0.6928 -0.1541
    4SAPS  O13A  407   1.727   0.312  11.325  0.8180  0.1607 -0.0733
    4SAPS  O13B  408   1.895   0.408  11.219 -0.0072 -0.0094  0.1297
    4SAPS   C11  409   1.914   0.145  11.103  0.3379 -0.1705 -0.0471
    4SAPS  H11A  410   1.925   0.103  11.205 -1.4454  0.0660  0.2650
    4SAPS  H11B  411   2.008   0.201  11.083 -0.0367  1.2476  1.8183
    4SAPS     P  412   1.999   0.014  10.888 -0.0696  0.2429 -0.4996
    4SAPS   O13  413   2.115  -0.060  10.943  0.3019 -0.0017 -0.3564
    4SAPS   O14  414   1.915  -0.053  10.784 -0.7230  0.1598 -0.0496
    4SAPS   O12  415   1.904   0.035  11.013  0.2041 -0.1337 -0.1219
    4SAPS   O11  416   2.053   0.155  10.842  0.3073 -0.3174  0.2324
    4SAPS    C1  417   1.976   0.248  10.766 -0.3075  0.0854 -0.3096
    4SAPS    HA  418   1.868   0.251  10.795 -0.3924  0.9391 -0.6965
    4SAPS    HB  419   2.021   0.347  10.785 -1.5772  0.6545 -0.1609
    4SAPS    C2  420   1.995   0.224  10.616  0.4521 -0.6521  0.1892
    4SAPS    HS  421   1.961   0.124  10.584 -1.4974  0.3238 -0.9933
    4SAPS   O21  422   2.135   0.238  10.593  0.6268  0.1273  0.3653
    4SAPS   C21  423   2.211   0.123  10.568  0.3658 -0.0924  0.5153
    4SAPS   O22  424   2.164   0.013  10.559 -0.1600  0.3016 -0.1610
    4SAPS   C22  425   2.358   0.156  10.554 -0.3128 -0.9846  0.6657
    4SAPS   H2R  426   2.368   0.265  10.572  1.8818 -1.6722  4.9670
    4SAPS   H2S  427   2.423   0.105  10.629  1.1240  1.2129  0.9994
    4SAPS    C3  428   1.921   0.321  10.515 -0.2998 -0.6425 -0.0627
    4SAPS    HX  429   1.970   0.420  10.520 -0.0637 -0.8180  2.0872
    4SAPS    HY  430   1.820   0.333  10.560  0.4392 -1.0467  1.8062
    4SAPS   O31  431   1.926   0.277  10.378 -0.1834 -0.5393 -0.1741
    4SAPS   C31  432   1.848   0.175  10.341 -0.8423 -0.1605  0.3083
    4SAPS   O32  433   1.759   0.125  10.404  0.1817  0.3811  0.1352
    4SAPS   C32  434   1.904   0.129  10.205 -0.0980 -0.4436  0.6178
    4SAPS   H2X  435   1.930   0.222  10.149 -0.2759 -0.7638 -0.0091
    4SAPS   H2Y  436   1.813   0.085  10.158  0.9153 -1.4063 -0.5087
    4SAPS   C23  437   2.406   0.129  10.407  0.9143  0.2242 -0.4227
    4SAPS   H3R  438   2.355   0.035  10.377 -1.9452  1.5019  0.0987
    4SAPS   H3S  439   2.516   0.113  10.403  0.4752 -3.4065 -3.4318
    4SAPS   C24  440   2.372   0.251  10.317 -0.1485  0.1782  0.2560
    4SAPS   H4R  441   2.427   0.343  10.348  1.1044 -0.0904 -1.0626
    4SAPS   H4S  442   2.267   0.276  10.343  0.3735  0.6513  2.1301
    4SAPS   C25  443   2.382   0.220  10.169  0.4840 -0.1249  0.1751
    4SAPS   H5R  444   2.421   0.121  10.142  0.2850  0.1371 -1.1829
    4SAPS   C26  445   2.357   0.301  10.059 -0.2906 -0.1223 -0.7577
    4SAPS   H6R  446   2.374   0.247   9.965 -0.3845  0.1895 -0.9514
    4SAPS   C27  447   2.300   0.442  10.051 -0.4195 -0.1735  0.3151
    4SAPS   H7R  448   2.284   0.503  10.142  1.0260  0.7081  0.0037
    4SAPS   H7S  449   2.200   0.433  10.004 -1.3115  0.9211  1.9250
    4SAPS   C28  450   2.384   0.542   9.970  0.1029  0.3568  0.5208
    4SAPS   H8R  451   2.431   0.621  10.031  1.5487  2.8740 -3.4697
    4SAPS   C29  452   2.415   0.538   9.838  0.5958 -0.8252 -0.1629
    4SAPS   H9R  453   2.480   0.615   9.793 -1.3746  0.1886 -1.3847
    4SAPS  C210  454   2.381   0.437   9.731  0.1735  0.2500  0.2729
    4SAPS  H10R  455   2.355   0.487   9.635  1.1216 -0.0942 -0.1753
    4SAPS  H10S  456   2.286   0.389   9.761 -0.5938  0.6946 -1.3265
    4SAPS  C211  457   2.494   0.340   9.716  0.1327 -0.1106  0.4477
    4SAPS  H11R  458   2.570   0.352   9.795  0.9752  3.3500 -0.7161
    4SAPS  C212  459   2.519   0.266   9.610  0.5752  0.4931 -0.3701
    4SAPS  H12R  460   2.608   0.203   9.595 -0.3699 -0.3634 -3.1322
    4SAPS  C213  461   2.413   0.260   9.496  0.4177  0.0551  0.5741
    4SAPS  H13R  462   2.312   0.275   9.539  0.4982 -0.2628  0.8850
    4SAPS  H13S  463   2.413   0.160   9.448  1.6910  0.5325 -0.5026
    4SAPS  C214  464   2.428   0.365   9.393 -0.4485 -0.6371  0.3367
    4SAPS  H14R  465   2.494   0.447   9.423 -0.4856 -0.5380  0.1527
    4SAPS  C215  466   2.373   0.369   9.262 -0.2780 -0.0119  0.1173
    4SAPS  H15R  467   2.391   0.457   9.199 -0.4322  1.4622  2.0560
    4SAPS  C216  468   2.281   0.261   9.209 -0.4162  0.4342  0.6868
    4SAPS  H16R  469   2.211   0.223   9.287 -0.0677  1.1450  1.3611
    4SAPS  H16S  470   2.343   0.171   9.189 -1.4799 -0.4322  1.1557
    4SAPS  C217  471   2.218   0.295   9.075 -0.2328  0.2354 -0.3192
    4SAPS  H17R  472   2.163   0.202   9.048 -0.8074 -0.0884  1.7808
    4SAPS  H17S  473   2.302   0.321   9.006 -0.4617  0.6521 -0.4448
    4SAPS  C218  474   2.101   0.402   9.096  0.2033 -0.0101 -0.4544
    4SAPS  H18R  475   2.138   0.505   9.110 -1.2495  0.7240 -1.7407
    4SAPS  H18S  476   2.043   0.368   9.185  0.1445  0.5218 -0.2916
    4SAPS  C219  477   1.997   0.395   8.977 -0.2386 -0.2163  0.5256
    4SAPS  H19R  478   2.063   0.376   8.889  2.8756  1.5876  2.3047
    4SAPS  H19S  479   1.942   0.490   8.959 -2.3538 -1.4973 -0.2146
    4SAPS  C220  480   1.889   0.282   8.993 -0.4999 -0.7730 -0.4642
    4SAPS  H20R  481   1.812   0.313   9.067  0.1120 -1.1980  0.3552
    4SAPS  H20S  482   1.937   0.189   9.029 -0.9489 -1.0747 -0.6290
    4SAPS  H20T  483   1.831   0.266   8.899 -0.8060  1.7251 -0.7651
    4SAPS   C33  484   2.026   0.031  10.212 -0.4537 -0.4459  0.6745
    4SAPS   H3X  485   2.017  -0.049  10.288 -0.6114 -1.9297 -0.8353
    4SAPS   H3Y  486   2.119   0.085  10.239 -0.3901 -0.5098  0.5827
    4SAPS   C34  487   2.035  -0.034  10.067  0.2031 -0.2857 -0.4946
    4SAPS   H4X  488   1.936  -0.079  10.042 -0.6940  1.4912 -0.3084
    4SAPS   H4Y  489   2.109  -0.117  10.070 -0.1319 -0.7024 -2.3466
    4SAPS   C35  490   2.082   0.062   9.954 -0.5714 -0.3837  0.2296
    4SAPS   H5X  491   2.171   0.123   9.982 -0.7378  0.5513 -1.2148
    4SAPS   H5Y  492   1.998   0.130   9.928 -0.0367  0.0132 -0.4895
    4SAPS   C36  493   2.129  -0.012   9.825 -0.2039  0.2708  0.7869
    4SAPS   H6X  494   2.037  -0.068   9.798  0.2873 -0.8978  1.4818
    4SAPS   H6Y  495   2.210  -0.086   9.832  0.9903  1.2887 -1.1708
    4SAPS   C37  496   2.172   0.079   9.712  0.4459  0.1142 -0.0263
    4SAPS   H7X  497   2.281   0.097   9.722  0.2489  0.9785  0.7168
    4SAPS   H7Y  498   2.118   0.170   9.746  0.0306 -0.1062 -0.0824
    4SAPS   C38  499   2.139   0.025   9.571 -0.4337  0.4335  0.5604
    4SAPS   H8X  500   2.159   0.101   9.493  1.5120 -0.4015  0.2006
    4SAPS   H8Y  501   2.033  -0.007   9.575  0.1948 -2.4249 -2.0188
    4SAPS   C39  502   2.224  -0.097   9.536 -0.9179 -0.3494 -0.5841
    4SAPS   H9X  503   2.193  -0.184   9.598  0.0464  1.1219  2.1702
    4SAPS   H9Y  504   2.331  -0.088   9.563 -0.4845 -2.2035 -1.5711
    4SAPS  C310  505   2.212  -0.154   9.394  0.2726 -0.6400 -0.0130
    4SAPS  H10X  506   2.202  -0.071   9.321 -1.3297 -0.1741  0.6913
    4SAPS  H10Y  507   2.128  -0.227   9.396 -1.1555  0.9488  0.6450
    4SAPS  C311  508   2.333  -0.234   9.351  0.1027 -0.0935  0.0971
    4SAPS  H11X  509   2.367  -0.308   9.427 -0.9811 -1.0578 -0.3184
    4SAPS  H11Y  510   2.421  -0.168   9.334 -0.3562  0.6646  0.6050
    4SAPS  C312  511   2.321  -0.323   9.222  0.9389 -0.2372 -0.0001
    4SAPS  H12X  512   2.228  -0.383   9.233 -0.9126  2.2764 -0.9219
    4SAPS  H12Y  513   2.405  -0.396   9.217  1.7627  0.7111 -0.4674
    4SAPS  C313  514   2.311  -0.250   9.091  0.2507 -0.1985 -0.0054
    4SAPS  H13X  515   2.230  -0.174   9.092 -0.3932 -0.8647 -0.4159
    4SAPS  H13Y  516   2.297  -0.327   9.012  0.7937 -1.7092  1.3450
    4SAPS  C314  517   2.442  -0.174   9.055  0.3975  0.0600  0.4022
    4SAPS  H14X  518   2.525  -0.248   9.049  0.3239  0.0672 -1.0922
    4SAPS  H14Y  519   2.471  -0.091   9.122  2.0638  1.0737 -1.4663
    4SAPS  C315  520   2.436  -0.103   8.916  0.5895  0.1177 -0.4324
    4SAPS  H15X  521   2.391  -0.179   8.848 -0.9816  2.3304 -2.0438
    4SAPS  H15Y  522   2.539  -0.088   8.877  0.0309 -0.5071 -2.2821
    4SAPS  C316  523   2.360   0.026   8.908  0.6874  0.4763  0.1573
    4SAPS  H16X  524   2.384   0.097   8.990  0.0421  0.0585  0.7206
    4SAPS  H16Y  525   2.253  -0.000   8.921  0.5716 -0.0235 -1.5594
    4SAPS  C317  526   2.365   0.107   8.786  0.1771 -0.1084 -0.4417
    4SAPS  H17X  527   2.286   0.183   8.799 -0.9927 -1.1888 -0.9622
    4SAPS  H17Y  528   2.350   0.026   8.711  1.7075  1.4497 -2.5263
    4SAPS  C318  529   2.497   0.174   8.741  0.3888 -0.0012  0.0365
    4SAPS  H18X  530   2.480   0.230   8.646  1.1814  2.9012  1.4754
    4SAPS  H18Y  531   2.576   0.098   8.728 -0.9360 -1.4951  0.3367
    4SAPS  H18Z  532   2.526   0.238   8.827 -0.2844 -1.3285  1.3031
    5SAPS     N  533   6.296   0.590  11.199  0.2250 -0.5391 -0.4044
    5SAPS   HN1  534   6.311   0.686  11.162  0.4427 -0.0680  0.8675
    5SAPS   HN2  535   6.254   0.536  11.121 -1.8607  1.6484 -0.9224
    5SAPS   HN3  536   6.233   0.598  11.281  1.7409 -0.7015  0.8297
    5SAPS   C12  537   6.414   0.527  11.252 -0.0916 -0.1031 -0.7135
    5SAPS  H12A  538   6.455   0.585  11.333 -2.5958 -0.0671  0.6544
    5SAPS   C13  539   6.389   0.394  11.322 -0.1876  0.2120  0.3516
    5SAPS  O13A  540   6.273   0.343  11.341 -0.2037  0.5995  0.5547
    5SAPS  O13B  541   6.481   0.344  11.393  0.5652  0.7337 -1.1599
    5SAPS   C11  542   6.513   0.512  11.137  0.1068  0.4034  0.0210
    5SAPS  H11A  543   6.479   0.443  11.057  3.4533  0.0068 -1.1734
    5SAPS  H11B  544   6.605   0.463  11.174  0.6664  0.7382 -0.9114
    5SAPS     P  545   6.671   0.721  11.141  0.2557  0.0115 -0.5569
    5SAPS   O13  546   6.693   0.827  11.046 -0.8115  0.3068 -0.6414
    5SAPS   O14  547   6.621   0.760  11.277 -0.1489  0.4410  0.0948
    5SAPS   O12  548   6.550   0.643  11.081 -0.3039  0.3655  0.8205
    5SAPS   O11  549   6.791   0.618  11.150  0.4236  0.1085  0.1421
    5SAPS    C1  550   6.918   0.638  11.204  0.5568 -0.4438 -0.3328
    5SAPS    HA  551   6.934   0.743  11.239 -0.1291 -1.2206  2.5235
    5SAPS    HB  552   6.944   0.567  11.285 -0.1900  1.1663  1.3923
    5SAPS    C2  553   7.018   0.605  11.088  0.4658 -0.8252 -0.0851
    5SAPS    HS  554   7.126   0.614  11.114  0.3307 -1.3258  0.6788
    5SAPS   O21  555   6.991   0.689  10.976 -0.0539  0.6215  0.2691
    5SAPS   C21  556   7.041   0.806  10.984  0.0885  0.3225  0.0111
    5SAPS   O22  557   7.115   0.845  11.074 -0.1502  0.3983 -0.5675
    5SAPS   C22  558   6.994   0.884  10.864 -0.6655 -0.4034 -0.2981
    5SAPS   H2R  559   6.932   0.827  10.792 -1.5404  3.1835 -2.6541
    5SAPS   H2S  560   6.935   0.971  10.899 -0.3124 -0.7237  1.1463
    5SAPS    C3  561   6.998   0.454  11.059  0.1148  0.2414 -0.6864
    5SAPS    HX  562   6.892   0.455  11.027 -0.2935 -1.1281  0.4896
    5SAPS    HY  563   7.012   0.394  11.152  1.0177 -0.6628 -1.3834
    5SAPS   O31  564   7.095   0.419  10.954 -0.4193 -0.1774  0.2302
    5SAPS   C31  565   7.049   0.401  10.833  0.5613 -0.3381 -0.0431
    5SAPS   O32  566   6.933   0.419  10.799  0.0217 -0.3012  0.3400
    5SAPS   C32  567   7.165   0.358  10.741 -0.6199 -0.6306 -0.1416
    5SAPS   H2X  568   7.223   0.277  10.789  0.6864 -0.8174 -1.9658
    5SAPS   H2Y  569   7.236   0.443  10.734 -0.3636 -0.8016  0.3442
    5SAPS   C23  570   7.119   0.923  10.776 -0.1036 -0.2890 -0.2145
    5SAPS   H3R  571   7.170   1.007  10.828 -0.5907 -0.0983 -0.0384
    5SAPS   H3S  572   7.078   0.958  10.678 -1.1243 -1.1235 -0.1146
    5SAPS   C24  573   7.218   0.810  10.745 -1.2216 -0.4651 -0.5387
    5SAPS   H4R  574   7.255   0.761  10.838 -1.2796  1.6571  0.6459
    5SAPS   H4S  575   7.302   0.854  10.688  0.0369 -1.9299  0.1037
    5SAPS   C25  576   7.148   0.707  10.657  0.3015 -0.6564 -0.4796
    5SAPS   H5R  577   7.072   0.647  10.708 -0.6440  0.0918 -0.9842
    5SAPS   C26  578   7.159   0.694  10.524 -0.5008 -0.4807  0.3914
    5SAPS   H6R  579   7.096   0.622  10.468 -2.6929  1.3458  0.3383
    5SAPS   C27  580   7.249   0.778  10.431 -0.2964 -0.2086  0.1827
    5SAPS   H7R  581   7.321   0.708  10.385 -0.6846 -0.7237  0.3571
    5SAPS   H7S  582   7.304   0.851  10.494 -1.0761  0.4765  0.0920
    5SAPS   C28  583   7.166   0.847  10.325 -0.0179  0.0310  0.2524
    5SAPS   H8R  584   7.082   0.910  10.357 -1.6987 -1.3175 -1.2700
    5SAPS   C29  585   7.179   0.834  10.189  1.0638  1.0053  0.0554
    5SAPS   H9R  586   7.106   0.885  10.124  2.3668  1.2987 -1.2334
    5SAPS  C210  587   7.283   0.751  10.115 -0.1549  0.0980  0.6651
    5SAPS  H10R  588   7.357   0.690  10.171 -1.2567 -2.3682 -0.4371
    5SAPS  H10S  589   7.338   0.831  10.060 -0.7227  1.7822  2.4704
    5SAPS  C211  590   7.217   0.648  10.026  0.5500  0.1856 -0.5127
    5SAPS  H11R  591   7.176   0.562  10.082 -0.8086  0.5096 -0.9774
    5SAPS  C212  592   7.186   0.658   9.903  0.5076 -0.1908  0.4553
    5SAPS  H12R  593   7.155   0.562   9.861  1.0579 -0.9966  1.8352
    5SAPS  C213  594   7.203   0.776   9.813 -0.2981 -0.2868 -0.0509
    5SAPS  H13R  595   7.239   0.866   9.868 -0.9878 -0.8561  1.3787
    5SAPS  H13S  596   7.108   0.802   9.760  0.8459 -1.1142 -2.6588
    5SAPS  C214  597   7.304   0.726   9.709 -0.7376 -0.7307  0.0558
    5SAPS  H14R  598   7.394   0.690   9.760 -0.5015 -1.8237 -1.0986
    5SAPS  C215  599   7.303   0.738   9.575 -0.1797 -0.0341  0.2638
    5SAPS  H15R  600   7.393   0.720   9.516  0.3288  1.6446  0.4842
    5SAPS  C216  601   7.183   0.799   9.505 -0.1357  0.1195 -0.3737
    5SAPS  H16R  602   7.128   0.880   9.557  1.3128  0.5925  0.4751
    5SAPS  H16S  603   7.109   0.718   9.485 -0.5382  0.1850  0.7495
    5SAPS  C217  604   7.232   0.862   9.376  0.7301 -0.2509 -0.4896
    5SAPS  H17R  605   7.293   0.787   9.321 -0.8780 -1.0085 -1.3229
    5SAPS  H17S  606   7.303   0.943   9.402  0.5570 -0.5475  0.9589
    5SAPS  C218  607   7.111   0.899   9.285 -0.9706  0.1557  1.1375
    5SAPS  H18R  608   7.150   0.951   9.195 -0.8918 -0.7812  0.6237
    5SAPS  H18S  609   7.058   0.810   9.245  0.5794  0.4903 -1.9460
    5SAPS  C219  610   7.014   1.003   9.344 -0.4307 -0.5029  0.1088
    5SAPS  H19R  611   7.066   1.095   9.380 -1.4911  0.5175 -0.8947
    5SAPS  H19S  612   6.956   0.958   9.427  0.3470 -1.4062  0.1853
    5SAPS  C220  613   6.918   1.046   9.228  0.0120 -0.3179 -0.4974
    5SAPS  H20R  614   6.970   1.094   9.142 -0.4305  0.8341 -0.1381
    5SAPS  H20S  615   6.841   1.113   9.270 -0.8546 -2.7177  2.0800
    5SAPS  H20T  616   6.863   0.956   9.193 -1.9594 -0.5703  2.8365
    5SAPS   C33  617   7.128   0.317  10.597 -0.0696 -0.0254 -0.5225
    5SAPS   H3X  618   7.222   0.324  10.539  0.6105  0.6152  0.6322
    5SAPS   H3Y  619   7.049   0.384  10.555 -2.8867 -0.7065  3.1543
    5SAPS   C34  620   7.091   0.172  10.575  0.1645 -0.2343  0.1427
    5SAPS   H4X  621   7.159   0.109  10.636 -1.3288 -1.5939  0.5001
    5SAPS   H4Y  622   7.100   0.140  10.469  2.7456  0.5048  0.0638
    5SAPS   C35  623   6.945   0.131  10.618  0.5933  0.6577 -0.1669
    5SAPS   H5X  624   6.892   0.227  10.633 -0.8805 -0.0255 -0.8603
    5SAPS   H5Y  625   6.938   0.077  10.715 -2.3853  1.1600 -0.0224
    5SAPS   C36  626   6.879   0.037  10.514 -0.5331  0.5490  0.0887
    5SAPS   H6X  627   6.782   0.019  10.565 -1.9455 -1.2061 -2.9485
    5SAPS   H6Y  628   6.925  -0.063  10.499 -1.1831  0.1295  0.7952
    5SAPS   C37  629   6.831   0.097  10.382  0.2122  0.3418  0.4736
    5SAPS   H7X  630   6.916   0.126  10.317 -0.5417 -0.9348 -1.1519
    5SAPS   H7Y  631   6.760   0.183  10.392 -0.0906  0.7321 -3.4575
    5SAPS   C38  632   6.740   0.004  10.301  0.3265 -0.3444 -0.1151
    5SAPS   H8X  633   6.659  -0.046  10.358  1.3234 -0.0199  1.6631
    5SAPS   H8Y  634   6.810  -0.072  10.260 -0.0787 -0.8599  0.1472
    5SAPS   C39  635   6.677   0.085  10.191  0.0413  0.5883 -0.3090
    5SAPS   H9X  636   6.758   0.150  10.152 -1.2487  2.2499 -0.2959
    5SAPS   H9Y  637   6.603   0.148  10.243 -0.1373  1.0379 -1.1024
    5SAPS  C310  638   6.616   0.011  10.075 -0.6779  0.1995 -0.7977
    5SAPS  H10X  639   6.558   0.084  10.014 -1.2795 -0.5180 -1.0967
    5SAPS  H10Y  640   6.554  -0.075  10.108 -0.1522 -0.2400 -0.9504
    5SAPS  C311  641   6.717  -0.051   9.982  0.7322 -0.3885  0.4846
    5SAPS  H11X  642   6.782  -0.117  10.044  0.5796 -0.7516  0.2657
    5SAPS  H11Y  643   6.776   0.031   9.937 -0.7587  0.3107 -0.2500
    5SAPS  C312  644   6.653  -0.136   9.880  0.4039 -0.0618 -0.5870
    5SAPS  H12X  645   6.559  -0.095   9.838  0.7136  0.6967 -0.5467
    5SAPS  H12Y  646   6.622  -0.233   9.925 -1.0145  0.9265  0.6628
    5SAPS  C313  647   6.745  -0.164   9.759 -0.3960 -0.2810 -0.0816
    5SAPS  H13X  648   6.679  -0.226   9.695  1.3445 -1.6195 -0.6757
    5SAPS  H13Y  649   6.829  -0.228   9.794  1.6319 -0.1345 -4.0448
    5SAPS  C314  650   6.784  -0.034   9.684  0.6346  0.1075 -0.3014
    5SAPS  H14X  651   6.848   0.025   9.753  1.3419 -2.1230  1.0720
    5SAPS  H14Y  652   6.687   0.015   9.662 -0.3141 -1.2467  0.6819
    5SAPS  C315  653   6.866  -0.059   9.550  0.6272 -0.4103  0.9830
    5SAPS  H15X  654   6.958  -0.104   9.594  0.2528 -1.6791  0.5263
    5SAPS  H15Y  655   6.897   0.033   9.496  0.0188 -0.8620 -0.1695
    5SAPS  C316  656   6.810  -0.157   9.452 -0.0567  0.0129 -0.3254
    5SAPS  H16X  657   6.712  -0.118   9.419 -0.5522 -2.4228 -1.9646
    5SAPS  H16Y  658   6.798  -0.253   9.507 -0.3280  0.5086  0.5031
    5SAPS  C317  659   6.899  -0.190   9.333 -0.0689  0.1521 -0.2283
    5SAPS  H17X  660   6.929  -0.093   9.288  4.0448 -0.2872  1.1479
    5SAPS  H17Y  661   6.835  -0.256   9.270 -0.3883 -2.9281  2.9775
    5SAPS  C318  662   7.029  -0.268   9.364 -0.3327  0.4644 -0.4898
    5SAPS  H18X  663   7.092  -0.215   9.439  1.0071  0.0297 -1.2729
    5SAPS  H18Y  664   7.090  -0.283   9.273 -0.6100  0.9584 -0.7606
    5SAPS  H18Z  665   7.000  -0.370   9.396  1.2958  0.1725  0.1359
    6SAPS     N  666   1.466   4.719  11.227  0.1810 -0.1057 -0.0041
    6SAPS   HN1  667   1.380   4.697  11.281 -0.1893  1.1024 -0.0629
    6SAPS   HN2  668   1.528   4.746  11.306 -0.7671  1.2810  0.3174
    6SAPS   HN3  669   1.446   4.807  11.174 -1.7705  0.2503  1.2276
    6SAPS   C12  670   1.518   4.605  11.146  0.0862  0.1805  1.1021
    6SAPS  H12A  671   1.585   4.649  11.074 -1.9673 -0.0591 -1.0886
    6SAPS   C13  672   1.594   4.504  11.221 -0.3529  0.8342 -0.0156
    6SAPS  O13A  673   1.616   4.529  11.345 -0.0007  0.0293 -0.5367
    6SAPS  O13B  674   1.647   4.406  11.163 -0.3043  0.8029 -0.1375
    6SAPS   C11  675   1.398   4.539  11.067 -0.1035 -0.0711 -0.4562
    6SAPS  H11A  676   1.322   4.509  11.143  3.2585 -0.2909  3.1673
    6SAPS  H11B  677   1.438   4.444  11.025  1.3361 -0.7878  2.2835
    6SAPS     P  678   1.402   4.659  10.831  0.1753  0.1738 -0.1801
    6SAPS   O13  679   1.293   4.706  10.751  0.3872 -0.0398  0.0365
    6SAPS   O14  680   1.522   4.742  10.836 -0.1139 -0.2146  0.2776
    6SAPS   O12  681   1.350   4.630  10.978 -0.1996 -0.4204  0.4848
    6SAPS   O11  682   1.432   4.511  10.779  0.1808 -1.0186 -0.3582
    6SAPS    C1  683   1.520   4.498  10.664 -0.4537  1.0144 -0.4735
    6SAPS    HA  684   1.614   4.557  10.670 -0.6767  1.3009  0.3668
    6SAPS    HB  685   1.563   4.395  10.662  1.0603  1.5143  2.0237
    6SAPS    C2  686   1.461   4.548  10.527 -0.1510  0.8074 -0.2477
    6SAPS    HS  687   1.456   4.658  10.540  0.2412  0.7345  0.5716
    6SAPS   O21  688   1.338   4.476  10.516  0.9806  0.1118 -0.1253
    6SAPS   C21  689   1.233   4.543  10.479 -0.3780  0.5647  0.1475
    6SAPS   O22  690   1.238   4.660  10.455 -0.0557 -0.2241 -0.3002
    6SAPS   C22  691   1.113   4.452  10.462  0.2139 -0.5652 -0.0359
    6SAPS   H2R  692   1.152   4.354  10.428  0.8185 -1.2502  2.4635
    6SAPS   H2S  693   1.059   4.442  10.559  0.8859 -1.4409  0.2563
    6SAPS    C3  694   1.563   4.509  10.414  0.1646  0.3896 -0.6391
    6SAPS    HX  695   1.583   4.400  10.419  2.0682  0.7216 -0.4459
    6SAPS    HY  696   1.656   4.562  10.442 -0.4742  2.2143 -1.7895
    6SAPS   O31  697   1.522   4.550  10.284 -0.3021  0.1832  0.9151
    6SAPS   C31  698   1.441   4.459  10.225 -0.7770  0.9732  0.8422
    6SAPS   O32  699   1.397   4.356  10.270 -0.1466  0.5081 -0.2654
    6SAPS   C32  700   1.413   4.502  10.074 -0.0494 -0.0838  0.2801
    6SAPS   H2X  701   1.312   4.458  10.061 -0.4773  1.0954 -0.6222
    6SAPS   H2Y  702   1.480   4.451  10.002  3.2170  1.0981  2.2250
    6SAPS   C23  703   1.011   4.519  10.359 -0.3381  1.1392  0.7155
    6SAPS   H3R  704   0.971   4.613  10.405 -0.9275  1.1199  0.2537
    6SAPS   H3S  705   0.926   4.449  10.343  0.5479  0.0542  0.6790
    6SAPS   C24  706   1.068   4.532  10.213 -0.0684  0.4148  0.1743
    6SAPS   H4R  707   1.110   4.435  10.177 -1.3338 -0.7763  1.7790
    6SAPS   H4S  708   1.155   4.602  10.215  0.5659 -0.3693  0.9025
    6SAPS   C25  709   0.973   4.606  10.124 -0.5395  0.0863  0.3335
    6SAPS   H5R  710   0.952   4.705  10.166 -1.3889 -0.7603  2.0044
    6SAPS   C26  711   0.911   4.562  10.014 -0.1624 -1.2093  0.4486
    6SAPS   H6R  712   0.845   4.630   9.957  2.4176  0.0682 -1.2128
    6SAPS   C27  713   0.922   4.424   9.954  0.5341  0.9999  0.6725
    6SAPS   H7R  714   0.825   4.392   9.911  0.9865 -0.2949  0.5777
    6SAPS   H7S  715   0.955   4.354  10.034 -0.8982 -0.3461  0.1168
    6SAPS   C28  716   1.031   4.409   9.847  0.2195 -0.0615  0.1090
    6SAPS   H8R  717   1.134   4.440   9.871  0.5382 -0.8331 -0.2483
    6SAPS   C29  718   1.020   4.344   9.732 -0.3013 -0.8109  0.1067
    6SAPS   H9R  719   1.107   4.338   9.665 -0.4853  1.4507 -0.4221
    6SAPS  C210  720   0.899   4.271   9.689  0.6803 -0.3053  0.0739
    6SAPS  H10R  721   0.852   4.347   9.622 -1.4643 -2.6920 -1.3219
    6SAPS  H10S  722   0.834   4.233   9.770  1.6821 -2.3552 -0.0066
    6SAPS  C211  723   0.932   4.150   9.610 -0.3395 -0.2680  0.3162
    6SAPS  H11R  724   0.939   4.060   9.673 -1.1522 -0.1304  0.6176
    6SAPS  C212  725   0.956   4.134   9.474  0.2458 -0.6223  0.2069
    6SAPS  H12R  726   0.985   4.037   9.432  1.3889  0.3708 -1.3671
    6SAPS  C213  727   0.937   4.243   9.366  0.5980 -0.3910  0.1427
    6SAPS  H13R  728   1.030   4.244   9.306  1.1219  2.4981  0.8883
    6SAPS  H13S  729   0.920   4.346   9.403  0.7164 -0.8133  1.4501
    6SAPS  C214  730   0.824   4.199   9.276 -0.3554 -0.4707  0.2106
    6SAPS  H14R  731   0.743   4.151   9.332  1.1559 -2.1357  1.0682
    6SAPS  C215  732   0.817   4.217   9.144  0.6832 -0.1703 -0.4844
    6SAPS  H15R  733   0.728   4.173   9.097  2.1402 -3.7112 -0.2155
    6SAPS  C216  734   0.916   4.291   9.054  0.4912  0.0437  0.2928
    6SAPS  H16R  735   0.951   4.383   9.105  2.4048 -2.0610  3.0915
    6SAPS  H16S  736   0.865   4.307   8.957  1.9995 -1.4794 -0.8098
    6SAPS  C217  737   1.048   4.215   9.025  0.5485  0.2025 -0.0981
    6SAPS  H17R  738   1.080   4.155   9.113 -1.6127 -1.1367 -0.1524
    6SAPS  H17S  739   1.126   4.289   8.998  0.5336  0.5572  0.7969
    6SAPS  C218  740   1.024   4.132   8.901 -0.5579  0.1435  0.6122
    6SAPS  H18R  741   1.001   4.199   8.815  0.4026  0.5344  0.6568
    6SAPS  H18S  742   0.941   4.060   8.920  1.6057 -2.0682  2.2880
    6SAPS  C219  743   1.146   4.053   8.854 -0.1670 -0.0456 -0.1996
    6SAPS  H19R  744   1.117   3.975   8.781 -0.8687  1.0949 -1.1713
    6SAPS  H19S  745   1.183   3.994   8.941  1.6646 -1.2142 -1.6788
    6SAPS  C220  746   1.264   4.134   8.813  0.0109 -0.3746 -0.3549
    6SAPS  H20R  747   1.227   4.205   8.736 -1.5423  0.4066  1.0479
    6SAPS  H20S  748   1.353   4.076   8.781  0.4771 -1.1689  2.1174
    6SAPS  H20T  749   1.304   4.190   8.901 -1.7205  1.3896 -0.6265
    6SAPS   C33  750   1.412   4.653  10.057 -0.1410 -0.1735  0.0395
    6SAPS   H3X  751   1.519   4.682  10.042 -0.0694 -0.0319  0.7594
    6SAPS   H3Y  752   1.381   4.713  10.146  1.0397  0.4653  0.0480
    6SAPS   C34  753   1.308   4.706   9.964  0.3242 -0.6390  0.6173
    6SAPS   H4X  754   1.301   4.816   9.981 -0.0433 -0.9852  3.0584
    6SAPS   H4Y  755   1.215   4.655   9.996 -2.2471  2.0246 -2.0261
    6SAPS   C35  756   1.346   4.676   9.819 -0.1967  0.7893  0.0326
    6SAPS   H5X  757   1.362   4.568   9.802 -1.7585  0.8964 -2.8276
    6SAPS   H5Y  758   1.445   4.721   9.797 -0.4096  1.3284  0.1503
    6SAPS   C36  759   1.248   4.734   9.720 -0.2683  0.6003 -0.0120
    6SAPS   H6X  760   1.241   4.845   9.727 -1.0651  0.4861  1.2478
    6SAPS   H6Y  761   1.150   4.691   9.748  0.0541 -0.8943 -1.0627
    6SAPS   C37  762   1.268   4.689   9.573 -0.5296  0.3672  0.2234
    6SAPS   H7X  763   1.245   4.581   9.558  0.1336  0.0323  1.5239
    6SAPS   H7Y  764   1.373   4.712   9.545 -1.2093  1.3058 -1.7317
    6SAPS   C38  765   1.178   4.773   9.488  0.1338 -0.1598  0.1316
    6SAPS   H8X  766   1.198   4.878   9.516 -1.0041 -0.2375  1.3402
    6SAPS   H8Y  767   1.077   4.747   9.527 -0.5410 -0.5880 -1.7996
    6SAPS   C39  768   1.185   4.754   9.343 -0.1811  0.0539  0.4153
    6SAPS   H9X  769   1.117   4.668   9.330 -1.3356  1.1548 -1.3059
    6SAPS   H9Y  770   1.294   4.737   9.329 -0.2703 -0.2646  0.0881
    6SAPS  C310  771   1.124   4.869   9.262  0.3884 -0.5296 -0.3646
    6SAPS  H10X  772   1.164   4.964   9.303  2.5623 -2.1687  1.6243
    6SAPS  H10Y  773   1.014   4.860   9.273 -0.4654  3.1966 -3.6860
    6SAPS  C311  774   1.143   4.859   9.111 -0.1688 -0.1140  0.4847
    6SAPS  H11X  775   1.247   4.882   9.080 -1.1285  1.4131 -1.8508
    6SAPS  H11Y  776   1.064   4.918   9.061  0.1996 -0.0181  0.0067
    6SAPS  C312  777   1.121   4.714   9.057  0.2344 -0.2687 -0.2736
    6SAPS  H12X  778   1.031   4.675   9.111  0.9846  0.3394  1.4978
    6SAPS  H12Y  779   1.206   4.646   9.079  1.6037  1.1292 -1.0572
    6SAPS  C313  780   1.086   4.713   8.907  0.2191 -0.1176  0.1265
    6SAPS  H13X  781   1.164   4.759   8.843 -1.0375  0.0752 -1.3395
    6SAPS  H13Y  782   0.994   4.771   8.884 -0.1607  0.2236  2.2692
    6SAPS  C314  783   1.075   4.570   8.843 -0.1384 -0.5732 -0.0897
    6SAPS  H14X  784   0.991   4.514   8.890 -0.4039 -0.4554 -0.4232
    6SAPS  H14Y  785   1.171   4.518   8.864  1.4098  2.0250 -0.2875
    6SAPS  C315  786   1.050   4.580   8.696  0.0602  0.4287  0.0117
    6SAPS  H15X  787   1.153   4.592   8.656 -0.1103 -1.4082 -1.1110
    6SAPS  H15Y  788   0.975   4.658   8.672 -3.0738 -2.2634  0.3011
    6SAPS  C316  789   0.986   4.452   8.628 -0.0595 -0.5021 -0.6116
    6SAPS  H16X  790   1.038   4.365   8.675 -0.0093  0.7825  1.9229
    6SAPS  H16Y  791   1.004   4.457   8.519  0.1452  2.5271 -0.5211
    6SAPS  C317  792   0.837   4.431   8.641  0.2142 -0.3369 -0.1872
    6SAPS  H17X  793   0.808   4.444   8.747  1.5245  0.2560  0.1268
    6SAPS  H17Y  794   0.813   4.327   8.611 -0.2455 -0.3126  0.0875
    6SAPS  C318  795   0.751   4.529   8.552  0.4904  0.3749  0.4028
    6SAPS  H18X  796   0.794   4.539   8.450  2.2720 -4.0468  0.5176
    6SAPS  H18Y  797   0.773   4.628   8.598 -0.8376  0.5084  0.7760
    6SAPS  H18Z  798   0.643   4.509   8.541  1.1621 -4.2864  0.3056
    7SAPS     N  799   0.371   5.050  11.036  0.5180 -0.4631  0.0045
    7SAPS   HN1  800   0.416   4.990  11.109 -0.5665 -0.0404  1.0466
    7SAPS   HN2  801   0.323   4.985  10.971 -3.6364  2.0851  0.1948
    7SAPS   HN3  802   0.449   5.102  10.992 -1.0366  2.5802  0.5826
    7SAPS   C12  803   0.275   5.143  11.101  0.2235  0.4892 -0.7045
    7SAPS  H12A  804   0.175   5.104  11.090  0.1543 -0.5996  2.4977
    7SAPS   C13  805   0.307   5.164  11.249  0.2446  0.8054  0.5178
    7SAPS  O13A  806   0.413   5.128  11.301 -0.5027 -0.7226 -0.5365
    7SAPS  O13B  807   0.239   5.250  11.305  0.4129 -0.4474  0.1726
    7SAPS   C11  808   0.287   5.282  11.028  0.0148  0.3441 -0.0083
    7SAPS  H11A  809   0.214   5.344  11.084 -2.4961 -0.2702 -2.3733
    7SAPS  H11B  810   0.238   5.268  10.929  1.6453 -1.5204 -0.6017
    7SAPS     P  811   0.510   5.339  10.898 -0.2491 -0.3201 -0.1023
    7SAPS   O13  812   0.630   5.422  10.914 -0.0554  0.0180 -0.7537
    7SAPS   O14  813   0.527   5.199  10.856 -0.1515  0.2304 -0.1048
    7SAPS   O12  814   0.420   5.346  11.027  0.7844 -0.0692  0.0209
    7SAPS   O11  815   0.414   5.404  10.788  0.1029 -0.2230 -0.0399
    7SAPS    C1  816   0.344   5.526  10.815  0.0243  0.3643  0.0700
    7SAPS    HA  817   0.280   5.515  10.905 -0.3541  1.6558 -0.0312
    7SAPS    HB  818   0.412   5.609  10.844 -1.1299  0.8402  1.5306
    7SAPS    C2  819   0.256   5.571  10.696  0.6691  0.4145 -0.6158
    7SAPS    HS  820   0.200   5.665  10.716  1.2047  0.6236 -0.0647
    7SAPS   O21  821   0.172   5.469  10.647 -0.3912 -0.7402  0.7737
    7SAPS   C21  822   0.074   5.418  10.713  0.0820 -0.1528 -0.6022
    7SAPS   O22  823   0.040   5.448  10.826  0.2052  0.1324 -0.1124
    7SAPS   C22  824   0.022   5.283  10.654  0.4499  0.0003  0.6374
    7SAPS   H2R  825   0.080   5.269  10.560  0.3529  2.0069  0.2328
    7SAPS   H2S  826   0.062   5.206  10.723  0.5366  1.5263  2.3660
    7SAPS    C3  827   0.351   5.611  10.585  0.2166 -1.3669  0.0926
    7SAPS    HX  828   0.422   5.528  10.567 -0.6166 -2.2541  0.8348
    7SAPS    HY  829   0.423   5.693  10.603 -1.5970  0.4356 -0.3502
    7SAPS   O31  830   0.273   5.638  10.466  0.1859  0.4951  0.0075
    7SAPS   C31  831   0.253   5.764  10.442  0.2778 -0.1199  0.3939
    7SAPS   O32  832   0.284   5.857  10.517 -0.1359 -0.0928  0.5200
    7SAPS   C32  833   0.171   5.779  10.310 -0.2837  0.7007  0.1781
    7SAPS   H2X  834   0.108   5.870  10.303 -0.3008  0.5875 -1.6563
    7SAPS   H2Y  835   0.105   5.691  10.324 -0.2352  0.8576  1.5556
    7SAPS   C23  836  -0.131   5.275  10.621 -0.0525  0.1607 -0.0288
    7SAPS   H3R  837  -0.186   5.297  10.715 -0.7640  2.0593 -0.8282
    7SAPS   H3S  838  -0.162   5.174  10.588 -1.1455  0.0855  1.1506
    7SAPS   C24  839  -0.190   5.378  10.521 -0.1500 -0.5272  0.0981
    7SAPS   H4R  840  -0.188   5.476  10.573 -1.3648 -0.5732  0.2609
    7SAPS   H4S  841  -0.298   5.364  10.501 -0.4979  0.2340  1.3548
    7SAPS   C25  842  -0.096   5.387  10.402  0.4298  0.2282 -0.0408
    7SAPS   H5R  843   0.005   5.424  10.425  0.7608 -0.3925 -0.4655
    7SAPS   C26  844  -0.129   5.363  10.274  0.0196  0.2325 -0.1078
    7SAPS   H6R  845  -0.049   5.357  10.198  2.2352  0.7287  2.0311
    7SAPS   C27  846  -0.259   5.310  10.221 -0.2163  0.1977 -0.0953
    7SAPS   H7R  847  -0.261   5.350  10.117  0.5398 -1.4663 -0.7947
    7SAPS   H7S  848  -0.337   5.357  10.283 -0.8038 -1.7613  0.7169
    7SAPS   C28  849  -0.261   5.155  10.218  0.0551  0.1072  0.7181
    7SAPS   H8R  850  -0.202   5.116  10.302  0.9363  3.6921  1.9681
    7SAPS   C29  851  -0.330   5.083  10.124  0.2804 -0.4072 -0.3761
    7SAPS   H9R  852  -0.328   4.973  10.131  2.5420 -0.4255 -0.5153
    7SAPS  C210  853  -0.409   5.131  10.005 -0.2782  0.1090  1.2457
    7SAPS  H10R  854  -0.358   5.184   9.922 -2.7393 -0.3128 -0.6576
    7SAPS  H10S  855  -0.484   5.197  10.053 -2.3223  0.1859 -1.8313
    7SAPS  C211  856  -0.484   5.022   9.928  0.3920 -0.6482 -0.1516
    7SAPS  H11R  857  -0.525   4.942   9.992  1.7727  0.4216  2.1909
    7SAPS  C212  858  -0.486   5.014   9.796  0.1109 -0.1304 -0.2882
    7SAPS  H12R  859  -0.545   4.931   9.755 -1.1371 -0.1812  1.4733
    7SAPS  C213  860  -0.414   5.098   9.694 -0.5815  0.0196 -0.9209
    7SAPS  H13R  861  -0.380   5.199   9.726 -3.4561  0.0530  2.7009
    7SAPS  H13S  862  -0.487   5.119   9.614 -1.2523  0.5232 -0.1954
    7SAPS  C214  863  -0.294   5.018   9.647  0.2365  0.1907 -0.0644
    7SAPS  H14R  864  -0.223   4.991   9.726  0.1922 -1.7323 -0.6272
    7SAPS  C215  865  -0.264   4.987   9.516  0.5087 -0.1633 -0.0295
    7SAPS  H15R  866  -0.174   4.931   9.486  0.2439  0.0580 -1.3172
    7SAPS  C216  867  -0.352   5.034   9.400 -0.1241 -0.8100 -0.2329
    7SAPS  H16R  868  -0.456   5.066   9.421 -0.5575 -1.2594 -1.5898
    7SAPS  H16S  869  -0.367   4.942   9.339 -0.8390 -0.9509  0.1532
    7SAPS  C217  870  -0.289   5.143   9.305  0.6116  0.5284  0.0287
    7SAPS  H17R  871  -0.353   5.142   9.214 -0.6284 -1.2709  0.8724
    7SAPS  H17S  872  -0.194   5.103   9.262  0.9329  4.0464 -3.1240
    7SAPS  C218  873  -0.272   5.284   9.365 -0.3684 -0.1209 -0.0065
    7SAPS  H18R  874  -0.197   5.279   9.447 -0.9415  0.9035  0.6091
    7SAPS  H18S  875  -0.368   5.312   9.413 -1.5786  0.8339 -2.7662
    7SAPS  C219  876  -0.233   5.401   9.272 -0.1145 -0.2413  0.4828
    7SAPS  H19R  877  -0.132   5.379   9.232 -0.0320 -0.6062  0.8882
    7SAPS  H19S  878  -0.225   5.492   9.334 -1.5411 -0.3182  0.8128
    7SAPS  C220  879  -0.328   5.418   9.151 -0.6770 -0.6245 -0.2489
    7SAPS  H20R  880  -0.322   5.520   9.107 -2.2008 -0.1311  0.6102
    7SAPS  H20S  881  -0.436   5.409   9.178 -1.1946 -0.2505 -2.0811
    7SAPS  H20T  882  -0.294   5.351   9.070  1.0517  1.2575 -1.1741
    7SAPS   C33  883   0.250   5.768  10.177  0.2599  0.7387 -0.2189
    7SAPS   H3X  884   0.334   5.696  10.190 -0.6995 -0.2282  0.8239
    7SAPS   H3Y  885   0.280   5.873  10.155  4.5478 -0.0356  1.0472
    7SAPS   C34  886   0.151   5.740  10.068 -0.3563 -0.3014  0.5774
    7SAPS   H4X  887   0.049   5.769  10.102  0.2567  1.4725  0.9761
    7SAPS   H4Y  888   0.147   5.632  10.041 -0.3146 -0.0148 -0.6618
    7SAPS   C35  889   0.196   5.809   9.938  0.0315 -0.0442  0.4214
    7SAPS   H5X  890   0.187   5.919   9.950 -2.3542 -0.2370  0.9118
    7SAPS   H5Y  891   0.120   5.777   9.863  1.0587 -2.0589  0.1846
    7SAPS   C36  892   0.335   5.767   9.890 -0.6612  0.3520  0.1029
    7SAPS   H6X  893   0.332   5.656   9.888 -3.5410  0.3397  0.4423
    7SAPS   H6Y  894   0.413   5.807   9.958  0.3768 -0.8113 -0.3713
    7SAPS   C37  895   0.361   5.816   9.742 -0.1715 -0.4642  0.5949
    7SAPS   H7X  896   0.266   5.853   9.699 -0.2945 -1.3886  0.0429
    7SAPS   H7Y  897   0.397   5.722   9.694  0.2390 -0.2371  0.4496
    7SAPS   C38  898   0.460   5.931   9.729 -0.3217  0.2836  0.2134
    7SAPS   H8X  899   0.545   5.920   9.800  0.0791 -0.1695 -0.3277
    7SAPS   H8Y  900   0.418   6.028   9.764 -1.1740  0.9081 -2.3807
    7SAPS   C39  901   0.522   5.963   9.584 -0.1542 -0.1019 -0.1316
    7SAPS   H9X  902   0.543   5.864   9.538 -1.0584 -0.0177 -0.7473
    7SAPS   H9Y  903   0.612   6.027   9.596 -1.3451  1.3680  1.6155
    7SAPS  C310  904   0.420   6.037   9.495  0.4574  0.0075 -0.5728
    7SAPS  H10X  905   0.420   6.141   9.533  0.5853  0.8272 -2.6595
    7SAPS  H10Y  906   0.320   5.991   9.505  0.3016  0.3038 -0.7634
    7SAPS  C311  907   0.452   6.029   9.346  0.7462 -0.8077 -0.5879
    7SAPS  H11X  908   0.475   5.925   9.315  3.4517 -0.6803  0.6720
    7SAPS  H11Y  909   0.535   6.094   9.311  0.5114 -0.8838 -1.3121
    7SAPS  C312  910   0.331   6.092   9.275  0.1271  0.0545 -1.5500
    7SAPS  H12X  911   0.303   6.179   9.338  0.2510  0.3174 -1.8552
    7SAPS  H12Y  912   0.248   6.019   9.269 -1.4478  1.2024  2.8037
    7SAPS  C313  913   0.376   6.146   9.135 -0.7330 -0.0850 -0.2606
    7SAPS  H13X  914   0.438   6.060   9.100  0.3937 -0.1352  1.7306
    7SAPS  H13Y  915   0.448   6.231   9.135 -0.6784 -0.1159 -1.0991
    7SAPS  C314  916   0.258   6.182   9.040  0.6068 -0.5722 -0.6584
    7SAPS  H14X  917   0.204   6.084   9.036 -2.8175  1.0142  1.8145
    7SAPS  H14Y  918   0.296   6.207   8.938  1.0788 -1.0006 -0.5919
    7SAPS  C315  919   0.177   6.298   9.098  0.2226  0.2659 -0.3062
    7SAPS  H15X  920   0.235   6.393   9.101  0.2328  0.3245 -1.8913
    7SAPS  H15Y  921   0.156   6.280   9.206 -0.1223  1.7186 -0.1013
    7SAPS  C316  922   0.047   6.322   9.022 -0.6225  0.0830 -0.3341
    7SAPS  H16X  923   0.015   6.427   9.041  1.8794  1.4247 -2.8063
    7SAPS  H16Y  924  -0.024   6.242   9.052  2.0028 -2.8496 -1.3790
    7SAPS  C317  925   0.060   6.322   8.872 -0.2767  0.0664  0.7277
    7SAPS  H17X  926   0.110   6.230   8.835 -2.1169 -0.5206 -0.4552
    7SAPS  H17Y  927   0.118   6.412   8.846 -1.6104  1.2134  1.5900
    7SAPS  C318  928  -0.065   6.324   8.783  0.0241 -0.0574 -0.2783
    7SAPS  H18X  929  -0.052   6.275   8.684 -4.3142 -1.9004 -0.1652
    7SAPS  H18Y  930  -0.103   6.428   8.777 -0.1833 -0.0464  0.9278
    7SAPS  H18Z  931  -0.148   6.266   8.829 -0.0993  1.6561  1.8198
    8SAPS     N  932   5.966   0.840  11.131  0.4515 -0.7685 -0.3353
    8SAPS   HN1  933   5.937   0.876  11.038 -1.5907 -0.4820  0.3626
    8SAPS   HN2  934   5.933   0.913  11.197 -0.5056 -2.3261  0.9967
    8SAPS   HN3  935   6.069   0.848  11.143  0.5023  1.0746 -1.6061
    8SAPS   C12  936   5.904   0.704  11.148 -0.1898 -0.3479  0.1218
    8SAPS  H12A  937   5.925   0.666  11.049 -2.5551  1.0681 -1.0207
    8SAPS   C13  938   5.981   0.622  11.258 -0.7394 -0.4052 -1.0065
    8SAPS  O13A  939   6.072   0.666  11.330  0.7961  0.0352 -0.4863
    8SAPS  O13B  940   5.940   0.507  11.285  0.5981  0.5474 -0.3810
    8SAPS   C11  941   5.754   0.710  11.184 -0.6060  0.1432 -0.6192
    8SAPS  H11A  942   5.744   0.735  11.292  1.4020  0.1276 -0.3979
    8SAPS  H11B  943   5.715   0.606  11.184  0.0610 -0.1584  1.8977
    8SAPS     P  944   5.536   0.826  11.116  0.4648 -0.3125 -0.0401
    8SAPS   O13  945   5.447   0.706  11.089  0.1855  0.0923 -0.0765
    8SAPS   O14  946   5.523   0.877  11.254  0.0925 -0.0225  0.1008
    8SAPS   O12  947   5.686   0.796  11.092 -0.3187 -0.1745  0.1101
    8SAPS   O11  948   5.503   0.934  11.009  0.1482  0.0372  0.1217
    8SAPS    C1  949   5.385   0.971  10.947  0.2549  0.1158  0.3222
    8SAPS    HA  950   5.307   0.891  10.952  1.0474 -0.6305  3.6929
    8SAPS    HB  951   5.336   1.063  10.985 -2.9264 -1.4918  0.4516
    8SAPS    C2  952   5.416   0.984  10.794  0.6321  0.5403  0.1912
    8SAPS    HS  953   5.467   0.888  10.771 -0.4677 -0.3484  1.3566
    8SAPS   O21  954   5.505   1.094  10.773  0.0891 -0.7118  0.5350
    8SAPS   C21  955   5.610   1.082  10.693  0.0467  0.4437 -0.9389
    8SAPS   O22  956   5.633   0.986  10.621 -0.2019 -0.6020  0.5653
    8SAPS   C22  957   5.696   1.208  10.704  0.5291  0.2499  0.3159
    8SAPS   H2R  958   5.753   1.191  10.798 -0.5739  0.7657  1.0932
    8SAPS   H2S  959   5.770   1.200  10.622 -1.0317 -0.0204 -1.1162
    8SAPS    C3  960   5.295   1.007  10.696 -0.0317 -0.1313 -0.7755
    8SAPS    HX  961   5.232   1.094  10.724  0.1384 -0.0804 -0.5510
    8SAPS    HY  962   5.233   0.915  10.702 -0.8591  0.5038  1.2049
    8SAPS   O31  963   5.344   1.034  10.563  0.3989 -0.0883  0.3105
    8SAPS   C31  964   5.374   0.926  10.486 -0.7151 -0.7173  1.0206
    8SAPS   O32  965   5.352   0.811  10.514 -0.3358  0.0899 -0.0011
    8SAPS   C32  966   5.415   0.981  10.347  0.6199  1.0652  0.2824
    8SAPS   H2X  967   5.522   1.010  10.351  1.9739 -2.9525 -1.6048
    8SAPS   H2Y  968   5.343   1.065  10.338  1.3141  1.5553 -0.9272
    8SAPS   C23  969   5.624   1.346  10.711  0.8818 -0.3023  0.1840
    8SAPS   H3R  970   5.710   1.406  10.750  1.3087 -1.9026  1.8781
    8SAPS   H3S  971   5.538   1.355  10.780  1.3776  0.2533  0.7491
    8SAPS   C24  972   5.566   1.379  10.577  0.6077  0.7922 -0.0918
    8SAPS   H4R  973   5.473   1.440  10.588 -0.4928 -0.4774 -1.7865
    8SAPS   H4S  974   5.538   1.284  10.528 -1.4018  0.3808  1.6798
    8SAPS   C25  975   5.664   1.452  10.487  0.0848 -0.1048 -0.2144
    8SAPS   H5R  976   5.699   1.546  10.534 -0.4487 -0.4111  0.8091
    8SAPS   C26  977   5.714   1.420  10.362  0.0269 -0.2061 -0.6735
    8SAPS   H6R  978   5.777   1.498  10.316  1.5403 -0.6751  0.5034
    8SAPS   C27  979   5.688   1.303  10.273  0.5412  0.2403 -0.8433
    8SAPS   H7R  980   5.665   1.343  10.172 -0.4090  1.2592 -0.2466
    8SAPS   H7S  981   5.599   1.253  10.315 -0.1713  1.1763 -1.2180
    8SAPS   C28  982   5.794   1.199  10.272 -0.3947  0.7168 -0.1459
    8SAPS   H8R  983   5.853   1.189  10.364 -1.8791  2.7169  1.0981
    8SAPS   C29  984   5.835   1.123  10.166  0.1026 -0.1608  0.8867
    8SAPS   H9R  985   5.935   1.078  10.170  0.8084  1.2504 -0.0012
    8SAPS  C210  986   5.787   1.123  10.027 -0.7650  0.1576  0.0903
    8SAPS  H10R  987   5.694   1.183  10.016 -2.9859 -3.1394 -0.5709
    8SAPS  H10S  988   5.766   1.016  10.005 -0.2176  0.1515 -0.4234
    8SAPS  C211  989   5.910   1.177   9.947 -0.2255  0.3904  0.5359
    8SAPS  H11R  990   5.990   1.228  10.002  0.1040 -0.1061  0.5214
    8SAPS  C212  991   5.936   1.154   9.815  0.4425  0.3743 -0.3263
    8SAPS  H12R  992   6.031   1.189   9.772  0.9889 -0.6802 -0.0215
    8SAPS  C213  993   5.847   1.072   9.725 -0.2556 -0.1118 -0.1872
    8SAPS  H13R  994   5.785   1.135   9.658 -0.6624 -0.3027  0.0069
    8SAPS  H13S  995   5.774   1.008   9.779  0.5425  0.2624  1.4170
    8SAPS  C214  996   5.934   0.976   9.645 -0.0833 -0.2673  0.9841
    8SAPS  H14R  997   5.970   0.879   9.683  0.3508 -1.3182 -1.8402
    8SAPS  C215  998   5.975   0.996   9.523  0.0275  0.1423  0.6201
    8SAPS  H15R  999   6.022   0.907   9.479 -1.5654 -0.1994 -0.5209
    8SAPS  C216 1000   5.957   1.118   9.435 -0.3599  0.0209  0.4326
    8SAPS  H16R 1001   6.055   1.164   9.409 -1.7055  2.1732 -1.2377
    8SAPS  H16S 1002   5.913   1.198   9.498 -0.5846  0.0635  0.2210
    8SAPS  C217 1003   5.874   1.104   9.308  0.0325  0.0571 -0.3796
    8SAPS  H17R 1004   5.866   1.203   9.259 -0.5619  0.2788  0.1547
    8SAPS  H17S 1005   5.773   1.068   9.338 -0.8924  1.7008 -1.3998
    8SAPS  C218 1006   5.913   1.005   9.187  0.0591  0.0602 -0.7367
    8SAPS  H18R 1007   5.844   1.023   9.102  1.3087 -0.6707 -1.9511
    8SAPS  H18S 1008   5.905   0.900   9.222  1.9808  0.2246  0.3367
    8SAPS  C219 1009   6.047   1.037   9.129  0.3632 -0.3736  0.5041
    8SAPS  H19R 1010   6.132   1.002   9.191 -0.6855  0.9617  2.8429
    8SAPS  H19S 1011   6.061   1.148   9.131 -0.8027 -0.1335 -1.5131
    8SAPS  C220 1012   6.064   0.995   8.980 -0.2602  0.1338  0.0433
    8SAPS  H20R 1013   5.992   1.052   8.918  0.8357  2.5681  0.8472
    8SAPS  H20S 1014   6.046   0.886   8.973  0.5107 -0.0220  0.2972
    8SAPS  H20T 1015   6.164   1.017   8.936  0.5051 -1.4610  0.8993
    8SAPS   C33 1016   5.375   0.897  10.222 -0.4481  1.0867 -0.0571
    8SAPS   H3X 1017   5.267   0.870  10.220 -0.0084 -1.7169  3.5365
    8SAPS   H3Y 1018   5.433   0.802  10.218 -0.2391  1.2179 -0.1840
    8SAPS   C34 1019   5.414   0.963  10.097 -0.0347  0.3310 -0.5735
    8SAPS   H4X 1020   5.525   0.972  10.094  0.1803 -1.9306 -1.5842
    8SAPS   H4Y 1021   5.359   1.059  10.096  1.3207  1.1517  0.3004
    8SAPS   C35 1022   5.387   0.871   9.980  0.1498  0.8424 -0.0017
    8SAPS   H5X 1023   5.276   0.865   9.974  0.0916  2.3445 -0.8046
    8SAPS   H5Y 1024   5.424   0.771  10.010 -2.5582  0.2595  1.7838
    8SAPS   C36 1025   5.445   0.926   9.848  0.0983  0.5446  0.6909
    8SAPS   H6X 1026   5.554   0.942   9.862  0.8443 -1.5398 -1.9339
    8SAPS   H6Y 1027   5.397   1.022   9.821  0.0086 -0.0620 -1.4435
    8SAPS   C37 1028   5.429   0.826   9.730 -0.4094  0.8490 -0.4778
    8SAPS   H7X 1029   5.319   0.809   9.727 -0.2749 -0.0111 -2.3550
    8SAPS   H7Y 1030   5.478   0.727   9.743  0.3677  1.2042 -0.6574
    8SAPS   C38 1031   5.472   0.887   9.592 -0.0630 -0.4096 -0.0244
    8SAPS   H8X 1032   5.574   0.928   9.610  0.6233 -1.0115 -2.2061
    8SAPS   H8Y 1033   5.398   0.966   9.569 -0.5567 -0.8494  0.0336
    8SAPS   C39 1034   5.479   0.797   9.465 -0.1308  0.1608 -0.0462
    8SAPS   H9X 1035   5.511   0.868   9.386 -1.5480 -0.1653 -0.9544
    8SAPS   H9Y 1036   5.379   0.755   9.442  0.3821 -1.4560  0.5493
    8SAPS  C310 1037   5.582   0.691   9.463  0.0597 -0.2557 -0.1472
    8SAPS  H10X 1038   5.567   0.633   9.556 -1.6600  1.5246  0.7770
    8SAPS  H10Y 1039   5.685   0.732   9.460  1.0320 -2.6263 -1.3552
    8SAPS  C311 1040   5.575   0.607   9.335 -0.4048  0.1042 -1.1333
    8SAPS  H11X 1041   5.574   0.684   9.255 -1.1481  3.4834  1.8599
    8SAPS  H11Y 1042   5.476   0.558   9.323 -0.0626 -1.3476  1.2267
    8SAPS  C312 1043   5.697   0.517   9.319 -0.1762 -0.9307 -0.7198
    8SAPS  H12X 1044   5.679   0.422   9.373 -1.1119 -0.5039 -0.2616
    8SAPS  H12Y 1045   5.786   0.562   9.370  1.5480 -2.2237 -2.4485
    8SAPS  C313 1046   5.756   0.503   9.180  0.2931 -0.1615  0.7751
    8SAPS  H13X 1047   5.685   0.462   9.105 -0.3174  1.1168  0.6310
    8SAPS  H13Y 1048   5.834   0.425   9.194 -0.4524 -0.6614  2.4551
    8SAPS  C314 1049   5.809   0.634   9.125 -0.5067  0.0551 -0.1996
    8SAPS  H14X 1050   5.880   0.675   9.200 -1.5424  0.0107  0.8270
    8SAPS  H14Y 1051   5.720   0.696   9.101 -2.8811 -2.1860  2.0935
    8SAPS  C315 1052   5.892   0.608   8.996 -0.1476  0.3586 -0.3593
    8SAPS  H15X 1053   5.910   0.498   8.988  1.3795  0.4840  0.9499
    8SAPS  H15Y 1054   5.994   0.648   9.014  0.4100 -0.9155 -0.5066
    8SAPS  C316 1055   5.832   0.667   8.868 -0.9409  0.2269  0.3630
    8SAPS  H16X 1056   5.843   0.777   8.881  2.1542  0.0156  0.3373
    8SAPS  H16Y 1057   5.727   0.632   8.864  0.0545 -3.0259 -0.7605
    8SAPS  C317 1058   5.893   0.611   8.738 -0.2873  0.2142 -0.2424
    8SAPS  H17X 1059   5.859   0.509   8.711 -0.3698  0.6152 -1.6917
    8SAPS  H17Y 1060   6.003   0.606   8.754 -0.2525 -0.6979 -0.7436
    8SAPS  C318 1061   5.869   0.703   8.618  0.5837 -0.1523  0.1758
    8SAPS  H18X 1062   5.903   0.808   8.632  0.6401 -0.0572 -0.6370
    8SAPS  H18Y 1063   5.758   0.702   8.606  0.7477 -0.1309 -1.4960
    8SAPS  H18Z 1064   5.923   0.655   8.533  1.2507 -1.7621  1.4447
    9SAPS     N 1065   1.218   2.124   6.337 -0.1965  0.5792  0.4795
    9SAPS   HN1 1066   1.190   2.224   6.339  1.1835  1.0095 -0.4977
    9SAPS   HN2 1067   1.293   2.111   6.408  0.7888 -3.1005 -1.0306
    9SAPS   HN3 1068   1.253   2.098   6.242 -1.8898 -0.1693  0.0197
    9SAPS   C12 1069   1.102   2.029   6.350  0.1493  0.2536 -0.5985
    9SAPS  H12A 1070   1.020   2.094   6.323  0.6286  0.7656 -0.8465
    9SAPS   C13 1071   1.096   1.913   6.247  0.2134 -0.8839 -0.0787
    9SAPS  O13A 1072   1.179   1.910   6.149 -0.3184 -0.0379 -0.0912
    9SAPS  O13B 1073   1.009   1.819   6.260  0.0900  0.5979 -0.5747
    9SAPS   C11 1074   1.087   1.985   6.501 -0.3413 -0.2322  0.6933
    9SAPS  H11A 1075   1.170   1.922   6.536  0.1796  0.8518  1.4737
    9SAPS  H11B 1076   0.993   1.925   6.502 -0.6541  0.1954 -0.5820
    9SAPS     P 1077   0.951   2.183   6.612  0.3655  0.6575 -0.3990
    9SAPS   O13 1078   0.973   2.317   6.560 -0.5155 -0.3061  0.0487
    9SAPS   O14 1079   0.839   2.100   6.558  0.2253 -0.4988  0.5858
    9SAPS   O12 1080   1.080   2.109   6.573  0.0916  0.4350  0.1007
    9SAPS   O11 1081   0.936   2.193   6.770  0.6925 -0.3044 -0.6718
    9SAPS    C1 1082   1.060   2.206   6.850 -0.3233 -0.2857  0.4278
    9SAPS    HA 1083   1.145   2.265   6.809  0.8597 -1.6869  0.7601
    9SAPS    HB 1084   1.036   2.240   6.953  0.2881  1.8608 -0.0828
    9SAPS    C2 1085   1.129   2.069   6.878  0.2861  0.2602 -0.9716
    9SAPS    HS 1086   1.172   2.035   6.781 -0.3922  0.1625 -1.2446
    9SAPS   O21 1087   1.024   1.973   6.914 -0.3681 -0.0769  0.0761
    9SAPS   C21 1088   1.067   1.842   6.905  0.2640  0.6843  0.0630
    9SAPS   O22 1089   1.170   1.814   6.845 -0.3978  0.0178  0.4480
    9SAPS   C22 1090   0.968   1.738   6.971 -0.6262  0.9591 -0.1390
    9SAPS   H2R 1091   1.009   1.721   7.073  0.9572 -3.2249 -1.2604
    9SAPS   H2S 1092   0.868   1.785   6.983 -0.2429  1.2590  2.5419
    9SAPS    C3 1093   1.232   2.085   6.991 -0.2437  0.6650 -0.5465
    9SAPS    HX 1094   1.308   2.155   6.951 -1.3348  1.2009 -1.7713
    9SAPS    HY 1095   1.276   1.984   7.002 -2.0835 -0.3307 -1.8160
    9SAPS   O31 1096   1.176   2.132   7.115 -0.3552 -0.2228 -0.2328
    9SAPS   C31 1097   1.114   2.046   7.189  0.1768  0.1374  0.1293
    9SAPS   O32 1098   1.127   1.922   7.180 -0.3195 -0.3575  0.1249
    9SAPS   C32 1099   1.025   2.120   7.289  0.0507 -0.3859  0.2716
    9SAPS   H2X 1100   0.923   2.124   7.244 -1.0014  3.1507  2.5487
    9SAPS   H2Y 1101   1.067   2.222   7.301 -1.8781  0.6569 -1.1554
    9SAPS   C23 1102   0.968   1.602   6.889  0.6826 -0.4342  0.3323
    9SAPS   H3R 1103   1.072   1.565   6.906  1.3413  0.7902 -0.7930
    9SAPS   H3S 1104   0.956   1.620   6.780  0.8317 -1.0782  0.2003
    9SAPS   C24 1105   0.862   1.502   6.945 -0.6471  0.2163  0.1870
    9SAPS   H4R 1106   0.837   1.440   6.856 -0.3782 -0.0961  0.3240
    9SAPS   H4S 1107   0.765   1.554   6.963  0.7112  3.4282 -1.0454
    9SAPS   C25 1108   0.908   1.412   7.062 -0.1320  0.0836  0.4113
    9SAPS   H5R 1109   0.953   1.315   7.034 -0.1278 -0.1284  1.1365
    9SAPS   C26 1110   0.896   1.446   7.191 -0.3178  0.7440  0.1095
    9SAPS   H6R 1111   0.920   1.362   7.257  0.7802  1.3541  0.5125
    9SAPS   C27 1112   0.833   1.563   7.253 -0.5299 -0.0507 -0.6114
    9SAPS   H7R 1113   0.745   1.533   7.314 -0.7192  3.0977  0.8307
    9SAPS   H7S 1114   0.787   1.632   7.179 -1.7703 -1.0163 -0.7781
    9SAPS   C28 1115   0.937   1.647   7.333  0.0943 -0.4412 -0.4280
    9SAPS   H8R 1116   0.994   1.713   7.265 -1.1324  0.9876 -0.1228
    9SAPS   C29 1117   0.951   1.646   7.471 -0.1442 -0.2243 -0.0187
    9SAPS   H9R 1118   1.025   1.708   7.523 -0.2844 -1.2191  1.4410
    9SAPS  C210 1119   0.868   1.564   7.561 -0.0638  0.2345  0.0216
    9SAPS  H10R 1120   0.926   1.476   7.596 -0.4477  0.2604  0.7500
    9SAPS  H10S 1121   0.803   1.500   7.499  0.8524 -1.0838  0.3754
    9SAPS  C211 1122   0.787   1.634   7.669 -0.0503  0.0646 -0.0050
    9SAPS  H11R 1123   0.690   1.675   7.640 -1.2397 -1.4591  1.5485
    9SAPS  C212 1124   0.823   1.670   7.790  0.3172  0.7306 -0.6170
    9SAPS  H12R 1125   0.750   1.729   7.848 -0.7696  1.1557 -2.3268
    9SAPS  C213 1126   0.963   1.663   7.838  0.3285  1.3806  0.0639
    9SAPS  H13R 1127   1.014   1.760   7.822  1.4801  1.1767  2.1650
    9SAPS  H13S 1128   1.014   1.587   7.774 -0.5379  1.1714 -0.3911
    9SAPS  C214 1129   0.991   1.618   7.976 -0.4839 -0.1784  0.0317
    9SAPS  H14R 1130   1.004   1.508   7.978 -0.9436 -0.2935 -1.7883
    9SAPS  C215 1131   1.007   1.693   8.086  0.7248 -0.3200  0.3206
    9SAPS  H15R 1132   1.024   1.637   8.179  2.1668 -0.5555 -0.0604
    9SAPS  C216 1133   0.991   1.844   8.105 -0.2430 -0.1044 -0.1596
    9SAPS  H16R 1134   0.989   1.883   8.001  0.6397  0.8981  0.1809
    9SAPS  H16S 1135   1.073   1.886   8.167 -1.0018  0.2022  0.6576
    9SAPS  C217 1136   0.858   1.878   8.186 -0.4214 -0.1784  0.8146
    9SAPS  H17R 1137   0.776   1.849   8.117  0.3462 -3.0402  0.9936
    9SAPS  H17S 1138   0.853   1.987   8.209 -0.2013  0.3710 -1.5567
    9SAPS  C218 1139   0.845   1.793   8.320  0.2041 -0.1181 -0.1474
    9SAPS  H18R 1140   0.946   1.801   8.365 -0.5223 -1.3224  1.8078
    9SAPS  H18S 1141   0.816   1.694   8.280  0.6606 -0.4395  0.3079
    9SAPS  C219 1142   0.738   1.848   8.412 -0.0767 -0.6105 -0.1738
    9SAPS  H19R 1143   0.643   1.796   8.388  0.0679 -0.8681 -0.1972
    9SAPS  H19S 1144   0.730   1.957   8.393  0.2430 -0.3566  1.0600
    9SAPS  C220 1145   0.777   1.830   8.563 -0.6747 -0.2207 -0.2389
    9SAPS  H20R 1146   0.827   1.732   8.576  0.2330  0.4058  1.3863
    9SAPS  H20S 1147   0.689   1.841   8.630  0.0452  2.0416  0.4487
    9SAPS  H20T 1148   0.858   1.903   8.587 -1.7369 -0.0223  3.3653
    9SAPS   C33 1149   1.016   2.052   7.420 -0.0271 -0.0984  0.3491
    9SAPS   H3X 1150   0.993   1.944   7.407  1.5590 -0.2712 -1.4767
    9SAPS   H3Y 1151   0.929   2.081   7.482 -0.0955 -0.4960  0.4429
    9SAPS   C34 1152   1.144   2.067   7.510  0.4415  0.1607  0.3702
    9SAPS   H4X 1153   1.188   2.168   7.493  0.2171  0.0872 -0.7279
    9SAPS   H4Y 1154   1.216   1.997   7.462 -0.5127 -0.5897  0.0176
    9SAPS   C35 1155   1.133   2.014   7.651 -0.2173  1.0233 -0.2672
    9SAPS   H5X 1156   1.095   1.909   7.650 -0.3998  1.0921 -0.4168
    9SAPS   H5Y 1157   1.062   2.072   7.714  0.7295  0.7598  1.0878
    9SAPS   C36 1158   1.278   2.005   7.718 -0.3289 -0.4246  0.2089
    9SAPS   H6X 1159   1.323   2.107   7.721 -1.4521  0.1121 -0.6405
    9SAPS   H6Y 1160   1.332   1.938   7.649 -1.9835  0.7879 -2.4367
    9SAPS   C37 1161   1.278   1.947   7.863  0.2390 -0.0882 -0.3017
    9SAPS   H7X 1162   1.234   1.845   7.858  3.1414 -1.4092 -0.7582
    9SAPS   H7Y 1163   1.213   2.010   7.927  1.0937  1.6183 -1.0265
    9SAPS   C38 1164   1.417   1.931   7.925  0.1969  0.4485  0.2437
    9SAPS   H8X 1165   1.457   2.034   7.912 -0.7150  0.8472  0.4663
    9SAPS   H8Y 1166   1.467   1.865   7.852  1.3729  1.5566  0.0050
    9SAPS   C39 1167   1.420   1.882   8.070 -0.1149  0.0435 -0.6441
    9SAPS   H9X 1168   1.384   1.779   8.090  0.2684  0.3220  1.7073
    9SAPS   H9Y 1169   1.351   1.949   8.125  0.5787  0.6814 -0.5390
    9SAPS  C310 1170   1.561   1.902   8.127  0.1011  0.0838  0.3997
    9SAPS  H10X 1171   1.592   2.000   8.085 -1.1068  0.6499  0.8083
    9SAPS  H10Y 1172   1.629   1.820   8.095  0.2279 -0.4222  1.8825
    9SAPS  C311 1173   1.563   1.913   8.285 -0.5758 -0.3562  0.5570
    9SAPS  H11X 1174   1.479   1.975   8.325 -1.5377 -0.7172 -0.8460
    9SAPS  H11Y 1175   1.663   1.947   8.319  0.3541 -1.1716 -1.2322
    9SAPS  C312 1176   1.557   1.777   8.350  0.6338  0.6582 -0.1688
    9SAPS  H12X 1177   1.638   1.707   8.322 -1.3365 -1.3815 -1.1044
    9SAPS  H12Y 1178   1.466   1.723   8.315  0.4283 -0.3609  1.7934
    9SAPS  C313 1179   1.543   1.771   8.503  1.1854  0.2446 -0.3406
    9SAPS  H13X 1180   1.447   1.821   8.528 -0.1454 -0.6796 -3.0982
    9SAPS  H13Y 1181   1.635   1.821   8.540  2.6905 -1.2703 -1.8264
    9SAPS  C314 1182   1.543   1.624   8.551 -0.0623 -0.4995 -0.1838
    9SAPS  H14X 1183   1.449   1.583   8.508 -0.2016  2.0365 -2.5577
    9SAPS  H14Y 1184   1.526   1.615   8.661 -0.1170  0.6292 -0.0822
    9SAPS  C315 1185   1.661   1.534   8.514  0.0443 -0.0590 -0.0606
    9SAPS  H15X 1186   1.651   1.503   8.408  2.1853  2.0693 -0.9650
    9SAPS  H15Y 1187   1.660   1.445   8.581  2.0365  0.1396  0.2903
    9SAPS  C316 1188   1.795   1.607   8.531 -0.3897  0.3759 -0.1539
    9SAPS  H16X 1189   1.795   1.643   8.636  0.2027 -4.5689  1.7916
    9SAPS  H16Y 1190   1.818   1.686   8.456  0.8840 -0.2133 -0.4060
    9SAPS  C317 1191   1.922   1.519   8.535  1.0972 -0.7560  0.0487
    9SAPS  H17X 1192   2.002   1.590   8.564 -0.5786  1.4983 -0.5139
    9SAPS  H17Y 1193   1.958   1.476   8.439  1.6805  0.3415 -0.2468
    9SAPS  C318 1194   1.907   1.408   8.639  0.1755  0.0462  0.2794
    9SAPS  H18X 1195   2.002   1.351   8.645 -0.4258 -0.8340  2.1824
    9SAPS  H18Y 1196   1.832   1.342   8.592  0.3806 -0.0643  0.1028
    9SAPS  H18Z 1197   1.866   1.445   8.735 -0.0944 -0.8066  0.4959
   10SAPS     N 1198   1.775   4.067   6.169  0.5160  0.1690  0.2420
   10SAPS   HN1 1199   1.824   4.032   6.254 -1.1123  0.9612  1.5579
   10SAPS   HN2 1200   1.853   4.116   6.120  0.3352  0.8813  0.6542
   10SAPS   HN3 1201   1.691   4.127   6.183  1.0961  0.6131  2.2110
   10SAPS   C12 1202   1.734   3.944   6.092 -0.1439  0.0075  0.1243
   10SAPS  H12A 1203   1.688   3.984   6.003 -3.0270  1.1938  2.0199
   10SAPS   C13 1204   1.842   3.848   6.040  1.0534  0.3186 -0.2349
   10SAPS  O13A 1205   1.959   3.871   6.066 -0.7757 -0.1047 -0.2519
   10SAPS  O13B 1206   1.811   3.743   5.974  0.4616 -0.1348  0.3378
   10SAPS   C11 1207   1.634   3.873   6.178 -0.0024  0.1428 -0.4487
   10SAPS  H11A 1208   1.688   3.834   6.267  0.3145  0.6094 -0.4353
   10SAPS  H11B 1209   1.602   3.778   6.130 -0.9113 -0.3350  1.0059
   10SAPS     P 1210   1.466   4.027   6.316 -0.1386  0.3607  0.0558
   10SAPS   O13 1211   1.361   4.132   6.281 -0.2741  0.4988 -0.4099
   10SAPS   O14 1212   1.423   3.934   6.428  0.0097 -0.0049  0.5669
   10SAPS   O12 1213   1.507   3.949   6.193 -0.0689  0.6167 -0.5492
   10SAPS   O11 1214   1.595   4.097   6.366  0.6823 -0.0657  0.1127
   10SAPS    C1 1215   1.583   4.230   6.417 -1.1391 -0.1998  0.2926
   10SAPS    HA 1216   1.570   4.302   6.334  0.0051 -2.0789 -1.6287
   10SAPS    HB 1217   1.498   4.242   6.487 -0.8632  2.4480  0.2677
   10SAPS    C2 1218   1.709   4.278   6.502  0.1173 -0.1130  0.0323
   10SAPS    HS 1219   1.800   4.242   6.449  0.7156  0.0144  0.9530
   10SAPS   O21 1220   1.699   4.218   6.631  0.4326 -0.1768 -0.1891
   10SAPS   C21 1221   1.811   4.205   6.701 -0.2212 -0.1085  0.2483
   10SAPS   O22 1222   1.914   4.256   6.667 -0.3862 -0.0051 -0.1375
   10SAPS   C22 1223   1.793   4.122   6.824 -0.6714 -0.1234 -0.3028
   10SAPS   H2R 1224   1.708   4.164   6.882  0.9431 -0.7450  2.6990
   10SAPS   H2S 1225   1.769   4.018   6.795 -1.7594 -0.8709  2.9610
   10SAPS    C3 1226   1.712   4.431   6.513 -0.4854 -0.6193  0.4055
   10SAPS    HX 1227   1.716   4.474   6.411  0.7397  0.7943  1.0002
   10SAPS    HY 1228   1.808   4.456   6.564 -1.7664  1.6511  1.8658
   10SAPS   O31 1229   1.594   4.494   6.570  0.0913  0.3635  0.5978
   10SAPS   C31 1230   1.597   4.531   6.698  0.0698  0.2751 -0.5426
   10SAPS   O32 1231   1.691   4.497   6.771 -0.7074 -0.2263 -0.1019
   10SAPS   C32 1232   1.478   4.629   6.734  0.3226 -0.3872 -0.1394
   10SAPS   H2X 1233   1.408   4.615   6.648 -1.7706 -0.7550  1.5532
   10SAPS   H2Y 1234   1.507   4.736   6.740 -1.0980 -0.0750  3.2746
   10SAPS   C23 1235   1.912   4.121   6.916  0.3638 -0.1801  0.2435
   10SAPS   H3R 1236   1.950   4.225   6.929  1.3355 -0.2948 -1.4682
   10SAPS   H3S 1237   1.995   4.063   6.869 -0.5715 -0.9500 -0.5033
   10SAPS   C24 1238   1.879   4.057   7.051 -0.3386  0.8823  0.7714
   10SAPS   H4R 1239   1.876   3.946   7.044 -2.4310  0.8692  1.4464
   10SAPS   H4S 1240   1.772   4.082   7.067 -1.1927  0.3813 -3.1920
   10SAPS   C25 1241   1.979   4.100   7.155  0.7234 -0.0146  0.2766
   10SAPS   H5R 1242   2.074   4.134   7.112  0.2600  1.6342  0.4804
   10SAPS   C26 1243   1.952   4.128   7.279  0.3207 -0.3704  0.3399
   10SAPS   H6R 1244   2.033   4.168   7.341  0.3678 -0.9188  0.6375
   10SAPS   C27 1245   1.817   4.115   7.341  0.2677  0.3542 -0.0415
   10SAPS   H7R 1246   1.730   4.120   7.272 -0.3969 -2.4666  0.4851
   10SAPS   H7S 1247   1.785   4.205   7.398 -1.0402  0.7934 -1.3886
   10SAPS   C28 1248   1.813   3.978   7.414  0.8712 -0.2086  0.5746
   10SAPS   H8R 1249   1.813   3.895   7.342  1.6265 -0.5978  1.0129
   10SAPS   C29 1250   1.827   3.966   7.544 -0.3248  0.2586 -0.7712
   10SAPS   H9R 1251   1.832   3.868   7.594  1.5697  1.5478  1.8605
   10SAPS  C210 1252   1.839   4.082   7.638  1.1952  0.6646  0.4978
   10SAPS  H10R 1253   1.757   4.154   7.619  0.8298 -0.0003 -0.5035
   10SAPS  H10S 1254   1.930   4.146   7.643  0.4110  1.7300  3.5243
   10SAPS  C211 1255   1.839   4.029   7.777  0.6038 -0.3803 -0.5167
   10SAPS  H11R 1256   1.908   3.945   7.796  0.8370 -0.0257  0.2195
   10SAPS  C212 1257   1.772   4.072   7.876 -0.1119 -0.0907 -0.9802
   10SAPS  H12R 1258   1.799   4.019   7.969 -0.0241 -1.3608 -1.7025
   10SAPS  C213 1259   1.665   4.178   7.884 -0.7279  0.1026 -0.5204
   10SAPS  H13R 1260   1.638   4.210   7.781  1.0548  1.5470 -0.5894
   10SAPS  H13S 1261   1.707   4.268   7.934  1.4094 -1.5988  0.9618
   10SAPS  C214 1262   1.534   4.151   7.948  0.4316  0.5226 -0.0833
   10SAPS  H14R 1263   1.449   4.124   7.884  0.6627  1.0232 -0.6109
   10SAPS  C215 1264   1.515   4.138   8.083 -0.1183 -0.0731 -0.2827
   10SAPS  H15R 1265   1.414   4.115   8.120  0.1094  0.1522  0.4959
   10SAPS  C216 1266   1.625   4.165   8.188 -0.2297 -0.3445  0.0389
   10SAPS  H16R 1267   1.613   4.266   8.233 -1.7416 -1.2228  1.7638
   10SAPS  H16S 1268   1.727   4.153   8.146 -0.1416 -0.2458  0.2242
   10SAPS  C217 1269   1.630   4.088   8.317 -0.4035 -0.1294  0.4798
   10SAPS  H17R 1270   1.529   4.095   8.362 -0.0898  0.4196  1.1261
   10SAPS  H17S 1271   1.712   4.124   8.382  0.8682 -1.0685 -0.5451
   10SAPS  C218 1272   1.682   3.949   8.295 -0.1369 -0.4562  0.1122
   10SAPS  H18R 1273   1.769   3.951   8.226 -1.5281 -0.8344 -1.7281
   10SAPS  H18S 1274   1.597   3.885   8.260 -2.3169  1.3751  1.7343
   10SAPS  C219 1275   1.738   3.891   8.425 -0.5132 -0.8017  0.2991
   10SAPS  H19R 1276   1.716   3.782   8.434  1.2988 -1.2062  0.2173
   10SAPS  H19S 1277   1.682   3.940   8.507 -1.1805  0.3304 -0.7968
   10SAPS  C220 1278   1.885   3.913   8.467 -0.0438 -0.0332  0.3314
   10SAPS  H20R 1279   1.947   3.889   8.378  0.0380 -1.3117  0.7083
   10SAPS  H20S 1280   1.914   3.852   8.555  0.6481 -0.7323 -0.3671
   10SAPS  H20T 1281   1.897   4.018   8.499  0.8394  0.3558 -1.1822
   10SAPS   C33 1282   1.402   4.602   6.872  0.0872  0.6997  0.7393
   10SAPS   H3X 1283   1.481   4.605   6.950 -0.1629  1.9347  0.9614
   10SAPS   H3Y 1284   1.370   4.495   6.867  3.2180 -0.2977 -0.7680
   10SAPS   C34 1285   1.288   4.694   6.890  0.0676 -0.0406  0.1313
   10SAPS   H4X 1286   1.208   4.666   6.818  0.6081  1.0224 -0.9337
   10SAPS   H4Y 1287   1.311   4.800   6.865 -1.8057  0.8795  2.0115
   10SAPS   C35 1288   1.228   4.679   7.033  0.2292  0.3176  0.3025
   10SAPS   H5X 1289   1.198   4.573   7.045  2.7208 -0.4454  0.5187
   10SAPS   H5Y 1290   1.152   4.759   7.027  0.3650  0.6265  1.9797
   10SAPS   C36 1291   1.307   4.719   7.158  0.7132 -0.3805  0.3322
   10SAPS   H6X 1292   1.352   4.817   7.130 -0.1119  0.0557  0.4946
   10SAPS   H6Y 1293   1.392   4.651   7.182  0.9619 -0.5220 -0.8572
   10SAPS   C37 1294   1.210   4.722   7.277 -0.0797 -0.1156  0.0337
   10SAPS   H7X 1295   1.173   4.617   7.288 -0.6518  0.1867  1.0894
   10SAPS   H7Y 1296   1.125   4.791   7.255 -0.1598 -0.3529 -0.4376
   10SAPS   C38 1297   1.281   4.779   7.407  0.3282  0.4653  0.9092
   10SAPS   H8X 1298   1.328   4.872   7.368  1.7216 -0.5810  0.0356
   10SAPS   H8Y 1299   1.364   4.713   7.439  0.3238 -0.4683 -0.8450
   10SAPS   C39 1300   1.177   4.809   7.523  0.2371 -0.2637 -0.5014
   10SAPS   H9X 1301   1.107   4.723   7.526 -0.3544  0.2439  1.4684
   10SAPS   H9Y 1302   1.125   4.899   7.486 -0.9579 -0.3614  0.8520
   10SAPS  C310 1303   1.239   4.839   7.663 -0.6799  0.8995 -0.5944
   10SAPS  H10X 1304   1.287   4.939   7.653  1.2361  0.1544  0.5690
   10SAPS  H10Y 1305   1.325   4.777   7.696 -1.4896  0.3878  0.6051
   10SAPS  C311 1306   1.140   4.847   7.782 -1.0689 -1.2340 -0.2585
   10SAPS  H11X 1307   1.166   4.770   7.858  0.2982  2.4605  3.4512
   10SAPS  H11Y 1308   1.037   4.817   7.752 -1.0139 -1.5302 -0.1583
   10SAPS  C312 1309   1.135   4.982   7.860  0.1175 -0.2400 -0.3543
   10SAPS  H12X 1310   1.103   5.071   7.801 -1.3063  0.7643  1.7802
   10SAPS  H12Y 1311   1.233   5.015   7.901 -0.6102 -0.1941  1.4361
   10SAPS  C313 1312   1.047   4.989   7.987 -0.0793 -0.0189  1.1173
   10SAPS  H13X 1313   0.942   4.986   7.950 -0.0901  0.1386  1.1350
   10SAPS  H13Y 1314   1.060   5.093   8.023 -0.6375  0.5140 -0.1668
   10SAPS  C314 1315   1.082   4.901   8.103  0.2423  0.3147  0.2068
   10SAPS  H14X 1316   1.188   4.934   8.116  0.7040 -0.3027 -1.6509
   10SAPS  H14Y 1317   1.079   4.794   8.072  3.8152  0.5817 -1.5516
   10SAPS  C315 1318   1.005   4.933   8.229 -0.5075 -0.3210 -0.6348
   10SAPS  H15X 1319   0.899   4.950   8.200 -1.4450  1.0122  3.0646
   10SAPS  H15Y 1320   1.055   5.012   8.289  0.0489 -2.1777  1.4841
   10SAPS  C316 1321   0.997   4.819   8.338  0.2388 -0.5463  0.4159
   10SAPS  H16X 1322   1.081   4.818   8.412 -0.4304 -1.7179  1.2034
   10SAPS  H16Y 1323   0.984   4.715   8.300  1.1508 -1.0284  1.3461
   10SAPS  C317 1324   0.874   4.844   8.426 -0.2380 -0.7210 -0.0751
   10SAPS  H17X 1325   0.870   4.950   8.459  2.0390 -0.4831 -0.3734
   10SAPS  H17Y 1326   0.879   4.783   8.518 -2.7386  0.5904  1.0219
   10SAPS  C318 1327   0.731   4.828   8.365 -0.0785  0.2864  0.5897
   10SAPS  H18X 1328   0.723   4.724   8.327 -0.6623  0.1894  0.9492
   10SAPS  H18Y 1329   0.729   4.894   8.276 -1.8499  2.3192  2.0148
   10SAPS  H18Z 1330   0.651   4.848   8.440  1.4326 -0.1937  2.3976
   11SAPS     N 1331   2.668   4.880   5.952 -0.7549  0.0380 -0.7064
   11SAPS   HN1 1332   2.725   4.820   5.889 -2.5701 -1.1511 -1.2697
   11SAPS   HN2 1333   2.683   4.841   6.047 -1.8165  1.0641 -0.0834
   11SAPS   HN3 1334   2.574   4.853   5.916 -0.4510 -0.8534 -0.8452
   11SAPS   C12 1335   2.676   5.025   5.929 -0.1330 -0.0676  0.4005
   11SAPS  H12A 1336   2.719   5.043   5.831  1.1579 -1.5208  0.6569
   11SAPS   C13 1337   2.535   5.097   5.938  0.3201  0.1886 -0.4644
   11SAPS  O13A 1338   2.434   5.040   5.989  0.8071 -0.2120  0.2803
   11SAPS  O13B 1339   2.533   5.218   5.918 -0.3800  0.0122  0.1349
   11SAPS   C11 1340   2.778   5.080   6.028 -0.6291  0.6910  0.2560
   11SAPS  H11A 1341   2.735   5.080   6.130  0.0210  2.3907  0.5725
   11SAPS  H11B 1342   2.789   5.190   6.014 -2.8190  0.8297 -0.7422
   11SAPS     P 1343   2.967   4.935   6.125  0.1166  0.3137 -0.2112
   11SAPS   O13 1344   2.889   4.809   6.148 -0.5014  0.3420 -0.0831
   11SAPS   O14 1345   3.114   4.921   6.096 -0.0164 -0.0393  0.3269
   11SAPS   O12 1346   2.905   5.014   6.004  0.0008  0.0809  0.0017
   11SAPS   O11 1347   2.954   5.032   6.255 -0.1076 -0.0483  0.5685
   11SAPS    C1 1348   3.038   5.152   6.260 -0.9269 -0.2778  1.5614
   11SAPS    HA 1349   3.145   5.128   6.247 -1.0871 -0.5832  0.7426
   11SAPS    HB 1350   3.011   5.217   6.175 -1.1776 -2.6832 -0.3074
   11SAPS    C2 1351   3.025   5.230   6.396  0.1183  0.1117  0.5269
   11SAPS    HS 1352   3.093   5.316   6.411  2.3507 -1.1193 -1.7382
   11SAPS   O21 1353   3.033   5.138   6.509 -0.0700  0.0754  0.5208
   11SAPS   C21 1354   3.157   5.109   6.538 -0.8611  0.0393 -0.1355
   11SAPS   O22 1355   3.260   5.135   6.476  0.1015  0.2937  0.0344
   11SAPS   C22 1356   3.157   5.035   6.671  0.5555 -0.0206  0.4556
   11SAPS   H2R 1357   3.105   4.937   6.665 -1.7956  1.1381  0.9570
   11SAPS   H2S 1358   3.266   5.027   6.692  0.3760  0.6276  1.7308
   11SAPS    C3 1359   2.883   5.285   6.391 -0.0546 -0.1158  0.2530
   11SAPS    HX 1360   2.807   5.204   6.380  1.8862 -2.3787  2.3707
   11SAPS    HY 1361   2.885   5.345   6.298  1.8940 -0.9864 -0.3148
   11SAPS   O31 1362   2.848   5.352   6.516  0.3423 -0.6721  0.4821
   11SAPS   C31 1363   2.868   5.485   6.511 -0.2197  0.1571  0.1829
   11SAPS   O32 1364   2.923   5.545   6.420 -0.2486  0.5555  0.6194
   11SAPS   C32 1365   2.804   5.550   6.628  0.2099  0.3101  0.3806
   11SAPS   H2X 1366   2.753   5.488   6.705  2.9112  0.3745  2.3657
   11SAPS   H2Y 1367   2.721   5.613   6.589 -1.1081 -1.5084  0.1330
   11SAPS   C23 1368   3.090   5.123   6.777  0.8417 -0.1616 -0.5678
   11SAPS   H3R 1369   2.980   5.128   6.761  0.7110 -1.3205 -0.1422
   11SAPS   H3S 1370   3.137   5.224   6.779  0.3612  0.0646  0.9245
   11SAPS   C24 1371   3.114   5.090   6.931 -0.1655  0.2148 -0.0744
   11SAPS   H4R 1372   3.049   5.170   6.973  0.7669  2.5326 -2.7649
   11SAPS   H4S 1373   3.217   5.120   6.958  0.2387  0.3506 -1.6794
   11SAPS   C25 1374   3.085   4.946   6.968 -0.0987 -0.1808 -0.5485
   11SAPS   H5R 1375   3.142   4.871   6.911  1.6234 -1.0340  2.1237
   11SAPS   C26 1376   3.004   4.894   7.058 -0.0070 -0.0808  0.2749
   11SAPS   H6R 1377   3.000   4.784   7.067  0.9230 -0.4773 -2.7366
   11SAPS   C27 1378   2.906   4.977   7.137 -0.7211  0.1676 -0.2527
   11SAPS   H7R 1379   2.927   5.086   7.131 -3.5921  0.8238  0.2832
   11SAPS   H7S 1380   2.902   4.946   7.243 -2.8336 -1.8110 -0.8325
   11SAPS   C28 1381   2.777   4.945   7.068 -0.4457  0.6094  0.4755
   11SAPS   H8R 1382   2.772   4.944   6.958 -3.4248  0.4975  0.5394
   11SAPS   C29 1383   2.660   4.934   7.136  0.0815  0.1638  1.2065
   11SAPS   H9R 1384   2.572   4.927   7.070  0.3435 -1.2717  0.9736
   11SAPS  C210 1385   2.658   4.956   7.287  0.2074  0.1285  0.2609
   11SAPS  H10R 1386   2.710   5.046   7.327  0.6707 -0.3015  0.6444
   11SAPS  H10S 1387   2.707   4.868   7.334 -2.9207 -1.7289  0.2749
   11SAPS  C211 1388   2.520   4.968   7.343  0.0784 -0.2282  0.2616
   11SAPS  H11R 1389   2.470   5.066   7.346 -0.9203 -0.7413  0.9630
   11SAPS  C212 1390   2.433   4.871   7.376  0.3918  0.0449 -1.0278
   11SAPS  H12R 1391   2.332   4.889   7.416  0.0810  1.2857 -2.3138
   11SAPS  C213 1392   2.463   4.721   7.362 -0.3172 -0.7644 -0.2821
   11SAPS  H13R 1393   2.480   4.699   7.255  1.8255 -0.4704 -0.0392
   11SAPS  H13S 1394   2.366   4.672   7.383 -0.8984  0.4205 -0.1395
   11SAPS  C214 1395   2.567   4.660   7.455 -0.0953  0.0711  0.2451
   11SAPS  H14R 1396   2.662   4.629   7.409 -0.6152 -2.1855  0.5979
   11SAPS  C215 1397   2.559   4.650   7.590 -0.0383  0.1697  0.3957
   11SAPS  H15R 1398   2.638   4.594   7.643 -0.2286 -1.5632 -1.0231
   11SAPS  C216 1399   2.440   4.688   7.674  0.3257  0.5022  0.0899
   11SAPS  H16R 1400   2.355   4.627   7.638  2.3094 -1.3244 -1.8328
   11SAPS  H16S 1401   2.419   4.795   7.658 -1.2080  0.2523  0.3066
   11SAPS  C217 1402   2.458   4.668   7.823  0.3050 -0.5947 -0.6852
   11SAPS  H17R 1403   2.494   4.564   7.839 -0.7651 -0.6748  1.5734
   11SAPS  H17S 1404   2.357   4.676   7.869  0.3276 -0.7274 -0.6120
   11SAPS  C218 1405   2.556   4.761   7.896  0.0954  0.8702  0.2308
   11SAPS  H18R 1406   2.539   4.869   7.879 -0.5889  1.1523  2.4830
   11SAPS  H18S 1407   2.653   4.732   7.850 -1.0888 -0.7851 -1.4066
   11SAPS  C219 1408   2.562   4.726   8.051 -0.4158  0.0442  0.1912
   11SAPS  H19R 1409   2.563   4.615   8.057 -0.8531 -0.0352 -0.9532
   11SAPS  H19S 1410   2.468   4.767   8.094  0.9250  2.0895  1.3218
   11SAPS  C220 1411   2.669   4.806   8.122  0.1270 -0.4135 -0.0586
   11SAPS  H20R 1412   2.768   4.776   8.081  0.3130 -2.0168  1.4254
   11SAPS  H20S 1413   2.674   4.788   8.232 -2.4122  0.1926  0.2256
   11SAPS  H20T 1414   2.658   4.916   8.113  1.7105 -0.3615 -2.3458
   11SAPS   C33 1415   2.910   5.641   6.693  0.1709  0.2877 -0.3294
   11SAPS   H3X 1416   2.843   5.706   6.753  0.7797  0.4101  0.2149
   11SAPS   H3Y 1417   2.953   5.713   6.621 -0.4866  0.7580 -0.2633
   11SAPS   C34 1418   3.006   5.573   6.779 -0.2868 -1.0688 -0.4162
   11SAPS   H4X 1419   3.059   5.660   6.824 -1.2817 -0.8232  0.3158
   11SAPS   H4Y 1420   3.079   5.510   6.725 -0.3222 -0.2553 -1.4431
   11SAPS   C35 1421   2.940   5.494   6.895  0.2085 -0.1475  0.0323
   11SAPS   H5X 1422   2.900   5.398   6.856  0.0142  0.7825 -2.2189
   11SAPS   H5Y 1423   2.848   5.551   6.921  0.3394  0.7700 -1.3745
   11SAPS   C36 1424   3.020   5.483   7.023  0.5589  0.2391 -0.3905
   11SAPS   H6X 1425   3.061   5.581   7.057 -2.2552  0.7159  2.0458
   11SAPS   H6Y 1426   3.103   5.411   7.008  0.3680 -0.0233 -0.1889
   11SAPS   C37 1427   2.920   5.451   7.135 -0.1716  0.0731  0.7163
   11SAPS   H7X 1428   2.879   5.348   7.136 -3.4196  1.1623 -2.1121
   11SAPS   H7Y 1429   2.826   5.508   7.117  0.2283  0.4505 -0.2507
   11SAPS   C38 1430   2.965   5.510   7.276 -0.3126  0.5027 -0.7159
   11SAPS   H8X 1431   3.023   5.604   7.266 -1.8909  1.7984  1.2924
   11SAPS   H8Y 1432   3.047   5.450   7.321 -0.6980  0.8820  0.5304
   11SAPS   C39 1433   2.841   5.526   7.374 -0.0940 -0.7502  0.1326
   11SAPS   H9X 1434   2.798   5.428   7.402  1.5153 -0.4528  4.2694
   11SAPS   H9Y 1435   2.777   5.595   7.314  0.3817 -1.3087 -1.0376
   11SAPS  C310 1436   2.868   5.594   7.509  0.6290  0.3615  0.3004
   11SAPS  H10X 1437   2.933   5.531   7.572 -0.6728 -1.2547  0.0937
   11SAPS  H10Y 1438   2.768   5.615   7.552  0.1983  1.5258 -1.1946
   11SAPS  C311 1439   2.931   5.738   7.498 -0.6164  0.2758 -0.2299
   11SAPS  H11X 1440   2.880   5.808   7.428  1.6204  1.8782 -0.3747
   11SAPS  H11Y 1441   3.028   5.737   7.444 -1.8749  1.9001 -2.7209
   11SAPS  C312 1442   2.948   5.816   7.630  0.1909  0.1759 -0.0172
   11SAPS  H12X 1443   3.041   5.776   7.677  1.2268  1.4953 -0.8711
   11SAPS  H12Y 1444   2.856   5.788   7.685 -0.8363  0.0603 -1.7287
   11SAPS  C313 1445   2.958   5.967   7.620  0.4294 -0.1329  0.4309
   11SAPS  H13X 1446   2.953   6.015   7.720  1.3634  0.8349  0.0294
   11SAPS  H13Y 1447   2.883   6.013   7.552  0.8721 -0.9485 -0.6298
   11SAPS  C314 1448   3.095   6.018   7.561 -0.5788 -0.1922 -0.5585
   11SAPS  H14X 1449   3.181   5.974   7.616  0.4955  2.0849 -0.2912
   11SAPS  H14Y 1450   3.103   6.127   7.577 -1.5998  0.0658 -1.6610
   11SAPS  C315 1451   3.126   5.997   7.416  0.0905 -0.1050  0.3161
   11SAPS  H15X 1452   3.036   6.013   7.353  1.8230  1.6004 -1.8968
   11SAPS  H15Y 1453   3.150   5.891   7.394 -2.2505 -0.4164 -1.1287
   11SAPS  C316 1454   3.246   6.074   7.358 -0.1445 -0.5048 -0.5127
   11SAPS  H16X 1455   3.330   6.049   7.426 -1.0667  2.0540  1.7571
   11SAPS  H16Y 1456   3.229   6.183   7.366  1.4079 -0.2883  0.2587
   11SAPS  C317 1457   3.274   6.035   7.213 -0.0420  0.0096  0.3857
   11SAPS  H17X 1458   3.187   6.060   7.149  0.2661  0.3075  0.0769
   11SAPS  H17Y 1459   3.292   5.925   7.217  2.3093  0.3610  1.2273
   11SAPS  C318 1460   3.405   6.082   7.144 -0.4684 -0.1636  0.8303
   11SAPS  H18X 1461   3.409   6.193   7.144  1.4349 -0.1836  1.8877
   11SAPS  H18Y 1462   3.413   6.047   7.039 -0.0053 -0.6861  1.0328
   11SAPS  H18Z 1463   3.502   6.053   7.189 -0.6066 -1.4993  0.3081
   12SAPS     N 1464   2.236   6.631   6.601  0.0045 -0.5795  0.3960
   12SAPS   HN1 1465   2.227   6.731   6.627  0.9771 -0.2653 -0.4337
   12SAPS   HN2 1466   2.186   6.562   6.661  0.3265  0.3113  1.7392
   12SAPS   HN3 1467   2.336   6.604   6.608 -0.0571 -0.9948 -0.2608
   12SAPS   C12 1468   2.193   6.632   6.455 -0.9339  0.0958 -0.4518
   12SAPS  H12A 1469   2.098   6.684   6.447 -1.7013 -1.2740 -0.4681
   12SAPS   C13 1470   2.291   6.710   6.356 -0.4346 -0.8388 -0.4710
   12SAPS  O13A 1471   2.402   6.757   6.396  0.8749 -0.3746  0.2712
   12SAPS  O13B 1472   2.248   6.731   6.244 -0.3576 -0.0122  0.0735
   12SAPS   C11 1473   2.195   6.485   6.409  0.0179 -0.0747  0.4130
   12SAPS  H11A 1474   2.294   6.438   6.421 -0.1566 -1.0518 -1.6045
   12SAPS  H11B 1475   2.171   6.495   6.301  0.2884  3.7223  0.5597
   12SAPS     P 1476   2.025   6.294   6.401 -0.0819 -0.2331 -0.4300
   12SAPS   O13 1477   1.944   6.358   6.296  1.1506  0.5101  0.0987
   12SAPS   O14 1478   2.120   6.188   6.359  0.0283  0.1068  0.2195
   12SAPS   O12 1479   2.107   6.407   6.483 -0.2188  0.5029 -0.7861
   12SAPS   O11 1480   1.928   6.238   6.516  0.1999 -0.0931  0.2943
   12SAPS    C1 1481   1.819   6.317   6.572 -0.1580  0.1907  0.5778
   12SAPS    HA 1482   1.762   6.381   6.501 -3.1723 -1.8103  1.0389
   12SAPS    HB 1483   1.743   6.248   6.615  0.6992 -0.1142  1.6644
   12SAPS    C2 1484   1.870   6.409   6.685  0.2722 -0.3121 -0.2656
   12SAPS    HS 1485   1.939   6.484   6.641  2.3105 -2.5166 -1.0663
   12SAPS   O21 1486   1.945   6.324   6.773 -0.4784 -0.1232 -0.1898
   12SAPS   C21 1487   2.042   6.382   6.836 -0.8420  0.6697  0.3920
   12SAPS   O22 1488   2.092   6.491   6.804 -0.1403 -0.1665 -0.3084
   12SAPS   C22 1489   2.078   6.302   6.957 -0.5036  0.6625 -0.0336
   12SAPS   H2R 1490   2.009   6.334   7.037 -0.7881  0.6635 -0.2746
   12SAPS   H2S 1491   2.053   6.196   6.932  0.5973  0.3916 -0.0221
   12SAPS    C3 1492   1.760   6.477   6.765 -0.2999  0.0177 -0.0072
   12SAPS    HX 1493   1.709   6.395   6.820  0.0288 -0.5452 -0.5437
   12SAPS    HY 1494   1.682   6.526   6.704  0.0004  0.5764  0.0442
   12SAPS   O31 1495   1.813   6.566   6.871 -0.0554  0.2113  0.7713
   12SAPS   C31 1496   1.849   6.691   6.822  0.4252  0.3960 -0.6480
   12SAPS   O32 1497   1.825   6.734   6.712 -0.3292  0.0157 -0.0772
   12SAPS   C32 1498   1.913   6.786   6.934  0.2636  0.3926 -0.4488
   12SAPS   H2X 1499   1.832   6.855   6.967 -0.8485 -0.5214 -1.1819
   12SAPS   H2Y 1500   1.995   6.840   6.881 -1.1108  0.2969 -2.8611
   12SAPS   C23 1501   2.220   6.329   7.006 -0.8142 -0.6973 -0.0885
   12SAPS   H3R 1502   2.221   6.430   7.052 -2.2948  0.9687 -3.3704
   12SAPS   H3S 1503   2.290   6.336   6.920 -3.3966  0.8184 -2.2340
   12SAPS   C24 1504   2.274   6.204   7.091 -0.8359  0.0848 -0.3215
   12SAPS   H4R 1505   2.376   6.227   7.127 -1.0992 -0.4939  0.8306
   12SAPS   H4S 1506   2.291   6.122   7.018 -1.3081 -1.5883  1.3609
   12SAPS   C25 1507   2.186   6.181   7.205  0.0183 -0.6355 -0.5871
   12SAPS   H5R 1508   2.094   6.123   7.188 -1.0897  1.3137 -1.5412
   12SAPS   C26 1509   2.217   6.226   7.327  0.5600 -0.3727  0.3051
   12SAPS   H6R 1510   2.141   6.218   7.407  0.0669 -2.4921 -0.3018
   12SAPS   C27 1511   2.343   6.305   7.366  0.0997 -0.3143 -0.4792
   12SAPS   H7R 1512   2.327   6.403   7.315  0.2681 -0.8142 -1.5083
   12SAPS   H7S 1513   2.440   6.266   7.331  1.1510  1.7391 -0.0040
   12SAPS   C28 1514   2.355   6.327   7.510 -0.5558 -0.2084  0.4535
   12SAPS   H8R 1515   2.365   6.228   7.559  0.9499  0.1653  0.9514
   12SAPS   C29 1516   2.357   6.438   7.588  0.9162 -0.6873  0.3575
   12SAPS   H9R 1517   2.374   6.440   7.697  0.5825  2.5679  0.4567
   12SAPS  C210 1518   2.351   6.589   7.543 -0.6373  0.6631 -0.4107
   12SAPS  H10R 1519   2.245   6.617   7.556 -2.6903 -5.5798 -0.5456
   12SAPS  H10S 1520   2.372   6.599   7.434  1.3525 -0.6659 -0.2043
   12SAPS  C211 1521   2.448   6.685   7.604  0.6090  0.3595 -0.0933
   12SAPS  H11R 1522   2.550   6.672   7.565  1.0853  0.9721  0.9023
   12SAPS  C212 1523   2.425   6.778   7.698 -0.3674 -0.3185  0.2803
   12SAPS  H12R 1524   2.514   6.830   7.737  0.8571 -1.5626 -0.7261
   12SAPS  C213 1525   2.284   6.796   7.752 -0.2712 -0.5173  0.3326
   12SAPS  H13R 1526   2.237   6.699   7.781 -1.1363  0.2954  1.8148
   12SAPS  H13S 1527   2.217   6.845   7.679 -2.5877  0.0392  2.6690
   12SAPS  C214 1528   2.295   6.901   7.860 -0.3754 -0.1228  0.1558
   12SAPS  H14R 1529   2.350   6.994   7.842 -0.3680 -0.6733 -3.3535
   12SAPS  C215 1530   2.239   6.891   7.979  0.1496 -0.1342 -0.1984
   12SAPS  H15R 1531   2.267   6.961   8.060 -0.0503  0.8414 -0.9538
   12SAPS  C216 1532   2.147   6.783   8.020  0.3604  0.1609  0.3115
   12SAPS  H16R 1533   2.194   6.682   8.020  0.6627  0.2835  1.3994
   12SAPS  H16S 1534   2.054   6.778   7.960  0.1456  0.6413  0.5977
   12SAPS  C217 1535   2.104   6.797   8.169 -0.7245  0.0806  0.2105
   12SAPS  H17R 1536   2.024   6.874   8.167 -1.7923 -0.8329 -4.5807
   12SAPS  H17S 1537   2.189   6.837   8.227 -1.2248  2.3895 -0.5485
   12SAPS  C218 1538   2.052   6.678   8.231  0.5173 -0.6297  0.4030
   12SAPS  H18R 1539   2.129   6.598   8.224 -0.8749 -2.0064  0.1760
   12SAPS  H18S 1540   1.965   6.645   8.170  0.2885  0.0069  0.3772
   12SAPS  C219 1541   2.030   6.694   8.381  0.2876  0.2886  0.2556
   12SAPS  H19R 1542   2.119   6.732   8.435  0.0117  0.5652  0.5193
   12SAPS  H19S 1543   1.996   6.595   8.420 -2.1980  0.2220 -1.7956
   12SAPS  C220 1544   1.918   6.782   8.423 -0.4785 -0.9238  0.1756
   12SAPS  H20R 1545   1.837   6.771   8.349 -0.5963 -3.0527  0.5568
   12SAPS  H20S 1546   1.946   6.888   8.406 -0.6458 -1.0431 -0.8709
   12SAPS  H20T 1547   1.866   6.771   8.521 -2.3669  0.2090 -0.6563
   12SAPS   C33 1548   1.961   6.717   7.061  0.5842 -0.0058  0.5341
   12SAPS   H3X 1549   2.037   6.642   7.031  1.3592  0.0022  2.3430
   12SAPS   H3Y 1550   1.888   6.671   7.131 -1.9130 -0.0420 -1.9238
   12SAPS   C34 1551   2.041   6.826   7.141 -0.1782 -0.1880 -0.1241
   12SAPS   H4X 1552   1.986   6.917   7.174 -1.6080 -1.2196  0.3973
   12SAPS   H4Y 1553   2.125   6.870   7.083 -1.9638  0.8995 -2.0511
   12SAPS   C35 1554   2.103   6.768   7.272 -0.9410 -0.2036 -0.7697
   12SAPS   H5X 1555   2.181   6.696   7.243  2.7474  3.1061  0.0693
   12SAPS   H5Y 1556   2.024   6.710   7.325  2.8693 -3.1548  2.2357
   12SAPS   C36 1557   2.175   6.872   7.359  0.5834  0.4698  0.2405
   12SAPS   H6X 1558   2.257   6.915   7.298 -1.1261  1.7906 -1.2192
   12SAPS   H6Y 1559   2.219   6.821   7.447  2.8252 -1.1283 -1.7006
   12SAPS   C37 1560   2.092   6.995   7.407  0.1365  0.1967  0.0826
   12SAPS   H7X 1561   2.059   7.054   7.318  0.5234 -0.0553 -0.2349
   12SAPS   H7Y 1562   2.153   7.066   7.466  1.6829 -0.8538 -0.1757
   12SAPS   C38 1563   1.970   6.957   7.487  0.1470  0.2942 -0.0310
   12SAPS   H8X 1564   2.006   6.917   7.584 -0.7256  1.9158  1.0167
   12SAPS   H8Y 1565   1.898   6.883   7.444 -0.3550 -0.3699  1.8588
   12SAPS   C39 1566   1.897   7.088   7.520 -0.1982 -0.3584  0.5922
   12SAPS   H9X 1567   1.882   7.143   7.425 -0.2198 -2.0957 -0.4528
   12SAPS   H9Y 1568   1.963   7.152   7.582 -0.5498 -0.5794  1.2006
   12SAPS  C310 1569   1.774   7.062   7.611 -0.3907  0.2902  0.2058
   12SAPS  H10X 1570   1.726   6.971   7.570  2.2370 -0.8315 -0.6056
   12SAPS  H10Y 1571   1.704   7.149   7.609 -0.0557  0.5573 -1.8375
   12SAPS  C311 1572   1.816   7.048   7.757  0.6390 -0.2332  0.8145
   12SAPS  H11X 1573   1.832   7.148   7.803  2.1653  0.1134 -0.3772
   12SAPS  H11Y 1574   1.910   6.990   7.762  1.1084  0.5243  0.9946
   12SAPS  C312 1575   1.714   6.963   7.840 -0.4081  0.0578 -0.8926
   12SAPS  H12X 1576   1.703   6.855   7.815  1.5554 -0.7362  1.2935
   12SAPS  H12Y 1577   1.610   7.003   7.835 -1.2607 -1.7758  0.7166
   12SAPS  C313 1578   1.757   6.976   7.994  0.3523  0.1291  0.2633
   12SAPS  H13X 1579   1.867   6.984   7.992  0.2630  1.6658 -0.1705
   12SAPS  H13Y 1580   1.725   6.884   8.047  0.6060 -0.2344 -0.2029
   12SAPS  C314 1581   1.691   7.094   8.063 -0.0208 -0.0679  0.0156
   12SAPS  H14X 1582   1.584   7.074   8.087  0.2377 -0.2443  1.0812
   12SAPS  H14Y 1583   1.701   7.189   8.006  3.2947  0.1973  0.8453
   12SAPS  C315 1584   1.754   7.126   8.200 -0.2370 -0.4513  0.8674
   12SAPS  H15X 1585   1.849   7.182   8.186 -1.6955  1.3878 -3.3139
   12SAPS  H15Y 1586   1.777   7.034   8.257  1.6609  0.3688  1.5168
   12SAPS  C316 1587   1.661   7.207   8.293 -0.3772  0.0039  0.1131
   12SAPS  H16X 1588   1.585   7.137   8.334  1.3019 -1.3990  1.0127
   12SAPS  H16Y 1589   1.601   7.278   8.233  0.2015  0.6208  0.2630
   12SAPS  C317 1590   1.739   7.259   8.411 -0.6772 -0.6667  0.3025
   12SAPS  H17X 1591   1.824   7.325   8.380 -1.9830  0.8132 -0.2486
   12SAPS  H17Y 1592   1.780   7.165   8.453 -0.7267 -1.1815 -0.7762
   12SAPS  C318 1593   1.659   7.313   8.533  0.1575  0.1444  0.5164
   12SAPS  H18X 1594   1.586   7.386   8.492 -0.2124 -0.8260 -0.6006
   12SAPS  H18Y 1595   1.719   7.360   8.613 -0.4371 -0.4217  1.3229
   12SAPS  H18Z 1596   1.601   7.236   8.590 -0.6894  0.2105 -0.2268
   13SAPS     N 1597   1.764   5.578   5.861 -0.2331  0.0512 -0.2883
   13SAPS   HN1 1598   1.738   5.648   5.933 -1.4906 -0.2013 -0.4808
   13SAPS   HN2 1599   1.698   5.577   5.780  0.8954 -0.8365 -1.2420
   13SAPS   HN3 1600   1.754   5.491   5.917  0.5857  0.4044  0.4227
   13SAPS   C12 1601   1.900   5.612   5.814 -0.1976 -0.7461  0.3069
   13SAPS  H12A 1602   1.921   5.534   5.742 -1.1447  0.9233 -1.8788
   13SAPS   C13 1603   1.906   5.760   5.752  0.2101  1.2767  0.8498
   13SAPS  O13A 1604   1.798   5.825   5.747 -0.1444  0.3447 -0.0095
   13SAPS  O13B 1605   2.010   5.794   5.692  0.1592  0.0647  0.1371
   13SAPS   C11 1606   1.995   5.614   5.941  0.0996  0.5659  0.3871
   13SAPS  H11A 1607   1.969   5.696   6.012  2.5955  0.8993  1.0144
   13SAPS  H11B 1608   2.097   5.636   5.902  0.4539 -1.1185  0.3062
   13SAPS     P 1609   2.082   5.444   6.118  0.1520  0.5616 -0.4931
   13SAPS   O13 1610   2.163   5.331   6.070 -0.2133 -0.5559 -0.1205
   13SAPS   O14 1611   2.153   5.560   6.173 -0.0175 -0.1040  0.3375
   13SAPS   O12 1612   1.986   5.485   6.002  0.2557  0.2119 -0.4503
   13SAPS   O11 1613   1.985   5.392   6.240 -0.1892 -0.1012  0.1745
   13SAPS    C1 1614   1.886   5.479   6.294  0.2566  0.0999  0.4077
   13SAPS    HA 1615   1.859   5.567   6.231  0.4690 -0.2756 -0.2138
   13SAPS    HB 1616   1.791   5.423   6.307  1.2114 -1.5866  0.3653
   13SAPS    C2 1617   1.939   5.526   6.434  0.4006 -0.4747  0.5398
   13SAPS    HS 1618   2.042   5.556   6.408  1.2525 -3.7433 -0.4106
   13SAPS   O21 1619   1.935   5.413   6.524 -0.2882 -0.0210  0.5335
   13SAPS   C21 1620   2.049   5.377   6.586 -1.2047 -0.3487 -0.4664
   13SAPS   O22 1621   2.158   5.427   6.563  0.2849 -0.0330 -0.7366
   13SAPS   C22 1622   2.032   5.262   6.690  0.0028 -0.9067 -0.4632
   13SAPS   H2R 1623   1.927   5.262   6.726  0.2623 -1.5703  0.3183
   13SAPS   H2S 1624   2.054   5.170   6.632  0.2588 -1.4132  0.4222
   13SAPS    C3 1625   1.862   5.632   6.501 -0.2124  0.1274  0.2525
   13SAPS    HX 1626   1.754   5.608   6.488 -0.0321 -1.0249  0.7452
   13SAPS    HY 1627   1.878   5.730   6.451 -0.0462 -0.6679 -1.2905
   13SAPS   O31 1628   1.895   5.645   6.644 -0.1160  0.2527 -0.0437
   13SAPS   C31 1629   2.016   5.697   6.672 -0.3775 -0.6294 -0.2034
   13SAPS   O32 1630   2.098   5.733   6.590  0.1277 -0.2063  0.3796
   13SAPS   C32 1631   2.043   5.709   6.817 -0.2023  0.0935 -1.0747
   13SAPS   H2X 1632   2.085   5.611   6.848 -3.5030 -1.4408 -1.0466
   13SAPS   H2Y 1633   1.943   5.715   6.864 -0.4600 -0.0415 -1.6025
   13SAPS   C23 1634   2.138   5.266   6.802  0.1329 -0.2625  0.0384
   13SAPS   H3R 1635   2.161   5.370   6.836  0.1645  0.4075 -1.9087
   13SAPS   H3S 1636   2.231   5.228   6.754  0.5820  0.4419  0.3343
   13SAPS   C24 1637   2.115   5.171   6.924  0.2821 -0.2098  0.1560
   13SAPS   H4R 1638   2.214   5.184   6.974  1.9883 -0.1566 -2.9666
   13SAPS   H4S 1639   2.106   5.070   6.879 -1.1042 -0.9234  1.9002
   13SAPS   C25 1640   1.997   5.201   7.009 -1.0970  0.3228  0.4296
   13SAPS   H5R 1641   1.905   5.221   6.954  0.6582 -0.7268 -3.1872
   13SAPS   C26 1642   1.989   5.190   7.143  0.5706  0.0638  0.2631
   13SAPS   H6R 1643   1.889   5.222   7.178  0.1475 -0.6600 -0.2494
   13SAPS   C27 1644   2.098   5.150   7.240  0.8763 -0.1920  1.0100
   13SAPS   H7R 1645   2.146   5.237   7.291 -0.8651  1.9489 -0.7940
   13SAPS   H7S 1646   2.177   5.091   7.190 -0.1831 -1.2660  0.5811
   13SAPS   C28 1647   2.032   5.066   7.347 -0.8162 -0.2160 -0.0877
   13SAPS   H8R 1648   1.983   4.973   7.315 -1.2479 -0.2031  0.5226
   13SAPS   C29 1649   2.038   5.080   7.479 -1.0321  0.2910  0.1225
   13SAPS   H9R 1650   1.984   5.012   7.546  0.0544  0.3793  1.1159
   13SAPS  C210 1651   2.126   5.177   7.558  0.6848  0.6259 -0.2838
   13SAPS  H10R 1652   2.074   5.211   7.650  2.3593  2.3664  0.0849
   13SAPS  H10S 1653   2.142   5.272   7.502 -2.4317  0.1913 -2.1491
   13SAPS  C211 1654   2.255   5.121   7.608 -0.4491  0.5098 -0.7368
   13SAPS  H11R 1655   2.343   5.133   7.543  0.1983 -1.7902 -0.3678
   13SAPS  C212 1656   2.271   5.047   7.723  0.5224  0.0722  0.7006
   13SAPS  H12R 1657   2.371   5.012   7.751  0.7265  0.2002  0.1324
   13SAPS  C213 1658   2.161   5.015   7.818 -0.9777  0.2212 -0.3091
   13SAPS  H13R 1659   2.089   4.944   7.772 -1.0012 -1.3637  1.9678
   13SAPS  H13S 1660   2.086   5.093   7.842 -0.4509  0.7908 -0.4948
   13SAPS  C214 1661   2.214   4.953   7.947  0.0160 -0.0791  0.1849
   13SAPS  H14R 1662   2.307   4.895   7.943 -1.3806 -2.4403  0.0222
   13SAPS  C215 1663   2.162   4.948   8.066  1.0791  0.4247 -1.0953
   13SAPS  H15R 1664   2.225   4.910   8.148 -0.4859  1.9272  0.9216
   13SAPS  C216 1665   2.023   5.016   8.091  0.3740  0.1904 -0.0155
   13SAPS  H16R 1666   1.984   5.073   8.005  0.5352 -0.8847 -0.8290
   13SAPS  H16S 1667   2.022   5.081   8.181  0.3375 -0.1740  0.2517
   13SAPS  C217 1668   1.915   4.903   8.105 -0.2768 -0.1966 -0.6098
   13SAPS  H17R 1669   1.927   4.825   8.027  1.5371  0.4174 -0.9981
   13SAPS  H17S 1670   1.815   4.948   8.086 -0.3453 -1.1022 -2.5665
   13SAPS  C218 1671   1.910   4.836   8.241  0.4687 -0.2759 -1.0159
   13SAPS  H18R 1672   1.905   4.917   8.317 -2.1143 -1.1954 -0.0969
   13SAPS  H18S 1673   1.996   4.770   8.262  1.0622  1.3795  2.5576
   13SAPS  C219 1674   1.777   4.765   8.260  0.2810  0.2639  0.3133
   13SAPS  H19R 1675   1.767   4.681   8.188 -2.1087 -0.2681  1.1610
   13SAPS  H19S 1676   1.690   4.834   8.256  0.0405 -0.0906 -0.8401
   13SAPS  C220 1677   1.769   4.690   8.397 -0.2042  0.1145  0.7300
   13SAPS  H20R 1678   1.692   4.610   8.392  0.8974 -0.9016 -0.9603
   13SAPS  H20S 1679   1.732   4.764   8.471 -0.1229  0.8500  0.0322
   13SAPS  H20T 1680   1.874   4.658   8.418 -0.3320 -0.2360  0.8445
   13SAPS   C33 1681   2.125   5.827   6.862  0.7863  0.0296  0.9347
   13SAPS   H3X 1682   2.069   5.922   6.859  0.6768 -0.0632 -0.6687
   13SAPS   H3Y 1683   2.208   5.843   6.791  0.0437 -0.6579 -0.1193
   13SAPS   C34 1684   2.196   5.799   6.996  0.9935 -0.0146  0.4167
   13SAPS   H4X 1685   2.269   5.881   7.016  2.3908 -1.2329  0.5105
   13SAPS   H4Y 1686   2.254   5.704   6.988 -0.9094 -1.2512  0.7306
   13SAPS   C35 1687   2.096   5.786   7.113  0.3230 -0.0636 -0.1330
   13SAPS   H5X 1688   2.040   5.690   7.121 -0.1453  0.1737 -0.4887
   13SAPS   H5Y 1689   2.017   5.864   7.106 -0.7803 -1.1834 -0.5553
   13SAPS   C36 1690   2.167   5.814   7.248  0.3926  0.3427 -0.4735
   13SAPS   H6X 1691   2.247   5.891   7.240  0.0575  0.7748  0.2717
   13SAPS   H6Y 1692   2.223   5.719   7.264 -0.6021 -0.2670 -0.5411
   13SAPS   C37 1693   2.070   5.850   7.356 -0.0233 -0.2858  0.0964
   13SAPS   H7X 1694   1.986   5.778   7.364 -1.6595  1.5041 -0.4333
   13SAPS   H7Y 1695   2.028   5.951   7.334  2.3859  0.5204 -1.1465
   13SAPS   C38 1696   2.138   5.863   7.496  0.1683 -0.3018  0.0954
   13SAPS   H8X 1697   2.218   5.933   7.464  0.9596 -1.9349 -1.7114
   13SAPS   H8Y 1698   2.171   5.762   7.529 -1.4016 -0.8582  0.0232
   13SAPS   C39 1699   2.040   5.919   7.593  0.5493 -0.0706  0.5747
   13SAPS   H9X 1700   1.958   5.848   7.618 -1.4859  2.3798  1.2557
   13SAPS   H9Y 1701   1.980   6.005   7.558 -1.9083 -1.7266  0.4438
   13SAPS  C310 1702   2.099   5.957   7.731 -0.5545 -0.2399 -0.3409
   13SAPS  H10X 1703   2.030   6.007   7.802  1.3795  2.1822 -0.0259
   13SAPS  H10Y 1704   2.187   6.024   7.718  1.1558 -2.0311  1.2969
   13SAPS  C311 1705   2.158   5.832   7.806 -0.1168 -0.4507  0.4588
   13SAPS  H11X 1706   2.238   5.791   7.740  0.5992  0.6439  0.6153
   13SAPS  H11Y 1707   2.090   5.746   7.788 -1.0031  0.7773 -2.9364
   13SAPS  C312 1708   2.191   5.847   7.952  0.0202 -0.0614  0.3413
   13SAPS  H12X 1709   2.261   5.931   7.966 -1.7518  1.4599  0.5017
   13SAPS  H12Y 1710   2.228   5.752   7.995  0.4896  0.2023  0.5159
   13SAPS  C313 1711   2.063   5.880   8.019  0.3809 -0.1207 -0.3705
   13SAPS  H13X 1712   1.974   5.822   7.987 -0.3036  0.9913 -0.5380
   13SAPS  H13Y 1713   2.038   5.988   8.009  0.6984  0.0822  0.8107
   13SAPS  C314 1714   2.086   5.865   8.174  0.2284  0.3014  0.4255
   13SAPS  H14X 1715   2.187   5.907   8.192  0.9145 -0.8320 -0.6860
   13SAPS  H14Y 1716   2.101   5.759   8.201  1.0662 -0.5679 -3.0600
   13SAPS  C315 1717   1.990   5.931   8.269  0.3289  0.6629 -0.0909
   13SAPS  H15X 1718   2.016   5.894   8.370  0.1207  2.0374  0.4948
   13SAPS  H15Y 1719   1.886   5.899   8.247 -0.2431  2.1956  0.2626
   13SAPS  C316 1720   2.000   6.088   8.258  1.2093  0.3090 -0.3960
   13SAPS  H16X 1721   1.982   6.118   8.153  3.9082  1.0331 -0.7174
   13SAPS  H16Y 1722   2.101   6.124   8.286  1.4372 -0.2670 -0.4647
   13SAPS  C317 1723   1.899   6.171   8.345 -0.1564 -0.8121  0.0297
   13SAPS  H17X 1724   1.918   6.168   8.455 -2.6684 -1.8210  0.5145
   13SAPS  H17Y 1725   1.807   6.109   8.345 -0.2210 -0.7179 -0.0584
   13SAPS  C318 1726   1.881   6.317   8.296  0.3706 -0.6535 -0.5468
   13SAPS  H18X 1727   1.870   6.321   8.186  0.6197 -1.2999 -0.6030
   13SAPS  H18Y 1728   1.973   6.373   8.324 -0.7397  2.4839 -2.6717
   13SAPS  H18Z 1729   1.793   6.367   8.342  1.1140 -2.3008  2.9955
   14SAPS     N 1730   2.565   3.576   6.254  0.3266 -0.2358  0.3055
   14SAPS   HN1 1731   2.472   3.616   6.275  0.3020 -0.6576  1.0344
   14SAPS   HN2 1732   2.543   3.477   6.227 -0.5770  0.0957 -0.2209
   14SAPS   HN3 1733   2.625   3.578   6.338  1.1906 -0.5960 -0.2804
   14SAPS   C12 1734   2.630   3.650   6.138  0.4112 -0.7177 -0.1654
   14SAPS  H12A 1735   2.576   3.612   6.053  0.9402 -1.0350 -0.3647
   14SAPS   C13 1736   2.631   3.812   6.140  0.1218  0.1507  0.1498
   14SAPS  O13A 1737   2.596   3.886   6.240  0.5530  0.3848 -0.1685
   14SAPS  O13B 1738   2.701   3.865   6.044  0.2102  0.3588 -0.3324
   14SAPS   C11 1739   2.777   3.610   6.122 -0.3617  0.4279  0.2726
   14SAPS  H11A 1740   2.828   3.655   6.209 -0.2185  1.0770 -0.1446
   14SAPS  H11B 1741   2.829   3.645   6.031 -1.5351  0.5015 -0.3946
   14SAPS     P 1742   2.876   3.367   6.059 -0.1878  0.1908 -0.1482
   14SAPS   O13 1743   2.808   3.238   6.059  0.0122 -0.2200 -0.0753
   14SAPS   O14 1744   2.915   3.430   5.934  0.4147 -0.7235 -0.2089
   14SAPS   O12 1745   2.780   3.465   6.130 -0.0543  0.6552  0.4374
   14SAPS   O11 1746   2.991   3.362   6.171 -0.3308 -0.3350  0.0496
   14SAPS    C1 1747   2.950   3.372   6.304  0.3457  0.4523  0.0812
   14SAPS    HA 1748   2.936   3.480   6.327 -2.7052  1.1879 -4.0013
   14SAPS    HB 1749   2.847   3.331   6.315  0.5850 -1.3452 -3.1067
   14SAPS    C2 1750   3.041   3.297   6.402 -0.4222  0.9379 -0.1930
   14SAPS    HS 1751   2.988   3.250   6.488 -0.2921  2.4824  0.7647
   14SAPS   O21 1752   3.143   3.385   6.460  0.4888  0.1729  0.2748
   14SAPS   C21 1753   3.091   3.457   6.565  0.7632 -0.1794 -0.3178
   14SAPS   O22 1754   2.977   3.441   6.608  0.0323  0.0079 -0.5926
   14SAPS   C22 1755   3.194   3.543   6.642 -0.4056  0.4357  0.4331
   14SAPS   H2R 1756   3.278   3.477   6.671 -1.1683 -0.9404 -0.3744
   14SAPS   H2S 1757   3.232   3.625   6.577  1.8574  0.3812  1.5775
   14SAPS    C3 1758   3.109   3.178   6.326  1.1609 -0.7296 -0.7198
   14SAPS    HX 1759   3.184   3.232   6.265  0.4886  1.2491  0.0952
   14SAPS    HY 1760   3.030   3.134   6.262 -0.7557  3.5165 -1.6517
   14SAPS   O31 1761   3.184   3.094   6.417  0.3668  0.1621 -0.4664
   14SAPS   C31 1762   3.104   3.010   6.484 -0.3219  1.0595  0.3497
   14SAPS   O32 1763   2.984   3.005   6.481  0.7387 -0.4169  0.8711
   14SAPS   C32 1764   3.194   2.929   6.578  0.7643 -0.0396 -0.6561
   14SAPS   H2X 1765   3.293   2.977   6.564 -0.2691  1.9753 -1.4542
   14SAPS   H2Y 1766   3.203   2.824   6.542 -1.3485 -0.4102 -0.1972
   14SAPS   C23 1767   3.140   3.621   6.767  0.1194 -0.2424  0.3868
   14SAPS   H3R 1768   3.129   3.546   6.849  0.0555 -1.4464 -0.6865
   14SAPS   H3S 1769   3.043   3.671   6.745  0.3430 -0.4292 -1.1442
   14SAPS   C24 1770   3.221   3.733   6.829 -0.2779 -0.5765 -0.0528
   14SAPS   H4R 1771   3.155   3.794   6.893 -0.1637  1.1591 -1.5128
   14SAPS   H4S 1772   3.249   3.800   6.745 -3.3533 -1.0310 -1.5995
   14SAPS   C25 1773   3.346   3.681   6.900 -0.1360  0.1727 -0.2027
   14SAPS   H5R 1774   3.422   3.648   6.827  0.2017 -0.0440  0.2412
   14SAPS   C26 1775   3.375   3.677   7.036  0.1199  0.6533 -0.5201
   14SAPS   H6R 1776   3.475   3.639   7.064 -0.3178 -0.2570 -0.1321
   14SAPS   C27 1777   3.290   3.719   7.150  1.0001 -0.3929 -0.3663
   14SAPS   H7R 1778   3.192   3.754   7.111  1.8137  0.9208 -1.3239
   14SAPS   H7S 1779   3.338   3.807   7.198  1.4092 -0.4953 -0.5823
   14SAPS   C28 1780   3.282   3.617   7.260  0.1577 -0.5854 -0.1494
   14SAPS   H8R 1781   3.235   3.520   7.237 -2.1190  0.4588 -0.1849
   14SAPS   C29 1782   3.315   3.635   7.390  0.0388 -0.6924 -0.2170
   14SAPS   H9R 1783   3.305   3.547   7.455 -1.5056 -1.1593 -1.0397
   14SAPS  C210 1784   3.368   3.774   7.438 -0.3599  0.0197 -0.0440
   14SAPS  H10R 1785   3.443   3.822   7.372 -0.0934  0.5358  0.6164
   14SAPS  H10S 1786   3.431   3.776   7.530  0.2199  0.2000 -0.4406
   14SAPS  C211 1787   3.260   3.874   7.454  0.4122  0.3231 -0.2068
   14SAPS  H11R 1788   3.232   3.933   7.365  1.9829  1.0517 -0.2511
   14SAPS  C212 1789   3.183   3.886   7.572 -1.0967  0.5398 -0.3897
   14SAPS  H12R 1790   3.105   3.963   7.567 -1.4077  0.1520 -2.3470
   14SAPS  C213 1791   3.189   3.793   7.688  0.2625 -0.6712 -1.3786
   14SAPS  H13R 1792   3.173   3.849   7.783 -0.5255 -0.1617 -1.7973
   14SAPS  H13S 1793   3.290   3.750   7.702  0.9215  1.3036  0.4886
   14SAPS  C214 1794   3.099   3.678   7.680  0.5146  0.9926  0.2954
   14SAPS  H14R 1795   3.046   3.655   7.586  0.3314 -2.0332  1.0542
   14SAPS  C215 1796   3.047   3.601   7.784 -0.1965 -0.0933  0.4718
   14SAPS  H15R 1797   2.999   3.504   7.765 -0.6974  0.3056 -0.3241
   14SAPS  C216 1798   3.094   3.617   7.928 -0.7921  0.1181  0.6589
   14SAPS  H16R 1799   3.027   3.548   7.984 -2.2965  0.3200 -0.8005
   14SAPS  H16S 1800   3.081   3.722   7.962  1.7323  0.5725  0.4116
   14SAPS  C217 1801   3.243   3.566   7.942 -0.4450 -0.0025 -0.2786
   14SAPS  H17R 1802   3.323   3.611   7.880 -0.5925 -0.1388 -0.5725
   14SAPS  H17S 1803   3.237   3.460   7.908 -0.1671 -0.6225  1.4904
   14SAPS  C218 1804   3.305   3.565   8.089  0.1269  0.0295 -0.6711
   14SAPS  H18R 1805   3.239   3.511   8.160 -0.1174  0.7842 -0.3138
   14SAPS  H18S 1806   3.299   3.671   8.121 -3.1605 -0.4139  0.5197
   14SAPS  C219 1807   3.438   3.497   8.103 -0.2460 -0.9430  0.1030
   14SAPS  H19R 1808   3.506   3.561   8.043  0.1961  0.7154  2.2473
   14SAPS  H19S 1809   3.420   3.393   8.067 -0.4338 -1.3929  1.4271
   14SAPS  C220 1810   3.495   3.493   8.250  0.3392  0.0350 -0.8952
   14SAPS  H20R 1811   3.408   3.459   8.311 -0.0431 -1.6069 -2.2666
   14SAPS  H20S 1812   3.519   3.598   8.276 -1.6189  0.2021  0.4271
   14SAPS  H20T 1813   3.583   3.428   8.267  1.4176  1.4972 -0.7318
   14SAPS   C33 1814   3.134   2.950   6.720  0.3435  0.2310  0.0781
   14SAPS   H3X 1815   3.041   2.891   6.736 -1.1709  2.8099  1.4411
   14SAPS   H3Y 1816   3.104   3.053   6.746 -0.5616 -1.0126  4.9236
   14SAPS   C34 1817   3.241   2.908   6.817 -0.1904  0.1163 -1.0223
   14SAPS   H4X 1818   3.321   2.983   6.796 -0.3064  0.9092  1.1792
   14SAPS   H4Y 1819   3.278   2.804   6.803  0.8937  0.1513  1.1660
   14SAPS   C35 1820   3.203   2.921   6.966  0.2571  0.5095  0.4089
   14SAPS   H5X 1821   3.121   2.849   6.986 -1.6494  2.4713 -0.0521
   14SAPS   H5Y 1822   3.168   3.023   6.991 -0.5475  0.0983  1.0096
   14SAPS   C36 1823   3.320   2.868   7.047 -0.2027  0.3616 -0.1822
   14SAPS   H6X 1824   3.415   2.908   7.007 -0.5997  2.1684  0.5769
   14SAPS   H6Y 1825   3.321   2.757   7.036 -0.0718  0.2070  1.2014
   14SAPS   C37 1826   3.308   2.906   7.197 -0.5980 -0.0317 -0.0057
   14SAPS   H7X 1827   3.201   2.897   7.224 -1.2549  1.2487 -1.9600
   14SAPS   H7Y 1828   3.338   3.010   7.221  1.4347 -0.8284  1.1468
   14SAPS   C38 1829   3.382   2.814   7.300 -0.2260 -0.8266 -0.1878
   14SAPS   H8X 1830   3.484   2.812   7.255 -0.4958 -0.3552 -0.8296
   14SAPS   H8Y 1831   3.336   2.713   7.306 -0.8975 -0.7752 -2.9094
   14SAPS   C39 1832   3.413   2.890   7.428 -0.1854 -0.1589 -0.1330
   14SAPS   H9X 1833   3.332   2.950   7.474  0.9056 -0.7170  2.7969
   14SAPS   H9Y 1834   3.491   2.959   7.389 -0.0106 -0.5265 -0.4443
   14SAPS  C310 1835   3.503   2.816   7.532 -0.2041 -0.1745 -0.6836
   14SAPS  H10X 1836   3.598   2.791   7.481  0.0014  0.6424 -0.7148
   14SAPS  H10Y 1837   3.469   2.712   7.552 -0.4076  0.2394  1.3194
   14SAPS  C311 1838   3.547   2.908   7.650 -0.2951  0.4810 -0.1641
   14SAPS  H11X 1839   3.577   2.999   7.594 -1.7219  1.8140  1.1448
   14SAPS  H11Y 1840   3.634   2.865   7.703  0.7384  0.0501 -2.1197
   14SAPS  C312 1841   3.441   2.943   7.762  0.7271 -0.0332  0.1069
   14SAPS  H12X 1842   3.346   2.960   7.707 -0.2449 -0.8957  1.4660
   14SAPS  H12Y 1843   3.457   3.035   7.822  0.2187 -0.3976  0.8096
   14SAPS  C313 1844   3.409   2.831   7.856 -0.0737 -0.0402 -0.0181
   14SAPS  H13X 1845   3.350   2.750   7.808 -0.0477  1.2731 -2.3790
   14SAPS  H13Y 1846   3.338   2.863   7.936  0.8291  0.2365  0.6939
   14SAPS  C314 1847   3.521   2.777   7.935  0.0504  0.0846 -0.2230
   14SAPS  H14X 1848   3.575   2.860   7.986 -3.0585  2.3410 -0.2861
   14SAPS  H14Y 1849   3.591   2.720   7.869  0.4611  1.1079 -0.7077
   14SAPS  C315 1850   3.482   2.678   8.042 -0.3273 -0.1201  0.1039
   14SAPS  H15X 1851   3.407   2.609   7.998 -0.9622  0.7675 -0.2421
   14SAPS  H15Y 1852   3.429   2.742   8.116  0.2170  1.6506 -0.9741
   14SAPS  C316 1853   3.607   2.618   8.109  0.3039  0.4841  0.9110
   14SAPS  H16X 1854   3.690   2.687   8.136  1.6606 -1.5240  2.1137
   14SAPS  H16Y 1855   3.638   2.540   8.036 -2.1536  0.3816 -0.1217
   14SAPS  C317 1856   3.567   2.556   8.246  0.7442 -0.1851  0.3364
   14SAPS  H17X 1857   3.527   2.638   8.308 -2.0469  1.9370 -3.8308
   14SAPS  H17Y 1858   3.657   2.509   8.293  1.1710  0.1586 -0.1263
   14SAPS  C318 1859   3.449   2.455   8.224 -0.2854 -0.2712 -0.1216
   14SAPS  H18X 1860   3.358   2.502   8.180 -1.6874 -0.9433  1.9025
   14SAPS  H18Y 1861   3.422   2.395   8.313  2.2077  1.3284  1.8308
   14SAPS  H18Z 1862   3.484   2.374   8.156 -1.4272 -0.5383 -0.4174
   15SAPS     N 1863   2.825   6.228   6.525 -0.3541  0.2291  0.3935
   15SAPS   HN1 1864   2.789   6.260   6.618 -0.4831  0.6323  0.2055
   15SAPS   HN2 1865   2.921   6.267   6.518 -0.5471  0.6822  0.2181
   15SAPS   HN3 1866   2.769   6.269   6.448  0.3818  0.0136 -0.2682
   15SAPS   C12 1867   2.821   6.081   6.516  0.3339 -0.5393 -0.7313
   15SAPS  H12A 1868   2.863   6.034   6.604 -1.3616 -1.0637 -0.1646
   15SAPS   C13 1869   2.676   6.037   6.511 -1.3217 -0.4940  0.4547
   15SAPS  O13A 1870   2.585   6.115   6.532  0.1740 -0.4160 -1.0008
   15SAPS  O13B 1871   2.649   5.915   6.528 -0.9580 -0.2409  0.1137
   15SAPS   C11 1872   2.902   6.027   6.400  0.3438  0.4647  0.2639
   15SAPS  H11A 1873   2.868   6.083   6.310  0.4533 -2.4946 -1.7650
   15SAPS  H11B 1874   2.882   5.918   6.391 -0.6163  0.5997  0.5868
   15SAPS     P 1875   3.144   5.978   6.330  0.3274 -0.3431 -0.1212
   15SAPS   O13 1876   3.070   5.917   6.215  0.2352  0.1902  0.6049
   15SAPS   O14 1877   3.259   6.071   6.309 -0.0866 -0.3022 -0.0635
   15SAPS   O12 1878   3.038   6.045   6.427 -0.3275  0.4909 -0.0077
   15SAPS   O11 1879   3.192   5.872   6.422  0.0786 -0.3234 -0.3149
   15SAPS    C1 1880   3.217   5.894   6.564 -0.0503  0.8535  0.1858
   15SAPS    HA 1881   3.203   6.002   6.586 -0.2819  1.0660 -0.9532
   15SAPS    HB 1882   3.144   5.835   6.624  0.4085 -1.2399 -1.2092
   15SAPS    C2 1883   3.352   5.847   6.605 -0.2140 -0.1031 -0.6142
   15SAPS    HS 1884   3.432   5.877   6.534  0.1140 -1.4537 -0.8555
   15SAPS   O21 1885   3.342   5.701   6.600  0.1119 -0.2175 -0.8368
   15SAPS   C21 1886   3.456   5.636   6.569  0.5141 -0.5542 -0.7632
   15SAPS   O22 1887   3.558   5.690   6.536  0.1291 -0.2602 -0.2944
   15SAPS   C22 1888   3.440   5.486   6.586  0.1154  0.3087 -0.3720
   15SAPS   H2R 1889   3.350   5.459   6.526  1.4626  0.4604 -2.5524
   15SAPS   H2S 1890   3.529   5.437   6.543  1.8102  0.9000  2.2759
   15SAPS    C3 1891   3.388   5.878   6.757  0.4031  0.6685 -0.2755
   15SAPS    HX 1892   3.488   5.839   6.786 -0.4248 -0.0155  1.8063
   15SAPS    HY 1893   3.312   5.811   6.803 -0.1134  0.0399 -1.9391
   15SAPS   O31 1894   3.366   6.009   6.797  0.1475 -0.0002 -0.3722
   15SAPS   C31 1895   3.476   6.097   6.764  0.4947  0.4139 -0.0986
   15SAPS   O32 1896   3.576   6.048   6.724  0.0811 -0.0792 -0.2416
   15SAPS   C32 1897   3.448   6.243   6.816 -0.3010 -0.7771 -0.4591
   15SAPS   H2X 1898   3.360   6.239   6.884 -2.0085 -1.1530 -2.5729
   15SAPS   H2Y 1899   3.410   6.293   6.724  2.9684  0.6542 -1.1869
   15SAPS   C23 1900   3.415   5.456   6.740 -0.3605 -0.4103 -0.1657
   15SAPS   H3R 1901   3.327   5.509   6.782  1.1674  0.4804  2.1315
   15SAPS   H3S 1902   3.498   5.494   6.804 -2.4032  0.6115  2.0214
   15SAPS   C24 1903   3.403   5.304   6.771  0.1280 -0.7697 -0.2071
   15SAPS   H4R 1904   3.327   5.271   6.698 -1.6395  5.1301 -1.5195
   15SAPS   H4S 1905   3.354   5.301   6.871 -1.2303 -1.7241 -0.8668
   15SAPS   C25 1906   3.531   5.222   6.763  0.6611 -0.2505 -0.7695
   15SAPS   H5R 1907   3.569   5.213   6.660  0.1214  1.7763 -1.1732
   15SAPS   C26 1908   3.593   5.164   6.870 -0.0511 -0.0036 -0.6863
   15SAPS   H6R 1909   3.689   5.114   6.856 -0.9851 -1.5392 -1.9235
   15SAPS   C27 1910   3.556   5.181   7.014  0.0679 -0.1233 -0.5024
   15SAPS   H7R 1911   3.513   5.282   7.037  0.5037 -0.4458  2.0364
   15SAPS   H7S 1912   3.652   5.180   7.069 -0.5220  0.0176  0.5754
   15SAPS   C28 1913   3.465   5.082   7.074  0.3628  0.1583  0.7222
   15SAPS   H8R 1914   3.413   5.010   7.009  2.5050 -0.9902  0.1831
   15SAPS   C29 1915   3.419   5.094   7.201 -0.0468  0.1454  0.5255
   15SAPS   H9R 1916   3.336   5.025   7.225 -1.2267  1.7859  1.3388
   15SAPS  C210 1917   3.464   5.203   7.297  0.3440 -0.0859 -0.4111
   15SAPS  H10R 1918   3.375   5.269   7.308  0.7450  0.8828 -2.4556
   15SAPS  H10S 1919   3.532   5.279   7.253  0.1685  0.8150  0.8076
   15SAPS  C211 1920   3.513   5.151   7.437 -0.2394 -0.5646  0.7728
   15SAPS  H11R 1921   3.609   5.098   7.425 -0.8315 -1.2590 -1.3950
   15SAPS  C212 1922   3.436   5.154   7.548  0.2067  0.7291 -0.7530
   15SAPS  H12R 1923   3.472   5.110   7.642  0.9737 -2.2827 -2.3496
   15SAPS  C213 1924   3.292   5.206   7.565  0.5366 -0.3017 -0.3430
   15SAPS  H13R 1925   3.240   5.194   7.467  1.9214  0.6922 -1.2477
   15SAPS  H13S 1926   3.308   5.312   7.592 -0.1845 -1.0516  3.6499
   15SAPS  C214 1927   3.233   5.146   7.690  0.3150 -0.0335 -0.5940
   15SAPS  H14R 1928   3.295   5.138   7.781 -2.3139  0.1577  1.3494
   15SAPS  C215 1929   3.108   5.099   7.706  0.1010  0.5306  0.7580
   15SAPS  H15R 1930   3.078   5.061   7.805 -0.0871 -1.1546  0.0838
   15SAPS  C216 1931   3.002   5.094   7.597 -0.4495 -0.3285  0.3931
   15SAPS  H16R 1932   2.961   4.990   7.591  0.0999 -0.5383  0.1404
   15SAPS  H16S 1933   3.038   5.116   7.494 -1.4282  0.0740  0.1322
   15SAPS  C217 1934   2.886   5.200   7.614 -0.3141  0.2409 -0.4824
   15SAPS  H17R 1935   2.807   5.192   7.537 -0.2615  0.5982 -0.5715
   15SAPS  H17S 1936   2.925   5.302   7.596 -1.5470  0.7182 -0.4989
   15SAPS  C218 1937   2.826   5.178   7.750  0.4694 -0.1715 -0.4097
   15SAPS  H18R 1938   2.766   5.269   7.770  2.2631  0.7730  0.9366
   15SAPS  H18S 1939   2.902   5.189   7.830 -1.4965  0.7539  1.4563
   15SAPS  C219 1940   2.749   5.037   7.754  0.2258 -0.7535  0.3816
   15SAPS  H19R 1941   2.683   5.051   7.842  0.6450 -0.6917  0.6832
   15SAPS  H19S 1942   2.819   4.954   7.776 -0.7498 -1.2923  1.5938
   15SAPS  C220 1943   2.655   5.004   7.642 -0.2974  0.2586  1.3029
   15SAPS  H20R 1944   2.583   5.086   7.618  0.1724  0.0125 -1.1747
   15SAPS  H20S 1945   2.596   4.912   7.662  2.0813 -2.1540 -1.8604
   15SAPS  H20T 1946   2.709   4.985   7.547  0.1921 -0.2908  1.6868
   15SAPS   C33 1947   3.568   6.316   6.891 -0.9283 -0.1805  0.7303
   15SAPS   H3X 1948   3.626   6.366   6.810 -1.8890  2.6955  1.6937
   15SAPS   H3Y 1949   3.632   6.234   6.930 -0.4869 -1.2489 -2.0373
   15SAPS   C34 1950   3.531   6.417   6.996 -0.5135 -0.2093 -0.4505
   15SAPS   H4X 1951   3.475   6.375   7.082  0.8683  2.3210  1.8483
   15SAPS   H4Y 1952   3.459   6.495   6.964 -2.6983 -0.8401  2.5367
   15SAPS   C35 1953   3.649   6.484   7.067 -0.3526  0.1207 -0.5883
   15SAPS   H5X 1954   3.733   6.511   7.000  0.7895  1.7201  1.3804
   15SAPS   H5Y 1955   3.689   6.421   7.150 -1.3179  0.1596 -0.0728
   15SAPS   C36 1956   3.607   6.610   7.131  0.1375 -0.3860 -0.2479
   15SAPS   H6X 1957   3.567   6.670   7.046 -1.3347 -2.1280 -0.8451
   15SAPS   H6Y 1958   3.688   6.666   7.182 -1.1394 -0.3216  1.8252
   15SAPS   C37 1959   3.480   6.597   7.224 -0.1714 -0.5530  0.0566
   15SAPS   H7X 1960   3.390   6.558   7.173  0.3491 -2.1027  0.2728
   15SAPS   H7Y 1961   3.447   6.702   7.242 -0.0719 -0.0127 -2.5552
   15SAPS   C38 1962   3.514   6.516   7.356 -0.3078  0.2649 -0.3002
   15SAPS   H8X 1963   3.604   6.566   7.397 -0.2417  1.4859 -1.8399
   15SAPS   H8Y 1964   3.525   6.407   7.337 -0.2783  0.5191 -1.8521
   15SAPS   C39 1965   3.400   6.518   7.464  0.2951  0.2526  0.3646
   15SAPS   H9X 1966   3.315   6.505   7.395  2.2161 -0.1619 -2.0735
   15SAPS   H9Y 1967   3.392   6.616   7.516 -0.9397  0.5808 -0.4087
   15SAPS  C310 1968   3.412   6.392   7.552  0.3157 -0.8858 -0.7033
   15SAPS  H10X 1969   3.500   6.400   7.620  0.5046 -1.7537 -0.8286
   15SAPS  H10Y 1970   3.425   6.295   7.499 -0.2634 -1.7171  0.6439
   15SAPS  C311 1971   3.284   6.370   7.637 -0.8449 -0.1692  0.2447
   15SAPS  H11X 1972   3.196   6.328   7.584 -2.3019  1.8232  0.9636
   15SAPS  H11Y 1973   3.239   6.465   7.674  0.4297 -0.1480  1.8698
   15SAPS  C312 1974   3.314   6.290   7.766 -0.4950 -0.3272  0.8401
   15SAPS  H12X 1975   3.410   6.315   7.818  0.0724  1.3703 -0.9323
   15SAPS  H12Y 1976   3.333   6.189   7.724  1.4519  0.9395 -1.5797
   15SAPS  C313 1977   3.201   6.277   7.857  0.1748 -0.7241  0.2726
   15SAPS  H13X 1978   3.117   6.307   7.790  0.1320 -0.6821  0.3444
   15SAPS  H13Y 1979   3.200   6.357   7.934  2.0990  0.8211 -1.1878
   15SAPS  C314 1980   3.171   6.136   7.908 -0.4909 -0.4575  0.0670
   15SAPS  H14X 1981   3.258   6.093   7.962 -0.0208  0.1660 -0.1752
   15SAPS  H14Y 1982   3.170   6.079   7.813 -2.5003 -0.7504  0.2197
   15SAPS  C315 1983   3.040   6.125   7.990 -0.3684  0.3650 -0.4376
   15SAPS  H15X 1984   2.955   6.145   7.922  0.5309  0.0557 -1.6974
   15SAPS  H15Y 1985   3.045   6.197   8.074 -1.2625  1.1481 -1.0448
   15SAPS  C316 1986   3.017   5.984   8.045  0.6027  0.0668  0.5799
   15SAPS  H16X 1987   2.914   5.977   8.086 -0.2937 -2.3763 -1.8218
   15SAPS  H16Y 1988   3.087   5.957   8.127 -0.5606 -1.2383  1.1913
   15SAPS  C317 1989   3.017   5.867   7.938  0.2067 -0.0975 -0.4742
   15SAPS  H17X 1990   3.106   5.880   7.873  0.6118 -2.2883 -0.4349
   15SAPS  H17Y 1991   2.920   5.872   7.884  0.8715 -2.7998 -2.0814
   15SAPS  C318 1992   3.029   5.721   7.991  0.2108 -0.4855  0.1893
   15SAPS  H18X 1993   3.030   5.649   7.906 -0.3450  1.7128 -1.7700
   15SAPS  H18Y 1994   2.937   5.702   8.050  0.6872 -0.2929  1.0039
   15SAPS  H18Z 1995   3.121   5.721   8.053  2.7885  2.3423 -3.2401
   16SAPS     N 1996   3.013   0.373   6.716 -0.3107  0.0069  0.4293
   16SAPS   HN1 1997   2.977   0.277   6.729 -1.1138  0.0383 -1.3182
   16SAPS   HN2 1998   3.005   0.430   6.802 -0.2625  0.8003 -0.0797
   16SAPS   HN3 1999   2.962   0.419   6.638  1.0312 -0.5247 -0.8135
   16SAPS   C12 2000   3.163   0.373   6.681 -1.0380  0.1186 -0.0815
   16SAPS  H12A 2001   3.223   0.311   6.746  0.5224  0.9052 -0.7173
   16SAPS   C13 2002   3.193   0.316   6.541  0.1300 -0.6419  0.2086
   16SAPS  O13A 2003   3.103   0.282   6.465 -0.0799 -0.2334  0.2007
   16SAPS  O13B 2004   3.316   0.317   6.500  0.4159  0.0313  0.3760
   16SAPS   C11 2005   3.221   0.519   6.688  0.0307 -0.2708 -0.1620
   16SAPS  H11A 2006   3.329   0.516   6.662 -0.0825  0.3099 -0.7390
   16SAPS  H11B 2007   3.213   0.546   6.795 -0.9630  1.5379 -0.6458
   16SAPS     P 2008   3.185   0.759   6.584  0.2031  0.1500  0.4175
   16SAPS   O13 2009   3.329   0.776   6.541  0.1093  0.8235  0.1287
   16SAPS   O14 2010   3.079   0.818   6.500  0.2637 -0.0431  0.4468
   16SAPS   O12 2011   3.152   0.609   6.593 -0.0457  0.4797 -0.1634
   16SAPS   O11 2012   3.178   0.822   6.723  0.3209  0.3385  0.1558
   16SAPS    C1 2013   3.059   0.816   6.802 -0.1939  0.3559 -0.0735
   16SAPS    HA 2014   2.987   0.897   6.774 -0.2401  0.1812 -0.4641
   16SAPS    HB 2015   3.008   0.718   6.796 -0.4653  0.4562  0.4862
   16SAPS    C2 2016   3.100   0.851   6.947  0.1407  0.0548  0.7743
   16SAPS    HS 2017   3.146   0.952   6.950  2.0177 -0.7594  3.5504
   16SAPS   O21 2018   3.179   0.748   6.995  0.5402  0.1394  0.5198
   16SAPS   C21 2019   3.307   0.780   7.002  0.6582 -0.2237 -0.2557
   16SAPS   O22 2020   3.369   0.883   6.977  0.4984 -0.0651  0.1708
   16SAPS   C22 2021   3.385   0.661   7.062  0.0928 -0.2470  0.0587
   16SAPS   H2R 2022   3.332   0.582   7.120  0.0324  0.4840  1.0227
   16SAPS   H2S 2023   3.435   0.613   6.975 -0.8119 -1.6748  0.2875
   16SAPS    C3 2024   2.978   0.872   7.038 -0.0922  0.0219 -0.2329
   16SAPS    HX 2025   2.906   0.792   7.010 -1.5609  2.0481 -2.7357
   16SAPS    HY 2026   2.924   0.964   7.007 -2.3729 -2.0579 -2.8790
   16SAPS   O31 2027   3.019   0.886   7.171  0.3313  0.4263 -0.0819
   16SAPS   C31 2028   2.987   0.775   7.250 -1.1180 -0.1950 -0.5895
   16SAPS   O32 2029   2.959   0.667   7.209  0.3518  0.6139  0.2236
   16SAPS   C32 2030   2.987   0.818   7.400  1.1821  0.0667 -0.4208
   16SAPS   H2X 2031   2.938   0.917   7.406  0.2541 -0.3938 -0.3045
   16SAPS   H2Y 2032   3.095   0.814   7.429  0.7843  1.3838  1.3835
   16SAPS   C23 2033   3.490   0.718   7.168 -0.1889  0.1583 -0.7965
   16SAPS   H3R 2034   3.566   0.790   7.131  0.3590  0.0100  0.0035
   16SAPS   H3S 2035   3.544   0.628   7.204  1.3738  1.1238 -0.6360
   16SAPS   C24 2036   3.426   0.781   7.286 -0.5607  0.1563  0.0427
   16SAPS   H4R 2037   3.361   0.867   7.259 -0.3243 -0.4236 -2.7048
   16SAPS   H4S 2038   3.505   0.826   7.349 -0.2373  0.6673 -0.7114
   16SAPS   C25 2039   3.346   0.674   7.364  0.0240 -0.5040 -0.5161
   16SAPS   H5R 2040   3.269   0.619   7.308 -0.9186 -2.1868  2.2028
   16SAPS   C26 2041   3.353   0.646   7.498 -0.2600  0.2004 -0.2468
   16SAPS   H6R 2042   3.291   0.569   7.546  0.3708 -1.5523 -2.1223
   16SAPS   C27 2043   3.458   0.711   7.587 -0.0754 -0.5202  0.1133
   16SAPS   H7R 2044   3.542   0.757   7.530 -0.7051  0.8079  0.2242
   16SAPS   H7S 2045   3.507   0.636   7.653 -1.0308  0.8197  2.4822
   16SAPS   C28 2046   3.401   0.827   7.673  0.2925  0.4157 -0.1454
   16SAPS   H8R 2047   3.366   0.918   7.622 -0.8746  0.2456  0.3414
   16SAPS   C29 2048   3.388   0.819   7.812  0.2196 -0.5003 -0.7270
   16SAPS   H9R 2049   3.356   0.909   7.866  0.6784 -1.2636  0.8897
   16SAPS  C210 2050   3.428   0.698   7.896 -0.5078  0.1389  0.0828
   16SAPS  H10R 2051   3.535   0.676   7.878 -0.9159  0.0370 -2.4974
   16SAPS  H10S 2052   3.367   0.612   7.861 -0.1170  0.6563 -1.9793
   16SAPS  C211 2053   3.405   0.736   8.038 -0.0140 -0.5122 -0.0575
   16SAPS  H11R 2054   3.466   0.815   8.084 -2.0479  1.8963 -1.2928
   16SAPS  C212 2055   3.318   0.671   8.121  0.0387 -1.1062  0.3124
   16SAPS  H12R 2056   3.292   0.722   8.215  1.2631 -1.1308  0.6811
   16SAPS  C213 2057   3.236   0.549   8.096  0.7361  0.7685 -0.7915
   16SAPS  H13R 2058   3.308   0.465   8.109 -0.0749  0.2296  0.3119
   16SAPS  H13S 2059   3.201   0.554   7.991 -0.3922 -1.5325 -0.5881
   16SAPS  C214 2060   3.114   0.543   8.190  0.6353  0.1168 -0.6016
   16SAPS  H14R 2061   3.038   0.623   8.184 -0.5269 -0.9643 -0.8475
   16SAPS  C215 2062   3.114   0.470   8.305  0.2223 -0.2461  0.1289
   16SAPS  H15R 2063   3.023   0.487   8.364  0.8826  1.2601  0.7752
   16SAPS  C216 2064   3.212   0.374   8.364 -0.8224 -0.3116 -0.3279
   16SAPS  H16R 2065   3.268   0.427   8.444  0.5195  0.1629 -1.5397
   16SAPS  H16S 2066   3.279   0.340   8.282  0.4329  1.0646  0.1016
   16SAPS  C217 2067   3.145   0.255   8.432 -0.4797 -0.0438  0.1620
   16SAPS  H17R 2068   3.098   0.193   8.353 -0.0272 -0.0401 -0.1105
   16SAPS  H17S 2069   3.061   0.284   8.499 -1.6835 -0.3476 -1.1735
   16SAPS  C218 2070   3.249   0.169   8.512 -0.4250  0.3546  0.0659
   16SAPS  H18R 2071   3.188   0.122   8.592  1.3271 -0.8462  0.7747
   16SAPS  H18S 2072   3.323   0.224   8.574  0.3670 -0.9721  0.3436
   16SAPS  C219 2073   3.314   0.060   8.428 -1.3833  0.1070 -0.0340
   16SAPS  H19R 2074   3.363   0.108   8.341 -1.2090 -1.1835 -0.6639
   16SAPS  H19S 2075   3.243  -0.009   8.379  0.1608 -2.1745  0.7925
   16SAPS  C220 2076   3.430  -0.012   8.500 -0.4320 -0.3522  0.4109
   16SAPS  H20R 2077   3.515   0.055   8.525  0.0418 -1.1992  1.1355
   16SAPS  H20S 2078   3.475  -0.094   8.440  1.5138  0.7856  0.2127
   16SAPS  H20T 2079   3.391  -0.053   8.595 -0.8510 -0.6087  0.1319
   16SAPS   C33 2080   2.908   0.721   7.488  0.3681 -0.0179 -0.0612
   16SAPS   H3X 2081   2.925   0.614   7.462  1.4782  0.5348 -1.7531
   16SAPS   H3Y 2082   2.800   0.745   7.495  0.4093 -0.3276  4.1019
   16SAPS   C34 2083   2.947   0.732   7.633 -0.6723  0.1107  0.6525
   16SAPS   H4X 2084   2.932   0.841   7.649  0.5236  0.6744 -1.6600
   16SAPS   H4Y 2085   3.054   0.707   7.648 -0.3443  1.0226 -0.0861
   16SAPS   C35 2086   2.873   0.634   7.723 -0.2977  0.0570 -0.4469
   16SAPS   H5X 2087   2.948   0.554   7.743  0.5482  0.7595 -0.7384
   16SAPS   H5Y 2088   2.778   0.594   7.682  0.0152 -3.5466  1.8383
   16SAPS   C36 2089   2.843   0.689   7.859 -0.0097 -0.0975 -0.1489
   16SAPS   H6X 2090   2.815   0.795   7.841  1.4035  0.0243 -1.9759
   16SAPS   H6Y 2091   2.930   0.687   7.929  0.6633 -1.4095 -0.9689
   16SAPS   C37 2092   2.741   0.605   7.937  0.5572  0.1143 -0.4565
   16SAPS   H7X 2093   2.646   0.601   7.880 -0.2841 -1.1296  0.9504
   16SAPS   H7Y 2094   2.731   0.654   8.036 -1.0783 -2.5198  0.8157
   16SAPS   C38 2095   2.805   0.465   7.963  0.8642  0.7538  0.2432
   16SAPS   H8X 2096   2.896   0.471   8.026  1.1596 -0.6773  0.0025
   16SAPS   H8Y 2097   2.844   0.418   7.870 -1.1662  1.5208 -1.0680
   16SAPS   C39 2098   2.704   0.370   8.030  0.3410  1.1330  0.5110
   16SAPS   H9X 2099   2.633   0.342   7.950  1.2021  1.9668 -0.5764
   16SAPS   H9Y 2100   2.652   0.404   8.122 -1.5022  2.3216 -0.8967
   16SAPS  C310 2101   2.771   0.232   8.076  0.0730  0.0677  0.1266
   16SAPS  H10X 2102   2.828   0.257   8.168 -0.9458  2.9898  0.0795
   16SAPS  H10Y 2103   2.832   0.196   7.991  0.3811 -0.2985  0.5019
   16SAPS  C311 2104   2.670   0.113   8.106 -0.0068  0.0162  0.0513
   16SAPS  H11X 2105   2.738   0.025   8.113  1.0042  0.7149 -0.6694
   16SAPS  H11Y 2106   2.602   0.093   8.021 -1.8361 -0.0417  1.4805
   16SAPS  C312 2107   2.597   0.135   8.232 -0.8211  0.2239 -0.0662
   16SAPS  H12X 2108   2.543   0.232   8.240 -0.5364  0.4489 -0.7746
   16SAPS  H12Y 2109   2.673   0.137   8.313  1.1453 -1.1960 -1.7678
   16SAPS  C313 2110   2.497   0.022   8.262 -0.5407 -0.0607 -0.3096
   16SAPS  H13X 2111   2.551  -0.073   8.245 -1.2116 -1.0613  2.5614
   16SAPS  H13Y 2112   2.415   0.019   8.188 -0.5395 -0.8270 -0.2801
   16SAPS  C314 2113   2.453   0.032   8.407 -0.2396  0.0862 -0.2462
   16SAPS  H14X 2114   2.397   0.121   8.441  0.1510  0.3139 -0.1906
   16SAPS  H14Y 2115   2.541   0.042   8.475 -1.1852  1.2320  0.8673
   16SAPS  C315 2116   2.381  -0.096   8.454  0.8084  0.0039  0.4168
   16SAPS  H15X 2117   2.301  -0.137   8.388  0.3047 -0.7142  1.4497
   16SAPS  H15Y 2118   2.314  -0.067   8.537 -0.0582 -0.4167 -0.1249
   16SAPS  C316 2119   2.472  -0.217   8.487 -0.5444  0.0042 -0.1517
   16SAPS  H16X 2120   2.554  -0.176   8.549 -0.0596 -2.4244  0.9014
   16SAPS  H16Y 2121   2.517  -0.257   8.394  0.0355 -3.7358  1.5672
   16SAPS  C317 2122   2.409  -0.342   8.563  0.0518  0.4777  0.2221
   16SAPS  H17X 2123   2.378  -0.306   8.663 -1.7134 -1.3922  0.4277
   16SAPS  H17Y 2124   2.480  -0.426   8.579 -1.3987 -0.5871  1.3901
   16SAPS  C318 2125   2.284  -0.408   8.501  0.5427 -0.0715  0.0213
   16SAPS  H18X 2126   2.314  -0.478   8.420 -1.1858 -1.1606  0.2678
   16SAPS  H18Y 2127   2.222  -0.328   8.454 -0.0733 -1.6757 -2.0626
   16SAPS  H18Z 2128   2.228  -0.457   8.583  0.8526  1.7855  1.4001
   17SAPC     N 2129   1.609   3.985  10.778 -0.2639  0.0286 -0.0539
   17SAPC   C12 2130   1.659   4.006  10.638  0.1070 -0.1344 -0.0276
   17SAPC  H12A 2131   1.728   4.089  10.639  1.3619 -1.1681  0.6057
   17SAPC  H12B 2132   1.577   4.021  10.569  0.9322 -0.0440 -0.9967
   17SAPC   C13 2133   1.540   3.851  10.792 -0.4721 -0.3254  0.4434
   17SAPC  H13A 2134   1.486   3.845  10.885 -1.4489 -3.2554 -0.1918
   17SAPC  H13B 2135   1.469   3.838  10.711  1.7415  0.0299 -1.6499
   17SAPC  H13C 2136   1.619   3.777  10.794  0.3285  0.5266  1.2873
   17SAPC   C14 2137   1.715   3.989  10.882 -0.3238  0.3155 -0.1173
   17SAPC  H14A 2138   1.760   4.085  10.900 -0.5519  0.0381  2.1553
   17SAPC  H14B 2139   1.675   3.963  10.979  0.3874 -1.5385 -0.2679
   17SAPC  H14C 2140   1.794   3.919  10.862 -1.0823 -0.7272  0.4075
   17SAPC   C15 2141   1.521   4.094  10.820  0.3573 -0.3385  0.3623
   17SAPC  H15A 2142   1.440   4.101  10.748  0.7503 -1.7950 -0.2579
   17SAPC  H15B 2143   1.483   4.068  10.917 -0.1513  0.9250  0.5270
   17SAPC  H15C 2144   1.568   4.190  10.833  0.7873 -0.8118  2.7034
   17SAPC   C11 2145   1.740   3.888  10.579  0.7154  0.8324 -0.1732
   17SAPC  H11A 2146   1.758   3.905  10.470  1.0765 -1.1510 -0.4619
   17SAPC  H11B 2147   1.680   3.796  10.588  1.2005  0.3700 -1.4909
   17SAPC     P 2148   1.927   3.732  10.688 -0.0527  0.6012  0.0997
   17SAPC   O13 2149   1.992   3.759  10.817 -0.3999  0.3458  0.1921
   17SAPC   O14 2150   1.819   3.631  10.686  0.1471 -0.9653  0.1076
   17SAPC   O12 2151   1.866   3.876  10.646 -0.5005 -0.4387  0.1344
   17SAPC   O11 2152   2.025   3.710  10.559 -0.6225  0.3706 -0.4622
   17SAPC    C1 2153   2.136   3.789  10.538 -0.1390 -0.1090  0.0913
   17SAPC    HA 2154   2.114   3.889  10.581  1.5975 -0.4544  1.9356
   17SAPC    HB 2155   2.218   3.746  10.600 -1.4535 -0.1217  1.8913
   17SAPC    C2 2156   2.178   3.813  10.396  0.0538  0.1462 -0.1952
   17SAPC    HS 2157   2.267   3.879  10.390  0.0294  0.2405  0.4212
   17SAPC   O21 2158   2.065   3.870  10.332 -0.6552 -0.0833  0.4730
   17SAPC   C21 2159   2.085   3.968  10.248  0.3231  0.1600  0.3205
   17SAPC   O22 2160   2.191   4.011  10.204 -0.5282 -0.0988  0.4351
   17SAPC   C22 2161   1.954   4.008  10.186 -0.8411 -0.6445  1.1392
   17SAPC   H2R 2162   1.972   3.986  10.079 -1.9043  0.9938  0.5902
   17SAPC   H2S 2163   1.874   3.940  10.222  1.6857 -4.3135  0.3903
   17SAPC    C3 2164   2.228   3.673  10.339  0.1544 -0.2805  0.1410
   17SAPC    HX 2165   2.153   3.598  10.371  0.7438 -0.9696 -0.0488
   17SAPC    HY 2166   2.312   3.644  10.406 -0.8022 -0.9003  1.0962
   17SAPC   O31 2167   2.268   3.675  10.205  0.2799  0.0712  0.1454
   17SAPC   C31 2168   2.381   3.732  10.171 -0.1387 -0.6770  1.4423
   17SAPC   O32 2169   2.468   3.775  10.246 -0.3166  0.1590 -0.4612
   17SAPC   C32 2170   2.382   3.743  10.013  0.6704 -0.2698  0.0675
   17SAPC   H2X 2171   2.359   3.849   9.989 -0.8235 -0.0496  2.1875
   17SAPC   H2Y 2172   2.308   3.678   9.963 -1.5391  1.3692  1.0403
   17SAPC   C23 2173   1.920   4.158  10.206  0.4210  0.2713 -0.2141
   17SAPC   H3R 2174   2.014   4.216  10.191  0.6163 -0.2647 -1.1790
   17SAPC   H3S 2175   1.890   4.170  10.312 -1.4814 -0.8442 -0.5716
   17SAPC   C24 2176   1.803   4.193  10.118  0.2538  0.3263 -0.6902
   17SAPC   H4R 2177   1.720   4.118  10.125 -2.1235  2.7997 -0.7782
   17SAPC   H4S 2178   1.843   4.179  10.015  0.8064 -0.1170 -0.4197
   17SAPC   C25 2179   1.763   4.344  10.118 -0.0960 -0.3881 -0.2664
   17SAPC   H5R 2180   1.712   4.374  10.210  2.5761  0.2151  1.0918
   17SAPC   C26 2181   1.783   4.443  10.031  0.4092  0.6182 -0.6266
   17SAPC   H6R 2182   1.752   4.545  10.058 -0.0483  0.0275  1.1830
   17SAPC   C27 2183   1.848   4.441   9.894  0.6339  0.0992  0.6914
   17SAPC   H7R 2184   1.902   4.347   9.872 -1.3182 -0.4656 -2.2175
   17SAPC   H7S 2185   1.909   4.534   9.884 -0.7303  0.8163 -1.9980
   17SAPC   C28 2186   1.748   4.464   9.780 -0.1533 -0.4754  0.7436
   17SAPC   H8R 2187   1.643   4.480   9.810  0.3099  0.8470  1.7510
   17SAPC   C29 2188   1.760   4.476   9.644  0.2482 -0.4687 -0.3871
   17SAPC   H9R 2189   1.671   4.475   9.579  0.3871 -2.7464 -0.6298
   17SAPC  C210 2190   1.895   4.457   9.575  0.1731  0.2638 -0.4155
   17SAPC  H10R 2191   1.891   4.353   9.535 -1.8274 -0.8211  2.2592
   17SAPC  H10S 2192   1.974   4.466   9.652 -0.6897  1.5293  0.3616
   17SAPC  C211 2193   1.918   4.555   9.467  0.7486  0.0306  0.2620
   17SAPC  H11R 2194   1.887   4.658   9.490 -1.2130 -0.7066  1.1598
   17SAPC  C212 2195   1.962   4.531   9.343 -0.5438  0.0605  0.4257
   17SAPC  H12R 2196   1.989   4.617   9.281 -0.2462  1.3218  2.2332
   17SAPC  C213 2197   2.002   4.392   9.291  0.2300  0.3737  0.0803
   17SAPC  H13R 2198   2.034   4.338   9.382  0.3242  1.9736  1.0371
   17SAPC  H13S 2199   2.088   4.395   9.221  0.5710 -1.7144  0.3555
   17SAPC  C214 2200   1.891   4.317   9.229 -0.4671 -0.5819  0.2538
   17SAPC  H14R 2201   1.790   4.359   9.224  0.3184  1.2562 -1.4839
   17SAPC  C215 2202   1.894   4.188   9.185  0.1790  0.2737 -0.0307
   17SAPC  H15R 2203   1.810   4.143   9.131 -0.7977  0.2805  1.4318
   17SAPC  C216 2204   2.022   4.106   9.193 -0.4654 -0.0074 -0.3214
   17SAPC  H16R 2205   1.996   3.998   9.196  0.5917 -0.2937 -1.0091
   17SAPC  H16S 2206   2.077   4.122   9.288 -0.4656  0.4047 -0.3920
   17SAPC  C217 2207   2.116   4.112   9.068  0.2537 -0.3198  0.3720
   17SAPC  H17R 2208   2.220   4.090   9.101  1.0351  3.6015  1.0325
   17SAPC  H17S 2209   2.126   4.220   9.042 -0.4144 -0.1857  0.6635
   17SAPC  C218 2210   2.054   4.034   8.958  0.1243 -0.2121 -0.7288
   17SAPC  H18R 2211   1.945   4.055   8.951  0.4112  1.9632  0.6260
   17SAPC  H18S 2212   2.068   3.925   8.977  3.4187  0.2615  0.0661
   17SAPC  C219 2213   2.100   4.043   8.819  0.2717  0.1650 -0.1934
   17SAPC  H19R 2214   2.055   4.131   8.767 -1.4880  0.4985  1.7293
   17SAPC  H19S 2215   2.044   3.962   8.767 -4.5903  3.4078 -0.7275
   17SAPC  C220 2216   2.252   4.031   8.809 -0.4159  0.2313  0.5186
   17SAPC  H20R 2217   2.292   4.033   8.705 -0.8244 -0.9198  0.3263
   17SAPC  H20S 2218   2.287   3.940   8.862 -0.3194  0.0624  0.1669
   17SAPC  H20T 2219   2.297   4.114   8.868 -3.9557  0.8294  2.6674
   17SAPC   C33 2220   2.529   3.721   9.960  0.0619  0.0678 -0.3792
   17SAPC   H3X 2221   2.562   3.621   9.996 -2.0734 -0.6461 -0.2683
   17SAPC   H3Y 2222   2.595   3.800  10.001 -1.0249  0.9498 -0.2812
   17SAPC   C34 2223   2.556   3.732   9.811  0.4680  0.3628  0.1990
   17SAPC   H4X 2224   2.469   3.680   9.765  1.2508  0.3757 -1.3692
   17SAPC   H4Y 2225   2.650   3.683   9.776 -1.4187 -2.2172 -1.5961
   17SAPC   C35 2226   2.557   3.878   9.756 -0.2460 -0.1956 -0.0415
   17SAPC   H5X 2227   2.624   3.945   9.814 -0.7647  1.8443 -1.6895
   17SAPC   H5Y 2228   2.450   3.906   9.761 -1.2219 -3.1897 -1.8405
   17SAPC   C36 2229   2.603   3.901   9.600  0.2706  0.5597  0.2084
   17SAPC   H6X 2230   2.554   3.828   9.533  0.2340  1.0104 -0.2611
   17SAPC   H6Y 2231   2.712   3.877   9.601 -0.0135 -0.8782 -0.9996
   17SAPC   C37 2232   2.589   4.045   9.556 -0.0151  0.1517  0.3914
   17SAPC   H7X 2233   2.612   4.121   9.634 -1.2464  1.9318 -0.9121
   17SAPC   H7Y 2234   2.483   4.078   9.549  0.9132  3.1203 -1.3631
   17SAPC   C38 2235   2.656   4.070   9.421 -0.3703  0.5105 -0.1555
   17SAPC   H8X 2236   2.641   3.983   9.353 -0.6157  2.4269 -2.7177
   17SAPC   H8Y 2237   2.765   4.085   9.437 -0.3756 -0.6698  1.1437
   17SAPC   C39 2238   2.592   4.194   9.358 -0.3579 -1.0385  0.1633
   17SAPC   H9X 2239   2.611   4.281   9.424 -0.0395  1.0732 -2.5412
   17SAPC   H9Y 2240   2.482   4.178   9.353 -0.1373 -3.9038  2.2683
   17SAPC  C310 2241   2.662   4.231   9.217 -0.1871 -0.1328 -0.3192
   17SAPC  H10X 2242   2.770   4.250   9.236  0.3491 -0.8212 -2.4114
   17SAPC  H10Y 2243   2.624   4.322   9.166  1.0402 -1.2107 -3.4576
   17SAPC  C311 2244   2.654   4.115   9.115 -0.3248  0.1947 -0.3408
   17SAPC  H11X 2245   2.610   4.143   9.017 -0.3023 -1.9054 -0.9895
   17SAPC  H11Y 2246   2.583   4.046   9.164  1.4567 -0.3382  1.6326
   17SAPC  C312 2247   2.792   4.048   9.094  0.1736  0.0290 -0.0210
   17SAPC  H12X 2248   2.832   4.030   9.196 -1.3285 -1.4183  0.3542
   17SAPC  H12Y 2249   2.859   4.109   9.030 -2.5728  1.7902 -1.3961
   17SAPC  C313 2250   2.776   3.907   9.031 -0.0496 -0.0644  0.5096
   17SAPC  H13X 2251   2.697   3.862   9.094  0.7003  2.5028  3.5325
   17SAPC  H13Y 2252   2.873   3.852   9.032  0.3986  0.5854 -1.6103
   17SAPC  C314 2253   2.721   3.909   8.887 -0.1577  0.8701  0.2120
   17SAPC  H14X 2254   2.788   3.976   8.829 -0.7610  1.1541 -0.1749
   17SAPC  H14Y 2255   2.619   3.952   8.901 -1.3637 -2.1295  1.4521
   17SAPC  C315 2256   2.708   3.764   8.841 -0.4640 -0.4484  0.2527
   17SAPC  H15X 2257   2.657   3.705   8.920 -0.4350 -0.9025 -0.0616
   17SAPC  H15Y 2258   2.809   3.721   8.826 -0.7506 -0.6618 -1.2054
   17SAPC  C316 2259   2.653   3.748   8.697 -0.5192  0.7376  0.0714
   17SAPC  H16X 2260   2.684   3.653   8.648  3.3416  1.6747  0.3187
   17SAPC  H16Y 2261   2.708   3.825   8.638  4.2899 -2.3540 -0.0522
   17SAPC  C317 2262   2.505   3.764   8.697  0.2547  0.4303  0.1874
   17SAPC  H17X 2263   2.484   3.854   8.759  0.5255  0.2419  0.5539
   17SAPC  H17Y 2264   2.454   3.677   8.742 -0.4463  1.0038  0.5336
   17SAPC  C318 2265   2.452   3.791   8.561  0.1584  0.4605  0.1452
   17SAPC  H18X 2266   2.502   3.715   8.497 -2.4069 -0.1618 -1.2803
   17SAPC  H18Y 2267   2.342   3.786   8.544  0.1347 -0.7255  0.5081
   17SAPC  H18Z 2268   2.490   3.887   8.521 -1.1067 -0.1475 -2.7523
   18SAPC     N 2269   4.762   4.200  10.884 -0.0641 -0.4708 -0.4737
   18SAPC   C12 2270   4.843   4.195  10.759 -0.2921 -0.0203  0.1947
   18SAPC  H12A 2271   4.811   4.274  10.693  0.9268 -2.0152 -2.9923
   18SAPC  H12B 2272   4.821   4.107  10.701 -2.8068  1.7592 -1.8178
   18SAPC   C13 2273   4.613   4.216  10.852  0.1407 -0.0561  0.1864
   18SAPC  H13A 2274   4.550   4.213  10.939  0.2951 -0.4608  0.2841
   18SAPC  H13B 2275   4.602   4.317  10.815 -1.3779 -0.2275  0.0717
   18SAPC  H13C 2276   4.568   4.153  10.776 -1.1044  1.1560 -0.1191
   18SAPC   C14 2277   4.786   4.085  10.975  0.3847  0.1590  0.3997
   18SAPC  H14A 2278   4.891   4.098  10.997  0.6497  1.2416 -1.3666
   18SAPC  H14B 2279   4.730   4.081  11.068  2.0827 -1.1682  1.4263
   18SAPC  H14C 2280   4.780   3.992  10.921  0.6543  0.3502  0.0340
   18SAPC   C15 2281   4.795   4.319  10.967 -0.4900 -0.8409 -0.3617
   18SAPC  H15A 2282   4.898   4.312  10.997 -0.7831 -0.6104  0.7550
   18SAPC  H15B 2283   4.805   4.401  10.897 -1.1925  1.0733  1.6722
   18SAPC  H15C 2284   4.724   4.342  11.046 -1.5209  1.6915 -1.8945
   18SAPC   C11 2285   4.997   4.218  10.768  0.6339  0.6917  0.2863
   18SAPC  H11A 2286   5.017   4.201  10.660 -1.7084  1.0346 -0.2594
   18SAPC  H11B 2287   5.048   4.141  10.831 -2.3334  0.0476  2.0976
   18SAPC     P 2288   5.162   4.432  10.775  0.4369  0.0234 -0.3953
   18SAPC   O13 2289   5.155   4.540  10.882 -0.2236 -0.5571 -0.5807
   18SAPC   O14 2290   5.295   4.359  10.768  0.3704  0.0548 -0.2928
   18SAPC   O12 2291   5.032   4.346  10.803  0.0039  0.3074 -0.1181
   18SAPC   O11 2292   5.131   4.506  10.639 -0.6254  0.3086 -0.2662
   18SAPC    C1 2293   5.026   4.598  10.627 -0.0936  0.9059  0.4065
   18SAPC    HA 2294   4.928   4.547  10.634  0.1871  0.4198  0.8786
   18SAPC    HB 2295   5.032   4.676  10.706  2.0181  1.8759 -0.6263
   18SAPC    C2 2296   5.037   4.667  10.490  0.4541  0.0855 -0.3584
   18SAPC    HS 2297   4.968   4.754  10.485 -0.5530 -0.6062  0.9914
   18SAPC   O21 2298   5.027   4.567  10.385 -0.0147 -0.9176 -0.0367
   18SAPC   C21 2299   4.898   4.534  10.363  0.4643  0.6714 -0.6192
   18SAPC   O22 2300   4.807   4.599  10.415 -0.6487 -0.3505  0.4605
   18SAPC   C22 2301   4.875   4.405  10.290 -0.2305 -0.3027  0.0501
   18SAPC   H2R 2302   4.972   4.355  10.265  0.4159  1.3831 -1.0097
   18SAPC   H2S 2303   4.809   4.344  10.355 -1.1621 -1.6815 -2.0673
   18SAPC    C3 2304   5.177   4.732  10.484  0.1409  0.1459 -0.2619
   18SAPC    HX 2305   5.256   4.657  10.505  0.4858  0.2283 -1.1955
   18SAPC    HY 2306   5.185   4.804  10.567 -0.2249 -1.5350  1.3031
   18SAPC   O31 2307   5.196   4.794  10.351  0.4016  0.4720  0.4664
   18SAPC   C31 2308   5.130   4.905  10.329  0.4578 -0.1612 -0.2248
   18SAPC   O32 2309   5.053   4.963  10.408 -0.3082  0.4683  0.3851
   18SAPC   C32 2310   5.150   4.951  10.183 -0.5355 -0.8902 -0.0971
   18SAPC   H2X 2311   5.220   5.038  10.184 -0.3198 -1.0325 -1.4127
   18SAPC   H2Y 2312   5.056   4.987  10.137  0.5431  1.2927 -0.7411
   18SAPC   C23 2313   4.797   4.428  10.160  0.4450 -0.2027 -0.2110
   18SAPC   H3R 2314   4.695   4.464  10.184  0.3313 -1.0867  0.6422
   18SAPC   H3S 2315   4.800   4.335  10.100  1.4034 -0.2303 -0.1426
   18SAPC   C24 2316   4.875   4.531  10.077 -0.9203  0.2014 -0.1218
   18SAPC   H4R 2317   4.973   4.485  10.052 -1.1962 -1.5912  1.8427
   18SAPC   H4S 2318   4.906   4.625  10.126 -3.4248  1.1700 -0.2678
   18SAPC   C25 2319   4.813   4.588   9.948  0.3765  0.2540 -0.5343
   18SAPC   H5R 2320   4.805   4.507   9.874  1.8454 -2.1874  1.8333
   18SAPC   C26 2321   4.797   4.714   9.914 -0.1146  0.1697 -0.0186
   18SAPC   H6R 2322   4.766   4.741   9.812  0.8062  2.1561  0.1840
   18SAPC   C27 2323   4.823   4.824  10.009  0.5646 -0.2012 -0.7443
   18SAPC   H7R 2324   4.811   4.919   9.954  0.9904  0.2482 -0.0669
   18SAPC   H7S 2325   4.931   4.823  10.034  0.3378  2.8828  0.7589
   18SAPC   C28 2326   4.739   4.842  10.138  0.0072  0.4845 -0.3559
   18SAPC   H8R 2327   4.734   4.761  10.213 -1.5598  3.1569  2.7087
   18SAPC   C29 2328   4.637   4.933  10.163 -0.2161  0.2180  0.2471
   18SAPC   H9R 2329   4.581   4.934  10.257 -3.3666  3.8170 -1.3739
   18SAPC  C210 2330   4.598   5.047  10.072 -0.4920  0.3108 -0.5891
   18SAPC  H10R 2331   4.652   5.045   9.974 -1.0334 -0.5008 -0.8873
   18SAPC  H10S 2332   4.616   5.146  10.118 -0.0755 -0.0542  0.0371
   18SAPC  C211 2333   4.449   5.053  10.036 -0.6857  0.1626 -0.4474
   18SAPC  H11R 2334   4.378   5.081  10.115 -2.2914 -1.8559 -1.0685
   18SAPC  C212 2335   4.397   5.022   9.913  0.4275  0.3663 -0.3474
   18SAPC  H12R 2336   4.287   5.021   9.907  0.4295 -0.4691 -0.3375
   18SAPC  C213 2337   4.466   4.981   9.786  0.3611 -0.2182  0.2036
   18SAPC  H13R 2338   4.384   4.940   9.723  0.1760  1.6918 -0.8727
   18SAPC  H13S 2339   4.537   4.896   9.800  2.1175  1.1944  0.2879
   18SAPC  C214 2340   4.531   5.089   9.717 -0.7119 -0.1862  0.5977
   18SAPC  H14R 2341   4.593   5.157   9.778 -0.6507 -1.5425  2.1234
   18SAPC  C215 2342   4.518   5.125   9.590 -0.1465 -0.1019 -0.3031
   18SAPC  H15R 2343   4.583   5.205   9.550  0.0714  0.4756  1.1477
   18SAPC  C216 2344   4.450   5.052   9.483  0.6135  0.8372 -0.7883
   18SAPC  H16R 2345   4.341   5.044   9.500  0.5198  1.3058 -1.1614
   18SAPC  H16S 2346   4.478   4.944   9.479 -3.3915 -0.4908  1.4521
   18SAPC  C217 2347   4.460   5.114   9.346 -0.3644  0.5869  0.0438
   18SAPC  H17R 2348   4.559   5.100   9.297 -0.2289  0.0082  0.4711
   18SAPC  H17S 2349   4.430   5.220   9.340 -1.6636  0.1739 -1.4702
   18SAPC  C218 2350   4.368   5.043   9.246 -1.0550 -0.0896  1.1140
   18SAPC  H18R 2351   4.264   5.055   9.282 -1.2478 -1.8943  1.2431
   18SAPC  H18S 2352   4.396   4.938   9.222  2.2802  0.8753  0.1603
   18SAPC  C219 2353   4.390   5.096   9.101 -0.5837  0.1067 -0.5753
   18SAPC  H19R 2354   4.490   5.073   9.058  0.6431  2.7222  0.6391
   18SAPC  H19S 2355   4.396   5.206   9.112 -0.7797  0.0022  0.7282
   18SAPC  C220 2356   4.283   5.062   9.003 -0.1646  0.5635  0.0482
   18SAPC  H20R 2357   4.197   5.133   9.003 -3.3725 -2.8837 -2.2338
   18SAPC  H20S 2358   4.243   4.966   9.042  2.7534 -0.7875 -0.0096
   18SAPC  H20T 2359   4.321   5.052   8.899 -0.1728  0.2457  0.0728
   18SAPC   C33 2360   5.205   4.845  10.097  0.3021  0.2173  0.3666
   18SAPC   H3X 2361   5.133   4.761  10.101  2.1209 -1.3834  1.0861
   18SAPC   H3Y 2362   5.298   4.807  10.144  1.6983  0.7906 -1.7567
   18SAPC   C34 2363   5.225   4.892   9.952 -0.3431 -0.2404 -0.9796
   18SAPC   H4X 2364   5.307   4.967   9.952 -1.4448  1.0182 -1.9309
   18SAPC   H4Y 2365   5.136   4.942   9.908 -0.5882 -0.0631 -0.2856
   18SAPC   C35 2366   5.256   4.770   9.857 -0.3652 -0.3176  0.0379
   18SAPC   H5X 2367   5.190   4.684   9.883 -1.4300  0.7331  0.8840
   18SAPC   H5Y 2368   5.363   4.741   9.861  0.0702  0.9850 -1.2233
   18SAPC   C36 2369   5.221   4.797   9.709 -0.4776  0.6734  1.3970
   18SAPC   H6X 2370   5.116   4.833   9.715 -0.6386  0.6804 -0.7270
   18SAPC   H6Y 2371   5.229   4.698   9.659  1.1384  1.2510  0.4241
   18SAPC   C37 2372   5.304   4.906   9.640  0.7433  0.0147  0.1251
   18SAPC   H7X 2373   5.408   4.914   9.677  0.8546  0.4798 -0.2683
   18SAPC   H7Y 2374   5.278   5.009   9.674  3.4230  0.9936 -0.5224
   18SAPC   C38 2375   5.296   4.914   9.486  0.1049  0.1895 -0.2675
   18SAPC   H8X 2376   5.332   5.015   9.456 -0.0822  1.0671  2.2622
   18SAPC   H8Y 2377   5.190   4.905   9.454 -0.2143 -0.9929  1.0110
   18SAPC   C39 2378   5.376   4.802   9.413  0.3995  0.5247 -0.0612
   18SAPC   H9X 2379   5.335   4.705   9.448 -0.1848  0.8473  0.1685
   18SAPC   H9Y 2380   5.483   4.810   9.442  0.9521 -1.7034 -1.2894
   18SAPC  C310 2381   5.359   4.823   9.266 -0.3269 -0.8858  0.3871
   18SAPC  H10X 2382   5.398   4.923   9.239 -1.2853  0.0187  2.1527
   18SAPC  H10Y 2383   5.253   4.828   9.234  0.2766  1.1325 -1.5155
   18SAPC  C311 2384   5.426   4.717   9.175  0.2617  0.0851  0.6974
   18SAPC  H11X 2385   5.370   4.624   9.198  0.4493 -0.5017 -1.1166
   18SAPC  H11Y 2386   5.535   4.712   9.198  0.2234  0.1198  0.8866
   18SAPC  C312 2387   5.419   4.751   9.028  0.0070 -0.0723 -0.9868
   18SAPC  H12X 2388   5.482   4.834   8.990 -0.3397 -0.0725 -1.5756
   18SAPC  H12Y 2389   5.315   4.778   9.003 -0.9173 -0.8528  1.6715
   18SAPC  C313 2390   5.460   4.622   8.956 -0.4564  0.2691  0.0982
   18SAPC  H13X 2391   5.394   4.536   8.984  1.3752 -2.0126 -2.0492
   18SAPC  H13Y 2392   5.556   4.583   8.995  1.2712  0.1193 -3.7722
   18SAPC  C314 2393   5.457   4.634   8.810 -0.1561  0.2099  0.0912
   18SAPC  H14X 2394   5.351   4.651   8.783 -0.7226  1.7106  2.8661
   18SAPC  H14Y 2395   5.489   4.535   8.771 -4.7346 -1.4610  0.0696
   18SAPC  C315 2396   5.543   4.750   8.751 -1.3549 -0.3356  0.0402
   18SAPC  H15X 2397   5.653   4.737   8.760 -1.2427  0.3890 -0.2307
   18SAPC  H15Y 2398   5.510   4.842   8.803 -1.4616 -0.0863 -0.4563
   18SAPC  C316 2399   5.510   4.770   8.601  0.2674  0.5706 -0.3986
   18SAPC  H16X 2400   5.401   4.774   8.577  0.3797 -0.0150 -1.0681
   18SAPC  H16Y 2401   5.532   4.669   8.559 -2.0513 -1.1409  2.1683
   18SAPC  C317 2402   5.592   4.882   8.518 -0.1785  0.1129 -0.2155
   18SAPC  H17X 2403   5.700   4.859   8.525 -0.0402  1.0216  0.9643
   18SAPC  H17Y 2404   5.568   4.983   8.557  0.3995 -0.2854  1.2191
   18SAPC  C318 2405   5.560   4.894   8.365  0.7500  0.2629  0.6644
   18SAPC  H18X 2406   5.452   4.920   8.355  0.8661  1.0255  1.3373
   18SAPC  H18Y 2407   5.573   4.791   8.324 -1.1849  0.2701 -0.1242
   18SAPC  H18Z 2408   5.625   4.972   8.320 -1.7016  3.1695  1.8543
   19SAPC     N 2409   2.516   4.232  10.374 -0.1564  0.0316 -0.1461
   19SAPC   C12 2410   2.508   4.382  10.377 -0.7935 -0.9743 -0.0093
   19SAPC  H12A 2411   2.496   4.412  10.480 -0.1214  0.4541 -0.3117
   19SAPC  H12B 2412   2.424   4.421  10.321 -0.4453  0.6412  0.5440
   19SAPC   C13 2413   2.648   4.175  10.399  0.0621  0.0685 -0.5117
   19SAPC  H13A 2414   2.635   4.068  10.394  1.3211 -0.0600 -1.3797
   19SAPC  H13B 2415   2.707   4.190  10.310 -0.2058  1.6088 -0.4511
   19SAPC  H13C 2416   2.704   4.202  10.487  0.2957 -0.9209 -0.3478
   19SAPC   C14 2417   2.408   4.172  10.454 -0.0032  0.3919 -0.5750
   19SAPC  H14A 2418   2.310   4.217  10.439 -0.2733 -0.5776 -1.8588
   19SAPC  H14B 2419   2.397   4.066  10.436 -0.4457  0.4829 -0.8616
   19SAPC  H14C 2420   2.426   4.200  10.557 -0.7659 -1.1088 -0.0135
   19SAPC   C15 2421   2.473   4.199  10.238 -0.7641  0.7547 -0.1284
   19SAPC  H15A 2422   2.368   4.221  10.226 -0.9179  1.4047  1.9830
   19SAPC  H15B 2423   2.524   4.252  10.159 -0.6069  1.9576  0.7543
   19SAPC  H15C 2424   2.490   4.093  10.223 -2.4310  0.7795 -2.7134
   19SAPC   C11 2425   2.636   4.457  10.325 -0.0129  0.6715 -0.4843
   19SAPC  H11A 2426   2.616   4.566  10.322  1.3673  0.9687 -0.0303
   19SAPC  H11B 2427   2.661   4.427  10.221 -3.2860  1.2100 -1.5210
   19SAPC     P 2428   2.892   4.453  10.381 -0.2561  0.4428  0.3749
   19SAPC   O13 2429   2.980   4.403  10.488  0.0273 -0.2597  0.1417
   19SAPC   O14 2430   2.917   4.402  10.246 -0.1933 -0.1016 -0.0657
   19SAPC   O12 2431   2.739   4.437  10.422  0.2043  0.5374  0.0853
   19SAPC   O11 2432   2.905   4.615  10.384  0.1192 -0.1757 -0.0669
   19SAPC    C1 2433   3.030   4.675  10.362  0.3254  0.0267  0.0567
   19SAPC    HA 2434   3.046   4.763  10.427 -0.3325 -0.2672  0.6239
   19SAPC    HB 2435   3.115   4.611  10.394  1.1637  1.4222  0.7058
   19SAPC    C2 2436   3.050   4.704  10.207 -0.2210  0.2683  0.1570
   19SAPC    HS 2437   3.086   4.808  10.212 -0.9687  0.5773 -0.5357
   19SAPC   O21 2438   2.921   4.700  10.141 -0.1270  0.1026  0.3418
   19SAPC   C21 2439   2.836   4.797  10.163  0.2447  0.0130  0.7472
   19SAPC   O22 2440   2.859   4.896  10.234  0.1314 -0.1847  0.3865
   19SAPC   C22 2441   2.706   4.769  10.091 -0.3458  0.0572 -0.3452
   19SAPC   H2R 2442   2.735   4.707  10.003 -1.8625 -0.3247 -0.5995
   19SAPC   H2S 2443   2.642   4.719  10.167  0.0460  0.9037  0.5657
   19SAPC    C3 2444   3.157   4.600  10.152 -0.0119  0.1376  0.0532
   19SAPC    HX 2445   3.094   4.509  10.139 -2.5145  1.2840  2.8508
   19SAPC    HY 2446   3.228   4.569  10.232 -3.2017 -2.9674  1.9595
   19SAPC   O31 2447   3.210   4.649  10.029 -0.5497  0.0299  0.0235
   19SAPC   C31 2448   3.328   4.620   9.996 -0.2433  0.1006  0.4918
   19SAPC   O32 2449   3.411   4.555  10.060 -0.0535  0.0264  0.9996
   19SAPC   C32 2450   3.363   4.687   9.865 -0.1221  0.2513  0.6339
   19SAPC   H2X 2451   3.449   4.755   9.881  0.8807 -0.5929 -0.8732
   19SAPC   H2Y 2452   3.276   4.748   9.832  2.0095  1.7081 -2.9670
   19SAPC   C23 2453   2.618   4.890  10.051 -1.0989  0.5396  0.6427
   19SAPC   H3R 2454   2.624   4.969  10.129 -1.2671 -0.2343  1.4596
   19SAPC   H3S 2455   2.514   4.857  10.029 -0.8654  0.6400 -0.6676
   19SAPC   C24 2456   2.656   4.950   9.909 -0.3358  0.6100 -0.1916
   19SAPC   H4R 2457   2.766   4.963   9.900 -0.0581 -1.3907 -0.2963
   19SAPC   H4S 2458   2.606   5.049   9.910 -2.4507 -0.3840 -0.5357
   19SAPC   C25 2459   2.606   4.877   9.790  0.2665 -0.2478 -0.5387
   19SAPC   H5R 2460   2.562   4.777   9.808 -0.3232  0.0957 -0.0711
   19SAPC   C26 2461   2.590   4.925   9.671  0.0141 -0.0351  0.6529
   19SAPC   H6R 2462   2.555   4.847   9.602 -1.6193 -0.4065  1.8467
   19SAPC   C27 2463   2.630   5.061   9.622 -0.0868 -0.6217  0.2544
   19SAPC   H7R 2464   2.734   5.053   9.586 -0.3156  1.2396 -0.9915
   19SAPC   H7S 2465   2.628   5.140   9.700 -1.1234 -1.5337  1.1788
   19SAPC   C28 2466   2.535   5.109   9.518  0.3542  1.0185 -0.1551
   19SAPC   H8R 2467   2.454   5.167   9.565  0.8177  1.2572  0.3665
   19SAPC   C29 2468   2.536   5.099   9.386  0.2102  0.8430 -0.2664
   19SAPC   H9R 2469   2.449   5.141   9.333 -0.9522 -0.9081  0.1521
   19SAPC  C210 2470   2.648   5.031   9.302  0.6467 -0.0008 -0.1475
   19SAPC  H10R 2471   2.712   4.962   9.361 -0.9223 -1.6056 -0.2340
   19SAPC  H10S 2472   2.719   5.111   9.274  0.9525  0.4940  1.8659
   19SAPC  C211 2473   2.611   4.954   9.181  0.0918  0.0751 -0.5245
   19SAPC  H11R 2474   2.574   4.851   9.192  0.3791 -0.0062 -0.3142
   19SAPC  C212 2475   2.596   4.995   9.054  0.2589  0.1231 -0.2722
   19SAPC  H12R 2476   2.563   4.918   8.982 -1.7535 -1.4627  2.1789
   19SAPC  C213 2477   2.614   5.140   9.007 -0.2525 -0.3823 -0.2048
   19SAPC  H13R 2478   2.723   5.162   9.007 -0.3738  0.2907 -1.1258
   19SAPC  H13S 2479   2.567   5.226   9.058  0.8437  2.2689 -3.3454
   19SAPC  C214 2480   2.564   5.152   8.860  0.0193 -0.1543 -0.2276
   19SAPC  H14R 2481   2.483   5.083   8.831  1.4975 -1.5862 -1.1456
   19SAPC  C215 2482   2.614   5.242   8.776  0.1766 -0.1717 -0.0217
   19SAPC  H15R 2483   2.569   5.253   8.676  2.3604  1.7451 -0.8891
   19SAPC  C216 2484   2.719   5.348   8.805  0.2464  0.6752 -0.0998
   19SAPC  H16R 2485   2.817   5.298   8.785  0.3491  0.3743  1.0865
   19SAPC  H16S 2486   2.723   5.365   8.915  0.6250 -3.4448  0.6893
   19SAPC  C217 2487   2.708   5.482   8.733 -0.0292  0.0606 -1.0984
   19SAPC  H17R 2488   2.793   5.540   8.777  0.6136 -0.7299 -1.2791
   19SAPC  H17S 2489   2.615   5.532   8.767  0.6605  0.3121  0.5171
   19SAPC  C218 2490   2.713   5.481   8.582  0.1371  0.2659  0.0927
   19SAPC  H18R 2491   2.632   5.421   8.536 -0.1191  1.6369 -1.3466
   19SAPC  H18S 2492   2.806   5.428   8.554  0.8426  1.6599 -0.3052
   19SAPC  C219 2493   2.706   5.618   8.518 -0.7517  0.1861  0.5954
   19SAPC  H19R 2494   2.617   5.671   8.558 -1.9417  0.0549 -1.7155
   19SAPC  H19S 2495   2.712   5.627   8.408  0.1718  2.4242  0.7629
   19SAPC  C220 2496   2.822   5.705   8.569 -0.6459  0.6331  0.2368
   19SAPC  H20R 2497   2.829   5.798   8.508  0.5451  0.6390  0.3646
   19SAPC  H20S 2498   2.917   5.648   8.572  0.0910  1.8574  0.9783
   19SAPC  H20T 2499   2.800   5.736   8.673  1.0677  2.5737  0.0830
   19SAPC   C33 2500   3.398   4.583   9.756  0.3006 -0.2256  0.4044
   19SAPC   H3X 2501   3.317   4.509   9.739  1.3209 -1.1412 -0.6601
   19SAPC   H3Y 2502   3.489   4.531   9.793 -0.8584 -0.9010  2.4321
   19SAPC   C34 2503   3.423   4.658   9.619  0.2082  0.3745 -0.6242
   19SAPC   H4X 2504   3.507   4.726   9.644 -0.2781  0.0489  2.1998
   19SAPC   H4Y 2505   3.335   4.720   9.588 -1.2734 -1.8373 -1.0830
   19SAPC   C35 2506   3.473   4.558   9.517  0.2364  0.5759  0.5849
   19SAPC   H5X 2507   3.394   4.483   9.494 -0.7187  1.5338  0.6682
   19SAPC   H5Y 2508   3.561   4.498   9.549  0.0307 -0.7487 -1.2219
   19SAPC   C36 2509   3.500   4.634   9.381  0.0953  0.1948 -0.1139
   19SAPC   H6X 2510   3.578   4.713   9.392  3.2951 -2.5521 -1.2268
   19SAPC   H6Y 2511   3.405   4.681   9.347 -0.4792 -0.1767  0.9597
   19SAPC   C37 2512   3.550   4.539   9.265  0.4752  0.6821  0.1364
   19SAPC   H7X 2513   3.490   4.447   9.251  2.1562 -0.4228 -0.1477
   19SAPC   H7Y 2514   3.654   4.505   9.289  0.9518  2.0530  0.0714
   19SAPC   C38 2515   3.579   4.606   9.132  0.4434 -0.0199 -0.6224
   19SAPC   H8X 2516   3.604   4.526   9.059 -0.5680  0.3821 -1.4354
   19SAPC   H8Y 2517   3.668   4.671   9.141  0.4312 -0.2383  1.6372
   19SAPC   C39 2518   3.454   4.680   9.082 -0.2223 -0.3409 -0.0667
   19SAPC   H9X 2519   3.425   4.759   9.155  1.2952  1.0845 -0.9379
   19SAPC   H9Y 2520   3.366   4.614   9.091 -1.8574  1.8398  0.9571
   19SAPC  C310 2521   3.466   4.742   8.944  0.4121  0.1182  1.2205
   19SAPC  H10X 2522   3.507   4.675   8.866 -0.2135  0.0079  0.9849
   19SAPC  H10Y 2523   3.534   4.829   8.941  1.3149 -0.5466 -2.9964
   19SAPC  C311 2524   3.325   4.780   8.899 -0.1368  0.0105  1.0177
   19SAPC  H11X 2525   3.321   4.884   8.859 -1.3644 -0.5417 -0.3732
   19SAPC  H11Y 2526   3.254   4.784   8.984 -0.9810 -2.1056  0.4542
   19SAPC  C312 2527   3.276   4.702   8.780 -0.4220  0.4894 -0.0060
   19SAPC  H12X 2528   3.217   4.617   8.821 -0.8040  1.1730  0.8730
   19SAPC  H12Y 2529   3.361   4.661   8.720 -1.8614  1.7238 -3.1193
   19SAPC  C313 2530   3.176   4.785   8.696  0.4992  0.1304  0.3273
   19SAPC  H13X 2531   3.220   4.883   8.668 -1.6565  1.5904  1.7504
   19SAPC  H13Y 2532   3.093   4.807   8.766  0.5132 -2.7145  1.3428
   19SAPC  C314 2533   3.131   4.719   8.563 -0.0451 -0.0064 -0.0978
   19SAPC  H14X 2534   3.124   4.610   8.586  1.4009 -0.4167 -1.4239
   19SAPC  H14Y 2535   3.211   4.726   8.486 -0.9273 -1.8262 -1.2617
   19SAPC  C315 2536   2.990   4.764   8.518 -0.4018  0.5351 -0.6027
   19SAPC  H15X 2537   2.993   4.857   8.457 -1.1343 -0.0778 -1.6003
   19SAPC  H15Y 2538   2.928   4.777   8.609  0.9046 -0.6870  0.5263
   19SAPC  C316 2539   2.914   4.655   8.434  0.1461  0.6196 -0.8828
   19SAPC  H16X 2540   2.818   4.705   8.408 -1.3576 -1.9345 -0.5781
   19SAPC  H16Y 2541   2.879   4.568   8.494 -0.0016  0.6700 -0.8951
   19SAPC  C317 2542   2.993   4.595   8.315  0.8252  0.0982 -0.1503
   19SAPC  H17X 2543   3.094   4.563   8.348 -0.4470 -2.9294  1.2042
   19SAPC  H17Y 2544   3.004   4.679   8.243  1.0690 -1.1652 -1.6567
   19SAPC  C318 2545   2.921   4.473   8.244  0.0029  0.0088 -0.0057
   19SAPC  H18X 2546   2.985   4.422   8.168 -0.5839  0.2811 -0.6876
   19SAPC  H18Y 2547   2.818   4.497   8.212 -0.5003 -0.5114  1.1845
   19SAPC  H18Z 2548   2.912   4.403   8.329  0.1209 -0.3805 -0.3124
   20SAPC     N 2549   3.920   1.612  11.421  0.0763  0.6167 -0.2017
   20SAPC   C12 2550   3.810   1.530  11.340 -0.2052 -0.1021 -0.3418
   20SAPC  H12A 2551   3.711   1.552  11.376 -1.0677 -0.9921 -2.0432
   20SAPC  H12B 2552   3.812   1.423  11.357  0.5582 -0.4474 -2.3561
   20SAPC   C13 2553   3.907   1.590  11.565  1.2150 -0.1541  0.0133
   20SAPC  H13A 2554   3.927   1.489  11.599  1.2799  0.7073  2.8308
   20SAPC  H13B 2555   3.973   1.650  11.625  1.3243  0.3182 -0.5740
   20SAPC  H13C 2556   3.809   1.622  11.598  1.7204  2.7240 -1.0362
   20SAPC   C14 2557   4.061   1.566  11.384 -0.2585  0.4228 -0.9412
   20SAPC  H14A 2558   4.080   1.581  11.278 -0.3512  0.5179 -0.9439
   20SAPC  H14B 2559   4.134   1.617  11.445 -0.7623 -0.0337  0.0734
   20SAPC  H14C 2560   4.071   1.463  11.414 -0.5789  0.4141 -0.8637
   20SAPC   C15 2561   3.903   1.754  11.391 -0.2294 -0.2894 -0.0100
   20SAPC  H15A 2562   3.984   1.813  11.432 -0.0844 -0.1164 -0.5252
   20SAPC  H15B 2563   3.885   1.765  11.285  0.3069  0.5310 -0.0313
   20SAPC  H15C 2564   3.812   1.787  11.438 -0.4388 -3.1949  1.8269
   20SAPC   C11 2565   3.818   1.555  11.185  0.3797 -0.0620 -0.4225
   20SAPC  H11A 2566   3.804   1.662  11.158 -1.6225 -0.2863 -0.4305
   20SAPC  H11B 2567   3.737   1.498  11.134  0.8159 -0.2272 -0.9441
   20SAPC     P 2568   3.974   1.383  11.065  0.4783 -0.2512 -0.0360
   20SAPC   O13 2569   4.083   1.405  10.965 -0.2298 -0.0307 -1.2304
   20SAPC   O14 2570   4.004   1.288  11.175  0.1614 -0.2626  0.3120
   20SAPC   O12 2571   3.941   1.528  11.128 -0.0495  0.0270  0.0251
   20SAPC   O11 2572   3.840   1.338  10.987 -0.6691  0.2718 -0.0159
   20SAPC    C1 2573   3.844   1.268  10.859 -0.4508  0.8616 -0.4662
   20SAPC    HA 2574   3.932   1.201  10.857 -0.9612  0.1314  0.4375
   20SAPC    HB 2575   3.762   1.193  10.864 -0.2053  0.6518  0.7878
   20SAPC    C2 2576   3.830   1.354  10.740  0.0750 -0.0632 -0.4282
   20SAPC    HS 2577   3.806   1.284  10.657 -0.5099 -0.4062  0.0151
   20SAPC   O21 2578   3.940   1.440  10.707  0.3431  0.5289 -0.8959
   20SAPC   C21 2579   4.045   1.373  10.659 -0.1192 -0.8354  0.7221
   20SAPC   O22 2580   4.057   1.253  10.650 -0.0420 -0.0828 -0.2920
   20SAPC   C22 2581   4.152   1.475  10.621  0.0404 -0.3189  0.7871
   20SAPC   H2R 2582   4.109   1.574  10.647  0.1111 -0.2777  0.7483
   20SAPC   H2S 2583   4.234   1.461  10.694  0.2469 -1.9873  0.2804
   20SAPC    C3 2584   3.704   1.454  10.758 -0.5409 -0.1439 -0.3199
   20SAPC    HX 2585   3.743   1.530  10.829  0.4141 -0.1036 -0.8695
   20SAPC    HY 2586   3.622   1.394  10.802 -2.1692  2.0767 -0.1626
   20SAPC   O31 2587   3.668   1.500  10.626  0.4403 -0.4180  0.3085
   20SAPC   C31 2588   3.601   1.614  10.637 -0.3179  0.0056  0.1353
   20SAPC   O32 2589   3.592   1.687  10.734 -0.1400 -0.1224 -0.0130
   20SAPC   C32 2590   3.553   1.648  10.495  0.3111 -0.5546 -0.5720
   20SAPC   H2X 2591   3.477   1.728  10.508 -0.2495 -0.9881 -1.1295
   20SAPC   H2Y 2592   3.511   1.549  10.468  0.5788 -1.0668  0.8211
   20SAPC   C23 2593   4.204   1.470  10.479 -0.2431  0.1480  0.0876
   20SAPC   H3R 2594   4.253   1.371  10.464 -1.6044 -0.3753 -1.1964
   20SAPC   H3S 2595   4.286   1.544  10.464 -0.7394  0.4718 -1.1246
   20SAPC   C24 2596   4.114   1.492  10.362 -0.4636 -0.7185  0.3199
   20SAPC   H4R 2597   4.030   1.419  10.362 -0.6555 -0.5059 -0.3666
   20SAPC   H4S 2598   4.172   1.471  10.269 -0.0133  2.8320 -0.3243
   20SAPC   C25 2599   4.059   1.627  10.354 -0.6724 -0.0980  0.8031
   20SAPC   H5R 2600   4.024   1.663  10.452  1.6226  1.8232  0.9953
   20SAPC   C26 2601   4.071   1.714  10.255 -0.2850  0.6344 -0.1294
   20SAPC   H6R 2602   4.025   1.812  10.277  1.0023  1.1456  0.3526
   20SAPC   C27 2603   4.132   1.690  10.117  0.8649  0.8063 -0.7512
   20SAPC   H7R 2604   4.217   1.620  10.130  0.7476  0.8611  0.3542
   20SAPC   H7S 2605   4.185   1.776  10.069  0.6611  1.3304 -0.0534
   20SAPC   C28 2606   4.032   1.627  10.025 -0.5805 -0.6271 -0.3962
   20SAPC   H8R 2607   3.945   1.582  10.076 -0.6773  0.1206  0.1065
   20SAPC   C29 2608   4.043   1.634   9.891  0.3759  0.7751 -0.2584
   20SAPC   H9R 2609   3.961   1.594   9.831  0.8986  0.3890 -0.7308
   20SAPC  C210 2610   4.155   1.697   9.816 -1.7877 -0.2345 -0.4157
   20SAPC  H10R 2611   4.250   1.702   9.873 -1.1190 -0.3740 -1.4761
   20SAPC  H10S 2612   4.126   1.803   9.797  1.0075  1.0629  1.6694
   20SAPC  C211 2613   4.188   1.619   9.692 -0.6553 -0.1423 -0.4985
   20SAPC  H11R 2614   4.264   1.540   9.699 -1.1674 -0.7808 -1.9657
   20SAPC  C212 2615   4.135   1.630   9.569  0.3859 -0.1014 -0.1327
   20SAPC  H12R 2616   4.170   1.563   9.489  0.3372  0.6552 -0.7919
   20SAPC  C213 2617   4.031   1.719   9.516 -0.4043 -0.6073  0.3332
   20SAPC  H13R 2618   4.066   1.777   9.428 -0.5998 -1.5969 -0.4133
   20SAPC  H13S 2619   3.987   1.789   9.590 -0.3785 -0.8384  0.5689
   20SAPC  C214 2620   3.905   1.645   9.473 -0.2035 -1.2306 -0.6337
   20SAPC  H14R 2621   3.837   1.606   9.551  1.5093  0.7195  2.0063
   20SAPC  C215 2622   3.865   1.614   9.350 -0.0034  0.1867 -0.0253
   20SAPC  H15R 2623   3.772   1.557   9.344  0.8838 -1.5021  1.3284
   20SAPC  C216 2624   3.944   1.639   9.220 -0.8036 -0.0465 -0.4165
   20SAPC  H16R 2625   4.053   1.652   9.239 -0.2058  1.2361 -3.9889
   20SAPC  H16S 2626   3.912   1.736   9.176 -1.3342 -0.4938 -1.0401
   20SAPC  C217 2627   3.922   1.524   9.123 -0.1223  0.1039  0.1078
   20SAPC  H17R 2628   3.815   1.507   9.100  0.5948  1.1830 -5.3062
   20SAPC  H17S 2629   3.956   1.429   9.170 -0.1642  0.0109 -0.0497
   20SAPC  C218 2630   3.995   1.551   8.988 -0.0663  0.0401 -0.3337
   20SAPC  H18R 2631   4.094   1.590   9.022 -0.4621  2.5724 -1.8534
   20SAPC  H18S 2632   3.938   1.632   8.939 -0.3914  0.2435  0.3717
   20SAPC  C219 2633   4.027   1.430   8.894 -0.0770 -0.2610 -0.3513
   20SAPC  H19R 2634   3.931   1.377   8.874 -0.0285 -0.7591  0.6658
   20SAPC  H19S 2635   4.092   1.350   8.936 -0.1984 -1.2465 -1.9612
   20SAPC  C220 2636   4.104   1.467   8.769 -0.1435  0.6629 -0.3986
   20SAPC  H20R 2637   4.127   1.372   8.716 -1.8034 -0.5616  0.9694
   20SAPC  H20S 2638   4.192   1.532   8.789 -2.1246  3.0575  1.3135
   20SAPC  H20T 2639   4.039   1.529   8.703 -2.0109 -1.3701 -0.6017
   20SAPC   C33 2640   3.655   1.683  10.392  0.1435 -0.0126  0.1092
   20SAPC   H3X 2641   3.716   1.594  10.367  2.0917  1.2252  0.2631
   20SAPC   H3Y 2642   3.727   1.760  10.427  0.7556  0.0449 -1.2278
   20SAPC   C34 2643   3.592   1.742  10.267  0.5863  0.3126 -0.0852
   20SAPC   H4X 2644   3.531   1.830  10.296 -0.3868 -0.1607 -0.6791
   20SAPC   H4Y 2645   3.529   1.665  10.219 -0.5428  0.5371  0.9952
   20SAPC   C35 2646   3.699   1.804  10.168  0.0947  0.0678  0.0704
   20SAPC   H5X 2647   3.762   1.726  10.121 -0.3054 -2.2786  3.1121
   20SAPC   H5Y 2648   3.772   1.872  10.216  1.2584 -0.0543 -1.4327
   20SAPC   C36 2649   3.643   1.870  10.042  0.1798 -0.8993 -0.6043
   20SAPC   H6X 2650   3.584   1.960  10.068 -0.0520 -0.9440 -0.9701
   20SAPC   H6Y 2651   3.570   1.800   9.997  0.3035 -0.7214 -1.0910
   20SAPC   C37 2652   3.749   1.895   9.933  0.5246  0.4260  0.6411
   20SAPC   H7X 2653   3.829   1.820   9.946  0.0088 -0.1018  0.8238
   20SAPC   H7Y 2654   3.793   1.996   9.948 -0.2398  0.7802  0.5545
   20SAPC   C38 2655   3.682   1.886   9.795 -0.9193 -0.0404  0.9819
   20SAPC   H8X 2656   3.656   1.780   9.778  1.7809 -0.4455 -1.4018
   20SAPC   H8Y 2657   3.759   1.911   9.719  0.0314  0.8864  2.1899
   20SAPC   C39 2658   3.565   1.979   9.772  0.4761  0.2182 -0.2551
   20SAPC   H9X 2659   3.598   2.085   9.778  1.6516 -0.1627  0.2813
   20SAPC   H9Y 2660   3.489   1.952   9.849  0.5429 -0.2465 -0.3493
   20SAPC  C310 2661   3.499   1.959   9.627  0.5983 -0.7501 -0.3291
   20SAPC  H10X 2662   3.404   2.017   9.626  1.6305  1.0133 -0.8705
   20SAPC  H10Y 2663   3.467   1.854   9.616  0.0455 -0.5719 -0.4209
   20SAPC  C311 2664   3.582   2.011   9.505  0.0163 -0.4972 -0.3257
   20SAPC  H11X 2665   3.623   1.924   9.449  0.9184 -1.4053  1.6102
   20SAPC  H11Y 2666   3.661   2.079   9.544 -1.3936  0.6500  0.6258
   20SAPC  C312 2667   3.502   2.092   9.403 -0.1213 -0.0013  0.2815
   20SAPC  H12X 2668   3.432   2.166   9.447 -1.0750 -0.7042 -0.0231
   20SAPC  H12Y 2669   3.438   2.023   9.344  0.7755 -0.8737  0.2966
   20SAPC  C313 2670   3.594   2.168   9.302 -0.8277 -0.3539 -0.2634
   20SAPC  H13X 2671   3.637   2.261   9.347  0.4402 -1.5889  1.2010
   20SAPC  H13Y 2672   3.527   2.209   9.224 -0.6205 -0.3170 -0.4221
   20SAPC  C314 2673   3.710   2.090   9.245  0.0536 -0.8356 -0.0360
   20SAPC  H14X 2674   3.672   1.989   9.220 -1.6417  0.1535 -1.7002
   20SAPC  H14Y 2675   3.777   2.085   9.333 -0.0278  0.0842  0.0915
   20SAPC  C315 2676   3.779   2.156   9.125  0.1458 -0.7899 -0.1568
   20SAPC  H15X 2677   3.845   2.080   9.077  0.4839  0.3018 -1.4759
   20SAPC  H15Y 2678   3.845   2.237   9.163  0.1835 -0.6661 -0.4837
   20SAPC  C316 2679   3.687   2.217   9.018 -0.5010 -0.0535 -0.4452
   20SAPC  H16X 2680   3.625   2.301   9.055  1.0401  0.6939  0.5277
   20SAPC  H16Y 2681   3.618   2.139   8.980 -0.2730 -1.6174  2.0866
   20SAPC  C317 2682   3.759   2.276   8.902 -0.2506  0.5074  0.9144
   20SAPC  H17X 2683   3.807   2.371   8.934  0.1694  1.3551 -1.9437
   20SAPC  H17Y 2684   3.683   2.299   8.825  0.3430  0.2678  0.2498
   20SAPC  C318 2685   3.869   2.188   8.829 -0.0264 -0.7924  0.3959
   20SAPC  H18X 2686   3.838   2.086   8.800 -2.8250 -0.2730  1.2500
   20SAPC  H18Y 2687   3.956   2.171   8.897  0.7875  0.9029 -0.1820
   20SAPC  H18Z 2688   3.898   2.235   8.733 -1.0334  2.8736  1.7207
   21SAPC     N 2689   3.502   6.577  11.167  0.0206  0.3672 -1.3622
   21SAPC   C12 2690   3.635   6.557  11.091  0.2869 -0.0818 -0.2176
   21SAPC  H12A 2691   3.667   6.462  11.131 -3.0586 -0.7169  1.2743
   21SAPC  H12B 2692   3.705   6.632  11.125 -0.1674  0.0208  0.5019
   21SAPC   C13 2693   3.399   6.479  11.111  0.5814 -0.2053 -0.0847
   21SAPC  H13A 2694   3.301   6.507  11.145 -0.7672 -3.9951 -0.4155
   21SAPC  H13B 2695   3.408   6.476  11.003  0.1870  2.6877 -0.2837
   21SAPC  H13C 2696   3.409   6.378  11.148 -0.9094 -0.0954  0.6672
   21SAPC   C14 2697   3.524   6.550  11.314 -0.5452  0.0174  0.2711
   21SAPC  H14A 2698   3.580   6.627  11.364 -0.2956 -0.8272  1.3340
   21SAPC  H14B 2699   3.428   6.539  11.363 -0.5680  1.5538  0.6354
   21SAPC  H14C 2700   3.575   6.457  11.332  1.4324  0.6810 -1.4641
   21SAPC   C15 2701   3.456   6.721  11.164 -0.4976  0.3136  0.0728
   21SAPC  H15A 2702   3.520   6.790  11.217  0.5978 -0.7926  0.2260
   21SAPC  H15B 2703   3.452   6.762  11.064 -3.2705 -0.6441 -0.2885
   21SAPC  H15C 2704   3.356   6.729  11.202 -0.4382 -3.1194  1.3024
   21SAPC   C11 2705   3.626   6.562  10.935 -0.6327  0.5177 -0.2826
   21SAPC  H11A 2706   3.548   6.497  10.890 -1.7548  1.6910 -0.0947
   21SAPC  H11B 2707   3.724   6.524  10.898  0.0033 -0.4498  2.1800
   21SAPC     P 2708   3.693   6.794  10.850  0.4195 -0.1151 -0.0726
   21SAPC   O13 2709   3.651   6.922  10.921 -0.0155  0.1821 -0.0445
   21SAPC   O14 2710   3.834   6.748  10.860 -0.1653  0.0093  0.2463
   21SAPC   O12 2711   3.593   6.690  10.895 -0.0964  0.1675 -0.6883
   21SAPC   O11 2712   3.662   6.814  10.695  0.0978 -0.1736 -0.2990
   21SAPC    C1 2713   3.647   6.706  10.612  0.1857  0.4913 -0.1129
   21SAPC    HA 2714   3.580   6.626  10.650 -0.0849  0.7985  0.0606
   21SAPC    HB 2715   3.622   6.749  10.512  2.6417  1.0405 -0.5585
   21SAPC    C2 2716   3.779   6.625  10.574 -0.5515 -0.5523  0.0528
   21SAPC    HS 2717   3.813   6.586  10.673  0.9016 -0.1270 -0.2673
   21SAPC   O21 2718   3.884   6.710  10.514 -0.2213  0.2634 -0.0948
   21SAPC   C21 2719   4.001   6.647  10.505 -0.1527 -0.0862 -0.0453
   21SAPC   O22 2720   4.020   6.535  10.550  0.1144  0.2808  0.0045
   21SAPC   C22 2721   4.095   6.731  10.421  0.2757  0.1597  0.3223
   21SAPC   H2R 2722   4.032   6.771  10.338  2.1961 -0.8317 -1.7435
   21SAPC   H2S 2723   4.134   6.816  10.481  1.8393  1.1410 -1.9096
   21SAPC    C3 2724   3.746   6.512  10.471  0.5741  0.3274  0.1828
   21SAPC    HX 2725   3.662   6.460  10.521  0.3609 -0.2168 -0.7213
   21SAPC    HY 2726   3.829   6.441  10.451  0.4419  0.3882 -0.6135
   21SAPC   O31 2727   3.680   6.571  10.356 -0.7435 -0.1797  0.8208
   21SAPC   C31 2728   3.761   6.607  10.264 -0.4818 -0.4047 -0.0417
   21SAPC   O32 2729   3.882   6.589  10.262  0.6241  1.0695  0.2941
   21SAPC   C32 2730   3.675   6.669  10.152 -0.6155 -0.3320  0.1488
   21SAPC   H2X 2731   3.635   6.766  10.188  0.4530  0.9281 -1.8647
   21SAPC   H2Y 2732   3.591   6.603  10.124 -1.1603  0.2393  0.4017
   21SAPC   C23 2733   4.225   6.663  10.362  0.3023  0.0948 -0.4908
   21SAPC   H3R 2734   4.279   6.611  10.444  0.8226 -1.6810 -1.8810
   21SAPC   H3S 2735   4.282   6.743  10.312  0.0101  0.9752  0.5382
   21SAPC   C24 2736   4.183   6.558  10.265  0.1504 -0.7848  0.0045
   21SAPC   H4R 2737   4.106   6.594  10.194  1.1205  0.7340 -0.3225
   21SAPC   H4S 2738   4.141   6.472  10.322 -2.5651  0.4196 -0.0397
   21SAPC   C25 2739   4.310   6.514  10.188 -0.0833  0.3827  0.6566
   21SAPC   H5R 2740   4.389   6.493  10.262 -0.9866 -0.3311  1.4412
   21SAPC   C26 2741   4.328   6.520  10.057 -0.0388 -0.0655  0.3558
   21SAPC   H6R 2742   4.428   6.505  10.015  0.5616 -0.3606  1.8217
   21SAPC   C27 2743   4.222   6.548   9.949  0.3474 -0.0417 -0.2383
   21SAPC   H7R 2744   4.259   6.638   9.895  1.5023  0.4919  1.3390
   21SAPC   H7S 2745   4.123   6.586   9.984  0.7412  0.6052  0.2064
   21SAPC   C28 2746   4.196   6.433   9.861  1.2055 -0.1329 -0.1087
   21SAPC   H8R 2747   4.153   6.346   9.913 -0.9628  1.0512  0.2072
   21SAPC   C29 2748   4.215   6.428   9.728  0.0809  0.6339  0.0509
   21SAPC   H9R 2749   4.197   6.328   9.685 -0.9634  0.6146  0.5050
   21SAPC  C210 2750   4.257   6.535   9.634  0.1789 -0.0659 -0.3164
   21SAPC  H10R 2751   4.347   6.500   9.580 -0.9651 -1.0253 -1.6748
   21SAPC  H10S 2752   4.291   6.627   9.686 -1.4964 -0.3927  1.5224
   21SAPC  C211 2753   4.143   6.561   9.534  0.2560 -0.3818 -0.9254
   21SAPC  H11R 2754   4.044   6.583   9.577 -0.4365  0.4139 -2.7969
   21SAPC  C212 2755   4.168   6.584   9.406  0.8565 -0.0974 -0.3348
   21SAPC  H12R 2756   4.080   6.613   9.346 -0.2424 -0.1264  1.2030
   21SAPC  C213 2757   4.303   6.582   9.339  0.1517  0.2008  0.3247
   21SAPC  H13R 2758   4.338   6.477   9.328  0.4233 -0.1441  3.6167
   21SAPC  H13S 2759   4.373   6.641   9.401 -1.1247  0.5050  1.5183
   21SAPC  C214 2760   4.290   6.650   9.206 -0.1496  0.1210 -0.3426
   21SAPC  H14R 2761   4.278   6.759   9.206  0.9344  0.2478 -0.3000
   21SAPC  C215 2762   4.288   6.586   9.087 -0.2121  0.0431  0.2369
   21SAPC  H15R 2763   4.287   6.643   8.993  0.1595  2.5169  1.6458
   21SAPC  C216 2764   4.296   6.433   9.067 -0.3277 -0.2787  0.1559
   21SAPC  H16R 2765   4.230   6.397   8.985  1.4550 -0.1669 -1.4027
   21SAPC  H16S 2766   4.276   6.380   9.163 -0.5995  0.5413  0.5560
   21SAPC  C217 2767   4.436   6.390   9.028 -0.6246 -0.2740  0.8802
   21SAPC  H17R 2768   4.436   6.278   9.024 -0.2125 -0.2454 -0.6550
   21SAPC  H17S 2769   4.500   6.429   9.110 -0.3717  0.2856  0.4245
   21SAPC  C218 2770   4.494   6.436   8.896  0.4602  0.1669 -0.1685
   21SAPC  H18R 2771   4.591   6.383   8.884  0.2307 -0.2756 -0.0797
   21SAPC  H18S 2772   4.519   6.543   8.918  2.8635  0.8789 -4.9856
   21SAPC  C219 2773   4.399   6.431   8.778  0.4133 -0.5816  0.4093
   21SAPC  H19R 2774   4.323   6.512   8.786  1.1071  0.3714 -1.7716
   21SAPC  H19S 2775   4.342   6.336   8.780  1.4493 -1.2623 -0.9333
   21SAPC  C220 2776   4.466   6.462   8.646 -0.1976  0.0119 -0.5240
   21SAPC  H20R 2777   4.394   6.505   8.574  0.8296  2.3057 -0.2631
   21SAPC  H20S 2778   4.510   6.371   8.599 -1.8800  0.9942 -4.3707
   21SAPC  H20T 2779   4.554   6.525   8.672  0.6789 -0.5323 -2.0168
   21SAPC   C33 2780   3.764   6.696  10.033 -0.1299  0.2329  0.1512
   21SAPC   H3X 2781   3.781   6.612   9.962  1.2226  2.6766 -2.6211
   21SAPC   H3Y 2782   3.864   6.733  10.060  1.0820 -0.4188 -2.9660
   21SAPC   C34 2783   3.700   6.809   9.943  0.0002  0.1717 -0.0710
   21SAPC   H4X 2784   3.724   6.905   9.993 -3.1214  0.2410  1.5572
   21SAPC   H4Y 2785   3.589   6.811   9.955  0.1602  0.4931  1.5653
   21SAPC   C35 2786   3.746   6.798   9.793 -0.3443 -0.6247 -0.3872
   21SAPC   H5X 2787   3.856   6.781   9.791 -0.3083 -0.3414 -1.0183
   21SAPC   H5Y 2788   3.723   6.889   9.734 -0.2046 -0.1376  0.3046
   21SAPC   C36 2789   3.683   6.686   9.710  0.0587 -0.0865  0.0752
   21SAPC   H6X 2790   3.573   6.703   9.709 -0.0414 -0.5155  1.3647
   21SAPC   H6Y 2791   3.679   6.587   9.760  2.5153 -0.4347 -0.3146
   21SAPC   C37 2792   3.731   6.665   9.566 -0.4399 -0.3429 -0.1087
   21SAPC   H7X 2793   3.665   6.600   9.505  1.5513 -0.8139 -1.8674
   21SAPC   H7Y 2794   3.836   6.627   9.564 -0.2261  0.2733 -2.2015
   21SAPC   C38 2795   3.733   6.800   9.494  0.1404 -0.4935  0.6231
   21SAPC   H8X 2796   3.818   6.864   9.525  0.8788 -0.2204 -1.7446
   21SAPC   H8Y 2797   3.650   6.860   9.537 -0.6891 -0.6866 -0.6683
   21SAPC   C39 2798   3.707   6.809   9.340 -0.1491  0.2641  0.4426
   21SAPC   H9X 2799   3.620   6.746   9.313  1.3987 -1.3468 -1.0395
   21SAPC   H9Y 2800   3.800   6.769   9.294 -1.4226 -1.1462 -1.0134
   21SAPC  C310 2801   3.698   6.955   9.287  0.2510 -1.0859  0.7576
   21SAPC  H10X 2802   3.772   7.009   9.350 -1.0494  2.1391 -0.2923
   21SAPC  H10Y 2803   3.604   7.007   9.315 -0.3407 -0.0082 -2.7787
   21SAPC  C311 2804   3.731   6.961   9.138  0.3481 -0.4748  0.6226
   21SAPC  H11X 2805   3.714   7.066   9.106  0.7919 -0.4632  0.4281
   21SAPC  H11Y 2806   3.669   6.892   9.077 -1.5952  0.5291  1.3610
   21SAPC  C312 2807   3.878   6.933   9.100  0.8756 -0.1727 -0.0332
   21SAPC  H12X 2808   3.918   6.844   9.154  1.9687  0.4035  0.1363
   21SAPC  H12Y 2809   3.957   7.007   9.126  0.3952  0.2399  0.2762
   21SAPC  C313 2810   3.897   6.894   8.947  0.0825 -0.4186  0.0123
   21SAPC  H13X 2811   3.903   6.991   8.894  2.7380 -0.0228  0.8822
   21SAPC  H13Y 2812   3.815   6.830   8.909  0.0474  0.4404 -1.4167
   21SAPC  C314 2813   4.029   6.811   8.932 -0.3800 -0.1610  0.2412
   21SAPC  H14X 2814   4.021   6.712   8.982  0.3652 -0.7536 -0.7702
   21SAPC  H14Y 2815   4.112   6.856   8.990  0.4119 -1.5003  0.1790
   21SAPC  C315 2816   4.082   6.783   8.792 -0.1667  0.0506 -0.6896
   21SAPC  H15X 2817   4.004   6.725   8.737  0.4968 -0.5058 -1.0653
   21SAPC  H15Y 2818   4.170   6.716   8.808 -0.9853 -0.8538  0.2161
   21SAPC  C316 2819   4.113   6.905   8.707  0.0780 -0.2681  0.9441
   21SAPC  H16X 2820   4.201   6.961   8.745  2.2270 -2.8112  0.0798
   21SAPC  H16Y 2821   4.025   6.972   8.701  1.0162  0.9032 -0.1170
   21SAPC  C317 2822   4.135   6.880   8.555 -0.6677 -0.0201 -0.7799
   21SAPC  H17X 2823   4.037   6.835   8.526 -1.6325  2.0077 -0.8723
   21SAPC  H17Y 2824   4.213   6.803   8.534 -1.5979 -0.6208 -2.2491
   21SAPC  C318 2825   4.162   7.003   8.472 -0.6075  0.1363  0.1157
   21SAPC  H18X 2826   4.071   7.066   8.462 -0.8694 -0.3672 -0.7860
   21SAPC  H18Y 2827   4.202   6.967   8.375  1.3461 -0.0612  0.9529
   21SAPC  H18Z 2828   4.250   7.050   8.520  0.4789 -2.4304  0.8149
   22SAPC     N 2829   2.664   6.724  11.044 -0.2691 -0.3527  0.1813
   22SAPC   C12 2830   2.622   6.584  11.001  0.7049 -0.0198  0.1380
   22SAPC  H12A 2831   2.676   6.555  10.911  0.5059 -0.9559  0.3125
   22SAPC  H12B 2832   2.517   6.598  10.979  1.0253  1.3816 -0.6472
   22SAPC   C13 2833   2.583   6.766  11.159  0.4352 -0.2850 -0.8127
   22SAPC  H13A 2834   2.596   6.873  11.167  0.9235 -0.4647  1.4860
   22SAPC  H13B 2835   2.477   6.744  11.156  0.1555  0.7817  0.2395
   22SAPC  H13C 2836   2.617   6.729  11.255 -1.3095  0.5929  0.2008
   22SAPC   C14 2837   2.802   6.715  11.094 -0.0187  0.2659 -0.6198
   22SAPC  H14A 2838   2.822   6.618  11.135  1.0618  0.2375 -1.1832
   22SAPC  H14B 2839   2.881   6.718  11.020  1.3280 -2.5577  0.5500
   22SAPC  H14C 2840   2.828   6.796  11.160  0.2755  0.4104 -0.9101
   22SAPC   C15 2841   2.656   6.835  10.934 -0.6348  0.1529 -0.1906
   22SAPC  H15A 2842   2.704   6.925  10.971 -0.1764  0.0830 -0.6067
   22SAPC  H15B 2843   2.717   6.807  10.850 -2.9841 -1.0775 -1.5783
   22SAPC  H15C 2844   2.559   6.861  10.896 -0.7870 -1.5086 -1.0246
   22SAPC   C11 2845   2.652   6.472  11.102  0.4047  0.4734  0.4505
   22SAPC  H11A 2846   2.619   6.499  11.205  0.2156 -3.4829  1.6325
   22SAPC  H11B 2847   2.760   6.450  11.116 -0.0311 -1.0747  1.7851
   22SAPC     P 2848   2.453   6.291  11.102 -0.5007 -0.0096  0.1549
   22SAPC   O13 2849   2.478   6.232  11.232 -0.2694  0.0499  0.3509
   22SAPC   O14 2850   2.349   6.388  11.086  0.1252  0.1593  0.4727
   22SAPC   O12 2851   2.587   6.355  11.052  0.1402 -0.0232  0.4598
   22SAPC   O11 2852   2.418   6.177  10.996  0.8723 -0.3163  0.1643
   22SAPC    C1 2853   2.520   6.129  10.910  0.6679  0.1730 -0.2729
   22SAPC    HA 2854   2.612   6.099  10.965 -0.2145  0.6603  1.5669
   22SAPC    HB 2855   2.491   6.029  10.871 -0.3634 -0.5622  2.1799
   22SAPC    C2 2856   2.560   6.219  10.794  0.6773  0.2941 -0.7161
   22SAPC    HS 2857   2.622   6.302  10.833  0.4028  1.0856 -1.9116
   22SAPC   O21 2858   2.447   6.274  10.719 -0.0962  1.0462 -0.5644
   22SAPC   C21 2859   2.468   6.390  10.660  0.5387 -0.4386  0.5021
   22SAPC   O22 2860   2.557   6.468  10.683 -0.4900  0.0189  0.2849
   22SAPC   C22 2861   2.348   6.427  10.568 -0.2048  0.2295 -0.3770
   22SAPC   H2R 2862   2.275   6.343  10.575 -0.7834  0.7239 -0.4598
   22SAPC   H2S 2863   2.293   6.508  10.621 -0.9953 -1.2256  1.1506
   22SAPC    C3 2864   2.655   6.140  10.689  0.3762 -0.5287 -0.9277
   22SAPC    HX 2865   2.747   6.108  10.743  1.7694 -2.3583 -4.0892
   22SAPC    HY 2866   2.684   6.221  10.619  1.1600 -0.3739 -0.4386
   22SAPC   O31 2867   2.589   6.027  10.628 -0.0937  1.2900  0.3961
   22SAPC   C31 2868   2.538   6.047  10.501  0.0828  0.3417 -0.0376
   22SAPC   O32 2869   2.542   6.151  10.443  0.0111 -0.0228  0.3845
   22SAPC   C32 2870   2.470   5.919  10.464  0.0562  0.0392  0.1102
   22SAPC   H2X 2871   2.364   5.936  10.492  0.2164  1.0962  0.0970
   22SAPC   H2Y 2872   2.505   5.837  10.530 -3.3628 -1.3597  0.4243
   22SAPC   C23 2873   2.387   6.470  10.428  0.2850 -0.3064  0.2368
   22SAPC   H3R 2874   2.445   6.389  10.379  0.5796 -0.5079  0.9131
   22SAPC   H3S 2875   2.453   6.560  10.426 -0.2060  0.0583 -1.2397
   22SAPC   C24 2876   2.259   6.494  10.348 -0.0012  0.6514  0.0623
   22SAPC   H4R 2877   2.276   6.575  10.274 -0.8068  1.6445  0.9276
   22SAPC   H4S 2878   2.182   6.534  10.417  0.5949  0.5893  0.7836
   22SAPC   C25 2879   2.205   6.372  10.281 -0.1347  0.1246  0.3199
   22SAPC   H5R 2880   2.105   6.346  10.318 -1.0854  0.5919 -1.7807
   22SAPC   C26 2881   2.248   6.317  10.159  0.0728 -0.1895 -0.3148
   22SAPC   H6R 2882   2.192   6.230  10.121 -1.6750  0.0047  1.6353
   22SAPC   C27 2883   2.374   6.363  10.080 -0.2487 -0.2231  0.9748
   22SAPC   H7R 2884   2.444   6.278  10.067 -1.9725 -2.2176  3.7857
   22SAPC   H7S 2885   2.429   6.440  10.139 -1.6672  0.8909  0.8871
   22SAPC   C28 2886   2.346   6.406   9.938  1.1957 -0.1225 -0.2942
   22SAPC   H8R 2887   2.367   6.513   9.921  1.2643  0.0220  0.6303
   22SAPC   C29 2888   2.307   6.330   9.831 -0.0529 -0.0838  0.5781
   22SAPC   H9R 2889   2.290   6.383   9.737  0.7363 -0.3618  0.2671
   22SAPC  C210 2890   2.283   6.184   9.820 -0.7342  0.2530 -0.0687
   22SAPC  H10R 2891   2.193   6.166   9.758 -0.4517 -0.6893 -0.2267
   22SAPC  H10S 2892   2.261   6.138   9.919  1.7322 -1.9098 -0.4198
   22SAPC  C211 2893   2.401   6.099   9.764 -0.1228  0.6178  0.0245
   22SAPC  H11R 2894   2.479   6.067   9.835 -0.9972  1.8864  1.6308
   22SAPC  C212 2895   2.427   6.068   9.639  0.5835  0.2514 -0.1176
   22SAPC  H12R 2896   2.516   6.010   9.609  1.1627  1.6344 -1.1943
   22SAPC  C213 2897   2.338   6.109   9.519 -0.3394  0.1465 -0.0451
   22SAPC  H13R 2898   2.388   6.196   9.472 -0.0864  0.3461  0.5853
   22SAPC  H13S 2899   2.235   6.138   9.548  0.7772  3.6934  0.9100
   22SAPC  C214 2900   2.349   5.982   9.428 -0.8375 -0.1702  0.4771
   22SAPC  H14R 2901   2.337   5.890   9.487 -1.0361  0.0538  0.7848
   22SAPC  C215 2902   2.370   5.976   9.296 -0.6023  0.3175 -0.3396
   22SAPC  H15R 2903   2.373   5.879   9.244  2.1592 -0.7457  1.5352
   22SAPC  C216 2904   2.392   6.096   9.212 -0.1521 -0.5736 -0.4338
   22SAPC  H16R 2905   2.441   6.174   9.275  0.7592  0.6243 -2.5330
   22SAPC  H16S 2906   2.290   6.131   9.186  0.5695  1.6567 -0.4528
   22SAPC  C217 2907   2.480   6.086   9.086 -0.3908  0.0230 -0.8651
   22SAPC  H17R 2908   2.425   6.021   9.015  2.4147 -2.1968 -1.2242
   22SAPC  H17S 2909   2.571   6.028   9.114 -0.3207  0.1352 -0.8588
   22SAPC  C218 2910   2.527   6.218   9.033 -0.4326  0.3941  0.3112
   22SAPC  H18R 2911   2.561   6.278   9.120  0.9678 -0.5778  0.4754
   22SAPC  H18S 2912   2.445   6.285   9.001  0.6886  2.3007  1.2085
   22SAPC  C219 2913   2.643   6.202   8.932 -0.2037 -0.3104  0.0283
   22SAPC  H19R 2914   2.624   6.107   8.876  1.9510  0.3784 -2.0044
   22SAPC  H19S 2915   2.737   6.181   8.987  0.7465  0.9601 -1.0514
   22SAPC  C220 2916   2.669   6.323   8.835 -0.0869  0.1586 -0.8592
   22SAPC  H20R 2917   2.579   6.387   8.824  0.9283  1.6445 -0.7899
   22SAPC  H20S 2918   2.691   6.278   8.736 -1.1200 -0.7988 -0.6769
   22SAPC  H20T 2919   2.764   6.374   8.859  0.2779  0.4935 -2.8021
   22SAPC   C33 2920   2.475   5.882  10.315  0.6064 -0.3981 -0.1033
   22SAPC   H3X 2921   2.445   5.972  10.258  0.3463 -1.0506 -1.0130
   22SAPC   H3Y 2922   2.402   5.800  10.294 -0.9304  0.1895  2.5031
   22SAPC   C34 2923   2.612   5.827  10.278  0.3650  0.1465  0.7304
   22SAPC   H4X 2924   2.633   5.723  10.313 -1.2852  0.2281  2.0752
   22SAPC   H4Y 2925   2.690   5.894  10.322  0.0710  0.8136  0.2545
   22SAPC   C35 2926   2.620   5.831  10.124  0.1184 -0.2515  0.3610
   22SAPC   H5X 2927   2.725   5.850  10.092 -0.0456 -1.5443 -1.0863
   22SAPC   H5Y 2928   2.568   5.924  10.093 -3.0298 -1.7002  0.8978
   22SAPC   C36 2929   2.558   5.708  10.052 -0.1651  0.3818 -0.3713
   22SAPC   H6X 2930   2.447   5.712  10.057 -0.2571 -1.5501 -0.0760
   22SAPC   H6Y 2931   2.581   5.619  10.115 -2.7816 -0.9565 -1.1398
   22SAPC   C37 2932   2.610   5.669   9.909 -0.4272 -0.6238 -0.9415
   22SAPC   H7X 2933   2.557   5.581   9.864  1.0881 -1.0742 -1.9135
   22SAPC   H7Y 2934   2.712   5.635   9.933 -0.5669  0.0252  0.6595
   22SAPC   C38 2935   2.609   5.790   9.812  0.8625 -0.1881  0.6295
   22SAPC   H8X 2936   2.669   5.878   9.844  1.5674  0.5222 -2.3546
   22SAPC   H8Y 2937   2.503   5.819   9.796  0.9861  1.3488  2.2512
   22SAPC   C39 2938   2.678   5.763   9.673 -0.0775  0.0284  0.9177
   22SAPC   H9X 2939   2.783   5.730   9.693  0.6558  1.8852  0.3332
   22SAPC   H9Y 2940   2.697   5.859   9.621 -1.7805  1.4487  2.7588
   22SAPC  C310 2941   2.623   5.654   9.582  0.1603 -0.3487  0.0830
   22SAPC  H10X 2942   2.518   5.684   9.561  0.0427 -0.8034  0.0141
   22SAPC  H10Y 2943   2.622   5.559   9.639 -0.0164 -0.1367  0.4381
   22SAPC  C311 2944   2.707   5.632   9.457  0.0788  0.2039  0.2374
   22SAPC  H11X 2945   2.795   5.570   9.485  0.1426 -0.8831 -2.1630
   22SAPC  H11Y 2946   2.735   5.727   9.407 -2.5159  1.4825  0.9936
   22SAPC  C312 2947   2.634   5.542   9.359  0.2017 -0.0888  0.4564
   22SAPC  H12X 2948   2.603   5.452   9.417 -0.8685 -0.7936 -1.1506
   22SAPC  H12Y 2949   2.717   5.516   9.291  0.1913  1.0403 -0.0025
   22SAPC  C313 2950   2.523   5.598   9.272  0.0533 -0.7845 -0.0607
   22SAPC  H13X 2951   2.565   5.686   9.218  2.1825 -0.4576  1.9625
   22SAPC  H13Y 2952   2.432   5.620   9.332  0.4401 -2.6880  1.3146
   22SAPC  C314 2953   2.489   5.500   9.159  0.1855 -0.3190 -0.9550
   22SAPC  H14X 2954   2.446   5.411   9.210 -1.7589 -0.0189 -1.9746
   22SAPC  H14Y 2955   2.585   5.466   9.116  0.9871  2.2980 -1.4129
   22SAPC  C315 2956   2.397   5.565   9.057 -0.3238  0.0449 -0.5358
   22SAPC  H15X 2957   2.458   5.645   9.010 -0.4533 -0.2294 -1.1773
   22SAPC  H15Y 2958   2.310   5.615   9.105  0.8773  2.6030 -0.8213
   22SAPC  C316 2959   2.364   5.458   8.958  0.5052 -0.6179  0.4293
   22SAPC  H16X 2960   2.329   5.362   9.003  0.8813 -0.9842 -0.0434
   22SAPC  H16Y 2961   2.461   5.431   8.911 -0.2661  0.0685 -1.6256
   22SAPC  C317 2962   2.277   5.518   8.850 -0.1011  0.2082 -0.0269
   22SAPC  H17X 2963   2.271   5.451   8.762  1.5767 -0.1543  0.1022
   22SAPC  H17Y 2964   2.311   5.616   8.813  0.4197  0.2630  0.5860
   22SAPC  C318 2965   2.128   5.528   8.886  0.1787  0.0437 -0.2705
   22SAPC  H18X 2966   2.113   5.612   8.957  1.0641  0.5108 -0.6323
   22SAPC  H18Y 2967   2.109   5.426   8.927  0.8768 -0.9380 -2.2660
   22SAPC  H18Z 2968   2.063   5.541   8.797  0.3635  0.0064 -0.4110
   23SAPC     N 2969   3.781   0.470  10.880  0.5599 -0.8781 -0.1431
   23SAPC   C12 2970   3.873   0.591  10.900  0.5775  0.5193  0.6118
   23SAPC  H12A 2971   3.812   0.673  10.866 -0.3939 -0.2471  0.4468
   23SAPC  H12B 2972   3.948   0.593  10.823 -0.6479  0.8489 -0.6116
   23SAPC   C13 2973   3.866   0.348  10.895  0.3778 -0.3129 -0.9163
   23SAPC  H13A 2974   3.927   0.378  10.979 -0.5168  1.4158 -0.8435
   23SAPC  H13B 2975   3.801   0.263  10.912 -0.1300  0.0552 -1.0065
   23SAPC  H13C 2976   3.940   0.338  10.816  2.5493 -2.5904  1.2181
   23SAPC   C14 2977   3.675   0.470  10.987 -0.1073 -1.0772  0.1864
   23SAPC  H14A 2978   3.621   0.563  10.983  2.0813  0.4315  2.1275
   23SAPC  H14B 2979   3.610   0.386  10.967 -0.0215 -1.1803  0.3312
   23SAPC  H14C 2980   3.719   0.454  11.085  0.5135 -2.2538 -0.2619
   23SAPC   C15 2981   3.719   0.468  10.744 -0.1174 -0.0934  0.4073
   23SAPC  H15A 2982   3.801   0.471  10.673 -1.3653  1.2088 -1.0423
   23SAPC  H15B 2983   3.660   0.380  10.729  1.3018 -1.2175  1.1428
   23SAPC  H15C 2984   3.657   0.555  10.728  1.6403  1.2862  0.6540
   23SAPC   C11 2985   3.930   0.619  11.048 -0.0886  0.1257  0.3156
   23SAPC  H11A 2986   3.848   0.625  11.123 -2.0330 -0.6677 -1.6244
   23SAPC  H11B 2987   3.983   0.716  11.053  0.9179 -0.4378  0.7582
   23SAPC     P 2988   4.179   0.527  11.054  0.5514 -0.2716 -0.2866
   23SAPC   O13 2989   4.223   0.638  11.147  0.9839  0.0148  0.1724
   23SAPC   O14 2990   4.235   0.391  11.088 -0.3832 -0.5483 -0.6801
   23SAPC   O12 2991   4.017   0.512  11.082 -0.2426 -0.2282  0.2955
   23SAPC   O11 2992   4.191   0.574  10.905  0.6743  0.0756 -0.4969
   23SAPC    C1 2993   4.214   0.492  10.798  0.2274  0.7739 -0.0573
   23SAPC    HA 2994   4.184   0.386  10.816 -1.6394  1.0974 -1.0063
   23SAPC    HB 2995   4.165   0.528  10.705  1.2957  0.7913 -0.6245
   23SAPC    C2 2996   4.352   0.500  10.737 -0.3009  0.0887 -0.0549
   23SAPC    HS 2997   4.420   0.474  10.821  0.2525 -2.4095 -1.1771
   23SAPC   O21 2998   4.367   0.633  10.684 -0.5417 -0.3665 -0.0886
   23SAPC   C21 2999   4.495   0.672  10.676 -0.9871 -0.0251  0.6293
   23SAPC   O22 3000   4.591   0.608  10.714 -0.6898  0.4176  0.3315
   23SAPC   C22 3001   4.497   0.816  10.623  0.0503  0.3319 -0.4271
   23SAPC   H2R 3002   4.393   0.853  10.634 -0.2367 -0.3995 -0.6077
   23SAPC   H2S 3003   4.570   0.870  10.688  1.7483 -1.5106 -0.6904
   23SAPC    C3 3004   4.359   0.393  10.624 -0.9310  0.5284 -0.1120
   23SAPC    HX 3005   4.306   0.431  10.534  2.3693  0.6404 -2.1900
   23SAPC    HY 3006   4.302   0.306  10.663  0.8514 -0.7426 -0.1969
   23SAPC   O31 3007   4.495   0.366  10.590 -0.1384  0.5490 -0.8457
   23SAPC   C31 3008   4.551   0.270  10.663  0.0805  0.0519 -0.8135
   23SAPC   O32 3009   4.488   0.189  10.737  0.3440 -0.3118 -0.3340
   23SAPC   C32 3010   4.697   0.270  10.643 -0.7927  0.7085  0.2815
   23SAPC   H2X 3011   4.736   0.169  10.669 -2.9828 -0.3586 -0.3382
   23SAPC   H2Y 3012   4.744   0.351  10.701 -2.1952  0.4852  1.7940
   23SAPC   C23 3013   4.530   0.829  10.476 -0.1344  0.4511  0.0625
   23SAPC   H3R 3014   4.613   0.759  10.450 -0.4639 -0.5974  1.6740
   23SAPC   H3S 3015   4.568   0.931  10.456  1.1553 -0.4068 -2.2858
   23SAPC   C24 3016   4.397   0.804  10.396 -0.2741  0.0950  0.4650
   23SAPC   H4R 3017   4.307   0.840  10.451  0.2069  2.2343 -0.0528
   23SAPC   H4S 3018   4.384   0.698  10.367 -0.2405  0.3466 -0.5166
   23SAPC   C25 3019   4.393   0.885  10.267 -0.0460 -0.2251  0.1977
   23SAPC   H5R 3020   4.371   0.993  10.276 -0.1609 -0.1898 -0.4413
   23SAPC   C26 3021   4.396   0.829  10.147  1.1085 -0.2849  0.2538
   23SAPC   H6R 3022   4.387   0.906  10.068 -1.2845 -0.7059  0.0352
   23SAPC   C27 3023   4.411   0.689  10.100 -0.4404  0.3634 -0.1240
   23SAPC   H7R 3024   4.364   0.672  10.001  2.9810  2.4537 -2.3047
   23SAPC   H7S 3025   4.346   0.633  10.171 -0.1882  1.4375  0.9810
   23SAPC   C28 3026   4.557   0.639  10.106  0.5102  0.0034  0.2504
   23SAPC   H8R 3027   4.599   0.625  10.206 -1.9171  0.0134  1.3372
   23SAPC   C29 3028   4.644   0.609  10.010  0.0837  0.4388  0.8251
   23SAPC   H9R 3029   4.742   0.567  10.037  0.9755  0.5287 -1.9615
   23SAPC  C210 3030   4.604   0.607   9.858  0.1267 -0.4224 -0.4179
   23SAPC  H10R 3031   4.505   0.658   9.851 -0.0919 -0.8626 -0.6289
   23SAPC  H10S 3032   4.568   0.503   9.840 -1.5090  0.0622 -0.1163
   23SAPC  C211 3033   4.695   0.659   9.755 -1.1887  0.8196  0.3143
   23SAPC  H11R 3034   4.800   0.626   9.764 -1.8212 -2.2127 -1.9027
   23SAPC  C212 3035   4.668   0.730   9.646  0.5734 -0.0959  0.7274
   23SAPC  H12R 3036   4.754   0.752   9.581  0.5008 -1.1770  0.2384
   23SAPC  C213 3037   4.544   0.787   9.595  1.2310  0.2510  0.1121
   23SAPC  H13R 3038   4.471   0.806   9.677  2.4019  1.7823  0.8487
   23SAPC  H13S 3039   4.505   0.701   9.536  0.2256  1.3931 -0.9252
   23SAPC  C214 3040   4.563   0.914   9.522 -0.2354 -0.0952 -0.1297
   23SAPC  H14R 3041   4.564   1.004   9.584  2.1126  0.1456 -0.4264
   23SAPC  C215 3042   4.574   0.931   9.390 -0.2862  0.0746  0.0213
   23SAPC  H15R 3043   4.616   1.029   9.361 -1.4393  0.9181  1.1073
   23SAPC  C216 3044   4.578   0.826   9.287  0.5893 -0.0943 -0.1156
   23SAPC  H16R 3045   4.476   0.795   9.255  1.0380 -0.7251 -0.9914
   23SAPC  H16S 3046   4.628   0.732   9.322 -0.0441 -1.1714 -1.9366
   23SAPC  C217 3047   4.661   0.878   9.173  0.1533  0.5700  0.1556
   23SAPC  H17R 3048   4.760   0.914   9.208 -1.1331  0.9307  3.8131
   23SAPC  H17S 3049   4.602   0.966   9.142  1.1182  0.5814 -1.8153
   23SAPC  C218 3050   4.685   0.760   9.074  0.4956  0.6233 -0.8070
   23SAPC  H18R 3051   4.584   0.719   9.050  0.3752  0.3841  0.0704
   23SAPC  H18S 3052   4.749   0.686   9.127 -1.9660 -1.3487 -0.4086
   23SAPC  C219 3053   4.738   0.810   8.939 -0.7728  0.1694 -0.5678
   23SAPC  H19R 3054   4.688   0.901   8.901 -0.5299 -0.5891 -2.8558
   23SAPC  H19S 3055   4.715   0.736   8.859 -0.5908 -3.3524  2.3522
   23SAPC  C220 3056   4.887   0.832   8.952 -0.4241 -0.6689  0.2735
   23SAPC  H20R 3057   4.929   0.850   8.851  0.9794  0.7537  1.0677
   23SAPC  H20S 3058   4.926   0.745   9.009 -4.4916 -3.4149 -0.6737
   23SAPC  H20T 3059   4.906   0.931   8.999 -0.7178  1.8254 -4.2792
   23SAPC   C33 3060   4.733   0.289  10.491  0.4036 -0.2303  0.0009
   23SAPC   H3X 3061   4.837   0.328  10.480  0.4307  0.0531  1.1506
   23SAPC   H3Y 3062   4.662   0.361  10.444 -1.0724 -1.7161 -0.1192
   23SAPC   C34 3063   4.740   0.168  10.407 -0.0007  0.0308 -0.1444
   23SAPC   H4X 3064   4.650   0.110  10.434 -0.1818 -0.1751 -1.1438
   23SAPC   H4Y 3065   4.826   0.108  10.441 -0.7840 -0.6450  0.6749
   23SAPC   C35 3066   4.738   0.195  10.252  0.0765 -0.4719 -0.0842
   23SAPC   H5X 3067   4.751   0.102  10.193  1.5961 -1.0015  1.0522
   23SAPC   H5Y 3068   4.830   0.254  10.233 -0.2513 -0.6445 -2.5945
   23SAPC   C36 3069   4.612   0.264  10.200 -0.3555  0.2287 -0.7509
   23SAPC   H6X 3070   4.616   0.374  10.217 -2.9472  0.5742 -1.8466
   23SAPC   H6Y 3071   4.521   0.223  10.248 -0.0756 -0.0386 -0.4445
   23SAPC   C37 3072   4.594   0.264  10.049  0.3480 -0.0132  0.5240
   23SAPC   H7X 3073   4.686   0.306  10.003  0.0646 -1.6486 -1.7298
   23SAPC   H7Y 3074   4.512   0.336  10.031  0.6200 -0.2605 -2.1451
   23SAPC   C38 3075   4.563   0.140   9.974 -0.1902 -0.2442  0.7857
   23SAPC   H8X 3076   4.466   0.093  10.003 -0.2718 -1.5844 -1.4077
   23SAPC   H8Y 3077   4.624   0.051  10.003 -4.1427 -3.3639  0.4782
   23SAPC   C39 3078   4.567   0.160   9.820 -0.0298  1.0167 -0.3126
   23SAPC   H9X 3079   4.654   0.208   9.770  0.8438  0.8532  0.9872
   23SAPC   H9Y 3080   4.484   0.228   9.793 -1.0760 -0.9194 -2.3610
   23SAPC  C310 3081   4.566   0.019   9.755  0.6565  1.2853  0.0611
   23SAPC  H10X 3082   4.492  -0.032   9.819 -1.1392  4.5009  0.7558
   23SAPC  H10Y 3083   4.669  -0.022   9.770  0.7764  1.6114  0.1316
   23SAPC  C311 3084   4.513   0.012   9.610  0.8479 -0.2725 -0.2513
   23SAPC  H11X 3085   4.404   0.033   9.604  0.8932  0.2890  0.6555
   23SAPC  H11Y 3086   4.516  -0.093   9.574 -1.1489  0.0345 -1.4842
   23SAPC  C312 3087   4.574   0.111   9.508  0.8720 -0.2164  0.8039
   23SAPC  H12X 3088   4.682   0.086   9.495  0.2053 -2.4304 -1.0067
   23SAPC  H12Y 3089   4.559   0.215   9.545 -1.1212 -0.2740  0.2560
   23SAPC  C313 3090   4.520   0.103   9.366  0.3286  0.2322  0.2791
   23SAPC  H13X 3091   4.409   0.093   9.369  0.3899 -0.7090 -0.2013
   23SAPC  H13Y 3092   4.564   0.011   9.322  0.8676  1.1473 -1.1514
   23SAPC  C314 3093   4.578   0.217   9.288 -0.7747  0.6386  0.3268
   23SAPC  H14X 3094   4.688   0.204   9.286 -0.8799 -0.8776  2.1483
   23SAPC  H14Y 3095   4.559   0.306   9.351  0.4656 -0.5319  2.4831
   23SAPC  C315 3096   4.503   0.243   9.157  0.3075 -0.4078  0.6359
   23SAPC  H15X 3097   4.525   0.344   9.117 -3.1685  0.9636  1.8472
   23SAPC  H15Y 3098   4.395   0.229   9.177  0.3457 -0.3135  0.9028
   23SAPC  C316 3099   4.539   0.141   9.043  0.3076  0.3318 -0.0845
   23SAPC  H16X 3100   4.539   0.034   9.073  0.2042 -0.7378 -3.4250
   23SAPC  H16Y 3101   4.643   0.157   9.006  0.5252  1.1774  0.8665
   23SAPC  C317 3102   4.457   0.167   8.916  0.3403  0.6061 -0.2502
   23SAPC  H17X 3103   4.482   0.267   8.875 -0.2050  1.1645  0.7523
   23SAPC  H17Y 3104   4.350   0.176   8.944  0.1348  1.9597 -1.3363
   23SAPC  C318 3105   4.482   0.069   8.793  0.5294 -0.1318 -0.2432
   23SAPC  H18X 3106   4.589   0.070   8.762  0.2253  0.1554 -1.3235
   23SAPC  H18Y 3107   4.413   0.088   8.708 -0.0046 -1.5591 -0.1544
   23SAPC  H18Z 3108   4.460  -0.033   8.831 -0.8018  0.0607 -0.4621
   24SAPC     N 3109   1.378   1.117  11.335 -0.7363 -0.5822  0.9638
   24SAPC   C12 3110   1.370   1.267  11.315 -0.1910  0.8720  0.3028
   24SAPC  H12A 3111   1.395   1.283  11.211 -0.6449 -2.3947 -0.4438
   24SAPC  H12B 3112   1.446   1.316  11.374  0.0522  1.3829 -0.4259
   24SAPC   C13 3113   1.327   1.071  11.469 -0.5836  0.6981 -0.2923
   24SAPC  H13A 3114   1.352   0.969  11.495  0.1195  1.4049  1.9912
   24SAPC  H13B 3115   1.356   1.130  11.554  3.1567 -3.5800  1.8846
   24SAPC  H13C 3116   1.220   1.079  11.478 -0.6933 -1.7720  1.7860
   24SAPC   C14 3117   1.298   1.056  11.226 -0.3748 -0.2294  0.8497
   24SAPC  H14A 3118   1.312   0.949  11.232 -1.6529 -0.9759 -4.3608
   24SAPC  H14B 3119   1.194   1.084  11.227 -0.4888 -0.3839 -1.5265
   24SAPC  H14C 3120   1.343   1.089  11.134  0.1090  0.3174  1.2743
   24SAPC   C15 3121   1.512   1.075  11.313  0.2898  0.2985 -0.0133
   24SAPC  H15A 3122   1.526   0.979  11.267  3.4000  0.1555  1.0142
   24SAPC  H15B 3123   1.564   1.138  11.243  0.6928  0.3627  0.3346
   24SAPC  H15C 3124   1.571   1.086  11.403 -1.1819 -1.5183  1.2699
   24SAPC   C11 3125   1.236   1.334  11.363 -0.3183  0.3556  0.3050
   24SAPC  H11A 3126   1.210   1.299  11.466  1.1342  1.3872  1.0691
   24SAPC  H11B 3127   1.152   1.286  11.309  0.7589 -1.4265  0.1375
   24SAPC     P 3128   1.269   1.559  11.228 -0.3085  0.1137 -0.1260
   24SAPC   O13 3129   1.158   1.656  11.200 -0.9736  0.1188  0.0946
   24SAPC   O14 3130   1.400   1.619  11.243 -0.4006  0.2212 -0.5756
   24SAPC   O12 3131   1.237   1.474  11.354  0.0078 -0.4048 -0.0471
   24SAPC   O11 3132   1.282   1.461  11.106  0.0757  0.0647  0.0189
   24SAPC    C1 3133   1.168   1.396  11.054 -0.5626  0.2166 -0.5293
   24SAPC    HA 3134   1.193   1.289  11.066  1.2274  0.2222 -3.2200
   24SAPC    HB 3135   1.073   1.420  11.107 -1.1275  1.8616 -2.1600
   24SAPC    C2 3136   1.146   1.422  10.897  0.1853  0.0890 -0.1116
   24SAPC    HS 3137   1.050   1.372  10.871 -1.0022  2.4361 -0.4801
   24SAPC   O21 3138   1.269   1.376  10.833  0.4728 -0.0477  0.0402
   24SAPC   C21 3139   1.270   1.245  10.822 -0.7507 -0.7070  0.2506
   24SAPC   O22 3140   1.188   1.169  10.866 -0.0443  0.6776  0.3091
   24SAPC   C22 3141   1.380   1.205  10.726 -0.2492  0.0273 -0.4993
   24SAPC   H2R 3142   1.461   1.281  10.736 -0.0887 -0.1329 -0.5562
   24SAPC   H2S 3143   1.432   1.117  10.772  2.9267  2.5510  1.1481
   24SAPC    C3 3144   1.118   1.569  10.877 -0.1056 -0.1005 -0.3523
   24SAPC    HX 3145   1.185   1.629  10.942 -0.1144 -0.1448 -0.3015
   24SAPC    HY 3146   1.021   1.591  10.926  1.0550 -0.5445  2.3273
   24SAPC   O31 3147   1.112   1.606  10.741 -0.6495  0.1355 -0.0165
   24SAPC   C31 3148   1.230   1.654  10.697  0.0237 -0.2346 -0.6419
   24SAPC   O32 3149   1.331   1.668  10.768  0.1663 -0.2736  0.3476
   24SAPC   C32 3150   1.221   1.699  10.554 -0.0072 -0.2233 -0.0976
   24SAPC   H2X 3151   1.244   1.808  10.547 -0.1778 -0.1155  0.8665
   24SAPC   H2Y 3152   1.113   1.691  10.529 -0.4574 -1.1187  2.0037
   24SAPC   C23 3153   1.327   1.177  10.586  0.0924  0.7260  0.3720
   24SAPC   H3R 3154   1.288   1.272  10.543  0.6378  1.0682  0.6071
   24SAPC   H3S 3155   1.247   1.101  10.592  0.6994  0.1769  2.6212
   24SAPC   C24 3156   1.435   1.123  10.488 -0.4900  0.1796 -0.1344
   24SAPC   H4R 3157   1.519   1.184  10.527  1.0384 -0.5575 -2.0864
   24SAPC   H4S 3158   1.401   1.162  10.390  0.9923  0.0710 -0.7213
   24SAPC   C25 3159   1.461   0.975  10.502  0.0318  0.4668 -0.3933
   24SAPC   H5R 3160   1.478   0.928  10.600  0.2393  1.2577 -0.0476
   24SAPC   C26 3161   1.487   0.899  10.396 -0.0619  0.5371 -1.4243
   24SAPC   H6R 3162   1.512   0.794  10.417  1.3287  1.1950  0.4443
   24SAPC   C27 3163   1.476   0.940  10.249 -0.1960  0.7124 -0.6522
   24SAPC   H7R 3164   1.553   0.892  10.185  0.2793  2.0627 -1.1213
   24SAPC   H7S 3165   1.497   1.048  10.237  0.0800  0.7499  0.1238
   24SAPC   C28 3166   1.333   0.914  10.207  0.1722  0.2053  0.4192
   24SAPC   H8R 3167   1.249   0.929  10.277  1.4405 -1.1052  2.2983
   24SAPC   C29 3168   1.307   0.875  10.082  0.3236  0.0912 -0.2648
   24SAPC   H9R 3169   1.203   0.849  10.056  0.8221 -1.1214 -1.1138
   24SAPC  C210 3170   1.400   0.847   9.963 -0.1893  0.2945  0.0231
   24SAPC  H10R 3171   1.445   0.746   9.970 -0.4868  0.1596 -0.0490
   24SAPC  H10S 3172   1.488   0.915   9.970 -1.1385  1.8529 -2.1627
   24SAPC  C211 3173   1.338   0.886   9.836  0.5238 -0.3938 -0.7048
   24SAPC  H11R 3174   1.275   0.977   9.834 -0.1997 -0.8883 -0.5479
   24SAPC  C212 3175   1.362   0.839   9.716  0.2312 -0.0139 -0.0213
   24SAPC  H12R 3176   1.299   0.884   9.638 -3.3373 -1.8105  1.5723
   24SAPC  C213 3177   1.446   0.727   9.675 -0.8942  0.6530  0.8540
   24SAPC  H13R 3178   1.442   0.650   9.755  2.3223 -0.5159  0.0795
   24SAPC  H13S 3179   1.553   0.756   9.683 -0.2907 -1.5007  1.1774
   24SAPC  C214 3180   1.435   0.647   9.543  0.2093  1.1298  0.6650
   24SAPC  H14R 3181   1.377   0.700   9.466  0.2509  1.8938  1.1493
   24SAPC  C215 3182   1.478   0.522   9.519 -1.1057  0.1037  0.1586
   24SAPC  H15R 3183   1.476   0.465   9.424 -1.8395  0.2042  0.1071
   24SAPC  C216 3184   1.555   0.446   9.621  0.6001  0.5328  0.1568
   24SAPC  H16R 3185   1.598   0.513   9.699 -2.2853 -0.3758  2.7547
   24SAPC  H16S 3186   1.636   0.391   9.569  0.0501 -0.3263  0.1967
   24SAPC  C217 3187   1.473   0.334   9.692  0.1384  0.0954  0.5194
   24SAPC  H17R 3188   1.454   0.255   9.617  1.9978 -0.1534  0.2823
   24SAPC  H17S 3189   1.381   0.378   9.738  0.2231  1.5345 -0.6249
   24SAPC  C218 3190   1.559   0.282   9.809  0.4856  0.3985 -0.0912
   24SAPC  H18R 3191   1.484   0.213   9.853  1.7136 -1.3925 -0.6890
   24SAPC  H18S 3192   1.584   0.357   9.887  1.6058  0.5759 -0.6029
   24SAPC  C219 3193   1.679   0.193   9.760  0.1362  0.1109 -0.3589
   24SAPC  H19R 3194   1.699   0.137   9.854 -1.2627  0.9140  0.4606
   24SAPC  H19S 3195   1.771   0.253   9.740  0.9630 -1.0532 -0.1672
   24SAPC  C220 3196   1.658   0.091   9.638  0.3149 -0.1113 -0.8772
   24SAPC  H20R 3197   1.701   0.136   9.546 -0.2268  0.5726 -0.8086
   24SAPC  H20S 3198   1.552   0.058   9.634 -0.6159  2.1954  1.4954
   24SAPC  H20T 3199   1.724   0.005   9.661  0.3181 -0.4320 -2.0572
   24SAPC   C33 3200   1.295   1.602  10.459 -0.2856  0.2148  0.6753
   24SAPC   H3X 3201   1.304   1.498  10.497 -1.2290 -0.8830 -1.8238
   24SAPC   H3Y 3202   1.403   1.626  10.461 -0.2388 -0.0429  1.2536
   24SAPC   C34 3203   1.238   1.619  10.313 -0.5111  0.1891 -0.8669
   24SAPC   H4X 3204   1.132   1.586  10.309  0.0929 -1.8944 -1.4599
   24SAPC   H4Y 3205   1.298   1.548  10.251  0.7915 -0.1738  0.7500
   24SAPC   C35 3206   1.235   1.763  10.251  0.0427 -0.1111  0.3925
   24SAPC   H5X 3207   1.336   1.809  10.240  0.1574 -0.6043 -0.7817
   24SAPC   H5Y 3208   1.178   1.832  10.316  0.9335  1.0053  0.0300
   24SAPC   C36 3209   1.182   1.764  10.102 -0.4620 -0.5121 -0.1582
   24SAPC   H6X 3210   1.072   1.764  10.115 -0.3044  0.2313  1.4076
   24SAPC   H6Y 3211   1.214   1.672  10.050 -0.4281 -0.6127  0.0397
   24SAPC   C37 3212   1.217   1.898  10.031  0.3494  0.9912 -0.1002
   24SAPC   H7X 3213   1.327   1.904  10.018  0.3186  2.5730  0.2068
   24SAPC   H7Y 3214   1.189   1.986  10.094  0.3155  0.2843  0.9082
   24SAPC   C38 3215   1.173   1.907   9.887  0.0985 -0.2517  0.2386
   24SAPC   H8X 3216   1.220   2.003   9.856 -1.5453  0.2351 -0.8412
   24SAPC   H8Y 3217   1.063   1.919   9.884  0.3002  1.9041 -0.0614
   24SAPC   C39 3218   1.230   1.786   9.803  0.0754 -0.5748  0.2945
   24SAPC   H9X 3219   1.171   1.696   9.831  0.2656 -0.5681  0.7242
   24SAPC   H9Y 3220   1.336   1.778   9.834 -0.4223 -2.5291  1.7105
   24SAPC  C310 3221   1.209   1.816   9.656 -0.4594  0.4140  0.5658
   24SAPC  H10X 3222   1.274   1.901   9.628 -1.0192  0.5511 -0.3660
   24SAPC  H10Y 3223   1.104   1.822   9.620 -0.7006 -0.8031  1.0261
   24SAPC  C311 3224   1.255   1.698   9.567 -0.5920 -0.2324 -0.2195
   24SAPC  H11X 3225   1.177   1.620   9.550  0.3560 -1.7266  1.7932
   24SAPC  H11Y 3226   1.346   1.647   9.606  0.9619 -0.4927 -3.8224
   24SAPC  C312 3227   1.290   1.743   9.422 -0.6936 -0.1848 -0.7302
   24SAPC  H12X 3228   1.365   1.824   9.411 -0.9964  0.1977 -0.0821
   24SAPC  H12Y 3229   1.196   1.787   9.380 -0.9698  1.6704  1.5907
   24SAPC  C313 3230   1.320   1.622   9.339  0.3874  0.3562  0.6263
   24SAPC  H13X 3231   1.240   1.546   9.345  0.0461  0.6052 -0.5271
   24SAPC  H13Y 3232   1.419   1.588   9.378  1.1095  1.4411 -0.1909
   24SAPC  C314 3233   1.336   1.641   9.186 -0.1157 -0.2952  1.3400
   24SAPC  H14X 3234   1.255   1.699   9.138  0.8174  2.1640  2.5416
   24SAPC  H14Y 3235   1.334   1.543   9.134 -2.4529  1.0364 -1.3435
   24SAPC  C315 3236   1.479   1.690   9.161 -0.6936  0.0116  0.3294
   24SAPC  H15X 3237   1.546   1.640   9.235 -0.4865  0.8724  0.7352
   24SAPC  H15Y 3238   1.484   1.799   9.181 -0.6909  0.4919 -2.0001
   24SAPC  C316 3239   1.547   1.666   9.017 -0.5620 -0.1783  0.3110
   24SAPC  H16X 3240   1.516   1.740   8.940 -0.6448  1.9624  2.3081
   24SAPC  H16Y 3241   1.517   1.561   8.992 -1.1831 -0.1780  1.0220
   24SAPC  C317 3242   1.702   1.691   9.027 -0.3642  0.5757 -0.7219
   24SAPC  H17X 3243   1.745   1.598   8.982 -1.6840 -0.3985 -0.0294
   24SAPC  H17Y 3244   1.742   1.690   9.131  1.2954 -1.2575 -1.3131
   24SAPC  C318 3245   1.752   1.819   8.955  0.2352  0.1347 -0.0230
   24SAPC  H18X 3246   1.710   1.904   9.013 -0.2539 -0.1479  0.0427
   24SAPC  H18Y 3247   1.717   1.822   8.849 -0.5122 -1.1718  0.1712
   24SAPC  H18Z 3248   1.862   1.807   8.953  0.1416 -0.6973 -1.6153
   25SAPC     N 3249   4.546   5.160   5.888 -0.2056  0.0192  0.0240
   25SAPC   C12 3250   4.583   5.302   5.932  0.0642 -0.2019  0.0802
   25SAPC  H12A 3251   4.523   5.368   5.871 -0.4999 -0.4124  0.3913
   25SAPC  H12B 3252   4.679   5.322   5.888  0.1862 -2.8616 -1.0867
   25SAPC   C13 3253   4.556   5.146   5.742 -0.1102 -0.0828  0.5453
   25SAPC  H13A 3254   4.545   5.045   5.705 -0.0746 -0.2721  1.0434
   25SAPC  H13B 3255   4.477   5.201   5.691 -1.1366 -2.5097 -0.6492
   25SAPC  H13C 3256   4.652   5.184   5.712  0.1709 -2.7583 -2.5564
   25SAPC   C14 3257   4.636   5.065   5.954  0.2274  0.1333 -0.2737
   25SAPC  H14A 3258   4.737   5.103   5.944  0.6026 -1.3434 -2.8642
   25SAPC  H14B 3259   4.607   5.056   6.058  2.5665 -0.4773  0.3856
   25SAPC  H14C 3260   4.629   4.963   5.919  0.0177 -1.2227  3.3031
   25SAPC   C15 3261   4.402   5.130   5.929 -0.7362 -0.2284  0.1687
   25SAPC  H15A 3262   4.384   5.027   5.954  1.3292 -0.5105  0.6099
   25SAPC  H15B 3263   4.382   5.198   6.011 -0.4873  2.2105 -1.6765
   25SAPC  H15C 3264   4.325   5.162   5.860  0.0055 -0.8130 -0.9616
   25SAPC   C11 3265   4.573   5.349   6.078  0.3585  0.4046 -0.1255
   25SAPC  H11A 3266   4.623   5.447   6.090 -1.9217  1.5385  0.7816
   25SAPC  H11B 3267   4.638   5.283   6.139  3.1975  1.4082 -1.8474
   25SAPC     P 3268   4.353   5.474   6.127  0.1027 -0.2135 -0.2698
   25SAPC   O13 3269   4.433   5.566   6.046 -0.0044  0.0958 -0.0661
   25SAPC   O14 3270   4.226   5.440   6.066 -0.0665 -0.1257  0.5955
   25SAPC   O12 3271   4.438   5.337   6.132 -0.3417  0.0352  0.3418
   25SAPC   O11 3272   4.324   5.522   6.275  0.1407  0.0256  0.1014
   25SAPC    C1 3273   4.379   5.465   6.389 -0.3868  0.6536 -0.0671
   25SAPC    HA 3274   4.484   5.428   6.380 -0.3284  0.0218  2.5140
   25SAPC    HB 3275   4.384   5.545   6.466  2.3874 -0.7311  1.3464
   25SAPC    C2 3276   4.278   5.353   6.451 -0.5803  0.1112  0.0694
   25SAPC    HS 3277   4.318   5.311   6.545 -0.9681 -1.2606 -0.3563
   25SAPC   O21 3278   4.268   5.242   6.360 -0.3998  0.1765 -0.3268
   25SAPC   C21 3279   4.381   5.175   6.350 -0.3932 -0.0488  0.2307
   25SAPC   O22 3280   4.490   5.201   6.413  0.4247  0.0958  0.2781
   25SAPC   C22 3281   4.355   5.054   6.259 -0.1261  0.0438  0.3511
   25SAPC   H2R 3282   4.254   5.014   6.281 -0.6641  0.3037 -1.4615
   25SAPC   H2S 3283   4.348   5.111   6.164 -1.4414  1.5569  1.2971
   25SAPC    C3 3284   4.134   5.404   6.473  0.1148  0.1475 -0.5038
   25SAPC    HX 3285   4.100   5.418   6.368  1.4834 -0.0413 -1.0045
   25SAPC    HY 3286   4.130   5.504   6.522 -0.4751  0.0891 -0.4305
   25SAPC   O31 3287   4.045   5.309   6.535  1.0939 -0.2699 -0.4836
   25SAPC   C31 3288   4.072   5.275   6.654  0.0723 -0.0493 -0.4654
   25SAPC   O32 3289   4.171   5.313   6.719 -0.0869 -0.1882  0.6619
   25SAPC   C32 3290   3.960   5.196   6.718 -0.3708 -0.2531 -0.2055
   25SAPC   H2X 3291   3.934   5.115   6.647  0.2492 -1.1020  0.5129
   25SAPC   H2Y 3292   3.870   5.260   6.726 -0.7392 -0.4490 -2.3042
   25SAPC   C23 3293   4.456   4.938   6.272  0.0730 -0.2426 -0.3828
   25SAPC   H3R 3294   4.560   4.973   6.287 -0.3672  0.5159  1.0721
   25SAPC   H3S 3295   4.460   4.879   6.178 -1.2950 -0.9045 -0.0562
   25SAPC   C24 3296   4.423   4.842   6.393  0.7279 -0.8166 -0.2289
   25SAPC   H4R 3297   4.320   4.803   6.376  1.1092 -1.5893 -0.8465
   25SAPC   H4S 3298   4.435   4.897   6.489 -1.0374  0.7477 -0.8551
   25SAPC   C25 3299   4.522   4.727   6.398 -0.2379  0.5683 -0.6786
   25SAPC   H5R 3300   4.525   4.664   6.307  0.7278  1.2152 -1.1136
   25SAPC   C26 3301   4.615   4.704   6.497  0.0018  0.0324  0.2482
   25SAPC   H6R 3302   4.683   4.619   6.487  0.7752  0.3906  2.1297
   25SAPC   C27 3303   4.650   4.770   6.628  0.2148 -0.2693 -0.6793
   25SAPC   H7R 3304   4.624   4.705   6.714 -0.8247  0.7995 -0.1619
   25SAPC   H7S 3305   4.589   4.862   6.623  1.5025  0.5515 -2.1234
   25SAPC   C28 3306   4.791   4.825   6.635  0.1290 -0.2229  0.4182
   25SAPC   H8R 3307   4.840   4.846   6.539 -0.7389  1.8981  0.3989
   25SAPC   C29 3308   4.859   4.848   6.752  0.3333  0.2597  0.3508
   25SAPC   H9R 3309   4.957   4.896   6.744  0.4458  0.1290  0.9345
   25SAPC  C210 3310   4.815   4.807   6.888  0.1621  0.0243  0.4196
   25SAPC  H10R 3311   4.734   4.732   6.893  0.0191  0.2256  1.1622
   25SAPC  H10S 3312   4.765   4.895   6.934 -1.3589 -0.8021  0.3695
   25SAPC  C211 3313   4.928   4.759   6.973  0.0261  0.1759  0.5580
   25SAPC  H11R 3314   5.005   4.699   6.922 -2.9143 -2.8197 -0.6924
   25SAPC  C212 3315   4.918   4.767   7.109 -0.4066 -0.1356  0.5425
   25SAPC  H12R 3316   4.990   4.727   7.183  0.2238  0.2248  0.1356
   25SAPC  C213 3317   4.809   4.835   7.189 -0.4904 -0.3144  0.6149
   25SAPC  H13R 3318   4.767   4.766   7.266 -0.5620 -1.0597 -0.0774
   25SAPC  H13S 3319   4.719   4.862   7.130 -1.2483 -0.3667  1.7278
   25SAPC  C214 3320   4.869   4.976   7.235  0.0263  0.4104  0.0052
   25SAPC  H14R 3321   4.941   5.019   7.164 -1.1436 -0.8171 -2.0264
   25SAPC  C215 3322   4.855   5.039   7.354 -0.6968  0.3305  0.0955
   25SAPC  H15R 3323   4.909   5.133   7.376  2.0577 -0.4034 -2.8090
   25SAPC  C216 3324   4.767   4.995   7.468  0.0351 -0.1752  0.2327
   25SAPC  H16R 3325   4.736   4.891   7.445  1.7155 -0.7083  0.2254
   25SAPC  H16S 3326   4.677   5.060   7.460  1.0391  1.0738 -2.4965
   25SAPC  C217 3327   4.825   5.017   7.607 -0.2800  0.7283 -0.2811
   25SAPC  H17R 3328   4.739   4.975   7.665  1.7965 -0.5683  2.0392
   25SAPC  H17S 3329   4.844   5.125   7.627  0.5022  0.6178 -0.3983
   25SAPC  C218 3330   4.942   4.925   7.635 -0.6190 -0.2763  0.2678
   25SAPC  H18R 3331   5.018   4.925   7.554 -0.4976  0.1785  0.3773
   25SAPC  H18S 3332   4.907   4.819   7.638 -1.2492 -0.0704  0.2575
   25SAPC  C219 3333   5.009   4.943   7.770 -0.0407  0.2029  0.8487
   25SAPC  H19R 3334   5.054   5.044   7.781 -0.5847  0.5143  0.2427
   25SAPC  H19S 3335   5.094   4.873   7.785 -0.1141 -0.4472 -1.4469
   25SAPC  C220 3336   4.907   4.902   7.878  0.1134  0.0753 -0.6610
   25SAPC  H20R 3337   4.960   4.908   7.976  1.6134  1.0813 -1.5047
   25SAPC  H20S 3338   4.875   4.796   7.867  0.4926 -0.1827  0.5012
   25SAPC  H20T 3339   4.821   4.972   7.872 -1.0528 -1.1876  0.5293
   25SAPC   C33 3340   3.986   5.127   6.857 -0.4247  0.3475 -0.1397
   25SAPC   H3X 3341   4.082   5.073   6.847  1.5488  3.4435  0.6318
   25SAPC   H3Y 3342   3.909   5.050   6.879  0.0830  0.2381  1.3988
   25SAPC   C34 3343   3.987   5.218   6.968  0.1143 -0.8901  0.1089
   25SAPC   H4X 3344   3.886   5.263   6.978  0.5358  0.3959 -1.1880
   25SAPC   H4Y 3345   4.069   5.288   6.945  1.2054 -2.4138 -0.8176
   25SAPC   C35 3346   4.022   5.154   7.103  0.1711  0.4954  0.3702
   25SAPC   H5X 3347   4.129   5.125   7.102  0.8359  2.7277  0.7983
   25SAPC   H5Y 3348   3.960   5.062   7.114  0.1292  0.2708 -1.3464
   25SAPC   C36 3349   4.003   5.249   7.222 -0.0139 -0.7376  0.4214
   25SAPC   H6X 3350   4.064   5.340   7.205  0.8895 -1.5917 -1.1034
   25SAPC   H6Y 3351   4.063   5.221   7.311  2.7899 -1.2371 -1.5237
   25SAPC   C37 3352   3.865   5.293   7.263 -0.0227  0.5840  0.3662
   25SAPC   H7X 3353   3.812   5.215   7.323 -1.7620  1.0588 -0.4942
   25SAPC   H7Y 3354   3.798   5.325   7.181 -0.3305 -2.9706 -0.9602
   25SAPC   C38 3355   3.867   5.409   7.359 -0.3307 -0.2118  0.0223
   25SAPC   H8X 3356   3.767   5.457   7.347 -0.7373 -1.0727 -0.0462
   25SAPC   H8Y 3357   3.928   5.497   7.328 -1.7335  1.6867  2.3417
   25SAPC   C39 3358   3.916   5.384   7.499 -0.0502  0.3134  0.1915
   25SAPC   H9X 3359   3.931   5.484   7.545 -0.2480  1.8074 -2.7871
   25SAPC   H9Y 3360   4.014   5.332   7.499 -1.2452 -2.0758 -0.4036
   25SAPC  C310 3361   3.817   5.296   7.577 -1.0887 -0.5905 -0.8725
   25SAPC  H10X 3362   3.816   5.196   7.530  2.2904 -1.3228  0.3374
   25SAPC  H10Y 3363   3.715   5.339   7.576 -1.1553 -0.7489 -1.9891
   25SAPC  C311 3364   3.853   5.272   7.727  1.0257 -0.4154  0.1225
   25SAPC  H11X 3365   3.964   5.261   7.721  0.9079 -0.8513 -2.4369
   25SAPC  H11Y 3366   3.813   5.173   7.757  1.3571 -0.9915 -1.2551
   25SAPC  C312 3367   3.812   5.390   7.815  0.1757 -0.0736 -0.5115
   25SAPC  H12X 3368   3.703   5.393   7.837  0.4907  1.4880  1.0360
   25SAPC  H12Y 3369   3.825   5.490   7.769 -0.5051 -0.2296 -1.0560
   25SAPC  C313 3370   3.875   5.380   7.950 -0.1506 -0.2373 -0.1314
   25SAPC  H13X 3371   3.880   5.480   7.998  1.9584 -1.5201  2.5662
   25SAPC  H13Y 3372   3.979   5.347   7.931 -0.5694 -1.5013 -0.3643
   25SAPC  C314 3373   3.809   5.264   8.037  0.0160  0.5135  0.5037
   25SAPC  H14X 3374   3.805   5.170   7.978  1.3564 -0.5443  2.0099
   25SAPC  H14Y 3375   3.710   5.300   8.071 -0.4784  1.0879 -1.4811
   25SAPC  C315 3376   3.883   5.221   8.174 -0.3252  0.3074  0.1905
   25SAPC  H15X 3377   3.828   5.136   8.221 -0.1977 -0.8887 -1.6890
   25SAPC  H15Y 3378   3.885   5.308   8.243  0.2197  1.2302 -0.9557
   25SAPC  C316 3379   4.023   5.159   8.157 -0.1817 -1.0047 -0.2343
   25SAPC  H16X 3380   4.080   5.209   8.076  1.5837 -2.4211  0.0720
   25SAPC  H16Y 3381   4.001   5.056   8.124  1.6777 -2.1807  1.9057
   25SAPC  C317 3382   4.106   5.140   8.277  0.2544  0.0658 -0.2097
   25SAPC  H17X 3383   4.054   5.074   8.349 -0.6585  0.4966 -0.4666
   25SAPC  H17Y 3384   4.126   5.242   8.315  0.9903  0.4148 -1.4712
   25SAPC  C318 3385   4.241   5.073   8.240 -0.1735 -0.2406  0.4229
   25SAPC  H18X 3386   4.221   4.972   8.198 -1.5457  0.5372 -0.8691
   25SAPC  H18Y 3387   4.314   5.076   8.324  0.2944  0.7442 -0.0088
   25SAPC  H18Z 3388   4.293   5.125   8.157 -0.5860 -0.4071  0.0574
   26SAPC     N 3389   0.270   0.417   6.145  0.1676  0.0977 -0.6336
   26SAPC   C12 3390   0.251   0.455   6.292  0.2662 -0.2664 -0.2617
   26SAPC  H12A 3391   0.173   0.391   6.331 -1.8167  0.3577 -3.0530
   26SAPC  H12B 3392   0.209   0.555   6.294 -2.8376 -1.4474  1.0693
   26SAPC   C13 3393   0.135   0.403   6.083 -0.0221 -0.0404  0.2080
   26SAPC  H13A 3394   0.144   0.377   5.978  0.2935 -0.2004  0.2742
   26SAPC  H13B 3395   0.081   0.323   6.131  1.6854 -0.7452  1.0055
   26SAPC  H13C 3396   0.074   0.493   6.081 -0.9846 -0.6824 -1.1959
   26SAPC   C14 3397   0.353   0.520   6.075  0.1809 -0.5122  0.3672
   26SAPC  H14A 3398   0.379   0.485   5.976  1.2655 -1.3762  0.9431
   26SAPC  H14B 3399   0.301   0.614   6.058  1.0870 -0.4642 -2.6896
   26SAPC  H14C 3400   0.442   0.535   6.134 -0.1721  0.2500  0.7228
   26SAPC   C15 3401   0.336   0.286   6.141  0.0206  0.4991  0.3485
   26SAPC  H15A 3402   0.399   0.273   6.055  1.0162  3.0115  0.6102
   26SAPC  H15B 3403   0.406   0.274   6.222 -0.3649  1.2871  0.8121
   26SAPC  H15C 3404   0.268   0.202   6.140  0.8484 -0.1850 -0.0479
   26SAPC   C11 3405   0.379   0.455   6.375  0.5734 -0.2348 -0.1404
   26SAPC  H11A 3406   0.440   0.362   6.379  1.2833  0.1893 -0.7955
   26SAPC  H11B 3407   0.337   0.473   6.477 -1.1122  0.4204 -0.9004
   26SAPC     P 3408   0.615   0.567   6.374 -0.1747  0.4017  0.1642
   26SAPC   O13 3409   0.685   0.470   6.291 -0.0299  0.0725  0.1294
   26SAPC   O14 3410   0.674   0.701   6.375 -0.4256 -0.3532 -0.1211
   26SAPC   O12 3411   0.461   0.573   6.344  0.2443  0.0078  0.4030
   26SAPC   O11 3412   0.622   0.524   6.525  0.4376  0.2205 -0.1268
   26SAPC    C1 3413   0.732   0.451   6.579  0.1373 -0.2579  0.1006
   26SAPC    HA 3414   0.734   0.347   6.542  0.2987  0.4440 -2.0576
   26SAPC    HB 3415   0.833   0.498   6.567 -0.0096 -0.1393 -0.7963
   26SAPC    C2 3416   0.707   0.438   6.731  0.7276 -0.1380  0.6708
   26SAPC    HS 3417   0.776   0.364   6.777  1.6251  1.6627  2.3600
   26SAPC   O21 3418   0.572   0.406   6.768 -0.4900  0.3207  0.2927
   26SAPC   C21 3419   0.545   0.278   6.732 -0.1692 -0.9181 -0.5921
   26SAPC   O22 3420   0.625   0.190   6.705  0.2034 -0.0446  0.5861
   26SAPC   C22 3421   0.396   0.250   6.733  0.5031  0.4154 -0.1627
   26SAPC   H2R 3422   0.332   0.336   6.765 -1.9663 -1.7140  0.9991
   26SAPC   H2S 3423   0.361   0.217   6.632  1.3252 -0.3306 -0.2072
   26SAPC    C3 3424   0.760   0.568   6.802  0.0677 -0.2831 -0.2805
   26SAPC    HX 3425   0.701   0.652   6.759 -0.8052  0.0109  1.4139
   26SAPC    HY 3426   0.868   0.566   6.777 -0.0346 -1.9247 -0.7285
   26SAPC   O31 3427   0.747   0.556   6.945 -0.7004  0.1537 -0.4422
   26SAPC   C31 3428   0.630   0.584   7.005 -0.8606  0.3849 -0.0464
   26SAPC   O32 3429   0.535   0.636   6.950  0.1284 -0.0512 -0.1892
   26SAPC   C32 3430   0.641   0.555   7.154  0.6259 -0.3674 -0.0739
   26SAPC   H2X 3431   0.739   0.503   7.165  0.9925  0.0617 -1.0921
   26SAPC   H2Y 3432   0.555   0.490   7.179 -0.4451  1.0180 -0.0182
   26SAPC   C23 3433   0.352   0.130   6.824  0.5069  0.1793 -0.5115
   26SAPC   H3R 3434   0.419   0.043   6.817 -0.0069 -0.1420 -1.5748
   26SAPC   H3S 3435   0.256   0.094   6.780  0.4834 -1.7842  1.0012
   26SAPC   C24 3436   0.328   0.169   6.976  0.5191  0.0158  0.0023
   26SAPC   H4R 3437   0.282   0.077   7.018  1.7371  0.1604  1.7958
   26SAPC   H4S 3438   0.242   0.240   6.984  0.2052 -0.5181  1.9114
   26SAPC   C25 3439   0.446   0.196   7.056  0.3385  0.1069 -0.8190
   26SAPC   H5R 3440   0.541   0.226   7.008  2.4774  0.7663  3.3088
   26SAPC   C26 3441   0.461   0.185   7.192  0.9332 -0.4245  0.3702
   26SAPC   H6R 3442   0.552   0.224   7.239  1.0079 -0.1977  0.0345
   26SAPC   C27 3443   0.363   0.151   7.297  1.0350  0.4604 -0.4301
   26SAPC   H7R 3444   0.266   0.188   7.258  1.7799  0.7834 -2.0319
   26SAPC   H7S 3445   0.387   0.202   7.393  1.1989 -0.3392 -0.0284
   26SAPC   C28 3446   0.347   0.007   7.321  0.2514  0.2884  0.4268
   26SAPC   H8R 3447   0.322  -0.060   7.237 -2.8707 -0.9131  2.1649
   26SAPC   C29 3448   0.349  -0.056   7.436 -0.7065 -0.5586 -0.4531
   26SAPC   H9R 3449   0.335  -0.165   7.443  1.5814 -0.8814 -0.2070
   26SAPC  C210 3450   0.370   0.001   7.569 -0.7196  0.3157  1.4729
   26SAPC  H10R 3451   0.374  -0.083   7.642 -0.9574 -0.0049  1.1222
   26SAPC  H10S 3452   0.274   0.054   7.587 -2.0790 -0.4675 -2.5396
   26SAPC  C211 3453   0.495   0.086   7.597 -0.0400  0.4332  0.2619
   26SAPC  H11R 3454   0.581   0.073   7.529 -0.9552  0.9251 -1.0365
   26SAPC  C212 3455   0.511   0.169   7.700 -0.2048 -0.1811 -1.1998
   26SAPC  H12R 3456   0.609   0.217   7.709  2.0311 -4.1384 -1.8002
   26SAPC  C213 3457   0.401   0.200   7.799 -0.3418  1.1782 -0.5223
   26SAPC  H13R 3458   0.381   0.110   7.861 -1.2620  0.4448 -1.8401
   26SAPC  H13S 3459   0.304   0.215   7.747 -1.2124 -1.6048  0.1343
   26SAPC  C214 3460   0.431   0.321   7.877 -0.6601  0.1129  0.2512
   26SAPC  H14R 3461   0.398   0.418   7.836 -0.9629  1.4226  3.3047
   26SAPC  C215 3462   0.480   0.324   8.003  0.6205  0.0336  0.6127
   26SAPC  H15R 3463   0.488   0.417   8.062  2.7836 -0.8328  1.7869
   26SAPC  C216 3464   0.516   0.195   8.081 -0.8965 -0.1265  0.0300
   26SAPC  H16R 3465   0.625   0.193   8.102 -1.0063 -4.2335  1.2104
   26SAPC  H16S 3466   0.492   0.109   8.015  0.5968 -0.5908  0.0724
   26SAPC  C217 3467   0.437   0.169   8.209 -0.1988 -0.2865 -0.0729
   26SAPC  H17R 3468   0.331   0.146   8.184 -0.0302 -2.3049  0.8363
   26SAPC  H17S 3469   0.448   0.261   8.269  0.4311 -0.2919 -0.1693
   26SAPC  C218 3470   0.484   0.060   8.300  0.3480 -0.0046  0.0789
   26SAPC  H18R 3471   0.591   0.079   8.324  0.4751 -1.9180  1.1892
   26SAPC  H18S 3472   0.464  -0.041   8.258 -0.1456  0.6199 -1.2397
   26SAPC  C219 3473   0.393   0.061   8.432 -0.2686  0.3250 -0.7756
   26SAPC  H19R 3474   0.439  -0.014   8.499  0.0941 -0.1371 -1.5267
   26SAPC  H19S 3475   0.300   0.010   8.401  0.4176 -0.7706 -1.1138
   26SAPC  C220 3476   0.369   0.191   8.508 -0.1218  0.3743 -0.0608
   26SAPC  H20R 3477   0.322   0.271   8.447 -0.9992  0.2782  0.4628
   26SAPC  H20S 3478   0.454   0.228   8.568  0.0694 -1.0472  0.5937
   26SAPC  H20T 3479   0.297   0.156   8.585 -0.5908 -0.0143 -0.6658
   26SAPC   C33 3480   0.637   0.683   7.243 -0.6231  0.4195 -0.1446
   26SAPC   H3X 3481   0.561   0.762   7.225 -1.6378 -0.3436  0.6393
   26SAPC   H3Y 3482   0.730   0.741   7.225 -0.3566  0.2529  0.6598
   26SAPC   C34 3483   0.643   0.653   7.393 -0.6125  0.7552 -0.4628
   26SAPC   H4X 3484   0.665   0.754   7.433 -0.0079  1.5736 -2.7006
   26SAPC   H4Y 3485   0.733   0.595   7.420 -1.4326  0.2695  1.4072
   26SAPC   C35 3486   0.514   0.602   7.463  0.1673 -0.1837 -0.0371
   26SAPC   H5X 3487   0.489   0.497   7.434  0.7246 -1.1462  2.7001
   26SAPC   H5Y 3488   0.419   0.648   7.429 -0.2533 -2.9175 -3.0946
   26SAPC   C36 3489   0.525   0.612   7.616  0.1216 -0.2626 -0.9672
   26SAPC   H6X 3490   0.440   0.565   7.669  0.0220  1.5339  0.5907
   26SAPC   H6Y 3491   0.519   0.722   7.631  2.8952 -0.0037 -1.2866
   26SAPC   C37 3492   0.656   0.567   7.689  0.3220  0.3184 -0.2299
   26SAPC   H7X 3493   0.740   0.623   7.642  1.0407  0.3076  0.9967
   26SAPC   H7Y 3494   0.667   0.459   7.665  1.0955  0.2892  0.2453
   26SAPC   C38 3495   0.658   0.605   7.835 -0.4498  0.2959 -0.3858
   26SAPC   H8X 3496   0.563   0.577   7.884 -0.5934 -0.2288 -0.9475
   26SAPC   H8Y 3497   0.669   0.716   7.840  2.5211  0.3341 -3.6173
   26SAPC   C39 3498   0.784   0.548   7.918 -0.0736 -0.5951  0.8983
   26SAPC   H9X 3499   0.867   0.595   7.859  0.6544 -2.6800  0.1811
   26SAPC   H9Y 3500   0.805   0.439   7.909  1.5763 -0.2573  0.1496
   26SAPC  C310 3501   0.807   0.613   8.051  0.3897 -0.1531 -0.5581
   26SAPC  H10X 3502   0.803   0.724   8.046 -0.7617 -0.2153 -3.6127
   26SAPC  H10Y 3503   0.911   0.592   8.084 -0.0264  0.4476  1.2238
   26SAPC  C311 3504   0.712   0.541   8.155 -0.3503  0.0609 -0.0005
   26SAPC  H11X 3505   0.705   0.431   8.138 -2.2477  0.3588 -1.4801
   26SAPC  H11Y 3506   0.610   0.584   8.156 -0.4052 -0.0884  0.8093
   26SAPC  C312 3507   0.760   0.564   8.302 -0.6347 -0.5481  1.1317
   26SAPC  H12X 3508   0.766   0.675   8.304 -0.4891 -0.4504 -1.5192
   26SAPC  H12Y 3509   0.863   0.522   8.308  0.4013  0.8189 -3.4838
   26SAPC  C313 3510   0.669   0.520   8.417 -0.3689  0.1667  0.2098
   26SAPC  H13X 3511   0.658   0.410   8.406 -1.3743  0.4398 -2.2189
   26SAPC  H13Y 3512   0.565   0.551   8.395  0.3638  1.7392 -1.3043
   26SAPC  C314 3513   0.723   0.566   8.551 -0.2761 -0.0255 -0.6267
   26SAPC  H14X 3514   0.769   0.667   8.555 -0.2253 -0.0454 -0.6852
   26SAPC  H14Y 3515   0.811   0.500   8.569  1.5058  1.7566 -2.3060
   26SAPC  C315 3516   0.616   0.564   8.654 -0.0506  0.5514 -0.2100
   26SAPC  H15X 3517   0.551   0.474   8.660 -0.1959  0.6596 -0.1345
   26SAPC  H15Y 3518   0.555   0.650   8.617  1.0415  1.5074  0.1446
   26SAPC  C316 3519   0.672   0.600   8.795  0.4176  0.0608  0.7378
   26SAPC  H16X 3520   0.687   0.709   8.803 -1.9697  0.4064  1.2183
   26SAPC  H16Y 3521   0.768   0.555   8.828  1.1042  1.5046  0.7435
   26SAPC  C317 3522   0.583   0.583   8.923 -0.3559 -0.1846 -0.0180
   26SAPC  H17X 3523   0.590   0.480   8.963 -2.4823 -0.7042 -0.8446
   26SAPC  H17Y 3524   0.481   0.600   8.882 -0.4955 -0.7274  0.1044
   26SAPC  C318 3525   0.597   0.682   9.037  0.0426  0.0237 -0.5001
   26SAPC  H18X 3526   0.523   0.660   9.118 -1.1880  0.8398 -1.3607
   26SAPC  H18Y 3527   0.578   0.781   8.992  1.3899 -0.2238 -1.6585
   26SAPC  H18Z 3528   0.702   0.672   9.070  0.0488 -3.9350 -1.2079
   27SAPC     N 3529   5.790   0.957   6.668  0.1993 -0.2387 -0.2385
   27SAPC   C12 3530   5.649   0.924   6.623  0.7971  0.3062 -0.0478
   27SAPC  H12A 3531   5.649   0.832   6.567 -2.9993  0.3500 -0.4010
   27SAPC  H12B 3532   5.619   1.000   6.553  1.1237  0.0406 -0.4813
   27SAPC   C13 3533   5.859   0.837   6.726  0.5865  1.0194  0.4758
   27SAPC  H13A 3534   5.859   0.759   6.652 -0.3396  0.5847  0.9179
   27SAPC  H13B 3535   5.958   0.867   6.758 -0.4513  2.6553  2.4124
   27SAPC  H13C 3536   5.802   0.810   6.814 -1.4816  1.1014 -0.7735
   27SAPC   C14 3537   5.869   0.998   6.543  0.0735 -0.1068  0.0362
   27SAPC  H14A 3538   5.824   1.082   6.493  0.8758  0.7041  0.6471
   27SAPC  H14B 3539   5.964   1.029   6.584 -0.0378  0.3447 -0.0402
   27SAPC  H14C 3540   5.898   0.913   6.484  0.1452 -0.4314  0.5297
   27SAPC   C15 3541   5.791   1.076   6.761 -0.1757  0.7870  0.5039
   27SAPC  H15A 3542   5.770   1.169   6.710 -1.0762  1.9854  2.9130
   27SAPC  H15B 3543   5.712   1.068   6.835  0.1159 -0.9401  0.6692
   27SAPC  H15C 3544   5.888   1.076   6.808 -0.2702 -3.0883  1.0707
   27SAPC   C11 3545   5.535   0.921   6.723 -0.2831  0.2148  0.6882
   27SAPC  H11A 3546   5.572   0.864   6.810 -0.0035  1.1539  1.2023
   27SAPC  H11B 3547   5.461   0.852   6.677  0.9848 -1.2991  0.8602
   27SAPC     P 3548   5.355   1.102   6.675  0.0589 -0.1780 -0.6677
   27SAPC   O13 3549   5.379   1.096   6.533  0.2148 -0.0415  0.1891
   27SAPC   O14 3550   5.238   1.025   6.716 -0.4097  0.1602 -0.4327
   27SAPC   O12 3551   5.493   1.056   6.757 -0.4898  0.2655 -0.0531
   27SAPC   O11 3552   5.339   1.261   6.708 -0.0071  0.5690  0.1327
   27SAPC    C1 3553   5.415   1.326   6.805  0.0352  0.2314  0.5724
   27SAPC    HA 3554   5.521   1.295   6.797  0.0080  0.3364 -0.3621
   27SAPC    HB 3555   5.413   1.431   6.767  2.5342 -0.4358 -1.7248
   27SAPC    C2 3556   5.333   1.311   6.942 -0.0134  0.0716  0.2208
   27SAPC    HS 3557   5.388   1.386   7.005  0.3558 -0.8527  1.0248
   27SAPC   O21 3558   5.348   1.179   6.999 -0.0143  0.4909  0.3597
   27SAPC   C21 3559   5.461   1.158   7.067 -0.6875  0.9992  0.1367
   27SAPC   O22 3560   5.556   1.238   7.077  0.1495  0.2040 -0.3185
   27SAPC   C22 3561   5.440   1.024   7.134  0.1661 -0.2944 -0.3159
   27SAPC   H2R 3562   5.348   0.974   7.098 -0.5803  1.1935 -0.5254
   27SAPC   H2S 3563   5.525   0.964   7.095 -0.5691 -0.5286 -1.6219
   27SAPC    C3 3564   5.185   1.338   6.917  0.2704 -0.3568  0.2457
   27SAPC    HX 3565   5.137   1.324   7.016 -0.6321 -0.1464 -0.1543
   27SAPC    HY 3566   5.132   1.270   6.848 -2.2763  2.1289 -0.4116
   27SAPC   O31 3567   5.174   1.475   6.871  0.3276 -0.5464 -0.1423
   27SAPC   C31 3568   5.141   1.564   6.960 -0.2052 -0.1497 -0.0975
   27SAPC   O32 3569   5.116   1.540   7.075  0.1285 -0.8811 -0.9803
   27SAPC   C32 3570   5.136   1.696   6.891  0.2638  0.9371  0.7263
   27SAPC   H2X 3571   5.052   1.695   6.818  0.9748 -0.0398 -0.1120
   27SAPC   H2Y 3572   5.226   1.714   6.828  0.2401  1.6413  0.8880
   27SAPC   C23 3573   5.455   1.034   7.285 -0.0983  0.3357  0.4841
   27SAPC   H3R 3574   5.546   1.094   7.304  0.7152 -0.5219 -0.5579
   27SAPC   H3S 3575   5.468   0.930   7.321 -1.4610  0.0060  0.0885
   27SAPC   C24 3576   5.326   1.090   7.349 -0.5923 -0.0356 -0.4567
   27SAPC   H4R 3577   5.267   1.159   7.285  1.7315  2.8958  0.2929
   27SAPC   H4S 3578   5.364   1.154   7.431 -2.6628 -0.8313  1.1872
   27SAPC   C25 3579   5.235   0.980   7.406  0.1744 -0.1919  0.4585
   27SAPC   H5R 3580   5.178   0.926   7.329  2.2984  3.8820 -4.5063
   27SAPC   C26 3581   5.225   0.962   7.539 -0.5739  0.7239 -0.2365
   27SAPC   H6R 3582   5.152   0.891   7.581  0.1888 -0.4463 -0.8343
   27SAPC   C27 3583   5.312   1.034   7.644 -0.1145  0.1418 -0.1330
   27SAPC   H7R 3584   5.404   1.063   7.590 -1.7317  2.1958 -1.9762
   27SAPC   H7S 3585   5.347   0.968   7.726  0.3577  0.6908  0.1165
   27SAPC   C28 3586   5.239   1.155   7.706 -0.1194 -0.0679  0.2183
   27SAPC   H8R 3587   5.176   1.205   7.631 -2.1522  2.2466  3.2143
   27SAPC   C29 3588   5.245   1.199   7.835 -0.3773 -1.0972  0.4319
   27SAPC   H9R 3589   5.169   1.272   7.867 -1.3332 -2.2502  0.8618
   27SAPC  C210 3590   5.319   1.140   7.947 -0.1257  0.3133 -0.5307
   27SAPC  H10R 3591   5.344   1.230   8.007 -1.9619 -0.2726  1.2382
   27SAPC  H10S 3592   5.413   1.093   7.913  1.2382  0.4597  2.6616
   27SAPC  C211 3593   5.228   1.053   8.029 -0.9165  0.0278  0.2556
   27SAPC  H11R 3594   5.207   0.963   7.968  0.2048  1.2575 -2.0816
   27SAPC  C212 3595   5.186   1.077   8.151  0.5204  0.4185  0.2409
   27SAPC  H12R 3596   5.116   1.002   8.192 -0.1736  1.1090  0.3351
   27SAPC  C213 3597   5.221   1.183   8.251  0.4019  0.5020 -0.6617
   27SAPC  H13R 3598   5.325   1.221   8.242 -0.0902  1.8109 -1.0194
   27SAPC  H13S 3599   5.210   1.119   8.342  0.8192 -0.5400 -1.3266
   27SAPC  C214 3600   5.122   1.299   8.251  0.5251  0.0603 -0.1822
   27SAPC  H14R 3601   5.104   1.333   8.148  0.4988  0.3911 -0.0692
   27SAPC  C215 3602   5.048   1.353   8.353  0.7696  1.0569 -0.7190
   27SAPC  H15R 3603   4.979   1.435   8.329  0.8448  0.8021 -1.8296
   27SAPC  C216 3604   5.050   1.305   8.498  0.0729 -0.3132  0.2571
   27SAPC  H16R 3605   5.061   1.196   8.519 -0.6945 -0.2493  1.0178
   27SAPC  H16S 3606   4.950   1.324   8.542  0.3468 -0.4763  0.9736
   27SAPC  C217 3607   5.161   1.369   8.584 -0.7664 -0.0080  0.3047
   27SAPC  H17R 3608   5.195   1.467   8.545  1.3629 -1.5598 -2.0338
   27SAPC  H17S 3609   5.252   1.306   8.577 -2.4221 -2.4341 -1.2291
   27SAPC  C218 3610   5.112   1.387   8.730  0.4817 -0.0411  0.8427
   27SAPC  H18R 3611   5.170   1.322   8.799 -0.3508 -1.2585  0.4155
   27SAPC  H18S 3612   5.002   1.375   8.736  0.4510 -0.8820 -0.7925
   27SAPC  C219 3613   5.137   1.534   8.761  0.3448 -0.0026  0.1765
   27SAPC  H19R 3614   5.069   1.599   8.702  0.2768  0.0903  0.3552
   27SAPC  H19S 3615   5.242   1.562   8.737 -0.3520  1.9592 -0.8597
   27SAPC  C220 3616   5.135   1.549   8.913  0.4983 -0.4390  0.5171
   27SAPC  H20R 3617   5.221   1.487   8.947  1.1526 -2.3507 -3.8882
   27SAPC  H20S 3618   5.036   1.531   8.961  0.3020 -2.6842 -0.5504
   27SAPC  H20T 3619   5.155   1.657   8.928  2.0990 -0.6840  0.2973
   27SAPC   C33 3620   5.106   1.817   6.982 -0.6974  0.8459 -0.5000
   27SAPC   H3X 3621   5.141   1.909   6.930 -0.0350 -0.3689 -2.3157
   27SAPC   H3Y 3622   5.165   1.804   7.076 -0.9956  0.9015 -0.3051
   27SAPC   C34 3623   4.954   1.819   7.025 -0.3821  0.2705  0.7131
   27SAPC   H4X 3624   4.921   1.713   7.020 -1.1792  0.5398  0.0527
   27SAPC   H4Y 3625   4.901   1.880   6.949 -1.3105  2.4979  3.0391
   27SAPC   C35 3626   4.932   1.883   7.163  0.4511  0.1102 -0.5695
   27SAPC   H5X 3627   4.983   1.980   7.179  0.5564  0.0102 -0.2988
   27SAPC   H5Y 3628   4.965   1.810   7.240 -1.6050  0.5019  0.7366
   27SAPC   C36 3629   4.783   1.906   7.188  1.0007 -0.0880 -0.2866
   27SAPC   H6X 3630   4.718   1.821   7.157 -1.6614  1.0334  1.8186
   27SAPC   H6Y 3631   4.768   2.000   7.131 -0.7704 -1.0276 -1.4911
   27SAPC   C37 3632   4.744   1.914   7.339 -0.2933 -0.3799  0.5396
   27SAPC   H7X 3633   4.740   1.819   7.397 -1.3364 -0.0723  0.9971
   27SAPC   H7Y 3634   4.637   1.944   7.333 -0.5836 -1.5894 -2.0250
   27SAPC   C38 3635   4.830   2.019   7.416 -0.3616 -0.2094  0.8325
   27SAPC   H8X 3636   4.829   2.110   7.352 -0.4099  2.0497  3.8563
   27SAPC   H8Y 3637   4.931   1.973   7.425 -0.0939 -1.0749 -3.7206
   27SAPC   C39 3638   4.779   2.059   7.553 -0.4916 -0.4051  0.0565
   27SAPC   H9X 3639   4.753   1.973   7.618  0.7166  1.2955  3.0022
   27SAPC   H9Y 3640   4.684   2.116   7.552  0.3285  1.0436  0.3040
   27SAPC  C310 3641   4.879   2.146   7.621 -0.0385  0.7442  0.8574
   27SAPC  H10X 3642   4.902   2.219   7.541  1.2803 -1.2393 -0.6711
   27SAPC  H10Y 3643   4.975   2.100   7.655  0.1992 -1.9090 -2.8685
   27SAPC  C311 3644   4.822   2.219   7.740  0.4199 -0.3702 -0.1192
   27SAPC  H11X 3645   4.728   2.165   7.765 -0.5840  1.4334  0.2003
   27SAPC  H11Y 3646   4.795   2.326   7.728  0.1580 -0.4620 -0.3511
   27SAPC  C312 3647   4.911   2.217   7.861 -0.1577  0.9054  0.2482
   27SAPC  H12X 3648   4.985   2.297   7.841  1.6765 -0.3851  1.5326
   27SAPC  H12Y 3649   4.966   2.121   7.875 -1.1768 -0.1192 -2.1556
   27SAPC  C313 3650   4.841   2.253   7.994 -0.1213  0.0498  0.0738
   27SAPC  H13X 3651   4.782   2.165   8.027  0.8745  0.1580  2.2574
   27SAPC  H13Y 3652   4.771   2.339   7.988 -0.7240 -0.1844  2.6564
   27SAPC  C314 3653   4.950   2.294   8.100 -0.2108  0.1793  0.0244
   27SAPC  H14X 3654   4.988   2.397   8.080 -2.5426  1.1875  0.4086
   27SAPC  H14Y 3655   5.046   2.238   8.106 -0.5080 -0.3938 -0.5821
   27SAPC  C315 3656   4.897   2.311   8.240  0.2612 -0.5804 -0.5820
   27SAPC  H15X 3657   4.850   2.215   8.272 -0.6833  0.2311  0.5625
   27SAPC  H15Y 3658   4.817   2.389   8.245 -1.0702 -1.9891  1.8203
   27SAPC  C316 3659   5.003   2.360   8.343  0.9033  0.3859 -0.1058
   27SAPC  H16X 3660   5.053   2.444   8.290 -1.6101  0.3778 -2.7962
   27SAPC  H16Y 3661   5.083   2.289   8.371 -0.8196 -0.8725  1.9383
   27SAPC  C317 3662   4.937   2.395   8.474  0.6912 -0.1229 -0.6242
   27SAPC  H17X 3663   4.876   2.309   8.508 -1.7974  1.9050  0.4675
   27SAPC  H17Y 3664   4.863   2.478   8.462 -1.6700 -2.0079  0.1404
   27SAPC  C318 3665   5.031   2.447   8.582  0.3237  0.6206 -0.3147
   27SAPC  H18X 3666   4.985   2.443   8.683 -2.8220 -1.2843 -1.6640
   27SAPC  H18Y 3667   5.078   2.546   8.564 -1.8730  1.3061 -2.9378
   27SAPC  H18Z 3668   5.118   2.378   8.584  1.6292  2.2142 -0.0815
   28SAPC     N 3669   3.593   3.301   6.065  0.8869 -0.6481 -0.3133
   28SAPC   C12 3670   3.598   3.402   6.174 -0.4523  0.4348 -0.3434
   28SAPC  H12A 3671   3.551   3.359   6.262 -1.5097 -0.1568 -1.1743
   28SAPC  H12B 3672   3.531   3.483   6.147  0.0407  0.7455 -0.6488
   28SAPC   C13 3673   3.449   3.265   6.038 -0.3816  0.0980 -0.1330
   28SAPC  H13A 3674   3.383   3.342   6.000 -1.2474 -0.6652 -0.2144
   28SAPC  H13B 3675   3.446   3.196   5.955 -1.8872  1.0430 -0.8901
   28SAPC  H13C 3676   3.406   3.225   6.129 -0.5517 -2.5416 -1.2829
   28SAPC   C14 3677   3.656   3.357   5.935  0.3963 -0.8304 -0.0289
   28SAPC  H14A 3678   3.755   3.391   5.960 -0.3638  1.7267 -0.2107
   28SAPC  H14B 3679   3.655   3.280   5.858  4.5534 -2.7891  1.5859
   28SAPC  H14C 3680   3.591   3.440   5.910  1.2824 -0.9570 -3.2095
   28SAPC   C15 3681   3.665   3.184   6.110 -0.1015 -0.3047 -0.2721
   28SAPC  H15A 3682   3.692   3.131   6.019  0.1479  0.6015 -0.7466
   28SAPC  H15B 3683   3.757   3.229   6.146 -2.2930  2.1913  2.6970
   28SAPC  H15C 3684   3.620   3.131   6.192 -1.1453  2.1933  0.8810
   28SAPC   C11 3685   3.733   3.468   6.212  0.2278  0.1696 -0.1568
   28SAPC  H11A 3686   3.724   3.566   6.263 -0.7872 -0.6099  1.2285
   28SAPC  H11B 3687   3.781   3.495   6.115 -0.1760  0.6454 -0.2239
   28SAPC     P 3688   3.839   3.368   6.431 -0.1605  0.1094  0.1296
   28SAPC   O13 3689   3.836   3.228   6.480 -0.2702 -0.6226  0.3282
   28SAPC   O14 3690   3.956   3.451   6.467 -0.0527 -0.1232  0.4357
   28SAPC   O12 3691   3.829   3.378   6.273 -1.1833 -0.0601 -1.0305
   28SAPC   O11 3692   3.707   3.437   6.479 -0.8448  0.4253  0.1864
   28SAPC    C1 3693   3.708   3.561   6.549  0.9777 -0.0096 -0.7582
   28SAPC    HA 3694   3.794   3.623   6.515  2.4650 -1.6264 -0.0981
   28SAPC    HB 3695   3.619   3.623   6.525  1.4385  0.5574 -1.0289
   28SAPC    C2 3696   3.722   3.553   6.703  0.7430  0.1280  0.0650
   28SAPC    HS 3697   3.821   3.510   6.731 -1.0481 -2.0466  3.7769
   28SAPC   O21 3698   3.607   3.474   6.746 -0.6941 -0.7336 -0.4517
   28SAPC   C21 3699   3.640   3.345   6.762 -0.5363  0.2669  0.0205
   28SAPC   O22 3700   3.752   3.302   6.755  0.5827 -0.0940  0.2368
   28SAPC   C22 3701   3.513   3.260   6.806 -0.4211 -0.0903  0.1774
   28SAPC   H2R 3702   3.449   3.268   6.715  0.3035  0.7651 -0.2752
   28SAPC   H2S 3703   3.537   3.152   6.821  0.1250 -0.0406 -0.3106
   28SAPC    C3 3704   3.725   3.699   6.756  0.1804 -0.3426  0.5893
   28SAPC    HX 3705   3.626   3.744   6.735  1.2914  1.5146 -0.9707
   28SAPC    HY 3706   3.791   3.762   6.693 -3.1193  0.9172 -1.8937
   28SAPC   O31 3707   3.764   3.704   6.892 -0.2182  0.4401  0.3812
   28SAPC   C31 3708   3.777   3.830   6.938 -0.1062  0.0143  0.1115
   28SAPC   O32 3709   3.767   3.925   6.862 -0.1197  0.2142 -0.4318
   28SAPC   C32 3710   3.805   3.830   7.090 -0.3590 -0.6500  0.3439
   28SAPC   H2X 3711   3.868   3.740   7.107  3.4709  1.5373 -0.9837
   28SAPC   H2Y 3712   3.709   3.824   7.147  0.0485  0.8066  1.2232
   28SAPC   C23 3713   3.450   3.303   6.942  0.6141 -0.1989  0.0347
   28SAPC   H3R 3714   3.347   3.261   6.943  0.0581  1.0802 -0.5988
   28SAPC   H3S 3715   3.434   3.413   6.948  1.6921 -0.0021 -0.4584
   28SAPC   C24 3716   3.517   3.245   7.069 -0.0324  0.2778 -0.0347
   28SAPC   H4R 3717   3.461   3.262   7.163  1.6544  0.8330  0.9048
   28SAPC   H4S 3718   3.522   3.134   7.065 -1.7285  0.0930  1.8761
   28SAPC   C25 3719   3.652   3.302   7.092  0.3322  0.5303  1.2550
   28SAPC   H5R 3720   3.726   3.259   7.023 -1.0853  0.1329 -0.0763
   28SAPC   C26 3721   3.690   3.394   7.184 -0.0101 -0.7445 -0.1451
   28SAPC   H6R 3722   3.799   3.408   7.190  0.0632 -1.3590  0.1045
   28SAPC   C27 3723   3.599   3.446   7.298 -0.4235  0.4120  0.8519
   28SAPC   H7R 3724   3.591   3.355   7.361  1.1235  0.1188  0.6541
   28SAPC   H7S 3725   3.499   3.472   7.257  0.6804  0.8210 -1.8296
   28SAPC   C28 3726   3.654   3.559   7.379 -0.4252 -1.4187  0.3683
   28SAPC   H8R 3727   3.675   3.657   7.334 -0.8295 -1.6490 -0.3481
   28SAPC   C29 3728   3.703   3.544   7.506  0.5051 -0.4520  0.5779
   28SAPC   H9R 3729   3.746   3.633   7.554 -4.4295  1.8511  1.2792
   28SAPC  C210 3730   3.716   3.417   7.594 -0.1953 -0.0133 -0.5125
   28SAPC  H10R 3731   3.821   3.414   7.631 -0.6817  1.2907  1.0748
   28SAPC  H10S 3732   3.698   3.319   7.544 -1.6631  0.0825 -0.2089
   28SAPC  C211 3733   3.632   3.444   7.711 -0.0693 -0.5836  0.5548
   28SAPC  H11R 3734   3.696   3.498   7.783  1.2840 -0.3835 -0.7605
   28SAPC  C212 3735   3.505   3.406   7.737 -0.3324  0.7322 -0.1250
   28SAPC  H12R 3736   3.463   3.426   7.837  2.2088 -0.9006  1.3912
   28SAPC  C213 3737   3.429   3.326   7.635 -0.4977 -0.0613  0.0737
   28SAPC  H13R 3738   3.495   3.257   7.579 -0.7177  0.5576 -0.9785
   28SAPC  H13S 3739   3.383   3.383   7.552  0.1979 -0.2223 -0.4320
   28SAPC  C214 3740   3.324   3.248   7.711 -0.4126 -0.3186  0.1618
   28SAPC  H14R 3741   3.348   3.223   7.815 -0.8528  0.6528  0.5005
   28SAPC  C215 3742   3.198   3.226   7.667 -0.1072 -0.4870  0.1897
   28SAPC  H15R 3743   3.136   3.171   7.740 -1.4443  1.7238  0.8203
   28SAPC  C216 3744   3.126   3.272   7.541 -0.3109  0.1199  0.2597
   28SAPC  H16R 3745   3.186   3.318   7.460 -0.4626  0.3731  0.2922
   28SAPC  H16S 3746   3.042   3.341   7.563 -1.2488 -0.1719 -2.1518
   28SAPC  C217 3747   3.063   3.157   7.461  0.3776 -0.2044 -0.3930
   28SAPC  H17R 3748   2.997   3.104   7.533 -0.7942 -0.7641 -1.8464
   28SAPC  H17S 3749   3.141   3.099   7.407 -0.4330  0.2826 -2.1542
   28SAPC  C218 3750   2.980   3.209   7.339 -0.2228 -0.0875 -0.5505
   28SAPC  H18R 3751   2.901   3.284   7.361  0.0023 -0.2308  0.8389
   28SAPC  H18S 3752   2.930   3.119   7.297  0.2272 -1.1973  1.1570
   28SAPC  C219 3753   3.065   3.258   7.218  0.3755 -0.3017 -0.4267
   28SAPC  H19R 3754   3.142   3.180   7.198  1.2674  0.4807 -0.1271
   28SAPC  H19S 3755   3.104   3.356   7.254 -0.7564 -0.1884  0.5669
   28SAPC  C220 3756   2.980   3.295   7.096 -0.1660  0.3086  0.3340
   28SAPC  H20R 3757   3.043   3.363   7.035 -0.0209 -2.0817 -2.3979
   28SAPC  H20S 3758   2.895   3.356   7.134 -0.0226  2.2343 -2.1717
   28SAPC  H20T 3759   2.946   3.206   7.040  2.7504 -1.2721  0.8870
   28SAPC   C33 3760   3.880   3.950   7.151 -0.4205  0.4763  0.1019
   28SAPC   H3X 3761   3.824   4.045   7.140 -1.4744 -0.2821 -1.5656
   28SAPC   H3Y 3762   3.977   3.974   7.102  0.7810  1.4029  2.7902
   28SAPC   C34 3763   3.913   3.922   7.295 -0.1947  0.1149 -0.0429
   28SAPC   H4X 3764   3.994   3.989   7.332 -0.1978  1.2260 -1.9569
   28SAPC   H4Y 3765   3.933   3.813   7.303 -0.1104 -0.0183 -1.7710
   28SAPC   C35 3766   3.792   3.955   7.390  0.8250 -0.0364 -0.0254
   28SAPC   H5X 3767   3.708   3.893   7.352  0.6141 -0.7521  1.5362
   28SAPC   H5Y 3768   3.759   4.061   7.384  2.0990  0.5205  1.8642
   28SAPC   C36 3769   3.824   3.927   7.535  0.0244 -0.5266 -0.1449
   28SAPC   H6X 3770   3.888   4.010   7.571 -1.5433  1.3213 -1.3594
   28SAPC   H6Y 3771   3.869   3.828   7.559 -0.5850 -0.6911  0.3411
   28SAPC   C37 3772   3.694   3.933   7.618 -0.2549  0.2386 -0.5174
   28SAPC   H7X 3773   3.634   3.843   7.593  0.4051 -0.6355  0.8815
   28SAPC   H7Y 3774   3.633   4.024   7.601 -1.3034 -0.7362 -2.2489
   28SAPC   C38 3775   3.722   3.924   7.774 -0.5085 -0.0735  0.8351
   28SAPC   H8X 3776   3.784   4.008   7.811 -0.7933  0.1361  0.8368
   28SAPC   H8Y 3777   3.775   3.830   7.800 -0.5728 -0.3284  0.0756
   28SAPC   C39 3778   3.586   3.936   7.851  0.3182 -0.9376 -0.3580
   28SAPC   H9X 3779   3.515   3.859   7.813 -0.2234  0.5774 -2.6197
   28SAPC   H9Y 3780   3.538   4.033   7.823 -2.4241 -2.2862 -0.7210
   28SAPC  C310 3781   3.601   3.950   8.000  0.5572 -0.8705  0.0516
   28SAPC  H10X 3782   3.667   4.037   8.022  1.6795 -1.5579 -0.5147
   28SAPC  H10Y 3783   3.633   3.850   8.038 -3.3963 -2.0406  0.8428
   28SAPC  C311 3784   3.464   3.968   8.079  0.6948 -0.3242 -0.0676
   28SAPC  H11X 3785   3.387   3.900   8.036  1.3034 -2.5594  2.1601
   28SAPC  H11Y 3786   3.416   4.068   8.080  2.0226  0.5466 -4.0716
   28SAPC  C312 3787   3.463   3.920   8.231 -0.3349 -0.2364  0.9340
   28SAPC  H12X 3788   3.553   3.971   8.272 -0.0525  1.0885 -1.2015
   28SAPC  H12Y 3789   3.487   3.812   8.224  0.4018  0.0074 -0.6219
   28SAPC  C313 3790   3.341   3.948   8.309 -0.6864 -0.7030  0.6567
   28SAPC  H13X 3791   3.256   3.888   8.270 -0.9641 -1.8259  2.8344
   28SAPC  H13Y 3792   3.326   4.058   8.307 -0.5428 -0.6888  0.2975
   28SAPC  C314 3793   3.368   3.914   8.462 -0.2044  0.0320 -0.1580
   28SAPC  H14X 3794   3.306   3.972   8.533 -1.0703 -1.1625  0.1034
   28SAPC  H14Y 3795   3.476   3.935   8.477  0.1380 -1.1616 -0.8390
   28SAPC  C315 3796   3.343   3.769   8.485 -0.6919  0.3121  0.2559
   28SAPC  H15X 3797   3.403   3.711   8.412  1.7732  1.6309  1.1171
   28SAPC  H15Y 3798   3.235   3.748   8.471 -0.8737  0.4481  1.3886
   28SAPC  C316 3799   3.387   3.721   8.621  0.0277  0.4906  0.3948
   28SAPC  H16X 3800   3.351   3.617   8.623 -1.5567  1.0247  0.6654
   28SAPC  H16Y 3801   3.342   3.791   8.695  0.5291  0.7696  0.4435
   28SAPC  C317 3802   3.542   3.709   8.641 -0.1214 -0.4593 -0.2645
   28SAPC  H17X 3803   3.598   3.800   8.610 -0.3364 -0.8302 -1.8141
   28SAPC  H17Y 3804   3.581   3.644   8.559 -1.8846  0.6236 -2.0440
   28SAPC  C318 3805   3.580   3.666   8.785  0.3163  0.6654 -0.1894
   28SAPC  H18X 3806   3.689   3.641   8.786  0.4208  1.1166 -0.2107
   28SAPC  H18Y 3807   3.516   3.577   8.804  1.4682 -0.0546  0.4472
   28SAPC  H18Z 3808   3.553   3.748   8.854  2.6607  0.4745  1.0684
   29SAPC     N 3809   6.380   0.530   6.178 -0.1730  0.1249  0.2198
   29SAPC   C12 3810   6.356   0.677   6.137  0.1224 -0.9371  0.6495
   29SAPC  H12A 3811   6.251   0.702   6.133  0.3060 -0.2886 -1.5009
   29SAPC  H12B 3812   6.392   0.704   6.038 -1.2110  4.5882  1.2998
   29SAPC   C13 3813   6.306   0.438   6.090  0.0483 -0.5097  0.3980
   29SAPC  H13A 3814   6.199   0.454   6.090 -0.0401 -0.8192 -1.4527
   29SAPC  H13B 3815   6.343   0.454   5.989 -0.6219  0.6275  0.3219
   29SAPC  H13C 3816   6.332   0.341   6.129  3.2451  0.6234  1.3954
   29SAPC   C14 3817   6.525   0.496   6.179  0.7389 -0.1180 -0.0738
   29SAPC  H14A 3818   6.576   0.539   6.095 -0.8326  1.1568 -0.4288
   29SAPC  H14B 3819   6.584   0.535   6.261  0.0812 -0.9299  0.8215
   29SAPC  H14C 3820   6.538   0.389   6.173  2.8368  0.1629 -1.6246
   29SAPC   C15 3821   6.324   0.504   6.313  0.0810  0.0431 -0.2088
   29SAPC  H15A 3822   6.220   0.531   6.316  0.2064  0.6268 -0.8058
   29SAPC  H15B 3823   6.347   0.402   6.341  1.2683  0.1202 -0.8001
   29SAPC  H15C 3824   6.371   0.567   6.387 -1.2551  1.1161 -0.2425
   29SAPC   C11 3825   6.418   0.789   6.225 -0.2556  0.7931 -0.2071
   29SAPC  H11A 3826   6.419   0.884   6.168  0.4582  0.0453 -1.4630
   29SAPC  H11B 3827   6.525   0.767   6.242 -0.1159  2.0072  0.6390
   29SAPC     P 3828   6.284   0.917   6.410 -0.0812 -0.2343 -0.6407
   29SAPC   O13 3829   6.240   1.002   6.292 -0.4555 -0.0439 -0.3449
   29SAPC   O14 3830   6.182   0.873   6.504 -1.0308 -0.0528  0.0234
   29SAPC   O12 3831   6.366   0.793   6.362  0.0313 -0.4143 -0.0711
   29SAPC   O11 3832   6.401   1.010   6.479  0.1744 -0.0404  0.5912
   29SAPC    C1 3833   6.539   0.991   6.460 -0.1272 -0.3956  0.6784
   29SAPC    HA 3834   6.560   0.950   6.359 -1.9993 -0.1030  0.1320
   29SAPC    HB 3835   6.573   1.097   6.461 -0.4093 -0.2904 -0.2662
   29SAPC    C2 3836   6.599   0.910   6.571  0.4908 -0.7885 -0.2227
   29SAPC    HS 3837   6.584   0.802   6.551 -0.8300 -0.3873 -1.6711
   29SAPC   O21 3838   6.565   0.974   6.693  0.1504  0.1449 -0.0619
   29SAPC   C21 3839   6.534   0.889   6.792 -0.2007  0.5278 -0.6471
   29SAPC   O22 3840   6.546   0.764   6.779  0.5348 -0.5193 -0.3459
   29SAPC   C22 3841   6.498   0.970   6.911  0.5472  0.0478 -0.3108
   29SAPC   H2R 3842   6.582   1.041   6.928  1.1345 -1.0951  2.0446
   29SAPC   H2S 3843   6.402   1.023   6.893  0.4627  0.0328  0.0778
   29SAPC    C3 3844   6.749   0.927   6.561 -0.9584 -0.7192 -0.4438
   29SAPC    HX 3845   6.764   1.036   6.547  0.2804 -0.5673  1.6411
   29SAPC    HY 3846   6.796   0.881   6.472 -0.0246  3.5163 -2.4163
   29SAPC   O31 3847   6.822   0.890   6.676  0.1429  0.8158 -0.0770
   29SAPC   C31 3848   6.835   0.757   6.703  0.2575  0.2419  0.6758
   29SAPC   O32 3849   6.808   0.672   6.618 -0.4246  0.0767 -0.0218
   29SAPC   C32 3850   6.893   0.735   6.842  0.5197 -0.1756 -0.2832
   29SAPC   H2X 3851   6.824   0.787   6.912  0.7394 -2.0234  1.4004
   29SAPC   H2Y 3852   6.996   0.775   6.853  0.3020  0.0425  1.1291
   29SAPC   C23 3853   6.496   0.891   7.041 -0.9736 -0.1873  0.4731
   29SAPC   H3R 3854   6.543   0.791   7.024  0.5099  0.5684  0.0058
   29SAPC   H3S 3855   6.389   0.867   7.058 -0.3247 -1.1435  4.1665
   29SAPC   C24 3856   6.563   0.961   7.156  0.2750 -0.2600 -0.0700
   29SAPC   H4R 3857   6.483   1.025   7.200  0.0823  0.0193 -0.8108
   29SAPC   H4S 3858   6.651   1.024   7.129 -0.9543  0.2042 -3.4242
   29SAPC   C25 3859   6.606   0.863   7.267 -0.4101 -0.5631 -0.9499
   29SAPC   H5R 3860   6.651   0.772   7.222  1.0558  0.0405 -0.7775
   29SAPC   C26 3861   6.611   0.877   7.404 -0.6899  0.0102  0.4605
   29SAPC   H6R 3862   6.653   0.792   7.460 -0.7579 -2.0074 -2.3452
   29SAPC   C27 3863   6.563   0.988   7.489  0.1533 -0.4423  0.5322
   29SAPC   H7R 3864   6.521   1.075   7.434  1.0134 -0.5236 -0.2765
   29SAPC   H7S 3865   6.647   1.025   7.551  0.1011  0.1134  0.2820
   29SAPC   C28 3866   6.459   0.922   7.572  0.2424  0.0150  0.5225
   29SAPC   H8R 3867   6.366   0.909   7.514  1.7398 -0.4543 -1.9200
   29SAPC   C29 3868   6.465   0.880   7.699 -0.3433 -0.6105 -0.0420
   29SAPC   H9R 3869   6.376   0.838   7.749  0.2342  0.9577  2.4714
   29SAPC  C210 3870   6.594   0.885   7.783  0.0649  0.0048  0.3171
   29SAPC  H10R 3871   6.676   0.834   7.730 -1.5315 -0.6831 -1.6196
   29SAPC  H10S 3872   6.578   0.827   7.877 -0.3951 -1.0460 -0.4007
   29SAPC  C211 3873   6.637   1.024   7.824 -0.4872 -0.2358 -0.0667
   29SAPC  H11R 3874   6.652   1.086   7.735  1.8029  0.1171  0.5169
   29SAPC  C212 3875   6.660   1.075   7.944  0.3681  0.4428 -0.2409
   29SAPC  H12R 3876   6.692   1.180   7.948 -0.0237  0.5444  0.3167
   29SAPC  C213 3877   6.639   1.005   8.078 -0.3037  0.2018  0.1652
   29SAPC  H13R 3878   6.736   1.004   8.133 -1.4619 -2.4705  2.3870
   29SAPC  H13S 3879   6.601   0.901   8.074  1.0917 -0.3079 -0.6026
   29SAPC  C214 3880   6.534   1.083   8.153 -0.4190 -0.1112 -0.1105
   29SAPC  H14R 3881   6.548   1.189   8.178 -0.3799 -0.0798 -0.2649
   29SAPC  C215 3882   6.404   1.041   8.158  0.1791  0.3308 -0.1267
   29SAPC  H15R 3883   6.328   1.111   8.196  1.8874  1.9199  0.5683
   29SAPC  C216 3884   6.342   0.906   8.117 -0.2723  0.3075  1.0457
   29SAPC  H16R 3885   6.414   0.823   8.136 -0.9588 -1.2235 -2.2455
   29SAPC  H16S 3886   6.318   0.901   8.009 -1.5877  0.9935  1.2931
   29SAPC  C217 3887   6.219   0.887   8.206 -0.3847  0.2972  1.0158
   29SAPC  H17R 3888   6.148   0.972   8.192  0.6980  1.3552  1.7737
   29SAPC  H17S 3889   6.255   0.901   8.310  0.0548  0.2727  0.8691
   29SAPC  C218 3890   6.153   0.754   8.191  0.7283  0.2395  0.1879
   29SAPC  H18R 3891   6.236   0.682   8.207  0.5004 -0.6098 -2.0405
   29SAPC  H18S 3892   6.120   0.735   8.087 -1.4769 -0.4312  0.9672
   29SAPC  C219 3893   6.030   0.738   8.284  0.7780  0.1384 -0.1287
   29SAPC  H19R 3894   5.946   0.802   8.250  0.3296 -0.1516  0.4128
   29SAPC  H19S 3895   6.063   0.765   8.386 -0.2689 -1.6681  0.7350
   29SAPC  C220 3896   5.980   0.599   8.297 -0.0259  0.2794 -0.2655
   29SAPC  H20R 3897   5.874   0.599   8.332  0.7704 -1.7269  2.5579
   29SAPC  H20S 3898   6.039   0.539   8.370  1.1474  0.5085 -1.0020
   29SAPC  H20T 3899   5.993   0.543   8.202  0.7901 -1.6679  0.9282
   29SAPC   C33 3900   6.903   0.583   6.879 -0.1516  0.3665 -0.4839
   29SAPC   H3X 3901   6.961   0.529   6.802  0.4527  0.1307  0.1266
   29SAPC   H3Y 3902   6.803   0.533   6.871  0.9352 -1.8439 -1.1509
   29SAPC   C34 3903   6.967   0.559   7.012 -0.0773  0.0665  0.7293
   29SAPC   H4X 3904   7.069   0.604   7.006  0.7516 -1.6966  0.9929
   29SAPC   H4Y 3905   6.966   0.448   7.017 -1.9025 -0.0636 -1.1361
   29SAPC   C35 3906   6.879   0.612   7.121  0.2454 -0.4793  0.9253
   29SAPC   H5X 3907   6.780   0.564   7.101 -0.0588 -0.3295  2.0063
   29SAPC   H5Y 3908   6.882   0.723   7.117  1.1443 -0.5080 -1.9184
   29SAPC   C36 3909   6.925   0.549   7.260 -0.2530  0.2406 -0.4509
   29SAPC   H6X 3910   7.032   0.566   7.281 -0.4296  2.0852 -0.8295
   29SAPC   H6Y 3911   6.899   0.441   7.257 -0.1817  0.1733  0.7716
   29SAPC   C37 3912   6.837   0.602   7.377  0.4159 -0.0587  0.1897
   29SAPC   H7X 3913   6.727   0.599   7.357  0.4852  1.8794 -0.7283
   29SAPC   H7Y 3914   6.866   0.709   7.387  0.0994  0.4538 -3.0436
   29SAPC   C38 3915   6.885   0.538   7.511 -0.2801 -0.1815  0.8672
   29SAPC   H8X 3916   6.995   0.542   7.521 -0.3428  1.1010  1.1411
   29SAPC   H8Y 3917   6.846   0.434   7.516  2.3488 -1.2135  1.6193
   29SAPC   C39 3918   6.834   0.618   7.631  0.1133  1.3308 -0.0103
   29SAPC   H9X 3919   6.726   0.598   7.646 -0.1043  0.9236 -1.8867
   29SAPC   H9Y 3920   6.864   0.722   7.604  1.5179  0.5189 -1.8257
   29SAPC  C310 3921   6.907   0.579   7.765 -0.0082 -0.1137  0.2489
   29SAPC  H10X 3922   7.015   0.581   7.738 -0.2388  1.6480 -0.7220
   29SAPC  H10Y 3923   6.882   0.475   7.796 -1.5771  0.2061  0.1582
   29SAPC  C311 3924   6.896   0.673   7.881  0.5397 -0.0762  0.1351
   29SAPC  H11X 3925   6.786   0.669   7.895  0.3656 -1.2675 -1.2986
   29SAPC  H11Y 3926   6.917   0.780   7.863 -3.3697  0.8283  0.0218
   29SAPC  C312 3927   6.974   0.631   8.004  0.5613 -0.2206 -0.4062
   29SAPC  H12X 3928   7.080   0.655   7.983  0.6437 -1.3795 -1.4713
   29SAPC  H12Y 3929   6.962   0.522   8.025 -0.3652 -0.0453  0.0358
   29SAPC  C313 3930   6.929   0.701   8.137  0.6413 -0.0975 -0.8087
   29SAPC  H13X 3931   6.914   0.809   8.116 -2.6862  0.0884  1.7145
   29SAPC  H13Y 3932   7.012   0.678   8.207  0.7348 -1.6840 -1.4099
   29SAPC  C314 3933   6.797   0.651   8.209  0.6054  0.0442 -0.2220
   29SAPC  H14X 3934   6.704   0.673   8.152  1.2942  1.4220 -0.8681
   29SAPC  H14Y 3935   6.783   0.717   8.298 -2.8872 -0.0310 -0.5642
   29SAPC  C315 3936   6.798   0.506   8.260 -0.0317 -0.8468 -0.2173
   29SAPC  H15X 3937   6.778   0.432   8.179  0.6971 -1.9458  0.5729
   29SAPC  H15Y 3938   6.706   0.486   8.318 -0.3340 -0.4930 -0.5702
   29SAPC  C316 3939   6.904   0.470   8.361 -0.8140  0.1951  0.0505
   29SAPC  H16X 3940   6.997   0.470   8.300 -0.2735  0.7380  0.8434
   29SAPC  H16Y 3941   6.893   0.369   8.405  0.9408 -1.4023 -2.8673
   29SAPC  C317 3942   6.918   0.572   8.470 -0.7179 -0.6414 -0.4029
   29SAPC  H17X 3943   6.820   0.583   8.520 -0.4899 -1.4849  0.2474
   29SAPC  H17Y 3944   6.948   0.673   8.434 -0.9262  1.0074  3.4956
   29SAPC  C318 3945   7.013   0.535   8.586  0.2053  0.0271  0.0940
   29SAPC  H18X 3946   7.120   0.518   8.561  0.4942  0.9588  0.6250
   29SAPC  H18Y 3947   6.985   0.432   8.615  0.3395  0.4428  1.7816
   29SAPC  H18Z 3948   7.017   0.611   8.667  3.0976 -1.4579  1.4596
   30SAPC     N 3949   4.586   1.149   6.305  0.1648  0.2247 -0.3800
   30SAPC   C12 3950   4.595   1.138   6.459  0.2120 -0.1393  0.3102
   30SAPC  H12A 3951   4.699   1.118   6.479  0.7671  1.5588 -0.7075
   30SAPC  H12B 3952   4.535   1.057   6.499  0.3839 -1.0712 -1.2261
   30SAPC   C13 3953   4.453   1.207   6.262  0.0242 -0.2490  1.0210
   30SAPC  H13A 3954   4.370   1.149   6.300  0.3187  0.5773  3.0548
   30SAPC  H13B 3955   4.429   1.304   6.301 -0.9684 -1.3809  3.4350
   30SAPC  H13C 3956   4.459   1.209   6.155  1.8903 -1.9236  1.0259
   30SAPC   C14 3957   4.697   1.238   6.257  0.5252  0.4391 -0.5354
   30SAPC  H14A 3958   4.793   1.190   6.270 -0.9597 -2.8713 -0.7692
   30SAPC  H14B 3959   4.692   1.250   6.149 -1.9463 -0.6931 -0.6290
   30SAPC  H14C 3960   4.685   1.332   6.308 -1.2668  0.6104 -1.1789
   30SAPC   C15 3961   4.596   1.014   6.246 -0.1728 -0.4384  0.3026
   30SAPC  H15A 3962   4.511   0.953   6.270 -0.9261  0.5077  0.1022
   30SAPC  H15B 3963   4.594   1.008   6.138  1.5139  0.3751  0.1859
   30SAPC  H15C 3964   4.677   0.959   6.291  1.2615  2.7818  2.0026
   30SAPC   C11 3965   4.574   1.273   6.542  0.3260 -0.6795 -0.5840
   30SAPC  H11A 3966   4.551   1.263   6.651  1.1633 -0.6318 -0.3926
   30SAPC  H11B 3967   4.479   1.317   6.507  1.4711  1.1888 -1.4928
   30SAPC     P 3968   4.802   1.364   6.600  0.0016  0.4520 -0.0754
   30SAPC   O13 3969   4.872   1.235   6.582  0.4077  0.2312 -0.2926
   30SAPC   O14 3970   4.875   1.492   6.575  0.1426  0.4608 -0.2702
   30SAPC   O12 3971   4.678   1.367   6.516  0.4255  0.1148  0.2080
   30SAPC   O11 3972   4.750   1.375   6.747 -0.1487  0.1142  0.4395
   30SAPC    C1 3973   4.812   1.320   6.858 -0.1980 -0.4122 -0.8176
   30SAPC    HA 3974   4.815   1.210   6.837 -1.7870 -0.7510  0.5180
   30SAPC    HB 3975   4.919   1.348   6.853 -0.6134  1.6896  1.0881
   30SAPC    C2 3976   4.736   1.353   6.992 -0.0449 -0.0823  0.6101
   30SAPC    HS 3977   4.778   1.299   7.080 -0.4948 -1.9667 -0.2901
   30SAPC   O21 3978   4.594   1.331   6.980 -0.7653  0.0562 -0.7217
   30SAPC   C21 3979   4.559   1.210   6.953  0.8881 -0.0782  0.1040
   30SAPC   O22 3980   4.634   1.112   6.939  0.1598 -0.0015  0.1189
   30SAPC   C22 3981   4.400   1.206   6.948 -0.4359 -0.0145  0.1786
   30SAPC   H2R 3982   4.362   1.285   7.017 -1.9307  0.4043 -1.0839
   30SAPC   H2S 3983   4.368   1.243   6.849  0.8789  3.8091  1.0091
   30SAPC    C3 3984   4.750   1.502   7.029 -0.8193 -0.5880  0.2106
   30SAPC    HX 3985   4.723   1.564   6.940 -0.6505  0.3539  0.8088
   30SAPC    HY 3986   4.858   1.520   7.047 -0.8333 -1.8437  1.7261
   30SAPC   O31 3987   4.677   1.511   7.155  0.3472 -0.0386  0.9160
   30SAPC   C31 3988   4.578   1.591   7.142  0.3139 -0.4195 -0.1273
   30SAPC   O32 3989   4.556   1.664   7.045  0.3888 -0.7219 -0.2581
   30SAPC   C32 3990   4.499   1.592   7.278  0.2771  0.5708 -0.1111
   30SAPC   H2X 3991   4.573   1.629   7.353  1.3442 -1.8827  0.1575
   30SAPC   H2Y 3992   4.487   1.484   7.300 -0.7890  0.7653  0.3127
   30SAPC   C23 3993   4.334   1.067   6.973  0.1551  0.0229  0.9495
   30SAPC   H3R 3994   4.399   0.981   6.950 -1.5876 -1.2428  0.5744
   30SAPC   H3S 3995   4.241   1.070   6.913  0.4439 -0.0843  0.4993
   30SAPC   C24 3996   4.296   1.054   7.122  0.1997 -0.1383  0.7702
   30SAPC   H4R 3997   4.387   1.078   7.180 -0.0455  0.0714  1.0716
   30SAPC   H4S 3998   4.276   0.949   7.153 -0.5081 -0.8807 -1.8841
   30SAPC   C25 3999   4.181   1.139   7.154  0.0960  0.3297 -0.4530
   30SAPC   H5R 4000   4.100   1.117   7.083  2.9086 -0.0209 -3.8215
   30SAPC   C26 4001   4.147   1.228   7.250  0.1788  0.0450  0.7341
   30SAPC   H6R 4002   4.042   1.259   7.254  0.1516 -0.1512  2.5024
   30SAPC   C27 4003   4.224   1.285   7.369  0.1077 -0.1098 -0.2547
   30SAPC   H7R 4004   4.320   1.320   7.326  0.3766 -2.1294 -1.4683
   30SAPC   H7S 4005   4.244   1.211   7.449 -1.2746  0.3331  0.5447
   30SAPC   C28 4006   4.146   1.389   7.441 -0.6716  0.0481  0.8978
   30SAPC   H8R 4007   4.103   1.471   7.382 -1.8297 -0.0305  1.6108
   30SAPC   C29 4008   4.105   1.387   7.570  0.5072 -0.2717  0.2696
   30SAPC   H9R 4009   4.046   1.471   7.608  0.6361 -0.4848  0.9614
   30SAPC  C210 4010   4.137   1.285   7.674  0.1205  0.3630 -0.0338
   30SAPC  H10R 4011   4.194   1.336   7.754 -1.4574 -0.6792  1.8321
   30SAPC  H10S 4012   4.192   1.199   7.631 -2.2342 -0.9668 -0.5556
   30SAPC  C211 4013   4.018   1.212   7.732  0.4459 -0.9191  0.1841
   30SAPC  H11R 4014   3.917   1.238   7.696  0.2323 -1.7447  0.1739
   30SAPC  C212 4015   4.020   1.127   7.838  0.1876 -0.6995 -0.4542
   30SAPC  H12R 4016   3.932   1.067   7.864  0.1128  0.2544  1.6608
   30SAPC  C213 4017   4.138   1.084   7.913 -0.0027 -0.2916 -0.6158
   30SAPC  H13R 4018   4.230   1.146   7.901  0.2777 -0.0486  2.0922
   30SAPC  H13S 4019   4.168   0.991   7.858 -0.1735 -0.0132 -1.1795
   30SAPC  C214 4020   4.113   1.044   8.060  0.3082 -0.1668  0.4667
   30SAPC  H14R 4021   4.022   1.093   8.097  0.1011  1.1216 -1.5682
   30SAPC  C215 4022   4.186   0.970   8.150  0.0560 -0.3796  0.5120
   30SAPC  H15R 4023   4.140   0.955   8.249 -1.9160 -0.2375 -0.3344
   30SAPC  C216 4024   4.315   0.897   8.113  0.0716 -0.3644 -0.0782
   30SAPC  H16R 4025   4.397   0.939   8.174  0.3738 -0.9181 -0.1013
   30SAPC  H16S 4026   4.350   0.916   8.009  1.2509 -2.3496 -0.0759
   30SAPC  C217 4027   4.318   0.745   8.132 -0.1297 -0.8807 -0.0550
   30SAPC  H17R 4028   4.421   0.707   8.116 -0.0124 -1.4442  1.7678
   30SAPC  H17S 4029   4.242   0.695   8.068 -1.5972  1.1272  0.0263
   30SAPC  C218 4030   4.284   0.724   8.280 -0.2631 -0.3399 -0.2334
   30SAPC  H18R 4031   4.175   0.742   8.293  0.0819  0.3083  2.1043
   30SAPC  H18S 4032   4.341   0.791   8.348  0.5267 -0.9208 -0.3152
   30SAPC  C219 4033   4.311   0.584   8.338  0.9228 -0.0192 -0.9113
   30SAPC  H19R 4034   4.259   0.519   8.265  2.5356  0.1878 -2.3170
   30SAPC  H19S 4035   4.265   0.585   8.439 -0.9257  1.5346 -1.7142
   30SAPC  C220 4036   4.454   0.522   8.352  0.1917 -0.4752 -0.7939
   30SAPC  H20R 4037   4.504   0.538   8.254 -2.6175  4.5044 -1.7541
   30SAPC  H20S 4038   4.448   0.414   8.380  1.3316 -1.3935 -3.7649
   30SAPC  H20T 4039   4.513   0.579   8.426  3.5740 -2.5553 -1.6853
   30SAPC   C33 4040   4.364   1.669   7.280 -0.3370  0.2342  0.4561
   30SAPC   H3X 4041   4.292   1.619   7.212 -0.0441  0.0602  0.2738
   30SAPC   H3Y 4042   4.383   1.769   7.235 -0.2154  1.1740  2.4668
   30SAPC   C34 4043   4.303   1.696   7.417  0.6654  0.2585 -0.5999
   30SAPC   H4X 4044   4.300   1.597   7.467  0.9159  1.7122  2.4611
   30SAPC   H4Y 4045   4.199   1.729   7.394  0.6716  0.3463 -0.5025
   30SAPC   C35 4046   4.381   1.811   7.488  0.7299  0.1669 -0.2045
   30SAPC   H5X 4047   4.380   1.896   7.416 -1.5750  2.4118  2.2485
   30SAPC   H5Y 4048   4.487   1.780   7.491  0.5681 -0.9576 -3.0458
   30SAPC   C36 4049   4.330   1.832   7.628 -0.3253  0.0996 -0.0362
   30SAPC   H6X 4050   4.341   1.738   7.687 -0.3496 -1.5531 -2.4920
   30SAPC   H6Y 4051   4.223   1.858   7.614 -0.0839 -0.0075 -2.5679
   30SAPC   C37 4052   4.397   1.940   7.711 -0.6149  0.0307  0.0594
   30SAPC   H7X 4053   4.381   2.039   7.663 -2.6480  0.3394  1.2522
   30SAPC   H7Y 4054   4.506   1.926   7.723 -0.6431 -1.2942 -0.9233
   30SAPC   C38 4055   4.338   1.946   7.850  0.5455 -0.9174 -0.1796
   30SAPC   H8X 4056   4.228   1.931   7.851  0.6731 -1.8658  0.1449
   30SAPC   H8Y 4057   4.365   2.045   7.894 -0.8924 -1.7338  2.7861
   30SAPC   C39 4058   4.398   1.846   7.950  0.0539  0.0615  0.0366
   30SAPC   H9X 4059   4.503   1.827   7.920 -0.5056 -1.7544 -0.9511
   30SAPC   H9Y 4060   4.341   1.751   7.939  0.4693 -0.2194  0.2954
   30SAPC  C310 4061   4.406   1.896   8.100 -0.5838  0.8759  0.7722
   30SAPC  H10X 4062   4.454   1.810   8.152 -0.7651  0.1829 -0.1849
   30SAPC  H10Y 4063   4.304   1.907   8.142 -0.6690  2.2852  0.2513
   30SAPC  C311 4064   4.479   2.030   8.113 -0.0755  0.2989 -0.5201
   30SAPC  H11X 4065   4.425   2.121   8.080  1.5749  1.9473  1.0371
   30SAPC  H11Y 4066   4.572   2.018   8.053  0.9450  1.6289  0.6987
   30SAPC  C312 4067   4.518   2.051   8.261 -0.1616 -0.2651  0.3473
   30SAPC  H12X 4068   4.607   2.118   8.264 -0.4354  0.1279 -0.1000
   30SAPC  H12Y 4069   4.550   1.951   8.297  0.9014 -0.3761 -0.8341
   30SAPC  C313 4070   4.415   2.104   8.359 -0.6912 -0.1543  0.6324
   30SAPC  H13X 4071   4.328   2.035   8.358 -0.0127 -1.0314 -0.6435
   30SAPC  H13Y 4072   4.382   2.209   8.343  0.4945  0.2428  0.6967
   30SAPC  C314 4073   4.480   2.099   8.501  0.1868 -0.1114  0.5012
   30SAPC  H14X 4074   4.553   2.183   8.505  0.6531 -0.4645 -0.3258
   30SAPC  H14Y 4075   4.548   2.012   8.510  0.8158  0.2631 -0.5062
   30SAPC  C315 4076   4.376   2.105   8.614  0.1752  0.0859  0.2948
   30SAPC  H15X 4077   4.299   2.185   8.611 -0.4877 -0.5173  0.9118
   30SAPC  H15Y 4078   4.435   2.130   8.704 -0.8626 -2.3760  1.7758
   30SAPC  C316 4079   4.298   1.970   8.641  0.5970  0.5427  0.1621
   30SAPC  H16X 4080   4.353   1.874   8.648  0.4909  0.3044 -1.8102
   30SAPC  H16Y 4081   4.230   1.943   8.557  1.4967  1.2361 -0.8065
   30SAPC  C317 4082   4.210   1.974   8.770 -0.5425  0.1053 -0.0859
   30SAPC  H17X 4083   4.163   2.075   8.772  1.5215  1.2682  4.6141
   30SAPC  H17Y 4084   4.273   1.964   8.861 -1.1593 -0.8566  0.2467
   30SAPC  C318 4085   4.093   1.870   8.769  0.5747  0.1041 -0.1084
   30SAPC  H18X 4086   4.009   1.900   8.701 -1.0329 -0.7776  1.4187
   30SAPC  H18Y 4087   4.055   1.861   8.873 -2.1561  0.2507 -1.0025
   30SAPC  H18Z 4088   4.130   1.771   8.736 -3.6625 -1.4037 -0.9884
   31SAPC     N 4089   2.710   1.222   6.295  0.4141  0.5007  0.2361
   31SAPC   C12 4090   2.666   1.292   6.424 -0.1872  0.3564 -0.6030
   31SAPC  H12A 4091   2.725   1.379   6.446  0.7305 -0.8838  2.4213
   31SAPC  H12B 4092   2.681   1.220   6.503 -0.3555 -1.8781 -2.5027
   31SAPC   C13 4093   2.684   1.321   6.180  0.1282  0.7925  0.2953
   31SAPC  H13A 4094   2.733   1.418   6.183  1.2711  0.2209  2.8144
   31SAPC  H13B 4095   2.707   1.290   6.079  0.7040 -1.1410  0.9795
   31SAPC  H13C 4096   2.578   1.338   6.187 -0.5067 -1.5053 -2.0936
   31SAPC   C14 4097   2.859   1.199   6.311  0.0332  0.2856 -0.0258
   31SAPC  H14A 4098   2.897   1.137   6.231 -0.5854  1.2991 -1.1484
   31SAPC  H14B 4099   2.916   1.291   6.311 -0.4658  0.6130 -1.0428
   31SAPC  H14C 4100   2.882   1.154   6.406  1.6530  0.5700 -0.2562
   31SAPC   C15 4101   2.644   1.086   6.276 -1.1905  0.6055  0.3190
   31SAPC  H15A 4102   2.678   1.044   6.183  0.5112  2.0248  0.2494
   31SAPC  H15B 4103   2.671   1.020   6.357  2.3415  1.9026  0.3455
   31SAPC  H15C 4104   2.536   1.088   6.278 -1.4550 -3.1434 -1.3277
   31SAPC   C11 4105   2.519   1.336   6.431 -0.1337  0.3932 -0.0908
   31SAPC  H11A 4106   2.487   1.390   6.339 -1.2987 -0.3920 -0.1592
   31SAPC  H11B 4107   2.501   1.404   6.518 -0.2196  1.6851 -1.0801
   31SAPC     P 4108   2.410   1.127   6.547  0.2615 -0.1706 -0.2405
   31SAPC   O13 4109   2.279   1.053   6.529  0.5275  0.3282  0.1818
   31SAPC   O14 4110   2.526   1.043   6.554  0.0399 -0.5373 -0.0943
   31SAPC   O12 4111   2.430   1.231   6.432  0.2691 -0.8679  0.5010
   31SAPC   O11 4112   2.403   1.217   6.681 -0.7369 -0.3511  0.7129
   31SAPC    C1 4113   2.294   1.292   6.721  0.8478  0.4156  0.2698
   31SAPC    HA 4114   2.281   1.388   6.666 -2.9125 -0.5183 -0.7518
   31SAPC    HB 4115   2.204   1.233   6.695 -0.0678  0.6186  2.7465
   31SAPC    C2 4116   2.286   1.317   6.875  0.0500 -0.1873  0.6265
   31SAPC    HS 4117   2.203   1.390   6.888  1.6511  1.8261 -0.0524
   31SAPC   O21 4118   2.405   1.363   6.923  0.0097 -0.0463 -0.3181
   31SAPC   C21 4119   2.426   1.492   6.918  0.1610  0.2635  0.0185
   31SAPC   O22 4120   2.350   1.576   6.867  0.2942  0.2066 -0.6248
   31SAPC   C22 4121   2.557   1.523   6.982 -0.0337  0.0697 -0.0468
   31SAPC   H2R 4122   2.597   1.426   7.021 -1.4060 -0.4825  0.0341
   31SAPC   H2S 4123   2.629   1.568   6.910 -1.3120  1.5884 -0.4296
   31SAPC    C3 4124   2.250   1.198   6.968 -0.3082  0.1924 -0.3529
   31SAPC    HX 4125   2.331   1.123   6.964 -1.0585 -0.7465  1.2832
   31SAPC    HY 4126   2.163   1.159   6.910 -2.0586  3.0315  0.1316
   31SAPC   O31 4127   2.217   1.239   7.101 -0.7076  0.3098 -0.2159
   31SAPC   C31 4128   2.114   1.177   7.161 -0.5827 -0.5043 -0.0000
   31SAPC   O32 4129   2.054   1.085   7.112  0.9765  0.4647  0.2434
   31SAPC   C32 4130   2.084   1.246   7.298 -0.0679  0.0800  0.2042
   31SAPC   H2X 4131   1.975   1.266   7.294 -0.2128 -0.7766 -0.9046
   31SAPC   H2Y 4132   2.128   1.348   7.304 -0.9105  0.4193  0.7315
   31SAPC   C23 4133   2.544   1.623   7.103  0.5348 -0.0198  0.1016
   31SAPC   H3R 4134   2.520   1.727   7.069  0.4272  0.6449  2.1196
   31SAPC   H3S 4135   2.646   1.638   7.144  0.5525  1.9824 -0.5636
   31SAPC   C24 4136   2.449   1.571   7.215 -0.9762  0.2237 -0.7150
   31SAPC   H4R 4137   2.512   1.593   7.304 -0.3980 -1.2445 -0.7345
   31SAPC   H4S 4138   2.446   1.460   7.212 -0.4890  0.1804  0.0383
   31SAPC   C25 4139   2.317   1.632   7.221  0.1970  0.0411 -0.3250
   31SAPC   H5R 4140   2.279   1.662   7.122  0.3585  2.0289  0.1837
   31SAPC   C26 4141   2.236   1.650   7.331  0.5443 -0.3092  0.4636
   31SAPC   H6R 4142   2.133   1.685   7.318  1.5888  1.9899 -2.5769
   31SAPC   C27 4143   2.272   1.619   7.474  0.0972  0.0478  0.3446
   31SAPC   H7R 4144   2.376   1.653   7.492  0.1864  0.6602 -1.1906
   31SAPC   H7S 4145   2.292   1.510   7.476 -2.3598 -0.4823 -0.4827
   31SAPC   C28 4146   2.185   1.659   7.588 -0.3781  0.3636  0.2003
   31SAPC   H8R 4147   2.083   1.690   7.560 -0.8192 -1.8040 -0.7829
   31SAPC   C29 4148   2.220   1.678   7.718  0.2234  1.0070  0.0967
   31SAPC   H9R 4149   2.142   1.703   7.792 -2.0158 -1.1195 -1.3566
   31SAPC  C210 4150   2.355   1.642   7.772 -0.0750  0.3723  0.1716
   31SAPC  H10R 4151   2.416   1.731   7.796 -1.2965  1.2070  0.2765
   31SAPC  H10S 4152   2.423   1.608   7.691  0.9741  1.4460  0.5739
   31SAPC  C211 4153   2.351   1.520   7.859  0.1018 -0.0523  0.0649
   31SAPC  H11R 4154   2.371   1.423   7.811 -1.5049 -0.7008  0.6270
   31SAPC  C212 4155   2.357   1.523   7.992 -0.4507  0.2143  0.7247
   31SAPC  H12R 4156   2.347   1.427   8.044 -0.5970 -0.0514  0.2164
   31SAPC  C213 4157   2.376   1.648   8.075  0.8769 -0.8052 -0.3053
   31SAPC  H13R 4158   2.319   1.729   8.026 -0.6992 -1.0631  1.0006
   31SAPC  H13S 4159   2.484   1.674   8.079  0.6219  0.2378  2.7402
   31SAPC  C214 4160   2.329   1.614   8.214  0.1668 -0.7048 -0.0169
   31SAPC  H14R 4161   2.402   1.576   8.286  0.2022 -1.0214 -0.2181
   31SAPC  C215 4162   2.209   1.637   8.257 -0.0837 -0.0791  0.3808
   31SAPC  H15R 4163   2.189   1.619   8.363 -2.2307 -0.1803  0.0161
   31SAPC  C216 4164   2.093   1.699   8.184 -0.2157 -0.2549 -0.3955
   31SAPC  H16R 4165   2.133   1.755   8.096  1.1168 -0.2259  0.2063
   31SAPC  H16S 4166   2.032   1.764   8.250  1.1661  0.7498 -0.0687
   31SAPC  C217 4167   2.008   1.574   8.135  0.3275 -0.3056  0.2983
   31SAPC  H17R 4168   2.009   1.488   8.206  0.0360 -1.5679 -1.1706
   31SAPC  H17S 4169   2.066   1.533   8.050  4.1355  0.9286  2.0724
   31SAPC  C218 4170   1.870   1.620   8.096  0.6815  0.7291  0.3144
   31SAPC  H18R 4171   1.870   1.720   8.048  0.4676  0.1871 -0.8660
   31SAPC  H18S 4172   1.813   1.632   8.190  2.6746  0.6191  1.5942
   31SAPC  C219 4173   1.793   1.526   8.003  0.3579  0.2690 -0.3310
   31SAPC  H19R 4174   1.694   1.573   7.984  0.3088 -0.3795 -1.8728
   31SAPC  H19S 4175   1.772   1.425   8.046  0.1946 -0.0232 -1.0735
   31SAPC  C220 4176   1.848   1.517   7.863  0.1899 -0.5568  0.6470
   31SAPC  H20R 4177   1.829   1.614   7.812 -1.9734 -0.4197  1.5852
   31SAPC  H20S 4178   1.794   1.435   7.812  1.1328  0.0553 -1.4461
   31SAPC  H20T 4179   1.958   1.511   7.861  0.1920 -0.3098 -0.0142
   31SAPC   C33 4180   2.130   1.158   7.413  0.1713  0.2313  0.5927
   31SAPC   H3X 4181   2.229   1.110   7.395 -0.1187 -0.1592  0.0026
   31SAPC   H3Y 4182   2.054   1.077   7.412 -0.9978  1.1866 -3.1256
   31SAPC   C34 4183   2.111   1.233   7.547 -0.0447 -0.1572  0.2436
   31SAPC   H4X 4184   2.011   1.274   7.572 -0.4926  0.1168 -1.8439
   31SAPC   H4Y 4185   2.184   1.317   7.556  0.5735 -0.6724  0.1071
   31SAPC   C35 4186   2.139   1.144   7.669  0.5217  0.0645  0.5313
   31SAPC   H5X 4187   2.245   1.111   7.658  0.2756 -0.6344  0.2125
   31SAPC   H5Y 4188   2.073   1.055   7.677 -0.0217  0.4588  0.4822
   31SAPC   C36 4189   2.122   1.219   7.807 -0.2551 -0.0727 -0.3350
   31SAPC   H6X 4190   2.026   1.276   7.802  0.9813  2.0580 -1.0964
   31SAPC   H6Y 4191   2.199   1.298   7.815 -1.1790  0.9465 -1.2298
   31SAPC   C37 4192   2.122   1.129   7.935  0.1209  0.1151  0.1157
   31SAPC   H7X 4193   2.223   1.086   7.946  0.9481  1.6722 -0.9367
   31SAPC   H7Y 4194   2.063   1.038   7.912 -0.2762  0.6019 -0.8561
   31SAPC   C38 4195   2.066   1.191   8.064 -0.6113  0.2611  0.2475
   31SAPC   H8X 4196   1.958   1.215   8.053 -0.8966 -1.0100  0.1176
   31SAPC   H8Y 4197   2.113   1.291   8.059  0.1415 -0.1380 -0.9297
   31SAPC   C39 4198   2.102   1.124   8.199  0.2342  0.3150 -0.4888
   31SAPC   H9X 4199   2.190   1.056   8.197 -0.7082 -0.9322 -1.1733
   31SAPC   H9Y 4200   2.010   1.068   8.227 -0.1685  1.3354  0.2934
   31SAPC  C310 4201   2.126   1.227   8.312  0.0299  0.3572  0.0455
   31SAPC  H10X 4202   2.045   1.302   8.303 -0.5015  0.0514  1.8690
   31SAPC  H10Y 4203   2.227   1.267   8.289  0.4520 -0.7873 -0.1740
   31SAPC  C311 4204   2.115   1.160   8.447 -0.3412  0.0168  0.0393
   31SAPC  H11X 4205   2.012   1.125   8.469 -0.0982  0.6881  2.6185
   31SAPC  H11Y 4206   2.120   1.249   8.513 -1.7440 -0.6096  1.0561
   31SAPC  C312 4207   2.231   1.063   8.482  0.3090 -0.2198 -0.3731
   31SAPC  H12X 4208   2.330   1.102   8.451 -0.5413  1.5455 -1.0109
   31SAPC  H12Y 4209   2.223   0.973   8.417 -1.7884 -0.2691 -0.1142
   31SAPC  C313 4210   2.218   1.030   8.627  0.4175  0.0817  0.1784
   31SAPC  H13X 4211   2.121   0.985   8.657  1.3982 -1.5032  1.1130
   31SAPC  H13Y 4212   2.205   1.125   8.684 -0.7756  0.2156 -0.2989
   31SAPC  C314 4213   2.324   0.941   8.689 -0.6548  0.5864  0.3727
   31SAPC  H14X 4214   2.322   0.928   8.799 -0.1899 -1.9933  0.1280
   31SAPC  H14Y 4215   2.415   1.001   8.667  0.1018 -0.4603  0.6235
   31SAPC  C315 4216   2.345   0.798   8.630  0.1760  0.6229  0.6851
   31SAPC  H15X 4217   2.356   0.817   8.521  1.9736 -0.2049  0.6690
   31SAPC  H15Y 4218   2.255   0.735   8.644  0.7763 -0.3554  0.3333
   31SAPC  C316 4219   2.485   0.730   8.665 -0.4992 -0.2026 -0.6220
   31SAPC  H16X 4220   2.567   0.805   8.653 -0.5622  0.3406  1.9476
   31SAPC  H16Y 4221   2.490   0.641   8.598 -0.6311 -0.0378 -0.8531
   31SAPC  C317 4222   2.494   0.687   8.814 -0.6177 -0.1649  0.3809
   31SAPC  H17X 4223   2.450   0.761   8.883 -0.8319 -1.3391  1.5430
   31SAPC  H17Y 4224   2.595   0.672   8.857 -0.0710 -2.9139 -1.5720
   31SAPC  C318 4225   2.409   0.554   8.828 -0.2313 -0.3303  0.3558
   31SAPC  H18X 4226   2.415   0.512   8.930  4.6043 -2.1575 -0.4286
   31SAPC  H18Y 4227   2.452   0.478   8.759 -1.0275  0.3129 -0.9036
   31SAPC  H18Z 4228   2.306   0.569   8.789  0.0574 -0.7655 -0.5983
   32SAPC     N 4229   4.895   2.334   6.278 -0.4588 -0.6518 -0.1148
   32SAPC   C12 4230   4.794   2.428   6.360 -0.0607  0.6229  0.1986
   32SAPC  H12A 4231   4.706   2.367   6.363  0.6287 -0.4747 -0.9397
   32SAPC  H12B 4232   4.768   2.500   6.284 -1.6478 -1.3961 -1.2799
   32SAPC   C13 4233   4.815   2.265   6.180 -0.0085 -0.0114 -0.2273
   32SAPC  H13A 4234   4.880   2.219   6.107  2.0216 -0.3872  1.7209
   32SAPC  H13B 4235   4.746   2.187   6.207  1.2591 -0.8714  0.6261
   32SAPC  H13C 4236   4.765   2.338   6.119 -0.9881 -0.7846 -0.3614
   32SAPC   C14 4237   5.002   2.421   6.233  0.6298  0.1179  0.6619
   32SAPC  H14A 4238   5.078   2.360   6.187  1.2997  0.8874  0.7292
   32SAPC  H14B 4239   4.976   2.480   6.146  0.3224 -0.9131  0.0371
   32SAPC  H14C 4240   5.048   2.477   6.314  0.2281  1.3285  0.0889
   32SAPC   C15 4241   4.971   2.239   6.370  1.0980 -0.9787  0.4337
   32SAPC  H15A 4242   5.041   2.189   6.305  2.2931  0.6546  0.4053
   32SAPC  H15B 4243   5.027   2.302   6.437 -1.4656  1.9738  0.0631
   32SAPC  H15C 4244   4.902   2.179   6.428  0.1166 -1.0833 -0.7995
   32SAPC   C11 4245   4.843   2.508   6.478 -0.0562 -0.3891  0.1315
   32SAPC  H11A 4246   4.919   2.447   6.531  0.1289  0.2054  0.5552
   32SAPC  H11B 4247   4.765   2.526   6.555 -0.7510  3.4108 -1.2235
   32SAPC     P 4248   4.829   2.743   6.368 -0.0201 -0.2164  0.2081
   32SAPC   O13 4249   4.922   2.843   6.309  0.0997 -0.2805  0.1116
   32SAPC   O14 4250   4.716   2.698   6.282 -0.4177 -0.2457 -0.5256
   32SAPC   O12 4251   4.913   2.625   6.429 -0.2783 -0.0287 -0.8025
   32SAPC   O11 4252   4.770   2.806   6.501  0.3710  0.2296 -0.4048
   32SAPC    C1 4253   4.837   2.900   6.587 -0.0858 -0.7558  0.2661
   32SAPC    HA 4254   4.934   2.924   6.540  0.4389 -0.6953  1.3513
   32SAPC    HB 4255   4.771   2.982   6.622  0.1349 -0.8322  0.8617
   32SAPC    C2 4256   4.873   2.840   6.730  0.3798  0.0217  0.2527
   32SAPC    HS 4257   4.910   2.737   6.708  0.2138  0.1748 -0.8271
   32SAPC   O21 4258   4.761   2.845   6.820 -0.3009 -0.3401  0.0103
   32SAPC   C21 4259   4.765   2.751   6.917 -0.0759 -0.2525 -0.4865
   32SAPC   O22 4260   4.841   2.658   6.917  0.2814  0.3008 -0.2840
   32SAPC   C22 4261   4.663   2.792   7.012 -0.3516  0.2057  0.3329
   32SAPC   H2R 4262   4.656   2.903   7.010  1.3704  0.3450  0.9029
   32SAPC   H2S 4263   4.565   2.753   6.977  0.2812 -2.2582  1.1378
   32SAPC    C3 4264   5.005   2.909   6.795 -0.2672  0.4868  0.4456
   32SAPC    HX 4265   4.982   3.015   6.820  0.6774  0.9278 -0.4748
   32SAPC    HY 4266   5.063   2.920   6.701 -3.9293 -2.8356 -2.4801
   32SAPC   O31 4267   5.067   2.836   6.909 -0.6172 -0.2855  0.0147
   32SAPC   C31 4268   5.031   2.880   7.033  0.3752  0.1839  0.1751
   32SAPC   O32 4269   4.947   2.965   7.047 -0.2488  0.1651  0.0452
   32SAPC   C32 4270   5.093   2.789   7.135  0.4780  0.1069 -0.6408
   32SAPC   H2X 4271   5.168   2.724   7.084 -1.0936 -0.6297 -2.0855
   32SAPC   H2Y 4272   5.014   2.717   7.166 -1.5900  3.2992  2.1491
   32SAPC   C23 4273   4.698   2.743   7.150  0.7185 -0.6233 -0.4827
   32SAPC   H3R 4274   4.784   2.805   7.181  1.0401 -1.7661  1.0484
   32SAPC   H3S 4275   4.747   2.643   7.159 -0.4250 -1.2328 -0.7671
   32SAPC   C24 4276   4.581   2.753   7.250  0.8922  0.1543  0.2998
   32SAPC   H4R 4277   4.501   2.687   7.211  1.3425  0.0261 -0.4348
   32SAPC   H4S 4278   4.545   2.858   7.252  2.7267  0.8241  1.8858
   32SAPC   C25 4279   4.616   2.712   7.392  0.0091 -0.8960  0.0316
   32SAPC   H5R 4280   4.629   2.606   7.421  1.0523 -0.6093  0.6758
   32SAPC   C26 4281   4.640   2.801   7.493 -0.3655  0.5150 -0.1458
   32SAPC   H6R 4282   4.663   2.762   7.593  0.4603 -0.2916 -0.6282
   32SAPC   C27 4283   4.642   2.955   7.484  0.3128  0.2578  0.3889
   32SAPC   H7R 4284   4.650   2.994   7.381  2.1863 -1.4011 -0.1547
   32SAPC   H7S 4285   4.732   2.995   7.534  1.7741  0.5307 -2.2848
   32SAPC   C28 4286   4.519   3.014   7.553 -0.8130  0.0565  0.0158
   32SAPC   H8R 4287   4.459   3.062   7.475  0.3259  0.2486 -0.7745
   32SAPC   C29 4288   4.484   3.024   7.683 -0.0599  0.1494 -0.4009
   32SAPC   H9R 4289   4.388   3.073   7.707  0.1099  0.1611  0.2820
   32SAPC  C210 4290   4.549   2.970   7.809 -0.0426  0.2702  0.3212
   32SAPC  H10R 4291   4.585   3.051   7.876 -0.1120  1.1437 -0.6923
   32SAPC  H10S 4292   4.643   2.914   7.785  0.6202  1.6552 -0.3939
   32SAPC  C211 4293   4.453   2.879   7.884  0.4075 -0.3440 -0.6860
   32SAPC  H11R 4294   4.399   2.802   7.828  1.0136 -1.7117  0.5447
   32SAPC  C212 4295   4.424   2.879   8.013 -0.2513 -0.3874 -0.1473
   32SAPC  H12R 4296   4.353   2.802   8.044  1.3765 -0.4485  4.0776
   32SAPC  C213 4297   4.479   2.970   8.118  0.1696 -0.7122  0.3115
   32SAPC  H13R 4298   4.586   2.985   8.092 -0.0228  0.9774  0.4159
   32SAPC  H13S 4299   4.474   2.911   8.213 -0.6507  2.3039  2.2733
   32SAPC  C214 4300   4.391   3.097   8.146 -0.1722  0.6387  0.8512
   32SAPC  H14R 4301   4.284   3.078   8.160 -0.2829  0.9341  0.4171
   32SAPC  C215 4302   4.434   3.220   8.161 -0.0132 -0.1027  0.0860
   32SAPC  H15R 4303   4.355   3.291   8.190  1.4807  1.3668  0.7126
   32SAPC  C216 4304   4.570   3.279   8.142 -0.4846  0.6774 -0.1498
   32SAPC  H16R 4305   4.563   3.388   8.124 -0.7271  0.9666  1.5519
   32SAPC  H16S 4306   4.616   3.231   8.052  2.5711 -1.6156  2.3938
   32SAPC  C217 4307   4.672   3.254   8.254  0.8141  0.0319 -0.4974
   32SAPC  H17R 4308   4.763   3.313   8.234  1.7257 -1.4726 -0.9793
   32SAPC  H17S 4309   4.695   3.146   8.242  1.3582  0.3200 -2.4293
   32SAPC  C218 4310   4.626   3.298   8.397 -0.4440  0.2989 -0.2309
   32SAPC  H18R 4311   4.522   3.261   8.410  0.7140 -2.8552  0.9054
   32SAPC  H18S 4312   4.613   3.407   8.414 -0.0167  0.0390  1.9681
   32SAPC  C219 4313   4.706   3.246   8.515  0.5501 -0.7391 -0.2435
   32SAPC  H19R 4314   4.644   3.283   8.600 -0.9169 -0.5267 -1.3679
   32SAPC  H19S 4315   4.809   3.288   8.513  0.6893 -0.9979  0.7881
   32SAPC  C220 4316   4.710   3.096   8.511 -0.1997 -0.0712 -0.3290
   32SAPC  H20R 4317   4.779   3.065   8.430 -0.1617  2.2812 -1.2714
   32SAPC  H20S 4318   4.609   3.060   8.482 -1.0334  1.3980  0.6093
   32SAPC  H20T 4319   4.743   3.046   8.605 -1.4981  1.5856  1.0680
   32SAPC   C33 4320   5.139   2.862   7.265 -0.1821 -0.2830  0.7208
   32SAPC   H3X 4321   5.148   2.788   7.348 -1.5558 -0.0502  1.1010
   32SAPC   H3Y 4322   5.070   2.944   7.293 -2.8059 -1.2382 -2.3181
   32SAPC   C34 4323   5.284   2.912   7.242  0.0714 -0.1870 -0.3667
   32SAPC   H4X 4324   5.307   2.990   7.319  2.2452 -0.6801 -0.4450
   32SAPC   H4Y 4325   5.295   2.963   7.144 -1.9721 -0.7396 -0.9285
   32SAPC   C35 4326   5.378   2.792   7.254 -0.4787  0.7156 -0.1945
   32SAPC   H5X 4327   5.463   2.825   7.190  0.0948 -0.3375  0.0085
   32SAPC   H5Y 4328   5.332   2.697   7.218 -0.2490  0.8350 -0.8093
   32SAPC   C36 4329   5.439   2.769   7.397 -1.0995 -1.1161  0.2725
   32SAPC   H6X 4330   5.356   2.754   7.471 -0.5177 -2.5231  0.6662
   32SAPC   H6Y 4331   5.493   2.862   7.422 -0.0341 -1.9412  1.1097
   32SAPC   C37 4332   5.525   2.649   7.411  0.2007 -0.0902  0.1350
   32SAPC   H7X 4333   5.593   2.631   7.326 -1.0332  2.0684 -1.4254
   32SAPC   H7Y 4334   5.463   2.559   7.428 -1.4440  1.1371  0.9687
   32SAPC   C38 4335   5.621   2.675   7.527  0.5459 -0.6660 -0.2028
   32SAPC   H8X 4336   5.563   2.715   7.612 -0.9528 -0.2079 -1.3928
   32SAPC   H8Y 4337   5.691   2.755   7.495  0.2447 -0.5819 -0.6553
   32SAPC   C39 4338   5.701   2.553   7.567  0.3353 -0.1792 -0.1837
   32SAPC   H9X 4339   5.769   2.534   7.481 -0.9181  0.0647 -1.2584
   32SAPC   H9Y 4340   5.621   2.477   7.563 -0.9132  0.9509  1.7124
   32SAPC  C310 4341   5.778   2.544   7.698 -0.7414 -0.8034 -0.5598
   32SAPC  H10X 4342   5.853   2.624   7.713 -1.0158 -0.6883  0.2664
   32SAPC  H10Y 4343   5.832   2.447   7.704 -2.0792 -1.5311  0.6728
   32SAPC  C311 4344   5.685   2.551   7.820 -0.3225  0.6218 -0.6187
   32SAPC  H11X 4345   5.628   2.456   7.828  1.4916 -0.5182 -0.7454
   32SAPC  H11Y 4346   5.620   2.641   7.806  1.9330  3.1013  3.0312
   32SAPC  C312 4347   5.751   2.571   7.965 -0.2518  0.3604 -0.6458
   32SAPC  H12X 4348   5.663   2.587   8.031  0.8721 -1.8985  1.5771
   32SAPC  H12Y 4349   5.816   2.661   7.973 -1.5687  1.2249  1.0312
   32SAPC  C313 4350   5.838   2.453   8.010 -0.2293  0.4041  0.0336
   32SAPC  H13X 4351   5.946   2.478   8.019 -0.1519  1.3304 -2.6225
   32SAPC  H13Y 4352   5.811   2.353   7.970  0.5064 -0.6198  1.9692
   32SAPC  C314 4353   5.813   2.422   8.163 -0.3167 -0.8438 -0.1559
   32SAPC  H14X 4354   5.881   2.337   8.186 -0.2375 -0.6823  0.2124
   32SAPC  H14Y 4355   5.707   2.396   8.185 -0.2414 -1.5611 -0.6106
   32SAPC  C315 4356   5.866   2.534   8.262  0.3882 -0.7546 -0.1426
   32SAPC  H15X 4357   5.806   2.627   8.254  1.8747  0.3670  1.2158
   32SAPC  H15Y 4358   5.967   2.561   8.224  0.2994 -1.5594 -0.9878
   32SAPC  C316 4359   5.863   2.472   8.398 -0.0888  0.0424 -0.2469
   32SAPC  H16X 4360   5.921   2.377   8.395 -0.8484 -0.4263 -0.3499
   32SAPC  H16Y 4361   5.756   2.447   8.418 -0.2914  0.6275 -0.6017
   32SAPC  C317 4362   5.933   2.555   8.511  0.2939  0.6296 -0.3646
   32SAPC  H17X 4363   5.943   2.479   8.592  0.8270 -0.2895 -1.2750
   32SAPC  H17Y 4364   5.872   2.640   8.549  0.5181 -0.1610  1.9524
   32SAPC  C318 4365   6.080   2.600   8.473  0.2371  0.1095  0.6858
   32SAPC  H18X 4366   6.064   2.688   8.407 -0.2371 -0.2933  0.2647
   32SAPC  H18Y 4367   6.119   2.516   8.412 -0.1566 -0.7533  1.5929
   32SAPC  H18Z 4368   6.140   2.625   8.563 -2.0602 -2.3059  3.0783
   33POPC     N 4369   2.383   3.566  10.951 -0.6096 -0.3464  0.0745
   33POPC   C12 4370   2.414   3.415  10.965 -0.3311 -0.2135  0.3447
   33POPC  H12A 4371   2.429   3.375  10.866  1.4067 -0.4699  0.6723
   33POPC  H12B 4372   2.325   3.371  11.006  0.0839  1.7970  3.8299
   33POPC   C13 4373   2.504   3.632  10.894 -0.3104  0.2087 -0.2718
   33POPC  H13A 4374   2.510   3.740  10.904  1.9990 -0.1179  4.1579
   33POPC  H13B 4375   2.585   3.610  10.962  0.4924  2.4932 -0.3808
   33POPC  H13C 4376   2.529   3.589  10.798  3.0910 -0.9151  0.9611
   33POPC   C14 4377   2.278   3.562  10.844  0.3980  0.1095 -0.9464
   33POPC  H14A 4378   2.251   3.664  10.818  0.3666  0.1788 -0.6411
   33POPC  H14B 4379   2.302   3.514  10.750  0.8641 -0.1702 -0.6841
   33POPC  H14C 4380   2.188   3.528  10.894 -1.1359  3.6598 -0.9896
   33POPC   C15 4381   2.332   3.629  11.078  0.2446  0.8375 -0.1871
   33POPC  H15A 4382   2.305   3.734  11.074  0.8647  1.0657  1.1955
   33POPC  H15B 4383   2.403   3.628  11.159 -1.2683 -0.2736  1.2088
   33POPC  H15C 4384   2.243   3.576  11.109 -0.1804  1.7682  0.2195
   33POPC   C11 4385   2.541   3.350  11.034 -0.3851  0.7884 -0.5405
   33POPC  H11A 4386   2.534   3.240  11.051 -4.3078  0.8010 -1.1256
   33POPC  H11B 4387   2.544   3.405  11.130 -2.1881  0.1945 -0.0960
   33POPC     P 4388   2.677   3.291  10.829 -0.4214  0.1618  0.2310
   33POPC   O13 4389   2.580   3.350  10.726  0.0224  0.3320  0.1361
   33POPC   O14 4390   2.660   3.149  10.866  0.3669  0.3737 -0.5675
   33POPC   O12 4391   2.659   3.384  10.955  0.1479  0.6901  0.5204
   33POPC   O11 4392   2.827   3.310  10.778 -0.1325 -0.0508 -0.1453
   33POPC    C1 4393   2.882   3.440  10.767  0.4307 -0.2938 -1.4176
   33POPC    HA 4394   2.856   3.497  10.859 -0.8472  0.9255 -2.4838
   33POPC    HB 4395   2.992   3.425  10.765  0.4143 -1.1254  0.6662
   33POPC    C2 4396   2.842   3.523  10.646 -0.4752  0.2054 -0.2692
   33POPC    HS 4397   2.734   3.544  10.655  0.0242  1.9832  2.8273
   33POPC   O21 4398   2.875   3.452  10.520  0.2598 -0.9939 -0.2806
   33POPC   C21 4399   2.784   3.455  10.427 -0.2998 -0.5032 -0.2271
   33POPC   O22 4400   2.686   3.526  10.420 -0.3852 -0.8178 -0.2461
   33POPC   C22 4401   2.815   3.339  10.320 -0.0713  0.0361  0.2834
   33POPC   H2R 4402   2.789   3.242  10.367 -0.4132  0.9810  2.1919
   33POPC   H2S 4403   2.923   3.344  10.297 -0.4139  0.2759 -1.4000
   33POPC    C3 4404   2.900   3.672  10.634 -0.1962  0.5491 -0.7093
   33POPC    HX 4405   2.999   3.670  10.686  0.0186  0.1480 -1.1321
   33POPC    HY 4406   2.835   3.737  10.697  0.2242  1.1749 -0.9075
   33POPC   O31 4407   2.909   3.722  10.501  0.3580 -0.1384 -0.1942
   33POPC   C31 4408   3.025   3.692  10.441  0.4184  0.4845 -0.4534
   33POPC   O32 4409   3.115   3.624  10.488 -0.0946 -0.3410 -0.2656
   33POPC   C32 4410   3.028   3.756  10.306 -0.1015 -0.8149 -0.1996
   33POPC   H2X 4411   3.128   3.733  10.264 -0.7139 -3.4624 -0.3845
   33POPC   H2Y 4412   3.012   3.865  10.318 -0.4437 -0.6194 -2.1352
   33POPC   C23 4413   2.740   3.358  10.189  0.2923 -0.2609  0.2227
   33POPC   H3R 4414   2.730   3.465  10.160  1.4967  0.3729  1.9825
   33POPC   H3S 4415   2.632   3.339  10.207 -0.6507  1.8132 -2.5491
   33POPC   C24 4416   2.783   3.281  10.065 -0.0013  0.1159 -0.4433
   33POPC   H4R 4417   2.714   3.311   9.983 -0.5956  1.1993  0.4275
   33POPC   H4S 4418   2.789   3.172  10.087  0.4403  0.1013 -0.6219
   33POPC   C25 4419   2.919   3.324  10.025  0.3634 -0.1880  0.6006
   33POPC   H5R 4420   2.995   3.287  10.097  2.5487  0.6404 -1.1662
   33POPC   H5S 4421   2.925   3.435  10.034 -1.7694 -0.1163  1.7902
   33POPC   C26 4422   2.960   3.278   9.881  0.3113  0.4374  0.4774
   33POPC   H6R 4423   2.948   3.167   9.883  1.7916  0.2549  0.5726
   33POPC   H6S 4424   3.071   3.287   9.874  0.3136  1.1424  1.2081
   33POPC   C27 4425   2.881   3.339   9.765 -0.6536  0.0192 -0.2238
   33POPC   H7R 4426   2.867   3.448   9.782  0.4186  0.2688 -0.7807
   33POPC   H7S 4427   2.779   3.297   9.771  0.0425 -1.6909  0.4193
   33POPC   C28 4428   2.939   3.306   9.625  0.0842  0.5202 -0.0332
   33POPC   H8R 4429   2.869   3.290   9.540  1.9692 -4.4278 -1.0119
   33POPC   H8S 4430   2.970   3.200   9.637  1.0369  0.7339 -0.5650
   33POPC   C29 4431   3.047   3.394   9.570 -0.3933 -0.2165  0.2226
   33POPC   H91 4432   3.095   3.457   9.646 -1.7383  2.1196 -0.7581
   33POPC  C210 4433   3.087   3.412   9.443 -0.2330  0.3075  0.6967
   33POPC  H101 4434   3.169   3.482   9.420 -1.3036  1.3280 -0.1266
   33POPC  C211 4435   3.015   3.342   9.321 -0.7805  1.0910 -0.1134
   33POPC  H11R 4436   2.950   3.261   9.361  1.8118 -0.4217  1.3867
   33POPC  H11S 4437   3.091   3.286   9.263 -2.0912 -0.6577 -0.2182
   33POPC  C212 4438   2.934   3.456   9.243 -0.3696 -0.8567  0.3979
   33POPC  H12R 4439   2.876   3.396   9.170  0.5181  0.3287 -1.3601
   33POPC  H12S 4440   3.000   3.512   9.172 -0.5261 -0.7135  0.3623
   33POPC  C213 4441   2.837   3.545   9.322  0.2374  0.3205 -0.1112
   33POPC  H13R 4442   2.895   3.625   9.373  2.5980 -1.4679  0.1647
   33POPC  H13S 4443   2.782   3.479   9.392 -1.7901 -0.2521 -2.1183
   33POPC  C214 4444   2.718   3.604   9.226 -0.3248 -0.2354  0.0093
   33POPC  H14R 4445   2.680   3.514   9.173  0.8548 -0.9653  0.3471
   33POPC  H14S 4446   2.757   3.671   9.147  0.1308 -0.0939  0.3481
   33POPC  C215 4447   2.591   3.657   9.302 -0.2611  0.7035 -0.3011
   33POPC  H15R 4448   2.625   3.749   9.353  2.4538  1.0070 -2.4499
   33POPC  H15S 4449   2.552   3.586   9.378  1.2042  0.6786  0.4636
   33POPC  C216 4450   2.484   3.684   9.203  0.0293  1.0507  0.8535
   33POPC  H16R 4451   2.433   3.594   9.162 -0.5443  0.7834  2.1037
   33POPC  H16S 4452   2.532   3.721   9.110 -2.8596 -1.8954 -2.1052
   33POPC  C217 4453   2.381   3.787   9.257  0.0575  0.0297  0.2100
   33POPC  H17R 4454   2.421   3.890   9.244 -1.9539  0.7825 -0.3824
   33POPC  H17S 4455   2.370   3.772   9.366  2.5672  2.3640  0.9179
   33POPC  C218 4456   2.258   3.788   9.164 -0.1237 -0.1424 -0.2030
   33POPC  H18R 4457   2.210   3.688   9.172  0.9300 -0.5453  1.6795
   33POPC  H18S 4458   2.286   3.815   9.060 -0.1269 -0.1318 -0.2013
   33POPC  H18T 4459   2.190   3.862   9.212 -0.1234 -0.6418  0.5814
   33POPC   C33 4460   2.930   3.696  10.206 -0.6125  0.4024 -0.3660
   33POPC   H3X 4461   2.829   3.687  10.252 -1.3438 -0.0038 -1.9723
   33POPC   H3Y 4462   2.951   3.588  10.192 -3.1799 -0.0382 -1.4106
   33POPC   C34 4463   2.903   3.779  10.079  0.2032  0.4517 -0.0083
   33POPC   H4X 4464   2.891   3.888  10.094 -1.4611  0.8028 -3.2259
   33POPC   H4Y 4465   2.809   3.740  10.035  1.9658 -1.5603 -2.2975
   33POPC   C35 4466   3.019   3.764   9.975  0.1223  0.5342  0.2381
   33POPC   H5X 4467   3.029   3.653   9.966 -3.2073  0.0170  1.6248
   33POPC   H5Y 4468   3.112   3.816  10.006  0.4949  1.2412 -1.9148
   33POPC   C36 4469   2.989   3.819   9.838  0.1470 -0.5959  0.7276
   33POPC   H6X 4470   2.954   3.924   9.847 -0.4866 -0.8894  1.8636
   33POPC   H6Y 4471   2.902   3.761   9.799 -0.3580  0.1311  0.7628
   33POPC   C37 4472   3.108   3.814   9.739 -0.0291  0.3521 -0.1011
   33POPC   H7X 4473   3.152   3.712   9.744 -0.9328 -0.0514 -0.2464
   33POPC   H7Y 4474   3.181   3.893   9.766 -0.8192  2.2987 -3.1391
   33POPC   C38 4475   3.056   3.851   9.599 -0.1228  0.1079 -0.6113
   33POPC   H8X 4476   2.979   3.930   9.609 -1.0778 -0.9847  1.6011
   33POPC   H8Y 4477   3.000   3.761   9.565  1.0100 -1.6224  1.8137
   33POPC   C39 4478   3.167   3.891   9.495 -0.3972  0.5507  0.2906
   33POPC   H9X 4479   3.234   3.804   9.482 -2.4563 -1.4568  2.1024
   33POPC   H9Y 4480   3.217   3.980   9.539 -0.2904 -0.8043  3.1287
   33POPC  C310 4481   3.109   3.915   9.355  0.3339  0.4605  0.6492
   33POPC  H10X 4482   3.042   4.002   9.370 -1.3750 -0.9079  1.3581
   33POPC  H10Y 4483   3.050   3.824   9.329 -1.1169  0.7500  2.6467
   33POPC  C311 4484   3.214   3.944   9.244  0.5583  0.2219 -0.0566
   33POPC  H11X 4485   3.259   3.851   9.204 -1.1840 -0.1501 -1.2350
   33POPC  H11Y 4486   3.290   4.008   9.295  1.9606 -2.1603  1.0675
   33POPC  C312 4487   3.169   4.022   9.113 -0.5072  0.0452 -0.4451
   33POPC  H12X 4488   3.177   4.131   9.130  1.1621  0.0535 -1.0579
   33POPC  H12Y 4489   3.067   4.003   9.074  0.0434  0.0982 -1.9917
   33POPC  C313 4490   3.269   3.985   8.994  1.4366  0.1081 -0.2265
   33POPC  H13X 4491   3.274   3.874   8.989  1.1682 -0.2658  3.8056
   33POPC  H13Y 4492   3.373   4.006   9.026  0.2489  2.9229  2.3150
   33POPC  C314 4493   3.223   4.033   8.852 -0.6465  0.2484 -0.0255
   33POPC  H14X 4494   3.302   3.998   8.782  0.6122 -0.0709  1.4785
   33POPC  H14Y 4495   3.232   4.144   8.850  0.4700  0.1740 -1.7842
   33POPC  C315 4496   3.090   3.983   8.801  0.3370  0.6883  0.5024
   33POPC  H15X 4497   3.015   4.014   8.877  1.9397 -2.8444  3.9133
   33POPC  H15Y 4498   3.077   3.874   8.783 -0.3521  0.5352  1.7778
   33POPC  C316 4499   3.042   4.057   8.672  0.3137  0.7579  0.2214
   33POPC  H16X 4500   3.108   4.030   8.587 -0.1485 -0.0973  0.1242
   33POPC  H16Y 4501   3.051   4.166   8.692  0.2401  0.6492  0.8789
   33POPC  H16Z 4502   2.936   4.040   8.644  0.7569 -1.5126 -0.2647
   34POPC     N 4503   3.539   3.792  10.941  0.5585  0.1793 -0.3990
   34POPC   C12 4504   3.647   3.740  10.853  0.1841  0.1384 -0.0274
   34POPC  H12A 4505   3.598   3.698  10.766 -1.4706  0.0602  0.9072
   34POPC  H12B 4506   3.703   3.661  10.901  0.1035 -0.9232 -1.5903
   34POPC   C13 4507   3.589   3.893  11.043  0.6521  0.3070 -1.2003
   34POPC  H13A 4508   3.667   3.848  11.102 -0.2258 -0.2172 -0.4051
   34POPC  H13B 4509   3.622   3.987  11.002 -0.2431  0.8766 -0.6437
   34POPC  H13C 4510   3.519   3.905  11.124  1.5909  0.7392 -0.4283
   34POPC   C14 4511   3.432   3.852  10.855 -0.3156 -0.0885  0.1641
   34POPC  H14A 4512   3.366   3.920  10.906 -0.7416 -0.3190 -0.0786
   34POPC  H14B 4513   3.480   3.904  10.773  0.0530 -1.5388 -0.5732
   34POPC  H14C 4514   3.376   3.776  10.802 -0.8790  0.4029  0.0425
   34POPC   C15 4515   3.477   3.673  11.016 -0.2685  0.5745  0.4981
   34POPC  H15A 4516   3.431   3.606  10.945  1.0501 -1.2533  1.3052
   34POPC  H15B 4517   3.398   3.703  11.085  1.2188  0.4803  2.3246
   34POPC  H15C 4518   3.554   3.624  11.074  0.0675  1.0265  0.4380
   34POPC   C11 4519   3.747   3.848  10.800 -0.0133 -0.2409 -0.3051
   34POPC  H11A 4520   3.836   3.794  10.761  0.5198  0.3065  0.1364
   34POPC  H11B 4521   3.782   3.912  10.884  1.2388 -0.8385 -0.3429
   34POPC     P 4522   3.692   3.946  10.559  0.0527 -0.1494  0.0150
   34POPC   O13 4523   3.798   4.045  10.526  0.1621 -0.2426  0.0084
   34POPC   O14 4524   3.557   3.970  10.507 -0.0777  0.5790 -0.3592
   34POPC   O12 4525   3.680   3.934  10.711  0.3573 -0.0515  0.2853
   34POPC   O11 4526   3.735   3.806  10.524  0.1376  0.4670 -0.2058
   34POPC    C1 4527   3.648   3.697  10.492  0.1511  0.6865  0.8692
   34POPC    HA 4528   3.544   3.717  10.528  0.0170  0.8881  0.3753
   34POPC    HB 4529   3.692   3.598  10.519 -0.1246 -0.2102 -1.7223
   34POPC    C2 4530   3.633   3.696  10.336 -0.1795  0.0457 -0.2196
   34POPC    HS 4531   3.573   3.776  10.288 -1.4745 -1.3294 -0.9839
   34POPC   O21 4532   3.566   3.570  10.307 -0.2132  1.3093  0.2541
   34POPC   C21 4533   3.439   3.563  10.332 -0.3987 -0.2432  0.4823
   34POPC   O22 4534   3.365   3.663  10.344  0.1787 -0.0597  0.8440
   34POPC   C22 4535   3.397   3.418  10.343 -0.0424 -0.6757  0.1238
   34POPC   H2R 4536   3.370   3.395  10.448  4.2261  1.1116  1.8369
   34POPC   H2S 4537   3.481   3.347  10.327 -0.3424 -1.0057 -0.0025
   34POPC    C3 4538   3.762   3.694  10.247  0.1088  0.1549 -0.6578
   34POPC    HX 4539   3.814   3.603  10.283 -2.0595 -0.7924  0.2603
   34POPC    HY 4540   3.828   3.783  10.262  1.4475 -0.4348 -2.6926
   34POPC   O31 4541   3.717   3.690  10.110  0.3799  0.0752  0.4521
   34POPC   C31 4542   3.786   3.602  10.038  0.2166 -0.6227  0.2509
   34POPC   O32 4543   3.848   3.503  10.074  0.2891 -0.2480  0.0868
   34POPC   C32 4544   3.776   3.643   9.889 -0.2681 -0.0315  0.5122
   34POPC   H2X 4545   3.787   3.754   9.884 -1.0614  0.0590  0.5664
   34POPC   H2Y 4546   3.678   3.628   9.839 -0.6392  2.2754  0.4053
   34POPC   C23 4547   3.278   3.397  10.255  0.6291  0.0921 -0.3137
   34POPC   H3R 4548   3.215   3.489  10.250 -1.4290 -1.3158 -1.5856
   34POPC   H3S 4549   3.227   3.311  10.304  0.0757  2.2451  3.2831
   34POPC   C24 4550   3.308   3.354  10.111 -0.3179  0.2599  0.2373
   34POPC   H4R 4551   3.216   3.343  10.050  0.6788 -3.0002 -0.8605
   34POPC   H4S 4552   3.351   3.254  10.129 -0.7003  0.0363 -0.0787
   34POPC   C25 4553   3.408   3.451  10.055  0.7502  0.8546 -0.0089
   34POPC   H5R 4554   3.507   3.425  10.098 -0.4938  0.5005  2.8955
   34POPC   H5S 4555   3.390   3.553  10.096 -3.2226  0.5236 -0.5624
   34POPC   C26 4556   3.406   3.451   9.903 -0.1634 -0.0231 -0.5416
   34POPC   H6R 4557   3.452   3.546   9.867  0.3920 -0.4148 -0.8895
   34POPC   H6S 4558   3.300   3.449   9.869  0.2749  2.0419 -2.2350
   34POPC   C27 4559   3.470   3.331   9.824 -0.6331 -0.4377  0.2873
   34POPC   H7R 4560   3.443   3.237   9.876  1.2754 -1.1528  0.0621
   34POPC   H7S 4561   3.581   3.339   9.822 -0.5907 -1.0482 -0.0959
   34POPC   C28 4562   3.425   3.320   9.671 -0.4991 -0.9766 -0.3211
   34POPC   H8R 4563   3.317   3.297   9.679 -0.5009 -0.5031  5.3282
   34POPC   H8S 4564   3.486   3.235   9.635  0.6276 -1.1303  1.8045
   34POPC   C29 4565   3.443   3.439   9.589 -0.3617 -0.8180 -0.3343
   34POPC   H91 4566   3.392   3.527   9.631 -0.2822 -0.5878 -0.7145
   34POPC  C210 4567   3.469   3.446   9.453 -0.0026  0.3985 -0.0252
   34POPC  H101 4568   3.485   3.543   9.403  0.7983  0.3939  0.1973
   34POPC  C211 4569   3.502   3.324   9.369 -0.2469  0.0350  0.1143
   34POPC  H11R 4570   3.483   3.231   9.426  0.6497  0.7785  1.7167
   34POPC  H11S 4571   3.613   3.318   9.359 -0.2455 -1.8774  0.8797
   34POPC  C212 4572   3.420   3.305   9.233  0.4951  0.3657  0.7370
   34POPC  H12R 4573   3.323   3.257   9.258  1.3593 -0.9846  1.6417
   34POPC  H12S 4574   3.488   3.242   9.172  0.5242  0.1529  0.9866
   34POPC  C213 4575   3.380   3.438   9.167 -0.3107  0.1624  0.3268
   34POPC  H13R 4576   3.472   3.497   9.143  0.1294 -1.5893 -2.8394
   34POPC  H13S 4577   3.312   3.492   9.235 -2.3196 -0.2233 -1.2865
   34POPC  C214 4578   3.292   3.434   9.039  0.1394  0.0292  0.1388
   34POPC  H14R 4579   3.202   3.371   9.055 -0.3197  0.5343 -0.3963
   34POPC  H14S 4580   3.354   3.376   8.967 -1.5598 -1.0330 -0.5371
   34POPC  C215 4581   3.254   3.574   8.988  0.0745  0.1629  1.1228
   34POPC  H15R 4582   3.345   3.634   8.966  0.4699  0.0791  2.4334
   34POPC  H15S 4583   3.192   3.616   9.071 -0.3367  1.5486  0.1512
   34POPC  C216 4584   3.167   3.558   8.854 -0.0273  0.4395 -0.5061
   34POPC  H16R 4585   3.226   3.484   8.796 -0.1056 -1.6083  1.8345
   34POPC  H16S 4586   3.148   3.659   8.813  0.9037  0.5475 -0.6818
   34POPC  C217 4587   3.027   3.495   8.880 -0.0451  0.3862  0.2360
   34POPC  H17R 4588   2.968   3.578   8.925  0.9697  2.0106 -1.3090
   34POPC  H17S 4589   3.015   3.414   8.954  0.2850  1.5798  1.6353
   34POPC  C218 4590   2.963   3.468   8.744 -0.4199  0.4311  0.7505
   34POPC  H18R 4591   2.867   3.417   8.767 -0.3383 -1.6209 -2.7467
   34POPC  H18S 4592   3.028   3.404   8.681 -0.1871  1.1093  0.2897
   34POPC  H18T 4593   2.951   3.565   8.691  0.4371  0.2909  0.2877
   34POPC   C33 4594   3.889   3.573   9.797  0.9403 -0.1549  0.4652
   34POPC   H3X 4595   3.867   3.465   9.814 -3.6416  0.0530 -2.2736
   34POPC   H3Y 4596   3.996   3.590   9.819  1.0729 -1.1344  0.6475
   34POPC   C34 4597   3.860   3.601   9.642  0.7448 -0.6272 -0.3670
   34POPC   H4X 4598   3.831   3.707   9.631 -0.9108 -0.8193  1.4441
   34POPC   H4Y 4599   3.762   3.551   9.623 -0.3047  0.2357  2.3529
   34POPC   C35 4600   3.973   3.548   9.552  0.0141 -0.4240 -0.6619
   34POPC   H5X 4601   3.980   3.437   9.551  1.0684 -0.3709 -0.4639
   34POPC   H5Y 4602   4.069   3.591   9.588  0.8327 -3.6218  1.3885
   34POPC   C36 4603   3.953   3.580   9.400 -0.2795 -0.3429  0.0742
   34POPC   H6X 4604   4.042   3.535   9.351 -0.3689 -1.1650  0.6447
   34POPC   H6Y 4605   3.959   3.690   9.387 -0.3180 -0.2397  0.9140
   34POPC   C37 4606   3.828   3.532   9.329  0.3410 -0.2758 -0.0586
   34POPC   H7X 4607   3.737   3.570   9.380  0.3930 -2.0776  1.4971
   34POPC   H7Y 4608   3.832   3.423   9.350  0.7381 -0.5627 -1.5555
   34POPC   C38 4609   3.827   3.565   9.173 -0.3525 -0.1064  0.1562
   34POPC   H8X 4610   3.856   3.670   9.152 -1.9848  0.7048  1.7496
   34POPC   H8Y 4611   3.725   3.548   9.134 -1.5067  1.4151  2.2947
   34POPC   C39 4612   3.926   3.482   9.095  0.1378 -0.7056  0.0065
   34POPC   H9X 4613   3.895   3.376   9.092  1.3493 -1.0442 -1.4841
   34POPC   H9Y 4614   4.030   3.484   9.134 -0.9252 -0.0572  3.1143
   34POPC  C310 4615   3.938   3.542   8.949 -0.2693  0.1593 -0.0203
   34POPC  H10X 4616   3.937   3.653   8.951 -1.8931  0.2225 -1.4993
   34POPC  H10Y 4617   3.852   3.509   8.887  0.9261  0.9248 -2.2188
   34POPC  C311 4618   4.062   3.505   8.870  0.2311 -0.3162  0.1778
   34POPC  H11X 4619   4.092   3.399   8.883  2.7167  0.3807  0.7829
   34POPC  H11Y 4620   4.148   3.549   8.927  1.6964 -1.6379 -0.9196
   34POPC  C312 4621   4.061   3.554   8.724 -0.3281  0.4795  0.3690
   34POPC  H12X 4622   4.147   3.503   8.675 -1.2607 -0.1729 -0.6279
   34POPC  H12Y 4623   4.073   3.664   8.728 -0.0136  0.4596  0.0708
   34POPC  C313 4624   3.934   3.517   8.640  0.0884  0.5534  0.0415
   34POPC  H13X 4625   3.847   3.562   8.693 -1.2554 -0.3058 -1.3423
   34POPC  H13Y 4626   3.913   3.408   8.644 -2.8526  1.0542  2.4411
   34POPC  C314 4627   3.949   3.578   8.497 -0.1866 -0.4027  0.2258
   34POPC  H14X 4628   4.034   3.527   8.447 -1.0918  0.4247 -2.3456
   34POPC  H14Y 4629   3.977   3.684   8.511 -0.2157 -0.4137  0.3695
   34POPC  C315 4630   3.831   3.561   8.402  0.0446 -0.3839 -0.1095
   34POPC  H15X 4631   3.760   3.643   8.426 -1.0887 -1.5520  0.6360
   34POPC  H15Y 4632   3.766   3.474   8.424 -1.1826  0.6709  0.5831
   34POPC  C316 4633   3.870   3.561   8.253 -0.1931  0.4922 -0.1370
   34POPC  H16X 4634   3.778   3.557   8.190 -0.0647  3.2005 -0.6278
   34POPC  H16Y 4635   3.950   3.493   8.218 -0.8581 -0.9355  1.0355
   34POPC  H16Z 4636   3.907   3.662   8.223  0.4886  1.3507  3.2332
   35POPC     N 4637   3.608   2.198  11.521  0.2827 -0.0603 -0.2969
   35POPC   C12 4638   3.471   2.167  11.479 -0.5020  1.1332  0.2915
   35POPC  H12A 4639   3.464   2.157  11.372  0.5563  0.6669  0.2537
   35POPC  H12B 4640   3.406   2.248  11.508 -2.3714  0.7541 -2.4399
   35POPC   C13 4641   3.692   2.090  11.463 -0.3449  0.1181  0.0046
   35POPC  H13A 4642   3.795   2.118  11.474 -0.8566  2.7277 -1.1527
   35POPC  H13B 4643   3.677   1.994  11.512  1.2638 -0.2619 -0.2045
   35POPC  H13C 4644   3.678   2.081  11.357  0.7315 -3.5121  0.0296
   35POPC   C14 4645   3.652   2.328  11.467 -0.0876 -0.3668 -0.0777
   35POPC  H14A 4646   3.618   2.414  11.522  0.2780  0.2377 -0.7732
   35POPC  H14B 4647   3.759   2.336  11.476  0.0842 -1.1914 -1.1674
   35POPC  H14C 4648   3.625   2.338  11.363 -1.8581 -3.2252  0.0050
   35POPC   C15 4649   3.622   2.197  11.674 -1.0316 -0.7362  0.2197
   35POPC  H15A 4650   3.610   2.095  11.706 -0.6434 -1.0040 -0.4533
   35POPC  H15B 4651   3.554   2.266  11.721 -0.1567 -0.1252  0.6074
   35POPC  H15C 4652   3.722   2.236  11.684 -1.5561  0.5397  0.6363
   35POPC   C11 4653   3.396   2.035  11.524 -0.0969 -0.3629 -0.1399
   35POPC  H11A 4654   3.291   2.067  11.506  0.9695  3.4876 -0.3113
   35POPC  H11B 4655   3.401   2.033  11.635 -0.7250  0.6496 -0.0796
   35POPC     P 4656   3.377   1.859  11.334 -0.1056 -0.1343 -0.1259
   35POPC   O13 4657   3.243   1.798  11.352 -0.0796  0.6683 -0.1778
   35POPC   O14 4658   3.476   1.786  11.256  0.3483  0.2760  0.4724
   35POPC   O12 4659   3.432   1.906  11.473 -0.1567  0.0041  0.2542
   35POPC   O11 4660   3.357   1.998  11.262 -0.3859  0.2724 -0.0971
   35POPC    C1 4661   3.233   2.048  11.199  0.2982  0.4086  0.1734
   35POPC    HA 4662   3.208   2.156  11.205 -1.6078  0.0390 -0.3961
   35POPC    HB 4663   3.143   2.003  11.244  0.4351  0.1623  0.2049
   35POPC    C2 4664   3.239   2.016  11.046  0.5276 -0.3886 -1.0508
   35POPC    HS 4665   3.234   1.905  11.046 -0.3538 -0.4237  1.8965
   35POPC   O21 4666   3.366   2.071  11.007  0.1335  0.8077 -0.0963
   35POPC   C21 4667   3.421   2.004  10.904 -0.0091 -0.0157 -0.7310
   35POPC   O22 4668   3.382   1.901  10.857  0.1347  0.3906  0.1565
   35POPC   C22 4669   3.538   2.085  10.849 -0.3422 -0.8310 -0.4504
   35POPC   H2R 4670   3.621   2.089  10.923 -0.1588  2.2610 -0.6785
   35POPC   H2S 4671   3.514   2.193  10.846 -0.1708 -0.7245  0.9913
   35POPC    C3 4672   3.119   2.082  10.969  0.4507  0.5322 -0.0399
   35POPC    HX 4673   3.102   2.189  10.992 -2.1969  0.0368  0.5898
   35POPC    HY 4674   3.031   2.024  11.003  0.4726  2.1159  3.0785
   35POPC   O31 4675   3.130   2.055  10.825 -0.7094 -0.1606  0.1679
   35POPC   C31 4676   3.200   2.149  10.752  0.7543 -0.0751 -0.2544
   35POPC   O32 4677   3.242   2.252  10.801  0.5536  0.1461  0.1708
   35POPC   C32 4678   3.211   2.097  10.609  0.7941  0.5114 -0.3904
   35POPC   H2X 4679   3.200   1.987  10.603 -0.6177  0.5966  0.1645
   35POPC   H2Y 4680   3.312   2.122  10.572  1.0134 -0.3861 -0.4057
   35POPC   C23 4681   3.587   2.041  10.711 -0.0964 -0.4731  0.3281
   35POPC   H3R 4682   3.514   1.998  10.640  0.0611 -0.9339  0.4451
   35POPC   H3S 4683   3.655   1.959  10.742 -0.2931 -0.9211 -0.4074
   35POPC   C24 4684   3.663   2.160  10.633 -0.1055 -0.2705 -0.0136
   35POPC   H4R 4685   3.734   2.207  10.706  0.3017 -2.5650  1.1758
   35POPC   H4S 4686   3.588   2.237  10.607 -0.1269  0.6201  2.3774
   35POPC   C25 4687   3.750   2.103  10.517  0.3772 -0.4196 -0.7132
   35POPC   H5R 4688   3.685   2.029  10.466  1.0099  0.4396 -2.8875
   35POPC   H5S 4689   3.839   2.049  10.556  0.9360  1.6428  1.0466
   35POPC   C26 4690   3.795   2.215  10.419 -0.3820  0.3863 -0.1283
   35POPC   H6R 4691   3.876   2.259  10.481 -1.0660 -1.2332  2.0949
   35POPC   H6S 4692   3.714   2.291  10.410  2.0755  3.1674  0.0302
   35POPC   C27 4693   3.831   2.168  10.286  0.5965  0.2991  0.1353
   35POPC   H7R 4694   3.745   2.115  10.241 -0.3214  1.1917  0.7881
   35POPC   H7S 4695   3.914   2.094  10.287  0.8895  0.6177  1.1962
   35POPC   C28 4696   3.867   2.281  10.186 -0.0056  0.2557  0.1130
   35POPC   H8R 4697   3.784   2.355  10.194 -0.0722  0.1059  0.8322
   35POPC   H8S 4698   3.867   2.233  10.086  1.5356  0.6341 -0.0863
   35POPC   C29 4699   4.005   2.329  10.206  0.2070 -0.9521  0.1320
   35POPC   H91 4700   4.026   2.358  10.310 -1.8183 -0.8127  0.5506
   35POPC  C210 4701   4.104   2.353  10.113 -0.3767  0.0628  0.1420
   35POPC  H101 4702   4.204   2.383  10.148  1.5445 -1.0732 -3.8510
   35POPC  C211 4703   4.095   2.340   9.961 -0.0627  0.3005  0.5578
   35POPC  H11R 4704   4.140   2.427   9.909  0.0647  0.2574  0.5939
   35POPC  H11S 4705   3.989   2.356   9.933 -0.1609 -0.9126  0.1640
   35POPC  C212 4706   4.131   2.200   9.922 -1.0449 -0.3391 -0.3118
   35POPC  H12R 4707   4.089   2.126   9.993  0.6743  1.3897  2.7131
   35POPC  H12S 4708   4.242   2.194   9.923 -1.0104  0.0068 -1.2843
   35POPC  C213 4709   4.089   2.154   9.785  0.2777  0.1247  0.2392
   35POPC  H13R 4710   3.980   2.137   9.776  0.5794 -1.5452 -0.7122
   35POPC  H13S 4711   4.127   2.050   9.772 -1.4011 -1.0141  3.2555
   35POPC  C214 4712   4.129   2.241   9.656  0.3156 -0.2566 -0.0085
   35POPC  H14R 4713   4.237   2.234   9.630  0.7005 -0.2017  1.4643
   35POPC  H14S 4714   4.108   2.350   9.661  0.4147 -0.0159 -2.9116
   35POPC  C215 4715   4.049   2.195   9.535  0.8869 -0.1013 -0.2074
   35POPC  H15R 4716   4.046   2.281   9.464  3.0650  1.3066  1.2566
   35POPC  H15S 4717   3.951   2.147   9.555 -0.1213  2.2085  0.8180
   35POPC  C216 4718   4.124   2.080   9.460  0.1215 -0.4991  0.3853
   35POPC  H16R 4719   4.147   1.987   9.517 -1.0504 -0.1736  1.4529
   35POPC  H16S 4720   4.227   2.119   9.449 -0.0823 -0.1536 -0.3399
   35POPC  C217 4721   4.068   2.055   9.319 -0.5890  1.0023 -0.7711
   35POPC  H17R 4722   4.035   2.151   9.274 -0.4724  0.5650 -1.7959
   35POPC  H17S 4723   3.977   1.991   9.322 -1.6147  2.4083  0.2585
   35POPC  C218 4724   4.165   1.996   9.227 -0.4279  0.4516 -0.0185
   35POPC  H18R 4725   4.253   2.063   9.226 -0.8950  1.3538  4.1366
   35POPC  H18S 4726   4.136   1.993   9.119 -1.1985 -0.4431  0.1916
   35POPC  H18T 4727   4.185   1.890   9.255  1.1434  0.5351 -0.7453
   35POPC   C33 4728   3.110   2.151  10.503 -0.4681 -0.5448  0.1007
   35POPC   H3X 4729   3.109   2.262  10.507 -0.7826 -0.5844  1.8220
   35POPC   H3Y 4730   3.009   2.121  10.538 -1.2195  1.3693 -0.3289
   35POPC   C34 4731   3.138   2.113  10.355 -0.2369  1.0466 -0.4763
   35POPC   H4X 4732   3.040   2.113  10.303 -0.1811  0.5224 -0.5795
   35POPC   H4Y 4733   3.185   2.013  10.345 -1.3133  0.4190  0.5776
   35POPC   C35 4734   3.227   2.214  10.277 -0.6214  0.2487 -0.5374
   35POPC   H5X 4735   3.316   2.229  10.342 -2.4853  1.4308  1.9415
   35POPC   H5Y 4736   3.176   2.311  10.261 -1.3810  0.2741  1.7174
   35POPC   C36 4737   3.275   2.171  10.138  0.3539  0.4516 -0.3010
   35POPC   H6X 4738   3.188   2.162  10.069  0.8154 -0.5982 -0.7771
   35POPC   H6Y 4739   3.332   2.077  10.126 -1.3555 -0.4221 -2.3279
   35POPC   C37 4740   3.375   2.282  10.095 -0.1438 -0.1412  0.1212
   35POPC   H7X 4741   3.456   2.291  10.171  0.4351  0.6677 -0.5700
   35POPC   H7Y 4742   3.320   2.378  10.108 -1.6886 -0.5616 -2.5690
   35POPC   C38 4743   3.447   2.278   9.961  0.2395 -0.3069 -0.2421
   35POPC   H8X 4744   3.377   2.243   9.882  1.1995 -2.3807 -0.2388
   35POPC   H8Y 4745   3.527   2.202   9.978  0.2450 -0.1267  0.5555
   35POPC   C39 4746   3.516   2.405   9.908 -0.0011 -0.4157 -1.1629
   35POPC   H9X 4747   3.539   2.466   9.998 -1.5942 -1.4251 -0.0098
   35POPC   H9Y 4748   3.458   2.467   9.836  1.1580 -2.8495 -4.4099
   35POPC  C310 4749   3.648   2.376   9.837 -0.2957  0.0371 -0.1134
   35POPC  H10X 4750   3.633   2.335   9.735  0.9484 -2.0045  0.4585
   35POPC  H10Y 4751   3.713   2.303   9.891  1.6642  0.9242 -1.1853
   35POPC  C311 4752   3.729   2.506   9.807 -0.2639  0.4164 -0.8267
   35POPC  H11X 4753   3.796   2.521   9.895 -2.2016  2.5700  0.4192
   35POPC  H11Y 4754   3.663   2.596   9.810 -1.3085 -0.3509  0.8791
   35POPC  C312 4755   3.806   2.509   9.671  0.1162  0.3342 -0.3019
   35POPC  H12X 4756   3.868   2.418   9.657 -0.1096  0.3313 -1.3157
   35POPC  H12Y 4757   3.866   2.603   9.670  1.0164 -0.2232  0.2371
   35POPC  C313 4758   3.728   2.538   9.546  0.0997  0.0274 -0.1362
   35POPC  H13X 4759   3.676   2.633   9.568  0.8246 -0.2222  3.2207
   35POPC  H13Y 4760   3.651   2.459   9.551  1.1451 -0.9468  2.4316
   35POPC  C314 4761   3.809   2.540   9.413 -0.0157  0.0479 -0.3274
   35POPC  H14X 4762   3.836   2.433   9.398 -0.3310 -0.6376  3.1819
   35POPC  H14Y 4763   3.902   2.593   9.442 -0.0401 -0.4163  0.6411
   35POPC  C315 4764   3.740   2.605   9.294  1.2288 -0.1195 -0.0860
   35POPC  H15X 4765   3.714   2.712   9.310  2.4556  0.1904 -0.0979
   35POPC  H15Y 4766   3.640   2.564   9.268  2.0300 -0.2878 -3.2934
   35POPC  C316 4767   3.828   2.600   9.169  0.7353  0.0816 -0.0433
   35POPC  H16X 4768   3.847   2.493   9.145 -3.2388 -0.5866 -0.9337
   35POPC  H16Y 4769   3.926   2.650   9.182 -0.3520  2.2427  0.2673
   35POPC  H16Z 4770   3.763   2.650   9.094 -0.6844  1.0491  1.7614
   36POPC     N 4771   1.958   0.949  10.991 -0.4695 -0.2572  0.3573
   36POPC   C12 4772   2.002   1.014  10.859 -0.4659 -1.3089 -0.0377
   36POPC  H12A 4773   2.062   1.099  10.889  0.2044 -2.6817  2.7588
   36POPC  H12B 4774   1.920   1.064  10.809  0.5393 -1.6691 -2.1411
   36POPC   C13 4775   1.863   1.040  11.066 -0.5950 -0.0537  0.0455
   36POPC  H13A 4776   1.907   1.135  11.092  0.2516 -0.2194 -0.7438
   36POPC  H13B 4777   1.770   1.066  11.016 -0.1903  0.5436 -0.4108
   36POPC  H13C 4778   1.835   0.997  11.161 -1.9656  0.7121  0.0173
   36POPC   C14 4779   1.884   0.828  10.960  0.5116 -0.1213 -0.0040
   36POPC  H14A 4780   1.847   0.776  11.047 -1.7181  0.0161 -0.8154
   36POPC  H14B 4781   1.795   0.843  10.901  1.3499 -1.2623 -1.6368
   36POPC  H14C 4782   1.951   0.761  10.908  1.0221 -1.1180  1.8406
   36POPC   C15 4783   2.073   0.919  11.080  0.4358 -0.3064  0.4779
   36POPC  H15A 4784   2.145   0.858  11.027  2.0328  0.9848  1.0859
   36POPC  H15B 4785   2.047   0.870  11.173  0.1477  1.5761  1.4213
   36POPC  H15C 4786   2.130   1.006  11.106  0.8947  0.1153 -1.7643
   36POPC   C11 4787   2.081   0.935  10.757  0.8384 -0.1473 -0.2251
   36POPC  H11A 4788   2.111   1.007  10.679 -0.7651 -0.1497 -0.8873
   36POPC  H11B 4789   2.007   0.863  10.715  2.0120 -1.5361  0.0111
   36POPC     P 4790   2.245   0.720  10.781 -0.0205 -0.0252  0.0678
   36POPC   O13 4791   2.206   0.628  10.887  0.2903 -0.2948  0.0366
   36POPC   O14 4792   2.392   0.721  10.756  0.4081  0.6361  0.0452
   36POPC   O12 4793   2.194   0.866  10.814  0.0930 -0.3200 -0.2377
   36POPC   O11 4794   2.166   0.679  10.652 -0.1187 -0.4510  0.1970
   36POPC    C1 4795   2.225   0.593  10.552  0.3219 -0.3887  0.3642
   36POPC    HA 4796   2.175   0.494  10.551 -0.7306  0.1283 -1.2128
   36POPC    HB 4797   2.330   0.577  10.587  0.1509  0.0749  1.1182
   36POPC    C2 4798   2.229   0.664  10.406 -0.1523 -0.2288 -0.5013
   36POPC    HS 4799   2.304   0.616  10.340  1.0909  0.0843  0.6479
   36POPC   O21 4800   2.271   0.803  10.418  1.1622  0.3028 -0.6733
   36POPC   C21 4801   2.405   0.824  10.419 -0.5774 -0.3147 -0.4616
   36POPC   O22 4802   2.483   0.730  10.408 -0.0561 -1.0741 -0.5281
   36POPC   C22 4803   2.431   0.975  10.406  0.4362 -0.5447  0.1769
   36POPC   H2R 4804   2.504   1.011  10.482 -0.8278 -0.0636  1.2035
   36POPC   H2S 4805   2.333   1.022  10.428  0.6026  0.6910 -1.6110
   36POPC    C3 4806   2.090   0.667  10.347  0.1451  0.6294 -0.7276
   36POPC    HX 4807   2.016   0.704  10.421  0.5579 -2.0630  1.1834
   36POPC    HY 4808   2.052   0.563  10.334 -0.1784  0.6822 -0.2385
   36POPC   O31 4809   2.096   0.729  10.213 -0.1350  0.2817  0.1982
   36POPC   C31 4810   2.019   0.840  10.201 -0.1670 -0.0252  0.8263
   36POPC   O32 4811   1.953   0.881  10.291  0.6406 -0.4929 -0.4130
   36POPC   C32 4812   2.045   0.901  10.067 -0.4809  0.5707 -0.3102
   36POPC   H2X 4813   2.083   0.823   9.999  1.7494  2.5565 -1.4711
   36POPC   H2Y 4814   2.133   0.969  10.075  2.6014 -3.2663  1.7290
   36POPC   C23 4815   2.502   1.012  10.273 -0.2480 -0.4720  0.0676
   36POPC   H3R 4816   2.593   0.949  10.261 -1.4584 -2.0653 -1.1048
   36POPC   H3S 4817   2.529   1.120  10.265 -0.5828 -0.4978 -1.7728
   36POPC   C24 4818   2.415   0.981  10.152 -0.1630 -0.9208  0.2182
   36POPC   H4R 4819   2.336   1.058  10.152  0.0332 -0.6813 -1.3155
   36POPC   H4S 4820   2.381   0.876  10.162  0.1157 -1.2343 -1.7392
   36POPC   C25 4821   2.493   0.983  10.018 -0.0984 -0.1886 -0.1503
   36POPC   H5R 4822   2.563   0.898  10.005 -0.2036 -0.2843 -0.0967
   36POPC   H5S 4823   2.571   1.062  10.013 -1.4732  1.5285  2.7704
   36POPC   C26 4824   2.398   0.992   9.897 -0.5051 -0.2595  0.7365
   36POPC   H6R 4825   2.329   1.079   9.900 -0.6142 -0.2911 -0.2821
   36POPC   H6S 4826   2.320   0.913   9.890 -2.4346  1.6782 -1.0307
   36POPC   C27 4827   2.467   0.977   9.761 -0.0452 -1.0248  0.7588
   36POPC   H7R 4828   2.545   0.897   9.768  1.2667  0.3096  2.2246
   36POPC   H7S 4829   2.534   1.065   9.757 -0.7791 -0.5011 -0.1242
   36POPC   C28 4830   2.379   0.967   9.636 -0.5458 -0.9322  0.1479
   36POPC   H8R 4831   2.453   0.983   9.554 -0.4958 -0.4561  0.2860
   36POPC   H8S 4832   2.299   1.044   9.634 -1.1445 -1.5513 -1.2815
   36POPC   C29 4833   2.330   0.823   9.617  0.3258 -0.2297 -0.2421
   36POPC   H91 4834   2.298   0.790   9.717  0.0566  0.0975 -0.2198
   36POPC  C210 4835   2.318   0.745   9.503 -0.2129 -1.0242 -0.3332
   36POPC  H101 4836   2.274   0.644   9.509 -2.2790 -0.2171 -1.1977
   36POPC  C211 4837   2.353   0.785   9.360  0.1262 -0.3791 -0.2578
   36POPC  H11R 4838   2.425   0.716   9.312  0.5089  0.8619 -1.5255
   36POPC  H11S 4839   2.396   0.888   9.363  0.1707 -0.4138  1.0755
   36POPC  C212 4840   2.225   0.787   9.266  0.3499 -0.5238  0.5022
   36POPC  H12R 4841   2.150   0.856   9.310  0.4015  1.2272 -1.9863
   36POPC  H12S 4842   2.183   0.685   9.280 -0.1313 -0.5994 -1.2179
   36POPC  C213 4843   2.249   0.800   9.119 -0.1927 -0.3400 -0.9870
   36POPC  H13R 4844   2.326   0.721   9.102  0.0643 -0.7895  1.7421
   36POPC  H13S 4845   2.293   0.901   9.108 -1.8960  0.5040 -0.3347
   36POPC  C214 4846   2.129   0.789   9.021 -0.2476 -0.1633  0.1599
   36POPC  H14R 4847   2.079   0.693   9.045  1.5524 -0.9263  1.1339
   36POPC  H14S 4848   2.167   0.778   8.917  0.0431 -0.5803  0.3066
   36POPC  C215 4849   2.030   0.904   9.031 -0.1473  0.3674 -0.0507
   36POPC  H15R 4850   2.103   0.986   9.013 -1.4247  1.1660 -1.8603
   36POPC  H15S 4851   1.988   0.922   9.132  0.1845 -1.3024  0.4214
   36POPC  C216 4852   1.929   0.912   8.915  0.3769  0.2742  0.0990
   36POPC  H16R 4853   1.846   0.839   8.925  0.4118  0.5367  3.1381
   36POPC  H16S 4854   1.986   0.862   8.834  1.3472  1.5901 -0.0588
   36POPC  C217 4855   1.876   1.046   8.873 -0.0243  0.2459 -0.3032
   36POPC  H17R 4856   1.959   1.113   8.840 -0.4066 -0.0904 -2.0622
   36POPC  H17S 4857   1.817   1.088   8.957 -2.5677  0.0608 -1.9118
   36POPC  C218 4858   1.787   1.024   8.751  0.5985  0.0168 -0.1317
   36POPC  H18R 4859   1.758   1.122   8.706 -0.6293 -0.1526  0.2481
   36POPC  H18S 4860   1.697   0.969   8.785  1.8060 -1.2149  1.2185
   36POPC  H18T 4861   1.848   0.981   8.669 -2.5997 -2.7974 -1.2730
   36POPC   C33 4862   1.929   0.963  10.003  0.9099 -0.5741 -0.3306
   36POPC   H3X 4863   1.875   1.031  10.073 -0.7418 -0.4223 -1.6956
   36POPC   H3Y 4864   1.855   0.886   9.974 -0.1360  0.0708  0.5327
   36POPC   C34 4865   1.975   1.039   9.877 -0.5472  0.0991  0.7500
   36POPC   H4X 4866   2.068   1.098   9.897  0.3140 -0.6178 -0.9349
   36POPC   H4Y 4867   1.899   1.110   9.839  0.5996  1.1711  0.3926
   36POPC   C35 4868   2.008   0.947   9.754 -0.4236  0.2651  0.2563
   36POPC   H5X 4869   1.930   0.869   9.739 -0.6658  0.6129 -0.3415
   36POPC   H5Y 4870   2.097   0.886   9.778  1.3595  2.5347 -0.2250
   36POPC   C36 4871   2.030   1.011   9.615 -0.4241  0.1361  0.0850
   36POPC   H6X 4872   2.075   0.924   9.561  3.8956  1.3275  1.3903
   36POPC   H6Y 4873   2.097   1.098   9.631 -1.6637  1.0440  0.4318
   36POPC   C37 4874   1.894   1.066   9.559  1.0922  0.4541 -0.2581
   36POPC   H7X 4875   1.840   1.119   9.640 -2.3298 -3.3256  0.2242
   36POPC   H7Y 4876   1.823   0.981   9.550 -0.7403  1.9238 -0.2562
   36POPC   C38 4877   1.909   1.149   9.436  0.1200 -0.8777  0.8266
   36POPC   H8X 4878   1.932   1.090   9.345 -2.2079 -0.8161  0.1499
   36POPC   H8Y 4879   1.980   1.232   9.458  0.5101 -1.0504  0.2400
   36POPC   C39 4880   1.777   1.220   9.413 -0.2777 -0.5263 -0.3940
   36POPC   H9X 4881   1.797   1.303   9.342 -1.4903  1.5581  1.6025
   36POPC   H9Y 4882   1.730   1.271   9.499  0.9000  0.7069 -0.4540
   36POPC  C310 4883   1.673   1.139   9.331 -0.4434 -0.4537 -0.2807
   36POPC  H10X 4884   1.608   1.070   9.389 -0.7066 -1.2962 -1.5367
   36POPC  H10Y 4885   1.725   1.067   9.265 -2.2101 -2.5284  0.4868
   36POPC  C311 4886   1.579   1.218   9.235  0.1441 -0.4875 -0.3267
   36POPC  H11X 4887   1.630   1.289   9.166 -0.4168  0.1701 -0.0662
   36POPC  H11Y 4888   1.514   1.289   9.289  0.3756  1.2033 -2.1513
   36POPC  C312 4889   1.481   1.130   9.157  0.1615  0.0665  0.1995
   36POPC  H12X 4890   1.394   1.124   9.226  1.5617  0.7192  2.1057
   36POPC  H12Y 4891   1.522   1.028   9.139 -1.3573 -0.1811 -2.4103
   36POPC  C313 4892   1.426   1.202   9.028 -0.2313 -0.1058 -0.7591
   36POPC  H13X 4893   1.390   1.303   9.055 -1.0776 -0.1670 -1.6108
   36POPC  H13Y 4894   1.344   1.134   8.996 -0.4511  0.6271 -1.7871
   36POPC  C314 4895   1.538   1.210   8.920  0.0592  0.2642  0.4544
   36POPC  H14X 4896   1.566   1.103   8.904  1.0217  0.5793 -0.0398
   36POPC  H14Y 4897   1.626   1.266   8.958  0.2418  0.9767 -0.9897
   36POPC  C315 4898   1.505   1.267   8.785  0.0677  0.4672  0.2080
   36POPC  H15X 4899   1.597   1.280   8.724 -1.3671  3.4625 -1.5289
   36POPC  H15Y 4900   1.470   1.372   8.794 -2.8745 -0.3445 -0.6668
   36POPC  C316 4901   1.390   1.183   8.716  0.0131  0.0465  0.2135
   36POPC  H16X 4902   1.304   1.201   8.783 -2.1885 -1.7120 -1.9799
   36POPC  H16Y 4903   1.414   1.075   8.713  0.5864  0.1392 -3.0176
   36POPC  H16Z 4904   1.367   1.222   8.614  0.2120 -1.7447 -0.5479
   37POPC     N 4905   5.765   2.743   6.216 -0.2305 -0.2099 -0.3101
   37POPC   C12 4906   5.659   2.669   6.297 -0.0380 -0.2492 -0.8664
   37POPC  H12A 4907   5.691   2.567   6.315  0.2231 -0.2863 -1.5100
   37POPC  H12B 4908   5.565   2.662   6.245 -0.8669 -0.9500  0.6662
   37POPC   C13 4909   5.899   2.725   6.278 -0.5875  0.1202 -0.0983
   37POPC  H13A 4910   5.970   2.773   6.212 -0.5451  0.7879  0.4266
   37POPC  H13B 4911   5.907   2.767   6.377  0.7995  2.0570 -0.9722
   37POPC  H13C 4912   5.935   2.624   6.286 -1.0263 -0.1110 -0.8989
   37POPC   C14 4913   5.750   2.679   6.080 -0.3050 -0.6197 -0.3320
   37POPC  H14A 4914   5.653   2.688   6.034 -1.0909 -0.5324  1.2823
   37POPC  H14B 4915   5.806   2.744   6.014 -2.1969  0.6195 -0.7828
   37POPC  H14C 4916   5.783   2.576   6.081  0.0513 -0.5890  3.0072
   37POPC   C15 4917   5.740   2.892   6.208  0.4713 -0.0409 -0.6296
   37POPC  H15A 4918   5.701   2.935   6.300  0.0948 -1.5825 -0.0441
   37POPC  H15B 4919   5.656   2.908   6.143 -0.4082  0.1163  0.5068
   37POPC  H15C 4920   5.825   2.952   6.178  0.2973  0.5324 -0.0066
   37POPC   C11 4921   5.623   2.725   6.448 -0.0018  0.2921 -0.4610
   37POPC  H11A 4922   5.726   2.720   6.490 -0.4498 -3.4269  0.5627
   37POPC  H11B 4923   5.559   2.648   6.496  0.6034  0.1291  0.1063
   37POPC     P 4924   5.400   2.865   6.450  0.1641 -0.0596  0.0406
   37POPC   O13 4925   5.345   2.749   6.376  0.0242 -0.8609 -0.2626
   37POPC   O14 4926   5.355   3.000   6.398  0.1969  0.1806 -0.0091
   37POPC   O12 4927   5.562   2.856   6.454 -0.5238 -0.0793 -0.6926
   37POPC   O11 4928   5.358   2.859   6.597  0.4892 -0.4747  0.1577
   37POPC    C1 4929   5.443   2.907   6.704  0.2733 -0.1326 -0.2345
   37POPC    HA 4930   5.545   2.867   6.689 -0.6611 -2.1003 -1.9357
   37POPC    HB 4931   5.400   2.870   6.800 -1.1779  0.1399 -0.7490
   37POPC    C2 4932   5.449   3.063   6.717 -0.5145 -0.2877 -0.4571
   37POPC    HS 4933   5.467   3.109   6.618  1.0653 -0.0048 -0.0710
   37POPC   O21 4934   5.558   3.087   6.806 -0.7557  0.4531  0.1167
   37POPC   C21 4935   5.625   3.200   6.793  0.4595  0.4862  0.4488
   37POPC   O22 4936   5.603   3.288   6.710 -0.5385  0.6762  0.1676
   37POPC   C22 4937   5.735   3.206   6.896  0.4128 -0.4221 -0.8871
   37POPC   H2R 4938   5.817   3.134   6.877 -1.0520 -2.6224  0.5967
   37POPC   H2S 4939   5.683   3.168   6.987 -0.3526 -1.3665 -1.7050
   37POPC    C3 4940   5.311   3.119   6.780  0.1262 -0.4920 -0.0426
   37POPC    HX 4941   5.274   3.040   6.849 -2.6243  0.2502 -0.5634
   37POPC    HY 4942   5.233   3.128   6.701  0.6438  1.6810 -0.3692
   37POPC   O31 4943   5.324   3.244   6.850  0.8018 -0.2429 -0.4403
   37POPC   C31 4944   5.211   3.277   6.914 -0.2537 -0.7108  0.1274
   37POPC   O32 4945   5.108   3.212   6.911 -0.3546 -0.0279 -0.1168
   37POPC   C32 4946   5.227   3.422   6.980  0.2919  0.2439  0.9091
   37POPC   H2X 4947   5.123   3.453   7.005 -1.1952 -1.8844 -2.0436
   37POPC   H2Y 4948   5.265   3.491   6.901  4.0561  0.2064  2.4867
   37POPC   C23 4949   5.774   3.349   6.936 -0.2316 -0.0391 -0.0735
   37POPC   H3R 4950   5.690   3.418   6.962  0.3385  1.1695 -1.2656
   37POPC   H3S 4951   5.815   3.398   6.845  3.3360 -2.2707  0.1592
   37POPC   C24 4952   5.874   3.344   7.053  0.3020 -0.1475  0.6867
   37POPC   H4R 4953   5.963   3.290   7.015  0.9410 -0.4295  2.4934
   37POPC   H4S 4954   5.828   3.317   7.150 -0.6852  0.5192  0.4223
   37POPC   C25 4955   5.913   3.493   7.068 -0.4217  0.2030 -0.8256
   37POPC   H5R 4956   5.818   3.548   7.089 -0.1405  0.5888 -0.5421
   37POPC   H5S 4957   5.969   3.531   6.979  2.3692 -3.8238 -1.0575
   37POPC   C26 4958   6.014   3.525   7.186  0.2166 -0.0029  1.1379
   37POPC   H6R 4959   6.010   3.636   7.191 -0.6997  0.4520 -3.8871
   37POPC   H6S 4960   6.115   3.492   7.155  0.6299  0.8130  1.5931
   37POPC   C27 4961   5.986   3.468   7.326 -0.0876 -0.0951  0.3062
   37POPC   H7R 4962   5.988   3.358   7.312  2.7757  0.0160 -0.8572
   37POPC   H7S 4963   5.887   3.503   7.362  0.4912  1.7736  0.1950
   37POPC   C28 4964   6.101   3.504   7.423 -0.5348  0.9715  0.6702
   37POPC   H8R 4965   6.094   3.612   7.451 -0.0088  1.5347 -1.2501
   37POPC   H8S 4966   6.205   3.490   7.387 -0.6605 -1.5528  1.0852
   37POPC   C29 4967   6.078   3.415   7.543  0.1381  0.2848  0.0902
   37POPC   H91 4968   6.123   3.314   7.544 -2.7524 -1.1548  2.3951
   37POPC  C210 4969   6.011   3.451   7.653 -0.2982 -0.1969  0.1871
   37POPC  H101 4970   6.012   3.387   7.742  0.8842 -1.7382 -0.8795
   37POPC  C211 4971   5.951   3.589   7.674  0.3554  0.5004  0.3245
   37POPC  H11R 4972   5.966   3.665   7.595  1.8338 -0.0740  0.0202
   37POPC  H11S 4973   5.996   3.629   7.768  1.9201 -0.3741 -0.0153
   37POPC  C212 4974   5.797   3.584   7.695 -0.1968 -0.6880  0.6348
   37POPC  H12R 4975   5.794   3.519   7.785  1.1960 -0.9608  0.5114
   37POPC  H12S 4976   5.747   3.531   7.610  2.0638  0.4955 -1.5858
   37POPC  C213 4977   5.724   3.717   7.702  0.1155 -0.7086 -0.8147
   37POPC  H13R 4978   5.762   3.777   7.788 -0.8413  0.7953 -1.4027
   37POPC  H13S 4979   5.616   3.694   7.715 -0.5495  2.4474  0.1555
   37POPC  C214 4980   5.723   3.800   7.572  0.3739 -0.7932  0.1392
   37POPC  H14R 4981   5.820   3.849   7.547  0.3102 -0.7715 -0.0708
   37POPC  H14S 4982   5.648   3.880   7.589 -0.1874 -1.1177 -0.7320
   37POPC  C215 4983   5.672   3.717   7.454  0.0322  0.0773  0.9080
   37POPC  H15R 4984   5.592   3.649   7.490 -2.2507  0.4567 -2.8881
   37POPC  H15S 4985   5.759   3.656   7.422 -0.3717  0.1568 -0.3732
   37POPC  C216 4986   5.620   3.801   7.334  0.1179 -0.2111  0.2074
   37POPC  H16R 4987   5.704   3.865   7.298 -0.8651  0.5264 -0.8411
   37POPC  H16S 4988   5.550   3.878   7.373  0.5659  0.6633 -0.6505
   37POPC  C217 4989   5.552   3.726   7.222 -0.1156  0.1609 -0.2066
   37POPC  H17R 4990   5.457   3.680   7.258  0.6388  0.7390  2.8660
   37POPC  H17S 4991   5.615   3.640   7.194  0.0808  0.5839 -1.0862
   37POPC  C218 4992   5.536   3.814   7.107  0.3283 -0.7071  0.3652
   37POPC  H18R 4993   5.526   3.753   7.014 -2.6830 -2.1207  1.4845
   37POPC  H18S 4994   5.622   3.877   7.075 -1.4328  1.2288 -0.8392
   37POPC  H18T 4995   5.440   3.869   7.117  0.0598 -1.1000  0.0065
   37POPC   C33 4996   5.342   3.422   7.080 -0.7828  0.1671 -0.3414
   37POPC   H3X 4997   5.347   3.515   7.140  0.4924  0.9163 -1.5337
   37POPC   H3Y 4998   5.437   3.436   7.024 -0.7720  2.3378  0.1452
   37POPC   C34 4999   5.352   3.298   7.173  0.2573  0.4072  0.3783
   37POPC   H4X 5000   5.390   3.222   7.101  0.1484  0.5551  0.1642
   37POPC   H4Y 5001   5.252   3.269   7.211  0.7508  0.2239  1.5982
   37POPC   C35 5002   5.463   3.310   7.281  0.6438 -0.1565  0.5924
   37POPC   H5X 5003   5.554   3.350   7.230 -0.7306 -0.3949 -2.2636
   37POPC   H5Y 5004   5.487   3.208   7.320  0.6955  0.7435  3.0938
   37POPC   C36 5005   5.419   3.390   7.404 -0.1528  0.1313  0.5792
   37POPC   H6X 5006   5.378   3.488   7.372 -0.7829 -0.0638  0.7814
   37POPC   H6Y 5007   5.508   3.416   7.465 -0.5609  3.0171  0.0731
   37POPC   C37 5008   5.314   3.314   7.495 -0.0211  0.1838  0.2475
   37POPC   H7X 5009   5.367   3.224   7.534  1.1975 -0.2656 -2.2258
   37POPC   H7Y 5010   5.213   3.288   7.457 -0.7502  1.9032  0.9086
   37POPC   C38 5011   5.255   3.396   7.612 -0.3263 -0.4561 -0.1507
   37POPC   H8X 5012   5.170   3.344   7.659 -1.3197  0.9721 -0.2991
   37POPC   H8Y 5013   5.222   3.496   7.575  2.3434  0.3471 -0.6131
   37POPC   C39 5014   5.363   3.424   7.716  1.0258 -0.0686 -0.4848
   37POPC   H9X 5015   5.423   3.512   7.684  1.2411 -0.0462 -0.0211
   37POPC   H9Y 5016   5.426   3.334   7.729  1.1256  0.0325 -0.2706
   37POPC  C310 5017   5.302   3.466   7.855  0.4747 -0.0424 -0.1044
   37POPC  H10X 5018   5.256   3.373   7.895 -0.0183  0.4808  0.5695
   37POPC  H10Y 5019   5.213   3.528   7.835 -0.1980 -0.7188  0.6751
   37POPC  C311 5020   5.413   3.538   7.944  0.7127 -0.4442 -0.0841
   37POPC  H11X 5021   5.363   3.573   8.037  0.9285  3.2620 -1.2220
   37POPC  H11Y 5022   5.439   3.626   7.881  2.2512 -1.8382 -1.4862
   37POPC  C312 5023   5.542   3.454   7.969  0.4626 -0.7140  0.0743
   37POPC  H12X 5024   5.576   3.434   7.865 -2.4261 -2.1444 -0.7206
   37POPC  H12Y 5025   5.530   3.354   8.014  0.2559 -1.6132 -1.8728
   37POPC  C313 5026   5.645   3.539   8.054  0.4342  0.4618  0.6983
   37POPC  H13X 5027   5.605   3.590   8.144  2.7420  0.2797  1.9180
   37POPC  H13Y 5028   5.677   3.617   7.982  0.0965 -0.9504 -1.0625
   37POPC  C314 5029   5.772   3.454   8.078 -0.4917 -0.1500 -0.2985
   37POPC  H14X 5030   5.800   3.402   7.984  1.2722  1.4314 -0.7072
   37POPC  H14Y 5031   5.768   3.369   8.149 -0.8534 -0.9813 -1.2871
   37POPC  C315 5032   5.889   3.539   8.125 -1.1158 -0.6454 -0.2848
   37POPC  H15X 5033   5.908   3.616   8.048  0.8708 -0.0251  0.7667
   37POPC  H15Y 5034   5.980   3.477   8.139 -1.2599 -2.0667 -4.4357
   37POPC  C316 5035   5.861   3.608   8.259  0.4019 -0.9809 -0.4385
   37POPC  H16X 5036   5.958   3.633   8.305 -0.0472  2.0649 -0.9695
   37POPC  H16Y 5037   5.808   3.539   8.328  0.3845 -1.2804 -0.7482
   37POPC  H16Z 5038   5.806   3.704   8.253  1.0387 -0.3235  2.7906
   38POPC     N 5039   0.033   6.331   5.750  0.3731 -0.3391  0.1513
   38POPC   C12 5040   0.162   6.396   5.789 -0.1051 -0.1754 -0.0944
   38POPC  H12A 5041   0.224   6.416   5.703  1.8060  2.1593  1.6894
   38POPC  H12B 5042   0.228   6.325   5.837  0.3014  0.4090  0.2206
   38POPC   C13 5043  -0.025   6.278   5.880 -0.4686  0.5684 -0.6554
   38POPC  H13A 5044  -0.023   6.346   5.964 -0.8265 -1.4434  1.0668
   38POPC  H13B 5045  -0.121   6.233   5.858  0.8529 -2.4193 -0.8309
   38POPC  H13C 5046   0.027   6.188   5.911 -0.3637  0.4538 -1.1550
   38POPC   C14 5047  -0.061   6.427   5.687 -0.2633  0.4735 -0.4756
   38POPC  H14A 5048  -0.031   6.452   5.586 -1.2239  0.7430 -0.7048
   38POPC  H14B 5049  -0.164   6.396   5.683 -0.1618 -0.0162  0.4414
   38POPC  H14C 5050  -0.068   6.511   5.754 -1.7848  1.0728 -1.3436
   38POPC   C15 5051   0.053   6.215   5.655  0.6282 -0.2242 -0.5008
   38POPC  H15A 5052   0.093   6.255   5.563 -2.8903  2.3820 -1.1392
   38POPC  H15B 5053  -0.048   6.184   5.629 -0.3940  2.0277  0.4795
   38POPC  H15C 5054   0.106   6.138   5.708 -1.5543 -0.7541  1.0711
   38POPC   C11 5055   0.150   6.529   5.864  0.2376 -0.6386 -0.9596
   38POPC  H11A 5056   0.079   6.600   5.815  2.1570  0.8198 -1.7647
   38POPC  H11B 5057   0.245   6.587   5.867 -1.6086  2.5680 -0.1005
   38POPC     P 5058   0.175   6.467   6.124 -0.0835  0.0214 -0.4769
   38POPC   O13 5059   0.259   6.579   6.174  0.0482 -0.1466  0.4046
   38POPC   O14 5060   0.247   6.347   6.086  0.1825  0.3670 -0.1149
   38POPC   O12 5061   0.095   6.516   5.995 -0.3263  0.0629  0.2313
   38POPC   O11 5062   0.072   6.434   6.236  0.2673  0.2590  0.0412
   38POPC    C1 5063  -0.048   6.512   6.253  0.3643 -0.3359  0.0500
   38POPC    HA 5064  -0.137   6.447   6.264 -0.9770  1.3960 -0.0026
   38POPC    HB 5065  -0.078   6.569   6.162  0.3084  0.5341  0.6053
   38POPC    C2 5066  -0.029   6.620   6.368 -0.5052  1.1672 -0.8224
   38POPC    HS 5067   0.062   6.679   6.346 -0.4415  0.6497 -2.0622
   38POPC   O21 5068  -0.004   6.546   6.493  0.2503 -0.0815 -0.2033
   38POPC   C21 5069   0.084   6.583   6.589  0.2057 -0.4920  0.5436
   38POPC   O22 5070   0.143   6.689   6.590  0.5463 -0.1185  0.2902
   38POPC   C22 5071   0.088   6.492   6.707  0.9257  0.4016 -0.3690
   38POPC   H2R 5072   0.181   6.431   6.701  0.3424 -0.4120 -1.5408
   38POPC   H2S 5073  -0.002   6.428   6.693  1.5001 -0.0530 -2.2935
   38POPC    C3 5074  -0.143   6.717   6.383 -0.3061 -0.0139 -0.0620
   38POPC    HX 5075  -0.230   6.665   6.429 -0.1081 -0.8429 -0.6027
   38POPC    HY 5076  -0.166   6.748   6.279  2.5957  0.8009 -0.5521
   38POPC   O31 5077  -0.094   6.818   6.464 -0.4701 -0.0202 -0.3014
   38POPC   C31 5078  -0.187   6.881   6.531  0.0927  0.2960  0.3181
   38POPC   O32 5079  -0.303   6.853   6.539  0.2919  0.6157 -0.2206
   38POPC   C32 5080  -0.129   6.995   6.610 -0.1756  0.3495 -0.2212
   38POPC   H2X 5081  -0.212   7.064   6.634  0.4317  0.8480  0.4682
   38POPC   H2Y 5082  -0.053   7.046   6.546  0.3074 -1.9900 -1.6526
   38POPC   C23 5083   0.075   6.552   6.844 -0.0529  0.4666 -0.6365
   38POPC   H3R 5084  -0.027   6.594   6.855 -0.5526 -1.0568  1.0807
   38POPC   H3S 5085   0.143   6.638   6.856 -1.6430  1.5960  0.8259
   38POPC   C24 5086   0.094   6.451   6.961 -0.1750  0.5165  0.4608
   38POPC   H4R 5087   0.201   6.429   6.979 -0.0309 -0.8685 -1.6884
   38POPC   H4S 5088   0.039   6.359   6.932 -3.0388  2.0904  0.4837
   38POPC   C25 5089   0.029   6.501   7.090  0.3240  0.7666 -0.2872
   38POPC   H5R 5090  -0.079   6.521   7.077  0.3747  1.0303 -0.3084
   38POPC   H5S 5091   0.083   6.596   7.112  0.9223  0.4067 -0.1839
   38POPC   C26 5092   0.054   6.418   7.219 -0.8951  0.1087  0.4393
   38POPC   H6R 5093   0.001   6.463   7.305 -1.1994 -1.3417  1.0425
   38POPC   H6S 5094   0.164   6.415   7.234 -1.0004 -1.6680  1.0491
   38POPC   C27 5095   0.008   6.274   7.207  0.9292  0.5280 -0.2422
   38POPC   H7R 5096   0.056   6.229   7.118  0.7618 -0.6445  0.2422
   38POPC   H7S 5097  -0.100   6.260   7.189  0.3705 -1.2642  3.5874
   38POPC   C28 5098   0.055   6.199   7.333  0.3886 -0.6504  0.2051
   38POPC   H8R 5099   0.160   6.213   7.367  0.6234 -0.7275 -0.4872
   38POPC   H8S 5100   0.053   6.089   7.317 -0.2336 -0.5861 -0.2026
   38POPC   C29 5101  -0.036   6.223   7.451  0.0353 -0.4435  0.0036
   38POPC   H91 5102  -0.130   6.166   7.456  0.6012 -1.4516 -0.5629
   38POPC  C210 5103  -0.014   6.317   7.546 -0.0762  0.4018 -0.3007
   38POPC  H101 5104  -0.084   6.333   7.628  0.6758  1.1908  0.2129
   38POPC  C211 5105   0.100   6.416   7.559  0.5764 -0.1508 -0.6748
   38POPC  H11R 5106   0.058   6.518   7.574  0.2002 -0.3311 -0.4901
   38POPC  H11S 5107   0.158   6.427   7.465  0.7577  0.5057 -0.4935
   38POPC  C212 5108   0.190   6.374   7.673  1.4574  0.2543 -0.4083
   38POPC  H12R 5109   0.268   6.450   7.697  1.2242  0.4994 -0.4301
   38POPC  H12S 5110   0.236   6.274   7.656 -2.4398 -1.6879 -0.5594
   38POPC  C213 5111   0.118   6.358   7.811 -0.2509 -0.6979 -0.1965
   38POPC  H13R 5112   0.077   6.255   7.824  0.9081 -1.4481 -2.0938
   38POPC  H13S 5113   0.028   6.424   7.812  0.5010  0.3558 -0.8903
   38POPC  C214 5114   0.207   6.395   7.935  0.5777 -0.0455  0.7565
   38POPC  H14R 5115   0.215   6.505   7.926  1.8305 -0.0995  1.0989
   38POPC  H14S 5116   0.307   6.353   7.914 -0.9372 -2.4723 -2.6829
   38POPC  C215 5117   0.157   6.344   8.069 -0.4166 -0.7483 -0.0583
   38POPC  H15R 5118   0.155   6.233   8.074 -1.4774 -0.6951  1.0154
   38POPC  H15S 5119   0.050   6.374   8.081 -0.1971 -0.2582  0.7345
   38POPC  C216 5120   0.229   6.401   8.191  0.6214 -0.1767 -0.5010
   38POPC  H16R 5121   0.211   6.511   8.188  0.6849 -0.1094  0.9951
   38POPC  H16S 5122   0.337   6.376   8.184  0.6679 -0.5133  0.9927
   38POPC  C217 5123   0.169   6.340   8.326 -0.2357  0.4288  0.0017
   38POPC  H17R 5124   0.188   6.230   8.327  0.5774  0.5462 -0.9067
   38POPC  H17S 5125   0.064   6.370   8.347 -0.0797 -0.4292  2.2104
   38POPC  C218 5126   0.240   6.402   8.447  0.4226  0.1110  0.7667
   38POPC  H18R 5127   0.187   6.386   8.543  1.2344 -0.7594  1.0862
   38POPC  H18S 5128   0.256   6.512   8.442 -0.5418  0.2379  0.2659
   38POPC  H18T 5129   0.342   6.359   8.461  0.8070  0.7013 -0.1044
   38POPC   C33 5130  -0.053   6.957   6.738  0.3459 -0.7051 -0.0163
   38POPC   H3X 5131   0.028   7.027   6.768  1.3450 -1.4560 -0.8800
   38POPC   H3Y 5132  -0.014   6.854   6.724  0.0274 -0.6657 -1.2967
   38POPC   C34 5133  -0.150   6.944   6.858 -0.2356  0.5066  0.6029
   38POPC   H4X 5134  -0.245   6.894   6.827 -0.2979  0.3704  0.9986
   38POPC   H4Y 5135  -0.177   7.047   6.890  0.6402  0.8997  0.1035
   38POPC   C35 5136  -0.105   6.849   6.975 -0.1417 -0.4512  0.3749
   38POPC   H5X 5137   0.005   6.842   6.965 -0.1875 -1.9060  0.6054
   38POPC   H5Y 5138  -0.135   6.742   6.970 -1.6100 -0.0507  0.0388
   38POPC   C36 5139  -0.139   6.899   7.106  0.0799  0.3296 -0.6785
   38POPC   H6X 5140  -0.246   6.882   7.133 -0.5502  2.3940 -1.6854
   38POPC   H6Y 5141  -0.111   7.006   7.113  0.6234  0.1556 -0.0175
   38POPC   C37 5142  -0.060   6.829   7.218 -0.0856 -0.6309 -0.1863
   38POPC   H7X 5143   0.048   6.853   7.210  0.0178 -0.9827  0.0816
   38POPC   H7Y 5144  -0.072   6.719   7.207 -1.5099 -0.5757  0.5416
   38POPC   C38 5145  -0.105   6.866   7.357  0.3476  0.2992 -0.5276
   38POPC   H8X 5146  -0.214   6.844   7.369 -0.4935  3.5108 -1.3919
   38POPC   H8Y 5147  -0.102   6.976   7.373  0.5173  0.5898 -2.3469
   38POPC   C39 5148  -0.014   6.809   7.463 -0.1814 -0.2802 -0.2012
   38POPC   H9X 5149   0.086   6.856   7.456  0.2588 -1.0524  0.5769
   38POPC   H9Y 5150   0.005   6.701   7.442 -2.0503 -0.4240 -1.3490
   38POPC  C310 5151  -0.084   6.834   7.594 -0.2952 -0.3372 -0.1064
   38POPC  H10X 5152  -0.184   6.785   7.598 -0.1101 -0.7541 -0.5648
   38POPC  H10Y 5153  -0.106   6.942   7.605  1.3070  0.0516 -0.4393
   38POPC  C311 5154   0.015   6.816   7.705  0.5028 -0.6887  0.1386
   38POPC  H11X 5155   0.090   6.898   7.703 -0.3404  0.1122 -1.7718
   38POPC  H11Y 5156   0.077   6.730   7.672 -0.3319 -1.0346 -0.5687
   38POPC  C312 5157  -0.041   6.809   7.847 -0.3346 -0.0849  0.6513
   38POPC  H12X 5158  -0.109   6.722   7.843 -2.6122  1.6684 -1.6926
   38POPC  H12Y 5159  -0.103   6.900   7.861  1.1765  0.9120  1.2074
   38POPC  C313 5160   0.075   6.795   7.946  0.7409  0.1397  0.3329
   38POPC  H13X 5161   0.153   6.870   7.921  0.5276 -0.2222 -1.5857
   38POPC  H13Y 5162   0.119   6.696   7.921 -2.9059 -1.4729 -0.3047
   38POPC  C314 5163   0.047   6.783   8.099 -0.3650 -0.0872  1.2821
   38POPC  H14X 5164   0.148   6.772   8.142  0.0290 -0.4878  0.2984
   38POPC  H14Y 5165  -0.003   6.685   8.118 -1.0568 -0.0874 -0.3161
   38POPC  C315 5166  -0.033   6.903   8.149  0.5054 -0.4796  0.4862
   38POPC  H15X 5167  -0.135   6.900   8.105  0.0196  3.5133  0.9532
   38POPC  H15Y 5168   0.022   6.990   8.108  3.7109 -0.6546  3.9119
   38POPC  C316 5169  -0.044   6.911   8.299  0.5966  0.0075 -0.1682
   38POPC  H16X 5170  -0.102   6.832   8.352  0.8825  0.8311  1.4234
   38POPC  H16Y 5171  -0.094   7.008   8.320 -0.7412 -0.3243 -1.6098
   38POPC  H16Z 5172   0.060   6.926   8.334  0.5286 -0.9055  0.4510
   39POPC     N 5173   3.362   2.691   5.826 -0.0393 -0.6715  0.4033
   39POPC   C12 5174   3.405   2.552   5.878  0.3452  0.0596  1.0803
   39POPC  H12A 5175   3.443   2.486   5.801  1.2422 -1.2332  2.5739
   39POPC  H12B 5176   3.318   2.506   5.921 -1.0472  0.5036 -1.0699
   39POPC   C13 5177   3.478   2.762   5.757 -0.1539 -0.4687  0.5829
   39POPC  H13A 5178   3.452   2.848   5.696  0.6607 -0.0845  0.7592
   39POPC  H13B 5179   3.555   2.794   5.826  1.8782 -0.8151 -1.3866
   39POPC  H13C 5180   3.516   2.699   5.678 -3.8011 -0.0412 -1.7572
   39POPC   C14 5181   3.258   2.664   5.726 -0.0878  0.2292  0.3241
   39POPC  H14A 5182   3.206   2.759   5.725  1.8763  1.3425 -0.4154
   39POPC  H14B 5183   3.290   2.643   5.625 -2.2915 -0.8626 -0.2324
   39POPC  H14C 5184   3.194   2.587   5.767  1.6366 -1.1386  0.5592
   39POPC   C15 5185   3.320   2.776   5.937  0.4914 -0.6319 -0.2945
   39POPC  H15A 5186   3.291   2.877   5.913  2.5179  0.2427  0.6545
   39POPC  H15B 5187   3.406   2.774   6.003  2.0549  1.5287 -2.0980
   39POPC  H15C 5188   3.240   2.724   5.987  0.4554 -0.2438  0.0564
   39POPC   C11 5189   3.515   2.545   5.984 -0.3639 -0.3659  0.6939
   39POPC  H11A 5190   3.602   2.599   5.941  0.2821 -1.1263  1.0160
   39POPC  H11B 5191   3.557   2.443   5.999 -0.4702 -0.1628  2.6407
   39POPC     P 5192   3.384   2.540   6.196 -0.1114 -0.0495  0.2016
   39POPC   O13 5193   3.415   2.398   6.208  0.5784  0.1789 -0.2186
   39POPC   O14 5194   3.244   2.569   6.156 -0.3549 -0.2912  0.8741
   39POPC   O12 5195   3.488   2.616   6.097 -0.1731  0.4804 -0.9264
   39POPC   O11 5196   3.419   2.600   6.338 -0.2859 -0.0221  0.5631
   39POPC    C1 5197   3.528   2.553   6.413 -0.0010 -0.0447 -0.0352
   39POPC    HA 5198   3.622   2.564   6.355 -0.6907  2.3473 -0.8154
   39POPC    HB 5199   3.529   2.443   6.424  3.6024 -0.2277 -0.9711
   39POPC    C2 5200   3.533   2.626   6.553 -0.5292  0.6438 -0.2644
   39POPC    HS 5201   3.627   2.588   6.597 -0.7426 -1.0583 -1.2033
   39POPC   O21 5202   3.418   2.588   6.634 -0.3495 -0.1081 -0.6829
   39POPC   C21 5203   3.433   2.489   6.706  1.5496  0.0333 -0.1087
   39POPC   O22 5204   3.518   2.404   6.710  0.5951  0.2660  0.5384
   39POPC   C22 5205   3.313   2.493   6.808  0.3782 -0.3636 -0.2830
   39POPC   H2R 5206   3.226   2.456   6.750  0.3556 -0.7618  0.0026
   39POPC   H2S 5207   3.295   2.601   6.828 -0.4268 -0.3359 -1.1076
   39POPC    C3 5208   3.543   2.778   6.533  0.0725 -0.2623 -0.2886
   39POPC    HX 5209   3.439   2.803   6.500 -0.1650  0.5965  1.0273
   39POPC    HY 5210   3.624   2.792   6.459  1.4530  1.4357  1.4193
   39POPC   O31 5211   3.583   2.861   6.644  0.1922  0.5856  0.0027
   39POPC   C31 5212   3.700   2.838   6.704  0.1149  0.3664  0.2583
   39POPC   O32 5213   3.788   2.757   6.670 -0.0570 -0.0884 -0.0870
   39POPC   C32 5214   3.712   2.920   6.829  0.1158 -0.2620  0.1702
   39POPC   H2X 5215   3.728   3.026   6.800  0.2522 -0.5694 -0.9264
   39POPC   H2Y 5216   3.610   2.912   6.872 -0.7053  0.1728 -1.5886
   39POPC   C23 5217   3.329   2.410   6.937  0.7591 -0.1462  0.1619
   39POPC   H3R 5218   3.422   2.435   6.994  1.5290 -2.6269  0.1052
   39POPC   H3S 5219   3.324   2.304   6.905  0.7716 -0.0783 -0.0669
   39POPC   C24 5220   3.217   2.440   7.038  0.5531  0.3325  0.0133
   39POPC   H4R 5221   3.130   2.452   6.970  2.0107  1.5571 -1.7293
   39POPC   H4S 5222   3.234   2.539   7.086 -0.9110  0.0930  1.0871
   39POPC   C25 5223   3.209   2.338   7.145 -0.0534  0.6508 -0.2040
   39POPC   H5R 5224   3.300   2.305   7.200 -1.5148 -2.6938  0.4439
   39POPC   H5S 5225   3.164   2.252   7.091 -0.8033  2.1599 -2.0983
   39POPC   C26 5226   3.111   2.390   7.247 -0.2106 -0.2163 -0.6117
   39POPC   H6R 5227   3.025   2.429   7.187 -0.9225  0.3647  0.7502
   39POPC   H6S 5228   3.146   2.479   7.302 -1.9499  0.2699 -0.2381
   39POPC   C27 5229   3.077   2.276   7.347 -0.3166  0.2517  0.1969
   39POPC   H7R 5230   3.170   2.233   7.391  0.0147  2.5778  1.9441
   39POPC   H7S 5231   3.026   2.192   7.295 -0.3543  0.8361 -0.7312
   39POPC   C28 5232   2.980   2.306   7.469 -0.4677  0.1785 -0.0154
   39POPC   H8R 5233   2.948   2.209   7.513  0.2104 -1.2181 -2.4176
   39POPC   H8S 5234   2.892   2.360   7.427 -0.4532 -0.8507 -1.4290
   39POPC   C29 5235   3.058   2.394   7.569 -0.3079 -0.1194  0.7958
   39POPC   H91 5236   3.104   2.486   7.530 -0.1431 -0.8756 -0.9310
   39POPC  C210 5237   3.094   2.357   7.694  0.1163 -0.0570 -0.2038
   39POPC  H101 5238   3.120   2.430   7.772 -1.5357  0.8597 -0.4436
   39POPC  C211 5239   3.042   2.227   7.747  0.3361 -0.1815 -0.3885
   39POPC  H11R 5240   3.101   2.135   7.725  0.5540 -0.3124  0.6703
   39POPC  H11S 5241   2.934   2.210   7.727 -0.2805  1.3062  1.4169
   39POPC  C212 5242   3.038   2.229   7.900  0.2014 -0.3292  0.3343
   39POPC  H12R 5243   2.993   2.323   7.936 -2.7583 -1.1712 -0.8778
   39POPC  H12S 5244   3.143   2.211   7.931  0.1450 -1.2142  0.0463
   39POPC  C213 5245   2.972   2.112   7.967  0.5529  0.4478  0.0845
   39POPC  H13R 5246   2.974   2.025   7.899 -2.6560 -1.1941  1.8681
   39POPC  H13S 5247   2.865   2.135   7.985 -0.0330 -2.7671  1.3028
   39POPC  C214 5248   3.054   2.083   8.093  0.6571 -0.4309 -0.2655
   39POPC  H14R 5249   3.056   2.177   8.153  1.4540 -1.3305  1.1872
   39POPC  H14S 5250   3.161   2.065   8.069  0.3463 -2.2348 -0.4095
   39POPC  C215 5251   3.001   1.978   8.189  0.6431  0.4969  0.0532
   39POPC  H15R 5252   3.052   1.987   8.287  3.2188  0.3479 -1.1735
   39POPC  H15S 5253   3.017   1.873   8.157  1.5055  0.8121 -0.6079
   39POPC  C216 5254   2.854   1.989   8.247  0.1463  0.0396 -0.0337
   39POPC  H16R 5255   2.822   1.905   8.313  1.7017  0.3716  1.1874
   39POPC  H16S 5256   2.784   1.974   8.161 -1.9067  1.4547  1.2949
   39POPC  C217 5257   2.819   2.129   8.310 -0.3412  0.4498 -0.4184
   39POPC  H17R 5258   2.729   2.113   8.373  1.1830 -1.2492  1.4542
   39POPC  H17S 5259   2.820   2.192   8.219  3.4923  0.4227 -0.5459
   39POPC  C218 5260   2.924   2.171   8.406 -0.4787  0.3010  0.4916
   39POPC  H18R 5261   2.934   2.089   8.480 -0.8624  1.4037  1.8104
   39POPC  H18S 5262   2.889   2.262   8.460 -3.6534  0.6621 -1.9238
   39POPC  H18T 5263   3.021   2.190   8.354 -1.2985 -1.7871 -1.9824
   39POPC   C33 5264   3.816   2.883   6.930  0.0675 -0.6604 -0.7362
   39POPC   H3X 5265   3.816   2.965   7.005  0.4220 -0.6009 -0.8008
   39POPC   H3Y 5266   3.918   2.890   6.886  0.6675 -2.0873  0.3635
   39POPC   C34 5267   3.796   2.744   6.986  0.0704 -0.4614 -0.2155
   39POPC   H4X 5268   3.883   2.721   7.051  1.3087 -2.5331 -2.4717
   39POPC   H4Y 5269   3.809   2.664   6.910  0.0509 -1.6389  0.9836
   39POPC   C35 5270   3.656   2.732   7.064 -0.2037  0.4138  0.2578
   39POPC   H5X 5271   3.572   2.702   6.998 -2.0183  1.2591  2.0778
   39POPC   H5Y 5272   3.632   2.833   7.104  0.5849  1.6478 -2.1814
   39POPC   C36 5273   3.667   2.628   7.180  0.0276 -0.1253  0.5970
   39POPC   H6X 5274   3.568   2.599   7.220  0.5020 -2.8208  0.0419
   39POPC   H6Y 5275   3.740   2.673   7.251  2.4909  0.2666 -1.9953
   39POPC   C37 5276   3.693   2.484   7.114  0.5196 -0.9552 -0.6158
   39POPC   H7X 5277   3.801   2.461   7.115  0.8630  0.3812  1.9010
   39POPC   H7Y 5278   3.649   2.468   7.013  1.2905 -2.7465 -0.6947
   39POPC   C38 5279   3.617   2.370   7.190  0.0667 -0.2851 -0.0212
   39POPC   H8X 5280   3.622   2.277   7.130 -0.2243  0.3035 -0.9704
   39POPC   H8Y 5281   3.510   2.396   7.195 -0.4442 -2.2745  3.6261
   39POPC   C39 5282   3.669   2.357   7.331  0.4721 -0.6663 -0.0704
   39POPC   H9X 5283   3.694   2.458   7.369  0.3618 -1.2481  1.6194
   39POPC   H9Y 5284   3.756   2.287   7.324 -0.4758 -1.8161 -0.6626
   39POPC  C310 5285   3.565   2.287   7.421 -0.3315 -0.0314 -0.0331
   39POPC  H10X 5286   3.550   2.177   7.407 -1.1256  0.1230 -0.4398
   39POPC  H10Y 5287   3.465   2.333   7.407 -0.9222 -0.6050  1.9461
   39POPC  C311 5288   3.604   2.299   7.571 -0.1762 -0.8171  0.4251
   39POPC  H11X 5289   3.663   2.392   7.586  2.1843 -2.0658 -0.6138
   39POPC  H11Y 5290   3.665   2.211   7.602 -3.3291 -3.2994  0.0813
   39POPC  C312 5291   3.477   2.314   7.668  1.7190  0.3625  0.7851
   39POPC  H12X 5292   3.411   2.225   7.665  0.1059  1.5461 -0.4217
   39POPC  H12Y 5293   3.409   2.389   7.622 -0.7236 -1.8083  0.6590
   39POPC  C313 5294   3.508   2.375   7.804  0.7464  0.1202 -0.4389
   39POPC  H13X 5295   3.413   2.413   7.848  1.7086 -1.3454  3.2293
   39POPC  H13Y 5296   3.576   2.462   7.794 -0.7875  1.5484  0.8135
   39POPC  C314 5297   3.569   2.278   7.906  0.0172  0.1938  0.1281
   39POPC  H14X 5298   3.602   2.326   8.000  1.7958 -1.1992  0.2752
   39POPC  H14Y 5299   3.657   2.227   7.863 -0.0094 -1.2314  1.6847
   39POPC  C315 5300   3.480   2.155   7.933  0.2714 -0.2980 -0.2942
   39POPC  H15X 5301   3.457   2.109   7.835 -1.9390  2.0094 -0.9785
   39POPC  H15Y 5302   3.382   2.184   7.978  1.6100 -0.8464  3.3088
   39POPC  C316 5303   3.534   2.056   8.031 -0.2967 -1.1030  0.0459
   39POPC  H16X 5304   3.630   2.014   7.992 -0.4316 -2.9453  1.5425
   39POPC  H16Y 5305   3.474   1.963   8.043  0.6335 -1.6944  0.2226
   39POPC  H16Z 5306   3.546   2.112   8.127 -1.9005 -0.8312  0.1037
   40POPC     N 5307   3.695   1.162   5.965  0.4563 -0.2909  0.3727
   40POPC   C12 5308   3.748   1.206   6.100  0.3940 -1.3256 -0.1911
   40POPC  H12A 5309   3.769   1.312   6.099  0.2405 -1.2822 -1.8036
   40POPC  H12B 5310   3.850   1.171   6.109  0.9215 -0.1164 -1.2237
   40POPC   C13 5311   3.693   1.017   5.959  0.2587 -0.2097  0.4125
   40POPC  H13A 5312   3.605   0.971   6.002  0.3212 -0.0116  0.7533
   40POPC  H13B 5313   3.701   0.980   5.858 -1.0212  0.7839 -0.0806
   40POPC  H13C 5314   3.767   0.972   6.024 -0.0441 -2.0884 -0.4677
   40POPC   C14 5315   3.562   1.218   5.942  0.2709 -0.6687 -0.1016
   40POPC  H14A 5316   3.530   1.200   5.840  2.7496 -0.2084 -1.0236
   40POPC  H14B 5317   3.488   1.175   6.008  0.7301 -0.9074  0.2666
   40POPC  H14C 5318   3.556   1.325   5.955  3.2149 -0.1390 -1.9756
   40POPC   C15 5319   3.783   1.218   5.858  0.4181  0.1378 -0.1973
   40POPC  H15A 5320   3.745   1.196   5.760 -0.9560  1.2573  0.0587
   40POPC  H15B 5321   3.883   1.179   5.862  1.0289  1.6852  0.4784
   40POPC  H15C 5322   3.797   1.324   5.871 -0.9359  0.0847  2.3665
   40POPC   C11 5323   3.673   1.179   6.233  0.5128 -0.0955 -0.0600
   40POPC  H11A 5324   3.733   1.204   6.323  0.5374 -0.2062 -0.0448
   40POPC  H11B 5325   3.650   1.070   6.238  2.1338 -0.7082 -3.3090
   40POPC     P 5326   3.542   1.394   6.292  0.2233  0.1140  0.3318
   40POPC   O13 5327   3.434   1.457   6.216 -0.3954  0.1222 -0.3170
   40POPC   O14 5328   3.677   1.449   6.288 -0.2862  0.2374 -0.0176
   40POPC   O12 5329   3.552   1.248   6.233 -0.0535  0.6597 -0.1481
   40POPC   O11 5330   3.507   1.372   6.443  0.4374 -0.2284  0.0363
   40POPC    C1 5331   3.423   1.269   6.490  0.5176  0.1235 -0.4819
   40POPC    HA 5332   3.453   1.237   6.592 -2.5568 -2.5099 -0.2509
   40POPC    HB 5333   3.427   1.174   6.432  2.8689  0.3580 -0.8140
   40POPC    C2 5334   3.282   1.326   6.515  0.0641 -0.3316  0.3742
   40POPC    HS 5335   3.238   1.346   6.415 -1.0799 -0.5253  0.8254
   40POPC   O21 5336   3.295   1.450   6.596 -0.3060  0.1353  0.8610
   40POPC   C21 5337   3.190   1.537   6.579  0.1837  0.2862  0.2274
   40POPC   O22 5338   3.096   1.520   6.502 -0.1167 -0.8105  0.1152
   40POPC   C22 5339   3.208   1.654   6.679  0.1891 -0.6591  0.0065
   40POPC   H2R 5340   3.270   1.726   6.621 -2.3129  1.8575  0.2385
   40POPC   H2S 5341   3.280   1.633   6.762 -0.3798  0.5305  0.8292
   40POPC    C3 5342   3.184   1.217   6.581  0.2028  0.1203  0.4740
   40POPC    HX 5343   3.177   1.122   6.524 -1.1304  0.1454  0.5754
   40POPC    HY 5344   3.082   1.260   6.589 -0.3447 -0.9505 -0.5168
   40POPC   O31 5345   3.240   1.185   6.718  0.4120  0.3217  0.1660
   40POPC   C31 5346   3.160   1.214   6.810 -1.1836  0.1148 -0.0942
   40POPC   O32 5347   3.042   1.233   6.814  0.1402 -0.3223 -0.2429
   40POPC   C32 5348   3.251   1.221   6.933 -0.0764  0.6253 -0.4535
   40POPC   H2X 5349   3.318   1.307   6.910 -0.6536  0.6882 -1.9922
   40POPC   H2Y 5350   3.298   1.124   6.957 -3.0838 -0.7080  0.5285
   40POPC   C23 5351   3.080   1.739   6.716 -1.0094  0.3073 -0.3163
   40POPC   H3R 5352   3.034   1.772   6.620  3.0114  2.0888 -1.8548
   40POPC   H3S 5353   3.121   1.826   6.771  0.3280 -0.7577  0.4625
   40POPC   C24 5354   2.987   1.654   6.803 -0.9529  0.1703 -0.9843
   40POPC   H4R 5355   2.958   1.560   6.751  0.1284 -0.8167  0.1363
   40POPC   H4S 5356   2.890   1.704   6.824  0.3956  1.7162  2.3704
   40POPC   C25 5357   3.046   1.637   6.947  0.2939 -0.5282 -0.0971
   40POPC   H5R 5358   3.052   1.738   6.995 -0.6879 -0.9489  0.9673
   40POPC   H5S 5359   3.146   1.590   6.939  1.0134  1.0923 -1.2658
   40POPC   C26 5360   2.938   1.567   7.045 -0.1090  0.8928  0.1239
   40POPC   H6R 5361   2.908   1.466   7.010 -1.9555  0.7506  1.9318
   40POPC   H6S 5362   2.845   1.627   7.033 -1.7291 -1.7038 -1.1836
   40POPC   C27 5363   2.979   1.571   7.195  0.2883  0.1232  0.3569
   40POPC   H7R 5364   2.981   1.678   7.223 -0.1008  0.5179 -0.9993
   40POPC   H7S 5365   3.074   1.514   7.204 -0.9525 -1.8554  1.6956
   40POPC   C28 5366   2.873   1.521   7.296 -0.2914  0.2166 -0.0454
   40POPC   H8R 5367   2.783   1.584   7.311  0.9201  2.2335 -0.9191
   40POPC   H8S 5368   2.926   1.541   7.392  0.5524  1.3021 -0.7147
   40POPC   C29 5369   2.830   1.378   7.278 -0.3171  0.0441 -0.2851
   40POPC   H91 5370   2.870   1.328   7.188 -0.2696 -1.1616  0.3842
   40POPC  C210 5371   2.737   1.314   7.351  0.5071 -0.1519  0.5484
   40POPC  H101 5372   2.723   1.209   7.322 -0.9208  0.0882  0.3232
   40POPC  C211 5373   2.652   1.368   7.459  0.1325 -0.6041 -0.2904
   40POPC  H11R 5374   2.557   1.312   7.473  0.6738 -1.7973 -1.1925
   40POPC  H11S 5375   2.615   1.471   7.440 -2.2225 -1.0144  1.5999
   40POPC  C212 5376   2.733   1.361   7.594 -0.3187  0.4810  0.1877
   40POPC  H12R 5377   2.842   1.359   7.575 -0.4605  1.3297 -0.7831
   40POPC  H12S 5378   2.723   1.265   7.650  0.8193 -1.3052 -2.4545
   40POPC  C213 5379   2.704   1.474   7.692  0.0429 -0.6149  0.1939
   40POPC  H13R 5380   2.594   1.471   7.711  0.0947 -2.6720  0.3396
   40POPC  H13S 5381   2.720   1.569   7.637  0.6715 -1.2006 -0.6465
   40POPC  C214 5382   2.787   1.486   7.819 -0.6649 -0.4002  0.0448
   40POPC  H14R 5383   2.896   1.501   7.803 -0.8032  1.8113  0.8775
   40POPC  H14S 5384   2.775   1.384   7.862 -1.8879 -0.5634 -0.6343
   40POPC  C215 5385   2.746   1.602   7.906  0.4667  0.0844 -0.4015
   40POPC  H15R 5386   2.652   1.566   7.953  1.4239 -0.9917  0.7407
   40POPC  H15S 5387   2.732   1.688   7.836  0.7555  0.9213  0.5362
   40POPC  C216 5388   2.840   1.644   8.017 -0.1608  0.0815  0.0687
   40POPC  H16R 5389   2.808   1.744   8.053  1.4098 -0.0761  2.0876
   40POPC  H16S 5390   2.940   1.668   7.976  0.0805 -0.9229  0.0393
   40POPC  C217 5391   2.852   1.541   8.135 -0.4666 -0.2454  0.2749
   40POPC  H17R 5392   2.867   1.438   8.095  0.5298  0.1832 -0.5174
   40POPC  H17S 5393   2.751   1.537   8.180 -1.6389  0.0387 -2.1891
   40POPC  C218 5394   2.968   1.581   8.230 -0.7208 -0.6219 -0.1298
   40POPC  H18R 5395   3.055   1.567   8.163 -0.2787  0.9861  0.0697
   40POPC  H18S 5396   2.965   1.509   8.315 -0.6041  0.0320  0.4389
   40POPC  H18T 5397   2.972   1.686   8.267 -1.1288 -0.7425  0.2733
   40POPC   C33 5398   3.162   1.262   7.057  0.8883 -0.4948  0.0175
   40POPC   H3X 5399   3.060   1.221   7.045  1.0404 -0.7909 -0.2936
   40POPC   H3Y 5400   3.171   1.373   7.058 -0.7771 -0.2974 -1.5643
   40POPC   C34 5401   3.206   1.196   7.186 -0.7094 -1.0269 -0.4033
   40POPC   H4X 5402   3.306   1.232   7.218 -0.8194  0.2398 -1.4192
   40POPC   H4Y 5403   3.222   1.087   7.172  2.3503 -1.1341  2.5901
   40POPC   C35 5404   3.117   1.211   7.312 -0.3776  0.2908 -0.2397
   40POPC   H5X 5405   3.018   1.162   7.298  0.2221 -0.8830 -0.5269
   40POPC   H5Y 5406   3.104   1.318   7.340  1.2090  0.0966  1.4441
   40POPC   C36 5407   3.172   1.147   7.437  0.9898 -0.0116  1.1280
   40POPC   H6X 5408   3.267   1.194   7.471  1.6966 -0.6879  0.1539
   40POPC   H6Y 5409   3.194   1.040   7.417  0.1075  0.5671 -4.8946
   40POPC   C37 5410   3.070   1.164   7.548  0.4494 -0.0468 -0.2595
   40POPC   H7X 5411   2.973   1.114   7.527 -0.4380  0.5838  2.0338
   40POPC   H7Y 5412   3.062   1.273   7.565  2.7972  0.4038 -1.6271
   40POPC   C38 5413   3.122   1.096   7.676  0.2542  0.4543  0.0726
   40POPC   H8X 5414   3.224   1.130   7.705 -0.2378  2.5090 -0.4001
   40POPC   H8Y 5415   3.120   0.985   7.670 -1.7024  0.4186  0.4616
   40POPC   C39 5416   3.035   1.143   7.789 -0.1443  0.7090 -0.2417
   40POPC   H9X 5417   2.941   1.087   7.774 -1.2838  2.3629  0.4263
   40POPC   H9Y 5418   3.010   1.251   7.779  0.0778  0.7087 -0.8771
   40POPC  C310 5419   3.095   1.116   7.923  1.2857 -0.0786 -0.6354
   40POPC  H10X 5420   3.160   1.201   7.953 -0.1394  0.5246  0.9275
   40POPC  H10Y 5421   3.156   1.023   7.918 -0.7183 -1.7369  2.4080
   40POPC  C311 5422   2.997   1.068   8.034 -0.4859  0.1364  0.2014
   40POPC  H11X 5423   2.929   0.988   8.000 -1.5167 -0.1732  2.7704
   40POPC  H11Y 5424   2.927   1.151   8.056  1.1088  1.4368  0.6321
   40POPC  C312 5425   3.076   1.032   8.165  0.8165  0.0927  0.7937
   40POPC  H12X 5426   3.134   1.121   8.196  1.6571 -0.2959  0.3541
   40POPC  H12Y 5427   3.141   0.946   8.139 -1.1604 -0.9032 -1.2371
   40POPC  C313 5428   2.984   0.989   8.281 -0.7258  0.2678 -0.1028
   40POPC  H13X 5429   2.925   1.075   8.320 -0.4883  0.5612 -0.3756
   40POPC  H13Y 5430   3.051   0.961   8.365  0.0664  2.5806  0.1290
   40POPC  C314 5431   2.893   0.865   8.252 -0.3771 -0.0968  0.2132
   40POPC  H14X 5432   2.948   0.806   8.175 -1.5131 -0.6202 -0.2213
   40POPC  H14Y 5433   2.797   0.902   8.211 -0.0854  0.1793 -0.2330
   40POPC  C315 5434   2.864   0.769   8.367 -0.2272  0.7897  0.2725
   40POPC  H15X 5435   2.820   0.820   8.455 -0.7635 -1.1659  1.1742
   40POPC  H15Y 5436   2.953   0.725   8.416  0.2530  1.4954  0.0522
   40POPC  C316 5437   2.772   0.651   8.330 -0.6258  0.8862 -0.1235
   40POPC  H16X 5438   2.824   0.553   8.336  0.8235  1.6741  0.9221
   40POPC  H16Y 5439   2.727   0.658   8.229  0.3793  0.3872 -0.6166
   40POPC  H16Z 5440   2.684   0.639   8.397 -1.2251 -1.1012 -1.1946
   41CHL1    C3 5441   3.326   4.085  10.097 -0.0766 -0.1542  0.0539
   41CHL1    H3 5442   3.226   4.062  10.054 -0.1805  0.6959 -0.1792
   41CHL1    O3 5443   3.318   4.092  10.236 -0.1183 -0.5861  0.0672
   41CHL1   H3' 5444   3.231   4.127  10.254 -0.5394 -1.7727  0.4273
   41CHL1    C4 5445   3.425   3.974  10.071 -0.2999  0.5056  0.3244
   41CHL1   H4A 5446   3.516   3.982  10.134 -0.0086 -1.8550  0.2885
   41CHL1   H4B 5447   3.391   3.876  10.110  0.8325 -1.0519 -2.3092
   41CHL1    C5 5448   3.460   3.963   9.925 -0.2803 -0.2301  0.4583
   41CHL1    C6 5449   3.447   3.855   9.850 -0.5081 -1.0959 -0.2954
   41CHL1    H6 5450   3.393   3.776   9.904 -1.8437 -0.1533 -0.1946
   41CHL1    C7 5451   3.497   3.833   9.709  0.2188 -0.5001 -0.4041
   41CHL1   H7A 5452   3.569   3.749   9.699 -1.3320 -1.6912 -2.2232
   41CHL1   H7B 5453   3.413   3.810   9.640  0.8225 -1.1767 -0.9341
   41CHL1    C8 5454   3.571   3.957   9.655 -0.0733 -0.5109 -0.1944
   41CHL1    H8 5455   3.678   3.949   9.682 -0.1249 -0.8857 -0.0871
   41CHL1   C14 5456   3.550   3.946   9.500 -0.5155 -0.3648 -0.0666
   41CHL1   H14 5457   3.443   3.963   9.478 -0.1993 -0.1809 -1.5434
   41CHL1   C15 5458   3.591   3.809   9.435 -0.5606  0.0181  0.0069
   41CHL1  H15A 5459   3.677   3.761   9.485 -0.6173 -0.3262 -0.2219
   41CHL1  H15B 5460   3.499   3.747   9.433 -0.1738 -0.5464 -0.7582
   41CHL1   C16 5461   3.632   3.854   9.293  0.4907 -0.7630 -0.3174
   41CHL1  H16A 5462   3.739   3.828   9.276  0.8612  1.8129 -2.7073
   41CHL1  H16B 5463   3.570   3.800   9.217 -0.2801  0.2040 -0.3897
   41CHL1   C17 5464   3.614   4.008   9.278  0.2064  0.2315 -0.4968
   41CHL1   H17 5465   3.509   4.027   9.248 -0.2418 -0.8157  0.3558
   41CHL1   C13 5466   3.623   4.050   9.420 -0.5368 -0.4307  0.1066
   41CHL1   C18 5467   3.777   4.049   9.461  0.3529 -0.4130  0.0431
   41CHL1  H18A 5468   3.797   4.051   9.570  1.9482 -1.3340 -0.2067
   41CHL1  H18B 5469   3.821   3.963   9.407 -1.4517 -0.4358 -1.5017
   41CHL1  H18C 5470   3.808   4.152   9.432 -3.2068  1.1606  1.1601
   41CHL1   C12 5471   3.566   4.186   9.471  0.0884  0.0540  0.4437
   41CHL1  H12A 5472   3.629   4.266   9.426 -1.1270  1.1858  0.6833
   41CHL1  H12B 5473   3.461   4.197   9.436  0.3904 -2.4689 -1.5835
   41CHL1   C11 5474   3.572   4.207   9.631  0.0242 -0.1988  0.5528
   41CHL1  H11A 5475   3.674   4.239   9.661 -0.0020 -1.1876  1.7523
   41CHL1  H11B 5476   3.503   4.287   9.666 -0.2582 -0.5407  0.7835
   41CHL1    C9 5477   3.511   4.086   9.707 -0.4714 -0.4341 -0.0938
   41CHL1    H9 5478   3.403   4.087   9.682 -0.6385 -1.5628  0.5085
   41CHL1   C10 5479   3.516   4.092   9.865 -0.2441  1.0088  0.5189
   41CHL1   C19 5480   3.661   4.097   9.909  0.1070  1.0639 -0.5563
   41CHL1  H19A 5481   3.709   4.184   9.861 -0.5368  0.3395 -2.6315
   41CHL1  H19B 5482   3.683   4.102  10.018 -1.2891  2.0246 -0.2977
   41CHL1  H19C 5483   3.708   4.001   9.880 -1.1434  0.1408  0.3277
   41CHL1    C1 5484   3.425   4.208   9.899  0.3724  0.0542  0.4537
   41CHL1   H1A 5485   3.464   4.308   9.869 -1.5140 -0.2480 -3.8527
   41CHL1   H1B 5486   3.325   4.198   9.853 -0.2657  0.5548  1.6990
   41CHL1    C2 5487   3.384   4.213  10.043 -0.2275 -0.5137 -0.9024
   41CHL1   H2A 5488   3.296   4.281  10.055  0.3487  0.3566 -1.4728
   41CHL1   H2B 5489   3.473   4.242  10.102 -0.9090  0.7061 -0.4476
   41CHL1   C20 5490   3.710   4.077   9.175  0.1138  0.4200  0.0081
   41CHL1   H20 5491   3.812   4.085   9.219 -0.8444  0.7501  2.3250
   41CHL1   C21 5492   3.666   4.222   9.131  0.0090  0.5263 -0.0977
   41CHL1  H21A 5493   3.748   4.271   9.074  0.8465  0.1251  0.7257
   41CHL1  H21B 5494   3.645   4.297   9.210 -0.5282 -1.6881  1.9859
   41CHL1  H21C 5495   3.572   4.220   9.072 -0.6124 -2.2502  0.8332
   41CHL1   C22 5496   3.719   3.997   9.044 -0.0414  0.1726  0.4319
   41CHL1  H22A 5497   3.743   3.890   9.062 -0.4218 -0.2751 -1.5111
   41CHL1  H22B 5498   3.616   4.014   9.006 -0.7726 -2.3372  1.0784
   41CHL1   C23 5499   3.827   4.040   8.949 -0.5191 -0.7642  0.6507
   41CHL1  H23A 5500   3.843   4.150   8.945  0.6120 -0.8954  1.0854
   41CHL1  H23B 5501   3.924   3.997   8.981  0.4621 -1.1638 -2.5207
   41CHL1   C24 5502   3.803   4.000   8.803 -0.4783  0.2596 -0.1704
   41CHL1  H24A 5503   3.767   3.895   8.795  0.7581 -0.1087 -1.0929
   41CHL1  H24B 5504   3.730   4.071   8.758  0.6886  2.3609  1.0705
   41CHL1   C25 5505   3.930   3.997   8.718  0.5606 -0.5641  0.3227
   41CHL1   H25 5506   3.999   3.921   8.762  1.2068 -0.8124 -1.0612
   41CHL1   C26 5507   3.907   3.952   8.572  0.0151 -0.2983  0.2985
   41CHL1  H26A 5508   3.888   4.039   8.506  3.5111  2.1784  2.2067
   41CHL1  H26B 5509   4.004   3.907   8.541 -0.3969 -1.1053  0.1395
   41CHL1  H26C 5510   3.821   3.881   8.563  0.3925 -1.0072  1.9170
   41CHL1   C27 5511   3.986   4.141   8.714 -0.3019  0.8500  0.5155
   41CHL1  H27A 5512   4.049   4.153   8.623 -1.5417 -0.3897 -0.5463
   41CHL1  H27B 5513   3.909   4.220   8.699  0.0918  1.1433 -0.0311
   41CHL1  H27C 5514   4.044   4.175   8.802  0.5379  0.8184 -0.0113
   42CHL1    C3 5515   2.793   4.255   9.962  0.4091  0.6773  0.4275
   42CHL1    H3 5516   2.761   4.177   9.889  4.3364  0.5461 -1.4298
   42CHL1    O3 5517   2.782   4.225  10.097  0.0403  0.5958  0.0828
   42CHL1   H3' 5518   2.841   4.292  10.131  1.8327 -0.7465 -0.2386
   42CHL1    C4 5519   2.944   4.281   9.948 -1.3004  0.1723 -0.1260
   42CHL1   H4A 5520   2.977   4.366  10.011 -2.1363  1.0493 -0.8494
   42CHL1   H4B 5521   3.000   4.188   9.972 -0.8075  0.4691 -0.1104
   42CHL1    C5 5522   2.962   4.326   9.803 -0.2886  0.8122 -0.5077
   42CHL1    C6 5523   3.046   4.266   9.719  0.2370  0.4509  0.9140
   42CHL1    H6 5524   3.112   4.191   9.765  2.0905  1.4714  0.0502
   42CHL1    C7 5525   3.086   4.301   9.581  0.1520 -0.1924  0.4153
   42CHL1   H7A 5526   3.196   4.297   9.564 -0.1478 -1.0222 -1.7255
   42CHL1   H7B 5527   3.045   4.219   9.518  1.3775 -0.4522 -0.0691
   42CHL1    C8 5528   3.026   4.431   9.537 -0.0982 -0.2029  0.5085
   42CHL1    H8 5529   3.083   4.520   9.571 -0.1873  1.1451 -2.5242
   42CHL1   C14 5530   3.023   4.427   9.381 -0.3042 -0.0727 -0.0037
   42CHL1   H14 5531   2.954   4.344   9.352 -1.9454  1.8522 -1.9092
   42CHL1   C15 5532   3.149   4.401   9.290 -0.1626 -0.4862  0.0294
   42CHL1  H15A 5533   3.236   4.464   9.318  0.0513 -1.2706  1.2394
   42CHL1  H15B 5534   3.194   4.299   9.295 -0.1626 -0.5527 -1.0762
   42CHL1   C16 5535   3.089   4.427   9.151 -0.3645  0.0501 -0.1373
   42CHL1  H16A 5536   3.159   4.481   9.084  1.1929  0.1365  1.4776
   42CHL1  H16B 5537   3.062   4.337   9.093 -0.3811  0.1618 -0.3029
   42CHL1   C17 5538   2.956   4.511   9.173  0.5392  0.0072  0.5252
   42CHL1   H17 5539   2.873   4.438   9.160 -0.5338  1.0672  1.1867
   42CHL1   C13 5540   2.958   4.550   9.321 -0.1528 -0.1636  0.0325
   42CHL1   C18 5541   3.043   4.679   9.341 -0.3479 -0.5577 -0.4424
   42CHL1  H18A 5542   2.989   4.774   9.322  1.5115  0.6361 -0.0192
   42CHL1  H18B 5543   3.064   4.692   9.449 -0.5043  0.7964 -0.5548
   42CHL1  H18C 5544   3.142   4.680   9.291  0.8697 -0.4172  1.8508
   42CHL1   C12 5545   2.822   4.563   9.379  0.5724 -0.0585 -0.0011
   42CHL1  H12A 5546   2.783   4.663   9.349  1.6121  0.3776  0.0293
   42CHL1  H12B 5547   2.771   4.473   9.341  1.0593  0.1063 -1.0672
   42CHL1   C11 5548   2.810   4.568   9.533 -0.1263  0.3780 -0.5920
   42CHL1  H11A 5549   2.864   4.657   9.571 -0.0546 -0.3272  1.0171
   42CHL1  H11B 5550   2.704   4.584   9.564  0.1702  3.5261 -0.8365
   42CHL1    C9 5551   2.878   4.450   9.598 -0.3249 -0.0552  0.1795
   42CHL1    H9 5552   2.819   4.361   9.569  1.9124 -1.3407 -0.6753
   42CHL1   C10 5553   2.879   4.445   9.761 -0.1083  0.0294 -0.3908
   42CHL1   C19 5554   2.942   4.576   9.812  0.2876 -0.0948  0.0806
   42CHL1  H19A 5555   2.876   4.666   9.810 -0.2689 -0.5098 -1.2051
   42CHL1  H19B 5556   2.973   4.559   9.917 -1.9139 -2.6999  0.4204
   42CHL1  H19C 5557   3.037   4.590   9.756 -0.7900 -0.5918 -1.9883
   42CHL1    C1 5558   2.724   4.429   9.799 -0.5002  0.2798 -0.2614
   42CHL1   H1A 5559   2.667   4.523   9.783 -0.7342  0.5482  1.8803
   42CHL1   H1B 5560   2.685   4.352   9.729  0.1975 -0.3536  0.0361
   42CHL1    C2 5561   2.708   4.383   9.948 -0.4014 -0.4892  0.5217
   42CHL1   H2A 5562   2.600   4.364   9.966 -0.3834 -1.2837 -0.1346
   42CHL1   H2B 5563   2.749   4.462  10.014 -1.4700  0.7483 -0.2293
   42CHL1   C20 5564   2.944   4.620   9.064  0.5484 -0.2495 -0.1472
   42CHL1   H20 5565   3.032   4.687   9.075 -0.0370  0.2463  1.7055
   42CHL1   C21 5566   2.817   4.698   9.088 -0.2683 -0.4601 -0.1620
   42CHL1  H21A 5567   2.792   4.773   9.010 -2.9015 -0.4497  0.5884
   42CHL1  H21B 5568   2.837   4.764   9.175  0.2718  1.6969 -1.8413
   42CHL1  H21C 5569   2.728   4.637   9.118 -2.2964  2.7876  0.9267
   42CHL1   C22 5570   2.947   4.563   8.925 -0.6286 -0.8099 -0.1623
   42CHL1  H22A 5571   2.928   4.648   8.855  0.5693  0.2363  0.7415
   42CHL1  H22B 5572   3.044   4.519   8.895 -0.8861 -0.9147 -0.8740
   42CHL1   C23 5573   2.845   4.454   8.907  0.4763 -0.4800 -0.1699
   42CHL1  H23A 5574   2.891   4.361   8.945  0.6433 -0.1574  0.4202
   42CHL1  H23B 5575   2.754   4.478   8.966  0.2835  0.4208 -0.8199
   42CHL1   C24 5576   2.810   4.424   8.763  0.5575 -0.5215  0.1234
   42CHL1  H24A 5577   2.751   4.505   8.716  0.6416  0.1461  1.1526
   42CHL1  H24B 5578   2.898   4.423   8.696 -1.2071  1.2937 -2.3810
   42CHL1   C25 5579   2.731   4.289   8.751  0.2371 -0.1713  0.3479
   42CHL1   H25 5580   2.790   4.207   8.797  2.1348  0.5213 -0.7364
   42CHL1   C26 5581   2.591   4.289   8.805 -0.0112 -1.0818 -0.3879
   42CHL1  H26A 5582   2.586   4.321   8.911  0.7365 -1.5798 -0.1997
   42CHL1  H26B 5583   2.529   4.369   8.759 -1.6048 -0.5660  2.4392
   42CHL1  H26C 5584   2.546   4.187   8.799  0.5326 -1.4328  1.0662
   42CHL1   C27 5585   2.726   4.255   8.597  0.0906  0.8767  0.2149
   42CHL1  H27A 5586   2.670   4.159   8.588 -1.6088  1.8216  0.2280
   42CHL1  H27B 5587   2.674   4.334   8.539 -0.9477 -0.7171 -1.1459
   42CHL1  H27C 5588   2.825   4.229   8.553 -0.7005 -2.7747  0.3057
   43CHL1    C3 5589   3.967   4.478  10.157 -0.1442  0.2006 -0.1648
   43CHL1    H3 5590   4.074   4.495  10.180 -0.3579  1.1269  0.1790
   43CHL1    O3 5591   3.899   4.455  10.281  0.4677 -0.1133 -0.0831
   43CHL1   H3' 5592   3.806   4.465  10.261  0.4678  2.9685  0.9625
   43CHL1    C4 5593   3.921   4.611  10.087 -0.5746  0.5534 -0.6017
   43CHL1   H4A 5594   3.810   4.618  10.087 -0.5446  1.1944  0.4610
   43CHL1   H4B 5595   3.964   4.699  10.137  1.2850 -0.1494 -0.8779
   43CHL1    C5 5596   3.968   4.616   9.947 -0.0454 -0.4552  0.2928
   43CHL1    C6 5597   4.031   4.718   9.897 -0.2858  0.7589 -0.2564
   43CHL1    H6 5598   4.053   4.802   9.965 -2.5200  1.3362 -0.1665
   43CHL1    C7 5599   4.076   4.752   9.758  0.0149  0.2200 -0.0533
   43CHL1   H7A 5600   4.030   4.851   9.739  3.6716  2.1595  0.2778
   43CHL1   H7B 5601   4.187   4.757   9.755  0.1637 -2.0390 -1.1844
   43CHL1    C8 5602   4.032   4.643   9.650  0.4357  0.6483  0.5386
   43CHL1    H8 5603   3.928   4.667   9.621  0.7572 -0.7691 -2.0965
   43CHL1   C14 5604   4.118   4.636   9.530  0.4794 -0.1183  0.2491
   43CHL1   H14 5605   4.223   4.611   9.557  0.1558  1.1561  3.0069
   43CHL1   C15 5606   4.126   4.769   9.449  0.0785 -0.9215 -0.3270
   43CHL1  H15A 5607   4.027   4.818   9.448 -0.0528 -1.1699  0.3194
   43CHL1  H15B 5608   4.200   4.838   9.495 -0.4580 -0.1913 -0.5393
   43CHL1   C16 5609   4.174   4.727   9.312  0.2426 -0.1999  0.6004
   43CHL1  H16A 5610   4.116   4.780   9.234  0.1111 -0.6666  0.3775
   43CHL1  H16B 5611   4.279   4.759   9.298  0.1485 -0.4309 -0.7395
   43CHL1   C17 5612   4.166   4.568   9.301  0.3683  0.4763 -0.0568
   43CHL1   H17 5613   4.264   4.519   9.321  0.5315  0.9498  0.3202
   43CHL1   C13 5614   4.071   4.536   9.419 -0.1855  0.4165  0.6131
   43CHL1   C18 5615   3.931   4.585   9.375 -0.4990 -0.7757  0.6665
   43CHL1  H18A 5616   3.928   4.682   9.321 -1.0551 -0.9491  0.3826
   43CHL1  H18B 5617   3.896   4.510   9.301  0.9032  0.7441 -1.6314
   43CHL1  H18C 5618   3.848   4.590   9.450  0.8916 -0.5991  2.2518
   43CHL1   C12 5619   4.070   4.390   9.478  0.6952 -0.6107 -0.0226
   43CHL1  H12A 5620   4.015   4.316   9.417 -1.2743 -1.5273  2.6580
   43CHL1  H12B 5621   4.175   4.360   9.503  0.9061  0.1054 -0.0283
   43CHL1   C11 5622   3.990   4.390   9.617  0.7004  0.7913  0.1818
   43CHL1  H11A 5623   3.883   4.405   9.591  1.4637  0.5169 -3.6974
   43CHL1  H11B 5624   3.994   4.285   9.651 -1.4759  0.5220 -0.2697
   43CHL1    C9 5625   4.027   4.504   9.716 -0.1725  0.4453  0.8677
   43CHL1    H9 5626   4.130   4.477   9.745 -0.4906 -1.3792  0.4609
   43CHL1   C10 5627   3.953   4.491   9.859 -0.4735  0.2871  0.4470
   43CHL1   C19 5628   3.791   4.494   9.841 -0.1359  0.0827  0.1157
   43CHL1  H19A 5629   3.751   4.461   9.939  0.0479 -1.7744 -0.3969
   43CHL1  H19B 5630   3.745   4.594   9.822 -0.9048 -0.1320  0.7755
   43CHL1  H19C 5631   3.750   4.433   9.758 -1.2952  0.0338  0.6924
   43CHL1    C1 5632   4.010   4.374   9.933  0.6573  0.0568  0.2948
   43CHL1   H1A 5633   3.981   4.284   9.877 -0.2147 -0.1105  0.9971
   43CHL1   H1B 5634   4.121   4.376   9.921  0.6335 -2.4764 -0.7861
   43CHL1    C2 5635   3.950   4.349  10.075  0.6236 -0.0508 -0.0252
   43CHL1   H2A 5636   4.014   4.274  10.126  0.9178 -0.0091 -0.3294
   43CHL1   H2B 5637   3.847   4.308  10.062  0.7537 -0.6967  0.8991
   43CHL1   C20 5638   4.121   4.522   9.159  0.0795 -0.4803  0.4726
   43CHL1   H20 5639   4.029   4.579   9.134  0.9221  0.8333  0.2824
   43CHL1   C21 5640   4.102   4.371   9.147 -0.0806 -0.2537 -0.1392
   43CHL1  H21A 5641   4.091   4.345   9.039  0.6245 -0.4888 -0.1580
   43CHL1  H21B 5642   4.014   4.332   9.201  0.0239 -1.0790 -0.5537
   43CHL1  H21C 5643   4.193   4.314   9.174  0.6410  0.6403 -0.6069
   43CHL1   C22 5644   4.224   4.576   9.060 -1.0490 -0.8568  0.2331
   43CHL1  H22A 5645   4.246   4.683   9.081  0.2688 -1.1218  0.2804
   43CHL1  H22B 5646   4.322   4.524   9.065 -0.0198  0.8726 -0.9708
   43CHL1   C23 5647   4.185   4.569   8.915  0.1374 -0.8190 -0.6053
   43CHL1  H23A 5648   4.178   4.461   8.889  0.4101 -0.6114 -1.6190
   43CHL1  H23B 5649   4.081   4.606   8.904 -0.4268 -1.9327  0.6620
   43CHL1   C24 5650   4.276   4.644   8.818  0.5008 -0.2824  0.2112
   43CHL1  H24A 5651   4.302   4.738   8.871  0.7384 -0.0548 -0.3010
   43CHL1  H24B 5652   4.371   4.590   8.798  1.0955  1.2091 -1.1360
   43CHL1   C25 5653   4.206   4.678   8.684 -0.2191  0.2395  0.1418
   43CHL1   H25 5654   4.114   4.739   8.698  1.4484  3.2102 -0.8532
   43CHL1   C26 5655   4.301   4.768   8.607  0.6118  0.2538  0.4447
   43CHL1  H26A 5656   4.262   4.808   8.510 -1.4797  0.0490  1.1369
   43CHL1  H26B 5657   4.336   4.856   8.666 -0.3575  0.9228  0.0715
   43CHL1  H26C 5658   4.384   4.702   8.577 -1.8093 -2.2330 -1.2988
   43CHL1   C27 5659   4.171   4.551   8.612  0.3472 -0.2829  0.1831
   43CHL1  H27A 5660   4.255   4.482   8.593  0.4762 -0.4029  1.1272
   43CHL1  H27B 5661   4.093   4.494   8.667 -0.6948 -1.7217 -2.6078
   43CHL1  H27C 5662   4.128   4.574   8.512  0.1264 -1.3559  0.0183
   44CHL1    C3 5663   4.069   3.854  10.101 -0.4340 -1.2583 -0.1981
   44CHL1    H3 5664   4.007   3.766  10.075 -0.4338 -0.6598 -2.4844
   44CHL1    O3 5665   4.062   3.892  10.238  0.1695 -0.1536 -0.1147
   44CHL1   H3' 5666   4.114   3.823  10.280  2.2831  1.7761  0.6807
   44CHL1    C4 5667   4.216   3.836  10.065 -0.3447 -0.2236 -0.5904
   44CHL1   H4A 5668   4.270   3.923  10.108 -0.0135 -0.4945 -0.4469
   44CHL1   H4B 5669   4.244   3.749  10.128  0.5933  0.4736 -0.0117
   44CHL1    C5 5670   4.230   3.819   9.918  0.2694 -0.8533  0.5083
   44CHL1    C6 5671   4.293   3.716   9.860 -0.8933  0.2717  0.8583
   44CHL1    H6 5672   4.335   3.637   9.923 -3.4125 -2.1754 -0.3331
   44CHL1    C7 5673   4.328   3.698   9.713  0.1414 -0.4799  0.3182
   44CHL1   H7A 5674   4.436   3.678   9.697  0.2241 -0.3404  0.6791
   44CHL1   H7B 5675   4.261   3.618   9.675 -1.0223  0.2363  0.8109
   44CHL1    C8 5676   4.306   3.827   9.635  0.0151 -0.3692 -0.0560
   44CHL1    H8 5677   4.387   3.900   9.655 -2.4770  1.9571  2.5449
   44CHL1   C14 5678   4.298   3.799   9.483 -0.4266 -0.5705  0.3467
   44CHL1   H14 5679   4.208   3.735   9.470 -0.2816 -0.4048 -1.8123
   44CHL1   C15 5680   4.411   3.712   9.416  0.1683  0.2071  0.5262
   44CHL1  H15A 5681   4.509   3.747   9.455  0.3496 -0.3594  0.5881
   44CHL1  H15B 5682   4.410   3.602   9.431  2.2676 -0.2325 -1.9634
   44CHL1   C16 5683   4.387   3.744   9.261 -0.0005  0.6146 -0.1091
   44CHL1  H16A 5684   4.476   3.788   9.211  0.0775  0.5840  0.0020
   44CHL1  H16B 5685   4.355   3.651   9.209 -2.1529  0.1255  1.9080
   44CHL1   C17 5686   4.266   3.841   9.261 -0.2791  0.0723  0.4157
   44CHL1   H17 5687   4.176   3.776   9.255 -0.2131  0.0908 -1.4338
   44CHL1   C13 5688   4.275   3.916   9.388 -0.2800 -0.3597 -0.1936
   44CHL1   C18 5689   4.393   4.008   9.400 -0.4908  0.0406  0.1066
   44CHL1  H18A 5690   4.412   4.038   9.505 -2.0325  1.2999  0.0591
   44CHL1  H18B 5691   4.482   3.964   9.348  0.5497  1.2038  0.8411
   44CHL1  H18C 5692   4.367   4.110   9.364  1.8533  1.3679  1.8483
   44CHL1   C12 5693   4.144   3.980   9.432 -0.5558 -0.4974  0.0004
   44CHL1  H12A 5694   4.135   4.073   9.371  2.7421  1.7171  2.5399
   44CHL1  H12B 5695   4.061   3.910   9.408  0.5362 -1.5479 -0.8131
   44CHL1   C11 5696   4.139   4.018   9.583 -0.2476 -0.3468 -0.4769
   44CHL1  H11A 5697   4.202   4.108   9.598 -2.1932  0.7371  1.7211
   44CHL1  H11B 5698   4.040   4.059   9.610  0.7090  0.1668  2.7242
   44CHL1    C9 5699   4.181   3.903   9.680  0.0284  0.0771  0.2133
   44CHL1    H9 5700   4.094   3.834   9.666 -2.9637  3.6787 -0.6343
   44CHL1   C10 5701   4.175   3.936   9.832 -0.0202 -0.1747 -0.3616
   44CHL1   C19 5702   4.250   4.063   9.857 -0.3071 -0.1097 -0.7202
   44CHL1  H19A 5703   4.353   4.062   9.817  0.1605 -0.0448  0.4475
   44CHL1  H19B 5704   4.196   4.147   9.808 -2.9779  0.0284  2.1321
   44CHL1  H19C 5705   4.242   4.108   9.959 -1.8930 -0.7122 -0.5460
   44CHL1    C1 5706   4.022   3.945   9.879 -0.0254  0.3822 -0.8257
   44CHL1   H1A 5707   3.976   4.021   9.812 -2.8257 -1.8207 -1.5750
   44CHL1   H1B 5708   3.966   3.852   9.859 -0.0695 -0.2718  1.9379
   44CHL1    C2 5709   4.004   3.971  10.030 -0.0087 -0.2999 -0.1964
   44CHL1   H2A 5710   3.894   3.974  10.046 -0.1130  1.9012 -1.0320
   44CHL1   H2B 5711   4.047   4.071  10.051  2.9507 -1.3015 -1.1030
   44CHL1   C20 5712   4.249   3.924   9.132 -0.0522  0.2898 -0.3676
   44CHL1   H20 5713   4.186   4.012   9.158  0.1083  0.2826  0.0517
   44CHL1   C21 5714   4.166   3.834   9.029 -0.4206 -0.0859  0.1417
   44CHL1  H21A 5715   4.148   3.886   8.933 -1.4009 -0.4386  0.1218
   44CHL1  H21B 5716   4.070   3.798   9.070 -0.7374  3.0843  2.5741
   44CHL1  H21C 5717   4.230   3.746   9.006  1.1645  1.0525  0.0232
   44CHL1   C22 5718   4.385   3.973   9.066 -0.2952 -0.3029  0.0710
   44CHL1  H22A 5719   4.449   4.010   9.149 -0.7434 -0.3643  0.4455
   44CHL1  H22B 5720   4.427   3.877   9.027 -1.2329 -1.5802  2.0683
   44CHL1   C23 5721   4.374   4.085   8.958  0.5423  0.9170 -0.2254
   44CHL1  H23A 5722   4.300   4.046   8.885  0.1700  0.0120  0.6164
   44CHL1  H23B 5723   4.322   4.171   9.004  0.5481 -0.1922  1.9760
   44CHL1   C24 5724   4.512   4.103   8.903  0.1702 -0.2438  0.4199
   44CHL1  H24A 5725   4.584   4.100   8.988  0.2010 -1.7244  0.3666
   44CHL1  H24B 5726   4.544   4.018   8.839  3.5506 -0.3623  2.0481
   44CHL1   C25 5727   4.550   4.231   8.810  0.3608  0.8177 -0.6699
   44CHL1   H25 5728   4.634   4.205   8.741 -2.6193  0.8533 -4.7072
   44CHL1   C26 5729   4.437   4.273   8.709  0.7533 -0.0274  0.5492
   44CHL1  H26A 5730   4.478   4.345   8.635  1.0944 -0.1473  0.6202
   44CHL1  H26B 5731   4.395   4.182   8.662 -0.5376 -0.5382  2.5584
   44CHL1  H26C 5732   4.355   4.312   8.773 -1.0304 -2.8173  0.1209
   44CHL1   C27 5733   4.597   4.345   8.899  0.4296 -0.4140 -0.0992
   44CHL1  H27A 5734   4.690   4.308   8.949  0.0549  1.5048  2.2072
   44CHL1  H27B 5735   4.618   4.440   8.845 -0.9220 -0.1977 -0.2791
   44CHL1  H27C 5736   4.520   4.359   8.978  1.2029 -0.7861  0.7463
   45CHL1    C3 5737   1.408   5.259  10.308 -0.1216  0.4231 -0.4035
   45CHL1    H3 5738   1.504   5.307  10.279 -0.3442  1.2678  0.1956
   45CHL1    O3 5739   1.396   5.242  10.449  0.1822 -0.2642 -0.3245
   45CHL1   H3' 5740   1.303   5.250  10.474  0.2115 -1.9386  0.4109
   45CHL1    C4 5741   1.297   5.351  10.253  0.3231 -0.3573 -1.0360
   45CHL1   H4A 5742   1.199   5.322  10.296  1.2522 -0.4440  1.2030
   45CHL1   H4B 5743   1.315   5.449  10.302  0.2170 -0.6288 -0.4323
   45CHL1    C5 5744   1.319   5.370  10.099 -0.0646 -0.4405 -1.1613
   45CHL1    C6 5745   1.345   5.491  10.048  0.0743  0.8650 -0.1185
   45CHL1    H6 5746   1.364   5.578  10.112  1.2777  0.1842  0.4831
   45CHL1    C7 5747   1.366   5.517   9.904  0.8994  0.0837  0.3737
   45CHL1   H7A 5748   1.298   5.601   9.879 -0.8178 -1.4144 -0.2721
   45CHL1   H7B 5749   1.473   5.538   9.883  1.4143 -2.7018 -0.1448
   45CHL1    C8 5750   1.313   5.399   9.810 -0.7036 -0.8965 -0.5777
   45CHL1    H8 5751   1.375   5.404   9.718 -2.3316 -0.0109 -1.6705
   45CHL1   C14 5752   1.174   5.415   9.754 -0.7769 -0.2337 -0.4917
   45CHL1   H14 5753   1.119   5.426   9.850  2.2107 -2.2622  1.6316
   45CHL1   C15 5754   1.161   5.534   9.659  0.0422 -0.1715 -0.2140
   45CHL1  H15A 5755   1.059   5.577   9.676  0.3461  0.7632 -0.7000
   45CHL1  H15B 5756   1.229   5.618   9.681 -0.7663 -0.3938  3.7918
   45CHL1   C16 5757   1.181   5.491   9.518  0.2908 -0.1078  0.9194
   45CHL1  H16A 5758   1.095   5.522   9.454 -0.1863 -2.2748  0.4330
   45CHL1  H16B 5759   1.280   5.511   9.472 -1.0038 -0.1000 -2.0726
   45CHL1   C17 5760   1.172   5.335   9.530 -0.6570  0.3992  0.5859
   45CHL1   H17 5761   1.271   5.285   9.542 -1.4534 -2.0370 -1.9266
   45CHL1   C13 5762   1.117   5.300   9.668 -0.3227  0.5248  0.3084
   45CHL1   C18 5763   0.966   5.312   9.676  0.2534 -0.4106 -1.0526
   45CHL1  H18A 5764   0.930   5.399   9.617 -0.8375  0.5773  0.9456
   45CHL1  H18B 5765   0.917   5.216   9.651 -1.5385 -0.3955  1.8977
   45CHL1  H18C 5766   0.930   5.333   9.779 -0.0282  3.5154 -1.7830
   45CHL1   C12 5767   1.161   5.162   9.725  0.3549  0.9344 -0.5555
   45CHL1  H12A 5768   1.087   5.135   9.804  0.0459  2.1486 -0.4129
   45CHL1  H12B 5769   1.155   5.093   9.638 -3.2092  0.1936  0.1118
   45CHL1   C11 5770   1.307   5.150   9.770 -0.1068 -0.0775 -0.2234
   45CHL1  H11A 5771   1.316   5.048   9.813  3.1201  0.3795  0.4500
   45CHL1  H11B 5772   1.375   5.157   9.682  0.7747  2.0287  0.5531
   45CHL1    C9 5773   1.347   5.258   9.873 -0.0380  0.2640 -0.2924
   45CHL1    H9 5774   1.458   5.253   9.875 -0.0307 -0.5538 -1.5321
   45CHL1   C10 5775   1.312   5.237  10.026 -0.2177  0.3236  0.3906
   45CHL1   C19 5776   1.171   5.177  10.047  0.6893 -0.0956 -0.3305
   45CHL1  H19A 5777   1.089   5.241  10.009  0.3208 -0.7700 -0.6994
   45CHL1  H19B 5778   1.171   5.081   9.991 -0.7123  0.5303 -1.4552
   45CHL1  H19C 5779   1.144   5.157  10.153 -1.8853  0.4120 -0.8164
   45CHL1    C1 5780   1.414   5.139  10.086 -0.3287  0.3341 -0.8723
   45CHL1   H1A 5781   1.404   5.039  10.038 -0.4167  0.4334 -1.0620
   45CHL1   H1B 5782   1.515   5.180  10.066  0.6128 -1.3610  0.1966
   45CHL1    C2 5783   1.398   5.119  10.243  0.4738 -0.6281 -0.6664
   45CHL1   H2A 5784   1.488   5.058  10.266 -0.3459 -2.0214 -1.0403
   45CHL1   H2B 5785   1.299   5.074  10.263  1.2523 -2.1442 -0.0632
   45CHL1   C20 5786   1.121   5.263   9.402 -0.6183  0.9029  0.1796
   45CHL1   H20 5787   1.094   5.159   9.428 -0.1582  0.7332 -0.0140
   45CHL1   C21 5788   1.241   5.262   9.299 -0.3495  0.2823 -0.2260
   45CHL1  H21A 5789   1.264   5.368   9.276 -1.0261  0.5042  0.0961
   45CHL1  H21B 5790   1.201   5.217   9.206  0.1673  0.7865 -0.7029
   45CHL1  H21C 5791   1.330   5.210   9.340  0.0055  0.1361 -1.1471
   45CHL1   C22 5792   1.000   5.322   9.334 -0.4418 -0.3508  0.3577
   45CHL1  H22A 5793   0.943   5.376   9.412  0.0266 -0.5392  0.8316
   45CHL1  H22B 5794   1.040   5.394   9.260  0.9799  0.7046  2.0850
   45CHL1   C23 5795   0.923   5.211   9.255  0.2429  0.0504 -0.8171
   45CHL1  H23A 5796   0.998   5.149   9.202  0.6900  0.3122 -0.4916
   45CHL1  H23B 5797   0.879   5.146   9.334 -0.6264  0.2131 -1.1532
   45CHL1   C24 5798   0.813   5.266   9.164  0.8163 -0.6885 -0.2169
   45CHL1  H24A 5799   0.735   5.303   9.235  2.3111 -1.2631  1.8074
   45CHL1  H24B 5800   0.842   5.340   9.086 -0.8399 -1.8103 -1.9845
   45CHL1   C25 5801   0.756   5.158   9.074  0.4065  0.4479  0.2556
   45CHL1   H25 5802   0.741   5.075   9.146  0.3519  1.3911  1.3675
   45CHL1   C26 5803   0.617   5.200   9.016 -0.5384 -0.0832  0.1421
   45CHL1  H26A 5804   0.576   5.115   8.957  1.5189 -0.7925 -0.3489
   45CHL1  H26B 5805   0.543   5.211   9.098 -0.2380 -0.5567  0.4806
   45CHL1  H26C 5806   0.621   5.297   8.961 -0.9452 -0.4557 -0.5604
   45CHL1   C27 5807   0.855   5.118   8.956 -0.0103 -0.1240  0.7127
   45CHL1  H27A 5808   0.814   5.063   8.869 -1.5818  0.2144  1.2016
   45CHL1  H27B 5809   0.887   5.214   8.910  0.2553 -1.5836 -2.3757
   45CHL1  H27C 5810   0.944   5.063   8.994 -0.8513 -1.5073  0.7536
   46CHL1    C3 5811   4.014   0.836  10.557  0.4791  0.5230  1.3342
   46CHL1    H3 5812   4.122   0.856  10.544  0.1095  2.6131  1.1587
   46CHL1    O3 5813   3.979   0.811  10.693  0.0383  0.1518  0.2590
   46CHL1   H3' 5814   3.884   0.820  10.699 -0.6904 -3.3654 -2.3811
   46CHL1    C4 5815   3.936   0.961  10.508  0.0456 -0.4508 -0.5335
   46CHL1   H4A 5816   3.826   0.949  10.503  0.0213 -0.6905  0.3821
   46CHL1   H4B 5817   3.956   1.040  10.583  1.1226 -1.6613  0.5213
   46CHL1    C5 5818   3.969   0.996  10.364 -0.2704  0.3858  0.5544
   46CHL1    C6 5819   4.026   1.113  10.331 -0.0658 -0.0625 -1.6512
   46CHL1    H6 5820   4.056   1.176  10.416  1.8032 -2.2425 -0.5577
   46CHL1    C7 5821   4.074   1.161  10.199  0.6621  0.1321  0.6259
   46CHL1   H7A 5822   4.031   1.262  10.187  2.4673  1.1095  1.9936
   46CHL1   H7B 5823   4.185   1.166  10.202  0.8267 -2.2023  0.4130
   46CHL1    C8 5824   4.022   1.072  10.084  0.1381  0.3629  0.3485
   46CHL1    H8 5825   3.917   1.109  10.078  0.3408  0.9656  0.3947
   46CHL1   C14 5826   4.097   1.090   9.958  0.4515 -0.8566 -0.3906
   46CHL1   H14 5827   4.203   1.059   9.974  0.4545  0.2390  2.0667
   46CHL1   C15 5828   4.105   1.232   9.891  0.2903 -0.0367 -0.2039
   46CHL1  H15A 5829   4.001   1.269   9.904 -0.2535 -1.5450 -0.1106
   46CHL1  H15B 5830   4.171   1.298   9.950 -0.3812  0.4153  0.0558
   46CHL1   C16 5831   4.137   1.209   9.741  0.6172  0.5342  0.2640
   46CHL1  H16A 5832   4.076   1.275   9.676 -0.5673  0.0204  0.8192
   46CHL1  H16B 5833   4.245   1.221   9.719  0.5571 -1.3916 -1.3970
   46CHL1   C17 5834   4.120   1.055   9.724  0.3871  0.7004  0.8353
   46CHL1   H17 5835   4.220   1.010   9.744  0.7641  1.1258 -0.0672
   46CHL1   C13 5836   4.037   1.006   9.840  0.4245 -0.2097 -0.1476
   46CHL1   C18 5837   3.886   1.038   9.805  0.0739  0.1908  0.3299
   46CHL1  H18A 5838   3.814   1.001   9.881 -1.1654  1.7616 -0.0483
   46CHL1  H18B 5839   3.860   1.144   9.787 -3.8439 -0.4259  1.3890
   46CHL1  H18C 5840   3.862   0.984   9.711  1.1640 -1.0244  0.7091
   46CHL1   C12 5841   4.050   0.856   9.869  0.6777 -0.4570 -0.1804
   46CHL1  H12A 5842   3.989   0.799   9.796 -1.5293  0.7315  0.6452
   46CHL1  H12B 5843   4.156   0.822   9.875  0.8725  0.0976 -0.4443
   46CHL1   C11 5844   3.998   0.822  10.014  0.1632 -0.1174  0.2948
   46CHL1  H11A 5845   3.888   0.835  10.004  0.3477  2.7262  1.1548
   46CHL1  H11B 5846   4.034   0.720  10.041 -0.9407 -0.3477  0.9716
   46CHL1    C9 5847   4.033   0.925  10.128  0.3328 -0.6743  0.1010
   46CHL1    H9 5848   4.142   0.913  10.146  0.0634  0.5529  3.0008
   46CHL1   C10 5849   3.957   0.883  10.260 -0.7229 -0.1927  0.0128
   46CHL1   C19 5850   3.803   0.874  10.237 -0.5182  0.1284 -0.3770
   46CHL1  H19A 5851   3.781   0.963  10.175  0.5409 -0.3558 -1.4793
   46CHL1  H19B 5852   3.781   0.786  10.173  2.5853 -0.5931 -0.5880
   46CHL1  H19C 5853   3.746   0.861  10.332 -0.0094 -1.7229 -0.2903
   46CHL1    C1 5854   4.009   0.741  10.313  0.1499 -0.1050  0.1082
   46CHL1   H1A 5855   3.963   0.662  10.249  2.6249 -0.1450 -1.8204
   46CHL1   H1B 5856   4.119   0.727  10.302  0.0164  0.0323 -1.7173
   46CHL1    C2 5857   3.981   0.717  10.464  0.8751  0.6793  0.5614
   46CHL1   H2A 5858   4.046   0.632  10.495  0.1948 -0.7785 -1.7359
   46CHL1   H2B 5859   3.876   0.687  10.482  0.3321  1.7291 -0.7340
   46CHL1   C20 5860   4.085   1.001   9.582 -0.0714  0.0264 -0.3437
   46CHL1   H20 5861   4.013   0.917   9.593 -1.1461  1.0714  0.8964
   46CHL1   C21 5862   4.205   0.946   9.509  0.4608  0.7759 -0.2639
   46CHL1  H21A 5863   4.237   1.007   9.422  3.7744  0.0692  0.3040
   46CHL1  H21B 5864   4.188   0.843   9.471  3.4556  0.1147 -0.0630
   46CHL1  H21C 5865   4.295   0.945   9.574  0.7893 -1.3025 -0.7005
   46CHL1   C22 5866   4.006   1.095   9.485 -0.3655  0.3359 -0.0105
   46CHL1  H22A 5867   3.929   1.151   9.542 -0.8024  1.0104 -1.2005
   46CHL1  H22B 5868   4.072   1.179   9.452 -1.7401  1.5268  0.1634
   46CHL1   C23 5869   3.944   1.022   9.360 -0.3571  0.0262  0.1063
   46CHL1  H23A 5870   4.021   0.956   9.314 -2.8898 -2.3260 -1.0953
   46CHL1  H23B 5871   3.865   0.951   9.393  0.6900 -0.5963  1.3765
   46CHL1   C24 5872   3.902   1.134   9.259 -0.5043  0.2393 -0.6279
   46CHL1  H24A 5873   3.847   1.213   9.315 -0.1264 -0.2080  0.3933
   46CHL1  H24B 5874   3.997   1.183   9.230  0.5298 -1.7333 -0.7725
   46CHL1   C25 5875   3.815   1.073   9.144 -0.6097  0.2839  0.4330
   46CHL1   H25 5876   3.871   0.988   9.100 -2.0160 -0.8743  0.7933
   46CHL1   C26 5877   3.674   1.031   9.183  0.3098  0.0926  0.4029
   46CHL1  H26A 5878   3.672   0.952   9.260  2.4041 -1.5762 -1.1043
   46CHL1  H26B 5879   3.612   1.116   9.218  0.0327  0.7945 -1.6019
   46CHL1  H26C 5880   3.627   0.978   9.097  0.0084  0.5073  0.3081
   46CHL1   C27 5881   3.807   1.174   9.032  0.2367  0.1165  0.5317
   46CHL1  H27A 5882   3.769   1.129   8.938 -0.7525 -0.0268  0.9925
   46CHL1  H27B 5883   3.757   1.269   9.061  1.2761  1.1780 -0.9720
   46CHL1  H27C 5884   3.908   1.214   9.006 -0.1124  0.0890 -0.9218
   47CHL1    C3 5885   4.963   3.616  10.335  0.5008  0.6135  0.9827
   47CHL1    H3 5886   4.896   3.705  10.329 -1.0431 -0.5198  0.7579
   47CHL1    O3 5887   5.002   3.591  10.470  0.3039 -0.5384  0.3168
   47CHL1   H3' 5888   4.934   3.633  10.523 -0.3217 -0.8648 -0.2219
   47CHL1    C4 5889   4.870   3.498  10.286 -0.0329 -0.0449  0.3260
   47CHL1   H4A 5890   4.929   3.409  10.317 -2.2271 -0.9837  2.1005
   47CHL1   H4B 5891   4.778   3.492  10.348 -0.2735 -4.6421 -0.0827
   47CHL1    C5 5892   4.848   3.490  10.132 -0.0986 -1.0704 -0.4303
   47CHL1    C6 5893   4.729   3.477  10.075  0.4284 -0.9715  0.0178
   47CHL1    H6 5894   4.632   3.479  10.127  0.7075  0.6965  0.5305
   47CHL1    C7 5895   4.712   3.460   9.931  0.5864  0.0173  0.9134
   47CHL1   H7A 5896   4.648   3.371   9.919 -1.2094  1.4228 -0.4502
   47CHL1   H7B 5897   4.657   3.544   9.885  1.5553  0.4823  0.5698
   47CHL1    C8 5898   4.834   3.437   9.846  0.0276 -0.0194 -0.0219
   47CHL1    H8 5899   4.850   3.327   9.844 -1.2446 -0.3241  2.6814
   47CHL1   C14 5900   4.812   3.471   9.700  0.0302 -0.6962 -0.3280
   47CHL1   H14 5901   4.800   3.581   9.692 -2.5496 -0.9348 -0.4408
   47CHL1   C15 5902   4.682   3.426   9.638  0.2441  0.7365 -0.2130
   47CHL1  H15A 5903   4.652   3.324   9.670  1.4649 -0.8629 -3.6527
   47CHL1  H15B 5904   4.599   3.495   9.664  0.4551  0.2027  2.1043
   47CHL1   C16 5905   4.715   3.423   9.489  0.4419  0.3763  0.2916
   47CHL1  H16A 5906   4.718   3.317   9.457  1.5796  0.1473  1.0805
   47CHL1  H16B 5907   4.650   3.495   9.435  1.1943  0.7200 -0.1769
   47CHL1   C17 5908   4.859   3.480   9.480  0.1041  0.3789  0.0465
   47CHL1   H17 5909   4.848   3.590   9.486  1.6414  0.5260  0.5444
   47CHL1   C13 5910   4.927   3.442   9.612 -1.0911  0.4014  1.0599
   47CHL1   C18 5911   4.973   3.293   9.617  0.6213  0.4905 -0.2040
   47CHL1  H18A 5912   5.061   3.275   9.551 -0.1386  0.3326 -1.1975
   47CHL1  H18B 5913   4.999   3.265   9.721  0.0613  3.0553  0.7017
   47CHL1  H18C 5914   4.879   3.242   9.588  0.3392 -0.0363  1.5376
   47CHL1   C12 5915   5.043   3.533   9.653  0.1381  0.6981 -0.3716
   47CHL1  H12A 5916   5.139   3.511   9.602  0.5540 -2.7464  1.6092
   47CHL1  H12B 5917   5.016   3.636   9.622  0.5876  0.5642 -1.2163
   47CHL1   C11 5918   5.076   3.531   9.802  0.5607 -0.4111  0.9816
   47CHL1  H11A 5919   5.138   3.441   9.819  2.1733  0.3713 -0.4779
   47CHL1  H11B 5920   5.153   3.609   9.825 -0.1050  0.3754  0.6028
   47CHL1    C9 5921   4.953   3.524   9.898  1.2493 -0.6595  0.1070
   47CHL1    H9 5922   4.908   3.625   9.899  1.3116 -0.6302 -0.1093
   47CHL1   C10 5923   4.983   3.501  10.048  0.6445  0.0927 -0.2357
   47CHL1   C19 5924   5.072   3.377  10.060  0.2671  0.3354  0.3156
   47CHL1  H19A 5925   5.088   3.366  10.170 -0.0179  0.9923  0.4251
   47CHL1  H19B 5926   5.017   3.286  10.028 -0.4337  0.6909  0.4878
   47CHL1  H19C 5927   5.173   3.398  10.018 -0.0589 -1.1877 -1.3389
   47CHL1    C1 5928   5.054   3.634  10.098  0.3188  0.1463 -0.3821
   47CHL1   H1A 5929   5.152   3.644  10.047  0.0654  3.2126 -0.4328
   47CHL1   H1B 5930   5.005   3.728  10.066  0.5531 -0.0549 -1.3614
   47CHL1    C2 5931   5.085   3.634  10.246  0.0526  0.3581 -0.6332
   47CHL1   H2A 5932   5.127   3.734  10.270 -1.3591  0.3310  2.4191
   47CHL1   H2B 5933   5.166   3.570  10.286  0.3808  1.1645  0.0127
   47CHL1   C20 5934   4.924   3.432   9.353  0.2246 -0.5198  0.4587
   47CHL1   H20 5935   4.931   3.322   9.364 -0.0575 -0.6380 -0.4485
   47CHL1   C21 5936   5.054   3.517   9.325  0.1382 -0.4450 -0.3424
   47CHL1  H21A 5937   5.028   3.624   9.309  1.9740  0.3447  1.5012
   47CHL1  H21B 5938   5.105   3.488   9.230  1.8935 -1.7558  0.9320
   47CHL1  H21C 5939   5.122   3.496   9.410  0.3087  0.9550 -0.1092
   47CHL1   C22 5940   4.827   3.439   9.231  0.7885 -0.2340 -0.3754
   47CHL1  H22A 5941   4.732   3.384   9.248 -0.0803  1.0360 -1.0447
   47CHL1  H22B 5942   4.795   3.545   9.229 -0.8845 -0.7093 -0.1597
   47CHL1   C23 5943   4.870   3.388   9.094  0.5735  0.4425  0.8310
   47CHL1  H23A 5944   4.790   3.430   9.030  2.5168  4.4145  0.7061
   47CHL1  H23B 5945   4.965   3.435   9.061  0.3034 -1.5445 -3.4444
   47CHL1   C24 5946   4.876   3.241   9.094 -0.3885  1.0415  0.3110
   47CHL1  H24A 5947   4.943   3.201   9.173  0.2482 -1.9487 -1.5669
   47CHL1  H24B 5948   4.771   3.211   9.115 -0.8068  1.4485 -1.0947
   47CHL1   C25 5949   4.918   3.178   8.957 -0.3374 -0.5471  0.0066
   47CHL1   H25 5950   5.023   3.203   8.932 -0.7245 -1.6825 -3.3000
   47CHL1   C26 5951   4.902   3.031   8.957  0.2251 -0.5303 -0.5272
   47CHL1  H26A 5952   4.927   2.984   8.859  1.8377 -0.5243 -0.1447
   47CHL1  H26B 5953   4.801   3.005   8.994  0.4995 -0.1803  0.4873
   47CHL1  H26C 5954   4.971   2.987   9.032  1.6466  2.1773 -0.1061
   47CHL1   C27 5955   4.832   3.226   8.836 -0.2175  0.7460  0.0842
   47CHL1  H27A 5956   4.828   3.337   8.829  0.4276  0.7519 -0.2595
   47CHL1  H27B 5957   4.876   3.176   8.747  0.7223 -0.8658  1.4124
   47CHL1  H27C 5958   4.724   3.200   8.844 -0.0686 -0.8419 -2.0991
   48CHL1    C3 5959   3.062   5.157  10.106  0.1963  0.2981  0.6596
   48CHL1    H3 5960   3.059   5.268  10.107 -0.1446  0.5359 -3.9522
   48CHL1    O3 5961   3.039   5.099  10.233  0.2137 -0.4502  0.3179
   48CHL1   H3' 5962   2.982   5.023  10.217 -2.9145  1.5131  1.1454
   48CHL1    C4 5963   2.952   5.109  10.005 -0.5190 -0.8544  0.2954
   48CHL1   H4A 5964   2.950   4.999  10.017 -1.2581 -0.7909  0.8308
   48CHL1   H4B 5965   2.854   5.152  10.036 -1.4015 -1.4888 -1.4862
   48CHL1    C5 5966   2.995   5.154   9.869  0.3632 -0.6328  0.6184
   48CHL1    C6 5967   2.917   5.237   9.801  0.5291 -0.2486 -0.0860
   48CHL1    H6 5968   2.816   5.261   9.837  0.4321 -0.0572 -0.4766
   48CHL1    C7 5969   2.934   5.272   9.659  0.3403  0.3652  0.2476
   48CHL1   H7A 5970   2.843   5.238   9.604  0.2227 -1.5319  1.5247
   48CHL1   H7B 5971   2.938   5.381   9.637  0.3394  0.6362  1.5570
   48CHL1    C8 5972   3.052   5.202   9.590 -0.3605 -0.4869 -0.3419
   48CHL1    H8 5973   3.015   5.099   9.575 -1.2484 -0.1838 -0.3393
   48CHL1   C14 5974   3.077   5.258   9.453  0.2938  0.2975  0.4097
   48CHL1   H14 5975   3.081   5.369   9.459  0.3520  0.2946  0.4218
   48CHL1   C15 5976   2.965   5.233   9.348  0.1739  0.1132 -0.0082
   48CHL1  H15A 5977   2.918   5.134   9.366 -0.9132  0.8868  1.6800
   48CHL1  H15B 5978   2.885   5.309   9.358 -0.2384 -0.3767  0.4397
   48CHL1   C16 5979   3.036   5.239   9.214  0.3833  0.0911 -0.6193
   48CHL1  H16A 5980   3.019   5.149   9.151  1.6687  0.7691 -1.9630
   48CHL1  H16B 5981   3.001   5.327   9.156 -1.8625  0.5898  1.3066
   48CHL1   C17 5982   3.191   5.245   9.241  1.2362 -0.1724  0.0281
   48CHL1   H17 5983   3.204   5.355   9.239 -2.8954  0.5553  2.4014
   48CHL1   C13 5984   3.205   5.196   9.389  0.3506  0.1716  0.2879
   48CHL1   C18 5985   3.196   5.044   9.373 -0.2060  0.8990  0.2151
   48CHL1  H18A 5986   3.177   4.989   9.468  1.7497 -3.1293 -1.4480
   48CHL1  H18B 5987   3.120   5.007   9.301 -0.3117  1.0504  0.2489
   48CHL1  H18C 5988   3.300   5.011   9.353 -0.2074  0.9325  0.1539
   48CHL1   C12 5989   3.326   5.229   9.478 -0.0839 -0.3300  0.0081
   48CHL1  H12A 5990   3.421   5.185   9.440  0.5901 -0.4722  1.7643
   48CHL1  H12B 5991   3.343   5.339   9.478 -0.2765 -0.2918 -0.9627
   48CHL1   C11 5992   3.305   5.173   9.619 -0.1063  0.3194  0.0140
   48CHL1  H11A 5993   3.313   5.062   9.610 -1.0260  0.3694 -2.0557
   48CHL1  H11B 5994   3.390   5.217   9.676  0.8068  0.0557 -1.1032
   48CHL1    C9 5995   3.169   5.205   9.683 -0.1559 -0.7680 -0.0701
   48CHL1    H9 5996   3.189   5.312   9.704  1.3225 -0.7552 -1.3610
   48CHL1   C10 5997   3.130   5.121   9.810  0.6394  0.0225  0.0680
   48CHL1   C19 5998   3.124   4.969   9.772 -0.3583 -0.3086  0.7686
   48CHL1  H19A 5999   3.207   4.937   9.705 -3.1352 -1.1115 -2.5405
   48CHL1  H19B 6000   3.136   4.897   9.857  3.2543 -0.6884  0.1038
   48CHL1  H19C 6001   3.029   4.948   9.719 -0.1591 -0.9900  0.6665
   48CHL1    C1 6002   3.232   5.147   9.920  0.0530  0.4984  0.2389
   48CHL1   H1A 6003   3.332   5.102   9.899 -0.0401  0.8226 -0.9776
   48CHL1   H1B 6004   3.252   5.255   9.936 -0.5481  0.4870  1.1141
   48CHL1    C2 6005   3.192   5.096  10.058  0.0471  0.5929  0.4880
   48CHL1   H2A 6006   3.269   5.126  10.131  0.3822  1.2033 -0.1024
   48CHL1   H2B 6007   3.173   4.988  10.043 -0.4176  0.7650 -0.2541
   48CHL1   C20 6008   3.274   5.186   9.128  0.1131  0.7792 -0.2629
   48CHL1   H20 6009   3.254   5.078   9.117  3.1786  0.0394  0.4977
   48CHL1   C21 6010   3.424   5.202   9.163  0.9091  0.0912 -0.3837
   48CHL1  H21A 6011   3.454   5.134   9.245 -0.8999  2.0750  2.1021
   48CHL1  H21B 6012   3.441   5.306   9.199  0.9544  0.5587 -1.7080
   48CHL1  H21C 6013   3.484   5.187   9.070  0.7232  0.2953 -0.5398
   48CHL1   C22 6014   3.246   5.245   8.991  0.7461  0.8242 -0.1554
   48CHL1  H22A 6015   3.316   5.189   8.925 -0.6251 -2.0679  0.6676
   48CHL1  H22B 6016   3.140   5.228   8.961  1.1359  0.6898 -1.5529
   48CHL1   C23 6017   3.269   5.394   8.953 -0.0719  0.0561  0.4200
   48CHL1  H23A 6018   3.188   5.452   9.003 -2.6780 -0.8474 -2.4430
   48CHL1  H23B 6019   3.369   5.422   8.991  1.2857 -0.5710 -2.3838
   48CHL1   C24 6020   3.265   5.429   8.796 -0.0524 -0.0878 -0.6387
   48CHL1  H24A 6021   3.353   5.381   8.748  1.4464  0.3537  1.5416
   48CHL1  H24B 6022   3.177   5.382   8.748 -0.1226  0.7199 -1.3202
   48CHL1   C25 6023   3.270   5.581   8.763 -0.3122 -0.0171  0.1595
   48CHL1   H25 6024   3.342   5.636   8.826 -0.2664  1.8451 -1.4096
   48CHL1   C26 6025   3.310   5.598   8.616  0.2736  0.6089 -0.4554
   48CHL1  H26A 6026   3.245   5.549   8.539  2.9888 -3.2040 -0.6282
   48CHL1  H26B 6027   3.307   5.704   8.584  2.0517  0.5901 -0.7677
   48CHL1  H26C 6028   3.411   5.554   8.603 -0.2701 -0.8870  0.0674
   48CHL1   C27 6029   3.130   5.645   8.785  0.6007 -0.2162  0.2129
   48CHL1  H27A 6030   3.091   5.612   8.883  1.7132  0.7361  0.9962
   48CHL1  H27B 6031   3.136   5.756   8.788  0.1624 -0.2204  2.2307
   48CHL1  H27C 6032   3.060   5.622   8.701 -0.0951 -0.6494  0.9008
   49CHL1    C3 6033   4.696   6.418  10.250 -0.5227  0.1176  0.9446
   49CHL1    H3 6034   4.592   6.445  10.222  0.2293  0.4819 -1.7609
   49CHL1    O3 6035   4.699   6.378  10.382  0.2107  0.0728 -0.1986
   49CHL1   H3' 6036   4.609   6.368  10.415  0.8341 -1.6155  1.1697
   49CHL1    C4 6037   4.733   6.288  10.156 -0.2216 -0.4050  0.3490
   49CHL1   H4A 6038   4.839   6.269  10.185 -0.1961 -1.9115 -0.6535
   49CHL1   H4B 6039   4.674   6.200  10.189  0.4054 -1.7408 -1.8933
   49CHL1    C5 6040   4.721   6.316  10.008 -0.6095 -0.0866 -0.1071
   49CHL1    C6 6041   4.623   6.274   9.927  0.3201  0.5000  0.0009
   49CHL1    H6 6042   4.542   6.205   9.958 -1.8872  1.9880 -2.0276
   49CHL1    C7 6043   4.619   6.295   9.779  0.7619  0.4063  0.1462
   49CHL1   H7A 6044   4.606   6.194   9.733 -4.2139  0.3934  1.0083
   49CHL1   H7B 6045   4.532   6.352   9.741  1.4549  1.1055 -0.4170
   49CHL1    C8 6046   4.747   6.357   9.726  0.0460  0.1242  0.8818
   49CHL1    H8 6047   4.824   6.277   9.725  1.5881  1.5294  2.2147
   49CHL1   C14 6048   4.712   6.412   9.585  0.0083  0.3600  0.0234
   49CHL1   H14 6049   4.627   6.482   9.596 -0.4075 -0.1973  0.3896
   49CHL1   C15 6050   4.662   6.317   9.481 -0.8482  0.2736 -0.7170
   49CHL1  H15A 6051   4.727   6.228   9.476 -0.4879  0.3474  1.6563
   49CHL1  H15B 6052   4.557   6.282   9.491 -0.8953  0.8341  1.2957
   49CHL1   C16 6053   4.680   6.396   9.347  0.5680  0.8836  0.2757
   49CHL1  H16A 6054   4.729   6.333   9.270  0.0971 -1.9797  2.1641
   49CHL1  H16B 6055   4.580   6.423   9.307 -0.5037 -1.9950  0.7972
   49CHL1   C17 6056   4.758   6.525   9.382 -0.4488  0.2814 -0.2183
   49CHL1   H17 6057   4.684   6.606   9.405  0.5009  0.8153  1.1087
   49CHL1   C13 6058   4.822   6.492   9.523  0.0673 -0.1100  0.4115
   49CHL1   C18 6059   4.951   6.404   9.500  0.0642 -0.1042 -0.5785
   49CHL1  H18A 6060   4.938   6.320   9.429 -1.4806 -0.6406  0.2842
   49CHL1  H18B 6061   5.032   6.473   9.466 -1.9016  1.9087 -1.4738
   49CHL1  H18C 6062   4.992   6.358   9.592  1.7620  1.5292 -0.4609
   49CHL1   C12 6063   4.863   6.607   9.616  0.5980 -0.3137 -0.1908
   49CHL1  H12A 6064   4.949   6.666   9.579 -0.7761  0.6527 -2.0472
   49CHL1  H12B 6065   4.776   6.675   9.605  1.0056  0.4702  1.2705
   49CHL1   C11 6066   4.900   6.565   9.755 -0.0727 -0.5763 -0.0327
   49CHL1  H11A 6067   4.997   6.512   9.746  0.4090  0.5687 -2.8220
   49CHL1  H11B 6068   4.909   6.652   9.823  0.4126 -2.2720  2.1771
   49CHL1    C9 6069   4.788   6.471   9.815 -0.3919  0.0276  0.5908
   49CHL1    H9 6070   4.696   6.532   9.825 -1.1342 -1.4074  4.4021
   49CHL1   C10 6071   4.818   6.430   9.966 -0.1495  0.2795  1.4215
   49CHL1   C19 6072   4.961   6.370   9.962  0.1221  0.2528 -0.3486
   49CHL1  H19A 6073   4.983   6.300   9.878  1.8566 -0.3828  0.5849
   49CHL1  H19B 6074   5.040   6.448   9.954  1.2406 -0.8548 -0.4437
   49CHL1  H19C 6075   4.980   6.317  10.057 -0.0905  2.5726  1.0446
   49CHL1    C1 6076   4.808   6.554  10.058 -1.0389 -0.6425  0.5193
   49CHL1   H1A 6077   4.901   6.612  10.040 -1.4919 -0.5121 -1.7840
   49CHL1   H1B 6078   4.727   6.612  10.010 -0.2820 -0.8452 -1.0929
   49CHL1    C2 6079   4.798   6.524  10.213 -0.5166 -0.4301 -0.1623
   49CHL1   H2A 6080   4.771   6.619  10.264  1.0130  0.3036 -0.6408
   49CHL1   H2B 6081   4.897   6.486  10.245 -0.8256 -1.3426 -0.2611
   49CHL1   C20 6082   4.859   6.574   9.280 -0.3297 -0.2648 -0.6077
   49CHL1   H20 6083   4.955   6.519   9.284 -1.6824 -2.7901 -0.8888
   49CHL1   C21 6084   4.900   6.725   9.297  0.1995 -0.5825  0.2683
   49CHL1  H21A 6085   4.967   6.759   9.215 -0.1349 -1.6210 -0.4643
   49CHL1  H21B 6086   4.955   6.732   9.393 -1.8552  1.1115  1.4097
   49CHL1  H21C 6087   4.812   6.792   9.292 -0.8374 -1.9897 -1.6980
   49CHL1   C22 6088   4.804   6.564   9.137 -0.3911 -0.4529 -0.2704
   49CHL1  H22A 6089   4.786   6.459   9.105 -0.6870 -1.0785  1.8154
   49CHL1  H22B 6090   4.712   6.626   9.138 -0.1330 -0.0629  1.0275
   49CHL1   C23 6091   4.899   6.606   9.022  0.8922 -0.7064 -0.0648
   49CHL1  H23A 6092   4.907   6.717   9.020  1.6839 -0.5670  3.6839
   49CHL1  H23B 6093   5.000   6.560   9.026  1.1390 -0.4136 -2.0209
   49CHL1   C24 6094   4.836   6.561   8.891 -0.4638  0.2430  0.5475
   49CHL1  H24A 6095   4.809   6.454   8.903  3.5124 -0.9398  0.4100
   49CHL1  H24B 6096   4.741   6.612   8.865 -0.2804 -0.5235 -1.8704
   49CHL1   C25 6097   4.926   6.586   8.766 -0.3617  0.6338 -0.2958
   49CHL1   H25 6098   5.027   6.540   8.777 -0.9498 -0.8575 -0.8069
   49CHL1   C26 6099   4.867   6.541   8.631 -0.3121 -0.0288  0.6434
   49CHL1  H26A 6100   4.778   6.601   8.605 -1.6661 -1.3830  1.9286
   49CHL1  H26B 6101   4.936   6.530   8.544 -0.9317 -2.1679  0.3486
   49CHL1  H26C 6102   4.831   6.439   8.658  0.5756 -0.6632 -0.4587
   49CHL1   C27 6103   4.952   6.738   8.755 -0.3648  0.7401 -0.0789
   49CHL1  H27A 6104   5.026   6.751   8.673 -1.3152  0.7761 -0.9561
   49CHL1  H27B 6105   4.862   6.803   8.744 -2.2111 -1.6045  0.4374
   49CHL1  H27C 6106   5.020   6.771   8.836  0.2110  0.4931 -0.4579
   50CHL1    C3 6107   0.107   1.616  10.290  0.3185 -0.2424 -0.0513
   50CHL1    H3 6108   0.001   1.596  10.263  0.6689 -0.5666 -1.2397
   50CHL1    O3 6109   0.117   1.619  10.431  0.2437  0.9164 -0.3083
   50CHL1   H3' 6110   0.194   1.672  10.451  0.1709  1.6133 -1.7436
   50CHL1    C4 6111   0.190   1.500  10.235  0.6359 -0.6842 -0.6340
   50CHL1   H4A 6112   0.295   1.534  10.247  0.5106 -0.3410 -0.4951
   50CHL1   H4B 6113   0.176   1.402  10.285 -3.9969 -0.0372 -0.2094
   50CHL1    C5 6114   0.170   1.492  10.086  0.2434 -0.1017  0.1276
   50CHL1    C6 6115   0.127   1.378  10.032  0.9742 -0.2068  0.2104
   50CHL1    H6 6116   0.119   1.288  10.095  1.8831 -0.8480 -0.5603
   50CHL1    C7 6117   0.115   1.353   9.883  0.8228 -0.2128 -0.8110
   50CHL1   H7A 6118   0.156   1.255   9.851 -1.0384 -1.1331 -0.5064
   50CHL1   H7B 6119   0.007   1.349   9.856  0.2161  1.4317  1.1559
   50CHL1    C8 6120   0.174   1.474   9.796 -0.4166  0.4153  0.7765
   50CHL1    H8 6121   0.284   1.462   9.793 -0.7381 -3.4908 -0.2145
   50CHL1   C14 6122   0.135   1.473   9.653  0.1525  0.0587 -0.1676
   50CHL1   H14 6123   0.027   1.490   9.671 -0.0709  0.6179 -1.8744
   50CHL1   C15 6124   0.143   1.342   9.573 -0.1699 -0.3475  0.5380
   50CHL1  H15A 6125   0.238   1.287   9.585  1.0545  1.5294 -0.1377
   50CHL1  H15B 6126   0.054   1.287   9.611  0.7879 -0.6656  2.4308
   50CHL1   C16 6127   0.118   1.399   9.428 -0.6175  0.1434 -0.4279
   50CHL1  H16A 6128   0.216   1.383   9.379 -2.2928  0.4090 -4.2190
   50CHL1  H16B 6129   0.047   1.334   9.372  0.7751 -0.8978 -1.0357
   50CHL1   C17 6130   0.089   1.548   9.433 -0.1421  0.4998  0.0503
   50CHL1   H17 6131  -0.018   1.563   9.458 -0.3135  1.4739 -1.1926
   50CHL1   C13 6132   0.164   1.590   9.561  0.0583 -0.4696 -0.0991
   50CHL1   C18 6133   0.313   1.586   9.540 -0.5623 -0.2075  0.1217
   50CHL1  H18A 6134   0.350   1.683   9.501 -0.2107 -0.4343 -0.1231
   50CHL1  H18B 6135   0.366   1.552   9.631 -2.9891 -1.0620  1.3088
   50CHL1  H18C 6136   0.345   1.513   9.461 -0.8104 -0.4041  0.2019
   50CHL1   C12 6137   0.122   1.717   9.621  0.4783 -0.9510 -0.9905
   50CHL1  H12A 6138   0.152   1.810   9.569  0.4775 -1.2490 -1.5247
   50CHL1  H12B 6139   0.012   1.707   9.635  0.5373  0.3393  0.8093
   50CHL1   C11 6140   0.171   1.736   9.768 -0.1455 -0.1010 -0.1265
   50CHL1  H11A 6141   0.281   1.751   9.771 -0.2223  0.6889 -0.8825
   50CHL1  H11B 6142   0.130   1.829   9.812 -3.2645 -0.6947 -1.5001
   50CHL1    C9 6143   0.137   1.608   9.863  0.2200 -0.2545  0.3439
   50CHL1    H9 6144   0.027   1.619   9.875 -0.0174  0.3821 -1.9058
   50CHL1   C10 6145   0.197   1.618  10.006 -0.8512  0.3820  0.1225
   50CHL1   C19 6146   0.353   1.634  10.006 -0.3373 -0.6208  0.0089
   50CHL1  H19A 6147   0.378   1.734   9.965 -1.0905  0.2576  1.6262
   50CHL1  H19B 6148   0.397   1.631  10.108 -2.0242  1.8801  0.9110
   50CHL1  H19C 6149   0.403   1.553   9.948  0.1073 -0.3480  0.0068
   50CHL1    C1 6150   0.144   1.745  10.078  0.9811 -0.2263 -0.6617
   50CHL1   H1A 6151   0.185   1.841  10.040  1.4840  0.0699  0.5768
   50CHL1   H1B 6152   0.037   1.755  10.052  1.1537 -0.2950 -1.4207
   50CHL1    C2 6153   0.158   1.745  10.231 -0.7707  0.8701 -0.0348
   50CHL1   H2A 6154   0.107   1.833  10.273 -1.1105  1.1608 -1.0198
   50CHL1   H2B 6155   0.267   1.758  10.249 -1.0634  2.0828  0.9432
   50CHL1   C20 6156   0.116   1.616   9.296  0.0828  0.3395  0.5185
   50CHL1   H20 6157   0.225   1.610   9.274 -0.3594  1.1130 -2.2629
   50CHL1   C21 6158   0.079   1.768   9.280 -0.0011 -0.4832 -0.4468
   50CHL1  H21A 6159  -0.027   1.780   9.309 -0.3298 -1.0640 -1.3827
   50CHL1  H21B 6160   0.103   1.799   9.176 -3.5875  1.3112 -0.8959
   50CHL1  H21C 6161   0.137   1.837   9.346 -1.5591  2.4107 -1.8826
   50CHL1   C22 6162   0.044   1.551   9.177 -0.6159  0.0993 -0.0623
   50CHL1  H22A 6163   0.007   1.446   9.184  0.5411 -0.2901  0.6349
   50CHL1  H22B 6164  -0.043   1.613   9.147 -0.6911  0.9665  1.7942
   50CHL1   C23 6165   0.137   1.550   9.054 -0.2608 -0.5957 -0.2734
   50CHL1  H23A 6166   0.164   1.651   9.016 -0.3891 -1.2198 -2.1037
   50CHL1  H23B 6167   0.222   1.483   9.077  1.0313  0.2449 -2.3131
   50CHL1   C24 6168   0.060   1.483   8.944 -0.7949 -0.0207 -0.4359
   50CHL1  H24A 6169   0.021   1.383   8.971  0.5886  0.0324  2.0912
   50CHL1  H24B 6170  -0.030   1.544   8.919 -0.9534 -0.6185 -1.4154
   50CHL1   C25 6171   0.138   1.450   8.814  0.1134  0.1828  0.5258
   50CHL1   H25 6172   0.217   1.525   8.793  0.1095 -0.0731 -0.4312
   50CHL1   C26 6173   0.214   1.313   8.827 -0.4008 -0.2977 -0.2670
   50CHL1  H26A 6174   0.278   1.281   8.742  0.5372 -0.1321  0.3656
   50CHL1  H26B 6175   0.279   1.303   8.916  0.9080 -0.8967 -1.2715
   50CHL1  H26C 6176   0.134   1.236   8.827 -2.2956  1.5403 -1.4345
   50CHL1   C27 6177   0.038   1.451   8.695  0.5763 -0.6578 -0.4863
   50CHL1  H27A 6178   0.000   1.549   8.660  0.4629  0.4209  2.4224
   50CHL1  H27B 6179   0.090   1.408   8.606  2.4158  1.5820 -0.5942
   50CHL1  H27C 6180  -0.051   1.389   8.719 -0.9381  1.6833  0.2619
   51CHL1    C3 6181   1.618   6.365  10.213  0.1198  0.1816 -0.2700
   51CHL1    H3 6182   1.643   6.257  10.216 -2.9108 -0.5939  1.5351
   51CHL1    O3 6183   1.595   6.409  10.347  1.0443 -0.4874 -0.0116
   51CHL1   H3' 6184   1.565   6.500  10.349 -0.9136 -1.0892  1.1134
   51CHL1    C4 6185   1.736   6.450  10.150 -0.1570  0.1765  0.3064
   51CHL1   H4A 6186   1.716   6.559  10.159  0.3999  0.1060  3.9884
   51CHL1   H4B 6187   1.825   6.424  10.212  0.7409 -2.0918 -1.7841
   51CHL1    C5 6188   1.762   6.417  10.007 -0.3239 -0.1487 -0.0142
   51CHL1    C6 6189   1.881   6.377   9.960  0.6413  0.5813 -0.5881
   51CHL1    H6 6190   1.967   6.372  10.029  1.1858  1.7159 -1.1600
   51CHL1    C7 6191   1.918   6.337   9.827 -0.6369 -0.2096  1.3142
   51CHL1   H7A 6192   2.021   6.367   9.798 -1.2661  1.1103  0.3526
   51CHL1   H7B 6193   1.916   6.227   9.819 -0.6399 -0.1240 -0.1882
   51CHL1    C8 6194   1.822   6.403   9.725  0.3882 -0.4065  1.0748
   51CHL1    H8 6195   1.847   6.511   9.730 -0.4502 -0.2505  2.2985
   51CHL1   C14 6196   1.843   6.339   9.585 -0.3456 -1.3163 -0.2510
   51CHL1   H14 6197   1.822   6.230   9.589  2.7600 -2.0249 -0.2951
   51CHL1   C15 6198   1.989   6.328   9.532  0.3531 -0.1547 -0.3079
   51CHL1  H15A 6199   2.042   6.424   9.548  1.5090 -1.0985  2.0732
   51CHL1  H15B 6200   2.047   6.255   9.593 -2.0371 -2.5401 -0.6917
   51CHL1   C16 6201   1.971   6.309   9.384 -0.4133 -0.0425  0.1763
   51CHL1  H16A 6202   2.029   6.384   9.326 -1.4449 -0.1482 -1.0311
   51CHL1  H16B 6203   2.013   6.210   9.357  1.4456  0.6523  0.3338
   51CHL1   C17 6204   1.823   6.308   9.350  0.3944  0.4545 -0.4378
   51CHL1   H17 6205   1.792   6.202   9.359 -0.1744  0.7829  2.4775
   51CHL1   C13 6206   1.759   6.385   9.471  0.3985 -0.8861  0.0032
   51CHL1   C18 6207   1.781   6.534   9.446 -0.4830 -0.2359  0.0193
   51CHL1  H18A 6208   1.706   6.573   9.373 -2.6012  0.5425  2.4363
   51CHL1  H18B 6209   1.764   6.588   9.542 -0.4698 -0.6426  0.2525
   51CHL1  H18C 6210   1.886   6.553   9.415 -0.6152 -1.5358 -1.3634
   51CHL1   C12 6211   1.615   6.359   9.520  0.2802 -0.1357 -0.4979
   51CHL1  H12A 6212   1.550   6.379   9.432 -1.4965  0.3100  0.8534
   51CHL1  H12B 6213   1.616   6.248   9.523  0.1075 -0.2030 -2.0684
   51CHL1   C11 6214   1.572   6.426   9.655 -0.3406  0.2615  0.3924
   51CHL1  H11A 6215   1.586   6.535   9.643 -0.0137  0.1436 -0.4039
   51CHL1  H11B 6216   1.469   6.399   9.686  0.6678 -1.6469  2.3176
   51CHL1    C9 6217   1.675   6.386   9.766 -0.1141 -0.5664  0.4159
   51CHL1    H9 6218   1.673   6.275   9.768  0.0851 -0.5795 -0.0309
   51CHL1   C10 6219   1.648   6.434   9.911 -0.2224  0.0986  0.9922
   51CHL1   C19 6220   1.620   6.588   9.905  0.0968 -0.0525 -0.4463
   51CHL1  H19A 6221   1.701   6.639   9.849 -0.0695  1.0494  0.2958
   51CHL1  H19B 6222   1.520   6.599   9.856  0.0158  0.2475 -0.2138
   51CHL1  H19C 6223   1.602   6.637  10.003  1.1231  1.6218 -1.0573
   51CHL1    C1 6224   1.528   6.362   9.977 -0.6722  0.6739 -0.5561
   51CHL1   H1A 6225   1.439   6.386   9.915 -0.5734  2.5083 -0.0586
   51CHL1   H1B 6226   1.560   6.257   9.959  0.3759  0.9788 -0.5498
   51CHL1    C2 6227   1.493   6.379  10.123 -0.2418  0.0069  0.2609
   51CHL1   H2A 6228   1.425   6.300  10.160 -0.1432  0.2463  0.9855
   51CHL1   H2B 6229   1.430   6.471  10.132  0.6040  0.4916  1.6007
   51CHL1   C20 6230   1.796   6.361   9.210 -1.2453  0.3336 -0.1522
   51CHL1   H20 6231   1.818   6.470   9.209 -1.9485  0.4876  0.1186
   51CHL1   C21 6232   1.642   6.337   9.175 -0.2442  0.2251  0.0422
   51CHL1  H21A 6233   1.611   6.231   9.188 -1.6483  0.4780 -0.9954
   51CHL1  H21B 6234   1.613   6.365   9.071 -0.2132  0.2232  0.0324
   51CHL1  H21C 6235   1.574   6.405   9.229 -1.6084  0.7942 -2.2827
   51CHL1   C22 6236   1.889   6.311   9.095  0.8192 -0.3376 -0.0716
   51CHL1  H22A 6237   1.987   6.276   9.133  1.0659  0.5163  0.0925
   51CHL1  H22B 6238   1.835   6.224   9.051 -1.6977  1.6170 -1.1351
   51CHL1   C23 6239   1.898   6.412   8.974 -0.0983 -0.5602 -0.1589
   51CHL1  H23A 6240   1.796   6.450   8.954 -0.2569 -2.0139 -2.5092
   51CHL1  H23B 6241   1.959   6.500   9.002 -0.7838  0.2982 -1.2982
   51CHL1   C24 6242   1.968   6.356   8.850 -0.1362  0.5912 -0.5541
   51CHL1  H24A 6243   2.063   6.317   8.891 -1.0102  1.2121  2.2815
   51CHL1  H24B 6244   1.911   6.266   8.820  1.0801 -0.7902  1.1206
   51CHL1   C25 6245   1.979   6.454   8.735 -0.7083  0.0533  0.4862
   51CHL1   H25 6246   2.037   6.399   8.657 -1.7075 -1.2407  0.6150
   51CHL1   C26 6247   1.843   6.495   8.681  0.3688 -0.3326  0.2417
   51CHL1  H26A 6248   1.789   6.400   8.699  1.0090 -1.2162 -2.1333
   51CHL1  H26B 6249   1.804   6.581   8.740  0.6119 -0.3182  0.3811
   51CHL1  H26C 6250   1.849   6.506   8.570 -3.0027 -0.4484 -0.0763
   51CHL1   C27 6251   2.056   6.582   8.773 -0.1482  0.3642  0.2633
   51CHL1  H27A 6252   1.992   6.649   8.834 -0.7041  0.0659  0.0168
   51CHL1  H27B 6253   2.152   6.560   8.825 -0.2811  1.8459  1.2010
   51CHL1  H27C 6254   2.072   6.640   8.679 -1.0348  0.5785  0.2308
   52CHL1    C3 6255   4.700   3.923  10.148  0.2010  0.3054 -0.8011
   52CHL1    H3 6256   4.729   3.817  10.163 -0.8269  0.2357  1.0438
   52CHL1    O3 6257   4.648   3.966  10.273 -0.3297  0.1693 -0.4073
   52CHL1   H3' 6258   4.580   4.031  10.251  0.5233  1.0133 -0.6299
   52CHL1    C4 6259   4.808   4.018  10.122  0.3604 -0.2371 -0.1040
   52CHL1   H4A 6260   4.778   4.124  10.136 -0.3319 -0.3016 -1.0492
   52CHL1   H4B 6261   4.889   3.990  10.193  1.2877  1.8772 -0.2566
   52CHL1    C5 6262   4.853   4.003   9.981  0.3081 -0.2321  0.1718
   52CHL1    C6 6263   4.982   4.006   9.947 -0.2908 -0.4634  0.5073
   52CHL1    H6 6264   5.061   4.021  10.022  0.2474  1.3277 -0.3626
   52CHL1    C7 6265   5.042   4.005   9.811 -0.0709  0.3778  0.1422
   52CHL1   H7A 6266   5.128   4.073   9.796 -0.1378  0.5447  0.4909
   52CHL1   H7B 6267   5.091   3.910   9.782  0.0204  0.2433  0.7275
   52CHL1    C8 6268   4.938   4.031   9.700  0.0596 -0.1794 -0.6884
   52CHL1    H8 6269   4.937   4.142   9.691  0.5956 -0.2348 -1.5503
   52CHL1   C14 6270   4.990   3.980   9.564 -0.7305 -0.4440  0.9690
   52CHL1   H14 6271   5.008   3.872   9.585  0.4172 -0.3169  0.7097
   52CHL1   C15 6272   5.133   4.029   9.510  0.5220  0.4349 -0.4770
   52CHL1  H15A 6273   5.127   4.138   9.529 -1.1201  0.3939 -0.5941
   52CHL1  H15B 6274   5.224   3.979   9.548  0.9624  0.1337 -1.8918
   52CHL1   C16 6275   5.129   3.994   9.363 -0.3391  0.3348  0.1146
   52CHL1  H16A 6276   5.158   4.083   9.302  0.3243 -0.5750 -0.9287
   52CHL1  H16B 6277   5.189   3.904   9.335 -1.5268 -0.9583  1.5941
   52CHL1   C17 6278   4.983   3.952   9.328  0.3739 -0.0364  0.0434
   52CHL1   H17 6279   4.984   3.843   9.348 -0.8890  0.1255  1.1643
   52CHL1   C13 6280   4.894   3.995   9.441 -0.1583  0.1268 -0.5402
   52CHL1   C18 6281   4.858   4.147   9.417 -0.1681 -0.7183 -0.7955
   52CHL1  H18A 6282   4.774   4.158   9.345  0.0623  0.7847 -0.8555
   52CHL1  H18B 6283   4.827   4.193   9.513 -1.9404 -0.9694 -1.2193
   52CHL1  H18C 6284   4.948   4.203   9.384 -0.6739  0.6234  0.0378
   52CHL1   C12 6285   4.768   3.914   9.480 -0.4764 -0.1376  0.0901
   52CHL1  H12A 6286   4.696   3.953   9.404  1.5982  1.8774 -0.9793
   52CHL1  H12B 6287   4.795   3.807   9.467  1.2995  0.3021 -0.2347
   52CHL1   C11 6288   4.712   3.955   9.618 -0.8201 -0.8457 -0.3830
   52CHL1  H11A 6289   4.645   4.042   9.605  0.6934  0.2855 -0.8822
   52CHL1  H11B 6290   4.641   3.876   9.651 -0.4074 -1.4476 -0.9112
   52CHL1    C9 6291   4.814   3.954   9.732  0.2180 -0.3462 -0.0855
   52CHL1    H9 6292   4.849   3.850   9.744 -0.1883 -0.2936  1.7897
   52CHL1   C10 6293   4.748   3.998   9.865 -0.4785  0.5757 -0.4751
   52CHL1   C19 6294   4.691   4.143   9.852 -0.0228  0.1281  0.2429
   52CHL1  H19A 6295   4.646   4.175   9.949  0.5886 -1.8486  1.2318
   52CHL1  H19B 6296   4.770   4.208   9.808  1.3394 -0.9544  0.9921
   52CHL1  H19C 6297   4.609   4.136   9.778 -1.7742  1.7345  1.9219
   52CHL1    C1 6298   4.632   3.904   9.907 -0.5424  0.1690  0.2293
   52CHL1   H1A 6299   4.547   3.906   9.836 -0.9781  2.5990  0.7393
   52CHL1   H1B 6300   4.674   3.801   9.901  1.1656  0.8783 -1.0606
   52CHL1    C2 6301   4.581   3.925  10.049 -0.4169  0.3139  0.5772
   52CHL1   H2A 6302   4.503   3.848  10.064 -0.4300 -0.2612 -1.9286
   52CHL1   H2B 6303   4.534   4.025  10.046  0.0499  0.5207 -0.8139
   52CHL1   C20 6304   4.952   3.966   9.179  0.9632 -0.0603  0.0953
   52CHL1   H20 6305   4.954   4.073   9.149 -1.2498  0.1822  0.6247
   52CHL1   C21 6306   4.800   3.924   9.161 -0.2535 -0.4588 -0.3828
   52CHL1  H21A 6307   4.723   3.980   9.218 -0.4325  0.2164 -1.2763
   52CHL1  H21B 6308   4.792   3.819   9.199 -1.3537 -1.1687 -2.4477
   52CHL1  H21C 6309   4.767   3.928   9.055 -0.5303 -1.1451 -0.3334
   52CHL1   C22 6310   5.044   3.882   9.086  0.4618 -0.7553 -0.4970
   52CHL1  H22A 6311   5.144   3.909   9.127 -1.0574 -0.0350  3.0954
   52CHL1  H22B 6312   5.013   3.778   9.107 -0.0877 -0.4499  0.2488
   52CHL1   C23 6313   5.032   3.922   8.935 -0.5231  0.2413  0.4778
   52CHL1  H23A 6314   4.933   3.891   8.897 -0.9892 -0.3641  2.1042
   52CHL1  H23B 6315   5.034   4.033   8.928 -0.1678  0.1638 -0.9098
   52CHL1   C24 6316   5.141   3.851   8.851  0.2375  0.5808 -0.3604
   52CHL1  H24A 6317   5.246   3.868   8.883  0.2480 -1.5046  0.9188
   52CHL1  H24B 6318   5.138   3.740   8.865  3.6660  0.3367 -0.7690
   52CHL1   C25 6319   5.133   3.869   8.698 -0.0386  0.1790  0.1420
   52CHL1   H25 6320   5.030   3.845   8.663  0.5338  2.0172 -3.2744
   52CHL1   C26 6321   5.156   4.011   8.650  0.2530  0.0559  0.0591
   52CHL1  H26A 6322   5.122   4.035   8.547 -0.4087 -1.1538 -0.0178
   52CHL1  H26B 6323   5.094   4.090   8.699 -0.0563  0.4602 -0.9660
   52CHL1  H26C 6324   5.263   4.032   8.668 -0.0494  0.4637  1.5193
   52CHL1   C27 6325   5.231   3.772   8.627 -0.0429 -0.3881 -0.2529
   52CHL1  H27A 6326   5.240   3.786   8.518  0.8405 -1.1574 -0.2950
   52CHL1  H27B 6327   5.330   3.780   8.677 -0.3147 -1.4219  0.4985
   52CHL1  H27C 6328   5.199   3.668   8.647 -0.0796  0.0451  2.4076
   53CHL1    C3 6329   6.179   3.386  10.328 -0.3103 -0.2081  0.2627
   53CHL1    H3 6330   6.161   3.476  10.266  0.2898 -0.4594 -0.2851
   53CHL1    O3 6331   6.127   3.406  10.458  1.0481 -0.7233  0.0564
   53CHL1   H3' 6332   6.112   3.319  10.496 -3.2477  0.0086  0.5194
   53CHL1    C4 6333   6.119   3.257  10.267 -0.1992 -0.0886  0.6051
   53CHL1   H4A 6334   6.143   3.166  10.325 -1.0454 -1.2011 -0.7346
   53CHL1   H4B 6335   6.008   3.261  10.266 -0.1799  2.2195  1.0808
   53CHL1    C5 6336   6.169   3.222  10.132 -0.4889  1.0214 -0.5152
   53CHL1    C6 6337   6.087   3.194  10.028  0.2659  0.2891 -0.2609
   53CHL1    H6 6338   5.977   3.193  10.039  0.2462 -1.4171 -0.3777
   53CHL1    C7 6339   6.141   3.168   9.891  0.2333  0.8569 -0.9119
   53CHL1   H7A 6340   6.086   3.085   9.841 -0.2467  1.3662 -1.2462
   53CHL1   H7B 6341   6.126   3.259   9.828  0.5778  1.6874  0.1766
   53CHL1    C8 6342   6.288   3.141   9.874 -0.2422  0.5915 -0.8632
   53CHL1    H8 6343   6.314   3.039   9.911 -1.3068 -0.0940 -1.9474
   53CHL1   C14 6344   6.336   3.164   9.729  0.5416  0.1023 -0.0233
   53CHL1   H14 6345   6.323   3.273   9.710  3.0260  0.4977  0.2403
   53CHL1   C15 6346   6.265   3.087   9.626 -0.7368  0.5739  1.1195
   53CHL1  H15A 6347   6.261   2.977   9.644 -2.6698  0.5529  0.7980
   53CHL1  H15B 6348   6.161   3.118   9.603 -1.1234 -1.2166  0.2300
   53CHL1   C16 6349   6.348   3.119   9.500 -0.0504  0.0929 -0.2427
   53CHL1  H16A 6350   6.362   3.026   9.441 -0.6660 -0.3743  0.3296
   53CHL1  H16B 6351   6.297   3.199   9.443 -0.0610  0.9223  0.8848
   53CHL1   C17 6352   6.483   3.181   9.552  0.3286 -0.0204  0.6945
   53CHL1   H17 6353   6.458   3.289   9.556 -2.3347 -0.5419  0.4023
   53CHL1   C13 6354   6.491   3.142   9.699  0.5037  0.1331 -0.4574
   53CHL1   C18 6355   6.531   2.993   9.727  0.2823  0.1242 -0.1272
   53CHL1  H18A 6356   6.475   2.920   9.665 -1.6209  1.0424  0.4350
   53CHL1  H18B 6357   6.634   2.989   9.686  0.3029  0.2432 -0.0878
   53CHL1  H18C 6358   6.531   2.972   9.836  0.2048  1.5111  0.1567
   53CHL1   C12 6359   6.568   3.229   9.797 -0.4445 -0.6315  0.5338
   53CHL1  H12A 6360   6.676   3.208   9.789 -0.8296 -2.1501 -1.6082
   53CHL1  H12B 6361   6.558   3.338   9.780 -3.4481 -1.1088 -1.4978
   53CHL1   C11 6362   6.509   3.223   9.948  0.3366 -0.4309  0.8703
   53CHL1  H11A 6363   6.541   3.130  10.000  2.0779 -0.6127 -0.4277
   53CHL1  H11B 6364   6.562   3.303  10.005 -0.4841  1.1032 -0.4645
   53CHL1    C9 6365   6.357   3.240   9.968 -0.6626 -0.2480 -0.0274
   53CHL1    H9 6366   6.322   3.339   9.932 -0.3814  0.2300  0.9781
   53CHL1   C10 6367   6.318   3.238  10.120 -0.0870  0.8257  0.0486
   53CHL1   C19 6368   6.362   3.106  10.189 -0.5412 -0.1406 -0.0606
   53CHL1  H19A 6369   6.311   3.012  10.159 -0.4438 -1.1995  2.7424
   53CHL1  H19B 6370   6.470   3.087  10.172 -0.8781 -0.2141 -2.3597
   53CHL1  H19C 6371   6.344   3.110  10.299  1.3304 -0.5158  0.2843
   53CHL1    C1 6372   6.391   3.355  10.191  0.2035  0.0527  0.0165
   53CHL1   H1A 6373   6.500   3.337  10.209  0.5985  2.7139  0.6739
   53CHL1   H1B 6374   6.373   3.452  10.142  3.1463 -0.6548 -2.8088
   53CHL1    C2 6375   6.332   3.376  10.336 -0.3874  0.0147  0.2457
   53CHL1   H2A 6376   6.377   3.473  10.367  1.7733 -0.5185 -1.0750
   53CHL1   H2B 6377   6.357   3.297  10.411 -0.7896 -1.4216 -1.0807
   53CHL1   C20 6378   6.604   3.148   9.456 -0.4881  0.4598 -0.5481
   53CHL1   H20 6379   6.587   3.039   9.442  0.5160  0.2300 -0.0759
   53CHL1   C21 6380   6.738   3.186   9.518  0.4288  0.6962 -0.0944
   53CHL1  H21A 6381   6.825   3.176   9.448 -0.2494 -2.0972 -0.6727
   53CHL1  H21B 6382   6.757   3.128   9.611 -2.0230  1.2013  0.7883
   53CHL1  H21C 6383   6.727   3.291   9.550 -0.3212  1.0439 -1.4072
   53CHL1   C22 6384   6.588   3.227   9.320  0.4381 -0.0253 -0.5167
   53CHL1  H22A 6385   6.492   3.197   9.272  0.8028 -2.1042 -0.0310
   53CHL1  H22B 6386   6.592   3.333   9.351 -1.2785 -0.1151  0.1392
   53CHL1   C23 6387   6.700   3.195   9.217  0.7627  0.2492  0.1921
   53CHL1  H23A 6388   6.804   3.220   9.246  0.5632  1.7964 -0.3597
   53CHL1  H23B 6389   6.698   3.087   9.190  0.8123  0.6018 -1.3367
   53CHL1   C24 6390   6.657   3.260   9.086 -0.0893 -0.4989  0.0312
   53CHL1  H24A 6391   6.579   3.204   9.030  1.2443  1.3417 -4.0730
   53CHL1  H24B 6392   6.616   3.361   9.104  0.4729 -0.0570 -1.1088
   53CHL1   C25 6393   6.772   3.267   8.980  0.1054  0.2551 -0.0350
   53CHL1   H25 6394   6.828   3.172   8.966  1.3166  0.7700  1.0992
   53CHL1   C26 6395   6.709   3.298   8.844  0.5342  1.1135 -0.1212
   53CHL1  H26A 6396   6.774   3.335   8.762 -0.4346  2.1163 -0.4720
   53CHL1  H26B 6397   6.656   3.213   8.795  1.9190  0.4611 -0.5180
   53CHL1  H26C 6398   6.632   3.376   8.861 -0.3933 -0.2245  2.3062
   53CHL1   C27 6399   6.864   3.370   9.029 -0.3021 -0.2683 -0.1156
   53CHL1  H27A 6400   6.813   3.464   9.060  1.3638  0.3077  1.0621
   53CHL1  H27B 6401   6.913   3.346   9.126  0.1780  1.4897  0.1221
   53CHL1  H27C 6402   6.951   3.392   8.963  0.4162 -0.0544  0.8625
   54CHL1    C3 6403   6.018   6.262  10.469 -0.5060  0.9228 -0.6043
   54CHL1    H3 6404   6.119   6.288  10.431 -0.1522  0.0287 -0.2931
   54CHL1    O3 6405   6.019   6.242  10.613  0.5491 -0.5808 -0.0959
   54CHL1   H3' 6406   6.069   6.316  10.649 -1.1074 -0.3390  1.9452
   54CHL1    C4 6407   5.921   6.378  10.435  0.2429 -0.2688 -0.0303
   54CHL1   H4A 6408   5.818   6.357  10.471  0.9378  0.8410  2.9107
   54CHL1   H4B 6409   5.942   6.460  10.507  1.4139 -3.4563  3.5880
   54CHL1    C5 6410   5.901   6.412  10.289 -0.0137  0.2102 -0.1750
   54CHL1    C6 6411   5.936   6.525  10.233  0.6300 -0.2139  0.2369
   54CHL1    H6 6412   5.977   6.606  10.295 -1.4376  1.5636 -0.5768
   54CHL1    C7 6413   5.909   6.554  10.095 -0.4917 -0.4474  0.5292
   54CHL1   H7A 6414   5.849   6.648  10.098  0.4167  0.1627 -0.1234
   54CHL1   H7B 6415   6.000   6.579  10.038  0.0141 -1.8663  0.6849
   54CHL1    C8 6416   5.827   6.450  10.020 -0.6953  0.3235 -0.4340
   54CHL1    H8 6417   5.723   6.461  10.056 -0.3200  2.9672  0.0791
   54CHL1   C14 6418   5.842   6.474   9.870 -0.4045 -0.3041 -0.5693
   54CHL1   H14 6419   5.950   6.459   9.849  0.3181  3.5020 -0.2976
   54CHL1   C15 6420   5.809   6.613   9.812  0.4205  0.0596  0.4763
   54CHL1  H15A 6421   5.718   6.643   9.869 -0.9586 -2.5256 -0.2027
   54CHL1  H15B 6422   5.891   6.686   9.825  0.4323  0.5238 -1.7553
   54CHL1   C16 6423   5.798   6.584   9.665 -0.7579  0.4019  0.7163
   54CHL1  H16A 6424   5.709   6.639   9.625 -0.7085 -1.0040 -1.5057
   54CHL1  H16B 6425   5.881   6.635   9.612 -2.2158 -0.0100 -2.1828
   54CHL1   C17 6426   5.804   6.429   9.645 -0.0466 -0.5486  0.4089
   54CHL1   H17 6427   5.909   6.393   9.634  0.1256 -0.1625  0.7715
   54CHL1   C13 6428   5.765   6.372   9.781 -0.0889 -0.1275 -0.1129
   54CHL1   C18 6429   5.608   6.383   9.799 -0.1812 -0.3737  0.1605
   54CHL1  H18A 6430   5.570   6.488   9.790 -2.4902 -1.1727 -0.0623
   54CHL1  H18B 6431   5.560   6.310   9.732 -1.1421  0.1817  0.2141
   54CHL1  H18C 6432   5.570   6.347   9.897 -1.5227 -0.6556 -0.4370
   54CHL1   C12 6433   5.821   6.237   9.816  0.2971  0.0920 -0.0781
   54CHL1  H12A 6434   5.775   6.154   9.758  1.3533 -1.4760  1.2524
   54CHL1  H12B 6435   5.927   6.235   9.783  0.3336  3.5236 -0.5522
   54CHL1   C11 6436   5.809   6.211   9.968  0.2771  0.4544  0.8669
   54CHL1  H11A 6437   5.701   6.201   9.993  0.7110 -1.0811  2.3621
   54CHL1  H11B 6438   5.847   6.110   9.995  0.5016  0.6820  1.4251
   54CHL1    C9 6439   5.872   6.311  10.061 -0.4631 -0.5071 -0.1737
   54CHL1    H9 6440   5.981   6.299  10.043 -0.4764 -1.3797  0.2767
   54CHL1   C10 6441   5.849   6.287  10.211 -0.3855  0.1546  0.4413
   54CHL1   C19 6442   5.698   6.261  10.247 -0.4658  0.4427  0.3561
   54CHL1  H19A 6443   5.681   6.247  10.356 -0.3246 -1.7836  0.1326
   54CHL1  H19B 6444   5.630   6.339  10.204  0.3737  2.1807  2.0263
   54CHL1  H19C 6445   5.675   6.163  10.200 -0.1070  0.7756 -0.5409
   54CHL1    C1 6446   5.937   6.163  10.252  0.0550 -0.5258 -0.4320
   54CHL1   H1A 6447   5.887   6.068  10.223 -1.8274  0.5098 -0.7572
   54CHL1   H1B 6448   6.039   6.166  10.207  0.3328 -1.6137  0.1021
   54CHL1    C2 6449   5.964   6.135  10.405 -0.5493 -0.5740  0.4382
   54CHL1   H2A 6450   6.037   6.053  10.418 -0.0728 -0.6202 -2.0066
   54CHL1   H2B 6451   5.865   6.097  10.436 -0.5130 -1.8592 -0.8826
   54CHL1   C20 6452   5.729   6.387   9.520 -0.4929 -0.0984  0.0101
   54CHL1   H20 6453   5.623   6.419   9.525 -0.2645  0.5662  0.7475
   54CHL1   C21 6454   5.727   6.235   9.507  0.0125 -0.4660  0.5409
   54CHL1  H21A 6455   5.653   6.195   9.579 -1.6041  0.5264 -0.5070
   54CHL1  H21B 6456   5.831   6.201   9.525 -0.1128 -0.6783  0.8633
   54CHL1  H21C 6457   5.709   6.190   9.407 -2.1971 -0.4720  0.8886
   54CHL1   C22 6458   5.802   6.439   9.388  0.2453 -0.0229  0.3714
   54CHL1  H22A 6459   5.811   6.550   9.389 -1.0783  0.1194 -0.6290
   54CHL1  H22B 6460   5.907   6.407   9.373  1.4820  4.3741 -2.0454
   54CHL1   C23 6461   5.727   6.398   9.262  0.2945 -0.1414  0.3071
   54CHL1  H23A 6462   5.748   6.290   9.242  2.1615  0.1841  0.3860
   54CHL1  H23B 6463   5.619   6.417   9.276  0.0294 -2.5708  2.4341
   54CHL1   C24 6464   5.767   6.486   9.138  0.3610 -0.2278 -0.1246
   54CHL1  H24A 6465   5.751   6.590   9.174 -0.5054 -1.4168  3.2301
   54CHL1  H24B 6466   5.876   6.491   9.119  0.1724  0.8996 -1.0162
   54CHL1   C25 6467   5.679   6.469   9.009  0.7114  0.3969 -0.0570
   54CHL1   H25 6468   5.571   6.474   9.037  1.3600  0.8975  2.6526
   54CHL1   C26 6469   5.701   6.585   8.903  0.4381 -0.1034  0.3078
   54CHL1  H26A 6470   5.676   6.685   8.945 -1.8315 -1.3010  1.9759
   54CHL1  H26B 6471   5.809   6.588   8.877  0.3595 -1.2065 -0.1949
   54CHL1  H26C 6472   5.646   6.567   8.808  0.0915  1.0793  0.2617
   54CHL1   C27 6473   5.723   6.335   8.944  0.2546  0.1711  0.2373
   54CHL1  H27A 6474   5.656   6.291   8.867  0.5030 -2.2493  1.3358
   54CHL1  H27B 6475   5.827   6.344   8.906 -0.3704  0.9600 -1.3965
   54CHL1  H27C 6476   5.723   6.251   9.017  1.3535  0.2777  0.3754
   55CHL1    C3 6477   0.376   2.530  10.125 -0.3684  0.0484  0.2204
   55CHL1    H3 6478   0.416   2.435  10.165  1.0697  0.4270 -0.2553
   55CHL1    O3 6479   0.322   2.610  10.227  0.0950  0.2326 -0.6326
   55CHL1   H3' 6480   0.244   2.562  10.256 -0.1848  1.2713  0.4275
   55CHL1    C4 6481   0.503   2.598  10.061  0.0773  0.8116  0.0989
   55CHL1   H4A 6482   0.483   2.706  10.053 -1.2500  0.4312 -2.5355
   55CHL1   H4B 6483   0.587   2.577  10.132 -2.1183 -2.2528  2.0552
   55CHL1    C5 6484   0.526   2.549   9.919 -0.9098  0.3347  0.1047
   55CHL1    C6 6485   0.654   2.507   9.877  0.3600 -0.0082 -0.4767
   55CHL1    H6 6486   0.732   2.496   9.953 -0.4547 -1.8503  0.1661
   55CHL1    C7 6487   0.691   2.486   9.736  0.0685  0.4413  0.0973
   55CHL1   H7A 6488   0.785   2.543   9.719  0.1842 -0.2176 -1.6890
   55CHL1   H7B 6489   0.705   2.377   9.719 -2.4353 -0.1188  1.1252
   55CHL1    C8 6490   0.586   2.544   9.638 -0.2467  0.0096  0.5657
   55CHL1    H8 6491   0.611   2.653   9.634 -1.2043  0.2260 -3.3924
   55CHL1   C14 6492   0.621   2.490   9.498 -0.1484  1.0631  0.2011
   55CHL1   H14 6493   0.605   2.381   9.514  0.9106  0.8520 -0.1483
   55CHL1   C15 6494   0.770   2.507   9.455 -0.4061  0.0586 -0.2378
   55CHL1  H15A 6495   0.812   2.607   9.477  0.9335 -0.6017  0.3558
   55CHL1  H15B 6496   0.826   2.427   9.509 -1.2007  0.4202  1.1828
   55CHL1   C16 6497   0.766   2.490   9.300 -0.6896 -0.2428 -0.2615
   55CHL1  H16A 6498   0.813   2.574   9.246  1.9419 -0.5269  1.4157
   55CHL1  H16B 6499   0.814   2.396   9.265 -1.6487 -0.3509 -1.3420
   55CHL1   C17 6500   0.609   2.463   9.263  0.4185  1.3073 -0.0891
   55CHL1   H17 6501   0.581   2.355   9.271  0.3269  1.2472 -1.1147
   55CHL1   C13 6502   0.532   2.527   9.383  0.4618 -0.3599 -0.2774
   55CHL1   C18 6503   0.539   2.687   9.369 -0.4565 -0.3018  0.1058
   55CHL1  H18A 6504   0.527   2.740   9.466 -0.8724 -0.6516  0.2495
   55CHL1  H18B 6505   0.643   2.704   9.332  0.2104 -0.7345  1.6811
   55CHL1  H18C 6506   0.458   2.732   9.308 -0.0961  0.7213  0.3635
   55CHL1   C12 6507   0.386   2.495   9.429  0.1959  0.0086  0.0530
   55CHL1  H12A 6508   0.309   2.525   9.354  1.7496  3.3872 -0.4075
   55CHL1  H12B 6509   0.390   2.384   9.430  3.9298  0.0002 -0.0511
   55CHL1   C11 6510   0.355   2.557   9.569 -0.2328  0.9627  1.2403
   55CHL1  H11A 6511   0.381   2.665   9.569  1.5760  0.7711 -3.2376
   55CHL1  H11B 6512   0.251   2.536   9.600 -0.8740  1.6056 -0.3843
   55CHL1    C9 6513   0.447   2.507   9.680 -0.2926  0.5773  0.0163
   55CHL1    H9 6514   0.442   2.396   9.685  0.0509  0.6021  1.2348
   55CHL1   C10 6515   0.409   2.553   9.827  0.0783  0.0761  0.4703
   55CHL1   C19 6516   0.356   2.701   9.816 -0.0387 -0.2096 -0.5275
   55CHL1  H19A 6517   0.273   2.709   9.743 -0.6948  0.1647  0.2479
   55CHL1  H19B 6518   0.315   2.734   9.913 -0.5682 -0.2364 -0.7397
   55CHL1  H19C 6519   0.436   2.772   9.786  1.3281  0.0807  3.3313
   55CHL1    C1 6520   0.304   2.460   9.887  0.3554  0.6430  0.9138
   55CHL1   H1A 6521   0.217   2.449   9.819  1.2803 -3.3210  0.0692
   55CHL1   H1B 6522   0.342   2.355   9.896  1.3629  0.9667  0.5600
   55CHL1    C2 6523   0.256   2.512  10.027 -0.7873  0.0146  1.1483
   55CHL1   H2A 6524   0.178   2.441  10.063 -1.7754 -0.4834 -1.6853
   55CHL1   H2B 6525   0.201   2.608  10.019  0.9591  0.9413 -0.7795
   55CHL1   C20 6526   0.574   2.503   9.119 -0.0884  0.0290  0.4097
   55CHL1   H20 6527   0.616   2.605   9.102 -0.8644  0.2406 -0.3350
   55CHL1   C21 6528   0.424   2.478   9.091 -0.1210 -0.3555 -0.0979
   55CHL1  H21A 6529   0.388   2.527   8.998 -2.5311  0.1674  1.0493
   55CHL1  H21B 6530   0.364   2.532   9.167  1.3364  1.7177 -0.3332
   55CHL1  H21C 6531   0.407   2.368   9.093  0.4845 -0.4457  0.4284
   55CHL1   C22 6532   0.648   2.414   9.021  0.3633  0.1599 -0.5423
   55CHL1  H22A 6533   0.689   2.323   9.068 -0.4569  1.3550  2.7664
   55CHL1  H22B 6534   0.574   2.384   8.943 -1.3288  2.3969  0.0816
   55CHL1   C23 6535   0.765   2.482   8.947 -0.3012  0.6233  0.0256
   55CHL1  H23A 6536   0.726   2.581   8.914 -0.1117  1.2882  1.7109
   55CHL1  H23B 6537   0.854   2.496   9.011 -1.3050  0.4861  1.5214
   55CHL1   C24 6538   0.808   2.416   8.815  0.6189 -0.0015  0.4172
   55CHL1  H24A 6539   0.857   2.316   8.819 -0.9934 -1.0070 -2.2034
   55CHL1  H24B 6540   0.716   2.402   8.755  1.5648 -0.1996 -1.0509
   55CHL1   C25 6541   0.914   2.503   8.754 -0.4478 -0.4985  0.3115
   55CHL1   H25 6542   0.897   2.607   8.790 -1.1018 -1.1022  1.8234
   55CHL1   C26 6543   1.059   2.458   8.809 -0.0762  0.2184  0.1747
   55CHL1  H26A 6544   1.057   2.461   8.920  0.6968  0.7441  0.1834
   55CHL1  H26B 6545   1.088   2.355   8.778  1.7916 -0.1858  2.9303
   55CHL1  H26C 6546   1.135   2.529   8.771 -0.9936  0.5096 -1.2315
   55CHL1   C27 6547   0.906   2.493   8.601  0.9522 -0.1195  0.2280
   55CHL1  H27A 6548   0.980   2.560   8.552  0.3986  0.2395 -0.1232
   55CHL1  H27B 6549   0.928   2.390   8.564 -0.5005  0.3984 -2.2831
   55CHL1  H27C 6550   0.807   2.526   8.565  0.0485 -0.8005  2.0001
   56CHL1    C3 6551   4.978   1.011  10.289  1.0307 -0.0951 -0.1521
   56CHL1    H3 6552   5.089   1.009  10.291  1.0204 -0.9085 -0.3087
   56CHL1    O3 6553   4.926   1.028  10.419 -0.6440 -0.3309 -0.2987
   56CHL1   H3' 6554   4.933   0.944  10.464 -0.4006  0.5787  1.4315
   56CHL1    C4 6555   4.929   1.130  10.214 -0.1162 -0.6240  0.2728
   56CHL1   H4A 6556   4.818   1.131  10.211 -0.1291  0.9046  0.6622
   56CHL1   H4B 6557   4.949   1.229  10.259  2.8010 -2.2220  2.8851
   56CHL1    C5 6558   4.976   1.129  10.073 -0.2526 -0.0781 -0.1898
   56CHL1    C6 6559   5.047   1.230  10.021  0.4536 -0.2082  0.0677
   56CHL1    H6 6560   5.082   1.312  10.084  2.6143  2.8915 -4.5936
   56CHL1    C7 6561   5.089   1.240   9.878 -0.2886  0.5218  0.2316
   56CHL1   H7A 6562   5.081   1.343   9.835  0.2538  1.4312  2.1953
   56CHL1   H7B 6563   5.195   1.214   9.893 -0.8267 -0.9343  1.8201
   56CHL1    C8 6564   5.010   1.141   9.790  0.2286 -1.0101 -0.1364
   56CHL1    H8 6565   4.908   1.181   9.771  0.4587 -0.2221  0.2262
   56CHL1   C14 6566   5.100   1.124   9.668  0.5841  1.1548 -0.5313
   56CHL1   H14 6567   5.194   1.082   9.709  0.5012  1.1016 -0.3947
   56CHL1   C15 6568   5.133   1.248   9.591  0.0728 -0.2928 -0.2131
   56CHL1  H15A 6569   5.046   1.317   9.593 -0.0130 -0.3073  3.2659
   56CHL1  H15B 6570   5.211   1.306   9.646 -1.1491  0.2587  1.0057
   56CHL1   C16 6571   5.163   1.192   9.453  0.5524 -0.1199  0.1228
   56CHL1  H16A 6572   5.099   1.247   9.381  2.2044 -1.7106 -2.7944
   56CHL1  H16B 6573   5.267   1.219   9.424  0.2254  2.1289  0.8156
   56CHL1   C17 6574   5.119   1.042   9.437 -0.4941  0.0452 -0.0912
   56CHL1   H17 6575   5.206   0.976   9.459 -0.5657 -0.2963 -0.7973
   56CHL1   C13 6576   5.032   1.024   9.567 -0.4589  0.2564  0.2227
   56CHL1   C18 6577   4.889   1.074   9.530 -0.2559 -0.0874  0.5588
   56CHL1  H18A 6578   4.852   0.997   9.460  0.5759 -0.4380  0.4857
   56CHL1  H18B 6579   4.821   1.080   9.618  0.4831 -1.2191  1.2476
   56CHL1  H18C 6580   4.885   1.170   9.475 -2.2369  0.2834  1.2933
   56CHL1   C12 6581   5.018   0.885   9.638  0.0196 -0.3367 -0.2085
   56CHL1  H12A 6582   4.952   0.821   9.575 -3.1153  1.4181  1.1025
   56CHL1  H12B 6583   5.120   0.841   9.644 -0.0722 -0.7404 -1.3615
   56CHL1   C11 6584   4.944   0.899   9.770 -0.1421 -0.5310 -0.1257
   56CHL1  H11A 6585   4.839   0.920   9.743 -0.0667 -2.2741 -1.9851
   56CHL1  H11B 6586   4.947   0.800   9.820  1.1306 -0.8334 -0.7417
   56CHL1    C9 6587   5.001   1.005   9.862  0.1398  0.3665  0.9653
   56CHL1    H9 6588   5.104   0.973   9.888 -0.5817 -2.2305  0.8884
   56CHL1   C10 6589   4.928   1.011   9.997 -0.6791  0.5832 -0.3994
   56CHL1   C19 6590   4.777   1.020   9.975  0.2792  0.5314  0.3063
   56CHL1  H19A 6591   4.730   1.042  10.072 -1.3464  1.8796 -0.7384
   56CHL1  H19B 6592   4.752   1.096   9.897 -1.1551 -1.6978 -1.5722
   56CHL1  H19C 6593   4.732   0.922   9.946  0.7229  0.4140 -0.0127
   56CHL1    C1 6594   4.960   0.880  10.078 -0.3039  0.8431 -0.6703
   56CHL1   H1A 6595   4.883   0.806  10.051 -0.9364  0.4179  2.0105
   56CHL1   H1B 6596   5.061   0.839  10.055 -0.1370 -0.6501  2.2848
   56CHL1    C2 6597   4.930   0.880  10.229 -0.2152 -0.0369 -0.5194
   56CHL1   H2A 6598   4.966   0.786  10.274  1.1753  1.1916  1.0346
   56CHL1   H2B 6599   4.820   0.882  10.243 -0.1148 -0.5943  0.3583
   56CHL1   C20 6600   5.071   1.006   9.294  0.5059 -0.3090 -0.1410
   56CHL1   H20 6601   4.971   1.054   9.289 -0.3077 -1.9811 -0.9896
   56CHL1   C21 6602   5.048   0.849   9.282  0.1403 -0.0581  0.5825
   56CHL1  H21A 6603   5.037   0.832   9.172 -1.2516 -1.5897  0.9227
   56CHL1  H21B 6604   4.953   0.820   9.331 -0.6597 -1.5506 -1.6610
   56CHL1  H21C 6605   5.130   0.786   9.323 -1.8302 -2.9564  0.3492
   56CHL1   C22 6606   5.147   1.073   9.178  0.5493 -0.4921  0.4238
   56CHL1  H22A 6607   5.100   1.051   9.079  0.7910  1.7894 -0.2483
   56CHL1  H22B 6608   5.138   1.184   9.178  0.9947 -0.4151 -1.6757
   56CHL1   C23 6609   5.294   1.015   9.171 -0.0249  0.3109 -0.2431
   56CHL1  H23A 6610   5.352   1.031   9.264  1.1802 -1.0298 -0.7306
   56CHL1  H23B 6611   5.294   0.908   9.140  1.1433  1.1500 -3.5621
   56CHL1   C24 6612   5.378   1.096   9.065  0.2783 -0.3575  0.4985
   56CHL1  H24A 6613   5.333   1.079   8.965  0.6358 -0.1549  0.3004
   56CHL1  H24B 6614   5.366   1.203   9.091  2.7730  1.0052 -3.0819
   56CHL1   C25 6615   5.524   1.062   9.053 -0.3258 -0.2178 -0.2987
   56CHL1   H25 6616   5.581   1.076   9.147  0.2340 -0.2263 -0.6259
   56CHL1   C26 6617   5.547   0.912   9.009 -0.7745 -0.5081  0.0906
   56CHL1  H26A 6618   5.501   0.844   9.084  0.7214 -0.5803  0.9795
   56CHL1  H26B 6619   5.504   0.891   8.909  1.7813  0.2979 -1.2729
   56CHL1  H26C 6620   5.655   0.885   9.006 -0.5069  0.5690 -1.1330
   56CHL1   C27 6621   5.597   1.160   8.955 -0.2269  0.0416 -0.1930
   56CHL1  H27A 6622   5.559   1.136   8.853 -0.4579  1.0068 -0.3459
   56CHL1  H27B 6623   5.582   1.269   8.968  0.2339  0.2903 -1.5700
   56CHL1  H27C 6624   5.708   1.153   8.959 -0.2626  0.0959  2.0132
   57CHL1    C3 6625   5.916   3.700  10.410  0.3375  0.4592  0.1896
   57CHL1    H3 6626   5.976   3.607  10.412 -0.0325  0.1667 -1.0839
   57CHL1    O3 6627   5.885   3.750  10.536 -0.2902  0.0143  0.3115
   57CHL1   H3' 6628   5.827   3.825  10.524 -0.0419  0.4146  1.4164
   57CHL1    C4 6629   6.006   3.811  10.343 -0.4969  0.2881 -0.8873
   57CHL1   H4A 6630   5.931   3.893  10.338 -0.9916  0.1130  2.0568
   57CHL1   H4B 6631   6.096   3.839  10.403 -0.7824  3.0142 -1.5639
   57CHL1    C5 6632   6.037   3.765  10.201 -0.6104  0.3369 -0.0529
   57CHL1    C6 6633   6.162   3.759  10.150 -0.0692 -0.5181  0.1196
   57CHL1    H6 6634   6.246   3.776  10.220  1.9303 -1.1197 -2.0071
   57CHL1    C7 6635   6.198   3.713  10.015  0.0847 -0.3858  0.3655
   57CHL1   H7A 6636   6.266   3.792   9.976  1.6941 -1.5622  0.7185
   57CHL1   H7B 6637   6.248   3.614  10.010 -0.6505 -0.7571  0.2670
   57CHL1    C8 6638   6.072   3.707   9.915  0.2029 -0.1401  0.4146
   57CHL1    H8 6639   6.045   3.809   9.879  0.9213 -0.8110 -2.2716
   57CHL1   C14 6640   6.102   3.612   9.800  0.5837 -0.3562 -0.1325
   57CHL1   H14 6641   6.118   3.510   9.841  1.8164 -0.3505 -0.5394
   57CHL1   C15 6642   6.231   3.648   9.720  0.4849 -0.2628 -0.7605
   57CHL1  H15A 6643   6.217   3.758   9.712  1.0466 -0.0915  0.4130
   57CHL1  H15B 6644   6.327   3.627   9.772  0.2908 -0.4078 -0.4572
   57CHL1   C16 6645   6.214   3.568   9.590  0.2795  0.7065  0.4621
   57CHL1  H16A 6646   6.209   3.645   9.511  1.7357  1.3597  0.9786
   57CHL1  H16B 6647   6.299   3.497   9.579  0.0123  0.2608  1.1491
   57CHL1   C17 6648   6.072   3.501   9.593 -0.5058 -0.3369  0.7817
   57CHL1   H17 6649   6.091   3.399   9.630  3.1254 -0.4626 -0.9963
   57CHL1   C13 6650   5.991   3.595   9.695  0.6244  0.1866  0.6814
   57CHL1   C18 6651   5.951   3.736   9.634  0.3158  0.3820  0.4036
   57CHL1  H18A 6652   6.035   3.778   9.576  1.0044  0.4000  1.3951
   57CHL1  H18B 6653   5.862   3.716   9.569  0.6781  0.1016 -0.0175
   57CHL1  H18C 6654   5.919   3.800   9.719  1.1885  0.6707  0.5242
   57CHL1   C12 6655   5.871   3.529   9.766 -0.3505 -0.4410  0.3587
   57CHL1  H12A 6656   5.786   3.531   9.695  0.5977  1.0140 -0.7768
   57CHL1  H12B 6657   5.895   3.421   9.783  1.2314 -0.0536  0.7162
   57CHL1   C11 6658   5.833   3.603   9.893  0.0042 -0.0827  0.5354
   57CHL1  H11A 6659   5.782   3.696   9.860 -2.2468 -0.6051  2.2804
   57CHL1  H11B 6660   5.749   3.557   9.949  0.8519 -0.9091  1.1451
   57CHL1    C9 6661   5.954   3.637   9.991 -0.2083  0.0291 -0.7710
   57CHL1    H9 6662   6.003   3.544  10.025  0.5400  1.4058  2.2314
   57CHL1   C10 6663   5.910   3.721  10.112  0.0429 -0.0678 -0.2482
   57CHL1   C19 6664   5.841   3.858  10.075 -0.0277 -0.0389  0.3999
   57CHL1  H19A 6665   5.795   3.900  10.167 -0.8601 -0.2267  0.0773
   57CHL1  H19B 6666   5.913   3.934  10.037 -2.4821  1.3270 -1.8113
   57CHL1  H19C 6667   5.755   3.838  10.008 -0.9731  0.2499  1.4943
   57CHL1    C1 6668   5.817   3.641  10.188  0.0844  0.5125 -0.6580
   57CHL1   H1A 6669   5.717   3.626  10.143 -0.3976 -0.5400  0.7101
   57CHL1   H1B 6670   5.862   3.540  10.195  1.2968  1.0788  0.2110
   57CHL1    C2 6671   5.785   3.685  10.330 -0.1949  0.1817 -0.5403
   57CHL1   H2A 6672   5.725   3.603  10.375 -0.2651  0.0630 -0.8424
   57CHL1   H2B 6673   5.728   3.780  10.325 -0.6005 -0.0433 -0.2110
   57CHL1   C20 6674   6.020   3.485   9.450 -0.2687  0.1125 -0.6967
   57CHL1   H20 6675   5.960   3.570   9.411 -2.4217 -0.6622  0.6777
   57CHL1   C21 6676   5.912   3.391   9.460  0.1421 -0.3594  0.3489
   57CHL1  H21A 6677   5.840   3.404   9.544  0.4827 -2.0520  0.9316
   57CHL1  H21B 6678   5.942   3.285   9.465  1.2308 -0.1492 -1.0750
   57CHL1  H21C 6679   5.851   3.384   9.367 -0.8437 -0.3420  0.9686
   57CHL1   C22 6680   6.121   3.445   9.340 -0.2866  0.3249  0.3422
   57CHL1  H22A 6681   6.209   3.513   9.337  0.2755 -0.4135 -1.2155
   57CHL1  H22B 6682   6.159   3.346   9.372 -1.6125 -0.0428  0.8550
   57CHL1   C23 6683   6.061   3.453   9.197 -0.1858  0.3165  0.0607
   57CHL1  H23A 6684   5.975   3.385   9.177 -0.6750  0.5035  1.4404
   57CHL1  H23B 6685   6.026   3.557   9.179  1.2751  1.2762  2.2818
   57CHL1   C24 6686   6.166   3.414   9.081  0.5990  0.3026 -0.8773
   57CHL1  H24A 6687   6.108   3.418   8.987  2.8253  1.7158 -2.2789
   57CHL1  H24B 6688   6.256   3.479   9.079  0.6307  0.2900 -0.2208
   57CHL1   C25 6689   6.234   3.273   9.082 -0.2032 -0.1889 -0.7558
   57CHL1   H25 6690   6.302   3.251   9.167  1.9319  1.6641 -1.8941
   57CHL1   C26 6691   6.131   3.162   9.079  0.0014 -0.3239 -0.5633
   57CHL1  H26A 6692   6.178   3.061   9.075 -2.3572 -1.5533  0.6897
   57CHL1  H26B 6693   6.077   3.177   9.174  3.7397 -0.2264  1.7639
   57CHL1  H26C 6694   6.068   3.161   8.988 -2.0409  1.4690  0.7525
   57CHL1   C27 6695   6.327   3.262   8.961  0.2916 -0.0090  0.8053
   57CHL1  H27A 6696   6.272   3.284   8.866 -0.3354 -0.7403  0.9922
   57CHL1  H27B 6697   6.402   3.343   8.977 -0.3568  0.3896  1.9538
   57CHL1  H27C 6698   6.383   3.169   8.941 -0.2823 -0.1797 -0.0771
   58CHL1    C3 6699   2.843   0.495  10.261 -0.6282 -0.1256  0.1941
   58CHL1    H3 6700   2.757   0.424  10.256 -1.5501  0.9458  0.4229
   58CHL1    O3 6701   2.877   0.509  10.396 -0.4401  0.5102 -0.1686
   58CHL1   H3' 6702   2.810   0.559  10.443 -1.4388 -0.1239 -0.8712
   58CHL1    C4 6703   2.956   0.428  10.179 -0.0418 -0.6157 -0.4481
   58CHL1   H4A 6704   3.056   0.469  10.202 -0.8560  1.0791  0.2409
   58CHL1   H4B 6705   2.948   0.329  10.228  0.5914 -0.7204 -0.5516
   58CHL1    C5 6706   2.931   0.416  10.032 -0.3565 -0.2470 -0.3146
   58CHL1    C6 6707   2.935   0.301   9.966 -0.6434 -0.2187 -0.2933
   58CHL1    H6 6708   2.957   0.215  10.030 -0.2984  0.3500  0.3627
   58CHL1    C7 6709   2.925   0.295   9.824  0.0315 -0.0728  0.2450
   58CHL1   H7A 6710   3.024   0.252   9.797  0.3879 -0.4371  2.0225
   58CHL1   H7B 6711   2.842   0.226   9.796 -0.4854  0.2385  0.9832
   58CHL1    C8 6712   2.920   0.430   9.753  0.2470 -0.4981  0.0805
   58CHL1    H8 6713   3.019   0.479   9.761 -0.5753  1.0117  1.6478
   58CHL1   C14 6714   2.879   0.420   9.602 -0.7338  0.4758 -0.0574
   58CHL1   H14 6715   2.776   0.380   9.612 -1.0286  1.0913 -0.5821
   58CHL1   C15 6716   2.952   0.315   9.519  0.1210  0.0608 -0.0211
   58CHL1  H15A 6717   3.061   0.312   9.540 -0.4948  1.5198  4.3648
   58CHL1  H15B 6718   2.905   0.217   9.542 -1.7092  0.7675 -0.5969
   58CHL1   C16 6719   2.924   0.359   9.375  0.5656  0.5806  0.0678
   58CHL1  H16A 6720   3.014   0.384   9.316  1.1706 -2.5289 -0.5206
   58CHL1  H16B 6721   2.869   0.276   9.326  0.8342 -0.8621  2.0723
   58CHL1   C17 6722   2.834   0.488   9.382  0.1980 -0.3873  0.4423
   58CHL1   H17 6723   2.732   0.447   9.402  0.5296 -0.7958  1.3268
   58CHL1   C13 6724   2.875   0.548   9.515 -0.8717 -0.3865 -0.1949
   58CHL1   C18 6725   3.015   0.609   9.497 -0.4362 -0.0982  0.0304
   58CHL1  H18A 6726   3.064   0.637   9.592 -1.4446  1.2067  0.2011
   58CHL1  H18B 6727   3.083   0.540   9.443  0.4967  0.0624  0.9725
   58CHL1  H18C 6728   3.003   0.707   9.448 -0.2947  1.2045  2.4388
   58CHL1   C12 6729   2.779   0.642   9.588  0.3653 -0.0462 -0.0590
   58CHL1  H12A 6730   2.778   0.738   9.532 -0.4922  0.0663  0.1329
   58CHL1  H12B 6731   2.674   0.609   9.600  0.2395  1.2764  4.9614
   58CHL1   C11 6732   2.810   0.665   9.743  0.3420 -0.8399 -0.2326
   58CHL1  H11A 6733   2.901   0.729   9.739 -0.2623  0.0792  0.3986
   58CHL1  H11B 6734   2.732   0.721   9.799  0.3089 -0.7295 -0.3879
   58CHL1    C9 6735   2.838   0.534   9.826  0.0272 -0.5060 -0.0380
   58CHL1    H9 6736   2.741   0.481   9.824 -1.0335  1.3836 -0.4426
   58CHL1   C10 6737   2.888   0.553   9.972 -0.0071  0.3201  0.8633
   58CHL1   C19 6738   3.012   0.651   9.973  0.1015 -0.0248 -0.0072
   58CHL1  H19A 6739   2.975   0.755   9.956 -0.4505 -0.2679 -0.3150
   58CHL1  H19B 6740   3.059   0.652  10.074 -0.8348 -0.4105  0.4455
   58CHL1  H19C 6741   3.089   0.629   9.897 -0.6042 -1.5324 -0.3144
   58CHL1    C1 6742   2.769   0.614  10.059 -0.1921 -0.0816 -0.4059
   58CHL1   H1A 6743   2.732   0.710  10.018 -1.5075 -0.0874  0.6859
   58CHL1   H1B 6744   2.673   0.560  10.072  0.0057  0.1635  3.2011
   58CHL1    C2 6745   2.814   0.631  10.204 -0.3725 -0.5884 -0.2992
   58CHL1   H2A 6746   2.736   0.687  10.260  0.5736  0.2490  0.2109
   58CHL1   H2B 6747   2.906   0.692  10.211 -0.9624  0.2222  0.6409
   58CHL1   C20 6748   2.832   0.566   9.257 -0.4816  0.2375  0.4248
   58CHL1   H20 6749   2.938   0.578   9.226 -0.2786  0.9316  1.3381
   58CHL1   C21 6750   2.765   0.699   9.278 -0.2692 -0.4607 -0.1163
   58CHL1  H21A 6751   2.829   0.775   9.326 -0.4835 -0.3369 -0.0253
   58CHL1  H21B 6752   2.669   0.695   9.334 -0.0928  0.9594  0.3077
   58CHL1  H21C 6753   2.730   0.744   9.183  1.3635  0.5723 -0.2490
   58CHL1   C22 6754   2.774   0.488   9.142  0.2392  0.8277 -0.5458
   58CHL1  H22A 6755   2.771   0.378   9.156  0.6592  0.4324 -3.1196
   58CHL1  H22B 6756   2.664   0.501   9.138 -0.2065 -2.1543  0.1079
   58CHL1   C23 6757   2.836   0.517   9.007 -0.6384 -0.2657  0.4524
   58CHL1  H23A 6758   2.807   0.619   8.972  0.1074 -1.1077 -2.9744
   58CHL1  H23B 6759   2.946   0.527   9.013 -0.8647  1.9154  2.2800
   58CHL1   C24 6760   2.788   0.415   8.893 -0.1335  0.2761 -0.9793
   58CHL1  H24A 6761   2.823   0.325   8.947 -1.8848  1.3141  2.1634
   58CHL1  H24B 6762   2.678   0.408   8.880 -0.0850 -2.9426 -0.3569
   58CHL1   C25 6763   2.879   0.428   8.774  1.0019  0.1488  0.8146
   58CHL1   H25 6764   2.981   0.399   8.806  0.3856  0.2925  3.0650
   58CHL1   C26 6765   2.826   0.325   8.674 -0.8797  0.0850  0.8494
   58CHL1  H26A 6766   2.821   0.222   8.715  0.5261 -1.1962 -1.8762
   58CHL1  H26B 6767   2.722   0.344   8.642 -1.3126 -0.8052  1.6669
   58CHL1  H26C 6768   2.898   0.328   8.589  0.5544 -2.9403  1.7947
   58CHL1   C27 6769   2.885   0.566   8.704  0.4912 -0.6344 -0.4231
   58CHL1  H27A 6770   2.947   0.557   8.612  0.4150 -0.6415 -0.4729
   58CHL1  H27B 6771   2.784   0.588   8.663  0.5926 -1.5058 -1.1627
   58CHL1  H27C 6772   2.917   0.655   8.764 -0.4846 -1.9105  2.1435
   59CHL1    C3 6773   3.384   6.350  10.346 -0.0306  0.0957 -0.3900
   59CHL1    H3 6774   3.479   6.407  10.353  0.3430 -0.2730 -2.2029
   59CHL1    O3 6775   3.359   6.270  10.463 -0.6074 -0.8017  0.4288
   59CHL1   H3' 6776   3.408   6.188  10.455 -1.2921 -1.1357 -0.5362
   59CHL1    C4 6777   3.266   6.443  10.313 -0.4435 -0.7329  0.3800
   59CHL1   H4A 6778   3.180   6.375  10.330  0.7278 -2.8310 -1.5625
   59CHL1   H4B 6779   3.262   6.517  10.396 -1.1886 -1.5144  1.0621
   59CHL1    C5 6780   3.284   6.515  10.180  0.1177 -0.3292 -0.6235
   59CHL1    C6 6781   3.269   6.655  10.164 -0.0319  0.2022  0.7324
   59CHL1    H6 6782   3.251   6.728  10.244 -0.3856 -0.4750  1.2777
   59CHL1    C7 6783   3.265   6.711  10.028 -0.9660  0.4267  0.0357
   59CHL1   H7A 6784   3.190   6.791  10.013 -0.3293  1.0456  0.0689
   59CHL1   H7B 6785   3.367   6.755  10.020  0.5274 -2.6255  0.5119
   59CHL1    C8 6786   3.244   6.607   9.915 -0.2573 -0.3192 -0.0391
   59CHL1    H8 6787   3.142   6.566   9.932  0.2979 -1.3349  0.9864
   59CHL1   C14 6788   3.262   6.667   9.777 -0.5758  0.0270 -0.0071
   59CHL1   H14 6789   3.370   6.691   9.772 -0.0833 -2.1223 -4.4836
   59CHL1   C15 6790   3.182   6.794   9.750  0.1247 -0.3162  0.4927
   59CHL1  H15A 6791   3.074   6.796   9.776 -0.8021  1.8483 -2.9367
   59CHL1  H15B 6792   3.217   6.878   9.814  1.6462  0.9041 -1.7938
   59CHL1   C16 6793   3.181   6.814   9.601  0.8002  0.0804 -0.0064
   59CHL1  H16A 6794   3.074   6.817   9.573 -0.1642 -0.7186  3.1952
   59CHL1  H16B 6795   3.225   6.913   9.574 -0.3394  0.8136  0.7146
   59CHL1   C17 6796   3.243   6.682   9.536 -0.1362  0.3309 -0.2585
   59CHL1   H17 6797   3.353   6.698   9.539  0.1031 -0.9805  3.5765
   59CHL1   C13 6798   3.232   6.578   9.661 -0.6451  0.0294  0.0485
   59CHL1   C18 6799   3.087   6.530   9.661 -0.2214 -0.0054  0.2134
   59CHL1  H18A 6800   3.076   6.462   9.573 -1.0058  1.0286 -0.5171
   59CHL1  H18B 6801   3.051   6.482   9.755  1.3013  3.7179  2.9295
   59CHL1  H18C 6802   3.015   6.614   9.647 -2.0035 -1.3618  0.8724
   59CHL1   C12 6803   3.333   6.460   9.663  0.5566 -0.0396 -0.3924
   59CHL1  H12A 6804   3.311   6.377   9.593  1.5924 -0.2007 -0.5456
   59CHL1  H12B 6805   3.438   6.496   9.662 -0.0129  1.9072  1.8154
   59CHL1   C11 6806   3.317   6.390   9.801 -0.4734 -0.2631 -0.0933
   59CHL1  H11A 6807   3.213   6.351   9.802 -0.2454 -0.9143 -1.1241
   59CHL1  H11B 6808   3.390   6.306   9.810  0.1269  0.0131 -2.0336
   59CHL1    C9 6809   3.333   6.484   9.923 -0.0910 -0.2235 -0.1968
   59CHL1    H9 6810   3.439   6.519   9.929 -0.7583  2.4011 -1.9168
   59CHL1   C10 6811   3.308   6.416  10.063 -0.4907  0.5740 -0.9188
   59CHL1   C19 6812   3.178   6.332  10.049 -0.0807 -0.3527 -0.2727
   59CHL1  H19A 6813   3.089   6.383  10.007 -0.1290 -0.3332 -0.1473
   59CHL1  H19B 6814   3.204   6.249   9.980  0.1386 -0.4798 -0.0382
   59CHL1  H19C 6815   3.148   6.275  10.140 -2.0224  0.1683 -0.5361
   59CHL1    C1 6816   3.431   6.321  10.101 -0.3559 -0.2184  0.9715
   59CHL1   H1A 6817   3.455   6.254  10.016  0.7345  0.6690  0.5460
   59CHL1   H1B 6818   3.517   6.390  10.110  0.3849 -0.9144 -0.4042
   59CHL1    C2 6819   3.414   6.255  10.234  0.6842  0.6702 -0.5909
   59CHL1   H2A 6820   3.507   6.203  10.266 -0.5091 -0.2207  1.6249
   59CHL1   H2B 6821   3.335   6.178  10.215  0.3904  0.7911  0.1376
   59CHL1   C20 6822   3.185   6.640   9.400 -1.0194 -0.3915 -1.0756
   59CHL1   H20 6823   3.080   6.604   9.408 -1.4328  1.2721  3.9227
   59CHL1   C21 6824   3.261   6.516   9.345 -0.3350  0.6355  0.6748
   59CHL1  H21A 6825   3.370   6.526   9.363 -0.6294  1.1906  2.3152
   59CHL1  H21B 6826   3.234   6.493   9.240 -0.1943  1.3848  0.4665
   59CHL1  H21C 6827   3.233   6.423   9.398  1.4387 -0.9814 -1.0821
   59CHL1   C22 6828   3.186   6.761   9.298 -0.7041 -0.2272  0.2457
   59CHL1  H22A 6829   3.132   6.721   9.210 -1.9286  2.2320 -0.1995
   59CHL1  H22B 6830   3.125   6.849   9.327 -1.0119 -0.2546 -0.3038
   59CHL1   C23 6831   3.327   6.823   9.260  0.0738 -0.2742  0.3535
   59CHL1  H23A 6832   3.399   6.837   9.343  0.8188  2.0755 -0.5971
   59CHL1  H23B 6833   3.383   6.749   9.200 -0.3250 -2.5226  2.5851
   59CHL1   C24 6834   3.310   6.953   9.172  0.5720 -0.2439  0.5986
   59CHL1  H24A 6835   3.238   7.023   9.220  0.3338 -0.5138  0.6359
   59CHL1  H24B 6836   3.408   7.005   9.161 -0.1918  0.9793 -0.8215
   59CHL1   C25 6837   3.258   6.930   9.025 -0.2180 -0.0491 -0.7502
   59CHL1   H25 6838   3.159   6.879   9.030  0.6291 -2.2018 -3.4565
   59CHL1   C26 6839   3.233   7.063   8.944  0.0977  0.3690 -0.3249
   59CHL1  H26A 6840   3.316   7.135   8.962 -0.0781  0.0229  2.1872
   59CHL1  H26B 6841   3.212   7.052   8.835 -1.2475  0.8854 -0.1340
   59CHL1  H26C 6842   3.138   7.106   8.980  0.5085 -0.0499  1.3311
   59CHL1   C27 6843   3.352   6.832   8.954 -0.0007  0.0525  0.3431
   59CHL1  H27A 6844   3.459   6.863   8.957 -0.1800  0.5879  1.9409
   59CHL1  H27B 6845   3.341   6.735   9.005  1.9677  0.7948  2.3128
   59CHL1  H27C 6846   3.322   6.819   8.848 -0.5734 -0.9333  0.6158
   60CHL1    C3 6847   0.245   5.167  10.281  0.1617 -0.8287  0.5172
   60CHL1    H3 6848   0.186   5.261  10.291  0.5319 -0.6102  0.6341
   60CHL1    O3 6849   0.222   5.074  10.385 -0.0442 -0.3586 -0.7534
   60CHL1   H3' 6850   0.275   5.108  10.458 -0.0502 -1.1512 -0.3695
   60CHL1    C4 6851   0.184   5.102  10.156  0.2257  0.2691  0.1413
   60CHL1   H4A 6852   0.210   4.994  10.146  0.5636  0.1896  1.6341
   60CHL1   H4B 6853   0.074   5.116  10.160  0.3665  2.3378 -1.5030
   60CHL1    C5 6854   0.218   5.173  10.025  0.3405 -0.1359 -0.3004
   60CHL1    C6 6855   0.122   5.226   9.947 -0.5762 -0.7541 -0.9166
   60CHL1    H6 6856   0.018   5.204   9.976 -0.8831 -1.7458 -2.6498
   60CHL1    C7 6857   0.142   5.300   9.820  0.2881 -0.4896  0.3032
   60CHL1   H7A 6858   0.076   5.247   9.748 -1.6030  0.7944  0.9945
   60CHL1   H7B 6859   0.115   5.406   9.837  0.7422 -0.1125 -1.1834
   60CHL1    C8 6860   0.288   5.286   9.761 -0.1926  0.1915  0.0297
   60CHL1    H8 6861   0.295   5.184   9.718  0.9911  0.0343  0.5619
   60CHL1   C14 6862   0.311   5.382   9.649  0.9559 -0.3995  0.3858
   60CHL1   H14 6863   0.290   5.479   9.700  0.6403 -1.4283  2.3389
   60CHL1   C15 6864   0.213   5.384   9.533  0.1715  0.7459 -0.2346
   60CHL1  H15A 6865   0.185   5.278   9.512 -0.1330  0.4362  1.6230
   60CHL1  H15B 6866   0.122   5.434   9.570  1.4086  2.6332  0.3596
   60CHL1   C16 6867   0.289   5.460   9.423  0.4473 -0.6012  0.0302
   60CHL1  H16A 6868   0.315   5.400   9.333  2.9954  2.5134 -1.5255
   60CHL1  H16B 6869   0.246   5.560   9.402 -0.3971 -1.0719 -0.5282
   60CHL1   C17 6870   0.434   5.493   9.475  0.0123 -0.0384  0.1896
   60CHL1   H17 6871   0.429   5.587   9.535 -0.0479  1.3156 -1.8625
   60CHL1   C13 6872   0.453   5.385   9.593  0.0448 -0.1020 -0.3197
   60CHL1   C18 6873   0.486   5.248   9.529 -0.8580  0.7875 -0.1896
   60CHL1  H18A 6874   0.479   5.162   9.598  3.7011  0.7349  0.5087
   60CHL1  H18B 6875   0.431   5.224   9.435 -0.2492 -1.2168 -0.0748
   60CHL1  H18C 6876   0.594   5.248   9.504 -0.9321 -2.6230 -1.0262
   60CHL1   C12 6877   0.549   5.422   9.707 -0.7375 -0.1778  0.2098
   60CHL1  H12A 6878   0.654   5.412   9.671 -0.2256  1.5778  1.1159
   60CHL1  H12B 6879   0.535   5.525   9.746 -0.2981 -0.2940  0.6775
   60CHL1   C11 6880   0.532   5.331   9.833 -0.3953  0.3106  0.2058
   60CHL1  H11A 6881   0.587   5.238   9.808 -1.5404 -0.7899  1.5999
   60CHL1  H11B 6882   0.602   5.375   9.907 -0.5315  0.9646 -0.0435
   60CHL1    C9 6883   0.387   5.305   9.876  0.4536 -0.1570 -0.3817
   60CHL1    H9 6884   0.350   5.395   9.930  0.4755 -0.0624 -0.5271
   60CHL1   C10 6885   0.365   5.202   9.996  0.1713 -0.0733  0.1474
   60CHL1   C19 6886   0.430   5.065   9.952 -0.3014 -0.5919 -0.3202
   60CHL1  H19A 6887   0.537   5.082   9.928 -0.3809  0.5388  0.0570
   60CHL1  H19B 6888   0.429   4.991  10.035 -1.1279 -2.0244 -1.5658
   60CHL1  H19C 6889   0.381   5.014   9.867  0.6573 -2.4919  0.2225
   60CHL1    C1 6890   0.433   5.259  10.123  0.6486 -0.1635  0.1524
   60CHL1   H1A 6891   0.543   5.273  10.118  0.6039  0.3942  0.5939
   60CHL1   H1B 6892   0.393   5.361  10.142 -0.8396 -0.7571  0.3584
   60CHL1    C2 6893   0.393   5.189  10.260  0.0058  0.1077  0.2904
   60CHL1   H2A 6894   0.440   5.253  10.338  1.0489  0.1300 -0.3495
   60CHL1   H2B 6895   0.444   5.091  10.263  0.0017  0.0524 -0.9643
   60CHL1   C20 6896   0.544   5.514   9.372 -0.6285  0.0990 -0.6716
   60CHL1   H20 6897   0.544   5.421   9.311 -1.0117 -1.3741  1.4564
   60CHL1   C21 6898   0.677   5.543   9.429 -0.4024  0.3589 -0.2447
   60CHL1  H21A 6899   0.740   5.578   9.345 -1.0895 -0.7530 -1.2655
   60CHL1  H21B 6900   0.722   5.456   9.483  0.4248  0.2997 -1.0056
   60CHL1  H21C 6901   0.661   5.627   9.500 -0.7536  1.8463 -2.0009
   60CHL1   C22 6902   0.507   5.637   9.274 -0.7415  0.2851 -0.4353
   60CHL1  H22A 6903   0.499   5.723   9.343  1.3113 -0.2931  0.6191
   60CHL1  H22B 6904   0.599   5.651   9.213  0.6264  1.2517  1.7415
   60CHL1   C23 6905   0.398   5.611   9.171 -0.1153 -0.3527  0.9398
   60CHL1  H23A 6906   0.420   5.511   9.129  0.6692  0.2198 -0.0571
   60CHL1  H23B 6907   0.297   5.608   9.216  0.2312 -0.6471  1.7172
   60CHL1   C24 6908   0.386   5.717   9.057 -0.5147  0.5985  0.1570
   60CHL1  H24A 6909   0.330   5.808   9.089 -1.4445  0.7125 -1.6480
   60CHL1  H24B 6910   0.492   5.735   9.029 -0.5389 -2.0992 -2.1215
   60CHL1   C25 6911   0.308   5.665   8.931  0.3795 -0.4789 -0.5243
   60CHL1   H25 6912   0.344   5.564   8.902 -0.4833 -1.4569  1.5727
   60CHL1   C26 6913   0.155   5.663   8.948  0.0134 -0.2737  0.0812
   60CHL1  H26A 6914   0.133   5.571   9.007 -0.8005 -1.8332 -2.5116
   60CHL1  H26B 6915   0.108   5.759   8.978  0.1861 -0.2308  0.2186
   60CHL1  H26C 6916   0.118   5.637   8.847  2.6020  0.8506 -1.2655
   60CHL1   C27 6917   0.337   5.758   8.807 -0.2135 -0.1864  0.3018
   60CHL1  H27A 6918   0.444   5.756   8.776 -0.6632 -0.3016 -1.3311
   60CHL1  H27B 6919   0.275   5.720   8.723 -1.6785  0.0543  1.2357
   60CHL1  H27C 6920   0.303   5.862   8.824 -0.4247 -0.0646 -0.8236
   61CHL1    C3 6921   5.180   0.354  10.451  0.3753  0.8998  0.2608
   61CHL1    H3 6922   5.069   0.351  10.460 -0.0421  1.1905 -3.4527
   61CHL1    O3 6923   5.246   0.342  10.578  0.0973  0.6168 -0.9574
   61CHL1   H3' 6924   5.323   0.399  10.585 -0.5321  1.3019  1.2335
   61CHL1    C4 6925   5.225   0.234  10.359  0.4556 -0.3032  0.5661
   61CHL1   H4A 6926   5.336   0.241  10.358  0.3543  2.9245 -0.8458
   61CHL1   H4B 6927   5.191   0.137  10.401 -0.6968 -0.9536 -1.7022
   61CHL1    C5 6928   5.169   0.254  10.215  0.5714 -0.0097  0.4544
   61CHL1    C6 6929   5.091   0.156  10.162  0.8068 -0.3836  0.5807
   61CHL1    H6 6930   5.060   0.069  10.222 -1.4713  1.1733  1.8260
   61CHL1    C7 6931   5.036   0.162  10.016  0.2411  0.3030  0.1794
   61CHL1   H7A 6932   5.047   0.066   9.961  1.0996  0.8442 -0.6292
   61CHL1   H7B 6933   4.927   0.183  10.021  0.0203 -0.9116  2.7257
   61CHL1    C8 6934   5.112   0.265   9.928 -0.3492 -0.2812 -0.1621
   61CHL1    H8 6935   5.210   0.219   9.902 -0.4748 -1.2396  0.9940
   61CHL1   C14 6936   5.043   0.292   9.795  0.0489 -0.2235 -0.2355
   61CHL1   H14 6937   4.945   0.332   9.828 -2.1714 -3.6160 -2.1834
   61CHL1   C15 6938   5.017   0.175   9.702 -0.2406  0.1114 -0.2305
   61CHL1  H15A 6939   5.113   0.124   9.679 -0.3556 -0.4912  0.5798
   61CHL1  H15B 6940   4.947   0.100   9.746  0.1744  0.9693  2.0500
   61CHL1   C16 6941   4.971   0.239   9.566 -0.0499  0.2720 -0.3107
   61CHL1  H16A 6942   5.030   0.189   9.486  0.7349  0.8139 -0.0815
   61CHL1  H16B 6943   4.863   0.236   9.538  0.3177  1.0402 -1.8844
   61CHL1   C17 6944   5.005   0.386   9.580 -0.5169 -0.3953 -0.7282
   61CHL1   H17 6945   4.913   0.435   9.619 -1.8733 -1.9423 -1.8092
   61CHL1   C13 6946   5.104   0.399   9.701  0.2605  0.6209  0.6944
   61CHL1   C18 6947   5.248   0.358   9.660  0.5877 -0.0892 -0.1635
   61CHL1  H18A 6948   5.303   0.326   9.751 -2.1168 -2.3294  0.8114
   61CHL1  H18B 6949   5.252   0.275   9.586  4.6809  0.1009 -0.3886
   61CHL1  H18C 6950   5.301   0.451   9.630 -1.8744  0.8819 -1.8132
   61CHL1   C12 6951   5.107   0.532   9.778 -0.1573  0.1474 -0.7754
   61CHL1  H12A 6952   5.146   0.613   9.713  2.1198 -0.0697  0.2162
   61CHL1  H12B 6953   5.002   0.563   9.800 -0.0554  0.9940 -1.4474
   61CHL1   C11 6954   5.182   0.518   9.916  0.2641 -0.1411 -0.1220
   61CHL1  H11A 6955   5.289   0.512   9.885 -1.0076 -2.7517 -5.1161
   61CHL1  H11B 6956   5.172   0.615   9.968 -1.0035 -0.4280  0.2071
   61CHL1    C9 6957   5.131   0.396  10.003  0.4503 -0.5773 -0.1458
   61CHL1    H9 6958   5.025   0.415  10.031  0.3902  0.6094 -1.1150
   61CHL1   C10 6959   5.200   0.384  10.141 -0.9082 -0.1294  0.8815
   61CHL1   C19 6960   5.349   0.407  10.115  0.1585 -0.0478 -0.1197
   61CHL1  H19A 6961   5.372   0.505  10.068 -1.7273 -0.7986 -2.8742
   61CHL1  H19B 6962   5.405   0.408  10.211 -0.8789  0.2568  0.5002
   61CHL1  H19C 6963   5.389   0.333  10.043 -1.8567 -0.0206 -1.3370
   61CHL1    C1 6964   5.154   0.493  10.234 -0.3153 -0.6056 -0.5189
   61CHL1   H1A 6965   5.174   0.597  10.198  1.8184 -0.2479  1.4230
   61CHL1   H1B 6966   5.044   0.497  10.250 -0.0658  2.8186  1.5585
   61CHL1    C2 6967   5.212   0.483  10.377  0.3277 -0.0186  0.3221
   61CHL1   H2A 6968   5.171   0.572  10.431  1.8552  1.8956 -1.5166
   61CHL1   H2B 6969   5.323   0.496  10.382  0.3725 -0.2221 -0.1582
   61CHL1   C20 6970   5.031   0.461   9.451 -0.1010 -0.1627 -0.5518
   61CHL1   H20 6971   5.072   0.558   9.485  1.8187 -0.5127 -1.7635
   61CHL1   C21 6972   4.891   0.484   9.385 -0.6816  0.7106  0.3926
   61CHL1  H21A 6973   4.814   0.510   9.461 -0.6033  0.1581  0.6678
   61CHL1  H21B 6974   4.867   0.381   9.351 -1.3988  0.3229  1.9861
   61CHL1  H21C 6975   4.899   0.552   9.298  1.6289 -0.9591 -0.8206
   61CHL1   C22 6976   5.130   0.400   9.343  0.4755 -0.0165 -0.6429
   61CHL1  H22A 6977   5.225   0.378   9.396 -0.2392 -3.6047 -0.6652
   61CHL1  H22B 6978   5.085   0.303   9.313 -2.8358  0.7756  1.2840
   61CHL1   C23 6979   5.160   0.499   9.225 -0.2281 -0.1311 -0.3623
   61CHL1  H23A 6980   5.073   0.542   9.170 -1.7522 -0.9678  1.3210
   61CHL1  H23B 6981   5.213   0.585   9.271  0.3464  0.2859 -1.7601
   61CHL1   C24 6982   5.262   0.434   9.122 -0.4869  0.2170 -0.5607
   61CHL1  H24A 6983   5.331   0.360   9.166  1.0481  0.9110 -1.7159
   61CHL1  H24B 6984   5.203   0.386   9.041 -1.4942  2.3257 -1.1599
   61CHL1   C25 6985   5.354   0.539   9.046  0.5393  0.1641  0.0122
   61CHL1   H25 6986   5.419   0.593   9.118  0.9990  0.4582 -0.6117
   61CHL1   C26 6987   5.449   0.461   8.953  0.0485  0.6048  0.2673
   61CHL1  H26A 6988   5.534   0.520   8.915  1.8154 -1.2644  1.1202
   61CHL1  H26B 6989   5.501   0.388   9.019 -0.7695  1.4533  1.9421
   61CHL1  H26C 6990   5.391   0.407   8.875  0.7469  0.1364  0.0672
   61CHL1   C27 6991   5.270   0.652   8.985  0.0184 -0.0099 -0.1265
   61CHL1  H27A 6992   5.224   0.702   9.073 -1.7352 -2.8834  0.7086
   61CHL1  H27B 6993   5.325   0.732   8.930 -0.5559  1.1440  0.9185
   61CHL1  H27C 6994   5.188   0.613   8.922 -0.6723 -0.7731  1.2015
   62CHL1    C3 6995   6.770   3.493  10.241 -0.1145 -0.6770  0.6960
   62CHL1    H3 6996   6.722   3.404  10.197  1.0308 -1.6366  1.3346
   62CHL1    O3 6997   6.781   3.479  10.381  0.2526  0.4570 -0.0606
   62CHL1   H3' 6998   6.824   3.394  10.396  0.3704  0.7766  1.6022
   62CHL1    C4 6999   6.901   3.533  10.166 -0.2211  0.0498  0.2267
   62CHL1   H4A 7000   6.932   3.634  10.200  1.1839 -0.2897  0.0400
   62CHL1   H4B 7001   6.990   3.471  10.191  1.3578  2.9816  2.5197
   62CHL1    C5 7002   6.875   3.543  10.020 -0.2030 -0.5886  0.3645
   62CHL1    C6 7003   6.948   3.478   9.936  0.1830 -0.1488  0.1951
   62CHL1    H6 7004   7.030   3.412   9.966  2.3000  1.6741 -1.2460
   62CHL1    C7 7005   6.933   3.501   9.785 -0.0970  0.0836  0.3445
   62CHL1   H7A 7006   7.024   3.494   9.722  0.9164 -3.3485  1.9468
   62CHL1   H7B 7007   6.869   3.420   9.745 -1.5264  1.3375  0.0024
   62CHL1    C8 7008   6.837   3.622   9.748  0.1895 -0.0214  0.1466
   62CHL1    H8 7009   6.890   3.718   9.765 -0.9215  0.3511  1.8003
   62CHL1   C14 7010   6.795   3.605   9.599 -0.1910  0.0839  0.6840
   62CHL1   H14 7011   6.744   3.508   9.584  0.1461 -0.1707  1.1171
   62CHL1   C15 7012   6.910   3.585   9.496  0.4640 -0.8615 -0.5454
   62CHL1  H15A 7013   6.978   3.672   9.512  1.9186 -1.9022 -0.9604
   62CHL1  H15B 7014   6.967   3.490   9.499 -0.3078 -1.3170  0.5296
   62CHL1   C16 7015   6.847   3.620   9.357  0.0858  0.1323  0.6677
   62CHL1  H16A 7016   6.897   3.708   9.311  1.3770 -1.0698 -0.3040
   62CHL1  H16B 7017   6.862   3.526   9.300 -0.4330 -0.6347  1.7506
   62CHL1   C17 7018   6.695   3.664   9.398  0.1286  0.7832 -0.4316
   62CHL1   H17 7019   6.639   3.568   9.398 -0.5664  1.1788  0.5273
   62CHL1   C13 7020   6.701   3.712   9.542  0.1011 -0.7565 -1.1643
   62CHL1   C18 7021   6.774   3.847   9.543  0.0787  0.3157 -0.1028
   62CHL1  H18A 7022   6.718   3.924   9.486 -0.9443 -0.3865 -0.0560
   62CHL1  H18B 7023   6.784   3.879   9.650  1.7653  1.2781 -0.5124
   62CHL1  H18C 7024   6.874   3.843   9.496  1.9171 -1.3872  3.4754
   62CHL1   C12 7025   6.574   3.718   9.634  0.0236 -0.4923 -0.2294
   62CHL1  H12A 7026   6.508   3.795   9.590 -0.2548 -2.1347 -2.9495
   62CHL1  H12B 7027   6.522   3.620   9.632 -1.2391  0.0669  1.9510
   62CHL1   C11 7028   6.611   3.733   9.785  0.1882 -0.5053 -0.3117
   62CHL1  H11A 7029   6.651   3.836   9.787  0.1317 -0.3208 -3.5871
   62CHL1  H11B 7030   6.518   3.728   9.846 -0.1493 -2.7488 -0.9195
   62CHL1    C9 7031   6.717   3.628   9.832 -0.7296  0.7005 -0.0391
   62CHL1    H9 7032   6.670   3.528   9.827 -0.3698  0.5270  0.0153
   62CHL1   C10 7033   6.761   3.641   9.985  1.2177 -0.5884 -0.4061
   62CHL1   C19 7034   6.808   3.786  10.017  0.9021 -0.5532  0.0527
   62CHL1  H19A 7035   6.747   3.874   9.986  3.1428  1.1717  0.2651
   62CHL1  H19B 7036   6.815   3.799  10.127  1.0231 -0.5593  0.0468
   62CHL1  H19C 7037   6.905   3.804   9.965  0.6857 -1.6376 -0.7783
   62CHL1    C1 7038   6.633   3.618  10.075 -0.2168 -0.1997 -0.0194
   62CHL1   H1A 7039   6.551   3.693  10.074  1.1197  1.3268 -0.3360
   62CHL1   H1B 7040   6.595   3.525  10.028  3.0190 -1.6712 -0.0194
   62CHL1    C2 7041   6.670   3.609  10.220  0.0929  0.7239 -0.8437
   62CHL1   H2A 7042   6.579   3.578  10.277 -0.9324 -0.3484 -2.9444
   62CHL1   H2B 7043   6.710   3.699  10.271 -1.6539  0.5482  0.9653
   62CHL1   C20 7044   6.610   3.741   9.295 -0.3378  0.0431 -0.2776
   62CHL1   H20 7045   6.619   3.851   9.306 -3.1891  0.2461  1.2118
   62CHL1   C21 7046   6.454   3.706   9.308  0.1823  0.6393 -0.4210
   62CHL1  H21A 7047   6.418   3.719   9.413 -0.6944  0.3032 -0.6638
   62CHL1  H21B 7048   6.437   3.605   9.265 -1.3935 -0.3542  2.2529
   62CHL1  H21C 7049   6.388   3.773   9.249 -0.0910  1.3460  0.6435
   62CHL1   C22 7050   6.652   3.711   9.145 -0.0143 -0.4655 -0.0500
   62CHL1  H22A 7051   6.760   3.728   9.129 -0.0222  0.5116  0.8101
   62CHL1  H22B 7052   6.610   3.612   9.119 -1.1187  0.2856 -1.3081
   62CHL1   C23 7053   6.584   3.818   9.054  0.5172  0.6912  0.0571
   62CHL1  H23A 7054   6.473   3.828   9.059  0.4063 -0.5364  0.2109
   62CHL1  H23B 7055   6.606   3.920   9.093 -0.3487  1.2412 -0.8469
   62CHL1   C24 7056   6.616   3.817   8.909  0.8540  0.1313  0.4036
   62CHL1  H24A 7057   6.570   3.903   8.857 -0.2402  0.0488  1.1965
   62CHL1  H24B 7058   6.727   3.817   8.913  0.8554 -0.1844  0.4295
   62CHL1   C25 7059   6.570   3.685   8.833 -0.2505  0.4073 -0.3481
   62CHL1   H25 7060   6.611   3.607   8.900 -0.9419  1.8035  1.8208
   62CHL1   C26 7061   6.421   3.664   8.814 -0.3499 -0.7567 -0.4500
   62CHL1  H26A 7062   6.395   3.579   8.747 -1.0154 -0.4424 -0.5993
   62CHL1  H26B 7063   6.374   3.650   8.913  1.0582  0.7076  0.4813
   62CHL1  H26C 7064   6.368   3.750   8.768  0.2303  1.7894  3.2015
   62CHL1   C27 7065   6.642   3.673   8.694 -0.1791 -0.0554  0.4552
   62CHL1  H27A 7066   6.628   3.572   8.648  4.0013 -0.1279 -1.0400
   62CHL1  H27B 7067   6.610   3.739   8.611  0.4904 -0.7764 -0.4025
   62CHL1  H27C 7068   6.753   3.678   8.701 -0.0112 -1.0296 -1.0387
   63CHL1    C3 7069   1.737   3.454  10.358 -0.2150  0.1622 -0.5265
   63CHL1    H3 7070   1.827   3.392  10.375 -0.1191  0.1502 -1.0697
   63CHL1    O3 7071   1.674   3.485  10.479  0.4779  0.6427  0.0516
   63CHL1   H3' 7072   1.726   3.538  10.540 -1.1732  1.0013  1.2478
   63CHL1    C4 7073   1.772   3.587  10.294  0.0957  0.4361  0.4001
   63CHL1   H4A 7074   1.681   3.650  10.288 -1.8095 -2.1824 -0.0312
   63CHL1   H4B 7075   1.843   3.647  10.355  1.2093 -0.7474  0.3195
   63CHL1    C5 7076   1.818   3.572  10.149 -0.7579  0.8382 -0.1225
   63CHL1    C6 7077   1.933   3.634  10.104  0.3295  0.4955 -0.0377
   63CHL1    H6 7078   2.010   3.678  10.169  1.8151 -1.1193 -0.6203
   63CHL1    C7 7079   1.985   3.623   9.967  0.0143  0.3567  1.7751
   63CHL1   H7A 7080   2.006   3.727   9.934  1.1994 -0.0655  1.1319
   63CHL1   H7B 7081   2.080   3.566   9.977  0.6717  1.2662  0.8747
   63CHL1    C8 7082   1.898   3.547   9.860  0.2489  0.7543 -0.9366
   63CHL1    H8 7083   1.825   3.611   9.806 -0.5200 -0.8056 -1.8329
   63CHL1   C14 7084   1.985   3.478   9.754 -0.4023  0.5060 -0.2150
   63CHL1   H14 7085   2.046   3.409   9.816 -2.1825 -0.0505  0.9905
   63CHL1   C15 7086   2.085   3.563   9.675 -0.3489  0.2627 -0.2147
   63CHL1  H15A 7087   2.028   3.658   9.669 -0.7949  0.2577  2.6099
   63CHL1  H15B 7088   2.182   3.579   9.726  0.8029  0.1455 -2.3099
   63CHL1   C16 7089   2.098   3.484   9.540 -1.0212  0.2626  0.3345
   63CHL1  H16A 7090   2.068   3.549   9.455  2.1373  0.6205 -0.6438
   63CHL1  H16B 7091   2.206   3.468   9.521  0.0419  2.3933  3.7227
   63CHL1   C17 7092   2.013   3.356   9.550 -0.0288 -0.6000 -0.3715
   63CHL1   H17 7093   2.078   3.282   9.602 -3.1519 -3.0520  0.3873
   63CHL1   C13 7094   1.907   3.386   9.650 -0.7643 -0.1900 -0.7153
   63CHL1   C18 7095   1.795   3.471   9.578  0.1090 -0.4379 -0.3859
   63CHL1  H18A 7096   1.850   3.556   9.532 -1.1899  2.4012  2.8506
   63CHL1  H18B 7097   1.739   3.414   9.502 -1.0355  0.5988 -0.3503
   63CHL1  H18C 7098   1.722   3.515   9.649  1.1774  0.2306  0.3189
   63CHL1   C12 7099   1.836   3.278   9.723  0.3406 -0.4197 -0.1025
   63CHL1  H12A 7100   1.776   3.220   9.650  0.1411  0.6940 -0.8553
   63CHL1  H12B 7101   1.907   3.214   9.779 -0.6957 -1.4698  0.0400
   63CHL1   C11 7102   1.751   3.323   9.841  0.0188  0.6879 -0.8610
   63CHL1  H11A 7103   1.655   3.367   9.805 -0.6495 -0.7733 -0.9201
   63CHL1  H11B 7104   1.728   3.232   9.900  0.6400  0.2638 -1.2634
   63CHL1    C9 7105   1.822   3.430   9.931  0.3559 -0.0068 -0.2293
   63CHL1    H9 7106   1.913   3.387   9.977 -0.2081 -1.7755 -0.7146
   63CHL1   C10 7107   1.738   3.483  10.051  0.4290 -0.2859  0.8643
   63CHL1   C19 7108   1.618   3.569   9.989  0.3156 -0.8146  0.4998
   63CHL1  H19A 7109   1.660   3.664   9.950 -0.2404 -0.5654  0.4854
   63CHL1  H19B 7110   1.582   3.500   9.911  1.1423 -1.0063  0.2832
   63CHL1  H19C 7111   1.531   3.584  10.058 -0.8105  0.9322 -1.1924
   63CHL1    C1 7112   1.684   3.357  10.126  0.2400 -0.3273 -0.2973
   63CHL1   H1A 7113   1.606   3.309  10.063  0.6735  0.9696 -1.9066
   63CHL1   H1B 7114   1.771   3.288  10.131  0.3248 -0.3128 -1.2850
   63CHL1    C2 7115   1.628   3.386  10.268 -0.1800 -0.4487  0.2913
   63CHL1   H2A 7116   1.606   3.284  10.307  2.3913 -1.5641 -0.9519
   63CHL1   H2B 7117   1.536   3.447  10.277  1.3596  1.7413  2.6342
   63CHL1   C20 7118   1.975   3.296   9.408  0.0216 -0.4496 -0.0017
   63CHL1   H20 7119   1.918   3.375   9.354  0.0051  0.0344  0.7146
   63CHL1   C21 7120   1.894   3.169   9.427  1.1333  0.0314 -0.1447
   63CHL1  H21A 7121   1.891   3.097   9.343 -0.3694 -1.9525  1.5288
   63CHL1  H21B 7122   1.788   3.189   9.454  0.3991 -2.5804 -0.8587
   63CHL1  H21C 7123   1.931   3.114   9.516  0.5070  1.4618  1.0552
   63CHL1   C22 7124   2.102   3.276   9.310 -0.3397  0.5791  0.1901
   63CHL1  H22A 7125   2.169   3.365   9.311 -1.2791  1.4949 -3.4774
   63CHL1  H22B 7126   2.175   3.201   9.345  1.1132  0.9151 -1.9123
   63CHL1   C23 7127   2.065   3.238   9.169  0.7199 -0.3932  1.1842
   63CHL1  H23A 7128   2.152   3.246   9.099 -0.3178  1.4917  0.0453
   63CHL1  H23B 7129   2.038   3.130   9.167  2.6096 -0.9080  0.2345
   63CHL1   C24 7130   1.964   3.334   9.107 -0.2104  0.2624  0.3469
   63CHL1  H24A 7131   1.868   3.342   9.162 -1.5441 -0.1278 -1.8053
   63CHL1  H24B 7132   2.014   3.434   9.105  1.2163 -0.4284  0.3110
   63CHL1   C25 7133   1.912   3.323   8.957  0.1631 -0.5670 -0.0653
   63CHL1   H25 7134   1.999   3.326   8.888 -0.1995  1.2082 -0.5136
   63CHL1   C26 7135   1.855   3.187   8.926 -0.4627  0.1392  0.1779
   63CHL1  H26A 7136   1.781   3.194   8.844 -1.4603  2.4183  1.1729
   63CHL1  H26B 7137   1.939   3.122   8.895  0.9390  2.4292 -1.1382
   63CHL1  H26C 7138   1.796   3.151   9.013 -1.3680  1.7521  0.2738
   63CHL1   C27 7139   1.823   3.447   8.929 -0.0705  0.2342 -0.1007
   63CHL1  H27A 7140   1.730   3.445   8.990  0.5916 -2.9550  0.9952
   63CHL1  H27B 7141   1.881   3.539   8.955 -0.9938  0.8542 -0.1914
   63CHL1  H27C 7142   1.790   3.462   8.824  0.0175 -1.9523 -0.4819
   64CHL1    C3 7143   0.751   2.915  10.065 -0.0946 -0.0705  0.2966
   64CHL1    H3 7144   0.757   2.805  10.054  1.1177  0.0890 -0.9001
   64CHL1    O3 7145   0.706   2.941  10.198 -0.3123  0.0389  0.5984
   64CHL1   H3' 7146   0.719   3.035  10.215  0.9302  0.0716 -0.4069
   64CHL1    C4 7147   0.882   2.988  10.038  0.0489 -0.7806  0.5580
   64CHL1   H4A 7148   0.864   3.094  10.066 -0.7894 -0.8203  0.1880
   64CHL1   H4B 7149   0.961   2.952  10.107  0.7505 -3.2447 -1.3844
   64CHL1    C5 7150   0.920   2.970   9.891 -0.4513  0.2045 -0.1065
   64CHL1    C6 7151   1.030   2.906   9.859 -0.2352 -0.8092 -0.1534
   64CHL1    H6 7152   1.095   2.863   9.937  1.5640 -0.1799 -1.2436
   64CHL1    C7 7153   1.080   2.883   9.725  0.0227  0.2124  0.8896
   64CHL1   H7A 7154   1.187   2.913   9.718  0.2914 -0.9700 -0.8416
   64CHL1   H7B 7155   1.068   2.775   9.702 -0.1864  0.4595 -0.2347
   64CHL1    C8 7156   1.006   2.957   9.609 -0.2854 -0.3366  0.1395
   64CHL1    H8 7157   1.044   3.062   9.614 -0.7719 -0.1785  0.7377
   64CHL1   C14 7158   1.018   2.888   9.477 -0.3564 -0.3110 -0.2402
   64CHL1   H14 7159   0.979   2.784   9.486  0.4798 -0.6646 -0.5759
   64CHL1   C15 7160   1.168   2.878   9.427  0.1438  1.0342  0.7780
   64CHL1  H15A 7161   1.213   2.974   9.459  1.6549  0.4144  0.5845
   64CHL1  H15B 7162   1.211   2.797   9.489 -0.8381 -0.2024 -0.0913
   64CHL1   C16 7163   1.155   2.864   9.276  0.8266  0.2480 -0.1901
   64CHL1  H16A 7164   1.215   2.951   9.240  3.6651  0.8211  4.9248
   64CHL1  H16B 7165   1.207   2.773   9.241  0.1504 -0.1984 -0.0502
   64CHL1   C17 7166   0.999   2.869   9.243  1.0460 -0.2671  0.0659
   64CHL1   H17 7167   0.962   2.764   9.244  0.0245  0.0311 -2.2802
   64CHL1   C13 7168   0.945   2.944   9.362 -0.5379 -0.3977  0.6067
   64CHL1   C18 7169   0.982   3.094   9.350  0.6506  0.3283 -0.2068
   64CHL1  H18A 7170   1.075   3.115   9.293  1.0872 -0.4866  0.1815
   64CHL1  H18B 7171   0.908   3.139   9.281 -0.7370 -2.4115 -0.6165
   64CHL1  H18C 7172   0.981   3.144   9.449  1.2668 -1.5343  0.7947
   64CHL1   C12 7173   0.798   2.934   9.390  0.3653  0.0632 -0.1316
   64CHL1  H12A 7174   0.735   2.963   9.303 -0.4269 -1.5543 -0.1288
   64CHL1  H12B 7175   0.789   2.825   9.411 -0.9819 -0.0225 -1.0361
   64CHL1   C11 7176   0.765   2.997   9.523 -0.7221  0.0832 -0.0214
   64CHL1  H11A 7177   0.765   3.107   9.508 -1.3494 -0.0285 -0.9175
   64CHL1  H11B 7178   0.663   2.958   9.540  0.4463 -2.8910  0.8476
   64CHL1    C9 7179   0.855   2.955   9.638 -0.0717 -0.6653  0.5637
   64CHL1    H9 7180   0.842   2.845   9.641  1.4678 -0.8742  0.4738
   64CHL1   C10 7181   0.814   3.012   9.780  0.1576  0.3317  0.2459
   64CHL1   C19 7182   0.816   3.164   9.776  0.2149  0.4871 -0.5852
   64CHL1  H19A 7183   0.916   3.211   9.763  0.6687 -0.5446 -0.9735
   64CHL1  H19B 7184   0.766   3.190   9.680 -0.0836  0.5941 -0.4034
   64CHL1  H19C 7185   0.767   3.201   9.868  0.1460 -0.7624 -0.0937
   64CHL1    C1 7186   0.674   2.959   9.823 -0.6403  0.3821  0.5514
   64CHL1   H1A 7187   0.595   3.012   9.766 -0.0963  1.1613  0.5032
   64CHL1   H1B 7188   0.668   2.853   9.789  0.0254 -0.2210  2.2182
   64CHL1    C2 7189   0.636   2.972   9.975  0.0298 -1.2615 -0.0492
   64CHL1   H2A 7190   0.538   2.923   9.992  0.4499 -2.1944 -0.2497
   64CHL1   H2B 7191   0.622   3.079  10.001 -0.0387 -1.4542  0.7421
   64CHL1   C20 7192   0.974   2.924   9.102 -0.5881 -0.4807  0.9625
   64CHL1   H20 7193   0.999   3.032   9.099 -0.7488 -0.4588 -0.4647
   64CHL1   C21 7194   0.832   2.907   9.047  0.5588  0.5656  0.2485
   64CHL1  H21A 7195   0.754   2.974   9.089  0.7527  1.3418 -0.6025
   64CHL1  H21B 7196   0.791   2.805   9.066 -0.2056  1.0678  1.4117
   64CHL1  H21C 7197   0.833   2.920   8.937  0.1447 -0.0776  0.1593
   64CHL1   C22 7198   1.051   2.837   9.000 -0.2076 -0.9158  0.1807
   64CHL1  H22A 7199   1.136   2.778   9.041  0.9360 -0.2066 -1.0980
   64CHL1  H22B 7200   0.988   2.753   8.964 -0.7988 -0.7677  0.8435
   64CHL1   C23 7201   1.095   2.919   8.877 -0.3214 -0.9342  0.6495
   64CHL1  H23A 7202   1.014   2.956   8.812  0.3291 -0.3850  0.1353
   64CHL1  H23B 7203   1.162   3.004   8.901  0.1249 -0.4215 -2.1079
   64CHL1   C24 7204   1.168   2.823   8.778  0.2558  0.8085  0.2827
   64CHL1  H24A 7205   1.246   2.762   8.828  0.9819 -0.8172 -2.6022
   64CHL1  H24B 7206   1.080   2.760   8.752 -0.2959  1.4889  0.4872
   64CHL1   C25 7207   1.240   2.879   8.650  0.3075  0.1290 -0.3793
   64CHL1   H25 7208   1.303   2.966   8.676 -1.1190  1.6589 -1.7595
   64CHL1   C26 7209   1.325   2.769   8.579  0.1898 -0.2596 -0.4815
   64CHL1  H26A 7210   1.406   2.727   8.643  0.1125 -1.1174 -0.9354
   64CHL1  H26B 7211   1.264   2.680   8.554 -0.5586 -0.6806  2.4950
   64CHL1  H26C 7212   1.367   2.820   8.489  0.4715  0.9234  0.3013
   64CHL1   C27 7213   1.138   2.935   8.549  0.7176 -0.6199  0.0430
   64CHL1  H27A 7214   1.069   3.009   8.596 -1.6032 -2.2441 -0.6699
   64CHL1  H27B 7215   1.198   2.984   8.469  3.2836 -2.9980  0.3710
   64CHL1  H27C 7216   1.073   2.854   8.511 -0.5948  1.5735 -2.7377
   65CHL1    C3 7217   3.378   0.537  10.471 -0.1175  0.0529  0.0130
   65CHL1    H3 7218   3.345   0.447  10.416 -1.8918 -0.0324  1.1358
   65CHL1    O3 7219   3.394   0.500  10.610  0.0802 -0.0040  0.3222
   65CHL1   H3' 7220   3.408   0.583  10.657  0.3026 -0.1439  0.5035
   65CHL1    C4 7221   3.520   0.589  10.417 -0.3328  0.5798  0.0946
   65CHL1   H4A 7222   3.552   0.668  10.487 -1.9001  0.2345  1.2617
   65CHL1   H4B 7223   3.593   0.506  10.423  0.8651  1.7154  1.9268
   65CHL1    C5 7224   3.521   0.648  10.276 -0.2799 -0.5168 -0.0902
   65CHL1    C6 7225   3.596   0.601  10.169  0.2955  0.0957 -0.7386
   65CHL1    H6 7226   3.679   0.531  10.189 -0.8920 -0.4118  3.2756
   65CHL1    C7 7227   3.577   0.649  10.029  0.4042 -1.1170  0.1039
   65CHL1   H7A 7228   3.680   0.667   9.990  0.2555 -1.2629 -0.3526
   65CHL1   H7B 7229   3.507   0.576   9.985 -2.8895  0.0139  3.0150
   65CHL1    C8 7230   3.500   0.782  10.018 -0.5123 -0.0638  0.3654
   65CHL1    H8 7231   3.571   0.863  10.045  1.1715 -0.9206 -1.2492
   65CHL1   C14 7232   3.454   0.814   9.872 -0.1025  0.3017  0.4318
   65CHL1   H14 7233   3.387   0.726   9.855  0.0802 -0.2551  2.3638
   65CHL1   C15 7234   3.558   0.788   9.757 -0.5505  0.2111 -0.3381
   65CHL1  H15A 7235   3.653   0.842   9.775 -0.1896 -0.4134 -0.3273
   65CHL1  H15B 7236   3.579   0.681   9.735  0.2738  0.3704 -0.3506
   65CHL1   C16 7237   3.488   0.850   9.635  0.4085  0.0398 -0.2380
   65CHL1  H16A 7238   3.559   0.919   9.585  1.5934 -2.4832 -2.3432
   65CHL1  H16B 7239   3.477   0.771   9.557 -0.0744  0.0919 -0.2223
   65CHL1   C17 7240   3.359   0.921   9.690 -0.0985  0.0107  0.4949
   65CHL1   H17 7241   3.276   0.849   9.675 -1.7731  2.0464 -0.6634
   65CHL1   C13 7242   3.380   0.942   9.843 -0.3069 -0.1438  0.9428
   65CHL1   C18 7243   3.468   1.064   9.868  0.1433 -0.2120 -0.2830
   65CHL1  H18A 7244   3.513   1.060   9.970  1.0888  2.8618 -0.4563
   65CHL1  H18B 7245   3.558   1.086   9.807  1.9428  0.9900  2.5842
   65CHL1  H18C 7246   3.400   1.151   9.855  0.9794  0.3645 -0.9279
   65CHL1   C12 7247   3.257   0.934   9.929 -0.1201  0.2157  0.9193
   65CHL1  H12A 7248   3.192   1.023   9.921 -1.0531 -0.4113  1.3328
   65CHL1  H12B 7249   3.186   0.853   9.901  0.5459  0.1489 -0.7170
   65CHL1   C11 7250   3.293   0.911  10.080  0.3880  0.4486  0.7531
   65CHL1  H11A 7251   3.361   0.996  10.103  1.6149 -0.7924  1.9350
   65CHL1  H11B 7252   3.193   0.909  10.129  0.3262 -2.3979  0.6903
   65CHL1    C9 7253   3.369   0.783  10.104  0.4150 -0.1675 -0.0328
   65CHL1    H9 7254   3.321   0.693  10.061  4.6997 -2.2907 -0.9391
   65CHL1   C10 7255   3.399   0.742  10.253  0.5122 -0.2636  0.0503
   65CHL1   C19 7256   3.436   0.874  10.334 -0.5928  0.5521  0.3245
   65CHL1  H19A 7257   3.524   0.935  10.304 -0.4927 -0.7666 -2.3771
   65CHL1  H19B 7258   3.342   0.933  10.337 -1.9828 -1.5439  0.4032
   65CHL1  H19C 7259   3.461   0.834  10.434 -1.2984  2.4088  1.2867
   65CHL1    C1 7260   3.269   0.684  10.312 -0.4659  0.1734  0.0228
   65CHL1   H1A 7261   3.191   0.762  10.302  1.7551  2.8128  1.7844
   65CHL1   H1B 7262   3.248   0.597  10.246  2.5631  0.0858 -0.9717
   65CHL1    C2 7263   3.271   0.646  10.459 -0.4507 -0.2295 -0.5125
   65CHL1   H2A 7264   3.183   0.594  10.503  0.4943 -0.4678  1.1863
   65CHL1   H2B 7265   3.295   0.734  10.523  0.2686 -0.6829 -0.1546
   65CHL1   C20 7266   3.319   1.048   9.605 -0.2634 -0.0111 -0.2923
   65CHL1   H20 7267   3.361   1.139   9.653 -1.0837 -0.1660  0.7691
   65CHL1   C21 7268   3.163   1.071   9.605  0.3158 -0.0239  0.5244
   65CHL1  H21A 7269   3.102   1.012   9.676 -1.2928  0.9832  0.0209
   65CHL1  H21B 7270   3.122   1.063   9.502  2.8050 -2.0976 -0.4432
   65CHL1  H21C 7271   3.153   1.177   9.635 -0.3483 -0.3538  1.5124
   65CHL1   C22 7272   3.368   1.051   9.460 -0.3133  0.3033 -0.1088
   65CHL1  H22A 7273   3.334   1.149   9.420 -0.6619  0.1477 -0.1956
   65CHL1  H22B 7274   3.477   1.050   9.435 -0.2188  3.2353 -0.2308
   65CHL1   C23 7275   3.309   0.939   9.363  0.4051 -0.4113 -0.0900
   65CHL1  H23A 7276   3.379   0.854   9.374 -0.6742 -1.3405 -0.2333
   65CHL1  H23B 7277   3.208   0.908   9.396 -0.7800 -0.5639 -3.5252
   65CHL1   C24 7278   3.316   0.999   9.221  0.4377 -0.3516  0.1469
   65CHL1  H24A 7279   3.249   1.088   9.219  1.0583  0.1240 -1.5169
   65CHL1  H24B 7280   3.424   1.017   9.205  1.0226 -1.8533  2.0593
   65CHL1   C25 7281   3.253   0.913   9.110 -0.0626  1.2680 -0.6388
   65CHL1   H25 7282   3.317   0.824   9.095 -0.3070  1.4294 -2.9350
   65CHL1   C26 7283   3.117   0.844   9.151  0.9598  0.2908  0.9086
   65CHL1  H26A 7284   3.132   0.773   9.235  2.1093 -2.0650 -1.1478
   65CHL1  H26B 7285   3.040   0.923   9.166 -0.1092 -0.3822 -0.6749
   65CHL1  H26C 7286   3.097   0.775   9.066 -1.1065  0.8755  0.8622
   65CHL1   C27 7287   3.243   1.001   8.985 -0.1161 -0.8097 -0.5231
   65CHL1  H27A 7288   3.181   1.088   9.015 -0.2145 -1.1375  0.2461
   65CHL1  H27B 7289   3.345   1.024   8.949  0.5324 -1.7635  0.6249
   65CHL1  H27C 7290   3.202   0.941   8.901  1.8382 -0.8021 -1.5341
   66CHL1    C3 7291   6.253   1.224  10.431 -0.8487  0.3991  0.4231
   66CHL1    H3 7292   6.152   1.181  10.417 -0.3593 -0.6925  0.1172
   66CHL1    O3 7293   6.263   1.235  10.574  0.1752  0.1305  0.2144
   66CHL1   H3' 7294   6.351   1.272  10.589 -0.0702  0.6984  0.2685
   66CHL1    C4 7295   6.350   1.117  10.376  0.0729  0.0466 -0.4124
   66CHL1   H4A 7296   6.457   1.131  10.401  0.1345 -0.2281 -0.5197
   66CHL1   H4B 7297   6.323   1.022  10.428  2.5269 -1.1324 -1.1581
   66CHL1    C5 7298   6.336   1.104  10.226 -0.1794  0.4102 -0.0630
   66CHL1    C6 7299   6.290   0.996  10.164 -0.1877  0.3655  0.7719
   66CHL1    H6 7300   6.264   0.907  10.224 -0.8890  0.1661  0.1933
   66CHL1    C7 7301   6.274   0.987  10.016  0.1991  0.0352 -0.7005
   66CHL1   H7A 7302   6.312   0.887   9.986 -0.9824  0.4464 -3.9595
   66CHL1   H7B 7303   6.166   0.987   9.992  0.0085  0.0556  0.1359
   66CHL1    C8 7304   6.354   1.094   9.941  0.3263  0.1463  0.1938
   66CHL1    H8 7305   6.458   1.067   9.967  0.0710  1.4729  3.0615
   66CHL1   C14 7306   6.321   1.104   9.792  0.5550  0.5369 -0.2235
   66CHL1   H14 7307   6.218   1.146   9.790 -0.1741 -1.1452  0.2013
   66CHL1   C15 7308   6.324   0.968   9.714  0.0177  0.0807  0.3609
   66CHL1  H15A 7309   6.417   0.915   9.743  1.0976  1.3445 -0.6361
   66CHL1  H15B 7310   6.239   0.898   9.730 -0.1918  0.3834  0.5966
   66CHL1   C16 7311   6.342   1.009   9.569  0.5721 -0.1283  0.1395
   66CHL1  H16A 7312   6.428   0.948   9.534 -0.2356 -0.7336 -0.8640
   66CHL1  H16B 7313   6.249   0.989   9.511  0.6024 -0.8835  0.3429
   66CHL1   C17 7314   6.363   1.163   9.567  0.8399  0.2679  1.1769
   66CHL1   H17 7315   6.262   1.208   9.554  0.0439 -1.1433  2.1456
   66CHL1   C13 7316   6.404   1.198   9.709  0.3241  0.0247 -0.3380
   66CHL1   C18 7317   6.556   1.169   9.724 -0.1629 -0.3561  0.0084
   66CHL1  H18A 7318   6.584   1.068   9.687  0.1170 -0.7798  1.3358
   66CHL1  H18B 7319   6.621   1.248   9.681 -2.4824  1.2347 -0.7679
   66CHL1  H18C 7320   6.579   1.171   9.832 -3.4362  0.6043  0.8094
   66CHL1   C12 7321   6.374   1.339   9.761 -0.2891  0.1167  0.8283
   66CHL1  H12A 7322   6.437   1.416   9.711 -0.5830  0.0101  0.2949
   66CHL1  H12B 7323   6.267   1.359   9.743 -0.7242 -3.0990 -0.7595
   66CHL1   C11 7324   6.384   1.344   9.910 -0.1344  0.2064 -0.4729
   66CHL1  H11A 7325   6.495   1.353   9.920 -0.1492  0.2924 -0.3883
   66CHL1  H11B 7326   6.350   1.445   9.940  2.3798  1.7010 -2.2525
   66CHL1    C9 7327   6.318   1.230   9.999  0.2471  0.3154  0.2314
   66CHL1    H9 7328   6.210   1.253   9.987  0.6805  2.0618 -0.5767
   66CHL1   C10 7329   6.353   1.229  10.148 -0.3182 -0.3789  0.6195
   66CHL1   C19 7330   6.507   1.274  10.152 -0.7152 -0.6172 -0.7009
   66CHL1  H19A 7331   6.550   1.272  10.255 -0.9653  0.6839 -0.5507
   66CHL1  H19B 7332   6.577   1.220  10.085  0.9495  2.2011 -1.4402
   66CHL1  H19C 7333   6.522   1.382  10.127  1.0019 -0.6098  0.1677
   66CHL1    C1 7334   6.268   1.344  10.207 -0.2560  0.2765 -0.4039
   66CHL1   H1A 7335   6.307   1.439  10.164 -1.0380  0.5681 -0.4868
   66CHL1   H1B 7336   6.163   1.340  10.173  0.1554 -1.0299 -1.5596
   66CHL1    C2 7337   6.270   1.361  10.360  0.1812 -0.8332 -0.3092
   66CHL1   H2A 7338   6.198   1.438  10.393  0.8801 -0.5936  0.7007
   66CHL1   H2B 7339   6.373   1.392  10.387 -0.4214  0.1520  0.9220
   66CHL1   C20 7340   6.441   1.214   9.448  0.9875 -0.0994  0.3361
   66CHL1   H20 7341   6.546   1.179   9.458  0.9982  0.2449  1.6287
   66CHL1   C21 7342   6.433   1.370   9.442 -1.3336 -0.5903 -0.6568
   66CHL1  H21A 7343   6.455   1.424   9.348  1.0922  2.8631  1.6115
   66CHL1  H21B 7344   6.507   1.406   9.517 -2.3383 -2.7336  1.4828
   66CHL1  H21C 7345   6.331   1.403   9.471 -1.3651 -0.3343 -1.0534
   66CHL1   C22 7346   6.395   1.154   9.310  0.0836  0.1849 -0.6353
   66CHL1  H22A 7347   6.368   1.047   9.314  0.1120  0.1905 -0.2662
   66CHL1  H22B 7348   6.301   1.208   9.287 -0.3348 -0.7528 -1.1747
   66CHL1   C23 7349   6.498   1.174   9.196  0.3049 -0.7605 -0.3375
   66CHL1  H23A 7350   6.518   1.283   9.185 -0.5512 -0.7815 -2.7706
   66CHL1  H23B 7351   6.593   1.125   9.223  0.9493 -0.8472 -2.5640
   66CHL1   C24 7352   6.452   1.139   9.054  0.7898 -0.5266 -0.0116
   66CHL1  H24A 7353   6.427   1.032   9.041 -3.7265  0.2651  0.5047
   66CHL1  H24B 7354   6.349   1.182   9.047  1.7272  1.8755 -0.1156
   66CHL1   C25 7355   6.525   1.189   8.932 -0.1889 -0.1023 -0.2633
   66CHL1   H25 7356   6.545   1.297   8.947  0.3772 -0.1194 -0.8378
   66CHL1   C26 7357   6.663   1.115   8.927  0.8010  0.2918  0.3063
   66CHL1  H26A 7358   6.699   1.088   9.029 -0.0741  1.5373  0.9805
   66CHL1  H26B 7359   6.648   1.012   8.890  1.0936  0.9626 -1.7858
   66CHL1  H26C 7360   6.721   1.170   8.850  0.3689 -0.4869 -0.5831
   66CHL1   C27 7361   6.453   1.184   8.801  0.7660  0.3662 -0.3590
   66CHL1  H27A 7362   6.372   1.259   8.815  1.1370  0.4808  1.4436
   66CHL1  H27B 7363   6.508   1.222   8.713 -0.1860 -0.5402 -1.3833
   66CHL1  H27C 7364   6.403   1.088   8.775 -0.3451  1.1418 -1.1663
   67CHL1    C3 7365   5.833   0.678  10.550 -0.7167 -0.0673 -0.1373
   67CHL1    H3 7366   5.941   0.664  10.573 -0.4026 -0.3702 -1.6871
   67CHL1    O3 7367   5.781   0.745  10.660  0.4227  0.3058 -0.4038
   67CHL1   H3' 7368   5.698   0.782  10.630 -0.3387 -0.8635  0.1796
   67CHL1    C4 7369   5.841   0.772  10.427  0.4556 -0.6794  0.5054
   67CHL1   H4A 7370   5.746   0.829  10.422  1.0397  0.2274 -0.6628
   67CHL1   H4B 7371   5.914   0.853  10.447  0.8976 -0.5594 -1.4319
   67CHL1    C5 7372   5.865   0.715  10.292 -0.5313 -0.4949 -0.6341
   67CHL1    C6 7373   5.950   0.769  10.206  0.0520 -0.5226 -0.1040
   67CHL1    H6 7374   5.996   0.865  10.230 -0.4177  0.1328 -1.6564
   67CHL1    C7 7375   5.969   0.723  10.066  0.4274 -0.0227 -0.5360
   67CHL1   H7A 7376   5.935   0.809  10.004  0.6535  0.1108 -0.4754
   67CHL1   H7B 7377   6.077   0.707  10.044  0.6344  0.1903  0.2904
   67CHL1    C8 7378   5.866   0.621  10.021 -0.8243  0.3023  0.3781
   67CHL1    H8 7379   5.766   0.665  10.003 -0.3750  0.6065 -1.5731
   67CHL1   C14 7380   5.923   0.562   9.898  0.2183 -0.2348 -0.3675
   67CHL1   H14 7381   6.018   0.512   9.927 -0.3836 -2.0118 -1.2867
   67CHL1   C15 7382   5.961   0.652   9.779  0.4686  0.1845  0.3574
   67CHL1  H15A 7383   5.881   0.725   9.757  1.4910  0.3131 -3.7397
   67CHL1  H15B 7384   6.060   0.696   9.803  0.0077  0.7887  1.1997
   67CHL1   C16 7385   5.976   0.553   9.665 -0.7547  0.4802 -0.6063
   67CHL1  H16A 7386   5.899   0.574   9.588 -1.5714 -1.2335 -0.3036
   67CHL1  H16B 7387   6.069   0.572   9.607 -0.6561  3.3057  0.3437
   67CHL1   C17 7388   5.931   0.408   9.715 -0.4931 -0.2840 -0.8232
   67CHL1   H17 7389   6.023   0.364   9.760  0.3532  1.1604 -1.0517
   67CHL1   C13 7390   5.845   0.447   9.839  0.6187 -0.4264 -0.4149
   67CHL1   C18 7391   5.707   0.498   9.785  0.2044 -0.3120 -0.2400
   67CHL1  H18A 7392   5.635   0.535   9.862  3.0535  1.1027  1.9737
   67CHL1  H18B 7393   5.711   0.556   9.690 -3.0811 -2.0286 -1.5846
   67CHL1  H18C 7394   5.664   0.410   9.732  1.3603 -0.1990 -1.4049
   67CHL1   C12 7395   5.819   0.343   9.947 -0.1984 -0.4279  0.4942
   67CHL1  H12A 7396   5.739   0.272   9.915 -0.5840 -1.5220  3.5339
   67CHL1  H12B 7397   5.914   0.289   9.965 -1.2545 -1.9233  1.8342
   67CHL1   C11 7398   5.756   0.404  10.075  0.1732  0.4373 -0.4817
   67CHL1  H11A 7399   5.658   0.446  10.042 -0.7954 -0.8923  0.5796
   67CHL1  H11B 7400   5.739   0.330  10.156 -0.4808  1.4147  0.2927
   67CHL1    C9 7401   5.840   0.527  10.128 -0.8225  0.7969  0.0268
   67CHL1    H9 7402   5.939   0.484  10.150  0.9551  5.1018  1.4402
   67CHL1   C10 7403   5.789   0.594  10.257  0.3094 -0.1007  0.0216
   67CHL1   C19 7404   5.636   0.639  10.238 -0.2103  0.0203 -0.3800
   67CHL1  H19A 7405   5.623   0.738  10.190  1.0372  0.7572  0.7196
   67CHL1  H19B 7406   5.563   0.570  10.190 -0.7195 -0.5680  1.1760
   67CHL1  H19C 7407   5.602   0.660  10.341  0.0309 -0.6129 -0.1631
   67CHL1    C1 7408   5.798   0.496  10.380  0.5071  0.3045  0.0955
   67CHL1   H1A 7409   5.724   0.416  10.359 -1.8322  2.0755  1.1127
   67CHL1   H1B 7410   5.899   0.450  10.374  1.3389  2.0715 -0.0596
   67CHL1    C2 7411   5.754   0.551  10.518 -0.0966  0.0644  0.6400
   67CHL1   H2A 7412   5.787   0.466  10.582  1.9961 -0.1840 -0.6903
   67CHL1   H2B 7413   5.645   0.571  10.525  0.0719  1.7786 -0.8935
   67CHL1   C20 7414   5.884   0.318   9.597  0.7677 -0.1567  0.3977
   67CHL1   H20 7415   5.806   0.376   9.544  1.9353  1.9806  0.9177
   67CHL1   C21 7416   5.838   0.184   9.651  0.1290 -0.4140 -0.3023
   67CHL1  H21A 7417   5.786   0.130   9.570  0.4821  1.6947 -2.0397
   67CHL1  H21B 7418   5.765   0.208   9.731  1.2014  0.7072  0.3826
   67CHL1  H21C 7419   5.921   0.132   9.704  0.6386  0.7657  0.1123
   67CHL1   C22 7420   5.993   0.312   9.482 -0.0600 -1.0760 -0.3751
   67CHL1  H22A 7421   6.019   0.414   9.445 -1.2206 -1.1048 -1.3110
   67CHL1  H22B 7422   6.084   0.263   9.523  0.1285 -0.8287 -0.4898
   67CHL1   C23 7423   5.950   0.237   9.360 -0.1334  0.1655 -0.6654
   67CHL1  H23A 7424   5.935   0.130   9.387 -2.1373 -0.1092 -2.5657
   67CHL1  H23B 7425   5.846   0.273   9.345 -0.0660  1.7926  2.1108
   67CHL1   C24 7426   6.052   0.251   9.247 -0.1372  0.1402 -0.0197
   67CHL1  H24A 7427   6.081   0.358   9.237 -0.9746  0.5904  1.9297
   67CHL1  H24B 7428   6.141   0.197   9.284 -0.8857 -0.9131  0.2988
   67CHL1   C25 7429   6.014   0.199   9.109 -0.0420  0.3974 -0.3036
   67CHL1   H25 7430   5.918   0.248   9.080  0.4447  3.5907  2.6786
   67CHL1   C26 7431   6.126   0.235   9.007  0.1870 -0.1014  0.5836
   67CHL1  H26A 7432   6.108   0.339   8.971 -1.3237 -0.7693 -0.6774
   67CHL1  H26B 7433   6.229   0.222   9.048  0.2946 -0.7371  0.1373
   67CHL1  H26C 7434   6.114   0.174   8.915 -2.4191 -0.7728  1.3054
   67CHL1   C27 7435   6.000   0.049   9.108  0.2842  0.2162  0.4261
   67CHL1  H27A 7436   6.098   0.009   9.141  1.3487  0.4702 -2.1657
   67CHL1  H27B 7437   5.915   0.012   9.169  1.3947 -0.3345  1.6823
   67CHL1  H27C 7438   5.978   0.010   9.006 -0.5672  0.3069  0.5695
   68CHL1    C3 7439   3.997   0.356  10.261 -0.3326  0.2619  0.6141
   68CHL1    H3 7440   3.954   0.458  10.263 -0.9024  0.0454 -0.0321
   68CHL1    O3 7441   3.978   0.291  10.390  0.2776 -0.3308 -0.3962
   68CHL1   H3' 7442   3.885   0.272  10.408  0.7715 -0.1089  3.2377
   68CHL1    C4 7443   3.932   0.267  10.156  0.0113 -0.0035 -0.0754
   68CHL1   H4A 7444   3.965   0.161  10.161 -1.2452 -0.4103 -0.1910
   68CHL1   H4B 7445   3.823   0.270  10.173 -0.0891  0.5617 -0.7497
   68CHL1    C5 7446   3.953   0.331  10.022 -0.5101 -0.0816  0.9793
   68CHL1    C6 7447   3.849   0.369   9.946 -0.2919  0.0466 -0.3068
   68CHL1    H6 7448   3.749   0.357   9.988  0.4892 -0.4907  1.4977
   68CHL1    C7 7449   3.853   0.430   9.808 -0.3411  0.2081 -0.2493
   68CHL1   H7A 7450   3.769   0.388   9.749 -1.3391 -0.7291  1.7431
   68CHL1   H7B 7451   3.848   0.541   9.813 -3.7964  0.1807 -0.5702
   68CHL1    C8 7452   3.984   0.400   9.737 -0.2350 -1.6904  0.2961
   68CHL1    H8 7453   3.983   0.293   9.704  2.4929 -1.3108 -1.3456
   68CHL1   C14 7454   4.006   0.494   9.617 -0.7684 -0.9645  0.2978
   68CHL1   H14 7455   4.015   0.597   9.659  0.5428 -1.8388  2.2977
   68CHL1   C15 7456   3.894   0.499   9.507 -0.5923 -0.2633 -0.9762
   68CHL1  H15A 7457   3.874   0.390   9.500  0.1672 -0.5583  0.8440
   68CHL1  H15B 7458   3.798   0.551   9.530 -1.9446 -1.5576 -3.3414
   68CHL1   C16 7459   3.965   0.555   9.389 -0.3868 -0.0880  1.2602
   68CHL1  H16A 7460   3.946   0.485   9.304 -0.7875  0.1140  1.1819
   68CHL1  H16B 7461   3.923   0.649   9.348  1.4602  0.3422  0.2751
   68CHL1   C17 7462   4.123   0.554   9.422 -0.0285  0.2181  0.3843
   68CHL1   H17 7463   4.152   0.657   9.454  1.2903  0.0108 -0.0692
   68CHL1   C13 7464   4.143   0.467   9.549  0.2769  0.0119  0.2990
   68CHL1   C18 7465   4.156   0.319   9.499  0.7717 -0.2177 -0.0247
   68CHL1  H18A 7466   4.255   0.287   9.460  0.8767 -3.0852  2.2602
   68CHL1  H18B 7467   4.144   0.245   9.581  0.6166  0.8369  0.9106
   68CHL1  H18C 7468   4.083   0.303   9.416 -0.2210  0.8602  0.6195
   68CHL1   C12 7469   4.257   0.502   9.655  0.2253 -0.2536  0.8486
   68CHL1  H12A 7470   4.352   0.470   9.608 -0.0266 -2.0740  1.4962
   68CHL1  H12B 7471   4.260   0.610   9.679 -0.6547  0.4942 -1.9635
   68CHL1   C11 7472   4.243   0.416   9.782  0.1477 -0.0944  0.0444
   68CHL1  H11A 7473   4.249   0.309   9.753 -2.9767 -0.1922 -0.6504
   68CHL1  H11B 7474   4.329   0.441   9.847  0.1898  0.7418 -0.3270
   68CHL1    C9 7475   4.101   0.422   9.838 -0.1298 -0.2650 -0.1160
   68CHL1    H9 7476   4.087   0.525   9.878 -1.4212 -1.0518  1.5368
   68CHL1   C10 7477   4.090   0.346   9.972 -1.1398 -0.2425  0.1077
   68CHL1   C19 7478   4.144   0.201   9.948 -0.0593 -0.0123  0.2983
   68CHL1  H19A 7479   4.135   0.140  10.041 -1.7417  1.6589  1.2999
   68CHL1  H19B 7480   4.084   0.148   9.872  0.5163  0.9064 -0.8165
   68CHL1  H19C 7481   4.251   0.187   9.919 -0.4653 -3.4512  0.0114
   68CHL1    C1 7482   4.171   0.421  10.082 -0.2509  0.3725  0.1316
   68CHL1   H1A 7483   4.280   0.422  10.059 -0.0153 -0.7908  1.1111
   68CHL1   H1B 7484   4.139   0.527  10.092 -1.0074  0.1621 -0.0542
   68CHL1    C2 7485   4.153   0.363  10.227  1.1630 -0.3069 -0.3226
   68CHL1   H2A 7486   4.203   0.425  10.304  1.0248  0.1175 -0.5709
   68CHL1   H2B 7487   4.193   0.260  10.239  0.5413 -0.3954  1.1905
   68CHL1   C20 7488   4.217   0.523   9.302  0.0100  0.6475  0.2953
   68CHL1   H20 7489   4.217   0.419   9.263 -1.0712  1.0897 -0.9632
   68CHL1   C21 7490   4.360   0.554   9.350 -0.2755 -0.0119  0.2452
   68CHL1  H21A 7491   4.430   0.556   9.263 -0.6197 -3.0255 -0.2108
   68CHL1  H21B 7492   4.406   0.490   9.428 -1.4054  0.4948  1.3655
   68CHL1  H21C 7493   4.368   0.660   9.382 -0.1654  0.3926 -1.0509
   68CHL1   C22 7494   4.179   0.615   9.183 -0.2499  0.3407 -0.6033
   68CHL1  H22A 7495   4.069   0.617   9.166 -0.7120 -2.1325  1.6026
   68CHL1  H22B 7496   4.213   0.715   9.218  1.7855 -1.1673  2.0779
   68CHL1   C23 7497   4.260   0.586   9.051 -0.2611 -0.3560  0.4428
   68CHL1  H23A 7498   4.369   0.588   9.071 -0.0269 -1.2567 -0.6725
   68CHL1  H23B 7499   4.245   0.480   9.021 -0.5687 -0.1301 -0.2115
   68CHL1   C24 7500   4.214   0.666   8.925 -0.1575 -0.3302 -0.2524
   68CHL1  H24A 7501   4.107   0.686   8.949  0.8798  1.3641  3.8748
   68CHL1  H24B 7502   4.280   0.755   8.922 -1.7233  0.9615  1.1394
   68CHL1   C25 7503   4.234   0.595   8.787 -0.2409 -0.4602 -0.2726
   68CHL1   H25 7504   4.228   0.677   8.712 -0.2491 -1.1707 -1.0620
   68CHL1   C26 7505   4.375   0.539   8.771  0.0826  0.0889 -0.0285
   68CHL1  H26A 7506   4.391   0.455   8.841 -0.6243 -1.6208 -1.8243
   68CHL1  H26B 7507   4.385   0.510   8.664  1.5345  0.0839  0.0917
   68CHL1  H26C 7508   4.462   0.608   8.780  0.9214 -0.4121 -3.1318
   68CHL1   C27 7509   4.136   0.482   8.756 -0.0723 -0.4137  0.0184
   68CHL1  H27A 7510   4.041   0.531   8.728 -0.0299 -0.4039 -0.1112
   68CHL1  H27B 7511   4.175   0.428   8.667  2.5850 -0.6636  1.2288
   68CHL1  H27C 7512   4.121   0.411   8.840 -2.1267  1.4410  1.3378
   69CHL1    C3 7513   0.936   5.717   7.061  0.1523  0.5238 -0.5650
   69CHL1    H3 7514   1.034   5.769   7.071  2.2576 -3.2440  0.1651
   69CHL1    O3 7515   0.908   5.696   6.928  0.0102  0.0496  0.3901
   69CHL1   H3' 7516   0.929   5.605   6.905 -1.5649 -0.5712  1.2521
   69CHL1    C4 7517   0.954   5.592   7.145 -0.1125 -0.4718 -0.0541
   69CHL1   H4A 7518   0.865   5.525   7.135 -0.3839  0.0773 -1.5773
   69CHL1   H4B 7519   1.036   5.534   7.098 -0.4588 -1.8764  0.9779
   69CHL1    C5 7520   0.969   5.608   7.298  0.3095 -0.1578  0.3905
   69CHL1    C6 7521   1.072   5.553   7.363 -0.1435  0.3714  0.0855
   69CHL1    H6 7522   1.145   5.493   7.308 -0.3807  0.7055 -0.6119
   69CHL1    C7 7523   1.085   5.568   7.510  1.0740 -0.1854  0.4978
   69CHL1   H7A 7524   1.081   5.466   7.555 -2.8579  0.5611  2.2735
   69CHL1   H7B 7525   1.180   5.614   7.544  1.0337  0.2057  0.0870
   69CHL1    C8 7526   0.965   5.632   7.581  0.0077 -0.5500 -0.3269
   69CHL1    H8 7527   0.882   5.558   7.580 -0.4234 -0.0983  0.7444
   69CHL1   C14 7528   1.014   5.687   7.718  0.0294 -0.0422  1.4688
   69CHL1   H14 7529   1.095   5.760   7.695  0.9123 -1.6147 -0.6644
   69CHL1   C15 7530   1.090   5.597   7.816  0.1674  0.7657  0.7854
   69CHL1  H15A 7531   1.047   5.497   7.841 -0.1184  0.4164 -0.9575
   69CHL1  H15B 7532   1.195   5.594   7.779 -0.0840  1.3909 -0.0203
   69CHL1   C16 7533   1.079   5.675   7.942 -0.2565  0.3357  0.2871
   69CHL1  H16A 7534   1.025   5.607   8.011 -0.5782  0.9067  0.6035
   69CHL1  H16B 7535   1.170   5.697   8.001  0.7754 -0.3929 -0.9642
   69CHL1   C17 7536   0.980   5.803   7.919  0.0511 -0.0447 -0.1619
   69CHL1   H17 7537   1.039   5.891   7.884 -0.9042  0.2655 -1.0461
   69CHL1   C13 7538   0.899   5.752   7.799 -0.0235 -0.1724 -0.3310
   69CHL1   C18 7539   0.794   5.644   7.842  0.1083 -0.8045 -0.0104
   69CHL1  H18A 7540   0.836   5.576   7.919  0.3508  1.3895  1.8953
   69CHL1  H18B 7541   0.709   5.699   7.887  1.5152  1.6586 -0.1771
   69CHL1  H18C 7542   0.757   5.569   7.769  1.3402 -1.5282  0.0694
   69CHL1   C12 7543   0.854   5.875   7.715  1.2110 -0.3220 -0.3748
   69CHL1  H12A 7544   0.759   5.927   7.743  0.8084 -1.5664  0.6453
   69CHL1  H12B 7545   0.943   5.940   7.704  1.5475 -0.8821 -1.0119
   69CHL1   C11 7546   0.806   5.830   7.575 -0.1906 -0.9787  0.2308
   69CHL1  H11A 7547   0.726   5.754   7.588  0.4954 -1.6659  0.4927
   69CHL1  H11B 7548   0.772   5.920   7.520 -0.2376 -1.3602 -0.3756
   69CHL1    C9 7549   0.916   5.750   7.495  0.2015 -0.5718  0.0836
   69CHL1    H9 7550   1.005   5.815   7.483 -0.6839  0.6641  0.1239
   69CHL1   C10 7551   0.869   5.697   7.363 -0.1885 -0.4650 -0.2231
   69CHL1   C19 7552   0.735   5.610   7.374  0.0993  0.3650 -0.2686
   69CHL1  H19A 7553   0.746   5.524   7.443  1.7379  0.3490 -0.5166
   69CHL1  H19B 7554   0.653   5.675   7.412 -0.7587 -1.5377  1.2892
   69CHL1  H19C 7555   0.714   5.565   7.275  0.3619  0.2418 -0.2686
   69CHL1    C1 7556   0.850   5.826   7.276 -0.8646  0.4323  0.3288
   69CHL1   H1A 7557   0.765   5.883   7.318 -0.3880  1.4369 -0.0464
   69CHL1   H1B 7558   0.937   5.892   7.293  0.3088 -1.4151  1.8584
   69CHL1    C2 7559   0.826   5.800   7.127 -0.0219 -0.3985  0.4914
   69CHL1   H2A 7560   0.811   5.900   7.082  0.3618 -0.7803 -0.5096
   69CHL1   H2B 7561   0.729   5.751   7.105 -0.0633  0.1006 -0.4715
   69CHL1   C20 7562   0.900   5.846   8.048  0.2715  0.3293 -0.1587
   69CHL1   H20 7563   0.832   5.764   8.080 -1.2749  0.4853 -2.7853
   69CHL1   C21 7564   0.819   5.970   8.023  0.5841 -0.6278  0.0515
   69CHL1  H21A 7565   0.736   5.953   7.951 -0.0878 -1.7499  1.0542
   69CHL1  H21B 7566   0.880   6.052   7.979 -0.6090 -0.1546 -0.7961
   69CHL1  H21C 7567   0.773   6.024   8.109 -0.5927 -1.9253  0.2685
   69CHL1   C22 7568   1.004   5.877   8.160 -0.2159 -0.6961 -0.1656
   69CHL1  H22A 7569   1.078   5.793   8.164  0.2848 -0.2371  0.4113
   69CHL1  H22B 7570   1.055   5.968   8.122 -1.2102  1.0676  2.5151
   69CHL1   C23 7571   0.938   5.919   8.295 -0.8221  0.0972  0.6149
   69CHL1  H23A 7572   0.883   6.015   8.286 -0.4440  0.3419  0.9125
   69CHL1  H23B 7573   0.860   5.846   8.327  1.5378 -3.0421 -0.3220
   69CHL1   C24 7574   1.056   5.941   8.392  0.0897 -0.5569  0.1821
   69CHL1  H24A 7575   1.140   6.000   8.351  2.9100 -3.1267  1.7927
   69CHL1  H24B 7576   1.028   6.007   8.476  1.3176  0.6312 -0.3008
   69CHL1   C25 7577   1.126   5.820   8.448 -0.1670  0.0801 -0.2293
   69CHL1   H25 7578   1.162   5.758   8.363  0.1841  0.5252 -0.4116
   69CHL1   C26 7579   1.241   5.866   8.539 -0.8704  0.1051 -0.0351
   69CHL1  H26A 7580   1.261   5.780   8.607  2.5445  0.1496 -0.7933
   69CHL1  H26B 7581   1.330   5.910   8.488  0.9046  1.1342  3.6225
   69CHL1  H26C 7582   1.205   5.948   8.604 -1.8503 -0.3062 -0.0439
   69CHL1   C27 7583   1.027   5.728   8.526 -0.2844  0.4654  0.3054
   69CHL1  H27A 7584   1.001   5.780   8.620 -0.4498  0.9427  0.0005
   69CHL1  H27B 7585   0.936   5.708   8.465  0.8828 -1.0943 -1.0254
   69CHL1  H27C 7586   1.073   5.630   8.549  1.8534  1.1206 -0.8686
   70CHL1    C3 7587   0.744   2.542   7.156  0.1265 -1.0325 -0.4097
   70CHL1    H3 7588   0.700   2.642   7.139  0.9485 -0.1134  2.3346
   70CHL1    O3 7589   0.778   2.497   7.027  0.3494 -0.4574  0.2974
   70CHL1   H3' 7590   0.781   2.401   7.028 -0.2484 -0.5262 -1.0749
   70CHL1    C4 7591   0.873   2.550   7.235  0.1934 -0.3259  0.8044
   70CHL1   H4A 7592   0.930   2.455   7.233 -0.0895 -0.4856 -0.5202
   70CHL1   H4B 7593   0.933   2.623   7.177 -1.5340 -0.3533 -1.1575
   70CHL1    C5 7594   0.850   2.593   7.374  0.0099 -0.1882  0.6531
   70CHL1    C6 7595   0.903   2.707   7.417  0.5753  0.4842 -0.5795
   70CHL1    H6 7596   0.973   2.764   7.354  0.6482  0.4627 -0.5171
   70CHL1    C7 7597   0.891   2.764   7.557 -0.0364  0.4434  0.2931
   70CHL1   H7A 7598   0.998   2.782   7.582  0.2183  0.5563 -0.8002
   70CHL1   H7B 7599   0.831   2.856   7.539  0.9384  0.7183 -1.9105
   70CHL1    C8 7600   0.819   2.679   7.658  0.0719  0.7378 -0.3350
   70CHL1    H8 7601   0.886   2.602   7.701 -1.3089 -0.1411  0.2820
   70CHL1   C14 7602   0.752   2.759   7.767  0.5125  0.5626  0.4614
   70CHL1   H14 7603   0.669   2.816   7.719  1.5232  1.1936 -0.5928
   70CHL1   C15 7604   0.845   2.855   7.842  1.0325  0.9811  0.3070
   70CHL1  H15A 7605   0.944   2.806   7.847  1.2148  1.3312  0.2024
   70CHL1  H15B 7606   0.866   2.953   7.793 -1.0231  1.3174 -0.0092
   70CHL1   C16 7607   0.779   2.878   7.982 -0.7238 -0.0545 -0.3279
   70CHL1  H16A 7608   0.845   2.847   8.066  0.3934 -0.6918 -1.3977
   70CHL1  H16B 7609   0.757   2.984   8.005 -0.2483  0.4546 -2.0154
   70CHL1   C17 7610   0.648   2.787   7.976 -0.2910 -0.0137  0.3999
   70CHL1   H17 7611   0.578   2.852   7.920  1.3117  0.7556 -0.8162
   70CHL1   C13 7612   0.685   2.672   7.866  0.1170  0.2028 -0.1177
   70CHL1   C18 7613   0.791   2.585   7.937  0.1162  0.7521 -0.2047
   70CHL1  H18A 7614   0.745   2.545   8.029  0.8043  2.7949  1.1063
   70CHL1  H18B 7615   0.822   2.499   7.875 -1.1683 -1.9646  2.6516
   70CHL1  H18C 7616   0.880   2.633   7.983  0.5075 -0.2448  0.1018
   70CHL1   C12 7617   0.573   2.590   7.798 -0.1747 -0.4517 -0.3238
   70CHL1  H12A 7618   0.523   2.516   7.865  1.6316  0.2362  1.9204
   70CHL1  H12B 7619   0.499   2.663   7.760 -1.2050 -1.9834 -1.3811
   70CHL1   C11 7620   0.635   2.505   7.684  0.0470  0.4257 -0.4945
   70CHL1  H11A 7621   0.709   2.427   7.712  0.1767  1.1344  1.2316
   70CHL1  H11B 7622   0.550   2.459   7.629 -0.5672  1.2298 -0.2353
   70CHL1    C9 7623   0.706   2.594   7.586  0.2493 -0.9340  0.4306
   70CHL1    H9 7624   0.631   2.666   7.547  0.1661 -2.3060 -2.2240
   70CHL1   C10 7625   0.746   2.512   7.456  0.0135 -0.4202  0.3921
   70CHL1   C19 7626   0.825   2.386   7.486 -0.5413  0.2223  0.5918
   70CHL1  H19A 7627   0.781   2.299   7.539  2.8449 -2.1730 -0.1617
   70CHL1  H19B 7628   0.862   2.338   7.392 -1.0394 -0.8260  0.9131
   70CHL1  H19C 7629   0.922   2.420   7.528 -0.0589  1.2690 -1.2382
   70CHL1    C1 7630   0.616   2.486   7.368 -0.4462  0.1434  0.4265
   70CHL1   H1A 7631   0.551   2.412   7.419 -1.8814  1.7209  1.0185
   70CHL1   H1B 7632   0.550   2.576   7.363 -1.1894 -0.3453  1.1530
   70CHL1    C2 7633   0.650   2.448   7.222 -0.1174  0.0845 -0.7123
   70CHL1   H2A 7634   0.556   2.442   7.164 -2.7522 -0.9139  3.2902
   70CHL1   H2B 7635   0.700   2.348   7.225 -1.0709 -0.3956  2.0043
   70CHL1   C20 7636   0.604   2.747   8.117 -0.3130 -0.5225 -0.3111
   70CHL1   H20 7637   0.692   2.702   8.168 -0.9053 -2.6235 -1.0473
   70CHL1   C21 7638   0.497   2.643   8.120 -0.3811 -0.0749  0.4637
   70CHL1  H21A 7639   0.529   2.543   8.083 -1.3925 -0.8936  1.7071
   70CHL1  H21B 7640   0.413   2.673   8.054 -0.8833  0.3791  1.2918
   70CHL1  H21C 7641   0.452   2.621   8.220  0.8616  0.2605  1.1164
   70CHL1   C22 7642   0.557   2.879   8.186  0.9742  0.6799 -0.1219
   70CHL1  H22A 7643   0.631   2.961   8.180 -0.3469  1.8645 -0.7520
   70CHL1  H22B 7644   0.462   2.901   8.133  1.7331 -2.3939 -3.2222
   70CHL1   C23 7645   0.535   2.874   8.338  0.6795  0.5070  0.0509
   70CHL1  H23A 7646   0.487   2.971   8.363 -1.3501  0.4049 -2.8543
   70CHL1  H23B 7647   0.457   2.797   8.359 -1.5334  2.5080 -0.3598
   70CHL1   C24 7648   0.663   2.852   8.415 -0.6863  0.1416  0.3192
   70CHL1  H24A 7649   0.723   2.766   8.379 -1.8245 -0.0399 -1.2062
   70CHL1  H24B 7650   0.726   2.940   8.388 -0.1012 -1.0307 -2.4443
   70CHL1   C25 7651   0.642   2.843   8.571  0.7677 -0.0760 -0.0859
   70CHL1   H25 7652   0.569   2.925   8.593  2.1209  1.1760 -0.1489
   70CHL1   C26 7653   0.583   2.707   8.615  0.7965  0.1704 -0.4264
   70CHL1  H26A 7654   0.482   2.677   8.579  0.4104 -2.5935  2.4539
   70CHL1  H26B 7655   0.654   2.626   8.589 -2.3995 -2.2614 -2.4548
   70CHL1  H26C 7656   0.572   2.705   8.726  3.5479  1.7492 -0.0360
   70CHL1   C27 7657   0.774   2.857   8.648 -0.3603  0.1942 -0.2055
   70CHL1  H27A 7658   0.766   2.859   8.759 -1.2048  1.5980 -0.2636
   70CHL1  H27B 7659   0.851   2.783   8.618 -0.3338  0.4264 -0.7327
   70CHL1  H27C 7660   0.822   2.950   8.611  1.5160 -0.7618 -0.2535
   71CHL1    C3 7661   0.419   4.460   7.115  0.3171  0.1268 -0.3414
   71CHL1    H3 7662   0.520   4.481   7.155  1.0727  0.4466 -2.3346
   71CHL1    O3 7663   0.432   4.450   6.976 -0.1985 -0.0634 -0.3019
   71CHL1   H3' 7664   0.350   4.408   6.948  0.3477 -1.4753  0.1395
   71CHL1    C4 7665   0.347   4.336   7.172 -0.8382 -0.6792  0.1175
   71CHL1   H4A 7666   0.243   4.354   7.136 -0.3208  0.9618 -0.6805
   71CHL1   H4B 7667   0.379   4.240   7.127 -1.9474 -1.5033  1.0271
   71CHL1    C5 7668   0.362   4.344   7.322 -0.1971  0.2341 -0.1309
   71CHL1    C6 7669   0.427   4.243   7.392  0.1059 -0.4589  0.4026
   71CHL1    H6 7670   0.473   4.155   7.344  1.1281 -0.4607  1.3230
   71CHL1    C7 7671   0.419   4.244   7.545 -0.4238 -0.1050  0.0259
   71CHL1   H7A 7672   0.415   4.146   7.598 -0.9176  1.0247  2.1686
   71CHL1   H7B 7673   0.518   4.282   7.576 -0.4719 -1.8740  2.7228
   71CHL1    C8 7674   0.312   4.338   7.608  0.7528 -0.7671 -0.0338
   71CHL1    H8 7675   0.208   4.300   7.597  0.1284 -0.1570  2.7893
   71CHL1   C14 7676   0.334   4.349   7.761 -0.0695 -0.4134  0.3675
   71CHL1   H14 7677   0.435   4.390   7.783 -0.8213  1.8685 -0.1764
   71CHL1   C15 7678   0.307   4.220   7.840  0.1192  0.9354  0.6293
   71CHL1  H15A 7679   0.228   4.166   7.785  0.3939  0.5135  0.6442
   71CHL1  H15B 7680   0.401   4.161   7.832  0.7704  1.6834  2.2572
   71CHL1   C16 7681   0.284   4.263   7.982  0.2462  0.3000 -0.0684
   71CHL1  H16A 7682   0.185   4.226   8.017  0.8794 -0.0620  1.4463
   71CHL1  H16B 7683   0.360   4.222   8.052  0.4880 -0.3759 -0.7171
   71CHL1   C17 7684   0.291   4.417   7.976  0.6217 -0.0319 -0.0290
   71CHL1   H17 7685   0.399   4.443   7.977  1.2947 -2.5331 -0.7306
   71CHL1   C13 7686   0.249   4.452   7.832 -0.0870  0.0861  1.1451
   71CHL1   C18 7687   0.093   4.430   7.822  0.1528  0.0206  0.8050
   71CHL1  H18A 7688   0.061   4.418   7.716  1.7541 -2.5197  0.5167
   71CHL1  H18B 7689   0.068   4.334   7.870  1.4712 -0.0655  1.3599
   71CHL1  H18C 7690   0.034   4.511   7.869  1.5677  0.6079  1.6548
   71CHL1   C12 7691   0.278   4.595   7.770 -0.5643  0.3770 -1.0724
   71CHL1  H12A 7692   0.214   4.676   7.811 -2.4066 -1.3985 -0.2820
   71CHL1  H12B 7693   0.385   4.622   7.783 -0.5254 -0.7454  1.4037
   71CHL1   C11 7694   0.247   4.594   7.622 -0.3333  0.0051  0.6676
   71CHL1  H11A 7695   0.138   4.598   7.598 -0.0252 -3.1829 -2.0132
   71CHL1  H11B 7696   0.292   4.689   7.587 -3.3975  1.2921 -0.1045
   71CHL1    C9 7697   0.316   4.479   7.539  0.6129  0.4937  0.3419
   71CHL1    H9 7698   0.424   4.504   7.553  1.1875 -0.9806 -1.1733
   71CHL1   C10 7699   0.287   4.468   7.385  0.1846  0.2031  0.2239
   71CHL1   C19 7700   0.128   4.457   7.366 -0.2608 -0.4359 -0.0437
   71CHL1  H19A 7701   0.094   4.361   7.411  1.2106 -0.5581  0.8835
   71CHL1  H19B 7702   0.083   4.551   7.403  0.9739  0.4428 -0.6661
   71CHL1  H19C 7703   0.100   4.455   7.258  1.5883  3.5662 -0.7758
   71CHL1    C1 7704   0.331   4.599   7.312  0.4475  0.6133 -0.3145
   71CHL1   H1A 7705   0.256   4.676   7.338 -1.3644 -1.3460  0.6334
   71CHL1   H1B 7706   0.420   4.642   7.362  0.2848 -0.9553  1.4086
   71CHL1    C2 7707   0.340   4.584   7.162  0.5086 -1.0785 -0.1851
   71CHL1   H2A 7708   0.386   4.674   7.117 -1.3443 -0.3765 -0.7990
   71CHL1   H2B 7709   0.237   4.565   7.125 -0.3261 -0.0104  1.4758
   71CHL1   C20 7710   0.228   4.502   8.092 -0.3171  0.0071  0.5180
   71CHL1   H20 7711   0.124   4.534   8.071  0.3616  1.2863 -1.2201
   71CHL1   C21 7712   0.308   4.636   8.094  0.4937  0.2732  0.4647
   71CHL1  H21A 7713   0.417   4.632   8.114  0.5561  0.3210  0.1447
   71CHL1  H21B 7714   0.272   4.708   8.170 -0.3726  1.7832 -1.2908
   71CHL1  H21C 7715   0.294   4.689   7.998 -0.2526 -0.4946  0.1345
   71CHL1   C22 7716   0.244   4.437   8.228  0.3927 -0.0371 -0.1418
   71CHL1  H22A 7717   0.213   4.330   8.225 -0.0066  0.0768 -0.0809
   71CHL1  H22B 7718   0.353   4.450   8.249 -0.2498  2.3089  2.1836
   71CHL1   C23 7719   0.158   4.507   8.328 -0.2575  0.3494  0.1883
   71CHL1  H23A 7720   0.201   4.608   8.342 -3.7635  1.7029  2.6595
   71CHL1  H23B 7721   0.058   4.522   8.282 -1.1169  2.1484  2.4574
   71CHL1   C24 7722   0.146   4.432   8.459  0.4947  0.9285 -0.5299
   71CHL1  H24A 7723   0.144   4.321   8.450 -0.0504  0.7750  1.1637
   71CHL1  H24B 7724   0.235   4.459   8.521 -0.3155  0.5765  0.8150
   71CHL1   C25 7725   0.022   4.482   8.533  0.5447  0.4056  0.5573
   71CHL1   H25 7726   0.044   4.587   8.562 -0.4189  1.2174 -1.4797
   71CHL1   C26 7727  -0.114   4.497   8.461  0.0403  0.2125  0.2605
   71CHL1  H26A 7728  -0.115   4.571   8.378  2.0232  1.3125  1.1579
   71CHL1  H26B 7729  -0.124   4.392   8.424  2.5034 -0.2911  0.8426
   71CHL1  H26C 7730  -0.194   4.526   8.532 -1.9254 -0.5428 -1.5124
   71CHL1   C27 7731   0.002   4.409   8.669 -0.0079 -0.2393  0.8617
   71CHL1  H27A 7732  -0.061   4.317   8.661  0.2635 -0.2364 -2.3163
   71CHL1  H27B 7733   0.093   4.385   8.727  0.1237  1.3674  1.3501
   71CHL1  H27C 7734  -0.059   4.479   8.730 -0.4295 -0.3142  0.5311
   72CHL1    C3 7735   0.061   2.705   7.112 -0.6719  0.1617  0.1272
   72CHL1    H3 7736   0.099   2.806   7.086 -0.6057 -0.0282 -0.5349
   72CHL1    O3 7737   0.072   2.624   6.994 -0.2717 -0.2454 -0.0093
   72CHL1   H3' 7738   0.037   2.540   7.026  0.9078 -1.0520 -0.7323
   72CHL1    C4 7739   0.159   2.645   7.209 -0.7627 -0.1105  0.2894
   72CHL1   H4A 7740   0.138   2.544   7.249  1.2887  0.8699  4.3586
   72CHL1   H4B 7741   0.257   2.632   7.159 -0.5449  0.1366  0.6494
   72CHL1    C5 7742   0.169   2.720   7.340 -1.0152 -0.1025  0.2757
   72CHL1    C6 7743   0.288   2.755   7.396  0.2821 -0.3211 -0.5074
   72CHL1    H6 7744   0.380   2.726   7.343 -0.8503 -2.3347 -1.4871
   72CHL1    C7 7745   0.306   2.822   7.529 -0.5151  0.3323 -0.2344
   72CHL1   H7A 7746   0.378   2.757   7.584  0.8965  1.0207 -1.2119
   72CHL1   H7B 7747   0.353   2.923   7.527  1.8271 -0.6375  0.7861
   72CHL1    C8 7748   0.174   2.819   7.612 -0.2755 -0.8620 -0.2492
   72CHL1    H8 7749   0.160   2.721   7.661 -2.6975 -1.1364 -1.3777
   72CHL1   C14 7750   0.183   2.926   7.715  0.1517  0.0335  0.1054
   72CHL1   H14 7751   0.175   3.024   7.665 -2.6057 -1.0535 -1.8544
   72CHL1   C15 7752   0.302   2.925   7.806 -0.6258 -0.4227 -0.4078
   72CHL1  H15A 7753   0.318   2.826   7.854 -1.5318 -0.4808 -0.2018
   72CHL1  H15B 7754   0.390   2.957   7.747  0.1416 -0.4998  0.6684
   72CHL1   C16 7755   0.270   3.032   7.913  0.0666 -0.1259  0.0416
   72CHL1  H16A 7756   0.318   3.014   8.012  2.2650  0.7758 -0.7872
   72CHL1  H16B 7757   0.310   3.130   7.878  1.7777 -1.2654 -1.3687
   72CHL1   C17 7758   0.112   3.040   7.910 -0.3054  0.0918  0.5532
   72CHL1   H17 7759   0.087   3.134   7.855  0.3746  0.7263  1.2987
   72CHL1   C13 7760   0.064   2.938   7.812  0.1666  0.1877  0.1728
   72CHL1   C18 7761   0.039   2.806   7.883 -0.4030  0.7213  0.3969
   72CHL1  H18A 7762  -0.015   2.733   7.819 -0.2345 -0.1045  1.1771
   72CHL1  H18B 7763   0.133   2.756   7.914 -0.3504  2.3916  3.3412
   72CHL1  H18C 7764  -0.036   2.815   7.965 -1.8684 -0.8816 -0.6846
   72CHL1   C12 7765  -0.057   2.982   7.725 -0.4391 -0.0504 -0.4149
   72CHL1  H12A 7766  -0.155   2.990   7.778 -1.0830 -1.4959 -1.3169
   72CHL1  H12B 7767  -0.049   3.082   7.679  0.8420 -0.6282 -1.5330
   72CHL1   C11 7768  -0.079   2.883   7.603 -0.3464 -0.1234 -0.2797
   72CHL1  H11A 7769  -0.130   2.794   7.646 -1.7585  0.2779 -1.0507
   72CHL1  H11B 7770  -0.143   2.937   7.529 -0.8919 -2.0118 -1.2373
   72CHL1    C9 7771   0.051   2.848   7.524 -0.9318 -0.2748 -0.2606
   72CHL1    H9 7772   0.078   2.948   7.483 -1.9209 -0.2203 -0.7991
   72CHL1   C10 7773   0.034   2.750   7.403  0.4046  0.4503  1.1832
   72CHL1   C19 7774  -0.016   2.622   7.462 -0.2608  0.1703  0.1992
   72CHL1  H19A 7775  -0.035   2.539   7.390 -0.4370 -0.0706  0.5213
   72CHL1  H19B 7776   0.034   2.590   7.556  0.7867 -3.1900 -1.3101
   72CHL1  H19C 7777  -0.116   2.658   7.493 -0.4138  0.6547 -0.8167
   72CHL1    C1 7778  -0.071   2.802   7.297 -0.1196  0.5727  0.2671
   72CHL1   H1A 7779  -0.172   2.808   7.344  0.2299 -1.4738  1.4088
   72CHL1   H1B 7780  -0.027   2.901   7.271  3.4210 -1.1716 -0.9560
   72CHL1    C2 7781  -0.082   2.713   7.172 -0.1119  0.1047  0.8009
   72CHL1   H2A 7782  -0.137   2.768   7.093 -1.1723  0.6964  1.9271
   72CHL1   H2B 7783  -0.114   2.607   7.183  2.7902 -1.2093 -1.6174
   72CHL1   C20 7784   0.041   3.070   8.046  0.0159 -0.2785 -0.0724
   72CHL1   H20 7785   0.051   2.977   8.106 -3.3301  0.8901  2.6888
   72CHL1   C21 7786  -0.112   3.091   8.031 -0.4811 -0.5634 -0.3866
   72CHL1  H21A 7787  -0.164   3.127   8.122  0.2329  1.5292 -0.7580
   72CHL1  H21B 7788  -0.157   2.990   8.023 -1.3765 -0.2213  0.1855
   72CHL1  H21C 7789  -0.137   3.159   7.947 -0.6885  0.2413  0.3127
   72CHL1   C22 7790   0.100   3.177   8.137 -0.6022 -0.4150 -0.2006
   72CHL1  H22A 7791   0.207   3.174   8.106 -1.2932 -0.7978 -2.8499
   72CHL1  H22B 7792   0.055   3.276   8.112  0.8997  0.3889  0.1543
   72CHL1   C23 7793   0.098   3.153   8.291 -0.1684 -1.0210  0.2830
   72CHL1  H23A 7794  -0.006   3.163   8.327 -0.2423  1.0415 -0.3962
   72CHL1  H23B 7795   0.141   3.053   8.315 -0.3322 -1.1617 -0.0119
   72CHL1   C24 7796   0.187   3.257   8.363 -0.1405 -0.0824  0.0604
   72CHL1  H24A 7797   0.295   3.240   8.340 -0.1705 -1.3797  0.7973
   72CHL1  H24B 7798   0.152   3.354   8.322  1.7290  1.2583  1.4607
   72CHL1   C25 7799   0.178   3.240   8.514 -0.4620  0.5368  0.5115
   72CHL1   H25 7800   0.069   3.234   8.533 -0.3412 -3.5738  0.6597
   72CHL1   C26 7801   0.235   3.111   8.577 -0.0524 -0.3529  1.0365
   72CHL1  H26A 7802   0.237   3.115   8.688  0.0391 -2.4422  1.1483
   72CHL1  H26B 7803   0.177   3.025   8.536 -0.4645  0.3067  0.2023
   72CHL1  H26C 7804   0.341   3.104   8.545  0.3202  1.9337  1.5971
   72CHL1   C27 7805   0.245   3.367   8.576  0.2205 -1.0097  0.5322
   72CHL1  H27A 7806   0.353   3.382   8.556  0.3638 -1.7865  0.7033
   72CHL1  H27B 7807   0.186   3.460   8.559 -1.0021 -1.7692  0.4834
   72CHL1  H27C 7808   0.237   3.356   8.686  1.2465 -0.1645  0.7038
   73CHL1    C3 7809   5.811   6.261   6.932  0.1213 -0.4197  0.4965
   73CHL1    H3 7810   5.763   6.161   6.932  1.8933 -1.3700 -1.8015
   73CHL1    O3 7811   5.816   6.306   6.802  0.0883  0.4668  0.4988
   73CHL1   H3' 7812   5.855   6.394   6.796  2.1357 -0.4360 -0.0890
   73CHL1    C4 7813   5.724   6.359   7.012  0.2018 -0.6330  0.0704
   73CHL1   H4A 7814   5.765   6.463   7.010  1.8064 -1.2418 -0.2946
   73CHL1   H4B 7815   5.627   6.362   6.958  0.5822 -1.6575 -0.6964
   73CHL1    C5 7816   5.706   6.307   7.153 -0.7199  0.4335 -0.0039
   73CHL1    C6 7817   5.586   6.273   7.205  0.7206 -0.0178 -0.2480
   73CHL1    H6 7818   5.494   6.289   7.147 -0.1255  0.2735  1.1179
   73CHL1    C7 7819   5.576   6.240   7.346  1.0461  0.8096 -0.2537
   73CHL1   H7A 7820   5.487   6.295   7.384  0.6316  0.1995 -0.3372
   73CHL1   H7B 7821   5.546   6.135   7.366  2.1642  0.5212  0.0214
   73CHL1    C8 7822   5.699   6.280   7.428  0.2316  0.0091  0.2563
   73CHL1    H8 7823   5.690   6.390   7.427  1.5348  0.1392  1.0406
   73CHL1   C14 7824   5.681   6.218   7.567 -0.0511 -0.4416  0.2428
   73CHL1   H14 7825   5.673   6.108   7.552  2.0120 -0.4308 -1.4311
   73CHL1   C15 7826   5.554   6.244   7.646  0.4266 -0.2455  0.5993
   73CHL1  H15A 7827   5.540   6.354   7.652 -1.2587 -0.4637  1.2698
   73CHL1  H15B 7828   5.469   6.192   7.596  0.2032  1.1896 -0.5962
   73CHL1   C16 7829   5.586   6.189   7.783  0.1524  0.5434  0.2832
   73CHL1  H16A 7830   5.548   6.264   7.856 -0.4028 -0.4969  1.0827
   73CHL1  H16B 7831   5.538   6.090   7.797 -2.2700  1.9432  3.3078
   73CHL1   C17 7832   5.734   6.175   7.794  0.0992  0.3611 -0.1779
   73CHL1   H17 7833   5.751   6.066   7.778 -1.5858  0.3018 -1.7693
   73CHL1   C13 7834   5.793   6.248   7.668 -0.3556 -0.1349 -0.2389
   73CHL1   C18 7835   5.809   6.405   7.697 -0.0336  0.9311 -0.2848
   73CHL1  H18A 7836   5.724   6.437   7.761 -0.6135  0.1509 -0.6492
   73CHL1  H18B 7837   5.896   6.427   7.762  2.4016 -0.0629 -2.9802
   73CHL1  H18C 7838   5.813   6.464   7.602 -2.2405 -1.6095 -2.1100
   73CHL1   C12 7839   5.914   6.179   7.613 -0.0122  0.2560 -0.0654
   73CHL1  H12A 7840   6.008   6.195   7.670  0.2237  1.1941 -0.6962
   73CHL1  H12B 7841   5.896   6.070   7.606  2.1471 -0.0936 -0.9535
   73CHL1   C11 7842   5.945   6.237   7.466 -0.6094  0.1477  0.5756
   73CHL1  H11A 7843   5.983   6.341   7.479  1.7445 -0.6808  0.8853
   73CHL1  H11B 7844   6.028   6.179   7.421 -0.2611  0.5969  0.6283
   73CHL1    C9 7845   5.829   6.232   7.363  0.4926  0.4182  0.1303
   73CHL1    H9 7846   5.814   6.122   7.350  1.1455  0.0502  2.1910
   73CHL1   C10 7847   5.849   6.293   7.226  0.3421 -0.0023  0.1341
   73CHL1   C19 7848   5.907   6.438   7.249 -0.4540 -0.3200  0.2214
   73CHL1  H19A 7849   6.012   6.436   7.283  0.4198  1.4016 -2.0960
   73CHL1  H19B 7850   5.917   6.484   7.148 -3.2051  0.9705  0.4372
   73CHL1  H19C 7851   5.830   6.499   7.301 -1.5195 -2.0435  0.7745
   73CHL1    C1 7852   5.941   6.205   7.132  0.0153  0.3368 -0.2437
   73CHL1   H1A 7853   6.040   6.186   7.180  0.4758 -0.9691 -1.6183
   73CHL1   H1B 7854   5.895   6.105   7.119 -3.4834  2.0432 -2.3653
   73CHL1    C2 7855   5.954   6.251   6.987 -0.4407 -0.2205 -0.0082
   73CHL1   H2A 7856   6.010   6.179   6.923  3.6444  0.9124  1.9667
   73CHL1   H2B 7857   6.015   6.342   6.971  2.4940 -2.1577 -0.6991
   73CHL1   C20 7858   5.785   6.206   7.937 -0.7665 -0.4763 -0.1724
   73CHL1   H20 7859   5.753   6.307   7.969  0.3363 -0.3523  0.5835
   73CHL1   C21 7860   5.940   6.193   7.946 -0.2683 -0.2248  0.1915
   73CHL1  H21A 7861   5.976   6.092   7.918  0.7409  0.0589  0.4293
   73CHL1  H21B 7862   5.985   6.222   8.044 -0.9821 -0.0447  0.4698
   73CHL1  H21C 7863   5.989   6.258   7.870  0.6347 -0.3845  0.6247
   73CHL1   C22 7864   5.724   6.107   8.042  0.1970 -0.3338  0.4219
   73CHL1  H22A 7865   5.615   6.128   8.039  0.0692 -0.9385  0.5065
   73CHL1  H22B 7866   5.738   6.000   8.013 -1.5192 -1.1873  2.4548
   73CHL1   C23 7867   5.796   6.119   8.175 -0.4351  0.1465  0.3346
   73CHL1  H23A 7868   5.897   6.073   8.168 -0.6284 -0.5766  1.9034
   73CHL1  H23B 7869   5.807   6.222   8.217 -2.0482  0.3367  0.3654
   73CHL1   C24 7870   5.727   6.046   8.284 -0.0315  0.2988  0.9658
   73CHL1  H24A 7871   5.629   6.091   8.309  0.1527  0.9873  0.4856
   73CHL1  H24B 7872   5.707   5.948   8.237 -2.2368  0.3500  1.7036
   73CHL1   C25 7873   5.819   6.008   8.402  0.2771 -0.5407  0.6264
   73CHL1   H25 7874   5.911   5.965   8.358  0.8917  0.2210  1.1551
   73CHL1   C26 7875   5.856   6.133   8.483  0.2407 -0.2520 -0.5003
   73CHL1  H26A 7876   5.923   6.110   8.568  2.2870  2.8900 -1.0887
   73CHL1  H26B 7877   5.923   6.185   8.412  1.3503 -2.5671 -1.2528
   73CHL1  H26C 7878   5.766   6.188   8.518  0.3158 -1.1512  1.2154
   73CHL1   C27 7879   5.750   5.905   8.498 -0.3488  0.7086 -0.5584
   73CHL1  H27A 7880   5.661   5.951   8.545 -0.9512 -1.0803  0.1329
   73CHL1  H27B 7881   5.717   5.812   8.446 -2.2672  0.8749  0.2850
   73CHL1  H27C 7882   5.820   5.876   8.578 -0.8781  1.8908  0.3654
   74CHL1    C3 7883   5.686   4.460   6.803 -0.1863  0.1838  0.7578
   74CHL1    H3 7884   5.762   4.393   6.849 -0.3058 -0.0094  0.6719
   74CHL1    O3 7885   5.706   4.467   6.668 -0.2484 -0.9935  0.2513
   74CHL1   H3' 7886   5.635   4.521   6.630 -0.4120 -0.5098  1.2145
   74CHL1    C4 7887   5.549   4.401   6.830  0.1800 -0.4478 -0.5124
   74CHL1   H4A 7888   5.475   4.458   6.770  0.1617  0.9590  0.7815
   74CHL1   H4B 7889   5.559   4.298   6.791  0.8330  0.3370 -2.5869
   74CHL1    C5 7890   5.511   4.412   6.977 -0.4288  0.6031  0.3739
   74CHL1    C6 7891   5.468   4.308   7.050 -0.2153  0.2627 -0.0123
   74CHL1    H6 7892   5.451   4.211   7.000  1.9178 -0.5019  0.6437
   74CHL1    C7 7893   5.426   4.313   7.196  0.4500  0.0293 -0.6185
   74CHL1   H7A 7894   5.332   4.259   7.221  0.3356  0.7829  0.6319
   74CHL1   H7B 7895   5.502   4.250   7.247  1.6929  0.1252 -2.2616
   74CHL1    C8 7896   5.408   4.453   7.253  0.9890 -0.0346  0.1644
   74CHL1    H8 7897   5.308   4.487   7.219  0.8321 -0.2038  0.4593
   74CHL1   C14 7898   5.412   4.455   7.400 -0.1444 -0.2032 -0.5514
   74CHL1   H14 7899   5.518   4.431   7.420  0.0820  0.8255 -0.4381
   74CHL1   C15 7900   5.332   4.341   7.484  0.0362 -0.3979 -0.0149
   74CHL1  H15A 7901   5.238   4.307   7.437  0.6229 -1.5820 -0.3848
   74CHL1  H15B 7902   5.392   4.250   7.507 -0.3034 -0.4247  0.7916
   74CHL1   C16 7903   5.301   4.410   7.619 -0.2335 -0.8794  0.8473
   74CHL1  H16A 7904   5.194   4.441   7.630 -0.0649 -0.3154  0.9755
   74CHL1  H16B 7905   5.326   4.345   7.706 -0.0607 -2.3021 -0.2388
   74CHL1   C17 7906   5.378   4.550   7.623  0.2311  0.1772  0.3136
   74CHL1   H17 7907   5.483   4.531   7.654 -0.1894 -0.4752  1.4493
   74CHL1   C13 7908   5.386   4.590   7.469  0.2212  0.7515  0.3489
   74CHL1   C18 7909   5.245   4.636   7.430  0.7891  0.2176  0.0930
   74CHL1  H18A 7910   5.175   4.553   7.456 -0.2350  1.2392  0.6896
   74CHL1  H18B 7911   5.215   4.727   7.487 -0.8502 -2.0193  3.0820
   74CHL1  H18C 7912   5.238   4.651   7.320  1.3249 -2.7955 -0.4473
   74CHL1   C12 7913   5.494   4.695   7.426  0.0121 -0.2643  0.0869
   74CHL1  H12A 7914   5.464   4.794   7.467  4.8370  0.7309  1.9474
   74CHL1  H12B 7915   5.582   4.659   7.483  0.0389 -0.5366 -0.1211
   74CHL1   C11 7916   5.511   4.697   7.267  0.4871  0.2575 -0.2537
   74CHL1  H11A 7917   5.419   4.750   7.234  1.3511  0.7139 -2.0381
   74CHL1  H11B 7918   5.604   4.754   7.245  1.4538 -1.6658 -1.3405
   74CHL1    C9 7919   5.516   4.554   7.198 -0.1175  0.2435  0.3187
   74CHL1    H9 7920   5.614   4.513   7.232  0.9224  1.3110 -1.2858
   74CHL1   C10 7921   5.524   4.547   7.043 -0.4926  0.2206  0.1948
   74CHL1   C19 7922   5.418   4.639   6.991  0.4191 -0.1572 -0.2455
   74CHL1  H19A 7923   5.314   4.612   7.020 -0.3722  1.0070 -1.8293
   74CHL1  H19B 7924   5.437   4.745   7.020 -0.7967 -0.2324  0.9133
   74CHL1  H19C 7925   5.416   4.649   6.880  0.1704  0.7780 -0.1713
   74CHL1    C1 7926   5.658   4.609   7.008 -0.4866 -0.1833  0.1263
   74CHL1   H1A 7927   5.679   4.709   7.052 -0.1079  0.1591 -0.7944
   74CHL1   H1B 7928   5.724   4.533   7.056 -0.3345 -1.8792 -2.5539
   74CHL1    C2 7929   5.696   4.601   6.858  0.0017  0.1687  0.2287
   74CHL1   H2A 7930   5.795   4.649   6.841  1.1682 -1.5445  1.8290
   74CHL1   H2B 7931   5.625   4.674   6.813  0.4230  0.7369  0.4612
   74CHL1   C20 7932   5.318   4.650   7.729 -0.6166 -0.2511  0.4867
   74CHL1   H20 7933   5.209   4.658   7.708 -0.3331 -2.2381 -2.2836
   74CHL1   C21 7934   5.395   4.781   7.714 -0.5320  0.1758  0.4053
   74CHL1  H21A 7935   5.381   4.829   7.813  2.8438  3.4524 -0.4807
   74CHL1  H21B 7936   5.362   4.850   7.635 -0.2884 -0.2169 -0.0455
   74CHL1  H21C 7937   5.505   4.765   7.717 -0.5137  0.3739  1.0801
   74CHL1   C22 7938   5.335   4.575   7.864 -0.1707  0.3085 -0.2604
   74CHL1  H22A 7939   5.275   4.482   7.872 -1.3286  1.1383  1.2865
   74CHL1  H22B 7940   5.441   4.553   7.887 -0.7200 -2.5464 -0.0625
   74CHL1   C23 7941   5.284   4.642   7.993 -0.8018  0.4501 -0.6506
   74CHL1  H23A 7942   5.310   4.750   7.996  2.2252 -0.2052  0.1733
   74CHL1  H23B 7943   5.175   4.645   7.975 -0.6856  0.2624 -1.4253
   74CHL1   C24 7944   5.319   4.561   8.124 -0.7392  0.3090  0.8520
   74CHL1  H24A 7945   5.270   4.461   8.117  1.6517 -0.9105  0.2174
   74CHL1  H24B 7946   5.428   4.538   8.124 -0.6019  0.9393  0.4574
   74CHL1   C25 7947   5.284   4.624   8.261 -0.3880 -0.4182  1.0429
   74CHL1   H25 7948   5.325   4.727   8.261 -1.2980 -0.0314  0.0515
   74CHL1   C26 7949   5.133   4.647   8.274  0.4398  0.2816 -0.0307
   74CHL1  H26A 7950   5.095   4.707   8.188 -2.9586  1.7771  2.2952
   74CHL1  H26B 7951   5.066   4.559   8.291 -0.1312  0.5945 -0.5903
   74CHL1  H26C 7952   5.124   4.716   8.361 -0.0299  0.1951 -0.0039
   74CHL1   C27 7953   5.327   4.536   8.384 -0.0335 -0.1109 -0.3564
   74CHL1  H27A 7954   5.300   4.570   8.485  1.8408  0.2129  0.0811
   74CHL1  H27B 7955   5.275   4.439   8.366  0.9292 -0.6266 -0.4829
   74CHL1  H27C 7956   5.436   4.516   8.395  0.0046  1.1432  2.2775
   75CHL1    C3 7957   1.260   4.202   6.717 -0.2631 -0.6340 -0.4470
   75CHL1    H3 7958   1.252   4.312   6.706  0.1387 -0.1686  2.9124
   75CHL1    O3 7959   1.267   4.138   6.593  0.5930 -0.5267  0.2967
   75CHL1   H3' 7960   1.359   4.110   6.581  0.8754 -1.5249  3.7088
   75CHL1    C4 7961   1.394   4.182   6.783 -0.0712 -0.4221  0.1369
   75CHL1   H4A 7962   1.428   4.076   6.771  0.1204 -0.2492 -0.9501
   75CHL1   H4B 7963   1.471   4.243   6.730 -1.3697 -0.8670 -2.4279
   75CHL1    C5 7964   1.403   4.219   6.931  1.0831  0.3591 -0.1697
   75CHL1    C6 7965   1.504   4.292   6.981 -1.1205  0.1195  0.1393
   75CHL1    H6 7966   1.580   4.332   6.913 -2.6594  3.0453 -0.0071
   75CHL1    C7 7967   1.524   4.338   7.121 -0.2623  0.2677 -0.5395
   75CHL1   H7A 7968   1.627   4.305   7.147 -0.5799 -0.9905 -0.8195
   75CHL1   H7B 7969   1.518   4.449   7.119 -1.0129  0.3123  1.5765
   75CHL1    C8 7970   1.421   4.270   7.214  0.0638  0.4644 -0.0322
   75CHL1    H8 7971   1.463   4.169   7.236 -0.0288  0.1847 -1.0664
   75CHL1   C14 7972   1.415   4.344   7.349 -0.0944 -0.4259 -0.1981
   75CHL1   H14 7973   1.372   4.444   7.327 -1.3449 -1.2016 -1.4599
   75CHL1   C15 7974   1.541   4.372   7.428 -0.6632 -0.2033  0.0052
   75CHL1  H15A 7975   1.602   4.279   7.422  2.7213  1.8873 -0.9432
   75CHL1  H15B 7976   1.597   4.459   7.388  0.1931  0.7899  3.0855
   75CHL1   C16 7977   1.484   4.412   7.564 -0.9990 -0.3968 -0.0003
   75CHL1  H16A 7978   1.544   4.356   7.639  1.2874  1.4732 -0.3290
   75CHL1  H16B 7979   1.491   4.520   7.586 -3.0308 -0.4317  0.9899
   75CHL1   C17 7980   1.333   4.380   7.567  0.0893 -0.2334  0.1738
   75CHL1   H17 7981   1.282   4.474   7.536 -0.8909 -1.4681 -2.2432
   75CHL1   C13 7982   1.309   4.285   7.439  0.0505  0.3211  0.1355
   75CHL1   C18 7983   1.347   4.140   7.478  0.0619 -0.2565 -0.3102
   75CHL1  H18A 7984   1.339   4.074   7.389 -1.8573  0.0899 -0.4409
   75CHL1  H18B 7985   1.446   4.118   7.525 -0.8732 -0.5806  1.6162
   75CHL1  H18C 7986   1.265   4.112   7.548 -0.6203  3.0904  0.4238
   75CHL1   C12 7987   1.169   4.291   7.381  0.5301  0.4007  0.2616
   75CHL1  H12A 7988   1.097   4.235   7.445  0.5384  0.8625  0.6827
   75CHL1  H12B 7989   1.130   4.395   7.372 -0.2675  0.0581 -0.3755
   75CHL1   C11 7990   1.165   4.234   7.237 -0.0481  0.0774 -0.0670
   75CHL1  H11A 7991   1.155   4.124   7.243 -0.4992 -0.0750 -2.4289
   75CHL1  H11B 7992   1.077   4.274   7.182  0.4042  0.3772 -0.6013
   75CHL1    C9 7993   1.283   4.269   7.147  0.0736  0.0563  0.2033
   75CHL1    H9 7994   1.265   4.375   7.118  0.0944  0.3326  1.1757
   75CHL1   C10 7995   1.275   4.185   7.014 -0.2229  0.0183 -0.4930
   75CHL1   C19 7996   1.280   4.030   7.042 -0.3292  0.2109 -0.3963
   75CHL1  H19A 7997   1.308   3.980   6.948  1.3753  0.8599 -0.2733
   75CHL1  H19B 7998   1.364   4.010   7.112 -0.5190 -1.2970 -0.5719
   75CHL1  H19C 7999   1.189   3.987   7.089  0.6640 -0.5587  0.8863
   75CHL1    C1 8000   1.144   4.222   6.938 -0.3556  0.3224 -0.4429
   75CHL1   H1A 8001   1.048   4.196   6.987 -2.3251  2.8321 -2.7087
   75CHL1   H1B 8002   1.129   4.331   6.920 -3.5627  0.1249  0.4176
   75CHL1    C2 8003   1.141   4.152   6.803  0.2902  0.0447  0.4812
   75CHL1   H2A 8004   1.050   4.172   6.743  0.2830 -0.7275  0.2142
   75CHL1   H2B 8005   1.145   4.041   6.803  0.0005  0.0213  1.9003
   75CHL1   C20 8006   1.268   4.350   7.701 -0.0827 -0.0166 -0.0406
   75CHL1   H20 8007   1.285   4.245   7.734 -0.9983  0.8037  3.5821
   75CHL1   C21 8008   1.116   4.387   7.691  0.6523 -0.6410  0.0748
   75CHL1  H21A 8009   1.089   4.494   7.677 -0.5296 -1.1635 -2.2126
   75CHL1  H21B 8010   1.072   4.351   7.787 -0.1503 -2.3929 -0.8995
   75CHL1  H21C 8011   1.064   4.327   7.613  0.5026  0.8109 -0.9845
   75CHL1   C22 8012   1.323   4.449   7.810  0.4139  0.0885  0.2455
   75CHL1  H22A 8013   1.429   4.429   7.836  0.6752 -0.6292 -1.2303
   75CHL1  H22B 8014   1.330   4.552   7.768 -0.8393  0.2910  0.5035
   75CHL1   C23 8015   1.243   4.436   7.942 -0.4391  0.1632  0.2698
   75CHL1  H23A 8016   1.147   4.490   7.927 -0.0463  0.6509 -0.6017
   75CHL1  H23B 8017   1.235   4.327   7.962  1.0558 -0.3937 -1.8098
   75CHL1   C24 8018   1.311   4.500   8.065 -0.2981  0.2154 -0.3911
   75CHL1  H24A 8019   1.415   4.465   8.077 -0.5846 -0.3350  0.6029
   75CHL1  H24B 8020   1.320   4.608   8.038 -1.1355  0.7498  1.2924
   75CHL1   C25 8021   1.232   4.485   8.198  0.3398 -0.1491  0.4688
   75CHL1   H25 8022   1.128   4.522   8.185  0.1807 -0.7226  0.0822
   75CHL1   C26 8023   1.236   4.338   8.254  0.1455 -0.5748  0.1267
   75CHL1  H26A 8024   1.336   4.290   8.263  0.0474 -0.5419  1.8218
   75CHL1  H26B 8025   1.189   4.328   8.355 -0.3483 -2.7058 -0.2643
   75CHL1  H26C 8026   1.184   4.273   8.180  1.3747 -1.6016  0.1255
   75CHL1   C27 8027   1.284   4.596   8.299 -0.2376  0.6303  0.0739
   75CHL1  H27A 8028   1.267   4.702   8.271  0.8036  0.9246  0.4898
   75CHL1  H27B 8029   1.224   4.591   8.392  0.9869 -0.6081  0.8475
   75CHL1  H27C 8030   1.393   4.586   8.321  0.1185  2.8259 -0.4304
   76CHL1    C3 8031   6.267   2.601   7.240  0.3127  0.2147  0.2386
   76CHL1    H3 8032   6.354   2.670   7.240  0.7433 -0.2059  3.2827
   76CHL1    O3 8033   6.222   2.585   7.104 -0.3771 -0.1486  0.0721
   76CHL1   H3' 8034   6.140   2.534   7.103 -0.9533  0.7055  1.8409
   76CHL1    C4 8035   6.301   2.465   7.306 -0.6902 -0.5294 -0.0929
   76CHL1   H4A 8036   6.217   2.394   7.292 -1.0033 -0.2931  0.5374
   76CHL1   H4B 8037   6.391   2.437   7.247  1.1613  0.4502  2.1067
   76CHL1    C5 8038   6.344   2.480   7.456 -0.5166  0.0885 -0.2863
   76CHL1    C6 8039   6.467   2.439   7.503  0.6308  0.3402  0.0474
   76CHL1    H6 8040   6.524   2.363   7.449 -2.3525 -4.0107  2.3897
   76CHL1    C7 8041   6.496   2.465   7.648  0.0600  0.5558 -0.3290
   76CHL1   H7A 8042   6.552   2.380   7.692  0.7753  2.3399  2.5022
   76CHL1   H7B 8043   6.569   2.549   7.651 -1.1255  1.6828 -1.6150
   76CHL1    C8 8044   6.377   2.516   7.739  0.5406 -0.0409 -0.1580
   76CHL1    H8 8045   6.318   2.423   7.756 -1.0070  0.8543 -0.4668
   76CHL1   C14 8046   6.443   2.571   7.867  0.1602  0.3745  0.0087
   76CHL1   H14 8047   6.504   2.656   7.830 -0.6412  0.9681  0.0254
   76CHL1   C15 8048   6.545   2.480   7.929  0.5487  0.6035 -1.0825
   76CHL1  H15A 8049   6.531   2.370   7.922 -0.0949  0.5341  0.6653
   76CHL1  H15B 8050   6.647   2.504   7.891  0.0590  0.9662 -2.2143
   76CHL1   C16 8051   6.546   2.523   8.079 -0.3544 -0.2025  1.1762
   76CHL1  H16A 8052   6.516   2.431   8.133  1.1886 -1.6382 -0.2746
   76CHL1  H16B 8053   6.646   2.562   8.107  0.5717 -2.4969  1.3044
   76CHL1   C17 8054   6.444   2.644   8.087  0.0710 -0.9275 -0.5850
   76CHL1   H17 8055   6.508   2.731   8.061 -1.2479  0.5286  0.7943
   76CHL1   C13 8056   6.342   2.610   7.972  0.2236 -0.8060  0.5105
   76CHL1   C18 8057   6.254   2.480   8.016  0.3023 -0.3856  0.1155
   76CHL1  H18A 8058   6.177   2.441   7.946  0.3917  0.7629 -0.6489
   76CHL1  H18B 8059   6.321   2.400   8.053 -0.4384 -1.2801 -0.4398
   76CHL1  H18C 8060   6.192   2.495   8.107 -1.9133  0.8381 -1.5196
   76CHL1   C12 8061   6.257   2.718   7.917 -0.3888 -0.5986  0.0804
   76CHL1  H12A 8062   6.177   2.750   7.987  0.1100  0.5769  0.1431
   76CHL1  H12B 8063   6.320   2.807   7.897  0.5181 -0.9585  1.1825
   76CHL1   C11 8064   6.182   2.685   7.779 -0.3267  0.6891  0.1097
   76CHL1  H11A 8065   6.106   2.607   7.799 -0.0095  0.4833  0.5372
   76CHL1  H11B 8066   6.155   2.785   7.739  3.3808  1.2241 -1.4949
   76CHL1    C9 8067   6.296   2.625   7.681  0.2457 -0.0969 -0.0107
   76CHL1    H9 8068   6.363   2.711   7.661 -0.5388  0.4579 -0.3072
   76CHL1   C10 8069   6.248   2.577   7.538 -0.1570  0.2704 -0.0117
   76CHL1   C19 8070   6.115   2.486   7.554  0.4015  0.9878  0.8038
   76CHL1  H19A 8071   6.038   2.549   7.603  0.6211  0.5235  1.7803
   76CHL1  H19B 8072   6.080   2.446   7.457  0.5718  1.0095  0.7337
   76CHL1  H19C 8073   6.136   2.402   7.623  0.4293  0.3975  0.0795
   76CHL1    C1 8074   6.201   2.699   7.455 -0.3470 -0.0275 -0.5615
   76CHL1   H1A 8075   6.120   2.744   7.517 -1.0864 -0.7835 -0.9479
   76CHL1   H1B 8076   6.289   2.766   7.450 -0.8842  0.7689  0.3738
   76CHL1    C2 8077   6.155   2.674   7.316  0.4281 -0.0075 -0.1187
   76CHL1   H2A 8078   6.124   2.770   7.270  1.6586  0.2072 -0.5516
   76CHL1   H2B 8079   6.064   2.611   7.324  0.6583 -0.3997 -0.5148
   76CHL1   C20 8080   6.389   2.663   8.231  0.2016 -0.5022  0.2202
   76CHL1   H20 8081   6.292   2.612   8.249 -0.7351  1.4908  1.2202
   76CHL1   C21 8082   6.361   2.815   8.245  0.1103 -0.2546 -0.4721
   76CHL1  H21A 8083   6.267   2.848   8.195  0.3091 -0.7891 -1.2199
   76CHL1  H21B 8084   6.439   2.883   8.204  1.6006 -1.2353  0.6220
   76CHL1  H21C 8085   6.354   2.844   8.352 -2.0886  0.3797 -0.7284
   76CHL1   C22 8086   6.479   2.639   8.359  0.7054 -0.1975  0.0121
   76CHL1  H22A 8087   6.410   2.661   8.444 -2.5733  1.5139 -2.8162
   76CHL1  H22B 8088   6.497   2.529   8.360  0.0759 -0.3146 -0.6225
   76CHL1   C23 8089   6.611   2.718   8.346  0.2747  0.2277 -0.3332
   76CHL1  H23A 8090   6.652   2.704   8.243 -1.5761 -1.2378 -0.9271
   76CHL1  H23B 8091   6.599   2.827   8.364 -0.1890 -0.0351  1.0119
   76CHL1   C24 8092   6.720   2.668   8.442  0.1493  0.5085  0.4483
   76CHL1  H24A 8093   6.686   2.686   8.546 -1.6134  1.5893 -0.2803
   76CHL1  H24B 8094   6.748   2.562   8.424  1.7028  1.1506 -1.2248
   76CHL1   C25 8095   6.848   2.750   8.422  0.2744 -0.1518 -0.4547
   76CHL1   H25 8096   6.823   2.856   8.442 -0.2242  0.2101 -2.6912
   76CHL1   C26 8097   6.946   2.701   8.528  0.5455  0.1099  0.2358
   76CHL1  H26A 8098   6.911   2.720   8.631  1.6650 -0.7252  0.7934
   76CHL1  H26B 8099   6.954   2.592   8.509  0.3508  0.1392 -0.0264
   76CHL1  H26C 8100   7.046   2.748   8.516 -0.2997  1.3409 -2.9402
   76CHL1   C27 8101   6.907   2.739   8.283  0.2359  0.0074  0.2574
   76CHL1  H27A 8102   6.913   2.631   8.258  0.6433  0.5061 -1.9784
   76CHL1  H27B 8103   6.855   2.787   8.198  0.8933  0.9795  0.3843
   76CHL1  H27C 8104   7.014   2.768   8.279  1.0216 -2.5584  0.8825
   77CHL1    C3 8105   6.363   0.414   7.076 -0.0098 -0.4652 -0.0580
   77CHL1    H3 8106   6.458   0.362   7.053  0.4317 -0.9783  2.6082
   77CHL1    O3 8107   6.307   0.445   6.949 -0.0767  0.3228 -0.3807
   77CHL1   H3' 8108   6.234   0.504   6.971 -0.0112  0.2226  0.1222
   77CHL1    C4 8109   6.268   0.334   7.152  0.0674  0.5758 -0.4352
   77CHL1   H4A 8110   6.168   0.380   7.133  0.0396  0.4653 -0.5502
   77CHL1   H4B 8111   6.264   0.236   7.100  2.7488  0.5196 -0.6440
   77CHL1    C5 8112   6.290   0.317   7.306  0.0517 -0.4312  0.3204
   77CHL1    C6 8113   6.290   0.189   7.355  0.1908  0.1902  0.0150
   77CHL1    H6 8114   6.265   0.104   7.290  1.0788  0.9852 -1.4230
   77CHL1    C7 8115   6.315   0.163   7.505  0.1708  0.2359  0.0673
   77CHL1   H7A 8116   6.240   0.094   7.549  0.6445  0.6728  1.6329
   77CHL1   H7B 8117   6.411   0.112   7.529 -0.0296 -0.8626 -1.3123
   77CHL1    C8 8118   6.306   0.294   7.589 -0.1078  0.0010 -0.2401
   77CHL1    H8 8119   6.200   0.325   7.586 -0.1258 -0.1625 -1.6984
   77CHL1   C14 8120   6.363   0.271   7.733  0.4389  0.1546 -0.4621
   77CHL1   H14 8121   6.473   0.256   7.725  0.3624 -0.0809 -1.1002
   77CHL1   C15 8122   6.308   0.157   7.815 -0.5209 -0.2768 -0.1310
   77CHL1  H15A 8123   6.197   0.149   7.810 -0.6881  1.2031  0.6141
   77CHL1  H15B 8124   6.345   0.060   7.775  1.2894  0.9272 -1.5567
   77CHL1   C16 8125   6.354   0.184   7.960 -0.2545  0.8697 -0.2113
   77CHL1  H16A 8126   6.266   0.180   8.028 -0.5689  2.5561 -0.4511
   77CHL1  H16B 8127   6.439   0.121   7.992 -0.7468 -0.1339 -0.8109
   77CHL1   C17 8128   6.414   0.330   7.957 -0.5929 -0.6238 -0.4793
   77CHL1   H17 8129   6.524   0.320   7.951 -0.6938 -1.9064 -0.4276
   77CHL1   C13 8130   6.361   0.396   7.826  0.6932 -0.2178 -0.0202
   77CHL1   C18 8131   6.218   0.447   7.845  0.1883 -0.2010  0.0363
   77CHL1  H18A 8132   6.145   0.373   7.884 -1.0556  1.8390  1.8028
   77CHL1  H18B 8133   6.207   0.539   7.907  2.0471 -0.0069  0.1191
   77CHL1  H18C 8134   6.168   0.478   7.750 -1.7754 -1.6785  0.5164
   77CHL1   C12 8135   6.446   0.508   7.758 -0.2970  0.1831 -0.1845
   77CHL1  H12A 8136   6.445   0.600   7.819  0.0115  1.1696 -1.6164
   77CHL1  H12B 8137   6.550   0.468   7.753 -0.8643 -1.3311 -0.4992
   77CHL1   C11 8138   6.408   0.536   7.617  0.4313 -0.2462 -0.2501
   77CHL1  H11A 8139   6.312   0.591   7.620  0.4791 -0.2213  1.2391
   77CHL1  H11B 8140   6.485   0.604   7.572  1.5787  0.0029  1.9589
   77CHL1    C9 8141   6.385   0.409   7.527  0.1184 -0.3362  0.7285
   77CHL1    H9 8142   6.478   0.359   7.495 -1.3901 -2.4217 -0.6842
   77CHL1   C10 8143   6.315   0.443   7.392  0.8627 -0.2249 -0.2209
   77CHL1   C19 8144   6.189   0.530   7.401  0.0370  0.2932  0.9659
   77CHL1  H19A 8145   6.203   0.637   7.429  1.6148 -0.0042  1.3758
   77CHL1  H19B 8146   6.136   0.534   7.303 -1.3256  3.5378  1.6907
   77CHL1  H19C 8147   6.117   0.486   7.474 -0.8861  0.5048  0.2137
   77CHL1    C1 8148   6.427   0.515   7.303  0.6160 -0.2384  0.4736
   77CHL1   H1A 8149   6.449   0.609   7.358 -0.0886  0.4626 -0.4145
   77CHL1   H1B 8150   6.526   0.464   7.296  1.6461  1.8053 -0.4992
   77CHL1    C2 8151   6.393   0.541   7.150 -0.0439 -0.2620  0.2854
   77CHL1   H2A 8152   6.474   0.598   7.101  0.5870 -1.6985 -0.4113
   77CHL1   H2B 8153   6.305   0.609   7.155 -0.2301 -0.2587 -1.9938
   77CHL1   C20 8154   6.393   0.409   8.083 -0.3040  0.0289 -0.1469
   77CHL1   H20 8155   6.285   0.425   8.102  0.0566  1.0249  1.2471
   77CHL1   C21 8156   6.465   0.538   8.074 -0.2119  0.2479 -0.0877
   77CHL1  H21A 8157   6.567   0.522   8.033  0.5924 -0.1096  1.9511
   77CHL1  H21B 8158   6.480   0.582   8.175 -2.7069  0.7759  0.1219
   77CHL1  H21C 8159   6.414   0.619   8.017 -0.7605 -0.8763 -1.2422
   77CHL1   C22 8160   6.439   0.334   8.213  0.7913  0.0959 -0.3087
   77CHL1  H22A 8161   6.426   0.225   8.200 -0.7137 -0.1067  2.2455
   77CHL1  H22B 8162   6.549   0.348   8.219  1.3343 -3.1363 -1.0045
   77CHL1   C23 8163   6.372   0.368   8.347  0.5094  0.5311 -0.4692
   77CHL1  H23A 8164   6.357   0.478   8.356  0.1993  0.3372  1.8941
   77CHL1  H23B 8165   6.272   0.322   8.332  0.5875  0.6421 -1.4302
   77CHL1   C24 8166   6.427   0.301   8.476  0.0665  0.1916  0.0386
   77CHL1  H24A 8167   6.431   0.190   8.467  1.1979  0.2729 -0.6243
   77CHL1  H24B 8168   6.530   0.341   8.491 -0.4650  1.2824  0.9461
   77CHL1   C25 8169   6.355   0.341   8.611 -0.0123 -0.4026 -0.3741
   77CHL1   H25 8170   6.369   0.451   8.616  0.4602 -0.3746 -1.6662
   77CHL1   C26 8171   6.203   0.312   8.617 -0.3000  0.4483  0.3532
   77CHL1  H26A 8172   6.165   0.385   8.542 -1.1570  1.0036  1.3209
   77CHL1  H26B 8173   6.186   0.204   8.594  1.3094  0.0815  0.7262
   77CHL1  H26C 8174   6.167   0.339   8.718 -1.8707  1.4566 -0.4335
   77CHL1   C27 8175   6.422   0.276   8.726  0.3972  0.1004  0.1520
   77CHL1  H27A 8176   6.358   0.311   8.809  0.0125  2.2625 -0.9861
   77CHL1  H27B 8177   6.433   0.166   8.722  1.5564  0.2395 -1.8923
   77CHL1  H27C 8178   6.526   0.314   8.738  0.7607 -0.8672  0.1718
   78CHL1    C3 8179   0.707   6.491   6.804 -0.2233 -0.5476 -0.4469
   78CHL1    H3 8180   0.817   6.497   6.809 -0.1614 -0.3433 -1.8732
   78CHL1    O3 8181   0.681   6.491   6.663  0.2897 -0.1598  0.3127
   78CHL1   H3' 8182   0.682   6.582   6.635 -0.2583 -0.2919 -0.1511
   78CHL1    C4 8183   0.653   6.353   6.859  0.4719  0.3177  0.2699
   78CHL1   H4A 8184   0.544   6.354   6.842  0.4826  1.9410  0.1230
   78CHL1   H4B 8185   0.688   6.267   6.798 -0.2654  0.0977  0.1515
   78CHL1    C5 8186   0.688   6.346   7.005 -0.6073 -0.9837  0.7004
   78CHL1    C6 8187   0.767   6.248   7.056 -0.1282 -0.4719 -0.1032
   78CHL1    H6 8188   0.809   6.167   6.995  2.2391  0.6143 -0.0121
   78CHL1    C7 8189   0.793   6.238   7.208 -0.3893  0.9655  0.5997
   78CHL1   H7A 8190   0.772   6.136   7.246 -0.2542  0.2720 -1.0889
   78CHL1   H7B 8191   0.901   6.255   7.227 -0.4743 -1.4516  4.3648
   78CHL1    C8 8192   0.709   6.333   7.286  0.5540  0.3016 -0.1585
   78CHL1    H8 8193   0.607   6.288   7.292  1.8336 -2.6335  2.6094
   78CHL1   C14 8194   0.762   6.338   7.429 -0.9792 -0.5173 -0.4095
   78CHL1   H14 8195   0.862   6.380   7.407 -0.9861 -0.5629 -0.5276
   78CHL1   C15 8196   0.780   6.205   7.509 -0.1823 -0.2293  0.2079
   78CHL1  H15A 8197   0.682   6.154   7.495 -0.3207 -0.1034  0.6903
   78CHL1  H15B 8198   0.860   6.132   7.486  0.6098  0.2586  1.3004
   78CHL1   C16 8199   0.775   6.234   7.660  0.0225  0.1703  0.2453
   78CHL1  H16A 8200   0.692   6.176   7.705 -1.1583 -1.0901 -3.2594
   78CHL1  H16B 8201   0.871   6.212   7.713  0.4042  1.4435  0.1225
   78CHL1   C17 8202   0.751   6.387   7.658 -0.1926  0.2757 -0.0598
   78CHL1   H17 8203   0.846   6.438   7.632 -0.6433  1.1105 -0.1356
   78CHL1   C13 8204   0.682   6.420   7.528 -0.0706 -0.4476 -0.3141
   78CHL1   C18 8205   0.530   6.370   7.536 -0.1196 -0.1845 -0.1422
   78CHL1  H18A 8206   0.520   6.270   7.583 -0.0653  0.2896  0.8980
   78CHL1  H18B 8207   0.465   6.438   7.593  0.3245 -0.0793  0.2435
   78CHL1  H18C 8208   0.485   6.367   7.434 -1.6777 -0.1380  0.5341
   78CHL1   C12 8209   0.693   6.562   7.468  0.1656  0.1602  0.3350
   78CHL1  H12A 8210   0.635   6.639   7.524  2.4049  2.6561 -0.5355
   78CHL1  H12B 8211   0.798   6.597   7.475 -0.3786  2.1150 -0.5685
   78CHL1   C11 8212   0.650   6.577   7.327 -0.2923 -0.8881  0.9954
   78CHL1  H11A 8213   0.540   6.567   7.325 -0.7386  2.7570  0.5236
   78CHL1  H11B 8214   0.667   6.680   7.289 -4.8634 -0.2076  0.1767
   78CHL1    C9 8215   0.702   6.470   7.224  0.8360 -0.5120  0.4002
   78CHL1    H9 8216   0.808   6.498   7.210  0.9341 -0.6138  0.9207
   78CHL1   C10 8217   0.637   6.469   7.081 -0.0452 -0.0652  0.0836
   78CHL1   C19 8218   0.480   6.461   7.079 -0.2953  0.3943 -0.5088
   78CHL1  H19A 8219   0.451   6.365   7.128  2.2878 -0.5735 -0.6968
   78CHL1  H19B 8220   0.441   6.546   7.138  1.6144  1.4894 -0.7533
   78CHL1  H19C 8221   0.443   6.461   6.974 -0.7089  1.2178 -0.3659
   78CHL1    C1 8222   0.667   6.605   7.023  0.9182 -0.5570  0.2697
   78CHL1   H1A 8223   0.618   6.690   7.076  2.2422  0.0851  0.4990
   78CHL1   H1B 8224   0.776   6.617   7.037  1.1481 -3.2125  1.4253
   78CHL1    C2 8225   0.644   6.617   6.874 -0.2269  0.3680  0.1186
   78CHL1   H2A 8226   0.682   6.711   6.830  0.8342 -0.2883 -0.4243
   78CHL1   H2B 8227   0.538   6.608   6.844 -0.0766 -0.1654 -0.2635
   78CHL1   C20 8228   0.703   6.455   7.792 -0.2656  0.7057  0.3260
   78CHL1   H20 8229   0.592   6.457   7.794 -0.2994  1.3169 -1.1394
   78CHL1   C21 8230   0.773   6.596   7.803 -0.6981 -1.5373 -0.2485
   78CHL1  H21A 8231   0.760   6.658   7.711  2.1546 -1.3914 -0.6608
   78CHL1  H21B 8232   0.877   6.564   7.827 -1.5433 -2.6433  2.1847
   78CHL1  H21C 8233   0.734   6.659   7.885  1.7210 -0.3387  0.0963
   78CHL1   C22 8234   0.751   6.366   7.915  0.1499 -0.1203 -0.0006
   78CHL1  H22A 8235   0.692   6.271   7.913 -0.7785  0.3749  1.7558
   78CHL1  H22B 8236   0.858   6.337   7.909 -0.1947 -1.9357  1.5316
   78CHL1   C23 8237   0.712   6.431   8.047 -0.0651  0.1913 -0.9287
   78CHL1  H23A 8238   0.767   6.525   8.068 -0.4168  0.1729  0.1005
   78CHL1  H23B 8239   0.601   6.441   8.045 -0.1998 -0.5333  1.0100
   78CHL1   C24 8240   0.738   6.345   8.174 -0.4699 -0.1108  0.1259
   78CHL1  H24A 8241   0.668   6.259   8.175 -0.3685 -0.2137  2.3400
   78CHL1  H24B 8242   0.838   6.297   8.179 -0.0382  0.4429 -2.0171
   78CHL1   C25 8243   0.727   6.426   8.309 -0.6542 -0.0860 -0.2143
   78CHL1   H25 8244   0.788   6.519   8.307 -1.4921  0.4980  0.6067
   78CHL1   C26 8245   0.578   6.482   8.324  0.0851 -0.7527  0.6818
   78CHL1  H26A 8246   0.567   6.540   8.418 -0.3648 -2.4305  1.7125
   78CHL1  H26B 8247   0.552   6.562   8.252 -0.1026  0.3622  1.9465
   78CHL1  H26C 8248   0.504   6.399   8.326 -1.0463  0.1581 -1.3807
   78CHL1   C27 8249   0.759   6.350   8.439 -0.5962  0.3608  0.4285
   78CHL1  H27A 8250   0.866   6.322   8.431 -0.5346  1.0743 -1.8626
   78CHL1  H27B 8251   0.749   6.421   8.524  1.8352  0.1786  0.9465
   78CHL1  H27C 8252   0.690   6.263   8.448  0.5020 -0.6077 -0.2223
   79CHL1    C3 8253   5.855   0.808   7.166 -0.2475 -0.3056  0.4194
   79CHL1    H3 8254   5.852   0.912   7.130  0.6182 -0.4562 -0.1188
   79CHL1    O3 8255   5.839   0.715   7.051  1.1093  0.5212 -0.3919
   79CHL1   H3' 8256   5.745   0.706   7.036  0.8887  1.3592  0.3207
   79CHL1    C4 8257   5.989   0.802   7.235 -0.3258 -0.0595 -0.9848
   79CHL1   H4A 8258   6.004   0.695   7.258 -0.7873  0.4975  2.5213
   79CHL1   H4B 8259   6.070   0.844   7.171  0.1250 -1.3010 -1.2513
   79CHL1    C5 8260   5.997   0.875   7.369 -0.2450  0.3774 -0.7732
   79CHL1    C6 8261   6.090   0.967   7.396 -0.6928 -0.8334  0.5210
   79CHL1    H6 8262   6.175   0.973   7.327  0.9307  0.9117  2.5176
   79CHL1    C7 8263   6.103   1.046   7.523  0.5673 -0.4389 -0.0173
   79CHL1   H7A 8264   6.211   1.046   7.551  0.4168  0.9680  0.6338
   79CHL1   H7B 8265   6.087   1.156   7.512  0.6013 -0.4719 -0.4415
   79CHL1    C8 8266   6.016   0.990   7.641  0.3568 -0.1550  0.2751
   79CHL1    H8 8267   6.047   0.893   7.684 -2.2838 -2.1772 -2.0246
   79CHL1   C14 8268   6.007   1.090   7.755 -1.0252 -0.9971  0.7758
   79CHL1   H14 8269   5.970   1.182   7.704  1.4955 -0.7746 -0.8319
   79CHL1   C15 8270   6.142   1.149   7.806  0.1311  0.2221 -0.8584
   79CHL1  H15A 8271   6.222   1.073   7.821 -0.0112  0.0685 -0.8709
   79CHL1  H15B 8272   6.183   1.225   7.736  0.7673 -0.7862 -1.6066
   79CHL1   C16 8273   6.106   1.213   7.934  0.0520  0.5020  0.5804
   79CHL1  H16A 8274   6.170   1.169   8.014 -0.1289 -1.6844 -0.4146
   79CHL1  H16B 8275   6.123   1.323   7.935  0.3569  0.4583  1.1869
   79CHL1   C17 8276   5.951   1.172   7.963 -0.5343  0.1457  0.1480
   79CHL1   H17 8277   5.883   1.252   7.926  0.8072  2.8409  3.0745
   79CHL1   C13 8278   5.922   1.052   7.875 -0.1607  0.4305 -0.1904
   79CHL1   C18 8279   5.972   0.920   7.944  0.3703  0.2843  0.4599
   79CHL1  H18A 8280   6.074   0.937   7.984  0.6123 -1.7409  0.8202
   79CHL1  H18B 8281   5.909   0.896   8.033 -0.5065 -1.1530 -0.5049
   79CHL1  H18C 8282   5.980   0.834   7.874  0.6919  0.6655  0.0237
   79CHL1   C12 8283   5.780   1.027   7.820  0.0366  0.4947  0.2111
   79CHL1  H12A 8284   5.716   0.977   7.896 -0.1837  0.0124 -0.2821
   79CHL1  H12B 8285   5.739   1.124   7.787  1.9648  2.3321  2.7854
   79CHL1   C11 8286   5.778   0.926   7.706 -0.2560 -0.4088 -0.4561
   79CHL1  H11A 8287   5.793   0.823   7.743  2.0861  0.5114  1.4264
   79CHL1  H11B 8288   5.673   0.931   7.669  0.0183  3.8165 -1.1648
   79CHL1    C9 8289   5.876   0.960   7.594 -0.3806  0.4282 -0.3752
   79CHL1    H9 8290   5.837   1.058   7.557 -2.7773 -0.2660  0.1674
   79CHL1   C10 8291   5.873   0.859   7.470 -0.8036 -0.8232  0.3267
   79CHL1   C19 8292   5.895   0.720   7.525  0.7641  0.8832 -0.6413
   79CHL1  H19A 8293   5.806   0.689   7.583  0.8716  2.0241  0.1475
   79CHL1  H19B 8294   5.908   0.646   7.443 -2.6021  1.4389 -1.8189
   79CHL1  H19C 8295   5.983   0.716   7.593  2.4740 -1.9303 -2.7762
   79CHL1    C1 8296   5.740   0.873   7.396 -0.8938  0.4898 -0.3063
   79CHL1   H1A 8297   5.647   0.842   7.448 -0.0223 -0.4310  0.7247
   79CHL1   H1B 8298   5.729   0.976   7.354  2.4268  0.5538 -1.2752
   79CHL1    C2 8299   5.732   0.788   7.257  0.7630 -0.5005  0.1789
   79CHL1   H2A 8300   5.637   0.781   7.200 -1.0591 -0.0915  2.9643
   79CHL1   H2B 8301   5.742   0.686   7.302  1.5461 -0.4649  0.1105
   79CHL1   C20 8302   5.919   1.159   8.115 -0.0674 -0.2630  0.1189
   79CHL1   H20 8303   5.961   1.066   8.158  2.2558 -0.4911 -2.3731
   79CHL1   C21 8304   5.764   1.138   8.117  0.6776  0.4008  0.6085
   79CHL1  H21A 8305   5.696   1.194   8.048 -0.5673 -2.9978 -1.1712
   79CHL1  H21B 8306   5.723   1.159   8.218 -0.0143 -2.3403  0.9763
   79CHL1  H21C 8307   5.740   1.031   8.098  0.0816  0.7746 -0.9405
   79CHL1   C22 8308   5.969   1.283   8.196  1.1909 -0.2537  0.1356
   79CHL1  H22A 8309   6.080   1.291   8.192  1.1191  0.8723  0.0364
   79CHL1  H22B 8310   5.917   1.368   8.146 -1.3672 -1.9436 -0.2560
   79CHL1   C23 8311   5.925   1.286   8.340 -0.0333  0.6744  0.5665
   79CHL1  H23A 8312   5.958   1.379   8.391  1.6435 -0.4626  1.6469
   79CHL1  H23B 8313   5.816   1.269   8.356 -0.2714 -1.2896 -2.4165
   79CHL1   C24 8314   5.985   1.175   8.428 -0.8241 -0.2631 -0.1692
   79CHL1  H24A 8315   5.920   1.086   8.444 -0.4566 -0.3518  0.9005
   79CHL1  H24B 8316   6.088   1.149   8.395 -0.6167 -1.5992  1.3934
   79CHL1   C25 8317   6.010   1.225   8.577  0.2394 -0.3297 -0.8065
   79CHL1   H25 8318   6.052   1.327   8.563 -2.7833  0.9732 -1.0478
   79CHL1   C26 8319   5.887   1.238   8.662  0.2871 -0.7901 -0.2885
   79CHL1  H26A 8320   5.912   1.286   8.759 -3.6745  2.9427 -0.8247
   79CHL1  H26B 8321   5.803   1.298   8.621  1.6306 -0.7827 -3.3098
   79CHL1  H26C 8322   5.851   1.133   8.678  0.4831 -0.7571  0.3979
   79CHL1   C27 8323   6.116   1.134   8.636  0.6622  0.2673  0.3447
   79CHL1  H27A 8324   6.076   1.031   8.636 -2.0152  1.2155  1.0814
   79CHL1  H27B 8325   6.216   1.139   8.587  1.0713 -0.8813  1.0231
   79CHL1  H27C 8326   6.137   1.158   8.742 -0.2814  0.2240  0.5513
   80CHL1    C3 8327   0.842   3.614   7.225 -0.7949  0.0405  0.0398
   80CHL1    H3 8328   0.806   3.720   7.227 -0.3635  0.2033 -0.5374
   80CHL1    O3 8329   0.825   3.554   7.094 -0.1837 -0.2541 -0.1604
   80CHL1   H3' 8330   0.868   3.468   7.095 -1.4467 -0.9124 -0.2046
   80CHL1    C4 8331   0.994   3.614   7.244 -0.5204  0.6064 -0.0061
   80CHL1   H4A 8332   1.030   3.509   7.235  0.8370  0.9404  1.1793
   80CHL1   H4B 8333   1.052   3.662   7.162 -0.3175  0.4473  0.0448
   80CHL1    C5 8334   1.032   3.665   7.385  0.4276  0.3484  0.6908
   80CHL1    C6 8335   1.112   3.776   7.389  0.4471  1.0230  0.0023
   80CHL1    H6 8336   1.155   3.821   7.298  0.8875 -0.9078 -0.8107
   80CHL1    C7 8337   1.153   3.839   7.521 -0.0264  0.3175 -0.4427
   80CHL1   H7A 8338   1.261   3.863   7.526  0.1736 -0.8027  2.1431
   80CHL1   H7B 8339   1.110   3.941   7.521  0.2375  0.4294 -0.9778
   80CHL1    C8 8340   1.118   3.743   7.642 -0.5635  0.0866  0.5019
   80CHL1    H8 8341   1.193   3.662   7.644 -2.0763 -1.3536  2.9194
   80CHL1   C14 8342   1.115   3.831   7.769 -0.6703  0.2168  0.1696
   80CHL1   H14 8343   1.025   3.895   7.757 -2.0518 -1.1915  2.3283
   80CHL1   C15 8344   1.236   3.913   7.811 -0.5557  0.2428  1.0954
   80CHL1  H15A 8345   1.330   3.852   7.813 -1.1829 -0.8301 -0.4792
   80CHL1  H15B 8346   1.248   4.005   7.751  0.8735 -0.4267  0.3103
   80CHL1   C16 8347   1.213   3.948   7.957  0.3243  0.4213 -0.0446
   80CHL1  H16A 8348   1.302   3.913   8.014 -0.2545 -1.8363 -0.4208
   80CHL1  H16B 8349   1.198   4.058   7.954 -2.6801  0.1276  1.0879
   80CHL1   C17 8350   1.101   3.851   8.011  0.2904  0.5508  0.1062
   80CHL1   H17 8351   1.005   3.906   8.017 -0.0878 -0.0047 -0.6901
   80CHL1   C13 8352   1.077   3.747   7.902  0.5391 -0.0439 -0.5664
   80CHL1   C18 8353   1.170   3.623   7.924 -0.5185 -0.8242 -0.9564
   80CHL1  H18A 8354   1.267   3.660   7.964 -0.2624 -1.7846 -0.6673
   80CHL1  H18B 8355   1.119   3.566   8.004 -1.4097  0.9813 -0.1807
   80CHL1  H18C 8356   1.191   3.563   7.833 -0.2596  0.8819 -2.0796
   80CHL1   C12 8357   0.930   3.695   7.882  0.0736  0.0987  0.6829
   80CHL1  H12A 8358   0.902   3.619   7.958  1.5962 -0.2816  0.8910
   80CHL1  H12B 8359   0.856   3.777   7.868 -1.3272 -1.1651  0.5143
   80CHL1   C11 8360   0.923   3.613   7.753  0.7558  0.3371 -0.2289
   80CHL1  H11A 8361   0.986   3.523   7.769  2.6322  1.5975 -0.1874
   80CHL1  H11B 8362   0.815   3.592   7.737  0.6484  1.7046 -1.5582
   80CHL1    C9 8363   0.980   3.686   7.625  0.6813  0.3227  0.1156
   80CHL1    H9 8364   0.904   3.765   7.612 -2.2600 -2.4661 -0.8211
   80CHL1   C10 8365   0.954   3.596   7.500  0.5102  0.1061  0.8613
   80CHL1   C19 8366   1.000   3.458   7.529 -0.4907 -0.0742 -0.8971
   80CHL1  H19A 8367   0.927   3.401   7.591  0.3744  0.0869  0.2942
   80CHL1  H19B 8368   0.992   3.405   7.431  1.5644  0.7845 -1.5855
   80CHL1  H19C 8369   1.104   3.454   7.568 -0.1106  0.1764 -1.8615
   80CHL1    C1 8370   0.800   3.588   7.466 -0.4815 -0.0764 -0.1441
   80CHL1   H1A 8371   0.747   3.530   7.544  1.5782 -2.2533 -0.2306
   80CHL1   H1B 8372   0.765   3.693   7.457  1.1384  0.7883  2.5579
   80CHL1    C2 8373   0.780   3.525   7.324 -0.2364  0.4426 -0.0217
   80CHL1   H2A 8374   0.671   3.530   7.305 -0.6720  1.4812  2.3865
   80CHL1   H2B 8375   0.807   3.418   7.318 -2.0855  0.0046 -1.4846
   80CHL1   C20 8376   1.129   3.806   8.157  0.4494 -0.0354 -0.0468
   80CHL1   H20 8377   1.214   3.734   8.156 -1.6848 -2.8025 -2.8854
   80CHL1   C21 8378   1.008   3.719   8.213  0.2463 -0.1423  0.2436
   80CHL1  H21A 8379   1.004   3.620   8.161 -0.7892  1.0900 -2.1781
   80CHL1  H21B 8380   0.909   3.766   8.199 -0.1906 -1.4410 -1.2420
   80CHL1  H21C 8381   1.031   3.697   8.320 -2.2997  0.4901  0.9840
   80CHL1   C22 8382   1.147   3.924   8.261  0.4226 -0.5250 -0.4861
   80CHL1  H22A 8383   1.225   3.994   8.225 -0.5378  0.7986 -0.0489
   80CHL1  H22B 8384   1.055   3.985   8.271  1.1593  0.2119  3.6670
   80CHL1   C23 8385   1.178   3.898   8.411  0.0429  0.0796 -0.1414
   80CHL1  H23A 8386   1.189   3.993   8.467  0.8562 -1.2208  2.0185
   80CHL1  H23B 8387   1.092   3.850   8.462  0.0862  1.8111  1.6870
   80CHL1   C24 8388   1.306   3.818   8.445  0.3657 -0.0807 -0.0188
   80CHL1  H24A 8389   1.277   3.720   8.400 -1.1506  1.1201 -1.7915
   80CHL1  H24B 8390   1.405   3.849   8.404  0.1112  0.7247 -0.0422
   80CHL1   C25 8391   1.328   3.796   8.596  0.6282 -0.1381  0.8227
   80CHL1   H25 8392   1.331   3.894   8.649  3.3790  0.7611 -0.8234
   80CHL1   C26 8393   1.206   3.716   8.648 -0.2397  0.0817  0.4657
   80CHL1  H26A 8394   1.115   3.777   8.663  0.6298  1.2027  1.3844
   80CHL1  H26B 8395   1.177   3.636   8.577 -0.0866  0.3630  0.0817
   80CHL1  H26C 8396   1.232   3.669   8.746  0.2123  0.0019  0.3118
   80CHL1   C27 8397   1.461   3.720   8.615 -0.1792  0.2781 -0.0763
   80CHL1  H27A 8398   1.540   3.785   8.572 -0.1934 -0.4911 -1.3192
   80CHL1  H27B 8399   1.472   3.707   8.725 -1.5300  2.6402  0.4022
   80CHL1  H27C 8400   1.465   3.616   8.575 -1.3264  0.5987 -1.0675
   81CHL1    C3 8401   4.097   6.198   6.963 -0.2554 -0.3185  0.4476
   81CHL1    H3 8402   4.190   6.200   7.025  1.3802 -4.3165 -1.4881
   81CHL1    O3 8403   4.125   6.233   6.832  0.0223  1.0604  0.1962
   81CHL1   H3' 8404   4.037   6.263   6.808 -0.7822 -0.4752  1.0706
   81CHL1    C4 8405   4.029   6.065   6.965 -0.3238  0.4643  0.3088
   81CHL1   H4A 8406   3.949   6.051   6.889  2.2235 -1.0159 -2.3068
   81CHL1   H4B 8407   4.101   5.989   6.927 -0.6584  1.4643 -2.5074
   81CHL1    C5 8408   3.975   6.016   7.098 -0.0728  0.3252  0.4155
   81CHL1    C6 8409   3.992   5.892   7.150 -1.7823 -0.0394 -0.6254
   81CHL1    H6 8410   4.059   5.820   7.101  0.9054  0.6774  1.7511
   81CHL1    C7 8411   3.936   5.836   7.271  0.5124 -0.5703 -0.4516
   81CHL1   H7A 8412   3.888   5.739   7.245 -0.6609 -0.2274  0.4042
   81CHL1   H7B 8413   4.017   5.830   7.347  0.6965  2.3922 -0.3112
   81CHL1    C8 8414   3.833   5.925   7.344 -0.6053  0.5362 -0.1804
   81CHL1    H8 8415   3.730   5.903   7.310 -0.2817  0.2719 -1.0213
   81CHL1   C14 8416   3.842   5.897   7.493 -0.1275  0.2242  0.1375
   81CHL1   H14 8417   3.943   5.930   7.526 -0.6911  1.1569  0.9875
   81CHL1   C15 8418   3.840   5.747   7.533 -0.1353 -0.3764  0.5067
   81CHL1  H15A 8419   3.769   5.713   7.455  1.8361 -1.3382 -0.9636
   81CHL1  H15B 8420   3.927   5.678   7.525 -0.1355 -0.2591 -0.6114
   81CHL1   C16 8421   3.797   5.750   7.681  0.4925  0.0942  0.5816
   81CHL1  H16A 8422   3.703   5.692   7.686  0.0961  0.7702  1.1117
   81CHL1  H16B 8423   3.868   5.711   7.757 -1.6175 -0.5280  2.3160
   81CHL1   C17 8424   3.783   5.900   7.713  0.1042 -0.3124  0.2712
   81CHL1   H17 8425   3.885   5.933   7.741 -0.7538  2.3721  0.5426
   81CHL1   C13 8426   3.744   5.968   7.580  0.4717 -0.4158 -0.0630
   81CHL1   C18 8427   3.602   5.935   7.539  1.1893 -0.3729 -0.4473
   81CHL1  H18A 8428   3.571   5.975   7.440 -2.4289 -1.4975  0.0921
   81CHL1  H18B 8429   3.580   5.826   7.541  1.7474 -0.4753  1.0060
   81CHL1  H18C 8430   3.537   5.988   7.612  1.3956  0.3113 -0.7560
   81CHL1   C12 8431   3.775   6.126   7.565  0.0942  0.3165  0.4028
   81CHL1  H12A 8432   3.702   6.188   7.620  0.2291  2.0032 -1.2193
   81CHL1  H12B 8433   3.879   6.135   7.603  1.1707 -2.3323 -1.5650
   81CHL1   C11 8434   3.779   6.167   7.414  0.0984 -0.2522  0.1132
   81CHL1  H11A 8435   3.676   6.151   7.374 -0.4951  0.2704  1.3777
   81CHL1  H11B 8436   3.814   6.270   7.391  0.1624 -0.5735 -1.3515
   81CHL1    C9 8437   3.871   6.074   7.328  0.3008 -0.0820  0.1394
   81CHL1    H9 8438   3.976   6.095   7.357  0.2787 -0.6749  0.6700
   81CHL1   C10 8439   3.896   6.118   7.181  0.4241  0.4068 -0.0451
   81CHL1   C19 8440   3.761   6.115   7.123  0.3536  0.1946 -0.4641
   81CHL1  H19A 8441   3.708   6.017   7.129 -1.2044  1.0148 -0.2479
   81CHL1  H19B 8442   3.686   6.190   7.158  0.6593  0.0134  0.6079
   81CHL1  H19C 8443   3.766   6.141   7.015 -0.0058  0.3196 -0.4529
   81CHL1    C1 8444   3.965   6.259   7.170  0.3638  0.9959  0.0967
   81CHL1   H1A 8445   3.893   6.335   7.209 -0.1853 -0.8673  3.0866
   81CHL1   H1B 8446   4.056   6.263   7.234 -1.4702  0.7043  2.9469
   81CHL1    C2 8447   4.005   6.300   7.024 -0.0359  0.2086 -0.0601
   81CHL1   H2A 8448   4.055   6.399   7.024  0.8576 -0.1955  1.4795
   81CHL1   H2B 8449   3.913   6.320   6.965  1.0598  3.4652 -0.8848
   81CHL1   C20 8450   3.705   5.926   7.845  0.3099 -0.4224  0.3989
   81CHL1   H20 8451   3.598   5.911   7.818  0.0753  0.3387  0.8778
   81CHL1   C21 8452   3.711   6.077   7.883 -0.4658 -0.1759 -0.1291
   81CHL1  H21A 8453   3.815   6.107   7.858 -1.0675  0.4779 -2.1000
   81CHL1  H21B 8454   3.678   6.093   7.987  0.7072 -0.7029  0.3417
   81CHL1  H21C 8455   3.650   6.135   7.811  2.2029  1.7042 -1.0429
   81CHL1   C22 8456   3.738   5.838   7.967  0.2875  0.1525  0.7185
   81CHL1  H22A 8457   3.710   5.737   7.930  1.9736  0.4447 -1.5695
   81CHL1  H22B 8458   3.849   5.840   7.981  0.5039 -2.0925 -0.2541
   81CHL1   C23 8459   3.674   5.873   8.104  0.0569  0.4879  0.2846
   81CHL1  H23A 8460   3.712   5.970   8.143  1.6221 -0.9361  2.5265
   81CHL1  H23B 8461   3.564   5.892   8.098 -0.0881  0.4858  2.2489
   81CHL1   C24 8462   3.700   5.753   8.191  0.1238  0.0944 -0.1956
   81CHL1  H24A 8463   3.637   5.678   8.140  0.2100  0.2411 -0.5172
   81CHL1  H24B 8464   3.807   5.724   8.185  0.9106  2.4404  1.1213
   81CHL1   C25 8465   3.675   5.763   8.347 -0.9561  0.5561 -0.1684
   81CHL1   H25 8466   3.756   5.825   8.390  0.5771 -0.2869 -1.6974
   81CHL1   C26 8467   3.549   5.837   8.389  0.4514  1.0694  0.2533
   81CHL1  H26A 8468   3.535   5.937   8.343 -1.1021  0.7015 -0.1510
   81CHL1  H26B 8469   3.455   5.778   8.381  1.3245 -0.3191 -0.0974
   81CHL1  H26C 8470   3.556   5.864   8.497 -0.8394 -2.0285  1.2423
   81CHL1   C27 8471   3.673   5.623   8.420 -0.1593  0.1857  1.1572
   81CHL1  H27A 8472   3.668   5.640   8.530 -3.5782 -0.6526  1.2594
   81CHL1  H27B 8473   3.589   5.563   8.380  0.8531 -0.0219 -0.7827
   81CHL1  H27C 8474   3.765   5.574   8.383  0.0485  0.6471  1.0608
   82CHL1    C3 8475   5.035   1.430   7.414 -0.3754  1.0324  0.4108
   82CHL1    H3 8476   4.981   1.345   7.462  0.1326 -0.0004 -0.8179
   82CHL1    O3 8477   5.051   1.384   7.279  0.0555  0.6816 -0.1893
   82CHL1   H3' 8478   5.084   1.454   7.221  0.0086 -1.0406 -2.4105
   82CHL1    C4 8479   4.954   1.561   7.420 -0.5007 -0.0697 -0.5159
   82CHL1   H4A 8480   5.001   1.641   7.359 -0.4750 -0.2254 -0.7009
   82CHL1   H4B 8481   4.858   1.546   7.365 -0.2767 -1.0477 -0.6637
   82CHL1    C5 8482   4.945   1.616   7.565 -0.7989  0.5841  0.5076
   82CHL1    C6 8483   4.822   1.646   7.603  0.4469 -0.9607 -1.2621
   82CHL1    H6 8484   4.738   1.637   7.533 -0.4112 -1.0496 -0.2499
   82CHL1    C7 8485   4.788   1.668   7.748 -1.0155 -0.6619 -0.0448
   82CHL1   H7A 8486   4.703   1.739   7.756  0.1303  0.6871  0.7537
   82CHL1   H7B 8487   4.746   1.574   7.790 -2.0940 -0.3183 -0.3086
   82CHL1    C8 8488   4.918   1.711   7.826 -0.0757  0.3167 -0.3373
   82CHL1    H8 8489   4.947   1.814   7.796  0.4006  0.0735 -0.7486
   82CHL1   C14 8490   4.887   1.702   7.984 -0.4290  0.7241  0.5482
   82CHL1   H14 8491   4.857   1.596   8.000 -1.3173  0.6836 -1.2062
   82CHL1   C15 8492   4.765   1.778   8.034  0.0483  0.2627  0.3970
   82CHL1  H15A 8493   4.763   1.876   7.982 -1.8269  0.0074 -0.0569
   82CHL1  H15B 8494   4.685   1.707   8.007  0.1777 -0.2270  1.2752
   82CHL1   C16 8495   4.782   1.789   8.180 -0.3202 -0.7480 -0.4790
   82CHL1  H16A 8496   4.784   1.893   8.219  3.0831 -0.8604 -0.1247
   82CHL1  H16B 8497   4.698   1.727   8.217  0.6298 -0.6743  2.0079
   82CHL1   C17 8498   4.925   1.735   8.213 -0.4395  0.3017 -0.1025
   82CHL1   H17 8499   4.915   1.629   8.243 -1.4195  0.2133 -0.6876
   82CHL1   C13 8500   5.004   1.731   8.079  0.0551 -0.0984  0.6640
   82CHL1   C18 8501   5.052   1.877   8.045  0.0366  0.2374 -0.2190
   82CHL1  H18A 8502   5.123   1.905   8.126 -0.5307  0.3954  0.2267
   82CHL1  H18B 8503   5.113   1.879   7.951 -0.8000 -1.7669 -0.8573
   82CHL1  H18C 8504   4.978   1.960   8.046 -0.7651 -0.4664 -0.1263
   82CHL1   C12 8505   5.107   1.620   8.051 -0.4751 -0.8958 -0.3446
   82CHL1  H12A 8506   5.193   1.650   8.114 -0.7947  1.1299 -0.7817
   82CHL1  H12B 8507   5.066   1.519   8.070 -1.9342 -0.4570 -0.9962
   82CHL1   C11 8508   5.145   1.632   7.906 -0.5080 -0.2006 -0.2965
   82CHL1  H11A 8509   5.211   1.718   7.882 -0.6512  0.1134  0.3987
   82CHL1  H11B 8510   5.213   1.547   7.883 -0.1175  0.1931 -0.6011
   82CHL1    C9 8511   5.025   1.617   7.805  0.0065 -0.1773  0.0998
   82CHL1    H9 8512   4.986   1.515   7.826  3.4658 -1.7106 -0.2517
   82CHL1   C10 8513   5.070   1.608   7.653 -0.2164 -0.0855  0.1121
   82CHL1   C19 8514   5.160   1.728   7.617 -0.2514 -0.1639  0.2833
   82CHL1  H19A 8515   5.262   1.718   7.660 -0.5163  0.3884  1.0596
   82CHL1  H19B 8516   5.166   1.749   7.508 -0.3715 -1.1701  0.0685
   82CHL1  H19C 8517   5.121   1.824   7.656 -0.2836  0.1769 -0.5634
   82CHL1    C1 8518   5.146   1.471   7.625 -0.1168 -0.4807 -0.2936
   82CHL1   H1A 8519   5.246   1.489   7.670  0.8253  0.9014 -2.7497
   82CHL1   H1B 8520   5.094   1.381   7.666 -0.3007 -0.6408 -0.8681
   82CHL1    C2 8521   5.170   1.443   7.481 -1.1013 -0.1794  0.4597
   82CHL1   H2A 8522   5.238   1.358   7.457  1.1573  1.3089  1.3053
   82CHL1   H2B 8523   5.216   1.536   7.442 -0.9728 -0.0187  0.9831
   82CHL1   C20 8524   4.988   1.817   8.334  0.4437 -0.0666 -0.5776
   82CHL1   H20 8525   4.981   1.927   8.316 -1.1038  0.5416  2.8947
   82CHL1   C21 8526   5.130   1.774   8.359  0.0456  0.3574  0.2869
   82CHL1  H21A 8527   5.128   1.667   8.390  1.1185 -0.0422 -0.9196
   82CHL1  H21B 8528   5.172   1.843   8.434  1.4966  1.8753 -1.8286
   82CHL1  H21C 8529   5.192   1.775   8.267  0.1481  0.2262  0.3544
   82CHL1   C22 8530   4.898   1.801   8.462 -0.0954  0.3006 -0.3214
   82CHL1  H22A 8531   4.789   1.786   8.445 -0.2788 -1.9103  2.1210
   82CHL1  H22B 8532   4.934   1.709   8.513  2.2325  0.5597 -1.3941
   82CHL1   C23 8533   4.927   1.916   8.572 -0.0637  0.1104  0.5158
   82CHL1  H23A 8534   5.023   1.902   8.627 -0.2481 -3.2561  0.1713
   82CHL1  H23B 8535   4.932   2.010   8.512  0.1742 -0.0370  0.3038
   82CHL1   C24 8536   4.819   1.922   8.681 -0.1233  0.0110 -0.0967
   82CHL1  H24A 8537   4.720   1.913   8.631  0.4759 -0.3854 -1.2466
   82CHL1  H24B 8538   4.825   1.824   8.732  0.2313  1.0404  1.9266
   82CHL1   C25 8539   4.804   2.036   8.786 -1.0343 -0.2751 -0.3705
   82CHL1   H25 8540   4.751   2.118   8.733 -0.7885 -0.5521 -1.0673
   82CHL1   C26 8541   4.712   1.995   8.907 -0.0806  0.5123 -0.7609
   82CHL1  H26A 8542   4.762   1.924   8.977 -1.9354 -0.0187  0.0684
   82CHL1  H26B 8543   4.685   2.086   8.965 -0.9851 -1.2608  1.8030
   82CHL1  H26C 8544   4.616   1.954   8.870  0.2347  1.2857 -2.5139
   82CHL1   C27 8545   4.938   2.082   8.842 -0.1559  0.1752 -0.6955
   82CHL1  H27A 8546   4.981   1.997   8.899  0.9972  1.2077  0.0045
   82CHL1  H27B 8547   5.010   2.121   8.767  1.8732  1.1110  1.5955
   82CHL1  H27C 8548   4.919   2.172   8.904 -0.7188 -0.6144  0.3259
   83CHL1    C3 8549   5.928   0.263   6.944  0.1147  0.3921 -0.5234
   83CHL1    H3 8550   6.033   0.260   6.980 -0.2948 -1.2821  0.6505
   83CHL1    O3 8551   5.918   0.262   6.804 -0.1595 -0.2741 -0.2874
   83CHL1   H3' 8552   5.824   0.260   6.781 -1.1511  1.0321  2.9927
   83CHL1    C4 8553   5.860   0.137   7.004  0.3137 -0.3215 -0.1844
   83CHL1   H4A 8554   5.755   0.127   6.970  0.3099 -1.4830  0.1229
   83CHL1   H4B 8555   5.911   0.052   6.952 -0.8800 -2.2650  1.6763
   83CHL1    C5 8556   5.859   0.123   7.154 -0.7608 -0.0779 -0.1204
   83CHL1    C6 8557   5.917   0.017   7.218  0.3709 -0.8769  0.2289
   83CHL1    H6 8558   5.956  -0.057   7.146  0.7691  0.5065 -1.0236
   83CHL1    C7 8559   5.922   0.005   7.365  0.2116 -0.1691  0.0122
   83CHL1   H7A 8560   5.908  -0.099   7.400  1.1795 -0.7570 -1.2746
   83CHL1   H7B 8561   6.025   0.032   7.397 -0.1075 -0.8010  1.6440
   83CHL1    C8 8562   5.837   0.110   7.441  0.3947  0.0141 -0.4080
   83CHL1    H8 8563   5.728   0.092   7.438  0.2620  0.2341  1.6187
   83CHL1   C14 8564   5.882   0.115   7.588 -0.5912  0.2605 -0.2043
   83CHL1   H14 8565   5.986   0.150   7.576 -0.6179  0.1784 -0.6846
   83CHL1   C15 8566   5.885  -0.015   7.666  0.0711 -0.5843 -0.1469
   83CHL1  H15A 8567   5.795  -0.077   7.649 -0.2520 -0.0114 -0.5232
   83CHL1  H15B 8568   5.976  -0.072   7.636  1.7417  1.6565  0.4531
   83CHL1   C16 8569   5.887   0.029   7.813 -0.4351  0.1884  0.3445
   83CHL1  H16A 8570   5.807  -0.020   7.873 -0.9361 -1.2334 -1.3658
   83CHL1  H16B 8571   5.984  -0.010   7.850 -0.3415 -0.3180 -0.3952
   83CHL1   C17 8572   5.872   0.189   7.811  0.4592 -0.3781 -0.6615
   83CHL1   H17 8573   5.975   0.229   7.803  0.6302 -0.9765 -1.6065
   83CHL1   C13 8574   5.811   0.220   7.670 -0.0720 -1.1353  0.0955
   83CHL1   C18 8575   5.664   0.187   7.678  0.3731 -0.4211  0.0462
   83CHL1  H18A 8576   5.654   0.099   7.744 -0.3160 -1.7159 -1.7240
   83CHL1  H18B 8577   5.612   0.277   7.718 -0.4184  0.3179 -2.4651
   83CHL1  H18C 8578   5.608   0.174   7.583 -1.6280  4.1005  0.3178
   83CHL1   C12 8579   5.829   0.356   7.608 -0.2075  0.5384 -0.0804
   83CHL1  H12A 8580   5.757   0.422   7.660  0.7952 -0.3709  2.6358
   83CHL1  H12B 8581   5.932   0.397   7.607  0.5021 -0.9130 -3.6569
   83CHL1   C11 8582   5.789   0.362   7.457  0.4677 -0.5124  0.6582
   83CHL1  H11A 8583   5.678   0.358   7.443  0.6146 -1.7154 -0.4115
   83CHL1  H11B 8584   5.819   0.460   7.415 -1.6805  0.9068  2.2363
   83CHL1    C9 8585   5.849   0.247   7.370  0.3227  0.1617  0.7735
   83CHL1    H9 8586   5.959   0.265   7.366  0.4827 -0.9494 -1.3640
   83CHL1   C10 8587   5.806   0.246   7.221  0.3610 -0.1918  0.2704
   83CHL1   C19 8588   5.648   0.245   7.223 -0.5776  0.0107 -0.0949
   83CHL1  H19A 8589   5.607   0.181   7.304  0.7117  0.1158  0.6655
   83CHL1  H19B 8590   5.619   0.351   7.241  3.1755  1.0022  1.0436
   83CHL1  H19C 8591   5.608   0.223   7.122 -1.9647  1.5842  0.0734
   83CHL1    C1 8592   5.870   0.375   7.151  1.0332  0.8662 -0.3057
   83CHL1   H1A 8593   5.810   0.459   7.193 -0.2469 -1.3334  2.5267
   83CHL1   H1B 8594   5.976   0.387   7.183  1.8726 -4.0082 -0.5487
   83CHL1    C2 8595   5.852   0.379   6.992 -0.1626 -0.1102  0.5294
   83CHL1   H2A 8596   5.897   0.477   6.964  0.8155 -0.8430 -0.5552
   83CHL1   H2B 8597   5.747   0.373   6.955  0.0405 -3.6485  0.1576
   83CHL1   C20 8598   5.810   0.241   7.943  0.2457  0.9316  0.0713
   83CHL1   H20 8599   5.713   0.190   7.960  0.8627 -0.3543 -0.1636
   83CHL1   C21 8600   5.793   0.396   7.940 -0.4649  0.2010 -0.2890
   83CHL1  H21A 8601   5.891   0.447   7.928 -0.2375 -0.1466  0.0774
   83CHL1  H21B 8602   5.737   0.433   8.028  1.3028 -1.5802  1.7145
   83CHL1  H21C 8603   5.727   0.435   7.859 -0.2662 -0.4473 -0.7694
   83CHL1   C22 8604   5.898   0.194   8.064  0.4129 -0.1273 -0.2538
   83CHL1  H22A 8605   5.904   0.084   8.056 -3.9408 -0.6262  0.5921
   83CHL1  H22B 8606   5.993   0.250   8.052  0.0755  0.3757 -0.6012
   83CHL1   C23 8607   5.824   0.231   8.203 -0.0570  0.2097  0.0230
   83CHL1  H23A 8608   5.832   0.340   8.224 -1.8558  0.3080  0.3524
   83CHL1  H23B 8609   5.717   0.208   8.182  0.1559  0.9763 -2.1445
   83CHL1   C24 8610   5.887   0.151   8.316 -0.9617  0.7253 -0.0692
   83CHL1  H24A 8611   5.892   0.044   8.284 -0.7577  1.1067 -1.3875
   83CHL1  H24B 8612   5.993   0.182   8.329 -0.3473 -0.4889 -1.7253
   83CHL1   C25 8613   5.810   0.160   8.451 -0.4500  0.2908  0.9479
   83CHL1   H25 8614   5.718   0.105   8.423  0.8655 -1.1700 -0.7677
   83CHL1   C26 8615   5.866   0.067   8.553 -0.1112  0.1086  0.1834
   83CHL1  H26A 8616   5.916  -0.015   8.496 -0.1701 -0.0288  0.3277
   83CHL1  H26B 8617   5.949   0.112   8.611 -1.1493  1.4638  0.6585
   83CHL1  H26C 8618   5.786   0.026   8.618 -0.2904  1.8473  1.0982
   83CHL1   C27 8619   5.797   0.308   8.508  0.4672  0.0068 -0.0857
   83CHL1  H27A 8620   5.898   0.347   8.532 -0.4738  1.2111  2.2121
   83CHL1  H27B 8621   5.736   0.368   8.438  1.4748 -2.6975 -3.6243
   83CHL1  H27C 8622   5.750   0.295   8.608  1.3865 -1.4162  0.2083
   84CHL1    C3 8623   2.005   0.785   6.914 -0.1356 -0.3102 -0.1696
   84CHL1    H3 8624   2.052   0.867   6.972 -0.6849 -0.5466  0.6309
   84CHL1    O3 8625   2.060   0.769   6.789  0.3368 -0.4559  0.1839
   84CHL1   H3' 8626   2.075   0.857   6.752  1.1669 -0.4604  0.5017
   84CHL1    C4 8627   2.014   0.656   7.002  0.1467  0.5366 -0.7098
   84CHL1   H4A 8628   1.952   0.570   6.969 -0.0981  0.2278  0.5116
   84CHL1   H4B 8629   2.120   0.623   7.001 -0.9852 -3.6310 -2.1402
   84CHL1    C5 8630   1.968   0.673   7.144 -0.4669  0.1913  0.5274
   84CHL1    C6 8631   2.049   0.655   7.247 -0.1106  0.1167  0.4247
   84CHL1    H6 8632   2.145   0.610   7.217 -1.0933 -3.2375  1.8776
   84CHL1    C7 8633   2.015   0.691   7.391  0.2308  0.4446 -0.1351
   84CHL1   H7A 8634   2.023   0.601   7.456 -0.4929 -1.5558 -2.6192
   84CHL1   H7B 8635   2.083   0.769   7.431 -0.6453  1.4883 -0.6236
   84CHL1    C8 8636   1.875   0.736   7.417  0.2106 -0.0577  0.0565
   84CHL1    H8 8637   1.818   0.642   7.429 -0.5163  0.5458  1.4423
   84CHL1   C14 8638   1.873   0.814   7.549  0.1616  0.3226 -0.1660
   84CHL1   H14 8639   1.950   0.894   7.541  0.2431  0.1942 -0.7252
   84CHL1   C15 8640   1.918   0.744   7.680  0.2042  0.1016  0.1342
   84CHL1  H15A 8641   1.878   0.640   7.681  1.2824 -0.3260 -0.3755
   84CHL1  H15B 8642   2.025   0.721   7.695  0.0089 -1.6862 -0.9399
   84CHL1   C16 8643   1.860   0.821   7.793 -1.3019  0.3218  0.8767
   84CHL1  H16A 8644   1.785   0.755   7.842 -1.2070 -1.1976 -0.8770
   84CHL1  H16B 8645   1.933   0.859   7.866 -2.0132 -0.4814  2.0365
   84CHL1   C17 8646   1.782   0.944   7.723 -0.4848  0.5118  0.7530
   84CHL1   H17 8647   1.850   1.028   7.695  0.6780 -0.7556 -0.3645
   84CHL1   C13 8648   1.738   0.881   7.587  0.8781  0.1409 -0.2717
   84CHL1   C18 8649   1.630   0.773   7.606  0.3845 -0.4491  0.0325
   84CHL1  H18A 8650   1.610   0.713   7.515  2.2165  0.5680 -1.1120
   84CHL1  H18B 8651   1.652   0.707   7.692 -0.9386 -0.5358  0.3240
   84CHL1  H18C 8652   1.533   0.817   7.638 -0.0530 -0.8308 -0.7231
   84CHL1   C12 8653   1.706   0.973   7.469 -0.4040 -0.3764 -0.3683
   84CHL1  H12A 8654   1.606   1.014   7.492  0.3464  0.7607  0.9850
   84CHL1  H12B 8655   1.779   1.057   7.462 -1.7292  0.8999  0.5997
   84CHL1   C11 8656   1.691   0.889   7.334  0.5751  0.4008  0.3407
   84CHL1  H11A 8657   1.609   0.814   7.332  1.5963 -0.7677  0.6941
   84CHL1  H11B 8658   1.673   0.957   7.248 -2.7909 -1.0050 -0.1997
   84CHL1    C9 8659   1.826   0.822   7.303 -0.4867 -0.1357  0.0203
   84CHL1    H9 8660   1.896   0.908   7.298 -1.4383  0.7116  0.8277
   84CHL1   C10 8661   1.836   0.748   7.167  0.2840  0.2754 -0.0046
   84CHL1   C19 8662   1.726   0.643   7.153  0.3974  0.3567  0.2528
   84CHL1  H19A 8663   1.631   0.692   7.183  0.6737  0.1937  1.4424
   84CHL1  H19B 8664   1.722   0.604   7.049 -1.5751  0.4073  0.2642
   84CHL1  H19C 8665   1.752   0.554   7.214 -1.7286 -0.7597 -0.3621
   84CHL1    C1 8666   1.807   0.857   7.056 -0.9956  0.3796 -0.3123
   84CHL1   H1A 8667   1.700   0.885   7.058 -1.4554 -1.3104  1.8663
   84CHL1   H1B 8668   1.860   0.951   7.080  1.3018 -0.5065 -1.5977
   84CHL1    C2 8669   1.850   0.818   6.909 -0.0988  0.3630 -0.6150
   84CHL1   H2A 8670   1.842   0.899   6.833 -0.0839  0.5933 -0.3699
   84CHL1   H2B 8671   1.795   0.731   6.866  0.9999  0.4936 -2.4221
   84CHL1   C20 8672   1.678   0.996   7.818 -0.1800 -0.1746 -0.5303
   84CHL1   H20 8673   1.601   0.920   7.844  0.6846 -0.4669  1.3452
   84CHL1   C21 8674   1.618   1.130   7.769 -0.5556  0.1105  0.7233
   84CHL1  H21A 8675   1.567   1.107   7.673 -0.6735 -1.2596  1.1039
   84CHL1  H21B 8676   1.697   1.206   7.751 -1.9361  1.5679  0.6209
   84CHL1  H21C 8677   1.538   1.169   7.835  0.4020  2.3917  0.6532
   84CHL1   C22 8678   1.740   1.033   7.961 -0.5547 -1.0183 -0.5603
   84CHL1  H22A 8679   1.800   0.946   7.993  0.5262 -0.5950 -1.3769
   84CHL1  H22B 8680   1.815   1.113   7.944 -0.0714 -1.2421  0.4371
   84CHL1   C23 8681   1.637   1.068   8.062  0.2107 -0.3085 -0.5867
   84CHL1  H23A 8682   1.590   1.168   8.045 -1.1833 -0.6951  0.8328
   84CHL1  H23B 8683   1.554   0.995   8.074  1.9527 -2.1612  0.9102
   84CHL1   C24 8684   1.692   1.091   8.201  0.0237  0.9616 -0.0152
   84CHL1  H24A 8685   1.727   0.992   8.237 -0.8494  0.3626 -0.7856
   84CHL1  H24B 8686   1.786   1.151   8.196  1.2963 -0.9311  0.1154
   84CHL1   C25 8687   1.598   1.146   8.307 -0.0064  0.0696 -0.1811
   84CHL1   H25 8688   1.582   1.256   8.299 -0.2510  0.0048 -0.6514
   84CHL1   C26 8689   1.461   1.080   8.295  0.3746  0.4018 -0.0965
   84CHL1  H26A 8690   1.403   1.123   8.211  1.2132  2.7446  0.4546
   84CHL1  H26B 8691   1.465   0.970   8.280 -0.4177  0.4024 -0.3627
   84CHL1  H26C 8692   1.408   1.116   8.386  1.5827  1.5192  0.1988
   84CHL1   C27 8693   1.661   1.123   8.444  0.0390  0.1016 -0.0522
   84CHL1  H27A 8694   1.757   1.178   8.445  0.2473 -0.1750 -1.5715
   84CHL1  H27B 8695   1.599   1.159   8.529  0.6926  1.9721 -0.3162
   84CHL1  H27C 8696   1.689   1.017   8.461  2.1416  0.7949  1.0452
   85CHL1    C3 8697   1.325   0.814   6.760 -0.0889  0.1537 -0.2293
   85CHL1    H3 8698   1.360   0.713   6.789 -1.5800 -0.7352 -1.3501
   85CHL1    O3 8699   1.325   0.837   6.616  0.4993 -0.1617 -0.3805
   85CHL1   H3' 8700   1.259   0.905   6.602  0.1783 -0.1733  0.8780
   85CHL1    C4 8701   1.180   0.825   6.818  0.0972  0.3187 -0.1098
   85CHL1   H4A 8702   1.137   0.925   6.794  0.8785  1.1256  1.6141
   85CHL1   H4B 8703   1.124   0.747   6.763  1.3374 -1.2201  0.7148
   85CHL1    C5 8704   1.171   0.811   6.970 -1.1853  0.4999 -0.2597
   85CHL1    C6 8705   1.098   0.716   7.030 -0.2199  0.2890 -0.5503
   85CHL1    H6 8706   1.034   0.648   6.972 -0.3521 -0.0350 -0.0298
   85CHL1    C7 8707   1.063   0.715   7.172  0.1984  0.1220 -0.1169
   85CHL1   H7A 8708   0.953   0.708   7.187 -0.1600  0.2435 -2.4154
   85CHL1   H7B 8709   1.095   0.617   7.213 -0.1336  0.0553 -0.0095
   85CHL1    C8 8710   1.118   0.843   7.257 -0.7469  0.3501 -0.3216
   85CHL1    H8 8711   1.055   0.935   7.246  0.9371  1.4780 -0.8698
   85CHL1   C14 8712   1.121   0.815   7.405 -0.4100  0.4870 -0.2813
   85CHL1   H14 8713   1.195   0.732   7.409 -0.1707  0.6763 -0.6897
   85CHL1   C15 8714   0.988   0.765   7.474 -0.8410 -0.1464  0.2829
   85CHL1  H15A 8715   0.908   0.839   7.451 -0.3316  0.2969 -0.0670
   85CHL1  H15B 8716   0.953   0.663   7.449 -2.5803  0.4692  0.0321
   85CHL1   C16 8717   1.009   0.793   7.624  0.4791  0.2082 -0.1244
   85CHL1  H16A 8718   0.926   0.857   7.661 -0.9798 -1.0978 -1.0217
   85CHL1  H16B 8719   1.005   0.695   7.676 -0.7722  0.8768  1.1417
   85CHL1   C17 8720   1.145   0.862   7.631 -0.7059 -0.5070 -0.2475
   85CHL1   H17 8721   1.214   0.778   7.654  0.2633  0.7176  1.6936
   85CHL1   C13 8722   1.175   0.925   7.487  0.9593  0.9725 -0.1152
   85CHL1   C18 8723   1.078   1.045   7.479 -0.3085 -0.0578  0.2598
   85CHL1  H18A 8724   1.128   1.124   7.541 -0.8544 -0.6251  1.4578
   85CHL1  H18B 8725   1.077   1.085   7.376  0.6233  1.4126  0.7820
   85CHL1  H18C 8726   0.974   1.027   7.514 -0.4078  0.4530  0.2379
   85CHL1   C12 8727   1.322   0.943   7.437 -0.8172 -0.0192  0.0247
   85CHL1  H12A 8728   1.362   1.025   7.501 -0.4836 -0.4332  0.3496
   85CHL1  H12B 8729   1.383   0.851   7.449 -0.9508 -0.0508  0.4944
   85CHL1   C11 8730   1.335   0.980   7.291  0.6377 -0.0048 -0.3895
   85CHL1  H11A 8731   1.283   1.078   7.281 -2.2110 -1.3157  0.3453
   85CHL1  H11B 8732   1.438   1.003   7.257  2.0016  1.7875  4.1311
   85CHL1    C9 8733   1.257   0.877   7.203  0.5459 -0.3786 -0.2969
   85CHL1    H9 8734   1.316   0.783   7.201 -0.3524 -0.9393 -1.5182
   85CHL1   C10 8735   1.252   0.912   7.048 -0.0336 -0.2774 -0.0615
   85CHL1   C19 8736   1.213   1.056   7.029  0.5107  0.3769  0.2840
   85CHL1  H19A 8737   1.179   1.073   6.924 -1.9565 -0.1028  0.9636
   85CHL1  H19B 8738   1.133   1.087   7.099 -0.4236  1.3898 -1.1683
   85CHL1  H19C 8739   1.301   1.120   7.053 -0.0614  1.6901 -0.9683
   85CHL1    C1 8740   1.398   0.893   6.991 -0.4621 -0.4086 -0.0814
   85CHL1   H1A 8741   1.471   0.963   7.038 -0.0233 -1.2777  0.5680
   85CHL1   H1B 8742   1.441   0.793   7.011  2.4178  0.4429 -1.3457
   85CHL1    C2 8743   1.407   0.913   6.837 -0.2003  0.0783 -0.0510
   85CHL1   H2A 8744   1.508   0.894   6.795 -0.2263 -1.1193  0.3735
   85CHL1   H2B 8745   1.392   1.016   6.799  1.9652  0.6002  0.4104
   85CHL1   C20 8746   1.153   0.953   7.756  0.0528 -0.1135 -0.5996
   85CHL1   H20 8747   1.068   1.024   7.745  0.9827  0.7044 -3.5633
   85CHL1   C21 8748   1.279   1.033   7.769 -0.7220  0.2397  0.1907
   85CHL1  H21A 8749   1.305   1.103   7.687  0.7595  1.3342  1.5189
   85CHL1  H21B 8750   1.362   0.959   7.778 -2.5152 -1.6451  2.6105
   85CHL1  H21C 8751   1.269   1.102   7.855 -1.9384 -0.6357  0.7771
   85CHL1   C22 8752   1.131   0.876   7.885 -0.3458  0.2024 -0.9830
   85CHL1  H22A 8753   1.026   0.842   7.878 -0.4527  0.8522 -3.4968
   85CHL1  H22B 8754   1.191   0.784   7.874 -0.5939 -0.1613  0.4180
   85CHL1   C23 8755   1.162   0.942   8.022 -0.2314  0.3274 -0.0958
   85CHL1  H23A 8756   1.270   0.969   8.027  0.1861 -1.1391 -0.4170
   85CHL1  H23B 8757   1.096   1.030   8.027  1.0096  1.2873 -0.1589
   85CHL1   C24 8758   1.158   0.846   8.154 -0.5057  0.3218  0.4805
   85CHL1  H24A 8759   1.080   0.770   8.130  1.0928 -0.9521 -0.9443
   85CHL1  H24B 8760   1.253   0.789   8.160 -0.0835  0.7879 -1.1670
   85CHL1   C25 8761   1.144   0.920   8.286 -0.0167  0.0056  0.1253
   85CHL1   H25 8762   1.210   1.010   8.287 -2.0532  1.5898  2.0155
   85CHL1   C26 8763   0.997   0.958   8.300  0.1854  0.4500  0.2762
   85CHL1  H26A 8764   0.977   1.022   8.388  2.6032  0.3873  0.9308
   85CHL1  H26B 8765   0.972   1.016   8.209  0.0453  0.0589  0.0588
   85CHL1  H26C 8766   0.934   0.867   8.315  0.3659 -0.1063 -2.0179
   85CHL1   C27 8767   1.200   0.829   8.401 -0.1731  0.2282 -0.0802
   85CHL1  H27A 8768   1.293   0.780   8.365 -0.6927 -2.7387  2.2700
   85CHL1  H27B 8769   1.227   0.894   8.487 -0.5189  0.4701 -0.1546
   85CHL1  H27C 8770   1.131   0.746   8.425  0.9788 -0.7268  0.0276
   86CHL1    C3 8771   4.869   3.887   6.969  0.2978  0.5110  0.3577
   86CHL1    H3 8772   4.944   3.965   6.947  0.2956  0.7021  1.0023
   86CHL1    O3 8773   4.813   3.863   6.841  0.4495  0.0155  0.5266
   86CHL1   H3' 8774   4.737   3.810   6.867 -0.8290  1.3482 -0.3172
   86CHL1    C4 8775   4.938   3.757   7.019  0.2966  0.1371 -0.2450
   86CHL1   H4A 8776   4.870   3.669   7.029  1.4172 -1.0609 -2.4366
   86CHL1   H4B 8777   5.014   3.733   6.942  2.7383 -0.3831  2.1708
   86CHL1    C5 8778   5.001   3.792   7.159  0.6200  0.2060 -0.3874
   86CHL1    C6 8779   5.129   3.781   7.175  0.1819 -0.1178 -0.8754
   86CHL1    H6 8780   5.192   3.752   7.090  3.9738 -0.2369  1.6963
   86CHL1    C7 8781   5.198   3.808   7.306  1.2003  0.1496  0.8907
   86CHL1   H7A 8782   5.254   3.714   7.323 -0.6459 -1.2827 -0.5466
   86CHL1   H7B 8783   5.256   3.903   7.303  0.4614  0.6345 -2.9071
   86CHL1    C8 8784   5.102   3.814   7.420  0.0715  0.5717 -0.3292
   86CHL1    H8 8785   5.057   3.717   7.450 -0.6124  1.6041  2.2267
   86CHL1   C14 8786   5.173   3.875   7.541 -0.2662 -0.6180 -0.1843
   86CHL1   H14 8787   5.187   3.981   7.512 -0.1956 -0.0143  1.8582
   86CHL1   C15 8788   5.317   3.826   7.580  0.1939 -0.1132  0.1169
   86CHL1  H15A 8789   5.322   3.715   7.570 -0.5109 -0.1084 -0.4291
   86CHL1  H15B 8790   5.401   3.875   7.527  0.0349 -0.1191 -0.1468
   86CHL1   C16 8791   5.321   3.849   7.739 -0.0225  0.2284  0.4506
   86CHL1  H16A 8792   5.318   3.747   7.782 -0.3986 -1.1377 -2.5896
   86CHL1  H16B 8793   5.422   3.880   7.773  1.1143  0.0433 -2.4298
   86CHL1   C17 8794   5.198   3.930   7.772 -0.1115  0.2298  0.7092
   86CHL1   H17 8795   5.234   4.033   7.748  0.4402  0.4159  2.2149
   86CHL1   C13 8796   5.087   3.889   7.669  0.1642  0.0464  0.9461
   86CHL1   C18 8797   5.035   3.749   7.710  0.6256  0.5665  0.0438
   86CHL1  H18A 8798   4.965   3.703   7.638 -0.0917  0.1600  0.9747
   86CHL1  H18B 8799   5.118   3.676   7.722 -0.2183 -0.2385  1.2413
   86CHL1  H18C 8800   4.986   3.750   7.810  3.1217  1.0406  1.3468
   86CHL1   C12 8801   4.970   3.984   7.632 -0.0152  0.0474  0.5339
   86CHL1  H12A 8802   4.911   3.989   7.726  0.0045 -1.8089  0.6864
   86CHL1  H12B 8803   4.996   4.089   7.608 -4.2012  0.5777 -2.8152
   86CHL1   C11 8804   4.886   3.937   7.510 -1.0348  0.0976 -0.6036
   86CHL1  H11A 8805   4.831   3.852   7.554  1.9886 -1.2361  0.8534
   86CHL1  H11B 8806   4.821   4.019   7.471  3.0273  2.2393 -3.7620
   86CHL1    C9 8807   4.981   3.907   7.383  0.4692 -0.2382  1.0089
   86CHL1    H9 8808   5.028   4.003   7.353  0.6335  0.1663  2.4821
   86CHL1   C10 8809   4.895   3.852   7.262 -0.2267 -0.6347  0.7201
   86CHL1   C19 8810   4.799   3.747   7.311 -0.0875 -0.0230 -0.4791
   86CHL1  H19A 8811   4.705   3.790   7.353  1.2123  1.0057  1.5175
   86CHL1  H19B 8812   4.760   3.695   7.221 -1.9426  2.7974 -1.4484
   86CHL1  H19C 8813   4.841   3.680   7.388 -1.0518  0.5116  0.5358
   86CHL1    C1 8814   4.820   3.970   7.188 -0.2635  0.4935 -0.7832
   86CHL1   H1A 8815   4.756   4.021   7.263  1.4300  0.1868  0.9647
   86CHL1   H1B 8816   4.899   4.047   7.170 -0.7982  1.8893  2.1333
   86CHL1    C2 8817   4.756   3.936   7.055 -0.3559 -0.3180  0.7363
   86CHL1   H2A 8818   4.708   4.025   7.009  1.2047  0.0583 -0.2318
   86CHL1   H2B 8819   4.682   3.856   7.078  0.5369 -1.8181 -1.3116
   86CHL1   C20 8820   5.158   3.949   7.923  0.6885  0.3957  0.3250
   86CHL1   H20 8821   5.047   3.959   7.920  0.8467  2.3784 -2.4828
   86CHL1   C21 8822   5.208   4.080   7.972 -0.2751 -0.6811 -0.6043
   86CHL1  H21A 8823   5.170   4.100   8.075 -2.6769 -1.4131 -1.2907
   86CHL1  H21B 8824   5.161   4.155   7.906 -0.4186 -0.2645 -0.0399
   86CHL1  H21C 8825   5.318   4.094   7.971 -0.4779  1.0938 -1.6568
   86CHL1   C22 8826   5.190   3.838   8.027 -0.0493  0.5789 -0.2670
   86CHL1  H22A 8827   5.188   3.738   7.978  2.9557  0.1485  0.3246
   86CHL1  H22B 8828   5.295   3.848   8.061 -0.2135 -2.0367  1.2397
   86CHL1   C23 8829   5.088   3.828   8.147  0.5317  0.2855 -0.5026
   86CHL1  H23A 8830   5.092   3.905   8.227 -1.1892 -0.1437  0.0465
   86CHL1  H23B 8831   4.986   3.839   8.105 -0.7645 -1.9038  1.8116
   86CHL1   C24 8832   5.108   3.694   8.217  0.4528 -0.1679  0.3823
   86CHL1  H24A 8833   5.129   3.613   8.144 -0.7296  0.5252 -0.7586
   86CHL1  H24B 8834   5.200   3.703   8.279  0.7710 -0.6502 -0.0092
   86CHL1   C25 8835   4.989   3.642   8.303  0.4483  0.2831 -0.2665
   86CHL1   H25 8836   4.956   3.731   8.361  0.1610  1.1933 -1.7609
   86CHL1   C26 8837   4.866   3.603   8.226  0.4116 -0.7262 -0.3158
   86CHL1  H26A 8838   4.827   3.688   8.167 -1.5781 -1.4948 -0.1805
   86CHL1  H26B 8839   4.878   3.522   8.151 -1.3122  0.4583 -1.9574
   86CHL1  H26C 8840   4.793   3.573   8.305  2.1357  0.0610  1.6927
   86CHL1   C27 8841   5.027   3.527   8.391 -0.2045  0.1478 -0.1427
   86CHL1  H27A 8842   4.948   3.509   8.468  1.2443 -0.6778  1.2109
   86CHL1  H27B 8843   5.030   3.432   8.333 -0.3376  0.3090 -0.4178
   86CHL1  H27C 8844   5.127   3.550   8.433 -0.2768  1.9099 -0.8383
   87CHL1    C3 8845   4.396   3.477   7.185  0.1219  0.4076  0.5840
   87CHL1    H3 8846   4.501   3.509   7.203  0.9646 -0.6905 -1.9422
   87CHL1    O3 8847   4.396   3.420   7.057  0.5581 -0.5794 -0.0872
   87CHL1   H3' 8848   4.397   3.497   7.000  1.3002  0.9448  1.8531
   87CHL1    C4 8849   4.349   3.373   7.290  0.2054  0.2113 -0.0448
   87CHL1   H4A 8850   4.256   3.326   7.251 -1.0874  0.2058  2.8008
   87CHL1   H4B 8851   4.423   3.290   7.286  1.2215  1.1044 -0.0190
   87CHL1    C5 8852   4.327   3.423   7.430 -0.2976  0.0652 -0.5055
   87CHL1    C6 8853   4.376   3.366   7.542 -0.3644  0.8558 -0.5248
   87CHL1    H6 8854   4.442   3.278   7.543  1.0028  1.8135  2.3234
   87CHL1    C7 8855   4.351   3.410   7.687 -0.6218 -0.0249 -0.1948
   87CHL1   H7A 8856   4.323   3.319   7.744  1.1717 -0.3974  0.1656
   87CHL1   H7B 8857   4.442   3.457   7.730 -0.3759 -0.0416 -0.6856
   87CHL1    C8 8858   4.242   3.516   7.695 -0.5235  0.4936 -0.1413
   87CHL1    H8 8859   4.148   3.456   7.698  0.6583 -1.4110  0.5860
   87CHL1   C14 8860   4.254   3.596   7.827 -0.4863  0.4728 -0.3127
   87CHL1   H14 8861   4.352   3.645   7.807  0.9872 -1.7987  0.8489
   87CHL1   C15 8862   4.269   3.520   7.961  0.1775  0.3647  0.3328
   87CHL1  H15A 8863   4.187   3.445   7.967  0.5780  0.0024  1.4914
   87CHL1  H15B 8864   4.366   3.470   7.979  0.2305  0.8816  1.5875
   87CHL1   C16 8865   4.237   3.621   8.073 -0.3556 -0.0157  0.0263
   87CHL1  H16A 8866   4.146   3.582   8.124  0.4551  1.3178  2.7089
   87CHL1  H16B 8867   4.314   3.634   8.152  0.3589 -0.1334 -0.6381
   87CHL1   C17 8868   4.196   3.753   7.998 -0.3205  0.2617  0.1544
   87CHL1   H17 8869   4.294   3.802   7.982  0.2232 -1.4807 -2.6335
   87CHL1   C13 8870   4.144   3.706   7.854 -0.1682 -0.4782 -0.0633
   87CHL1   C18 8871   4.013   3.647   7.861  0.4264 -0.0949 -0.3092
   87CHL1  H18A 8872   3.979   3.578   7.780  3.4027 -1.0817 -0.8555
   87CHL1  H18B 8873   4.002   3.584   7.952 -1.0181 -1.4090 -1.3248
   87CHL1  H18C 8874   3.942   3.732   7.852  0.7229 -0.0436 -3.1276
   87CHL1   C12 8875   4.156   3.809   7.737  0.2644  0.4404 -0.4308
   87CHL1  H12A 8876   4.069   3.878   7.729 -0.6728 -0.8000 -1.1669
   87CHL1  H12B 8877   4.254   3.862   7.743  0.7000 -0.5423  1.8487
   87CHL1   C11 8878   4.156   3.737   7.601  0.4238  0.2885  0.2169
   87CHL1  H11A 8879   4.049   3.705   7.595  0.8070 -0.8302 -0.9435
   87CHL1  H11B 8880   4.161   3.824   7.532 -1.5567  1.6224  1.6268
   87CHL1    C9 8881   4.249   3.613   7.582  0.4641 -0.5550  0.6297
   87CHL1    H9 8882   4.351   3.652   7.603  0.0511 -0.5237  2.8955
   87CHL1   C10 8883   4.243   3.548   7.442 -0.9565 -0.0089 -0.5427
   87CHL1   C19 8884   4.101   3.502   7.412  0.5472  1.1880 -0.5554
   87CHL1  H19A 8885   4.097   3.451   7.314  1.0695  1.3811 -0.6818
   87CHL1  H19B 8886   4.067   3.427   7.486  0.2166 -0.1640 -2.0331
   87CHL1  H19C 8887   4.025   3.583   7.411  0.2754  1.0106  1.5874
   87CHL1    C1 8888   4.294   3.647   7.337 -0.2001 -0.7467 -0.3270
   87CHL1   H1A 8889   4.232   3.739   7.336 -0.7038 -1.0712  0.5826
   87CHL1   H1B 8890   4.392   3.691   7.365  0.4364 -2.5802  0.4739
   87CHL1    C2 8891   4.304   3.596   7.188  0.4640 -0.7960  0.3211
   87CHL1   H2A 8892   4.334   3.686   7.130  1.7249 -0.7445  1.0165
   87CHL1   H2B 8893   4.202   3.570   7.152  0.1311  1.7089 -0.7519
   87CHL1   C20 8894   4.100   3.832   8.084 -0.8318 -0.2019 -0.2421
   87CHL1   H20 8895   3.997   3.792   8.080 -0.7373 -0.3728 -1.4887
   87CHL1   C21 8896   4.097   3.974   8.039 -0.1455  0.4201  0.4556
   87CHL1  H21A 8897   4.041   3.967   7.943 -4.1341 -1.4753  2.6765
   87CHL1  H21B 8898   4.197   4.018   8.019 -0.2133  1.0544  1.4280
   87CHL1  H21C 8899   4.038   4.038   8.107 -0.7668 -0.0104  0.3335
   87CHL1   C22 8900   4.141   3.848   8.235 -0.8751  0.2563 -0.4212
   87CHL1  H22A 8901   4.066   3.906   8.293 -1.2320 -2.6968  2.3189
   87CHL1  H22B 8902   4.130   3.746   8.278  1.3323  0.3317  0.4471
   87CHL1   C23 8903   4.284   3.902   8.262 -0.4310 -0.7261 -0.3974
   87CHL1  H23A 8904   4.354   3.838   8.203  2.9160  3.7913 -1.9902
   87CHL1  H23B 8905   4.288   4.005   8.219  0.2801 -1.4839 -2.2792
   87CHL1   C24 8906   4.332   3.907   8.405  0.0129  0.5058 -0.1907
   87CHL1  H24A 8907   4.434   3.948   8.398  0.0557  0.1231 -2.9781
   87CHL1  H24B 8908   4.281   3.978   8.474 -0.8357  0.4684 -0.7615
   87CHL1   C25 8909   4.355   3.770   8.480 -0.2465 -0.0855  0.1066
   87CHL1   H25 8910   4.268   3.704   8.459  0.2467 -0.4952 -0.6642
   87CHL1   C26 8911   4.473   3.691   8.424  0.7181  0.1233  0.7592
   87CHL1  H26A 8912   4.515   3.617   8.496  0.0853 -0.3290  0.6728
   87CHL1  H26B 8913   4.441   3.645   8.328 -1.5628  0.8091  1.1303
   87CHL1  H26C 8914   4.553   3.766   8.407  2.2380 -1.8817 -1.6642
   87CHL1   C27 8915   4.366   3.787   8.629  1.1977 -0.8521  0.1279
   87CHL1  H27A 8916   4.449   3.854   8.656  1.3907 -0.3190 -1.6561
   87CHL1  H27B 8917   4.275   3.826   8.680 -0.3498 -1.8270 -1.7367
   87CHL1  H27C 8918   4.378   3.689   8.681  0.5390 -0.5228  0.9194
   88CHL1    C3 8919   0.081   2.228   7.186 -0.2142 -0.2293 -0.7736
   88CHL1    H3 8920   0.025   2.323   7.200 -1.2374 -0.5487 -2.4317
   88CHL1    O3 8921   0.096   2.194   7.048 -0.5682  0.4774  0.3007
   88CHL1   H3' 8922   0.047   2.112   7.031 -0.8482  0.1848  2.1809
   88CHL1    C4 8923   0.223   2.228   7.260 -0.0606  0.0445 -0.3263
   88CHL1   H4A 8924   0.280   2.135   7.239  1.4632  1.0310 -0.6975
   88CHL1   H4B 8925   0.272   2.316   7.213 -1.9461 -0.0419 -2.6466
   88CHL1    C5 8926   0.198   2.254   7.406 -0.1018 -0.1074 -0.0542
   88CHL1    C6 8927   0.260   2.356   7.474  0.1543 -0.0520  0.4412
   88CHL1    H6 8928   0.333   2.425   7.429  0.1278 -0.0304  0.4314
   88CHL1    C7 8929   0.252   2.372   7.625 -0.7170  0.1811 -0.4062
   88CHL1   H7A 8930   0.343   2.401   7.681 -1.2696  2.9390 -0.8071
   88CHL1   H7B 8931   0.181   2.456   7.644  1.4878  1.9802  0.3463
   88CHL1    C8 8932   0.191   2.248   7.703  0.5475  0.1355  0.3198
   88CHL1    H8 8933   0.264   2.165   7.717  1.3190  0.8020  0.2823
   88CHL1   C14 8934   0.138   2.294   7.847 -0.3478  0.1396 -1.0616
   88CHL1   H14 8935   0.049   2.360   7.836 -1.5297 -1.2161 -0.1278
   88CHL1   C15 8936   0.225   2.372   7.940 -0.2184  0.3153  0.1122
   88CHL1  H15A 8937   0.329   2.332   7.938 -0.0499  0.7993 -1.1381
   88CHL1  H15B 8938   0.245   2.474   7.902 -0.2710  0.7307  1.1589
   88CHL1   C16 8939   0.161   2.363   8.074  0.1615 -0.0976  0.2247
   88CHL1  H16A 8940   0.240   2.327   8.143  2.3989  1.8162 -1.1840
   88CHL1  H16B 8941   0.117   2.457   8.115 -1.7292 -0.3608 -1.1115
   88CHL1   C17 8942   0.048   2.260   8.059  0.0744 -0.8291 -0.6940
   88CHL1   H17 8943  -0.052   2.305   8.038 -1.7818 -4.4693 -0.5637
   88CHL1   C13 8944   0.089   2.178   7.936  0.4219  0.3696  0.2513
   88CHL1   C18 8945   0.203   2.075   7.974  0.6662 -0.2268 -1.0491
   88CHL1  H18A 8946   0.284   2.125   8.031  0.0515 -0.8692  0.4401
   88CHL1  H18B 8947   0.168   2.008   8.055  0.9816  2.0073  1.0508
   88CHL1  H18C 8948   0.239   2.018   7.885 -0.1885 -0.9806 -0.9316
   88CHL1   C12 8949  -0.034   2.103   7.860 -0.2314 -0.1465 -0.4177
   88CHL1  H12A 8950  -0.066   2.011   7.914 -2.1226 -0.0395 -1.3012
   88CHL1  H12B 8951  -0.125   2.165   7.864 -0.5914 -0.7072  0.4423
   88CHL1   C11 8952   0.000   2.074   7.712  0.6570  0.4380  0.2557
   88CHL1  H11A 8953   0.079   1.996   7.720 -0.9038 -1.1981  0.3337
   88CHL1  H11B 8954  -0.081   2.033   7.647  0.2936  0.4734  0.6861
   88CHL1    C9 8955   0.067   2.192   7.630 -0.4844 -0.4096 -0.1305
   88CHL1    H9 8956  -0.013   2.268   7.615  0.1877  0.2871 -0.2700
   88CHL1   C10 8957   0.098   2.158   7.482 -0.4018  0.7021 -0.2721
   88CHL1   C19 8958   0.160   2.007   7.472  0.2150 -0.1745 -1.0362
   88CHL1  H19A 8959   0.078   1.935   7.491  1.0308 -0.6262  1.0787
   88CHL1  H19B 8960   0.194   1.980   7.370 -0.3553  0.4852 -1.4087
   88CHL1  H19C 8961   0.241   1.997   7.548  0.6419  0.0172 -1.4593
   88CHL1    C1 8962  -0.031   2.162   7.390  0.2199 -0.1804 -0.4421
   88CHL1   H1A 8963  -0.100   2.086   7.433 -0.4172 -0.1311 -1.3634
   88CHL1   H1B 8964  -0.079   2.260   7.412  0.6721  0.0353 -0.3969
   88CHL1    C2 8965  -0.008   2.122   7.247 -0.4707 -0.0230  0.1474
   88CHL1   H2A 8966  -0.102   2.125   7.187 -0.2679 -0.4820 -0.1925
   88CHL1   H2B 8967   0.032   2.019   7.240 -1.5541 -0.4816  0.3912
   88CHL1   C20 8968   0.025   2.187   8.197  0.1811  0.0982 -0.2506
   88CHL1   H20 8969   0.098   2.104   8.210  0.0639  0.0838  0.3203
   88CHL1   C21 8970  -0.108   2.113   8.179  0.1285 -0.2196 -0.0116
   88CHL1  H21A 8971  -0.193   2.181   8.159  0.4799  0.1443 -0.2693
   88CHL1  H21B 8972  -0.133   2.061   8.274  2.2756  0.4596  1.0030
   88CHL1  H21C 8973  -0.114   2.031   8.104  0.4071  0.6723 -1.0325
   88CHL1   C22 8974   0.032   2.264   8.333 -0.8449  0.6060  0.1937
   88CHL1  H22A 8975   0.126   2.322   8.338  0.7909 -1.8424 -0.4246
   88CHL1  H22B 8976  -0.041   2.348   8.332 -2.2871 -0.5187 -3.2652
   88CHL1   C23 8977   0.027   2.175   8.461  0.4043 -0.7593 -0.1175
   88CHL1  H23A 8978  -0.053   2.098   8.455 -0.0124 -0.3742  0.4326
   88CHL1  H23B 8979   0.120   2.115   8.471  1.3696  0.5352 -1.0219
   88CHL1   C24 8980   0.015   2.252   8.590 -0.5209 -0.2300  0.0416
   88CHL1  H24A 8981   0.097   2.327   8.580 -0.6558 -0.2886 -1.8022
   88CHL1  H24B 8982  -0.077   2.315   8.591  0.2561  0.9495 -0.3484
   88CHL1   C25 8983   0.041   2.185   8.720  0.8864 -0.1184 -0.4226
   88CHL1   H25 8984   0.140   2.135   8.717  1.1867  0.5045 -1.1553
   88CHL1   C26 8985   0.044   2.284   8.837  0.0928 -0.3082  0.4718
   88CHL1  H26A 8986   0.137   2.344   8.845  0.4005 -0.7527  0.2848
   88CHL1  H26B 8987  -0.041   2.353   8.856  0.2811  0.0805 -0.0693
   88CHL1  H26C 8988   0.054   2.221   8.929  0.5529 -0.2265  0.4809
   88CHL1   C27 8989  -0.060   2.068   8.744 -0.2983  0.1874  0.2398
   88CHL1  H27A 8990  -0.031   2.024   8.841  1.2956 -2.2407 -1.2293
   88CHL1  H27B 8991  -0.167   2.099   8.737  0.0332  1.3671  0.0869
   88CHL1  H27C 8992  -0.041   1.980   8.679 -0.6548 -1.5294  2.3705
   89CHL1    C3 8993   4.696   5.941   6.893  0.1635  0.1160 -1.1144
   89CHL1    H3 8994   4.636   5.848   6.904 -1.2024  0.7277 -2.9946
   89CHL1    O3 8995   4.722   5.979   6.763 -0.0308  0.2108  0.4630
   89CHL1   H3' 8996   4.769   6.062   6.772 -1.3798  0.8737  1.7844
   89CHL1    C4 8997   4.607   6.055   6.948 -0.0691 -0.2275 -0.6363
   89CHL1   H4A 8998   4.646   6.158   6.933 -0.0127 -0.2353 -0.5494
   89CHL1   H4B 8999   4.517   6.067   6.885  0.0731  0.3386 -0.7326
   89CHL1    C5 9000   4.568   6.039   7.096  0.6939  0.7756 -0.7318
   89CHL1    C6 9001   4.442   6.034   7.136  0.0550 -0.3712  0.8554
   89CHL1    H6 9002   4.373   6.037   7.051  3.3545 -1.8628 -2.1492
   89CHL1    C7 9003   4.400   6.024   7.278  0.1790  0.2666 -0.2841
   89CHL1   H7A 9004   4.324   6.101   7.305 -0.1378  0.9851 -2.8840
   89CHL1   H7B 9005   4.363   5.922   7.301  4.6399 -1.7898 -1.1735
   89CHL1    C8 9006   4.518   6.043   7.375 -0.2006  0.0820  0.5444
   89CHL1    H8 9007   4.546   6.151   7.369 -0.4161  0.1293  0.3251
   89CHL1   C14 9008   4.485   5.984   7.512  0.1842 -0.1229 -0.5586
   89CHL1   H14 9009   4.463   5.877   7.493  0.9458 -0.0598 -1.8952
   89CHL1   C15 9010   4.356   6.038   7.582  0.1706  0.3200 -0.0903
   89CHL1  H15A 9011   4.353   6.148   7.566 -1.6990  0.0711 -1.9063
   89CHL1  H15B 9012   4.263   6.000   7.534 -0.6124  2.5504 -0.4687
   89CHL1   C16 9013   4.378   6.001   7.729 -0.5786 -0.2910 -0.5984
   89CHL1  H16A 9014   4.351   6.087   7.793 -1.3534  0.1146 -1.4649
   89CHL1  H16B 9015   4.311   5.916   7.754 -0.5014  0.1042  1.1403
   89CHL1   C17 9016   4.524   5.940   7.742 -0.4344 -0.0178 -0.2717
   89CHL1   H17 9017   4.508   5.831   7.730 -2.2718  0.1733  0.1384
   89CHL1   C13 9018   4.591   5.983   7.615 -0.6711  0.0800  0.0244
   89CHL1   C18 9019   4.638   6.127   7.638 -1.0123  0.0773 -0.4787
   89CHL1  H18A 9020   4.733   6.135   7.695 -2.0085  2.7730  0.9458
   89CHL1  H18B 9021   4.660   6.185   7.545  1.1714  2.9954  1.6682
   89CHL1  H18C 9022   4.563   6.185   7.695 -0.9464 -0.9609  0.7087
   89CHL1   C12 9023   4.704   5.892   7.566  0.3407 -0.6670  0.5486
   89CHL1  H12A 9024   4.784   5.892   7.644  0.3908  0.0029  0.4996
   89CHL1  H12B 9025   4.675   5.786   7.547  3.4283 -1.3365 -1.2140
   89CHL1   C11 9026   4.748   5.943   7.430  0.2644  0.2692 -0.5089
   89CHL1  H11A 9027   4.813   6.031   7.450  0.7052 -0.6294  2.5467
   89CHL1  H11B 9028   4.814   5.864   7.388 -1.1741 -1.3039  0.0727
   89CHL1    C9 9029   4.645   5.970   7.328  0.6779 -0.2035  0.4347
   89CHL1    H9 9030   4.606   5.868   7.306  1.2521 -0.1476 -0.9774
   89CHL1   C10 9031   4.687   6.016   7.186  0.5245 -0.2698  0.6413
   89CHL1   C19 9032   4.761   6.155   7.200 -0.4136 -0.5513 -0.6793
   89CHL1  H19A 9033   4.805   6.187   7.103 -0.9131  1.0761 -0.3880
   89CHL1  H19B 9034   4.692   6.237   7.227  2.0879  2.1270 -1.8454
   89CHL1  H19C 9035   4.845   6.149   7.272  0.3847 -0.1743 -1.5615
   89CHL1    C1 9036   4.774   5.903   7.122  0.5392  0.1958 -0.0577
   89CHL1   H1A 9037   4.869   5.884   7.176  0.6854  0.7878 -0.1080
   89CHL1   H1B 9038   4.718   5.808   7.138 -1.7168  0.5730 -4.3057
   89CHL1    C2 9039   4.825   5.927   6.979  0.0747 -0.5509  0.0326
   89CHL1   H2A 9040   4.888   5.848   6.934 -0.7508 -0.5771 -1.1431
   89CHL1   H2B 9041   4.870   6.029   6.977 -2.4891  0.6548 -0.5605
   89CHL1   C20 9042   4.595   5.953   7.875  0.3900 -0.1333  0.2774
   89CHL1   H20 9043   4.704   5.959   7.853  0.0348  0.1925 -1.5380
   89CHL1   C21 9044   4.562   5.822   7.948 -0.3720  0.0255  0.3899
   89CHL1  H21A 9045   4.588   5.733   7.887 -0.8492 -0.1173  0.3937
   89CHL1  H21B 9046   4.452   5.808   7.955 -0.1883 -1.3593  0.8876
   89CHL1  H21C 9047   4.609   5.805   8.048  1.2072 -0.1219 -0.3400
   89CHL1   C22 9048   4.566   6.081   7.961  0.6518  0.5116  0.3603
   89CHL1  H22A 9049   4.580   6.174   7.901 -2.0292  0.5145 -0.4022
   89CHL1  H22B 9050   4.459   6.072   7.990  0.9193  0.3742  1.3621
   89CHL1   C23 9051   4.647   6.086   8.086 -0.1470 -0.1117 -0.1522
   89CHL1  H23A 9052   4.620   6.008   8.160  0.2895 -0.4757 -0.3745
   89CHL1  H23B 9053   4.749   6.060   8.051 -0.5445 -1.2274 -0.5013
   89CHL1   C24 9054   4.637   6.228   8.148 -0.0235 -0.1752 -0.6870
   89CHL1  H24A 9055   4.664   6.311   8.080 -1.0055 -0.0742 -0.9601
   89CHL1  H24B 9056   4.527   6.239   8.159 -0.0458 -1.9289  1.7150
   89CHL1   C25 9057   4.705   6.243   8.282 -0.4176 -0.2006  0.3563
   89CHL1   H25 9058   4.692   6.152   8.345 -0.1237 -0.8794 -0.5401
   89CHL1   C26 9059   4.858   6.269   8.257  0.2012 -0.0525 -0.9383
   89CHL1  H26A 9060   4.918   6.287   8.348 -0.3118 -0.0556 -0.5947
   89CHL1  H26B 9061   4.900   6.178   8.208  0.5250 -0.7762  0.6036
   89CHL1  H26C 9062   4.854   6.359   8.193 -2.6454  1.2146  0.7993
   89CHL1   C27 9063   4.652   6.359   8.373 -0.2676  0.0567 -0.0310
   89CHL1  H27A 9064   4.722   6.375   8.458  0.5620 -0.9528 -0.4997
   89CHL1  H27B 9065   4.654   6.458   8.324 -0.4572 -0.2500 -0.6694
   89CHL1  H27C 9066   4.550   6.338   8.411 -0.0952 -1.4391 -0.2991
   90CHL1    C3 9067   5.947   5.807   6.976  0.7753  0.2452  0.7732
   90CHL1    H3 9068   5.985   5.910   6.993 -0.1497  0.9460 -1.0476
   90CHL1    O3 9069   5.977   5.765   6.841  0.3450 -0.6283  0.1885
   90CHL1   H3' 9070   6.065   5.728   6.851  0.1276 -1.1235  0.3104
   90CHL1    C4 9071   6.027   5.725   7.075 -0.2612  0.0965 -0.4662
   90CHL1   H4A 9072   6.019   5.620   7.038  0.3253  0.0463 -0.4680
   90CHL1   H4B 9073   6.135   5.751   7.074  0.0395 -0.6020  2.6227
   90CHL1    C5 9074   5.982   5.740   7.218 -0.0317  0.9680 -0.6138
   90CHL1    C6 9075   6.065   5.760   7.326 -0.1000  0.2948  0.1043
   90CHL1    H6 9076   6.171   5.754   7.299 -0.1904 -0.5078 -0.0908
   90CHL1    C7 9077   6.027   5.759   7.479  0.4257  0.3034 -0.5002
   90CHL1   H7A 9078   6.095   5.693   7.537 -1.7045 -0.6365  1.0878
   90CHL1   H7B 9079   6.024   5.860   7.524 -1.0165  0.3163 -0.5947
   90CHL1    C8 9080   5.887   5.702   7.493 -0.1369 -0.6065  0.2737
   90CHL1    H8 9081   5.903   5.593   7.484 -0.8946 -0.7638  0.7664
   90CHL1   C14 9082   5.838   5.719   7.633  0.0750  0.3185 -0.6152
   90CHL1   H14 9083   5.832   5.828   7.653 -0.6131  0.5591 -2.0263
   90CHL1   C15 9084   5.922   5.655   7.749 -0.4316 -0.0440  0.2109
   90CHL1  H15A 9085   5.959   5.551   7.745  1.8545  0.6868  0.7757
   90CHL1  H15B 9086   6.011   5.721   7.759  0.9557 -1.6340 -1.1836
   90CHL1   C16 9087   5.824   5.658   7.873 -0.7249 -0.7316  0.2822
   90CHL1  H16A 9088   5.825   5.559   7.924  0.6847 -0.0625  1.6141
   90CHL1  H16B 9089   5.856   5.729   7.952 -0.6846 -1.2691  0.7586
   90CHL1   C17 9090   5.681   5.687   7.817 -0.0957 -0.0585  0.2607
   90CHL1   H17 9091   5.667   5.797   7.821 -0.1139 -0.0902  3.2039
   90CHL1   C13 9092   5.701   5.659   7.659 -0.9029  0.9318 -0.0281
   90CHL1   C18 9093   5.699   5.507   7.631  0.2629  0.3576  0.2811
   90CHL1  H18A 9094   5.740   5.474   7.533 -1.2743  2.1115 -1.0249
   90CHL1  H18B 9095   5.737   5.443   7.713 -1.5796 -0.3550  0.6376
   90CHL1  H18C 9096   5.592   5.475   7.628  1.1333 -2.9573 -0.2157
   90CHL1   C12 9097   5.606   5.735   7.570  0.0387  0.0148 -0.2262
   90CHL1  H12A 9098   5.506   5.687   7.571 -1.8730  3.5503  1.9275
   90CHL1  H12B 9099   5.599   5.838   7.613 -1.3291 -0.7523  1.5453
   90CHL1   C11 9100   5.644   5.728   7.422  0.3681 -0.1180  0.1119
   90CHL1  H11A 9101   5.612   5.623   7.406 -1.1362  0.3610 -0.2481
   90CHL1  H11B 9102   5.570   5.792   7.369 -0.8488 -2.1440 -0.7420
   90CHL1    C9 9103   5.788   5.768   7.392  0.1959  0.6156 -0.4965
   90CHL1    H9 9104   5.792   5.876   7.417 -2.4969  0.0575  3.2914
   90CHL1   C10 9105   5.830   5.729   7.243  0.4547  1.1178 -0.6216
   90CHL1   C19 9106   5.787   5.583   7.217  0.1303 -0.4951  0.7303
   90CHL1  H19A 9107   5.848   5.513   7.278  0.3697 -0.8824  0.0513
   90CHL1  H19B 9108   5.682   5.556   7.240  0.4106 -0.9494  1.5083
   90CHL1  H19C 9109   5.807   5.552   7.113  1.2072  1.8045  0.1880
   90CHL1    C1 9110   5.762   5.825   7.147 -0.3194 -0.0431 -0.4276
   90CHL1   H1A 9111   5.652   5.826   7.163 -0.1768  1.7976  0.7550
   90CHL1   H1B 9112   5.783   5.928   7.184 -0.4948  0.2220 -1.0542
   90CHL1    C2 9113   5.798   5.799   7.005  0.8356 -0.8083  0.8857
   90CHL1   H2A 9114   5.753   5.870   6.932  2.3877 -1.8089 -1.1405
   90CHL1   H2B 9115   5.773   5.698   6.966  2.7509 -0.1843 -2.3165
   90CHL1   C20 9116   5.571   5.625   7.899 -0.3024 -0.0704 -0.7274
   90CHL1   H20 9117   5.593   5.517   7.913 -1.1438 -0.1099  0.3683
   90CHL1   C21 9118   5.436   5.629   7.817 -0.1192 -0.0563  0.0730
   90CHL1  H21A 9119   5.352   5.601   7.884 -0.9431 -1.5825 -1.5064
   90CHL1  H21B 9120   5.439   5.564   7.727  0.9898  0.6009 -0.3863
   90CHL1  H21C 9121   5.412   5.731   7.779  1.0590 -0.5073 -2.0505
   90CHL1   C22 9122   5.568   5.694   8.038  0.8499  0.3547 -0.5603
   90CHL1  H22A 9123   5.655   5.654   8.094 -0.7926 -0.9810  1.2031
   90CHL1  H22B 9124   5.581   5.803   8.025  2.1273  0.2803 -0.0644
   90CHL1   C23 9125   5.448   5.659   8.131 -0.0709 -0.3470  0.8542
   90CHL1  H23A 9126   5.357   5.693   8.078  0.5117 -2.7521 -1.9412
   90CHL1  H23B 9127   5.445   5.548   8.131 -2.3484 -0.4032 -1.9702
   90CHL1   C24 9128   5.468   5.723   8.266  0.0500 -0.5373 -0.6110
   90CHL1  H24A 9129   5.560   5.687   8.317 -1.1213  1.1292  2.9898
   90CHL1  H24B 9130   5.468   5.833   8.259  0.3940 -0.6012 -2.0497
   90CHL1   C25 9131   5.355   5.692   8.371 -0.0035 -0.0369  0.0155
   90CHL1   H25 9132   5.254   5.715   8.331  0.6960  0.0244 -1.8075
   90CHL1   C26 9133   5.352   5.539   8.401  0.1222 -0.1845 -0.0720
   90CHL1  H26A 9134   5.446   5.512   8.454  0.6026 -3.8412 -2.4170
   90CHL1  H26B 9135   5.262   5.522   8.464  0.0536 -1.4021 -0.4791
   90CHL1  H26C 9136   5.322   5.482   8.311 -0.2544  2.6800 -1.8711
   90CHL1   C27 9137   5.381   5.781   8.502 -0.4044  0.0794  1.0984
   90CHL1  H27A 9138   5.385   5.890   8.482 -0.4321 -0.0377  0.4413
   90CHL1  H27B 9139   5.298   5.762   8.573 -1.6348 -0.6889 -0.4967
   90CHL1  H27C 9140   5.467   5.737   8.557  1.8521  1.3504 -1.2027
   91CHL1    C3 9141   4.782   1.140   7.379 -0.0539 -0.1444  0.7519
   91CHL1    H3 9142   4.845   1.232   7.379 -0.6513  0.2908 -0.6925
   91CHL1    O3 9143   4.795   1.069   7.253  0.0092 -0.2854  0.0941
   91CHL1   H3' 9144   4.718   1.012   7.243 -0.6767  0.6998 -0.4156
   91CHL1    C4 9145   4.817   1.045   7.491  0.0585 -0.6655  0.3129
   91CHL1   H4A 9146   4.784   0.942   7.468  0.9363 -0.6740 -1.0377
   91CHL1   H4B 9147   4.927   1.034   7.490  0.1723  0.3326 -0.5143
   91CHL1    C5 9148   4.789   1.110   7.626  0.0381  0.3066 -0.0448
   91CHL1    C6 9149   4.884   1.117   7.727  0.5075  0.3110 -0.6824
   91CHL1    H6 9150   4.978   1.063   7.712 -1.1805 -2.6832 -1.1530
   91CHL1    C7 9151   4.855   1.192   7.853 -1.3290  0.8012 -0.3200
   91CHL1   H7A 9152   4.914   1.148   7.937  0.3197  1.8898 -0.8625
   91CHL1   H7B 9153   4.903   1.290   7.837 -0.5590  0.2804 -1.3490
   91CHL1    C8 9154   4.711   1.198   7.888 -0.6417  0.3597 -1.1651
   91CHL1    H8 9155   4.667   1.098   7.906  0.6045 -0.5329 -2.8875
   91CHL1   C14 9156   4.698   1.288   8.010 -0.4099  0.4670 -0.7661
   91CHL1   H14 9157   4.729   1.388   7.974  1.6484  0.7926  1.6412
   91CHL1   C15 9158   4.798   1.271   8.129  0.5697  0.1062  0.2092
   91CHL1  H15A 9159   4.823   1.168   8.160  1.6375  0.7309  1.5263
   91CHL1  H15B 9160   4.886   1.335   8.110 -0.2976  1.5685  0.8660
   91CHL1   C16 9161   4.716   1.348   8.238 -0.6036  0.4813  0.1619
   91CHL1  H16A 9162   4.701   1.283   8.327  0.9725  0.3265  0.3330
   91CHL1  H16B 9163   4.778   1.432   8.275  2.6235 -2.2429  1.4719
   91CHL1   C17 9164   4.589   1.407   8.177  0.2526 -0.5809  0.1796
   91CHL1   H17 9165   4.604   1.506   8.129 -2.7613  0.4709  1.1368
   91CHL1   C13 9166   4.556   1.309   8.057 -0.1074  0.0817 -0.2987
   91CHL1   C18 9167   4.501   1.177   8.114  0.7099 -0.3397 -0.7447
   91CHL1  H18A 9168   4.483   1.094   8.043 -1.7643 -2.8613  2.4645
   91CHL1  H18B 9169   4.570   1.154   8.199  1.0002  0.5987 -0.7130
   91CHL1  H18C 9170   4.405   1.193   8.167  0.7152  1.5720 -1.2554
   91CHL1   C12 9171   4.465   1.375   7.948 -0.2475 -0.2822 -0.5527
   91CHL1  H12A 9172   4.359   1.380   7.980 -0.3258  0.8445 -0.9286
   91CHL1  H12B 9173   4.500   1.479   7.930  0.7779 -0.3028  1.1382
   91CHL1   C11 9174   4.481   1.290   7.815  0.4147  0.1521 -0.0685
   91CHL1  H11A 9175   4.429   1.194   7.836  0.3120 -0.0791 -1.2914
   91CHL1  H11B 9176   4.437   1.345   7.729  0.5528  2.7048  1.3920
   91CHL1    C9 9177   4.629   1.259   7.776  0.0363  0.1904 -0.3917
   91CHL1    H9 9178   4.674   1.358   7.753 -0.1642  0.5662  0.7759
   91CHL1   C10 9179   4.646   1.168   7.645 -0.2887  0.2333  0.0108
   91CHL1   C19 9180   4.552   1.045   7.656  0.5759  0.5294  0.1260
   91CHL1  H19A 9181   4.448   1.085   7.660 -1.0309 -3.1172 -1.1213
   91CHL1  H19B 9182   4.564   0.985   7.563  1.2453 -1.4867  1.4454
   91CHL1  H19C 9183   4.574   0.987   7.748 -0.0431  0.3543  0.1670
   91CHL1    C1 9184   4.609   1.258   7.521  0.4391  0.0948 -0.1553
   91CHL1   H1A 9185   4.507   1.302   7.518  1.3883  2.4052 -1.1526
   91CHL1   H1B 9186   4.675   1.347   7.527  0.8382 -0.0948 -1.4891
   91CHL1    C2 9187   4.637   1.187   7.385 -0.2067  0.3798 -0.3119
   91CHL1   H2A 9188   4.620   1.244   7.291 -0.5526 -2.7753 -2.3002
   91CHL1   H2B 9189   4.567   1.102   7.375  0.0672 -0.1126  1.6299
   91CHL1   C20 9190   4.485   1.444   8.290 -0.4499 -0.6764  0.3734
   91CHL1   H20 9191   4.467   1.357   8.357 -1.8835 -0.4722  0.2901
   91CHL1   C21 9192   4.350   1.480   8.230 -0.1557 -0.3400 -0.5177
   91CHL1  H21A 9193   4.299   1.412   8.159 -1.0271  0.4918 -0.7234
   91CHL1  H21B 9194   4.366   1.572   8.170 -0.4044 -0.5337 -0.8846
   91CHL1  H21C 9195   4.277   1.500   8.311  1.1274 -2.4079  1.2496
   91CHL1   C22 9196   4.534   1.564   8.387  0.1393  0.0390  0.6123
   91CHL1  H22A 9197   4.631   1.527   8.428  0.3282 -1.5052 -1.1189
   91CHL1  H22B 9198   4.541   1.653   8.320  1.0499 -1.1981 -0.9998
   91CHL1   C23 9199   4.431   1.594   8.496 -0.9369 -0.6241 -0.9366
   91CHL1  H23A 9200   4.390   1.694   8.469  0.9214  1.1881  2.3047
   91CHL1  H23B 9201   4.355   1.514   8.507 -1.3820 -0.1989 -0.9142
   91CHL1   C24 9202   4.500   1.621   8.639  0.1191 -1.0679  0.7528
   91CHL1  H24A 9203   4.559   1.712   8.613 -2.3808  0.5180  0.2986
   91CHL1  H24B 9204   4.423   1.658   8.709 -1.1947  2.0121 -2.0167
   91CHL1   C25 9205   4.591   1.512   8.690  0.4645  0.2833 -0.3976
   91CHL1   H25 9206   4.662   1.471   8.614 -0.1505  1.5186 -1.6867
   91CHL1   C26 9207   4.687   1.554   8.809 -0.2677 -0.0537 -0.5796
   91CHL1  H26A 9208   4.776   1.488   8.805  0.5835  1.0533 -0.4079
   91CHL1  H26B 9209   4.720   1.659   8.802 -1.4997  0.3183 -1.1583
   91CHL1  H26C 9210   4.629   1.539   8.903 -1.3322 -0.9368 -1.3363
   91CHL1   C27 9211   4.508   1.392   8.726 -0.1259  0.4430 -0.5408
   91CHL1  H27A 9212   4.471   1.333   8.641 -0.2543  0.8138 -0.7462
   91CHL1  H27B 9213   4.573   1.325   8.786  2.2252  1.9878 -1.2324
   91CHL1  H27C 9214   4.420   1.417   8.790  0.2237 -2.5266  1.3023
   92CHL1    C3 9215   2.877   2.176   6.928 -0.5332  0.8107  0.1301
   92CHL1    H3 9216   2.948   2.230   6.993 -2.0132  2.2695  0.6154
   92CHL1    O3 9217   2.920   2.183   6.790 -0.4145 -0.1437 -0.6577
   92CHL1   H3' 9218   2.852   2.135   6.742 -2.8624  2.4092 -0.0080
   92CHL1    C4 9219   2.860   2.030   6.970 -0.3753  0.0808  0.4769
   92CHL1   H4A 9220   2.791   1.975   6.902 -1.9082 -1.6975  3.2701
   92CHL1   H4B 9221   2.956   1.977   6.950 -0.3825  0.2034  0.1252
   92CHL1    C5 9222   2.803   2.026   7.111  0.1979 -0.0445 -0.1650
   92CHL1    C6 9223   2.875   1.960   7.200 -0.0933 -0.3827  0.6504
   92CHL1    H6 9224   2.966   1.903   7.174  1.8850  2.3487  1.1299
   92CHL1    C7 9225   2.849   1.949   7.346 -0.1547 -0.1310  1.4124
   92CHL1   H7A 9226   2.860   1.842   7.377 -1.3047 -1.0961 -1.2258
   92CHL1   H7B 9227   2.924   2.001   7.409  1.1644 -0.9385  0.5627
   92CHL1    C8 9228   2.704   1.992   7.378 -0.6493  0.5411 -0.2243
   92CHL1    H8 9229   2.637   1.913   7.336 -1.3680  1.8055 -1.5552
   92CHL1   C14 9230   2.690   2.009   7.527 -0.5397  0.3466 -0.4885
   92CHL1   H14 9231   2.760   2.089   7.557 -0.4613 -0.1673  0.7668
   92CHL1   C15 9232   2.724   1.888   7.619 -0.2411  0.6486  0.3712
   92CHL1  H15A 9233   2.679   1.797   7.575  1.4358 -0.7662  1.4733
   92CHL1  H15B 9234   2.834   1.879   7.634  0.2516  1.0916 -2.4218
   92CHL1   C16 9235   2.669   1.927   7.755 -0.2684  0.0830 -0.6009
   92CHL1  H16A 9236   2.609   1.840   7.788  1.9097 -1.0722  0.4637
   92CHL1  H16B 9237   2.751   1.946   7.827 -1.1763  1.9759  0.0033
   92CHL1   C17 9238   2.589   2.060   7.732  0.0901 -0.4633  0.3923
   92CHL1   H17 9239   2.655   2.147   7.755  0.0719 -0.7099  1.4216
   92CHL1   C13 9240   2.556   2.052   7.582 -0.7895  0.0375 -0.1789
   92CHL1   C18 9241   2.440   1.954   7.558  0.2761  0.4854  0.6035
   92CHL1  H18A 9242   2.341   1.993   7.588 -0.3814  0.3989 -1.3589
   92CHL1  H18B 9243   2.430   1.936   7.449  1.2839  0.4080  0.5172
   92CHL1  H18C 9244   2.443   1.858   7.615 -0.8442 -2.2790 -3.4865
   92CHL1   C12 9245   2.521   2.186   7.511 -0.1982  0.0173  0.5507
   92CHL1  H12A 9246   2.420   2.222   7.539  0.0946  1.4509 -0.1153
   92CHL1  H12B 9247   2.594   2.266   7.538  0.6822 -0.0784 -1.3548
   92CHL1   C11 9248   2.524   2.182   7.357  0.5324  0.1279 -0.8505
   92CHL1  H11A 9249   2.442   2.116   7.321 -1.2227  0.2352  2.5601
   92CHL1  H11B 9250   2.520   2.290   7.332  0.3137  0.5484  0.8841
   92CHL1    C9 9251   2.666   2.121   7.309 -0.1238 -0.1429  0.3188
   92CHL1    H9 9252   2.742   2.190   7.353 -0.1793  0.7728 -0.9708
   92CHL1   C10 9253   2.683   2.113   7.150 -0.2917 -0.3392  0.4337
   92CHL1   C19 9254   2.554   2.059   7.089  0.3431  0.6678 -0.3217
   92CHL1  H19A 9255   2.462   2.119   7.108 -0.3453 -1.1430  2.5541
   92CHL1  H19B 9256   2.561   2.054   6.978  0.8611  0.6856 -0.2929
   92CHL1  H19C 9257   2.536   1.956   7.127  0.9528  0.7310  0.1537
   92CHL1    C1 9258   2.697   2.259   7.092  0.2781  0.4640 -1.1269
   92CHL1   H1A 9259   2.600   2.311   7.101  0.5464  0.7345  0.3120
   92CHL1   H1B 9260   2.775   2.311   7.152  0.2508 -0.9532  0.1975
   92CHL1    C2 9261   2.746   2.259   6.945  0.2247  0.4413  0.3786
   92CHL1   H2A 9262   2.769   2.360   6.906  0.4766  0.0409 -0.5263
   92CHL1   H2B 9263   2.666   2.212   6.884  1.1357  0.7804 -1.1369
   92CHL1   C20 9264   2.473   2.060   7.839  0.3745 -0.1278  0.6412
   92CHL1   H20 9265   2.413   1.967   7.824  1.5950 -0.9312  0.5979
   92CHL1   C21 9266   2.395   2.187   7.811  0.0442  0.2325 -0.5304
   92CHL1  H21A 9267   2.464   2.274   7.811 -0.5984  0.8252  1.8459
   92CHL1  H21B 9268   2.324   2.212   7.892  0.7233  1.7608 -0.3667
   92CHL1  H21C 9269   2.331   2.175   7.721 -1.0774 -0.6752  0.3608
   92CHL1   C22 9270   2.519   2.045   7.986 -0.3744  0.7229  0.3247
   92CHL1  H22A 9271   2.580   1.952   7.997  3.0707  2.7390 -0.3141
   92CHL1  H22B 9272   2.581   2.131   8.018  0.5193  0.3087 -0.2462
   92CHL1   C23 9273   2.403   2.044   8.082  0.1235  0.2440 -1.7647
   92CHL1  H23A 9274   2.346   2.139   8.078 -2.0974 -0.8964  0.0567
   92CHL1  H23B 9275   2.327   1.968   8.055 -2.3383  1.1294  1.8656
   92CHL1   C24 9276   2.446   2.009   8.227  0.1613  0.1424 -0.1700
   92CHL1  H24A 9277   2.510   1.918   8.221  2.4679  1.6711 -0.0368
   92CHL1  H24B 9278   2.505   2.091   8.272 -2.3788  2.0848 -0.2055
   92CHL1   C25 9279   2.336   1.986   8.322  0.0569  0.3617 -0.3006
   92CHL1   H25 9280   2.253   1.922   8.284 -1.3441  2.2844 -0.5902
   92CHL1   C26 9281   2.391   1.921   8.450  0.1830  0.1153 -0.2572
   92CHL1  H26A 9282   2.323   1.917   8.537 -0.4314  2.2949 -0.5945
   92CHL1  H26B 9283   2.420   1.817   8.424  0.1593 -0.4483  1.7708
   92CHL1  H26C 9284   2.480   1.976   8.488  1.8120 -0.6348 -2.7361
   92CHL1   C27 9285   2.264   2.124   8.348 -0.0832 -0.1542  0.4677
   92CHL1  H27A 9286   2.191   2.108   8.429  1.1007 -3.8402  1.0225
   92CHL1  H27B 9287   2.333   2.207   8.376 -2.6002  1.3398  2.5883
   92CHL1  H27C 9288   2.207   2.161   8.260 -0.6276 -1.9028  0.0516
   93CHL1    C3 9289   6.449   1.482   6.898  0.4179 -0.2016 -0.4878
   93CHL1    H3 9290   6.361   1.545   6.922  1.8497  0.9096  2.2757
   93CHL1    O3 9291   6.445   1.470   6.757  0.4347 -0.1350 -0.0379
   93CHL1   H3' 9292   6.422   1.378   6.744  0.8412 -0.0722 -1.4176
   93CHL1    C4 9293   6.580   1.553   6.947 -0.5060  0.4024 -0.0964
   93CHL1   H4A 9294   6.668   1.489   6.924  0.2159  1.3061  0.0672
   93CHL1   H4B 9295   6.579   1.652   6.896  0.6654  1.1508  1.2523
   93CHL1    C5 9296   6.575   1.568   7.097 -0.1192 -0.2913 -0.5958
   93CHL1    C6 9297   6.603   1.690   7.151 -0.3036  0.7834  0.1469
   93CHL1    H6 9298   6.619   1.779   7.089  1.4249  1.0902  0.9752
   93CHL1    C7 9299   6.613   1.708   7.301  0.1561 -0.3531 -0.5059
   93CHL1   H7A 9300   6.708   1.754   7.334 -0.7791 -0.1409  2.1259
   93CHL1   H7B 9301   6.533   1.774   7.341  0.7475  0.6767 -0.9845
   93CHL1    C8 9302   6.609   1.575   7.389  0.2497 -0.1146  0.4741
   93CHL1    H8 9303   6.711   1.532   7.388  0.2349 -0.1449  0.1924
   93CHL1   C14 9304   6.564   1.618   7.530  0.5205  0.1868 -0.1340
   93CHL1   H14 9305   6.459   1.647   7.509  0.6992  0.8627 -0.0910
   93CHL1   C15 9306   6.624   1.735   7.601 -0.1006  0.4084  0.2542
   93CHL1  H15A 9307   6.735   1.726   7.599 -0.1607 -0.3816 -1.8672
   93CHL1  H15B 9308   6.600   1.832   7.553  0.6025  1.9140  2.7478
   93CHL1   C16 9309   6.571   1.730   7.740 -0.6825 -0.0474  0.1163
   93CHL1  H16A 9310   6.655   1.747   7.811 -0.8993 -0.8133  0.5617
   93CHL1  H16B 9311   6.494   1.808   7.756 -2.0230 -0.8649 -1.9974
   93CHL1   C17 9312   6.520   1.587   7.775  0.2983  0.0234  0.5919
   93CHL1   H17 9313   6.410   1.596   7.763  0.3105  0.0779  0.5259
   93CHL1   C13 9314   6.560   1.512   7.637 -0.1133  0.7445 -0.2802
   93CHL1   C18 9315   6.696   1.444   7.654  0.4463  0.1604 -0.9711
   93CHL1  H18A 9316   6.673   1.356   7.717 -0.2556  0.9380 -0.1186
   93CHL1  H18B 9317   6.738   1.397   7.562  1.8436 -0.7410  0.1027
   93CHL1  H18C 9318   6.779   1.507   7.692 -0.2799  0.2108  0.6237
   93CHL1   C12 9319   6.463   1.409   7.588  0.0533  0.3184  0.1871
   93CHL1  H12A 9320   6.477   1.318   7.651  3.1471  0.5097 -0.0633
   93CHL1  H12B 9321   6.359   1.442   7.607 -1.1394 -2.3751 -1.1304
   93CHL1   C11 9322   6.496   1.365   7.439 -0.3426  0.3325 -0.1754
   93CHL1  H11A 9323   6.580   1.292   7.442  0.2866  1.0467  3.0233
   93CHL1  H11B 9324   6.417   1.294   7.406  0.6347 -0.2645 -1.3036
   93CHL1    C9 9325   6.513   1.476   7.337  0.1107 -0.0962  0.1831
   93CHL1    H9 9326   6.416   1.530   7.340 -0.7744 -1.6151 -0.4581
   93CHL1   C10 9327   6.540   1.442   7.185  0.1244 -0.1340  0.2693
   93CHL1   C19 9328   6.659   1.347   7.167 -1.0777  0.8409  0.2531
   93CHL1  H19A 9329   6.751   1.390   7.213 -0.9944 -2.4380  3.6304
   93CHL1  H19B 9330   6.640   1.259   7.232 -0.0165  0.4213  0.0096
   93CHL1  H19C 9331   6.682   1.307   7.066  1.8009 -1.2434  1.6109
   93CHL1    C1 9332   6.416   1.363   7.128  0.3853 -0.2946 -0.3111
   93CHL1   H1A 9333   6.410   1.260   7.169 -1.8520  0.0203  0.2605
   93CHL1   H1B 9334   6.322   1.404   7.172 -0.2825 -2.5857  0.5169
   93CHL1    C2 9335   6.424   1.354   6.975  0.0074  0.3116 -0.1309
   93CHL1   H2A 9336   6.331   1.306   6.936 -1.2220  2.7204 -0.3649
   93CHL1   H2B 9337   6.504   1.280   6.951 -0.3052 -0.6729  1.7149
   93CHL1   C20 9338   6.545   1.537   7.921  0.3524  0.1852  0.6985
   93CHL1   H20 9339   6.654   1.522   7.936  0.2196 -2.8151 -0.6355
   93CHL1   C21 9340   6.473   1.399   7.931  0.1908 -0.4378  0.0157
   93CHL1  H21A 9341   6.363   1.416   7.931 -0.0742 -1.7686 -2.0710
   93CHL1  H21B 9342   6.493   1.355   8.031  0.4400  2.1485  1.1766
   93CHL1  H21C 9343   6.495   1.328   7.849  0.4383  1.2165 -1.4244
   93CHL1   C22 9344   6.495   1.635   8.027 -0.2915 -0.0150  0.4074
   93CHL1  H22A 9345   6.515   1.738   7.991 -0.6315 -0.1667 -0.2218
   93CHL1  H22B 9346   6.384   1.630   8.026 -0.3243  0.1169 -2.1802
   93CHL1   C23 9347   6.556   1.610   8.167  0.5091 -0.1967  0.0758
   93CHL1  H23A 9348   6.501   1.518   8.198 -2.2564  0.5102 -2.2509
   93CHL1  H23B 9349   6.666   1.596   8.160  0.8525  2.0211  0.4126
   93CHL1   C24 9350   6.534   1.730   8.259 -0.7732  0.9215 -0.4666
   93CHL1  H24A 9351   6.612   1.804   8.229  0.3753  0.3886  1.0528
   93CHL1  H24B 9352   6.432   1.772   8.254  0.0517  3.1059 -0.2104
   93CHL1   C25 9353   6.559   1.699   8.417  0.1817  0.1718  0.1403
   93CHL1   H25 9354   6.633   1.618   8.435 -0.9851 -1.2661 -1.2510
   93CHL1   C26 9355   6.600   1.833   8.492  0.2828  0.5776  0.5504
   93CHL1  H26A 9356   6.687   1.886   8.450 -0.2303  1.5947  0.7486
   93CHL1  H26B 9357   6.519   1.903   8.463  1.9617  2.2661 -0.2537
   93CHL1  H26C 9358   6.606   1.823   8.602 -1.5449 -0.3991  0.6207
   93CHL1   C27 9359   6.432   1.639   8.482 -0.1500 -0.3327 -0.3856
   93CHL1  H27A 9360   6.341   1.703   8.480  0.0635 -0.0514 -1.8956
   93CHL1  H27B 9361   6.410   1.542   8.432 -0.0480 -1.2366  1.2442
   93CHL1  H27C 9362   6.464   1.606   8.583  0.7836 -1.3123 -0.9819
   94CHL1    C3 9363   2.357   3.673   7.080  0.1454  0.3471 -0.8986
   94CHL1    H3 9364   2.461   3.677   7.119 -0.6227 -1.7874  1.5964
   94CHL1    O3 9365   2.356   3.675   6.940 -0.3749  0.3359  0.0376
   94CHL1   H3' 9366   2.382   3.765   6.923 -0.2502  0.1649 -0.6874
   94CHL1    C4 9367   2.288   3.541   7.142 -0.4427 -0.1482  0.1024
   94CHL1   H4A 9368   2.191   3.545   7.088 -1.0386  2.0827  1.2391
   94CHL1   H4B 9369   2.345   3.457   7.094 -0.5664  0.2732 -0.7997
   94CHL1    C5 9370   2.275   3.535   7.288  0.2233  0.6085 -0.7476
   94CHL1    C6 9371   2.315   3.425   7.356 -0.2232  0.2951  0.2728
   94CHL1    H6 9372   2.350   3.344   7.291 -0.8776  0.9612 -0.9541
   94CHL1    C7 9373   2.309   3.417   7.509  0.5409 -0.3252 -0.2040
   94CHL1   H7A 9374   2.265   3.320   7.542  0.5437 -0.8282 -1.5985
   94CHL1   H7B 9375   2.407   3.432   7.560 -0.3338 -1.0934  1.8347
   94CHL1    C8 9376   2.209   3.529   7.569 -0.3176  0.3645  0.3758
   94CHL1    H8 9377   2.106   3.490   7.552 -1.1613  2.5591  0.0779
   94CHL1   C14 9378   2.231   3.534   7.718  0.1111  1.2253 -0.0841
   94CHL1   H14 9379   2.337   3.567   7.723  1.0575 -1.1044 -2.5367
   94CHL1   C15 9380   2.232   3.404   7.802  0.2556 -0.2570  0.5520
   94CHL1  H15A 9381   2.143   3.341   7.782  0.8671 -1.3904  1.3385
   94CHL1  H15B 9382   2.323   3.347   7.774 -0.0010 -0.4934  0.1889
   94CHL1   C16 9383   2.243   3.459   7.950 -0.6386  0.4708  0.1909
   94CHL1  H16A 9384   2.169   3.411   8.018 -1.4517  0.2813 -0.7831
   94CHL1  H16B 9385   2.347   3.438   7.983 -1.4140 -1.8508  1.4109
   94CHL1   C17 9386   2.212   3.610   7.942  0.0553  0.2979 -0.2614
   94CHL1   H17 9387   2.317   3.646   7.935  0.7377 -1.9073 -4.8282
   94CHL1   C13 9388   2.159   3.639   7.796  0.7970  0.4090  0.2433
   94CHL1   C18 9389   2.004   3.611   7.795 -0.0701  0.0504 -0.1575
   94CHL1  H18A 9390   1.986   3.513   7.845 -1.8371 -0.1456 -1.1063
   94CHL1  H18B 9391   1.940   3.681   7.853 -1.9768  0.1479 -2.2717
   94CHL1  H18C 9392   1.970   3.598   7.690 -0.7280 -0.1869  0.0814
   94CHL1   C12 9393   2.190   3.772   7.738  0.2106 -0.5503  0.2767
   94CHL1  H12A 9394   2.119   3.846   7.781  0.5498  2.0555 -3.1671
   94CHL1  H12B 9395   2.293   3.810   7.754  0.2195  1.0024 -2.6442
   94CHL1   C11 9396   2.165   3.775   7.584  1.1421 -0.7232 -0.2439
   94CHL1  H11A 9397   2.057   3.760   7.561  1.0360 -1.3732  0.6252
   94CHL1  H11B 9398   2.196   3.875   7.546  0.0233 -0.4567 -0.5062
   94CHL1    C9 9399   2.234   3.664   7.507 -0.3721 -0.3937  0.9668
   94CHL1    H9 9400   2.344   3.678   7.518 -0.3865 -0.8687  1.7983
   94CHL1   C10 9401   2.214   3.665   7.353 -0.0837  0.3096  0.0395
   94CHL1   C19 9402   2.062   3.669   7.315 -0.0590 -0.5406  0.5208
   94CHL1  H19A 9403   2.040   3.659   7.206  0.3523 -0.4362  0.4251
   94CHL1  H19B 9404   2.005   3.590   7.368 -1.3115 -0.2211 -0.3135
   94CHL1  H19C 9405   2.013   3.763   7.347  0.7000  0.0182  0.1020
   94CHL1    C1 9406   2.279   3.784   7.291  0.1046  0.3231 -0.5676
   94CHL1   H1A 9407   2.228   3.879   7.320 -1.2712 -0.4004 -0.5044
   94CHL1   H1B 9408   2.384   3.787   7.327 -0.8964 -0.6759  2.7862
   94CHL1    C2 9409   2.282   3.788   7.140 -0.3506  0.4326 -0.2258
   94CHL1   H2A 9410   2.342   3.877   7.111  3.7408 -1.7984  0.6897
   94CHL1   H2B 9411   2.178   3.794   7.102  0.1194  2.0985 -1.3565
   94CHL1   C20 9412   2.139   3.670   8.062  0.0189  0.3989  0.1573
   94CHL1   H20 9413   2.044   3.614   8.066 -1.9144  3.3919 -0.8587
   94CHL1   C21 9414   2.114   3.824   8.043 -0.1706 -0.3053 -0.6773
   94CHL1  H21A 9415   2.040   3.839   7.961  0.1368  1.3070 -0.6938
   94CHL1  H21B 9416   2.209   3.868   8.006 -0.4805  1.1287  0.1417
   94CHL1  H21C 9417   2.077   3.861   8.141 -0.7374 -2.2871 -0.1031
   94CHL1   C22 9418   2.202   3.625   8.199 -0.0173  0.2540  0.6988
   94CHL1  H22A 9419   2.231   3.519   8.189  2.4445  0.5439  3.3548
   94CHL1  H22B 9420   2.302   3.671   8.215 -0.4646  1.2997  0.5942
   94CHL1   C23 9421   2.111   3.630   8.325  0.1202 -0.1271  0.8757
   94CHL1  H23A 9422   2.119   3.727   8.378 -1.5761  1.3108 -1.2945
   94CHL1  H23B 9423   2.003   3.625   8.297  0.2868  2.1277 -0.4196
   94CHL1   C24 9424   2.134   3.509   8.415  0.3139 -0.2668 -0.0052
   94CHL1  H24A 9425   2.109   3.417   8.358  0.0259 -1.4273  1.9407
   94CHL1  H24B 9426   2.244   3.514   8.428  0.5304 -0.9475 -1.4031
   94CHL1   C25 9427   2.061   3.496   8.546  0.2816  1.0630  0.2240
   94CHL1   H25 9428   2.088   3.393   8.577 -3.6834  0.0531  0.9759
   94CHL1   C26 9429   2.088   3.606   8.643  0.4355 -0.1029  0.5864
   94CHL1  H26A 9430   2.038   3.595   8.742 -1.8315  1.8771 -0.2543
   94CHL1  H26B 9431   2.197   3.615   8.665  0.1677  0.3612  1.8242
   94CHL1  H26C 9432   2.056   3.702   8.598  2.4481 -0.1564 -1.1432
   94CHL1   C27 9433   1.909   3.484   8.522 -0.2655  0.7160 -0.7481
   94CHL1  H27A 9434   1.888   3.387   8.471  0.8829 -0.4549  0.8985
   94CHL1  H27B 9435   1.854   3.486   8.619  0.6888 -0.6643 -0.1540
   94CHL1  H27C 9436   1.868   3.558   8.450 -1.3930 -0.1578 -1.0356
   95CHL1    C3 9437   3.568   1.925   6.898  0.4548  1.2480 -0.5768
   95CHL1    H3 9438   3.660   1.898   6.954  0.3787  0.7646 -0.6827
   95CHL1    O3 9439   3.598   1.953   6.766  0.2869 -0.0777  0.9821
   95CHL1   H3' 9440   3.541   2.026   6.740  0.5458 -0.4274 -0.7134
   95CHL1    C4 9441   3.464   1.805   6.904 -0.4773 -0.1846 -0.2940
   95CHL1   H4A 9442   3.372   1.828   6.846  0.3493  1.3443 -1.0867
   95CHL1   H4B 9443   3.512   1.725   6.843 -1.0572  0.4456 -1.6300
   95CHL1    C5 9444   3.424   1.770   7.052  0.0963  0.5257  0.1014
   95CHL1    C6 9445   3.442   1.639   7.088 -0.5308  0.6529 -0.0463
   95CHL1    H6 9446   3.475   1.562   7.017 -0.7969  0.4112  0.0904
   95CHL1    C7 9447   3.423   1.606   7.232  0.3274  0.0056  0.1764
   95CHL1   H7A 9448   3.410   1.497   7.246  1.0289 -0.0233  0.6748
   95CHL1   H7B 9449   3.523   1.622   7.279  0.4420 -0.6008  0.1465
   95CHL1    C8 9450   3.332   1.696   7.312  0.3893 -0.3078 -0.0044
   95CHL1    H8 9451   3.228   1.687   7.274 -1.3035  0.6047  3.9286
   95CHL1   C14 9452   3.327   1.656   7.465  0.5788 -0.2927  0.2865
   95CHL1   H14 9453   3.434   1.658   7.496  1.1280  1.0573 -1.5323
   95CHL1   C15 9454   3.284   1.519   7.501  0.9261  0.2783 -0.4697
   95CHL1  H15A 9455   3.183   1.505   7.459  0.0261  0.5000  1.5292
   95CHL1  H15B 9456   3.354   1.440   7.463  0.4351  0.4380 -1.7435
   95CHL1   C16 9457   3.277   1.535   7.660  0.1523  0.5981  0.0611
   95CHL1  H16A 9458   3.178   1.502   7.699  0.5636 -0.5259  0.1638
   95CHL1  H16B 9459   3.355   1.474   7.710  0.6534  1.5941  0.5186
   95CHL1   C17 9460   3.318   1.687   7.691  0.1250 -0.0831  0.1038
   95CHL1   H17 9461   3.428   1.693   7.706 -0.0979  3.8244  1.2459
   95CHL1   C13 9462   3.278   1.764   7.564  0.9063  1.0361  0.5068
   95CHL1   C18 9463   3.119   1.779   7.535 -0.6361 -0.0919 -0.1938
   95CHL1  H18A 9464   3.092   1.765   7.427 -0.4927 -2.3659  0.0233
   95CHL1  H18B 9465   3.058   1.712   7.599 -0.7621 -0.4008 -0.6290
   95CHL1  H18C 9466   3.095   1.886   7.553 -0.3768 -0.6680  4.9355
   95CHL1   C12 9467   3.332   1.904   7.537  0.2012  0.4883 -0.6512
   95CHL1  H12A 9468   3.279   1.982   7.595 -2.1346  0.0590 -2.0803
   95CHL1  H12B 9469   3.435   1.901   7.579 -0.2498 -1.1597  0.4369
   95CHL1   C11 9470   3.325   1.948   7.394  0.4872  0.2663 -0.0795
   95CHL1  H11A 9471   3.219   1.967   7.366  1.0223  0.5365 -2.0877
   95CHL1  H11B 9472   3.370   2.049   7.378 -2.1826  1.4697 -0.5841
   95CHL1    C9 9473   3.378   1.844   7.295 -0.1278  0.2960  0.1267
   95CHL1    H9 9474   3.482   1.828   7.331 -0.4523  0.5652  1.2027
   95CHL1   C10 9475   3.384   1.894   7.143 -0.0590  0.1599 -0.4973
   95CHL1   C19 9476   3.245   1.926   7.094  0.0239 -0.2571 -0.3095
   95CHL1  H19A 9477   3.219   2.031   7.120  0.7047  0.0683 -0.9323
   95CHL1  H19B 9478   3.223   1.898   6.989 -1.3145 -1.2182  0.1890
   95CHL1  H19C 9479   3.169   1.856   7.135 -2.1977  1.0771 -1.8838
   95CHL1    C1 9480   3.490   1.999   7.128 -0.1061 -0.5573  0.2888
   95CHL1   H1A 9481   3.449   2.079   7.193 -0.1814 -0.7190  0.4407
   95CHL1   H1B 9482   3.587   1.969   7.174  0.6156  0.0854 -0.7515
   95CHL1    C2 9483   3.524   2.039   6.985  0.2072 -0.3708 -0.7034
   95CHL1   H2A 9484   3.603   2.118   6.987  0.0306 -0.1988  1.7453
   95CHL1   H2B 9485   3.435   2.086   6.939 -0.4774 -0.0742  0.8659
   95CHL1   C20 9486   3.253   1.731   7.822  0.1550 -0.0171 -0.6703
   95CHL1   H20 9487   3.142   1.735   7.807 -0.2589  1.9312  2.0355
   95CHL1   C21 9488   3.287   1.875   7.862  0.3378 -0.0714 -0.4473
   95CHL1  H21A 9489   3.223   1.945   7.804 -0.4301 -0.3855  0.0078
   95CHL1  H21B 9490   3.392   1.884   7.828 -0.7550 -0.6284 -4.5172
   95CHL1  H21C 9491   3.277   1.890   7.971 -1.9991 -1.4678 -0.3980
   95CHL1   C22 9492   3.267   1.635   7.948  0.4973 -0.4898  0.6294
   95CHL1  H22A 9493   3.218   1.676   8.039 -1.3961  0.5886 -0.7844
   95CHL1  H22B 9494   3.208   1.542   7.931  0.5207 -0.6381  1.3259
   95CHL1   C23 9495   3.415   1.604   7.980  0.2245 -0.1345 -0.4596
   95CHL1  H23A 9496   3.467   1.554   7.895 -0.4237  0.4943 -1.2359
   95CHL1  H23B 9497   3.464   1.702   7.998 -1.8039  0.7213  0.6090
   95CHL1   C24 9498   3.436   1.504   8.094 -0.6799  0.1079  0.7937
   95CHL1  H24A 9499   3.396   1.403   8.069 -2.7421  1.0841 -0.0648
   95CHL1  H24B 9500   3.547   1.497   8.104 -0.6998  0.3397  1.1829
   95CHL1   C25 9501   3.361   1.541   8.229 -0.4829 -0.4607  0.5458
   95CHL1   H25 9502   3.258   1.563   8.195 -1.0214 -2.2813  0.9131
   95CHL1   C26 9503   3.355   1.414   8.313 -0.5655 -0.2651 -0.1300
   95CHL1  H26A 9504   3.318   1.432   8.416  1.3525 -0.5373  0.6499
   95CHL1  H26B 9505   3.288   1.342   8.262  0.2951 -1.5319  0.4678
   95CHL1  H26C 9506   3.454   1.366   8.332 -1.4059 -1.2762  2.0676
   95CHL1   C27 9507   3.437   1.659   8.298 -0.4049 -0.3093 -0.7161
   95CHL1  H27A 9508   3.398   1.680   8.400 -2.6321 -0.3643 -1.5029
   95CHL1  H27B 9509   3.544   1.632   8.295 -0.0787  0.4214  1.6870
   95CHL1  H27C 9510   3.430   1.751   8.237  0.9862 -0.5524 -1.2702
   96CHL1    C3 9511   1.347   6.716   6.764 -0.1974 -0.1620 -1.0280
   96CHL1    H3 9512   1.306   6.818   6.780  1.7874  0.5841 -0.3600
   96CHL1    O3 9513   1.372   6.690   6.628 -0.7502  0.3491 -0.3324
   96CHL1   H3' 9514   1.292   6.719   6.585 -0.8608 -1.6772 -1.6461
   96CHL1    C4 9515   1.474   6.700   6.847 -0.2201  0.0621 -0.0269
   96CHL1   H4A 9516   1.521   6.599   6.836  0.7612  0.0940  2.9079
   96CHL1   H4B 9517   1.553   6.767   6.807  2.6484 -2.4672  0.9931
   96CHL1    C5 9518   1.450   6.717   6.995  0.4885  0.0052 -0.0504
   96CHL1    C6 9519   1.521   6.813   7.066 -0.7454 -0.7527 -0.1770
   96CHL1    H6 9520   1.605   6.868   7.021 -2.0632 -0.9731 -3.2252
   96CHL1    C7 9521   1.516   6.820   7.218 -0.0712 -0.0230  0.1619
   96CHL1   H7A 9522   1.618   6.809   7.259  0.6879  1.0356 -1.3270
   96CHL1   H7B 9523   1.471   6.914   7.258  0.0096  0.6033 -1.1744
   96CHL1    C8 9524   1.437   6.701   7.279 -0.4179 -0.1512  0.0107
   96CHL1    H8 9525   1.499   6.609   7.276  0.4983  0.4806 -1.3494
   96CHL1   C14 9526   1.402   6.744   7.423 -0.0055 -0.2586  0.7989
   96CHL1   H14 9527   1.333   6.830   7.406  1.5269  0.7247 -0.8403
   96CHL1   C15 9528   1.514   6.789   7.513  0.1687 -0.3576 -0.6037
   96CHL1  H15A 9529   1.593   6.711   7.513 -0.5000 -1.0417 -0.6417
   96CHL1  H15B 9530   1.557   6.889   7.491  1.1768 -1.2486 -3.0462
   96CHL1   C16 9531   1.442   6.784   7.654 -0.4127 -0.2221  0.5804
   96CHL1  H16A 9532   1.513   6.731   7.722  0.3369  1.6897  1.3727
   96CHL1  H16B 9533   1.430   6.889   7.688  2.8687  0.8388 -1.0947
   96CHL1   C17 9534   1.307   6.714   7.640 -0.3687  0.4783  0.1324
   96CHL1   H17 9535   1.218   6.779   7.622 -1.4655 -1.1344 -0.4610
   96CHL1   C13 9536   1.319   6.636   7.503  0.3069 -0.9869 -0.3233
   96CHL1   C18 9537   1.394   6.501   7.521 -0.2979 -0.0115  0.2556
   96CHL1  H18A 9538   1.468   6.501   7.604 -3.3259  3.3207  3.2968
   96CHL1  H18B 9539   1.337   6.412   7.556 -0.2447 -0.6498 -1.1693
   96CHL1  H18C 9540   1.442   6.470   7.425 -0.8479  0.4882 -0.1921
   96CHL1   C12 9541   1.185   6.618   7.416 -0.8031  0.5512  0.2926
   96CHL1  H12A 9542   1.119   6.545   7.468  0.1717 -0.4199  0.2123
   96CHL1  H12B 9543   1.134   6.716   7.414 -0.6609  0.6510  1.1879
   96CHL1   C11 9544   1.214   6.565   7.272  0.0150  0.1946 -0.2809
   96CHL1  H11A 9545   1.255   6.463   7.288 -3.2081 -1.1549  0.1673
   96CHL1  H11B 9546   1.113   6.552   7.229 -0.6734  0.0688  1.3004
   96CHL1    C9 9547   1.308   6.672   7.204 -0.2391  0.9625 -0.2870
   96CHL1    H9 9548   1.261   6.773   7.201  1.7433  2.0334  1.6457
   96CHL1   C10 9549   1.340   6.626   7.050 -0.1177 -0.4177 -0.7237
   96CHL1   C19 9550   1.388   6.478   7.048 -0.0127  0.7142 -0.2666
   96CHL1  H19A 9551   1.472   6.452   7.116 -0.7533  1.8154  1.1106
   96CHL1  H19B 9552   1.309   6.406   7.080  0.2973  0.3477 -0.3145
   96CHL1  H19C 9553   1.415   6.449   6.944 -1.2990 -0.1636 -0.3848
   96CHL1    C1 9554   1.214   6.638   6.957 -0.3796  0.3574 -0.9959
   96CHL1   H1A 9555   1.137   6.570   6.998 -1.9041  1.6755 -1.5435
   96CHL1   H1B 9556   1.167   6.736   6.978 -1.1168 -0.2885  0.4922
   96CHL1    C2 9557   1.239   6.617   6.810  0.2364 -0.2696 -0.0990
   96CHL1   H2A 9558   1.145   6.631   6.752  0.2708  0.3982  0.0019
   96CHL1   H2B 9559   1.277   6.514   6.793  2.1421  0.5539 -1.1200
   96CHL1   C20 9560   1.278   6.631   7.762  0.1855 -0.2682 -0.3098
   96CHL1   H20 9561   1.354   6.552   7.780  0.0414  0.2054  2.8744
   96CHL1   C21 9562   1.147   6.556   7.754  0.1366  0.1441 -0.1524
   96CHL1  H21A 9563   1.148   6.469   7.686  2.3105  0.3759 -0.4933
   96CHL1  H21B 9564   1.061   6.617   7.719  0.9790  0.7857 -1.1433
   96CHL1  H21C 9565   1.124   6.507   7.851  0.2395  0.0654 -0.1686
   96CHL1   C22 9566   1.266   6.730   7.886  0.1527 -0.4982  0.0333
   96CHL1  H22A 9567   1.275   6.838   7.864 -1.8170 -0.6439 -1.8160
   96CHL1  H22B 9568   1.161   6.735   7.923  1.0023  0.6355  2.5209
   96CHL1   C23 9569   1.352   6.674   8.003 -0.2491  0.1191 -0.1767
   96CHL1  H23A 9570   1.340   6.564   8.011  1.9770 -0.3570 -2.2314
   96CHL1  H23B 9571   1.460   6.674   7.975 -0.7160 -3.1503 -2.6422
   96CHL1   C24 9572   1.335   6.740   8.136  0.1181  0.7178  0.1152
   96CHL1  H24A 9573   1.369   6.846   8.139 -1.9963  1.4468 -0.1465
   96CHL1  H24B 9574   1.226   6.738   8.157  0.0240 -2.0019 -0.2352
   96CHL1   C25 9575   1.402   6.650   8.245  0.1716  0.3308  0.6337
   96CHL1   H25 9576   1.361   6.548   8.227 -0.4014  0.7219 -0.3222
   96CHL1   C26 9577   1.551   6.626   8.237 -0.0221  0.0942 -0.1760
   96CHL1  H26A 9578   1.583   6.554   8.316  0.8384 -1.5694 -1.9526
   96CHL1  H26B 9579   1.592   6.581   8.144 -1.1138 -1.4150  0.0364
   96CHL1  H26C 9580   1.591   6.724   8.273 -2.2580  0.5721  1.2462
   96CHL1   C27 9581   1.365   6.694   8.381 -0.0591 -0.1462  0.2895
   96CHL1  H27A 9582   1.421   6.785   8.410  0.9430  0.1092 -2.1824
   96CHL1  H27B 9583   1.257   6.717   8.378 -0.5704 -2.4049 -1.6696
   96CHL1  H27C 9584   1.385   6.610   8.452  0.3264 -0.7513 -0.5127
   97OSM      N 9585   2.037   6.248  10.851  0.0341  0.6644 -0.1148
   97OSM    C15 9586   1.896   6.219  10.858  0.0398 -0.1285 -0.1596
   97OSM   H15A 9587   1.872   6.212  10.963 -0.3265  0.9035 -0.1626
   97OSM   H15B 9588   1.868   6.121  10.824  0.2579 -0.3203  0.2101
   97OSM   H15C 9589   1.845   6.307  10.820  0.8762  1.2042  1.6704
   97OSM    C14 9590   2.098   6.234  10.720 -0.3907 -0.0362 -0.2302
   97OSM   H14A 9591   2.200   6.269  10.717  0.2293 -1.6715  0.5336
   97OSM   H14B 9592   2.040   6.287  10.645  0.1712  1.5033  0.3922
   97OSM   H14C 9593   2.087   6.134  10.681 -3.5398  0.6076 -1.3479
   97OSM    C13 9594   2.060   6.394  10.880  0.5741  0.6374  0.2049
   97OSM   H13A 9595   2.041   6.462  10.799 -0.1115 -0.1836 -0.3440
   97OSM   H13B 9596   2.159   6.416  10.916  1.9736 -0.2663 -2.8014
   97OSM   H13C 9597   2.001   6.424  10.966  1.4226  1.9586  0.3609
   97OSM    C12 9598   2.116   6.173  10.953  0.0402 -0.2135 -0.0822
   97OSM   H12A 9599   2.217   6.213  10.957 -0.1120  0.3438 -1.3328
   97OSM   H12B 9600   2.121   6.072  10.915 -1.4441  1.0112 -4.0189
   97OSM    C11 9601   2.071   6.160  11.095 -0.3640  0.1849 -0.0055
   97OSM   H11A 9602   2.047   6.263  11.131  2.9379  0.9859  0.1813
   97OSM   H11B 9603   2.149   6.133  11.169 -0.7650  1.2251  0.8311
   97OSM      P 9604   1.963   5.924  11.083  0.2186  0.1369  0.3239
   97OSM    O13 9605   2.043   5.867  11.196 -0.2553 -0.1240 -0.4980
   97OSM    O14 9606   1.826   5.876  11.056 -0.4463 -0.0903  0.6526
   97OSM    O11 9607   2.055   5.902  10.955 -0.1076 -0.1140  0.1769
   97OSM    O12 9608   1.956   6.081  11.113  0.0900 -0.0970  0.4111
   97OSM    C1S 9609   2.030   5.816  10.839 -0.4902 -0.3350  0.8944
   97OSM    H1S 9610   1.957   5.871  10.776  0.5525 -1.3533 -1.3045
   97OSM    H1T 9611   1.978   5.722  10.866 -1.6380 -0.1140 -0.4233
   97OSM     NF 9612   2.143   5.747  10.620 -0.1484 -0.3233 -0.2514
   97OSM    HNF 9613   2.145   5.650  10.598 -0.7597 -0.3878 -0.0263
   97OSM    C2S 9614   2.165   5.802  10.755  0.1330  0.0886  0.3280
   97OSM    H2S 9615   2.215   5.901  10.751  1.4539 -0.5254  1.2227
   97OSM    C3S 9616   2.258   5.714  10.839  0.1155  0.2516 -0.6810
   97OSM    H3S 9617   2.223   5.610  10.856 -0.1814  0.4903  0.2592
   97OSM     O3 9618   2.293   5.772  10.966  0.2186  0.3057  0.4570
   97OSM    HO3 9619   2.237   5.850  10.970  1.1101  0.9845  0.0482
   97OSM    C4S 9620   2.389   5.702  10.769  0.0835 -0.2933  0.1476
   97OSM    H4S 9621   2.454   5.791  10.775  1.4004 -1.3215  2.6576
   97OSM    C5S 9622   2.446   5.590  10.726 -0.9251 -0.1375 -0.5385
   97OSM    H5S 9623   2.397   5.492  10.738  1.4378 -1.3436 -0.1167
   97OSM    C6S 9624   2.588   5.574  10.674 -0.3298  0.1409 -0.1462
   97OSM    H6S 9625   2.661   5.557  10.756  0.1979  2.2070 -0.1229
   97OSM    H6T 9626   2.611   5.669  10.620  0.0485 -1.2299 -2.5155
   97OSM    C7S 9627   2.607   5.455  10.572 -1.2173 -0.0274  0.4711
   97OSM    H7S 9628   2.602   5.357  10.625 -1.7509 -0.0753  0.3411
   97OSM    H7T 9629   2.715   5.459  10.547 -1.5866 -0.6333 -1.3563
   97OSM    C8S 9630   2.526   5.449  10.440  0.4053 -0.4743 -0.1395
   97OSM    H8S 9631   2.507   5.553  10.408 -1.5944 -1.0497 -0.9408
   97OSM    H8T 9632   2.431   5.396  10.466 -0.5225  1.3458  0.3188
   97OSM    C9S 9633   2.585   5.371  10.318  0.4902  0.1921 -0.6786
   97OSM    H9S 9634   2.624   5.271  10.344 -1.6089 -0.3402  0.7161
   97OSM    H9T 9635   2.668   5.429  10.273  1.3090  0.5159  1.1372
   97OSM   C10S 9636   2.477   5.350  10.222  0.6041 -0.2871  0.8056
   97OSM   H10S 9637   2.460   5.448  10.171 -1.2372  0.0873  2.0414
   97OSM   H10T 9638   2.382   5.322  10.273  0.2029 -0.9445 -0.2688
   97OSM   C11S 9639   2.507   5.245  10.116 -0.0571  0.0014 -0.0829
   97OSM   H11S 9640   2.523   5.149  10.170 -0.6208  0.2601  0.5562
   97OSM   H11T 9641   2.604   5.262  10.066  0.2278  0.0159  0.4644
   97OSM   C12S 9642   2.395   5.230  10.002  0.1681 -0.6488  0.3183
   97OSM   H12S 9643   2.314   5.193  10.068  1.3929 -0.3992  2.0149
   97OSM   H12T 9644   2.415   5.142   9.936 -0.4996 -1.8240  1.6372
   97OSM   C13S 9645   2.365   5.354   9.916 -0.1199 -0.3246  0.3019
   97OSM   H13S 9646   2.464   5.387   9.878 -0.7349  1.4048  0.1285
   97OSM   H13T 9647   2.314   5.429   9.980  0.3581  1.3621 -1.2153
   97OSM   C14S 9648   2.287   5.326   9.786  0.3260 -0.0486 -0.4254
   97OSM   H14S 9649   2.198   5.272   9.823  0.0986 -0.0271 -0.9315
   97OSM   H14T 9650   2.337   5.253   9.718  0.3768  0.3270 -0.7935
   97OSM   C15S 9651   2.252   5.445   9.706  0.4298  0.0158 -0.9296
   97OSM   H15S 9652   2.327   5.524   9.683 -1.5315  1.7222 -1.8155
   97OSM   H15T 9653   2.184   5.502   9.772  1.1159  0.2784 -0.4374
   97OSM   C16S 9654   2.213   5.395   9.562  0.2226  0.0581  0.0014
   97OSM   H16S 9655   2.148   5.305   9.564 -1.4917  1.2080 -1.4004
   97OSM   H16T 9656   2.303   5.378   9.499 -0.1035  3.6271 -1.6744
   97OSM   C17S 9657   2.148   5.509   9.480 -0.0216 -0.1113 -0.3190
   97OSM   H17S 9658   2.226   5.588   9.474 -1.2121  1.1204 -0.2371
   97OSM   H17T 9659   2.070   5.551   9.547 -2.5772 -1.2038 -2.4078
   97OSM   C18S 9660   2.103   5.463   9.340 -0.1289 -0.1180  0.2006
   97OSM   H18S 9661   2.008   5.406   9.354 -1.1211  0.8866 -1.9122
   97OSM   H18T 9662   2.176   5.402   9.282 -2.5281 -0.2949 -2.9096
   97OSM   H18U 9663   2.087   5.555   9.281  2.1171 -0.0110 -0.3220
   97OSM    C1F 9664   2.080   5.838  10.538  1.2134 -0.2163 -0.5117
   97OSM     OF 9665   2.068   5.957  10.567 -0.6978  0.2191  0.0079
   97OSM    C2F 9666   2.012   5.787  10.420  0.8408  0.2293 -0.0327
   97OSM    H2F 9667   1.922   5.727  10.445 -0.0693  1.2205 -0.8245
   97OSM    H2G 9668   2.076   5.709  10.374 -0.4262 -1.4407  0.9563
   97OSM    C3F 9669   1.970   5.892  10.317 -0.0324 -0.0575  0.5306
   97OSM    H3F 9670   1.905   5.965  10.369 -0.1381 -1.4302  2.4311
   97OSM    H3G 9671   1.915   5.838  10.236 -0.4832  0.8094  0.2491
   97OSM    C4F 9672   2.086   5.964  10.247  0.5154 -0.6902 -0.1297
   97OSM    H4F 9673   2.150   6.024  10.315 -2.1325  1.1493  0.9295
   97OSM    H4G 9674   2.038   6.050  10.195  3.8680  1.0232 -0.6942
   97OSM    C5F 9675   2.159   5.874  10.149 -0.2270 -0.2489 -0.1234
   97OSM    H5F 9676   2.164   5.772  10.192  1.2195  0.3817  1.2941
   97OSM    H5G 9677   2.266   5.902  10.139  0.1085 -1.6480 -0.6439
   97OSM    C6F 9678   2.079   5.873  10.009  0.3142  0.0470 -0.6632
   97OSM    H6F 9679   2.064   5.976   9.971 -1.2280 -0.4492 -1.4861
   97OSM    H6G 9680   1.975   5.837  10.022 -0.4240  2.5824  1.3804
   97OSM    C7F 9681   2.150   5.786   9.900  0.2319  0.1522 -0.3272
   97OSM    H7F 9682   2.146   5.684   9.944 -1.5090  1.1045  1.9001
   97OSM    H7G 9683   2.251   5.825   9.875  0.9494 -1.3111  0.1505
   97OSM    C8F 9684   2.060   5.776   9.771  0.3636 -0.1410  0.3034
   97OSM    H8F 9685   1.962   5.728   9.789  1.3872 -1.9651  1.1846
   97OSM    H8G 9686   2.094   5.690   9.709 -0.4938  0.0420 -0.4491
   97OSM    C9F 9687   2.060   5.903   9.693  0.3426 -0.9407 -0.5648
   97OSM    H9F 9688   2.144   5.973   9.710 -0.8138  0.4827 -0.5493
   97OSM   C10F 9689   1.974   5.947   9.605  0.0732 -0.2427  0.4038
   97OSM   H10F 9690   1.997   6.040   9.552 -0.7783  0.2344  0.8489
   97OSM   C11F 9691   1.842   5.884   9.555 -0.7955 -0.0455 -0.2256
   97OSM   H11F 9692   1.749   5.930   9.593 -0.2580 -0.0604  1.1578
   97OSM   H11G 9693   1.844   5.777   9.587 -0.2346  0.2239  0.6804
   97OSM   C12F 9694   1.845   5.900   9.407  0.2336  0.0407  0.4191
   97OSM   H12F 9695   1.870   6.005   9.382  1.3419 -0.7747 -2.2261
   97OSM   H12G 9696   1.739   5.883   9.377 -0.8115 -0.8319  4.0655
   97OSM   C13F 9697   1.937   5.808   9.326  0.3616  0.0549  0.3170
   97OSM   H13F 9698   1.895   5.706   9.335  0.1603  0.0364 -0.6695
   97OSM   H13G 9699   2.043   5.809   9.358  0.8219  2.3114 -1.0096
   97OSM   C14F 9700   1.945   5.827   9.170  0.2435 -0.7612 -0.7014
   97OSM   H14F 9701   1.847   5.875   9.147  0.0741  0.2254  1.7132
   97OSM   H14G 9702   1.960   5.726   9.128  2.1696 -1.2028  0.8684
   97OSM   C15F 9703   2.065   5.907   9.128 -0.2161 -0.2731 -0.1333
   97OSM   H15F 9704   2.159   5.849   9.147  1.0227  1.1951 -1.5194
   97OSM   H15G 9705   2.088   6.006   9.172  0.1412  0.9809 -2.9791
   97OSM   C16F 9706   2.050   5.929   8.976  0.0789 -0.5689 -0.1899
   97OSM   H16F 9707   1.971   6.003   8.950  0.0456  0.0965  1.7039
   97OSM   H16G 9708   2.034   5.829   8.929  0.9551 -1.3997  1.2190
   97OSM   C17F 9709   2.177   5.988   8.904  0.6061 -0.2461 -0.7494
   97OSM   H17F 9710   2.263   5.919   8.916 -1.3836 -2.8672 -0.7304
   97OSM   H17G 9711   2.207   6.083   8.954 -0.4271 -1.2774  2.0332
   97OSM   C18F 9712   2.150   6.007   8.764 -0.0094 -0.0615  1.2529
   97OSM   H18F 9713   2.240   6.024   8.702 -0.6326  0.4839  0.4831
   97OSM   H18G 9714   2.087   6.095   8.740  1.5441  0.9112  0.5749
   97OSM   H18H 9715   2.107   5.920   8.712  0.7015  2.1194 -3.5089
   98OSM      N 9716   1.123   2.146  11.003 -0.5468  0.4076 -0.5762
   98OSM    C15 9717   1.188   2.123  11.133 -0.2170 -0.2625 -0.2981
   98OSM   H15A 9718   1.273   2.056  11.124  0.5202  0.6281 -0.1150
   98OSM   H15B 9719   1.119   2.068  11.195 -0.3253 -1.8798 -1.7735
   98OSM   H15C 9720   1.221   2.217  11.174 -3.7433  0.3665  1.4458
   98OSM    C14 9721   0.998   2.224  10.999 -0.4058  0.8496 -0.0348
   98OSM   H14A 9722   0.920   2.182  11.060 -0.9990 -0.5334 -1.6730
   98OSM   H14B 9723   0.962   2.223  10.897 -1.3418 -0.0806  0.2865
   98OSM   H14C 9724   1.012   2.328  11.025  1.7332  0.1405  2.0205
   98OSM    C13 9725   1.224   2.223  10.925 -0.5850  0.4096 -0.1412
   98OSM   H13A 9726   1.305   2.160  10.891 -0.1886  0.7619  0.1418
   98OSM   H13B 9727   1.273   2.292  10.991 -3.2542  0.0808  2.3823
   98OSM   H13C 9728   1.191   2.279  10.838  3.1267  0.7335 -1.5259
   98OSM    C12 9729   1.098   2.012  10.940 -0.3932  0.0039  0.4938
   98OSM   H12A 9730   1.189   1.958  10.917 -1.5605 -1.6732 -0.3806
   98OSM   H12B 9731   1.051   2.026  10.844  0.0989 -1.5992 -0.0066
   98OSM    C11 9732   0.998   1.919  11.012 -0.6644  0.3701 -0.4666
   98OSM   H11A 9733   1.033   1.907  11.117 -0.0668  1.1476 -0.5620
   98OSM   H11B 9734   0.997   1.819  10.965  1.4471 -0.4659  1.0942
   98OSM      P 9735   0.741   1.886  10.964  0.1220  0.1359  0.0708
   98OSM    O13 9736   0.745   1.758  11.045 -0.1956  0.2790 -0.5056
   98OSM    O14 9737   0.621   1.974  10.970 -0.0446  0.2663 -0.0184
   98OSM    O11 9738   0.761   1.859  10.809 -0.2868  0.1934  0.1326
   98OSM    O12 9739   0.866   1.975  11.009 -0.1660 -0.2007  0.7445
   98OSM    C1S 9740   0.802   1.971  10.727  0.3429  0.4515 -0.1404
   98OSM    H1S 9741   0.890   2.027  10.767  1.2436 -0.1140 -1.2438
   98OSM    H1T 9742   0.723   2.047  10.714 -0.0765 -0.2464 -2.1091
   98OSM     NF 9743   0.920   2.016  10.512  0.1560 -0.3959  0.6713
   98OSM    HNF 9744   0.872   2.058  10.435 -1.1312 -2.7516  0.0951
   98OSM    C2S 9745   0.837   1.923  10.585 -0.0906 -0.3631  0.2690
   98OSM    H2S 9746   0.896   1.829  10.590  0.7588  0.1570  0.1524
   98OSM    C3S 9747   0.721   1.870  10.504 -0.6852 -0.4662 -0.2773
   98OSM    H3S 9748   0.644   1.950  10.492  0.6953  0.8938 -0.4807
   98OSM     O3 9749   0.640   1.779  10.577 -0.4406 -0.2718 -0.0568
   98OSM    HO3 9750   0.679   1.784  10.665 -0.4957 -1.3154  0.0392
   98OSM    C4S 9751   0.751   1.809  10.367  0.5242 -0.0668  0.4051
   98OSM    H4S 9752   0.753   1.893  10.296 -0.9066  0.8688  1.4345
   98OSM    C5S 9753   0.766   1.677  10.334 -0.1282 -0.4332 -0.3596
   98OSM    H5S 9754   0.742   1.604  10.412 -0.4455 -1.5111 -1.4378
   98OSM    C6S 9755   0.796   1.634  10.196  1.3917  0.1020 -0.0109
   98OSM    H6S 9756   0.739   1.539  10.188  0.2115  0.6404  1.4965
   98OSM    H6T 9757   0.904   1.609  10.186  1.1992 -0.3865 -1.0262
   98OSM    C7S 9758   0.759   1.724  10.075 -0.3923  0.1973 -0.0689
   98OSM    H7S 9759   0.811   1.822  10.083 -0.7025  1.0979 -5.1646
   98OSM    H7T 9760   0.652   1.749  10.090 -0.3883  0.4914 -0.5140
   98OSM    C8S 9761   0.804   1.676   9.935 -0.0556  0.1379  0.1556
   98OSM    H8S 9762   0.778   1.569   9.915 -0.5322  0.7873 -3.1211
   98OSM    H8T 9763   0.914   1.678   9.921  0.1479 -0.2071  1.5257
   98OSM    C9S 9764   0.730   1.752   9.824  0.1112  0.1354  0.4177
   98OSM    H9S 9765   0.753   1.859   9.842 -1.2582  0.8278 -1.6239
   98OSM    H9T 9766   0.620   1.740   9.836  0.2518 -1.7347  0.0944
   98OSM   C10S 9767   0.769   1.693   9.687  0.3397 -0.4210  0.2962
   98OSM   H10S 9768   0.734   1.588   9.688 -0.8673 -0.0434  0.2746
   98OSM   H10T 9769   0.877   1.710   9.667 -0.1449  2.8352 -0.2869
   98OSM   C11S 9770   0.693   1.751   9.564 -0.2744 -1.2733 -0.2740
   98OSM   H11S 9771   0.714   1.860   9.559  0.6934 -1.5185 -2.4446
   98OSM   H11T 9772   0.585   1.744   9.591 -0.0957 -2.3428  0.2006
   98OSM   C12S 9773   0.718   1.691   9.426  0.0892  0.6516  0.0826
   98OSM   H12S 9774   0.617   1.666   9.387  0.4170 -1.9859  0.7378
   98OSM   H12T 9775   0.773   1.599   9.457 -1.7085 -0.1054  1.1985
   98OSM   C13S 9776   0.811   1.760   9.331  0.2801 -0.4283 -0.2252
   98OSM   H13S 9777   0.884   1.808   9.400 -0.4460  0.8571 -0.3391
   98OSM   H13T 9778   0.762   1.833   9.264 -0.2338  1.1655  1.7955
   98OSM   C14S 9779   0.883   1.661   9.237 -0.1615 -0.6773 -0.1309
   98OSM   H14S 9780   0.939   1.588   9.300  1.1089  0.7717  0.4850
   98OSM   H14T 9781   0.950   1.714   9.166  0.1906 -0.2533  0.5046
   98OSM   C15S 9782   0.775   1.584   9.149  0.0394  0.2448 -0.8569
   98OSM   H15S 9783   0.700   1.543   9.220  0.1621  0.7425 -0.4378
   98OSM   H15T 9784   0.829   1.502   9.096 -1.3145 -2.7342  2.0126
   98OSM   C16S 9785   0.711   1.673   9.040  0.3511  0.6800  1.0699
   98OSM   H16S 9786   0.783   1.748   9.001  1.2697  0.2724  1.9411
   98OSM   H16T 9787   0.631   1.726   9.097  0.4360  2.1313 -0.1101
   98OSM   C17S 9788   0.637   1.603   8.931  0.6534  0.2252  0.5104
   98OSM   H17S 9789   0.569   1.682   8.893 -0.4730  0.6282  3.1029
   98OSM   H17T 9790   0.572   1.526   8.978  1.5790 -2.8614 -2.8202
   98OSM   C18S 9791   0.713   1.531   8.833  0.2081  0.0562  1.0428
   98OSM   H18S 9792   0.665   1.459   8.764  1.3247 -0.1214  0.4371
   98OSM   H18T 9793   0.796   1.480   8.885  1.0987  0.5093  0.0897
   98OSM   H18U 9794   0.765   1.600   8.763 -0.1100 -2.8495 -2.3176
   98OSM    C1F 9795   1.040   2.058  10.553 -0.2669  0.0311 -0.2638
   98OSM     OF 9796   1.106   1.994  10.638 -0.1258 -0.4135 -0.0092
   98OSM    C2F 9797   1.073   2.198  10.500 -0.5053  0.2232  0.0718
   98OSM    H2F 9798   0.992   2.260  10.543 -2.0923 -2.4529  1.1715
   98OSM    H2G 9799   1.051   2.189  10.392 -1.2813 -2.1936  0.3786
   98OSM    C3F 9800   1.210   2.245  10.543  0.3088 -0.5506 -0.5564
   98OSM    H3F 9801   1.213   2.238  10.654 -3.5712  0.6281 -0.2510
   98OSM    H3G 9802   1.204   2.356  10.536  0.4047 -0.6234 -2.1169
   98OSM    C4F 9803   1.330   2.194  10.463  0.1886 -0.0150 -0.2182
   98OSM    H4F 9804   1.354   2.091  10.495  0.7970  0.1257 -0.2045
   98OSM    H4G 9805   1.425   2.245  10.492  0.1542 -1.3848  2.5697
   98OSM    C5F 9806   1.313   2.199  10.317 -0.3913 -0.6867  0.3217
   98OSM    H5F 9807   1.228   2.140  10.276 -1.1315  1.4611 -1.4484
   98OSM    H5G 9808   1.404   2.159  10.267  0.1426  0.8933 -0.0184
   98OSM    C6F 9809   1.288   2.341  10.256 -0.3130 -0.2651  0.1994
   98OSM    H6F 9810   1.382   2.401  10.266  0.2859 -1.0653 -0.4766
   98OSM    H6G 9811   1.201   2.397  10.296 -1.0355 -1.3071  0.1168
   98OSM    C7F 9812   1.264   2.339  10.104  0.6680  0.0814  0.2792
   98OSM    H7F 9813   1.169   2.281  10.100  0.9643 -0.3950  0.1028
   98OSM    H7G 9814   1.343   2.280  10.054  1.5719  0.0816  1.6331
   98OSM    C8F 9815   1.265   2.480  10.045 -0.2273 -0.3904  1.1048
   98OSM    H8F 9816   1.362   2.504   9.997 -0.3068  0.9950  1.5994
   98OSM    H8G 9817   1.252   2.555  10.127  2.8439  1.2699  0.2031
   98OSM    C9F 9818   1.158   2.487   9.943 -0.0015 -0.4141  0.7838
   98OSM    H9F 9819   1.061   2.486   9.997  0.7009  0.9705  2.1565
   98OSM   C10F 9820   1.173   2.520   9.810  0.6905 -0.6412 -0.2211
   98OSM   H10F 9821   1.083   2.537   9.748 -0.3927 -1.9766  0.8954
   98OSM   C11F 9822   1.296   2.554   9.734 -0.4426  0.2799  0.3442
   98OSM   H11F 9823   1.383   2.566   9.801  0.7951  2.7745 -1.5690
   98OSM   H11G 9824   1.280   2.648   9.677 -2.5723  0.0106  0.3990
   98OSM   C12F 9825   1.342   2.436   9.638 -0.1476 -0.2045 -0.4200
   98OSM   H12F 9826   1.371   2.349   9.701 -0.0445  1.7067  2.3351
   98OSM   H12G 9827   1.431   2.469   9.580  1.0799 -2.4968  0.0391
   98OSM   C13F 9828   1.246   2.388   9.538 -0.0893  0.3812  0.1205
   98OSM   H13F 9829   1.206   2.483   9.497  1.3437 -0.5104 -3.7240
   98OSM   H13G 9830   1.170   2.335   9.600  0.5816 -1.5390 -0.6331
   98OSM   C14F 9831   1.307   2.301   9.432  0.9423  0.6021  0.1316
   98OSM   H14F 9832   1.401   2.335   9.382  3.4448 -2.8080  2.0872
   98OSM   H14G 9833   1.231   2.296   9.351  0.7113  0.2860  0.3647
   98OSM   C15F 9834   1.313   2.154   9.472  0.1984  0.7633  0.3197
   98OSM   H15F 9835   1.265   2.078   9.407 -1.2881  2.2224 -0.3611
   98OSM   H15G 9836   1.266   2.151   9.573  0.8336 -0.4000  0.6062
   98OSM   C16F 9837   1.453   2.102   9.508 -0.5335  0.2745 -0.1550
   98OSM   H16F 9838   1.446   2.006   9.564 -1.2042  0.8302  0.7498
   98OSM   H16G 9839   1.497   2.173   9.581 -0.2037 -0.1501  0.0659
   98OSM   C17F 9840   1.551   2.106   9.387  0.5973  0.4077  0.1074
   98OSM   H17F 9841   1.553   2.204   9.333 -1.0372 -0.1639 -1.0850
   98OSM   H17G 9842   1.515   2.032   9.313  0.2120  0.0218  0.6693
   98OSM   C18F 9843   1.692   2.073   9.442 -0.2766 -0.7628 -0.2774
   98OSM   H18F 9844   1.768   2.097   9.365 -0.7640  1.0089 -0.2628
   98OSM   H18G 9845   1.715   1.967   9.465  4.2380 -0.0760 -0.8314
   98OSM   H18H 9846   1.702   2.137   9.533 -1.0857 -0.2730 -0.5175
   99OSM      N 9847   2.516   1.311  11.132  0.0344  0.0556  0.6330
   99OSM    C15 9848   2.434   1.198  11.183  0.4759  0.1027  0.0639
   99OSM   H15A 9849   2.406   1.215  11.286  0.1705 -0.6036  0.1006
   99OSM   H15B 9850   2.489   1.105  11.180  3.1044  1.2623  3.9942
   99OSM   H15C 9851   2.345   1.187  11.122  1.2177 -2.1319 -0.6907
   99OSM    C14 9852   2.437   1.432  11.156 -0.4348 -0.2485 -0.5862
   99OSM   H14A 9853   2.340   1.427  11.109 -0.8252  0.1085  0.1551
   99OSM   H14B 9854   2.491   1.524  11.140 -0.8776  0.2065  0.4275
   99OSM   H14C 9855   2.431   1.453  11.262 -1.5305  1.5220 -0.9535
   99OSM    C13 9856   2.647   1.308  11.206 -0.4267  0.0931 -0.4598
   99OSM   H13A 9857   2.703   1.392  11.167  1.7926  0.1703  2.5617
   99OSM   H13B 9858   2.705   1.219  11.188 -0.2228  0.1980 -0.3277
   99OSM   H13C 9859   2.624   1.312  11.311 -2.1147  0.6208 -0.8237
   99OSM    C12 9860   2.547   1.292  10.990 -0.4606  0.2327 -0.2291
   99OSM   H12A 9861   2.453   1.276  10.939  0.7626 -1.2029 -2.1470
   99OSM   H12B 9862   2.601   1.199  10.979  1.7195  1.5048 -0.8530
   99OSM    C11 9863   2.625   1.407  10.921 -0.8921 -0.4658  1.0708
   99OSM   H11A 9864   2.565   1.500  10.926  0.2084  0.2580  1.0201
   99OSM   H11B 9865   2.622   1.381  10.813 -0.7795 -2.1310  1.4327
   99OSM      P 9866   2.883   1.343  10.918 -0.3575  0.1068  0.2598
   99OSM    O13 9867   3.003   1.429  10.946  0.3930 -0.0593 -0.3982
   99OSM    O14 9868   2.879   1.213  10.994 -0.1564  0.6751  0.1582
   99OSM    O11 9869   2.855   1.325  10.764  0.7248 -0.8311 -0.2210
   99OSM    O12 9870   2.756   1.427  10.970  0.0855 -0.1829 -0.1420
   99OSM    C1S 9871   2.892   1.423  10.673 -0.8115 -0.7362  0.1321
   99OSM    H1S 9872   3.003   1.417  10.667 -0.8290 -1.3313  0.3257
   99OSM    H1T 9873   2.870   1.527  10.708 -1.0289 -0.0622 -1.9012
   99OSM     NF 9874   2.892   1.503  10.447  0.3957  0.4200  0.1633
   99OSM    HNF 9875   2.819   1.571  10.442 -1.8726 -1.7808  0.9877
   99OSM    C2S 9876   2.844   1.392  10.525  0.1340 -0.1399 -0.2248
   99OSM    H2S 9877   2.893   1.296  10.499 -0.2845 -1.6795  3.9626
   99OSM    C3S 9878   2.690   1.366  10.527 -0.2954 -0.1280 -0.0349
   99OSM    H3S 9879   2.634   1.445  10.581 -0.3510 -1.5691  2.1564
   99OSM     O3 9880   2.653   1.254  10.601  0.3002  0.6894  0.0334
   99OSM    HO3 9881   2.726   1.236  10.661  1.1611 -0.3473 -1.2721
   99OSM    C4S 9882   2.641   1.358  10.383  0.6596 -0.1952 -0.1256
   99OSM    H4S 9883   2.680   1.271  10.329  2.2352 -0.1156  0.8209
   99OSM    C5S 9884   2.558   1.443  10.326  0.0110 -0.6294 -0.0347
   99OSM    H5S 9885   2.538   1.541  10.373  0.5474 -0.1286 -0.8295
   99OSM    C6S 9886   2.514   1.439  10.184  0.1070 -0.0755  0.2788
   99OSM    H6S 9887   2.404   1.449  10.193  0.3414  0.2168  4.4244
   99OSM    H6T 9888   2.541   1.339  10.145 -1.0978 -0.7037  0.9918
   99OSM    C7S 9889   2.571   1.551  10.095 -0.0783  0.2847  0.5517
   99OSM    H7S 9890   2.682   1.543  10.099 -0.1596 -0.3257  2.1807
   99OSM    H7T 9891   2.544   1.652  10.133  1.8178  0.1057  2.5897
   99OSM    C8S 9892   2.536   1.524   9.949 -0.2043  0.0090  0.1544
   99OSM    H8S 9893   2.426   1.537   9.936  0.1232  2.4273 -0.6739
   99OSM    H8T 9894   2.551   1.415   9.930 -1.9756  0.2280 -3.1493
   99OSM    C9S 9895   2.618   1.608   9.845 -0.1739  0.3969 -0.8817
   99OSM    H9S 9896   2.727   1.585   9.844 -0.2109  0.2259 -0.9202
   99OSM    H9T 9897   2.614   1.713   9.881  0.6294  0.1441 -0.0079
   99OSM   C10S 9898   2.553   1.607   9.704 -0.2733  0.5521 -0.2629
   99OSM   H10S 9899   2.442   1.614   9.713 -0.3730 -1.7298  1.2330
   99OSM   H10T 9900   2.566   1.505   9.663 -0.2550  0.7579 -0.7703
   99OSM   C11S 9901   2.614   1.709   9.601 -0.4184  0.3852  0.8972
   99OSM   H11S 9902   2.714   1.674   9.565 -0.4250 -1.0424  2.1662
   99OSM   H11T 9903   2.619   1.806   9.654  0.3130 -0.8577  3.2512
   99OSM   C12S 9904   2.521   1.724   9.474 -0.0024 -0.1149 -0.1030
   99OSM   H12S 9905   2.414   1.718   9.505  0.7434 -0.3535  2.6636
   99OSM   H12T 9906   2.534   1.827   9.434 -0.2312 -0.8438 -2.1800
   99OSM   C13S 9907   2.543   1.634   9.351 -0.5167  1.3060 -0.5745
   99OSM   H13S 9908   2.507   1.533   9.379  0.9009  1.3009  1.4579
   99OSM   H13T 9909   2.648   1.626   9.318 -0.4060  1.8737 -0.3780
   99OSM   C14S 9910   2.458   1.680   9.233  0.1909  0.1246 -0.2951
   99OSM   H14S 9911   2.356   1.705   9.269  0.5645  1.5545 -0.1657
   99OSM   H14T 9912   2.454   1.596   9.161 -2.7127 -1.3712  1.4564
   99OSM   C15S 9913   2.519   1.799   9.160  0.1864  0.7927 -0.2619
   99OSM   H15S 9914   2.568   1.861   9.238  1.9562 -1.5754  0.6519
   99OSM   H15T 9915   2.441   1.859   9.109  0.6532  0.1336 -1.8251
   99OSM   C16S 9916   2.627   1.753   9.058 -0.2493  0.3046  0.3346
   99OSM   H16S 9917   2.577   1.666   9.010 -0.1543 -1.0498  2.5837
   99OSM   H16T 9918   2.720   1.714   9.103 -0.9583 -0.6390  1.0121
   99OSM   C17S 9919   2.663   1.857   8.957  0.6014  0.1468  0.5140
   99OSM   H17S 9920   2.575   1.887   8.896  0.9794 -0.2058 -0.2214
   99OSM   H17T 9921   2.730   1.806   8.884 -2.2639 -0.1183 -2.1591
   99OSM   C18S 9922   2.746   1.978   8.995  0.2161  0.0338  0.1366
   99OSM   H18S 9923   2.839   1.946   9.046  0.1246 -0.3520  0.0706
   99OSM   H18T 9924   2.682   2.045   9.056 -2.1714  0.7676 -2.9059
   99OSM   H18U 9925   2.762   2.040   8.904 -1.4106  0.9684  0.4396
   99OSM    C1F 9926   3.024   1.524  10.417  0.8034 -1.1644 -0.0983
   99OSM     OF 9927   3.110   1.436  10.437  0.9980 -0.3440 -0.7496
   99OSM    C2F 9928   3.059   1.669  10.387 -0.7447  0.6674  0.4748
   99OSM    H2F 9929   3.038   1.714  10.486  0.1098 -1.1065  1.5248
   99OSM    H2G 9930   2.985   1.708  10.314  1.3732 -0.8790 -2.7361
   99OSM    C3F 9931   3.207   1.672  10.346  0.5949 -0.5905  0.0472
   99OSM    H3F 9932   3.229   1.781  10.358 -0.1265 -0.3801 -0.4364
   99OSM    H3G 9933   3.266   1.622  10.424 -2.5402 -0.1148  2.9647
   99OSM    C4F 9934   3.213   1.625  10.198 -1.1387 -0.2320  0.0879
   99OSM    H4F 9935   3.152   1.531  10.194 -0.1768 -0.9801  1.9215
   99OSM    H4G 9936   3.320   1.599  10.183 -0.6285  0.1042  2.7137
   99OSM    C5F 9937   3.166   1.735  10.102  0.4794 -0.3213 -0.4302
   99OSM    H5F 9938   3.211   1.833  10.129 -0.1178  0.2107 -1.3296
   99OSM    H5G 9939   3.058   1.758  10.094  0.6721  0.3422 -1.2555
   99OSM    C6F 9940   3.210   1.714   9.955  0.0255 -0.0569  0.5784
   99OSM    H6F 9941   3.319   1.737   9.945 -0.5982  2.2948 -2.2164
   99OSM    H6G 9942   3.163   1.798   9.899  0.9814  0.4893  0.5695
   99OSM    C7F 9943   3.166   1.586   9.889  0.1859 -0.1842 -0.5198
   99OSM    H7F 9944   3.064   1.575   9.931 -1.6614  0.5005 -4.3132
   99OSM    H7G 9945   3.233   1.499   9.906  0.0314 -0.2171 -0.0818
   99OSM    C8F 9946   3.135   1.607   9.740 -0.5015  0.5060  0.6996
   99OSM    H8F 9947   3.222   1.641   9.680 -0.5275 -0.3798  0.1436
   99OSM    H8G 9948   3.061   1.688   9.727 -2.7347 -1.0927  2.6256
   99OSM    C9F 9949   3.066   1.485   9.684  0.1947 -0.1675  0.4031
   99OSM    H9F 9950   3.037   1.409   9.759 -1.1716 -0.4102 -0.3514
   99OSM   C10F 9951   3.029   1.475   9.552 -0.1017 -0.2270 -0.5611
   99OSM   H10F 9952   2.989   1.376   9.526 -0.1617 -0.6255  0.9643
   99OSM   C11F 9953   3.069   1.564   9.438  0.1514 -0.1324 -0.3800
   99OSM   H11F 9954   3.169   1.609   9.450  0.1534  0.0441 -1.0035
   99OSM   H11G 9955   2.996   1.647   9.430  1.1844  0.6617 -2.0612
   99OSM   C12F 9956   3.069   1.501   9.295  0.0194  0.1476  0.1360
   99OSM   H12F 9957   3.103   1.396   9.295 -0.6665 -0.0804  0.3812
   99OSM   H12G 9958   3.131   1.566   9.229 -1.6043  2.1460  0.4459
   99OSM   C13F 9959   2.920   1.493   9.239  0.3929  0.7319 -0.1913
   99OSM   H13F 9960   2.882   1.597   9.234 -0.2734  0.6477  2.1123
   99OSM   H13G 9961   2.849   1.443   9.308 -0.1873 -1.2142 -2.0821
   99OSM   C14F 9962   2.909   1.431   9.099  0.1535 -0.0594  0.5428
   99OSM   H14F 9963   2.968   1.490   9.026 -0.0789 -1.1190 -0.5299
   99OSM   H14G 9964   2.803   1.441   9.066  0.1192 -0.6071  0.4878
   99OSM   C15F 9965   2.943   1.284   9.083  0.1298 -0.1113 -0.4364
   99OSM   H15F 9966   2.870   1.237   9.153  1.8399 -1.4495  0.5214
   99OSM   H15G 9967   3.044   1.261   9.122 -0.3964 -0.4827  0.7549
   99OSM   C16F 9968   2.929   1.210   8.938 -0.1766 -0.0224  0.0403
   99OSM   H16F 9969   2.822   1.213   8.909  0.1785  3.0123 -1.2524
   99OSM   H16G 9970   2.956   1.102   8.948  0.1048 -0.0871 -1.2097
   99OSM   C17F 9971   3.020   1.268   8.827 -0.0056 -0.2560 -0.3255
   99OSM   H17F 9972   3.127   1.266   8.856  0.2962 -1.0352 -1.3874
   99OSM   H17G 9973   2.982   1.373   8.824  0.6883 -0.0039 -0.3980
   99OSM   C18F 9974   3.011   1.197   8.695 -0.2624 -0.0234 -0.0246
   99OSM   H18F 9975   2.904   1.190   8.667 -0.6600  0.4420  1.2918
   99OSM   H18G 9976   3.060   1.099   8.675  1.1203  0.6252  0.0628
   99OSM   H18H 9977   3.037   1.270   8.616 -0.0855  2.4946  2.2201
  100OSM      N 9978   4.556   5.156  11.338 -0.4404 -0.3791 -0.4767
  100OSM    C15 9979   4.676   5.232  11.380 -0.1408  0.0758  0.2277
  100OSM   H15A 9980   4.752   5.179  11.434  0.1228  1.0138  0.7958
  100OSM   H15B 9981   4.652   5.322  11.435  1.8788  0.1843  1.0008
  100OSM   H15C 9982   4.717   5.272  11.288 -0.9898  0.3820 -0.0316
  100OSM    C14 9983   4.502   5.092  11.468 -0.6061 -0.4249 -0.0638
  100OSM   H14A 9984   4.493   5.162  11.550 -1.7867 -2.5314  1.7226
  100OSM   H14B 9985   4.556   5.006  11.505 -0.7032 -0.7210 -0.6017
  100OSM   H14C 9986   4.396   5.075  11.465 -1.0114  1.6851  0.2374
  100OSM    C13 9987   4.462   5.257  11.281 -0.2354 -0.1107  0.2157
  100OSM   H13A 9988   4.395   5.212  11.208  0.3884  0.5057 -0.7580
  100OSM   H13B 9989   4.504   5.331  11.214 -0.6061 -1.5434 -1.7037
  100OSM   H13C 9990   4.394   5.303  11.352 -1.6472  1.4174 -1.9769
  100OSM    C12 9991   4.584   5.046  11.238  0.3161 -0.2953 -0.3323
  100OSM   H12A 9992   4.492   4.995  11.218  1.0984 -0.5050 -4.1982
  100OSM   H12B 9993   4.642   4.964  11.278  0.7266 -0.5385 -1.4030
  100OSM    C11 9994   4.643   5.090  11.099 -0.2186  0.3163 -0.1412
  100OSM   H11A 9995   4.688   4.997  11.060 -0.5696 -0.8444  2.0271
  100OSM   H11B 9996   4.723   5.164  11.120 -0.8960  1.4276 -1.3118
  100OSM      P 9997   4.452   5.057  10.935  0.3415 -0.2395 -0.3871
  100OSM    O13 9998   4.525   4.945  10.876 -0.0681 -0.0973 -0.0090
  100OSM    O14 9999   4.336   5.023  11.026 -0.4590  0.0461 -0.3555
  100OSM    O1110000   4.403   5.140  10.807  0.6236 -0.1238  0.3371
  100OSM    O1210001   4.552   5.148  11.009  0.0759 -0.4089  0.2356
  100OSM    C1S10002   4.493   5.234  10.755  0.2788 -0.6491 -0.4967
  100OSM    H1S10003   4.595   5.192  10.744  1.5389  2.7615 -4.1113
  100OSM    H1T10004   4.497   5.324  10.819 -1.1218 -1.3278  0.5991
  100OSM     NF10005   4.563   5.372  10.558 -0.4184 -0.0415  0.2013
  100OSM    HNF10006   4.558   5.471  10.559 -3.1371 -0.0894 -0.7337
  100OSM    C2S10007   4.454   5.289  10.615  0.3256  0.4160  0.5674
  100OSM    H2S10008   4.442   5.203  10.546 -1.1766  0.5017  0.6848
  100OSM    C3S10009   4.311   5.352  10.628 -0.1967 -0.1402  0.4379
  100OSM    H3S10010   4.314   5.435  10.702 -2.5818  1.2360 -0.8707
  100OSM     O310011   4.209   5.262  10.669 -0.3898  0.2132 -0.0025
  100OSM    HO310012   4.256   5.209  10.733  0.2906 -0.6546 -1.1854
  100OSM    C4S10013   4.283   5.426  10.499 -0.3658  0.2567 -0.0397
  100OSM    H4S10014   4.312   5.532  10.503  1.8088 -0.3070  0.5917
  100OSM    C5S10015   4.251   5.377  10.378  0.1790  0.8608  0.2825
  100OSM    H5S10016   4.235   5.269  10.371 -1.6534  0.8705  2.9065
  100OSM    C6S10017   4.221   5.462  10.257  0.0858  0.9451  0.4249
  100OSM    H6S10018   4.202   5.569  10.279 -0.5348  0.7387  0.9468
  100OSM    H6T10019   4.129   5.423  10.209  0.1452 -0.2646  1.2285
  100OSM    C7S10020   4.345   5.445  10.172 -0.4746 -0.1920 -0.4770
  100OSM    H7S10021   4.375   5.341  10.148  5.1451  1.3553 -1.6027
  100OSM    H7T10022   4.432   5.494  10.221 -0.7320 -1.4422  1.3517
  100OSM    C8S10023   4.329   5.521  10.042  0.5586 -0.7255  0.1262
  100OSM    H8S10024   4.343   5.629  10.058 -0.1592 -0.3267 -1.6174
  100OSM    H8T10025   4.222   5.522  10.011 -0.1962  1.0173  2.5550
  100OSM    C9S10026   4.425   5.463   9.934 -0.6585  0.0294  0.0737
  100OSM    H9S10027   4.394   5.358   9.913 -2.3891  0.5308 -0.0755
  100OSM    H9T10028   4.529   5.456   9.972 -0.4483 -1.8442 -0.7095
  100OSM   C10S10029   4.434   5.548   9.808  0.8839 -0.2815 -0.6181
  100OSM   H10S10030   4.429   5.652   9.848 -3.1488 -0.9079  0.9410
  100OSM   H10T10031   4.343   5.529   9.748  1.1115  0.9749 -1.3959
  100OSM   C11S10032   4.563   5.520   9.728  0.7226  0.1053 -0.1427
  100OSM   H11S10033   4.564   5.411   9.704  1.8402 -0.7234  3.1132
  100OSM   H11T10034   4.648   5.547   9.795 -1.2848 -1.8565  3.4884
  100OSM   C12S10035   4.568   5.618   9.613 -0.3155  0.1410  0.0060
  100OSM   H12S10036   4.583   5.718   9.657 -1.4355  0.7382 -0.9024
  100OSM   H12T10037   4.464   5.632   9.575 -1.4775 -1.7538  2.2327
  100OSM   C13S10038   4.664   5.575   9.494  0.3487  0.3160 -0.7742
  100OSM   H13S10039   4.644   5.470   9.462 -2.5017  0.8902 -1.1139
  100OSM   H13T10040   4.764   5.561   9.541 -0.3179 -1.7666  0.1545
  100OSM   C14S10041   4.670   5.656   9.368  0.1575 -0.4297 -0.4545
  100OSM   H14S10042   4.702   5.760   9.388 -0.1310 -0.0175 -2.0232
  100OSM   H14T10043   4.572   5.664   9.315 -0.4643 -0.8269  0.5914
  100OSM   C15S10044   4.763   5.608   9.260 -0.3453  0.1448  0.5277
  100OSM   H15S10045   4.864   5.609   9.306 -0.7193 -0.9393  1.4334
  100OSM   H15T10046   4.759   5.677   9.173 -1.1992  1.7757  1.8004
  100OSM   C16S10047   4.721   5.466   9.213  0.9786 -0.0137 -0.1975
  100OSM   H16S10048   4.612   5.477   9.196  0.8171 -1.7487 -0.5000
  100OSM   H16T10049   4.744   5.397   9.297  3.8087  2.7797  1.5510
  100OSM   C17S10050   4.788   5.414   9.087  0.0171  0.0867  0.1135
  100OSM   H17S10051   4.895   5.399   9.111  0.3219 -2.5248 -2.3351
  100OSM   H17T10052   4.781   5.492   9.008  0.3354  0.4730  0.4616
  100OSM   C18S10053   4.721   5.286   9.039  0.5733  0.4474  0.8606
  100OSM   H18S10054   4.612   5.289   9.061  0.1870  0.3533 -0.9397
  100OSM   H18T10055   4.746   5.191   9.091  0.0851  0.3980  1.0156
  100OSM   H18U10056   4.740   5.273   8.931 -1.2375  1.3490  0.3887
  100OSM    C1F10057   4.677   5.308  10.528 -0.6671  0.3480 -0.6836
  100OSM     OF10058   4.682   5.181  10.526 -0.3405 -0.9846 -0.1068
  100OSM    C2F10059   4.799   5.387  10.503 -0.2192  0.1551  0.2799
  100OSM    H2F10060   4.850   5.392  10.602 -2.7908 -2.7167  1.9354
  100OSM    H2G10061   4.788   5.493  10.471  3.2139  0.7287  0.5805
  100OSM    C3F10062   4.894   5.326  10.397  0.0543  0.3742 -0.0190
  100OSM    H3F10063   4.928   5.225  10.426 -0.2030  1.3592  4.3117
  100OSM    H3G10064   4.986   5.389  10.400  0.2072  0.1899 -0.6354
  100OSM    C4F10065   4.833   5.328  10.260  0.6516 -0.2966  0.7127
  100OSM    H4F10066   4.788   5.425  10.232 -0.2760 -0.7782  0.5061
  100OSM    H4G10067   4.745   5.260  10.261  1.0922 -0.8944 -0.3699
  100OSM    C5F10068   4.941   5.282  10.156  0.6219  0.5990 -0.1452
  100OSM    H5F10069   4.951   5.172  10.168  1.8291  0.6729 -0.3459
  100OSM    H5G10070   5.044   5.319  10.177  1.2009 -1.4759  0.8874
  100OSM    C6F10071   4.891   5.308  10.013  0.7992  0.0810 -0.1890
  100OSM    H6F10072   4.895   5.413   9.976 -1.0934 -0.0436 -0.8448
  100OSM    H6G10073   4.787   5.272   9.999  0.6856  0.3562 -0.0637
  100OSM    C7F10074   4.969   5.234   9.893 -0.5569  0.1533  0.1127
  100OSM    H7F10075   4.949   5.126   9.878 -1.5364  0.3977 -0.4843
  100OSM    H7G10076   5.074   5.229   9.926 -0.6740  2.7955  1.1786
  100OSM    C8F10077   4.967   5.303   9.755 -0.5201 -0.3834 -0.2736
  100OSM    H8F10078   5.007   5.406   9.747  0.3167 -0.6479  0.3606
  100OSM    H8G10079   4.862   5.305   9.719 -0.7840 -0.2575  0.4757
  100OSM    C9F10080   5.048   5.224   9.655  0.2174  0.9552 -0.5789
  100OSM    H9F10081   5.055   5.118   9.685 -0.0402  0.8704 -0.8279
  100OSM   C10F10082   5.096   5.251   9.528 -0.3779 -0.3233 -1.1051
  100OSM   H10F10083   5.156   5.174   9.477  3.8446  2.5747 -0.9631
  100OSM   C11F10084   5.072   5.385   9.459 -0.6276  0.1029 -0.4168
  100OSM   H11F10085   5.068   5.454   9.547  0.9979 -2.0450  1.4666
  100OSM   H11G10086   4.982   5.390   9.395 -0.5510 -3.8217 -1.0651
  100OSM   C12F10087   5.197   5.415   9.374  0.4220 -0.2851  0.5169
  100OSM   H12F10088   5.232   5.332   9.309  0.3566 -1.4126  1.8865
  100OSM   H12G10089   5.278   5.447   9.444  1.0144 -0.0759 -0.2484
  100OSM   C13F10090   5.162   5.530   9.272 -0.8942 -0.8623 -0.6164
  100OSM   H13F10091   5.147   5.617   9.340 -2.2922 -0.3870 -1.4944
  100OSM   H13G10092   5.065   5.520   9.220 -0.3940  0.7626 -1.9550
  100OSM   C14F10093   5.270   5.556   9.167 -0.3281 -0.0903 -0.0817
  100OSM   H14F10094   5.283   5.474   9.093  0.3763 -1.3151  1.3512
  100OSM   H14G10095   5.369   5.565   9.217 -0.6690  2.0485  0.3066
  100OSM   C15F10096   5.248   5.696   9.108 -0.1509  0.0636  0.2344
  100OSM   H15F10097   5.232   5.758   9.199  2.1422  0.9908  0.0742
  100OSM   H15G10098   5.153   5.703   9.051  0.8504  0.3631 -1.4611
  100OSM   C16F10099   5.372   5.754   9.035 -0.1408 -0.5747 -0.1813
  100OSM   H16F10100   5.377   5.680   8.952  1.3913 -1.8222  0.9740
  100OSM   H16G10101   5.464   5.760   9.097 -0.4673  2.9500  0.2048
  100OSM   C17F10102   5.336   5.880   8.960  0.0499 -0.1904 -0.0850
  100OSM   H17F10103   5.314   5.961   9.033 -0.1598 -0.5126  0.2145
  100OSM   H17G10104   5.245   5.863   8.898 -0.4397  1.4033  0.1539
  100OSM   C18F10105   5.449   5.950   8.883 -0.7439  0.6969  0.1598
  100OSM   H18F10106   5.534   5.977   8.948 -1.2016 -2.2299  2.2231
  100OSM   H18G10107   5.411   6.036   8.824  0.5309  1.1678  0.0076
  100OSM   H18H10108   5.480   5.878   8.805  1.0351 -0.5106  1.8772
  101OSM      N10109   1.922   5.544  11.238  0.1430  0.5770  0.0212
  101OSM    C1510110   1.846   5.631  11.331 -0.0649  0.8627  0.1671
  101OSM   H15A10111   1.874   5.733  11.309  1.0363  0.4452 -0.4621
  101OSM   H15B10112   1.868   5.629  11.437 -1.3352  0.3722  0.4375
  101OSM   H15C10113   1.744   5.603  11.314  0.0357  0.1765  0.6436
  101OSM    C1410114   2.069   5.572  11.255 -0.3410  0.0229 -0.1047
  101OSM   H14A10115   2.129   5.506  11.194 -1.1970 -0.5099 -0.3813
  101OSM   H14B10116   2.099   5.565  11.359 -1.1629 -2.2616  0.0349
  101OSM   H14C10117   2.084   5.677  11.234  0.5949 -0.0651  0.0520
  101OSM    C1310118   1.906   5.398  11.270 -0.1045 -0.1003 -0.1044
  101OSM   H13A10119   1.929   5.373  11.372  0.2308  0.2284 -0.0987
  101OSM   H13B10120   1.964   5.346  11.194 -0.2119 -1.5884  0.7874
  101OSM   H13C10121   1.806   5.357  11.265  0.2817 -1.3289  1.3241
  101OSM    C1210122   1.877   5.563  11.093 -0.0810 -0.0782  0.0111
  101OSM   H12A10123   1.889   5.665  11.059 -0.8514 -0.2876 -0.9375
  101OSM   H12B10124   1.770   5.552  11.086 -0.0784  0.4377 -1.2512
  101OSM    C1110125   1.939   5.473  10.987 -0.2105 -0.0408  0.7755
  101OSM   H11A10126   2.048   5.489  11.000 -0.1139 -0.0146  0.0053
  101OSM   H11B10127   1.904   5.507  10.887 -1.6025  0.5376  1.4460
  101OSM      P10128   1.790   5.250  10.982 -0.2021  0.1985  0.1145
  101OSM    O1310129   1.808   5.105  11.010  0.4729 -0.1863 -0.6095
  101OSM    O1410130   1.686   5.323  11.063 -0.4546  0.2859  0.2412
  101OSM    O1110131   1.755   5.275  10.826  0.2056 -0.0834  0.0445
  101OSM    O1210132   1.929   5.329  11.003 -0.4468  0.2470 -0.2737
  101OSM    C1S10133   1.817   5.190  10.729 -0.0370 -0.5190 -0.0066
  101OSM    H1S10134   1.794   5.082  10.742  1.1505 -0.5887  1.7229
  101OSM    H1T10135   1.928   5.187  10.733 -0.0601 -2.3853  0.0605
  101OSM     NF10136   1.832   5.135  10.487 -0.2030  0.0202 -0.6205
  101OSM    HNF10137   1.915   5.168  10.443 -0.7711  2.3798 -0.0549
  101OSM    C2S10138   1.778   5.234  10.585 -0.3109  0.7504 -0.1341
  101OSM    H2S10139   1.667   5.222  10.579 -0.0192 -2.8568 -0.3066
  101OSM    C3S10140   1.831   5.377  10.563  0.3173  0.0690 -0.0125
  101OSM    H3S10141   1.939   5.378  10.587  0.1838  0.5621  0.6075
  101OSM     O310142   1.778   5.480  10.646  0.6744 -0.0823 -0.3627
  101OSM    HO310143   1.736   5.441  10.724 -1.9121  0.1185 -1.5563
  101OSM    C4S10144   1.809   5.418  10.425  0.3120  0.5746 -0.6710
  101OSM    H4S10145   1.904   5.400  10.371  0.9089 -0.1211  0.5670
  101OSM    C5S10146   1.691   5.464  10.364 -0.0665 -0.3623 -0.5002
  101OSM    H5S10147   1.602   5.480  10.427 -0.1784  0.2538 -0.8053
  101OSM    C6S10148   1.691   5.503  10.223 -0.7143  0.8516  0.4071
  101OSM    H6S10149   1.742   5.601  10.212  0.9314 -0.1297 -1.3220
  101OSM    H6T10150   1.591   5.520  10.179 -1.3302 -2.5845  0.2013
  101OSM    C7S10151   1.762   5.403  10.135  0.0617 -0.3176  0.0967
  101OSM    H7S10152   1.705   5.309  10.117  2.8276 -2.2138  0.5345
  101OSM    H7T10153   1.854   5.358  10.177  0.4213 -0.5595 -0.9003
  101OSM    C8S10154   1.806   5.481  10.007 -0.5854 -0.6195 -0.1359
  101OSM    H8S10155   1.853   5.579  10.029 -0.5125 -0.3279 -1.5217
  101OSM    H8T10156   1.713   5.505   9.950 -0.4634  1.5979  0.5145
  101OSM    C9S10157   1.904   5.394   9.931  0.2198  0.6601  0.2130
  101OSM    H9S10158   1.877   5.287   9.942 -1.3385  0.9500 -0.5524
  101OSM    H9T10159   2.005   5.417   9.972 -0.1794 -0.2617  1.7541
  101OSM   C10S10160   1.907   5.416   9.779 -0.0601  0.0092 -0.5863
  101OSM   H10S10161   1.991   5.370   9.723  2.3584  2.0423  1.1782
  101OSM   H10T10162   1.921   5.525   9.760  2.3418 -0.2976 -0.8607
  101OSM   C11S10163   1.785   5.373   9.711  0.7553 -0.3944  0.3366
  101OSM   H11S10164   1.695   5.401   9.770 -0.6388  0.6410 -2.1054
  101OSM   H11T10165   1.779   5.262   9.714 -0.0909 -0.3412  2.6610
  101OSM   C12S10166   1.765   5.430   9.570 -0.4512  0.3839  0.7755
  101OSM   H12S10167   1.833   5.368   9.508  0.4092  2.1732 -0.1142
  101OSM   H12T10168   1.784   5.539   9.561 -1.2241  0.3371 -2.3774
  101OSM   C13S10169   1.622   5.409   9.514 -0.4168  0.7428  0.1122
  101OSM   H13S10170   1.560   5.493   9.553 -1.3688  0.5785 -0.9860
  101OSM   H13T10171   1.586   5.310   9.550  1.5346  0.4278  1.3177
  101OSM   C14S10172   1.607   5.434   9.364  0.2783  0.1372 -0.2138
  101OSM   H14S10173   1.636   5.534   9.324 -0.7435 -0.2505 -2.0310
  101OSM   H14T10174   1.501   5.427   9.332  0.2618  0.4009 -0.2142
  101OSM   C15S10175   1.674   5.323   9.270  0.1052 -0.3054 -0.7924
  101OSM   H15S10176   1.638   5.226   9.310 -0.9680  0.2707 -0.3033
  101OSM   H15T10177   1.784   5.330   9.267  0.0564  2.7174  0.2637
  101OSM   C16S10178   1.627   5.330   9.122  0.2167 -0.6778  0.9696
  101OSM   H16S10179   1.520   5.359   9.115  0.1758 -1.2950 -2.8221
  101OSM   H16T10180   1.645   5.230   9.077 -2.4612 -0.7966 -0.0039
  101OSM   C17S10181   1.693   5.439   9.031 -0.3626  0.3907  0.5907
  101OSM   H17S10182   1.795   5.459   9.071 -1.3376  1.1744  2.8989
  101OSM   H17T10183   1.649   5.538   9.057 -0.1911  0.6125  0.0368
  101OSM   C18S10184   1.698   5.409   8.878  0.7565  0.0751 -0.6440
  101OSM   H18S10185   1.758   5.486   8.825  0.0965  1.0496 -0.0123
  101OSM   H18T10186   1.601   5.393   8.826  0.0903  0.3959  0.4677
  101OSM   H18U10187   1.741   5.308   8.863  1.5175  0.2964  0.0225
  101OSM    C1F10188   1.803   5.005  10.473 -0.4514 -0.8286  0.4071
  101OSM     OF10189   1.714   4.955  10.537 -0.2808 -1.2129  0.5396
  101OSM    C2F10190   1.897   4.927  10.382 -0.2302 -0.8536 -0.2159
  101OSM    H2F10191   1.953   4.859  10.449  0.1307  0.0051  0.3593
  101OSM    H2G10192   1.954   4.991  10.311 -1.3717  1.1498  0.5897
  101OSM    C3F10193   1.808   4.821  10.316 -0.9037  0.1217 -0.1275
  101OSM    H3F10194   1.735   4.775  10.387 -0.5659  0.7112  0.6125
  101OSM    H3G10195   1.880   4.739  10.296 -2.9541 -1.8716  0.2939
  101OSM    C4F10196   1.735   4.870  10.199  0.2900 -0.0838 -0.0467
  101OSM    H4F10197   1.657   4.948  10.215  0.4023  0.2088 -0.8731
  101OSM    H4G10198   1.678   4.781  10.165 -0.6848 -0.1658  1.6772
  101OSM    C5F10199   1.823   4.913  10.080  0.2760 -0.5802 -0.2454
  101OSM    H5F10200   1.917   4.855  10.078  1.9793  1.8523  1.8221
  101OSM    H5G10201   1.842   5.022  10.087  0.8763 -0.5806 -1.6038
  101OSM    C6F10202   1.746   4.886   9.947 -1.2111  0.4119 -0.5650
  101OSM    H6F10203   1.726   4.777   9.951  2.5937 -0.4052 -0.6313
  101OSM    H6G10204   1.650   4.941   9.953 -0.6228  1.2850  1.7654
  101OSM    C7F10205   1.833   4.925   9.826  0.2973 -0.2010  0.0022
  101OSM    H7F10206   1.924   4.864   9.841  0.1129  0.0917  2.7431
  101OSM    H7G10207   1.867   5.031   9.825  1.8658 -0.6789  0.0863
  101OSM    C8F10208   1.779   4.884   9.680  0.0846  0.1407  0.8735
  101OSM    H8F10209   1.776   4.773   9.677 -1.5406  0.1836 -0.4906
  101OSM    H8G10210   1.849   4.929   9.606  0.2545 -0.6069  0.5640
  101OSM    C9F10211   1.640   4.928   9.643  0.0498 -0.0258 -0.2697
  101OSM    H9F10212   1.566   4.942   9.723  0.5508  0.2504  0.1511
  101OSM   C10F10213   1.594   4.954   9.519  0.8012 -0.7227 -0.1614
  101OSM   H10F10214   1.488   4.984   9.513  0.6398 -1.1050  0.6557
  101OSM   C11F10215   1.666   4.940   9.391 -0.6128 -0.4678  0.7299
  101OSM   H11F10216   1.742   4.861   9.407 -1.7251 -1.6019  0.5506
  101OSM   H11G10217   1.712   5.038   9.365 -0.4606 -1.0025 -1.1582
  101OSM   C12F10218   1.579   4.901   9.268  0.8762  0.4129 -0.0550
  101OSM   H12F10219   1.520   4.988   9.231 -0.9764 -0.9813 -0.5442
  101OSM   H12G10220   1.499   4.832   9.301 -0.6297  1.4985 -1.2979
  101OSM   C13F10221   1.652   4.832   9.152 -0.1748 -0.4763 -0.1756
  101OSM   H13F10222   1.682   4.732   9.192  1.1406 -0.5716 -1.3067
  101OSM   H13G10223   1.750   4.873   9.120  1.8382 -2.3440  3.0399
  101OSM   C14F10224   1.565   4.802   9.026 -0.5568  0.5614 -0.0553
  101OSM   H14F10225   1.476   4.743   9.057 -0.7905  0.3830 -1.0276
  101OSM   H14G10226   1.623   4.739   8.955 -0.2985  1.5196 -0.7050
  101OSM   C15F10227   1.519   4.935   8.965  0.4949 -0.2924  0.3867
  101OSM   H15F10228   1.603   4.987   8.915  1.6488 -2.3513  0.0871
  101OSM   H15G10229   1.472   5.004   9.038  0.0307 -0.2928  0.0957
  101OSM   C16F10230   1.432   4.904   8.852  0.4745 -0.2996 -0.0510
  101OSM   H16F10231   1.343   4.845   8.881 -0.0784  1.5976  2.3538
  101OSM   H16G10232   1.482   4.841   8.775  0.5140  1.8905 -1.9457
  101OSM   C17F10233   1.363   5.028   8.776 -0.3590  0.5785  0.0687
  101OSM   H17F10234   1.294   5.079   8.847 -0.0848 -0.4694  1.1449
  101OSM   H17G10235   1.306   4.981   8.693 -0.8972 -1.3423  1.4401
  101OSM   C18F10236   1.469   5.122   8.726  0.4604  0.1250 -0.4715
  101OSM   H18F10237   1.512   5.078   8.633  1.2975 -0.5152  0.1888
  101OSM   H18G10238   1.555   5.149   8.791  1.9447 -2.2759 -1.2978
  101OSM   H18H10239   1.423   5.219   8.698 -0.3745  0.6031  2.2500
  102OSM      N10240   3.404   4.464  10.678 -0.1147  0.0504 -0.1156
  102OSM    C1510241   3.368   4.355  10.768  0.1949  0.1912  1.0498
  102OSM   H15A10242   3.314   4.390  10.855  0.3583  1.2140  0.7602
  102OSM   H15B10243   3.449   4.295  10.804 -1.5634 -2.9774  0.0874
  102OSM   H15C10244   3.304   4.290  10.710 -0.4767  2.3197 -0.7347
  102OSM    C1410245   3.493   4.547  10.760  0.1048 -0.4403 -0.2111
  102OSM   H14A10246   3.577   4.484  10.784 -1.9638 -2.6204  1.9856
  102OSM   H14B10247   3.435   4.558  10.851 -0.7672 -1.0530 -0.6799
  102OSM   H14C10248   3.503   4.642  10.710  1.0568 -0.2711  0.2784
  102OSM    C1310249   3.481   4.400  10.563 -0.0380  0.0601 -0.0460
  102OSM   H13A10250   3.437   4.304  10.540 -0.2913  0.3468 -0.7951
  102OSM   H13B10251   3.579   4.367  10.593 -0.7404 -1.7135  0.4648
  102OSM   H13C10252   3.486   4.466  10.478 -1.2584 -0.1133 -0.2786
  102OSM    C1210253   3.270   4.533  10.637  0.4843 -0.0371 -0.1497
  102OSM   H12A10254   3.210   4.477  10.567 -0.0684  1.4915 -0.9503
  102OSM   H12B10255   3.292   4.621  10.579 -1.7163 -1.0120 -2.7005
  102OSM    C1110256   3.170   4.567  10.751  0.3208 -0.8046 -0.1405
  102OSM   H11A10257   3.146   4.477  10.811 -0.5714 -0.6506 -0.2460
  102OSM   H11B10258   3.081   4.610  10.699  0.6439  1.3564  0.9994
  102OSM      P10259   3.166   4.819  10.844 -0.0169 -0.1734 -0.1312
  102OSM    O1310260   3.030   4.815  10.890  0.4935  0.3722  0.3009
  102OSM    O1410261   3.252   4.898  10.933 -0.8032  0.6549 -0.4869
  102OSM    O1110262   3.184   4.871  10.697  0.5156 -0.4740 -0.2487
  102OSM    O1210263   3.217   4.672  10.837  0.3117  0.7113  0.1846
  102OSM    C1S10264   3.318   4.883  10.640 -0.6511 -0.2242 -0.2502
  102OSM    H1S10265   3.372   4.788  10.623  1.4384  0.5914  1.4245
  102OSM    H1T10266   3.376   4.947  10.709 -1.0507  0.9714 -0.9894
  102OSM     NF10267   3.439   4.936  10.416  0.0774  0.0895 -0.1994
  102OSM    HNF10268   3.518   4.996  10.418 -0.9700  1.5108  0.4578
  102OSM    C2S10269   3.328   4.967  10.506 -0.3755 -0.2809  0.1897
  102OSM    H2S10270   3.235   4.951  10.447 -0.0252  1.2561 -0.8303
  102OSM    C3S10271   3.326   5.118  10.547 -0.2606  0.4809 -1.0443
  102OSM    H3S10272   3.413   5.146  10.610 -1.5793 -2.0392  2.2547
  102OSM     O310273   3.224   5.147  10.642  0.1832  0.1066 -0.1446
  102OSM    HO310274   3.191   5.069  10.686 -2.6492  0.0656 -2.0663
  102OSM    C4S10275   3.314   5.201  10.432 -0.5779  0.2686  0.6867
  102OSM    H4S10276   3.213   5.225  10.395 -0.1337  0.4867 -0.4291
  102OSM    C5S10277   3.414   5.255  10.355 -0.0341  0.2975  0.5219
  102OSM    H5S10278   3.518   5.221  10.362 -0.0427  0.6044  3.9408
  102OSM    C6S10279   3.398   5.349  10.242 -0.1641  0.0767 -0.6285
  102OSM    H6S10280   3.422   5.451  10.279  1.7627 -0.8187  0.8113
  102OSM    H6T10281   3.293   5.345  10.206 -1.2695 -0.2065  2.3092
  102OSM    C7S10282   3.495   5.324  10.128  0.3010 -0.5747 -1.1022
  102OSM    H7S10283   3.453   5.236  10.075 -1.5018  0.9803 -2.3912
  102OSM    H7T10284   3.597   5.295  10.159  0.2710 -0.1540 -0.5757
  102OSM    C8S10285   3.497   5.441  10.021  0.6165  0.2007 -0.2295
  102OSM    H8S10286   3.544   5.534  10.058  0.1331 -0.0568  1.0790
  102OSM    H8T10287   3.390   5.458   9.998 -0.1143 -3.6033 -0.3610
  102OSM    C9S10288   3.580   5.396   9.902 -0.3671  0.0035  0.0211
  102OSM    H9S10289   3.552   5.301   9.850  0.5689  0.9233 -2.3079
  102OSM    H9T10290   3.687   5.388   9.932 -0.7564  0.0362  1.4962
  102OSM   C10S10291   3.547   5.491   9.791  0.6288  0.3106  0.0159
  102OSM   H10S10292   3.566   5.593   9.831 -1.3396  0.5371  0.5142
  102OSM   H10T10293   3.441   5.493   9.758 -0.3395  4.2071  2.6489
  102OSM   C11S10294   3.637   5.464   9.673 -0.5196 -0.6155  0.8265
  102OSM   H11S10295   3.642   5.354   9.663  0.5290 -0.5435  0.4203
  102OSM   H11T10296   3.740   5.505   9.686 -1.4395  1.1691  3.0241
  102OSM   C12S10297   3.589   5.519   9.533 -0.3539 -0.1247  0.1912
  102OSM   H12S10298   3.525   5.608   9.551 -1.6200 -0.4531 -2.2242
  102OSM   H12T10299   3.518   5.440   9.501  1.0654 -2.1306  1.8064
  102OSM   C13S10300   3.697   5.555   9.440 -0.8061  0.2131 -0.3641
  102OSM   H13S10301   3.773   5.474   9.451 -0.3791  0.7600  0.9646
  102OSM   H13T10302   3.753   5.645   9.475 -2.2807  0.4291  1.6060
  102OSM   C14S10303   3.656   5.555   9.292  0.1377 -0.0693 -0.8088
  102OSM   H14S10304   3.594   5.646   9.280  0.7828  0.6987  1.3232
  102OSM   H14T10305   3.601   5.459   9.282  1.3934 -0.7887 -1.1443
  102OSM   C15S10306   3.776   5.556   9.194  0.0917 -0.2907 -0.6638
  102OSM   H15S10307   3.840   5.468   9.216  0.4237  0.3646  1.2775
  102OSM   H15T10308   3.835   5.650   9.205 -0.2152 -0.3070  1.8613
  102OSM   C16S10309   3.728   5.538   9.046 -0.2379  0.2939 -0.6086
  102OSM   H16S10310   3.705   5.639   9.004 -1.8564  0.5484  0.8142
  102OSM   H16T10311   3.637   5.475   9.037 -1.7288  2.5502 -2.7954
  102OSM   C17S10312   3.846   5.485   8.961 -0.4084 -0.7417  0.0370
  102OSM   H17S10313   3.844   5.374   8.969  0.8399 -0.7195  0.9027
  102OSM   H17T10314   3.945   5.528   8.988 -0.8968  1.3085 -1.2210
  102OSM   C18S10315   3.813   5.528   8.813 -0.0199  0.3900  0.0131
  102OSM   H18S10316   3.828   5.636   8.791  0.6492 -0.1688 -2.7551
  102OSM   H18T10317   3.711   5.493   8.787 -0.4152 -1.1746  3.2452
  102OSM   H18U10318   3.885   5.472   8.748  0.8214 -0.5627  1.7138
  102OSM    C1F10319   3.449   4.823  10.352  0.1795  0.0834  0.3175
  102OSM     OF10320   3.378   4.727  10.377  0.4507  0.0524 -0.0696
  102OSM    C2F10321   3.552   4.820  10.240 -0.4128 -0.0823 -0.0423
  102OSM    H2F10322   3.545   4.718  10.196  2.3935  0.3197 -1.6646
  102OSM    H2G10323   3.650   4.844  10.285  1.1176 -0.9337 -2.7314
  102OSM    C3F10324   3.521   4.931  10.139 -0.2101  0.0236 -0.0045
  102OSM    H3F10325   3.504   5.034  10.177  3.6250  1.1883 -1.0186
  102OSM    H3G10326   3.431   4.899  10.083  0.3706  1.4831 -1.8824
  102OSM    C4F10327   3.633   4.936  10.037 -0.1259  0.0425  0.2454
  102OSM    H4F10328   3.655   4.829  10.019  1.6148  0.3198  0.6021
  102OSM    H4G10329   3.727   4.978  10.079 -2.1974  0.5781  5.0238
  102OSM    C5F10330   3.593   5.000   9.903  0.2870  0.2875  0.4476
  102OSM    H5F10331   3.583   5.110   9.911  1.7998  0.6957 -2.1266
  102OSM    H5G10332   3.498   4.955   9.867 -0.7341  1.0785  2.0886
  102OSM    C6F10333   3.704   4.965   9.797  0.6522 -0.3762  0.6550
  102OSM    H6F10334   3.714   4.855   9.785  1.2040 -0.2263 -0.3406
  102OSM    H6G10335   3.800   5.008   9.833  1.2539 -1.1215 -0.0273
  102OSM    C7F10336   3.676   5.036   9.664  0.0575 -0.9029  0.3064
  102OSM    H7F10337   3.643   5.138   9.692  1.3792  0.1607 -1.7578
  102OSM    H7G10338   3.591   4.988   9.612 -0.9302  2.1567 -1.1473
  102OSM    C8F10339   3.798   5.031   9.560 -0.2068 -0.5545 -0.9000
  102OSM    H8F10340   3.797   4.923   9.536  0.0155 -0.3936 -1.6674
  102OSM    H8G10341   3.896   5.053   9.608 -1.6865  0.2045  1.9766
  102OSM    C9F10342   3.766   5.116   9.446  0.3497 -0.0603  0.0796
  102OSM    H9F10343   3.746   5.219   9.479  0.0558 -0.3188  0.7294
  102OSM   C10F10344   3.745   5.080   9.321  0.2057  0.5399  0.0890
  102OSM   H10F10345   3.724   5.159   9.247 -1.5333  0.1500  0.1208
  102OSM   C11F10346   3.760   4.940   9.264  0.4665  0.4788  0.0272
  102OSM   H11F10347   3.661   4.897   9.239  0.3695 -0.1505  1.4139
  102OSM   H11G10348   3.797   4.875   9.345  0.5432  1.0392  0.4494
  102OSM   C12F10349   3.862   4.923   9.152 -0.2371 -0.3132  0.0679
  102OSM   H12F10350   3.866   4.814   9.130 -0.2756  0.0057 -1.7465
  102OSM   H12G10351   3.960   4.953   9.194 -0.5853 -0.3745  0.9397
  102OSM   C13F10352   3.824   4.995   9.028  0.8627  0.0519  0.9145
  102OSM   H13F10353   3.810   5.105   9.043  0.5621  0.0860  0.4218
  102OSM   H13G10354   3.728   4.954   8.991  0.7918  1.9835 -1.3151
  102OSM   C14F10355   3.942   4.985   8.923  0.2894  0.2365 -0.6829
  102OSM   H14F10356   3.987   4.884   8.909  0.6352 -0.0120  1.7406
  102OSM   H14G10357   4.018   5.045   8.979  1.6672 -2.7189  0.8185
  102OSM   C15F10358   3.909   5.055   8.788 -0.6524  0.2073  0.1497
  102OSM   H15F10359   3.874   5.155   8.823  0.5418  0.0544  1.9077
  102OSM   H15G10360   3.832   4.992   8.739 -1.4359  1.8885 -0.8993
  102OSM   C16F10361   4.041   5.070   8.716  0.0645 -0.1892  0.3653
  102OSM   H16F10362   4.037   4.977   8.655 -4.5094 -0.5226  0.8371
  102OSM   H16G10363   4.128   5.071   8.786  0.4917 -0.0178 -0.1666
  102OSM   C17F10364   4.042   5.188   8.626 -0.1446 -0.0883 -0.0398
  102OSM   H17F10365   3.988   5.267   8.683 -0.6709 -1.3565  1.3053
  102OSM   H17G10366   3.979   5.178   8.535 -1.5740  2.2065  0.6144
  102OSM   C18F10367   4.184   5.221   8.592 -0.3394  0.0452 -0.2830
  102OSM   H18F10368   4.246   5.135   8.559 -3.4808 -2.3359 -0.3582
  102OSM   H18G10369   4.232   5.247   8.688 -0.1876  0.1878 -0.3955
  102OSM   H18H10370   4.192   5.304   8.518  0.1765  1.1526  0.9764
  103OSM      N10371   1.088   3.884  11.165  1.0655 -0.1152  0.6041
  103OSM    C1510372   1.225   3.900  11.107  0.7568  0.3715  0.2113
  103OSM   H15A10373   1.211   3.973  11.028 -0.8459 -0.3548 -0.2283
  103OSM   H15B10374   1.267   3.810  11.066  1.7270  0.4412  1.0262
  103OSM   H15C10375   1.289   3.936  11.186  0.8837  1.7567 -0.4760
  103OSM    C1410376   1.088   3.771  11.262  0.2639  0.1231  0.0861
  103OSM   H14A10377   1.079   3.678  11.207 -3.5127  0.9387 -0.9736
  103OSM   H14B10378   0.993   3.771  11.313  1.0790  1.0690  1.6902
  103OSM   H14C10379   1.171   3.771  11.332  1.4148  3.0311 -1.1266
  103OSM    C1310380   1.061   4.004  11.249  0.1647 -0.0749  0.4367
  103OSM   H13A10381   1.137   4.013  11.325  0.3755 -0.9621  0.3423
  103OSM   H13B10382   0.974   4.003  11.313  0.7189 -0.1905  1.2133
  103OSM   H13C10383   1.043   4.096  11.195  1.0116  0.1693  0.5511
  103OSM    C1210384   0.980   3.856  11.059  0.0561 -0.0907 -0.5491
  103OSM   H12A10385   0.961   3.950  11.009 -1.3220 -0.0873 -0.0528
  103OSM   H12B10386   0.893   3.827  11.114  2.2023 -2.0717  2.0473
  103OSM    C1110387   1.022   3.752  10.948  0.5389  0.2863  0.2968
  103OSM   H11A10388   1.110   3.798  10.899  0.6143 -1.5380 -1.4216
  103OSM   H11B10389   0.950   3.749  10.863 -1.1542 -2.1727  1.6889
  103OSM      P10390   0.974   3.508  11.028  0.1741 -0.4381  0.4378
  103OSM    O1310391   1.043   3.424  11.128 -0.0326 -0.4733  0.2262
  103OSM    O1410392   0.840   3.547  11.075  0.0797  0.0560  0.3566
  103OSM    O1110393   0.963   3.433  10.889  0.4446 -0.2860 -0.0088
  103OSM    O1210394   1.060   3.627  11.001 -0.3224  0.2008  0.5810
  103OSM    C1S10395   1.079   3.369  10.844 -0.0342  1.1499  0.0889
  103OSM    H1S10396   1.085   3.274  10.900 -4.4900  0.5980 -0.0137
  103OSM    H1T10397   1.172   3.429  10.857 -0.0860  1.2204  0.1381
  103OSM     NF10398   1.187   3.247  10.664 -0.2899  0.0900  0.1486
  103OSM    HNF10399   1.270   3.297  10.638 -0.7283  0.8860  0.2300
  103OSM    C2S10400   1.076   3.334  10.693 -0.4481  0.6911 -0.5929
  103OSM    H2S10401   0.982   3.278  10.670 -1.6398  2.0766  0.7211
  103OSM    C3S10402   1.053   3.458  10.601 -0.1679  0.5274  0.0568
  103OSM    H3S10403   1.136   3.531  10.607  0.9885 -0.7915  0.4446
  103OSM     O310404   0.930   3.523  10.637  0.8497  0.1730 -0.2821
  103OSM    HO310405   0.909   3.490  10.724  0.3343  0.1041 -0.4306
  103OSM    C4S10406   1.049   3.418  10.458 -0.3557 -0.0631  0.6379
  103OSM    H4S10407   1.151   3.399  10.422 -0.7616 -2.1179  0.4489
  103OSM    C5S10408   0.953   3.388  10.376  0.3113 -0.6601 -0.2633
  103OSM    H5S10409   0.849   3.382  10.411  0.5366  0.9070  0.8027
  103OSM    C6S10410   0.979   3.354  10.234 -0.0945 -0.1098  0.1192
  103OSM    H6S10411   0.907   3.407  10.168 -1.9883 -3.6058 -0.8699
  103OSM    H6T10412   0.956   3.248  10.211  2.8372 -0.7580 -0.2817
  103OSM    C7S10413   1.123   3.366  10.180  0.3314  0.4250 -0.0660
  103OSM    H7S10414   1.180   3.283  10.227 -0.0120 -0.1023 -0.5766
  103OSM    H7T10415   1.163   3.468  10.198 -0.9729  1.0452 -0.5752
  103OSM    C8S10416   1.131   3.342  10.026 -0.5062 -0.2679  0.3932
  103OSM    H8S10417   1.084   3.425   9.968 -0.2474  1.4122  2.4805
  103OSM    H8T10418   1.069   3.253  10.003 -2.6344  1.4971 -1.2123
  103OSM    C9S10419   1.275   3.311   9.977 -1.0193 -0.1340 -0.3017
  103OSM    H9S10420   1.295   3.222  10.041  0.5386 -0.8176 -1.6703
  103OSM    H9T10421   1.333   3.397  10.016 -2.1584  0.7611 -0.5470
  103OSM   C10S10422   1.298   3.283   9.833  0.4134 -0.1639  0.3418
  103OSM   H10S10423   1.249   3.186   9.809  0.2705 -0.2779  1.0878
  103OSM   H10T10424   1.408   3.274   9.824  0.4460  1.2218 -1.0976
  103OSM   C11S10425   1.262   3.396   9.731 -0.0700 -0.1482 -0.8374
  103OSM   H11S10426   1.283   3.494   9.779  1.4889 -0.4990 -0.7707
  103OSM   H11T10427   1.151   3.392   9.717 -0.2456  2.1113 -0.4359
  103OSM   C12S10428   1.341   3.380   9.603  0.0520  0.1166 -0.3494
  103OSM   H12S10429   1.447   3.360   9.631 -0.5895 -0.8180  1.5625
  103OSM   H12T10430   1.328   3.466   9.534 -1.2697 -0.5112 -0.9021
  103OSM   C13S10431   1.281   3.263   9.517 -0.0161  0.1428 -0.7587
  103OSM   H13S10432   1.179   3.303   9.497  0.3354  2.3586  1.4280
  103OSM   H13T10433   1.273   3.169   9.576 -0.2617  0.9826  0.5648
  103OSM   C14S10434   1.364   3.239   9.391  0.2856  0.2757 -0.5727
  103OSM   H14S10435   1.348   3.134   9.358  1.3980 -0.9177  2.3284
  103OSM   H14T10436   1.470   3.240   9.424 -0.7821 -1.6158  3.4801
  103OSM   C15S10437   1.325   3.331   9.278  0.7750  0.3780  0.0368
  103OSM   H15S10438   1.317   3.435   9.318  2.6242  0.9482 -0.9745
  103OSM   H15T10439   1.222   3.304   9.247  0.3375 -0.4807  2.0365
  103OSM   C16S10440   1.415   3.343   9.161 -0.0473 -0.1736 -0.5632
  103OSM   H16S10441   1.482   3.430   9.179 -0.9387  0.2391  0.9367
  103OSM   H16T10442   1.359   3.373   9.070 -0.2617 -0.0609 -0.3954
  103OSM   C17S10443   1.506   3.227   9.133 -0.8667  0.2171 -0.7416
  103OSM   H17S10444   1.566   3.188   9.218  0.7308  2.1198 -0.9466
  103OSM   H17T10445   1.580   3.265   9.059  0.8956 -2.3996 -0.4526
  103OSM   C18S10446   1.446   3.106   9.054 -0.1207 -0.5979  0.6401
  103OSM   H18S10447   1.351   3.077   9.102 -0.9392  0.4856 -0.2853
  103OSM   H18T10448   1.525   3.029   9.043 -0.1768 -0.3252 -2.8137
  103OSM   H18U10449   1.409   3.141   8.955  0.2569 -1.7730  0.0699
  103OSM    C1F10450   1.197   3.122  10.700 -0.0314  0.0704 -0.1060
  103OSM     OF10451   1.100   3.062  10.742  0.0624  0.2470  0.7344
  103OSM    C2F10452   1.325   3.055  10.675  0.1915 -0.2461  0.5416
  103OSM    H2F10453   1.364   3.001  10.764 -3.5944 -3.4759  0.5101
  103OSM    H2G10454   1.402   3.124  10.636 -0.7074  0.3887 -0.1585
  103OSM    C3F10455   1.309   2.954  10.560  0.1362 -0.1373  0.4670
  103OSM    H3F10456   1.246   2.867  10.589 -1.6031  1.1317  0.6904
  103OSM    H3G10457   1.412   2.918  10.540  0.5527  0.7266  1.0176
  103OSM    C4F10458   1.243   2.994  10.419  0.0324  0.2242 -0.5483
  103OSM    H4F10459   1.273   3.096  10.387 -2.2616  1.6243  1.3833
  103OSM    H4G10460   1.135   3.015  10.440  0.4966  1.9625  0.2924
  103OSM    C5F10461   1.248   2.882  10.310  0.3296  0.2350 -0.4273
  103OSM    H5F10462   1.163   2.910  10.245 -1.4715 -1.4980  1.0354
  103OSM    H5G10463   1.237   2.783  10.360  1.4284  0.4533  0.2796
  103OSM    C6F10464   1.378   2.863  10.224  0.5445 -0.2900 -0.0865
  103OSM    H6F10465   1.357   2.775  10.159 -0.1789  0.1597 -0.4710
  103OSM    H6G10466   1.460   2.839  10.296  1.2991 -2.2243 -1.5062
  103OSM    C7F10467   1.420   2.989  10.145 -0.0341  1.0070  0.5860
  103OSM    H7F10468   1.436   3.065  10.224 -2.0143  1.3537  0.7223
  103OSM    H7G10469   1.330   3.010  10.082  0.6433  1.6398 -0.2002
  103OSM    C8F10470   1.539   2.982  10.041  0.3821  0.1210 -1.1033
  103OSM    H8F10471   1.633   2.999  10.099  0.2568 -0.0548 -0.8439
  103OSM    H8G10472   1.527   3.075   9.983 -0.1973  1.6393  1.3179
  103OSM    C9F10473   1.552   2.854   9.962 -0.7553 -0.6285  0.1831
  103OSM    H9F10474   1.559   2.768  10.030 -1.8888 -0.9893 -0.1319
  103OSM   C10F10475   1.535   2.840   9.830 -0.1465 -0.1338 -0.4581
  103OSM   H10F10476   1.540   2.745   9.776  0.2450  0.5534 -1.6791
  103OSM   C11F10477   1.500   2.953   9.750 -0.4264  0.0430  0.0462
  103OSM   H11F10478   1.557   3.046   9.769 -2.4509  0.9369  2.1126
  103OSM   H11G10479   1.393   2.980   9.759 -1.0251 -2.5617  2.1132
  103OSM   C12F10480   1.503   2.916   9.597 -0.1899  0.0806 -0.4966
  103OSM   H12F10481   1.472   3.009   9.545  1.8000  0.6505 -0.7462
  103OSM   H12G10482   1.431   2.833   9.580  1.9185 -2.0082  0.0852
  103OSM   C13F10483   1.636   2.853   9.544 -0.0834 -0.7268 -0.4482
  103OSM   H13F10484   1.650   2.753   9.590  0.2704 -0.7438 -0.5859
  103OSM   H13G10485   1.711   2.925   9.583 -1.7367  1.2308 -0.7489
  103OSM   C14F10486   1.653   2.845   9.388 -0.2839  0.6727 -0.1022
  103OSM   H14F10487   1.755   2.810   9.363 -0.8511 -0.6767 -0.6401
  103OSM   H14G10488   1.651   2.941   9.332  0.1330  0.7831  0.0651
  103OSM   C15F10489   1.558   2.736   9.333 -0.4261  0.0464 -1.0156
  103OSM   H15F10490   1.462   2.735   9.388  0.8100 -0.2356  1.2880
  103OSM   H15G10491   1.603   2.641   9.369 -0.4479  0.3719 -0.1156
  103OSM   C16F10492   1.520   2.728   9.186 -0.5993  0.2490 -0.3255
  103OSM   H16F10493   1.600   2.752   9.113 -0.7869 -1.3972 -1.1192
  103OSM   H16G10494   1.439   2.802   9.169 -1.4491  0.5942  3.9317
  103OSM   C17F10495   1.472   2.583   9.166 -0.2956  0.1511  0.2435
  103OSM   H17F10496   1.393   2.574   9.243  0.1309  0.2267  0.6965
  103OSM   H17G10497   1.558   2.516   9.188  1.0697  1.1671 -1.6756
  103OSM   C18F10498   1.412   2.553   9.030  0.3764  0.0061  0.5101
  103OSM   H18F10499   1.491   2.553   8.952  1.9507  0.5778  2.0331
  103OSM   H18G10500   1.333   2.625   9.000  0.1148 -1.3080 -2.2513
  103OSM   H18H10501   1.358   2.456   9.031  0.6427 -0.2362 -1.9610
  104OSM      N10502   4.257   1.035  10.946  0.1031  0.0302 -0.8282
  104OSM    C1510503   4.362   1.130  10.893  0.3506  0.0875 -0.3909
  104OSM   H15A10504   4.346   1.233  10.921  2.5853  0.5621 -0.6503
  104OSM   H15B10505   4.362   1.120  10.785 -0.1542  0.7020 -0.4530
  104OSM   H15C10506   4.462   1.104  10.924  0.5156  1.4273  0.2407
  104OSM    C1410507   4.225   1.083  11.090 -0.0025 -0.1275 -0.2518
  104OSM   H14A10508   4.312   1.094  11.153 -0.5990  1.1307  0.4131
  104OSM   H14B10509   4.143   1.026  11.132 -0.2023 -0.4181 -1.0284
  104OSM   H14C10510   4.187   1.185  11.085  0.9585  0.2596  0.0630
  104OSM    C1310511   4.134   1.063  10.872  0.1489 -0.1775  0.3778
  104OSM   H13A10512   4.050   1.007  10.911 -0.9007  0.4197 -0.9577
  104OSM   H13B10513   4.140   1.032  10.769 -0.2544  1.7849 -0.2708
  104OSM   H13C10514   4.112   1.168  10.866 -1.6264 -0.6117 -2.1323
  104OSM    C1210515   4.298   0.890  10.936 -0.2773  0.3009 -0.4509
  104OSM   H12A10516   4.298   0.855  10.834 -0.4626 -0.8673 -0.0641
  104OSM   H12B10517   4.228   0.823  10.985 -0.1994  0.2950 -0.3462
  104OSM    C1110518   4.434   0.847  10.989  0.0445 -0.0425 -0.0314
  104OSM   H11A10519   4.462   0.739  10.984  1.9852  0.4215 -0.2190
  104OSM   H11B10520   4.421   0.878  11.095  0.7974  0.5192 -0.0987
  104OSM      P10521   4.662   0.974  11.020 -0.2722 -0.1424 -0.2018
  104OSM    O1310522   4.603   1.060  11.125  0.0635  0.2214 -0.5269
  104OSM    O1410523   4.739   0.853  11.063 -0.4468  0.2478 -0.3445
  104OSM    O1110524   4.746   1.063  10.915 -0.1420  0.5810 -0.6077
  104OSM    O1210525   4.543   0.914  10.932  0.1464  0.0790 -0.2317
  104OSM    C1S10526   4.715   1.058  10.772 -0.0548  0.0822 -1.0321
  104OSM    H1S10527   4.604   1.060  10.760 -0.5750  0.8601  2.6116
  104OSM    H1T10528   4.751   0.967  10.720 -1.7517 -2.1242  1.3686
  104OSM     NF10529   4.724   1.183  10.561 -0.3246  0.1137  0.0617
  104OSM    HNF10530   4.796   1.137  10.509  1.4771  0.8784  1.7409
  104OSM    C2S10531   4.770   1.181  10.700 -0.1764  0.3656 -0.3305
  104OSM    H2S10532   4.732   1.272  10.750  0.4752  0.4370  0.0411
  104OSM    C3S10533   4.928   1.181  10.712  0.7240  0.4092  0.1411
  104OSM    H3S10534   4.980   1.090  10.675  1.0134  0.7013 -0.1816
  104OSM     O310535   4.984   1.180  10.846  0.1245 -0.1087  0.1952
  104OSM    HO310536   4.908   1.160  10.901  1.9388  0.0337  2.9175
  104OSM    C4S10537   4.984   1.297  10.632 -0.0449 -0.1858  0.1798
  104OSM    H4S10538   4.917   1.384  10.628 -2.5385 -1.9789  0.4617
  104OSM    C5S10539   5.098   1.302  10.561 -0.1651  0.1914  0.3504
  104OSM    H5S10540   5.161   1.212  10.554 -0.9527 -0.2439 -2.3586
  104OSM    C6S10541   5.141   1.422  10.480  0.0872 -0.7879 -0.4509
  104OSM    H6S10542   5.205   1.486  10.544  1.6580 -1.4451 -1.2982
  104OSM    H6T10543   5.062   1.495  10.452  1.1998  0.5706 -0.1349
  104OSM    C7S10544   5.230   1.394  10.356 -0.6298  0.7013  0.1114
  104OSM    H7S10545   5.178   1.321  10.290  0.8425 -1.5650  1.3277
  104OSM    H7T10546   5.315   1.339  10.402 -1.5311 -2.2777 -1.5181
  104OSM    C8S10547   5.270   1.516  10.269 -0.4177 -0.3352  0.0862
  104OSM    H8S10548   5.327   1.585  10.335 -0.5205 -1.9979  2.0443
  104OSM    H8T10549   5.174   1.555  10.229 -1.2193 -3.6594 -1.5666
  104OSM    C9S10550   5.355   1.482  10.146 -0.2198  0.4209 -0.4581
  104OSM    H9S10551   5.290   1.404  10.101  0.3425 -0.2806 -0.0555
  104OSM    H9T10552   5.448   1.428  10.171 -0.8928 -1.4578 -1.8286
  104OSM   C10S10553   5.389   1.583  10.047  0.6423 -0.0791  0.0989
  104OSM   H10S10554   5.428   1.672  10.101 -2.8774  0.5667  1.8661
  104OSM   H10T10555   5.289   1.613  10.007  1.1758  1.2140 -0.3135
  104OSM   C11S10556   5.486   1.524   9.946  0.4152  0.6738  0.7634
  104OSM   H11S10557   5.578   1.479   9.989 -0.3570 -1.5065  0.2434
  104OSM   H11T10558   5.518   1.609   9.882  0.0938  0.5561  0.4402
  104OSM   C12S10559   5.415   1.419   9.863  0.8912  0.2097  0.1621
  104OSM   H12S10560   5.327   1.468   9.816  0.1174 -0.6755  0.6590
  104OSM   H12T10561   5.384   1.334   9.927  1.7868 -0.5479 -0.3828
  104OSM   C13S10562   5.509   1.364   9.748 -0.2526 -0.3037 -0.7519
  104OSM   H13S10563   5.465   1.265   9.723  1.9440 -1.4631 -0.2872
  104OSM   H13T10564   5.612   1.348   9.785 -0.2187 -1.6250 -1.3491
  104OSM   C14S10565   5.505   1.455   9.616  0.1006 -0.6880 -0.7497
  104OSM   H14S10566   5.552   1.552   9.641 -2.5108  0.8154 -1.3490
  104OSM   H14T10567   5.398   1.484   9.605  0.7830  4.0217  2.3308
  104OSM   C15S10568   5.563   1.384   9.494 -0.0628  0.4785  0.1050
  104OSM   H15S10569   5.513   1.287   9.474  1.5585 -0.2154 -0.8054
  104OSM   H15T10570   5.671   1.358   9.503  0.7714  1.7189 -4.1266
  104OSM   C16S10571   5.554   1.465   9.362 -0.6608 -0.2513 -0.3165
  104OSM   H16S10572   5.618   1.412   9.288 -0.5048  0.1317 -0.4550
  104OSM   H16T10573   5.605   1.558   9.392  0.6205 -0.6127 -1.3031
  104OSM   C17S10574   5.413   1.485   9.326 -0.3232  0.4589 -0.1957
  104OSM   H17S10575   5.369   1.558   9.398  0.7361  1.1774 -0.2543
  104OSM   H17T10576   5.356   1.389   9.328  0.8376 -0.2419  0.8650
  104OSM   C18S10577   5.410   1.547   9.186  0.0558 -0.3791  0.4599
  104OSM   H18S10578   5.440   1.475   9.108 -1.4434  1.6600 -2.1774
  104OSM   H18T10579   5.481   1.633   9.184 -1.9784  1.3854 -2.5297
  104OSM   H18U10580   5.308   1.576   9.155 -0.2906 -1.0991  0.8954
  104OSM    C1F10581   4.605   1.229  10.520 -0.1610 -0.2069  0.4003
  104OSM     OF10582   4.513   1.245  10.602  0.0643 -0.3692 -0.1438
  104OSM    C2F10583   4.598   1.284  10.381  0.2216 -0.3739 -1.3734
  104OSM    H2F10584   4.705   1.293  10.353  0.2117 -1.0596 -1.6491
  104OSM    H2G10585   4.542   1.380  10.387  2.2338  0.8111 -0.4646
  104OSM    C3F10586   4.531   1.203  10.277 -0.3506 -0.3833 -0.2834
  104OSM    H3F10587   4.421   1.201  10.286 -0.6254 -0.7709 -3.0469
  104OSM    H3G10588   4.574   1.101  10.282 -1.1840 -0.6910  2.3176
  104OSM    C4F10589   4.554   1.266  10.138  0.5180  0.0788  0.1892
  104OSM    H4F10590   4.557   1.178  10.070  1.0813  0.7301 -0.6678
  104OSM    H4G10591   4.650   1.322  10.136  0.3456  0.5719  2.5457
  104OSM    C5F10592   4.446   1.363  10.083  0.3857  0.5379  0.8530
  104OSM    H5F10593   4.425   1.444  10.156  1.4342  0.7252  0.9706
  104OSM    H5G10594   4.348   1.314  10.067  0.4527  1.1498 -2.1022
  104OSM    C6F10595   4.495   1.428   9.954 -0.1393 -0.1196 -0.1649
  104OSM    H6F10596   4.579   1.498   9.975  2.3591 -1.6099 -4.0450
  104OSM    H6G10597   4.405   1.484   9.921 -0.8848 -2.0310 -1.5390
  104OSM    C7F10598   4.542   1.332   9.843 -0.4322  0.8084 -0.3118
  104OSM    H7F10599   4.459   1.266   9.812  0.3072 -0.5902  0.5620
  104OSM    H7G10600   4.623   1.261   9.872 -1.4896 -1.9203 -3.5033
  104OSM    C8F10601   4.575   1.403   9.711  0.8517 -0.2002 -0.4427
  104OSM    H8F10602   4.669   1.462   9.719  0.2742  0.8051 -0.8808
  104OSM    H8G10603   4.497   1.475   9.679 -0.8448 -2.1570 -0.8340
  104OSM    C9F10604   4.598   1.301   9.610 -0.2192 -0.1207  0.4618
  104OSM    H9F10605   4.701   1.262   9.617 -0.8376 -2.0717 -0.5500
  104OSM   C10F10606   4.513   1.266   9.512  1.0401  0.6011  0.7525
  104OSM   H10F10607   4.546   1.199   9.432  0.3773  0.5618  0.5140
  104OSM   C11F10608   4.373   1.315   9.489  0.6412 -0.1732 -0.6681
  104OSM   H11F10609   4.345   1.383   9.573 -1.1840 -1.7832  0.1083
  104OSM   H11G10610   4.307   1.226   9.496 -0.1578  0.4205 -0.5149
  104OSM   C12F10611   4.355   1.392   9.354  0.2195 -0.5115 -0.5282
  104OSM   H12F10612   4.449   1.448   9.330  0.7284 -0.2479  1.8719
  104OSM   H12G10613   4.284   1.477   9.360  0.3216 -0.5579  2.0423
  104OSM   C13F10614   4.304   1.316   9.227  0.1141 -0.2304 -0.6087
  104OSM   H13F10615   4.257   1.386   9.154 -1.1285  0.6208  0.9361
  104OSM   H13G10616   4.222   1.245   9.254 -0.1267  0.3009  0.0737
  104OSM   C14F10617   4.409   1.245   9.147 -0.7844  0.8287  0.1384
  104OSM   H14F10618   4.448   1.158   9.203 -0.6047  1.1181  0.4631
  104OSM   H14G10619   4.490   1.322   9.149 -1.6215  1.7215  1.2053
  104OSM   C15F10620   4.374   1.199   9.002 -0.3061  0.0094 -0.1326
  104OSM   H15F10621   4.467   1.170   8.949 -1.0102  1.0921 -2.0681
  104OSM   H15G10622   4.321   1.288   8.960 -0.6994 -1.0909 -2.0708
  104OSM   C16F10623   4.280   1.085   8.995 -0.4088  0.1800 -0.1780
  104OSM   H16F10624   4.195   1.090   9.067 -0.7354 -0.1027 -0.5366
  104OSM   H16G10625   4.322   0.987   9.027 -1.6582 -1.2828 -2.6902
  104OSM   C17F10626   4.223   1.053   8.859 -0.1008 -0.4357 -0.8266
  104OSM   H17F10627   4.169   1.147   8.833 -3.0412 -1.7982 -0.1025
  104OSM   H17G10628   4.143   0.977   8.876  0.0573 -0.0982  1.9387
  104OSM   C18F10629   4.310   1.013   8.744 -0.3533 -0.0018  0.9876
  104OSM   H18F10630   4.322   0.904   8.763 -0.7377 -0.4553 -1.1288
  104OSM   H18G10631   4.414   1.053   8.739  0.0723 -1.0746  1.0760
  104OSM   H18H10632   4.255   1.016   8.648 -2.6632 -0.3500  2.2267
  105OSM      N10633   0.971   4.628  10.991 -0.2388 -0.3429 -0.0234
  105OSM    C1510634   1.064   4.717  11.071  0.9337 -0.4383 -0.6753
  105OSM   H15A10635   1.020   4.771  11.153 -0.2349 -1.7457 -0.4041
  105OSM   H15B10636   1.115   4.780  11.000 -1.2387  1.4333 -0.6899
  105OSM   H15C10637   1.144   4.669  11.126  0.3873  0.9961  1.4874
  105OSM    C1410638   0.865   4.576  11.080  0.8899 -0.0719 -0.0610
  105OSM   H14A10639   0.806   4.659  11.119  0.4535 -0.0243 -0.7929
  105OSM   H14B10640   0.915   4.518  11.155 -0.0828  1.6692  2.0629
  105OSM   H14C10641   0.799   4.510  11.025  0.1547  0.9103 -0.3932
  105OSM    C1310642   0.901   4.720  10.894 -0.0640 -0.9454 -0.4111
  105OSM   H13A10643   0.837   4.785  10.952  0.3704 -0.5953 -0.3177
  105OSM   H13B10644   0.849   4.685  10.806 -0.6840  1.6279 -1.1722
  105OSM   H13C10645   0.983   4.784  10.863  0.3856  1.1628  4.2990
  105OSM    C1210646   1.045   4.514  10.918 -0.0582  0.9380  0.5250
  105OSM   H12A10647   1.097   4.453  10.990 -0.3399 -1.6068 -1.3118
  105OSM   H12B10648   1.119   4.567  10.860 -0.5455  2.8741  1.5707
  105OSM    C1110649   0.969   4.418  10.825 -0.0270  0.0381  0.3444
  105OSM   H11A10650   1.032   4.361  10.754  0.8707  2.2114 -0.6838
  105OSM   H11B10651   0.914   4.488  10.759  0.8176  0.5525  0.1715
  105OSM      P10652   0.926   4.210  10.972 -0.1238  0.1992  0.1282
  105OSM    O1310653   1.017   4.252  11.080  0.1785 -0.2531  0.2284
  105OSM    O1410654   0.807   4.140  11.020  0.4034 -0.1625  0.2805
  105OSM    O1110655   0.997   4.117  10.867  0.4919  0.2826  0.2860
  105OSM    O1210656   0.877   4.339  10.898  0.0542  0.3211 -0.0797
  105OSM    C1S10657   0.923   4.065  10.754  0.8211 -0.6824 -0.3256
  105OSM    H1S10658   0.836   4.130  10.733  2.3374  1.1954 -1.1784
  105OSM    H1T10659   0.884   3.964  10.780 -0.5406 -0.4107 -1.2160
  105OSM     NF10660   0.913   4.025  10.521  0.0729  0.3904 -0.3875
  105OSM    HNF10661   0.903   3.931  10.489 -0.6538 -0.3201  1.7473
  105OSM    C2S10662   1.006   4.057  10.625  0.1105 -0.1844 -0.4208
  105OSM    H2S10663   1.055   4.151  10.591  0.3154 -0.6126 -1.3237
  105OSM    C3S10664   1.119   3.958  10.649 -0.3722  0.7824  0.6018
  105OSM    H3S10665   1.074   3.857  10.660  2.7114 -0.5666  1.7139
  105OSM     O310666   1.199   3.975  10.762 -0.1160 -0.3903  1.1077
  105OSM    HO310667   1.143   4.032  10.816  0.6778  0.9533  0.5559
  105OSM    C4S10668   1.200   3.952  10.517  0.1716  0.6755  0.2789
  105OSM    H4S10669   1.209   4.053  10.473 -2.2292  0.9291  0.2187
  105OSM    C5S10670   1.252   3.845  10.460  0.1142 -0.2041  0.0939
  105OSM    H5S10671   1.228   3.742  10.490  0.4089 -0.4766 -0.6072
  105OSM    C6S10672   1.325   3.844  10.326 -0.4516 -0.0222 -0.0831
  105OSM    H6S10673   1.259   3.788  10.256 -0.7926 -1.4175  1.3013
  105OSM    H6T10674   1.420   3.787  10.337 -0.6588 -0.5900 -1.0687
  105OSM    C7S10675   1.368   3.971  10.250 -0.0493  0.7282 -0.4001
  105OSM    H7S10676   1.422   4.043  10.315 -1.0741  1.5908 -0.4728
  105OSM    H7T10677   1.276   4.033  10.238  0.7634  2.0341 -0.1156
  105OSM    C8S10678   1.441   3.950  10.120  0.4692  0.4658  0.3692
  105OSM    H8S10679   1.380   3.874  10.068  1.8240 -2.1604  2.3986
  105OSM    H8T10680   1.539   3.902  10.136  0.1740 -1.0905 -2.0631
  105OSM    C9S10681   1.453   4.083  10.039 -0.4230 -0.2038 -0.2675
  105OSM    H9S10682   1.519   4.158  10.086 -0.0415  0.0897 -1.2437
  105OSM    H9T10683   1.355   4.135  10.032  0.5793  1.7351 -0.4818
  105OSM   C10S10684   1.522   4.053   9.901  0.5793 -0.4846 -0.7767
  105OSM   H10S10685   1.465   3.974   9.848  0.3561  0.2064 -1.6018
  105OSM   H10T10686   1.618   4.004   9.926 -0.7345 -2.5743  0.4497
  105OSM   C11S10687   1.539   4.178   9.824 -0.5650  0.1050  0.4176
  105OSM   H11S10688   1.593   4.158   9.729 -0.4404  3.9769 -0.5138
  105OSM   H11T10689   1.604   4.255   9.872 -0.2856 -0.3885  0.8319
  105OSM   C12S10690   1.405   4.245   9.785  0.2591 -0.3307  1.2403
  105OSM   H12S10691   1.389   4.335   9.848  1.4957  1.8812 -1.4404
  105OSM   H12T10692   1.312   4.191   9.815 -1.5131  2.9251  2.0742
  105OSM   C13S10693   1.397   4.306   9.641  0.3299  0.3616 -0.0233
  105OSM   H13S10694   1.496   4.351   9.620  0.6683  0.0489  0.8458
  105OSM   H13T10695   1.327   4.391   9.630  1.2027  1.3606  1.7555
  105OSM   C14S10696   1.355   4.215   9.524 -0.2163  0.1960  0.1396
  105OSM   H14S10697   1.295   4.131   9.563  2.2410 -0.9445  1.7186
  105OSM   H14T10698   1.448   4.162   9.494 -0.6615 -0.6913  0.2947
  105OSM   C15S10699   1.321   4.299   9.399  0.3664  0.5902  0.6990
  105OSM   H15S10700   1.249   4.378   9.430 -0.1885  0.1105  0.6598
  105OSM   H15T10701   1.250   4.236   9.340 -0.5749 -1.4979  3.8224
  105OSM   C16S10702   1.450   4.343   9.326 -0.3797 -0.5451 -0.3581
  105OSM   H16S10703   1.520   4.258   9.330  0.0268 -0.1693  2.3046
  105OSM   H16T10704   1.499   4.429   9.377  1.1612 -1.8105  0.3624
  105OSM   C17S10705   1.422   4.382   9.180 -0.4195  0.2666  0.4526
  105OSM   H17S10706   1.355   4.470   9.181  2.2479  2.4583 -0.1912
  105OSM   H17T10707   1.351   4.312   9.133 -2.2745  1.6574  1.0620
  105OSM   C18S10708   1.545   4.419   9.103  0.2243 -0.0059  0.6565
  105OSM   H18S10709   1.511   4.457   9.004  0.0312 -2.0715 -0.1183
  105OSM   H18T10710   1.610   4.331   9.082  0.4073 -0.0397  1.3559
  105OSM   H18U10711   1.614   4.496   9.145  3.1576 -0.8768 -2.0906
  105OSM    C1F10712   0.823   4.111  10.473  0.1628 -0.6893 -0.3266
  105OSM     OF10713   0.804   4.223  10.523  0.5154  0.3939 -0.1338
  105OSM    C2F10714   0.736   4.065  10.364  0.5066  0.2111 -0.0643
  105OSM    H2F10715   0.633   4.085  10.400  0.3295 -2.1067  0.9117
  105OSM    H2G10716   0.749   3.954  10.360  0.0065  0.1779 -2.0552
  105OSM    C3F10717   0.782   4.125  10.228  0.1777  0.0266 -0.2863
  105OSM    H3F10718   0.783   4.233  10.252 -1.3452 -0.0309  0.0894
  105OSM    H3G10719   0.709   4.110  10.145 -0.1877  2.0073 -0.3572
  105OSM    C4F10720   0.926   4.077  10.191  0.2548 -0.0667  0.5312
  105OSM    H4F10721   0.999   4.049  10.270  0.6046 -2.2199 -0.4622
  105OSM    H4G10722   0.965   4.159  10.127 -1.5591 -1.5649 -2.7475
  105OSM    C5F10723   0.925   3.957  10.092 -0.3620  0.3042 -0.0892
  105OSM    H5F10724   0.822   3.956  10.049 -0.5955 -0.7616  0.4542
  105OSM    H5G10725   0.932   3.858  10.143  0.8426  0.7934  0.7294
  105OSM    C6F10726   1.026   3.973   9.981 -0.1277  0.2527 -0.3686
  105OSM    H6F10727   1.122   3.961  10.036 -0.9603 -2.1815  0.7253
  105OSM    H6G10728   1.025   4.070   9.928 -1.1506 -0.6077 -1.9914
  105OSM    C7F10729   1.037   3.861   9.876 -0.7326 -0.2672  0.0527
  105OSM    H7F10730   0.939   3.863   9.825  0.2644  0.4293 -1.9477
  105OSM    H7G10731   1.054   3.766   9.931  0.7472  0.1417  0.3557
  105OSM    C8F10732   1.155   3.873   9.779  0.3627  0.1648 -0.3765
  105OSM    H8F10733   1.252   3.874   9.833  0.7668  0.7281 -1.0963
  105OSM    H8G10734   1.127   3.970   9.733 -1.4593 -0.4109 -0.5600
  105OSM    C9F10735   1.146   3.784   9.665  0.4902  0.4273  0.6643
  105OSM    H9F10736   1.043   3.776   9.628  0.2870  1.9078  0.8418
  105OSM   C10F10737   1.246   3.725   9.598  0.1623  0.2654 -0.1991
  105OSM   H10F10738   1.211   3.668   9.511 -1.8571 -0.5635  1.1014
  105OSM   C11F10739   1.395   3.727   9.626 -0.1683 -0.5353 -0.4066
  105OSM   H11F10740   1.443   3.628   9.612 -0.5152 -1.2808  2.7747
  105OSM   H11G10741   1.415   3.747   9.734 -0.2221 -0.8293 -0.3428
  105OSM   C12F10742   1.468   3.842   9.558 -0.3022 -0.4952 -0.7598
  105OSM   H12F10743   1.433   3.940   9.599 -0.7977 -1.6331  1.7663
  105OSM   H12G10744   1.445   3.843   9.450 -0.1097 -0.7323 -0.8041
  105OSM   C13F10745   1.625   3.837   9.567  0.2602  0.6990  0.3590
  105OSM   H13F10746   1.664   3.739   9.534 -2.9905 -0.0199 -1.8260
  105OSM   H13G10747   1.656   3.843   9.673  2.0681 -0.7866 -0.0318
  105OSM   C14F10748   1.692   3.958   9.501  0.2585 -0.0137 -0.5275
  105OSM   H14F10749   1.636   4.047   9.537  0.5220  0.1150 -0.4361
  105OSM   H14G10750   1.680   3.956   9.391 -1.0393 -2.5815 -0.4225
  105OSM   C15F10751   1.847   3.960   9.516  0.4061  0.7562 -0.1441
  105OSM   H15F10752   1.886   4.034   9.442  2.9415 -0.7010 -0.3860
  105OSM   H15G10753   1.886   3.861   9.484  0.5776  0.6293  0.4531
  105OSM   C16F10754   1.893   4.010   9.657 -0.4074 -0.1193  0.0382
  105OSM   H16F10755   1.865   3.924   9.721 -1.5264  0.5507  0.4681
  105OSM   H16G10756   1.835   4.104   9.674  0.7898  0.7031 -0.2409
  105OSM   C17F10757   2.047   4.043   9.662  0.0817  0.5741  0.7629
  105OSM   H17F10758   2.067   4.113   9.747  1.4514 -0.2304  1.1304
  105OSM   H17G10759   2.073   4.102   9.571 -1.2129 -2.1641 -1.4995
  105OSM   C18F10760   2.141   3.924   9.678 -0.2786 -0.3991 -0.0300
  105OSM   H18F10761   2.110   3.858   9.762 -0.3642 -2.6914 -1.7737
  105OSM   H18G10762   2.243   3.955   9.710 -0.5602  0.4486  0.0645
  105OSM   H18H10763   2.160   3.865   9.586  0.7983  1.2628 -0.9335
  106OSM      N10764   6.520   4.040  11.136 -0.2051  0.4101 -0.2972
  106OSM    C1510765   6.629   3.999  11.232 -0.1548 -0.1125 -0.3424
  106OSM   H15A10766   6.724   4.047  11.215  0.7671 -2.2114 -1.5059
  106OSM   H15B10767   6.657   3.896  11.240  0.4169  0.0798  0.1866
  106OSM   H15C10768   6.588   4.026  11.329  0.0153 -0.1594 -0.2585
  106OSM    C1410769   6.390   3.969  11.173 -0.2754 -0.4077 -0.3162
  106OSM   H14A10770   6.394   3.863  11.188  0.8089 -0.2078  0.9088
  106OSM   H14B10771   6.309   3.987  11.103 -1.0959 -0.4371  0.6015
  106OSM   H14C10772   6.353   4.006  11.268  0.7430  0.7062 -0.3219
  106OSM    C1310773   6.506   4.194  11.160 -0.8023 -0.1738  1.0556
  106OSM   H13A10774   6.493   4.207  11.267  2.4161  1.2024  1.3852
  106OSM   H13B10775   6.420   4.243  11.116 -1.0178 -1.9938 -0.6703
  106OSM   H13C10776   6.603   4.236  11.140 -1.0147 -0.5915 -0.9867
  106OSM    C1210777   6.551   4.003  10.993  0.0951 -0.1025 -0.7581
  106OSM   H12A10778   6.467   4.044  10.940 -2.1615 -1.1145  1.7773
  106OSM   H12B10779   6.541   3.897  10.978 -1.4805  0.2300 -2.3763
  106OSM    C1110780   6.697   4.035  10.934  0.1377 -0.3440 -0.5213
  106OSM   H11A10781   6.728   4.136  10.968  0.8188 -0.8529  0.4214
  106OSM   H11B10782   6.681   4.032  10.824  1.2950  2.0201 -0.8196
  106OSM      P10783   6.809   3.799  10.929  0.1111  0.0614 -0.0732
  106OSM    O1310784   6.949   3.752  10.949  0.3749  0.1393  0.6649
  106OSM    O1410785   6.699   3.726  10.996 -0.3523  0.0965 -0.0516
  106OSM    O1110786   6.783   3.806  10.774  0.0268  0.1216  0.7058
  106OSM    O1210787   6.799   3.947  10.977  0.2556 -0.2136  0.1141
  106OSM    C1S10788   6.855   3.873  10.677 -0.8052  0.1612 -0.6140
  106OSM    H1S10789   6.960   3.836  10.676 -1.0555 -0.5699 -1.6492
  106OSM    H1T10790   6.859   3.981  10.703 -0.3947  0.7823 -3.0033
  106OSM     NF10791   6.850   3.922  10.428 -0.3757  0.0663  0.7286
  106OSM    HNF10792   6.814   4.011  10.402 -1.7726 -0.4783  0.7295
  106OSM    C2S10793   6.783   3.855  10.546 -0.3435  0.8848  0.2064
  106OSM    H2S10794   6.785   3.747  10.523  2.1673  0.5172  1.8482
  106OSM    C3S10795   6.636   3.911  10.558  0.2362  0.7239 -0.1024
  106OSM    H3S10796   6.634   4.016  10.594 -1.5246  0.4618  0.6428
  106OSM     O310797   6.557   3.849  10.662  0.0428  0.1679 -0.2428
  106OSM    HO310798   6.624   3.807  10.716 -1.0516  0.1248  1.1618
  106OSM    C4S10799   6.567   3.897  10.430 -0.4149  0.6287  0.1692
  106OSM    H4S10800   6.575   3.794  10.392  0.5999  0.3917  1.0014
  106OSM    C5S10801   6.506   3.995  10.357  0.3989 -0.4504  0.2030
  106OSM    H5S10802   6.529   4.098  10.388 -2.8018 -0.7921  4.6720
  106OSM    C6S10803   6.446   3.978  10.218  0.1297 -0.0226 -0.2598
  106OSM    H6S10804   6.346   4.026  10.215  0.0984 -0.1264 -1.1528
  106OSM    H6T10805   6.429   3.872  10.192 -2.4157 -0.0340  1.1368
  106OSM    C7S10806   6.531   4.054  10.110 -0.3482 -0.5678  0.1845
  106OSM    H7S10807   6.637   4.026  10.127 -0.0708  0.5759  0.4267
  106OSM    H7T10808   6.514   4.161  10.134  3.7885  0.6374 -1.3219
  106OSM    C8S10809   6.489   4.035   9.963  0.6731 -0.1997  0.2375
  106OSM    H8S10810   6.460   3.928   9.954 -1.4462  0.2251  1.4584
  106OSM    H8T10811   6.580   4.048   9.901 -0.0778 -1.6693 -1.2631
  106OSM    C9S10812   6.359   4.112   9.921  0.4953 -0.5577 -0.1991
  106OSM    H9S10813   6.388   4.218   9.933  0.6382 -0.6242  0.0674
  106OSM    H9T10814   6.280   4.085   9.995  0.6005 -1.1606 -0.2957
  106OSM   C10S10815   6.311   4.075   9.777 -0.4489 -0.2073  0.0218
  106OSM   H10S10816   6.219   4.133   9.756 -1.6811 -2.6342 -1.7974
  106OSM   H10T10817   6.298   3.965   9.774  2.3444 -0.5915 -0.5479
  106OSM   C11S10818   6.414   4.103   9.659 -0.8458 -0.1100 -0.7755
  106OSM   H11S10819   6.491   4.023   9.665  2.1194  2.6325  0.7784
  106OSM   H11T10820   6.473   4.196   9.670  0.4693 -0.8407 -1.4336
  106OSM   C12S10821   6.340   4.101   9.526  0.3547 -0.1541  0.1966
  106OSM   H12S10822   6.420   4.098   9.450 -0.7004 -2.2926 -0.9098
  106OSM   H12T10823   6.281   4.193   9.509  0.5256 -0.4122 -2.0214
  106OSM   C13S10824   6.256   3.972   9.499 -0.6991  0.3273  0.1290
  106OSM   H13S10825   6.165   3.969   9.563 -0.6732  0.1853  0.1584
  106OSM   H13T10826   6.327   3.892   9.527 -0.0895  1.6838  2.8045
  106OSM   C14S10827   6.208   3.982   9.349 -0.2410  0.3782 -0.8332
  106OSM   H14S10828   6.304   3.969   9.295 -0.0767 -1.2292 -0.2064
  106OSM   H14T10829   6.165   4.079   9.315 -0.8684 -0.1512 -1.5689
  106OSM   C15S10830   6.103   3.881   9.301  0.8268  0.4147 -0.4361
  106OSM   H15S10831   6.010   3.927   9.339  1.3247 -1.2632  3.2542
  106OSM   H15T10832   6.119   3.781   9.346 -1.2341  0.6395  0.9042
  106OSM   C16S10833   6.096   3.861   9.155  0.4895  0.3815 -0.0758
  106OSM   H16S10834   6.006   3.800   9.132  0.8503 -0.6640  1.1601
  106OSM   H16T10835   6.193   3.818   9.123 -0.0238  0.9907 -2.7787
  106OSM   C17S10836   6.082   3.991   9.070  1.0463  0.6915 -0.0284
  106OSM   H17S10837   6.155   4.070   9.097  0.4556  0.6418  1.9375
  106OSM   H17T10838   5.983   4.035   9.094  1.8148  1.9029  1.1284
  106OSM   C18S10839   6.083   3.939   8.927  0.7107  0.0218 -0.2102
  106OSM   H18S10840   6.101   4.030   8.866  0.7212  2.1103  2.7182
  106OSM   H18T10841   5.982   3.899   8.904  0.2603  0.2671  1.2071
  106OSM   H18U10842   6.163   3.865   8.906 -1.9224 -2.5013 -2.2554
  106OSM    C1F10843   6.964   3.873  10.381  0.4212  0.2760 -1.1316
  106OSM     OF10844   7.010   3.772  10.430 -0.4941 -0.2176 -0.2357
  106OSM    C2F10845   7.029   3.958  10.281 -0.2954  0.0876 -0.1809
  106OSM    H2F10846   7.062   4.055  10.326  1.9498  0.4705 -2.4227
  106OSM    H2G10847   6.949   3.976  10.207 -1.8860 -2.8976  0.6543
  106OSM    C3F10848   7.144   3.894  10.204 -0.0744 -0.4745  0.3171
  106OSM    H3F10849   7.117   3.804  10.145  0.4511  1.4798 -3.1554
  106OSM    H3G10850   7.227   3.880  10.277  0.1141  0.2902  0.2571
  106OSM    C4F10851   7.193   3.994  10.086  0.8877  0.7264 -0.5048
  106OSM    H4F10852   7.227   4.090  10.131  1.1908  1.4923 -2.2860
  106OSM    H4G10853   7.110   4.025  10.019  0.7117 -1.9382 -1.6257
  106OSM    C5F10854   7.316   3.937  10.010  0.3366  0.0146 -0.4217
  106OSM    H5F10855   7.387   3.904  10.090  1.2956  1.9334 -0.4328
  106OSM    H5G10856   7.354   4.034   9.971  2.6616  0.2901  2.1727
  106OSM    C6F10857   7.285   3.850   9.893 -0.3222  0.1809 -0.1434
  106OSM    H6F10858   7.227   3.757   9.914  1.2605 -1.3922 -2.3073
  106OSM    H6G10859   7.382   3.816   9.851 -0.3928 -2.0470  1.2978
  106OSM    C7F10860   7.195   3.911   9.780 -0.3314  0.7394 -0.4368
  106OSM    H7F10861   7.096   3.921   9.830 -0.3390 -3.0122  0.5927
  106OSM    H7G10862   7.194   3.840   9.694  0.9419  1.5202 -1.1244
  106OSM    C8F10863   7.240   4.036   9.709 -0.0841  0.1877  0.4482
  106OSM    H8F10864   7.250   4.123   9.777 -0.6244  0.6564 -0.0682
  106OSM    H8G10865   7.154   4.065   9.645 -2.3801 -1.7702  2.3925
  106OSM    C9F10866   7.368   4.003   9.629 -0.0025 -0.2131  0.1389
  106OSM    H9F10867   7.456   4.017   9.693 -2.1160  1.5556  2.9098
  106OSM   C10F10868   7.363   3.947   9.507  0.2704 -0.3961 -0.6768
  106OSM   H10F10869   7.451   3.904   9.457  1.3389 -1.1191  1.6595
  106OSM   C11F10870   7.239   3.909   9.435  0.0848  0.4434 -0.2351
  106OSM   H11F10871   7.146   3.904   9.496  0.2672  0.2369  0.0286
  106OSM   H11G10872   7.261   3.812   9.386  3.1125  1.3463 -0.8542
  106OSM   C12F10873   7.221   4.014   9.322  0.0950 -0.0641 -0.1723
  106OSM   H12F10874   7.320   4.027   9.272  1.7204  2.3195  3.2476
  106OSM   H12G10875   7.191   4.103   9.381  1.3517 -0.4238  1.0707
  106OSM   C13F10876   7.116   3.973   9.221 -0.4015  0.2619 -0.1579
  106OSM   H13F10877   7.067   4.063   9.179  0.8685  0.4985 -1.1710
  106OSM   H13G10878   7.039   3.908   9.269  0.3541 -0.8291 -0.3781
  106OSM   C14F10879   7.174   3.891   9.103 -0.2881  0.8304  0.2513
  106OSM   H14F10880   7.221   3.799   9.144 -1.5116 -0.0756 -0.3105
  106OSM   H14G10881   7.259   3.952   9.065 -0.4656 -0.4902 -2.5422
  106OSM   C15F10882   7.080   3.849   8.988 -0.2409  0.0087 -0.1572
  106OSM   H15F10883   7.023   3.937   8.950 -0.8945 -0.7304 -0.9501
  106OSM   H15G10884   7.017   3.769   9.034  0.6743 -1.1023 -0.7807
  106OSM   C16F10885   7.149   3.793   8.861  0.2832  0.2904 -0.4792
  106OSM   H16F10886   7.222   3.718   8.896 -0.3282  0.3327  0.9366
  106OSM   H16G10887   7.205   3.878   8.816 -0.2473  1.3050  0.7188
  106OSM   C17F10888   7.064   3.730   8.749  0.3098 -0.2674  0.1237
  106OSM   H17F10889   6.967   3.785   8.738  0.8072  0.3515 -1.5418
  106OSM   H17G10890   7.048   3.622   8.768  1.7225 -1.4111 -3.9817
  106OSM   C18F10891   7.127   3.725   8.611 -0.2763  0.5630 -0.1166
  106OSM   H18F10892   7.066   3.680   8.530 -0.7568 -3.7569  2.3282
  106OSM   H18G10893   7.220   3.666   8.627 -0.4782  0.4081  0.5388
  106OSM   H18H10894   7.151   3.829   8.579 -0.7321  0.4847 -0.7150
  107OSM      N10895   3.653   0.964  11.150 -0.2871  0.5221  0.4259
  107OSM    C1510896   3.687   1.107  11.174  0.4252 -0.8345 -0.0268
  107OSM   H15A10897   3.793   1.122  11.187  0.6588 -0.8423 -1.7495
  107OSM   H15B10898   3.636   1.143  11.262 -0.0534 -2.5550  0.4458
  107OSM   H15C10899   3.653   1.169  11.093 -2.0112  0.2628  1.7011
  107OSM    C1410900   3.730   0.907  11.030 -0.3508 -0.5015  0.2561
  107OSM   H14A10901   3.835   0.927  11.046 -0.3999 -0.1496  0.1621
  107OSM   H14B10902   3.701   0.948  10.934  4.8096  1.0169 -1.0143
  107OSM   H14C10903   3.720   0.800  11.022  1.1184 -0.5524 -2.2961
  107OSM    C1310904   3.706   0.887  11.273 -1.1251  0.1654 -0.0957
  107OSM   H13A10905   3.813   0.901  11.277 -1.2243  0.7138  0.9962
  107OSM   H13B10906   3.679   0.783  11.274 -1.9039  0.3589 -0.3977
  107OSM   H13C10907   3.670   0.935  11.363 -1.3474 -2.2524  1.1864
  107OSM    C1210908   3.504   0.927  11.142  0.2542  0.1480  0.1182
  107OSM   H12A10909   3.460   0.972  11.054 -0.2253  0.5273  0.5431
  107OSM   H12B10910   3.462   0.970  11.231  0.9237 -0.0995  0.5629
  107OSM    C1110911   3.464   0.769  11.132  0.7499 -0.0000  0.4729
  107OSM   H11A10912   3.355   0.751  11.144  0.8436 -0.1692  1.0677
  107OSM   H11B10913   3.520   0.705  11.203  0.3151 -2.5279 -1.3131
  107OSM      P10914   3.394   0.729  10.891 -0.1592  0.0378  0.1317
  107OSM    O1310915   3.462   0.704  10.761  0.4421  0.0291 -0.2576
  107OSM    O1410916   3.285   0.636  10.930  0.1908  0.0508  1.0822
  107OSM    O1110917   3.341   0.872  10.896  0.1644 -0.7431  0.5988
  107OSM    O1210918   3.505   0.718  11.001 -0.0168 -0.6200  0.0272
  107OSM    C1S10919   3.395   0.986  10.821  0.2621  0.0512  0.0099
  107OSM    H1S10920   3.506   0.987  10.813  0.2976 -1.2881  0.1182
  107OSM    H1T10921   3.375   1.076  10.883  1.8580 -0.6928  1.6914
  107OSM     NF10922   3.401   1.117  10.612  0.4303 -0.2042  0.3832
  107OSM    HNF10923   3.354   1.205  10.618 -0.0480 -0.4391  0.1968
  107OSM    C2S10924   3.333   1.012  10.683  0.4662 -0.7387  0.0155
  107OSM    H2S10925   3.334   0.922  10.617  1.4867  0.4936 -1.7163
  107OSM    C3S10926   3.181   1.055  10.705 -0.9193 -0.4456 -0.3619
  107OSM    H3S10927   3.179   1.161  10.737  0.9172 -0.0949 -1.2552
  107OSM     O310928   3.120   0.975  10.800 -0.3031 -0.2518 -0.3671
  107OSM    HO310929   3.188   0.920  10.838 -1.7495 -2.3117 -0.5880
  107OSM    C4S10930   3.105   1.058  10.580 -0.0117 -0.0615 -0.3810
  107OSM    H4S10931   3.135   1.146  10.522  2.4437 -1.0098 -0.6458
  107OSM    C5S10932   3.029   0.964  10.520 -0.2545  0.4335 -0.3000
  107OSM    H5S10933   3.032   0.866  10.569 -0.0047  1.6685  2.3132
  107OSM    C6S10934   2.952   0.996  10.390 -0.0317  0.6829 -0.4110
  107OSM    H6S10935   2.851   1.029  10.423  0.0652 -0.3589  1.0504
  107OSM    H6T10936   2.937   0.903  10.330 -0.5600  0.1331  0.5493
  107OSM    C7S10937   3.017   1.103  10.299 -0.5801  0.4557  0.6553
  107OSM    H7S10938   3.123   1.072  10.282 -1.3937 -1.4730 -1.3458
  107OSM    H7T10939   3.019   1.204  10.345 -1.8723  1.1875 -0.7968
  107OSM    C8S10940   2.944   1.104  10.161  0.8649  0.0565  0.2037
  107OSM    H8S10941   2.839   1.070  10.175  1.1812 -0.5718  1.1577
  107OSM    H8T10942   2.995   1.036  10.089 -0.2808  0.9734 -1.5540
  107OSM    C9S10943   2.942   1.246  10.103 -0.3982 -0.1403  0.7298
  107OSM    H9S10944   3.045   1.260  10.063 -0.9861 -1.3715 -1.3489
  107OSM    H9T10945   2.924   1.314  10.190 -0.1627 -0.7837  1.2875
  107OSM   C10S10946   2.837   1.253   9.988  1.0435  0.0947  0.8590
  107OSM   H10S10947   2.831   1.360   9.959  2.0598  0.1116  0.6925
  107OSM   H10T10948   2.736   1.224  10.026  0.2850  0.9501 -0.3899
  107OSM   C11S10949   2.871   1.175   9.862 -0.0895  0.6954  0.0041
  107OSM   H11S10950   2.871   1.067   9.888  1.3713  0.8260  0.6333
  107OSM   H11T10951   2.977   1.202   9.845  0.0686  0.0137 -0.0937
  107OSM   C12S10952   2.795   1.203   9.732  0.2326  0.4131  0.2865
  107OSM   H12S10953   2.843   1.298   9.702  0.9167  0.0680  0.2800
  107OSM   H12T10954   2.686   1.218   9.753  0.7522  1.9725  2.2206
  107OSM   C13S10955   2.792   1.087   9.632 -0.6374 -0.3600  0.3043
  107OSM   H13S10956   2.753   0.990   9.670  2.9742 -2.5191 -1.0113
  107OSM   H13T10957   2.895   1.058   9.604 -0.8528 -0.0777 -0.8377
  107OSM   C14S10958   2.724   1.138   9.509  0.0959 -0.5382  0.2976
  107OSM   H14S10959   2.780   1.226   9.470 -3.0473  0.6908 -1.8937
  107OSM   H14T10960   2.625   1.180   9.540  0.9673  2.2759 -0.3903
  107OSM   C15S10961   2.698   1.046   9.388 -0.4959 -0.2489  0.2647
  107OSM   H15S10962   2.646   0.952   9.417 -2.3102  0.6297  0.0415
  107OSM   H15T10963   2.790   1.020   9.332 -1.2008 -1.9990 -0.1672
  107OSM   C16S10964   2.608   1.114   9.282 -0.1350  0.2924  1.1025
  107OSM   H16S10965   2.644   1.219   9.275  0.1104  0.1874  0.7468
  107OSM   H16T10966   2.499   1.110   9.303 -0.4845 -0.7715 -0.7046
  107OSM   C17S10967   2.622   1.060   9.139 -0.0607  0.6977 -0.4854
  107OSM   H17S10968   2.584   0.956   9.131  0.4992  0.4295  0.2198
  107OSM   H17T10969   2.727   1.051   9.103  0.7422 -1.3931  2.0705
  107OSM   C18S10970   2.542   1.148   9.044 -0.3627  0.0445 -0.2487
  107OSM   H18S10971   2.440   1.156   9.088  0.2156 -0.0202  1.1600
  107OSM   H18T10972   2.549   1.099   8.945  1.7898  2.0256 -1.2011
  107OSM   H18U10973   2.578   1.254   9.041 -1.2588  0.3423 -1.1523
  107OSM    C1F10974   3.514   1.110  10.549 -0.3365 -0.3184  0.4875
  107OSM     OF10975   3.598   1.024  10.572  0.1960  0.2309 -0.3215
  107OSM    C2F10976   3.541   1.214  10.448 -0.1610  0.0467  0.4312
  107OSM    H2F10977   3.543   1.309  10.506 -3.0388  0.1919  0.4149
  107OSM    H2G10978   3.457   1.233  10.378 -0.4803  1.8668  1.2460
  107OSM    C3F10979   3.665   1.195  10.368  0.5336  0.0189  0.0664
  107OSM    H3F10980   3.638   1.105  10.308 -0.5705  0.2092  0.2549
  107OSM    H3G10981   3.757   1.168  10.425 -0.0589 -1.0045  0.5624
  107OSM    C4F10982   3.699   1.295  10.262 -0.5505  0.5135 -0.4322
  107OSM    H4F10983   3.786   1.259  10.204 -2.0596 -2.7948 -0.9067
  107OSM    H4G10984   3.731   1.391  10.308  4.2699 -1.7171  1.5185
  107OSM    C5F10985   3.592   1.323  10.155  0.1399 -0.3744 -0.5715
  107OSM    H5F10986   3.514   1.384  10.205 -1.4673 -2.8082  0.0238
  107OSM    H5G10987   3.540   1.230  10.125 -1.1740  0.4694 -0.9792
  107OSM    C6F10988   3.641   1.400  10.032  0.0149  0.8565  0.2780
  107OSM    H6F10989   3.704   1.326   9.978  0.1150  0.4748  0.9051
  107OSM    H6G10990   3.712   1.483  10.053  1.2470 -0.3837  1.1297
  107OSM    C7F10991   3.530   1.452   9.928 -0.0769  0.9533 -0.2234
  107OSM    H7F10992   3.464   1.522   9.984 -2.6350 -0.0365 -1.8038
  107OSM    H7G10993   3.457   1.369   9.919 -0.0194  0.7606  0.8653
  107OSM    C8F10994   3.586   1.511   9.799 -0.5081  0.0540  0.1118
  107OSM    H8F10995   3.676   1.570   9.825 -1.2771  0.6606  1.5375
  107OSM    H8G10996   3.516   1.588   9.761  0.4411  1.4691  1.1569
  107OSM    C9F10997   3.606   1.400   9.697  0.1310  0.0745  1.1134
  107OSM    H9F10998   3.695   1.337   9.710 -0.0328 -0.7916 -1.3937
  107OSM   C10F10999   3.542   1.389   9.575 -0.2933 -0.5328 -0.0486
  107OSM   H10F11000   3.572   1.304   9.512 -0.1622 -0.6203  0.1283
  107OSM   C11F11001   3.437   1.478   9.520  0.1761 -0.3675 -0.1040
  107OSM   H11F11002   3.410   1.568   9.579 -0.5029 -0.8643  0.3579
  107OSM   H11G11003   3.341   1.422   9.520 -0.7367  1.1456 -0.9489
  107OSM   C12F11004   3.442   1.522   9.373 -0.0577 -0.2525  0.0410
  107OSM   H12F11005   3.542   1.565   9.347 -0.5343  0.9573  0.1444
  107OSM   H12G11006   3.372   1.607   9.359 -0.3338 -0.5739 -0.5582
  107OSM   C13F11007   3.417   1.410   9.271  0.2984 -0.1908  0.0159
  107OSM   H13F11008   3.315   1.367   9.279 -0.0636  0.2233 -1.7619
  107OSM   H13G11009   3.498   1.335   9.279  1.3917  1.0441  0.9099
  107OSM   C14F11010   3.435   1.451   9.125 -0.6029 -0.1669 -0.3078
  107OSM   H14F11011   3.531   1.506   9.117  0.0460 -1.0327  1.1076
  107OSM   H14G11012   3.344   1.509   9.097 -2.0988 -1.9413  0.6325
  107OSM   C15F11013   3.454   1.327   9.026  0.0334  0.4803  0.1396
  107OSM   H15F11014   3.389   1.245   9.061  1.8761 -0.6664  1.0713
  107OSM   H15G11015   3.560   1.294   9.039  0.6410  2.8494  2.2069
  107OSM   C16F11016   3.428   1.354   8.878  0.1735  0.1423  0.4227
  107OSM   H16F11017   3.471   1.451   8.847 -1.5600  0.2223 -2.0629
  107OSM   H16G11018   3.319   1.353   8.855 -0.0028 -0.0574  1.2123
  107OSM   C17F11019   3.481   1.244   8.782  0.9919 -0.1292 -0.1318
  107OSM   H17F11020   3.440   1.145   8.810 -0.0056 -0.3953 -2.2814
  107OSM   H17G11021   3.593   1.247   8.782  0.9912 -0.0835 -0.1679
  107OSM   C18F11022   3.443   1.275   8.636  0.5241 -0.3501  0.2633
  107OSM   H18F11023   3.334   1.286   8.617  0.3695 -2.0883  0.0150
  107OSM   H18G11024   3.478   1.204   8.558  0.6382  1.6115 -1.5798
  107OSM   H18H11025   3.478   1.375   8.603 -2.7654  1.0235  0.5165
  108OSM      N11026   6.701   3.416  10.738  0.4814  0.0108  0.0578
  108OSM    C1511027   6.598   3.486  10.659  0.3302 -0.5311 -0.2056
  108OSM   H15A11028   6.625   3.489  10.554 -0.2911  1.7418 -0.3701
  108OSM   H15B11029   6.592   3.587  10.699 -1.8325 -0.5143 -0.4449
  108OSM   H15C11030   6.498   3.446  10.661  0.4755 -0.8935  2.0600
  108OSM    C1411031   6.818   3.506  10.723  0.3894  0.5808  0.1707
  108OSM   H14A11032   6.792   3.605  10.760 -0.1618  0.5443 -0.1076
  108OSM   H14B11033   6.841   3.504  10.618 -0.5956 -2.4871 -0.0720
  108OSM   H14C11034   6.904   3.469  10.775 -1.7773 -3.4488  1.3071
  108OSM    C1311035   6.657   3.403  10.885  0.2995  0.3370 -0.8703
  108OSM   H13A11036   6.728   3.345  10.942  0.2814  0.1675 -1.0196
  108OSM   H13B11037   6.567   3.344  10.895  0.1094  0.6944 -0.4461
  108OSM   H13C11038   6.644   3.497  10.937 -2.1593 -0.7976  0.7678
  108OSM    C1211039   6.732   3.276  10.682  0.3540  0.0460  0.2806
  108OSM   H12A11040   6.787   3.220  10.756 -0.7452 -1.1432  0.2265
  108OSM   H12B11041   6.787   3.295  10.591  2.0501  0.6326  1.3761
  108OSM    C1111042   6.605   3.191  10.641 -0.1827  0.1780  0.3654
  108OSM   H11A11043   6.647   3.109  10.579  3.7913  2.1465  0.1469
  108OSM   H11B11044   6.538   3.238  10.566 -2.5146 -1.6537  1.1753
  108OSM      P11045   6.541   3.026  10.823 -0.0264 -0.0283  0.0088
  108OSM    O1311046   6.679   3.029  10.871  0.1535 -0.7434  0.3832
  108OSM    O1411047   6.436   3.002  10.921 -0.0258  0.1789  0.0457
  108OSM    O1111048   6.525   2.930  10.695 -0.4169  0.5148  0.1273
  108OSM    O1211049   6.517   3.164  10.750 -0.6157  1.0301  0.0935
  108OSM    C1S11050   6.402   2.878  10.654  0.0706 -0.6440  0.6151
  108OSM    H1S11051   6.327   2.959  10.643  0.9586 -0.0928 -2.2282
  108OSM    H1T11052   6.368   2.804  10.728 -1.0720  0.6568  1.4410
  108OSM     NF11053   6.296   2.751  10.464  0.7501 -0.3326  0.1584
  108OSM    HNF11054   6.271   2.655  10.474  0.4463 -0.2288  0.4171
  108OSM    C2S11055   6.424   2.802  10.518  0.5849  0.4479 -0.5683
  108OSM    H2S11056   6.460   2.881  10.449  1.0396  0.1048 -0.7342
  108OSM    C3S11057   6.534   2.691  10.524 -0.2755  0.0718 -0.0394
  108OSM    H3S11058   6.504   2.596  10.574 -2.6496  0.5758 -0.4253
  108OSM     O311059   6.655   2.725  10.589  0.0139 -0.1649  0.1814
  108OSM    HO311060   6.627   2.810  10.622 -0.5235  0.1466 -1.0592
  108OSM    C4S11061   6.569   2.657  10.377 -0.2538  0.0698  0.2741
  108OSM    H4S11062   6.615   2.740  10.321  1.7337 -0.0224  1.6617
  108OSM    C5S11063   6.530   2.540  10.323 -0.0702 -0.0693 -0.4774
  108OSM    H5S11064   6.467   2.469  10.379 -2.1263  1.3113 -0.9270
  108OSM    C6S11065   6.561   2.493  10.182 -0.3710 -0.8949 -0.6467
  108OSM    H6S11066   6.458   2.479  10.143 -0.1283  1.8177 -2.5554
  108OSM    H6T11067   6.608   2.393  10.194 -1.2278 -1.5764 -2.5867
  108OSM    C7S11068   6.644   2.583  10.084 -0.6324 -0.6220  0.0769
  108OSM    H7S11069   6.744   2.604  10.127 -0.4782  0.5442 -0.7758
  108OSM    H7T11070   6.586   2.678  10.080  0.1501 -0.1377 -0.1713
  108OSM    C8S11071   6.661   2.534   9.936  0.6421 -0.7072 -1.1370
  108OSM    H8S11072   6.564   2.490   9.905 -0.4116  0.4919  0.3145
  108OSM    H8T11073   6.739   2.456   9.948  1.5078  0.4645  1.9957
  108OSM    C9S11074   6.706   2.645   9.835 -0.3234  1.3401  0.6718
  108OSM    H9S11075   6.800   2.700   9.859  1.5467 -0.6817 -1.5162
  108OSM    H9T11076   6.632   2.727   9.825 -2.0337 -0.4220 -2.3039
  108OSM   C10S11077   6.721   2.583   9.691 -0.6160  0.2625 -0.3895
  108OSM   H10S11078   6.629   2.542   9.645  0.2475  0.0194 -1.9469
  108OSM   H10T11079   6.798   2.504   9.686  0.1255  0.9874 -0.6552
  108OSM   C11S11080   6.769   2.680   9.590 -0.1015 -0.1253 -0.7306
  108OSM   H11S11081   6.877   2.706   9.598  0.5706 -2.6685 -0.6957
  108OSM   H11T11082   6.712   2.775   9.601 -0.6276 -0.1255 -3.0073
  108OSM   C12S11083   6.734   2.642   9.449 -0.1683  0.1274  0.9452
  108OSM   H12S11084   6.628   2.609   9.447 -0.1271 -0.0315  1.2418
  108OSM   H12T11085   6.788   2.553   9.409 -1.7827  0.7413 -3.0792
  108OSM   C13S11086   6.749   2.759   9.348 -0.2274  0.2568  0.0445
  108OSM   H13S11087   6.710   2.852   9.395  0.9045  1.1531 -0.7481
  108OSM   H13T11088   6.680   2.732   9.265  1.1441  2.6596 -2.0083
  108OSM   C14S11089   6.889   2.773   9.285 -0.3053 -0.3063  0.4675
  108OSM   H14S11090   6.908   2.697   9.206 -0.4706 -0.7922  0.8892
  108OSM   H14T11091   6.962   2.762   9.368 -0.4485 -0.5108  0.5673
  108OSM   C15S11092   6.918   2.911   9.221 -0.0035 -0.0261  0.2365
  108OSM   H15S11093   6.882   2.994   9.285  0.3969  1.0220 -0.8714
  108OSM   H15T11094   6.858   2.923   9.128  1.3028 -1.7898 -0.9005
  108OSM   C16S11095   7.057   2.945   9.176 -0.4433  0.0946 -0.6510
  108OSM   H16S11096   7.140   2.934   9.249  0.6815 -1.6634 -2.1025
  108OSM   H16T11097   7.060   3.046   9.131 -0.3135 -0.2884 -1.5354
  108OSM   C17S11098   7.110   2.858   9.058  0.6364 -0.7082  0.2263
  108OSM   H17S11099   7.092   2.750   9.078  1.4454 -0.5412  2.1103
  108OSM   H17T11100   7.221   2.868   9.046  0.6341 -1.4129 -0.4414
  108OSM   C18S11101   7.044   2.897   8.932  0.1527  0.2324  0.5543
  108OSM   H18S11102   6.936   2.874   8.932 -0.3189  1.7591 -2.7790
  108OSM   H18T11103   7.080   2.841   8.843 -2.7419 -1.1004  0.1137
  108OSM   H18U11104   7.053   3.006   8.910  0.0483  0.6921  2.5977
  108OSM    C1F11105   6.203   2.832  10.417 -0.5045  0.0142  0.8622
  108OSM     OF11106   6.206   2.949  10.444  0.4688 -0.6653 -0.1497
  108OSM    C2F11107   6.094   2.769  10.346  0.2658 -0.3275 -0.3239
  108OSM    H2F11108   5.999   2.819  10.375  1.0160  0.4055  0.9493
  108OSM    H2G11109   6.095   2.662  10.376  1.0367 -0.6021 -1.2601
  108OSM    C3F11110   6.120   2.782  10.195  0.6411  1.1301  0.7083
  108OSM    H3F11111   6.127   2.880  10.143  0.6893  0.7152 -0.0988
  108OSM    H3G11112   6.030   2.732  10.153  1.6382 -0.6174  0.5592
  108OSM    C4F11113   6.242   2.696  10.140 -0.2695  0.6526 -0.0898
  108OSM    H4F11114   6.231   2.594  10.184  0.8979 -0.2748 -1.8206
  108OSM    H4G11115   6.329   2.750  10.183 -0.9384  2.1180 -0.5088
  108OSM    C5F11116   6.263   2.705   9.982 -0.1001 -0.2457  0.0081
  108OSM    H5F11117   6.366   2.665   9.971  0.2129  1.0544 -2.6528
  108OSM    H5G11118   6.273   2.812   9.956  1.7154 -0.3666  0.0777
  108OSM    C6F11119   6.158   2.642   9.896  0.1341  0.0281  0.2039
  108OSM    H6F11120   6.059   2.668   9.939 -0.3982  0.8459 -1.4531
  108OSM    H6G11121   6.158   2.531   9.898 -0.7573  0.0239  0.1425
  108OSM    C7F11122   6.173   2.692   9.757  0.3094  0.3159 -0.8943
  108OSM    H7F11123   6.178   2.803   9.751  0.3602  0.5006  1.6069
  108OSM    H7G11124   6.090   2.674   9.685 -1.3381  0.5016  0.8980
  108OSM    C8F11125   6.296   2.626   9.685  0.0298 -0.3643  0.0789
  108OSM    H8F11126   6.370   2.595   9.762  0.0070 -1.1577 -0.2167
  108OSM    H8G11127   6.350   2.696   9.618 -1.3953  1.0954  0.3961
  108OSM    C9F11128   6.271   2.500   9.616 -0.2103  0.1462 -0.9332
  108OSM    H9F11129   6.234   2.419   9.680  0.0880 -0.6626 -1.7643
  108OSM   C10F11130   6.278   2.477   9.485  0.2204 -0.3652  0.7814
  108OSM   H10F11131   6.246   2.379   9.448  0.5855 -0.9820  2.0481
  108OSM   C11F11132   6.321   2.577   9.377  0.1024  0.4533 -0.0514
  108OSM   H11F11133   6.403   2.529   9.319 -0.5238  0.3074 -0.8350
  108OSM   H11G11134   6.359   2.670   9.425 -2.2123  0.4450  1.9327
  108OSM   C12F11135   6.204   2.610   9.288  0.2345 -0.3880 -0.3880
  108OSM   H12F11136   6.117   2.631   9.353 -1.8887 -2.0235 -2.5173
  108OSM   H12G11137   6.170   2.521   9.230 -1.0688 -1.9638  2.5674
  108OSM   C13F11138   6.245   2.728   9.206 -0.6663 -0.3515  0.1198
  108OSM   H13F11139   6.263   2.821   9.264 -0.6902 -1.2693  1.6519
  108OSM   H13G11140   6.164   2.745   9.132 -0.2661 -0.8633 -0.4596
  108OSM   C14F11141   6.375   2.697   9.128 -0.7853 -0.0191 -0.6884
  108OSM   H14F11142   6.373   2.593   9.088  0.1285 -0.1468 -0.4173
  108OSM   H14G11143   6.463   2.710   9.195 -2.3654 -1.6559  1.8757
  108OSM   C15F11144   6.399   2.804   9.016 -0.1018  0.3442  0.1247
  108OSM   H15F11145   6.389   2.904   9.063  2.0552  1.4127 -1.5551
  108OSM   H15G11146   6.318   2.794   8.940  0.0651 -1.3932  0.1383
  108OSM   C16F11147   6.540   2.812   8.956  0.2825 -0.2682 -0.7377
  108OSM   H16F11148   6.597   2.835   9.049  1.2430  0.1867 -1.4209
  108OSM   H16G11149   6.544   2.890   8.877 -3.3194 -0.2101 -1.0327
  108OSM   C17F11150   6.586   2.686   8.892 -0.0797  0.7584 -0.2205
  108OSM   H17F11151   6.512   2.668   8.811 -1.5308  1.2606  0.9665
  108OSM   H17G11152   6.594   2.596   8.957  4.8810  1.7411  0.9697
  108OSM   C18F11153   6.720   2.699   8.823  0.3374 -0.5015  0.3674
  108OSM   H18F11154   6.718   2.792   8.763  0.8917 -1.0172 -0.4679
  108OSM   H18G11155   6.750   2.609   8.766  1.3899 -0.3718  0.6866
  108OSM   H18H11156   6.802   2.702   8.898  3.2333  0.3297 -2.6052
  109OSM      N11157   4.844   1.972  11.320  0.2745 -0.4645  0.4086
  109OSM    C1511158   4.862   2.108  11.377 -0.2988  0.5536 -0.1537
  109OSM   H15A11159   4.955   2.144  11.336  0.5530 -0.9909  0.3587
  109OSM   H15B11160   4.879   2.105  11.484 -0.5020 -1.5599 -0.1423
  109OSM   H15C11161   4.778   2.169  11.346 -1.6441 -1.4485 -0.6372
  109OSM    C1411162   4.946   1.878  11.367 -0.3664  0.1181 -0.7144
  109OSM   H14A11163   4.913   1.840  11.463  1.7366 -0.3567 -0.1306
  109OSM   H14B11164   5.038   1.932  11.385 -1.9743  2.4291  1.2685
  109OSM   H14C11165   4.969   1.798  11.298  2.4227 -0.7934  1.0848
  109OSM    C1311166   4.716   1.904  11.364  0.0898 -0.0511 -0.1030
  109OSM   H13A11167   4.725   1.797  11.354 -2.1816 -0.3141  0.1492
  109OSM   H13B11168   4.631   1.943  11.311  0.9268  1.0846 -0.6551
  109OSM   H13C11169   4.686   1.914  11.468 -1.8519  1.9004 -0.7723
  109OSM    C1211170   4.858   1.980  11.167  0.2540  0.1743 -0.0830
  109OSM   H12A11171   4.843   1.878  11.134 -2.0456  0.0047  1.3040
  109OSM   H12B11172   4.957   2.015  11.142  0.2483 -0.3278 -0.8345
  109OSM    C1111173   4.762   2.071  11.099  0.5714 -0.6139  0.3377
  109OSM   H11A11174   4.656   2.043  11.115  0.2105  0.1907 -0.5367
  109OSM   H11B11175   4.778   2.060  10.989 -0.4834  0.9225  0.0075
  109OSM      P11176   4.840   2.327  11.057 -0.2225  0.3121 -0.2838
  109OSM    O1311177   4.813   2.456  11.126  0.4126 -0.4224  0.7347
  109OSM    O1411178   4.983   2.281  11.037  0.2848 -1.3044 -0.3769
  109OSM    O1111179   4.755   2.320  10.921  0.1122 -0.6126 -0.8349
  109OSM    O1211180   4.774   2.206  11.144  0.2000 -0.4009  0.0456
  109OSM    C1S11181   4.826   2.367  10.804  0.6199  0.5017 -0.0185
  109OSM    H1S11182   4.931   2.329  10.804 -0.1570 -1.8576 -2.0282
  109OSM    H1T11183   4.821   2.478  10.802 -0.6130  0.4666  0.2502
  109OSM     NF11184   4.835   2.344  10.557 -0.0814 -1.1582  0.3936
  109OSM    HNF11185   4.801   2.417  10.499 -0.4992 -3.1186 -1.9904
  109OSM    C2S11186   4.761   2.306  10.671  0.0185 -0.6315 -0.0824
  109OSM    H2S11187   4.768   2.196  10.685  2.0650 -0.6144 -0.7152
  109OSM    C3S11188   4.611   2.341  10.664 -0.1063 -0.6697  0.0441
  109OSM    H3S11189   4.600   2.451  10.668  0.1369 -0.6660  1.8842
  109OSM     O311190   4.533   2.304  10.775 -0.1739  0.2300 -0.4753
  109OSM    HO311191   4.592   2.287  10.849 -1.9218  1.1303  1.2068
  109OSM    C4S11192   4.559   2.286  10.537 -0.2031 -0.3767  0.4652
  109OSM    H4S11193   4.593   2.185  10.509  0.8321  0.3479 -1.0571
  109OSM    C5S11194   4.470   2.348  10.460  0.1502 -0.1925  0.2503
  109OSM    H5S11195   4.420   2.438  10.496  1.8378  1.0232 -0.3067
  109OSM    C6S11196   4.406   2.277  10.333  0.4782  0.3306 -0.6935
  109OSM    H6S11197   4.407   2.345  10.245 -0.6353 -0.3257 -1.2360
  109OSM    H6T11198   4.298   2.273  10.359  0.3854  2.8574 -0.3874
  109OSM    C7S11199   4.461   2.145  10.289 -0.4681 -0.9404 -0.0915
  109OSM    H7S11200   4.419   2.069  10.359  0.9307  0.7435  2.7603
  109OSM    H7T11201   4.571   2.142  10.301 -0.5664  1.3085  2.2176
  109OSM    C8S11202   4.424   2.112  10.145 -0.5328  0.3543 -0.6578
  109OSM    H8S11203   4.474   2.185  10.079 -0.1337  1.2015  0.5362
  109OSM    H8T11204   4.317   2.141  10.135  0.2380  3.0800 -2.2865
  109OSM    C9S11205   4.453   1.965  10.116 -0.6875 -0.2282  0.2385
  109OSM    H9S11206   4.393   1.910  10.191 -0.2440 -2.4262 -0.9397
  109OSM    H9T11207   4.561   1.950  10.134 -0.2454  0.4911 -1.5695
  109OSM   C10S11208   4.402   1.915   9.980 -0.3057 -0.1120  0.2700
  109OSM   H10S11209   4.297   1.949   9.966 -1.3045 -1.7340  3.1625
  109OSM   H10T11210   4.409   1.804   9.982  2.3214 -0.0070  1.7009
  109OSM   C11S11211   4.470   1.963   9.846  0.1366 -0.3354  0.0932
  109OSM   H11S11212   4.578   1.942   9.856  0.4816  0.2898 -1.8717
  109OSM   H11T11213   4.462   2.074   9.845  1.1957 -0.2549 -0.1354
  109OSM   C12S11214   4.426   1.898   9.724  1.1431  0.1639  0.8336
  109OSM   H12S11215   4.317   1.911   9.704  1.1461 -2.2617 -1.3383
  109OSM   H12T11216   4.435   1.787   9.729  1.8195  0.1061 -0.9068
  109OSM   C13S11217   4.492   1.945   9.596 -0.5560  0.4520  0.2286
  109OSM   H13S11218   4.602   1.937   9.610 -0.7063  0.4632  1.5933
  109OSM   H13T11219   4.472   2.054   9.585 -0.0174  0.4277 -1.1954
  109OSM   C14S11220   4.446   1.870   9.469 -0.2976 -0.5941  0.1767
  109OSM   H14S11221   4.335   1.874   9.458 -0.1771  2.7995 -0.7216
  109OSM   H14T11222   4.469   1.764   9.492 -1.2228 -0.4734  1.8697
  109OSM   C15S11223   4.517   1.913   9.345  0.5214  0.2863  0.2705
  109OSM   H15S11224   4.620   1.943   9.373  1.0268 -1.6959  0.6807
  109OSM   H15T11225   4.471   2.001   9.295  0.6888  0.2224 -0.0009
  109OSM   C16S11226   4.544   1.797   9.241  0.0271 -0.1064  0.0518
  109OSM   H16S11227   4.606   1.720   9.290  1.0392  2.7194  3.7040
  109OSM   H16T11228   4.608   1.843   9.162  0.0413  1.1454  0.7554
  109OSM   C17S11229   4.413   1.741   9.177 -0.3736 -0.5657 -0.1268
  109OSM   H17S11230   4.350   1.825   9.141 -1.0449 -0.9583  0.1333
  109OSM   H17T11231   4.360   1.707   9.269 -1.6926  0.7024 -0.3834
  109OSM   C18S11232   4.425   1.634   9.073  0.0003 -0.2333 -1.1302
  109OSM   H18S11233   4.520   1.578   9.086 -0.3034 -1.0962 -2.4097
  109OSM   H18T11234   4.425   1.667   8.967 -1.7154 -1.3177 -1.5141
  109OSM   H18U11235   4.337   1.569   9.089  0.0980 -0.2953 -0.8466
  109OSM    C1F11236   4.952   2.291  10.528 -0.4813 -0.4307 -0.3646
  109OSM     OF11237   5.001   2.215  10.608  0.3064  0.4360  0.0857
  109OSM    C2F11238   5.014   2.316  10.387  0.2576  0.0824  0.1025
  109OSM    H2F11239   4.943   2.282  10.308  0.9327  1.0235 -0.9478
  109OSM    H2G11240   5.091   2.236  10.390  0.4588  0.2995  0.8120
  109OSM    C3F11241   5.081   2.458  10.379 -0.0512  1.0302  0.0133
  109OSM    H3F11242   5.145   2.480  10.467  0.1967 -2.2702  0.7760
  109OSM    H3G11243   5.007   2.541  10.376  1.9240  2.8526 -0.8705
  109OSM    C4F11244   5.166   2.471  10.256 -0.3075  0.4606  0.0547
  109OSM    H4F11245   5.246   2.395  10.252  0.5258  1.2261  1.3641
  109OSM    H4G11246   5.214   2.571  10.264 -0.6198  1.1509 -4.1297
  109OSM    C5F11247   5.098   2.488  10.121  0.3315  0.3748 -0.1009
  109OSM    H5F11248   5.017   2.562  10.139  1.1038  0.8429  1.7219
  109OSM    H5G11249   5.052   2.389  10.100 -0.1771  1.0263 -2.2363
  109OSM    C6F11250   5.179   2.540  10.009 -0.1600  0.5412 -0.3223
  109OSM    H6F11251   5.235   2.626  10.052  0.4620 -0.7431  1.5856
  109OSM    H6G11252   5.100   2.571   9.937 -0.3980 -0.4206 -0.4916
  109OSM    C7F11253   5.280   2.435   9.951 -0.0356  1.0281 -0.2559
  109OSM    H7F11254   5.232   2.338   9.928  1.0847  0.2741  0.4643
  109OSM    H7G11255   5.354   2.403  10.027 -0.3215 -0.7921 -0.7100
  109OSM    C8F11256   5.360   2.482   9.831  0.0238 -0.1958  0.4191
  109OSM    H8F11257   5.438   2.411   9.797 -1.0314 -0.6378 -1.2139
  109OSM    H8G11258   5.422   2.570   9.858  0.0194  0.2186 -0.8511
  109OSM    C9F11259   5.280   2.529   9.712  0.6839 -0.6789 -0.0066
  109OSM    H9F11260   5.239   2.631   9.709 -0.0467 -0.9810 -0.6037
  109OSM   C10F11261   5.258   2.451   9.603  0.5080 -0.3710 -0.0030
  109OSM   H10F11262   5.210   2.496   9.515 -1.1028 -0.1811  0.9155
  109OSM   C11F11263   5.293   2.305   9.587 -0.1878  0.1920 -0.0430
  109OSM   H11F11264   5.361   2.264   9.664 -1.9947 -1.7987  0.5930
  109OSM   H11G11265   5.361   2.303   9.499  1.8509 -4.8991  1.2886
  109OSM   C12F11266   5.174   2.209   9.580  0.1087  0.3472 -0.1775
  109OSM   H12F11267   5.208   2.106   9.554  0.2406  0.3578 -0.0494
  109OSM   H12G11268   5.105   2.244   9.500 -1.1552  1.1408  1.1896
  109OSM   C13F11269   5.099   2.201   9.713 -0.2200 -0.5660 -0.7849
  109OSM   H13F11270   5.071   2.305   9.742 -1.0394 -0.0145 -3.3272
  109OSM   H13G11271   5.165   2.146   9.783  1.0890  0.6938 -1.0009
  109OSM   C14F11272   4.966   2.120   9.700 -0.2323 -0.4921  0.0796
  109OSM   H14F11273   4.992   2.016   9.669  0.6738 -0.5134  0.8661
  109OSM   H14G11274   4.901   2.175   9.629 -2.2252 -1.3586  1.1402
  109OSM   C15F11275   4.886   2.121   9.829  0.1386 -0.0613 -0.5134
  109OSM   H15F11276   4.791   2.067   9.808  1.0770 -2.9627  2.0367
  109OSM   H15G11277   4.871   2.229   9.852  0.6616 -0.4079  1.6069
  109OSM   C16F11278   4.943   2.050   9.950  0.2748 -0.0353  0.2916
  109OSM   H16F11279   5.032   2.094   9.999  0.3053 -0.0962  0.2892
  109OSM   H16G11280   4.988   1.954   9.918 -2.4010 -1.2862 -0.0285
  109OSM   C17F11281   4.838   2.037  10.053  0.4244  0.4874 -0.2344
  109OSM   H17F11282   4.760   1.970  10.009  0.0543  0.9044 -0.2265
  109OSM   H17G11283   4.785   2.134  10.062  0.4754  0.5779 -0.8561
  109OSM   C18F11284   4.871   1.983  10.187  0.0575 -0.3036 -0.5401
  109OSM   H18F11285   4.937   1.894  10.179 -0.8833 -1.1933  1.0302
  109OSM   H18G11286   4.779   1.951  10.240 -0.7385  2.6028  0.0491
  109OSM   H18H11287   4.912   2.062  10.254  0.5313  1.8959 -3.2760
  110OSM      N11288   5.847   6.189  11.075 -0.0167 -0.7677  0.0709
  110OSM    C1511289   5.945   6.093  11.020  0.8038  0.2378  0.1028
  110OSM   H15A11290   5.960   6.009  11.086 -1.3998  0.7404  1.3340
  110OSM   H15B11291   6.040   6.142  11.005 -0.6918  3.0532 -0.8089
  110OSM   H15C11292   5.915   6.065  10.920  0.1055 -0.6296  0.5442
  110OSM    C1411293   5.718   6.121  11.091 -0.0827  0.4305  0.0840
  110OSM   H14A11294   5.641   6.182  11.137 -0.6852 -0.6649  0.5780
  110OSM   H14B11295   5.726   6.029  11.147  0.2335  0.0539 -0.5677
  110OSM   H14C11296   5.667   6.100  10.998  0.0790 -0.7745  0.2534
  110OSM    C1311297   5.901   6.235  11.207 -0.2095 -0.4201  0.2397
  110OSM   H13A11298   5.923   6.153  11.274 -0.0638 -1.7200 -1.3181
  110OSM   H13B11299   5.835   6.305  11.256  1.7987  0.1733  2.2905
  110OSM   H13C11300   5.992   6.292  11.194 -0.3520 -0.3835 -0.7229
  110OSM    C1211301   5.829   6.315  10.989 -0.2220  0.2507 -0.7085
  110OSM   H12A11302   5.782   6.390  11.051 -1.4084 -0.3056 -0.9142
  110OSM   H12B11303   5.766   6.280  10.909 -1.3778 -1.6811  0.9319
  110OSM    C1111304   5.949   6.397  10.933  0.1375 -0.6155 -0.0219
  110OSM   H11A11305   5.904   6.462  10.856  0.6083 -1.2349 -0.8309
  110OSM   H11B11306   6.020   6.330  10.879  0.1248  0.3976 -1.3353
  110OSM      P11307   5.969   6.618  11.064  0.2695 -0.3400 -0.1040
  110OSM    O1311308   5.831   6.610  11.114 -0.2781 -0.1102 -0.8489
  110OSM    O1411309   6.071   6.686  11.150  0.2721  0.0742  0.0363
  110OSM    O1111310   5.978   6.680  10.918 -0.6600 -0.2901  0.4091
  110OSM    O1211311   6.018   6.471  11.043  0.1319  0.2876  1.1521
  110OSM    C1S11312   6.113   6.667  10.861  0.3108 -0.6035 -0.2634
  110OSM    H1S11313   6.166   6.576  10.898 -0.8254 -1.1982 -0.0488
  110OSM    H1T11314   6.179   6.753  10.882  0.0777 -0.1358 -1.3686
  110OSM     NF11315   6.222   6.618  10.630  0.2016  0.0821 -0.2925
  110OSM    HNF11316   6.280   6.692  10.596  0.0955  0.5874  0.5836
  110OSM    C2S11317   6.107   6.669  10.696 -0.2110  0.2756  0.2401
  110OSM    H2S11318   6.023   6.600  10.670  0.5836 -0.2964 -0.8691
  110OSM    C3S11319   6.061   6.811  10.646  0.0341 -0.1673  0.4632
  110OSM    H3S11320   6.149   6.877  10.657  0.1191 -0.4740  1.9069
  110OSM     O311321   5.947   6.861  10.724 -0.1305  0.2701 -0.0301
  110OSM    HO311322   5.937   6.797  10.794  0.9216  0.0734 -0.0383
  110OSM    C4S11323   6.015   6.817  10.506 -0.6129  0.1604 -0.8398
  110OSM    H4S11324   5.915   6.780  10.480 -0.0120 -2.4113  0.2362
  110OSM    C5S11325   6.092   6.878  10.417  0.0615 -0.2091  0.3385
  110OSM    H5S11326   6.187   6.929  10.436  1.7325 -2.8554 -0.4743
  110OSM    C6S11327   6.052   6.890  10.267  0.5964 -0.4054 -0.0330
  110OSM    H6S11328   6.021   6.994  10.243 -0.1644 -1.0639 -2.1729
  110OSM    H6T11329   5.961   6.830  10.246  0.2328  0.2059 -0.2358
  110OSM    C7S11330   6.161   6.834  10.181 -0.9792  0.4544  1.6362
  110OSM    H7S11331   6.174   6.724  10.191  0.6149  0.4584  0.0060
  110OSM    H7T11332   6.264   6.867  10.207 -0.2289 -0.3553 -0.1821
  110OSM    C8S11333   6.146   6.868  10.030 -0.2142 -0.4264  0.0552
  110OSM    H8S11334   6.130   6.977  10.014 -0.7449 -0.8943 -3.3620
  110OSM    H8T11335   6.053   6.816  10.000 -0.6785 -0.2237  1.1057
  110OSM    C9S11336   6.263   6.828   9.944 -1.2090 -0.0110  0.3242
  110OSM    H9S11337   6.286   6.720   9.962 -0.1680 -0.2107 -1.8580
  110OSM    H9T11338   6.354   6.887   9.969  0.4509 -2.2893  0.0039
  110OSM   C10S11339   6.237   6.846   9.786 -0.0566  0.7984 -0.0578
  110OSM   H10S11340   6.203   6.950   9.765  1.2537  1.2069 -0.2752
  110OSM   H10T11341   6.163   6.771   9.751 -0.9416  1.0222  1.2692
  110OSM   C11S11342   6.363   6.831   9.703  0.4789 -0.7119 -0.1771
  110OSM   H11S11343   6.396   6.727   9.722  1.2477 -0.4097  0.2190
  110OSM   H11T11344   6.430   6.907   9.750 -0.1793  0.4792 -1.1285
  110OSM   C12S11345   6.339   6.837   9.555 -0.5839 -0.2302  0.6613
  110OSM   H12S11346   6.305   6.939   9.527 -1.2381 -0.0651  1.9796
  110OSM   H12T11347   6.262   6.761   9.534 -0.4739 -0.3945  0.8510
  110OSM   C13S11348   6.462   6.789   9.468  0.1745 -0.0544 -0.6162
  110OSM   H13S11349   6.467   6.678   9.475  1.7113  0.1015  2.7189
  110OSM   H13T11350   6.559   6.839   9.489  0.6668 -0.5972 -1.5037
  110OSM   C14S11351   6.434   6.822   9.326  0.1738 -0.5653 -0.3353
  110OSM   H14S11352   6.434   6.933   9.322  1.2071 -0.5457  0.0409
  110OSM   H14T11353   6.335   6.788   9.288  0.3853 -1.2900 -0.2454
  110OSM   C15S11354   6.550   6.779   9.230  0.1433 -0.3769  0.0924
  110OSM   H15S11355   6.567   6.670   9.248  0.3987  0.0059  2.6252
  110OSM   H15T11356   6.643   6.831   9.264  0.8892 -0.4566 -1.7379
  110OSM   C16S11357   6.520   6.802   9.087  0.0193 -0.3038 -0.2014
  110OSM   H16S11358   6.510   6.909   9.061  0.7295 -0.0822  0.3842
  110OSM   H16T11359   6.416   6.765   9.079 -0.5819  0.8490  1.7059
  110OSM   C17S11360   6.624   6.736   8.989  0.3270  0.2691 -0.4359
  110OSM   H17S11361   6.647   6.632   9.023  4.0810  0.2502 -2.5443
  110OSM   H17T11362   6.722   6.788   8.985 -0.1488  1.1529 -0.8493
  110OSM   C18S11363   6.580   6.715   8.846  0.0311  0.3203 -0.9911
  110OSM   H18S11364   6.626   6.631   8.788 -1.1502 -1.6864  0.8443
  110OSM   H18T11365   6.596   6.808   8.788  1.4012  0.4485 -0.4495
  110OSM   H18U11366   6.471   6.695   8.849  0.4391 -2.1151 -0.0221
  110OSM    C1F11367   6.269   6.495  10.638 -0.0608  0.4441  0.2752
  110OSM     OF11368   6.201   6.416  10.699  0.0442 -0.6925 -0.0986
  110OSM    C2F11369   6.403   6.458  10.584 -0.1281 -0.4198  0.3703
  110OSM    H2F11370   6.415   6.354  10.548  1.9882  0.0554 -0.4467
  110OSM    H2G11371   6.479   6.458  10.664 -0.0202 -0.0497  0.2720
  110OSM    C3F11372   6.457   6.545  10.464  0.4879  0.1167 -0.8764
  110OSM    H3F11373   6.560   6.517  10.435  0.5999 -0.8618  0.3891
  110OSM    H3G11374   6.456   6.654  10.484 -0.7904  0.2109 -1.3605
  110OSM    C4F11375   6.380   6.543  10.336 -0.6868  0.2270 -0.2183
  110OSM    H4F11376   6.401   6.632  10.272 -1.9544  1.1042  0.5368
  110OSM    H4G11377   6.272   6.554  10.361 -0.0415  2.0996  2.0500
  110OSM    C5F11378   6.401   6.416  10.242  0.5624  0.0897 -0.5967
  110OSM    H5F11379   6.365   6.324  10.293  2.1060 -1.1275 -1.6016
  110OSM    H5G11380   6.512   6.412  10.237  0.6631  1.3517  0.1695
  110OSM    C6F11381   6.334   6.422  10.107 -0.4791  0.0482  0.1410
  110OSM    H6F11382   6.374   6.513  10.058 -1.2430  0.3997  0.1593
  110OSM    H6G11383   6.224   6.433  10.120 -0.3951  2.1282 -0.5588
  110OSM    C7F11384   6.374   6.290  10.036  0.1002 -0.4000 -0.2495
  110OSM    H7F11385   6.331   6.207  10.096  1.6745 -1.1785 -0.1421
  110OSM    H7G11386   6.483   6.276  10.051 -0.3958 -0.5363  5.8350
  110OSM    C8F11387   6.324   6.284   9.890 -0.1199  0.1266  0.2838
  110OSM    H8F11388   6.215   6.307   9.885 -1.3556 -4.4855  1.4043
  110OSM    H8G11389   6.331   6.179   9.856  1.1965  0.4674 -0.5955
  110OSM    C9F11390   6.402   6.359   9.787  0.2442  0.1758  0.1801
  110OSM    H9F11391   6.507   6.369   9.818  0.2568  3.0652 -0.5671
  110OSM   C10F11392   6.356   6.439   9.686  0.1902 -0.0519 -0.3351
  110OSM   H10F11393   6.435   6.468   9.614  0.3735 -2.3514 -1.1322
  110OSM   C11F11394   6.216   6.466   9.646 -0.7654 -0.0999 -0.0908
  110OSM   H11F11395   6.201   6.575   9.633 -0.4861 -0.3434 -3.2641
  110OSM   H11G11396   6.135   6.422   9.710 -1.0840  1.3376  0.5305
  110OSM   C12F11397   6.191   6.419   9.492 -0.8914 -0.1714  0.2993
  110OSM   H12F11398   6.081   6.420   9.476 -0.7748  1.4690 -0.5492
  110OSM   H12G11399   6.209   6.309   9.487 -0.0780 -0.0327  0.1055
  110OSM   C13F11400   6.268   6.484   9.378  0.1389  0.0798 -0.3580
  110OSM   H13F11401   6.376   6.472   9.405 -0.5154 -0.9741  2.1366
  110OSM   H13G11402   6.253   6.593   9.395  1.6343  0.0083  1.9566
  110OSM   C14F11403   6.230   6.409   9.247  0.2704 -0.0972 -0.2421
  110OSM   H14F11404   6.120   6.393   9.248  0.3537 -0.9847 -1.6042
  110OSM   H14G11405   6.286   6.313   9.234  0.0792 -0.4114  1.1241
  110OSM   C15F11406   6.249   6.492   9.112 -0.6325 -0.0526  0.3513
  110OSM   H15F11407   6.355   6.521   9.095 -0.9044 -0.3857 -2.1957
  110OSM   H15G11408   6.189   6.585   9.116 -1.1256 -0.1474 -2.8103
  110OSM   C16F11409   6.211   6.411   8.987 -0.2091  0.1251  0.0343
  110OSM   H16F11410   6.105   6.381   9.003 -0.2684  0.7241  0.8782
  110OSM   H16G11411   6.268   6.316   8.993 -3.0967 -1.6861  1.0934
  110OSM   C17F11412   6.243   6.486   8.859 -0.4466  0.6418  0.0296
  110OSM   H17F11413   6.222   6.436   8.762  0.1595 -0.4605  0.4465
  110OSM   H17G11414   6.352   6.508   8.858  0.1486 -1.7231 -2.9527
  110OSM   C18F11415   6.157   6.612   8.845 -0.0996 -0.1930  0.4753
  110OSM   H18F11416   6.055   6.588   8.882  0.3768  0.8554  2.6186
  110OSM   H18G11417   6.144   6.639   8.738 -0.8326  0.3113  0.6798
  110OSM   H18H11418   6.200   6.690   8.912  0.4849 -0.4648  0.4220
  111OSM      N11419   6.452   4.997  10.974  0.3873  0.1451  0.0454
  111OSM    C1511420   6.313   4.987  11.022 -0.6556 -0.3543  0.3299
  111OSM   H15A11421   6.269   4.889  11.005  0.1137 -0.6541  0.0358
  111OSM   H15B11422   6.246   5.050  10.965  1.2002 -0.1638 -1.7679
  111OSM   H15C11423   6.316   5.011  11.127  0.3819 -1.7858  0.6646
  111OSM    C1411424   6.451   4.956  10.829 -0.2075  0.0477  0.6119
  111OSM   H14A11425   6.369   4.986  10.766 -0.7848 -0.9548  0.8717
  111OSM   H14B11426   6.450   4.849  10.842  1.4747  0.0004  0.6875
  111OSM   H14C11427   6.547   4.973  10.780 -1.3308  1.5045 -1.2325
  111OSM    C1311428   6.492   5.139  10.985 -0.4496 -0.2712 -0.1096
  111OSM   H13A11429   6.458   5.207  10.909 -2.2769  0.0756  0.9546
  111OSM   H13B11430   6.599   5.137  11.000 -0.1558 -2.3024 -2.0287
  111OSM   H13C11431   6.462   5.175  11.083  1.2515  0.2064  0.2797
  111OSM    C1211432   6.550   4.910  11.053 -0.0712  0.9088  0.7304
  111OSM   H12A11433   6.507   4.812  11.067 -0.5835  1.1858  1.1256
  111OSM   H12B11434   6.566   4.953  11.151  0.1669  0.8130  0.7332
  111OSM    C1111435   6.695   4.887  11.003  0.1403  0.1452  0.5394
  111OSM   H11A11436   6.742   4.818  11.076 -1.9562 -1.5160  0.4036
  111OSM   H11B11437   6.748   4.985  11.004  1.3501 -0.4765  2.6606
  111OSM      P11438   6.671   4.692  10.834  0.4154  0.1574  0.3069
  111OSM    O1311439   6.791   4.616  10.872  0.0736  0.3103  0.4269
  111OSM    O1411440   6.537   4.656  10.889 -0.2556  0.1649 -0.2865
  111OSM    O1111441   6.668   4.699  10.673 -0.2232  0.8847 -0.0980
  111OSM    O1211442   6.692   4.842  10.866 -0.1899  0.3420  0.3042
  111OSM    C1S11443   6.784   4.753  10.608  0.4746 -0.1907 -0.1448
  111OSM    H1S11444   6.876   4.699  10.640 -0.6517 -2.0706  0.1111
  111OSM    H1T11445   6.786   4.859  10.639 -1.3538  0.5307 -2.2720
  111OSM     NF11446   6.918   4.783  10.404  0.1778  0.2675  0.0492
  111OSM    HNF11447   6.935   4.881  10.394 -0.0679  0.2559 -0.5157
  111OSM    C2S11448   6.780   4.749  10.450 -0.4236 -0.4023 -0.3962
  111OSM    H2S11449   6.745   4.649  10.419 -1.4453 -0.2831  0.3364
  111OSM    C3S11450   6.665   4.841  10.393 -0.0425  0.0097  0.0159
  111OSM    H3S11451   6.681   4.948  10.415 -0.7424  0.5275 -1.7967
  111OSM     O311452   6.539   4.808  10.455  0.3467  0.1745  0.5820
  111OSM    HO311453   6.575   4.769  10.536 -1.0572 -0.1401  1.0796
  111OSM    C4S11454   6.651   4.820  10.248  0.4289 -0.0258 -0.7874
  111OSM    H4S11455   6.728   4.881  10.200  0.5724  0.4187 -0.0031
  111OSM    C5S11456   6.569   4.729  10.182  0.2740  0.2006  0.1410
  111OSM    H5S11457   6.517   4.657  10.246  0.4284  0.2266  0.2966
  111OSM    C6S11458   6.563   4.705  10.034  0.0866  0.0123  0.3474
  111OSM    H6S11459   6.460   4.726   9.997  0.3742 -1.7649 -1.6645
  111OSM    H6T11460   6.587   4.599  10.010 -2.1878  0.0713 -2.9205
  111OSM    C7S11461   6.654   4.798   9.955  0.7142 -0.6174 -0.0268
  111OSM    H7S11462   6.659   4.906   9.984  1.4552 -0.0064 -2.2614
  111OSM    H7T11463   6.621   4.808   9.849  2.0682 -0.1848 -0.4188
  111OSM    C8S11464   6.802   4.750   9.937 -0.5258  0.6828 -0.5551
  111OSM    H8S11465   6.816   4.645   9.903  0.3641  0.5886  0.0833
  111OSM    H8T11466   6.845   4.762  10.038  1.3597 -0.1326 -1.2107
  111OSM    C9S11467   6.879   4.844   9.847 -0.0368 -0.0178  0.3526
  111OSM    H9S11468   6.986   4.849   9.878 -0.5781 -1.2289  2.6630
  111OSM    H9T11469   6.844   4.949   9.857 -1.2270 -0.4653  1.0773
  111OSM   C10S11470   6.869   4.816   9.702 -0.5451  0.1353 -0.5808
  111OSM   H10S11471   6.765   4.837   9.670 -0.7217 -1.0406 -0.8096
  111OSM   H10T11472   6.881   4.706   9.695 -1.7338 -0.0305 -0.2335
  111OSM   C11S11473   6.978   4.886   9.618  0.2521  0.6615 -0.2040
  111OSM   H11S11474   7.080   4.847   9.637  0.7732  1.6258 -0.8977
  111OSM   H11T11475   6.975   4.994   9.647  0.4477  0.2515  1.4325
  111OSM   C12S11476   6.959   4.876   9.468 -0.0358  0.7197 -0.3522
  111OSM   H12S11477   6.869   4.926   9.428  1.7381  2.4914 -2.3685
  111OSM   H12T11478   6.957   4.768   9.442  3.8404  0.3913  0.1586
  111OSM   C13S11479   7.077   4.937   9.399  0.4740  0.1220  0.2497
  111OSM   H13S11480   7.169   4.882   9.428 -0.0386 -0.0703  1.5733
  111OSM   H13T11481   7.084   5.042   9.434  0.9372  0.1450  0.0859
  111OSM   C14S11482   7.066   4.952   9.249 -0.2050  0.0715  0.1636
  111OSM   H14S11483   7.041   4.853   9.204 -0.8163  1.7903 -3.6878
  111OSM   H14T11484   7.164   4.983   9.206 -0.8852  0.8489 -0.8771
  111OSM   C15S11485   6.964   5.054   9.197  0.8519 -0.0572  0.2956
  111OSM   H15S11486   6.980   5.151   9.248 -1.1948  0.7599 -0.5318
  111OSM   H15T11487   6.864   5.020   9.234  0.5202 -0.4537 -0.9294
  111OSM   C16S11488   6.976   5.072   9.046  0.0092  0.4334 -0.2701
  111OSM   H16S11489   6.941   4.982   8.991  0.3645  1.4149 -2.1789
  111OSM   H16T11490   7.082   5.076   9.012  0.9127  0.4953  2.2978
  111OSM   C17S11491   6.905   5.191   8.990 -0.4700 -0.3540 -0.8592
  111OSM   H17S11492   6.875   5.263   9.069 -0.1744 -0.8717 -0.2686
  111OSM   H17T11493   6.806   5.151   8.959 -1.8424  1.1300  1.2928
  111OSM   C18S11494   6.990   5.256   8.877 -0.0295 -0.1209  0.3216
  111OSM   H18S11495   7.002   5.193   8.786 -1.4969  1.3249 -0.9328
  111OSM   H18T11496   7.090   5.298   8.903 -1.0427  2.4764  0.2969
  111OSM   H18U11497   6.935   5.345   8.839  1.7159 -0.1936 -2.6927
  111OSM    C1F11498   7.012   4.695  10.379 -1.0832 -0.3926  0.2943
  111OSM     OF11499   7.009   4.577  10.400  0.3754 -0.1556  0.0727
  111OSM    C2F11500   7.136   4.755  10.323  1.2372  0.1442 -0.4273
  111OSM    H2F11501   7.197   4.760  10.416 -1.7333  3.0102  1.6277
  111OSM    H2G11502   7.117   4.859  10.288 -0.6794 -0.0033  0.0295
  111OSM    C3F11503   7.203   4.667  10.219 -0.3720 -0.1881  0.3955
  111OSM    H3F11504   7.214   4.558  10.238  2.4505  0.1277  1.0679
  111OSM    H3G11505   7.304   4.712  10.207  0.1518 -0.5458  2.7939
  111OSM    C4F11506   7.130   4.662  10.089  0.3481 -0.4879 -0.6636
  111OSM    H4F11507   7.104   4.766  10.061  0.4721  0.2973  1.8879
  111OSM    H4G11508   7.033   4.606  10.096 -0.6037  1.2988  2.6938
  111OSM    C5F11509   7.216   4.602   9.978  0.5312  0.1974 -0.0107
  111OSM    H5F11510   7.233   4.493   9.988  2.9670  0.4283 -0.9544
  111OSM    H5G11511   7.320   4.643   9.984  0.1938  0.8802  2.1218
  111OSM    C6F11512   7.173   4.632   9.832 -0.2079 -0.2957  0.1271
  111OSM    H6F11513   7.174   4.743   9.820 -4.3826 -0.1604 -0.3635
  111OSM    H6G11514   7.065   4.611   9.819 -0.2130 -2.4805  2.7544
  111OSM    C7F11515   7.264   4.564   9.731  0.0509 -0.8277 -0.2859
  111OSM    H7F11516   7.325   4.487   9.783  1.5517  1.1502  1.0191
  111OSM    H7G11517   7.327   4.633   9.672 -2.8102  2.5492  0.3000
  111OSM    C8F11518   7.170   4.493   9.640  0.3436 -0.5054  0.2035
  111OSM    H8F11519   7.121   4.570   9.577  2.4754 -0.3893 -1.4473
  111OSM    H8G11520   7.091   4.443   9.699 -0.5989 -0.8244 -1.2713
  111OSM    C9F11521   7.237   4.378   9.571  0.5949 -0.1996  0.6233
  111OSM    H9F11522   7.266   4.294   9.635 -0.9067  0.3694  2.1130
  111OSM   C10F11523   7.264   4.372   9.445  0.1762  0.0878  0.7385
  111OSM   H10F11524   7.316   4.279   9.418 -1.4554 -1.6208  3.0493
  111OSM   C11F11525   7.247   4.481   9.346  0.7414  0.9447  0.4713
  111OSM   H11F11526   7.349   4.514   9.318  2.3983 -1.5166  3.0140
  111OSM   H11G11527   7.186   4.562   9.391  1.1020  0.1700  2.4448
  111OSM   C12F11528   7.177   4.439   9.215  0.1161 -0.1463 -0.2791
  111OSM   H12F11529   7.146   4.528   9.156  0.2064  0.1873  0.1708
  111OSM   H12G11530   7.082   4.390   9.243 -0.1958 -1.9249 -3.8170
  111OSM   C13F11531   7.263   4.343   9.128 -0.4837 -0.1673 -0.8736
  111OSM   H13F11532   7.265   4.248   9.185 -1.6849  0.3813  0.1380
  111OSM   H13G11533   7.369   4.374   9.118  0.2226 -1.9240  0.4959
  111OSM   C14F11534   7.211   4.330   8.983  0.7865  0.2460  0.8343
  111OSM   H14F11535   7.180   4.425   8.934  1.0431  0.3322  0.8374
  111OSM   H14G11536   7.116   4.272   8.985  1.1897 -0.5212 -0.8206
  111OSM   C15F11537   7.294   4.263   8.884 -0.8381 -0.8120  0.2123
  111OSM   H15F11538   7.303   4.158   8.920  3.1567 -0.4028  0.9055
  111OSM   H15G11539   7.395   4.309   8.892 -0.5931 -1.1684 -0.7065
  111OSM   C16F11540   7.237   4.256   8.740 -0.6158 -0.0963 -0.1894
  111OSM   H16F11541   7.260   4.348   8.682 -0.5558  2.5151  3.6103
  111OSM   H16G11542   7.126   4.251   8.751 -0.8843  3.5868  0.1579
  111OSM   C17F11543   7.303   4.131   8.667 -0.3544 -0.4715  0.6222
  111OSM   H17F11544   7.280   4.036   8.720  1.5077 -1.3936 -0.1352
  111OSM   H17G11545   7.413   4.146   8.662 -0.4352 -0.0711 -0.1425
  111OSM   C18F11546   7.242   4.118   8.525 -0.3803  0.5354 -0.9838
  111OSM   H18F11547   7.132   4.106   8.531 -0.1790 -1.0628  0.2961
  111OSM   H18G11548   7.289   4.044   8.456  0.1512  0.3069 -0.3899
  111OSM   H18H11549   7.253   4.220   8.483  1.3619  0.2351 -1.3476
  112OSM      N11550   0.051   2.621  11.100 -0.5374 -0.1752 -0.2288
  112OSM    C1511551  -0.003   2.562  11.217 -0.2579 -0.2273  0.0728
  112OSM   H15A11552  -0.106   2.592  11.220 -0.2512 -0.2264  0.2585
  112OSM   H15B11553   0.047   2.589  11.309 -1.4382 -2.0875  1.3244
  112OSM   H15C11554   0.003   2.454  11.213  0.5248 -0.1881 -0.0519
  112OSM    C1411555   0.038   2.765  11.101  0.2161 -0.1468 -0.6702
  112OSM   H14A11556   0.050   2.803  11.201  0.5036 -1.7756 -0.0563
  112OSM   H14B11557  -0.057   2.805  11.068  1.2029  2.7491 -0.3067
  112OSM   H14C11558   0.117   2.817  11.049  1.8337  0.5255  2.2512
  112OSM    C1311559   0.193   2.579  11.099 -0.8343 -0.7721  0.3011
  112OSM   H13A11560   0.237   2.562  11.001  0.7604 -2.8211  1.2961
  112OSM   H13B11561   0.186   2.483  11.147 -0.9213 -1.5234 -1.1523
  112OSM   H13C11562   0.261   2.644  11.152 -2.4663  1.6213 -0.3366
  112OSM    C1211563  -0.019   2.574  10.969 -0.0889  0.0420 -0.7951
  112OSM   H12A11564  -0.016   2.467  10.958  0.4772 -0.2326  1.6013
  112OSM   H12B11565   0.046   2.611  10.891 -1.0249 -0.8450 -2.0425
  112OSM    C1111566  -0.159   2.634  10.939 -0.0510  0.1829  0.1098
  112OSM   H11A11567  -0.194   2.596  10.841 -1.4503  0.4646  0.4713
  112OSM   H11B11568  -0.162   2.745  10.939  1.7247  0.3923  3.7423
  112OSM      P11569  -0.388   2.530  11.012  0.3836 -0.3663  0.0219
  112OSM    O1311570  -0.441   2.479  11.144 -1.0187  0.0118  0.5020
  112OSM    O1411571  -0.465   2.629  10.934 -0.2224  0.6586  0.1065
  112OSM    O1111572  -0.345   2.406  10.919  0.2089 -0.1057  0.3106
  112OSM    O1211573  -0.248   2.604  11.044  0.1874 -0.3849  0.3537
  112OSM    C1S11574  -0.437   2.350  10.822 -0.3432 -0.3341 -0.3928
  112OSM    H1S11575  -0.521   2.417  10.793 -1.5723 -1.2571  0.8799
  112OSM    H1T11576  -0.486   2.261  10.868 -0.6825 -0.3568 -0.7987
  112OSM     NF11577  -0.464   2.267  10.590 -0.8409  0.6906  0.3947
  112OSM    HNF11578  -0.462   2.168  10.574  1.0220  0.6613  0.6145
  112OSM    C2S11579  -0.360   2.313  10.688 -0.0404  0.1925  0.0757
  112OSM    H2S11580  -0.315   2.406  10.647  1.5752 -1.2070 -1.4588
  112OSM    C3S11581  -0.243   2.213  10.720 -1.3380  0.0427  0.2331
  112OSM    H3S11582  -0.293   2.121  10.759  0.6969 -0.8008  0.9817
  112OSM     O311583  -0.160   2.265  10.826 -0.0025  0.0155  0.3281
  112OSM    HO311584  -0.215   2.327  10.874 -2.0925 -0.9292 -0.7207
  112OSM    C4S11585  -0.156   2.188  10.596 -0.3440  1.1079  0.5777
  112OSM    H4S11586  -0.102   2.275  10.556 -0.5552  0.6256 -0.8236
  112OSM    C5S11587  -0.121   2.076  10.533  0.5547 -0.8447  0.2780
  112OSM    H5S11588  -0.156   1.979  10.572 -0.0435 -0.8361 -0.2234
  112OSM    C6S11589  -0.039   2.080  10.409  0.2619 -0.2766 -0.5294
  112OSM    H6S11590   0.013   1.982  10.407 -2.7909 -2.0630  1.0064
  112OSM    H6T11591   0.038   2.161  10.403  0.1416 -0.1014  0.2068
  112OSM    C7S11592  -0.127   2.086  10.276 -0.6164  0.2602 -0.2337
  112OSM    H7S11593  -0.165   2.190  10.270  0.1977  0.5147 -1.3048
  112OSM    H7T11594  -0.210   2.014  10.285 -0.5945  0.1020 -1.1919
  112OSM    C8S11595  -0.044   2.049  10.148 -0.1863  0.0995  0.3661
  112OSM    H8S11596  -0.035   1.939  10.143 -0.3850  0.0261  1.4161
  112OSM    H8T11597   0.061   2.085  10.144  0.0848 -0.7129 -0.0155
  112OSM    C9S11598  -0.123   2.098  10.031 -0.2099 -0.0012  0.9456
  112OSM    H9S11599  -0.147   2.204  10.052 -1.0093  0.3012 -1.1517
  112OSM    H9T11600  -0.213   2.033  10.037  0.6093 -1.1969  0.6336
  112OSM   C10S11601  -0.046   2.074   9.900  0.1959 -0.1557  0.3165
  112OSM   H10S11602  -0.030   1.967   9.875  2.9379  0.4603 -0.9742
  112OSM   H10T11603   0.050   2.128   9.885 -0.4626  0.2073 -3.8917
  112OSM   C11S11604  -0.143   2.127   9.787 -0.0594  0.1523  0.9252
  112OSM   H11S11605  -0.157   2.236   9.799  0.0071  0.3369 -0.4486
  112OSM   H11T11606  -0.238   2.072   9.803  0.5235 -0.5840  1.8946
  112OSM   C12S11607  -0.094   2.109   9.635  0.2128  0.2190 -0.5246
  112OSM   H12S11608  -0.096   2.000   9.616 -2.4352 -0.2028  1.4743
  112OSM   H12T11609   0.006   2.159   9.634 -1.6469  4.6375  2.2388
  112OSM   C13S11610  -0.179   2.187   9.537  0.1508  0.1318  0.0395
  112OSM   H13S11611  -0.217   2.285   9.573 -1.3215  0.3991 -2.0403
  112OSM   H13T11612  -0.278   2.139   9.522 -0.8947  1.9042  0.9468
  112OSM   C14S11613  -0.104   2.216   9.408 -0.0404  0.0204  0.2150
  112OSM   H14S11614   0.003   2.241   9.421 -0.1457  0.5052  0.1936
  112OSM   H14T11615  -0.159   2.295   9.350 -0.1023 -0.2394 -0.0816
  112OSM   C15S11616  -0.118   2.109   9.303 -0.2586 -0.2187  0.3211
  112OSM   H15S11617  -0.223   2.078   9.324  0.1697 -3.0126 -1.2178
  112OSM   H15T11618  -0.043   2.027   9.307  0.8911  0.6793 -1.4871
  112OSM   C16S11619  -0.102   2.158   9.156 -0.9078  0.5331 -0.4021
  112OSM   H16S11620  -0.038   2.084   9.104  0.9485  1.2315  0.7833
  112OSM   H16T11621  -0.029   2.241   9.155  0.0659 -0.2922 -0.2087
  112OSM   C17S11622  -0.231   2.184   9.085 -0.0906  0.1162 -0.1923
  112OSM   H17S11623  -0.277   2.084   9.068  2.3442 -0.6231 -3.3205
  112OSM   H17T11624  -0.215   2.206   8.977 -2.0658 -0.9226 -0.7589
  112OSM   C18S11625  -0.319   2.289   9.149  0.6214  0.3980  0.0960
  112OSM   H18S11626  -0.262   2.381   9.171  0.1046  0.6003  0.5999
  112OSM   H18T11627  -0.364   2.253   9.244  0.5548  2.5404  0.9168
  112OSM   H18U11628  -0.401   2.301   9.075  0.3270 -4.4402 -0.7029
  112OSM    C1F11629  -0.542   2.360  10.532 -0.5608  0.1042 -0.1087
  112OSM     OF11630  -0.533   2.479  10.553 -0.0926 -0.1095  0.0808
  112OSM    C2F11631  -0.657   2.313  10.459  0.4914 -0.0464  0.0164
  112OSM    H2F11632  -0.738   2.389  10.466  0.0011 -0.7210  2.6906
  112OSM    H2G11633  -0.690   2.217  10.505 -1.2386  0.8934  0.8382
  112OSM    C3F11634  -0.621   2.292  10.306 -0.2158 -0.9796 -0.5954
  112OSM    H3F11635  -0.592   2.394  10.272 -3.0155 -0.1474 -0.7615
  112OSM    H3G11636  -0.714   2.270  10.249 -0.8963 -1.5291  0.6885
  112OSM    C4F11637  -0.520   2.185  10.276  0.0803 -0.4375  0.6650
  112OSM    H4F11638  -0.542   2.091  10.331 -0.4142 -0.4851  0.3925
  112OSM    H4G11639  -0.416   2.212  10.303 -0.0407  1.0531 -0.2714
  112OSM    C5F11640  -0.527   2.146  10.125 -0.4446  0.3148  0.2028
  112OSM    H5F11641  -0.628   2.108  10.099  0.0708 -0.5109 -0.6482
  112OSM    H5G11642  -0.449   2.068  10.116  1.5951  2.3964 -1.3676
  112OSM    C6F11643  -0.488   2.261  10.028  0.2672  0.2147 -0.1750
  112OSM    H6F11644  -0.402   2.323  10.060  0.3250 -0.2805  0.6367
  112OSM    H6G11645  -0.580   2.324  10.029 -1.7568 -2.5302 -0.1193
  112OSM    C7F11646  -0.480   2.205   9.888 -0.1737 -0.3008 -0.0125
  112OSM    H7F11647  -0.406   2.123   9.882 -0.3906 -0.4154 -1.9460
  112OSM    H7G11648  -0.445   2.290   9.826 -2.7805  0.2300 -0.9121
  112OSM    C8F11649  -0.621   2.164   9.831 -0.3950 -0.1200 -0.2056
  112OSM    H8F11650  -0.695   2.245   9.850  1.5454  1.6291  0.2888
  112OSM    H8G11651  -0.656   2.080   9.894 -0.7778 -0.5118 -0.9222
  112OSM    C9F11652  -0.607   2.126   9.684  0.0146  0.2116 -0.2460
  112OSM    H9F11653  -0.523   2.177   9.634  0.3720  1.4552  1.5246
  112OSM   C10F11654  -0.684   2.039   9.610  0.0677 -0.3181  0.2205
  112OSM   H10F11655  -0.656   2.009   9.508 -2.0253  1.7761 -1.0484
  112OSM   C11F11656  -0.801   1.963   9.662  0.4768  0.2223 -0.5231
  112OSM   H11F11657  -0.831   1.983   9.767 -0.1721 -1.2627 -0.3996
  112OSM   H11G11658  -0.771   1.857   9.677  1.4742  0.5983  0.3064
  112OSM   C12F11659  -0.929   1.974   9.578  0.3773  0.4445  0.1996
  112OSM   H12F11660  -0.987   2.064   9.607 -0.1105  1.2521 -2.9165
  112OSM   H12G11661  -0.991   1.883   9.594 -0.0378  0.6662 -0.1247
  112OSM   C13F11662  -0.903   1.984   9.434  0.1343  0.3909  0.2866
  112OSM   H13F11663  -0.826   1.909   9.407  1.0950  1.3330  0.3462
  112OSM   H13G11664  -0.852   2.075   9.396  0.3923 -0.4191 -1.4185
  112OSM   C14F11665  -1.027   1.955   9.341 -0.1057  0.2947  0.5327
  112OSM   H14F11666  -1.108   2.027   9.362  0.0778  0.9359 -0.8455
  112OSM   H14G11667  -1.066   1.855   9.371  0.2390  0.2887  0.9722
  112OSM   C15F11668  -1.008   1.961   9.188 -0.8928 -0.3329  0.2637
  112OSM   H15F11669  -0.913   1.911   9.160 -1.0696  0.0025 -0.9965
  112OSM   H15G11670  -0.969   2.063   9.166 -0.4280  0.0192  2.4701
  112OSM   C16F11671  -1.117   1.915   9.097  0.0504  0.3439  0.8194
  112OSM   H16F11672  -1.203   1.978   9.129  0.8429 -0.0325  4.1237
  112OSM   H16G11673  -1.140   1.809   9.120 -1.4483  0.9543  2.3428
  112OSM   C17F11674  -1.089   1.920   8.946  0.3692  0.0036  0.2621
  112OSM   H17F11675  -1.053   2.021   8.918  0.9084 -0.1965  0.2126
  112OSM   H17G11676  -1.187   1.918   8.893 -0.7721  0.6873  2.2622
  112OSM   C18F11677  -1.002   1.803   8.898 -0.5314  0.3709 -0.7895
  112OSM   H18F11678  -0.983   1.809   8.789  1.2341  0.7397 -0.4987
  112OSM   H18G11679  -1.065   1.712   8.914 -1.0856  0.6816 -1.1755
  112OSM   H18H11680  -0.904   1.798   8.951 -0.4921  0.1161 -0.8812
  113OSM      N11681   0.147   1.787  11.105 -1.1528  0.1574 -0.2541
  113OSM    C1511682   0.155   1.632  11.095  0.2466 -1.0942  0.3250
  113OSM   H15A11683   0.060   1.596  11.130 -0.8759  0.9656 -0.4528
  113OSM   H15B11684   0.232   1.599  11.163  2.7031  3.7954  0.3929
  113OSM   H15C11685   0.179   1.591  10.998  0.8141 -3.7218  1.5095
  113OSM    C1411686   0.110   1.818  11.249 -1.0306  0.1698  0.1460
  113OSM   H14A11687   0.185   1.789  11.321 -1.5928 -1.2731  0.1844
  113OSM   H14B11688   0.014   1.772  11.270 -1.3223  0.7339  0.0654
  113OSM   H14C11689   0.093   1.924  11.253 -2.3175 -0.0653  1.6046
  113OSM    C1311690   0.283   1.847  11.068  0.1825 -0.6139 -0.2069
  113OSM   H13A11691   0.300   1.822  10.964  0.9820 -0.3607 -0.1398
  113OSM   H13B11692   0.364   1.810  11.129 -0.3017 -1.4843 -0.0689
  113OSM   H13C11693   0.284   1.954  11.071  2.1313 -0.6096  0.7136
  113OSM    C1211694   0.042   1.843  11.012  0.1722  0.0805 -0.1931
  113OSM   H12A11695   0.079   1.820  10.913  2.4876  1.7512  0.1992
  113OSM   H12B11696   0.045   1.950  11.027  1.5773 -0.1782  1.6955
  113OSM    C1111697  -0.108   1.796  11.034  0.3951  0.0323  0.0725
  113OSM   H11A11698  -0.164   1.855  10.959  1.6426  0.9477 -0.1513
  113OSM   H11B11699  -0.141   1.830  11.135 -1.6703 -2.7211  0.4679
  113OSM      P11700  -0.272   1.614  11.009  0.4911 -0.0899  0.0593
  113OSM    O1311701  -0.295   1.472  11.043 -0.0837 -0.0583  0.9121
  113OSM    O1411702  -0.363   1.714  11.065  0.1248  0.2448  0.0549
  113OSM    O1111703  -0.279   1.635  10.855 -0.2943  0.5640 -0.9499
  113OSM    O1211704  -0.116   1.654  11.031  0.4725  0.4355  0.6598
  113OSM    C1S11705  -0.174   1.574  10.774  0.6005 -0.5533  0.4682
  113OSM    H1S11706  -0.160   1.468  10.805 -1.9527 -0.9934  0.3457
  113OSM    H1T11707  -0.079   1.631  10.773 -0.1828  0.8032  0.3897
  113OSM     NF11708  -0.125   1.493  10.546 -0.3450  0.4207  0.4617
  113OSM    HNF11709  -0.053   1.547  10.503  0.3019 -0.6456  0.1704
  113OSM    C2S11710  -0.212   1.570  10.626 -0.0547 -0.7575 -0.3304
  113OSM    H2S11711  -0.316   1.531  10.624 -0.5159  0.2923  1.3130
  113OSM    C3S11712  -0.224   1.720  10.582  0.3224 -0.5619 -0.4846
  113OSM    H3S11713  -0.130   1.776  10.602 -1.4553  1.6744  2.4829
  113OSM     O311714  -0.328   1.789  10.653  0.0451 -0.5900  0.1351
  113OSM    HO311715  -0.347   1.730  10.727 -2.6439 -1.1115 -0.8765
  113OSM    C4S11716  -0.268   1.736  10.440 -0.1333  1.0279  0.2413
  113OSM    H4S11717  -0.197   1.791  10.377  1.6693 -0.7423  0.6256
  113OSM    C5S11718  -0.397   1.718  10.397 -0.2218 -0.1376 -0.0258
  113OSM    H5S11719  -0.484   1.696  10.460  1.7289 -2.5325  2.0007
  113OSM    C6S11720  -0.439   1.751  10.249 -0.2499 -0.0315  0.3209
  113OSM    H6S11721  -0.489   1.850  10.240 -0.1572  0.0238  0.4092
  113OSM    H6T11722  -0.517   1.679  10.216 -0.0957  0.5257 -1.3469
  113OSM    C7S11723  -0.330   1.739  10.143 -0.6263  0.6339  0.3725
  113OSM    H7S11724  -0.275   1.643  10.154  1.4316  1.1752 -3.5556
  113OSM    H7T11725  -0.254   1.821  10.140  0.1474 -0.0608  0.5711
  113OSM    C8S11726  -0.401   1.742  10.006  0.5252 -0.3912  0.1695
  113OSM    H8S11727  -0.456   1.839  10.002 -1.5547 -1.5361 -0.3438
  113OSM    H8T11728  -0.487   1.674   9.986 -0.7218  1.4158 -1.0946
  113OSM    C9S11729  -0.304   1.731   9.890  0.4072 -0.5354  0.0208
  113OSM    H9S11730  -0.247   1.636   9.893  1.9959  0.4059  0.6135
  113OSM    H9T11731  -0.221   1.803   9.882 -0.8918  0.8104 -2.2899
  113OSM   C10S11732  -0.382   1.739   9.757  0.2915  0.6615 -0.4727
  113OSM   H10S11733  -0.447   1.830   9.761 -0.0051  0.4171  1.8776
  113OSM   H10T11734  -0.451   1.652   9.747  1.9913 -0.9781  1.2424
  113OSM   C11S11735  -0.302   1.739   9.630  0.2971  0.2586  0.4927
  113OSM   H11S11736  -0.226   1.658   9.623  0.5601  0.5862 -0.5533
  113OSM   H11T11737  -0.239   1.830   9.642  0.0669  0.8450 -2.2177
  113OSM   C12S11738  -0.387   1.745   9.498 -0.2496  0.3317 -0.1242
  113OSM   H12S11739  -0.458   1.828   9.518  0.4429  0.4585  2.0417
  113OSM   H12T11740  -0.431   1.644   9.488  2.0423 -0.6358 -1.2539
  113OSM   C13S11741  -0.299   1.767   9.377  0.1126  0.3966 -0.2085
  113OSM   H13S11742  -0.240   1.677   9.346 -1.3176 -0.2399 -1.1983
  113OSM   H13T11743  -0.235   1.857   9.384  4.2414 -2.1929 -1.0826
  113OSM   C14S11744  -0.383   1.781   9.250  0.9535 -0.1321 -0.0359
  113OSM   H14S11745  -0.455   1.696   9.246 -0.0962  0.7555 -0.3620
  113OSM   H14T11746  -0.325   1.773   9.155  0.0915  0.6807 -0.6399
  113OSM   C15S11747  -0.475   1.900   9.254  0.2027 -0.3569 -0.4480
  113OSM   H15S11748  -0.409   1.987   9.274  0.3890 -0.2730 -1.4114
  113OSM   H15T11749  -0.552   1.882   9.332 -0.4640  0.5434 -0.8875
  113OSM   C16S11750  -0.546   1.940   9.124  0.0676  0.3680 -0.0738
  113OSM   H16S11751  -0.482   2.000   9.056  2.4168 -2.1086 -0.2463
  113OSM   H16T11752  -0.636   1.996   9.159  0.0736 -0.4864  1.4176
  113OSM   C17S11753  -0.593   1.822   9.038 -1.0064 -0.0800 -0.6768
  113OSM   H17S11754  -0.674   1.771   9.095  0.5178 -0.4517  1.2692
  113OSM   H17T11755  -0.515   1.743   9.039 -0.9232 -0.0056 -1.1193
  113OSM   C18S11756  -0.629   1.845   8.895  0.2244 -0.0609  0.4509
  113OSM   H18S11757  -0.539   1.891   8.848 -0.5422  1.2854  0.2428
  113OSM   H18T11758  -0.713   1.916   8.882  0.6423  1.0113  2.9312
  113OSM   H18U11759  -0.649   1.745   8.851 -1.8916  0.2656  0.5835
  113OSM    C1F11760  -0.114   1.361  10.571  0.0056  0.1281  0.1534
  113OSM     OF11761  -0.206   1.291  10.607 -0.2481 -0.2475 -0.3820
  113OSM    C2F11762   0.025   1.306  10.573 -0.0388  0.0413  0.3092
  113OSM    H2F11763   0.061   1.303  10.678 -1.8092  0.3950  0.9536
  113OSM    H2G11764   0.100   1.366  10.517  1.2145 -3.0416 -1.5745
  113OSM    C3F11765   0.027   1.145  10.556 -0.2432  0.4585 -0.1043
  113OSM    H3F11766  -0.049   1.104  10.626 -0.8330  0.0289 -0.9732
  113OSM    H3G11767   0.127   1.106  10.585  0.3864 -0.9139 -3.5872
  113OSM    C4F11768   0.013   1.100  10.413  0.8055 -0.2368  0.2902
  113OSM    H4F11769   0.108   1.128  10.364  1.1804 -2.4978 -0.3811
  113OSM    H4G11770  -0.072   1.156  10.368  0.7473 -0.4475  0.1374
  113OSM    C5F11771  -0.009   0.954  10.400  0.2538  0.1052  0.8794
  113OSM    H5F11772  -0.095   0.923  10.464 -0.5281 -2.6108 -1.2603
  113OSM    H5G11773   0.073   0.889  10.439 -2.3727 -2.5378  2.4133
  113OSM    C6F11774  -0.050   0.915  10.259 -0.3606  0.3322  0.0798
  113OSM    H6F11775  -0.140   0.976  10.236  0.4857  2.0471  1.1200
  113OSM    H6G11776  -0.074   0.806  10.256  0.8226  0.0190 -3.6088
  113OSM    C7F11777   0.057   0.937  10.145  0.4276 -0.2967 -0.1823
  113OSM    H7F11778   0.127   0.851  10.141 -1.1709 -1.6369 -0.8173
  113OSM    H7G11779   0.105   1.036  10.158  0.4005 -0.1548 -1.0653
  113OSM    C8F11780  -0.007   0.953  10.009 -0.7195 -0.0210  0.0231
  113OSM    H8F11781  -0.056   1.050   9.991  0.3086  0.1786 -1.9836
  113OSM    H8G11782  -0.081   0.870  10.007  1.2034 -1.8215 -0.3719
  113OSM    C9F11783   0.099   0.932   9.895  0.7884 -0.1926 -0.0871
  113OSM    H9F11784   0.201   0.968   9.914  1.4294 -1.3779 -1.0852
  113OSM   C10F11785   0.070   0.856   9.778 -0.6393 -0.8394 -0.7807
  113OSM   H10F11786   0.142   0.857   9.694 -1.1356  0.7897 -1.2135
  113OSM   C11F11787  -0.061   0.794   9.739 -0.9723  0.5374 -0.6546
  113OSM   H11F11788  -0.141   0.857   9.783 -2.6623 -0.9675 -1.4435
  113OSM   H11G11789  -0.061   0.691   9.781 -0.7958  0.7020 -0.2479
  113OSM   C12F11790  -0.089   0.783   9.593 -0.3377  0.3551  0.3494
  113OSM   H12F11791  -0.081   0.888   9.558 -1.8664  1.1078  2.0812
  113OSM   H12G11792  -0.189   0.737   9.580 -0.5389  0.9400 -0.1968
  113OSM   C13F11793   0.008   0.686   9.529 -0.6632 -0.1470  0.3023
  113OSM   H13F11794  -0.005   0.587   9.578  1.1679 -0.4422  0.2682
  113OSM   H13G11795   0.118   0.698   9.534 -0.3382 -1.7439 -1.7357
  113OSM   C14F11796  -0.016   0.665   9.377 -0.0467  0.0688  0.0303
  113OSM   H14F11797  -0.020   0.767   9.333  1.1735 -0.1008 -0.4954
  113OSM   H14G11798  -0.110   0.606   9.374 -0.2734  0.4668 -0.8655
  113OSM   C15F11799   0.085   0.577   9.296 -0.2050 -0.6156 -0.3375
  113OSM   H15F11800   0.113   0.482   9.346  0.0318 -0.2169  0.3065
  113OSM   H15G11801   0.178   0.636   9.281 -0.6564 -0.0376 -0.9562
  113OSM   C16F11802   0.011   0.540   9.167 -0.1995 -0.1320  0.5278
  113OSM   H16F11803   0.090   0.513   9.094  0.5225  0.0050  1.2335
  113OSM   H16G11804  -0.045   0.628   9.130 -1.2785  0.0208  2.4153
  113OSM   C17F11805  -0.097   0.432   9.168  0.0746  0.5417 -0.0105
  113OSM   H17F11806  -0.169   0.459   9.248  0.2888 -0.5419  0.5611
  113OSM   H17G11807  -0.037   0.348   9.209  0.3983  0.2699 -0.9993
  113OSM   C18F11808  -0.169   0.408   9.031  0.3042  0.5877  0.1470
  113OSM   H18F11809  -0.145   0.309   8.986  0.0005  0.5488  0.0710
  113OSM   H18G11810  -0.137   0.494   8.967  1.9350  3.2067  4.0686
  113OSM   H18H11811  -0.280   0.415   9.029  0.2616  0.1363  0.7271
  114OSM      N11812   1.135   0.365  11.550 -0.5232 -0.3440 -0.5967
  114OSM    C1511813   1.235   0.301  11.458 -0.6701 -0.3567 -0.4997
  114OSM   H15A11814   1.218   0.317  11.352 -0.7206 -0.2861 -0.4822
  114OSM   H15B11815   1.250   0.195  11.471  0.1069 -0.1685  0.2530
  114OSM   H15C11816   1.328   0.355  11.473 -0.3994 -1.0752  0.4848
  114OSM    C1411817   1.183   0.348  11.693  0.2891  0.3295 -0.6094
  114OSM   H14A11818   1.273   0.405  11.708 -1.3366  2.6933  1.0479
  114OSM   H14B11819   1.216   0.245  11.699  0.3555  0.2383 -2.1292
  114OSM   H14C11820   1.103   0.371  11.762  0.7991 -1.0542  0.4757
  114OSM    C1311821   1.141   0.515  11.519 -0.1458  0.5171  0.6431
  114OSM   H13A11822   1.043   0.559  11.530 -1.0161 -0.9827 -0.7341
  114OSM   H13B11823   1.170   0.522  11.415 -2.0288  0.7757  0.0966
  114OSM   H13C11824   1.211   0.562  11.587  1.1684  1.3607 -1.2003
  114OSM    C1211825   0.993   0.307  11.520 -1.1426 -0.7341 -0.1525
  114OSM   H12A11826   1.003   0.200  11.509  0.7920 -0.6223  0.0852
  114OSM   H12B11827   0.979   0.344  11.420  0.4233  0.1156 -0.0919
  114OSM    C1111828   0.877   0.338  11.616 -0.0150 -0.1981  0.2430
  114OSM   H11A11829   0.904   0.304  11.719 -2.0693 -1.9077  0.2878
  114OSM   H11B11830   0.792   0.271  11.593 -0.2521  0.2833 -0.2894
  114OSM      P11831   0.751   0.529  11.508  0.0747 -0.0626  0.2076
  114OSM    O1311832   0.627   0.453  11.510 -0.1772  0.9399 -0.3507
  114OSM    O1411833   0.724   0.676  11.538  0.3032  0.4445 -0.3278
  114OSM    O1111834   0.816   0.507  11.361  0.6554 -0.3300 -0.3358
  114OSM    O1211835   0.848   0.476  11.617  0.1625  0.5787 -0.2179
  114OSM    C1S11836   0.852   0.611  11.277 -0.9729 -0.7255 -0.6576
  114OSM    H1S11837   0.946   0.656  11.316 -1.5429 -0.7996  0.8800
  114OSM    H1T11838   0.783   0.697  11.289 -0.2945 -0.3275  0.5112
  114OSM     NF11839   0.916   0.669  11.042 -0.5776 -0.1405  0.2014
  114OSM    HNF11840   0.871   0.746  10.998  1.4980  0.0477 -1.7697
  114OSM    C2S11841   0.856   0.571  11.132 -0.5968  0.8719  0.2346
  114OSM    H2S11842   0.921   0.481  11.136 -1.3836  0.3382  2.4005
  114OSM    C3S11843   0.715   0.532  11.084 -0.5380  1.1424  0.0968
  114OSM    H3S11844   0.644   0.617  11.081  0.6247  2.1012 -2.4244
  114OSM     O311845   0.648   0.425  11.164  0.3410  0.1950  0.1415
  114OSM    HO311846   0.703   0.422  11.243  1.4942  0.0194 -0.6411
  114OSM    C4S11847   0.725   0.486  10.943 -0.2052 -0.2296 -0.0278
  114OSM    H4S11848   0.696   0.563  10.870 -0.3404  0.7224  0.9921
  114OSM    C5S11849   0.759   0.373  10.899 -0.6599 -0.0361  0.2226
  114OSM    H5S11850   0.805   0.304  10.971  0.5269 -0.1474 -0.5954
  114OSM    C6S11851   0.770   0.319  10.758  0.1694  0.4116  0.1554
  114OSM    H6S11852   0.692   0.243  10.737 -1.5869  1.9076  0.9417
  114OSM    H6T11853   0.870   0.275  10.738  0.1170  0.3834 -0.0467
  114OSM    C7S11854   0.749   0.416  10.646 -0.1815 -0.3398 -0.6090
  114OSM    H7S11855   0.837   0.483  10.647 -0.0368 -0.5121 -1.1900
  114OSM    H7T11856   0.659   0.478  10.668  1.0924  1.1881  0.4739
  114OSM    C8S11857   0.742   0.352  10.506  0.1290  0.1975 -0.7199
  114OSM    H8S11858   0.662   0.275  10.515 -1.5735  2.0704  2.1215
  114OSM    H8T11859   0.831   0.289  10.486 -0.4045 -1.5121  1.8817
  114OSM    C9S11860   0.702   0.450  10.396 -0.4638  0.0143  0.4714
  114OSM    H9S11861   0.780   0.521  10.362 -1.0426  0.2207 -0.4688
  114OSM    H9T11862   0.622   0.516  10.437 -0.8269  1.3240 -2.1397
  114OSM   C10S11863   0.651   0.390  10.263  0.5445  0.0601  0.8871
  114OSM   H10S11864   0.722   0.329  10.203 -0.6708  2.0201 -2.8547
  114OSM   H10T11865   0.636   0.481  10.201 -0.2866 -0.3589  0.4538
  114OSM   C11S11866   0.520   0.318  10.266 -0.2443 -0.5997 -0.1917
  114OSM   H11S11867   0.436   0.384  10.297  0.4530  0.6293 -0.8442
  114OSM   H11T11868   0.530   0.231  10.333 -3.9108 -2.0160 -1.2001
  114OSM   C12S11869   0.474   0.246  10.136 -0.3245 -0.2716  0.4633
  114OSM   H12S11870   0.557   0.180  10.104  0.6916  0.4911  1.4313
  114OSM   H12T11871   0.478   0.332  10.066 -0.0940 -0.2934  0.4495
  114OSM   C13S11872   0.325   0.190  10.128 -0.4392 -0.2913  0.3227
  114OSM   H13S11873   0.253   0.274  10.134  1.3536  1.3287  0.3867
  114OSM   H13T11874   0.319   0.132  10.223  0.0954 -0.7524  0.0839
  114OSM   C14S11875   0.294   0.114  10.000  0.5267  0.0416 -0.2268
  114OSM   H14S11876   0.308   0.187   9.917 -1.1761  1.0930  0.3445
  114OSM   H14T11877   0.185   0.093   9.995  1.0018 -2.5193 -2.3210
  114OSM   C15S11878   0.377  -0.019   9.980  0.0761  0.3683 -0.2618
  114OSM   H15S11879   0.356  -0.082  10.069 -2.4148 -0.4944 -1.3757
  114OSM   H15T11880   0.487  -0.004   9.978 -0.0783  1.6304 -1.2826
  114OSM   C16S11881   0.344  -0.104   9.850 -0.0902 -0.2842 -0.4632
  114OSM   H16S11882   0.360  -0.043   9.759  0.9061  0.4761  0.1986
  114OSM   H16T11883   0.240  -0.130   9.879  0.7745 -1.8796  1.4601
  114OSM   C17S11884   0.420  -0.229   9.843  0.8129  0.6640 -0.2432
  114OSM   H17S11885   0.396  -0.308   9.917  1.0986  0.4623 -0.3635
  114OSM   H17T11886   0.527  -0.202   9.848  0.4503  2.4875 -1.3925
  114OSM   C18S11887   0.407  -0.310   9.716  1.2521  0.6522  0.2738
  114OSM   H18S11888   0.431  -0.258   9.620  0.1828  0.1030 -0.3118
  114OSM   H18T11889   0.302  -0.345   9.706  1.9206 -1.2511 -0.6946
  114OSM   H18U11890   0.468  -0.402   9.717  0.7705  0.3283  0.3789
  114OSM    C1F11891   1.050   0.679  11.055 -0.1914 -0.1140  0.2650
  114OSM     OF11892   1.119   0.602  11.125 -0.2513  0.3186 -0.0598
  114OSM    C2F11893   1.121   0.791  10.981  0.2204  0.1662 -0.0341
  114OSM    H2F11894   1.134   0.874  11.053  0.0511 -2.4604  3.2589
  114OSM    H2G11895   1.052   0.825  10.900  0.9996  0.7120 -0.4780
  114OSM    C3F11896   1.252   0.753  10.908  0.2030 -0.2403  0.4651
  114OSM    H3F11897   1.326   0.716  10.982  0.3051 -2.9195 -0.8738
  114OSM    H3G11898   1.296   0.843  10.860 -1.4344 -0.2371 -1.1232
  114OSM    C4F11899   1.238   0.644  10.798  0.0237 -0.5085 -0.6592
  114OSM    H4F11900   1.192   0.561  10.856  0.5819 -0.1186  0.3745
  114OSM    H4G11901   1.336   0.611  10.757  0.1298 -0.3843 -0.5086
  114OSM    C5F11902   1.155   0.686  10.674 -0.2022 -0.2724 -0.0537
  114OSM    H5F11903   1.196   0.776  10.625 -2.2568  1.3768  1.0675
  114OSM    H5G11904   1.052   0.714  10.705  0.3596  0.8685  0.8503
  114OSM    C6F11905   1.148   0.568  10.578  0.0972 -0.2941 -0.7536
  114OSM    H6F11906   1.111   0.482  10.639 -0.5679  1.2326  1.1157
  114OSM    H6G11907   1.246   0.530  10.544  0.5994  0.4159 -0.1341
  114OSM    C7F11908   1.050   0.593  10.465 -0.0771 -0.0540  0.5757
  114OSM    H7F11909   0.949   0.608  10.508 -0.8012 -0.5441 -0.9104
  114OSM    H7G11910   1.046   0.493  10.415 -1.5306  0.8544 -1.2289
  114OSM    C8F11911   1.094   0.685  10.347  0.2633 -0.2210  0.0162
  114OSM    H8F11912   1.192   0.647  10.314 -0.2303 -4.2468  2.5121
  114OSM    H8G11913   1.108   0.788  10.386  2.7102 -1.1052  1.7028
  114OSM    C9F11914   0.994   0.671  10.236 -0.8998 -0.4481  0.0945
  114OSM    H9F11915   0.892   0.707  10.254 -0.4882  0.7617  0.0664
  114OSM   C10F11916   1.021   0.623  10.112  0.1188  0.1202 -0.3105
  114OSM   H10F11917   0.936   0.630  10.042 -1.4768  0.1138  1.5272
  114OSM   C11F11918   1.142   0.557  10.060  0.7181  1.1899 -0.1141
  114OSM   H11F11919   1.229   0.561  10.129  1.1975 -1.5994 -0.4539
  114OSM   H11G11920   1.174   0.616   9.972  0.5936  2.7904  0.8646
  114OSM   C12F11921   1.123   0.413  10.027  0.0125 -0.3597 -0.4837
  114OSM   H12F11922   1.103   0.359  10.122  1.6443  0.5520  0.4237
  114OSM   H12G11923   1.222   0.369  10.004  1.0565  2.5347 -1.9407
  114OSM   C13F11924   1.029   0.393   9.911 -0.5017  0.1091 -0.5785
  114OSM   H13F11925   1.048   0.458   9.824 -2.1017  0.2329 -0.8817
  114OSM   H13G11926   0.927   0.411   9.954 -0.2610 -2.5757  1.4025
  114OSM   C14F11927   1.040   0.243   9.862 -0.1482 -0.4864  0.6422
  114OSM   H14F11928   1.016   0.185   9.953 -1.6731 -3.3335 -1.4050
  114OSM   H14G11929   1.147   0.231   9.833 -0.1748 -0.2099  0.4244
  114OSM   C15F11930   0.951   0.197   9.744  0.0274 -0.0599  0.1823
  114OSM   H15F11931   0.968   0.089   9.761 -0.5921  0.0408  1.6205
  114OSM   H15G11932   0.983   0.231   9.644  1.3858  0.8694  0.9013
  114OSM   C16F11933   0.803   0.232   9.762 -0.0189  0.2423 -0.2905
  114OSM   H16F11934   0.783   0.338   9.734  1.1219  1.4161  2.8534
  114OSM   H16G11935   0.799   0.226   9.873 -0.6811  3.1318 -0.0815
  114OSM   C17F11936   0.699   0.135   9.701  0.2424 -0.0734 -0.3016
  114OSM   H17F11937   0.714   0.141   9.591  1.1307  0.4507 -0.1630
  114OSM   H17G11938   0.600   0.179   9.727 -0.5795 -2.5114  1.0814
  114OSM   C18F11939   0.698  -0.018   9.752  0.9992  0.0924  0.4802
  114OSM   H18F11940   0.697  -0.030   9.862  0.3238 -0.6455  0.3995
  114OSM   H18G11941   0.787  -0.070   9.710  1.1133  0.1472  0.6569
  114OSM   H18H11942   0.611  -0.067   9.703 -1.0070  1.0665  2.8648
  115OSM      N11943   1.020   4.088   6.144 -0.2617 -0.3490 -0.2199
  115OSM    C1511944   0.960   4.202   6.069 -0.1131 -0.6050 -0.0079
  115OSM   H15A11945   0.928   4.171   5.971 -1.2244 -0.8954  0.4255
  115OSM   H15B11946   1.036   4.278   6.062  1.5391 -2.1843  0.1350
  115OSM   H15C11947   0.870   4.229   6.123  0.0850  0.7090 -0.3148
  115OSM    C1411948   0.931   3.970   6.145  0.0922 -0.7682  0.5398
  115OSM   H14A11949   0.941   3.904   6.059 -1.8658 -0.7328  0.2359
  115OSM   H14B11950   0.828   3.993   6.166  0.2440 -0.7679  1.2948
  115OSM   H14C11951   0.958   3.908   6.230 -1.1955 -0.2773  1.3382
  115OSM    C1311952   1.145   4.059   6.077 -0.0530 -0.1220 -0.4532
  115OSM   H13A11953   1.214   4.142   6.077  0.6182 -0.6711 -0.2206
  115OSM   H13B11954   1.134   4.029   5.973 -0.6479 -2.0116  0.0979
  115OSM   H13C11955   1.183   3.970   6.125  0.6964  0.0178 -0.7799
  115OSM    C1211956   1.069   4.138   6.282 -0.0906  0.6218  0.0095
  115OSM   H12A11957   1.116   4.235   6.271  0.6761  0.2773  0.1555
  115OSM   H12B11958   1.138   4.063   6.317 -0.7874  1.0435  2.5141
  115OSM    C1111959   0.970   4.171   6.402  0.2818 -0.0767  0.3036
  115OSM   H11A11960   1.015   4.195   6.500  0.3746  0.2215  0.1890
  115OSM   H11B11961   0.919   4.074   6.423 -1.4462  0.6744 -0.1910
  115OSM      P11962   0.904   4.420   6.356 -0.3505  0.1783  0.1913
  115OSM    O1311963   1.048   4.451   6.326  0.5446  0.6584 -0.7853
  115OSM    O1411964   0.803   4.491   6.276  0.3205  0.0371  0.3240
  115OSM    O1111965   0.873   4.468   6.511 -0.6829 -0.0406 -0.2693
  115OSM    O1211966   0.875   4.261   6.355  0.0246 -0.6715 -0.2495
  115OSM    C1S11967   0.757   4.415   6.568 -0.0897 -0.8751  0.0323
  115OSM    H1S11968   0.745   4.308   6.541 -1.7244  0.0572 -3.5029
  115OSM    H1T11969   0.666   4.469   6.533 -0.4703 -1.6641 -0.2265
  115OSM     NF11970   0.665   4.340   6.782 -0.7798 -0.1995 -0.5238
  115OSM    HNF11971   0.578   4.373   6.816 -0.2140  0.2301  0.5378
  115OSM    C2S11972   0.767   4.423   6.722 -0.3940 -0.1436  0.4453
  115OSM    H2S11973   0.866   4.385   6.757  0.4212  0.4048 -1.1620
  115OSM    C3S11974   0.755   4.577   6.771  0.6016 -0.4935  0.0155
  115OSM    H3S11975   0.660   4.625   6.740  0.6564 -1.4721 -1.8420
  115OSM     O311976   0.856   4.662   6.707  0.5103  0.1943  0.0218
  115OSM    HO311977   0.895   4.606   6.639  2.4010  3.1210 -1.5154
  115OSM    C4S11978   0.760   4.592   6.918  0.2045 -0.0307 -0.6254
  115OSM    H4S11979   0.680   4.537   6.971  0.7262  0.4269  0.6578
  115OSM    C5S11980   0.843   4.666   6.996 -0.2785  0.4416 -0.5087
  115OSM    H5S11981   0.917   4.723   6.939 -1.2489  2.0767 -0.2092
  115OSM    C6S11982   0.847   4.684   7.145  0.1370  0.6389  0.1278
  115OSM    H6S11983   0.815   4.789   7.164  0.2463  0.5078  1.0560
  115OSM    H6T11984   0.947   4.653   7.181 -0.9339 -3.7222 -0.0971
  115OSM    C7S11985   0.751   4.601   7.226 -0.5477  0.2049 -0.2958
  115OSM    H7S11986   0.766   4.492   7.211 -1.1385  0.0620  0.1279
  115OSM    H7T11987   0.645   4.626   7.203 -1.4438 -0.6643  2.5638
  115OSM    C8S11988   0.781   4.623   7.375  0.3831 -0.0895 -0.8078
  115OSM    H8S11989   0.771   4.729   7.409  2.2712 -0.6381  1.7113
  115OSM    H8T11990   0.886   4.601   7.403  0.8482  2.2512 -0.5120
  115OSM    C9S11991   0.695   4.532   7.460  0.1311 -1.1180 -0.2433
  115OSM    H9S11992   0.709   4.432   7.413  2.2089 -1.1575  0.3396
  115OSM    H9T11993   0.590   4.565   7.449 -0.0021  0.3417  3.8555
  115OSM   C10S11994   0.739   4.522   7.608 -0.1532  0.7501 -0.1298
  115OSM   H10S11995   0.843   4.483   7.610 -0.2951  0.4005  0.9225
  115OSM   H10T11996   0.694   4.440   7.668  3.3268 -0.7593  0.6751
  115OSM   C11S11997   0.734   4.652   7.690  0.0339  0.2000 -0.1345
  115OSM   H11S11998   0.625   4.661   7.712  0.0266 -1.4967  0.6520
  115OSM   H11T11999   0.767   4.743   7.635 -1.3210  1.8210  1.5717
  115OSM   C12S12000   0.805   4.643   7.825 -0.5538  0.1444  0.2152
  115OSM   H12S12001   0.826   4.741   7.873  3.2283 -0.5740  0.3461
  115OSM   H12T12002   0.915   4.628   7.812 -0.4297  1.8344 -1.1415
  115OSM   C13S12003   0.743   4.553   7.927 -0.0429  0.2004  0.5329
  115OSM   H13S12004   0.755   4.447   7.894 -2.7347  0.2833 -0.9598
  115OSM   H13T12005   0.638   4.589   7.939 -0.3676 -0.8270  0.9860
  115OSM   C14S12006   0.806   4.559   8.068  0.1131 -0.0272  0.7185
  115OSM   H14S12007   0.786   4.659   8.113  0.5890 -0.4013  1.7880
  115OSM   H14T12008   0.913   4.530   8.062 -0.1184 -1.2603  2.0514
  115OSM   C15S12009   0.742   4.457   8.161  0.7065 -0.2497  0.0643
  115OSM   H15S12010   0.631   4.457   8.153  0.5661  0.2851  1.6162
  115OSM   H15T12011   0.773   4.477   8.266  1.0573 -1.7957  0.2760
  115OSM   C16S12012   0.787   4.317   8.120  0.1879  0.0749  0.5095
  115OSM   H16S12013   0.898   4.314   8.119  0.1580 -1.5535 -0.2621
  115OSM   H16T12014   0.748   4.290   8.020  0.5293 -2.2950  0.9633
  115OSM   C17S12015   0.744   4.210   8.225 -0.3951 -0.7014 -0.0764
  115OSM   H17S12016   0.636   4.196   8.246 -0.3338 -1.2524 -0.1148
  115OSM   H17T12017   0.792   4.254   8.315  0.4604  0.5690 -1.0982
  115OSM   C18S12018   0.799   4.081   8.172  0.0975 -0.6378 -0.2746
  115OSM   H18S12019   0.903   4.096   8.133  0.6435 -0.2856  1.2548
  115OSM   H18T12020   0.735   4.070   8.081 -0.6993 -0.5107  0.2655
  115OSM   H18U12021   0.790   3.994   8.240  1.3857 -0.9323 -0.4478
  115OSM    C1F12022   0.681   4.208   6.791  0.1965  0.5895  0.5662
  115OSM     OF12023   0.779   4.153   6.742 -0.1227 -0.1581 -0.1099
  115OSM    C2F12024   0.560   4.126   6.843  0.1953  0.1059 -1.0324
  115OSM    H2F12025   0.514   4.075   6.755  1.9139 -0.5160 -1.6060
  115OSM    H2G12026   0.472   4.186   6.875  1.2961  0.4827  1.4902
  115OSM    C3F12027   0.611   4.028   6.950 -0.3900 -0.3229 -0.4763
  115OSM    H3F12028   0.686   3.957   6.909  1.2568  1.1299 -0.1372
  115OSM    H3G12029   0.536   3.959   6.995  0.7094  0.1016  2.2237
  115OSM    C4F12030   0.680   4.105   7.072  0.0730  0.7533 -0.6911
  115OSM    H4F12031   0.613   4.185   7.111  1.3783  1.9331 -0.7915
  115OSM    H4G12032   0.776   4.149   7.037  0.8998 -0.0833  0.4896
  115OSM    C5F12033   0.729   4.010   7.181 -0.0049 -0.2415  0.0928
  115OSM    H5F12034   0.805   3.953   7.123  0.8711  1.5097 -0.5485
  115OSM    H5G12035   0.643   3.952   7.222 -1.3492  1.8218  0.3321
  115OSM    C6F12036   0.793   4.104   7.288  0.0805 -0.1594 -0.3993
  115OSM    H6F12037   0.724   4.191   7.299  2.4063  1.5575  1.8316
  115OSM    H6G12038   0.895   4.132   7.253 -0.3207 -0.2184 -1.6709
  115OSM    C7F12039   0.804   4.042   7.429  0.1873 -0.6718 -0.3765
  115OSM    H7F12040   0.901   3.987   7.433  1.5463  1.6247  1.2127
  115OSM    H7G12041   0.726   3.965   7.444  1.0753 -1.5247 -0.0205
  115OSM    C8F12042   0.815   4.156   7.536 -0.3642  0.4681  0.5435
  115OSM    H8F12043   0.713   4.196   7.557 -0.7815 -1.4550  2.5690
  115OSM    H8G12044   0.872   4.243   7.498 -1.7071  0.9035 -0.5848
  115OSM    C9F12045   0.865   4.116   7.676 -0.0066 -0.0157 -0.6110
  115OSM    H9F12046   0.971   4.124   7.704 -0.6249 -2.9796  3.7252
  115OSM   C10F12047   0.796   4.064   7.773  0.6002  0.1363 -0.4727
  115OSM   H10F12048   0.854   4.018   7.855 -1.1411 -4.1162 -1.3474
  115OSM   C11F12049   0.645   4.035   7.780 -0.5070  0.0015 -0.2589
  115OSM   H11F12050   0.593   4.058   7.685 -1.2059 -1.0150 -0.1393
  115OSM   H11G12051   0.607   4.104   7.858  2.3058  1.7758 -0.2877
  115OSM   C12F12052   0.619   3.890   7.818  0.2473 -0.2641 -0.1883
  115OSM   H12F12053   0.682   3.850   7.900  0.1046  0.5940  0.3498
  115OSM   H12G12054   0.651   3.834   7.726  2.2876 -1.6002  1.2407
  115OSM   C13F12055   0.469   3.865   7.848 -0.2528  0.5486  0.6082
  115OSM   H13F12056   0.457   3.755   7.857 -0.7409  0.3710 -1.6289
  115OSM   H13G12057   0.396   3.903   7.773  1.2555  1.2172 -0.5525
  115OSM   C14F12058   0.433   3.919   7.989  0.0067 -0.3141  0.2114
  115OSM   H14F12059   0.462   4.026   7.995 -0.1847 -0.1276 -1.6704
  115OSM   H14G12060   0.508   3.883   8.062  0.1298 -1.5051 -0.4877
  115OSM   C15F12061   0.286   3.891   8.029 -0.2588 -0.0519  0.1518
  115OSM   H15F12062   0.281   3.780   8.027  3.8477 -0.3802 -0.1738
  115OSM   H15G12063   0.218   3.931   7.951  0.0651  0.6654  0.2269
  115OSM   C16F12064   0.260   3.949   8.167  0.7224 -0.2779 -0.4206
  115OSM   H16F12065   0.272   4.059   8.165 -0.6132 -0.1196 -0.0567
  115OSM   H16G12066   0.320   3.903   8.248  1.7395  1.0313 -0.3905
  115OSM   C17F12067   0.109   3.931   8.214 -0.3142 -0.2615  0.1181
  115OSM   H17F12068   0.050   3.916   8.122  0.1247 -0.2595 -0.1664
  115OSM   H17G12069   0.066   4.023   8.260  1.7688  0.7192  0.2390
  115OSM   C18F12070   0.103   3.812   8.318 -0.4408 -0.1102 -0.3899
  115OSM   H18F12071  -0.004   3.798   8.345  0.4182 -1.3886  2.7198
  115OSM   H18G12072   0.164   3.831   8.408 -1.2278  0.1522  0.0944
  115OSM   H18H12073   0.133   3.718   8.268 -0.2468 -0.5361  0.5104
  116OSM      N12074   0.693   1.020   6.094 -0.7451 -0.0122 -0.0717
  116OSM    C1512075   0.598   0.908   6.123  0.7103 -0.9157 -0.0932
  116OSM   H15A12076   0.628   0.828   6.189 -1.9752 -1.2450  0.8790
  116OSM   H15B12077   0.559   0.851   6.040  0.4417 -1.0785  0.1414
  116OSM   H15C12078   0.506   0.943   6.169  0.2476 -1.0684 -0.8851
  116OSM    C1412079   0.807   0.960   6.023  0.5519  0.5711 -0.3131
  116OSM   H14A12080   0.881   1.036   6.002 -0.3380  1.3008 -0.8852
  116OSM   H14B12081   0.777   0.929   5.924 -0.8487 -0.6015  0.4321
  116OSM   H14C12082   0.849   0.877   6.077  0.2502  1.1710  0.8704
  116OSM    C1312083   0.630   1.131   6.003  0.2817 -0.2940  0.1138
  116OSM   H13A12084   0.705   1.208   5.996  0.2253 -0.1412  0.9881
  116OSM   H13B12085   0.538   1.171   6.043 -1.6581 -2.7392 -1.5957
  116OSM   H13C12086   0.605   1.109   5.901 -0.2226  0.6907  0.0200
  116OSM    C1212087   0.744   1.079   6.223 -0.9079 -0.4133  0.2377
  116OSM   H12A12088   0.793   1.005   6.285  0.3982  1.5081  1.6265
  116OSM   H12B12089   0.658   1.119   6.275 -1.2878 -0.7126 -0.1582
  116OSM    C1112090   0.846   1.192   6.213  0.6201  0.1267  0.7123
  116OSM   H11A12091   0.937   1.146   6.168 -0.2710 -0.5869 -0.4314
  116OSM   H11B12092   0.888   1.232   6.307 -0.2578  1.0555  0.7277
  116OSM      P12093   0.715   1.416   6.211 -0.4311 -0.7592 -0.1632
  116OSM    O1312094   0.813   1.520   6.239 -0.4064  0.6484  0.1166
  116OSM    O1412095   0.600   1.446   6.127  0.2666  0.0121 -0.4034
  116OSM    O1112096   0.682   1.349   6.348  0.2350 -0.5382  0.0488
  116OSM    O1212097   0.794   1.302   6.139 -0.1375 -0.1177 -0.0467
  116OSM    C1S12098   0.581   1.409   6.429 -0.2179  0.1556 -0.2672
  116OSM    H1S12099   0.485   1.404   6.373 -2.6308  1.2563  3.3816
  116OSM    H1T12100   0.615   1.514   6.441  3.0748 -0.5519 -2.2049
  116OSM     NF12101   0.448   1.366   6.621 -0.6562 -0.4457  0.2527
  116OSM    HNF12102   0.451   1.451   6.673 -0.1449  0.0742 -0.6188
  116OSM    C2S12103   0.564   1.313   6.556  0.8482  0.0827  0.1591
  116OSM    H2S12104   0.538   1.210   6.524 -0.5590  1.0204 -1.9405
  116OSM    C3S12105   0.691   1.296   6.646 -0.6377 -0.2604  0.3289
  116OSM    H3S12106   0.704   1.393   6.698 -1.4994  0.2094 -0.3163
  116OSM     O312107   0.814   1.269   6.569 -0.1117  0.0151  0.4645
  116OSM    HO312108   0.784   1.305   6.485  0.2821 -1.2489 -0.2315
  116OSM    C4S12109   0.666   1.195   6.755  0.8161 -1.1032  0.5856
  116OSM    H4S12110   0.621   1.248   6.840  0.4579 -0.7631  0.1887
  116OSM    C5S12111   0.683   1.065   6.748 -0.3897 -0.4106 -0.1202
  116OSM    H5S12112   0.725   1.010   6.662  1.4360 -0.3425  0.7017
  116OSM    C6S12113   0.646   0.970   6.862 -0.5277 -0.4613  0.4522
  116OSM    H6S12114   0.624   0.880   6.801  0.5406 -0.3135 -0.1664
  116OSM    H6T12115   0.548   1.006   6.900 -0.4062 -1.6165  1.9635
  116OSM    C7S12116   0.751   0.938   6.976  0.5895 -0.0319  0.1938
  116OSM    H7S12117   0.842   0.902   6.923  1.8833  3.6240 -0.3242
  116OSM    H7T12118   0.709   0.849   7.027 -0.5379 -1.0545 -2.3918
  116OSM    C8S12119   0.784   1.053   7.068 -0.6593  0.4822  0.2817
  116OSM    H8S12120   0.752   1.145   7.015 -1.2143 -1.0522 -2.2364
  116OSM    H8T12121   0.894   1.051   7.079 -0.6701  0.5918  0.4040
  116OSM    C9S12122   0.730   1.039   7.212  0.0415  0.7054  0.3746
  116OSM    H9S12123   0.780   0.945   7.243 -2.8757 -1.5320 -1.2894
  116OSM    H9T12124   0.622   1.018   7.204  0.3018  0.2222 -2.7376
  116OSM   C10S12125   0.755   1.146   7.317 -0.4280  0.6092  0.0758
  116OSM   H10S12126   0.706   1.240   7.284 -2.3020  0.1691  1.4060
  116OSM   H10T12127   0.864   1.166   7.304 -0.0232 -2.0504 -1.2321
  116OSM   C11S12128   0.713   1.105   7.462 -0.0748  0.0110  0.3019
  116OSM   H11S12129   0.751   1.005   7.494 -1.4740 -0.5858  0.1654
  116OSM   H11T12130   0.602   1.103   7.465 -0.1864  2.1214 -0.6975
  116OSM   C12S12131   0.753   1.204   7.563  0.0376 -0.2889  0.1218
  116OSM   H12S12132   0.695   1.295   7.541 -1.7989 -0.9030  2.0768
  116OSM   H12T12133   0.861   1.227   7.575 -0.0293 -0.7547  1.8498
  116OSM   C13S12134   0.716   1.167   7.708  0.1653 -0.5831 -0.1821
  116OSM   H13S12135   0.765   1.073   7.739  0.4735 -0.5755 -0.6386
  116OSM   H13T12136   0.607   1.148   7.697  0.0102  1.1334 -2.2287
  116OSM   C14S12137   0.743   1.273   7.809 -0.0693  0.4621  0.2229
  116OSM   H14S12138   0.698   1.368   7.774 -0.3681  0.0285 -0.6054
  116OSM   H14T12139   0.853   1.287   7.819  0.2606 -1.4379 -0.2419
  116OSM   C15S12140   0.676   1.236   7.943  0.5357  0.3559 -0.5315
  116OSM   H15S12141   0.703   1.140   7.992 -0.1175  2.5979  4.9056
  116OSM   H15T12142   0.572   1.197   7.938  1.1225 -1.2515 -0.8584
  116OSM   C16S12143   0.686   1.343   8.053 -0.5460 -0.1732  0.5918
  116OSM   H16S12144   0.634   1.436   8.019  2.2681  1.4657  0.4039
  116OSM   H16T12145   0.793   1.376   8.048 -0.4692 -0.3078  1.2180
  116OSM   C17S12146   0.645   1.305   8.191  0.6360  0.0013  0.1820
  116OSM   H17S12147   0.726   1.238   8.224  1.4409  0.2289 -1.2259
  116OSM   H17T12148   0.550   1.247   8.190  0.1615  0.7040  1.6370
  116OSM   C18S12149   0.643   1.422   8.289  0.9755  0.9374  0.7117
  116OSM   H18S12150   0.560   1.492   8.267  1.0272  0.7832  0.0056
  116OSM   H18T12151   0.737   1.480   8.275  0.6916  0.9638 -1.2560
  116OSM   H18U12152   0.642   1.392   8.396  2.5193 -0.2187  0.4434
  116OSM    C1F12153   0.329   1.350   6.570 -0.0025  0.4472 -0.3912
  116OSM     OF12154   0.309   1.282   6.470 -0.0991  0.6427  0.4600
  116OSM    C2F12155   0.214   1.424   6.627  0.3441  0.3923  0.3066
  116OSM    H2F12156   0.148   1.456   6.543  0.6103 -0.7457 -0.3687
  116OSM    H2G12157   0.246   1.516   6.679 -0.8701 -0.0081  1.8472
  116OSM    C3F12158   0.135   1.335   6.727 -0.0560  0.1116 -0.2173
  116OSM    H3F12159   0.084   1.252   6.675  1.1053 -0.2405 -0.8106
  116OSM    H3G12160   0.061   1.405   6.773  0.6698  0.1511  0.9443
  116OSM    C4F12161   0.228   1.271   6.833 -0.6710 -0.7460 -0.5069
  116OSM    H4F12162   0.287   1.357   6.870 -1.1455 -0.1378 -1.1318
  116OSM    H4G12163   0.299   1.203   6.780 -0.1786 -0.4970 -0.1702
  116OSM    C5F12164   0.158   1.192   6.934  0.0142  0.5195 -0.6850
  116OSM    H5F12165   0.100   1.115   6.878 -0.6490  0.0762  0.5570
  116OSM    H5G12166   0.097   1.265   6.991  0.3073 -1.0342  1.7593
  116OSM    C6F12167   0.257   1.133   7.031  0.0095  0.3326 -0.2079
  116OSM    H6F12168   0.308   1.213   7.088  0.9013 -0.9970  0.9147
  116OSM    H6G12169   0.338   1.076   6.981 -1.2331 -2.0694  0.4027
  116OSM    C7F12170   0.196   1.032   7.130 -0.1171 -0.1949  0.0469
  116OSM    H7F12171   0.180   0.934   7.079 -1.5738  0.0812 -0.0491
  116OSM    H7G12172   0.094   1.066   7.156 -0.7162 -2.3101  0.6497
  116OSM    C8F12173   0.290   1.008   7.250  0.4874 -0.6976 -0.7453
  116OSM    H8F12174   0.391   0.973   7.218 -0.6147 -0.8201 -4.5734
  116OSM    H8G12175   0.252   0.924   7.312  0.6425 -0.6786 -0.6223
  116OSM    C9F12176   0.306   1.132   7.342 -0.3986  0.3473  0.6383
  116OSM    H9F12177   0.365   1.213   7.296  1.8789 -2.7411 -2.4601
  116OSM   C10F12178   0.274   1.136   7.475  1.0489  0.1614 -0.6659
  116OSM   H10F12179   0.304   1.222   7.538 -0.7507  0.2880  0.0765
  116OSM   C11F12180   0.224   1.020   7.563 -0.8623  0.3314  0.2504
  116OSM   H11F12181   0.190   0.926   7.513  3.1673 -0.6729 -0.9468
  116OSM   H11G12182   0.133   1.055   7.616 -1.4845 -1.4277  0.4060
  116OSM   C12F12183   0.342   0.983   7.662 -0.1788  0.7548  0.0957
  116OSM   H12F12184   0.439   1.024   7.628  0.5447  1.2990  2.6187
  116OSM   H12G12185   0.340   0.872   7.667  2.4259  0.7028  1.6782
  116OSM   C13F12186   0.317   1.034   7.802 -0.2533 -0.5790 -0.3968
  116OSM   H13F12187   0.211   1.019   7.832 -0.2464 -1.3273 -0.7071
  116OSM   H13G12188   0.337   1.143   7.811 -0.7332 -0.2011 -3.1581
  116OSM   C14F12189   0.413   0.968   7.908  0.0694 -0.0042 -0.4643
  116OSM   H14F12190   0.521   0.982   7.885  0.3610  2.0932  1.7675
  116OSM   H14G12191   0.389   0.860   7.900 -3.1322  0.5150  0.3837
  116OSM   C15F12192   0.390   1.007   8.062 -0.3890 -0.2197  0.1762
  116OSM   H15F12193   0.288   0.986   8.102 -1.0497  0.3975 -1.1317
  116OSM   H15G12194   0.395   1.118   8.066  0.8133 -0.1853 -1.4043
  116OSM   C16F12195   0.491   0.942   8.153 -0.7661  0.0857  0.1826
  116OSM   H16F12196   0.586   0.997   8.134 -1.1859  0.4200 -1.0398
  116OSM   H16G12197   0.511   0.835   8.130  2.5637  0.8783 -1.1932
  116OSM   C17F12198   0.480   0.967   8.309  0.5591  0.0755 -0.2940
  116OSM   H17F12199   0.388   0.910   8.335 -1.2689  3.0389  0.2054
  116OSM   H17G12200   0.474   1.075   8.334  1.7194  0.3338 -1.0400
  116OSM   C18F12201   0.609   0.906   8.380  0.2675  0.3979  0.5601
  116OSM   H18F12202   0.701   0.957   8.344 -1.4513  2.9376 -0.5397
  116OSM   H18G12203   0.609   0.800   8.348 -1.7364 -0.1563  2.1655
  116OSM   H18H12204   0.613   0.909   8.491  0.4044 -1.8998  0.6682
  117OSM      N12205   5.136   3.616   6.572 -0.0508  0.1568 -0.1259
  117OSM    C1512206   5.263   3.539   6.579  0.4384 -0.3447  0.4544
  117OSM   H15A12207   5.328   3.554   6.665  1.6566 -1.5042 -0.2307
  117OSM   H15B12208   5.324   3.561   6.493 -0.4134 -2.3779 -0.7287
  117OSM   H15C12209   5.242   3.433   6.573 -2.5635  0.0403  2.0603
  117OSM    C1412210   5.062   3.603   6.446 -0.3058  0.4885 -0.2816
  117OSM   H14A12211   5.033   3.499   6.445  2.3917 -0.3531 -0.4667
  117OSM   H14B12212   5.126   3.620   6.361 -0.6011  0.5492 -0.4923
  117OSM   H14C12213   4.974   3.662   6.426 -1.4396 -1.8318 -2.5322
  117OSM    C1312214   5.050   3.581   6.696  0.9359  0.5740  0.5740
  117OSM   H13A12215   4.963   3.643   6.709 -0.5201 -1.3280  0.4034
  117OSM   H13B12216   5.111   3.581   6.786  0.5116 -0.8347  0.8826
  117OSM   H13C12217   5.005   3.486   6.673 -2.2200  1.7588  1.2954
  117OSM    C1212218   5.171   3.760   6.585  0.4405  0.1756  0.3577
  117OSM   H12A12219   5.208   3.779   6.685 -2.2434  2.2767  1.0648
  117OSM   H12B12220   5.088   3.829   6.591  0.2577 -0.0542  0.4786
  117OSM    C1112221   5.267   3.826   6.484 -0.4355  0.3180 -0.1177
  117OSM   H11A12222   5.365   3.776   6.471 -0.9622 -0.7208 -0.1842
  117OSM   H11B12223   5.289   3.919   6.540 -2.0426 -1.0755  3.0591
  117OSM      P12224   5.096   3.964   6.347  0.0162  0.0623 -0.1840
  117OSM    O1312225   5.162   4.075   6.282 -0.6051 -0.0922  0.3202
  117OSM    O1412226   4.971   3.922   6.277 -0.1269 -0.2337  0.5366
  117OSM    O1112227   5.050   4.014   6.485  0.0863  0.1890  0.4218
  117OSM    O1212228   5.193   3.837   6.365  0.4114 -0.0458  0.1418
  117OSM    C1S12229   4.966   4.130   6.496 -0.5427  0.1534  0.4785
  117OSM    H1S12230   4.865   4.095   6.463 -0.0003 -2.0026  0.9356
  117OSM    H1T12231   4.992   4.219   6.435 -1.0315 -1.4883 -2.2715
  117OSM     NF12232   4.832   4.264   6.644  0.2183  0.0533 -0.6499
  117OSM    HNF12233   4.861   4.357   6.666  3.3119 -1.0222  0.2505
  117OSM    C2S12234   4.936   4.169   6.648  0.1278  0.5084 -0.1248
  117OSM    H2S12235   4.891   4.077   6.689 -0.2499  0.2988 -0.9800
  117OSM    C3S12236   5.072   4.212   6.713 -0.1340 -0.4887 -0.4451
  117OSM    H3S12237   5.112   4.305   6.667 -0.3384  0.7874  1.7728
  117OSM     O312238   5.176   4.116   6.693 -0.7776  0.1892 -0.0556
  117OSM    HO312239   5.131   4.060   6.630  0.4640  0.6213 -1.3792
  117OSM    C4S12240   5.053   4.230   6.863 -0.1413 -0.3522  0.0590
  117OSM    H4S12241   5.073   4.146   6.930 -0.5840  1.4008  2.5513
  117OSM    C5S12242   5.025   4.342   6.931 -0.4137 -0.3749 -0.0536
  117OSM    H5S12243   5.000   4.434   6.876  2.4267 -0.5020 -1.7831
  117OSM    C6S12244   5.011   4.339   7.086  0.0582  0.3767  0.6958
  117OSM    H6S12245   5.088   4.406   7.128 -0.3870  1.2002  0.2122
  117OSM    H6T12246   5.022   4.236   7.128  0.8941 -0.5311 -1.5905
  117OSM    C7S12247   4.875   4.375   7.145 -0.5115 -0.4488 -0.1928
  117OSM    H7S12248   4.793   4.316   7.100 -1.4570  1.1674 -0.6916
  117OSM    H7T12249   4.850   4.480   7.118  0.8299  0.1078  0.6021
  117OSM    C8S12250   4.893   4.360   7.302 -0.1847  0.1097  0.1966
  117OSM    H8S12251   4.988   4.409   7.334 -0.9184  1.2825  0.6475
  117OSM    H8T12252   4.899   4.253   7.331  0.1205  0.6462  2.3528
  117OSM    C9S12253   4.778   4.419   7.385  0.2582 -0.3783  0.1287
  117OSM    H9S12254   4.677   4.374   7.369 -0.1453  0.4201  0.3741
  117OSM    H9T12255   4.781   4.526   7.357  1.9322 -0.6552 -0.8480
  117OSM   C10S12256   4.802   4.410   7.536 -0.5130 -0.5157 -0.3369
  117OSM   H10S12257   4.816   4.306   7.570  1.3723 -0.7878 -1.7551
  117OSM   H10T12258   4.719   4.466   7.584 -1.4710 -0.2275 -2.2257
  117OSM   C11S12259   4.919   4.490   7.592 -0.1060 -0.7197 -0.6762
  117OSM   H11S12260   4.908   4.593   7.553  0.6760  0.9465  3.0346
  117OSM   H11T12261   5.026   4.475   7.566  0.6398  4.0865 -1.3470
  117OSM   C12S12262   4.916   4.510   7.752 -0.3321 -0.0463  0.2633
  117OSM   H12S12263   4.827   4.570   7.781  0.2299  0.6277  0.6190
  117OSM   H12T12264   4.999   4.576   7.783 -0.0428 -0.8663  1.3004
  117OSM   C13S12265   4.906   4.379   7.831 -0.0815  0.6603 -0.0583
  117OSM   H13S12266   4.995   4.313   7.825 -1.6346 -1.7323  1.3904
  117OSM   H13T12267   4.831   4.300   7.805  0.9543 -0.2226 -0.4242
  117OSM   C14S12268   4.886   4.410   7.977 -0.4030 -0.3790  0.1679
  117OSM   H14S12269   4.778   4.425   7.998 -0.3701 -1.6179  1.3384
  117OSM   H14T12270   4.936   4.506   8.002 -0.0438 -0.2719 -0.8810
  117OSM   C15S12271   4.930   4.296   8.074  0.3984 -0.2333 -0.1121
  117OSM   H15S12272   5.041   4.293   8.078  0.5072  1.3288 -1.0553
  117OSM   H15T12273   4.896   4.195   8.045  1.5389 -0.7534  0.3070
  117OSM   C16S12274   4.876   4.329   8.216  0.3014  0.1137  0.8258
  117OSM   H16S12275   4.766   4.339   8.209  0.5457  1.8034 -2.5372
  117OSM   H16T12276   4.913   4.433   8.230 -0.8051  0.5780  0.3852
  117OSM   C17S12277   4.930   4.227   8.320  0.4799 -0.4671 -0.0099
  117OSM   H17S12278   5.040   4.240   8.330  0.0931  2.0896  1.8828
  117OSM   H17T12279   4.914   4.127   8.274  1.0072 -0.4253 -0.2898
  117OSM   C18S12280   4.869   4.233   8.461 -0.7687  0.2720 -0.4595
  117OSM   H18S12281   4.763   4.200   8.458 -0.8248  0.4295 -0.2190
  117OSM   H18T12282   4.860   4.338   8.497 -0.5173  0.2231 -0.2555
  117OSM   H18U12283   4.921   4.176   8.541  0.6868  0.9900 -0.8638
  117OSM    C1F12284   4.705   4.236   6.616 -0.3936 -0.3626 -0.0227
  117OSM     OF12285   4.665   4.122   6.603  0.1114 -0.3119  0.4352
  117OSM    C2F12286   4.614   4.349   6.607 -0.1682  0.2538  0.4754
  117OSM    H2F12287   4.563   4.342   6.508 -1.6986  0.1367  1.2475
  117OSM    H2G12288   4.683   4.436   6.605 -0.2794  0.3831  1.6856
  117OSM    C3F12289   4.508   4.355   6.728  0.3653 -0.1452  0.7827
  117OSM    H3F12290   4.460   4.256   6.746 -0.8550  0.4888  1.1125
  117OSM    H3G12291   4.422   4.422   6.709  0.4446 -0.0529  0.7510
  117OSM    C4F12292   4.571   4.402   6.859  0.1213 -0.7597 -0.8487
  117OSM    H4F12293   4.621   4.496   6.829 -1.8767  1.3086  1.7574
  117OSM    H4G12294   4.641   4.322   6.895  1.6590  0.5475 -0.8328
  117OSM    C5F12295   4.468   4.433   6.974  0.1701 -0.0510  0.0205
  117OSM    H5F12296   4.413   4.341   7.001  0.8297 -0.2089  0.8418
  117OSM    H5G12297   4.385   4.498   6.939  0.6185 -0.4133 -1.8383
  117OSM    C6F12298   4.526   4.499   7.096 -0.3819 -0.6168  0.2020
  117OSM    H6F12299   4.578   4.585   7.048 -0.7432 -0.2065  0.5482
  117OSM    H6G12300   4.605   4.434   7.140 -0.2982  0.3649  1.5589
  117OSM    C7F12301   4.415   4.543   7.197 -0.2559  0.1623  0.5222
  117OSM    H7F12302   4.365   4.449   7.228 -1.0258  0.5217  0.3982
  117OSM    H7G12303   4.347   4.599   7.129  1.1608 -0.5340 -1.5818
  117OSM    C8F12304   4.483   4.627   7.299 -0.2016  0.3630  0.4823
  117OSM    H8F12305   4.514   4.719   7.245 -2.2361  1.0610  0.4079
  117OSM    H8G12306   4.579   4.587   7.338 -0.4504 -0.9042 -0.1340
  117OSM    C9F12307   4.398   4.693   7.405  0.2560  1.2441 -0.2406
  117OSM    H9F12308   4.348   4.789   7.392 -3.8008 -0.5688  0.5020
  117OSM   C10F12309   4.382   4.636   7.530  0.2842 -0.0571 -0.0111
  117OSM   H10F12310   4.326   4.697   7.603 -1.7776 -0.2624 -1.3377
  117OSM   C11F12311   4.434   4.501   7.583 -0.2306 -0.5307 -0.8335
  117OSM   H11F12312   4.507   4.450   7.516 -1.4801 -0.9341 -1.9326
  117OSM   H11G12313   4.345   4.435   7.585 -0.9694  0.4417 -0.6166
  117OSM   C12F12314   4.502   4.489   7.727 -0.4297 -0.0028  0.4185
  117OSM   H12F12315   4.565   4.578   7.748  1.4643 -1.7050  2.3476
  117OSM   H12G12316   4.571   4.402   7.723 -0.9016 -0.3906  0.6119
  117OSM   C13F12317   4.403   4.458   7.842  0.0626  0.2539  0.8448
  117OSM   H13F12318   4.343   4.371   7.808 -1.3107  0.9860  1.3237
  117OSM   H13G12319   4.333   4.543   7.856 -2.9162 -2.0353  0.8623
  117OSM   C14F12320   4.460   4.424   7.984 -0.2139  0.2772 -0.5580
  117OSM   H14F12321   4.524   4.507   8.022 -0.5052  0.8574 -1.3155
  117OSM   H14G12322   4.541   4.349   7.974  1.1028  1.3984  1.0582
  117OSM   C15F12323   4.351   4.380   8.091 -0.0356  0.0376  0.9958
  117OSM   H15F12324   4.277   4.312   8.044 -1.5944  1.9734  0.5421
  117OSM   H15G12325   4.304   4.480   8.104 -1.0602 -0.0314 -1.6266
  117OSM   C16F12326   4.412   4.332   8.221 -0.1135  0.0076 -0.3957
  117OSM   H16F12327   4.504   4.391   8.242  1.7178 -2.6397 -0.4725
  117OSM   H16G12328   4.448   4.227   8.212 -0.3980  0.0025 -1.7778
  117OSM   C17F12329   4.325   4.347   8.352 -0.4092 -0.1779  0.1560
  117OSM   H17F12330   4.383   4.327   8.444  0.2295 -0.8836 -0.3821
  117OSM   H17G12331   4.305   4.456   8.361  2.3868  0.4284 -0.1053
  117OSM   C18F12332   4.188   4.272   8.342 -0.6460 -0.5475 -1.0146
  117OSM   H18F12333   4.115   4.330   8.281 -0.8248  0.6599  0.2972
  117OSM   H18G12334   4.147   4.274   8.445 -1.2627  1.2532 -1.2537
  117OSM   H18H12335   4.211   4.171   8.302  1.5293 -1.2540  1.7059
  118OSM      N12336   0.893   4.864   6.361 -0.1474  0.2953 -0.9157
  118OSM    C1512337   1.014   4.809   6.284 -0.6112 -0.7699  0.1969
  118OSM   H15A12338   1.005   4.751   6.194  0.9236 -1.0458  0.1945
  118OSM   H15B12339   1.071   4.745   6.349 -0.7232 -0.6614  0.4052
  118OSM   H15C12340   1.081   4.892   6.270 -0.4623 -0.5052  2.1188
  118OSM    C1412341   0.961   4.933   6.481  0.5616  0.1858 -0.3454
  118OSM   H14A12342   1.027   5.002   6.430  0.0522 -0.3269 -1.7291
  118OSM   H14B12343   1.026   4.867   6.537  1.0610  0.4524 -0.5987
  118OSM   H14C12344   0.899   4.984   6.553 -0.5641 -1.4543 -0.0979
  118OSM    C1312345   0.822   4.961   6.276  0.4660 -0.7260 -0.0964
  118OSM   H13A12346   0.806   4.927   6.175  0.3913 -1.7214  0.2325
  118OSM   H13B12347   0.874   5.056   6.272  0.1341 -0.5397 -0.0123
  118OSM   H13C12348   0.722   4.978   6.314  1.1957 -1.9505  2.7034
  118OSM    C1212349   0.798   4.753   6.408 -0.2329  0.9120  0.2121
  118OSM   H12A12350   0.851   4.692   6.480 -0.8857  0.8336  0.6293
  118OSM   H12B12351   0.785   4.693   6.319 -2.2944  1.6805 -0.0451
  118OSM    C1112352   0.665   4.788   6.480  0.1009  0.4736 -0.6078
  118OSM   H11A12353   0.683   4.847   6.573 -0.3918 -1.4806  0.7794
  118OSM   H11B12354   0.621   4.692   6.512 -0.5125  1.3481  1.3164
  118OSM      P12355   0.444   4.898   6.445 -0.1212 -0.1885  0.0835
  118OSM    O1312356   0.397   5.025   6.373 -0.1763  0.4343  0.2362
  118OSM    O1412357   0.362   4.773   6.427 -0.3934 -0.4099 -0.1822
  118OSM    O1112358   0.456   4.946   6.590  0.3569 -0.0330 -1.0442
  118OSM    O1212359   0.592   4.865   6.398  0.0382  0.0185  0.6843
  118OSM    C1S12360   0.347   4.942   6.680  0.6868 -0.3816  0.0254
  118OSM    H1S12361   0.261   4.883   6.642 -1.9231  2.3933  1.1955
  118OSM    H1T12362   0.297   5.040   6.701  0.2913 -0.8470  1.3923
  118OSM     NF12363   0.257   4.849   6.888 -0.0843 -0.1993  0.2383
  118OSM    HNF12364   0.236   4.917   6.958  0.4019 -0.7399  0.9184
  118OSM    C2S12365   0.383   4.876   6.813  0.3322  0.3186  0.0890
  118OSM    H2S12366   0.429   4.777   6.789 -0.7463 -0.3376  0.6279
  118OSM    C3S12367   0.483   4.965   6.890 -0.2443 -0.0164 -0.1857
  118OSM    H3S12368   0.450   5.071   6.887  0.8957  0.3376 -1.2153
  118OSM     O312369   0.611   4.964   6.821  0.0043 -0.4892 -0.5165
  118OSM    HO312370   0.594   4.925   6.734 -0.2253 -1.3240 -0.1082
  118OSM    C4S12371   0.498   4.922   7.030 -0.6330 -0.2690 -0.1452
  118OSM    H4S12372   0.542   4.823   7.048 -1.3118 -1.0795 -2.4748
  118OSM    C5S12373   0.477   4.999   7.133  0.0195  0.9631 -0.1928
  118OSM    H5S12374   0.462   5.107   7.116  0.3210  0.9329 -0.6372
  118OSM    C6S12375   0.507   4.959   7.273  0.0390 -0.2687 -0.5201
  118OSM    H6S12376   0.609   4.990   7.303 -0.4562 -0.2652  1.2946
  118OSM    H6T12377   0.504   4.848   7.285 -1.8045 -0.2381 -0.2646
  118OSM    C7S12378   0.391   5.005   7.364 -0.0244  0.7123 -0.0019
  118OSM    H7S12379   0.295   4.965   7.325  1.2373 -1.8661 -0.6498
  118OSM    H7T12380   0.390   5.116   7.359 -0.5271  0.7760  1.0998
  118OSM    C8S12381   0.412   4.961   7.507 -0.7204  0.3655  0.1011
  118OSM    H8S12382   0.491   5.025   7.550 -0.7391 -0.4836  1.4419
  118OSM    H8T12383   0.449   4.857   7.516  0.6923  0.9767  1.7829
  118OSM    C9S12384   0.294   4.993   7.598  0.6249 -0.4690  0.2978
  118OSM    H9S12385   0.214   4.921   7.569  0.6816  0.0307 -1.2037
  118OSM    H9T12386   0.260   5.093   7.564  0.5532  0.7004  3.4924
  118OSM   C10S12387   0.332   4.992   7.739  0.8438  0.2385  0.0086
  118OSM   H10S12388   0.443   4.988   7.736  0.8914  0.1105  1.3798
  118OSM   H10T12389   0.304   4.894   7.783 -1.3983 -0.0318 -1.8061
  118OSM   C11S12390   0.295   5.110   7.827 -0.2063 -0.3987  0.0871
  118OSM   H11S12391   0.188   5.111   7.855  0.4639  0.5061  2.8972
  118OSM   H11T12392   0.323   5.200   7.767 -0.1294 -0.6855 -0.3105
  118OSM   C12S12393   0.380   5.124   7.960  1.2098  0.4216  0.4237
  118OSM   H12S12394   0.386   5.230   7.993  0.3888  1.3715 -2.1636
  118OSM   H12T12395   0.479   5.077   7.939 -0.0970 -1.1449 -2.8693
  118OSM   C13S12396   0.317   5.042   8.074 -0.8301  0.2464  0.1528
  118OSM   H13S12397   0.327   4.937   8.037 -0.2998  0.5531 -0.6138
  118OSM   H13T12398   0.209   5.066   8.082 -0.8039 -0.0592  1.6139
  118OSM   C14S12399   0.394   5.065   8.211  0.1438  0.4463  0.1223
  118OSM   H14S12400   0.405   5.175   8.222 -1.7622  0.9856 -2.4840
  118OSM   H14T12401   0.488   5.007   8.200 -0.3968 -0.4641  0.2509
  118OSM   C15S12402   0.313   5.005   8.321 -0.0784  0.4500 -0.5353
  118OSM   H15S12403   0.277   4.901   8.301  2.7444 -0.5412 -0.8847
  118OSM   H15T12404   0.223   5.069   8.333 -1.3195 -1.4330  0.7769
  118OSM   C16S12405   0.377   5.002   8.457  0.5234 -0.3761  0.1314
  118OSM   H16S12406   0.484   4.974   8.451  0.0637 -2.1327 -0.1597
  118OSM   H16T12407   0.325   4.929   8.522  0.1385  0.1660  0.4502
  118OSM   C17S12408   0.368   5.135   8.533  0.7741 -0.0646  0.2685
  118OSM   H17S12409   0.262   5.146   8.564 -0.4729 -1.3908 -3.1323
  118OSM   H17T12410   0.387   5.224   8.470 -2.6372  1.4698  1.1734
  118OSM   C18S12411   0.463   5.138   8.657  0.4833  0.8846 -0.3490
  118OSM   H18S12412   0.448   5.220   8.731 -1.8267 -0.5238  0.8934
  118OSM   H18T12413   0.570   5.130   8.628  0.6911  0.2957  0.5257
  118OSM   H18U12414   0.446   5.045   8.716  0.6936  0.8126 -0.4011
  118OSM    C1F12415   0.163   4.763   6.847 -0.2674  0.4553  0.0636
  118OSM     OF12416   0.181   4.683   6.759 -0.3461 -0.2256  0.0411
  118OSM    C2F12417   0.034   4.776   6.919  0.2271 -0.0505 -0.3599
  118OSM    H2F12418   0.025   4.685   6.983 -1.1019  0.5323  0.3243
  118OSM    H2G12419  -0.041   4.787   6.838  0.4866  3.4429 -0.2831
  118OSM    C3F12420   0.019   4.892   7.027 -0.4806  0.3297 -0.4530
  118OSM    H3F12421   0.003   4.988   6.973 -1.3269  1.3292  1.4758
  118OSM    H3G12422   0.106   4.893   7.096 -0.9097 -0.6630  0.1273
  118OSM    C4F12423  -0.109   4.868   7.116 -0.4950 -0.2112  0.0028
  118OSM    H4F12424  -0.199   4.847   7.054 -1.0545 -0.5318  0.9176
  118OSM    H4G12425  -0.129   4.968   7.160 -0.5450 -0.7227  1.1718
  118OSM    C5F12426  -0.086   4.773   7.234 -0.3339 -0.0937 -0.6337
  118OSM    H5F12427   0.008   4.794   7.289 -1.0298  0.2766  0.4722
  118OSM    H5G12428  -0.089   4.668   7.197  0.1187  0.1212 -1.2882
  118OSM    C6F12429  -0.188   4.798   7.343 -0.7464 -0.3323  0.0826
  118OSM    H6F12430  -0.276   4.747   7.299  1.0090 -1.9198 -1.8176
  118OSM    H6G12431  -0.206   4.908   7.341  0.0820 -0.1769  0.4240
  118OSM    C7F12432  -0.145   4.742   7.476  0.9649  0.6648  0.2071
  118OSM    H7F12433  -0.051   4.792   7.509  2.2554 -2.2682  1.2988
  118OSM    H7G12434  -0.120   4.636   7.457  0.3025  0.7917 -1.6307
  118OSM    C8F12435  -0.263   4.753   7.572  0.6797 -0.4492 -0.2414
  118OSM    H8F12436  -0.359   4.724   7.524  0.6363 -0.2550 -0.2729
  118OSM    H8G12437  -0.261   4.860   7.604  0.5465 -0.7587  0.8185
  118OSM    C9F12438  -0.252   4.665   7.691 -0.3257 -0.6745  0.1997
  118OSM    H9F12439  -0.323   4.582   7.696 -1.2752  0.1747  1.5587
  118OSM   C10F12440  -0.173   4.684   7.796  0.1704 -0.0685  0.0536
  118OSM   H10F12441  -0.192   4.611   7.876 -2.0608  0.7974  0.4037
  118OSM   C11F12442  -0.081   4.799   7.831  0.2005  0.1352  0.2999
  118OSM   H11F12443  -0.086   4.878   7.753 -0.3683  0.5162  0.7123
  118OSM   H11G12444   0.025   4.766   7.837  0.4036  0.3224 -1.5424
  118OSM   C12F12445  -0.114   4.870   7.973  0.0260 -0.3338  0.2821
  118OSM   H12F12446  -0.195   4.944   7.957  0.1396 -0.1146  0.7022
  118OSM   H12G12447  -0.021   4.918   8.011  0.5502 -2.9547  2.7449
  118OSM   C13F12448  -0.148   4.766   8.084 -0.0503 -0.1877 -0.3654
  118OSM   H13F12449  -0.061   4.698   8.099 -0.5087 -0.3668  1.7754
  118OSM   H13G12450  -0.236   4.706   8.053  0.1131 -0.0628 -1.0910
  118OSM   C14F12451  -0.158   4.832   8.222  0.1701 -0.7598  0.5286
  118OSM   H14F12452  -0.210   4.759   8.287 -0.7545 -1.8441 -1.3531
  118OSM   H14G12453  -0.221   4.923   8.217  0.9148 -0.2269  0.6008
  118OSM   C15F12454  -0.025   4.885   8.283  0.0300  0.4786  0.3730
  118OSM   H15F12455  -0.009   4.993   8.264 -0.5147  0.2493 -1.6404
  118OSM   H15G12456   0.063   4.824   8.254  0.5646 -0.0565  2.9242
  118OSM   C16F12457  -0.034   4.867   8.437  0.1912  0.3430 -0.4829
  118OSM   H16F12458   0.058   4.914   8.478  1.0762 -3.2005  2.0794
  118OSM   H16G12459  -0.050   4.763   8.472 -0.6374  0.8014  0.5689
  118OSM   C17F12460  -0.152   4.936   8.504  0.2978  0.3644  0.4906
  118OSM   H17F12461  -0.229   4.863   8.537 -2.9211  3.4251  0.2743
  118OSM   H17G12462  -0.208   4.988   8.424  0.3195 -1.1355 -0.5400
  118OSM   C18F12463  -0.098   5.036   8.610  0.0583 -0.2048  0.6211
  118OSM   H18F12464  -0.035   5.105   8.550 -0.8546  0.1113  0.0094
  118OSM   H18G12465  -0.038   4.985   8.688 -1.5827 -0.2382  1.9229
  118OSM   H18H12466  -0.181   5.093   8.657  0.6398  1.4081 -0.2363
  119OSM      N12467   3.971   4.811   5.823 -0.9877 -0.3211  0.7785
  119OSM    C1512468   3.995   4.673   5.770  0.0703  0.3787 -0.0485
  119OSM   H15A12469   4.087   4.682   5.713  0.7533 -1.8045  0.5988
  119OSM   H15B12470   3.918   4.636   5.705  0.8228  0.9811 -1.3197
  119OSM   H15C12471   4.022   4.603   5.848 -1.1901 -3.1541 -2.5537
  119OSM    C1412472   3.961   4.904   5.708  0.0331  0.7192 -0.4012
  119OSM   H14A12473   3.929   5.005   5.730  3.1886  1.9354 -0.8494
  119OSM   H14B12474   3.882   4.868   5.644 -0.5101 -0.4631  0.9014
  119OSM   H14C12475   4.055   4.916   5.655  0.0003 -1.5874 -1.0662
  119OSM    C1312476   3.845   4.819   5.898 -0.0959 -0.0669  0.2766
  119OSM   H13A12477   3.847   4.745   5.977 -0.0655 -0.7048 -0.3091
  119OSM   H13B12478   3.756   4.798   5.841  0.1412  0.1774 -0.1894
  119OSM   H13C12479   3.826   4.920   5.931  0.7872  0.3571 -0.4968
  119OSM    C1212480   4.089   4.868   5.902 -0.0232  0.9222  0.3740
  119OSM   H12A12481   4.075   4.971   5.930  1.5297  1.3366 -0.2246
  119OSM   H12B12482   4.177   4.879   5.839  1.2671 -2.1139  1.4315
  119OSM    C1112483   4.141   4.782   6.022 -0.4970  0.0566  0.6164
  119OSM   H11A12484   4.055   4.768   6.090  0.1355 -0.9544  1.2308
  119OSM   H11B12485   4.217   4.838   6.081  1.7825 -3.3887  1.2325
  119OSM      P12486   4.169   4.520   6.043  0.0236  0.3111  0.0734
  119OSM    O1312487   4.049   4.465   5.990  1.1494  0.3670  0.2670
  119OSM    O1412488   4.295   4.435   6.029  0.5428 -0.4650 -0.1297
  119OSM    O1112489   4.148   4.556   6.192 -0.2448  0.3049 -0.3499
  119OSM    O1212490   4.194   4.655   5.971  0.0627 -0.3615  0.5242
  119OSM    C1S12491   4.090   4.460   6.281 -0.1999 -0.5140 -0.7296
  119OSM    H1S12492   4.122   4.360   6.245 -0.8612 -0.7532 -0.6565
  119OSM    H1T12493   3.979   4.464   6.279 -0.1773 -0.1252 -2.5818
  119OSM     NF12494   4.119   4.386   6.523 -0.0830  0.1262 -0.3378
  119OSM    HNF12495   4.040   4.394   6.583  0.5508 -0.2303  0.5582
  119OSM    C2S12496   4.130   4.493   6.432 -0.4553 -0.3579  0.0059
  119OSM    H2S12497   4.237   4.524   6.428  0.2131 -2.6464 -1.5872
  119OSM    C3S12498   4.040   4.613   6.469 -0.3831  0.3751  0.3367
  119OSM    H3S12499   3.933   4.584   6.465 -0.7782  1.9248 -2.0280
  119OSM     O312500   4.056   4.722   6.372 -0.2285 -0.1258  0.3243
  119OSM    HO312501   4.050   4.674   6.290 -0.9191  0.4789 -0.0010
  119OSM    C4S12502   4.079   4.657   6.615  0.0138 -0.5290  0.8801
  119OSM    H4S12503   4.018   4.606   6.691  0.9258 -2.7148  0.2178
  119OSM    C5S12504   4.183   4.738   6.640  0.1174 -0.5641  0.2571
  119OSM    H5S12505   4.234   4.789   6.557 -1.7783  2.5065  0.8071
  119OSM    C6S12506   4.224   4.772   6.777 -0.8207 -0.1209 -0.8066
  119OSM    H6S12507   4.243   4.881   6.779 -1.3472  0.0128 -2.1408
  119OSM    H6T12508   4.324   4.726   6.793  1.1383  4.3015  1.7745
  119OSM    C7S12509   4.137   4.731   6.896 -0.1092  0.2085 -0.2873
  119OSM    H7S12510   4.119   4.621   6.906 -1.0509  0.2674 -1.1750
  119OSM    H7T12511   4.034   4.763   6.870 -0.3835 -0.0425  0.4688
  119OSM    C8S12512   4.174   4.781   7.037  0.2138 -0.2833  0.4037
  119OSM    H8S12513   4.139   4.886   7.046  0.0189 -0.3750  0.6903
  119OSM    H8T12514   4.283   4.783   7.062  0.9226 -0.8564 -2.2802
  119OSM    C9S12515   4.090   4.713   7.142  0.7287 -0.0466  0.5086
  119OSM    H9S12516   4.146   4.624   7.178  0.5180 -0.6528 -0.6131
  119OSM    H9T12517   3.992   4.679   7.101 -0.3674  2.5548  0.8304
  119OSM   C10S12518   4.066   4.804   7.263  0.3920 -0.3138 -0.2104
  119OSM   H10S12519   3.991   4.883   7.241 -0.0609 -1.0508 -1.4371
  119OSM   H10T12520   4.167   4.846   7.280  0.8710  0.0939 -3.4550
  119OSM   C11S12521   4.019   4.729   7.396 -0.0902  1.1627  0.3973
  119OSM   H11S12522   4.092   4.647   7.409 -0.3755  0.7907 -0.2684
  119OSM   H11T12523   3.914   4.694   7.388  0.5609 -0.6178 -0.8163
  119OSM   C12S12524   4.019   4.817   7.519  0.4136  0.3498 -0.0322
  119OSM   H12S12525   3.953   4.905   7.502 -3.7303 -1.8643  2.7055
  119OSM   H12T12526   4.121   4.857   7.537 -0.5323  2.2750  1.4783
  119OSM   C13S12527   3.982   4.742   7.646  0.5840 -0.1573  0.5274
  119OSM   H13S12528   4.054   4.657   7.655 -0.7879 -1.5092 -0.6210
  119OSM   H13T12529   3.887   4.687   7.629  0.5426 -0.3598  1.3764
  119OSM   C14S12530   3.996   4.813   7.780 -0.3919 -0.2036 -0.0379
  119OSM   H14S12531   3.916   4.891   7.783 -0.8806 -0.6966  2.5537
  119OSM   H14T12532   4.089   4.870   7.799  0.0807 -0.7290 -0.7568
  119OSM   C15S12533   3.992   4.718   7.896  0.2478  0.6962  0.2833
  119OSM   H15S12534   4.058   4.630   7.880 -1.7739 -1.5220  2.9669
  119OSM   H15T12535   3.897   4.662   7.908 -0.2568  1.7245  1.3643
  119OSM   C16S12536   4.014   4.787   8.026  0.0442  0.9221  0.1394
  119OSM   H16S12537   3.954   4.880   8.031 -0.1965  0.7413  0.6893
  119OSM   H16T12538   4.116   4.830   8.025  0.0368  0.9385 -0.1387
  119OSM   C17S12539   3.994   4.707   8.159  0.1498  0.2263 -0.3055
  119OSM   H17S12540   4.045   4.608   8.149 -0.1970 -0.4553  3.4045
  119OSM   H17T12541   3.888   4.677   8.162  0.3305 -0.6600 -1.7600
  119OSM   C18S12542   4.035   4.780   8.284 -0.2163 -0.0724  0.1437
  119OSM   H18S12543   4.142   4.812   8.283  0.0476 -0.9288 -0.6567
  119OSM   H18T12544   4.013   4.715   8.370 -0.5684  0.2302  0.2853
  119OSM   H18U12545   3.976   4.873   8.302  1.3166  0.8770  0.5045
  119OSM    C1F12546   4.191   4.270   6.524  0.1391 -0.1951  0.4862
  119OSM     OF12547   4.291   4.253   6.453  0.2791  0.5930 -0.1399
  119OSM    C2F12548   4.138   4.154   6.605  0.3966  0.1076  0.0925
  119OSM    H2F12549   4.046   4.111   6.560  1.4872 -2.4502  0.1031
  119OSM    H2G12550   4.107   4.192   6.704  1.9022 -0.9697  1.0114
  119OSM    C3F12551   4.240   4.041   6.636  0.3833 -0.1174 -0.2421
  119OSM    H3F12552   4.333   4.076   6.687 -1.8077  2.2875  2.5173
  119OSM    H3G12553   4.278   3.994   6.543  0.3681 -1.2198  0.2949
  119OSM    C4F12554   4.180   3.925   6.711 -0.6274  0.3812  0.1455
  119OSM    H4F12555   4.261   3.849   6.711 -1.8557 -0.9822 -0.8828
  119OSM    H4G12556   4.098   3.884   6.649  0.0994  2.4106 -2.3015
  119OSM    C5F12557   4.152   3.955   6.854  0.7244  0.1826 -0.0201
  119OSM    H5F12558   4.115   3.858   6.894  1.0581 -1.3333 -3.0687
  119OSM    H5G12559   4.079   4.038   6.863  2.1711  1.4205  0.4877
  119OSM    C6F12560   4.273   3.988   6.943  0.3172  0.1668 -0.6843
  119OSM    H6F12561   4.293   4.097   6.932  2.6399  0.3479  3.2845
  119OSM    H6G12562   4.363   3.935   6.907  0.6663 -0.8441  1.4668
  119OSM    C7F12563   4.264   3.966   7.095 -0.4830 -0.5327 -0.2935
  119OSM    H7F12564   4.210   3.873   7.123  1.6010 -1.3660  1.2254
  119OSM    H7G12565   4.192   4.034   7.145 -3.0432 -2.8878 -0.5589
  119OSM    C8F12566   4.402   3.954   7.173  0.6056 -0.0530  0.1557
  119OSM    H8F12567   4.458   3.877   7.115 -2.2747 -1.3620 -1.1006
  119OSM    H8G12568   4.373   3.900   7.266 -0.7246  1.0661  0.4226
  119OSM    C9F12569   4.477   4.082   7.197  0.0675 -0.3061  0.5375
  119OSM    H9F12570   4.542   4.105   7.111  1.0038 -1.6003  0.8686
  119OSM   C10F12571   4.460   4.173   7.296 -1.0973 -0.5311  0.1203
  119OSM   H10F12572   4.523   4.264   7.294 -1.6977 -0.1139 -1.0121
  119OSM   C11F12573   4.359   4.162   7.410  0.0064  0.3743  0.5144
  119OSM   H11F12574   4.298   4.069   7.403  0.7129 -0.0532 -0.0295
  119OSM   H11G12575   4.295   4.253   7.415  1.0782  1.1270  0.6969
  119OSM   C12F12576   4.415   4.149   7.550  0.3066 -0.4669 -0.6429
  119OSM   H12F12577   4.330   4.162   7.621  0.0130  1.7636 -1.3115
  119OSM   H12G12578   4.482   4.235   7.574 -0.4743  0.8822 -3.0026
  119OSM   C13F12579   4.488   4.011   7.580  0.4917 -0.5844 -0.2013
  119OSM   H13F12580   4.557   3.999   7.494  0.2427  0.2497 -0.5290
  119OSM   H13G12581   4.419   3.924   7.588  1.1938 -1.1385 -0.0548
  119OSM   C14F12582   4.572   4.025   7.703 -0.2818 -0.1821 -0.9860
  119OSM   H14F12583   4.508   4.079   7.776  2.4652 -1.3086  2.5223
  119OSM   H14G12584   4.671   4.072   7.689 -0.5897  0.4967 -0.9118
  119OSM   C15F12585   4.594   3.885   7.772  0.1194 -0.9389  0.2631
  119OSM   H15F12586   4.660   3.839   7.695  2.3106  0.3936  1.2517
  119OSM   H15G12587   4.494   3.837   7.765 -0.5342  0.5257 -1.5775
  119OSM   C16F12588   4.660   3.899   7.906 -0.8064 -0.5526 -0.5759
  119OSM   H16F12589   4.720   3.993   7.913 -2.5522  0.5879 -0.3132
  119OSM   H16G12590   4.730   3.816   7.929  1.1364  0.3263 -2.9274
  119OSM   C17F12591   4.563   3.919   8.024 -0.1112  0.2259 -0.6337
  119OSM   H17F12592   4.500   3.830   8.044  0.1085  0.3497  0.6465
  119OSM   H17G12593   4.487   3.997   7.999 -2.2758 -1.9634 -1.3434
  119OSM   C18F12594   4.637   3.940   8.151 -0.3281  0.4297  0.2918
  119OSM   H18F12595   4.693   4.036   8.156  0.3739  0.0373  0.0528
  119OSM   H18G12596   4.714   3.859   8.152  0.6659  1.3537  0.9412
  119OSM   H18H12597   4.571   3.925   8.240 -0.1757  1.3001  0.5562
  120OSM      N12598   0.495   2.783   6.543 -0.7754 -0.5311  0.3249
  120OSM    C1512599   0.624   2.826   6.483 -0.4315  0.3830  0.2429
  120OSM   H15A12600   0.617   2.923   6.435  0.3952 -0.4177 -1.5660
  120OSM   H15B12601   0.670   2.754   6.417  1.0349 -0.9504  2.5551
  120OSM   H15C12602   0.687   2.832   6.571 -0.5825 -0.1769  0.3932
  120OSM    C1412603   0.390   2.748   6.446 -0.3560 -1.0412 -0.1258
  120OSM   H14A12604   0.431   2.693   6.363  1.4853 -0.9546  0.6926
  120OSM   H14B12605   0.340   2.834   6.403  0.5970 -0.1723  0.4701
  120OSM   H14C12606   0.311   2.693   6.496 -1.3118 -0.1237 -0.5933
  120OSM    C1312607   0.516   2.659   6.622 -0.2674 -0.0107 -0.0464
  120OSM   H13A12608   0.585   2.681   6.702  0.0050 -4.2020  1.0899
  120OSM   H13B12609   0.566   2.589   6.558 -1.8184 -0.7337 -0.5212
  120OSM   H13C12610   0.425   2.616   6.661 -0.4884 -0.0201 -0.5719
  120OSM    C1212611   0.435   2.892   6.640  0.0352  0.0633 -0.6080
  120OSM   H12A12612   0.340   2.855   6.675  1.4244 -3.3134  0.0225
  120OSM   H12B12613   0.413   2.979   6.580 -2.6044 -0.1893 -0.1066
  120OSM    C1112614   0.517   2.934   6.763 -0.3203  0.1137 -0.2593
  120OSM   H11A12615   0.546   2.849   6.829 -0.3190 -0.3278 -0.8240
  120OSM   H11B12616   0.448   2.999   6.821 -1.0171 -1.0493  0.2469
  120OSM      P12617   0.646   3.162   6.713  0.5263 -0.0799 -0.3248
  120OSM    O1312618   0.781   3.198   6.668 -0.1044 -0.1149  0.3006
  120OSM    O1412619   0.525   3.200   6.635 -0.3075 -0.4118  0.4364
  120OSM    O1112620   0.626   3.199   6.868  0.1960 -0.0269  0.1799
  120OSM    O1212621   0.640   2.999   6.719  0.0901  0.0495  0.3395
  120OSM    C1S12622   0.719   3.156   6.965 -0.7827  0.6623 -0.2908
  120OSM    H1S12623   0.823   3.178   6.933 -0.5555 -1.5614 -1.2641
  120OSM    H1T12624   0.722   3.047   6.981  0.3303  0.7129 -0.0716
  120OSM     NF12625   0.812   3.172   7.198  0.3599 -0.5049 -0.1722
  120OSM    HNF12626   0.788   3.093   7.255 -1.7885  1.0924  1.2872
  120OSM    C2S12627   0.701   3.221   7.112 -0.3781 -0.2943 -0.1668
  120OSM    H2S12628   0.713   3.331   7.102 -2.4750  0.2179  2.0152
  120OSM    C3S12629   0.559   3.204   7.163  0.0298 -0.1789  0.7335
  120OSM    H3S12630   0.519   3.105   7.134 -0.8408  0.6561 -1.1011
  120OSM     O312631   0.469   3.290   7.094  0.9169 -0.4659  0.4665
  120OSM    HO312632   0.491   3.274   7.002 -0.1777 -1.8121  0.4099
  120OSM    C4S12633   0.554   3.234   7.308  0.3557  0.6072 -0.2248
  120OSM    H4S12634   0.562   3.343   7.321  1.2664  0.5762 -0.4666
  120OSM    C5S12635   0.538   3.138   7.405 -0.3880  0.1582  0.4998
  120OSM    H5S12636   0.532   3.033   7.371 -1.3387  0.6223 -0.8452
  120OSM    C6S12637   0.540   3.156   7.555  0.8329 -0.6690  0.8027
  120OSM    H6S12638   0.562   3.056   7.598 -0.9845 -1.8960 -0.9732
  120OSM    H6T12639   0.437   3.184   7.586 -0.2830 -0.2664 -2.8295
  120OSM    C7S12640   0.629   3.269   7.617  0.1354  0.2206 -0.4724
  120OSM    H7S12641   0.581   3.368   7.603 -1.5535 -0.5145 -0.0910
  120OSM    H7T12642   0.728   3.266   7.568 -0.1185  1.1494 -1.0517
  120OSM    C8S12643   0.661   3.237   7.766 -0.1130 -0.4743 -1.1955
  120OSM    H8S12644   0.714   3.141   7.780 -2.1570 -1.5444 -0.2623
  120OSM    H8T12645   0.569   3.212   7.824  1.4726  0.2689  1.8752
  120OSM    C9S12646   0.745   3.337   7.855  0.0379 -0.9933 -0.0408
  120OSM    H9S12647   0.698   3.431   7.890 -1.3921 -1.5809 -0.2741
  120OSM    H9T12648   0.835   3.360   7.794  0.9115  0.8614  1.8409
  120OSM   C10S12649   0.779   3.260   7.978 -0.2889 -0.4389 -0.3505
  120OSM   H10S12650   0.827   3.167   7.941  1.0491  0.6234 -1.3985
  120OSM   H10T12651   0.690   3.229   8.037  1.3294 -0.6450  2.1837
  120OSM   C11S12652   0.869   3.345   8.071 -0.0373 -0.0818 -0.8676
  120OSM   H11S12653   0.815   3.440   8.091  0.4255 -0.0118  0.1038
  120OSM   H11T12654   0.968   3.378   8.034  0.0517 -0.6925 -1.1854
  120OSM   C12S12655   0.889   3.290   8.210  1.4975 -0.3167  0.0853
  120OSM   H12S12656   0.951   3.198   8.205 -1.0887 -2.1131 -0.5993
  120OSM   H12T12657   0.786   3.254   8.227  0.7036  1.8149  0.0779
  120OSM   C13S12658   0.949   3.383   8.316  0.0160  0.0019  0.0118
  120OSM   H13S12659   0.882   3.472   8.321 -0.8925 -0.6673  0.1490
  120OSM   H13T12660   1.052   3.412   8.289  0.1242  0.8598  1.2419
  120OSM   C14S12661   0.939   3.317   8.451  0.0230  0.1051  0.2487
  120OSM   H14S12662   0.982   3.216   8.435 -1.2153 -0.6371  1.4605
  120OSM   H14T12663   0.831   3.295   8.464  0.5384 -1.6957  1.8988
  120OSM   C15S12664   1.018   3.385   8.570 -0.5598  0.0570  0.6298
  120OSM   H15S12665   0.973   3.485   8.591  2.0546  1.5289 -0.2573
  120OSM   H15T12666   1.125   3.389   8.538 -0.5013  1.4279  0.9405
  120OSM   C16S12667   1.015   3.307   8.699 -0.6750  0.3083 -0.1063
  120OSM   H16S12668   1.070   3.211   8.690 -2.0302 -0.4947 -0.0982
  120OSM   H16T12669   0.909   3.275   8.716 -0.1256 -1.5430  0.0891
  120OSM   C17S12670   1.069   3.387   8.819 -0.0750  0.1442 -0.0086
  120OSM   H17S12671   1.011   3.482   8.818 -2.5962 -1.3037 -0.8222
  120OSM   H17T12672   1.174   3.418   8.798  0.4718 -1.0559  0.8700
  120OSM   C18S12673   1.058   3.329   8.958 -0.0164  0.3617  0.0024
  120OSM   H18S12674   0.951   3.328   8.988 -0.0488 -0.3078 -0.1379
  120OSM   H18T12675   1.113   3.394   9.030 -0.6413 -0.1551  0.9803
  120OSM   H18U12676   1.099   3.227   8.965 -2.0126 -0.4849  0.0219
  120OSM    C1F12677   0.932   3.213   7.181 -0.0777  0.4338  0.5824
  120OSM     OF12678   0.957   3.311   7.111  0.6472 -0.5601 -0.3749
  120OSM    C2F12679   1.038   3.129   7.255  0.1624  0.2657  0.2791
  120OSM    H2F12680   0.980   3.099   7.346  0.9585  3.2455  1.9128
  120OSM    H2G12681   1.125   3.189   7.288  1.1846 -2.4231  3.0506
  120OSM    C3F12682   1.080   3.002   7.178  0.0719 -0.0287  0.4069
  120OSM    H3F12683   0.986   2.946   7.157  0.2180 -1.0220  2.1540
  120OSM    H3G12684   1.139   2.926   7.235  1.2721 -0.7011 -1.6101
  120OSM    C4F12685   1.159   3.046   7.056 -0.1067 -0.3183  0.0982
  120OSM    H4F12686   1.249   3.107   7.075  0.6578 -0.7927 -1.7585
  120OSM    H4G12687   1.088   3.109   6.997  0.2859  1.0308  1.0110
  120OSM    C5F12688   1.200   2.931   6.969  0.0350  0.6453 -0.0561
  120OSM    H5F12689   1.249   2.951   6.872  1.7214 -2.9501 -0.1350
  120OSM    H5G12690   1.119   2.859   6.946  0.4413  0.5559 -1.2593
  120OSM    C6F12691   1.309   2.836   7.036  0.2665  0.0719  0.0070
  120OSM    H6F12692   1.260   2.799   7.128 -3.0971  2.2779 -0.7197
  120OSM    H6G12693   1.400   2.892   7.068 -0.5151  1.5996 -0.3264
  120OSM    C7F12694   1.366   2.717   6.964  0.3455  0.1894  0.5935
  120OSM    H7F12695   1.448   2.750   6.896 -0.9310  1.7618 -0.2558
  120OSM    H7G12696   1.290   2.675   6.895  0.1923 -1.0991  1.5118
  120OSM    C8F12697   1.421   2.602   7.048 -0.2280  0.4573  0.5965
  120OSM    H8F12698   1.494   2.649   7.118  0.4434 -1.7916  1.4944
  120OSM    H8G12699   1.477   2.533   6.982 -0.9888 -0.8757  1.2755
  120OSM    C9F12700   1.309   2.531   7.129 -0.3747  0.0327  0.3657
  120OSM    H9F12701   1.236   2.483   7.061 -0.7666  0.7348  0.2736
  120OSM   C10F12702   1.294   2.530   7.262 -0.0549  0.6445  0.1353
  120OSM   H10F12703   1.210   2.466   7.293 -2.0121  3.2362  0.5995
  120OSM   C11F12704   1.384   2.595   7.364 -0.0463 -0.3475 -0.6500
  120OSM   H11F12705   1.448   2.667   7.309 -0.3381 -0.6904 -1.4422
  120OSM   H11G12706   1.456   2.515   7.393 -0.6841 -1.1462 -1.2440
  120OSM   C12F12707   1.292   2.662   7.473  0.1759  0.1340  0.1647
  120OSM   H12F12708   1.217   2.733   7.431 -1.9172 -2.0809 -0.0038
  120OSM   H12G12709   1.368   2.723   7.528  0.1272  1.3565 -1.0728
  120OSM   C13F12710   1.225   2.565   7.561  0.6786  0.9646 -0.1881
  120OSM   H13F12711   1.271   2.467   7.536 -0.8895  0.0128  0.4981
  120OSM   H13G12712   1.116   2.554   7.539  0.7170  0.0276  0.0325
  120OSM   C14F12713   1.245   2.592   7.714 -0.2146  0.3552  0.2857
  120OSM   H14F12714   1.189   2.683   7.743 -0.2422  0.4871 -0.1792
  120OSM   H14G12715   1.351   2.621   7.734 -0.5860  0.8660  1.6073
  120OSM   C15F12716   1.187   2.475   7.799  0.3663 -0.1468 -0.1985
  120OSM   H15F12717   1.223   2.379   7.755  0.6945 -0.4604  0.7354
  120OSM   H15G12718   1.077   2.474   7.785  0.5167  2.2052 -1.9999
  120OSM   C16F12719   1.219   2.486   7.950 -0.6257 -0.1173  0.1525
  120OSM   H16F12720   1.158   2.563   8.002  0.2073 -0.5511  1.8503
  120OSM   H16G12721   1.324   2.521   7.963 -0.9194  0.4234  1.1530
  120OSM   C17F12722   1.199   2.349   8.031 -0.4955 -0.4093  0.0233
  120OSM   H17F12723   1.231   2.367   8.136  0.0660  1.1356 -0.3858
  120OSM   H17G12724   1.276   2.287   7.980 -0.8319 -0.1803 -0.7863
  120OSM   C18F12725   1.055   2.304   8.035  0.3330 -0.3256 -1.0001
  120OSM   H18F12726   0.989   2.378   8.083 -1.4586 -0.7058 -2.7332
  120OSM   H18G12727   1.062   2.208   8.091  0.6251 -0.6146 -1.5161
  120OSM   H18H12728   1.019   2.272   7.935 -1.5543  0.3851 -0.5858
  121OSM      N12729   4.156   4.072   6.056 -0.1862  0.4605  0.0825
  121OSM    C1512730   4.046   4.156   6.003  0.5350 -0.4756 -0.0125
  121OSM   H15A12731   3.950   4.108   6.011 -0.1791  0.4157 -2.3551
  121OSM   H15B12732   4.066   4.172   5.898  3.0201 -2.2163  0.0999
  121OSM   H15C12733   4.053   4.253   6.051  0.7411 -0.1910 -0.6139
  121OSM    C1412734   4.138   3.930   6.003  0.0511 -0.2630  0.0842
  121OSM   H14A12735   4.041   3.901   6.040  0.9194 -0.0102  2.7219
  121OSM   H14B12736   4.208   3.861   6.047  1.9421  0.1552 -2.0707
  121OSM   H14C12737   4.143   3.922   5.895 -0.9434 -1.0980  0.0788
  121OSM    C1312738   4.292   4.124   6.009  0.3647 -0.5336 -0.5549
  121OSM   H13A12739   4.379   4.090   6.065  0.2459 -0.6414 -0.4344
  121OSM   H13B12740   4.294   4.232   6.014 -0.4136 -0.4761 -1.3800
  121OSM   H13C12741   4.308   4.090   5.908  0.2074 -1.1002 -0.3917
  121OSM    C1212742   4.152   4.060   6.211 -0.1692  0.0434 -0.0819
  121OSM   H12A12743   4.185   4.157   6.247  1.1832 -0.6400  0.6198
  121OSM   H12B12744   4.223   3.982   6.234  0.8902  0.5226 -1.5286
  121OSM    C1112745   4.016   4.039   6.276  0.6254  0.3827  0.3477
  121OSM   H11A12746   4.019   4.012   6.384  0.3166 -0.2334  0.2078
  121OSM   H11B12747   3.970   3.946   6.237  2.6351 -1.4392  2.0499
  121OSM      P12748   3.781   4.159   6.251 -0.3172  0.2685  0.4161
  121OSM    O1312749   3.749   4.232   6.127  0.4589 -0.3243 -0.6605
  121OSM    O1412750   3.732   4.021   6.252 -0.0803 -0.0252 -0.2742
  121OSM    O1112751   3.718   4.231   6.375 -0.1312  0.3784 -0.2714
  121OSM    O1212752   3.937   4.160   6.274 -0.2010  0.9153  0.1394
  121OSM    C1S12753   3.786   4.228   6.495 -0.3057  0.2031 -0.1524
  121OSM    H1S12754   3.869   4.302   6.501 -1.0877  1.0206  1.0213
  121OSM    H1T12755   3.813   4.124   6.524  0.2438  0.3725 -0.0417
  121OSM     NF12756   3.742   4.230   6.742  0.0792  0.8764 -0.0131
  121OSM    HNF12757   3.727   4.148   6.797 -0.0506  2.4372  2.4621
  121OSM    C2S12758   3.684   4.253   6.613  0.5868 -0.4733 -0.1968
  121OSM    H2S12759   3.647   4.358   6.616  0.1856 -0.6295  1.0224
  121OSM    C3S12760   3.552   4.170   6.599 -0.1721 -0.1223  0.2703
  121OSM    H3S12761   3.570   4.060   6.598  0.9453  0.0509  0.4288
  121OSM     O312762   3.484   4.215   6.476 -0.3568  0.1843  0.4895
  121OSM    HO312763   3.552   4.251   6.418 -2.4046  2.1153 -0.9106
  121OSM    C4S12764   3.464   4.202   6.720  0.3784 -0.1961  0.9986
  121OSM    H4S12765   3.424   4.304   6.728  0.2701 -0.2989  1.8791
  121OSM    C5S12766   3.417   4.113   6.805 -0.2640  0.3323 -0.4159
  121OSM    H5S12767   3.441   4.009   6.779 -0.5141  0.3707 -0.8070
  121OSM    C6S12768   3.328   4.129   6.926 -0.0128  0.5097  0.3055
  121OSM    H6S12769   3.242   4.060   6.913  0.5117  0.4096 -4.5212
  121OSM    H6T12770   3.282   4.230   6.921 -2.6636 -0.6729 -2.7813
  121OSM    C7S12771   3.380   4.107   7.064  0.0951 -0.3385  0.0311
  121OSM    H7S12772   3.412   4.001   7.067 -2.0910 -1.0525 -0.1743
  121OSM    H7T12773   3.300   4.109   7.141 -0.0096 -1.6930 -0.0251
  121OSM    C8S12774   3.501   4.197   7.117  0.0905 -0.4292  0.4522
  121OSM    H8S12775   3.467   4.300   7.092 -2.7126 -1.0589  1.2666
  121OSM    H8T12776   3.593   4.171   7.061 -0.8705 -0.2400 -1.2892
  121OSM    C9S12777   3.519   4.175   7.265  0.0556 -0.1629 -0.4018
  121OSM    H9S12778   3.624   4.208   7.280 -0.3697  0.7321  0.7567
  121OSM    H9T12779   3.518   4.065   7.282  0.1396 -0.0922  0.0767
  121OSM   C10S12780   3.426   4.257   7.347 -0.1108 -0.1144 -0.4103
  121OSM   H10S12781   3.319   4.234   7.333  0.1833 -2.1456  0.3348
  121OSM   H10T12782   3.453   4.362   7.321  1.8903 -0.6527 -0.7115
  121OSM   C11S12783   3.445   4.248   7.496  0.2557 -0.4141 -0.3980
  121OSM   H11S12784   3.525   4.312   7.540 -1.3360  1.3650  0.0203
  121OSM   H11T12785   3.471   4.143   7.524 -1.5596 -1.2094 -1.5122
  121OSM   C12S12786   3.314   4.292   7.565  0.8452  0.9543 -1.3700
  121OSM   H12S12787   3.239   4.220   7.527  1.3079 -0.3096  0.0559
  121OSM   H12T12788   3.287   4.400   7.555 -1.5622  0.4826 -0.5696
  121OSM   C13S12789   3.329   4.266   7.713 -0.3812 -0.0966 -0.4579
  121OSM   H13S12790   3.381   4.171   7.736 -0.9475 -0.2458  0.2825
  121OSM   H13T12791   3.227   4.268   7.757 -1.0872  1.1702 -2.0538
  121OSM   C14S12792   3.399   4.379   7.796 -0.5231 -0.2276  0.6331
  121OSM   H14S12793   3.338   4.470   7.817  1.6135  1.4556 -0.0740
  121OSM   H14T12794   3.489   4.419   7.744 -0.0119 -0.9121  0.9768
  121OSM   C15S12795   3.430   4.320   7.933  0.0248  0.4453  0.4701
  121OSM   H15S12796   3.488   4.226   7.922 -0.9578 -0.1651  0.4168
  121OSM   H15T12797   3.336   4.285   7.979 -0.1237  0.4194  0.1521
  121OSM   C16S12798   3.499   4.407   8.036 -0.2121  0.0302  0.0771
  121OSM   H16S12799   3.539   4.497   7.983 -0.3601 -0.2427 -0.5124
  121OSM   H16T12800   3.582   4.339   8.066 -0.0395  0.6375  1.0004
  121OSM   C17S12801   3.405   4.450   8.161 -0.1008  0.3319 -0.0083
  121OSM   H17S12802   3.310   4.477   8.110 -0.5989 -1.1024  0.1337
  121OSM   H17T12803   3.447   4.540   8.211 -1.3986  0.7138  0.4585
  121OSM   C18S12804   3.380   4.344   8.267 -0.9784 -0.2727 -0.1219
  121OSM   H18S12805   3.482   4.310   8.296 -0.1078  1.1094 -1.4320
  121OSM   H18T12806   3.316   4.260   8.232 -0.4743 -0.7410  0.0546
  121OSM   H18U12807   3.328   4.394   8.351  0.7099 -0.9935  1.4354
  121OSM    C1F12808   3.841   4.302   6.789 -0.1772  0.4494 -0.1549
  121OSM     OF12809   3.903   4.384   6.719 -0.1560 -0.1635  0.1751
  121OSM    C2F12810   3.882   4.268   6.931 -0.1482  0.1411  0.1021
  121OSM    H2F12811   3.921   4.164   6.939  2.4643  0.9087 -1.6094
  121OSM    H2G12812   3.801   4.289   7.004  1.4823  0.8911  1.7858
  121OSM    C3F12813   3.989   4.366   6.984 -0.2279 -0.3785 -0.3265
  121OSM    H3F12814   3.951   4.470   6.993  2.9306  0.9600 -1.2004
  121OSM    H3G12815   4.072   4.364   6.911  0.9517  2.7359  0.7659
  121OSM    C4F12816   4.046   4.341   7.122 -0.2424  0.0795 -0.1866
  121OSM    H4F12817   4.135   4.401   7.150 -0.1109 -1.1210  2.3137
  121OSM    H4G12818   4.087   4.238   7.114  0.8680  0.2087  2.6538
  121OSM    C5F12819   3.943   4.338   7.238 -0.1055  0.9050 -1.0179
  121OSM    H5F12820   3.860   4.272   7.206 -0.0034  1.0990 -1.6944
  121OSM    H5G12821   3.905   4.441   7.257  2.1519  1.4494  1.0725
  121OSM    C6F12822   4.008   4.292   7.373 -0.4644  0.1585  0.4049
  121OSM    H6F12823   4.088   4.362   7.404 -0.3860  1.0972 -1.7034
  121OSM    H6G12824   4.060   4.195   7.354 -0.0824  0.2497  0.9755
  121OSM    C7F12825   3.912   4.280   7.494  0.2003  0.1609  1.2154
  121OSM    H7F12826   3.955   4.192   7.546  1.9842  0.7421  0.7674
  121OSM    H7G12827   3.808   4.257   7.460  1.7679 -2.0727 -2.6993
  121OSM    C8F12828   3.912   4.397   7.589  0.2373  0.6114  0.0471
  121OSM    H8F12829   3.897   4.494   7.536 -3.1791 -0.3184 -0.9671
  121OSM    H8G12830   4.010   4.402   7.642  0.4688  1.5653 -0.4389
  121OSM    C9F12831   3.795   4.390   7.696  0.5888 -0.8364 -0.0042
  121OSM    H9F12832   3.696   4.421   7.660 -0.6841 -2.5187  1.8218
  121OSM   C10F12833   3.804   4.362   7.831 -0.2243 -0.1393  0.2386
  121OSM   H10F12834   3.714   4.394   7.885 -1.6770  0.5382 -2.3820
  121OSM   C11F12835   3.917   4.313   7.917 -0.4803 -0.3268  0.6145
  121OSM   H11F12836   3.995   4.389   7.936 -2.3384  1.2880  2.1199
  121OSM   H11G12837   3.954   4.214   7.882 -2.0852 -0.9439  0.5644
  121OSM   C12F12838   3.875   4.272   8.063 -0.6271  0.1779 -0.8127
  121OSM   H12F12839   3.962   4.224   8.114 -1.5661  1.9038  2.7239
  121OSM   H12G12840   3.791   4.202   8.047 -1.7588  1.5443 -0.9960
  121OSM   C13F12841   3.846   4.398   8.153 -0.1889 -0.7411  0.2936
  121OSM   H13F12842   3.767   4.462   8.110  0.7746  1.4173  1.5299
  121OSM   H13G12843   3.944   4.448   8.171  1.6794 -2.8330 -2.9512
  121OSM   C14F12844   3.786   4.359   8.288  0.0435 -0.6343 -0.2499
  121OSM   H14F12845   3.859   4.292   8.338  0.3638  0.1029  0.2731
  121OSM   H14G12846   3.693   4.300   8.271 -0.3225  0.3453 -1.9486
  121OSM   C15F12847   3.777   4.483   8.385 -0.5163  1.3270 -0.0925
  121OSM   H15F12848   3.685   4.543   8.371 -0.2060  2.0501  0.8609
  121OSM   H15G12849   3.867   4.544   8.362  1.0832 -0.5593  0.7922
  121OSM   C16F12850   3.792   4.447   8.537 -0.8830  0.7839  0.1209
  121OSM   H16F12851   3.888   4.395   8.559 -0.3512  0.5551 -2.4751
  121OSM   H16G12852   3.712   4.379   8.573 -0.5038  0.0760 -0.3509
  121OSM   C17F12853   3.797   4.580   8.603 -0.0989  0.1397 -0.0561
  121OSM   H17F12854   3.704   4.632   8.570  1.9965  2.7975 -2.3510
  121OSM   H17G12855   3.883   4.640   8.568  1.3905 -1.1687  1.2254
  121OSM   C18F12856   3.814   4.578   8.758  0.0887  0.0494 -0.0512
  121OSM   H18F12857   3.852   4.680   8.782  1.4185 -0.4785  0.1349
  121OSM   H18G12858   3.893   4.505   8.783  1.0323 -0.1949 -3.2919
  121OSM   H18H12859   3.716   4.546   8.801 -1.5346  1.2735 -2.5731
  122OSM      N12860   1.896   5.163   5.774 -0.3278 -0.2516 -0.3176
  122OSM    C1512861   1.938   5.025   5.764  0.2326  0.3057  0.1280
  122OSM   H15A12862   2.035   5.006   5.808  0.2224  1.1639  0.5305
  122OSM   H15B12863   1.943   4.985   5.664 -1.7737  0.5310 -0.0982
  122OSM   H15C12864   1.866   4.962   5.815 -0.7523 -0.8952 -2.5860
  122OSM    C1412865   1.978   5.238   5.673 -0.4722  0.2968  0.5391
  122OSM   H14A12866   2.080   5.248   5.706 -0.1186 -0.1053 -0.3909
  122OSM   H14B12867   1.926   5.329   5.646  0.0947  0.8945  1.4385
  122OSM   H14C12868   1.988   5.195   5.574 -1.2296  4.4092 -1.5760
  122OSM    C1312869   1.749   5.161   5.737 -0.0141  0.3908 -0.6890
  122OSM   H13A12870   1.701   5.234   5.801  0.9175  0.8177 -0.4671
  122OSM   H13B12871   1.709   5.060   5.745  1.5892 -0.4825 -2.8706
  122OSM   H13C12872   1.738   5.188   5.633 -2.4808  2.7120  0.0461
  122OSM    C1212873   1.916   5.208   5.920  0.6382  0.6684  0.1706
  122OSM   H12A12874   1.884   5.310   5.932 -0.1771  0.3854  0.4444
  122OSM   H12B12875   2.023   5.209   5.934  1.4503 -1.5590 -4.0231
  122OSM    C1112876   1.849   5.127   6.033 -0.9723  0.2196 -0.3564
  122OSM   H11A12877   1.873   5.178   6.129 -1.0284  0.0317 -0.2418
  122OSM   H11B12878   1.892   5.024   6.030  1.9433  1.3360  0.3866
  122OSM      P12879   1.608   5.233   6.059 -0.4878  0.1762  0.4080
  122OSM    O1312880   1.629   5.358   5.980 -0.3814 -0.1755 -0.2858
  122OSM    O1412881   1.472   5.185   6.055  0.5405  0.0179  0.7575
  122OSM    O1112882   1.653   5.252   6.211  0.0287 -0.0136  0.4560
  122OSM    O1212883   1.710   5.117   6.016  0.5333  0.4386  0.1085
  122OSM    C1S12884   1.667   5.132   6.293  0.3052  0.0524  0.0026
  122OSM    H1S12885   1.748   5.062   6.263  1.0470 -0.2908  2.5566
  122OSM    H1T12886   1.580   5.065   6.302 -0.2714  0.7509 -0.2881
  122OSM     NF12887   1.732   5.060   6.533  0.6141 -0.3575 -0.0256
  122OSM    HNF12888   1.656   5.040   6.595  0.7634 -0.5504  0.0910
  122OSM    C2S12889   1.708   5.170   6.443  0.1304 -0.0344  0.5982
  122OSM    H2S12890   1.793   5.240   6.431 -0.1809  0.5147  1.4949
  122OSM    C3S12891   1.602   5.269   6.502  0.1951 -0.0710 -0.2747
  122OSM    H3S12892   1.508   5.209   6.501  0.1347  0.0342 -1.4438
  122OSM     O312893   1.574   5.386   6.431  0.2156  0.1082  1.1932
  122OSM    HO312894   1.624   5.364   6.352 -3.1700  2.1633 -1.8293
  122OSM    C4S12895   1.630   5.318   6.642 -0.0459  0.5587 -0.3975
  122OSM    H4S12896   1.731   5.354   6.666  1.4830 -2.1129 -2.2850
  122OSM    C5S12897   1.543   5.314   6.745 -1.1888  0.3063 -1.1064
  122OSM    H5S12898   1.436   5.295   6.735 -1.4701  1.2041 -0.0462
  122OSM    C6S12899   1.597   5.371   6.883 -0.3063 -0.0612  0.1919
  122OSM    H6S12900   1.660   5.284   6.912  0.5785 -0.3433 -2.3557
  122OSM    H6T12901   1.522   5.381   6.964  0.0871 -0.8647  0.6650
  122OSM    C7S12902   1.686   5.498   6.880  0.5743 -0.6210  1.2824
  122OSM    H7S12903   1.631   5.570   6.816  1.2810 -1.8457 -0.7691
  122OSM    H7T12904   1.781   5.486   6.825 -0.5782 -0.1303 -0.9303
  122OSM    C8S12905   1.702   5.567   7.018 -1.0487 -0.5455 -1.1276
  122OSM    H8S12906   1.598   5.594   7.045 -0.8437  0.4335 -1.2834
  122OSM    H8T12907   1.763   5.656   6.993  0.6535 -1.0821  0.8208
  122OSM    C9S12908   1.773   5.472   7.122 -0.1082  0.2880 -0.2852
  122OSM    H9S12909   1.878   5.451   7.094  0.6675  2.5422  0.7601
  122OSM    H9T12910   1.722   5.373   7.125 -1.0041  0.6759 -1.7126
  122OSM   C10S12911   1.769   5.526   7.264 -0.4304 -0.1958  0.0109
  122OSM   H10S12912   1.662   5.513   7.291 -0.8294 -1.3624 -1.8900
  122OSM   H10T12913   1.787   5.635   7.272 -0.0779 -0.1717 -0.9137
  122OSM   C11S12914   1.850   5.448   7.369  0.7648 -0.2116  0.0710
  122OSM   H11S12915   1.958   5.475   7.359  0.7133  0.3544  0.9409
  122OSM   H11T12916   1.842   5.339   7.352 -1.7817  0.2796 -2.6008
  122OSM   C12S12917   1.807   5.509   7.509 -0.3790 -0.2197  0.3391
  122OSM   H12S12918   1.700   5.493   7.535  0.0599  0.6514  2.9719
  122OSM   H12T12919   1.832   5.616   7.521  0.1738 -0.3702  0.5695
  122OSM   C13S12920   1.879   5.423   7.618 -0.5340 -0.1357 -0.1217
  122OSM   H13S12921   1.981   5.405   7.578 -1.1759 -1.0248 -1.4144
  122OSM   H13T12922   1.837   5.321   7.614 -1.0968  0.1300 -1.1249
  122OSM   C14S12923   1.882   5.478   7.758  0.0070 -0.3078  0.2671
  122OSM   H14S12924   1.776   5.505   7.780  0.9166  2.2069  2.0710
  122OSM   H14T12925   1.923   5.581   7.756  2.0722 -1.0959 -0.4293
  122OSM   C15S12926   1.938   5.381   7.872 -0.0763  0.1058 -0.0689
  122OSM   H15S12927   2.046   5.369   7.847  0.1211  1.8733 -0.1793
  122OSM   H15T12928   1.896   5.278   7.875  2.3930 -1.0774 -1.9722
  122OSM   C16S12929   1.930   5.442   8.018 -0.5090 -0.8438  0.0771
  122OSM   H16S12930   1.842   5.509   8.024  1.3210  1.9382 -1.5508
  122OSM   H16T12931   2.020   5.506   8.034  1.5263 -2.6296 -3.0124
  122OSM   C17S12932   1.922   5.331   8.121 -0.0954 -0.0550 -0.4658
  122OSM   H17S12933   2.027   5.294   8.122  0.3986  1.2963 -0.5559
  122OSM   H17T12934   1.858   5.244   8.098  0.0834 -0.3395  0.0934
  122OSM   C18S12935   1.900   5.405   8.255  0.1453 -0.2054  0.2090
  122OSM   H18S12936   1.969   5.489   8.281 -0.1197  0.2662 -0.5903
  122OSM   H18T12937   1.898   5.334   8.340  0.7458 -1.4411 -0.7887
  122OSM   H18U12938   1.807   5.465   8.262 -0.1109 -0.2943 -1.9186
  122OSM    C1F12939   1.822   4.964   6.517 -0.2360  0.2564 -0.6579
  122OSM     OF12940   1.916   4.982   6.445 -0.3566 -0.3005  0.2173
  122OSM    C2F12941   1.800   4.835   6.589 -0.1789 -0.2474 -0.3458
  122OSM    H2F12942   1.827   4.747   6.526  0.0501  0.3650 -1.1194
  122OSM    H2G12943   1.696   4.831   6.626 -0.6169 -1.4370 -1.6009
  122OSM    C3F12944   1.893   4.830   6.721  0.0936  0.5713  0.1120
  122OSM    H3F12945   1.995   4.848   6.683  0.6942 -2.4980  0.0113
  122OSM    H3G12946   1.901   4.727   6.762  1.3664  0.2874 -0.8206
  122OSM    C4F12947   1.856   4.930   6.834  0.0119  0.0512  0.9606
  122OSM    H4F12948   1.846   5.034   6.795 -1.6837 -0.0994  0.8860
  122OSM    H4G12949   1.946   4.910   6.895 -1.5665 -2.4321  2.6887
  122OSM    C5F12950   1.736   4.886   6.913 -0.3456  0.5607 -0.4660
  122OSM    H5F12951   1.743   4.776   6.927  0.8098  0.6975  0.1047
  122OSM    H5G12952   1.635   4.907   6.870 -1.5384  0.0035  1.8648
  122OSM    C6F12953   1.747   4.940   7.051  0.5825 -0.2694 -0.8728
  122OSM    H6F12954   1.751   5.051   7.048  2.5641 -0.3168 -1.3108
  122OSM    H6G12955   1.844   4.911   7.098  0.3220 -0.6254 -0.5520
  122OSM    C7F12956   1.629   4.888   7.139 -0.0532 -0.2957  0.4417
  122OSM    H7F12957   1.634   4.777   7.143  0.5897 -0.2642  0.7101
  122OSM    H7G12958   1.538   4.904   7.078 -0.3789 -1.1923  0.6810
  122OSM    C8F12959   1.602   4.954   7.268  0.0027 -0.3212  0.0174
  122OSM    H8F12960   1.695   4.946   7.328  2.7051 -0.0256 -3.7162
  122OSM    H8G12961   1.521   4.902   7.323 -0.7139  1.4709  0.7429
  122OSM    C9F12962   1.572   5.101   7.261  0.3710  0.6339 -0.8097
  122OSM    H9F12963   1.543   5.144   7.164 -0.9790  2.6650  0.4411
  122OSM   C10F12964   1.558   5.184   7.362  0.5613  1.0594 -0.5069
  122OSM   H10F12965   1.537   5.290   7.340 -2.9944  0.2066 -1.9609
  122OSM   C11F12966   1.593   5.141   7.500  1.0822  0.2220  0.0756
  122OSM   H11F12967   1.700   5.110   7.499  1.0513  0.0968  0.4006
  122OSM   H11G12968   1.541   5.046   7.526 -0.5639  0.7401 -1.1720
  122OSM   C12F12969   1.555   5.242   7.619  1.0488  0.4587  0.2584
  122OSM   H12F12970   1.587   5.348   7.610 -1.7747  1.3326 -0.3354
  122OSM   H12G12971   1.607   5.207   7.711 -0.3679 -0.3290  0.7877
  122OSM   C13F12972   1.402   5.235   7.645 -0.3742  0.2906 -0.3930
  122OSM   H13F12973   1.385   5.125   7.653  2.6375 -0.2684 -0.4710
  122OSM   H13G12974   1.336   5.275   7.564 -0.0574 -0.1358 -0.8733
  122OSM   C14F12975   1.367   5.302   7.783  0.3587  0.1028 -0.0079
  122OSM   H14F12976   1.259   5.283   7.798  0.0953  0.9058 -0.7550
  122OSM   H14G12977   1.379   5.413   7.777  1.2441 -0.0187 -0.6478
  122OSM   C15F12978   1.438   5.239   7.902 -0.3485 -0.0258 -0.3087
  122OSM   H15F12979   1.540   5.283   7.903 -0.2222 -0.2592  2.1002
  122OSM   H15G12980   1.432   5.129   7.885 -0.8594 -0.2076  0.9169
  122OSM   C16F12981   1.367   5.261   8.039  0.0270  0.0294 -0.3327
  122OSM   H16F12982   1.262   5.230   8.022 -0.2989  1.5377 -1.2416
  122OSM   H16G12983   1.361   5.369   8.064  2.1818 -0.5830  3.5786
  122OSM   C17F12984   1.435   5.180   8.148 -0.0223 -0.2463 -0.2697
  122OSM   H17F12985   1.438   5.075   8.111 -0.1451 -1.3969  2.6635
  122OSM   H17G12986   1.371   5.187   8.239 -0.8966  0.4176 -0.9209
  122OSM   C18F12987   1.577   5.215   8.179  0.1378  0.5019  0.1228
  122OSM   H18F12988   1.635   5.198   8.086 -3.4892  0.4384 -2.3443
  122OSM   H18G12989   1.630   5.165   8.263  3.3594 -0.3993 -2.2239
  122OSM   H18H12990   1.585   5.324   8.200  1.6019  0.2795  0.8146
  123OSM      N12991   6.470   2.669   6.755  0.1480  0.2888 -0.3176
  123OSM    C1512992   6.605   2.731   6.762  0.0911 -0.1828 -0.1901
  123OSM   H15A12993   6.680   2.656   6.781  0.4374 -0.1253 -1.2364
  123OSM   H15B12994   6.610   2.817   6.827  0.2947  0.4076 -0.9740
  123OSM   H15C12995   6.627   2.776   6.666  2.1462  0.8784  0.7167
  123OSM    C1412996   6.464   2.567   6.648  0.0281 -0.0123  0.1914
  123OSM   H14A12997   6.464   2.611   6.550 -1.1197 -0.5781 -0.0799
  123OSM   H14B12998   6.377   2.504   6.657  1.6478 -2.2660  1.3998
  123OSM   H14C12999   6.550   2.501   6.643  0.3029  0.4366 -1.2319
  123OSM    C1313000   6.446   2.606   6.887 -0.2555 -0.0232 -0.5945
  123OSM   H13A13001   6.349   2.558   6.897 -0.2022  0.1089  0.7347
  123OSM   H13B13002   6.444   2.667   6.976  0.2652 -1.6451  0.5671
  123OSM   H13C13003   6.526   2.540   6.916 -0.3253  0.4995  0.8710
  123OSM    C1213004   6.369   2.775   6.737  0.1775  0.0417 -0.0841
  123OSM   H12A13005   6.381   2.810   6.635  1.5530 -0.9909 -0.2933
  123OSM   H12B13006   6.394   2.866   6.791  0.8452  1.4013 -2.5121
  123OSM    C1113007   6.222   2.742   6.770 -0.3802 -0.5113 -0.1572
  123OSM   H11A13008   6.168   2.838   6.757 -1.2118 -1.0007 -0.4332
  123OSM   H11B13009   6.215   2.735   6.881  1.2072  1.6907  0.1415
  123OSM      P13010   6.083   2.654   6.567  0.0638 -0.0360  0.1678
  123OSM    O1313011   6.137   2.768   6.491  0.1668 -0.2098 -0.0778
  123OSM    O1413012   6.056   2.525   6.507  0.3442 -0.2898  0.1532
  123OSM    O1113013   5.952   2.716   6.640  0.3045 -0.0092  0.4876
  123OSM    O1213014   6.173   2.631   6.691 -0.1018  0.0102 -0.2661
  123OSM    C1S13015   5.883   2.622   6.734 -0.5757  0.2633 -0.0268
  123OSM    H1S13016   5.937   2.527   6.752  0.6444  0.8487 -0.5090
  123OSM    H1T13017   5.792   2.588   6.679 -0.6759 -1.2119  0.9935
  123OSM     NF13018   5.798   2.590   6.964  0.0991  0.5498 -0.8046
  123OSM    HNF13019   5.699   2.582   6.961  0.0695  0.1929  0.4099
  123OSM    C2S13020   5.856   2.684   6.873  0.1882 -0.5361 -0.3206
  123OSM    H2S13021   5.955   2.706   6.920 -0.7861  0.0806  1.5329
  123OSM    C3S13022   5.770   2.816   6.858 -0.5259  0.8817 -0.0295
  123OSM    H3S13023   5.663   2.786   6.846  0.3180 -2.6279  0.3104
  123OSM     O313024   5.802   2.893   6.741 -0.6680  0.2973  0.6077
  123OSM    HO313025   5.865   2.839   6.693 -0.0761  1.1402  0.3978
  123OSM    C4S13026   5.787   2.891   6.989 -0.3088  0.1169 -0.3957
  123OSM    H4S13027   5.692   2.903   7.044 -0.8077  0.1105 -1.2353
  123OSM    C5S13028   5.908   2.935   7.035  0.4051 -0.1717  0.5391
  123OSM    H5S13029   6.001   2.915   6.979  1.1090  2.0941  0.7984
  123OSM    C6S13030   5.941   3.006   7.160 -0.5725 -0.2989 -0.3893
  123OSM    H6S13031   5.984   3.108   7.147  0.8655 -0.5311  2.0156
  123OSM    H6T13032   6.013   2.946   7.220 -0.4997 -2.3109 -2.3576
  123OSM    C7S13033   5.813   3.011   7.254  0.5233 -0.1285  0.0746
  123OSM    H7S13034   5.779   2.911   7.288  2.2096 -0.8875 -0.4100
  123OSM    H7T13035   5.722   3.061   7.213  0.7147  1.4031  1.4028
  123OSM    C8S13036   5.844   3.094   7.382 -0.3101  0.1423  0.2020
  123OSM    H8S13037   5.884   3.192   7.348 -0.5907 -0.2927 -1.4377
  123OSM    H8T13038   5.922   3.038   7.439 -1.0620 -1.0031  0.1286
  123OSM    C9S13039   5.727   3.116   7.475  0.5427  0.2764 -0.3546
  123OSM    H9S13040   5.679   3.018   7.499 -0.7732  1.6136  3.1150
  123OSM    H9T13041   5.650   3.182   7.428 -0.1453 -1.0252 -1.1074
  123OSM   C10S13042   5.752   3.186   7.612  0.1190  0.4075 -0.2779
  123OSM   H10S13043   5.656   3.222   7.654 -1.3980 -1.4155 -1.9577
  123OSM   H10T13044   5.819   3.269   7.582 -0.8361  0.1856 -3.3891
  123OSM   C11S13045   5.798   3.085   7.709  0.3270 -0.4106 -0.6777
  123OSM   H11S13046   5.882   3.126   7.769 -0.0169  0.0315 -0.4937
  123OSM   H11T13047   5.831   2.988   7.665  0.7758 -0.9729  0.8464
  123OSM   C12S13048   5.694   3.054   7.818  0.2293 -0.2615 -0.3284
  123OSM   H12S13049   5.668   3.146   7.874 -1.8372 -2.6346  2.9399
  123OSM   H12T13050   5.732   2.982   7.893  2.5416  2.1690  1.0043
  123OSM   C13S13051   5.565   2.986   7.764 -0.1101  0.3334  0.1193
  123OSM   H13S13052   5.594   2.890   7.716  1.1241  0.9039 -0.3093
  123OSM   H13T13053   5.528   3.047   7.679 -0.8410 -0.2354  0.0140
  123OSM   C14S13054   5.457   2.978   7.865 -0.3601 -0.1995  1.0081
  123OSM   H14S13055   5.429   3.083   7.889  1.0727  1.3802 -3.2490
  123OSM   H14T13056   5.500   2.929   7.955  3.0258 -0.0954 -0.4072
  123OSM   C15S13057   5.324   2.913   7.823  0.1562  0.0356  0.7747
  123OSM   H15S13058   5.262   2.899   7.914 -2.0646 -1.0125 -0.8081
  123OSM   H15T13059   5.341   2.814   7.775  1.9548  1.2050 -1.1846
  123OSM   C16S13060   5.252   2.991   7.718  0.2689  0.4006  0.1527
  123OSM   H16S13061   5.310   3.000   7.623 -1.9946  2.1065 -1.1725
  123OSM   H16T13062   5.249   3.097   7.749  0.2551  1.0238 -1.8093
  123OSM   C17S13063   5.107   2.921   7.698  0.5420 -0.5218  0.6783
  123OSM   H17S13064   5.057   2.939   7.796 -0.7972  0.3869 -0.1269
  123OSM   H17T13065   5.114   2.812   7.681 -0.3239 -1.1290  3.6257
  123OSM   C18S13066   5.023   2.988   7.593  0.1511  0.4586  0.3813
  123OSM   H18S13067   5.044   2.947   7.492  3.6857  3.6540 -0.4511
  123OSM   H18T13068   5.039   3.098   7.586 -2.7166  0.8474 -3.0265
  123OSM   H18U13069   4.916   2.973   7.618  0.6467 -1.5198  1.5041
  123OSM    C1F13070   5.866   2.500   7.034 -0.5034 -0.4498 -0.4407
  123OSM     OF13071   5.992   2.494   7.025  0.3453  0.4424  0.2186
  123OSM    C2F13072   5.789   2.407   7.115  0.4049 -0.1013  0.7962
  123OSM    H2F13073   5.725   2.340   7.055  0.2102  1.4484 -0.8317
  123OSM    H2G13074   5.719   2.473   7.170 -1.2812  0.3198 -1.7231
  123OSM    C3F13075   5.867   2.325   7.218  0.5622 -0.5463  0.4519
  123OSM    H3F13076   5.902   2.389   7.302  0.1701 -0.6097  0.6636
  123OSM    H3G13077   5.951   2.270   7.170  0.7453 -0.8466  1.1182
  123OSM    C4F13078   5.783   2.220   7.284 -0.1196  0.6840  0.0164
  123OSM    H4F13079   5.728   2.160   7.208  1.2889  1.1973 -1.4571
  123OSM    H4G13080   5.703   2.282   7.331 -1.6424 -1.7233  0.7704
  123OSM    C5F13081   5.856   2.144   7.396 -0.4404  0.4034  0.5112
  123OSM    H5F13082   5.921   2.215   7.453  0.8704  0.0747 -0.5074
  123OSM    H5G13083   5.928   2.073   7.350  0.3024  0.8433  0.9731
  123OSM    C6F13084   5.768   2.065   7.489  0.1931 -0.6424 -0.7650
  123OSM    H6F13085   5.728   1.982   7.427 -1.9604 -0.0358 -0.2805
  123OSM    H6G13086   5.675   2.120   7.516 -1.5873 -4.0806  0.7079
  123OSM    C7F13087   5.838   2.002   7.614  0.4457 -0.0391  0.1965
  123OSM    H7F13088   5.941   1.969   7.587 -0.4749 -1.4602 -1.8261
  123OSM    H7G13089   5.790   1.908   7.647 -0.9132  1.0625  1.5527
  123OSM    C8F13090   5.848   2.083   7.743 -0.0341  0.2835 -0.7911
  123OSM    H8F13091   5.903   2.175   7.715  0.1930  0.9422  1.5590
  123OSM    H8G13092   5.922   2.030   7.807 -0.2635 -0.5336 -1.1909
  123OSM    C9F13093   5.722   2.109   7.810  0.1805 -1.2955  0.0498
  123OSM    H9F13094   5.658   2.182   7.757  1.9784  0.1437 -0.2273
  123OSM   C10F13095   5.681   2.052   7.924 -0.0341  0.4138  0.4926
  123OSM   H10F13096   5.583   2.077   7.969 -1.0091 -1.3771 -0.5554
  123OSM   C11F13097   5.754   1.958   8.023  0.6003  1.0957  0.6762
  123OSM   H11F13098   5.863   1.959   7.998  0.4939  3.9160  0.0579
  123OSM   H11G13099   5.717   1.854   8.008 -0.1042  1.5435 -0.8124
  123OSM   C12F13100   5.736   2.000   8.168 -1.2149  0.0401 -0.1662
  123OSM   H12F13101   5.767   2.105   8.187  2.2596 -0.9687  0.4056
  123OSM   H12G13102   5.809   1.942   8.228 -1.4315 -0.7746 -0.6743
  123OSM   C13F13103   5.606   1.962   8.245 -0.1193 -0.6376  0.2694
  123OSM   H13F13104   5.572   1.859   8.222 -0.1066 -0.6167  0.1573
  123OSM   H13G13105   5.535   2.036   8.202  0.9189  0.1837 -0.0753
  123OSM   C14F13106   5.614   1.973   8.400  0.0175  0.2848 -0.1625
  123OSM   H14F13107   5.641   2.078   8.424 -2.6603  1.0602 -0.2691
  123OSM   H14G13108   5.676   1.898   8.455 -3.0907 -1.0624  1.8141
  123OSM   C15F13109   5.481   1.941   8.472 -0.0693 -0.3831 -0.0542
  123OSM   H15F13110   5.446   1.839   8.447  0.3444 -0.0196 -2.3331
  123OSM   H15G13111   5.407   2.008   8.425  0.5615 -0.1397 -0.7345
  123OSM   C16F13112   5.492   1.974   8.618  0.3531 -0.2599  0.0970
  123OSM   H16F13113   5.502   2.084   8.616 -2.6198  0.0834 -1.6549
  123OSM   H16G13114   5.584   1.931   8.662 -0.0055 -0.4641  0.6695
  123OSM   C17F13115   5.367   1.945   8.702 -0.8754  0.0605 -0.0014
  123OSM   H17F13116   5.287   2.011   8.660 -0.9940  0.1311  0.3354
  123OSM   H17G13117   5.383   1.988   8.803 -0.0307 -0.0779 -0.0686
  123OSM   C18F13118   5.317   1.803   8.710 -0.2162 -0.2506  0.1551
  123OSM   H18F13119   5.403   1.734   8.725  0.3173  0.3638 -0.0709
  123OSM   H18G13120   5.262   1.771   8.619 -0.9022 -1.6059  1.0045
  123OSM   H18H13121   5.242   1.782   8.790  1.7820  0.4111  2.3164
  124OSM      N13122   0.407   5.586   6.231  0.4977  0.3592 -0.5731
  124OSM    C1513123   0.407   5.441   6.199  0.5857 -0.0926 -0.2427
  124OSM   H15A13124   0.506   5.402   6.176  0.8283 -0.8297  1.8204
  124OSM   H15B13125   0.344   5.422   6.114 -0.8066  0.6350  0.5982
  124OSM   H15C13126   0.362   5.386   6.280  1.3575 -1.7620 -0.8849
  124OSM    C1413127   0.458   5.666   6.117  0.4046  0.6422 -1.0558
  124OSM   H14A13128   0.565   5.659   6.113  0.3861 -0.3949 -0.2815
  124OSM   H14B13129   0.428   5.769   6.131  0.6771  0.6308 -0.3353
  124OSM   H14C13130   0.408   5.634   6.027 -0.2189 -2.7299  0.3406
  124OSM    C1313131   0.270   5.628   6.258  0.2977  0.4561  0.0888
  124OSM   H13A13132   0.260   5.728   6.298 -0.1816 -0.1734  1.6302
  124OSM   H13B13133   0.223   5.568   6.336 -0.2924 -1.3557 -1.5753
  124OSM   H13C13134   0.209   5.635   6.169  0.0328 -1.5539  0.0513
  124OSM    C1213135   0.494   5.614   6.360  0.7697  0.0501 -0.7503
  124OSM   H12A13136   0.473   5.536   6.432 -0.2879  1.4402  0.4895
  124OSM   H12B13137   0.466   5.703   6.414 -3.2479 -0.9250 -0.8941
  124OSM    C1113138   0.643   5.634   6.332  0.6471 -0.8243 -0.1125
  124OSM   H11A13139   0.695   5.652   6.429  0.4570 -2.5492  0.3491
  124OSM   H11B13140   0.649   5.730   6.277 -1.4208 -0.8215 -0.4247
  124OSM      P13141   0.765   5.397   6.312 -0.1891  0.5307  0.1249
  124OSM    O1313142   0.724   5.284   6.227 -0.1699 -0.0751  0.3348
  124OSM    O1413143   0.914   5.429   6.323 -0.1954  0.1050  0.0705
  124OSM    O1113144   0.704   5.377   6.460 -0.4378  0.5319  0.0514
  124OSM    O1213145   0.697   5.524   6.253 -0.7743  0.3169  0.1527
  124OSM    C1S13146   0.770   5.266   6.520 -0.4961  0.5983 -0.6019
  124OSM    H1S13147   0.881   5.268   6.514 -0.1282 -1.9514  2.6933
  124OSM    H1T13148   0.730   5.169   6.483  0.6254  0.4023 -1.3570
  124OSM     NF13149   0.802   5.160   6.743  0.1581  0.2954  0.7663
  124OSM    HNF13150   0.736   5.093   6.775 -0.5923  0.4769 -0.3242
  124OSM    C2S13151   0.738   5.269   6.676 -0.5038  0.3761  0.7132
  124OSM    H2S13152   0.785   5.365   6.706  1.7071 -0.0244 -1.2350
  124OSM    C3S13153   0.583   5.280   6.702  0.2144  0.1158  1.0870
  124OSM    H3S13154   0.545   5.175   6.694 -0.7136  0.5787 -1.0788
  124OSM     O313155   0.506   5.359   6.610  0.5360  0.2553 -0.4171
  124OSM    HO313156   0.577   5.373   6.547  1.5943  1.1459  0.9000
  124OSM    C4S13157   0.566   5.336   6.842 -0.6359  0.6464 -0.7732
  124OSM    H4S13158   0.574   5.253   6.914  1.3393  0.0830 -1.5708
  124OSM    C5S13159   0.530   5.462   6.888 -0.0415 -0.2306  0.2311
  124OSM    H5S13160   0.494   5.538   6.817  1.2386  0.4488  0.2664
  124OSM    C6S13161   0.520   5.495   7.036  0.2948  0.0722 -0.1371
  124OSM    H6S13162   0.540   5.604   7.050 -0.9362  0.4765 -1.1977
  124OSM    H6T13163   0.600   5.440   7.089 -0.2813 -0.8198 -0.1723
  124OSM    C7S13164   0.381   5.466   7.089  0.7238 -0.2273 -0.1666
  124OSM    H7S13165   0.372   5.359   7.114 -1.3399 -0.0488 -0.0036
  124OSM    H7T13166   0.303   5.500   7.017 -1.8916 -1.5559  1.8511
  124OSM    C8S13167   0.346   5.547   7.218  0.2751  0.0125 -0.1828
  124OSM    H8S13168   0.237   5.559   7.240  0.6345  0.7384  1.3715
  124OSM    H8T13169   0.381   5.652   7.205  0.2372  0.3216  1.8936
  124OSM    C9S13170   0.415   5.483   7.340  0.0522  0.0087  0.9828
  124OSM    H9S13171   0.524   5.493   7.322 -0.5169  3.6343 -1.4617
  124OSM    H9T13172   0.391   5.374   7.348  1.5904 -0.3683  0.8757
  124OSM   C10S13173   0.382   5.559   7.471 -0.7452 -0.3085 -0.3723
  124OSM   H10S13174   0.283   5.608   7.471 -0.0082  1.2835  0.4686
  124OSM   H10T13175   0.461   5.636   7.486 -0.2155 -0.8288 -0.4312
  124OSM   C11S13176   0.380   5.464   7.590 -1.0288 -0.0682 -0.5224
  124OSM   H11S13177   0.470   5.399   7.587 -0.2127  1.0299 -0.4108
  124OSM   H11T13178   0.285   5.406   7.591 -0.7304 -0.6393 -2.2737
  124OSM   C12S13179   0.403   5.555   7.716  0.8359  0.2555 -0.1061
  124OSM   H12S13180   0.318   5.625   7.708  2.2064  1.8552 -1.3800
  124OSM   H12T13181   0.499   5.610   7.727  0.9663  0.1391 -0.6240
  124OSM   C13S13182   0.397   5.483   7.853  0.8558  0.2061  0.6614
  124OSM   H13S13183   0.460   5.393   7.843  1.9912  1.0827 -0.2398
  124OSM   H13T13184   0.292   5.448   7.867  0.5040  0.7315 -0.5392
  124OSM   C14S13185   0.430   5.562   7.976 -0.8156 -0.1940  0.3119
  124OSM   H14S13186   0.362   5.650   7.975  0.4208  0.7811  0.3615
  124OSM   H14T13187   0.533   5.601   7.958 -1.2983  0.7310 -0.5412
  124OSM   C15S13188   0.415   5.489   8.105  0.7644  0.2140 -0.1145
  124OSM   H15S13189   0.473   5.394   8.109  0.0243 -0.2916 -1.0598
  124OSM   H15T13190   0.306   5.466   8.104  0.9958 -1.2067  1.6760
  124OSM   C16S13191   0.436   5.571   8.230 -0.4514  0.0455  0.1124
  124OSM   H16S13192   0.377   5.665   8.216  0.8755  1.1236  1.3173
  124OSM   H16T13193   0.544   5.597   8.228 -0.4967  0.2612  0.2971
  124OSM   C17S13194   0.394   5.499   8.360  0.1192 -0.1739 -0.3392
  124OSM   H17S13195   0.472   5.424   8.382 -0.4426 -0.3388  1.1593
  124OSM   H17T13196   0.306   5.439   8.328 -0.1258  0.0336 -0.0632
  124OSM   C18S13197   0.361   5.599   8.467 -0.2009  0.5526  0.5183
  124OSM   H18S13198   0.343   5.556   8.568  0.2965  0.3991  0.5480
  124OSM   H18T13199   0.271   5.641   8.417  0.1422 -0.3677 -0.9543
  124OSM   H18U13200   0.435   5.681   8.480 -0.2782  0.2482  3.5180
  124OSM    C1F13201   0.932   5.151   6.765 -0.0485 -0.1628 -0.8147
  124OSM     OF13202   1.018   5.215   6.708  0.1047  0.2093  0.6032
  124OSM    C2F13203   0.974   5.052   6.876  0.0734  0.0884  0.1762
  124OSM    H2F13204   0.919   4.961   6.844 -0.9756  0.3766  1.1195
  124OSM    H2G13205   0.947   5.096   6.974 -1.1758  0.1175 -0.1660
  124OSM    C3F13206   1.124   5.025   6.874  0.3512 -0.0657 -1.0410
  124OSM    H3F13207   1.160   4.998   6.772 -0.0000 -1.3643 -0.8343
  124OSM    H3G13208   1.162   4.946   6.941  1.4824  0.9262 -0.4602
  124OSM    C4F13209   1.218   5.150   6.897 -0.4993  0.6834 -0.5779
  124OSM    H4F13210   1.198   5.225   6.817 -2.9853 -0.2982 -0.9606
  124OSM    H4G13211   1.317   5.100   6.890 -1.8282 -2.2622  0.2653
  124OSM    C5F13212   1.205   5.217   7.030  0.0019  0.4625 -0.1353
  124OSM    H5F13213   1.103   5.261   7.029 -0.6059 -0.9173 -0.4463
  124OSM    H5G13214   1.274   5.304   7.031  0.2461  0.3222 -1.9029
  124OSM    C6F13215   1.200   5.119   7.153 -0.7759 -0.0312 -0.2899
  124OSM    H6F13216   1.302   5.075   7.156  0.3163  2.3863  0.8704
  124OSM    H6G13217   1.125   5.039   7.134 -1.5121  0.2873  1.1221
  124OSM    C7F13218   1.172   5.187   7.287  0.2603 -0.2595 -0.3459
  124OSM    H7F13219   1.233   5.277   7.306 -0.6978  0.5738 -1.1169
  124OSM    H7G13220   1.188   5.113   7.368  2.8354  0.7405  0.1686
  124OSM    C8F13221   1.022   5.222   7.311  0.7130  0.1153 -0.1529
  124OSM    H8F13222   0.985   5.281   7.224  2.6848  2.6467  0.6079
  124OSM    H8G13223   1.010   5.282   7.404 -1.8130 -0.2050 -0.2002
  124OSM    C9F13224   0.929   5.102   7.324  0.1558 -0.0371 -0.0974
  124OSM    H9F13225   0.932   5.043   7.232 -2.2684 -2.1207  1.0494
  124OSM   C10F13226   0.878   5.052   7.431 -0.6753 -0.2222  0.6347
  124OSM   H10F13227   0.826   4.955   7.422 -1.8852  0.4414  0.1093
  124OSM   C11F13228   0.870   5.117   7.569  0.3918  0.0521 -0.8734
  124OSM   H11F13229   0.947   5.194   7.593  0.6575 -0.7250  0.9375
  124OSM   H11G13230   0.884   5.035   7.642  0.8917  0.5254 -0.4206
  124OSM   C12F13231   0.733   5.183   7.584  0.0263  0.5795  0.9742
  124OSM   H12F13232   0.657   5.117   7.537 -0.3498  1.2501  0.6425
  124OSM   H12G13233   0.719   5.273   7.522 -3.8990 -1.1873 -1.0732
  124OSM   C13F13234   0.677   5.188   7.731 -0.1144 -0.0503 -0.5465
  124OSM   H13F13235   0.641   5.087   7.763 -1.8298  0.2975 -1.2611
  124OSM   H13G13236   0.580   5.242   7.731  1.0753  2.2100 -0.9257
  124OSM   C14F13237   0.769   5.237   7.839  0.2985  0.9355  0.4323
  124OSM   H14F13238   0.788   5.346   7.827  0.3125  0.9314  0.4148
  124OSM   H14G13239   0.863   5.180   7.824 -1.6323 -2.0070 -1.5120
  124OSM   C15F13240   0.716   5.215   7.982  0.0064 -0.3624  0.4347
  124OSM   H15F13241   0.705   5.108   8.008  2.1637 -0.6751  0.2381
  124OSM   H15G13242   0.617   5.265   7.974  0.6893  0.7161 -2.6747
  124OSM   C16F13243   0.789   5.280   8.104  0.5032 -0.5049  0.2187
  124OSM   H16F13244   0.810   5.387   8.086  0.1509 -0.4288  0.2522
  124OSM   H16G13245   0.884   5.222   8.098  0.4542 -0.6352  0.6708
  124OSM   C17F13246   0.714   5.235   8.229  0.5863 -0.3526  0.0474
  124OSM   H17F13247   0.663   5.137   8.219 -0.3733 -0.0659  1.7356
  124OSM   H17G13248   0.639   5.316   8.242  0.6499  0.0532 -1.8849
  124OSM   C18F13249   0.808   5.232   8.348  0.3444 -0.6008 -0.0360
  124OSM   H18F13250   0.891   5.305   8.342 -1.0706  1.0538 -0.2809
  124OSM   H18G13251   0.848   5.129   8.361 -0.7377 -1.0291  0.0240
  124OSM   H18H13252   0.748   5.248   8.440  3.3266 -0.9194  2.1282
  125OSM      N13253   2.201   1.130   6.121 -0.4663 -0.6021 -0.3360
  125OSM    C1513254   2.299   1.156   6.004 -0.4751 -0.0041  0.3468
  125OSM   H15A13255   2.302   1.255   5.961  3.1736  0.4799  1.3616
  125OSM   H15B13256   2.292   1.090   5.919  0.2657  1.2468 -0.7236
  125OSM   H15C13257   2.395   1.136   6.050 -0.5641 -0.7142  0.2389
  125OSM    C1413258   2.062   1.136   6.065 -0.0848 -0.0622 -0.3082
  125OSM   H14A13259   2.032   1.055   6.000 -2.1714 -1.5143  2.2707
  125OSM   H14B13260   2.051   1.223   6.002  0.7067 -0.0598 -0.4625
  125OSM   H14C13261   1.993   1.145   6.147  1.9495  1.8491  1.3569
  125OSM    C1313262   2.225   0.995   6.183  0.0306 -0.3218 -0.4404
  125OSM   H13A13263   2.181   0.918   6.122  0.6449 -1.3747  0.4184
  125OSM   H13B13264   2.171   0.985   6.276  1.2806  1.1343  0.4975
  125OSM   H13C13265   2.329   0.971   6.198 -0.4205 -1.1703  1.6087
  125OSM    C1213266   2.211   1.245   6.227 -0.6003  0.0297  1.0953
  125OSM   H12A13267   2.215   1.338   6.172  0.0992 -0.6023  0.0263
  125OSM   H12B13268   2.308   1.238   6.274 -0.6758  1.9953  1.6261
  125OSM    C1113269   2.101   1.256   6.338 -0.0994 -0.4630 -0.0129
  125OSM   H11A13270   2.133   1.327   6.418 -3.4362  2.3568 -0.9018
  125OSM   H11B13271   2.078   1.158   6.386 -1.9130  0.0758  0.3037
  125OSM      P13272   1.979   1.480   6.266  0.0327  0.7670  0.0161
  125OSM    O1313273   2.109   1.523   6.210  0.0275  0.0737  0.2563
  125OSM    O1413274   1.862   1.507   6.177  0.0020 -0.3281 -0.4696
  125OSM    O1113275   1.955   1.540   6.412 -0.2860  0.7041  0.5268
  125OSM    O1213276   1.979   1.314   6.279 -0.7676 -0.0552 -0.0325
  125OSM    C1S13277   1.890   1.457   6.510 -0.3741 -0.8042  0.7052
  125OSM    H1S13278   1.909   1.348   6.496 -1.2928 -1.0359  1.1894
  125OSM    H1T13279   1.780   1.474   6.503  0.1698  2.6543 -2.8917
  125OSM     NF13280   1.828   1.410   6.742 -0.0530 -0.2980 -0.5748
  125OSM    HNF13281   1.754   1.471   6.770 -1.1808 -1.8739  0.0243
  125OSM    C2S13282   1.928   1.479   6.658  0.5144 -0.3717 -0.4824
  125OSM    H2S13283   2.029   1.444   6.691 -0.0907 -0.5299  1.2915
  125OSM    C3S13284   1.940   1.634   6.674  0.1707  0.5105  0.4125
  125OSM    H3S13285   1.855   1.683   6.622 -0.1047 -1.9073 -1.6533
  125OSM     O313286   2.053   1.694   6.608 -0.4589  0.0782  0.3100
  125OSM    HO313287   2.074   1.633   6.538  0.0527  1.3680 -0.6861
  125OSM    C4S13288   1.932   1.678   6.816 -0.1286 -0.0131  0.3564
  125OSM    H4S13289   1.830   1.695   6.854 -0.0123  0.5309  0.4376
  125OSM    C5S13290   2.031   1.706   6.906 -0.2677  0.2300  0.2412
  125OSM    H5S13291   2.138   1.710   6.880 -0.3199  3.4657  0.1770
  125OSM    C6S13292   2.005   1.751   7.043  0.1696  0.3759  0.7716
  125OSM    H6S13293   2.034   1.668   7.112 -0.6729 -0.7065 -0.1248
  125OSM    H6T13294   1.899   1.780   7.057  0.3202  1.3931 -0.0638
  125OSM    C7S13295   2.076   1.884   7.071 -1.1665 -0.7037  0.0087
  125OSM    H7S13296   2.057   1.967   7.000 -0.3804 -1.3794 -1.0160
  125OSM    H7T13297   2.185   1.874   7.086 -1.4871 -1.0108  2.6104
  125OSM    C8S13298   2.036   1.943   7.212 -0.4377  0.2580 -0.6626
  125OSM    H8S13299   2.076   1.866   7.281  0.5497 -1.7710 -3.2889
  125OSM    H8T13300   1.926   1.937   7.228 -0.5181  0.0378 -1.2435
  125OSM    C9S13301   2.098   2.081   7.246 -0.5528 -0.1231 -0.2299
  125OSM    H9S13302   2.059   2.150   7.169  1.8386  2.0264  0.3145
  125OSM    H9T13303   2.209   2.070   7.247 -0.7403 -2.8955 -1.3111
  125OSM   C10S13304   2.058   2.140   7.385 -0.3110 -0.2623 -0.0487
  125OSM   H10S13305   2.106   2.078   7.464 -1.1400  0.8816  1.4021
  125OSM   H10T13306   1.948   2.127   7.394 -0.1532 -1.4206  0.4633
  125OSM   C11S13307   2.099   2.280   7.391  0.5497  0.2972 -0.3972
  125OSM   H11S13308   2.040   2.345   7.324 -2.5381 -1.0026  0.8161
  125OSM   H11T13309   2.209   2.283   7.378  0.8250 -1.6536  0.9631
  125OSM   C12S13310   2.066   2.331   7.530 -0.4432 -0.4627 -0.7355
  125OSM   H12S13311   2.102   2.252   7.599 -3.4153  0.8040  2.5651
  125OSM   H12T13312   1.956   2.332   7.546 -0.0847 -0.5613  2.2623
  125OSM   C13S13313   2.128   2.472   7.548  0.3824  0.0845 -0.1477
  125OSM   H13S13314   2.100   2.526   7.455 -1.3271 -4.0081 -2.2498
  125OSM   H13T13315   2.239   2.470   7.545  0.4209  1.6771 -0.8075
  125OSM   C14S13316   2.081   2.543   7.670  0.0585 -0.3433  0.1932
  125OSM   H14S13317   1.970   2.538   7.674  0.0073 -0.3666 -0.8490
  125OSM   H14T13318   2.114   2.648   7.680  1.4045 -0.6091 -1.0390
  125OSM   C15S13319   2.154   2.479   7.786  0.8571  0.2756 -0.2136
  125OSM   H15S13320   2.261   2.506   7.776  0.4902  1.6166 -0.6958
  125OSM   H15T13321   2.144   2.369   7.769  4.3758 -0.1381 -0.3237
  125OSM   C16S13322   2.107   2.521   7.927  0.2347  0.1539  0.1504
  125OSM   H16S13323   1.996   2.530   7.925  0.1205  0.6207  3.2952
  125OSM   H16T13324   2.141   2.622   7.959 -0.8141  0.2371  1.0655
  125OSM   C17S13325   2.151   2.427   8.034  0.0194 -0.4024 -0.0986
  125OSM   H17S13326   2.261   2.439   8.034  0.0560 -0.6066  1.3467
  125OSM   H17T13327   2.135   2.321   8.005 -3.3122 -0.5355  1.7051
  125OSM   C18S13328   2.083   2.461   8.168 -0.4627 -0.5732 -0.5666
  125OSM   H18S13329   1.977   2.486   8.147 -0.5030  0.1296  0.4437
  125OSM   H18T13330   2.126   2.549   8.220 -0.5937 -0.2404 -1.0122
  125OSM   H18U13331   2.086   2.380   8.244 -0.7607  0.2626  0.3545
  125OSM    C1F13332   1.817   1.284   6.764  0.2113  0.5081 -0.3242
  125OSM     OF13333   1.884   1.203   6.705 -0.2139 -0.7033 -0.5795
  125OSM    C2F13334   1.722   1.236   6.873  0.2143 -0.4933 -0.1277
  125OSM    H2F13335   1.743   1.128   6.884  1.9679 -0.5986 -3.3261
  125OSM    H2G13336   1.616   1.239   6.838 -0.4879  1.9385  1.8830
  125OSM    C3F13337   1.750   1.292   7.019 -0.7738 -0.2113 -0.1648
  125OSM    H3F13338   1.762   1.402   7.028 -1.0355 -0.2467  0.6868
  125OSM    H3G13339   1.851   1.261   7.052 -0.8755 -0.3970 -0.0235
  125OSM    C4F13340   1.636   1.241   7.108 -0.5023 -0.3882 -0.2058
  125OSM    H4F13341   1.594   1.140   7.088 -2.2020  0.2100  0.1358
  125OSM    H4G13342   1.560   1.319   7.084  0.3155  0.6633  0.5356
  125OSM    C5F13343   1.676   1.250   7.258 -0.1162  0.0781 -0.1127
  125OSM    H5F13344   1.764   1.183   7.264  1.4922  2.0670 -0.1737
  125OSM    H5G13345   1.594   1.220   7.327  1.3532  0.1593  1.7453
  125OSM    C6F13346   1.723   1.397   7.291  0.0984  0.7534 -0.8700
  125OSM    H6F13347   1.635   1.457   7.261 -1.8012 -0.6972  1.3665
  125OSM    H6G13348   1.816   1.427   7.239  1.3164 -1.0776  0.1243
  125OSM    C7F13349   1.754   1.415   7.439  0.1811 -0.3520 -0.6217
  125OSM    H7F13350   1.812   1.327   7.473  1.2340  1.2666  2.0875
  125OSM    H7G13351   1.661   1.415   7.501  0.9914  0.9425  0.6544
  125OSM    C8F13352   1.836   1.549   7.457 -0.9617  0.5320 -0.2776
  125OSM    H8F13353   1.938   1.528   7.420 -0.8981  1.6561 -0.7939
  125OSM    H8G13354   1.832   1.549   7.568 -3.8101 -1.5654 -0.2690
  125OSM    C9F13355   1.785   1.680   7.399 -0.1436 -0.5913  0.6756
  125OSM    H9F13356   1.783   1.680   7.289 -1.9735 -0.1524  0.6783
  125OSM   C10F13357   1.728   1.794   7.456  0.1402  0.2947  0.5691
  125OSM   H10F13358   1.689   1.875   7.392 -0.6784  1.2313  2.1802
  125OSM   C11F13359   1.709   1.814   7.603  0.5023 -0.6373 -0.4418
  125OSM   H11F13360   1.723   1.726   7.670  0.3094 -0.0846  0.3349
  125OSM   H11G13361   1.605   1.844   7.628  0.2471 -2.5289  0.9784
  125OSM   C12F13362   1.802   1.923   7.666  0.2526 -0.4510 -0.0170
  125OSM   H12F13363   1.761   1.951   7.766  2.5220 -1.0134  1.1327
  125OSM   H12G13364   1.783   2.018   7.611 -1.9446 -0.2681  0.9202
  125OSM   C13F13365   1.951   1.882   7.669  0.0534 -0.2159  0.4443
  125OSM   H13F13366   1.991   1.880   7.566 -1.3698  2.7577 -0.2855
  125OSM   H13G13367   1.953   1.783   7.720  0.2744 -0.8810 -0.8137
  125OSM   C14F13368   2.039   1.984   7.748 -0.3163 -0.0325  0.4668
  125OSM   H14F13369   2.000   2.085   7.721  0.3911  0.8497  2.4786
  125OSM   H14G13370   2.143   1.984   7.711 -0.4324 -1.7259  0.0824
  125OSM   C15F13371   2.042   1.958   7.903 -0.6324  0.2215  0.0169
  125OSM   H15F13372   2.146   1.963   7.940 -0.7783 -1.0125  0.6291
  125OSM   H15G13373   2.005   1.857   7.931 -0.5736  0.6626  1.8120
  125OSM   C16F13374   1.964   2.060   7.985 -0.1478  0.3398 -0.1822
  125OSM   H16F13375   1.857   2.069   7.957 -0.7970 -1.5348  1.5188
  125OSM   H16G13376   2.011   2.161   7.980  2.9271 -1.0172 -1.0424
  125OSM   C17F13377   1.929   2.020   8.133  0.3275 -0.2618  0.9227
  125OSM   H17F13378   2.025   2.004   8.187  0.9886 -0.2731 -0.2218
  125OSM   H17G13379   1.896   1.914   8.141  0.2986 -0.4377 -1.1026
  125OSM   C18F13380   1.836   2.126   8.190 -0.1030 -0.8708  0.0220
  125OSM   H18F13381   1.876   2.229   8.180 -1.2226 -0.6547 -4.7535
  125OSM   H18G13382   1.839   2.102   8.298 -1.1458 -2.1059 -0.2004
  125OSM   H18H13383   1.731   2.124   8.152 -1.6446 -1.2859  3.8483
  126OSM      N13384   5.558   0.431   6.147  0.2732  0.9337 -0.2482
  126OSM    C1513385   5.651   0.543   6.155  0.4738 -0.4397  0.1605
  126OSM   H15A13386   5.642   0.607   6.069  0.9367  0.3194  0.6620
  126OSM   H15B13387   5.755   0.525   6.175  0.6604  1.1121  0.6694
  126OSM   H15C13388   5.616   0.604   6.237 -1.4353 -1.4709  0.1786
  126OSM    C1413389   5.420   0.477   6.121  0.0671  0.1911  0.5974
  126OSM   H14A13390   5.406   0.523   6.025 -0.5922  1.7679  1.4156
  126OSM   H14B13391   5.370   0.539   6.195 -1.6496 -0.9884  0.4846
  126OSM   H14C13392   5.357   0.389   6.119 -0.8857  0.8730  0.0280
  126OSM    C1313393   5.591   0.343   6.038 -0.2320 -0.5395  0.3218
  126OSM   H13A13394   5.692   0.305   6.040 -0.4303 -1.2369 -1.5095
  126OSM   H13B13395   5.594   0.401   5.947  0.5645 -0.7337  0.2205
  126OSM   H13C13396   5.523   0.261   6.021  0.3861 -1.4548  1.9847
  126OSM    C1213397   5.555   0.359   6.279 -0.4880  0.0496  0.1307
  126OSM   H12A13398   5.655   0.329   6.308 -0.5433 -1.7986 -1.3720
  126OSM   H12B13399   5.511   0.260   6.270 -1.3209  0.1804  2.2674
  126OSM    C1113400   5.478   0.425   6.390  0.6264  0.1003 -0.4543
  126OSM   H11A13401   5.370   0.415   6.368  0.0604 -0.7998  2.3375
  126OSM   H11B13402   5.494   0.532   6.415  1.6536 -0.3872  1.1430
  126OSM      P13403   5.628   0.395   6.607 -0.1993 -0.2212  0.2481
  126OSM    O1313404   5.666   0.280   6.696  0.3793 -0.6006 -0.2369
  126OSM    O1413405   5.739   0.455   6.529 -0.3300  0.2694 -0.5581
  126OSM    O1113406   5.574   0.510   6.689  0.2931 -0.1588  0.0693
  126OSM    O1213407   5.507   0.353   6.510 -0.2150  0.3980  0.2973
  126OSM    C1S13408   5.437   0.513   6.728 -0.7649  0.7883  0.2438
  126OSM    H1S13409   5.372   0.444   6.670  0.7885  0.1981 -0.8611
  126OSM    H1T13410   5.394   0.612   6.704 -0.8060  0.2121 -2.3155
  126OSM     NF13411   5.290   0.425   6.890 -0.5609 -0.1832 -0.0853
  126OSM    HNF13412   5.218   0.493   6.902  0.2407  0.4255  1.7272
  126OSM    C2S13413   5.422   0.483   6.873  0.1643  0.2023 -0.1586
  126OSM    H2S13414   5.497   0.406   6.901 -0.5712  0.4859  2.9762
  126OSM    C3S13415   5.462   0.623   6.947 -0.2340 -0.0086 -0.8826
  126OSM    H3S13416   5.398   0.700   6.900 -2.3514 -0.4502  1.0877
  126OSM     O313417   5.598   0.659   6.934 -0.1473  0.1943  0.1329
  126OSM    HO313418   5.608   0.603   6.857 -3.5276  0.2111 -0.4617
  126OSM    C4S13419   5.433   0.620   7.097 -0.9479 -0.1653 -0.1557
  126OSM    H4S13420   5.489   0.535   7.140 -2.4801 -0.5338  1.2211
  126OSM    C5S13421   5.349   0.691   7.175 -0.3440 -0.1831  0.6206
  126OSM    H5S13422   5.283   0.772   7.142 -0.6649 -0.8774 -0.4958
  126OSM    C6S13423   5.345   0.667   7.329  0.1327 -0.0016 -0.6187
  126OSM    H6S13424   5.240   0.656   7.363  0.0740  0.5509 -0.6146
  126OSM    H6T13425   5.385   0.753   7.386 -0.5712  0.3083 -0.5798
  126OSM    C7S13426   5.422   0.541   7.389 -0.2392 -0.1710 -0.1414
  126OSM    H7S13427   5.528   0.545   7.358 -0.8983  0.7008 -2.5851
  126OSM    H7T13428   5.385   0.451   7.334  1.2178 -0.6354 -0.3901
  126OSM    C8S13429   5.390   0.524   7.545 -0.3321  0.0624  0.4487
  126OSM    H8S13430   5.430   0.423   7.565 -2.5102 -0.9177  0.1345
  126OSM    H8T13431   5.280   0.513   7.557 -0.6663 -3.2719 -3.3807
  126OSM    C9S13432   5.455   0.634   7.625  0.4727  0.2204 -0.1876
  126OSM    H9S13433   5.387   0.720   7.611  1.4101  1.4282  2.1634
  126OSM    H9T13434   5.557   0.665   7.593  0.7352 -1.9746 -1.7106
  126OSM   C10S13435   5.469   0.602   7.772  0.0098  0.1305 -0.3524
  126OSM   H10S13436   5.540   0.518   7.789  1.4325  1.3141 -0.2976
  126OSM   H10T13437   5.368   0.562   7.796 -0.2964  0.7504 -0.5908
  126OSM   C11S13438   5.484   0.720   7.871 -0.5500 -0.4525  0.4061
  126OSM   H11S13439   5.398   0.790   7.857  0.2103  0.2609 -0.9494
  126OSM   H11T13440   5.569   0.785   7.841 -2.0066  1.3827  0.0158
  126OSM   C12S13441   5.521   0.678   8.016  0.4464 -0.2907  0.1332
  126OSM   H12S13442   5.615   0.621   8.004  0.5384  0.1863 -1.7624
  126OSM   H12T13443   5.440   0.612   8.055  1.2706 -1.7151 -0.4736
  126OSM   C13S13444   5.527   0.796   8.105 -0.5675 -0.1227 -0.4290
  126OSM   H13S13445   5.423   0.835   8.102  0.2874  2.2992 -1.8610
  126OSM   H13T13446   5.603   0.867   8.065  0.7373 -0.0750  1.9898
  126OSM   C14S13447   5.568   0.767   8.244 -0.2863  0.7507 -0.0273
  126OSM   H14S13448   5.672   0.729   8.255 -0.6564 -0.2305  0.2229
  126OSM   H14T13449   5.495   0.695   8.287 -0.0740  1.0310  0.8423
  126OSM   C15S13450   5.573   0.896   8.332 -0.2578  0.6635  0.2442
  126OSM   H15S13451   5.530   0.978   8.271 -1.9079  0.2115  0.7392
  126OSM   H15T13452   5.675   0.934   8.354 -0.4164  1.8884 -1.0418
  126OSM   C16S13453   5.493   0.878   8.460 -0.0813  0.3255 -0.0437
  126OSM   H16S13454   5.553   0.816   8.530 -1.2707 -0.0473  0.6956
  126OSM   H16T13455   5.396   0.827   8.437  0.4695 -0.2030 -1.3059
  126OSM   C17S13456   5.472   1.010   8.527 -0.1205 -0.2905 -0.4174
  126OSM   H17S13457   5.400   1.072   8.468  1.6824  0.1186 -2.3025
  126OSM   H17T13458   5.569   1.060   8.544 -0.6274  0.9755 -1.0948
  126OSM   C18S13459   5.397   0.995   8.660  0.6631  0.1427 -0.5941
  126OSM   H18S13460   5.372   1.094   8.704 -0.4728 -0.7832  0.9357
  126OSM   H18T13461   5.467   0.940   8.726  0.3707  1.8374  1.1966
  126OSM   H18U13462   5.305   0.936   8.640  1.1461 -0.9927  0.4299
  126OSM    C1F13463   5.258   0.296   6.873  0.8037  0.7594  0.3370
  126OSM     OF13464   5.321   0.202   6.832 -0.8498  0.0113  0.1911
  126OSM    C2F13465   5.117   0.269   6.909  0.1685 -0.2860  0.4601
  126OSM    H2F13466   5.076   0.211   6.824  0.3255 -2.0248  1.5313
  126OSM    H2G13467   5.056   0.362   6.905  0.0136 -0.3921  0.3879
  126OSM    C3F13468   5.095   0.197   7.038  0.1075  0.1142  0.0609
  126OSM    H3F13469   5.127   0.091   7.030 -1.3624 -0.5162  1.7458
  126OSM    H3G13470   4.986   0.201   7.055 -0.0426  0.0564 -0.8441
  126OSM    C4F13471   5.175   0.249   7.159 -0.1371 -0.0228 -0.1328
  126OSM    H4F13472   5.162   0.359   7.162  2.6068  0.4380 -1.3537
  126OSM    H4G13473   5.282   0.221   7.143 -0.5299 -2.3982  0.9747
  126OSM    C5F13474   5.118   0.188   7.284 -0.2889  0.4207 -0.6220
  126OSM    H5F13475   5.090   0.081   7.270 -1.3240  0.6755 -0.5571
  126OSM    H5G13476   5.018   0.233   7.297  0.2006  1.6121 -0.8257
  126OSM    C6F13477   5.189   0.231   7.416 -0.0488  1.2527  0.0418
  126OSM    H6F13478   5.199   0.341   7.418  1.2331  1.3355 -3.7690
  126OSM    H6G13479   5.295   0.200   7.414  0.2133  2.1548 -0.2253
  126OSM    C7F13480   5.124   0.175   7.542 -0.0570  0.2950  0.5855
  126OSM    H7F13481   5.131   0.064   7.543  0.3313  0.2838 -0.8676
  126OSM    H7G13482   5.019   0.212   7.553 -0.8322 -1.6217  0.1223
  126OSM    C8F13483   5.200   0.232   7.661 -0.6386 -0.3764  0.9136
  126OSM    H8F13484   5.194   0.342   7.652  1.9613 -0.3265 -2.9781
  126OSM    H8G13485   5.310   0.218   7.659 -0.2007  2.5238  0.1674
  126OSM    C9F13486   5.142   0.182   7.793  0.5509 -0.0927  0.3563
  126OSM    H9F13487   5.046   0.130   7.776 -1.1548  2.5408  1.3899
  126OSM   C10F13488   5.195   0.176   7.917 -0.1632  0.0949  0.2539
  126OSM   H10F13489   5.136   0.122   7.993  0.0071 -1.1840 -0.4929
  126OSM   C11F13490   5.320   0.236   7.977 -0.3355 -0.5000  0.1479
  126OSM   H11F13491   5.357   0.313   7.906  0.9536 -0.4213  0.8744
  126OSM   H11G13492   5.405   0.166   7.990 -0.5586 -0.8425 -0.1616
  126OSM   C12F13493   5.297   0.318   8.107  0.7854 -0.3103  0.2964
  126OSM   H12F13494   5.395   0.369   8.119  0.8285  1.0050 -3.8872
  126OSM   H12G13495   5.284   0.239   8.183  0.5904 -0.3565  0.2186
  126OSM   C13F13496   5.191   0.428   8.116  0.0204 -0.2964 -0.0547
  126OSM   H13F13497   5.095   0.373   8.127  1.9206 -3.6615  1.4285
  126OSM   H13G13498   5.201   0.485   8.021  1.6790 -0.5852 -0.0703
  126OSM   C14F13499   5.213   0.518   8.236  0.3945 -0.5601 -0.2417
  126OSM   H14F13500   5.123   0.583   8.242  0.1675 -1.0096  2.4838
  126OSM   H14G13501   5.291   0.594   8.217  0.0287 -0.2276 -0.4424
  126OSM   C15F13502   5.226   0.445   8.369 -0.2193  0.3702  1.1927
  126OSM   H15F13503   5.312   0.376   8.359 -1.9056 -1.6525 -0.0579
  126OSM   H15G13504   5.143   0.375   8.392  1.0400 -2.2198 -1.4919
  126OSM   C16F13505   5.243   0.544   8.483 -0.4308 -0.3958  0.2243
  126OSM   H16F13506   5.138   0.574   8.502 -1.5319 -3.5199 -0.3749
  126OSM   H16G13507   5.302   0.627   8.439 -1.2370 -0.9336 -2.0275
  126OSM   C17F13508   5.324   0.495   8.602  0.2447  0.0660 -0.2021
  126OSM   H17F13509   5.272   0.402   8.632 -1.3473  1.5250  1.9207
  126OSM   H17G13510   5.313   0.565   8.688 -1.3243  0.1924 -0.4682
  126OSM   C18F13511   5.472   0.466   8.570 -0.3726  0.1199 -0.1039
  126OSM   H18F13512   5.491   0.388   8.493 -0.4542 -0.0948  0.0951
  126OSM   H18G13513   5.529   0.437   8.660 -2.7842 -1.9660  0.8625
  126OSM   H18H13514   5.519   0.558   8.528  0.4697 -0.1951  0.1219
  127OSM      N13515   4.630   3.201   6.090 -0.2971  0.3555  0.1602
  127OSM    C1513516   4.594   3.170   5.949  0.0999 -0.2373  0.1508
  127OSM   H15A13517   4.616   3.256   5.887 -0.8912 -0.8160 -1.0503
  127OSM   H15B13518   4.487   3.154   5.946  0.4635 -3.0563 -1.3419
  127OSM   H15C13519   4.643   3.086   5.902 -0.4147 -1.8706  2.3734
  127OSM    C1413520   4.784   3.204   6.104 -0.1634 -0.2758  0.9432
  127OSM   H14A13521   4.823   3.282   6.041 -0.4027 -0.5565  0.4388
  127OSM   H14B13522   4.837   3.116   6.070  0.8172  1.5372 -2.6712
  127OSM   H14C13523   4.831   3.223   6.199  1.0074  2.7610 -0.1404
  127OSM    C1313524   4.570   3.331   6.130  0.0115  0.9430 -0.0040
  127OSM   H13A13525   4.477   3.346   6.076  0.6983 -0.6361 -1.7093
  127OSM   H13B13526   4.642   3.409   6.109  0.2095  0.3339 -1.8023
  127OSM   H13C13527   4.544   3.334   6.234 -1.5471  2.1212 -0.3753
  127OSM    C1213528   4.564   3.089   6.178  0.2318  0.6613  0.4380
  127OSM   H12A13529   4.605   2.999   6.134  0.2154  0.9975 -0.2945
  127OSM   H12B13530   4.458   3.089   6.161  0.5468  0.5590 -1.8853
  127OSM    C1113531   4.606   3.078   6.319  0.3445  0.0095  0.2435
  127OSM   H11A13532   4.716   3.092   6.333  0.6565 -1.3474 -0.7050
  127OSM   H11B13533   4.584   2.971   6.339 -1.8162 -0.1996 -2.7149
  127OSM      P13534   4.396   3.127   6.473  0.2779 -0.0293 -0.3862
  127OSM    O1313535   4.299   3.235   6.477  0.2577 -0.1407 -0.3518
  127OSM    O1413536   4.355   3.001   6.408 -0.4976  0.1860 -0.5783
  127OSM    O1113537   4.464   3.094   6.606  0.1654  0.4025  0.0211
  127OSM    O1213538   4.524   3.168   6.392  0.0802  0.0946  0.1209
  127OSM    C1S13539   4.389   3.137   6.724 -0.5310 -0.1299  0.2486
  127OSM    H1S13540   4.290   3.088   6.739 -1.1450  1.4392  1.5469
  127OSM    H1T13541   4.382   3.248   6.725  3.0984  0.2414  2.2561
  127OSM     NF13542   4.383   3.110   6.966  0.5921 -0.0703  0.3207
  127OSM    HNF13543   4.385   3.200   7.010 -1.0913  0.2213 -0.1391
  127OSM    C2S13544   4.477   3.106   6.850 -0.0461 -0.2077  0.3375
  127OSM    H2S13545   4.515   3.002   6.845 -0.9887 -0.5695  0.4963
  127OSM    C3S13546   4.594   3.208   6.857 -0.3886 -0.3905 -0.1208
  127OSM    H3S13547   4.544   3.307   6.859 -2.6489 -1.4777  0.5586
  127OSM     O313548   4.678   3.213   6.739  0.5384  0.2103  0.0489
  127OSM    HO313549   4.618   3.176   6.675 -0.4982 -0.2031  1.2128
  127OSM    C4S13550   4.687   3.190   6.973 -0.1710  1.0290 -0.0903
  127OSM    H4S13551   4.745   3.097   6.980  0.9501  1.6781 -0.4528
  127OSM    C5S13552   4.721   3.279   7.070 -0.4796 -0.1038  0.4069
  127OSM    H5S13553   4.676   3.379   7.071  2.4969  1.3762 -1.1874
  127OSM    C6S13554   4.812   3.262   7.182 -0.5633  0.4893 -0.5978
  127OSM    H6S13555   4.915   3.290   7.153  0.3651 -0.6109  1.4267
  127OSM    H6T13556   4.820   3.158   7.221 -0.0226  0.5890 -0.4362
  127OSM    C7S13557   4.767   3.340   7.308  0.6941  0.2815  0.4727
  127OSM    H7S13558   4.676   3.295   7.353  1.4911 -1.4754  0.4156
  127OSM    H7T13559   4.744   3.445   7.282  1.5676  0.5313  0.6713
  127OSM    C8S13560   4.881   3.344   7.403 -0.1681  0.0656 -0.7271
  127OSM    H8S13561   4.975   3.387   7.361  1.1103 -0.8488  1.0977
  127OSM    H8T13562   4.905   3.242   7.440 -0.9061  0.8837  2.2634
  127OSM    C9S13563   4.847   3.416   7.535  0.6490 -0.8769 -0.7683
  127OSM    H9S13564   4.791   3.506   7.505 -0.2855 -2.0433 -2.7642
  127OSM    H9T13565   4.944   3.446   7.581  1.0591  0.5899 -2.4762
  127OSM   C10S13566   4.764   3.333   7.630  0.5530 -0.2852  0.1567
  127OSM   H10S13567   4.819   3.237   7.639 -0.5614 -1.0584 -0.9155
  127OSM   H10T13568   4.673   3.298   7.576  1.5499 -0.7678 -1.2625
  127OSM   C11S13569   4.728   3.391   7.769  0.3492 -0.4802 -0.1205
  127OSM   H11S13570   4.647   3.325   7.807  0.3677 -0.3534  0.1461
  127OSM   H11T13571   4.698   3.496   7.750  0.5184 -0.5603 -0.8438
  127OSM   C12S13572   4.847   3.385   7.871 -0.3714  0.3605 -0.1057
  127OSM   H12S13573   4.811   3.421   7.970 -0.0731  1.8141 -0.5026
  127OSM   H12T13574   4.922   3.459   7.835  0.1232 -0.0797  0.0088
  127OSM   C13S13575   4.921   3.249   7.897  0.1616 -0.3650  0.0906
  127OSM   H13S13576   4.973   3.211   7.806 -0.3861 -0.2687 -0.2648
  127OSM   H13T13577   4.841   3.175   7.917 -1.8857  1.3864 -1.2023
  127OSM   C14S13578   5.004   3.259   8.026  0.5437  0.4563  1.0682
  127OSM   H14S13579   4.942   3.290   8.113 -0.8250  0.8343 -0.0039
  127OSM   H14T13580   5.075   3.344   8.013 -0.9664  1.7692  1.1544
  127OSM   C15S13581   5.086   3.138   8.062 -0.2572  0.3506 -0.6243
  127OSM   H15S13582   5.163   3.116   7.984  1.1136  1.4118  0.3784
  127OSM   H15T13583   5.030   3.042   8.072 -3.2568  1.9727 -0.6569
  127OSM   C16S13584   5.171   3.161   8.191 -0.0751 -0.1490 -1.3314
  127OSM   H16S13585   5.208   3.071   8.245 -0.2454  0.9648  0.7530
  127OSM   H16T13586   5.111   3.222   8.263  1.1928 -1.7123  1.1811
  127OSM   C17S13587   5.302   3.248   8.172  0.2603 -0.7311 -0.0244
  127OSM   H17S13588   5.279   3.355   8.154 -1.5485 -1.0581  0.1556
  127OSM   H17T13589   5.355   3.199   8.088  2.7129  1.9618 -0.1885
  127OSM   C18S13590   5.395   3.233   8.294  0.0518 -0.6680  0.6664
  127OSM   H18S13591   5.486   3.296   8.285  0.5781 -1.4811  0.2015
  127OSM   H18T13592   5.436   3.130   8.293 -1.0852 -1.1559 -1.0748
  127OSM   H18U13593   5.336   3.250   8.387  0.6045 -0.2544  0.9449
  127OSM    C1F13594   4.305   3.006   6.992 -1.1575 -0.3566 -0.2749
  127OSM     OF13595   4.278   2.908   6.920  0.0126 -0.0524 -0.3212
  127OSM    C2F13596   4.247   3.008   7.126  0.0053 -0.0732  0.7886
  127OSM    H2F13597   4.323   3.051   7.194 -0.6726  0.5876  1.1374
  127OSM    H2G13598   4.240   2.904   7.164  0.7346 -0.4300 -0.0123
  127OSM    C3F13599   4.119   3.089   7.123 -0.0359  0.5751  0.8707
  127OSM    H3F13600   4.061   3.069   7.031 -0.6579 -0.7539  1.5345
  127OSM    H3G13601   4.129   3.200   7.112  0.4143  0.7017  2.2790
  127OSM    C4F13602   4.026   3.063   7.237 -0.5940  0.0765  0.0527
  127OSM    H4F13603   3.967   2.971   7.217 -0.3116 -0.3486  1.0608
  127OSM    H4G13604   3.969   3.158   7.237  0.5012  0.7589  0.1087
  127OSM    C5F13605   4.103   3.051   7.369  0.5999  0.0940 -0.1195
  127OSM    H5F13606   4.177   3.132   7.380 -2.0303  2.3808  2.3250
  127OSM    H5G13607   4.163   2.957   7.371 -2.4527 -2.0399 -0.5238
  127OSM    C6F13608   4.011   3.053   7.486  0.2854 -0.2951  0.4097
  127OSM    H6F13609   3.925   2.983   7.474  0.7141 -0.7979  0.2198
  127OSM    H6G13610   3.970   3.155   7.469 -0.2645 -0.7323 -1.0557
  127OSM    C7F13611   4.078   3.050   7.621  0.1556 -0.9064  0.2208
  127OSM    H7F13612   4.162   3.122   7.612  0.0739 -0.6883  1.0791
  127OSM    H7G13613   4.124   2.950   7.637 -0.0484 -0.9670  0.4212
  127OSM    C8F13614   3.998   3.081   7.747  0.6923 -0.5151  0.4515
  127OSM    H8F13615   3.916   3.015   7.782  0.0134 -0.3314 -0.7517
  127OSM    H8G13616   3.945   3.177   7.728  2.0624 -0.2556 -2.7487
  127OSM    C9F13617   4.090   3.105   7.871 -0.7324 -0.3811  0.7883
  127OSM    H9F13618   4.185   3.050   7.885 -0.6757 -0.1099  1.5560
  127OSM   C10F13619   4.043   3.184   7.972  0.4601 -0.3089 -0.2990
  127OSM   H10F13620   4.114   3.215   8.050  2.6415 -0.1565 -2.2643
  127OSM   C11F13621   3.908   3.256   7.986 -0.1017  0.2719  0.4568
  127OSM   H11F13622   3.837   3.229   7.905  0.1899 -1.4874  0.7387
  127OSM   H11G13623   3.928   3.365   7.984  0.4020  0.1707 -0.2927
  127OSM   C12F13624   3.859   3.226   8.129  0.2465 -0.0560 -0.0858
  127OSM   H12F13625   3.784   3.307   8.147  2.1088  1.9332 -0.7899
  127OSM   H12G13626   3.944   3.253   8.195  0.8655 -0.2984 -0.7704
  127OSM   C13F13627   3.802   3.086   8.160  0.1757 -0.2608  0.2387
  127OSM   H13F13628   3.875   3.017   8.113  2.1481  2.2709 -0.6413
  127OSM   H13G13629   3.706   3.083   8.103 -0.0660  0.9354  0.5435
  127OSM   C14F13630   3.780   3.070   8.306 -0.2876  0.5789  0.9682
  127OSM   H14F13631   3.702   3.134   8.351 -1.2448  0.8959 -1.0038
  127OSM   H14G13632   3.877   3.091   8.356  0.8068 -0.2922 -0.6685
  127OSM   C15F13633   3.723   2.931   8.356  0.0903 -0.0266  0.2949
  127OSM   H15F13634   3.765   2.848   8.295  0.5578  1.1205 -0.9955
  127OSM   H15G13635   3.619   2.914   8.320  0.9747 -3.9033 -0.9138
  127OSM   C16F13636   3.726   2.904   8.508 -0.1992  0.5000  0.1504
  127OSM   H16F13637   3.688   2.983   8.576  3.3651  0.1253  2.8426
  127OSM   H16G13638   3.834   2.891   8.528  0.3106  1.7712 -1.5312
  127OSM   C17F13639   3.661   2.777   8.565  0.2420 -0.2508 -0.0020
  127OSM   H17F13640   3.672   2.687   8.500  0.1687 -2.4759  2.8519
  127OSM   H17G13641   3.551   2.788   8.580 -0.0713 -1.8172 -0.8809
  127OSM   C18F13642   3.738   2.745   8.693 -0.2320  0.8315 -0.3213
  127OSM   H18F13643   3.709   2.808   8.780  0.8868 -0.2651  0.9005
  127OSM   H18G13644   3.847   2.753   8.675 -0.3936  1.3836 -1.0910
  127OSM   H18H13645   3.714   2.639   8.715  0.6206  1.0235  1.8695
  128OSM      N13646   4.677   6.655   6.115 -0.4625  0.3069 -0.2867
  128OSM    C1513647   4.775   6.542   6.142  0.0751 -0.4759  0.5777
  128OSM   H15A13648   4.717   6.474   6.202 -2.1794  0.7529 -0.1014
  128OSM   H15B13649   4.862   6.578   6.196 -0.6857  1.3581  0.6557
  128OSM   H15C13650   4.818   6.491   6.057 -0.0997 -0.1333  0.2813
  128OSM    C1413651   4.753   6.770   6.041 -0.3329  0.2334 -0.2882
  128OSM   H14A13652   4.775   6.742   5.939  0.3691  0.2543 -0.1527
  128OSM   H14B13653   4.843   6.783   6.100 -0.4409  2.8471 -0.5975
  128OSM   H14C13654   4.691   6.858   6.041 -0.2592  0.2853 -0.6846
  128OSM    C1313655   4.570   6.610   6.024 -0.4405 -0.6611  0.0283
  128OSM   H13A13656   4.531   6.514   6.053 -0.4218 -0.1644  1.8231
  128OSM   H13B13657   4.616   6.608   5.926  1.4066 -0.5637  0.8498
  128OSM   H13C13658   4.488   6.681   6.027  0.4898  0.4453  2.8474
  128OSM    C1213659   4.617   6.701   6.248  0.8368 -0.1466  0.1224
  128OSM   H12A13660   4.568   6.795   6.229  0.8250 -0.0895  0.4278
  128OSM   H12B13661   4.695   6.718   6.320 -0.8865  1.4800  1.7156
  128OSM    C1113662   4.515   6.609   6.321  1.0344  0.1464 -0.1663
  128OSM   H11A13663   4.510   6.649   6.424  0.6873  1.8951 -0.8344
  128OSM   H11B13664   4.552   6.504   6.312 -0.4757 -0.4056 -0.1647
  128OSM      P13665   4.286   6.498   6.252 -0.1406  0.1336 -0.1342
  128OSM    O1313666   4.158   6.523   6.183 -0.1505 -0.2501 -0.7604
  128OSM    O1413667   4.363   6.393   6.183 -0.3860  0.3215  0.4920
  128OSM    O1113668   4.250   6.452   6.398 -0.1816 -0.5343 -0.1232
  128OSM    O1213669   4.381   6.626   6.267  1.0808  0.5718 -0.1138
  128OSM    C1S13670   4.186   6.561   6.481  0.1443  0.2271  0.4612
  128OSM    H1S13671   4.075   6.554   6.468  0.4300 -0.9046 -1.8359
  128OSM    H1T13672   4.210   6.665   6.450  0.0495  0.2655  0.5168
  128OSM     NF13673   4.130   6.658   6.689 -0.4537 -0.2759  0.1557
  128OSM    HNF13674   4.185   6.739   6.708 -1.8495  1.4294 -2.3922
  128OSM    C2S13675   4.210   6.550   6.632 -0.1174  1.1068 -0.8218
  128OSM    H2S13676   4.165   6.453   6.662  1.8483  0.6185  0.7543
  128OSM    C3S13677   4.357   6.554   6.662 -0.4690  0.0906 -0.1715
  128OSM    H3S13678   4.389   6.656   6.632 -1.2898  0.4603  0.1647
  128OSM     O313679   4.445   6.459   6.597 -0.2821  0.4080  0.1053
  128OSM    HO313680   4.379   6.423   6.537  0.9899 -0.4807 -0.8125
  128OSM    C4S13681   4.387   6.547   6.812  0.3685  0.6879 -0.5274
  128OSM    H4S13682   4.344   6.640   6.853 -3.1988 -0.5503 -1.0895
  128OSM    C5S13683   4.421   6.442   6.884 -1.2405 -0.5631 -0.6154
  128OSM    H5S13684   4.446   6.349   6.831 -1.4704  0.1430 -2.0016
  128OSM    C6S13685   4.442   6.441   7.030 -0.2115 -0.3122 -0.6303
  128OSM    H6S13686   4.547   6.474   7.049 -1.2308  2.8296  0.1619
  128OSM    H6T13687   4.408   6.346   7.076 -0.7674 -1.0644 -2.5080
  128OSM    C7S13688   4.368   6.563   7.105 -0.7782 -0.8113  0.0966
  128OSM    H7S13689   4.263   6.567   7.066 -1.5846  0.1025  2.2381
  128OSM    H7T13690   4.431   6.650   7.077 -1.1191  0.2427  2.4195
  128OSM    C8S13691   4.365   6.543   7.255 -0.4649 -0.4766  0.8384
  128OSM    H8S13692   4.309   6.448   7.270  0.2826 -1.1498 -0.4758
  128OSM    H8T13693   4.302   6.631   7.282  0.5129  0.4108  0.3013
  128OSM    C9S13694   4.501   6.539   7.331 -0.3167  0.1581  0.0040
  128OSM    H9S13695   4.569   6.611   7.281 -1.8435 -0.2518 -2.8467
  128OSM    H9T13696   4.546   6.441   7.303  2.2172  1.7302 -1.8670
  128OSM   C10S13697   4.478   6.559   7.475 -0.2171 -0.5307 -0.0191
  128OSM   H10S13698   4.419   6.653   7.483  1.3754  0.3949  1.4582
  128OSM   H10T13699   4.567   6.584   7.536 -0.8163 -1.0635  1.0935
  128OSM   C11S13700   4.439   6.438   7.551  0.3736  0.1163 -0.1488
  128OSM   H11S13701   4.515   6.361   7.524  1.4215  0.6512  1.1380
  128OSM   H11T13702   4.344   6.386   7.525  0.3126  0.2507 -0.1912
  128OSM   C12S13703   4.451   6.450   7.708  0.1881 -0.6412  0.3933
  128OSM   H12S13704   4.558   6.470   7.730  0.0895  0.0373  0.2696
  128OSM   H12T13705   4.421   6.349   7.744  0.4013 -0.7724  0.2072
  128OSM   C13S13706   4.351   6.554   7.768  0.1663  0.1289 -0.0792
  128OSM   H13S13707   4.256   6.501   7.744  0.2500  0.8732 -2.3543
  128OSM   H13T13708   4.352   6.657   7.726  0.9626  0.5400  0.9102
  128OSM   C14S13709   4.366   6.565   7.918  0.4548  0.9060 -0.0075
  128OSM   H14S13710   4.361   6.460   7.953  2.3669  0.3165 -1.2723
  128OSM   H14T13711   4.272   6.612   7.954 -0.8384 -0.5943 -1.2727
  128OSM   C15S13712   4.504   6.609   7.968  0.2364 -0.2012  0.7916
  128OSM   H15S13713   4.529   6.710   7.929 -2.0785 -0.0965 -0.6807
  128OSM   H15T13714   4.585   6.543   7.929  1.0962  1.0727  0.3505
  128OSM   C16S13715   4.511   6.604   8.116  0.1473 -0.5180  0.0455
  128OSM   H16S13716   4.614   6.592   8.155  0.1255  0.5710  0.4747
  128OSM   H16T13717   4.461   6.510   8.148  0.7493 -0.9818 -0.3645
  128OSM   C17S13718   4.457   6.716   8.198  0.1044 -0.0781 -0.1145
  128OSM   H17S13719   4.349   6.732   8.177 -0.0737  1.0237  1.5155
  128OSM   H17T13720   4.516   6.808   8.179  3.5005 -1.9347  0.5916
  128OSM   C18S13721   4.462   6.686   8.351  0.3423  0.5365 -0.3847
  128OSM   H18S13722   4.412   6.775   8.396  1.8900  1.3207 -0.1665
  128OSM   H18T13723   4.564   6.673   8.391  0.5822  2.5253 -0.2474
  128OSM   H18U13724   4.399   6.596   8.364  1.7637 -0.5505 -0.8443
  128OSM    C1F13725   3.999   6.672   6.698  0.5734  0.2972  0.2659
  128OSM     OF13726   3.921   6.579   6.673  0.0520  0.3190  0.0972
  128OSM    C2F13727   3.944   6.795   6.750  0.2532  0.0599 -0.1794
  128OSM    H2F13728   3.834   6.781   6.743  0.3314 -0.9085  0.3602
  128OSM    H2G13729   3.970   6.885   6.690 -0.8654  1.6616  1.6156
  128OSM    C3F13730   3.988   6.811   6.900 -0.2497 -0.2586  0.2782
  128OSM    H3F13731   3.922   6.893   6.934 -1.4781 -0.5682 -1.2382
  128OSM    H3G13732   4.096   6.834   6.901 -0.0623 -1.0900  1.4362
  128OSM    C4F13733   3.972   6.693   6.992  0.5640  0.2678 -0.2797
  128OSM    H4F13734   4.024   6.602   6.955 -1.0452 -0.4590 -0.8187
  128OSM    H4G13735   3.862   6.678   6.989  0.4236  1.0173  0.6722
  128OSM    C5F13736   4.013   6.740   7.131  0.3683 -0.3537 -0.0933
  128OSM    H5F13737   3.962   6.835   7.156  0.2820 -0.3437 -0.3026
  128OSM    H5G13738   4.121   6.766   7.129  0.3507 -0.2966 -1.4736
  128OSM    C6F13739   3.997   6.634   7.239  0.3954  0.0613 -0.1838
  128OSM    H6F13740   4.063   6.545   7.232 -0.3695 -0.6630  1.3028
  128OSM    H6G13741   3.893   6.597   7.239  0.4732 -0.3990  3.0292
  128OSM    C7F13742   4.025   6.692   7.379  0.2830 -0.1655 -0.8990
  128OSM    H7F13743   3.950   6.772   7.397 -0.3460 -0.4898 -1.9688
  128OSM    H7G13744   4.127   6.735   7.373  1.5054 -2.6833  0.2257
  128OSM    C8F13745   4.011   6.598   7.497  0.0884 -0.0214 -0.1315
  128OSM    H8F13746   4.045   6.649   7.589 -0.0386  1.9141 -1.1136
  128OSM    H8G13747   4.082   6.517   7.468 -0.0226 -0.9336  1.9721
  128OSM    C9F13748   3.870   6.536   7.508 -0.5265  0.2904  0.2749
  128OSM    H9F13749   3.833   6.484   7.419 -0.6102 -1.2880  1.1901
  128OSM   C10F13750   3.782   6.554   7.609 -0.0255  0.5120 -0.3188
  128OSM   H10F13751   3.688   6.497   7.604  1.6747 -2.4555 -0.8969
  128OSM   C11F13752   3.801   6.620   7.748 -0.1479  0.7415  0.4681
  128OSM   H11F13753   3.714   6.679   7.784  1.5880  3.7124  0.1508
  128OSM   H11G13754   3.884   6.694   7.751 -0.0220  0.7369 -1.5238
  128OSM   C12F13755   3.828   6.506   7.858  0.6896  0.0246 -0.0792
  128OSM   H12F13756   3.742   6.436   7.854  1.3921 -0.9049  0.5355
  128OSM   H12G13757   3.828   6.554   7.958 -0.0514 -1.7065  0.7807
  128OSM   C13F13758   3.957   6.431   7.828 -0.1022  0.2653  0.3353
  128OSM   H13F13759   4.042   6.500   7.815 -0.6971  0.8208 -0.7872
  128OSM   H13G13760   3.967   6.357   7.746  1.3207 -0.2936  0.9807
  128OSM   C14F13761   4.002   6.347   7.949  0.3202  0.3681 -0.2674
  128OSM   H14F13762   3.905   6.306   7.986  0.2356 -1.7387 -2.5857
  128OSM   H14G13763   4.044   6.421   8.020 -1.3770  0.7311  0.4105
  128OSM   C15F13764   4.102   6.241   7.917 -0.9605 -0.3075 -0.2367
  128OSM   H15F13765   4.194   6.286   7.875 -1.5065 -1.3159 -2.6998
  128OSM   H15G13766   4.063   6.162   7.850 -1.5911 -0.5011  0.3520
  128OSM   C16F13767   4.152   6.172   8.045 -0.9127  0.4632  0.0495
  128OSM   H16F13768   4.185   6.246   8.121 -1.4280  1.8221 -1.0291
  128OSM   H16G13769   4.246   6.118   8.021 -0.7717  0.9951 -0.6021
  128OSM   C17F13770   4.056   6.072   8.119  0.9062  0.1315 -0.2116
  128OSM   H17F13771   4.078   5.967   8.088 -0.2706 -0.1187 -0.2543
  128OSM   H17G13772   3.955   6.093   8.078  1.0386 -0.6585 -0.9859
  128OSM   C18F13773   4.073   6.073   8.271 -0.0197 -0.4967  0.6150
  128OSM   H18F13774   4.176   6.045   8.302  0.4410  1.1624  0.6826
  128OSM   H18G13775   4.012   6.001   8.330  1.1862 -1.4320  0.7632
  128OSM   H18H13776   4.044   6.172   8.314 -0.5893 -0.4119  0.0646
  129OSM      N13777   0.925   6.425   6.413 -0.4759 -0.2117 -0.7813
  129OSM    C1513778   1.012   6.472   6.529 -0.7323 -1.0009  0.7861
  129OSM   H15A13779   1.068   6.561   6.504 -4.3348  0.9118 -1.3108
  129OSM   H15B13780   1.081   6.397   6.566 -0.3189 -0.2165  1.6703
  129OSM   H15C13781   0.944   6.491   6.612 -1.9110  0.2792 -0.4179
  129OSM    C1413782   0.842   6.535   6.364 -0.3768  0.2855  0.4216
  129OSM   H14A13783   0.785   6.513   6.275 -0.7024  0.3168  0.6203
  129OSM   H14B13784   0.902   6.619   6.333  0.0875 -0.6063 -1.2568
  129OSM   H14C13785   0.775   6.563   6.443 -1.8957 -1.3453 -0.2098
  129OSM    C1313786   1.016   6.381   6.302 -0.5903  0.4802  0.3776
  129OSM   H13A13787   1.083   6.312   6.352  0.2867  1.0320 -0.0035
  129OSM   H13B13788   1.080   6.465   6.277  3.4871 -2.9537 -2.0827
  129OSM   H13C13789   0.959   6.342   6.219  0.1414 -0.6022  0.3652
  129OSM    C1213790   0.845   6.304   6.451  0.9234 -0.3350  0.4009
  129OSM   H12A13791   0.771   6.326   6.527  2.2325 -1.8250  2.2185
  129OSM   H12B13792   0.911   6.227   6.491 -0.4921 -1.6221  0.3526
  129OSM    C1113793   0.751   6.240   6.342 -1.0280  0.0705  0.3026
  129OSM   H11A13794   0.707   6.316   6.275  1.1760 -0.4370 -1.8425
  129OSM   H11B13795   0.667   6.191   6.397 -0.2969  0.5258  1.8802
  129OSM      P13796   0.830   5.999   6.263 -0.0009 -0.5105  0.1633
  129OSM    O1313797   0.718   5.963   6.179 -0.4063  0.6141 -0.1065
  129OSM    O1413798   0.962   5.938   6.232 -0.5182  0.4997  0.0822
  129OSM    O1113799   0.793   5.956   6.408  0.4917  0.1466 -0.2667
  129OSM    O1213800   0.839   6.151   6.263  0.3151 -0.3516 -0.1575
  129OSM    C1S13801   0.888   5.947   6.511 -0.1052 -0.1157 -0.2186
  129OSM    H1S13802   0.982   6.003   6.491 -0.7574  2.0577  2.2130
  129OSM    H1T13803   0.913   5.839   6.516  0.6620  0.0862  0.4512
  129OSM     NF13804   0.906   5.991   6.752 -0.3395 -0.6692 -0.2034
  129OSM    HNF13805   0.917   5.905   6.803  0.9118 -0.7744 -0.6185
  129OSM    C2S13806   0.817   5.991   6.643  0.0455  0.0674 -0.1903
  129OSM    H2S13807   0.775   6.093   6.630 -1.0708 -0.3502  0.0707
  129OSM    C3S13808   0.691   5.898   6.672  0.0157  0.1026 -0.1934
  129OSM    H3S13809   0.731   5.795   6.671 -2.3658 -0.9106  0.6101
  129OSM     O313810   0.597   5.887   6.566  0.1234 -0.1067 -0.6418
  129OSM    HO313811   0.644   5.925   6.491 -0.3591  1.2786 -0.2879
  129OSM    C4S13812   0.621   5.925   6.804 -0.1799  0.3516  0.3464
  129OSM    H4S13813   0.661   5.869   6.891 -1.5200  1.0619  1.4607
  129OSM    C5S13814   0.517   6.011   6.826  0.7158  0.4631  0.5656
  129OSM    H5S13815   0.473   6.072   6.746 -0.4937  1.8185  2.1910
  129OSM    C6S13816   0.457   6.040   6.964 -0.1434  0.2248  0.8396
  129OSM    H6S13817   0.356   5.995   6.971  0.0898 -0.2076  1.5428
  129OSM    H6T13818   0.432   6.147   6.975 -2.8664 -0.3689  1.1289
  129OSM    C7S13819   0.514   5.982   7.099  0.6029 -0.3299 -0.5844
  129OSM    H7S13820   0.613   6.031   7.115  0.0409  0.4025  0.8519
  129OSM    H7T13821   0.532   5.872   7.088 -0.0004 -0.5192  0.2523
  129OSM    C8S13822   0.416   6.019   7.217  0.2421 -0.5958  0.4581
  129OSM    H8S13823   0.310   5.994   7.194 -0.2870  1.3461  0.6269
  129OSM    H8T13824   0.424   6.130   7.224  0.5835 -0.4874 -1.3495
  129OSM    C9S13825   0.461   5.960   7.350  0.1743 -0.1364  0.2882
  129OSM    H9S13826   0.566   5.991   7.370  0.8003 -1.6615 -0.4371
  129OSM    H9T13827   0.451   5.849   7.348  3.4995 -0.6366  2.3416
  129OSM   C10S13828   0.387   6.013   7.473 -0.0686 -0.0427  0.7310
  129OSM   H10S13829   0.280   5.990   7.454  0.3308 -0.7776 -0.7469
  129OSM   H10T13830   0.406   6.122   7.468  2.2881 -0.4643 -1.3947
  129OSM   C11S13831   0.424   5.939   7.599 -0.1889  0.1828  0.6431
  129OSM   H11S13832   0.534   5.926   7.590 -0.4665 -1.9261 -0.3973
  129OSM   H11T13833   0.373   5.840   7.609  0.6566 -0.2078  1.1803
  129OSM   C12S13834   0.387   6.020   7.720 -0.2658 -0.4484 -0.2554
  129OSM   H12S13835   0.278   6.040   7.721 -0.3594 -0.7829 -1.3845
  129OSM   H12T13836   0.432   6.122   7.720 -1.4058  0.1409  2.9645
  129OSM   C13S13837   0.440   5.956   7.847 -0.3219  0.2997 -0.4985
  129OSM   H13S13838   0.548   5.937   7.828 -0.2393 -0.0826  0.2911
  129OSM   H13T13839   0.390   5.858   7.862 -2.7662  1.6291  0.6610
  129OSM   C14S13840   0.422   6.047   7.972  0.2559 -0.7044  0.2851
  129OSM   H14S13841   0.320   6.091   7.964 -0.8958 -2.9175  1.7457
  129OSM   H14T13842   0.501   6.124   7.982 -0.1875 -0.4560  2.3514
  129OSM   C15S13843   0.434   5.966   8.097  0.2083 -0.4762 -0.0315
  129OSM   H15S13844   0.533   5.918   8.113 -1.2492 -3.5750  0.4868
  129OSM   H15T13845   0.369   5.877   8.086  0.0780 -0.6403  1.7459
  129OSM   C16S13846   0.398   6.054   8.215 -0.0029 -0.6418  0.1285
  129OSM   H16S13847   0.302   6.108   8.202 -0.1472 -0.0628  2.8001
  129OSM   H16T13848   0.467   6.138   8.242 -1.2035 -0.0712  1.6008
  129OSM   C17S13849   0.389   5.972   8.351 -0.4661  0.4448  0.1936
  129OSM   H17S13850   0.356   5.867   8.334  0.9440  0.2960 -2.1211
  129OSM   H17T13851   0.324   6.019   8.428  0.9369  0.9122  1.1459
  129OSM   C18S13852   0.528   5.960   8.422  0.1911 -0.5026  0.1233
  129OSM   H18S13853   0.580   6.058   8.426  0.1339 -0.3198 -2.1084
  129OSM   H18T13854   0.579   5.876   8.369  0.6247  0.3673 -0.8836
  129OSM   H18U13855   0.513   5.931   8.528 -1.7284 -0.5855 -0.1344
  129OSM    C1F13856   1.000   6.088   6.773  0.3764  0.2443  0.2931
  129OSM     OF13857   1.012   6.190   6.703  0.4237 -0.0724  0.2458
  129OSM    C2F13858   1.108   6.063   6.884 -0.3316 -0.1994 -0.1194
  129OSM    H2F13859   1.205   6.098   6.843 -1.1130  1.4101 -0.6928
  129OSM    H2G13860   1.114   5.953   6.897 -2.5109 -0.1516  1.8856
  129OSM    C3F13861   1.082   6.126   7.022  0.3900 -0.0613  0.1369
  129OSM    H3F13862   0.980   6.097   7.055 -0.8689  0.2173 -3.1384
  129OSM    H3G13863   1.091   6.235   7.005  1.1673 -0.4900 -2.6830
  129OSM    C4F13864   1.179   6.072   7.122  0.3134 -0.0142  0.1800
  129OSM    H4F13865   1.278   6.101   7.082 -0.2497 -2.6844 -3.7118
  129OSM    H4G13866   1.166   5.962   7.131 -2.0632  0.2166  0.2087
  129OSM    C5F13867   1.150   6.134   7.262  0.6424  0.1398  0.3473
  129OSM    H5F13868   1.047   6.099   7.284  0.6247  0.5773  0.9621
  129OSM    H5G13869   1.147   6.244   7.249 -0.1644 -0.0759 -1.6792
  129OSM    C6F13870   1.236   6.066   7.367  0.1083 -0.5416 -0.5753
  129OSM    H6F13871   1.331   6.120   7.349 -0.3076  0.0278 -1.0959
  129OSM    H6G13872   1.245   5.962   7.329  0.4073 -0.3133 -1.1324
  129OSM    C7F13873   1.176   6.083   7.508  0.0311  0.4602  1.1111
  129OSM    H7F13874   1.093   6.011   7.515  0.9579 -0.7001  0.5502
  129OSM    H7G13875   1.128   6.183   7.516 -0.6425  0.2289  0.0873
  129OSM    C8F13876   1.281   6.086   7.625 -0.1754 -0.0831  0.2343
  129OSM    H8F13877   1.365   6.148   7.587 -0.2559 -1.3417 -2.2537
  129OSM    H8G13878   1.319   5.982   7.635  2.1246  0.9343  3.9131
  129OSM    C9F13879   1.223   6.107   7.761  0.5878  0.2250 -0.1156
  129OSM    H9F13880   1.118   6.074   7.764  0.7254 -0.1184  1.0600
  129OSM   C10F13881   1.273   6.175   7.864  0.8035 -0.2583 -0.3946
  129OSM   H10F13882   1.214   6.191   7.955 -2.6360 -1.1404 -2.2520
  129OSM   C11F13883   1.409   6.242   7.874  0.7993 -0.9968 -0.1239
  129OSM   H11F13884   1.408   6.353   7.883  3.3434 -0.7130 -2.1312
  129OSM   H11G13885   1.466   6.226   7.780  2.5498 -2.8054  1.1588
  129OSM   C12F13886   1.497   6.186   7.986  0.4689 -0.2626 -0.1501
  129OSM   H12F13887   1.590   6.242   8.008 -0.2408  1.0806 -0.4484
  129OSM   H12G13888   1.525   6.085   7.952 -1.9350 -0.2094 -2.6222
  129OSM   C13F13889   1.433   6.188   8.124 -0.0392 -0.3873  0.2517
  129OSM   H13F13890   1.365   6.104   8.150 -0.6976 -0.3931 -1.3924
  129OSM   H13G13891   1.369   6.278   8.129  0.3363 -0.1168  0.2614
  129OSM   C14F13892   1.531   6.209   8.243 -0.3160  0.0858 -0.3488
  129OSM   H14F13893   1.608   6.288   8.230 -0.0619  0.1668  1.3894
  129OSM   H14G13894   1.571   6.105   8.243  0.4512  0.3636 -1.3584
  129OSM   C15F13895   1.448   6.247   8.369  0.2829  0.3460  0.5194
  129OSM   H15F13896   1.350   6.196   8.354 -1.2917  2.4006  3.0393
  129OSM   H15G13897   1.413   6.352   8.370  0.2957  0.3726  2.4874
  129OSM   C16F13898   1.512   6.204   8.497  0.1259  0.1946 -0.5077
  129OSM   H16F13899   1.610   6.254   8.507  0.3833 -0.6628  2.1647
  129OSM   H16G13900   1.527   6.095   8.483  1.8323  0.1709  1.0571
  129OSM   C17F13901   1.425   6.243   8.615 -0.0369 -0.0441 -0.3956
  129OSM   H17F13902   1.328   6.188   8.619  0.3015 -0.6172  0.1539
  129OSM   H17G13903   1.401   6.351   8.615 -0.1135 -0.0608 -0.3260
  129OSM   C18F13904   1.501   6.197   8.745  0.5224 -0.1242  0.8154
  129OSM   H18F13905   1.445   6.234   8.834  1.3667  0.7533  1.0052
  129OSM   H18G13906   1.605   6.236   8.744  0.3107  0.4510  0.3324
  129OSM   H18H13907   1.499   6.089   8.719  0.2085  0.2538 -0.8596
  130OSM      N13908   2.533   1.944   6.191  0.2495 -0.0721  0.2137
  130OSM    C1513909   2.385   1.910   6.209 -0.0867  0.1216 -0.0141
  130OSM   H15A13910   2.335   1.973   6.281 -0.0293  2.0594 -1.5704
  130OSM   H15B13911   2.367   1.810   6.245 -2.2721  0.1989 -0.7660
  130OSM   H15C13912   2.320   1.924   6.124 -0.5874 -2.4589 -0.1257
  130OSM    C1413913   2.600   1.933   6.326  1.1203  0.0138 -0.2727
  130OSM   H14A13914   2.694   1.986   6.329  1.3407 -0.3147 -1.0490
  130OSM   H14B13915   2.622   1.829   6.347 -0.2908 -0.2048  0.2364
  130OSM   H14C13916   2.547   1.972   6.411 -1.1160 -1.9270 -0.6465
  130OSM    C1313917   2.599   1.854   6.089 -0.5409 -0.1822  0.2039
  130OSM   H13A13918   2.602   1.751   6.121  2.6143 -0.4351 -0.5097
  130OSM   H13B13919   2.700   1.882   6.061  0.6602 -2.1058  2.2081
  130OSM   H13C13920   2.538   1.860   6.000  1.1629 -0.6386 -1.0472
  130OSM    C1213921   2.550   2.088   6.141 -0.4571  0.0402  0.2473
  130OSM   H12A13922   2.509   2.157   6.214 -0.1116 -0.5894  1.0422
  130OSM   H12B13923   2.478   2.100   6.060 -0.6156  1.2647  0.5449
  130OSM    C1113924   2.689   2.137   6.103  0.2471  0.3625  0.1822
  130OSM   H11A13925   2.667   2.241   6.070  2.5906  1.4929  1.9665
  130OSM   H11B13926   2.733   2.075   6.022  0.3832  0.3174  0.2909
  130OSM      P13927   2.910   2.220   6.193  0.0813  0.0286 -0.3710
  130OSM    O1313928   3.021   2.148   6.258 -0.5493  0.2419  0.0657
  130OSM    O1413929   2.925   2.248   6.047  0.2241  0.2413  0.0452
  130OSM    O1113930   2.879   2.349   6.277  0.0672  0.4787  0.4720
  130OSM    O1213931   2.775   2.141   6.215 -0.2549  0.4071 -0.4945
  130OSM    C1S13932   2.765   2.369   6.357  0.1701  0.7483 -0.4307
  130OSM    H1S13933   2.689   2.290   6.341 -0.3848  1.5704 -2.1475
  130OSM    H1T13934   2.726   2.468   6.326 -0.3083  0.8037  0.3300
  130OSM     NF13935   2.657   2.412   6.572  0.6326  0.0833 -0.2876
  130OSM    HNF13936   2.622   2.501   6.598 -0.6593 -0.8805  1.5097
  130OSM    C2S13937   2.789   2.386   6.512 -0.3622  0.1897  0.3462
  130OSM    H2S13938   2.825   2.285   6.542  0.3612  0.5541  0.7304
  130OSM    C3S13939   2.896   2.498   6.530  0.2809  0.8663  0.4376
  130OSM    H3S13940   2.869   2.589   6.471  1.1061 -0.9030 -2.9265
  130OSM     O313941   3.021   2.466   6.469  0.3244 -0.3673  0.4766
  130OSM    HO313942   2.992   2.411   6.396 -0.7030  0.2968  0.3563
  130OSM    C4S13943   2.922   2.514   6.676 -0.4374  0.0366  0.3452
  130OSM    H4S13944   2.956   2.426   6.733 -2.7868 -0.8181  0.5280
  130OSM    C5S13945   2.907   2.626   6.748  0.4629 -0.1003 -0.5444
  130OSM    H5S13946   2.864   2.717   6.704  1.3721  0.7921  0.3267
  130OSM    C6S13947   2.929   2.635   6.890 -0.1686  0.3937 -0.7465
  130OSM    H6S13948   3.023   2.686   6.919 -0.4992  1.4897 -1.4973
  130OSM    H6T13949   2.941   2.535   6.937 -0.5631  2.1711  3.5567
  130OSM    C7S13950   2.812   2.703   6.958  0.2072  0.4622  0.0842
  130OSM    H7S13951   2.716   2.656   6.927  0.0200 -0.1204  1.4687
  130OSM    H7T13952   2.813   2.808   6.922  0.7277  0.0550 -1.1638
  130OSM    C8S13953   2.809   2.677   7.112 -0.2138 -0.4906  0.3914
  130OSM    H8S13954   2.824   2.568   7.130  3.2291 -0.3175 -0.6746
  130OSM    H8T13955   2.711   2.704   7.157  1.5847  2.7665  2.7441
  130OSM    C9S13956   2.905   2.767   7.189  0.1010 -0.1434 -0.2567
  130OSM    H9S13957   2.866   2.871   7.177 -0.1855 -0.3553 -1.2594
  130OSM    H9T13958   3.007   2.741   7.153 -0.3336 -2.4268  0.0143
  130OSM   C10S13959   2.910   2.726   7.334  0.9609 -0.6915  0.8956
  130OSM   H10S13960   2.905   2.616   7.349 -0.0761 -0.4674  2.4691
  130OSM   H10T13961   2.818   2.768   7.380  0.5992 -1.4228  0.8652
  130OSM   C11S13962   3.027   2.769   7.413  0.3469 -0.7063  0.9171
  130OSM   H11S13963   3.043   2.875   7.385 -1.7800 -0.8054 -0.9649
  130OSM   H11T13964   3.119   2.708   7.400  0.4200 -0.2722 -0.7959
  130OSM   C12S13965   2.994   2.767   7.563  0.7988 -0.3545 -0.2844
  130OSM   H12S13966   2.961   2.671   7.609  0.1220  0.4233  0.8938
  130OSM   H12T13967   2.914   2.840   7.588 -1.2763 -2.5257 -0.1224
  130OSM   C13S13968   3.101   2.820   7.659 -0.2529  0.2281 -0.4034
  130OSM   H13S13969   3.153   2.905   7.611 -0.3525  1.6065  1.7714
  130OSM   H13T13970   3.175   2.737   7.669 -2.1969 -1.4642  0.6629
  130OSM   C14S13971   3.041   2.868   7.790  0.1962  0.3681 -0.4994
  130OSM   H14S13972   2.941   2.912   7.770  0.1623 -0.1469 -1.4858
  130OSM   H14T13973   3.108   2.940   7.841 -0.5882  1.1789 -0.5927
  130OSM   C15S13974   3.021   2.739   7.870  0.3719 -0.4086 -0.4558
  130OSM   H15S13975   3.087   2.652   7.848 -0.8372 -0.8433 -2.7066
  130OSM   H15T13976   2.917   2.710   7.841 -0.0970 -1.1594  1.7553
  130OSM   C16S13977   3.024   2.758   8.021 -0.0402 -0.2562  0.0770
  130OSM   H16S13978   2.932   2.788   8.076 -0.6374 -0.7997 -0.6018
  130OSM   H16T13979   3.093   2.843   8.035  0.7193 -1.0498  1.3381
  130OSM   C17S13980   3.067   2.628   8.099 -1.1141 -0.6117 -0.4631
  130OSM   H17S13981   3.176   2.631   8.078 -0.9829  1.0711  0.3393
  130OSM   H17T13982   3.011   2.540   8.061  2.1367 -2.4198 -1.4841
  130OSM   C18S13983   3.047   2.640   8.244  0.5203  0.1978 -0.1335
  130OSM   H18S13984   2.942   2.633   8.282  0.7693  2.2213  1.0687
  130OSM   H18T13985   3.078   2.742   8.276 -1.2125  1.2959 -1.7422
  130OSM   H18U13986   3.101   2.559   8.299  1.1559 -0.4795 -1.6970
  130OSM    C1F13987   2.555   2.318   6.594 -0.1946 -0.1276 -0.5461
  130OSM     OF13988   2.570   2.201   6.560  0.2820  0.2826 -0.7433
  130OSM    C2F13989   2.423   2.365   6.660 -0.2764 -0.4208 -0.3525
  130OSM    H2F13990   2.347   2.401   6.588  0.3765 -1.3567 -1.5443
  130OSM    H2G13991   2.450   2.459   6.712 -1.3315  2.0807 -3.9414
  130OSM    C3F13992   2.363   2.269   6.768 -0.0739 -0.6362  0.3679
  130OSM    H3F13993   2.434   2.256   6.853  1.3562 -1.9722 -0.9679
  130OSM    H3G13994   2.342   2.169   6.723 -2.3314 -1.0492  2.1411
  130OSM    C4F13995   2.228   2.325   6.808  0.2508 -0.4342 -0.7038
  130OSM    H4F13996   2.186   2.242   6.868  0.4946 -0.5496 -0.6893
  130OSM    H4G13997   2.160   2.337   6.721 -0.8953 -0.6501  0.1479
  130OSM    C5F13998   2.228   2.452   6.899 -0.0347  0.5547 -0.3711
  130OSM    H5F13999   2.120   2.474   6.916 -0.0906  0.4267 -0.5497
  130OSM    H5G14000   2.272   2.539   6.847  0.9271  0.8135  0.8280
  130OSM    C6F14001   2.301   2.440   7.034  0.4331 -0.5394  0.3980
  130OSM    H6F14002   2.407   2.423   7.006  0.2392 -0.5367 -0.3711
  130OSM    H6G14003   2.276   2.351   7.096  2.6769  0.0413  2.2877
  130OSM    C7F14004   2.282   2.570   7.121  0.7338 -0.4246  0.6965
  130OSM    H7F14005   2.177   2.569   7.159  0.2749 -0.9524 -0.5468
  130OSM    H7G14006   2.283   2.667   7.068  1.6051 -1.8160 -1.9803
  130OSM    C8F14007   2.376   2.557   7.243 -0.4599  0.2426  0.3965
  130OSM    H8F14008   2.471   2.516   7.202 -0.3206 -1.0137  1.8903
  130OSM    H8G14009   2.350   2.471   7.309 -0.1360 -0.1087  0.0764
  130OSM    C9F14010   2.386   2.685   7.320  0.1021 -0.5036 -0.0758
  130OSM    H9F14011   2.338   2.768   7.266  0.9173  0.8757  1.2554
  130OSM   C10F14012   2.436   2.706   7.444 -0.2415 -0.5655 -0.6326
  130OSM   H10F14013   2.460   2.805   7.484  0.6031 -1.4145  1.0966
  130OSM   C11F14014   2.482   2.597   7.536  0.3829  0.6261 -0.2612
  130OSM   H11F14015   2.478   2.500   7.483  0.7341  1.3644 -1.6818
  130OSM   H11G14016   2.421   2.590   7.629 -0.7755 -0.5962 -1.0802
  130OSM   C12F14017   2.630   2.622   7.581 -0.2871 -0.4170  0.3680
  130OSM   H12F14018   2.644   2.727   7.612 -1.0600 -0.6408  1.5156
  130OSM   H12G14019   2.692   2.602   7.490 -4.0978  2.8271 -3.3730
  130OSM   C13F14020   2.677   2.524   7.698 -0.1299  0.0107  0.2974
  130OSM   H13F14021   2.787   2.511   7.698  0.1431  2.0483  0.4474
  130OSM   H13G14022   2.622   2.429   7.677 -2.6199  1.5006 -0.3165
  130OSM   C14F14023   2.637   2.581   7.839 -0.2557 -0.3783 -0.0052
  130OSM   H14F14024   2.532   2.616   7.846 -0.2895 -0.5162  0.2271
  130OSM   H14G14025   2.704   2.668   7.858  0.0350 -0.6902  0.4433
  130OSM   C15F14026   2.665   2.489   7.956 -0.0538  0.2413 -0.0043
  130OSM   H15F14027   2.768   2.455   7.934  0.5866  1.7161  0.5770
  130OSM   H15G14028   2.596   2.405   7.934  1.2183 -0.7947 -0.1393
  130OSM   C16F14029   2.645   2.555   8.086  0.2311  0.0260  0.9758
  130OSM   H16F14030   2.540   2.590   8.095 -0.4458 -2.1035  1.9320
  130OSM   H16G14031   2.710   2.643   8.103  0.3119  0.2346 -0.2808
  130OSM   C17F14032   2.654   2.473   8.214  0.5453 -0.3949 -0.2532
  130OSM   H17F14033   2.639   2.542   8.300  1.0009 -0.3153 -0.2346
  130OSM   H17G14034   2.754   2.425   8.218 -0.4610 -2.5570  0.6559
  130OSM   C18F14035   2.539   2.369   8.210  0.6845 -0.2271  0.0918
  130OSM   H18F14036   2.527   2.314   8.115  0.0880  0.0787 -0.0178
  130OSM   H18G14037   2.442   2.424   8.214 -2.3362 -5.0052  0.6859
  130OSM   H18H14038   2.559   2.297   8.292  0.7210  0.0373  0.3190
  131OSM      N14039   4.559   1.833   6.089 -0.3493  0.9241 -0.3779
  131OSM    C1514040   4.708   1.811   6.091 -0.5441 -0.0962 -0.7339
  131OSM   H15A14041   4.726   1.721   6.148  1.6725  0.5716 -0.2983
  131OSM   H15B14042   4.753   1.904   6.122 -1.8977  0.6781 -0.9802
  131OSM   H15C14043   4.743   1.794   5.990 -0.7286  0.6157 -0.9216
  131OSM    C1414044   4.527   1.956   6.002  0.5089  0.2608  0.0345
  131OSM   H14A14045   4.420   1.970   5.993  0.4594  0.7352  1.1681
  131OSM   H14B14046   4.561   1.935   5.901  0.0303  3.7159 -0.9826
  131OSM   H14C14047   4.572   2.045   6.044 -0.5550  2.1623 -2.5769
  131OSM    C1314048   4.485   1.716   6.029  0.1930 -0.1414 -0.4813
  131OSM   H13A14049   4.519   1.696   5.928  3.2900  0.1247  0.3948
  131OSM   H13B14050   4.379   1.729   6.012 -0.2847  0.7394  2.6241
  131OSM   H13C14051   4.493   1.627   6.088  0.5800  0.3491  0.2218
  131OSM    C1214052   4.509   1.869   6.225 -1.2854 -0.4392 -0.0450
  131OSM   H12A14053   4.525   1.786   6.292 -0.8571 -1.6792 -1.6188
  131OSM   H12B14054   4.401   1.870   6.221 -1.6632  1.8351  4.5351
  131OSM    C1114055   4.553   1.996   6.297 -0.2592  0.3147 -0.5031
  131OSM   H11A14056   4.498   2.026   6.389  0.4782  0.4064 -0.0817
  131OSM   H11B14057   4.530   2.085   6.236  0.3346  1.5036  0.9409
  131OSM      P14058   4.769   1.915   6.425  0.3035  0.1888  0.5162
  131OSM    O1314059   4.683   1.806   6.474  0.1962 -0.0208  0.2827
  131OSM    O1414060   4.896   1.869   6.365 -0.3186  0.0697  0.2384
  131OSM    O1114061   4.810   1.997   6.545 -0.0718 -0.2203 -0.0085
  131OSM    O1214062   4.694   2.007   6.323  1.0079  0.1768  0.2043
  131OSM    C1S14063   4.711   2.073   6.612  0.3106 -0.5995 -0.0974
  131OSM    H1S14064   4.618   2.016   6.631  1.1626 -1.9413  0.1677
  131OSM    H1T14065   4.686   2.167   6.557  1.7088  0.7303  1.4285
  131OSM     NF14066   4.676   2.169   6.850  0.1525 -0.0480 -0.3068
  131OSM    HNF14067   4.681   2.266   6.871  4.7151 -0.4463  1.7514
  131OSM    C2S14068   4.770   2.114   6.750  0.0357  0.4978  1.2593
  131OSM    H2S14069   4.803   2.017   6.794  1.0093  0.6145  0.8199
  131OSM    C3S14070   4.893   2.210   6.729 -0.5955  0.3268 -0.5913
  131OSM    H3S14071   4.865   2.311   6.692  1.0528  0.7762 -0.6901
  131OSM     O314072   4.996   2.154   6.652 -0.4000  0.4145  0.7762
  131OSM    HO314073   4.958   2.070   6.624  2.2189 -1.0411  1.2935
  131OSM    C4S14074   4.945   2.227   6.875 -0.0503 -0.2301  0.3823
  131OSM    H4S14075   4.959   2.135   6.933  1.1254 -1.8119 -2.2110
  131OSM    C5S14076   4.965   2.341   6.936 -0.3639 -0.8196 -0.2291
  131OSM    H5S14077   4.951   2.441   6.893 -1.4866 -0.5232  0.8069
  131OSM    C6S14078   5.025   2.361   7.080  0.5036  0.7845  1.0782
  131OSM    H6S14079   5.116   2.424   7.069  0.9647 -0.3053 -2.5443
  131OSM    H6T14080   5.054   2.257   7.107 -5.7862 -1.3280  1.5060
  131OSM    C7S14081   4.932   2.415   7.181  0.6729  0.1047 -0.1280
  131OSM    H7S14082   4.844   2.348   7.195 -0.0538  1.2588  1.0823
  131OSM    H7T14083   4.886   2.505   7.135 -2.9818 -2.0830 -1.2176
  131OSM    C8S14084   5.009   2.440   7.309  0.6786  0.3467  1.2673
  131OSM    H8S14085   5.090   2.513   7.292 -0.7218  1.8307  0.7212
  131OSM    H8T14086   5.054   2.342   7.336 -0.2609 -0.6872 -0.7381
  131OSM    C9S14087   4.917   2.490   7.415 -0.0385 -0.4610 -0.7758
  131OSM    H9S14088   4.833   2.420   7.437 -0.7075  0.8297  0.9650
  131OSM    H9T14089   4.888   2.589   7.375 -0.5312 -0.2170  0.1569
  131OSM   C10S14090   4.982   2.527   7.555 -0.1862 -0.4192 -0.0363
  131OSM   H10S14091   5.072   2.592   7.562  0.1079 -0.9823  1.9776
  131OSM   H10T14092   5.001   2.430   7.605 -1.9814 -0.1384  1.3025
  131OSM   C11S14093   4.881   2.601   7.644 -0.2665  0.0585 -0.1737
  131OSM   H11S14094   4.781   2.554   7.631  0.4566 -1.0704 -2.0727
  131OSM   H11T14095   4.869   2.706   7.610 -2.7257 -0.2306 -0.4089
  131OSM   C12S14096   4.908   2.590   7.793 -0.0481 -0.0908  0.4857
  131OSM   H12S14097   5.018   2.606   7.802 -0.0565  0.0329  0.3807
  131OSM   H12T14098   4.888   2.490   7.835 -0.3068 -0.1169  0.3027
  131OSM   C13S14099   4.843   2.700   7.886  0.1301  0.5697  0.8488
  131OSM   H13S14100   4.739   2.661   7.878  0.3602  0.1337 -0.2364
  131OSM   H13T14101   4.843   2.804   7.848 -2.6827  0.5197  0.5294
  131OSM   C14S14102   4.901   2.693   8.029  0.6822  0.0084  0.3236
  131OSM   H14S14103   5.010   2.692   8.012  0.5393 -1.5537 -0.8364
  131OSM   H14T14104   4.892   2.594   8.079  2.5464 -0.2255  0.2403
  131OSM   C15S14105   4.856   2.804   8.119 -1.0588  0.0580 -0.0169
  131OSM   H15S14106   4.750   2.788   8.149 -1.3285  0.2470 -0.8575
  131OSM   H15T14107   4.859   2.901   8.065 -1.7441 -0.6246 -1.3161
  131OSM   C16S14108   4.920   2.831   8.259  0.0478  0.0546 -0.5074
  131OSM   H16S14109   4.929   2.939   8.279  2.5227  0.8008 -4.5093
  131OSM   H16T14110   5.021   2.785   8.268 -0.3878 -0.5838  1.7527
  131OSM   C17S14111   4.833   2.762   8.368 -0.1687  0.3506  0.1656
  131OSM   H17S14112   4.823   2.659   8.328 -0.3349  0.3290  0.2594
  131OSM   H17T14113   4.725   2.792   8.367 -0.8658 -1.9939 -1.0407
  131OSM   C18S14114   4.896   2.768   8.515 -0.4094 -0.0840  0.4783
  131OSM   H18S14115   4.909   2.873   8.550 -0.1932 -0.2661  0.9443
  131OSM   H18T14116   4.990   2.709   8.521 -2.0829 -2.7742  3.1755
  131OSM   H18U14117   4.833   2.718   8.591  0.2408  0.8987  1.6946
  131OSM    C1F14118   4.588   2.090   6.910  0.0058  0.5342  0.3401
  131OSM     OF14119   4.591   1.967   6.902 -0.1312  0.3055  0.3850
  131OSM    C2F14120   4.489   2.155   6.999  0.2779 -0.1433 -0.0994
  131OSM    H2F14121   4.390   2.171   6.951  0.4045 -0.2497 -0.4013
  131OSM    H2G14122   4.531   2.251   7.035 -0.4487  1.0533 -2.2473
  131OSM    C3F14123   4.450   2.064   7.123 -0.0607 -1.3361 -0.2777
  131OSM    H3F14124   4.549   2.034   7.165  1.9985  1.5872 -2.6229
  131OSM    H3G14125   4.396   1.976   7.081 -1.4018 -0.1558 -1.0813
  131OSM    C4F14126   4.366   2.131   7.232 -0.7816 -0.5521 -0.3432
  131OSM    H4F14127   4.304   2.050   7.276  1.8184 -3.1954 -1.2233
  131OSM    H4G14128   4.301   2.210   7.190  0.4189  0.6907  0.0489
  131OSM    C5F14129   4.456   2.206   7.330  0.8537 -0.4296 -1.1292
  131OSM    H5F14130   4.504   2.291   7.277  0.3697 -0.0989 -1.0424
  131OSM    H5G14131   4.534   2.146   7.380  0.3931  1.0506  1.5342
  131OSM    C6F14132   4.377   2.277   7.444 -0.1565 -0.3242  0.2877
  131OSM    H6F14133   4.316   2.199   7.493 -1.5830  1.9067  2.2986
  131OSM    H6G14134   4.302   2.345   7.398  0.8205  0.1109 -0.7187
  131OSM    C7F14135   4.471   2.353   7.543 -0.0191  0.4383  0.2402
  131OSM    H7F14136   4.532   2.422   7.480 -1.3727  0.6958 -0.8567
  131OSM    H7G14137   4.540   2.277   7.585 -0.8133 -0.1111  0.5732
  131OSM    C8F14138   4.388   2.439   7.643  0.9690  0.6098  0.8191
  131OSM    H8F14139   4.315   2.371   7.693  0.8861  0.2965  0.2861
  131OSM    H8G14140   4.324   2.499   7.575  2.0982 -0.1594 -0.9982
  131OSM    C9F14141   4.476   2.526   7.730  0.5026 -0.5465 -0.0234
  131OSM    H9F14142   4.515   2.620   7.689 -0.1275  0.8477  2.3456
  131OSM   C10F14143   4.502   2.501   7.862  0.5426 -0.2933 -0.1494
  131OSM   H10F14144   4.572   2.567   7.916 -0.6265  0.6651  0.2344
  131OSM   C11F14145   4.449   2.391   7.953 -0.2983  0.2351 -0.2024
  131OSM   H11F14146   4.530   2.317   7.972  0.7610  1.2249 -0.7044
  131OSM   H11G14147   4.368   2.337   7.899 -0.7111 -0.0404  0.6879
  131OSM   C12F14148   4.389   2.434   8.084 -0.1574 -0.3543  0.3662
  131OSM   H12F14149   4.337   2.346   8.126  0.6634 -0.5070  1.0887
  131OSM   H12G14150   4.317   2.516   8.062  1.4192  0.7207 -1.0023
  131OSM   C13F14151   4.494   2.480   8.192 -0.2015  0.1194  0.1066
  131OSM   H13F14152   4.569   2.547   8.145 -1.2514  1.6445  0.5156
  131OSM   H13G14153   4.552   2.394   8.231 -1.5879 -2.0161 -2.2845
  131OSM   C14F14154   4.425   2.546   8.310  0.5158  0.0481 -0.0158
  131OSM   H14F14155   4.367   2.461   8.355  0.6760 -0.8732 -1.4980
  131OSM   H14G14156   4.354   2.620   8.268  2.3945  0.6147 -2.3981
  131OSM   C15F14157   4.527   2.594   8.421  0.4138  0.2683 -0.1088
  131OSM   H15F14158   4.517   2.704   8.435  1.5626  0.5917 -1.5313
  131OSM   H15G14159   4.627   2.587   8.372 -0.4141  1.0809 -2.0259
  131OSM   C16F14160   4.515   2.506   8.548 -0.3179 -0.3868  0.1726
  131OSM   H16F14161   4.543   2.403   8.517  2.2548  1.0872 -3.0743
  131OSM   H16G14162   4.411   2.511   8.586 -0.3892 -1.1678  0.0963
  131OSM   C17F14163   4.623   2.545   8.639 -0.1549  0.2486 -0.2878
  131OSM   H17F14164   4.636   2.656   8.639  0.3079  0.1934 -0.8249
  131OSM   H17G14165   4.720   2.503   8.606 -0.5628 -1.6578  0.8124
  131OSM   C18F14166   4.601   2.506   8.787 -0.2592 -0.0964 -0.4004
  131OSM   H18F14167   4.614   2.396   8.789 -2.5013 -0.4636 -2.0016
  131OSM   H18G14168   4.507   2.553   8.821 -0.5101  0.0065 -1.2062
  131OSM   H18H14169   4.677   2.550   8.856 -0.7002  1.8520 -1.0685
  132OSM      N14170   5.863   5.064   6.239 -0.2578 -0.6218  0.3643
  132OSM    C1514171   5.962   5.165   6.182  0.5854 -0.6928  0.0734
  132OSM   H15A14172   5.924   5.265   6.194  0.4364 -0.8980  1.5254
  132OSM   H15B14173   5.988   5.148   6.079  0.7661 -0.9781  0.1642
  132OSM   H15C14174   6.055   5.162   6.238  1.5013  1.5513 -1.1804
  132OSM    C1414175   5.731   5.080   6.170  0.0138  0.8797  1.1702
  132OSM   H14A14176   5.696   5.180   6.192  2.8169  1.7222  2.3397
  132OSM   H14B14177   5.663   5.003   6.204  0.6963  0.1128  0.8216
  132OSM   H14C14178   5.747   5.065   6.065  0.2678  2.7689  0.9030
  132OSM    C1314179   5.923   4.921   6.208  0.6632 -0.6804 -0.1986
  132OSM   H13A14180   5.930   4.906   6.101 -0.4547 -0.4597 -0.3152
  132OSM   H13B14181   5.862   4.841   6.245  1.8136 -1.0636  0.9434
  132OSM   H13C14182   6.020   4.907   6.253 -0.3289 -0.8883  1.9954
  132OSM    C1214183   5.837   5.076   6.382 -0.5286  0.2674 -0.6744
  132OSM   H12A14184   5.763   5.007   6.421 -1.4835  0.8557 -1.3861
  132OSM   H12B14185   5.789   5.172   6.387  1.7156  1.4973 -1.4465
  132OSM    C1114186   5.957   5.090   6.486  0.3175 -0.5383  0.0158
  132OSM   H11A14187   6.006   4.990   6.485  0.1055 -0.6470 -1.0513
  132OSM   H11B14188   5.910   5.096   6.587 -0.0013  0.2539 -0.1689
  132OSM      P14189   5.986   5.337   6.488  0.2543 -0.3359 -0.3329
  132OSM    O1314190   6.078   5.445   6.449 -0.2963 -0.0033 -0.1473
  132OSM    O1414191   5.845   5.355   6.440 -0.0272 -0.1549 -0.9723
  132OSM    O1114192   5.989   5.324   6.648  0.0564  0.3561 -0.3542
  132OSM    O1214193   6.048   5.196   6.449  0.9499 -0.2561 -0.1589
  132OSM    C1S14194   6.119   5.364   6.702 -0.0384 -0.5947  0.3428
  132OSM    H1S14195   6.135   5.473   6.690  2.1338 -0.8294  0.7662
  132OSM    H1T14196   6.207   5.317   6.652  1.0014 -0.1909  1.7297
  132OSM     NF14197   6.258   5.392   6.891  0.0981 -0.3059 -0.4430
  132OSM    HNF14198   6.333   5.328   6.902  1.2021  1.0093  0.0402
  132OSM    C2S14199   6.133   5.339   6.852  0.0113  0.1862 -0.1383
  132OSM    H2S14200   6.045   5.390   6.898 -2.4384 -2.1991 -1.8821
  132OSM    C3S14201   6.125   5.189   6.880  0.1728  0.2515  0.0424
  132OSM    H3S14202   6.201   5.129   6.826  0.1262 -1.2379  1.5565
  132OSM     O314203   6.008   5.123   6.835  0.3121  0.7827  0.5669
  132OSM    HO314204   5.977   5.181   6.766 -1.0726  0.6873  1.0766
  132OSM    C4S14205   6.132   5.163   7.032  0.3908 -0.1990 -0.3774
  132OSM    H4S14206   6.044   5.185   7.093 -0.5900 -2.8869 -0.6729
  132OSM    C5S14207   6.244   5.099   7.087  1.0689 -0.7638  0.6772
  132OSM    H5S14208   6.321   5.063   7.017 -0.4941  0.8441 -2.0216
  132OSM    C6S14209   6.261   5.078   7.237 -0.0141 -0.2271  0.1441
  132OSM    H6S14210   6.366   5.111   7.256 -0.2298  0.8852 -0.5419
  132OSM    H6T14211   6.250   4.969   7.259  0.8922 -0.1858  0.8609
  132OSM    C7S14212   6.180   5.158   7.333 -0.0583  1.0954 -0.3149
  132OSM    H7S14213   6.074   5.125   7.335  0.1106  0.5885  0.4258
  132OSM    H7T14214   6.174   5.266   7.310  0.2749  1.5552  1.6041
  132OSM    C8S14215   6.218   5.127   7.477  0.0258 -0.1643  0.9535
  132OSM    H8S14216   6.314   5.180   7.497  0.7652 -2.0079  2.6031
  132OSM    H8T14217   6.238   5.021   7.501  0.3615 -0.7261 -1.4985
  132OSM    C9S14218   6.112   5.182   7.573  0.6809  0.5656 -0.0265
  132OSM    H9S14219   6.014   5.131   7.563  0.7845  0.2605  0.4568
  132OSM    H9T14220   6.094   5.289   7.547 -0.6485 -0.3500 -3.3459
  132OSM   C10S14221   6.165   5.173   7.717 -0.0298  0.0892 -0.4060
  132OSM   H10S14222   6.091   5.225   7.782 -1.6989 -0.6758 -1.6343
  132OSM   H10T14223   6.256   5.236   7.728 -0.3779  0.6484 -0.6960
  132OSM   C11S14224   6.201   5.031   7.766 -0.3539 -0.3152  0.0407
  132OSM   H11S14225   6.294   4.999   7.714  0.6105  1.0078  0.8634
  132OSM   H11T14226   6.127   4.949   7.756  0.3506 -1.2105  1.6576
  132OSM   C12S14227   6.239   5.032   7.922  0.1021  0.1080 -0.2828
  132OSM   H12S14228   6.322   5.104   7.937  0.6200 -0.3181 -1.0402
  132OSM   H12T14229   6.280   4.930   7.940  0.5188  0.4721  0.9631
  132OSM   C13S14230   6.118   5.057   8.017  0.4885  0.3733 -0.2302
  132OSM   H13S14231   6.041   4.983   7.987  3.0105 -2.5059 -0.1175
  132OSM   H13T14232   6.080   5.156   7.984 -1.5404  0.0722  1.0659
  132OSM   C14S14233   6.152   5.042   8.167 -0.4515 -0.1914  0.6273
  132OSM   H14S14234   6.233   5.115   8.185 -0.3745  0.6538 -2.5655
  132OSM   H14T14235   6.193   4.941   8.188 -2.2772 -1.0509  0.3270
  132OSM   C15S14236   6.040   5.065   8.265 -1.2410 -0.0577 -0.2476
  132OSM   H15S14237   5.945   5.030   8.220 -1.1050 -1.1303  0.2666
  132OSM   H15T14238   6.025   5.174   8.281  0.0711 -0.1470  1.8817
  132OSM   C16S14239   6.068   5.022   8.413 -0.1436  0.6065  0.7531
  132OSM   H16S14240   6.156   5.073   8.458  0.2604 -0.9579  1.8316
  132OSM   H16T14241   6.081   4.912   8.411 -1.9617  0.3691 -0.3064
  132OSM   C17S14242   5.946   5.054   8.497 -0.1865 -0.1634 -0.8878
  132OSM   H17S14243   5.851   5.009   8.461 -0.9760  0.4675  0.3140
  132OSM   H17T14244   5.920   5.159   8.524 -0.9829 -0.5794  0.0186
  132OSM   C18S14245   5.969   4.999   8.638  0.1573  0.0173  0.0205
  132OSM   H18S14246   5.987   4.889   8.637  0.8356  0.1097 -1.9072
  132OSM   H18T14247   5.882   5.014   8.705  0.3035 -2.8054  0.9663
  132OSM   H18U14248   6.062   5.045   8.677 -0.1420  0.7528 -0.1222
  132OSM    C1F14249   6.289   5.525   6.901  0.5148 -0.3449  0.3924
  132OSM     OF14250   6.206   5.615   6.877 -0.0774 -0.1798 -0.5040
  132OSM    C2F14251   6.430   5.571   6.928 -0.3626 -0.2402  0.8435
  132OSM    H2F14252   6.423   5.682   6.924 -0.7814 -0.2544  1.0259
  132OSM    H2G14253   6.493   5.534   6.845 -1.5456  0.0089 -0.1936
  132OSM    C3F14254   6.478   5.525   7.070  0.1749  0.2212 -0.0231
  132OSM    H3F14255   6.561   5.591   7.104 -0.5997  0.8451  0.7023
  132OSM    H3G14256   6.491   5.414   7.068 -1.6582 -0.0061 -1.3562
  132OSM    C4F14257   6.384   5.566   7.182  0.0382  0.6060 -0.2214
  132OSM    H4F14258   6.277   5.537   7.173  0.9252 -3.2576 -0.4948
  132OSM    H4G14259   6.383   5.676   7.198  1.6690  0.9802 -2.2839
  132OSM    C5F14260   6.424   5.488   7.310  0.3232  0.3979  0.2031
  132OSM    H5F14261   6.531   5.507   7.334  0.2563  1.3729 -0.2325
  132OSM    H5G14262   6.405   5.379   7.303  0.3667  0.3606  0.6058
  132OSM    C6F14263   6.338   5.539   7.431  0.0661 -0.1046  0.7119
  132OSM    H6F14264   6.236   5.497   7.421 -0.3412  0.2934  2.7244
  132OSM    H6G14265   6.325   5.650   7.432  1.6971  0.1466 -0.6222
  132OSM    C7F14266   6.389   5.504   7.573  0.0089  0.9300 -0.3723
  132OSM    H7F14267   6.500   5.513   7.581  0.2500 -1.5323 -0.1361
  132OSM    H7G14268   6.387   5.397   7.602 -0.0382  1.5628  2.2510
  132OSM    C8F14269   6.325   5.583   7.694  0.1358  0.4597 -0.1694
  132OSM    H8F14270   6.218   5.552   7.693 -0.4121  2.1344 -2.2714
  132OSM    H8G14271   6.329   5.689   7.663  2.1810  0.1946 -1.0081
  132OSM    C9F14272   6.389   5.549   7.821 -0.0213 -0.0961 -0.7240
  132OSM    H9F14273   6.499   5.559   7.829 -0.1573  0.1862  1.7246
  132OSM   C10F14274   6.327   5.535   7.943  0.1668 -0.7000  0.7984
  132OSM   H10F14275   6.387   5.538   8.035  0.2925  1.0979  0.6941
  132OSM   C11F14276   6.182   5.536   7.972 -0.8582 -0.7467  0.0011
  132OSM   H11F14277   6.149   5.437   8.010  0.3096 -1.1541 -0.0310
  132OSM   H11G14278   6.127   5.556   7.877 -0.5523 -0.9680 -0.2221
  132OSM   C12F14279   6.140   5.647   8.069 -0.4241  0.1268  0.0851
  132OSM   H12F14280   6.031   5.652   8.053 -0.0032 -0.4382 -4.2600
  132OSM   H12G14281   6.174   5.745   8.028 -1.0952  0.0491 -0.6665
  132OSM   C13F14282   6.192   5.634   8.213  0.0356 -0.1066 -0.2293
  132OSM   H13F14283   6.300   5.610   8.215  0.1714  0.5409  0.5898
  132OSM   H13G14284   6.141   5.555   8.272  2.6909 -2.7578 -1.2104
  132OSM   C14F14285   6.195   5.766   8.282 -0.2289 -0.0963  0.1419
  132OSM   H14F14286   6.093   5.807   8.299 -0.1051 -0.2846  1.4284
  132OSM   H14G14287   6.242   5.842   8.215  3.2311 -0.4611  1.9659
  132OSM   C15F14288   6.283   5.767   8.410  0.1106 -0.3800  0.0420
  132OSM   H15F14289   6.277   5.871   8.449  0.5214 -0.9786  1.8069
  132OSM   H15G14290   6.387   5.738   8.385 -0.1673 -1.7096  0.3390
  132OSM   C16F14291   6.235   5.684   8.532  0.6121 -0.8582 -0.3989
  132OSM   H16F14292   6.303   5.724   8.610 -0.0997 -1.2891  0.4513
  132OSM   H16G14293   6.255   5.576   8.521 -1.2062 -1.4014  1.1528
  132OSM   C17F14294   6.087   5.696   8.573  0.1035  0.3057 -0.3013
  132OSM   H17F14295   6.031   5.666   8.482  2.0564  1.4888 -2.0025
  132OSM   H17G14296   6.047   5.797   8.597 -1.5782 -0.4246  0.1048
  132OSM   C18F14297   6.068   5.605   8.692 -0.0067  0.4234 -0.2653
  132OSM   H18F14298   6.115   5.650   8.782 -0.2608  1.9044 -0.8459
  132OSM   H18G14299   6.117   5.506   8.684  0.7011  0.8584 -1.4928
  132OSM   H18H14300   5.959   5.599   8.714 -0.0593  2.0980  0.0794
  133SAPE     N14301   3.306   3.330  11.130 -0.5014  0.2803 -0.8405
  133SAPE   HN114302   3.221   3.271  11.144 -0.8878  0.5630 -1.8990
  133SAPE   HN214303   3.303   3.398  11.209  2.0987 -0.7520  0.2310
  133SAPE   HN314304   3.286   3.382  11.043 -0.2519  0.8883 -0.5405
  133SAPE   C1214305   3.433   3.251  11.119  0.6039  0.8314  0.4883
  133SAPE  H12A14306   3.419   3.155  11.174 -1.2100 -0.9162 -2.7081
  133SAPE  H12B14307   3.517   3.303  11.170  0.0499  0.4575  1.7981
  133SAPE   C1114308   3.464   3.228  10.969  1.2720 -0.1023  0.8513
  133SAPE  H11A14309   3.389   3.160  10.924 -0.5627  1.4273  1.4628
  133SAPE  H11B14310   3.563   3.177  10.969  0.2083 -2.3366 -0.8237
  133SAPE     P14311   3.523   3.390  10.755  0.3928  0.0735 -0.5582
  133SAPE   O1314312   3.480   3.531  10.712  0.5290  1.0136  0.2680
  133SAPE   O1414313   3.667   3.359  10.748 -0.9768  0.2202  0.4666
  133SAPE   O1214314   3.469   3.357  10.905 -0.1047 -0.0143 -0.3340
  133SAPE   O1114315   3.437   3.276  10.686  0.1964  0.4746 -0.2668
  133SAPE    C114316   3.294   3.288  10.684 -0.4924 -0.1999 -0.7962
  133SAPE    HA14317   3.256   3.323  10.783  1.2782 -0.0559 -0.1322
  133SAPE    HB14318   3.269   3.369  10.612  2.0669  1.3272 -0.0824
  133SAPE    C214319   3.229   3.152  10.635 -0.3323 -0.5400  0.0157
  133SAPE    HS14320   3.260   3.072  10.705  4.0675 -1.2450 -2.3715
  133SAPE   O2114321   3.265   3.128  10.497  0.1061 -0.3341  0.0489
  133SAPE   C2114322   3.264   3.005  10.456  0.3577 -0.2679 -0.5632
  133SAPE   O2214323   3.233   2.906  10.520 -0.0672  0.4854  0.2261
  133SAPE   C2214324   3.315   3.006  10.312 -0.0551  0.6290  0.0073
  133SAPE   H2R14325   3.393   3.085  10.301  0.3996  0.2517  0.4825
  133SAPE   H2S14326   3.369   2.910  10.301  0.4908  1.0142 -0.7557
  133SAPE    C314327   3.078   3.189  10.637  0.3117  0.4512  0.2352
  133SAPE    HX14328   3.058   3.287  10.589 -1.8959 -0.9654 -1.9848
  133SAPE    HY14329   3.049   3.204  10.743  1.2045 -3.3583  1.1748
  133SAPE   O3114330   2.996   3.091  10.564 -0.3828 -0.3863  0.6380
  133SAPE   C3114331   2.946   2.999  10.641 -0.6329 -0.3537 -0.1451
  133SAPE   O3214332   2.972   2.974  10.759 -0.2179 -0.3244 -0.2209
  133SAPE   C3214333   2.835   2.916  10.566  0.0395  0.1539  0.0915
  133SAPE   H2X14334   2.761   2.883  10.642  1.4909 -1.6256  0.8174
  133SAPE   H2Y14335   2.895   2.840  10.512  1.8156  1.5923 -0.0460
  133SAPE   C2314336   3.203   3.021  10.211  0.3623 -0.2188 -0.1092
  133SAPE   H3R14337   3.232   3.072  10.117 -0.3491 -0.0627 -0.2492
  133SAPE   H3S14338   3.116   3.075  10.253  0.1035 -0.7683  0.0596
  133SAPE   C2414339   3.150   2.881  10.170  0.0947 -0.3047  0.2000
  133SAPE   H4R14340   3.088   2.844  10.254  1.7177 -0.1305  1.5318
  133SAPE   H4S14341   3.233   2.808  10.159 -0.6531 -0.8103 -2.9649
  133SAPE   C2514342   3.083   2.891  10.032  0.3407 -0.2052  0.2324
  133SAPE   H5R14343   3.002   2.965  10.022  0.2252 -0.3070  0.4048
  133SAPE   C2614344   3.124   2.839   9.916 -0.1388  0.0843 -0.5187
  133SAPE   H6R14345   3.054   2.843   9.831 -0.2795 -1.0256 -0.4681
  133SAPE   C2714346   3.240   2.746   9.890 -0.3745  0.4118  0.5699
  133SAPE   H7R14347   3.211   2.660   9.826 -0.3364 -0.6075  1.8786
  133SAPE   H7S14348   3.282   2.695   9.979  2.1334 -1.6000 -1.5996
  133SAPE   C2814349   3.354   2.817   9.812 -0.1375  0.6800  0.0207
  133SAPE   H8R14350   3.442   2.850   9.868  1.4216 -1.0161 -1.3220
  133SAPE   C2914351   3.355   2.852   9.687 -0.1026 -0.1642  0.8384
  133SAPE   H9R14352   3.450   2.889   9.647 -0.3876 -2.7141 -2.6489
  133SAPE  C21014353   3.247   2.830   9.576 -0.0263 -0.2283 -0.2326
  133SAPE  H10R14354   3.154   2.780   9.610 -0.6246  2.6086  2.8184
  133SAPE  H10S14355   3.292   2.760   9.503  0.9381 -0.4179  0.5258
  133SAPE  C21114356   3.204   2.958   9.508  0.2168  0.1706 -0.3292
  133SAPE  H11R14357   3.118   3.009   9.555  0.2140  0.6149 -0.8044
  133SAPE  C21214358   3.254   3.006   9.396  0.3624  0.0246  0.5163
  133SAPE  H12R14359   3.224   3.098   9.344  2.0673 -0.0243 -0.6186
  133SAPE  C21314360   3.382   2.948   9.339 -0.5212  0.1450  0.0860
  133SAPE  H13R14361   3.444   2.899   9.417 -1.0668 -1.7488 -0.6132
  133SAPE  H13S14362   3.438   3.036   9.302 -0.8484  0.0898 -0.5594
  133SAPE  C21414363   3.352   2.849   9.225 -0.3419 -0.5450  0.1101
  133SAPE  H14R14364   3.272   2.782   9.259  0.6821 -3.2761 -2.5225
  133SAPE  C21514365   3.415   2.841   9.107  0.2666 -0.0726 -0.6429
  133SAPE  H15R14366   3.364   2.777   9.034 -0.5584  1.0274 -1.0583
  133SAPE  C21614367   3.525   2.924   9.050  0.4964  0.2761 -0.8047
  133SAPE  H16R14368   3.606   2.855   9.016  0.6000  0.6135 -1.2389
  133SAPE  H16S14369   3.574   2.990   9.125  0.0581  0.4766 -0.6914
  133SAPE  C21714370   3.474   3.002   8.925  0.5904 -0.1160 -0.0908
  133SAPE  H17R14371   3.385   3.064   8.949  0.6947  0.9380 -2.1956
  133SAPE  H17S14372   3.444   2.934   8.842 -0.2784  1.2350 -0.9332
  133SAPE  C21814373   3.573   3.093   8.863  0.1180  0.0819  0.6670
  133SAPE  H18R14374   3.661   3.034   8.830 -1.8843 -0.8467 -3.8706
  133SAPE  H18S14375   3.616   3.164   8.936 -2.1926  1.4088  0.8487
  133SAPE  C21914376   3.515   3.172   8.744  0.5571 -0.2103 -0.1528
  133SAPE  H19R14377   3.443   3.243   8.790 -1.1387 -1.4936 -0.7197
  133SAPE  H19S14378   3.457   3.117   8.667 -0.2044  1.4043 -0.7891
  133SAPE  C22014379   3.622   3.263   8.673 -0.2393  0.0092  0.0174
  133SAPE  H20R14380   3.680   3.326   8.743  0.2586  0.1079 -0.4804
  133SAPE  H20S14381   3.584   3.335   8.597 -1.3014  0.2207  0.7201
  133SAPE  H20T14382   3.699   3.190   8.639  0.1232  0.9199 -1.2058
  133SAPE   C3314383   2.761   2.991  10.450  0.1833 -0.4747 -0.3274
  133SAPE   H3X14384   2.829   3.017  10.366  0.0697 -1.5770 -0.7817
  133SAPE   H3Y14385   2.719   3.084  10.493  1.1220 -0.3030  0.2485
  133SAPE   C3414386   2.640   2.911  10.402 -0.1015 -0.3439 -0.7550
  133SAPE   H4X14387   2.566   2.874  10.475 -0.8952  2.4887  0.0269
  133SAPE   H4Y14388   2.689   2.821  10.359  0.4558 -0.4252  0.0407
  133SAPE   C3514389   2.569   2.998  10.299  0.0447  0.3500 -0.2538
  133SAPE   H5X14390   2.637   3.063  10.240 -0.5091  0.1127 -1.1683
  133SAPE   H5Y14391   2.499   3.062  10.357 -1.1171  0.2543 -1.5074
  133SAPE   C3614392   2.492   2.914  10.207 -0.0394 -0.1014  1.4997
  133SAPE   H6X14393   2.448   2.984  10.132  1.5816  0.3139  0.8820
  133SAPE   H6Y14394   2.416   2.852  10.258 -1.6511 -0.3999 -1.0825
  133SAPE   C3714395   2.586   2.820  10.112  1.0618 -0.3879 -0.0440
  133SAPE   H7X14396   2.508   2.756  10.066  0.5195  0.0773  0.2059
  133SAPE   H7Y14397   2.649   2.756  10.177  1.8490  1.6172  1.2936
  133SAPE   C3814398   2.666   2.887  10.000 -0.4933 -0.9224  0.5521
  133SAPE   H8X14399   2.761   2.928  10.041 -1.2031 -0.4244  1.7419
  133SAPE   H8Y14400   2.613   2.982   9.978 -1.9573 -1.6235  0.9706
  133SAPE   C3914401   2.685   2.802   9.880  0.3306 -0.3016 -0.1153
  133SAPE   H9X14402   2.583   2.763   9.858  0.1143  0.2971 -0.1878
  133SAPE   H9Y14403   2.748   2.716   9.910 -0.2852 -0.2605  1.3987
  133SAPE  C31014404   2.731   2.889   9.767 -0.0588  0.1222  0.1082
  133SAPE  H10X14405   2.832   2.925   9.796  0.0617  0.9129 -1.2084
  133SAPE  H10Y14406   2.673   2.983   9.756  1.7709  1.2342 -0.5379
  133SAPE  C31114407   2.741   2.796   9.647  0.0092  0.0798 -0.1131
  133SAPE  H11X14408   2.642   2.795   9.596 -1.5960 -0.6117  2.7662
  133SAPE  H11Y14409   2.754   2.692   9.684 -0.1517  0.2371  0.3967
  133SAPE  C31214410   2.853   2.831   9.554  0.0193 -0.0556  0.2133
  133SAPE  H12X14411   2.947   2.819   9.613 -0.5004  0.3850  1.1402
  133SAPE  H12Y14412   2.850   2.939   9.530 -0.0492 -0.2704 -0.7836
  133SAPE  C31314413   2.848   2.750   9.432 -0.1283  0.0035 -0.0765
  133SAPE  H13X14414   2.742   2.757   9.400 -0.7075 -3.6307  0.5214
  133SAPE  H13Y14415   2.884   2.647   9.455 -0.7765 -0.0304  0.8536
  133SAPE  C31414416   2.931   2.805   9.312 -0.1247 -0.4897 -0.4847
  133SAPE  H14X14417   2.900   2.735   9.232  1.8866 -2.7177  0.5319
  133SAPE  H14Y14418   3.040   2.782   9.311 -0.2116 -0.9203 -1.8371
  133SAPE  C31514419   2.900   2.952   9.267  0.1982  0.1045 -0.1337
  133SAPE  H15X14420   2.926   3.024   9.347 -2.8973 -2.3549  3.4906
  133SAPE  H15Y14421   2.792   2.972   9.252 -0.0227 -2.3166 -2.6147
  133SAPE  C31614422   2.986   2.993   9.141  0.5828  0.1928  0.4242
  133SAPE  H16X14423   3.093   3.008   9.167  0.4046 -1.0809  2.0807
  133SAPE  H16Y14424   2.940   3.091   9.116  0.1849 -0.2250 -0.5266
  133SAPE  C31714425   2.980   2.903   9.017 -0.0636  0.2951 -0.1317
  133SAPE  H17X14426   2.877   2.912   8.978 -0.4575 -0.6372  0.6505
  133SAPE  H17Y14427   2.981   2.795   9.041 -2.2367  0.5696  1.5455
  133SAPE  C31814428   3.085   2.942   8.910 -0.0732 -0.2979  0.0958
  133SAPE  H18X14429   3.083   2.872   8.824 -0.9157  0.0086 -0.1396
  133SAPE  H18Y14430   3.184   2.934   8.960 -0.8877  3.5453  2.7196
  133SAPE  H18Z14431   3.071   3.044   8.869  0.6005 -0.1040  0.3353
  134SAPE     N14432   5.946   4.115  10.852 -0.1225 -0.0037 -0.4677
  134SAPE   HN114433   5.878   4.152  10.782  1.1035  2.4442 -0.4471
  134SAPE   HN214434   5.901   4.058  10.926  2.1729  0.7330  1.6247
  134SAPE   HN314435   5.986   4.198  10.898 -1.8551 -0.3312  1.8176
  134SAPE   C1214436   6.060   4.032  10.798 -0.0471  0.0738  0.3605
  134SAPE  H12A14437   6.013   3.965  10.723  1.8754  0.4053 -1.2095
  134SAPE  H12B14438   6.100   3.983  10.890 -0.8758  0.9395  1.2010
  134SAPE   C1114439   6.175   4.102  10.731 -0.3530  0.1922 -0.7974
  134SAPE  H11A14440   6.137   4.182  10.664  0.7301  2.1807  0.8585
  134SAPE  H11B14441   6.233   4.026  10.674 -0.6048 -0.2255 -0.5026
  134SAPE     P14442   6.250   4.321  10.865  0.1419  0.4206  0.3107
  134SAPE   O1314443   6.105   4.358  10.865 -0.2781  0.4229 -0.4295
  134SAPE   O1414444   6.315   4.354  10.996  0.4347  0.0147  0.4489
  134SAPE   O1214445   6.256   4.166  10.834 -0.2406 -0.1315  0.4167
  134SAPE   O1114446   6.331   4.394  10.742 -0.0061 -0.1169 -0.3470
  134SAPE    C114447   6.464   4.352  10.721  0.2297 -0.4969  0.3762
  134SAPE    HA14448   6.529   4.381  10.806  2.0113 -2.9622 -0.0477
  134SAPE    HB14449   6.477   4.242  10.720  0.9596 -0.4396  1.5502
  134SAPE    C214450   6.534   4.413  10.589 -0.0033  0.1404 -0.2269
  134SAPE    HS14451   6.522   4.524  10.591 -1.9929 -0.0433  1.3420
  134SAPE   O2114452   6.475   4.353  10.471 -0.2298 -0.0843 -0.1075
  134SAPE   C2114453   6.347   4.391  10.456 -0.1949 -0.1543  1.0320
  134SAPE   O2214454   6.301   4.494  10.490  0.2664 -0.4463 -0.1318
  134SAPE   C2214455   6.275   4.287  10.359  0.3671 -0.1062 -0.0168
  134SAPE   H2R14456   6.301   4.343  10.266  0.0656  1.0922  0.5959
  134SAPE   H2S14457   6.325   4.188  10.358 -0.8706 -0.8136  2.0163
  134SAPE    C314458   6.687   4.373  10.574 -1.2106 -0.3308 -0.3296
  134SAPE    HX14459   6.703   4.264  10.592  0.9637  0.0233  0.1463
  134SAPE    HY14460   6.747   4.428  10.649  0.1712 -1.5359 -0.5096
  134SAPE   O3114461   6.747   4.418  10.451  0.2916 -0.1863  0.0023
  134SAPE   C3114462   6.787   4.322  10.366  0.4462 -0.4886  0.1914
  134SAPE   O3214463   6.802   4.209  10.389 -0.0487  0.6264  0.0224
  134SAPE   C3214464   6.789   4.373  10.219  1.1335 -0.2817  0.4135
  134SAPE   H2X14465   6.832   4.474  10.234 -0.0064 -0.0087  2.0901
  134SAPE   H2Y14466   6.685   4.382  10.184  1.7485  0.3773 -1.3552
  134SAPE   C2314467   6.118   4.276  10.359 -0.6882 -0.5671 -0.0467
  134SAPE   H3R14468   6.076   4.372  10.323  0.3450  0.6115  1.7605
  134SAPE   H3S14469   6.080   4.267  10.463 -0.4493 -2.6314 -0.0876
  134SAPE   C2414470   6.071   4.160  10.273  0.5228  0.3285 -0.4063
  134SAPE   H4R14471   6.107   4.059  10.303 -0.9031 -0.6651 -1.8307
  134SAPE   H4S14472   6.106   4.163  10.167 -0.1608 -1.1441 -0.6988
  134SAPE   C2514473   5.919   4.165  10.277 -0.1895  0.2938  0.0386
  134SAPE   H5R14474   5.886   4.147  10.381  1.1735  1.0081  0.6082
  134SAPE   C2614475   5.835   4.199  10.171  0.0877  0.6423  0.1276
  134SAPE   H6R14476   5.729   4.216  10.191  0.3958  1.4880  1.0902
  134SAPE   C2714477   5.879   4.229  10.026 -0.1848  0.0673  0.1095
  134SAPE   H7R14478   5.931   4.137   9.991 -0.4294 -0.3094  0.7230
  134SAPE   H7S14479   5.946   4.317  10.033  0.2688 -0.0531 -2.0898
  134SAPE   C2814480   5.768   4.257   9.941 -0.0510 -0.2639  0.7214
  134SAPE   H8R14481   5.683   4.317   9.976  0.1960  0.5986 -0.1238
  134SAPE   C2914482   5.746   4.196   9.823  0.6581 -0.3545 -0.5197
  134SAPE   H9R14483   5.648   4.220   9.780 -0.5276  2.2079  3.1163
  134SAPE  C21014484   5.837   4.100   9.752 -0.4872  0.4289  0.9811
  134SAPE  H10R14485   5.773   4.040   9.683  2.9500 -0.1829 -1.9797
  134SAPE  H10S14486   5.891   4.026   9.816  1.4837  0.6597 -0.3257
  134SAPE  C21114487   5.942   4.180   9.678 -0.3894  0.2585  0.6706
  134SAPE  H11R14488   6.025   4.220   9.738 -1.5258  1.4887  1.4805
  134SAPE  C21214489   5.945   4.198   9.549  0.2709  0.2336 -0.1759
  134SAPE  H12R14490   6.018   4.273   9.515  2.4303 -1.2277  0.9814
  134SAPE  C21314491   5.846   4.147   9.448  0.2967  0.4900  0.4109
  134SAPE  H13R14492   5.825   4.038   9.454  0.9564  0.3708  0.5966
  134SAPE  H13S14493   5.892   4.151   9.347  0.8712 -2.5216  0.4335
  134SAPE  C21414494   5.713   4.227   9.447  0.4725  0.1332 -0.7152
  134SAPE  H14R14495   5.646   4.217   9.534  2.7292  5.2961  2.1210
  134SAPE  C21514496   5.677   4.332   9.362 -1.1470  0.6976  0.2858
  134SAPE  H15R14497   5.580   4.381   9.380 -1.9052  0.0278 -1.6809
  134SAPE  C21614498   5.754   4.397   9.247 -0.2968  0.3925  0.2452
  134SAPE  H16R14499   5.864   4.380   9.256 -0.5993 -1.8703  0.2582
  134SAPE  H16S14500   5.739   4.505   9.268 -0.7478  1.0625 -3.0090
  134SAPE  C21714501   5.716   4.350   9.104  0.2523 -0.1519 -0.4522
  134SAPE  H17R14502   5.794   4.386   9.035  2.0282 -0.1428  1.4468
  134SAPE  H17S14503   5.619   4.390   9.067 -0.5896 -0.0175  1.7149
  134SAPE  C21814504   5.736   4.197   9.099  0.2116  0.2992 -0.0002
  134SAPE  H18R14505   5.660   4.141   9.158  0.4703 -1.1971 -1.0491
  134SAPE  H18S14506   5.838   4.176   9.136  1.0705 -1.1022 -2.8939
  134SAPE  C21914507   5.753   4.139   8.955 -0.1598 -0.3577 -0.0302
  134SAPE  H19R14508   5.766   4.030   8.969  0.0026 -0.5077 -1.2961
  134SAPE  H19S14509   5.847   4.169   8.905 -0.1567 -0.4304 -0.0665
  134SAPE  C22014510   5.643   4.171   8.850  0.5997  0.2656 -0.5439
  134SAPE  H20R14511   5.543   4.142   8.888  1.4744 -1.1502  0.7932
  134SAPE  H20S14512   5.683   4.114   8.763  1.2633  1.2543 -0.9098
  134SAPE  H20T14513   5.631   4.277   8.818  1.5826  0.4684 -0.2869
  134SAPE   C3314514   6.860   4.277  10.114 -1.3196  0.0405 -0.2570
  134SAPE   H3X14515   6.854   4.176  10.160 -2.0942  0.0954 -0.2188
  134SAPE   H3Y14516   6.969   4.295  10.118 -1.0795 -1.4571  0.8581
  134SAPE   C3414517   6.803   4.290   9.971  0.3516 -0.0459  0.1646
  134SAPE   H4X14518   6.791   4.399   9.956  0.8711  0.1148  0.8530
  134SAPE   H4Y14519   6.699   4.254   9.972  0.3898 -0.2477 -1.2470
  134SAPE   C3514520   6.880   4.222   9.865 -0.5176  0.6551 -0.0211
  134SAPE   H5X14521   6.862   4.120   9.906 -0.8974  1.7105  2.6589
  134SAPE   H5Y14522   6.982   4.265   9.863  0.1580 -0.7823 -3.9697
  134SAPE   C3614523   6.812   4.258   9.729 -0.4161  0.2354  0.1060
  134SAPE   H6X14524   6.810   4.367   9.711 -1.4170  0.1660 -0.2411
  134SAPE   H6Y14525   6.707   4.223   9.726 -0.0837 -0.7572 -0.4972
  134SAPE   C3714526   6.887   4.197   9.604 -0.5939  0.5994 -0.3081
  134SAPE   H7X14527   6.888   4.087   9.618 -1.5252  0.4467 -1.3301
  134SAPE   H7Y14528   6.994   4.227   9.601 -0.2327 -0.5031  0.6181
  134SAPE   C3814529   6.814   4.258   9.483 -0.6378  0.7943 -0.1139
  134SAPE   H8X14530   6.830   4.368   9.480  0.1295  0.6910 -0.1487
  134SAPE   H8Y14531   6.706   4.233   9.490 -0.8308  1.7315  0.4062
  134SAPE   C3914532   6.868   4.196   9.354 -0.3334 -0.1209 -0.3657
  134SAPE   H9X14533   6.855   4.086   9.351 -0.5092 -0.0793 -1.6016
  134SAPE   H9Y14534   6.977   4.217   9.341  0.4266 -0.6825  3.6281
  134SAPE  C31014535   6.771   4.249   9.237 -1.0767  0.6839 -1.0471
  134SAPE  H10X14536   6.787   4.358   9.241  1.6739  0.3108  0.6529
  134SAPE  H10Y14537   6.670   4.221   9.275 -0.8887  2.9722  1.4832
  134SAPE  C31114538   6.801   4.201   9.094  0.4068 -0.3147  0.1742
  134SAPE  H11X14539   6.778   4.094   9.074  0.4607 -0.2978  0.0242
  134SAPE  H11Y14540   6.909   4.209   9.069  0.2493 -0.3827 -0.5456
  134SAPE  C31214541   6.739   4.279   8.973 -0.2682 -0.3273 -0.0895
  134SAPE  H12X14542   6.758   4.206   8.892 -0.4349 -1.7837  1.1260
  134SAPE  H12Y14543   6.792   4.373   8.948  0.4935 -0.5540  0.6282
  134SAPE  C31314544   6.598   4.330   8.993  0.8369 -0.0079  0.7852
  134SAPE  H13X14545   6.554   4.380   8.904 -3.9214  0.4883  3.0832
  134SAPE  H13Y14546   6.586   4.400   9.078 -0.7319 -0.5742  1.0823
  134SAPE  C31414547   6.491   4.226   9.020  0.4794 -0.2002  0.6447
  134SAPE  H14X14548   6.516   4.159   9.105  0.4802  0.2452  0.9993
  134SAPE  H14Y14549   6.485   4.163   8.929  0.0087 -1.4104  1.4888
  134SAPE  C31514550   6.359   4.307   9.036  0.6708 -0.0263  0.3027
  134SAPE  H15X14551   6.269   4.258   8.991  0.1294  0.6318  0.6535
  134SAPE  H15Y14552   6.377   4.407   8.991 -0.2818 -0.2528 -0.6445
  134SAPE  C31614553   6.335   4.340   9.181 -0.3929  0.2581 -0.2783
  134SAPE  H16X14554   6.414   4.390   9.240  0.8005 -1.3849 -0.4104
  134SAPE  H16Y14555   6.327   4.241   9.231  3.5188 -0.2852 -0.4264
  134SAPE  C31714556   6.203   4.423   9.196  0.1157 -0.0477 -0.8618
  134SAPE  H17X14557   6.129   4.386   9.122 -0.2112 -0.6968 -0.2333
  134SAPE  H17Y14558   6.233   4.523   9.159  0.5548 -0.1622 -0.8284
  134SAPE  C31814559   6.152   4.432   9.333 -0.3644 -0.3327 -0.6707
  134SAPE  H18X14560   6.143   4.337   9.389 -0.1671  0.4866  0.8222
  134SAPE  H18Y14561   6.060   4.495   9.332 -1.2209 -1.4991  0.6143
  134SAPE  H18Z14562   6.229   4.495   9.384  0.2529  0.2357 -2.2402
  135SAPE     N14563   6.024   4.631  10.743  0.8529 -0.6078  0.2358
  135SAPE   HN114564   6.126   4.620  10.760  0.7714 -1.1136  0.3889
  135SAPE   HN214565   5.982   4.713  10.792 -1.2985 -0.3458 -1.8250
  135SAPE   HN314566   5.981   4.545  10.781  2.7274  0.0525  4.4231
  135SAPE   C1214567   5.988   4.648  10.597  0.6254  0.9079 -0.5559
  135SAPE  H12A14568   6.051   4.576  10.541  1.1911 -0.1490  1.3815
  135SAPE  H12B14569   6.012   4.751  10.562 -0.7237  1.9388  1.3636
  135SAPE   C1114570   5.837   4.616  10.575 -0.5408  0.3037 -0.4531
  135SAPE  H11A14571   5.802   4.664  10.481 -1.0980 -1.9271 -1.4656
  135SAPE  H11B14572   5.787   4.669  10.658 -0.4620  3.2316 -2.1478
  135SAPE     P14573   5.772   4.395  10.707  0.1730 -0.0996 -0.0221
  135SAPE   O1314574   5.802   4.251  10.677 -0.1953 -0.1102 -0.4687
  135SAPE   O1414575   5.826   4.454  10.837 -0.2284  0.1832 -0.2151
  135SAPE   O1214576   5.817   4.471  10.582  0.3951 -0.1586 -0.1907
  135SAPE   O1114577   5.613   4.414  10.705  0.4387  0.4558  0.3500
  135SAPE    C114578   5.533   4.471  10.603 -0.4439 -0.0572  0.1963
  135SAPE    HA14579   5.434   4.500  10.644 -0.4016  3.3573 -1.7297
  135SAPE    HB14580   5.572   4.571  10.571 -0.7022  0.1493  0.5206
  135SAPE    C214581   5.518   4.382  10.481  0.0526  0.0889 -0.3718
  135SAPE    HS14582   5.620   4.357  10.446  0.6592 -0.2067  1.4711
  135SAPE   O2114583   5.433   4.451  10.388  0.6468 -0.0152 -0.6067
  135SAPE   C2114584   5.466   4.453  10.266 -0.2953  0.1463  0.5896
  135SAPE   O2214585   5.569   4.404  10.223  0.0946 -0.3242  0.2718
  135SAPE   C2214586   5.366   4.542  10.192  0.5015 -0.7211  0.8655
  135SAPE   H2R14587   5.305   4.609  10.256  0.7337  0.4047 -0.0615
  135SAPE   H2S14588   5.425   4.611  10.129 -1.5743 -0.7554 -1.2888
  135SAPE    C314589   5.454   4.250  10.536  0.0676 -0.3312  0.2482
  135SAPE    HX14590   5.345   4.270  10.548  0.1465 -0.8223  2.1312
  135SAPE    HY14591   5.484   4.229  10.641 -1.1058 -0.1374  0.6430
  135SAPE   O3114592   5.491   4.135  10.456  0.2514  0.3599  0.6538
  135SAPE   C3114593   5.416   4.107  10.353 -0.2598  0.0077 -0.1613
  135SAPE   O3214594   5.313   4.162  10.322  0.7239  0.7611  0.2131
  135SAPE   C3214595   5.476   3.988  10.284 -0.2965  0.5808 -0.1385
  135SAPE   H2X14596   5.442   3.903  10.347  0.4782  0.8459  0.6633
  135SAPE   H2Y14597   5.586   3.988  10.292 -0.2883 -0.5773 -0.0323
  135SAPE   C2314598   5.268   4.465  10.096  0.2301 -0.4839 -0.2177
  135SAPE   H3R14599   5.196   4.544  10.067  1.0855 -0.4993 -2.5245
  135SAPE   H3S14600   5.209   4.383  10.143  0.7425 -0.5508  0.3236
  135SAPE   C2414601   5.330   4.420   9.965  0.2770  0.4302  0.2376
  135SAPE   H4R14602   5.408   4.344   9.987 -1.4966 -2.0081 -1.2838
  135SAPE   H4S14603   5.385   4.505   9.921 -0.9646  0.8984 -0.4534
  135SAPE   C2514604   5.216   4.358   9.884 -0.1729 -0.4050  0.0799
  135SAPE   H5R14605   5.147   4.299   9.946  0.3775 -1.8649 -0.6445
  135SAPE   C2614606   5.193   4.362   9.756 -0.3919  0.5100 -0.3666
  135SAPE   H6R14607   5.100   4.313   9.722  0.4941  0.2656 -2.6272
  135SAPE   C2714608   5.268   4.428   9.644  0.9075 -0.0168  0.0916
  135SAPE   H7R14609   5.350   4.495   9.677 -0.3343  1.4366  0.3850
  135SAPE   H7S14610   5.192   4.487   9.588 -1.0774 -1.6510  0.9024
  135SAPE   C2814611   5.346   4.328   9.564 -0.8104  0.4952 -0.0804
  135SAPE   H8R14612   5.443   4.297   9.608 -1.2428 -1.1252 -0.2057
  135SAPE   C2914613   5.336   4.293   9.433 -0.2639  0.3000  0.0508
  135SAPE   H9R14614   5.413   4.225   9.393  0.1353  1.4606 -1.2308
  135SAPE  C21014615   5.231   4.347   9.340  0.3621  0.1470 -0.4167
  135SAPE  H10R14616   5.198   4.448   9.374  0.3307  0.2339 -0.7017
  135SAPE  H10S14617   5.141   4.281   9.342  0.6159 -0.2143  2.0219
  135SAPE  C21114618   5.280   4.342   9.194  0.0189  0.5153  0.5509
  135SAPE  H11R14619   5.384   4.308   9.182  0.1260  0.0829  2.4032
  135SAPE  C21214620   5.200   4.373   9.088 -0.3601  0.1863 -0.2940
  135SAPE  H12R14621   5.240   4.365   8.986  1.0358 -0.4375  0.2739
  135SAPE  C21314622   5.056   4.410   9.097 -0.8036 -0.2900 -0.2699
  135SAPE  H13R14623   5.059   4.521   9.105  0.7799 -0.4016  1.3238
  135SAPE  H13S14624   5.009   4.375   9.191  1.4739  0.8649  1.3738
  135SAPE  C21414625   4.988   4.344   8.976  0.3732 -0.3512 -0.1512
  135SAPE  H14R14626   4.923   4.260   9.005  2.8807 -1.8685  1.4740
  135SAPE  C21514627   4.987   4.382   8.846  0.4540  0.5188  0.0153
  135SAPE  H15R14628   4.953   4.312   8.769 -2.2501  1.7851 -0.0528
  135SAPE  C21614629   5.052   4.499   8.779  0.2312 -0.0959  0.1738
  135SAPE  H16R14630   5.128   4.452   8.713  0.3317  1.0399 -0.5427
  135SAPE  H16S14631   5.116   4.548   8.856 -0.7409 -0.5666  1.3106
  135SAPE  C21714632   4.957   4.596   8.713 -0.2273  0.2059  0.2020
  135SAPE  H17R14633   4.874   4.632   8.777  0.2998  1.6519  0.1145
  135SAPE  H17S14634   4.922   4.534   8.628  2.3372 -0.8924 -0.1423
  135SAPE  C21814635   5.022   4.723   8.659 -0.5108  0.1901 -0.0560
  135SAPE  H18R14636   4.954   4.783   8.595  0.1864 -0.7165 -1.7123
  135SAPE  H18S14637   5.114   4.687   8.608  0.1141 -2.2277  2.5173
  135SAPE  C21914638   5.063   4.814   8.783 -0.2396  0.1814  1.0093
  135SAPE  H19R14639   5.141   4.758   8.838 -0.5170 -0.5381  0.6904
  135SAPE  H19S14640   4.965   4.825   8.834 -0.7615  2.3787 -0.3491
  135SAPE  C22014641   5.121   4.949   8.744 -0.0197  0.6215  0.2100
  135SAPE  H20R14642   5.203   4.934   8.670 -1.3021  2.3934 -1.6656
  135SAPE  H20S14643   5.155   4.993   8.840  1.0358  0.4162 -0.0543
  135SAPE  H20T14644   5.048   5.009   8.685  2.6254  2.2568 -1.6496
  135SAPE   C3314645   5.436   3.955  10.136  0.6164  0.2584 -0.1444
  135SAPE   H3X14646   5.332   3.915  10.132  0.1424  0.8464  3.2518
  135SAPE   H3Y14647   5.494   3.864  10.112 -1.4362 -0.7270 -1.7162
  135SAPE   C3414648   5.450   4.068  10.036  0.2699  0.0570  0.0794
  135SAPE   H4X14649   5.555   4.104  10.034  0.6406 -0.8432  1.6005
  135SAPE   H4Y14650   5.380   4.143  10.077  0.2927 -0.1717  0.5513
  135SAPE   C3514651   5.404   4.029   9.898 -0.3181 -0.7229  0.0542
  135SAPE   H5X14652   5.396   4.115   9.829 -1.4098 -0.8680 -0.0117
  135SAPE   H5Y14653   5.300   3.991   9.905 -1.2299  1.3380 -1.5457
  135SAPE   C3614654   5.476   3.907   9.853 -0.2955  0.4276 -0.5777
  135SAPE   H6X14655   5.436   3.819   9.907  2.1197  0.1634  0.9622
  135SAPE   H6Y14656   5.587   3.913   9.863 -0.2588  1.3484 -1.3797
  135SAPE   C3714657   5.458   3.873   9.704 -0.5719 -0.2577 -0.0210
  135SAPE   H7X14658   5.445   3.964   9.640  1.5857 -0.1526 -0.3647
  135SAPE   H7Y14659   5.358   3.825   9.697 -0.9078  0.6565 -3.1802
  135SAPE   C3814660   5.574   3.786   9.643 -0.4408 -0.2040 -0.3552
  135SAPE   H8X14661   5.591   3.697   9.708  0.6663 -1.9828 -2.9033
  135SAPE   H8Y14662   5.663   3.849   9.666 -0.1563 -1.2318  1.6111
  135SAPE   C3914663   5.544   3.734   9.505 -0.7512  0.2395  0.3295
  135SAPE   H9X14664   5.443   3.690   9.510 -0.4916 -0.3067  0.9339
  135SAPE   H9Y14665   5.609   3.647   9.482 -0.0114  1.0044 -0.5265
  135SAPE  C31014666   5.564   3.837   9.391 -0.7423  0.0143 -0.1070
  135SAPE  H10X14667   5.650   3.902   9.418 -0.8910 -0.8934  2.9314
  135SAPE  H10Y14668   5.485   3.915   9.390  0.9119  1.7820  0.2436
  135SAPE  C31114669   5.577   3.769   9.257  0.2244 -0.6747  0.3607
  135SAPE  H11X14670   5.507   3.682   9.257  0.4358 -0.8781  1.7328
  135SAPE  H11Y14671   5.682   3.736   9.241 -0.1535 -0.7952 -2.2704
  135SAPE  C31214672   5.517   3.855   9.138  0.3287 -0.4257 -0.6308
  135SAPE  H12X14673   5.576   3.950   9.136  1.0405 -0.8565 -1.9239
  135SAPE  H12Y14674   5.416   3.892   9.163  0.2654 -1.4686  0.7647
  135SAPE  C31314675   5.518   3.786   9.006  0.3002 -0.3111 -0.1691
  135SAPE  H13X14676   5.512   3.852   8.917 -0.1015 -1.6914 -1.2101
  135SAPE  H13Y14677   5.436   3.711   9.004 -1.2195  1.2833  0.0763
  135SAPE  C31414678   5.647   3.713   8.972  0.2113 -0.0913 -0.0054
  135SAPE  H14X14679   5.643   3.615   9.023 -2.7874  0.6835  1.4948
  135SAPE  H14Y14680   5.725   3.782   9.011 -0.9009  0.8850  0.5812
  135SAPE  C31514681   5.684   3.697   8.821  0.7785  0.1584  0.3771
  135SAPE  H15X14682   5.789   3.660   8.823  0.2945 -1.2805  0.3871
  135SAPE  H15Y14683   5.676   3.793   8.766 -0.9187 -1.5699 -2.6699
  135SAPE  C31614684   5.594   3.590   8.749 -0.2308 -0.1802 -0.1663
  135SAPE  H16X14685   5.488   3.604   8.777 -0.2394 -3.2943  1.8996
  135SAPE  H16Y14686   5.625   3.487   8.778 -0.3858  0.0862  0.9988
  135SAPE  C31714687   5.604   3.619   8.600  0.2408  0.1764 -0.0235
  135SAPE  H17X14688   5.713   3.615   8.580  0.5806 -1.0005  1.8004
  135SAPE  H17Y14689   5.566   3.720   8.573  0.1957 -0.1708 -1.3244
  135SAPE  C31814690   5.528   3.513   8.514  0.3172 -0.6759  0.1002
  135SAPE  H18X14691   5.549   3.404   8.517 -1.7318 -1.1730 -1.5520
  135SAPE  H18Y14692   5.563   3.541   8.412 -0.4978 -0.0918 -0.0225
  135SAPE  H18Z14693   5.418   3.520   8.523  0.4081  4.3576  0.6366
  136SAPE     N14694   2.082   2.904  11.086 -0.3831 -0.1773 -0.1562
  136SAPE   HN114695   2.008   2.833  11.068 -2.2402  0.9869  2.3124
  136SAPE   HN214696   2.166   2.854  11.121 -0.0692  0.7693  0.4993
  136SAPE   HN314697   2.055   2.965  11.166  1.8491  0.4845  0.1641
  136SAPE   C1214698   2.118   2.979  10.965 -0.0925 -0.0175  0.5285
  136SAPE  H12A14699   2.024   3.024  10.926 -1.6214 -1.7691  2.0079
  136SAPE  H12B14700   2.148   2.899  10.893 -0.4872  0.7438 -0.5112
  136SAPE   C1114701   2.226   3.088  10.986 -0.1581  0.7780 -0.2583
  136SAPE  H11A14702   2.236   3.139  10.888  0.7920  1.9076  0.3945
  136SAPE  H11B14703   2.318   3.044  11.028  0.2499 -1.1492 -2.9005
  136SAPE     P14704   2.049   3.282  11.062 -0.4780 -0.0428  0.4651
  136SAPE   O1314705   1.934   3.226  11.142  0.3178  0.2805  0.1192
  136SAPE   O1414706   2.092   3.420  11.102  0.7127 -0.2426  0.1081
  136SAPE   O1214707   2.170   3.183  11.082 -0.2683  0.2926  0.7643
  136SAPE   O1114708   2.018   3.270  10.906  0.0987  0.3197 -0.1427
  136SAPE    C114709   1.888   3.297  10.859 -0.3180 -0.2205  0.3456
  136SAPE    HA14710   1.810   3.233  10.907  0.5204 -2.7345 -1.4465
  136SAPE    HB14711   1.892   3.408  10.855  1.3357 -0.2983 -2.0008
  136SAPE    C214712   1.881   3.255  10.712  0.0030 -0.8398  0.6832
  136SAPE    HS14713   1.788   3.279  10.656  0.9389 -3.4127 -2.2903
  136SAPE   O2114714   1.890   3.113  10.700 -0.0166  0.3949 -0.0079
  136SAPE   C2114715   1.776   3.045  10.729  0.2830 -0.2337 -0.7123
  136SAPE   O2214716   1.664   3.092  10.751 -0.1093 -0.1607  0.2819
  136SAPE   C2214717   1.802   2.890  10.730 -0.1640 -0.8696  0.0975
  136SAPE   H2R14718   1.864   2.859  10.644 -0.1136  0.1746 -0.2572
  136SAPE   H2S14719   1.857   2.869  10.825  1.1485 -0.4151 -0.5400
  136SAPE    C314720   1.995   3.325  10.635 -0.0466 -0.9888 -0.6193
  136SAPE    HX14721   2.086   3.311  10.697 -1.0951  2.6742  2.1343
  136SAPE    HY14722   1.970   3.433  10.626 -0.1030 -0.8597  0.8279
  136SAPE   O3114723   2.006   3.276  10.498  0.3398 -0.3309 -0.9359
  136SAPE   C3114724   2.114   3.317  10.432  0.6182 -0.2902 -0.0893
  136SAPE   O3214725   2.205   3.385  10.474  0.3451  0.4762  0.3092
  136SAPE   C3214726   2.095   3.278  10.288  0.6698  0.4429 -0.0136
  136SAPE   H2X14727   2.041   3.351  10.225 -1.8870 -0.9963  0.3563
  136SAPE   H2Y14728   2.041   3.182  10.271  1.5391 -0.1922  0.7197
  136SAPE   C2314729   1.679   2.796  10.720  0.6370 -0.6430  0.2639
  136SAPE   H3R14730   1.622   2.838  10.634  1.9371  0.1144 -0.2526
  136SAPE   H3S14731   1.618   2.818  10.810 -1.5015 -0.1917 -1.1905
  136SAPE   C2414732   1.721   2.648  10.697 -0.0063 -0.3828  0.3519
  136SAPE   H4R14733   1.757   2.599  10.790 -0.7740 -2.2847 -0.3155
  136SAPE   H4S14734   1.804   2.639  10.623 -1.2860 -2.3262 -0.9269
  136SAPE   C2514735   1.605   2.567  10.641  0.0319 -0.1472 -0.1035
  136SAPE   H5R14736   1.516   2.567  10.705 -0.8441 -2.5487 -1.1855
  136SAPE   C2614737   1.607   2.503  10.521 -0.1432  0.3051 -0.8873
  136SAPE   H6R14738   1.515   2.451  10.490  0.1857 -0.2893 -0.8608
  136SAPE   C2714739   1.717   2.499  10.421 -0.2139  0.4876  0.4762
  136SAPE   H7R14740   1.818   2.527  10.456 -0.6356  2.7856  0.0598
  136SAPE   H7S14741   1.691   2.570  10.340  0.7057 -0.5134 -0.7216
  136SAPE   C2814742   1.722   2.358  10.358  0.6498 -0.2422  0.2973
  136SAPE   H8R14743   1.697   2.278  10.429  0.2670  0.2466  0.7184
  136SAPE   C2914744   1.758   2.327  10.233  0.2301  0.4644  0.2282
  136SAPE   H9R14745   1.753   2.222  10.204  0.3187  0.9868 -1.7980
  136SAPE  C21014746   1.804   2.412  10.119 -0.0993  0.6711 -0.1563
  136SAPE  H10R14747   1.898   2.373  10.075  0.8862  2.8623 -0.1359
  136SAPE  H10S14748   1.841   2.510  10.155 -0.6423  1.0473 -0.5908
  136SAPE  C21114749   1.681   2.431  10.026  0.0297  0.1643  0.0662
  136SAPE  H11R14750   1.593   2.431  10.092  1.1723 -2.5058  1.8133
  136SAPE  C21214751   1.678   2.433   9.892 -0.8361 -0.5808 -0.0912
  136SAPE  H12R14752   1.579   2.452   9.847  0.2751  2.5944 -1.5300
  136SAPE  C21314753   1.793   2.413   9.792 -0.4851 -0.6819  0.5063
  136SAPE  H13R14754   1.764   2.343   9.712  4.1625 -2.0230 -0.3331
  136SAPE  H13S14755   1.878   2.359   9.841 -0.0105 -0.7465 -0.3744
  136SAPE  C21414756   1.849   2.540   9.726 -0.3735  0.6166  0.3273
  136SAPE  H14R14757   1.866   2.623   9.796 -0.4935  1.4553 -0.6141
  136SAPE  C21514758   1.887   2.569   9.600  0.8550  0.2092  0.0159
  136SAPE  H15R14759   1.912   2.671   9.566  0.7943  0.4180  0.5846
  136SAPE  C21614760   1.865   2.474   9.483  0.2126 -0.2749  0.0791
  136SAPE  H16R14761   1.767   2.487   9.432 -0.0345  0.1044  0.6404
  136SAPE  H16S14762   1.864   2.371   9.524 -0.6208  0.0282  0.8547
  136SAPE  C21714763   1.983   2.467   9.378 -0.1945  0.7014  0.0603
  136SAPE  H17R14764   2.079   2.481   9.432 -0.4006  0.5329  0.4693
  136SAPE  H17S14765   1.979   2.555   9.311 -0.6230  0.9497  0.4034
  136SAPE  C21814766   1.997   2.335   9.301  0.3261 -0.2323 -0.0977
  136SAPE  H18R14767   1.981   2.246   9.366  2.4372 -1.1377 -0.7459
  136SAPE  H18S14768   2.097   2.331   9.253  0.3408  1.1280 -0.2387
  136SAPE  C21914769   1.890   2.325   9.191  0.0082 -0.6961  0.6164
  136SAPE  H19R14770   1.902   2.421   9.136 -0.2394 -0.6649  0.6141
  136SAPE  H19S14771   1.792   2.327   9.243  0.2454  1.3449  1.1028
  136SAPE  C22014772   1.897   2.213   9.088 -0.5317 -0.0008 -0.3871
  136SAPE  H20R14773   1.975   2.246   9.015 -0.2210  0.6214  0.2136
  136SAPE  H20S14774   1.799   2.201   9.037 -1.5059  1.3557  1.0737
  136SAPE  H20T14775   1.932   2.115   9.126 -0.7154 -0.1718 -0.6523
  136SAPE   C3314776   2.228   3.249  10.207 -0.5303  0.0881  0.5968
  136SAPE   H3X14777   2.282   3.172  10.266  0.8586  0.3667 -0.2768
  136SAPE   H3Y14778   2.275   3.349  10.215 -2.9391  1.1295  3.3020
  136SAPE   C3414779   2.216   3.207  10.060  0.3799  0.1298  0.3006
  136SAPE   H4X14780   2.115   3.232  10.022  0.1180  0.6695  1.3229
  136SAPE   H4Y14781   2.209   3.097  10.068 -0.0708  0.3211  3.6394
  136SAPE   C3514782   2.331   3.239   9.971  0.4774  0.2745  0.3472
  136SAPE   H5X14783   2.430   3.213  10.014 -0.2821 -2.5791  0.6228
  136SAPE   H5Y14784   2.352   3.347   9.961  2.8312 -0.1259  0.5024
  136SAPE   C3614785   2.325   3.170   9.837  0.6407 -0.4199 -0.2816
  136SAPE   H6X14786   2.221   3.185   9.800  0.6630  0.4402 -0.0084
  136SAPE   H6Y14787   2.342   3.060   9.844  1.7293 -0.1694  1.5054
  136SAPE   C3714788   2.426   3.233   9.735  0.4872  0.1561 -0.0174
  136SAPE   H7X14789   2.526   3.228   9.783  0.2735 -1.0431  0.3288
  136SAPE   H7Y14790   2.399   3.335   9.699 -0.5446 -0.2338 -0.4024
  136SAPE   C3814791   2.439   3.151   9.608  0.3794 -0.2372  0.1644
  136SAPE   H8X14792   2.340   3.137   9.560  1.0802  1.2256 -1.8204
  136SAPE   H8Y14793   2.476   3.049   9.628 -0.9402 -1.3633 -2.6434
  136SAPE   C3914794   2.522   3.213   9.495 -0.4432 -0.2886  0.3912
  136SAPE   H9X14795   2.629   3.220   9.525  0.0796 -0.5125 -1.3505
  136SAPE   H9Y14796   2.490   3.318   9.482  0.5623 -0.1597 -1.3045
  136SAPE  C31014797   2.521   3.132   9.363 -0.2060  0.5714  0.1495
  136SAPE  H10X14798   2.417   3.102   9.337  0.0743  1.2054 -1.9052
  136SAPE  H10Y14799   2.576   3.036   9.377 -0.3039  0.5272  0.2302
  136SAPE  C31114800   2.587   3.219   9.254  0.1529 -0.6906 -0.2320
  136SAPE  H11X14801   2.694   3.241   9.272  0.2268 -0.0913 -1.3353
  136SAPE  H11Y14802   2.539   3.319   9.262 -0.2644 -0.8809 -0.2869
  136SAPE  C31214803   2.570   3.164   9.111 -0.3880  0.4790  0.4005
  136SAPE  H12X14804   2.543   3.057   9.128 -1.8569  0.6438 -0.7265
  136SAPE  H12Y14805   2.658   3.179   9.044 -2.0183 -0.9150 -2.2272
  136SAPE  C31314806   2.457   3.229   9.031  0.4901 -0.1137 -0.5106
  136SAPE  H13X14807   2.471   3.334   8.998 -4.2639  1.5801  1.8936
  136SAPE  H13Y14808   2.371   3.243   9.101  1.3574  0.2211  0.5179
  136SAPE  C31414809   2.433   3.145   8.905  0.1558 -0.4860  0.3344
  136SAPE  H14X14810   2.431   3.040   8.940  0.7578 -0.1245  1.5054
  136SAPE  H14Y14811   2.522   3.155   8.840 -1.2231 -0.6744 -1.7006
  136SAPE  C31514812   2.307   3.182   8.821  0.0580 -0.0068 -0.3076
  136SAPE  H15X14813   2.297   3.290   8.799  0.7435 -0.0401 -0.8182
  136SAPE  H15Y14814   2.221   3.145   8.880  1.1673 -1.3815  0.5255
  136SAPE  C31614815   2.293   3.104   8.685 -0.0557  0.0585 -0.1648
  136SAPE  H16X14816   2.359   3.144   8.606 -1.5623 -0.3073 -1.6596
  136SAPE  H16Y14817   2.191   3.117   8.642 -0.5601 -0.1074  0.9310
  136SAPE  C31714818   2.318   2.957   8.697 -0.4773  0.6591 -0.0512
  136SAPE  H17X14819   2.418   2.933   8.739 -0.9965  2.6380  2.5851
  136SAPE  H17Y14820   2.304   2.896   8.605  1.4641 -1.6929  1.0854
  136SAPE  C31814821   2.213   2.891   8.787 -0.0587 -0.2514 -0.4181
  136SAPE  H18X14822   2.108   2.924   8.772  0.0896  1.7365  2.2616
  136SAPE  H18Y14823   2.245   2.921   8.889  0.6456  0.3545 -0.8058
  136SAPE  H18Z14824   2.236   2.783   8.779  1.9727 -0.0805  2.0789
  137SAPE     N14825   3.335   5.404  11.019 -0.5436 -0.4498  0.3958
  137SAPE   HN114826   3.434   5.382  10.996 -0.4683  0.3877 -0.1214
  137SAPE   HN214827   3.339   5.469  11.099 -0.4585  0.9136 -0.6837
  137SAPE   HN314828   3.283   5.316  11.041  0.4992 -1.1304  0.1838
  137SAPE   C1214829   3.272   5.470  10.897  0.1812 -0.5115 -0.8182
  137SAPE  H12A14830   3.162   5.481  10.908 -0.0654 -1.5408 -1.9885
  137SAPE  H12B14831   3.296   5.404  10.810 -2.2510  0.0650 -2.0018
  137SAPE   C1114832   3.343   5.612  10.868  0.0970 -0.0180 -0.3269
  137SAPE  H11A14833   3.285   5.658  10.786 -0.9117  0.5804  0.6903
  137SAPE  H11B14834   3.444   5.590  10.829 -0.0113 -0.8210 -0.1744
  137SAPE     P14835   3.233   5.768  11.046 -0.1265  0.3373  0.0970
  137SAPE   O1314836   3.144   5.669  11.097 -0.3229  0.3795 -0.3477
  137SAPE   O1414837   3.291   5.866  11.145 -0.9747  1.0625  0.4973
  137SAPE   O1214838   3.357   5.699  10.982  0.0112  0.2287 -0.2100
  137SAPE   O1114839   3.159   5.846  10.932 -0.3030  0.3443 -0.3966
  137SAPE    C114840   3.212   5.945  10.848  0.2437  0.1908 -0.7344
  137SAPE    HA14841   3.239   6.033  10.910  1.7942 -0.0584 -1.0113
  137SAPE    HB14842   3.304   5.912  10.796 -0.8361 -0.5868 -2.2612
  137SAPE    C214843   3.107   5.979  10.741  0.4194 -0.7525 -0.8449
  137SAPE    HS14844   3.014   6.012  10.791 -0.1050 -2.3551 -0.6860
  137SAPE   O2114845   3.086   5.856  10.672  0.4892 -0.0529 -0.4973
  137SAPE   C2114846   2.966   5.842  10.601  0.4060 -0.0997 -0.1614
  137SAPE   O2214847   2.865   5.907  10.620  0.1712 -0.5887 -0.6453
  137SAPE   C2214848   2.982   5.735  10.496  0.8550  0.2939 -0.5119
  137SAPE   H2R14849   2.889   5.743  10.436 -0.6865  2.9287  1.9959
  137SAPE   H2S14850   3.067   5.766  10.432  0.7074  0.4122 -0.6509
  137SAPE    C314851   3.163   6.090  10.650  0.5322  0.9969 -0.1064
  137SAPE    HX14852   3.265   6.053  10.627  0.5137  0.2422  0.9250
  137SAPE    HY14853   3.171   6.186  10.705 -1.3976  0.6956  0.7988
  137SAPE   O3114854   3.090   6.094  10.526  0.4044  0.2227  0.0837
  137SAPE   C3114855   2.986   6.182  10.517  0.2938 -0.2954 -0.5965
  137SAPE   O3214856   2.939   6.244  10.609  0.3617  0.0402 -1.2257
  137SAPE   C3214857   2.930   6.177  10.375 -0.6657  0.3286  0.8386
  137SAPE   H2X14858   2.872   6.082  10.371 -2.5892  1.3655  2.5328
  137SAPE   H2Y14859   3.022   6.181  10.313 -1.7324  5.4954 -0.8274
  137SAPE   C2314860   2.997   5.592  10.551  0.2033 -0.4382 -0.3448
  137SAPE   H3R14861   2.906   5.557  10.604  1.3071 -2.6545  0.1821
  137SAPE   H3S14862   3.071   5.601  10.634 -2.2360 -0.9826  2.0130
  137SAPE   C2414863   3.048   5.482  10.455 -0.2158 -0.1566  0.1606
  137SAPE   H4R14864   3.058   5.387  10.511 -1.6638 -0.4794 -0.0735
  137SAPE   H4S14865   3.153   5.497  10.422  0.2544 -1.6267  0.9202
  137SAPE   C2514866   2.952   5.453  10.347 -0.1750 -0.1655  0.1947
  137SAPE   H5R14867   2.864   5.393  10.374  0.6090 -3.0241 -2.9454
  137SAPE   C2614868   2.965   5.503  10.226 -0.0989  0.7079  0.1452
  137SAPE   H6R14869   2.888   5.476  10.152  1.1156  1.0476 -1.2960
  137SAPE   C2714870   3.072   5.592  10.168  0.2146 -0.1123  0.4511
  137SAPE   H7R14871   3.139   5.533  10.102 -0.3876  0.1895 -0.4581
  137SAPE   H7S14872   3.137   5.643  10.243 -0.3623  0.5390  0.5224
  137SAPE   C2814873   3.008   5.701  10.081  0.4477  0.2671  0.3872
  137SAPE   H8R14874   2.950   5.776  10.137 -2.0774 -0.1896 -1.4043
  137SAPE   C2914875   2.994   5.693   9.944  0.3934 -0.1020  0.1768
  137SAPE   H9R14876   2.929   5.768   9.896  1.7755  0.5266 -0.7759
  137SAPE  C21014877   3.040   5.578   9.860 -0.0847 -0.0442  0.3110
  137SAPE  H10R14878   2.968   5.574   9.776 -0.4524  0.1319  0.6137
  137SAPE  H10S14879   3.047   5.478   9.909  1.4361 -0.4502 -0.6615
  137SAPE  C21114880   3.183   5.596   9.805  0.4196  0.2358  0.8921
  137SAPE  H11R14881   3.259   5.593   9.884 -0.2235  0.1304  1.5174
  137SAPE  C21214882   3.219   5.629   9.679 -0.4873  0.1583 -0.0662
  137SAPE  H12R14883   3.323   5.651   9.650 -1.5636  0.9062 -3.8577
  137SAPE  C21314884   3.138   5.652   9.552 -0.1602  0.1186 -0.4030
  137SAPE  H13R14885   3.115   5.760   9.569  0.5081  0.5265 -1.8810
  137SAPE  H13S14886   3.049   5.586   9.551  1.3825 -2.3169  3.1594
  137SAPE  C21414887   3.213   5.635   9.425 -0.0749 -0.4864  0.0447
  137SAPE  H14R14888   3.293   5.561   9.438 -0.7822 -0.9218  2.4447
  137SAPE  C21514889   3.183   5.684   9.306  0.3268 -0.2904  0.5640
  137SAPE  H15R14890   3.262   5.678   9.230  0.9247 -0.1560  1.1703
  137SAPE  C21614891   3.071   5.772   9.270 -0.0811 -0.9243 -0.2367
  137SAPE  H16R14892   3.090   5.880   9.253 -1.5484 -0.8384 -1.6835
  137SAPE  H16S14893   3.004   5.766   9.358  1.1890 -1.6874  0.7074
  137SAPE  C21714894   2.990   5.708   9.149 -0.3293  0.0432 -0.3547
  137SAPE  H17R14895   2.966   5.607   9.186  0.2586  0.1484  0.3527
  137SAPE  H17S14896   3.060   5.695   9.064  1.8125 -0.2217  1.3331
  137SAPE  C21814897   2.863   5.781   9.111  0.3312  0.1956 -0.4269
  137SAPE  H18R14898   2.890   5.882   9.073  1.1832  0.1477  0.0414
  137SAPE  H18S14899   2.792   5.798   9.195 -0.7414 -2.2057 -0.7507
  137SAPE  C21914900   2.784   5.713   8.997 -0.2820 -0.5971  0.0139
  137SAPE  H19R14901   2.726   5.625   9.031 -1.0557 -0.6722 -1.3906
  137SAPE  H19S14902   2.853   5.673   8.920  0.3823  1.8324 -0.7655
  137SAPE  C22014903   2.686   5.805   8.929  0.3580 -0.9304 -0.6453
  137SAPE  H20R14904   2.748   5.891   8.896  0.7844 -1.5841 -1.5782
  137SAPE  H20S14905   2.607   5.830   9.003 -0.9433 -3.2460 -1.1610
  137SAPE  H20T14906   2.642   5.756   8.840 -2.1122 -1.8838  0.9930
  137SAPE   C3314907   2.843   6.301  10.339  0.4056 -0.1510  0.0964
  137SAPE   H3X14908   2.899   6.397  10.337  0.2148 -0.0421 -0.1328
  137SAPE   H3Y14909   2.768   6.310  10.421  1.2290 -0.3877  0.8948
  137SAPE   C3414910   2.771   6.264  10.205 -0.1116 -0.7721 -0.3520
  137SAPE   H4X14911   2.692   6.340  10.189  1.1000  1.1565  2.1499
  137SAPE   H4Y14912   2.717   6.169  10.229 -0.9015 -0.6897 -1.6988
  137SAPE   C3514913   2.843   6.269  10.073  0.4881 -0.1486  0.0724
  137SAPE   H5X14914   2.936   6.209  10.076 -0.7297 -2.2158 -0.9971
  137SAPE   H5Y14915   2.857   6.375  10.042 -1.1076 -0.2286 -1.0705
  137SAPE   C3614916   2.738   6.209   9.966  0.0176 -0.8190  0.2026
  137SAPE   H6X14917   2.649   6.276   9.966  0.8978  0.5435  3.0805
  137SAPE   H6Y14918   2.714   6.105   9.996  1.2745 -1.7863 -1.9912
  137SAPE   C3714919   2.784   6.210   9.817 -0.0975 -0.0796 -0.0507
  137SAPE   H7X14920   2.837   6.304   9.794  2.0235 -1.1629  0.1913
  137SAPE   H7Y14921   2.696   6.193   9.751 -0.3140  1.0454 -0.0627
  137SAPE   C3814922   2.888   6.098   9.783 -0.5116 -0.0380 -0.3416
  137SAPE   H8X14923   2.842   5.997   9.791 -0.2533 -0.0579  1.1199
  137SAPE   H8Y14924   2.972   6.113   9.854 -0.3683  2.1972 -0.9247
  137SAPE   C3914925   2.963   6.103   9.652 -0.0417 -0.1000  0.1146
  137SAPE   H9X14926   3.031   6.016   9.648  0.1095  0.0370 -3.1358
  137SAPE   H9Y14927   3.028   6.193   9.645 -0.5688  0.2481 -0.3910
  137SAPE  C31014928   2.869   6.095   9.533  0.4094  0.2816 -0.2900
  137SAPE  H10X14929   2.805   6.183   9.515  0.5366  0.8176  1.5831
  137SAPE  H10Y14930   2.804   6.009   9.561  0.7004  0.3725  0.7052
  137SAPE  C31114931   2.936   6.062   9.396 -0.6263 -0.0038 -0.1615
  137SAPE  H11X14932   2.861   6.055   9.314  0.1802 -2.0015 -0.7777
  137SAPE  H11Y14933   2.979   5.961   9.405  0.9515  0.7527  1.2311
  137SAPE  C31214934   3.052   6.160   9.362  0.0338 -1.1721  0.7136
  137SAPE  H12X14935   3.137   6.156   9.433  0.8734 -1.3689 -0.2720
  137SAPE  H12Y14936   3.004   6.258   9.383  0.9586 -0.8424  1.3410
  137SAPE  C31314937   3.095   6.165   9.219 -0.1584 -0.1324  0.6718
  137SAPE  H13X14938   3.147   6.071   9.191  0.3978  0.2709  0.3451
  137SAPE  H13Y14939   3.175   6.242   9.219 -0.4731  0.2289  2.6458
  137SAPE  C31414940   2.986   6.197   9.118 -0.2733 -0.1790  0.1532
  137SAPE  H14X14941   2.915   6.262   9.174 -0.5031 -1.0196  0.8444
  137SAPE  H14Y14942   2.944   6.098   9.094 -3.1720  0.9580  0.1774
  137SAPE  C31514943   3.042   6.267   8.991  0.0629  0.1041  0.5610
  137SAPE  H15X14944   3.104   6.356   9.019  0.0465 -0.3227  2.0658
  137SAPE  H15Y14945   2.952   6.306   8.939 -0.6123 -1.8141  0.2165
  137SAPE  C31614946   3.117   6.181   8.889  0.0556 -0.3896 -0.8289
  137SAPE  H16X14947   3.043   6.102   8.862 -1.0373  0.7616 -1.3201
  137SAPE  H16Y14948   3.200   6.133   8.943 -0.6848  1.6381  2.4146
  137SAPE  C31714949   3.147   6.235   8.749 -0.0116 -0.2721  0.2717
  137SAPE  H17X14950   3.227   6.309   8.767 -0.5842  1.0392 -2.1382
  137SAPE  H17Y14951   3.056   6.282   8.705 -1.1756 -1.3368  1.4149
  137SAPE  C31814952   3.199   6.141   8.640 -0.1892 -1.0474  0.6677
  137SAPE  H18X14953   3.276   6.067   8.670  0.7411  0.2395  1.5218
  137SAPE  H18Y14954   3.243   6.194   8.553  1.3370 -0.0512  2.0148
  137SAPE  H18Z14955   3.117   6.085   8.590  0.3462 -2.6365  1.4877
  138SAPE     N14956   3.157   0.409  10.845 -0.0888  0.3622 -0.0660
  138SAPE   HN114957   3.230   0.339  10.819 -1.2467 -0.3939 -1.3971
  138SAPE   HN214958   3.118   0.443  10.755 -1.0814 -0.6015 -0.0143
  138SAPE   HN314959   3.201   0.495  10.885  0.0871 -0.2573  1.1190
  138SAPE   C1214960   3.057   0.344  10.940  0.6240  0.3596  0.4098
  138SAPE  H12A14961   2.974   0.418  10.941 -0.2961 -0.5826 -1.2860
  138SAPE  H12B14962   3.109   0.327  11.037 -0.8238 -1.2949  0.9685
  138SAPE   C1114963   2.990   0.224  10.877 -0.6871  0.3998 -0.3749
  138SAPE  H11A14964   2.920   0.258  10.798 -3.2037 -0.6508  1.2938
  138SAPE  H11B14965   2.926   0.193  10.962 -0.8826  1.0693 -0.2737
  138SAPE     P14966   3.163   0.015  10.892 -0.3721 -0.0428  0.3852
  138SAPE   O1314967   3.268   0.084  10.961  0.2757 -0.2359  0.0822
  138SAPE   O1414968   3.074  -0.061  10.983  0.3772 -0.0250  0.2112
  138SAPE   O1214969   3.075   0.121  10.818 -0.0777  0.1532  0.3633
  138SAPE   O1114970   3.216  -0.076  10.780  0.3812 -0.0925  0.0346
  138SAPE    C114971   3.312  -0.025  10.690  0.3649 -0.5642 -0.3329
  138SAPE    HA14972   3.381   0.042  10.744  0.1017  0.6587 -1.4519
  138SAPE    HB14973   3.369  -0.115  10.657  0.7709  0.1276 -1.6136
  138SAPE    C214974   3.258   0.047  10.563  0.6218 -0.4492 -0.4847
  138SAPE    HS14975   3.205   0.134  10.607  0.6394 -1.3107  1.3647
  138SAPE   O2114976   3.171  -0.044  10.503 -0.4899 -0.3852 -0.6094
  138SAPE   C2114977   3.042  -0.005  10.478  0.4525  0.9347  0.2632
  138SAPE   O2214978   2.989   0.097  10.516 -0.0161 -0.1514 -0.0988
  138SAPE   C2214979   2.964  -0.100  10.388  0.1303  0.7540 -0.3886
  138SAPE   H2R14980   3.028  -0.164  10.323 -1.0888  1.6092 -2.5215
  138SAPE   H2S14981   2.905  -0.155  10.465  0.4754  1.7479  0.6229
  138SAPE    C314982   3.362   0.094  10.465  0.2494 -0.4366  0.7885
  138SAPE    HX14983   3.412   0.004  10.425  2.6765  0.5092  1.5262
  138SAPE    HY14984   3.438   0.157  10.517  0.8116  0.7941 -1.3974
  138SAPE   O3114985   3.299   0.161  10.353  0.1702 -0.6491 -0.1507
  138SAPE   C3114986   3.392   0.204  10.261  0.2462  0.4179  0.2676
  138SAPE   O3214987   3.512   0.191  10.273 -0.1673 -0.1989 -0.4155
  138SAPE   C3214988   3.320   0.281  10.154  0.3201 -0.1511  0.1747
  138SAPE   H2X14989   3.320   0.388  10.186  0.9922  0.1748 -0.8829
  138SAPE   H2Y14990   3.219   0.237  10.138  0.7705 -2.2072  2.4642
  138SAPE   C2314991   2.863  -0.018  10.297 -0.1717  0.0750 -0.6354
  138SAPE   H3R14992   2.919   0.062  10.244 -0.5877  0.4940 -0.4497
  138SAPE   H3S14993   2.781   0.028  10.356 -1.0231 -0.0283 -1.7082
  138SAPE   C2414994   2.793  -0.115  10.194 -0.1151 -0.1801  0.2148
  138SAPE   H4R14995   2.759  -0.200  10.257  1.8815 -0.2306  1.3160
  138SAPE   H4S14996   2.872  -0.150  10.123 -0.3640 -1.2005  0.4223
  138SAPE   C2514997   2.675  -0.044  10.122  0.1295  0.0114  0.4208
  138SAPE   H5R14998   2.591  -0.019  10.189 -3.0588 -0.8981 -2.9185
  138SAPE   C2614999   2.647  -0.029   9.991 -0.1141 -0.5546 -0.1237
  138SAPE   H6R15000   2.549   0.008   9.958 -0.3507 -0.3363  0.7891
  138SAPE   C2715001   2.749  -0.072   9.892 -0.5978 -0.4624  0.3972
  138SAPE   H7R15002   2.851  -0.088   9.933 -0.5879  0.5530  0.8074
  138SAPE   H7S15003   2.752   0.010   9.816 -0.4420 -0.8344  0.0013
  138SAPE   C2815004   2.712  -0.198   9.826 -0.1761  0.1011  0.1861
  138SAPE   H8R15005   2.720  -0.285   9.892  2.1020 -1.3161 -1.8113
  138SAPE   C2915006   2.683  -0.227   9.703  0.6683 -0.5153 -0.0689
  138SAPE   H9R15007   2.665  -0.334   9.685 -0.7591 -0.4179  0.6312
  138SAPE  C21015008   2.663  -0.133   9.589 -0.8663 -0.3541  0.2477
  138SAPE  H10R15009   2.756  -0.071   9.588 -0.3517 -1.0369  2.0432
  138SAPE  H10S15010   2.581  -0.061   9.602 -0.5175  0.3632 -1.3026
  138SAPE  C21115011   2.657  -0.191   9.448  0.0679 -0.4775 -0.1079
  138SAPE  H11R15012   2.674  -0.300   9.446 -1.0017 -0.6457 -1.8182
  138SAPE  C21215013   2.675  -0.119   9.331  0.1358 -0.1754 -0.9453
  138SAPE  H12R15014   2.699  -0.169   9.236  0.6071  1.4237 -1.7095
  138SAPE  C21315015   2.692   0.031   9.325  0.1533  0.6470  0.3117
  138SAPE  H13R15016   2.799   0.057   9.338  1.3144 -1.8497 -2.9096
  138SAPE  H13S15017   2.639   0.084   9.407  0.3234  0.2098  0.7073
  138SAPE  C21415018   2.653   0.084   9.191  0.9478 -0.4557  0.4506
  138SAPE  H14R15019   2.550   0.124   9.189  0.4424 -1.7490  0.0472
  138SAPE  C21515020   2.720   0.091   9.075  0.4465  0.1345 -0.1768
  138SAPE  H15R15021   2.664   0.126   8.987 -0.7039  1.4739  1.0312
  138SAPE  C21615022   2.864   0.037   9.048 -0.0299 -0.2895 -0.5971
  138SAPE  H16R15023   2.905  -0.012   9.139  0.4717 -2.1472 -1.7699
  138SAPE  H16S15024   2.929   0.126   9.037 -2.0364  1.1197 -1.5247
  138SAPE  C21715025   2.865  -0.061   8.931  0.6456 -0.5583 -0.3810
  138SAPE  H17R15026   2.858  -0.005   8.835  0.2254 -0.7898 -0.4872
  138SAPE  H17S15027   2.777  -0.127   8.943 -0.0829  0.3362 -0.6361
  138SAPE  C21815028   2.990  -0.145   8.935  0.0556  0.2219  0.7922
  138SAPE  H18R15029   2.990  -0.210   9.025  2.1667 -1.6848 -0.4730
  138SAPE  H18S15030   3.080  -0.081   8.947 -0.0600  0.7278 -0.7108
  138SAPE  C21915031   3.025  -0.213   8.800 -0.4751 -0.1658 -0.4420
  138SAPE  H19R15032   2.946  -0.286   8.774 -0.2743 -0.7024  0.3759
  138SAPE  H19S15033   3.114  -0.278   8.818  1.9836  2.7878 -1.0372
  138SAPE  C22015034   3.064  -0.128   8.683  0.4345 -0.0668  0.2292
  138SAPE  H20R15035   3.104  -0.196   8.604  1.3892 -0.4917  1.0526
  138SAPE  H20S15036   3.149  -0.060   8.701  0.8046 -0.1671 -1.0136
  138SAPE  H20T15037   2.977  -0.073   8.641 -0.3248 -0.6986  0.9316
  138SAPE   C3315038   3.401   0.274  10.019 -0.0750 -0.4086 -0.1437
  138SAPE   H3X15039   3.414   0.176   9.968  0.8538 -0.7214  0.6636
  138SAPE   H3Y15040   3.501   0.317  10.045 -0.1070 -0.5259  0.1767
  138SAPE   C3415041   3.339   0.364   9.901 -0.1907  0.2492  0.0257
  138SAPE   H4X15042   3.318   0.460   9.953  0.3774 -0.5721  1.8898
  138SAPE   H4Y15043   3.248   0.310   9.866  1.2139 -1.4394 -1.1978
  138SAPE   C3515044   3.439   0.371   9.787 -0.2209  0.8536  0.8410
  138SAPE   H5X15045   3.464   0.269   9.751 -1.0800  1.0295 -0.3156
  138SAPE   H5Y15046   3.533   0.418   9.822  0.5969  0.3502 -0.5761
  138SAPE   C3615047   3.372   0.449   9.665 -0.3090 -0.2533  0.1801
  138SAPE   H6X15048   3.354   0.551   9.703 -1.3848 -0.6700  0.8412
  138SAPE   H6Y15049   3.270   0.412   9.642 -0.5587  1.1627 -1.1320
  138SAPE   C3715050   3.450   0.440   9.530  0.3261 -0.0935 -0.2186
  138SAPE   H7X15051   3.477   0.338   9.494  0.1966 -1.1735  2.4741
  138SAPE   H7Y15052   3.552   0.482   9.542  1.6826 -2.5898 -2.0312
  138SAPE   C3815053   3.367   0.516   9.424  0.1690  0.1181  0.1110
  138SAPE   H8X15054   3.338   0.620   9.450 -1.2396  0.0939 -1.1698
  138SAPE   H8Y15055   3.265   0.475   9.407 -0.6982  2.1757 -0.0023
  138SAPE   C3915056   3.441   0.532   9.289  0.5660  0.0180  0.1985
  138SAPE   H9X15057   3.376   0.547   9.200 -2.8475 -0.8675  2.3301
  138SAPE   H9Y15058   3.485   0.433   9.267 -0.9034 -0.4931 -0.5322
  138SAPE  C31015059   3.557   0.639   9.280  0.2372  0.6046  0.2685
  138SAPE  H10X15060   3.610   0.643   9.377  0.1370  0.3490  0.3327
  138SAPE  H10Y15061   3.495   0.730   9.270  0.4850  0.5541 -2.4973
  138SAPE  C31115062   3.655   0.627   9.160  0.3820  0.4350  0.2270
  138SAPE  H11X15063   3.694   0.523   9.167 -0.3109 -0.1438 -2.8825
  138SAPE  H11Y15064   3.741   0.696   9.175 -0.0660  0.7381  1.5188
  138SAPE  C31215065   3.584   0.664   9.027 -0.6269  0.4130  0.1843
  138SAPE  H12X15066   3.533   0.761   9.046  0.4260  0.8320  0.9866
  138SAPE  H12Y15067   3.510   0.583   9.010 -1.7087  1.3762  0.2185
  138SAPE  C31315068   3.685   0.682   8.911 -0.4015  0.3846 -0.9509
  138SAPE  H13X15069   3.615   0.646   8.833 -0.6466  0.3988 -0.7401
  138SAPE  H13Y15070   3.774   0.616   8.919 -1.8279 -1.4517  0.4318
  138SAPE  C31415071   3.734   0.824   8.900 -0.3100 -0.4070 -0.3132
  138SAPE  H14X15072   3.799   0.839   8.988 -1.4059 -1.2202  0.6735
  138SAPE  H14Y15073   3.643   0.888   8.908  1.5103  2.1831  1.1522
  138SAPE  C31515074   3.807   0.842   8.768  0.3988 -1.0828 -0.2111
  138SAPE  H15X15075   3.736   0.822   8.684 -2.4820  2.1148  1.2068
  138SAPE  H15Y15076   3.895   0.775   8.758  0.9579 -0.6439  1.4705
  138SAPE  C31615077   3.860   0.981   8.744  0.2470  0.0504 -0.0841
  138SAPE  H16X15078   3.949   1.008   8.805  0.8046  0.2158 -0.9621
  138SAPE  H16Y15079   3.776   1.054   8.752 -1.1097 -1.1099 -2.5693
  138SAPE  C31715080   3.902   0.985   8.593  0.1072  0.5431  0.4379
  138SAPE  H17X15081   3.809   0.964   8.536 -1.2283  1.2647  2.2355
  138SAPE  H17Y15082   3.959   0.892   8.571  2.0112  1.9354 -0.7673
  138SAPE  C31815083   3.972   1.111   8.542  0.2402 -0.1888 -0.3967
  138SAPE  H18X15084   4.063   1.119   8.605 -1.3498 -0.6479  2.1042
  138SAPE  H18Y15085   3.923   1.206   8.572  1.4575 -0.7042  4.0900
  138SAPE  H18Z15086   4.002   1.104   8.435  0.8667  1.8942 -0.3887
  139SAPE     N15087   1.393   5.242  10.769 -0.0679  0.0086  0.7947
  139SAPE   HN115088   1.400   5.231  10.666 -1.8307  0.1105  0.6313
  139SAPE   HN215089   1.434   5.161  10.820 -3.4098 -1.6170  1.2066
  139SAPE   HN315090   1.293   5.228  10.794 -0.6745 -1.2741 -1.9684
  139SAPE   C1215091   1.441   5.373  10.808 -0.3754  0.0700  0.0957
  139SAPE  H12A15092   1.552   5.374  10.812 -0.3542 -0.5597 -0.3016
  139SAPE  H12B15093   1.406   5.401  10.910 -0.7471  1.5678 -0.4029
  139SAPE   C1115094   1.375   5.486  10.724  0.1714  0.2658 -0.6905
  139SAPE  H11A15095   1.410   5.484  10.618 -2.0254  0.2651 -1.4746
  139SAPE  H11B15096   1.413   5.580  10.770  0.5163  0.3710 -1.1790
  139SAPE     P15097   1.138   5.457  10.610  0.1345 -0.4857 -0.3758
  139SAPE   O1315098   1.176   5.325  10.561 -0.3390 -0.6130  0.0010
  139SAPE   O1415099   1.000   5.484  10.647  0.8367 -0.1823  0.8094
  139SAPE   O1215100   1.226   5.489  10.738  0.2534  0.5544 -0.2622
  139SAPE   O1115101   1.182   5.560  10.502 -0.3536 -0.0733 -0.0726
  139SAPE    C115102   1.167   5.706  10.519  0.2000  0.8266 -0.5102
  139SAPE    HA15103   1.060   5.733  10.525  0.1708  0.5044  0.9799
  139SAPE    HB15104   1.214   5.734  10.616 -0.1028  1.0669 -0.4310
  139SAPE    C215105   1.245   5.791  10.421  0.1057  0.2998  0.1412
  139SAPE    HS15106   1.256   5.892  10.466 -1.8115  1.0495 -0.9477
  139SAPE   O2115107   1.184   5.802  10.290 -0.3251  0.7141 -0.1710
  139SAPE   C2115108   1.088   5.883  10.286 -0.4032 -0.5399 -0.2924
  139SAPE   O2215109   1.036   5.940  10.381 -0.1515  1.0185 -0.3135
  139SAPE   C2215110   1.027   5.883  10.152 -0.5999 -0.2109  0.3270
  139SAPE   H2R15111   1.086   5.812  10.091 -0.3102 -1.2419  1.7575
  139SAPE   H2S15112   0.920   5.854  10.158 -0.3630 -1.7265 -1.7223
  139SAPE    C315113   1.389   5.730  10.408 -0.4104  0.3522 -0.0716
  139SAPE    HX15114   1.382   5.620  10.389  1.6010 -0.0618  1.2968
  139SAPE    HY15115   1.446   5.747  10.501  0.5222 -0.1687 -0.5345
  139SAPE   O3115116   1.457   5.795  10.299 -0.0860  0.3984 -0.4736
  139SAPE   C3115117   1.563   5.880  10.325  0.6657  0.4138  0.2939
  139SAPE   O3215118   1.601   5.925  10.432  0.0910 -0.8508 -0.5420
  139SAPE   C3215119   1.644   5.907  10.195 -0.4288 -0.1593  0.7587
  139SAPE   H2X15120   1.690   5.813  10.159 -0.2737  0.7483 -1.5395
  139SAPE   H2Y15121   1.725   5.982  10.213  0.2231 -0.8041  0.5686
  139SAPE   C2315122   1.043   6.021  10.084  0.8453  0.6298  0.3355
  139SAPE   H3R15123   1.029   6.100  10.160  0.3168 -0.6432  1.6202
  139SAPE   H3S15124   0.970   6.026  10.000 -0.5281  1.5897  1.5347
  139SAPE   C2415125   1.176   6.043  10.012 -0.0764  0.2878  0.0681
  139SAPE   H4R15126   1.177   5.965   9.933 -2.1655 -0.9617  1.1966
  139SAPE   H4S15127   1.255   6.021  10.087 -0.3640  1.1366  0.6403
  139SAPE   C2515128   1.192   6.189   9.969  0.4109  0.6889  0.1135
  139SAPE   H5R15129   1.212   6.259  10.051 -0.3342  1.3199 -0.2361
  139SAPE   C2615130   1.194   6.237   9.843 -0.2059  0.0269  0.5005
  139SAPE   H6R15131   1.207   6.345   9.822 -0.2719 -0.1524 -0.4963
  139SAPE   C2715132   1.169   6.154   9.720  0.2701 -0.9885  0.1904
  139SAPE   H7R15133   1.105   6.065   9.738 -0.3300 -0.9419 -1.5023
  139SAPE   H7S15134   1.265   6.122   9.675  0.1704  1.3986 -1.9768
  139SAPE   C2815135   1.100   6.236   9.612  0.3103  0.8270 -0.1487
  139SAPE   H8R15136   0.992   6.250   9.626  0.1666  0.6660 -1.0584
  139SAPE   C2915137   1.147   6.279   9.496 -0.5673  0.2409  0.3512
  139SAPE   H9R15138   1.086   6.344   9.431  0.2735 -0.6367 -1.3814
  139SAPE  C21015139   1.284   6.266   9.430 -0.4124  0.6385 -0.2830
  139SAPE  H10R15140   1.341   6.196   9.495 -2.4262 -0.1591  0.7050
  139SAPE  H10S15141   1.315   6.372   9.438 -0.7557  0.6255  1.4842
  139SAPE  C21115142   1.280   6.223   9.281 -0.3778  0.1463 -0.2398
  139SAPE  H11R15143   1.327   6.124   9.268  0.7419  0.6036  0.1583
  139SAPE  C21215144   1.260   6.312   9.177  0.4121  0.1327 -0.2185
  139SAPE  H12R15145   1.277   6.281   9.073  0.0827  1.1534 -0.5863
  139SAPE  C21315146   1.240   6.458   9.193  0.0946  0.1311 -0.3862
  139SAPE  H13R15147   1.344   6.496   9.200  0.1923 -0.0773 -0.6710
  139SAPE  H13S15148   1.185   6.481   9.286 -2.1615  1.5808 -1.9806
  139SAPE  C21415149   1.155   6.513   9.081 -0.6272  0.5209  0.6515
  139SAPE  H14R15150   1.046   6.517   9.097 -0.8020  2.1550 -0.6488
  139SAPE  C21515151   1.200   6.569   8.970  0.1211 -0.4490  0.6364
  139SAPE  H15R15152   1.122   6.599   8.898  1.6769  0.8035 -0.6341
  139SAPE  C21615153   1.334   6.602   8.927 -0.5581 -0.3157 -0.2657
  139SAPE  H16R15154   1.358   6.537   8.840  3.5054  2.2849 -1.3820
  139SAPE  H16S15155   1.408   6.591   9.009  1.4832  0.3953 -1.9177
  139SAPE  C21715156   1.339   6.738   8.875 -0.4274  0.0957 -0.1715
  139SAPE  H17R15157   1.335   6.818   8.953  2.4249  0.8568 -0.7178
  139SAPE  H17S15158   1.259   6.759   8.800 -0.9310 -1.0982  0.0047
  139SAPE  C21815159   1.472   6.771   8.808 -0.0020 -1.0141  0.6051
  139SAPE  H18R15160   1.461   6.737   8.703  1.9009  3.2334 -1.2020
  139SAPE  H18S15161   1.556   6.709   8.845  0.3309 -0.3191  1.0381
  139SAPE  C21915162   1.513   6.922   8.789  0.2187 -0.4992  0.2320
  139SAPE  H19R15163   1.532   6.969   8.888 -0.1423  1.3647 -0.5465
  139SAPE  H19S15164   1.439   6.993   8.746  0.6289 -0.3100 -0.1754
  139SAPE  C22015165   1.633   6.930   8.699 -0.0490 -0.1580 -0.2755
  139SAPE  H20R15166   1.700   6.843   8.715  0.0663  0.0769  0.5601
  139SAPE  H20S15167   1.697   7.017   8.725 -0.5482 -0.5166  2.4386
  139SAPE  H20T15168   1.606   6.942   8.592 -0.5420  0.4441 -0.0900
  139SAPE   C3315169   1.567   5.977  10.085 -0.1593 -0.0034  0.2338
  139SAPE   H3X15170   1.532   6.080  10.106 -1.6280 -0.1625 -1.1844
  139SAPE   H3Y15171   1.474   5.916  10.077  0.9180 -1.5009 -2.3164
  139SAPE   C3415172   1.647   5.968   9.951 -0.3522 -0.0154  0.3826
  139SAPE   H4X15173   1.691   5.866   9.953  0.0102 -0.0429 -3.2605
  139SAPE   H4Y15174   1.727   6.045   9.962  1.4366 -1.5125 -1.5183
  139SAPE   C3515175   1.566   5.982   9.819  0.7447 -0.4010  1.0403
  139SAPE   H5X15176   1.619   6.018   9.728  0.7529  1.3790  1.7100
  139SAPE   H5Y15177   1.495   6.063   9.845 -0.1327 -0.7732 -0.0609
  139SAPE   C3615178   1.486   5.854   9.788 -0.3219  0.3042 -0.1014
  139SAPE   H6X15179   1.415   5.846   9.874  0.2252  1.5342  0.4844
  139SAPE   H6Y15180   1.548   5.763   9.773  1.6363  1.6847 -0.6537
  139SAPE   C3715181   1.404   5.870   9.659 -0.1381  0.1142 -0.1652
  139SAPE   H7X15182   1.383   5.973   9.623  1.1178  0.5270  0.2121
  139SAPE   H7Y15183   1.298   5.843   9.676 -0.1791 -0.1322 -0.7803
  139SAPE   C3815184   1.467   5.795   9.543 -0.5563 -0.1260 -0.0818
  139SAPE   H8X15185   1.492   5.692   9.577  1.3472  1.2068  2.9666
  139SAPE   H8Y15186   1.564   5.835   9.504  0.9823 -2.4707  1.1356
  139SAPE   C3915187   1.368   5.796   9.421 -0.2594 -0.1453  0.0410
  139SAPE   H9X15188   1.335   5.902   9.418  0.9172  0.2539  0.6162
  139SAPE   H9Y15189   1.280   5.730   9.436 -1.4373  1.4096  0.2445
  139SAPE  C31015190   1.448   5.776   9.291 -0.0034 -0.0057  0.2266
  139SAPE  H10X15191   1.501   5.678   9.292 -1.3241 -0.7651 -0.7503
  139SAPE  H10Y15192   1.516   5.861   9.271 -1.3468  0.8991 -0.6005
  139SAPE  C31115193   1.349   5.773   9.175  0.1687 -0.5156  0.7298
  139SAPE  H11X15194   1.299   5.869   9.152  0.9206 -0.2573  0.1368
  139SAPE  H11Y15195   1.260   5.718   9.212 -1.9211  2.5139  0.5516
  139SAPE  C31215196   1.399   5.720   9.038 -1.0615 -0.6576  0.5524
  139SAPE  H12X15197   1.411   5.610   9.048 -2.0842 -0.9212 -0.7650
  139SAPE  H12Y15198   1.498   5.766   9.019 -1.7032  0.9831  0.9897
  139SAPE  C31315199   1.318   5.755   8.915 -0.3082 -0.2426  0.0645
  139SAPE  H13X15200   1.382   5.727   8.829 -0.8737  0.4668 -0.6130
  139SAPE  H13Y15201   1.313   5.866   8.914 -0.4906 -0.2484  0.3150
  139SAPE  C31415202   1.186   5.670   8.915  0.4606  0.1318  0.1093
  139SAPE  H14X15203   1.191   5.571   8.967 -0.0130 -0.1578 -0.3850
  139SAPE  H14Y15204   1.159   5.654   8.809  3.5277  4.6818 -1.6367
  139SAPE  C31515205   1.078   5.734   8.994  0.3220  0.9219  0.0090
  139SAPE  H15X15206   1.065   5.839   8.960  0.4493  0.6921 -0.7734
  139SAPE  H15Y15207   1.113   5.740   9.099  0.6925  2.4233 -0.1851
  139SAPE  C31615208   0.956   5.648   8.996  0.0844 -0.2885  0.4736
  139SAPE  H16X15209   0.977   5.543   9.028 -2.1508 -0.8524  0.2906
  139SAPE  H16Y15210   0.883   5.683   9.072 -1.6172 -4.1707  0.8885
  139SAPE  C31715211   0.878   5.643   8.865 -0.7270  0.3780  0.2762
  139SAPE  H17X15212   0.934   5.577   8.795 -2.0976 -0.5769  0.0560
  139SAPE  H17Y15213   0.865   5.742   8.815  2.3993  0.5748 -0.3549
  139SAPE  C31815214   0.741   5.584   8.871  0.0590 -1.0932 -0.5137
  139SAPE  H18X15215   0.704   5.574   8.766  2.0377  0.0341 -1.3711
  139SAPE  H18Y15216   0.665   5.636   8.933 -1.7118 -2.5504 -1.3624
  139SAPE  H18Z15217   0.746   5.482   8.913 -0.5767 -0.5863  0.8483
  140SAPE     N15218   5.365   2.641  11.074 -0.0376 -0.1834 -0.1123
  140SAPE   HN115219   5.435   2.597  11.010  1.5224 -0.1720  1.5139
  140SAPE   HN215220   5.362   2.738  11.036  0.0875 -0.6345 -1.3426
  140SAPE   HN315221   5.405   2.642  11.170 -1.8406 -1.5699  0.7105
  140SAPE   C1215222   5.233   2.568  11.076 -0.1002  0.6195  0.3735
  140SAPE  H12A15223   5.246   2.458  11.084 -0.1192  0.6005  0.1662
  140SAPE  H12B15224   5.186   2.590  10.978  1.2927  2.6576  0.1057
  140SAPE   C1115225   5.123   2.615  11.174 -0.7144 -0.7002  0.4127
  140SAPE  H11A15226   5.135   2.552  11.264  1.2670  2.1537  2.3151
  140SAPE  H11B15227   5.019   2.599  11.136 -1.1764  0.5809  1.0792
  140SAPE     P15228   5.053   2.876  11.192  0.1346 -0.1795  0.0285
  140SAPE   O1315229   4.924   2.871  11.271 -0.7389 -0.3582 -0.6734
  140SAPE   O1415230   5.135   2.998  11.196 -0.6298 -0.5367 -0.2178
  140SAPE   O1215231   5.130   2.749  11.224 -0.5771  0.2516  0.4134
  140SAPE   O1115232   5.018   2.853  11.045 -0.7084  0.1371  0.0900
  140SAPE    C115233   5.095   2.890  10.931  0.1472  0.4459  0.0424
  140SAPE    HA15234   5.125   2.997  10.944  1.2079  0.0600  1.0044
  140SAPE    HB15235   5.191   2.835  10.934  0.3417  0.7447  3.1798
  140SAPE    C215236   5.030   2.861  10.795  0.3314 -0.5843  0.4259
  140SAPE    HS15237   5.000   2.754  10.793 -1.3649 -0.2133  2.4972
  140SAPE   O2115238   5.110   2.911  10.687  0.1525  0.2721 -0.6290
  140SAPE   C2115239   5.214   2.835  10.654 -1.0117 -0.4041  0.0345
  140SAPE   O2215240   5.244   2.731  10.716 -0.0567 -0.3518 -0.0160
  140SAPE   C2215241   5.300   2.902  10.550 -0.8541 -0.1740 -0.2539
  140SAPE   H2R15242   5.276   3.010  10.558  0.5094  0.0035  2.9704
  140SAPE   H2S15243   5.408   2.884  10.570 -0.4537 -0.7940 -2.6875
  140SAPE    C315244   4.894   2.937  10.797  0.4195 -0.6065 -0.4339
  140SAPE    HX15245   4.931   3.041  10.793  0.3020 -0.5175  0.5354
  140SAPE    HY15246   4.839   2.925  10.893 -0.1507 -1.4896 -0.8532
  140SAPE   O3115247   4.804   2.912  10.681 -0.3133  0.5279 -0.3145
  140SAPE   C3115248   4.746   2.792  10.709 -0.2075  0.0172  0.4002
  140SAPE   O3215249   4.768   2.719  10.806  0.8044  0.2841 -0.0463
  140SAPE   C3215250   4.656   2.754  10.587 -0.6648  0.5513  0.0787
  140SAPE   H2X15251   4.579   2.830  10.560 -2.4675 -0.0212  3.0789
  140SAPE   H2Y15252   4.593   2.666  10.614 -0.5647  0.7169  0.8787
  140SAPE   C2315253   5.286   2.851  10.409  0.3112  0.0389 -0.5521
  140SAPE   H3R15254   5.338   2.754  10.400 -0.4520 -0.4092 -0.2397
  140SAPE   H3S15255   5.342   2.924  10.346 -0.6823  0.2208 -1.2661
  140SAPE   C2415256   5.134   2.841  10.372 -0.7792 -0.3496 -0.3303
  140SAPE   H4R15257   5.082   2.766  10.436  3.1618 -3.7200 -0.6172
  140SAPE   H4S15258   5.141   2.796  10.271 -3.4828  0.8611 -1.1402
  140SAPE   C2515259   5.070   2.974  10.356  0.1089 -0.5073  0.4008
  140SAPE   H5R15260   5.014   3.024  10.436 -0.3020  1.7243 -1.1832
  140SAPE   C2615261   5.077   3.040  10.241 -0.1135  0.0719  0.8905
  140SAPE   H6R15262   5.036   3.141  10.255 -1.7878 -0.8118  3.1378
  140SAPE   C2715263   5.143   3.009  10.107 -0.0404  0.1713  0.5882
  140SAPE   H7R15264   5.230   2.940  10.113 -0.8976 -1.0798 -0.8339
  140SAPE   H7S15265   5.178   3.104  10.061 -1.5035 -0.6819 -2.5211
  140SAPE   C2815266   5.047   2.949  10.010  0.6358 -0.3281  0.9753
  140SAPE   H8R15267   4.958   2.912  10.064 -0.6632 -0.7517 -1.3320
  140SAPE   C2915268   5.051   2.954   9.881 -0.2552  0.5695 -0.4347
  140SAPE   H9R15269   4.981   2.894   9.821  3.3297 -3.3273 -1.1576
  140SAPE  C21015270   5.160   3.017   9.799 -0.3119  0.3535  0.1667
  140SAPE  H10R15271   5.194   3.107   9.853 -0.2062 -0.1685  0.9896
  140SAPE  H10S15272   5.117   3.052   9.703 -1.8446  2.5435  1.5690
  140SAPE  C21115273   5.283   2.926   9.779 -0.2531  0.3346  0.2464
  140SAPE  H11R15274   5.310   2.861   9.864 -1.3810  0.8730  1.0424
  140SAPE  C21215275   5.354   2.907   9.664  0.8912 -0.2192 -0.0278
  140SAPE  H12R15276   5.446   2.847   9.657  1.4791  0.8272 -2.3495
  140SAPE  C21315277   5.325   2.990   9.543  0.0962  0.1759  0.6011
  140SAPE  H13R15278   5.313   3.092   9.585  1.3271  0.4553  0.3221
  140SAPE  H13S15279   5.224   2.961   9.509  0.5693  0.9660 -1.6917
  140SAPE  C21415280   5.421   2.993   9.429 -0.1234 -1.0102 -0.2068
  140SAPE  H14R15281   5.526   3.017   9.453 -0.4266  2.2389 -1.6143
  140SAPE  C21515282   5.390   3.006   9.301  0.3638  0.1149 -0.1140
  140SAPE  H15R15283   5.475   3.027   9.233  0.7938 -1.0400  0.0445
  140SAPE  C21615284   5.254   3.004   9.241  0.1145  0.9549  0.4957
  140SAPE  H16R15285   5.226   3.096   9.187  0.5382 -0.7800 -2.9153
  140SAPE  H16S15286   5.172   2.974   9.310 -0.2158 -1.0174 -0.6704
  140SAPE  C21715287   5.270   2.899   9.129  0.2029  0.2300  0.0977
  140SAPE  H17R15288   5.341   2.936   9.052  0.4757 -1.2887 -0.4312
  140SAPE  H17S15289   5.174   2.880   9.077  0.5700 -2.7703  0.3015
  140SAPE  C21815290   5.313   2.760   9.187 -0.3906  0.9092  0.7992
  140SAPE  H18R15291   5.280   2.759   9.293  0.1382 -1.7050  1.0126
  140SAPE  H18S15292   5.423   2.768   9.198 -0.2304  1.0644 -0.6773
  140SAPE  C21915293   5.264   2.637   9.109 -0.0851 -1.0338 -0.2593
  140SAPE  H19R15294   5.342   2.625   9.031  0.3608 -0.3304  0.0752
  140SAPE  H19S15295   5.163   2.650   9.065 -0.7083  0.6359  1.5358
  140SAPE  C22015296   5.267   2.500   9.188 -0.3752  0.3019 -0.0678
  140SAPE  H20R15297   5.309   2.416   9.130  0.2565  0.1611  0.5779
  140SAPE  H20S15298   5.166   2.482   9.231  0.6547 -3.3032  1.1673
  140SAPE  H20T15299   5.331   2.502   9.278  1.1565 -0.4344 -1.1118
  140SAPE   C3315300   4.747   2.716  10.466  0.0866  0.5828 -0.3959
  140SAPE   H3X15301   4.813   2.629  10.486 -0.5228  0.1808 -0.1313
  140SAPE   H3Y15302   4.807   2.803  10.430  0.9895 -0.6311 -1.9733
  140SAPE   C3415303   4.660   2.684  10.342 -0.9850  0.2283 -0.1101
  140SAPE   H4X15304   4.623   2.783  10.309 -3.1613 -0.6759 -0.5677
  140SAPE   H4Y15305   4.575   2.617  10.370 -0.2129 -2.0001 -2.6401
  140SAPE   C3515306   4.736   2.608  10.231  0.4495 -0.0231 -0.3205
  140SAPE   H5X15307   4.769   2.505  10.255  1.5975  0.1862 -0.9758
  140SAPE   H5Y15308   4.832   2.656  10.203  1.4426 -1.0775  1.1084
  140SAPE   C3615309   4.643   2.594  10.108  0.3492  0.3521  0.7092
  140SAPE   H6X15310   4.592   2.688  10.078 -3.2855 -1.4781  0.5846
  140SAPE   H6Y15311   4.564   2.520  10.132  1.0881 -0.2841  1.2304
  140SAPE   C3715312   4.711   2.527   9.991 -0.3914  0.3587  0.1551
  140SAPE   H7X15313   4.750   2.426  10.016  0.8138  0.0420 -2.5482
  140SAPE   H7Y15314   4.805   2.582   9.966  0.0303 -0.2775  0.3067
  140SAPE   C3815315   4.623   2.514   9.869 -0.3438 -0.5708  0.1203
  140SAPE   H8X15316   4.682   2.533   9.777  1.1425  1.0481  1.3442
  140SAPE   H8Y15317   4.543   2.592   9.864 -1.7897 -2.0348 -0.4636
  140SAPE   C3915318   4.556   2.378   9.866 -0.8821  0.5603  0.2471
  140SAPE   H9X15319   4.490   2.367   9.954 -0.0812 -2.2055  0.5869
  140SAPE   H9Y15320   4.635   2.300   9.867 -0.4226  1.0087 -0.0345
  140SAPE  C31015321   4.472   2.349   9.737 -0.0588 -0.6523 -0.7611
  140SAPE  H10X15322   4.386   2.419   9.738  0.4442 -0.0226 -0.6093
  140SAPE  H10Y15323   4.444   2.241   9.741  3.0034 -1.5581 -1.0164
  140SAPE  C31115324   4.551   2.368   9.604  0.0719 -0.1531  0.2378
  140SAPE  H11X15325   4.628   2.287   9.598  0.4670  0.2974 -0.9991
  140SAPE  H11Y15326   4.603   2.466   9.600  1.5055 -0.7727  1.9967
  140SAPE  C31215327   4.464   2.359   9.481  0.5047 -0.7048  0.3479
  140SAPE  H12X15328   4.384   2.282   9.477 -0.8909  0.7429 -2.0220
  140SAPE  H12Y15329   4.537   2.351   9.397  0.9533 -0.8403  0.7446
  140SAPE  C31315330   4.397   2.494   9.456  0.9267  0.6599  0.0933
  140SAPE  H13X15331   4.465   2.581   9.461  1.7846  0.0842 -1.0068
  140SAPE  H13Y15332   4.314   2.499   9.530 -0.2315 -2.7847 -0.7457
  140SAPE  C31415333   4.339   2.501   9.314 -0.6946  0.6464  0.0285
  140SAPE  H14X15334   4.428   2.491   9.248 -0.9606 -1.4271 -0.0779
  140SAPE  H14Y15335   4.312   2.606   9.288  0.6969  1.1287  0.4068
  140SAPE  C31515336   4.225   2.411   9.283 -0.7511 -0.4352 -0.0795
  140SAPE  H15X15337   4.147   2.429   9.360 -1.2519 -1.4872 -0.3271
  140SAPE  H15Y15338   4.256   2.305   9.272  1.3206  0.2977 -2.0906
  140SAPE  C31615339   4.165   2.451   9.145 -0.1608 -0.0450 -0.5078
  140SAPE  H16X15340   4.162   2.562   9.139 -0.8734 -0.1229 -2.0094
  140SAPE  H16Y15341   4.060   2.414   9.151 -0.8905  1.9412 -0.4697
  140SAPE  C31715342   4.248   2.410   9.026 -0.9014  0.4555  0.0173
  140SAPE  H17X15343   4.341   2.471   9.020 -0.3757 -0.3233  0.1846
  140SAPE  H17Y15344   4.193   2.444   8.935  0.1078  2.2461  0.0200
  140SAPE  C31815345   4.292   2.265   9.018  0.4365 -0.5991 -0.2015
  140SAPE  H18X15346   4.203   2.202   9.039  1.1794 -1.3099  0.9689
  140SAPE  H18Y15347   4.368   2.250   9.098  0.2807  0.2340  0.1137
  140SAPE  H18Z15348   4.341   2.236   8.923 -0.6724 -2.4037 -0.2787
  141SAPE     N15349   4.996   1.282  11.417  0.1620  0.2477  0.2677
  141SAPE   HN115350   4.966   1.380  11.400  0.3046  0.3922  0.8265
  141SAPE   HN215351   4.991   1.253  11.517  0.4496 -0.9702 -0.0510
  141SAPE   HN315352   5.089   1.273  11.370 -0.3042  1.8489 -1.0676
  141SAPE   C1215353   4.897   1.206  11.328 -0.5032  0.2054  0.1305
  141SAPE  H12A15354   4.802   1.190  11.384 -1.3544  1.0781 -1.0215
  141SAPE  H12B15355   4.937   1.103  11.315 -0.9470  0.2707 -2.1726
  141SAPE   C1115356   4.870   1.270  11.190  0.1475  0.0335 -0.0485
  141SAPE  H11A15357   4.767   1.262  11.148  1.1600 -0.7361 -2.6263
  141SAPE  H11B15358   4.921   1.196  11.124 -3.2320 -1.5388 -1.1796
  141SAPE     P15359   4.843   1.530  11.218 -0.0064  0.1122  0.2442
  141SAPE   O1315360   4.833   1.522  11.364 -0.2516 -0.2224 -0.1754
  141SAPE   O1415361   4.918   1.643  11.168 -0.4196 -1.1398  0.3532
  141SAPE   O1215362   4.916   1.401  11.175  0.1643  0.1029  0.2968
  141SAPE   O1115363   4.703   1.537  11.145 -0.1723  0.1254 -0.5321
  141SAPE    C115364   4.695   1.517  11.008 -0.5813 -0.2199  0.1411
  141SAPE    HA15365   4.789   1.473  10.968 -1.6275 -1.7377 -0.7357
  141SAPE    HB15366   4.609   1.449  10.989 -0.1723 -1.5027  2.5396
  141SAPE    C215367   4.660   1.646  10.923  0.2894  0.4260 -0.0960
  141SAPE    HS15368   4.605   1.611  10.833 -1.9840 -0.9424  1.7139
  141SAPE   O2115369   4.778   1.730  10.890  0.2196 -0.0109 -0.1620
  141SAPE   C2115370   4.857   1.683  10.792 -0.2567 -1.0885  0.6313
  141SAPE   O2215371   4.843   1.576  10.736 -0.2041  0.4419  1.1422
  141SAPE   C2215372   4.990   1.779  10.797 -0.0322 -0.2950  0.5362
  141SAPE   H2R15373   4.958   1.885  10.802 -1.1277 -0.4815 -1.6158
  141SAPE   H2S15374   5.030   1.746  10.896 -1.0110 -2.4400  0.2881
  141SAPE    C315375   4.574   1.736  11.003 -0.4973  0.2916  0.3542
  141SAPE    HX15376   4.637   1.780  11.083  0.2772 -1.6152  0.8623
  141SAPE    HY15377   4.498   1.678  11.059 -0.5712  1.4346  1.4783
  141SAPE   O3115378   4.518   1.835  10.914  0.0560 -0.1971  0.1246
  141SAPE   C3115379   4.411   1.798  10.855  0.4349 -0.4403 -0.4793
  141SAPE   O3215380   4.343   1.701  10.871 -0.3651  0.0800 -0.3460
  141SAPE   C3215381   4.389   1.902  10.739 -0.4227  0.2723 -0.7362
  141SAPE   H2X15382   4.445   1.996  10.759 -0.2763  0.1264 -0.4515
  141SAPE   H2Y15383   4.281   1.926  10.747 -0.0855  1.1840  2.0342
  141SAPE   C2315384   5.102   1.750  10.691  0.4846  0.0771 -0.1610
  141SAPE   H3R15385   5.059   1.729  10.591 -0.3076 -0.1726  0.2295
  141SAPE   H3S15386   5.160   1.661  10.725 -0.8056 -1.5569 -2.0678
  141SAPE   C2415387   5.192   1.873  10.673  0.0874 -0.1328  0.3194
  141SAPE   H4R15388   5.228   1.892  10.776  0.2481 -1.4261  0.5220
  141SAPE   H4S15389   5.127   1.954  10.633  0.1963 -0.6694 -1.0095
  141SAPE   C2515390   5.311   1.842  10.585  0.8602  0.3503  0.2000
  141SAPE   H5R15391   5.378   1.778  10.646  0.3752 -0.5462 -0.1793
  141SAPE   C2615392   5.344   1.884  10.464 -0.1265 -0.3122  0.8000
  141SAPE   H6R15393   5.444   1.862  10.424 -0.2006  0.4754  0.1542
  141SAPE   C2715394   5.276   1.987  10.378  0.2808  0.6614 -0.3113
  141SAPE   H7R15395   5.171   2.013  10.402  0.9926  3.4710  0.0774
  141SAPE   H7S15396   5.263   1.934  10.281 -0.9745 -1.7587  1.0697
  141SAPE   C2815397   5.354   2.115  10.373 -0.5062  0.8239  1.0279
  141SAPE   H8R15398   5.367   2.179  10.461 -0.3908  2.3139 -0.0449
  141SAPE   C2915399   5.402   2.167  10.257  0.1082 -0.0547 -0.0378
  141SAPE   H9R15400   5.463   2.258  10.259 -2.5158  1.9497 -2.1888
  141SAPE  C21015401   5.398   2.102  10.119  0.1612  0.6746 -0.4861
  141SAPE  H10R15402   5.428   2.170  10.037  1.2432 -1.7691 -2.2152
  141SAPE  H10S15403   5.294   2.073  10.093 -0.8153  3.3284  0.0308
  141SAPE  C21115404   5.489   1.983  10.100  0.1317 -0.4702 -0.4989
  141SAPE  H11R15405   5.542   1.944  10.188 -0.6666 -1.7681 -0.5573
  141SAPE  C21215406   5.491   1.922   9.979 -0.6132  0.1620  0.1146
  141SAPE  H12R15407   5.564   1.842   9.964 -1.1048 -0.9022  2.7538
  141SAPE  C21315408   5.413   1.964   9.849 -0.0223 -0.9965  0.3656
  141SAPE  H13R15409   5.494   1.977   9.773  0.4374  3.1739  1.2956
  141SAPE  H13S15410   5.374   2.065   9.873  1.6292  0.5595 -2.8407
  141SAPE  C21415411   5.297   1.870   9.809 -0.4007 -0.4128  0.1634
  141SAPE  H14R15412   5.227   1.843   9.889 -2.1253  0.2555 -1.0633
  141SAPE  C21515413   5.260   1.827   9.689 -0.2396  0.2259 -0.4306
  141SAPE  H15R15414   5.175   1.759   9.675  0.9347 -1.0904 -1.4944
  141SAPE  C21615415   5.336   1.864   9.563 -0.3504 -0.3282 -0.6688
  141SAPE  H16R15416   5.408   1.779   9.563  0.8273  0.6384  0.3327
  141SAPE  H16S15417   5.392   1.959   9.562  0.1968 -0.6471 -1.5210
  141SAPE  C21715418   5.237   1.863   9.448  0.1611  0.1798  1.2265
  141SAPE  H17R15419   5.143   1.921   9.465 -2.0043 -0.8407 -4.6684
  141SAPE  H17S15420   5.194   1.764   9.425 -1.9704  0.9322  1.7133
  141SAPE  C21815421   5.305   1.923   9.322  0.0164 -0.3144 -0.2021
  141SAPE  H18R15422   5.388   1.851   9.305  0.1912  0.0420 -0.8819
  141SAPE  H18S15423   5.350   2.022   9.347 -2.8677  1.4171 -1.4294
  141SAPE  C21915424   5.203   1.939   9.208 -0.4525 -0.3964  0.8312
  141SAPE  H19R15425   5.131   2.019   9.234  0.1114 -0.4760  2.8573
  141SAPE  H19S15426   5.135   1.853   9.195 -3.3475  1.8328  0.1873
  141SAPE  C22015427   5.260   1.990   9.070  0.0002 -0.3569 -0.6345
  141SAPE  H20R15428   5.280   1.906   9.001  0.6216 -1.5082  0.8747
  141SAPE  H20S15429   5.362   2.030   9.088 -1.0990  2.7252 -0.6491
  141SAPE  H20T15430   5.200   2.069   9.019  0.8551  1.0508  0.4437
  141SAPE   C3315431   4.414   1.835  10.606  0.0885 -0.6650  0.6679
  141SAPE   H3X15432   4.359   1.889  10.527  2.7275  0.6005 -0.4273
  141SAPE   H3Y15433   4.362   1.737  10.610 -1.8766  0.3376  0.7169
  141SAPE   C3415434   4.553   1.815  10.557  0.0263  0.7781  0.1547
  141SAPE   H4X15435   4.608   1.757  10.635 -0.2555 -2.0041 -1.5643
  141SAPE   H4Y15436   4.599   1.915  10.549  1.3079  0.1058 -1.5833
  141SAPE   C3515437   4.562   1.726  10.433  0.3358 -0.1186  0.3050
  141SAPE   H5X15438   4.523   1.771  10.339 -0.7421 -1.8942 -0.1520
  141SAPE   H5Y15439   4.499   1.636  10.447 -0.8625  0.6292 -0.1757
  141SAPE   C3615440   4.710   1.686  10.398 -0.3321  0.1737 -0.3815
  141SAPE   H6X15441   4.735   1.602  10.466 -0.3729  0.5556  0.1128
  141SAPE   H6Y15442   4.782   1.772  10.398 -1.8217  1.4956 -2.2354
  141SAPE   C3715443   4.707   1.634  10.252  0.2085  0.8059  0.0871
  141SAPE   H7X15444   4.667   1.708  10.180 -0.7555 -1.0132 -1.3465
  141SAPE   H7Y15445   4.641   1.545  10.249  1.3147 -0.0432 -2.5575
  141SAPE   C3815446   4.839   1.570  10.207 -0.2380  0.5393 -0.0865
  141SAPE   H8X15447   4.854   1.480  10.270  0.8200 -1.1883 -2.6052
  141SAPE   H8Y15448   4.928   1.630  10.236  1.7098 -1.6797 -1.1149
  141SAPE   C3915449   4.853   1.539  10.061 -0.5119 -0.1619  0.0819
  141SAPE   H9X15450   4.769   1.477  10.024  0.8146 -0.7499 -2.1950
  141SAPE   H9Y15451   4.939   1.473  10.037  0.0248  0.3132  0.6618
  141SAPE  C31015452   4.855   1.655   9.958 -0.3243 -0.0291  0.7965
  141SAPE  H10X15453   4.919   1.738   9.997 -1.2734  1.0293  0.1487
  141SAPE  H10Y15454   4.750   1.689   9.945  0.0696  1.2430  0.8256
  141SAPE  C31115455   4.915   1.604   9.819 -0.9550 -0.3197  0.2263
  141SAPE  H11X15456   4.864   1.509   9.790  1.0238 -0.9344 -1.5016
  141SAPE  H11Y15457   5.019   1.568   9.833 -0.5033  0.5059 -0.8901
  141SAPE  C31215458   4.906   1.711   9.708 -0.0149 -0.0232  0.7316
  141SAPE  H12X15459   4.967   1.799   9.733 -1.1497  0.5322  1.6268
  141SAPE  H12Y15460   4.797   1.734   9.704 -0.7252 -2.6665  2.3898
  141SAPE  C31315461   4.954   1.663   9.566 -0.1576 -0.2977 -0.4059
  141SAPE  H13X15462   5.056   1.621   9.560  1.2768  3.0438 -3.5305
  141SAPE  H13Y15463   4.949   1.752   9.500 -2.1495 -0.2952 -0.3161
  141SAPE  C31415464   4.865   1.553   9.501  0.5860  0.0214  0.4538
  141SAPE  H14X15465   4.761   1.590   9.514  0.9027  0.4979  1.7733
  141SAPE  H14Y15466   4.887   1.457   9.552  0.8485 -1.6386 -2.5760
  141SAPE  C31515467   4.888   1.528   9.351  0.1152 -0.2072  0.8262
  141SAPE  H15X15468   4.997   1.508   9.343  0.2645  0.5868  0.7863
  141SAPE  H15Y15469   4.871   1.621   9.292 -1.8400  0.6880  2.6738
  141SAPE  C31615470   4.800   1.418   9.280 -0.1013 -0.3660 -0.5134
  141SAPE  H16X15471   4.692   1.444   9.278  0.1252  0.5682 -0.8258
  141SAPE  H16Y15472   4.815   1.329   9.345  1.3383  0.2925  0.0952
  141SAPE  C31715473   4.853   1.386   9.141 -0.4404  0.2762 -0.0064
  141SAPE  H17X15474   4.963   1.396   9.139 -0.3969  1.3666  3.0239
  141SAPE  H17Y15475   4.810   1.464   9.075  1.1645  0.7730 -0.4905
  141SAPE  C31815476   4.813   1.249   9.091  0.4354 -0.2853 -0.1448
  141SAPE  H18X15477   4.872   1.221   9.001 -0.0222 -0.4268 -0.4049
  141SAPE  H18Y15478   4.707   1.240   9.058  1.0092 -1.1612 -1.8369
  141SAPE  H18Z15479   4.828   1.178   9.175 -2.2600 -0.9652 -0.1232
  142SAPE     N15480   6.201   2.871  10.950 -0.1475 -0.4890  0.2453
  142SAPE   HN115481   6.113   2.882  10.895 -0.9178 -1.3242  1.2610
  142SAPE   HN215482   6.274   2.939  10.922 -0.0177 -1.5801 -2.2787
  142SAPE   HN315483   6.236   2.774  10.938 -0.2826 -0.4114 -0.8807
  142SAPE   C1215484   6.160   2.907  11.095 -0.7466  0.0756  0.4987
  142SAPE  H12A15485   6.119   3.011  11.096 -2.2408 -0.4962  1.6016
  142SAPE  H12B15486   6.252   2.887  11.154 -0.4942 -0.9457 -0.2154
  142SAPE   C1115487   6.059   2.797  11.139  0.5572  0.0298 -0.4621
  142SAPE  H11A15488   6.017   2.831  11.236  2.1212 -0.9290  0.6120
  142SAPE  H11B15489   6.120   2.704  11.142  0.0747 -0.4097 -2.5817
  142SAPE     P15490   5.842   2.675  11.040 -0.2080  0.0215 -0.1879
  142SAPE   O1315491   5.801   2.645  11.180  0.0271  0.1762  0.1859
  142SAPE   O1415492   5.727   2.715  10.950 -0.5186 -0.1333  0.0501
  142SAPE   O1215493   5.954   2.784  11.039 -0.2130  0.1639 -0.8250
  142SAPE   O1115494   5.918   2.557  10.969  0.1804 -0.3049  0.1522
  142SAPE    C115495   5.986   2.583  10.844 -0.4569  0.8682 -0.6965
  142SAPE    HA15496   5.997   2.689  10.814 -0.3645  0.4513 -2.1938
  142SAPE    HB15497   6.091   2.548  10.860  0.0371  3.0972  1.5610
  142SAPE    C215498   5.929   2.506  10.727 -0.0343  0.0100 -1.0377
  142SAPE    HS15499   5.996   2.516  10.638  1.5195 -0.3095  0.0635
  142SAPE   O2115500   5.801   2.560  10.687  0.0253  0.8221 -0.2208
  142SAPE   C2115501   5.806   2.670  10.618  0.5989 -0.5574 -0.1367
  142SAPE   O2215502   5.907   2.729  10.585  0.7049 -0.0503 -0.2393
  142SAPE   C2215503   5.667   2.711  10.574 -0.5129  0.0348 -0.5267
  142SAPE   H2R15504   5.598   2.723  10.661 -2.4816  0.5117 -2.0621
  142SAPE   H2S15505   5.666   2.806  10.516 -0.7804  0.4121  0.0809
  142SAPE    C315506   5.916   2.361  10.761 -0.4925 -0.0753 -0.4938
  142SAPE    HX15507   5.878   2.346  10.864 -0.5359  0.7608 -0.3764
  142SAPE    HY15508   6.020   2.320  10.762 -0.2306  0.5836 -0.0378
  142SAPE   O3115509   5.842   2.283  10.660  0.0604 -0.1249 -0.3162
  142SAPE   C3115510   5.716   2.267  10.699 -0.3241  0.2981  0.1373
  142SAPE   O3215511   5.661   2.295  10.806  0.1109  0.3809  0.5823
  142SAPE   C3215512   5.639   2.202  10.584 -0.4439  0.1997 -0.1718
  142SAPE   H2X15513   5.648   2.284  10.510  2.1838  1.2033  1.1218
  142SAPE   H2Y15514   5.539   2.193  10.632 -0.4257  1.1325  0.0661
  142SAPE   C2315515   5.611   2.592  10.493 -0.0381 -0.4158  0.1661
  142SAPE   H3R15516   5.504   2.577  10.521 -0.5906  0.0986 -1.5443
  142SAPE   H3S15517   5.669   2.499  10.507  0.6793 -0.3080 -1.8726
  142SAPE   C2415518   5.607   2.613  10.341 -1.0886 -0.0799 -0.1369
  142SAPE   H4R15519   5.576   2.716  10.314  1.6673  0.6248 -0.9822
  142SAPE   H4S15520   5.535   2.549  10.285 -1.3492  1.0459 -1.1405
  142SAPE   C2515521   5.741   2.594  10.281  0.6723  0.6226 -0.6348
  142SAPE   H5R15522   5.810   2.679  10.297  3.3426 -1.5070 -0.1086
  142SAPE   C2615523   5.787   2.498  10.198 -1.0278 -0.3452  0.7326
  142SAPE   H6R15524   5.891   2.507  10.162 -1.7779 -1.9815 -2.1895
  142SAPE   C2715525   5.717   2.378  10.137  0.4063  0.7255  0.1530
  142SAPE   H7R15526   5.629   2.409  10.076 -0.0295 -1.1601 -0.2667
  142SAPE   H7S15527   5.673   2.321  10.222 -1.3714  0.4572 -0.8803
  142SAPE   C2815528   5.791   2.274  10.048 -0.0542 -0.3109  0.2266
  142SAPE   H8R15529   5.815   2.175  10.091 -0.3501 -0.4830  0.0035
  142SAPE   C2915530   5.809   2.289   9.911  0.7075  0.3881 -0.0147
  142SAPE   H9R15531   5.873   2.213   9.864 -2.0459 -2.4597  0.4792
  142SAPE  C21015532   5.767   2.410   9.825  0.0560  0.1035  0.0133
  142SAPE  H10R15533   5.729   2.497   9.883  1.1693  0.5212  0.1524
  142SAPE  H10S15534   5.681   2.374   9.765 -0.2484 -0.5332  0.8180
  142SAPE  C21115535   5.875   2.464   9.737  0.2374 -0.2258  0.2212
  142SAPE  H11R15536   5.975   2.464   9.782  0.2455  0.3955  0.2081
  142SAPE  C21215537   5.856   2.507   9.614 -0.4786 -0.2913  0.4331
  142SAPE  H12R15538   5.941   2.561   9.571 -1.5031  0.8679 -0.1961
  142SAPE  C21315539   5.717   2.510   9.548  0.1659 -0.2039  0.0134
  142SAPE  H13R15540   5.724   2.595   9.476 -0.7565  0.0938  0.2539
  142SAPE  H13S15541   5.639   2.551   9.615 -1.6161 -0.6632 -1.6775
  142SAPE  C21415542   5.675   2.381   9.480  0.3682  0.6505 -0.5836
  142SAPE  H14R15543   5.700   2.294   9.543  0.6589  2.1456  1.4849
  142SAPE  C21515544   5.646   2.364   9.350 -0.2741 -0.1082  0.1884
  142SAPE  H15R15545   5.622   2.264   9.310  1.5224  0.4160 -2.4918
  142SAPE  C21615546   5.654   2.457   9.236  0.1756 -0.2522 -0.5832
  142SAPE  H16R15547   5.694   2.557   9.264  2.3178 -1.9292  3.0301
  142SAPE  H16S15548   5.560   2.484   9.184  1.0689  0.6037 -1.8298
  142SAPE  C21715549   5.753   2.415   9.123 -0.0185  0.4595  0.1671
  142SAPE  H17R15550   5.722   2.471   9.033  1.1181  0.6021 -0.1470
  142SAPE  H17S15551   5.733   2.308   9.102 -1.4010  1.1769 -2.5816
  142SAPE  C21815552   5.901   2.439   9.144 -0.3747 -0.2775 -0.2158
  142SAPE  H18R15553   5.939   2.400   9.241 -2.1108 -0.2489  0.5119
  142SAPE  H18S15554   5.929   2.544   9.169  2.4739 -1.1826  0.7491
  142SAPE  C21915555   5.994   2.390   9.032  0.1138 -0.0340 -0.6281
  142SAPE  H19R15556   6.076   2.464   9.041 -0.2378  0.3707 -0.7283
  142SAPE  H19S15557   5.950   2.410   8.932 -0.1787  3.8928  0.1430
  142SAPE  C22015558   6.052   2.254   9.045  0.2132 -0.2640 -0.5078
  142SAPE  H20R15559   5.965   2.186   9.047 -1.9824  2.4045  0.4278
  142SAPE  H20S15560   6.095   2.245   9.148 -1.7406 -0.7278  0.3048
  142SAPE  H20T15561   6.120   2.232   8.960 -0.8993  2.1179 -2.1264
  142SAPE   C3315562   5.688   2.069  10.533  0.2996  0.5238  0.7092
  142SAPE   H3X15563   5.600   2.004  10.514 -0.6821  2.1866 -0.6454
  142SAPE   H3Y15564   5.740   2.027  10.622 -0.9526  0.4845  1.4439
  142SAPE   C3415565   5.766   2.085  10.405  0.1323  0.0405 -0.2883
  142SAPE   H4X15566   5.849   2.159  10.413  2.0381 -1.5836 -3.3791
  142SAPE   H4Y15567   5.693   2.126  10.332  0.0823  0.9027  0.2216
  142SAPE   C3515568   5.826   1.953  10.354  0.9223  0.2930  0.1142
  142SAPE   H5X15569   5.747   1.876  10.353  0.0657  1.1326  0.7361
  142SAPE   H5Y15570   5.904   1.920  10.426  3.0228 -0.6878 -2.4698
  142SAPE   C3615571   5.896   1.964  10.216  0.0793 -0.9170 -0.1227
  142SAPE   H6X15572   5.953   2.059  10.216 -1.7234  0.2543  1.5763
  142SAPE   H6Y15573   5.821   1.958  10.134  0.6160 -0.2506 -0.6710
  142SAPE   C3715574   6.004   1.854  10.216 -1.0011 -0.0722  0.2673
  142SAPE   H7X15575   6.066   1.856  10.308 -0.0171  2.0675 -0.3566
  142SAPE   H7Y15576   6.073   1.893  10.138  1.4513 -0.6125  2.0596
  142SAPE   C3815577   5.946   1.720  10.185  0.4833  1.0552  0.6963
  142SAPE   H8X15578   5.846   1.706  10.230  0.4431  0.3329  0.3920
  142SAPE   H8Y15579   6.002   1.634  10.228 -0.2557 -1.2482 -2.5991
  142SAPE   C3915580   5.939   1.687  10.038  0.1648  0.1556  0.3214
  142SAPE   H9X15581   6.038   1.707   9.991  0.1429  0.7808  0.5247
  142SAPE   H9Y15582   5.869   1.761   9.993 -0.3798 -0.2389  0.5131
  142SAPE  C31015583   5.895   1.546  10.001  0.2312 -0.6301 -0.4458
  142SAPE  H10X15584   5.811   1.515  10.068 -0.3760 -0.1450 -0.9786
  142SAPE  H10Y15585   5.972   1.466  10.008  1.4277  0.3838 -1.6722
  142SAPE  C31115586   5.835   1.551   9.863  0.5725 -0.7839 -0.3607
  142SAPE  H11X15587   5.749   1.618   9.843  0.8436 -0.8677 -1.9452
  142SAPE  H11Y15588   5.802   1.453   9.822  0.2817  0.1901 -2.5969
  142SAPE  C31215589   5.942   1.581   9.758  0.4913 -0.2034 -0.0319
  142SAPE  H12X15590   6.023   1.505   9.760  0.4990 -0.1811  0.6663
  142SAPE  H12Y15591   5.987   1.681   9.779  0.3291  0.4423 -2.4899
  142SAPE  C31315592   5.883   1.576   9.615 -0.0582  0.0528  0.2012
  142SAPE  H13X15593   5.822   1.668   9.603  2.1008  1.6399  0.7599
  142SAPE  H13Y15594   5.827   1.481   9.599  3.4998 -2.0670 -1.0917
  142SAPE  C31415595   5.983   1.587   9.504 -0.5132 -0.2689 -0.4991
  142SAPE  H14X15596   6.068   1.521   9.533 -2.3429 -2.3400  0.4879
  142SAPE  H14Y15597   6.018   1.692   9.507  0.9563 -0.7129 -1.5543
  142SAPE  C31515598   5.938   1.536   9.372 -0.4794  0.7251 -0.2077
  142SAPE  H15X15599   5.870   1.602   9.314 -1.9781 -0.7294 -0.2109
  142SAPE  H15Y15600   5.895   1.435   9.390  1.9302 -0.4216 -0.5984
  142SAPE  C31615601   6.054   1.498   9.278  0.0722  0.5078 -0.1929
  142SAPE  H16X15602   6.118   1.415   9.314  0.3076  0.9982  0.5510
  142SAPE  H16Y15603   6.125   1.584   9.279  0.9670 -0.1570 -2.1128
  142SAPE  C31715604   6.009   1.465   9.135 -0.6874  0.5409  0.1476
  142SAPE  H17X15605   5.965   1.555   9.087 -1.6608  0.1623  0.3064
  142SAPE  H17Y15606   5.938   1.379   9.137  1.0770 -0.9975 -0.1640
  142SAPE  C31815607   6.131   1.432   9.042 -0.0425  0.2415 -0.0888
  142SAPE  H18X15608   6.165   1.328   9.061  0.8316  0.9176  2.4727
  142SAPE  H18Y15609   6.220   1.499   9.045  1.4848 -1.7464  0.7217
  142SAPE  H18Z15610   6.088   1.441   8.940  0.9992 -0.1390 -0.5769
  143SAPE     N15611   1.947   1.731  11.090  0.2963 -0.3707  0.1636
  143SAPE   HN115612   1.943   1.813  11.154 -1.7931 -0.3651  0.1169
  143SAPE   HN215613   1.945   1.775  10.996 -2.6884  0.4521  0.5056
  143SAPE   HN315614   1.861   1.672  11.092 -0.8028  1.1605  0.5526
  143SAPE   C1215615   2.074   1.661  11.123  0.2595  0.6453 -0.0803
  143SAPE  H12A15616   2.131   1.728  11.191  1.5072  0.5968 -1.0425
  143SAPE  H12B15617   2.127   1.654  11.025 -2.6612 -0.4236 -1.7029
  143SAPE   C1115618   2.037   1.516  11.176 -0.7585  0.2285 -0.3912
  143SAPE  H11A15619   1.989   1.510  11.276 -0.4805  0.4600 -0.2429
  143SAPE  H11B15620   2.136   1.466  11.180  1.7446  4.6505 -0.6482
  143SAPE     P15621   1.997   1.358  10.964  0.0492  0.1970  0.1350
  143SAPE   O1315622   2.094   1.262  11.016 -0.3872  0.3873  0.3610
  143SAPE   O1415623   1.872   1.303  10.906 -0.0720  0.0543  0.3578
  143SAPE   O1215624   1.953   1.444  11.088 -0.3706 -0.2880 -0.1805
  143SAPE   O1115625   2.073   1.461  10.865  0.1062 -0.0747  0.2686
  143SAPE    C115626   2.006   1.557  10.787  0.1655 -0.0802 -0.0310
  143SAPE    HA15627   1.933   1.619  10.843  1.9904  0.6984  1.5979
  143SAPE    HB15628   2.086   1.624  10.746  0.2855  0.4066  0.9624
  143SAPE    C215629   1.942   1.500  10.657  0.3913  0.1182 -0.4352
  143SAPE    HS15630   1.861   1.427  10.680 -0.2919  0.8296 -0.5372
  143SAPE   O2115631   2.043   1.437  10.581 -0.1169 -0.2099  0.4303
  143SAPE   C2115632   2.015   1.313  10.536 -0.1834  0.0236  0.4069
  143SAPE   O2215633   1.910   1.252  10.573  0.0862  0.3358 -0.2091
  143SAPE   C2215634   2.116   1.277  10.430 -0.3952 -0.0134  0.3452
  143SAPE   H2R15635   2.196   1.354  10.430  0.3533 -0.7715  0.4350
  143SAPE   H2S15636   2.172   1.187  10.463 -1.0289 -0.0199  1.4238
  143SAPE    C315637   1.871   1.613  10.577  0.1429  0.1727 -0.2762
  143SAPE    HX15638   1.956   1.681  10.555  0.1971  0.2735  0.2163
  143SAPE    HY15639   1.794   1.666  10.638  0.8806  1.0999 -0.1452
  143SAPE   O3115640   1.818   1.558  10.460  0.5068 -0.1310  0.5564
  143SAPE   C3115641   1.692   1.510  10.458  0.0861 -1.0639 -0.5273
  143SAPE   O3215642   1.625   1.507  10.559  0.3164 -0.3807 -0.9211
  143SAPE   C3215643   1.657   1.444  10.327  0.2144  0.4434  0.6594
  143SAPE   H2X15644   1.565   1.387  10.350 -0.4805  1.6201  0.8870
  143SAPE   H2Y15645   1.745   1.383  10.296  1.3805  2.5949 -0.5266
  143SAPE   C2315646   2.047   1.264  10.290 -1.1569 -0.6701 -0.0408
  143SAPE   H3R15647   1.969   1.188  10.312  1.7965 -3.6440  0.8674
  143SAPE   H3S15648   2.109   1.216  10.212 -0.8819 -1.5310  0.6926
  143SAPE   C2415649   2.005   1.397  10.230  0.5012  0.5359 -0.0696
  143SAPE   H4R15650   1.942   1.461  10.295  0.3065 -1.6418  2.0641
  143SAPE   H4S15651   1.942   1.367  10.143  1.0409  1.3517 -0.7524
  143SAPE   C2515652   2.117   1.474  10.184  0.1339  0.5788  0.0676
  143SAPE   H5R15653   2.204   1.475  10.252 -0.1720 -1.2887  0.5261
  143SAPE   C2615654   2.130   1.541  10.075 -0.0435  0.6435  0.4872
  143SAPE   H6R15655   2.223   1.596  10.059 -0.4781  1.2478 -0.0122
  143SAPE   C2715656   2.022   1.559   9.969 -0.2487  0.2727  0.3720
  143SAPE   H7R15657   1.952   1.626  10.024  0.6664  0.4129  1.4076
  143SAPE   H7S15658   1.985   1.456   9.950  1.0784  0.1207 -1.5549
  143SAPE   C2815659   2.078   1.610   9.836 -0.2249 -0.6142 -0.6372
  143SAPE   H8R15660   2.054   1.717   9.822  1.6072 -0.3447 -2.1256
  143SAPE   C2915661   2.147   1.535   9.746  1.0049 -0.1111 -0.0485
  143SAPE   H9R15662   2.185   1.573   9.650 -0.3597 -0.4124 -0.7310
  143SAPE  C21015663   2.173   1.385   9.778 -0.0852 -0.2991 -0.3212
  143SAPE  H10R15664   2.087   1.335   9.728 -0.4253  1.1942 -1.2923
  143SAPE  H10S15665   2.174   1.367   9.887 -0.7386 -0.7161 -0.3785
  143SAPE  C21115666   2.304   1.317   9.732 -0.0298 -0.5036  0.1417
  143SAPE  H11R15667   2.367   1.279   9.814 -1.2044 -0.2687  1.1763
  143SAPE  C21215668   2.348   1.304   9.598  0.2479 -0.1016 -0.4264
  143SAPE  H12R15669   2.452   1.270   9.586  1.5218  3.4374 -0.5812
  143SAPE  C21315670   2.286   1.343   9.470 -0.7497 -0.2252  0.2220
  143SAPE  H13R15671   2.352   1.414   9.416 -2.4787  0.4865 -1.0517
  143SAPE  H13S15672   2.190   1.396   9.484 -1.5137 -1.0463 -1.6115
  143SAPE  C21415673   2.259   1.222   9.392 -0.1517 -0.0822  0.4655
  143SAPE  H14R15674   2.285   1.127   9.439 -1.4393 -0.8232 -0.2471
  143SAPE  C21515675   2.202   1.224   9.266  0.7548 -0.5638  0.6224
  143SAPE  H15R15676   2.175   1.131   9.216  2.0872 -0.7899  0.2811
  143SAPE  C21615677   2.170   1.357   9.204  0.8702  0.0872  0.0758
  143SAPE  H16R15678   2.204   1.443   9.266 -1.5660  1.5493 -0.4949
  143SAPE  H16S15679   2.060   1.373   9.200  0.7819 -0.1223  1.3250
  143SAPE  C21715680   2.233   1.358   9.056  0.5328 -0.1892  0.8072
  143SAPE  H17R15681   2.196   1.275   8.992  0.1061  0.7589 -0.2189
  143SAPE  H17S15682   2.341   1.347   9.080  0.9684  0.3663 -0.7788
  143SAPE  C21815683   2.214   1.488   8.984 -0.8173 -0.0434  0.2786
  143SAPE  H18R15684   2.252   1.559   9.060 -2.0712  1.9454 -0.8635
  143SAPE  H18S15685   2.105   1.506   8.973 -0.5463  0.8212 -1.1758
  143SAPE  C21915686   2.297   1.529   8.859 -0.5194 -0.0156  0.0612
  143SAPE  H19R15687   2.271   1.467   8.771 -0.3543  1.3273 -0.9584
  143SAPE  H19S15688   2.407   1.518   8.876 -0.7174 -4.0959 -0.1694
  143SAPE  C22015689   2.282   1.676   8.836  0.8221  0.0815 -0.9904
  143SAPE  H20R15690   2.333   1.692   8.738 -0.8348 -1.0683 -2.0909
  143SAPE  H20S15691   2.338   1.725   8.919  4.3163 -0.6701 -2.6756
  143SAPE  H20T15692   2.176   1.706   8.828  0.7860  1.0931  2.0805
  143SAPE   C3315693   1.614   1.543  10.216 -0.4283  0.5197  0.2318
  143SAPE   H3X15694   1.693   1.621  10.217 -1.0891  1.2831 -2.0906
  143SAPE   H3Y15695   1.511   1.581  10.231 -0.1166  0.9468  1.4123
  143SAPE   C3415696   1.627   1.475  10.082  0.7217  0.0362  0.6580
  143SAPE   H4X15697   1.726   1.425  10.070  0.2790 -1.2254  1.9044
  143SAPE   H4Y15698   1.609   1.550  10.003 -0.3840  0.6143  1.4448
  143SAPE   C3515699   1.512   1.366  10.073 -0.3720 -0.0845  0.1095
  143SAPE   H5X15700   1.416   1.401  10.115 -0.3391  1.5852 -1.1150
  143SAPE   H5Y15701   1.548   1.285  10.140 -0.1323 -1.4865 -1.6329
  143SAPE   C3615702   1.481   1.297   9.930 -0.4921  0.1533 -0.8537
  143SAPE   H6X15703   1.467   1.187   9.940 -1.2058  0.2770 -0.4463
  143SAPE   H6Y15704   1.575   1.313   9.874 -1.5069  0.9965 -2.3777
  143SAPE   C3715705   1.370   1.370   9.860  0.2821 -0.2512  0.3640
  143SAPE   H7X15706   1.366   1.479   9.880  0.3956 -0.2447  0.3538
  143SAPE   H7Y15707   1.270   1.330   9.887 -1.5638  1.6832 -2.8548
  143SAPE   C3815708   1.384   1.359   9.704 -0.3150 -0.0564  0.6230
  143SAPE   H8X15709   1.492   1.381   9.688 -0.1769 -1.6883 -1.0365
  143SAPE   H8Y15710   1.320   1.431   9.650 -0.2865  0.8141  1.7147
  143SAPE   C3915711   1.347   1.221   9.643  0.5322 -0.5167  0.3932
  143SAPE   H9X15712   1.400   1.147   9.708  1.5445  0.3044  0.5264
  143SAPE   H9Y15713   1.393   1.228   9.542 -2.9730  2.1517 -1.1943
  143SAPE  C31015714   1.198   1.188   9.639  0.0788 -0.5301 -0.3797
  143SAPE  H10X15715   1.165   1.232   9.736 -0.6031 -1.8120 -0.0082
  143SAPE  H10Y15716   1.177   1.079   9.641 -0.1039 -0.5165  2.2869
  143SAPE  C31115717   1.123   1.254   9.516 -0.0494  0.0340 -0.2224
  143SAPE  H11X15718   1.149   1.362   9.522 -1.8930  0.4326  1.3431
  143SAPE  H11Y15719   1.015   1.255   9.540  0.2155 -0.5421  1.0846
  143SAPE  C31215720   1.158   1.191   9.376 -0.4808  0.5697 -0.8879
  143SAPE  H12X15721   1.142   1.082   9.383 -1.0200  0.7234  0.8034
  143SAPE  H12Y15722   1.265   1.217   9.361  1.3683 -2.5482  4.4160
  143SAPE  C31315723   1.070   1.256   9.274  0.1897  0.1771  0.4948
  143SAPE  H13X15724   1.092   1.364   9.277  1.8542 -0.1128  0.0827
  143SAPE  H13Y15725   0.965   1.236   9.304 -0.5502  0.2341 -1.8414
  143SAPE  C31415726   1.073   1.206   9.127  0.1887  0.0953 -0.6826
  143SAPE  H14X15727   1.178   1.204   9.093  0.6171  1.6385  0.4235
  143SAPE  H14Y15728   1.014   1.268   9.056 -0.1534 -0.6190 -1.0339
  143SAPE  C31515729   1.018   1.057   9.120  0.0876 -0.9057 -0.5161
  143SAPE  H15X15730   0.914   1.068   9.159  0.1365 -0.5390 -0.4894
  143SAPE  H15Y15731   1.080   0.992   9.185 -0.4356 -0.2293  0.6815
  143SAPE  C31615732   1.011   1.015   8.972 -0.0463 -0.2035 -0.7520
  143SAPE  H16X15733   1.113   1.022   8.928  1.2332 -2.0423  1.6802
  143SAPE  H16Y15734   0.939   1.082   8.919 -0.7594 -1.5656 -1.5799
  143SAPE  C31715735   0.970   0.868   8.958 -0.1700  0.2385  0.1885
  143SAPE  H17X15736   0.873   0.849   9.007 -1.7453  0.6498 -2.5640
  143SAPE  H17Y15737   1.038   0.801   9.016 -3.0406 -0.9527  2.4036
  143SAPE  C31815738   0.956   0.812   8.813  0.6486  0.1176  0.2594
  143SAPE  H18X15739   1.057   0.813   8.765  1.7858 -0.0214  2.4979
  143SAPE  H18Y15740   0.879   0.857   8.747 -0.2769 -2.1219 -0.2669
  143SAPE  H18Z15741   0.928   0.705   8.819 -0.2986  0.4231  1.6980
  144SAPE     N15742   5.007   0.457  11.245 -0.1800  0.2668 -0.1025
  144SAPE   HN115743   4.945   0.483  11.325  0.8773 -1.7618  1.4426
  144SAPE   HN215744   5.061   0.372  11.270  1.3152  1.6411  1.6168
  144SAPE   HN315745   5.080   0.530  11.231 -0.3147  0.5467  0.5996
  144SAPE   C1215746   4.928   0.445  11.118 -0.2674  0.1962 -0.5018
  144SAPE  H12A15747   4.949   0.536  11.059 -0.6598  0.1753 -0.6758
  144SAPE  H12B15748   4.823   0.436  11.151 -0.9138  0.3513 -2.3947
  144SAPE   C1115749   4.977   0.331  11.027  0.2273 -0.4792 -0.8258
  144SAPE  H11A15750   4.912   0.331  10.937 -0.5266  2.3024 -0.3691
  144SAPE  H11B15751   4.970   0.237  11.084  3.0686  0.0177  0.5429
  144SAPE     P15752   5.226   0.263  11.065 -0.0911  0.2305 -0.1079
  144SAPE   O1315753   5.360   0.316  11.038 -0.2630 -0.1488  0.2809
  144SAPE   O1415754   5.176   0.246  11.202 -0.0162 -0.2318 -0.0800
  144SAPE   O1215755   5.116   0.348  10.986  0.1388  0.4040 -0.3691
  144SAPE   O1115756   5.219   0.120  10.994 -0.0373  0.2997  0.8619
  144SAPE    C115757   5.213   0.115  10.852  0.5005  0.1575  0.4370
  144SAPE    HA15758   5.109   0.110  10.815  0.7543 -1.7670 -0.1040
  144SAPE    HB15759   5.265   0.199  10.801  3.7612 -0.9601  1.6685
  144SAPE    C215760   5.271  -0.021  10.798  0.1412  0.4167 -0.1984
  144SAPE    HS15761   5.210  -0.092  10.857  1.8217 -0.5598  0.4164
  144SAPE   O2115762   5.410  -0.014  10.832 -0.1990 -0.1051 -0.2338
  144SAPE   C2115763   5.458  -0.132  10.873 -0.4793 -0.3090  0.1822
  144SAPE   O2215764   5.393  -0.226  10.924 -0.2926 -0.5240  0.2207
  144SAPE   C2215765   5.603  -0.143  10.848 -0.2749 -0.0689 -0.0571
  144SAPE   H2R15766   5.658  -0.046  10.847  1.4619 -1.0123  0.1638
  144SAPE   H2S15767   5.642  -0.208  10.929 -3.1202 -1.8881 -0.0019
  144SAPE    C315768   5.244  -0.046  10.649 -0.5703  0.1640  0.9737
  144SAPE    HX15769   5.286   0.030  10.580  1.4152 -2.4928 -0.9483
  144SAPE    HY15770   5.133  -0.044  10.643 -0.5464  0.1025  0.4358
  144SAPE   O3115771   5.291  -0.173  10.600 -0.0751 -0.3748  0.1185
  144SAPE   C3115772   5.223  -0.230  10.504 -0.0965  0.4066  0.0777
  144SAPE   O3215773   5.116  -0.195  10.456  0.0372 -0.1623  0.1857
  144SAPE   C3215774   5.308  -0.355  10.466  0.8404  0.0054  0.1426
  144SAPE   H2X15775   5.306  -0.432  10.547  0.5938  0.1500  0.2745
  144SAPE   H2Y15776   5.411  -0.317  10.450  0.8137  0.4173  0.8743
  144SAPE   C2315777   5.630  -0.210  10.714  0.4138  0.1872  0.5863
  144SAPE   H3R15778   5.565  -0.298  10.695  0.4018  0.8027 -2.7396
  144SAPE   H3S15779   5.731  -0.258  10.718  1.0756  1.4390 -0.4286
  144SAPE   C2415780   5.636  -0.108  10.603  0.6028  0.1686  0.5806
  144SAPE   H4R15781   5.733  -0.055  10.610 -0.1781  1.4661  2.2226
  144SAPE   H4S15782   5.554  -0.033  10.611  1.2851  1.0433 -0.3207
  144SAPE   C2515783   5.636  -0.180  10.476 -0.2237 -0.1064  0.2481
  144SAPE   H5R15784   5.665  -0.286  10.479  2.3902  0.4113 -2.4828
  144SAPE   C2615785   5.618  -0.120  10.353 -0.0596  0.1145  0.5949
  144SAPE   H6R15786   5.637  -0.186  10.267  1.3298 -0.2254  1.1351
  144SAPE   C2715787   5.582   0.025  10.326  0.3422 -0.2749 -0.1961
  144SAPE   H7R15788   5.600   0.090  10.414  0.3386 -0.2502 -0.2139
  144SAPE   H7S15789   5.474   0.031  10.302  0.8855  2.1469 -2.5368
  144SAPE   C2815790   5.658   0.072  10.212 -0.2804  0.3041  0.3608
  144SAPE   H8R15791   5.762   0.100  10.232  0.5944 -2.2675 -0.2569
  144SAPE   C2915792   5.612   0.080  10.087 -0.4998 -0.2833  0.0642
  144SAPE   H9R15793   5.689   0.115  10.017  1.6073 -0.3769  2.2130
  144SAPE  C21015794   5.476   0.065  10.033  0.3645  0.1429 -0.2289
  144SAPE  H10R15795   5.468   0.125   9.940  0.1472 -0.5097 -0.6435
  144SAPE  H10S15796   5.412   0.119  10.106 -0.5204  1.5375 -1.9831
  144SAPE  C21115797   5.419  -0.068  10.028  1.2189 -0.3908 -0.1911
  144SAPE  H11R15798   5.437  -0.116  10.125  0.6869 -1.6659 -0.6947
  144SAPE  C21215799   5.349  -0.134   9.930 -0.4132  0.3874  0.1327
  144SAPE  H12R15800   5.313  -0.234   9.955 -2.8844  1.1322 -0.1832
  144SAPE  C21315801   5.313  -0.080   9.792 -1.0874 -0.1560 -0.0174
  144SAPE  H13R15802   5.396  -0.014   9.759 -0.0580 -0.6507  1.4908
  144SAPE  H13S15803   5.225  -0.013   9.805 -0.5500  0.1907  2.1809
  144SAPE  C21415804   5.278  -0.194   9.693 -0.2335  0.6972 -0.1601
  144SAPE  H14R15805   5.263  -0.296   9.732 -2.8167  0.6119 -1.1783
  144SAPE  C21515806   5.268  -0.186   9.565  0.5616 -0.2343  0.3710
  144SAPE  H15R15807   5.240  -0.267   9.495 -0.4240  2.5011 -2.6434
  144SAPE  C21615808   5.277  -0.060   9.487 -0.4100  0.3979  0.3448
  144SAPE  H16R15809   5.249   0.023   9.555  0.3736  0.3333  0.7543
  144SAPE  H16S15810   5.212  -0.045   9.398  0.2737  0.4709 -0.1559
  144SAPE  C21715811   5.427  -0.046   9.452 -0.2109  0.2728  0.3516
  144SAPE  H17R15812   5.458  -0.130   9.386 -2.1731  0.3644 -0.7673
  144SAPE  H17S15813   5.493  -0.036   9.541  0.5539  1.5615 -0.3310
  144SAPE  C21815814   5.458   0.081   9.373  0.5091  0.3438  0.2583
  144SAPE  H18R15815   5.453   0.169   9.440 -0.3175  0.8919 -0.5089
  144SAPE  H18S15816   5.379   0.099   9.297  1.0406 -0.7839 -0.6091
  144SAPE  C21915817   5.596   0.072   9.306 -1.0524  0.0726 -0.4522
  144SAPE  H19R15818   5.630  -0.031   9.280  0.4873  0.3438  0.4167
  144SAPE  H19S15819   5.677   0.111   9.370 -1.2528  1.4199 -0.9957
  144SAPE  C22015820   5.588   0.157   9.178  0.0701  0.1369 -0.1025
  144SAPE  H20R15821   5.504   0.129   9.111 -0.3760 -2.5226  1.3915
  144SAPE  H20S15822   5.684   0.149   9.122  0.5774  0.1337  0.7377
  144SAPE  H20T15823   5.581   0.265   9.203  0.7050  0.8293 -2.6109
  144SAPE   C3315824   5.231  -0.431  10.351  0.8155  0.2817 -0.0755
  144SAPE   H3X15825   5.189  -0.357  10.279 -1.0637 -0.9780 -0.3346
  144SAPE   H3Y15826   5.136  -0.477  10.386  1.3075  0.3748  1.4438
  144SAPE   C3415827   5.313  -0.523  10.281  0.0445 -0.2309 -0.6573
  144SAPE   H4X15828   5.372  -0.586  10.351 -1.4700 -0.4437  0.4847
  144SAPE   H4Y15829   5.393  -0.463  10.233  0.4280 -1.9714 -2.2968
  144SAPE   C3515830   5.262  -0.593  10.153  0.3501  0.2156 -0.1804
  144SAPE   H5X15831   5.235  -0.528  10.067  1.1714 -1.1495 -1.5082
  144SAPE   H5Y15832   5.173  -0.655  10.179 -0.4052  1.2067 -0.3258
  144SAPE   C3615833   5.370  -0.692  10.098 -0.0853  0.1192  0.2655
  144SAPE   H6X15834   5.392  -0.783  10.158 -0.8716 -2.0921 -2.5582
  144SAPE   H6Y15835   5.462  -0.633  10.082 -0.1534  0.1572  0.0167
  144SAPE   C3715836   5.319  -0.749   9.967  0.0648 -0.5055 -0.6776
  144SAPE   H7X15837   5.223  -0.803   9.986 -0.7305 -0.1295 -3.2192
  144SAPE   H7Y15838   5.395  -0.819   9.926  0.3670  0.8496 -2.5716
  144SAPE   C3815839   5.292  -0.647   9.849  0.2166  0.1006  0.3145
  144SAPE   H8X15840   5.369  -0.568   9.856  0.2089  0.1138  0.2484
  144SAPE   H8Y15841   5.194  -0.594   9.854  1.2717  2.0534  1.2804
  144SAPE   C3915842   5.305  -0.714   9.707  0.5549  0.2166 -0.0174
  144SAPE   H9X15843   5.227  -0.792   9.690  1.7863 -1.0870  0.1023
  144SAPE   H9Y15844   5.400  -0.771   9.693 -0.5466 -1.3057 -1.7848
  144SAPE  C31015845   5.299  -0.610   9.588 -0.6597 -0.1820 -0.6863
  144SAPE  H10X15846   5.379  -0.534   9.606 -0.4335 -0.4533 -0.5266
  144SAPE  H10Y15847   5.201  -0.559   9.589 -0.1296  0.8798  0.5450
  144SAPE  C31115848   5.321  -0.673   9.453  0.7984 -0.4604  0.1586
  144SAPE  H11X15849   5.235  -0.741   9.441 -1.3506  1.7198  2.1440
  144SAPE  H11Y15850   5.420  -0.724   9.449  1.4980  0.9362 -2.6908
  144SAPE  C31215851   5.324  -0.564   9.343 -0.0850  0.8121  0.0313
  144SAPE  H12X15852   5.397  -0.488   9.377  0.8572  1.1493 -2.4993
  144SAPE  H12Y15853   5.227  -0.510   9.347  0.5733  1.9762  0.5622
  144SAPE  C31315854   5.359  -0.621   9.206 -0.5510  0.4408  0.3110
  144SAPE  H13X15855   5.278  -0.683   9.161  0.5296 -0.1726 -0.8530
  144SAPE  H13Y15856   5.437  -0.700   9.214 -0.2826  0.3243 -2.3726
  144SAPE  C31415857   5.417  -0.523   9.107 -0.0597 -0.0459 -0.3546
  144SAPE  H14X15858   5.480  -0.560   9.024 -2.3424  0.2270 -2.3183
  144SAPE  H14Y15859   5.466  -0.440   9.162 -2.4080  1.8424 -0.9392
  144SAPE  C31515860   5.298  -0.473   9.022 -1.1045 -0.5203  1.2386
  144SAPE  H15X15861   5.200  -0.485   9.074 -0.9730  2.3677  2.2991
  144SAPE  H15Y15862   5.289  -0.540   8.934 -1.7935  0.6560  0.3978
  144SAPE  C31615863   5.302  -0.330   8.967 -0.4403 -0.1410 -0.6480
  144SAPE  H16X15864   5.213  -0.314   8.902 -1.2992 -1.2592  0.2053
  144SAPE  H16Y15865   5.395  -0.323   8.906 -1.1600 -2.8777 -2.2124
  144SAPE  C31715866   5.292  -0.225   9.080 -0.7171 -0.1469  0.0673
  144SAPE  H17X15867   5.372  -0.246   9.153 -1.0019  1.2369  0.8028
  144SAPE  H17Y15868   5.198  -0.243   9.137 -0.2252 -1.8627  0.4130
  144SAPE  C31815869   5.290  -0.079   9.038  0.3906  0.5539  0.1975
  144SAPE  H18X15870   5.229  -0.071   8.946  1.1314 -0.0395 -0.3538
  144SAPE  H18Y15871   5.393  -0.050   9.007  0.1707  1.4435  0.2495
  144SAPE  H18Z15872   5.254  -0.015   9.121 -0.2908 -0.9017  1.0533
  145SAPE     N15873   0.897   1.696  11.258 -0.6947 -0.8085 -0.3348
  145SAPE   HN115874   0.922   1.792  11.290 -1.4248 -0.1377 -1.6965
  145SAPE   HN215875   0.980   1.667  11.202 -0.8137  0.4229 -1.1758
  145SAPE   HN315876   0.815   1.699  11.194 -2.1433  2.7269  1.4310
  145SAPE   C1215877   0.857   1.610  11.375 -0.2681  0.8577 -0.5746
  145SAPE  H12A15878   0.757   1.641  11.411 -0.1306  0.1407  0.4805
  145SAPE  H12B15879   0.935   1.633  11.451 -1.2321 -0.7266  0.9812
  145SAPE   C1115880   0.842   1.463  11.320  0.3748  0.2517  1.1503
  145SAPE  H11A15881   0.822   1.396  11.406  0.6051 -2.6408 -0.9190
  145SAPE  H11B15882   0.937   1.427  11.276 -0.2586 -2.1320  1.6009
  145SAPE     P15883   0.702   1.309  11.170  0.1008 -0.3994 -0.0722
  145SAPE   O1315884   0.756   1.208  11.266 -0.5822  0.3447  0.3294
  145SAPE   O1415885   0.557   1.304  11.147  0.5403 -0.5285  0.5148
  145SAPE   O1215886   0.739   1.452  11.227  0.0995  0.0401 -0.5986
  145SAPE   O1115887   0.778   1.307  11.034 -0.0820  0.4810 -0.5004
  145SAPE    C115888   0.743   1.406  10.937  0.1022  0.7483 -0.7583
  145SAPE    HA15889   0.684   1.492  10.976  1.7400  0.9677  1.4251
  145SAPE    HB15890   0.840   1.456  10.914  1.1988 -1.2363 -0.6533
  145SAPE    C215891   0.688   1.345  10.811  0.1442  0.0721  0.2692
  145SAPE    HS15892   0.600   1.280  10.831 -0.1627  0.3376 -0.1840
  145SAPE   O2115893   0.798   1.267  10.760 -0.1381 -0.3066 -0.1877
  145SAPE   C2115894   0.772   1.167  10.683 -1.0630 -0.3071  0.1712
  145SAPE   O2215895   0.653   1.140  10.654 -0.6911 -0.1594  0.1384
  145SAPE   C2215896   0.896   1.108  10.628 -0.3590 -0.6154  0.0427
  145SAPE   H2R15897   0.983   1.165  10.666 -2.6246  1.8806  1.9035
  145SAPE   H2S15898   0.905   1.001  10.656  0.2052  0.3849  4.3403
  145SAPE    C315899   0.649   1.468  10.720 -0.1013 -0.4888  0.2427
  145SAPE    HX15900   0.748   1.502  10.682  0.5511 -0.8245  1.6036
  145SAPE    HY15901   0.595   1.552  10.768 -0.2752  0.0149 -0.8000
  145SAPE   O3115902   0.584   1.424  10.599  0.1362  0.3159 -0.1222
  145SAPE   C3115903   0.459   1.380  10.610 -0.1690 -0.2441  1.1441
  145SAPE   O3215904   0.376   1.396  10.697 -0.2616 -0.4023 -0.2735
  145SAPE   C3215905   0.418   1.298  10.479  0.1560 -0.1105 -0.2595
  145SAPE   H2X15906   0.313   1.327  10.459  0.6244  0.9123 -1.3344
  145SAPE   H2Y15907   0.421   1.190  10.506  0.0921 -0.0861 -0.1578
  145SAPE   C2315908   0.890   1.127  10.469 -0.6457  0.6323 -0.2952
  145SAPE   H3R15909   0.797   1.076  10.435  1.1642 -2.8314 -0.5196
  145SAPE   H3S15910   0.970   1.066  10.421 -1.7249 -1.5892  0.5431
  145SAPE   C2415911   0.889   1.271  10.412 -0.1831 -0.3195  0.2323
  145SAPE   H4R15912   0.836   1.337  10.484  1.1045  1.2302 -0.1739
  145SAPE   H4S15913   0.840   1.288  10.314  0.9526 -0.1190 -0.3173
  145SAPE   C2515914   1.031   1.330  10.416  0.7190  0.7468 -0.5321
  145SAPE   H5R15915   1.053   1.387  10.507  0.5838  1.2018 -0.7828
  145SAPE   C2615916   1.120   1.317  10.315 -0.2823  0.4627  0.2820
  145SAPE   H6R15917   1.219   1.358  10.337  0.3858 -1.1404  0.4145
  145SAPE   C2715918   1.102   1.243  10.181 -0.9563 -0.1028 -0.2134
  145SAPE   H7R15919   1.057   1.142  10.194 -1.0342  0.0142  0.4543
  145SAPE   H7S15920   1.207   1.223  10.152 -0.2499  0.5095  1.7323
  145SAPE   C2815921   1.019   1.325  10.083  0.6119 -0.2568 -0.7422
  145SAPE   H8R15922   1.011   1.431  10.111  2.3963 -0.0201 -1.0023
  145SAPE   C2915923   0.956   1.263   9.979 -0.0628  0.0936 -0.8808
  145SAPE   H9R15924   0.904   1.329   9.908 -0.4859 -0.3662 -1.0026
  145SAPE  C21015925   0.966   1.118   9.937 -0.2574 -0.3957  0.1701
  145SAPE  H10R15926   1.053   1.064   9.980  0.3125  0.9365  0.7405
  145SAPE  H10S15927   0.994   1.132   9.830 -0.4361  0.5209  0.2360
  145SAPE  C21115928   0.838   1.041   9.948  0.6223 -0.5113  0.2682
  145SAPE  H11R15929   0.766   1.065  10.028 -0.0305 -0.3805 -0.3494
  145SAPE  C21215930   0.801   0.953   9.856 -0.2927  0.6400 -0.1512
  145SAPE  H12R15931   0.703   0.904   9.866 -0.5663  1.1096 -0.5186
  145SAPE  C21315932   0.881   0.902   9.738  0.5392  0.2896 -0.6207
  145SAPE  H13R15933   0.848   0.796   9.727 -0.5534  0.5441  0.0663
  145SAPE  H13S15934   0.987   0.895   9.770  0.2233 -0.5652  0.2792
  145SAPE  C21415935   0.877   0.989   9.612  0.1321 -0.4390 -0.4616
  145SAPE  H14R15936   0.831   1.088   9.626  3.8567  1.3130  0.7891
  145SAPE  C21515937   0.942   0.955   9.499  0.6552  0.7244 -0.2322
  145SAPE  H15R15938   0.938   1.017   9.408  1.8655 -0.3803 -1.0666
  145SAPE  C21615939   1.027   0.823   9.488  0.0874 -0.8937  0.4471
  145SAPE  H16R15940   1.008   0.753   9.572 -0.7414  0.6565  1.5951
  145SAPE  H16S15941   1.133   0.853   9.498  0.7690 -2.5009 -1.2713
  145SAPE  C21715942   1.006   0.739   9.359 -0.4175 -0.0704 -0.9877
  145SAPE  H17R15943   1.095   0.672   9.352 -0.0927  0.2083  0.1984
  145SAPE  H17S15944   1.002   0.814   9.278 -1.8498 -1.3920 -2.2053
  145SAPE  C21815945   0.872   0.668   9.332 -0.0130 -0.3139  0.3202
  145SAPE  H18R15946   0.851   0.682   9.223 -1.5023  0.5664  0.6878
  145SAPE  H18S15947   0.799   0.725   9.393  0.7079  0.2382  0.6742
  145SAPE  C21915948   0.856   0.522   9.372  0.3619 -0.9410 -0.6840
  145SAPE  H19R15949   0.873   0.497   9.479 -1.6775  0.8431  0.1322
  145SAPE  H19S15950   0.920   0.454   9.313 -0.5812  0.5204 -3.5890
  145SAPE  C22015951   0.708   0.486   9.343 -0.5889  0.2462 -0.0692
  145SAPE  H20R15952   0.639   0.564   9.383  1.2704  0.9742  1.8789
  145SAPE  H20S15953   0.682   0.387   9.386  0.7948 -0.6002 -1.1259
  145SAPE  H20T15954   0.689   0.481   9.234 -0.9886  0.9661 -0.0376
  145SAPE   C3315955   0.507   1.333  10.357 -0.4223  0.7805  0.0738
  145SAPE   H3X15956   0.613   1.308  10.379 -0.0417  1.5899 -0.7814
  145SAPE   H3Y15957   0.514   1.440  10.329  0.0139  0.3167 -1.7225
  145SAPE   C3415958   0.462   1.257  10.228  0.4964 -0.4296  0.0289
  145SAPE   H4X15959   0.355   1.276  10.204  0.8411 -2.5772 -4.2290
  145SAPE   H4Y15960   0.485   1.149  10.242 -0.5921 -0.7997 -0.9089
  145SAPE   C3515961   0.543   1.309  10.107 -0.3272  0.4782  0.0890
  145SAPE   H5X15962   0.650   1.284  10.125 -0.5757 -0.4928  0.2692
  145SAPE   H5Y15963   0.544   1.420  10.099  2.9910  0.8070  2.5794
  145SAPE   C3615964   0.506   1.242   9.975 -0.0298 -0.2235  0.5859
  145SAPE   H6X15965   0.396   1.240   9.967 -0.0410  0.1338  0.6357
  145SAPE   H6Y15966   0.528   1.133   9.978 -0.6960 -0.4418 -1.0256
  145SAPE   C3715967   0.564   1.311   9.848 -0.5458  0.0892  1.3335
  145SAPE   H7X15968   0.674   1.322   9.851 -0.7093  1.8298  1.6516
  145SAPE   H7Y15969   0.532   1.417   9.838  0.7809  0.4515  0.7033
  145SAPE   C3815970   0.524   1.240   9.715 -0.2528  0.3479 -0.0715
  145SAPE   H8X15971   0.414   1.227   9.703 -0.3464  0.0882  0.9522
  145SAPE   H8Y15972   0.556   1.133   9.715  2.8553  1.1934 -0.5457
  145SAPE   C3915973   0.589   1.314   9.582 -0.6537 -0.1701  0.1687
  145SAPE   H9X15974   0.698   1.329   9.595 -0.6504  0.2621 -0.3178
  145SAPE   H9Y15975   0.534   1.410   9.566 -0.9870 -0.2481  0.8335
  145SAPE  C31015976   0.574   1.223   9.466  0.0056  0.0321 -0.8015
  145SAPE  H10X15977   0.466   1.221   9.444  0.2703  0.4122 -2.2318
  145SAPE  H10Y15978   0.601   1.117   9.485  0.5440  0.5492  1.6654
  145SAPE  C31115979   0.643   1.276   9.339  0.6296  0.6733  0.3864
  145SAPE  H11X15980   0.753   1.292   9.342  0.7734  0.1170 -1.1872
  145SAPE  H11Y15981   0.582   1.365   9.314 -1.5705 -1.1476 -1.1676
  145SAPE  C31215982   0.628   1.187   9.211 -0.0809 -0.2261  0.0835
  145SAPE  H12X15983   0.522   1.166   9.184 -0.7151  2.2555  0.4033
  145SAPE  H12Y15984   0.677   1.090   9.235  2.2130  0.8917  0.1867
  145SAPE  C31315985   0.697   1.255   9.084  0.1827  0.4270 -0.2171
  145SAPE  H13X15986   0.800   1.283   9.115 -0.4313 -0.6022  3.1352
  145SAPE  H13Y15987   0.643   1.347   9.052  0.8869  0.6035 -0.9356
  145SAPE  C31415988   0.696   1.151   8.963 -0.0902 -0.6143 -0.0712
  145SAPE  H14X15989   0.742   1.055   8.993  0.3726  0.5167  3.1970
  145SAPE  H14Y15990   0.755   1.195   8.880 -0.4901  0.0760 -0.0021
  145SAPE  C31515991   0.553   1.111   8.914 -0.4220  0.5686 -0.4465
  145SAPE  H15X15992   0.496   1.198   8.875 -0.1729  0.6203 -0.6968
  145SAPE  H15Y15993   0.497   1.072   9.002  0.2189  0.9861  0.1496
  145SAPE  C31615994   0.562   1.014   8.796  0.2147  0.8285  0.2751
  145SAPE  H16X15995   0.604   0.919   8.834 -2.9042 -0.7180  0.1703
  145SAPE  H16Y15996   0.624   1.055   8.713  3.6977 -0.7250  1.9130
  145SAPE  C31715997   0.426   0.966   8.734 -0.7934 -0.8091  0.3169
  145SAPE  H17X15998   0.450   0.882   8.665 -0.4590 -0.1221 -0.4206
  145SAPE  H17Y15999   0.396   1.054   8.673  3.3528  3.4021  3.6258
  145SAPE  C31816000   0.325   0.913   8.839  0.2286 -0.0575  0.6634
  145SAPE  H18X16001   0.240   0.858   8.791  2.3006 -2.6342 -0.3173
  145SAPE  H18Y16002   0.287   0.991   8.908 -1.2686 -3.7391  4.5172
  145SAPE  H18Z16003   0.369   0.852   8.921 -1.8882 -0.3243  1.6749
  146SAPE     N16004   5.231   5.982  11.196  0.7144  0.3052 -0.1220
  146SAPE   HN116005   5.240   6.016  11.294 -1.4694 -0.2181  0.3255
  146SAPE   HN216006   5.139   6.013  11.159  0.4244  1.4780  1.4905
  146SAPE   HN316007   5.226   5.878  11.193 -0.1923  0.3543 -0.6683
  146SAPE   C1216008   5.319   6.033  11.094 -0.1698 -0.3695 -0.5174
  146SAPE  H12A16009   5.422   6.046  11.135 -0.2533  1.3986 -0.8056
  146SAPE  H12B16010   5.292   6.132  11.052  1.5921  0.6951  0.6903
  146SAPE   C1116011   5.324   5.935  10.981 -0.4705 -0.4020  0.1802
  146SAPE  H11A16012   5.393   5.971  10.903 -1.9825 -0.8682 -1.4340
  146SAPE  H11B16013   5.220   5.946  10.944 -0.6248 -1.7198  0.1597
  146SAPE     P16014   5.460   5.710  10.982  0.0672  0.2175 -0.3969
  146SAPE   O1316015   5.582   5.791  11.019  0.2405 -0.0778 -0.5765
  146SAPE   O1416016   5.452   5.581  11.049 -0.1844 -0.3168  0.1798
  146SAPE   O1216017   5.327   5.794  11.010  0.4272 -0.0675 -0.1814
  146SAPE   O1116018   5.463   5.681  10.828  0.4906 -0.3526  0.7381
  146SAPE    C116019   5.355   5.631  10.749  0.4918 -0.9357 -0.7712
  146SAPE    HA16020   5.269   5.700  10.761  1.7427  0.3625  1.4065
  146SAPE    HB16021   5.390   5.630  10.644  1.6669 -0.6723 -0.3971
  146SAPE    C216022   5.303   5.487  10.772  0.5469 -0.0179 -0.6819
  146SAPE    HS16023   5.262   5.494  10.876 -0.7017 -0.2675 -1.1418
  146SAPE   O2116024   5.412   5.401  10.757 -0.5642 -0.1241 -0.1990
  146SAPE   C2116025   5.408   5.283  10.815  0.2451  0.6642 -0.2768
  146SAPE   O2216026   5.309   5.240  10.878  0.1392 -0.3100 -0.0112
  146SAPE   C2216027   5.551   5.209  10.790 -0.1391  0.4595 -0.0004
  146SAPE   H2R16028   5.609   5.270  10.717 -0.1839  2.0204  1.2007
  146SAPE   H2S16029   5.617   5.218  10.879 -1.2732 -0.2504  0.9378
  146SAPE    C316030   5.181   5.455  10.677  0.0309  0.5547 -0.1930
  146SAPE    HX16031   5.106   5.534  10.700 -1.0349 -0.9917  1.9065
  146SAPE    HY16032   5.142   5.354  10.698 -0.4629  0.7350 -0.2410
  146SAPE   O3116033   5.218   5.465  10.538  0.0645  0.4113 -0.2857
  146SAPE   C3116034   5.275   5.359  10.481  0.7927 -0.3116 -0.3193
  146SAPE   O3216035   5.289   5.253  10.528 -0.0050 -0.1568  0.0432
  146SAPE   C3216036   5.317   5.402  10.343 -0.0229  0.0217 -0.5647
  146SAPE   H2X16037   5.386   5.490  10.338 -0.1300  0.0448 -2.3264
  146SAPE   H2Y16038   5.230   5.424  10.277  0.0343  0.9696 -0.3449
  146SAPE   C2316039   5.540   5.063  10.745  0.3901 -0.1534 -0.2616
  146SAPE   H3R16040   5.490   5.050  10.647  0.4753 -2.4840 -0.0407
  146SAPE   H3S16041   5.472   5.015  10.819  0.2937 -1.4253 -1.1570
  146SAPE   C2416042   5.676   4.997  10.742 -0.1940 -0.0253 -0.4310
  146SAPE   H4R16043   5.645   4.891  10.726 -0.9707  0.3442 -1.4788
  146SAPE   H4S16044   5.720   5.020  10.842  1.0732  1.4246 -1.2820
  146SAPE   C2516045   5.771   5.028  10.627  0.5369 -0.3169 -0.2251
  146SAPE   H5R16046   5.857   5.092  10.654 -1.3824  1.7311  1.3826
  146SAPE   C2616047   5.764   4.969  10.501 -0.2385 -0.6766 -0.1725
  146SAPE   H6R16048   5.822   5.012  10.418  0.5448 -1.3133  0.0246
  146SAPE   C2716049   5.655   4.875  10.456 -0.1747  0.0239 -0.5918
  146SAPE   H7R16050   5.606   4.829  10.544 -1.4809 -1.1430 -1.8781
  146SAPE   H7S16051   5.698   4.797  10.389 -1.4168 -0.2986 -1.0440
  146SAPE   C2816052   5.550   4.939  10.371 -0.2679  0.5621  0.0285
  146SAPE   H8R16053   5.459   4.971  10.424 -0.4322  0.3255 -0.1081
  146SAPE   C2916054   5.547   4.946  10.242 -0.7507  0.2394  0.5245
  146SAPE   H9R16055   5.458   4.993  10.198 -0.4992 -1.1424 -1.6181
  146SAPE  C21016056   5.644   4.896  10.134 -0.5069  0.6056  0.5130
  146SAPE  H10R16057   5.743   4.935  10.168  1.3159 -3.3397  0.2658
  146SAPE  H10S16058   5.632   4.945  10.035  2.1074 -0.0937 -0.2427
  146SAPE  C21116059   5.666   4.742  10.112 -0.4370 -0.1071  0.2410
  146SAPE  H11R16060   5.657   4.691  10.209  2.5992 -0.3412  0.4972
  146SAPE  C21216061   5.680   4.673   9.996  0.3920  1.0681 -0.1897
  146SAPE  H12R16062   5.683   4.563   9.996 -1.0866  0.9775  1.7337
  146SAPE  C21316063   5.663   4.736   9.858 -0.4255  0.0313  0.3006
  146SAPE  H13R16064   5.767   4.764   9.830  1.3895 -2.5759  3.6806
  146SAPE  H13S16065   5.591   4.821   9.865 -0.9146 -0.3906  0.4605
  146SAPE  C21416066   5.612   4.641   9.750 -0.6352  0.0736  0.0031
  146SAPE  H14R16067   5.527   4.577   9.777  1.0163 -1.6678  1.3534
  146SAPE  C21516068   5.670   4.616   9.632  0.0245  0.3857  0.0332
  146SAPE  H15R16069   5.623   4.541   9.567  1.4033 -0.6049  0.1277
  146SAPE  C21616070   5.802   4.669   9.576 -0.0794 -0.5252  0.8840
  146SAPE  H16R16071   5.865   4.585   9.540  0.3571  0.1557  0.0048
  146SAPE  H16S16072   5.861   4.720   9.655  0.6179  0.3813 -0.1846
  146SAPE  C21716073   5.780   4.764   9.454 -0.6088  0.2368  0.3223
  146SAPE  H17R16074   5.695   4.827   9.488 -0.7223 -0.4157  1.2900
  146SAPE  H17S16075   5.742   4.706   9.368 -0.8562  0.6815  0.1270
  146SAPE  C21816076   5.903   4.847   9.416  0.3671 -0.5564  0.3273
  146SAPE  H18R16077   5.930   4.909   9.504 -0.8182 -0.2364  0.4893
  146SAPE  H18S16078   5.877   4.903   9.323 -0.3427 -1.7409 -0.2103
  146SAPE  C21916079   6.028   4.763   9.381 -0.1160 -1.1479 -0.4503
  146SAPE  H19R16080   5.994   4.693   9.302 -0.3236 -0.7176 -0.7438
  146SAPE  H19S16081   6.047   4.693   9.465  0.8114 -0.4325 -0.0561
  146SAPE  C22016082   6.149   4.840   9.340 -0.2720  0.1677 -0.1318
  146SAPE  H20R16083   6.209   4.857   9.432  1.0553 -3.4695 -0.1650
  146SAPE  H20S16084   6.138   4.932   9.279  0.2488  0.3022 -0.0293
  146SAPE  H20T16085   6.216   4.769   9.287 -0.5804 -1.3603  1.4375
  146SAPE   C3316086   5.402   5.290  10.276  0.3881 -0.5894  0.4660
  146SAPE   H3X16087   5.347   5.195  10.264  1.3688 -1.0041 -1.0441
  146SAPE   H3Y16088   5.483   5.263  10.347  1.5291  0.8324 -0.2375
  146SAPE   C3416089   5.461   5.348  10.147 -0.3122  0.2154 -0.8311
  146SAPE   H4X16090   5.552   5.293  10.112  0.7665  1.0809  0.5257
  146SAPE   H4Y16091   5.491   5.452  10.169 -3.5960  0.7655  1.7375
  146SAPE   C3516092   5.352   5.354  10.037  0.0476  0.5609  0.1785
  146SAPE   H5X16093   5.270   5.424  10.062 -0.8534 -0.2468 -0.4561
  146SAPE   H5Y16094   5.305   5.254  10.029 -0.5654  0.9291 -1.0655
  146SAPE   C3616095   5.392   5.388   9.893 -1.0932 -0.0946 -0.2807
  146SAPE   H6X16096   5.347   5.306   9.833 -0.4536  0.4334 -1.5355
  146SAPE   H6Y16097   5.503   5.384   9.891 -1.1416 -2.1660 -0.9862
  146SAPE   C3716098   5.346   5.523   9.840  0.2424 -0.8175 -0.5187
  146SAPE   H7X16099   5.376   5.601   9.914 -1.4101  1.1995 -1.8563
  146SAPE   H7Y16100   5.235   5.519   9.834  0.1332  1.0324 -0.3267
  146SAPE   C3816101   5.408   5.558   9.703 -0.2221  0.0982 -0.2154
  146SAPE   H8X16102   5.383   5.476   9.633  0.4924 -2.1548  2.0312
  146SAPE   H8Y16103   5.518   5.561   9.718 -0.4805  0.8294  1.9772
  146SAPE   C3916104   5.344   5.692   9.648 -0.0907  0.1349 -0.1648
  146SAPE   H9X16105   5.382   5.776   9.709 -0.6448 -0.0901  0.5032
  146SAPE   H9Y16106   5.233   5.693   9.654 -0.2978  0.5914 -2.7724
  146SAPE  C31016107   5.397   5.729   9.507 -0.4379 -0.6620 -0.3716
  146SAPE  H10X16108   5.345   5.821   9.470 -3.8075 -2.5472 -0.6959
  146SAPE  H10Y16109   5.375   5.656   9.427 -2.6913 -0.8046  0.3113
  146SAPE  C31116110   5.545   5.776   9.513  1.0841  0.5329  0.2694
  146SAPE  H11X16111   5.598   5.688   9.556  0.1341 -0.6078 -0.8074
  146SAPE  H11Y16112   5.556   5.856   9.590 -1.6855  1.0314  0.2730
  146SAPE  C31216113   5.587   5.824   9.376 -0.6956 -0.2407 -0.1169
  146SAPE  H12X16114   5.508   5.884   9.324 -1.3119 -0.3986  0.6190
  146SAPE  H12Y16115   5.583   5.733   9.312 -1.5260 -1.1908  1.2298
  146SAPE  C31316116   5.724   5.889   9.386  0.1846  0.2325  0.1719
  146SAPE  H13X16117   5.786   5.812   9.436 -1.1902 -1.5674 -0.7669
  146SAPE  H13Y16118   5.718   5.970   9.462  2.6692  1.3497 -0.7362
  146SAPE  C31416119   5.784   5.936   9.257 -0.1603  0.1358  0.2391
  146SAPE  H14X16120   5.710   6.003   9.207  0.6419  3.2341  2.8647
  146SAPE  H14Y16121   5.810   5.846   9.198  0.8656 -0.1626  1.1128
  146SAPE  C31516122   5.916   6.014   9.271  0.4868  1.6980 -0.0743
  146SAPE  H15X16123   5.993   5.939   9.300  0.0222  1.1709 -0.1837
  146SAPE  H15Y16124   5.905   6.090   9.352  2.7130  1.0436  0.9139
  146SAPE  C31616125   5.978   6.086   9.150 -0.0296  0.6069 -0.2417
  146SAPE  H16X16126   6.086   6.095   9.175  0.6562 -0.8284 -2.3778
  146SAPE  H16Y16127   5.930   6.185   9.136 -0.3954  0.2296 -1.8024
  146SAPE  C31716128   5.972   6.011   9.018  0.2354  0.5389  1.0482
  146SAPE  H17X16129   5.867   6.008   8.982  1.0502 -1.2140 -1.4985
  146SAPE  H17Y16130   6.006   5.906   9.025  2.4512  1.2978  2.4517
  146SAPE  C31816131   6.048   6.097   8.914  0.5815  0.5815 -0.3972
  146SAPE  H18X16132   6.046   6.042   8.818  0.4549 -0.4821  0.1953
  146SAPE  H18Y16133   6.154   6.106   8.948 -0.0164 -0.8602  2.1573
  146SAPE  H18Z16134   5.999   6.194   8.894  1.9134  1.7128  1.4124
  147SAPE     N16135   2.349   5.194   6.203  0.0209 -0.7047  0.3463
  147SAPE   HN116136   2.300   5.267   6.148  4.7929  1.9443 -0.8507
  147SAPE   HN216137   2.384   5.120   6.139 -1.1877  0.3686 -1.6456
  147SAPE   HN316138   2.281   5.150   6.269 -0.5822 -0.0496  0.1762
  147SAPE   C1216139   2.456   5.259   6.271  0.0548 -0.2785 -0.2727
  147SAPE  H12A16140   2.415   5.343   6.331 -1.7899 -0.9992 -0.4753
  147SAPE  H12B16141   2.534   5.291   6.198 -0.8449 -2.6782 -2.4316
  147SAPE   C1116142   2.523   5.165   6.372  0.1831 -0.6399  0.2142
  147SAPE  H11A16143   2.448   5.136   6.449  0.3696  1.1040  1.0866
  147SAPE  H11B16144   2.597   5.221   6.432 -1.6692  1.0279  1.0614
  147SAPE     P16145   2.527   4.916   6.307 -0.0160 -0.0050  0.1853
  147SAPE   O1316146   2.381   4.937   6.299 -0.3851  0.4943 -0.1125
  147SAPE   O1416147   2.589   4.824   6.208 -0.3573  0.2265 -0.2061
  147SAPE   O1216148   2.587   5.059   6.296  0.3019  0.1185 -0.2422
  147SAPE   O1116149   2.567   4.865   6.449  0.4224  0.5897 -0.9614
  147SAPE    C116150   2.704   4.880   6.499  0.1628  0.0519 -0.1336
  147SAPE    HA16151   2.763   4.787   6.482  0.3954  0.6718 -3.4016
  147SAPE    HB16152   2.763   4.959   6.448  0.9832  0.2262  1.0604
  147SAPE    C216153   2.714   4.931   6.646 -0.0017 -0.2888 -0.4578
  147SAPE    HS16154   2.822   4.944   6.670  0.2951 -1.9630 -0.7595
  147SAPE   O2116155   2.671   4.821   6.732  0.1327 -0.5046  0.2851
  147SAPE   C2116156   2.752   4.722   6.749  0.2657  0.6342 -0.3630
  147SAPE   O2216157   2.868   4.724   6.720  0.1048 -0.1611 -0.0652
  147SAPE   C2216158   2.683   4.604   6.799  0.2251  0.5416 -0.5180
  147SAPE   H2R16159   2.574   4.610   6.779  0.3125  1.2483 -0.8115
  147SAPE   H2S16160   2.707   4.520   6.731 -1.5167 -0.9300  0.5829
  147SAPE    C316161   2.626   5.056   6.664 -0.2935 -0.8664  0.2736
  147SAPE    HX16162   2.523   5.023   6.642 -0.1586 -1.2618  0.2329
  147SAPE    HY16163   2.657   5.130   6.587 -2.7071  2.7032  2.4334
  147SAPE   O3116164   2.634   5.115   6.800 -0.3991  1.1750  0.1288
  147SAPE   C3116165   2.569   5.220   6.819  0.3946 -0.0083 -0.8997
  147SAPE   O3216166   2.517   5.294   6.735  0.3351 -0.1918 -0.0572
  147SAPE   C3216167   2.562   5.249   6.973  0.0497 -0.2593 -0.1572
  147SAPE   H2X16168   2.652   5.217   7.030 -0.9244  1.0469  2.2721
  147SAPE   H2Y16169   2.474   5.200   7.020 -0.7170  2.5289  1.6030
  147SAPE   C2316170   2.719   4.561   6.948  0.3974 -0.1370 -0.1905
  147SAPE   H3R16171   2.661   4.631   7.011 -2.1643 -1.1160 -1.3288
  147SAPE   H3S16172   2.830   4.570   6.950  0.4737 -1.0146 -0.0520
  147SAPE   C2416173   2.690   4.416   6.992  0.1859 -0.1331 -0.1833
  147SAPE   H4R16174   2.584   4.385   6.998  0.6780 -1.5955  2.6857
  147SAPE   H4S16175   2.721   4.424   7.099  1.7854 -1.4131 -0.5084
  147SAPE   C2516176   2.779   4.315   6.921  0.7327  0.1750 -0.0395
  147SAPE   H5R16177   2.783   4.325   6.811 -0.8511 -0.1046 -0.1421
  147SAPE   C2616178   2.872   4.237   6.976 -0.3221  0.0379 -0.1138
  147SAPE   H6R16179   2.929   4.168   6.912  1.0075  0.1323  0.9219
  147SAPE   C2716180   2.896   4.234   7.129  0.2365  0.6869  0.2084
  147SAPE   H7R16181   2.809   4.270   7.187 -0.2982  2.2478 -1.4723
  147SAPE   H7S16182   2.984   4.297   7.152  0.4652  0.1535  0.8095
  147SAPE   C2816183   2.944   4.099   7.170  0.4676 -0.4176 -0.1674
  147SAPE   H8R16184   2.962   4.028   7.088 -1.2266 -1.6364  0.4577
  147SAPE   C2916185   2.961   4.057   7.297 -0.5346  0.1016  0.0084
  147SAPE   H9R16186   3.000   3.956   7.312  1.5532  0.9379  0.5458
  147SAPE  C21016187   2.942   4.139   7.420 -0.7255 -0.0721  0.2079
  147SAPE  H10R16188   2.903   4.236   7.381 -0.9926 -0.1897  0.1769
  147SAPE  H10S16189   3.037   4.133   7.476 -0.2990 -0.3887 -0.5360
  147SAPE  C21116190   2.827   4.097   7.516 -0.6762  0.2522 -0.1492
  147SAPE  H11R16191   2.737   4.048   7.473 -0.5730  0.1087 -0.2036
  147SAPE  C21216192   2.819   4.115   7.648 -0.2999  0.1095 -0.6986
  147SAPE  H12R16193   2.735   4.078   7.709 -0.0671  0.0507 -0.4133
  147SAPE  C21316194   2.925   4.176   7.730 -0.6389 -0.1282  0.1151
  147SAPE  H13R16195   2.968   4.262   7.674 -1.8581  2.2041  2.5211
  147SAPE  H13S16196   3.012   4.107   7.735 -1.5182 -1.4652 -1.6930
  147SAPE  C21416197   2.884   4.237   7.858 -0.2393 -0.2195 -0.2469
  147SAPE  H14R16198   2.804   4.312   7.851 -1.0645 -1.0707 -0.1128
  147SAPE  C21516199   2.934   4.202   7.976 -0.0611  0.8665 -0.8175
  147SAPE  H15R16200   2.898   4.263   8.061  0.5583 -2.3136  1.9702
  147SAPE  C21616201   3.037   4.100   8.024 -0.4038 -0.3860 -0.3985
  147SAPE  H16R16202   3.118   4.151   8.081 -0.2732  1.0086 -1.7531
  147SAPE  H16S16203   3.080   4.047   7.937 -0.4900 -0.4496 -0.4015
  147SAPE  C21716204   2.973   3.979   8.103 -0.5939  0.5918  0.2764
  147SAPE  H17R16205   3.052   3.902   8.115 -0.5077  0.8803  1.8825
  147SAPE  H17S16206   2.899   3.931   8.036  0.9246 -2.2895  0.4922
  147SAPE  C21816207   2.910   4.013   8.234 -0.1999  1.1313  0.5588
  147SAPE  H18R16208   2.837   4.096   8.219 -0.2433  0.4986 -4.9517
  147SAPE  H18S16209   2.986   4.060   8.300  1.4697  0.9743 -1.1647
  147SAPE  C21916210   2.837   3.901   8.317 -0.1987  0.3260 -0.5286
  147SAPE  H19R16211   2.768   3.845   8.251  0.3589  1.3985 -2.0780
  147SAPE  H19S16212   2.774   3.948   8.395  0.6369  0.2182  0.2288
  147SAPE  C22016213   2.933   3.804   8.385 -0.0289  0.4507  0.2131
  147SAPE  H20R16214   3.016   3.774   8.317 -0.4225 -0.6163  0.1742
  147SAPE  H20S16215   2.886   3.710   8.421 -2.0007  0.6402 -1.6196
  147SAPE  H20T16216   2.978   3.856   8.472  1.0797 -2.5022  1.5226
  147SAPE   C3316217   2.550   5.402   6.994 -0.2458 -0.2543 -0.4447
  147SAPE   H3X16218   2.470   5.438   6.927 -0.2194 -1.1247 -0.9598
  147SAPE   H3Y16219   2.651   5.442   6.970  0.9049 -2.8140 -0.2552
  147SAPE   C3416220   2.520   5.450   7.137  0.0729 -0.6485 -0.3888
  147SAPE   H4X16221   2.496   5.558   7.133  1.8180 -0.0333  2.4751
  147SAPE   H4Y16222   2.605   5.435   7.207  0.7070  2.6062 -0.3269
  147SAPE   C3516223   2.395   5.382   7.191 -0.0540 -0.1473 -0.9220
  147SAPE   H5X16224   2.416   5.275   7.213 -1.3225 -0.1891  0.1478
  147SAPE   H5Y16225   2.324   5.392   7.106 -1.5286  1.7563  0.4494
  147SAPE   C3616226   2.350   5.455   7.313  0.0937 -0.0024 -0.0958
  147SAPE   H6X16227   2.247   5.421   7.338 -0.1501  1.0292  0.3677
  147SAPE   H6Y16228   2.352   5.565   7.293  1.6581 -0.0416 -0.2905
  147SAPE   C3716229   2.448   5.433   7.432  0.3981  0.8140  0.1144
  147SAPE   H7X16230   2.549   5.460   7.394 -0.2927  1.7104 -1.1565
  147SAPE   H7Y16231   2.452   5.324   7.452 -0.9959  0.1210 -2.9011
  147SAPE   C3816232   2.402   5.503   7.555  0.4110  0.3219 -0.0997
  147SAPE   H8X16233   2.299   5.467   7.579  1.2011 -2.0110  0.0704
  147SAPE   H8Y16234   2.392   5.612   7.537 -0.2461  0.1911 -0.5847
  147SAPE   C3916235   2.489   5.489   7.682 -0.2424  0.1443  0.3355
  147SAPE   H9X16236   2.589   5.531   7.661  0.5970 -2.3678 -1.1592
  147SAPE   H9Y16237   2.518   5.384   7.701 -1.8369 -0.5621 -0.8058
  147SAPE  C31016238   2.432   5.559   7.807 -0.0570 -0.0340  0.6840
  147SAPE  H10X16239   2.378   5.648   7.770  0.3243 -0.4645 -0.9759
  147SAPE  H10Y16240   2.519   5.598   7.865 -0.9676  0.6777  1.6104
  147SAPE  C31116241   2.339   5.464   7.886  0.0081  0.1728 -0.3497
  147SAPE  H11X16242   2.266   5.422   7.813 -1.7411  0.2974  1.2531
  147SAPE  H11Y16243   2.271   5.525   7.950 -0.6434  0.5445 -1.3805
  147SAPE  C31216244   2.389   5.338   7.972  0.1833  0.1844  0.2437
  147SAPE  H12X16245   2.467   5.280   7.919 -0.1588  0.1130 -0.1870
  147SAPE  H12Y16246   2.299   5.277   7.994  0.9316 -1.3207 -0.7200
  147SAPE  C31316247   2.457   5.397   8.101  0.0505  0.1734  0.0811
  147SAPE  H13X16248   2.522   5.486   8.086 -2.9683  2.9720  1.9908
  147SAPE  H13Y16249   2.521   5.318   8.145 -0.0919 -0.4575 -0.8328
  147SAPE  C31416250   2.357   5.432   8.218  0.6594  0.4909 -0.4596
  147SAPE  H14X16251   2.296   5.346   8.252 -0.9848  1.7191 -0.1612
  147SAPE  H14Y16252   2.282   5.506   8.180 -0.4654  0.2956  1.2778
  147SAPE  C31516253   2.431   5.485   8.342  0.2838 -0.0946  0.0679
  147SAPE  H15X16254   2.470   5.586   8.315 -2.3152  0.3576 -2.5768
  147SAPE  H15Y16255   2.516   5.415   8.357  1.0070  0.8472  0.4112
  147SAPE  C31616256   2.349   5.483   8.465  0.0675 -0.2998 -0.3548
  147SAPE  H16X16257   2.425   5.488   8.546  0.8409 -0.2536 -1.0733
  147SAPE  H16Y16258   2.301   5.384   8.481  2.1787 -1.8397 -2.8375
  147SAPE  C31716259   2.242   5.590   8.467  1.0646  0.5333  0.3490
  147SAPE  H17X16260   2.173   5.576   8.553 -0.8045  0.1198 -1.1407
  147SAPE  H17Y16261   2.174   5.579   8.380  0.6534  3.5591  0.1954
  147SAPE  C31816262   2.290   5.730   8.456  0.1187 -0.3392  0.6277
  147SAPE  H18X16263   2.353   5.750   8.367 -1.3506 -1.1918 -0.6462
  147SAPE  H18Y16264   2.362   5.756   8.537  1.1085 -2.5057  0.5083
  147SAPE  H18Z16265   2.201   5.795   8.467 -1.2157 -2.2435  1.8783
  148SAPE     N16266   6.631   3.969   6.500  0.0626  0.0421  0.2406
  148SAPE   HN116267   6.630   4.039   6.423  1.5871 -0.3438 -0.1726
  148SAPE   HN216268   6.730   3.950   6.528 -0.2987  0.3595  1.8121
  148SAPE   HN316269   6.580   3.881   6.481 -0.3217  0.7706 -2.5667
  148SAPE   C1216270   6.567   4.020   6.627 -0.0092  0.5224  0.4328
  148SAPE  H12A16271   6.473   4.074   6.602 -0.6487  0.7121  2.9346
  148SAPE  H12B16272   6.639   4.098   6.663  0.0416  0.7214 -0.0966
  148SAPE   C1116273   6.560   3.922   6.748 -0.8155  0.3166 -0.2039
  148SAPE  H11A16274   6.545   3.992   6.833 -1.2496  0.4519 -0.3874
  148SAPE  H11B16275   6.662   3.882   6.762  0.3590  3.1691  0.1848
  148SAPE     P16276   6.486   3.688   6.671 -0.2452 -0.0958  0.2490
  148SAPE   O1316277   6.349   3.617   6.666  0.1237  0.7729  0.1013
  148SAPE   O1416278   6.555   3.704   6.539  0.4611 -0.1329 -0.2261
  148SAPE   O1216279   6.458   3.821   6.731  0.0601 -0.0174 -0.5380
  148SAPE   O1116280   6.585   3.622   6.771 -0.5959  0.4983  0.3490
  148SAPE    C116281   6.562   3.530   6.870 -0.8541  0.2704 -0.2835
  148SAPE    HA16282   6.452   3.519   6.877 -0.8699 -1.4537 -2.2130
  148SAPE    HB16283   6.606   3.433   6.836 -0.4316  0.2229  0.3651
  148SAPE    C216284   6.627   3.563   7.004 -0.9238 -0.6855  0.0484
  148SAPE    HS16285   6.602   3.481   7.075 -1.7283  0.1958  0.8126
  148SAPE   O2116286   6.566   3.688   7.049 -0.0211 -0.5116 -0.8132
  148SAPE   C2116287   6.446   3.672   7.099 -0.4821  0.6743  0.2289
  148SAPE   O2216288   6.386   3.564   7.096 -0.2715 -1.0937 -0.3677
  148SAPE   C2216289   6.390   3.797   7.160  0.0009  0.1736 -0.8440
  148SAPE   H2R16290   6.475   3.851   7.207  0.0310 -0.1981 -0.4679
  148SAPE   H2S16291   6.352   3.866   7.082  0.4848  3.6826  1.7631
  148SAPE    C316292   6.781   3.591   6.992  0.3559  0.2151 -0.4486
  148SAPE    HX16293   6.800   3.674   6.920  0.1069  0.7691  0.1190
  148SAPE    HY16294   6.831   3.511   6.934 -0.5172 -1.7436  1.3637
  148SAPE   O3116295   6.849   3.591   7.117 -0.5892  0.3597  0.4204
  148SAPE   C3116296   6.955   3.675   7.118 -0.5731  0.2713  0.6671
  148SAPE   O3216297   7.005   3.726   7.020 -0.3977 -0.1277 -0.1122
  148SAPE   C3216298   7.003   3.690   7.263  0.4309 -0.2469 -0.0063
  148SAPE   H2X16299   6.955   3.609   7.322 -0.2971 -0.4189 -0.8190
  148SAPE   H2Y16300   6.966   3.784   7.309 -0.3006 -1.0959  1.2208
  148SAPE   C2316301   6.281   3.780   7.276 -0.0464 -0.1449 -0.4697
  148SAPE   H3R16302   6.337   3.724   7.354  0.8822  0.5157 -0.6504
  148SAPE   H3S16303   6.200   3.718   7.230 -1.6047  0.4465  1.3648
  148SAPE   C2416304   6.247   3.919   7.329 -0.3888 -0.0968 -0.0795
  148SAPE   H4R16305   6.212   3.977   7.241  0.0182 -1.2649 -1.0263
  148SAPE   H4S16306   6.342   3.965   7.362 -0.3979  0.2683 -0.5606
  148SAPE   C2516307   6.134   3.916   7.425  0.3443  0.8945 -0.2156
  148SAPE   H5R16308   6.033   3.924   7.382  0.0024 -4.2782 -1.0273
  148SAPE   C2616309   6.157   3.905   7.561 -0.1570 -1.1634  0.2713
  148SAPE   H6R16310   6.070   3.904   7.629 -0.1496  1.9116  0.4711
  148SAPE   C2716311   6.284   3.887   7.631 -0.8939  0.1920 -0.0127
  148SAPE   H7R16312   6.324   3.987   7.658  0.4383 -0.1350 -0.6880
  148SAPE   H7S16313   6.360   3.843   7.563 -0.3211 -0.5186  1.0562
  148SAPE   C2816314   6.285   3.794   7.748  0.1101 -0.2180  0.7143
  148SAPE   H8R16315   6.302   3.688   7.725 -1.3883 -0.4251  0.4471
  148SAPE   C2916316   6.251   3.834   7.873 -0.7576  0.0572 -0.0010
  148SAPE   H9R16317   6.261   3.753   7.946  0.5922  0.7858  0.6582
  148SAPE  C21016318   6.221   3.971   7.922 -0.1540 -0.0897 -0.2933
  148SAPE  H10R16319   6.222   4.047   7.841  0.7738  0.5544  0.2960
  148SAPE  H10S16320   6.300   4.004   7.993 -2.2028  0.0146  2.0832
  148SAPE  C21116321   6.086   3.966   7.979 -0.4748 -0.2366  0.4126
  148SAPE  H11R16322   6.013   3.979   7.898  1.1809 -2.7087 -1.6686
  148SAPE  C21216323   6.052   3.936   8.107 -0.1541  0.4235 -0.2353
  148SAPE  H12R16324   5.947   3.954   8.134  0.1328 -0.2800  1.4655
  148SAPE  C21316325   6.150   3.911   8.214 -0.0950  0.2467  0.2027
  148SAPE  H13R16326   6.248   3.962   8.201  1.2822 -1.4039  3.0619
  148SAPE  H13S16327   6.176   3.803   8.201  0.9078  0.3289  1.3751
  148SAPE  C21416328   6.093   3.951   8.354  0.4224  0.1578  0.3601
  148SAPE  H14R16329   6.051   4.052   8.360 -2.3561 -0.4549 -3.9841
  148SAPE  C21516330   6.093   3.883   8.467  0.0427 -0.3565 -0.3464
  148SAPE  H15R16331   6.035   3.920   8.552 -1.3341  1.3078 -1.9210
  148SAPE  C21616332   6.152   3.746   8.492  0.3455 -1.1398  1.0928
  148SAPE  H16R16333   6.247   3.767   8.546  0.8601  1.2471 -0.5725
  148SAPE  H16S16334   6.183   3.698   8.397 -1.6491  0.0911 -0.2511
  148SAPE  C21716335   6.053   3.661   8.566  0.1309  0.0640  0.0302
  148SAPE  H17R16336   5.952   3.667   8.521  0.6490  0.7073 -1.0828
  148SAPE  H17S16337   6.043   3.707   8.667  0.4496  3.0919 -1.2043
  148SAPE  C21816338   6.099   3.520   8.572  0.0928 -0.0814 -0.4787
  148SAPE  H18R16339   6.210   3.514   8.574  0.0989 -2.7392  3.6628
  148SAPE  H18S16340   6.069   3.459   8.484 -1.6537 -1.0591  0.7493
  148SAPE  C21916341   6.038   3.439   8.687  0.1196  0.9523  0.1436
  148SAPE  H19R16342   5.934   3.476   8.694 -0.1303  0.2490  0.1836
  148SAPE  H19S16343   6.095   3.466   8.778  0.9666  2.2604 -0.7203
  148SAPE  C22016344   6.021   3.285   8.676 -0.0092 -0.1499 -0.3920
  148SAPE  H20R16345   5.953   3.255   8.593  3.0703 -2.6824 -2.2298
  148SAPE  H20S16346   5.982   3.234   8.767 -0.0645  0.0159 -0.3215
  148SAPE  H20T16347   6.110   3.231   8.638 -0.5559 -1.2628 -0.1433
  148SAPE   C3316348   7.154   3.691   7.278  0.3290  0.3430  1.0048
  148SAPE   H3X16349   7.192   3.781   7.225 -0.3537  0.0467 -0.0120
  148SAPE   H3Y16350   7.202   3.600   7.236  0.0291  0.0004  1.4053
  148SAPE   C3416351   7.196   3.699   7.428 -0.1629  0.2093 -0.0439
  148SAPE   H4X16352   7.158   3.792   7.475  0.4378  0.4586 -0.0438
  148SAPE   H4Y16353   7.307   3.701   7.433 -0.1691 -0.2632  0.4906
  148SAPE   C3516354   7.168   3.581   7.518  0.3550 -0.3500  0.1339
  148SAPE   H5X16355   7.255   3.549   7.579  1.4195  0.9096 -0.6613
  148SAPE   H5Y16356   7.125   3.496   7.460  0.6452  0.9484 -2.0984
  148SAPE   C3616357   7.055   3.599   7.623  0.3940  0.4136  0.3304
  148SAPE   H6X16358   6.955   3.628   7.583 -0.0363 -0.9578  0.3618
  148SAPE   H6Y16359   7.078   3.665   7.710 -0.9100  0.5840  0.5727
  148SAPE   C3716360   7.014   3.471   7.693 -0.3775 -0.2593 -0.1567
  148SAPE   H7X16361   7.106   3.416   7.721 -1.6280 -2.5723 -0.3212
  148SAPE   H7Y16362   6.954   3.398   7.634 -2.5197 -1.3035  3.0489
  148SAPE   C3816363   6.937   3.493   7.827  0.1252 -0.3400 -0.2912
  148SAPE   H8X16364   6.873   3.405   7.851  0.1690 -0.7385 -1.5595
  148SAPE   H8Y16365   6.862   3.569   7.796  0.3035  0.8778  2.0410
  148SAPE   C3916366   7.035   3.529   7.943  0.4371  0.0227  0.5529
  148SAPE   H9X16367   6.982   3.540   8.040 -0.5514  1.5803 -0.1291
  148SAPE   H9Y16368   7.095   3.618   7.917  0.7748  0.3124  2.2288
  148SAPE  C31016369   7.139   3.417   7.970  0.3111 -0.5365 -0.4198
  148SAPE  H10X16370   7.208   3.414   7.884  1.0684 -1.5750  0.2017
  148SAPE  H10Y16371   7.081   3.323   7.967 -1.3046  0.4193 -0.3433
  148SAPE  C31116372   7.196   3.435   8.109  0.6150  0.4683 -0.3202
  148SAPE  H11X16373   7.276   3.358   8.109  1.3731  1.2403  0.2864
  148SAPE  H11Y16374   7.122   3.417   8.190  0.9527 -1.1208 -0.3367
  148SAPE  C31216375   7.249   3.573   8.155 -0.3737  0.1510  0.4211
  148SAPE  H12X16376   7.168   3.644   8.182  0.9446  3.1848 -2.7614
  148SAPE  H12Y16377   7.297   3.624   8.069  0.2162  2.6090  2.1233
  148SAPE  C31316378   7.338   3.552   8.276 -0.0574  0.5148 -0.1822
  148SAPE  H13X16379   7.426   3.488   8.252  1.6841  2.4058  0.8036
  148SAPE  H13Y16380   7.268   3.497   8.343  0.0408  2.8349  1.9591
  148SAPE  C31416381   7.392   3.675   8.343  0.2945  0.6750 -0.1460
  148SAPE  H14X16382   7.302   3.740   8.350 -1.1316 -1.2231 -0.2253
  148SAPE  H14Y16383   7.466   3.725   8.277 -2.1410  2.7214 -1.5216
  148SAPE  C31516384   7.460   3.644   8.477 -0.3580  0.3738 -0.1936
  148SAPE  H15X16385   7.544   3.573   8.465 -0.6913  0.2172 -1.6759
  148SAPE  H15Y16386   7.378   3.597   8.537 -0.6083 -0.6676 -1.3232
  148SAPE  C31616387   7.512   3.773   8.543  0.0077 -0.1794 -0.7721
  148SAPE  H16X16388   7.447   3.857   8.512 -0.4116 -0.6138 -1.0834
  148SAPE  H16Y16389   7.615   3.807   8.519 -0.3486  3.6516  2.1304
  148SAPE  C31716390   7.502   3.767   8.698 -0.9206 -0.6092 -0.0604
  148SAPE  H17X16391   7.431   3.687   8.728 -0.6843 -0.1894  1.7471
  148SAPE  H17Y16392   7.459   3.855   8.749  2.9934 -0.6511  3.8572
  148SAPE  C31816393   7.640   3.738   8.767 -0.6350  0.2503 -0.3129
  148SAPE  H18X16394   7.695   3.649   8.729  1.1158  1.8132 -1.6206
  148SAPE  H18Y16395   7.636   3.732   8.878  2.0473  1.3674 -0.0652
  148SAPE  H18Z16396   7.706   3.824   8.743  1.9150 -1.4637  0.0990
  149SAPE     N16397   2.362   3.935   6.388 -0.6016  0.2720  0.0003
  149SAPE   HN116398   2.422   3.885   6.319 -0.7920 -1.0636  0.7621
  149SAPE   HN216399   2.284   3.988   6.346 -0.4775 -0.3810 -1.0981
  149SAPE   HN316400   2.428   4.008   6.421  0.6750 -0.8948  0.1272
  149SAPE   C1216401   2.331   3.840   6.500 -0.4573 -1.3853  0.1273
  149SAPE  H12A16402   2.422   3.829   6.563  0.3180 -0.3691 -0.7848
  149SAPE  H12B16403   2.306   3.737   6.465 -1.6619 -1.0067 -0.1765
  149SAPE   C1116404   2.226   3.906   6.591  0.1875 -0.3460 -0.2314
  149SAPE  H11A16405   2.276   3.989   6.644  0.5538 -1.5587  1.3983
  149SAPE  H11B16406   2.206   3.828   6.668  0.3704 -0.1926 -0.0293
  149SAPE     P16407   1.990   3.857   6.486 -0.3605  0.5064  0.1206
  149SAPE   O1316408   1.898   3.924   6.396 -0.2327  0.0883 -0.0004
  149SAPE   O1416409   2.045   3.728   6.429 -0.2926  0.2113 -0.4481
  149SAPE   O1216410   2.107   3.953   6.520 -0.1560  0.0685  0.0292
  149SAPE   O1116411   1.918   3.835   6.623 -0.0732 -0.1110  0.5518
  149SAPE    C116412   1.973   3.766   6.736  1.0440 -0.2773 -0.6869
  149SAPE    HA16413   2.048   3.693   6.698 -0.4143 -2.2058 -0.0545
  149SAPE    HB16414   2.024   3.835   6.806  1.1325 -0.1448 -0.8803
  149SAPE    C216415   1.869   3.683   6.821 -0.0463 -0.2726  0.2696
  149SAPE    HS16416   1.815   3.613   6.753 -0.5074  0.6684 -0.3649
  149SAPE   O2116417   1.783   3.771   6.890  0.7652 -0.0545  0.2665
  149SAPE   C2116418   1.656   3.716   6.905 -0.0086  0.0767  0.2503
  149SAPE   O2216419   1.604   3.611   6.864 -0.9821 -0.8096  0.0310
  149SAPE   C2216420   1.579   3.811   6.999  0.4846  0.5072  0.2598
  149SAPE   H2R16421   1.604   3.908   6.950  0.8821 -0.2214 -1.0235
  149SAPE   H2S16422   1.468   3.804   6.994  0.5631 -0.0110 -1.4302
  149SAPE    C316423   1.950   3.604   6.927  0.4310 -0.6414 -0.2070
  149SAPE    HX16424   2.023   3.678   6.966  1.1199 -1.4557  0.0581
  149SAPE    HY16425   2.011   3.528   6.874  1.1075 -0.4943  0.3480
  149SAPE   O3116426   1.877   3.549   7.041 -0.0035 -0.3818  0.5623
  149SAPE   C3116427   1.832   3.429   7.018 -0.5146 -0.1155 -0.6041
  149SAPE   O3216428   1.809   3.388   6.904 -0.3981  0.1706  0.2458
  149SAPE   C3216429   1.806   3.363   7.145 -0.4107  0.5850 -0.4432
  149SAPE   H2X16430   1.788   3.438   7.225 -3.0444 -0.8051  0.3779
  149SAPE   H2Y16431   1.904   3.320   7.175  0.4287  2.5904 -0.0919
  149SAPE   C2316432   1.610   3.809   7.152 -0.1321 -0.0601 -0.2232
  149SAPE   H3R16433   1.622   3.918   7.174 -1.8793  0.3992 -1.3419
  149SAPE   H3S16434   1.702   3.756   7.185 -1.2540 -1.7750  0.3036
  149SAPE   C2416435   1.499   3.758   7.247 -0.7829 -0.6937  0.6028
  149SAPE   H4R16436   1.399   3.804   7.234 -0.5591  1.2846  4.3798
  149SAPE   H4S16437   1.534   3.786   7.349 -0.3075  2.8138 -0.4009
  149SAPE   C2516438   1.483   3.612   7.221 -0.1136  1.0886 -0.0995
  149SAPE   H5R16439   1.468   3.581   7.116 -0.6832 -2.2328  0.8248
  149SAPE   C2616440   1.470   3.518   7.318  0.1372 -0.5135 -0.0321
  149SAPE   H6R16441   1.449   3.416   7.283  1.0106 -0.4655 -0.7139
  149SAPE   C2716442   1.477   3.552   7.462 -0.0993 -0.5570 -0.1393
  149SAPE   H7R16443   1.445   3.465   7.523 -4.0017  2.2261  2.2522
  149SAPE   H7S16444   1.414   3.641   7.479  2.9628  1.3367  2.4942
  149SAPE   C2816445   1.618   3.582   7.513 -1.1731 -0.1351 -0.4678
  149SAPE   H8R16446   1.697   3.589   7.437  0.2347 -0.9738  0.8586
  149SAPE   C2916447   1.657   3.618   7.637  0.0649 -0.2294 -0.1405
  149SAPE   H9R16448   1.763   3.641   7.650  0.2003 -0.0061 -1.4878
  149SAPE  C21016449   1.557   3.628   7.750  0.2489  0.0392  0.3131
  149SAPE  H10R16450   1.575   3.538   7.812  0.2813  1.8946  3.1721
  149SAPE  H10S16451   1.453   3.632   7.709  0.7697  2.9202 -1.0098
  149SAPE  C21116452   1.584   3.750   7.835  0.0630 -0.2628  1.2940
  149SAPE  H11R16453   1.573   3.849   7.788  0.4359 -0.6807  0.3019
  149SAPE  C21216454   1.607   3.761   7.966 -0.1492  0.2753 -0.0414
  149SAPE  H12R16455   1.630   3.851   8.025  0.8881 -0.0479  0.0602
  149SAPE  C21316456   1.617   3.638   8.061 -0.6478 -0.0274 -0.7270
  149SAPE  H13R16457   1.570   3.552   8.009  0.0091  0.7570 -2.7031
  149SAPE  H13S16458   1.549   3.666   8.144  0.0681 -0.1785 -0.0804
  149SAPE  C21416459   1.755   3.615   8.110 -0.2278 -0.1954 -0.4576
  149SAPE  H14R16460   1.812   3.708   8.125 -1.1020  0.6352 -2.0092
  149SAPE  C21516461   1.808   3.492   8.129  0.1523  0.1051 -0.1729
  149SAPE  H15R16462   1.915   3.492   8.156 -0.3506  0.2953  1.9715
  149SAPE  C21616463   1.750   3.354   8.121 -0.5531  0.9491 -0.1812
  149SAPE  H16R16464   1.639   3.363   8.109 -0.5946  1.5353  0.5925
  149SAPE  H16S16465   1.755   3.303   8.219 -1.8683 -0.9207 -1.0167
  149SAPE  C21716466   1.802   3.266   8.007 -1.0393  0.7857 -0.1755
  149SAPE  H17R16467   1.769   3.161   8.019 -1.2516  0.9479  0.7237
  149SAPE  H17S16468   1.913   3.266   8.005 -1.0013 -1.7052 -0.4129
  149SAPE  C21816469   1.762   3.321   7.872 -0.4451 -0.5582 -0.3668
  149SAPE  H18R16470   1.803   3.423   7.857 -2.1160  0.6460  2.3931
  149SAPE  H18S16471   1.655   3.313   7.845 -0.0310 -0.8439 -2.0248
  149SAPE  C21916472   1.827   3.229   7.769  0.0751  0.6158  0.0893
  149SAPE  H19R16473   1.784   3.127   7.780 -1.1182  1.0723 -0.1585
  149SAPE  H19S16474   1.938   3.228   7.771  0.0763  0.8502  0.1520
  149SAPE  C22016475   1.804   3.289   7.628 -0.7682  0.3109  0.0500
  149SAPE  H20R16476   1.695   3.306   7.618 -0.7038  1.1924  0.7486
  149SAPE  H20S16477   1.839   3.215   7.552  2.9068  0.6104  1.2876
  149SAPE  H20T16478   1.862   3.383   7.625  2.1890 -1.2506  2.3620
  149SAPE   C3316479   1.696   3.257   7.131 -0.4511 -0.5673  0.1698
  149SAPE   H3X16480   1.711   3.188   7.044  1.7765  1.0948 -0.8564
  149SAPE   H3Y16481   1.604   3.314   7.104  1.1640  1.0234 -2.4240
  149SAPE   C3416482   1.654   3.187   7.263 -0.0089  0.5395  0.1418
  149SAPE   H4X16483   1.626   3.251   7.349 -0.4303  1.4900 -0.6995
  149SAPE   H4Y16484   1.757   3.157   7.294  0.1270  0.2156 -0.6015
  149SAPE   C3516485   1.551   3.070   7.242  0.0801  0.1382 -0.2370
  149SAPE   H5X16486   1.601   2.996   7.176 -1.0044  0.6981 -1.7412
  149SAPE   H5Y16487   1.470   3.110   7.178 -1.0356  1.4290  1.8770
  149SAPE   C3616488   1.493   3.014   7.378 -0.5173 -0.4189  0.4978
  149SAPE   H6X16489   1.578   3.000   7.447  1.6957  0.1195 -1.9626
  149SAPE   H6Y16490   1.439   2.916   7.375 -3.5299  1.1358 -0.6519
  149SAPE   C3716491   1.400   3.115   7.437 -0.4400 -0.5722  0.2034
  149SAPE   H7X16492   1.320   3.127   7.361  1.5654  1.6006 -1.7407
  149SAPE   H7Y16493   1.455   3.212   7.435  1.7639 -1.7487 -1.4851
  149SAPE   C3816494   1.355   3.075   7.571 -0.4676 -0.4980 -0.3933
  149SAPE   H8X16495   1.427   3.111   7.647 -2.2318  0.1098  1.0485
  149SAPE   H8Y16496   1.342   2.966   7.586  0.2184 -0.3779  1.2523
  149SAPE   C3916497   1.225   3.150   7.618  0.9079 -0.2823 -0.6595
  149SAPE   H9X16498   1.147   3.143   7.540  0.6217  0.6086 -0.4648
  149SAPE   H9Y16499   1.252   3.258   7.631  1.1937 -0.3371 -0.7845
  149SAPE  C31016500   1.174   3.099   7.754  0.1618  0.6488 -0.4805
  149SAPE  H10X16501   1.183   2.989   7.765  3.2276  0.6684 -1.6737
  149SAPE  H10Y16502   1.067   3.127   7.763 -0.0700 -0.2409 -0.3136
  149SAPE  C31116503   1.249   3.166   7.867  0.7636 -0.1668 -0.7057
  149SAPE  H11X16504   1.242   3.277   7.863  0.1038 -0.1467  0.5982
  149SAPE  H11Y16505   1.359   3.154   7.858  0.8157 -0.6164  0.4079
  149SAPE  C31216506   1.210   3.133   8.011  0.4373 -0.9151  0.5393
  149SAPE  H12X16507   1.204   3.023   8.025  0.6258 -1.1215 -0.8375
  149SAPE  H12Y16508   1.108   3.176   8.024  1.2316  0.9040  1.1098
  149SAPE  C31316509   1.301   3.196   8.114  0.3026 -0.4938  0.4714
  149SAPE  H13X16510   1.329   3.299   8.082 -0.5505  0.7111  3.2382
  149SAPE  H13Y16511   1.401   3.148   8.109  0.3347 -0.9022  3.1296
  149SAPE  C31416512   1.268   3.187   8.263 -0.1862 -0.3683 -0.4570
  149SAPE  H14X16513   1.252   3.081   8.294 -0.0245 -0.2348  0.0960
  149SAPE  H14Y16514   1.177   3.249   8.279 -0.0023 -0.0706 -0.5696
  149SAPE  C31516515   1.381   3.247   8.344 -0.0613 -0.0448  0.0670
  149SAPE  H15X16516   1.375   3.358   8.349 -0.0832 -0.0119 -0.6037
  149SAPE  H15Y16517   1.480   3.232   8.294 -1.2686  0.2871 -2.5654
  149SAPE  C31616518   1.385   3.194   8.488  0.2188  0.0193 -0.0321
  149SAPE  H16X16519   1.402   3.085   8.490 -1.1005 -0.2115  2.3777
  149SAPE  H16Y16520   1.282   3.205   8.528 -0.0506 -1.2864 -0.3371
  149SAPE  C31716521   1.484   3.266   8.582 -0.6124 -0.3184 -0.9063
  149SAPE  H17X16522   1.485   3.218   8.683  0.9424 -0.0904 -0.7882
  149SAPE  H17Y16523   1.477   3.377   8.579  4.2255  0.2156 -0.9531
  149SAPE  C31816524   1.633   3.246   8.541  0.8402 -0.2209  0.3693
  149SAPE  H18X16525   1.704   3.281   8.619  1.7519 -1.1521 -0.0158
  149SAPE  H18Y16526   1.646   3.316   8.457  0.1653  0.3464  0.7226
  149SAPE  H18Z16527   1.664   3.144   8.509 -2.5097 -2.6366  3.8216
  150SAPE     N16528   6.190   4.306   5.910 -0.1939  0.0263 -0.3455
  150SAPE   HN116529   6.092   4.341   5.919 -0.6500 -1.2700 -0.0160
  150SAPE   HN216530   6.260   4.368   5.956 -0.3185 -0.0605 -0.0374
  150SAPE   HN316531   6.204   4.307   5.807 -1.9575 -0.6254 -0.6356
  150SAPE   C1216532   6.206   4.167   5.969  0.2225 -0.1808 -0.3646
  150SAPE  H12A16533   6.306   4.123   5.947 -0.1043 -0.6697 -0.9113
  150SAPE  H12B16534   6.128   4.103   5.922  0.2856  1.2349 -2.5235
  150SAPE   C1116535   6.190   4.176   6.121  0.2223 -0.5976  0.2061
  150SAPE  H11A16536   6.165   4.075   6.161  1.0911 -0.5398  0.9186
  150SAPE  H11B16537   6.107   4.243   6.152  1.5046  1.1778 -0.0456
  150SAPE     P16538   6.347   4.220   6.332 -0.0710 -0.4377  0.2206
  150SAPE   O1316539   6.477   4.146   6.336  0.8227  0.4665 -0.4140
  150SAPE   O1416540   6.350   4.361   6.380 -0.2631 -0.0254 -0.6754
  150SAPE   O1216541   6.315   4.226   6.171  0.0406  0.4113 -0.0258
  150SAPE   O1116542   6.233   4.131   6.393  0.4267 -0.2668 -0.1854
  150SAPE    C116543   6.116   4.201   6.450 -0.1898 -0.1726  0.4096
  150SAPE    HA16544   6.089   4.290   6.391 -2.2560 -1.2025 -0.3332
  150SAPE    HB16545   6.029   4.131   6.446  1.1609 -2.0424  1.7343
  150SAPE    C216546   6.128   4.237   6.601 -0.2341  0.6905  0.1157
  150SAPE    HS16547   6.232   4.271   6.619 -0.0843 -0.2187  1.0337
  150SAPE   O2116548   6.101   4.112   6.670  0.1941  0.4605  0.3638
  150SAPE   C2116549   6.186   4.077   6.775  0.1377  0.6228  0.1800
  150SAPE   O2216550   6.275   4.149   6.819  0.9505 -0.2175 -0.3018
  150SAPE   C2216551   6.155   3.936   6.825  0.1798 -0.4758  0.1177
  150SAPE   H2R16552   6.116   3.868   6.746  0.6966  0.5238 -1.0490
  150SAPE   H2S16553   6.249   3.883   6.852 -0.9380 -2.4540  0.2825
  150SAPE    C316554   6.037   4.351   6.647  0.7709 -0.2818  0.3203
  150SAPE    HX16555   5.927   4.337   6.635  0.6872 -0.1427  0.8803
  150SAPE    HY16556   6.041   4.444   6.585  0.1760  0.2163  1.0120
  150SAPE   O3116557   6.038   4.370   6.800  0.5246 -0.0121  1.0982
  150SAPE   C3116558   6.130   4.451   6.840  0.3615 -0.4257 -0.2822
  150SAPE   O3216559   6.222   4.492   6.773  0.2465 -0.5075 -0.2104
  150SAPE   C3216560   6.081   4.515   6.971 -0.3266 -0.2331 -0.3579
  150SAPE   H2X16561   6.074   4.436   7.049  0.6203  1.4419  1.5184
  150SAPE   H2Y16562   5.975   4.546   6.956 -0.7100 -1.1054  0.4759
  150SAPE   C2316563   6.064   3.928   6.957 -0.0651 -0.0213 -0.1229
  150SAPE   H3R16564   6.118   3.987   7.034 -0.9851  2.2248 -1.1058
  150SAPE   H3S16565   6.066   3.827   7.003 -0.2492 -0.8761 -1.8839
  150SAPE   C2416566   5.913   3.956   6.938 -0.0078  0.2892 -0.2442
  150SAPE   H4R16567   5.875   3.910   7.032  0.4544 -1.2579 -0.7825
  150SAPE   H4S16568   5.878   3.896   6.851 -0.0708 -1.0896  0.7023
  150SAPE   C2516569   5.898   4.111   6.926  0.0199  0.0357 -0.7457
  150SAPE   H5R16570   5.911   4.158   6.828 -0.7554  0.9561 -0.4185
  150SAPE   C2616571   5.864   4.191   7.030 -0.2013 -0.2370  0.5736
  150SAPE   H6R16572   5.855   4.298   7.009 -0.1883 -0.3664 -0.1373
  150SAPE   C2716573   5.838   4.156   7.170 -0.7179  0.0467 -0.3828
  150SAPE   H7R16574   5.839   4.045   7.181  0.9654 -0.0344 -1.1329
  150SAPE   H7S16575   5.738   4.196   7.197 -0.5581 -0.6317  1.3674
  150SAPE   C2816576   5.940   4.209   7.255 -0.3405  0.9078 -0.1396
  150SAPE   H8R16577   6.046   4.193   7.232  0.2114  0.8769  2.1775
  150SAPE   C2916578   5.911   4.273   7.371 -1.1906 -0.4140  0.2698
  150SAPE   H9R16579   5.992   4.315   7.431  0.4228 -0.6062 -1.6503
  150SAPE  C21016580   5.784   4.299   7.441 -0.1944 -0.8048  0.0170
  150SAPE  H10R16581   5.715   4.350   7.371  1.5162  1.9543  0.1890
  150SAPE  H10S16582   5.805   4.365   7.528 -1.2099  2.2410 -1.9158
  150SAPE  C21116583   5.723   4.175   7.506 -0.2673 -0.2916  0.5055
  150SAPE  H11R16584   5.736   4.081   7.450 -0.8452 -1.1337  1.7527
  150SAPE  C21216585   5.657   4.164   7.624 -0.7404 -0.1584  0.3196
  150SAPE  H12R16586   5.625   4.066   7.662  2.4278 -1.8951 -1.0888
  150SAPE  C21316587   5.632   4.271   7.722 -0.9992 -0.7618 -0.4031
  150SAPE  H13R16588   5.538   4.262   7.781 -1.1887  0.5569 -0.4758
  150SAPE  H13S16589   5.617   4.364   7.663 -2.4373 -1.5848 -1.4068
  150SAPE  C21416590   5.755   4.280   7.811 -0.4239  0.6212  0.4686
  150SAPE  H14R16591   5.832   4.341   7.761 -0.4703 -1.3221 -2.2538
  150SAPE  C21516592   5.790   4.203   7.915  0.4531 -0.8717  0.0480
  150SAPE  H15R16593   5.889   4.226   7.956 -0.2080 -0.6546  1.5921
  150SAPE  C21616594   5.710   4.089   7.979  0.5699 -0.1260 -0.4035
  150SAPE  H16R16595   5.772   3.997   7.968  0.1372 -0.3407 -1.1548
  150SAPE  H16S16596   5.611   4.072   7.931 -0.8805  2.3761  1.4471
  150SAPE  C21716597   5.686   4.092   8.130 -0.8032 -0.1667 -0.0796
  150SAPE  H17R16598   5.628   4.181   8.162  0.4585  0.2967  0.9565
  150SAPE  H17S16599   5.786   4.100   8.176 -0.4110 -0.4435 -0.8572
  150SAPE  C21816600   5.609   3.970   8.172  0.2040  0.4457 -0.1195
  150SAPE  H18R16601   5.660   3.884   8.123 -1.6761 -0.0390 -1.3377
  150SAPE  H18S16602   5.502   3.970   8.142 -0.2009  0.8460  1.2664
  150SAPE  C21916603   5.606   3.928   8.318 -0.2565 -0.0500 -0.3505
  150SAPE  H19R16604   5.700   3.965   8.362  0.3899 -0.3763 -1.4132
  150SAPE  H19S16605   5.613   3.817   8.321  0.6322 -0.0641 -1.8906
  150SAPE  C22016606   5.492   3.994   8.397 -0.0524  0.1205 -0.7360
  150SAPE  H20R16607   5.399   4.021   8.343 -2.2793 -2.0896  1.7164
  150SAPE  H20S16608   5.517   4.094   8.439  2.9190 -0.6333 -0.4780
  150SAPE  H20T16609   5.466   3.931   8.484 -0.0187 -1.2891 -1.6983
  150SAPE   C3316610   6.183   4.624   7.012  0.1057 -0.3209  0.2573
  150SAPE   H3X16611   6.174   4.712   6.945  2.7518 -0.4640 -0.4201
  150SAPE   H3Y16612   6.286   4.588   6.990 -0.6997 -1.9539 -1.1306
  150SAPE   C3416613   6.173   4.672   7.152  0.3303 -0.7122 -1.0193
  150SAPE   H4X16614   6.231   4.765   7.168 -0.8935 -0.0183 -0.4311
  150SAPE   H4Y16615   6.210   4.588   7.214  1.9254  0.5939 -0.1454
  150SAPE   C3516616   6.024   4.698   7.188 -0.5487 -0.6001  0.1265
  150SAPE   H5X16617   5.963   4.605   7.187 -1.7729  0.1805 -0.4642
  150SAPE   H5Y16618   5.972   4.756   7.109 -0.5640  0.2657  0.7614
  150SAPE   C3616619   5.997   4.768   7.325 -0.3290 -0.7235  0.1514
  150SAPE   H6X16620   5.893   4.805   7.329 -0.1029  0.5607 -2.8952
  150SAPE   H6Y16621   6.063   4.858   7.336 -3.7654  2.1609 -0.8971
  150SAPE   C3716622   6.025   4.682   7.444  0.1887  0.2849  0.5042
  150SAPE   H7X16623   6.131   4.650   7.438 -0.2859 -1.6816  1.5134
  150SAPE   H7Y16624   5.971   4.585   7.431 -1.2096  0.7293  2.5090
  150SAPE   C3816625   5.992   4.752   7.580  0.2346  0.4215  0.2096
  150SAPE   H8X16626   5.968   4.858   7.554 -2.2221  0.1373  1.0514
  150SAPE   H8Y16627   6.089   4.763   7.633  0.0079  0.9526  0.5234
  150SAPE   C3916628   5.867   4.684   7.658 -0.3763  0.5654 -0.3510
  150SAPE   H9X16629   5.869   4.574   7.669 -2.2394  0.4120 -1.2994
  150SAPE   H9Y16630   5.782   4.704   7.590 -1.0383  0.5178  0.4391
  150SAPE  C31016631   5.835   4.753   7.791  0.4474  0.1776  0.2364
  150SAPE  H10X16632   5.776   4.841   7.758  0.5229  0.5797  1.1466
  150SAPE  H10Y16633   5.930   4.787   7.837  1.7520  0.0947 -2.2073
  150SAPE  C31116634   5.743   4.653   7.868  0.1462  0.3802  0.0666
  150SAPE  H11X16635   5.800   4.564   7.900  1.5139  0.4654 -1.9276
  150SAPE  H11Y16636   5.654   4.621   7.809 -0.9191  1.4338  1.0418
  150SAPE  C31216637   5.684   4.713   7.995 -0.3521 -0.5315  0.4355
  150SAPE  H12X16638   5.592   4.653   8.010 -0.8254 -0.5778 -2.1798
  150SAPE  H12Y16639   5.657   4.820   7.983  2.0644  0.1081  0.2123
  150SAPE  C31316640   5.773   4.701   8.120 -0.6370  0.3762  0.1127
  150SAPE  H13X16641   5.743   4.776   8.195  1.9774  0.3201  1.3280
  150SAPE  H13Y16642   5.879   4.726   8.099 -0.5268 -0.4157 -0.3253
  150SAPE  C31416643   5.770   4.560   8.180  0.3562  0.0404 -0.0127
  150SAPE  H14X16644   5.817   4.492   8.105 -0.0425 -0.5295  0.2506
  150SAPE  H14Y16645   5.661   4.542   8.190  0.4397  0.0862  1.1264
  150SAPE  C31516646   5.820   4.548   8.321  0.1470  0.0183 -1.1232
  150SAPE  H15X16647   5.761   4.618   8.384 -1.3517 -0.5450 -1.8622
  150SAPE  H15Y16648   5.927   4.579   8.324  0.2082 -0.2161 -0.8406
  150SAPE  C31616649   5.818   4.398   8.362  0.5666 -0.2923  0.8607
  150SAPE  H16X16650   5.881   4.342   8.290  1.1225 -1.2629  2.0656
  150SAPE  H16Y16651   5.716   4.360   8.343 -0.4371  2.5904 -0.1383
  150SAPE  C31716652   5.876   4.369   8.499 -0.5618 -0.0745  0.0826
  150SAPE  H17X16653   5.974   4.421   8.496  1.1554 -3.0861 -2.4108
  150SAPE  H17Y16654   5.901   4.263   8.522  0.0624 -0.1907 -1.0566
  150SAPE  C31816655   5.782   4.420   8.614  0.0275  0.3466 -1.3012
  150SAPE  H18X16656   5.684   4.370   8.626  0.8537 -0.9187  0.6525
  150SAPE  H18Y16657   5.755   4.527   8.600 -0.9324  0.4338  0.8743
  150SAPE  H18Z16658   5.832   4.401   8.711  0.8167  1.1093 -1.5443
  151SAPE     N16659   2.681   4.562   6.317  0.3952 -0.7951 -0.4980
  151SAPE   HN116660   2.705   4.538   6.416 -0.4382 -3.5489 -0.8648
  151SAPE   HN216661   2.758   4.538   6.252  0.8838 -1.3963  0.2773
  151SAPE   HN316662   2.675   4.665   6.310  0.0129 -0.7582  0.2882
  151SAPE   C1216663   2.545   4.502   6.294 -0.2103 -0.1790  0.4304
  151SAPE  H12A16664   2.501   4.548   6.203 -0.2647 -1.1154 -0.0260
  151SAPE  H12B16665   2.481   4.531   6.380  1.5636  2.5257  0.9765
  151SAPE   C1116666   2.561   4.352   6.279 -0.6545 -0.0584 -0.3919
  151SAPE  H11A16667   2.596   4.341   6.174 -1.7366  0.6517 -0.8465
  151SAPE  H11B16668   2.463   4.300   6.279 -1.2694  0.9447  1.7986
  151SAPE     P16669   2.625   4.228   6.503 -0.0479  0.0688  0.0527
  151SAPE   O1316670   2.541   4.113   6.465 -0.4780 -0.3472 -0.1483
  151SAPE   O1416671   2.743   4.198   6.585 -0.5131 -0.2819 -0.7159
  151SAPE   O1216672   2.663   4.301   6.371 -0.2174 -0.3982  0.3763
  151SAPE   O1116673   2.539   4.352   6.570 -0.1779  0.0332  0.5906
  151SAPE    C116674   2.462   4.323   6.682 -0.0620 -0.4470 -0.5463
  151SAPE    HA16675   2.447   4.214   6.696  2.0671 -0.3592  4.0768
  151SAPE    HB16676   2.516   4.359   6.772 -1.5427 -0.7804  0.4967
  151SAPE    C216677   2.338   4.406   6.683  0.3382 -0.3811  0.0397
  151SAPE    HS16678   2.289   4.384   6.586 -1.4362  0.0377  0.7913
  151SAPE   O2116679   2.371   4.544   6.691 -0.6067 -0.0126  0.0781
  151SAPE   C2116680   2.283   4.634   6.659  0.6861  0.0202  0.0524
  151SAPE   O2216681   2.168   4.605   6.624  0.1641  0.2662 -0.1251
  151SAPE   C2216682   2.346   4.773   6.672  0.4388  0.8899 -0.0238
  151SAPE   H2R16683   2.455   4.755   6.666 -0.0038 -2.0848 -1.1106
  151SAPE   H2S16684   2.314   4.829   6.582 -1.8619 -0.0319  0.1493
  151SAPE    C316685   2.240   4.365   6.793  0.8332  0.8115  0.5065
  151SAPE    HX16686   2.200   4.264   6.771  1.1357  0.2840  2.2524
  151SAPE    HY16687   2.153   4.433   6.782  0.5064  0.4837  1.0592
  151SAPE   O3116688   2.287   4.380   6.931  0.2439  0.1512  0.7801
  151SAPE   C3116689   2.324   4.272   7.001 -0.3562  0.0113 -0.2517
  151SAPE   O3216690   2.342   4.164   6.946  0.0904 -0.3495  0.2571
  151SAPE   C3216691   2.314   4.299   7.148  0.7885  0.3532 -0.8723
  151SAPE   H2X16692   2.206   4.322   7.164  0.7192 -0.9652  0.7621
  151SAPE   H2Y16693   2.368   4.394   7.169 -0.5435  1.3663 -1.8127
  151SAPE   C2316694   2.303   4.858   6.796  0.4103 -0.1822  0.0051
  151SAPE   H3R16695   2.192   4.850   6.794  0.3972  0.0814 -0.4008
  151SAPE   H3S16696   2.330   4.965   6.784 -0.1240 -0.1991 -1.4920
  151SAPE   C2416697   2.367   4.807   6.926 -0.0918  0.7015  0.4013
  151SAPE   H4R16698   2.477   4.820   6.921 -0.3012  1.9822 -1.8403
  151SAPE   H4S16699   2.362   4.696   6.929 -0.6990  0.6575 -1.3784
  151SAPE   C2516700   2.282   4.871   7.035 -0.0760  0.0287  0.9453
  151SAPE   H5R16701   2.309   4.975   7.060 -1.5138  0.3934  1.0751
  151SAPE   C2616702   2.195   4.807   7.121  0.7809  0.9191 -0.6385
  151SAPE   H6R16703   2.146   4.869   7.198 -1.7968 -2.1854  0.4144
  151SAPE   C2716704   2.164   4.655   7.128 -0.1955 -0.2272 -0.3180
  151SAPE   H7R16705   2.139   4.625   7.232  1.5057 -2.6607 -0.5374
  151SAPE   H7S16706   2.254   4.593   7.107  0.1975 -0.9838  3.0075
  151SAPE   C2816707   2.056   4.632   7.032 -0.3190 -0.0137  0.4213
  151SAPE   H8R16708   2.080   4.659   6.928  1.8047  1.9902  1.3676
  151SAPE   C2916709   1.938   4.580   7.070 -0.6026  0.4870  0.8527
  151SAPE   H9R16710   1.869   4.557   6.988 -0.2255 -0.0078  0.6718
  151SAPE  C21016711   1.895   4.541   7.208 -0.0582  0.7038  0.5177
  151SAPE  H10R16712   1.950   4.449   7.237 -3.1747 -1.2488  0.6899
  151SAPE  H10S16713   1.794   4.495   7.203 -0.6818  1.8692  1.6720
  151SAPE  C21116714   1.897   4.628   7.327  0.3970 -0.9237  0.1292
  151SAPE  H11R16715   1.855   4.729   7.314  0.5552 -0.7707  0.7831
  151SAPE  C21216716   1.956   4.597   7.446  0.8256 -0.7324  0.5969
  151SAPE  H12R16717   1.952   4.672   7.526  1.3883 -2.4218  2.2664
  151SAPE  C21316718   2.026   4.472   7.475  0.1576 -0.0850  0.3246
  151SAPE  H13R16719   2.104   4.448   7.400  1.0243  0.4354  1.0550
  151SAPE  H13S16720   1.950   4.390   7.471  0.5229 -0.3961 -0.5576
  151SAPE  C21416721   2.090   4.479   7.613  0.4078 -0.0554 -0.3426
  151SAPE  H14R16722   2.197   4.453   7.609  0.3372 -0.2100 -2.1062
  151SAPE  C21516723   2.021   4.468   7.733  0.4889  0.1182 -0.4425
  151SAPE  H15R16724   2.070   4.475   7.831 -1.5604  0.5849  0.6061
  151SAPE  C21616725   1.870   4.454   7.733  0.1785 -0.0965 -0.2139
  151SAPE  H16R16726   1.850   4.353   7.775  0.9910  1.0218  3.2290
  151SAPE  H16S16727   1.830   4.461   7.630 -0.7238  0.8434  0.1787
  151SAPE  C21716728   1.787   4.533   7.829  0.2590 -0.1206 -0.0187
  151SAPE  H17R16729   1.818   4.509   7.933 -1.3566  0.6749  0.6935
  151SAPE  H17S16730   1.680   4.505   7.821 -0.7411  3.5043 -1.6553
  151SAPE  C21816731   1.783   4.684   7.806 -0.5236 -0.3200  0.2410
  151SAPE  H18R16732   1.792   4.690   7.695 -1.1561  1.7523  0.2494
  151SAPE  H18S16733   1.864   4.733   7.864  0.7903  1.5173 -2.8496
  151SAPE  C21916734   1.649   4.742   7.829 -0.3817 -0.5688  0.4260
  151SAPE  H19R16735   1.631   4.746   7.939 -2.0040 -0.3932  0.1723
  151SAPE  H19S16736   1.565   4.676   7.798 -1.2580 -0.6423  2.7396
  151SAPE  C22016737   1.637   4.886   7.764  0.2603  0.1668 -0.8709
  151SAPE  H20R16738   1.642   4.892   7.653  0.1410  0.8033 -0.8451
  151SAPE  H20S16739   1.539   4.931   7.791 -1.1935 -0.9105 -3.8936
  151SAPE  H20T16740   1.716   4.955   7.800  0.1931 -0.8815  1.5189
  151SAPE   C3316741   2.353   4.171   7.229 -0.9621 -0.5340  0.6211
  151SAPE   H3X16742   2.454   4.139   7.195 -1.0442  0.5612 -0.7051
  151SAPE   H3Y16743   2.280   4.089   7.215 -0.4027 -1.2007  1.4450
  151SAPE   C3416744   2.357   4.221   7.380 -0.5688  0.0663  0.0387
  151SAPE   H4X16745   2.255   4.266   7.389  0.0861  1.7047 -0.2719
  151SAPE   H4Y16746   2.417   4.313   7.396 -0.5696 -0.1760  1.5127
  151SAPE   C3516747   2.387   4.100   7.469 -0.2435 -0.2521 -0.6609
  151SAPE   H5X16748   2.479   4.055   7.425 -1.2807 -1.1139 -1.9815
  151SAPE   H5Y16749   2.312   4.019   7.465 -0.7397  0.0543  1.3976
  151SAPE   C3616750   2.430   4.122   7.617  0.2460 -0.4569 -0.4940
  151SAPE   H6X16751   2.478   4.222   7.623 -0.4146 -0.2277  1.6131
  151SAPE   H6Y16752   2.491   4.032   7.640  2.5782  0.6368 -1.9418
  151SAPE   C3716753   2.312   4.120   7.714 -0.1033  0.2027 -0.1329
  151SAPE   H7X16754   2.266   4.019   7.721 -2.9213  1.4795  1.4612
  151SAPE   H7Y16755   2.231   4.181   7.669 -0.9120  3.5660  5.0320
  151SAPE   C3816756   2.329   4.155   7.862  0.3048 -0.8175 -0.3967
  151SAPE   H8X16757   2.410   4.099   7.912  3.2190  4.0651  0.9955
  151SAPE   H8Y16758   2.239   4.114   7.912 -0.5570 -2.2983 -2.9296
  151SAPE   C3916759   2.355   4.303   7.885 -0.0439 -0.2268 -0.1574
  151SAPE   H9X16760   2.280   4.376   7.845 -1.1000 -1.6698 -0.9070
  151SAPE   H9Y16761   2.444   4.328   7.823 -0.3206  0.3783 -0.3179
  151SAPE  C31016762   2.380   4.346   8.033  0.0037  0.5987  0.4014
  151SAPE  H10X16763   2.474   4.406   8.028 -0.0918  0.6650 -1.6981
  151SAPE  H10Y16764   2.405   4.256   8.092 -0.3734  0.5413  0.4721
  151SAPE  C31116765   2.268   4.415   8.096  0.7853  0.1107 -0.1124
  151SAPE  H11X16766   2.243   4.508   8.041 -0.2051 -0.0957 -0.0160
  151SAPE  H11Y16767   2.295   4.439   8.201  1.0121  1.4564 -0.4503
  151SAPE  C31216768   2.137   4.333   8.109 -0.3932 -0.1807  0.2661
  151SAPE  H12X16769   2.163   4.229   8.139 -0.7711  0.5194  3.3344
  151SAPE  H12Y16770   2.081   4.327   8.013 -1.1210 -1.6850  0.7505
  151SAPE  C31316771   2.044   4.395   8.216  0.3983 -0.1573  0.9287
  151SAPE  H13X16772   1.943   4.350   8.206  0.0709  0.4159  1.5848
  151SAPE  H13Y16773   2.033   4.503   8.195  2.3162 -0.2952 -1.2156
  151SAPE  C31416774   2.087   4.368   8.355  0.1514  0.0892 -0.4473
  151SAPE  H14X16775   2.051   4.450   8.421  0.2131  1.1329 -1.6774
  151SAPE  H14Y16776   2.197   4.377   8.367  0.2995 -2.5529  1.1889
  151SAPE  C31516777   2.050   4.219   8.401 -0.3316  0.3508  0.0160
  151SAPE  H15X16778   2.040   4.175   8.299 -1.3039  3.9257 -1.6152
  151SAPE  H15Y16779   1.947   4.203   8.438 -0.5366  1.1800 -0.1584
  151SAPE  C31616780   2.153   4.150   8.498 -0.3512 -0.5696 -0.3648
  151SAPE  H16X16781   2.110   4.056   8.539  1.9351 -1.4594  0.1529
  151SAPE  H16Y16782   2.175   4.216   8.585  0.2065 -0.9969 -0.1718
  151SAPE  C31716783   2.285   4.125   8.424  1.2017 -0.4953  0.8369
  151SAPE  H17X16784   2.354   4.091   8.505 -0.2715  0.6091  2.6461
  151SAPE  H17Y16785   2.334   4.216   8.384  0.3098  0.2868  1.4994
  151SAPE  C31816786   2.278   4.012   8.326 -0.0776  0.7190  0.1075
  151SAPE  H18X16787   2.250   3.916   8.374  0.2767  0.0310 -1.0042
  151SAPE  H18Y16788   2.377   4.005   8.275 -1.1124  1.0486 -2.0932
  151SAPE  H18Z16789   2.196   4.021   8.251  0.1217 -0.0123 -0.2110
  152SAPE     N16790   6.068   5.932   6.602 -0.0164  0.4623  0.2740
  152SAPE   HN116791   6.018   5.845   6.628  0.2786  0.1616 -0.1546
  152SAPE   HN216792   6.089   5.925   6.501  0.8601  0.4676  0.4499
  152SAPE   HN316793   6.155   5.933   6.660 -1.5304 -1.6578  2.8264
  152SAPE   C1216794   5.972   6.049   6.625 -0.4842 -0.0453  0.3709
  152SAPE  H12A16795   6.022   6.142   6.591 -2.6050  0.8602 -0.4907
  152SAPE  H12B16796   5.949   6.040   6.733 -1.7413  1.3786  0.2560
  152SAPE   C1116797   5.851   6.034   6.533  0.2837  0.3570  0.8784
  152SAPE  H11A16798   5.873   6.060   6.427 -1.7958  4.0011  1.1486
  152SAPE  H11B16799   5.769   6.103   6.563 -1.3990 -0.4205 -1.5975
  152SAPE     P16800   5.714   5.843   6.424  0.0564 -0.0460 -0.2931
  152SAPE   O1316801   5.604   5.937   6.389 -0.2116 -0.3513 -0.3109
  152SAPE   O1416802   5.810   5.812   6.316  0.5271 -0.1231  0.3768
  152SAPE   O1216803   5.793   5.902   6.547  0.0806  0.9673 -0.0137
  152SAPE   O1116804   5.640   5.722   6.479  0.5410  0.5530  0.0793
  152SAPE    C116805   5.705   5.638   6.579 -0.0581 -0.0045 -0.0531
  152SAPE    HA16806   5.722   5.533   6.546 -0.4822 -0.0379 -0.1738
  152SAPE    HB16807   5.804   5.681   6.607 -0.5256 -0.0109  1.7313
  152SAPE    C216808   5.614   5.629   6.706 -0.0369 -0.2356  1.1191
  152SAPE    HS16809   5.519   5.587   6.669  0.5418 -1.1907  0.6743
  152SAPE   O2116810   5.602   5.759   6.758 -0.4436  0.2696 -0.0619
  152SAPE   C2116811   5.485   5.813   6.763  0.1145 -0.2851 -0.1962
  152SAPE   O2216812   5.380   5.758   6.722 -0.0892  0.2200 -0.4348
  152SAPE   C2216813   5.492   5.953   6.828 -0.1627 -0.4346  0.0279
  152SAPE   H2R16814   5.544   5.952   6.926 -2.0398  2.0578  1.1600
  152SAPE   H2S16815   5.553   6.026   6.770 -1.7191 -0.0537 -1.2038
  152SAPE    C316816   5.672   5.526   6.813  0.5776 -0.1396  0.3374
  152SAPE    HX16817   5.775   5.564   6.829 -0.3860  2.7945  0.1489
  152SAPE    HY16818   5.684   5.420   6.779 -0.4177 -0.6715  1.5696
  152SAPE   O3116819   5.602   5.526   6.936 -0.1894  0.0552  0.0025
  152SAPE   C3116820   5.474   5.481   6.941 -0.8294  0.3328  0.0228
  152SAPE   O3216821   5.416   5.434   6.847  0.9625  0.0953 -0.2596
  152SAPE   C3216822   5.416   5.504   7.081 -0.0731  0.0835  0.4475
  152SAPE   H2X16823   5.483   5.570   7.141 -0.7899 -0.0417  1.4071
  152SAPE   H2Y16824   5.420   5.408   7.137 -1.7459 -1.5874 -2.0686
  152SAPE   C2316825   5.350   6.004   6.866  0.4327 -0.0970 -0.6513
  152SAPE   H3R16826   5.286   5.923   6.905  1.1621 -0.2069  0.3502
  152SAPE   H3S16827   5.308   6.051   6.774  0.7492  1.2160 -0.1529
  152SAPE   C2416828   5.347   6.121   6.969 -0.4474  0.6783  0.2512
  152SAPE   H4R16829   5.420   6.198   6.936  0.8156 -1.4616 -2.3024
  152SAPE   H4S16830   5.383   6.082   7.067 -0.6159  0.6169  0.2899
  152SAPE   C2516831   5.214   6.185   6.982  0.1922  0.0768 -0.5909
  152SAPE   H5R16832   5.175   6.215   6.884 -0.1803  1.6205 -0.0045
  152SAPE   C2616833   5.139   6.201   7.098 -0.3626 -0.1310  0.6434
  152SAPE   H6R16834   5.035   6.238   7.098 -1.6892 -3.5508  0.6183
  152SAPE   C2716835   5.161   6.145   7.235 -0.0820 -0.4005  0.8808
  152SAPE   H7R16836   5.242   6.070   7.232 -2.6001 -3.2990  1.0218
  152SAPE   H7S16837   5.072   6.081   7.251 -0.7506  0.3973  0.4788
  152SAPE   C2816838   5.180   6.252   7.341  0.3420  0.4831 -0.7654
  152SAPE   H8R16839   5.188   6.356   7.308 -1.4923  1.1910  0.8197
  152SAPE   C2916840   5.187   6.235   7.479  0.7394 -0.1513  0.1867
  152SAPE   H9R16841   5.196   6.327   7.538  0.4682 -0.0073  0.0060
  152SAPE  C21016842   5.166   6.102   7.540  0.4859 -0.0451 -0.9128
  152SAPE  H10R16843   5.265   6.057   7.562  1.5496 -0.1360 -5.0461
  152SAPE  H10S16844   5.098   6.041   7.477  0.9894 -0.7303 -0.8119
  152SAPE  C21116845   5.082   6.118   7.665 -0.4646 -0.3386 -0.1868
  152SAPE  H11R16846   4.974   6.113   7.644 -0.2226  1.0498 -2.0510
  152SAPE  C21216847   5.114   6.120   7.796  0.5171 -0.6955  0.5296
  152SAPE  H12R16848   5.027   6.137   7.860  1.1975  1.0310  1.0567
  152SAPE  C21316849   5.245   6.116   7.868  0.2841 -0.8522 -0.7616
  152SAPE  H13R16850   5.257   6.217   7.912 -0.7448 -0.8213 -0.5146
  152SAPE  H13S16851   5.328   6.098   7.797  2.7447 -0.7785  1.9227
  152SAPE  C21416852   5.245   6.017   7.982  0.1249  1.0133  0.0310
  152SAPE  H14R16853   5.278   5.915   7.957  0.0959  0.2475  2.8247
  152SAPE  C21516854   5.227   6.033   8.117 -0.7365  0.0261 -0.1591
  152SAPE  H15R16855   5.241   5.947   8.184 -1.2507 -0.5883 -0.8299
  152SAPE  C21616856   5.198   6.168   8.194 -0.1847  0.7407 -0.0698
  152SAPE  H16R16857   5.111   6.148   8.259 -3.2125  1.4032 -3.5482
  152SAPE  H16S16858   5.183   6.251   8.121 -0.6441 -0.5483 -1.4853
  152SAPE  C21716859   5.315   6.202   8.288 -0.3206  0.1077 -0.4861
  152SAPE  H17R16860   5.412   6.189   8.233 -0.7534 -1.9446 -0.8568
  152SAPE  H17S16861   5.316   6.129   8.371  1.0604  1.4803  0.7740
  152SAPE  C21816862   5.288   6.332   8.358 -0.2820  0.4105  0.0814
  152SAPE  H18R16863   5.179   6.345   8.346 -0.4206 -1.3913 -1.0337
  152SAPE  H18S16864   5.331   6.419   8.304  3.1501 -1.7507 -1.0924
  152SAPE  C21916865   5.331   6.330   8.504  0.4684  0.2890  1.2274
  152SAPE  H19R16866   5.434   6.291   8.521 -0.7292 -2.3020  3.2433
  152SAPE  H19S16867   5.271   6.254   8.559  1.5262 -1.6305 -0.1085
  152SAPE  C22016868   5.312   6.470   8.564  0.5114 -0.1627 -0.1661
  152SAPE  H20R16869   5.296   6.468   8.674 -0.5885  0.1910 -0.3081
  152SAPE  H20S16870   5.222   6.517   8.518  0.0648 -1.7534 -1.0041
  152SAPE  H20T16871   5.397   6.537   8.540 -0.8495  1.3760 -0.8396
  152SAPE   C3316872   5.271   5.570   7.064  1.1566  0.1317 -0.1154
  152SAPE   H3X16873   5.208   5.497   7.009 -1.1636  2.1404 -0.3119
  152SAPE   H3Y16874   5.279   5.659   6.998 -1.9131  2.5532  2.4373
  152SAPE   C3416875   5.201   5.592   7.193  0.0533 -0.9819  0.1987
  152SAPE   H4X16876   5.198   5.502   7.258 -0.8909 -0.4079  0.9796
  152SAPE   H4Y16877   5.097   5.614   7.159  1.4702  0.3406 -3.8611
  152SAPE   C3516878   5.272   5.708   7.269 -0.2889 -0.2099 -0.1422
  152SAPE   H5X16879   5.310   5.787   7.200 -1.1367  0.4460  0.1265
  152SAPE   H5Y16880   5.363   5.660   7.311 -0.3237 -2.4437 -2.3677
  152SAPE   C3616881   5.181   5.765   7.380 -0.0223  0.0019 -0.7469
  152SAPE   H6X16882   5.089   5.793   7.324  1.4558 -0.7642 -3.7391
  152SAPE   H6Y16883   5.235   5.859   7.403 -0.5598  0.3205 -0.7726
  152SAPE   C3716884   5.146   5.659   7.484  0.3937  0.2367  0.6568
  152SAPE   H7X16885   5.232   5.597   7.518  0.7336 -0.5055 -1.4218
  152SAPE   H7Y16886   5.068   5.590   7.446 -0.3680  1.8799 -0.9214
  152SAPE   C3816887   5.092   5.742   7.596  0.2834  0.1261 -0.1015
  152SAPE   H8X16888   4.998   5.799   7.580 -0.5647 -0.6071  1.8340
  152SAPE   H8Y16889   5.175   5.802   7.639 -0.6749  1.1132  0.4328
  152SAPE   C3916890   5.054   5.653   7.722 -1.0940  0.0967  0.4695
  152SAPE   H9X16891   5.140   5.604   7.772 -1.3818  0.0190  0.8972
  152SAPE   H9Y16892   4.996   5.571   7.674  0.8460 -1.9480  1.4626
  152SAPE  C31016893   4.992   5.734   7.834 -0.5766  0.8507  0.2952
  152SAPE  H10X16894   4.889   5.764   7.805 -0.5399 -0.0645 -0.8759
  152SAPE  H10Y16895   5.040   5.834   7.844  1.6274 -0.2947  1.9667
  152SAPE  C31116896   4.991   5.668   7.973 -0.3202 -0.1705  0.1130
  152SAPE  H11X16897   5.098   5.658   8.003 -0.0776 -2.0443 -1.1885
  152SAPE  H11Y16898   4.941   5.569   7.960  1.8442 -1.2942 -0.2545
  152SAPE  C31216899   4.923   5.744   8.086 -0.0780  0.2348 -0.4700
  152SAPE  H12X16900   4.835   5.798   8.045  0.2471  0.8545 -0.3602
  152SAPE  H12Y16901   4.996   5.815   8.131 -0.2786 -1.2852  2.5078
  152SAPE  C31316902   4.884   5.648   8.195 -0.0077 -0.5197 -0.6702
  152SAPE  H13X16903   4.971   5.580   8.209  0.3284  0.3707  2.3329
  152SAPE  H13Y16904   4.788   5.594   8.179 -0.3136 -1.3815  3.1534
  152SAPE  C31416905   4.883   5.719   8.335  0.3492 -0.2406 -0.8791
  152SAPE  H14X16906   4.796   5.789   8.339  0.2716 -0.4080  0.9667
  152SAPE  H14Y16907   4.979   5.769   8.359  0.4142 -1.4545  1.6735
  152SAPE  C31516908   4.853   5.616   8.454  0.2940  0.4904  0.6433
  152SAPE  H15X16909   4.872   5.520   8.402 -0.3961  1.2487 -1.0718
  152SAPE  H15Y16910   4.743   5.614   8.472  0.2132  2.2176  0.5022
  152SAPE  C31616911   4.939   5.643   8.576 -0.8088 -0.0955  0.0804
  152SAPE  H16X16912   4.928   5.748   8.611 -0.8851 -0.4976  1.3190
  152SAPE  H16Y16913   5.047   5.631   8.556 -0.7922  1.6068 -1.0869
  152SAPE  C31716914   4.903   5.563   8.705  0.3080 -0.0095 -1.0656
  152SAPE  H17X16915   4.908   5.455   8.679  1.2230  0.1166 -1.4445
  152SAPE  H17Y16916   4.798   5.586   8.734 -0.4087 -2.6357 -1.2551
  152SAPE  C31816917   5.000   5.607   8.813 -0.6310  0.8862  0.1864
  152SAPE  H18X16918   5.010   5.715   8.837  2.0135  0.3621  1.7452
  152SAPE  H18Y16919   5.102   5.568   8.795 -1.4265 -0.4356 -1.9464
  152SAPE  H18Z16920   4.961   5.567   8.909  0.7643  0.4337  0.5805
  153SAPE     N16921   3.165   0.055   6.360 -0.0160 -0.2678 -0.0430
  153SAPE   HN116922   3.210   0.082   6.270  0.7669  4.7815  1.5518
  153SAPE   HN216923   3.147   0.146   6.406  2.0831 -0.2595  0.8594
  153SAPE   HN316924   3.237   0.012   6.421 -0.4150  0.1107  0.7004
  153SAPE   C1216925   3.033  -0.023   6.360 -0.5493  0.1527 -0.0194
  153SAPE  H12A16926   3.034  -0.089   6.271  0.3531  1.4118 -0.9887
  153SAPE  H12B16927   2.955   0.054   6.343  0.6174  1.1027 -1.3787
  153SAPE   C1116928   3.001  -0.090   6.490 -0.2246 -0.0704 -0.7837
  153SAPE  H11A16929   3.096  -0.144   6.509 -0.8114 -0.0990  2.6164
  153SAPE  H11B16930   2.917  -0.161   6.475  0.1641 -0.3062 -1.9622
  153SAPE     P16931   2.856   0.038   6.657  0.2817 -0.0591  0.2403
  153SAPE   O1316932   2.866   0.151   6.747 -0.6099  0.3126 -0.6391
  153SAPE   O1416933   2.759   0.054   6.546 -0.3514 -0.0552 -0.5230
  153SAPE   O1216934   2.993   0.017   6.585 -0.2219 -0.1827 -0.7980
  153SAPE   O1116935   2.846  -0.104   6.732  0.4284 -0.4629  0.4085
  153SAPE    C116936   2.942  -0.150   6.827 -0.1379 -1.0623  0.6440
  153SAPE    HA16937   3.046  -0.131   6.791  0.0092 -1.4489  0.8713
  153SAPE    HB16938   2.933  -0.094   6.922  2.5593  0.4714  0.1101
  153SAPE    C216939   2.934  -0.301   6.839  0.3435  0.4150 -0.3133
  153SAPE    HS16940   2.914  -0.344   6.739  0.9865  1.3999 -0.8812
  153SAPE   O2116941   2.819  -0.320   6.918 -0.6658  0.1086 -0.6265
  153SAPE   C2116942   2.737  -0.415   6.880 -0.5449  0.2040 -0.0098
  153SAPE   O2216943   2.753  -0.487   6.781 -0.4376  0.5016 -0.6795
  153SAPE   C2216944   2.611  -0.428   6.963 -0.4873  0.3680 -0.1045
  153SAPE   H2R16945   2.537  -0.353   6.926  0.6621 -0.0729 -3.6040
  153SAPE   H2S16946   2.565  -0.527   6.947 -1.2354  1.1412 -3.3173
  153SAPE    C316947   3.059  -0.366   6.902  0.6404 -0.4138  0.1620
  153SAPE    HX16948   3.085  -0.315   6.998  0.2697 -0.4589  0.2893
  153SAPE    HY16949   3.144  -0.352   6.833  1.4933  0.6394  1.3821
  153SAPE   O3116950   3.037  -0.510   6.943 -0.0391 -0.2892 -0.6918
  153SAPE   C3116951   3.042  -0.588   6.835 -0.0355  0.1180  0.1308
  153SAPE   O3216952   3.049  -0.549   6.720 -0.0109 -0.2511  0.2127
  153SAPE   C3216953   3.031  -0.737   6.875  0.1997  0.6214  0.0708
  153SAPE   H2X16954   3.136  -0.770   6.892  0.5832  0.8982 -1.6084
  153SAPE   H2Y16955   2.996  -0.789   6.783  1.5530 -0.4153  0.1073
  153SAPE   C2316956   2.645  -0.399   7.113  0.1719  0.1012  0.1190
  153SAPE   H3R16957   2.550  -0.396   7.170 -1.8003  4.1445 -2.8968
  153SAPE   H3S16958   2.681  -0.295   7.124 -0.2806  0.3179 -0.3939
  153SAPE   C2416959   2.743  -0.496   7.176 -0.5500 -0.6108 -0.5425
  153SAPE   H4R16960   2.842  -0.493   7.127 -0.1030  1.3257  0.4002
  153SAPE   H4S16961   2.696  -0.595   7.154 -3.3227  0.4995 -0.0955
  153SAPE   C2516962   2.764  -0.481   7.323  0.3659  0.0147  0.0054
  153SAPE   H5R16963   2.670  -0.484   7.380  0.0831  3.7195 -0.0333
  153SAPE   C2616964   2.877  -0.435   7.385  0.8250  0.4485 -0.1635
  153SAPE   H6R16965   2.880  -0.434   7.495 -3.2807  0.1852  0.1017
  153SAPE   C2716966   2.997  -0.389   7.318 -0.3808  0.8049  0.2939
  153SAPE   H7R16967   3.018  -0.454   7.230  2.3675 -0.3208  1.6424
  153SAPE   H7S16968   3.079  -0.427   7.383 -0.0559  0.4845 -0.2901
  153SAPE   C2816969   2.999  -0.242   7.277 -0.1824 -0.0569 -0.0987
  153SAPE   H8R16970   2.980  -0.233   7.169 -3.4479 -3.2361  0.0523
  153SAPE   C2916971   3.007  -0.128   7.357  0.3245  0.0898 -0.1972
  153SAPE   H9R16972   3.005  -0.032   7.304 -0.7910 -0.4481 -1.1819
  153SAPE  C21016973   3.010  -0.116   7.508 -0.0345 -0.2741  0.1339
  153SAPE  H10R16974   3.095  -0.048   7.531  1.0118 -1.9227  1.3615
  153SAPE  H10S16975   3.043  -0.213   7.551 -0.9716 -1.9644 -2.7222
  153SAPE  C21116976   2.885  -0.061   7.571  0.7505  0.1789 -0.7665
  153SAPE  H11R16977   2.830   0.008   7.505  0.2133  0.5654  0.0719
  153SAPE  C21216978   2.825  -0.104   7.685  0.2388 -1.2525  0.2608
  153SAPE  H12R16979   2.729  -0.064   7.721 -0.1557 -1.1634 -0.8507
  153SAPE  C21316980   2.884  -0.198   7.785 -0.5786 -0.1348  0.8029
  153SAPE  H13R16981   2.881  -0.145   7.882 -2.8740 -1.6913  1.6584
  153SAPE  H13S16982   2.994  -0.214   7.779 -0.1188  2.5762  1.0272
  153SAPE  C21416983   2.823  -0.337   7.785 -0.2457  0.6986 -0.6212
  153SAPE  H14R16984   2.859  -0.411   7.712 -1.7699  1.4813 -2.2735
  153SAPE  C21516985   2.735  -0.388   7.872  0.2754  0.2897 -0.5594
  153SAPE  H15R16986   2.695  -0.488   7.847  0.0063  0.7775 -2.2514
  153SAPE  C21616987   2.671  -0.321   7.990 -0.6166 -0.1676  0.0308
  153SAPE  H16R16988   2.561  -0.339   7.986 -0.5528 -0.3546 -1.7317
  153SAPE  H16S16989   2.686  -0.211   7.981  1.3607 -0.3874  0.2668
  153SAPE  C21716990   2.729  -0.372   8.124 -0.0259  0.1505  0.1207
  153SAPE  H17R16991   2.727  -0.483   8.128  0.2011  0.0660 -1.4789
  153SAPE  H17S16992   2.662  -0.326   8.200  0.6174  1.1175  0.1241
  153SAPE  C21816993   2.877  -0.328   8.155  0.2438 -0.5960 -0.9621
  153SAPE  H18R16994   2.870  -0.217   8.150 -2.3111 -0.7337 -2.5996
  153SAPE  H18S16995   2.951  -0.352   8.075  0.3800 -1.6039 -0.5454
  153SAPE  C21916996   2.925  -0.374   8.285 -0.3505 -0.2407 -0.1706
  153SAPE  H19R16997   2.928  -0.485   8.290  0.1246 -0.2274 -0.1596
  153SAPE  H19S16998   2.868  -0.334   8.372 -0.2886 -1.1787  0.3151
  153SAPE  C22016999   3.069  -0.322   8.305 -0.5723 -0.7192 -0.6663
  153SAPE  H20R17000   3.126  -0.378   8.382  1.9012  0.4904 -1.4891
  153SAPE  H20S17001   3.067  -0.216   8.338 -0.5774 -1.1724  0.8508
  153SAPE  H20T17002   3.112  -0.341   8.204 -2.0833 -1.0392 -1.2796
  153SAPE   C3317003   2.924  -0.763   6.987  0.5581 -0.5677  0.1005
  153SAPE   H3X17004   2.836  -0.700   6.963  1.1081  0.3393  0.3955
  153SAPE   H3Y17005   2.980  -0.719   7.072  1.9301  0.0777 -1.0938
  153SAPE   C3417006   2.900  -0.912   7.016 -0.1120  0.0313 -0.1403
  153SAPE   H4X17007   2.970  -0.942   7.096  0.9896  0.6905 -0.8331
  153SAPE   H4Y17008   2.929  -0.971   6.926  2.1873  1.9803 -0.7728
  153SAPE   C3517009   2.751  -0.932   7.052 -0.1453 -0.0099  0.1168
  153SAPE   H5X17010   2.714  -1.032   7.021 -2.0489  1.1633 -1.6887
  153SAPE   H5Y17011   2.692  -0.866   6.985  0.9418  0.6056 -0.2540
  153SAPE   C3617012   2.718  -0.901   7.191 -0.2734  1.2305 -0.0720
  153SAPE   H6X17013   2.749  -0.798   7.218  3.4745  0.7996 -2.0618
  153SAPE   H6Y17014   2.774  -0.967   7.261  2.1785  1.0325 -2.0996
  153SAPE   C3717015   2.571  -0.929   7.226  0.1640  0.3028  0.2352
  153SAPE   H7X17016   2.535  -1.008   7.156 -0.0309  1.4615 -1.0154
  153SAPE   H7Y17017   2.503  -0.848   7.191 -0.5102 -0.6319 -0.6559
  153SAPE   C3817018   2.537  -0.966   7.376  0.5060  0.0810  0.9613
  153SAPE   H8X17019   2.591  -1.055   7.415  0.5886  0.2899  1.3296
  153SAPE   H8Y17020   2.429  -0.989   7.373  0.5042  0.0743 -2.2642
  153SAPE   C3917021   2.567  -0.848   7.470  0.3335 -0.3358  0.4793
  153SAPE   H9X17022   2.505  -0.763   7.435 -1.1637 -0.5542  2.4152
  153SAPE   H9Y17023   2.676  -0.830   7.456  0.2159 -1.6494 -3.2469
  153SAPE  C31017024   2.529  -0.885   7.619 -0.4921  0.2217  0.0131
  153SAPE  H10X17025   2.586  -0.972   7.659  2.1285  2.5475  1.7206
  153SAPE  H10Y17026   2.421  -0.901   7.635 -1.0835  1.3186 -2.3841
  153SAPE  C31117027   2.572  -0.768   7.707  0.0663 -0.0188 -0.5117
  153SAPE  H11X17028   2.513  -0.677   7.684 -1.7492 -0.5645  1.6762
  153SAPE  H11Y17029   2.679  -0.740   7.698  0.5048 -1.5267 -0.3562
  153SAPE  C31217030   2.531  -0.790   7.854 -0.4175  0.0004 -0.5004
  153SAPE  H12X17031   2.441  -0.856   7.853 -0.6379  0.3030 -0.9209
  153SAPE  H12Y17032   2.511  -0.699   7.914 -0.1852 -0.7249  0.6965
  153SAPE  C31317033   2.642  -0.861   7.932  0.7285  0.4554  0.5199
  153SAPE  H13X17034   2.740  -0.809   7.921  1.6374 -0.7545  2.3649
  153SAPE  H13Y17035   2.653  -0.961   7.885 -1.2028  0.6980 -0.5335
  153SAPE  C31417036   2.609  -0.881   8.082  0.6114 -0.1078 -0.8033
  153SAPE  H14X17037   2.665  -0.970   8.120  0.8109  0.4709  0.3021
  153SAPE  H14Y17038   2.506  -0.922   8.087  1.3226 -1.9889 -0.7762
  153SAPE  C31517039   2.639  -0.765   8.184 -0.3530  0.1349 -0.0513
  153SAPE  H15X17040   2.597  -0.669   8.147  0.7926  0.1342 -1.4595
  153SAPE  H15Y17041   2.750  -0.761   8.187 -0.2834 -0.4591 -1.2338
  153SAPE  C31617042   2.586  -0.798   8.328 -0.3538 -0.0005 -0.1305
  153SAPE  H16X17043   2.625  -0.899   8.353  2.4561  0.8226 -0.8343
  153SAPE  H16Y17044   2.476  -0.805   8.314 -0.4023  1.2029 -0.5020
  153SAPE  C31717045   2.612  -0.691   8.435  0.2657  0.7852  0.0765
  153SAPE  H17X17046   2.563  -0.597   8.403 -2.3738  0.1518  1.9295
  153SAPE  H17Y17047   2.719  -0.666   8.448  0.2350  0.6027  0.7177
  153SAPE  C31817048   2.553  -0.726   8.574  0.2099 -0.2662  0.3872
  153SAPE  H18X17049   2.566  -0.658   8.661 -3.5406 -0.5622  1.3477
  153SAPE  H18Y17050   2.574  -0.832   8.600  0.1501 -0.3585  0.0646
  153SAPE  H18Z17051   2.443  -0.729   8.559  0.4641 -0.1444 -1.8783
  154SAPE     N17052   6.609   4.836   6.335 -0.2010 -0.2809 -0.0038
  154SAPE   HN117053   6.703   4.828   6.291 -0.4288 -0.2263 -0.5113
  154SAPE   HN217054   6.572   4.739   6.336 -1.6598  0.2568  0.0384
  154SAPE   HN317055   6.560   4.906   6.275  1.5284 -0.3520 -1.6045
  154SAPE   C1217056   6.617   4.883   6.474 -0.0772  0.2196 -0.8590
  154SAPE  H12A17057   6.646   4.801   6.543  1.4915  1.0335 -0.5164
  154SAPE  H12B17058   6.513   4.917   6.496 -0.7431 -0.7935 -2.2697
  154SAPE   C1117059   6.714   4.998   6.521 -0.0816  0.8209  0.2679
  154SAPE  H11A17060   6.819   4.973   6.494  0.1230  0.1721  1.5711
  154SAPE  H11B17061   6.714   4.988   6.631 -1.7662 -2.1502  0.1303
  154SAPE     P17062   6.593   5.224   6.566  0.2816 -0.0952  0.2221
  154SAPE   O1317063   6.594   5.361   6.515 -0.1587 -0.5349 -0.1329
  154SAPE   O1417064   6.458   5.170   6.586  0.4330 -0.0133  0.3563
  154SAPE   O1217065   6.670   5.125   6.471 -0.2904 -0.4378  0.2312
  154SAPE   O1117066   6.674   5.225   6.702  0.7977  0.1541  0.2616
  154SAPE    C117067   6.818   5.242   6.689  0.5274 -0.5595 -0.4069
  154SAPE    HA17068   6.865   5.148   6.726  0.7451  0.4806  2.1792
  154SAPE    HB17069   6.861   5.264   6.589  2.8821 -0.0071  0.6574
  154SAPE    C217070   6.878   5.356   6.777 -0.1807  0.3732  0.4016
  154SAPE    HS17071   6.988   5.352   6.795 -0.2693 -1.4759  0.8108
  154SAPE   O2117072   6.815   5.352   6.903 -0.4824  0.2507  0.2991
  154SAPE   C2117073   6.853   5.255   6.984  0.6664 -0.9958  0.3342
  154SAPE   O2217074   6.938   5.172   6.962  0.8239  0.3113  0.1932
  154SAPE   C2217075   6.792   5.286   7.123 -0.4902  0.7256 -0.0582
  154SAPE   H2R17076   6.783   5.397   7.130 -0.1823  0.8650 -1.5427
  154SAPE   H2S17077   6.694   5.234   7.129 -0.0978  0.1478  3.2772
  154SAPE    C317078   6.849   5.496   6.721 -0.4934 -0.4677  0.9758
  154SAPE    HX17079   6.750   5.515   6.674  1.1511  1.0611 -2.1752
  154SAPE    HY17080   6.909   5.495   6.628 -0.0932 -1.0968  1.2324
  154SAPE   O3117081   6.905   5.599   6.804  0.3662 -0.3854 -0.0653
  154SAPE   C3117082   6.888   5.728   6.751  0.5860  0.3773  0.0167
  154SAPE   O3217083   6.823   5.757   6.652 -0.1306 -1.1630 -0.0610
  154SAPE   C3217084   6.959   5.834   6.825  0.0595 -0.4072  0.2945
  154SAPE   H2X17085   6.936   5.934   6.783 -1.2309 -0.1929  1.4425
  154SAPE   H2Y17086   7.069   5.821   6.814  0.3452  3.0155 -2.6185
  154SAPE   C2317087   6.875   5.215   7.232  0.3793 -0.0801  0.0465
  154SAPE   H3R17088   6.976   5.258   7.212 -1.1517  2.4360 -3.1421
  154SAPE   H3S17089   6.881   5.105   7.223 -1.8648 -0.3053  0.6687
  154SAPE   C2417090   6.835   5.253   7.374  0.0419 -0.4669 -0.3311
  154SAPE   H4R17091   6.819   5.363   7.366  0.2687 -0.5010 -1.4090
  154SAPE   H4S17092   6.916   5.238   7.449  0.7610  1.8467 -0.5542
  154SAPE   C2517093   6.712   5.181   7.410  1.1195 -0.2339 -0.1026
  154SAPE   H5R17094   6.669   5.124   7.327 -2.4992  0.9901  0.7442
  154SAPE   C2617095   6.657   5.160   7.531  0.6492 -0.0253  0.1966
  154SAPE   H6R17096   6.563   5.103   7.542  1.1615 -0.9218  0.0277
  154SAPE   C2717097   6.708   5.208   7.667  0.0282  0.0817  0.0226
  154SAPE   H7R17098   6.791   5.145   7.707  0.3207 -0.2715 -1.1193
  154SAPE   H7S17099   6.643   5.180   7.753  2.4965 -1.7018  1.4543
  154SAPE   C2817100   6.753   5.355   7.684  1.2346 -0.1934 -0.2834
  154SAPE   H8R17101   6.798   5.398   7.593  0.5262 -1.8428 -1.4591
  154SAPE   C2917102   6.727   5.415   7.799  0.5803 -0.1496 -0.2314
  154SAPE   H9R17103   6.765   5.515   7.822  3.9709 -1.1005 -1.0987
  154SAPE  C21017104   6.673   5.355   7.930  0.1398  0.9635  0.5688
  154SAPE  H10R17105   6.584   5.292   7.906 -1.3725  2.3922  2.0955
  154SAPE  H10S17106   6.626   5.436   7.991 -0.1676  1.2354 -0.0146
  154SAPE  C21117107   6.771   5.288   8.020  0.2616  0.2287  0.9825
  154SAPE  H11R17108   6.857   5.253   7.961 -0.4384  1.1847 -0.6572
  154SAPE  C21217109   6.765   5.273   8.157 -0.1468 -0.1324 -0.0709
  154SAPE  H12R17110   6.844   5.227   8.217  1.0112  1.1756 -0.5274
  154SAPE  C21317111   6.657   5.313   8.256  0.7534 -0.2415  0.6582
  154SAPE  H13R17112   6.644   5.237   8.336 -0.0867 -0.6374  0.1588
  154SAPE  H13S17113   6.555   5.318   8.211  0.7752 -1.8590  0.3729
  154SAPE  C21417114   6.689   5.454   8.298  0.7667  0.9468 -0.4754
  154SAPE  H14R17115   6.682   5.530   8.218  2.0508  0.6157 -0.9285
  154SAPE  C21517116   6.693   5.506   8.423 -0.1847  0.4796  0.0953
  154SAPE  H15R17117   6.735   5.606   8.437  1.0072 -0.0006  0.0388
  154SAPE  C21617118   6.686   5.425   8.554  0.0442 -0.0038  0.0474
  154SAPE  H16R17119   6.741   5.487   8.628 -0.0495  1.9412 -1.4263
  154SAPE  H16S17120   6.735   5.325   8.555  0.9543  0.3905 -1.3372
  154SAPE  C21717121   6.537   5.421   8.598  0.5295  0.8069 -0.2049
  154SAPE  H17R17122   6.501   5.337   8.534  0.0490  0.1410  0.8982
  154SAPE  H17S17123   6.474   5.510   8.579 -1.0427 -0.2285 -0.1174
  154SAPE  C21817124   6.516   5.372   8.747  0.1292 -0.1425 -0.3234
  154SAPE  H18R17125   6.547   5.444   8.825 -0.9141  2.2413 -1.9920
  154SAPE  H18S17126   6.578   5.279   8.750 -0.1392 -0.3834 -1.5823
  154SAPE  C21917127   6.366   5.341   8.768 -0.2865  0.3105  0.3770
  154SAPE  H19R17128   6.307   5.436   8.770 -1.9285 -0.5385 -2.1756
  154SAPE  H19S17129   6.350   5.291   8.866  0.3514 -2.0156 -0.6396
  154SAPE  C22017130   6.293   5.272   8.656  0.0045  0.1846 -0.3890
  154SAPE  H20R17131   6.261   5.340   8.574  0.7810 -0.8061 -1.5396
  154SAPE  H20S17132   6.210   5.216   8.706  1.7040 -0.7746  1.4996
  154SAPE  H20T17133   6.357   5.195   8.609 -0.3660 -0.2370 -0.2189
  154SAPE   C3317134   6.912   5.856   6.977 -0.0499  0.0193  0.0476
  154SAPE   H3X17135   6.934   5.960   7.007 -0.7761  0.2457 -0.1836
  154SAPE   H3Y17136   6.976   5.800   7.049  0.4383  0.6053  0.0773
  154SAPE   C3417137   6.772   5.816   7.006  0.1071  0.9808  0.1510
  154SAPE   H4X17138   6.749   5.709   6.987  0.6126  1.0230 -0.7345
  154SAPE   H4Y17139   6.710   5.883   6.943 -1.1889  0.6167  0.9937
  154SAPE   C3517140   6.733   5.856   7.147  0.4186 -0.2898 -0.9853
  154SAPE   H5X17141   6.623   5.841   7.156  0.3723  0.5542  0.2396
  154SAPE   H5Y17142   6.739   5.964   7.175 -3.9959 -0.2767  0.6759
  154SAPE   C3617143   6.797   5.778   7.257 -0.1339  0.6725 -1.2240
  154SAPE   H6X17144   6.906   5.794   7.255 -0.3340  2.2223 -3.2994
  154SAPE   H6Y17145   6.781   5.676   7.215  0.7795  0.2979 -0.6845
  154SAPE   C3717146   6.747   5.802   7.401 -0.0841  0.0631  0.2992
  154SAPE   H7X17147   6.652   5.748   7.420  0.9952 -2.5777 -1.2263
  154SAPE   H7Y17148   6.739   5.911   7.421  1.3447  0.2388  0.0141
  154SAPE   C3817149   6.841   5.753   7.505  0.3029  0.2804  0.1385
  154SAPE   H8X17150   6.935   5.811   7.507  0.4842  0.0331 -0.6668
  154SAPE   H8Y17151   6.867   5.650   7.470  1.0813  0.8267 -0.9454
  154SAPE   C3917152   6.793   5.741   7.650 -0.3339 -0.5157 -0.2031
  154SAPE   H9X17153   6.875   5.703   7.715 -1.2261 -0.8733  0.7404
  154SAPE   H9Y17154   6.707   5.678   7.680 -0.3377  0.9543  3.4732
  154SAPE  C31017155   6.755   5.883   7.707 -0.3636  0.3504 -0.5443
  154SAPE  H10X17156   6.674   5.928   7.646 -0.9574 -0.7281 -0.5646
  154SAPE  H10Y17157   6.848   5.941   7.688 -0.6830  0.7401 -0.9304
  154SAPE  C31117158   6.713   5.891   7.851  0.9567 -0.2182  0.4736
  154SAPE  H11X17159   6.611   5.847   7.854  0.4218  0.8768 -0.8132
  154SAPE  H11Y17160   6.683   5.994   7.877  1.4705  0.5709 -1.8989
  154SAPE  C31217161   6.810   5.815   7.948  0.5819  0.5496 -0.2182
  154SAPE  H12X17162   6.908   5.849   7.907  2.1908 -2.0166  1.1864
  154SAPE  H12Y17163   6.808   5.704   7.952  1.3612  0.5554  2.7126
  154SAPE  C31317164   6.799   5.851   8.098 -0.2061 -0.3553  0.0112
  154SAPE  H13X17165   6.827   5.958   8.113 -0.9656  0.0038 -1.0358
  154SAPE  H13Y17166   6.873   5.786   8.149 -0.6277 -0.2710  0.7407
  154SAPE  C31417167   6.666   5.831   8.164 -0.2326 -0.9255  0.7041
  154SAPE  H14X17168   6.627   5.730   8.138 -0.5823 -1.0472  1.6719
  154SAPE  H14Y17169   6.586   5.898   8.126  1.5002  2.1452  2.1651
  154SAPE  C31517170   6.682   5.841   8.315 -0.5358 -0.5878 -0.0827
  154SAPE  H15X17171   6.776   5.792   8.348  0.7773  1.0971 -1.1951
  154SAPE  H15Y17172   6.589   5.809   8.367 -1.2045  1.5110  0.1203
  154SAPE  C31617173   6.684   5.991   8.366 -0.4201  0.1099 -0.0517
  154SAPE  H16X17174   6.593   6.038   8.324 -1.7205 -1.4940  0.8270
  154SAPE  H16Y17175   6.772   6.039   8.319 -2.5002  1.0609 -3.3586
  154SAPE  C31717176   6.682   6.009   8.519  0.6481 -0.7223 -0.3213
  154SAPE  H17X17177   6.580   5.978   8.552 -0.2085  0.2334 -1.9163
  154SAPE  H17Y17178   6.696   6.118   8.539 -0.7242 -0.5434 -0.1667
  154SAPE  C31817179   6.791   5.932   8.594  0.6150  0.4450  0.2309
  154SAPE  H18X17180   6.752   5.879   8.683  1.7812 -1.5245 -0.3535
  154SAPE  H18Y17181   6.854   6.010   8.640 -0.9963  1.2752  1.1056
  154SAPE  H18Z17182   6.855   5.864   8.533  1.1424  0.9738  0.1842
  155SAPE     N17183   5.203   6.180   6.144 -0.2356 -0.8003 -0.3512
  155SAPE   HN117184   5.229   6.142   6.051  0.0663  0.7040 -0.9032
  155SAPE   HN217185   5.288   6.203   6.199 -0.2579 -0.6045 -0.3998
  155SAPE   HN317186   5.145   6.109   6.193 -1.2507 -1.5690 -2.5094
  155SAPE   C1217187   5.122   6.304   6.121  0.3573 -0.2543 -1.1597
  155SAPE  H12A17188   5.028   6.274   6.071  0.2452  0.7763 -1.5824
  155SAPE  H12B17189   5.165   6.365   6.039  1.8104 -1.8251 -1.6136
  155SAPE   C1117190   5.091   6.384   6.250  0.4810  0.2704  0.3929
  155SAPE  H11A17191   5.031   6.476   6.230  0.7308  0.5098  0.7262
  155SAPE  H11B17192   5.185   6.434   6.284 -0.8550  2.6316  0.8908
  155SAPE     P17193   4.891   6.259   6.368  0.3549 -0.0633 -0.1835
  155SAPE   O1317194   4.823   6.259   6.240  0.4919  0.0094  0.0127
  155SAPE   O1417195   4.889   6.134   6.448  0.1678  0.1908  0.2265
  155SAPE   O1217196   5.040   6.303   6.355  0.0272  0.1136  0.3618
  155SAPE   O1117197   4.816   6.362   6.468  0.1457  0.1688 -0.0297
  155SAPE    C117198   4.838   6.503   6.457 -0.3659 -0.4293  0.0542
  155SAPE    HA17199   4.914   6.528   6.380 -1.7618  1.5566 -0.7917
  155SAPE    HB17200   4.740   6.543   6.422 -0.3126 -0.2008  0.1618
  155SAPE    C217201   4.867   6.578   6.589  0.1452 -0.1612 -0.1717
  155SAPE    HS17202   4.893   6.683   6.561 -0.5959  0.2986  0.7966
  155SAPE   O2117203   4.971   6.508   6.656  0.2149 -0.5608 -0.2309
  155SAPE   C2117204   5.093   6.545   6.631  0.1126  0.2364  0.4028
  155SAPE   O2217205   5.124   6.634   6.555  0.1591 -0.0693  0.5022
  155SAPE   C2217206   5.187   6.460   6.715  0.4611  0.1477  0.7407
  155SAPE   H2R17207   5.135   6.398   6.792 -1.5971  2.6471  1.5163
  155SAPE   H2S17208   5.245   6.389   6.653  0.7686 -0.5252  1.7689
  155SAPE    C317209   4.741   6.579   6.688  0.7631 -0.1887 -0.1885
  155SAPE    HX17210   4.694   6.479   6.689 -1.0467  0.6196 -0.2444
  155SAPE    HY17211   4.668   6.645   6.635  1.6599  0.6203 -0.4634
  155SAPE   O3117212   4.764   6.634   6.816 -0.0184 -0.1245 -0.2901
  155SAPE   C3117213   4.807   6.545   6.903 -0.1165  0.2130  0.9267
  155SAPE   O3217214   4.815   6.428   6.885 -0.7512  0.3770 -0.2645
  155SAPE   C3217215   4.844   6.616   7.032 -0.0652  0.0596 -0.4353
  155SAPE   H2X17216   4.767   6.691   7.058  0.0910  0.0373  0.0904
  155SAPE   H2Y17217   4.943   6.664   7.012  0.1269 -0.4534 -0.7474
  155SAPE   C2317218   5.300   6.549   6.770 -0.2085  0.5236 -0.3354
  155SAPE   H3R17219   5.343   6.612   6.690  0.7413  1.7470  1.0882
  155SAPE   H3S17220   5.386   6.485   6.801  0.5453  1.4722 -0.4217
  155SAPE   C2417221   5.264   6.642   6.879  0.6348 -0.1078 -0.3304
  155SAPE   H4R17222   5.174   6.701   6.852  0.4156 -0.4117 -0.2691
  155SAPE   H4S17223   5.347   6.715   6.886  1.9865 -1.6101 -0.1597
  155SAPE   C2517224   5.246   6.564   7.001 -0.0612 -0.6166 -0.6766
  155SAPE   H5R17225   5.163   6.493   7.004 -3.2802  2.8161 -0.4307
  155SAPE   C2617226   5.310   6.582   7.118 -0.2650 -0.6740 -0.0517
  155SAPE   H6R17227   5.280   6.516   7.201  1.4145  2.7436  3.6188
  155SAPE   C2717228   5.410   6.689   7.144 -0.4894  0.1386 -0.2946
  155SAPE   H7R17229   5.351   6.760   7.206 -1.1340 -2.3915  2.2270
  155SAPE   H7S17230   5.453   6.748   7.061  1.6742  2.1880  2.1068
  155SAPE   C2817231   5.521   6.641   7.231 -0.1160  0.7341  0.3700
  155SAPE   H8R17232   5.598   6.586   7.175  0.4418  2.0286 -0.1664
  155SAPE   C2917233   5.535   6.647   7.369 -0.4477  0.1733  0.8138
  155SAPE   H9R17234   5.628   6.602   7.408 -0.3226  0.0029  0.3215
  155SAPE  C21017235   5.440   6.703   7.473  0.0263 -0.5264  0.3360
  155SAPE  H10R17236   5.364   6.776   7.437  0.2374 -0.0751  0.7935
  155SAPE  H10S17237   5.490   6.770   7.546 -1.7586  2.2794 -0.8533
  155SAPE  C21117238   5.365   6.589   7.531  0.8899 -0.1063 -0.7086
  155SAPE  H11R17239   5.311   6.524   7.460  0.0235 -0.7686  0.5064
  155SAPE  C21217240   5.345   6.559   7.661 -0.3089  0.2045  0.1148
  155SAPE  H12R17241   5.291   6.464   7.676 -1.6700  0.9566  0.1141
  155SAPE  C21317242   5.395   6.613   7.787 -0.8748 -0.3805 -0.2210
  155SAPE  H13R17243   5.310   6.667   7.834  0.6145  0.0135  2.1736
  155SAPE  H13S17244   5.474   6.689   7.767 -1.3359  0.4785  1.0794
  155SAPE  C21417245   5.430   6.506   7.886 -0.0275 -0.2905 -0.1341
  155SAPE  H14R17246   5.388   6.408   7.859  2.5020 -1.4809 -0.0928
  155SAPE  C21517247   5.514   6.518   7.998 -0.4660  0.1736  0.3152
  155SAPE  H15R17248   5.546   6.431   8.057  1.1344  1.1004  0.8511
  155SAPE  C21617249   5.575   6.647   8.049 -0.0539  0.2848  0.0255
  155SAPE  H16R17250   5.497   6.710   8.097 -0.4079  0.4828 -0.8035
  155SAPE  H16S17251   5.610   6.703   7.959  0.7426 -1.0388 -0.5169
  155SAPE  C21717252   5.687   6.616   8.150 -0.1469  0.2120  0.1270
  155SAPE  H17R17253   5.741   6.707   8.182 -0.5719 -0.0377  1.6155
  155SAPE  H17S17254   5.765   6.548   8.110  1.1217  0.0630  2.6724
  155SAPE  C21817255   5.632   6.547   8.278 -0.0128 -0.4034 -0.2422
  155SAPE  H18R17256   5.614   6.442   8.246 -4.4589 -1.0116  3.1666
  155SAPE  H18S17257   5.533   6.589   8.307  0.3497  1.0604 -1.0705
  155SAPE  C21917258   5.733   6.558   8.390  0.4383 -0.2738  0.3410
  155SAPE  H19R17259   5.747   6.668   8.389 -0.1332 -0.1811 -1.5052
  155SAPE  H19S17260   5.838   6.531   8.363 -0.0236 -1.3196 -0.5173
  155SAPE  C22017261   5.696   6.506   8.529  0.7090  0.1736 -0.1829
  155SAPE  H20R17262   5.780   6.512   8.601  0.1166 -0.0097  0.5336
  155SAPE  H20S17263   5.664   6.400   8.519 -3.2217  1.2801 -0.8290
  155SAPE  H20T17264   5.607   6.561   8.565  0.3362 -1.3341  1.3543
  155SAPE   C3317265   4.842   6.525   7.166  0.2937  0.1533  0.5530
  155SAPE   H3X17266   4.875   6.421   7.146 -1.1226 -0.3271  0.6205
  155SAPE   H3Y17267   4.738   6.522   7.205 -0.0596  1.9543 -0.1145
  155SAPE   C3417268   4.943   6.584   7.268 -0.1587  0.0611 -0.1227
  155SAPE   H4X17269   4.915   6.691   7.276 -0.5271 -0.1589  2.4439
  155SAPE   H4Y17270   5.051   6.576   7.243  0.6035 -0.5290  2.9830
  155SAPE   C3517271   4.929   6.510   7.401  0.2667  0.2026  0.0162
  155SAPE   H5X17272   4.964   6.404   7.398  1.9459  0.6156  2.1375
  155SAPE   H5Y17273   4.822   6.503   7.429  1.0484 -1.6187  3.0531
  155SAPE   C3617274   5.004   6.575   7.517  0.3868  0.3628  0.5591
  155SAPE   H6X17275   5.092   6.633   7.483  0.1140 -0.1230 -1.0620
  155SAPE   H6Y17276   5.034   6.487   7.578  0.9332 -1.0905 -1.6895
  155SAPE   C3717277   4.907   6.651   7.612  1.3250 -0.5600 -0.2338
  155SAPE   H7X17278   4.843   6.711   7.544 -0.3707 -1.5326  0.4440
  155SAPE   H7Y17279   4.970   6.730   7.658  0.5308  0.2817 -0.5577
  155SAPE   C3817280   4.838   6.560   7.714 -0.3322 -0.3849  0.8739
  155SAPE   H8X17281   4.797   6.476   7.654  1.0794 -1.5970  1.5355
  155SAPE   H8Y17282   4.748   6.611   7.756 -1.3962 -0.8609 -0.7123
  155SAPE   C3917283   4.921   6.504   7.825  0.6437 -0.0490 -0.0557
  155SAPE   H9X17284   4.994   6.439   7.772  0.4488  0.1616 -0.5817
  155SAPE   H9Y17285   4.855   6.438   7.885  1.2906 -1.4104 -0.7828
  155SAPE  C31017286   5.012   6.593   7.904  0.6530 -1.0433 -0.3473
  155SAPE  H10X17287   4.956   6.683   7.936  1.4464 -0.3022 -0.9895
  155SAPE  H10Y17288   5.098   6.629   7.844  0.4525 -1.8171 -1.1169
  155SAPE  C31117289   5.067   6.530   8.029 -1.0700  0.2186 -0.4716
  155SAPE  H11X17290   5.120   6.433   8.013 -0.0196  0.1512  2.7371
  155SAPE  H11Y17291   4.987   6.497   8.098  1.0507  0.9285  2.5091
  155SAPE  C31217292   5.167   6.623   8.106 -0.1800  1.3181 -0.2329
  155SAPE  H12X17293   5.203   6.701   8.036 -0.4777  1.6327 -0.0398
  155SAPE  H12Y17294   5.255   6.559   8.127 -1.3481 -1.1260 -2.2014
  155SAPE  C31317295   5.105   6.682   8.228  0.2647  0.2722  0.6416
  155SAPE  H13X17296   5.038   6.618   8.289 -0.7490  0.8385  0.1654
  155SAPE  H13Y17297   5.047   6.771   8.194  1.8552  0.9562 -0.3770
  155SAPE  C31417298   5.217   6.738   8.311  0.0358  0.0720 -0.2567
  155SAPE  H14X17299   5.285   6.796   8.245  0.1653  0.8538  0.5497
  155SAPE  H14Y17300   5.276   6.653   8.353 -0.6112 -0.6231 -0.7369
  155SAPE  C31517301   5.166   6.838   8.425 -0.9184  0.0427 -0.3788
  155SAPE  H15X17302   5.102   6.783   8.497  1.7236  0.7895  2.7577
  155SAPE  H15Y17303   5.105   6.917   8.376  1.6076  1.8025 -0.8799
  155SAPE  C31617304   5.273   6.902   8.512 -0.2358 -0.7189 -0.5024
  155SAPE  H16X17305   5.218   6.979   8.571 -1.0701 -0.8037 -1.1576
  155SAPE  H16Y17306   5.353   6.959   8.462 -0.7580  0.8834  0.4100
  155SAPE  C31717307   5.353   6.812   8.607 -0.4476 -0.6915 -0.5611
  155SAPE  H17X17308   5.420   6.740   8.556  0.4621 -0.0903 -0.2282
  155SAPE  H17Y17309   5.272   6.766   8.668 -0.5830  1.7099  1.1659
  155SAPE  C31817310   5.435   6.899   8.702  0.6767 -0.0544 -0.4551
  155SAPE  H18X17311   5.538   6.860   8.718  0.8133  0.5967  0.3304
  155SAPE  H18Y17312   5.379   6.895   8.798 -0.4637  0.6322 -1.0838
  155SAPE  H18Z17313   5.428   7.006   8.676 -0.6787  0.2065  0.8590
  156SAPE     N17314   2.518   0.148   6.595  0.0721 -0.1073  0.5248
  156SAPE   HN117315   2.605   0.108   6.555  0.6740  1.5683  0.0759
  156SAPE   HN217316   2.528   0.159   6.698  0.7437 -1.1941  0.5965
  156SAPE   HN317317   2.431   0.096   6.569 -1.1517  1.1992  1.8300
  156SAPE   C1217318   2.519   0.287   6.535  0.4293  0.2314  0.7892
  156SAPE  H12A17319   2.565   0.283   6.434  1.1400  0.0425  1.1196
  156SAPE  H12B17320   2.582   0.355   6.596  1.2815 -1.9835  2.5459
  156SAPE   C1117321   2.375   0.351   6.518  0.4609 -0.0023  0.1627
  156SAPE  H11A17322   2.322   0.294   6.438 -2.0516  1.9255  0.3398
  156SAPE  H11B17323   2.386   0.453   6.475  0.7520 -1.0321 -2.3758
  156SAPE     P17324   2.189   0.246   6.668  0.2494  0.1670  0.1236
  156SAPE   O1317325   2.066   0.279   6.598  0.1054 -0.4250 -0.9011
  156SAPE   O1417326   2.247   0.117   6.634 -0.0289  0.0297  0.2935
  156SAPE   O1217327   2.301   0.360   6.644 -0.3419  0.3613 -0.4980
  156SAPE   O1117328   2.158   0.234   6.824 -0.2791 -0.1706  0.6345
  156SAPE    C117329   2.189   0.327   6.919  0.0476  0.2758 -1.1858
  156SAPE    HA17330   2.181   0.434   6.890 -2.1865  0.2376 -0.8701
  156SAPE    HB17331   2.117   0.309   7.002  1.0226  0.5455 -0.2587
  156SAPE    C217332   2.337   0.311   6.978  0.2471  0.2747 -0.1896
  156SAPE    HS17333   2.410   0.331   6.897  1.2670  0.1893  0.6888
  156SAPE   O2117334   2.348   0.179   7.029 -0.1967  0.2418 -0.0205
  156SAPE   C2117335   2.431   0.093   6.961 -0.1685  0.0365 -0.3122
  156SAPE   O2217336   2.499   0.121   6.863 -0.2378 -1.3097 -0.9459
  156SAPE   C2217337   2.432  -0.044   7.032 -0.8114  0.5178 -0.5688
  156SAPE   H2R17338   2.324  -0.061   7.054 -0.9443 -0.3304 -1.8047
  156SAPE   H2S17339   2.464  -0.114   6.952 -3.4085  0.2463 -1.4491
  156SAPE    C317340   2.367   0.404   7.100  0.4534  0.8032 -0.1413
  156SAPE    HX17341   2.470   0.383   7.136  0.1370  0.9885  0.9088
  156SAPE    HY17342   2.293   0.370   7.176  1.8956  1.0825  1.4438
  156SAPE   O3117343   2.344   0.540   7.057  1.0121 -0.2427  0.4010
  156SAPE   C3117344   2.455   0.608   7.045 -0.0377 -0.5958 -0.5877
  156SAPE   O3217345   2.567   0.566   7.045  0.4869  1.0124 -0.0364
  156SAPE   C3217346   2.429   0.757   7.076  0.4724 -0.0483  0.0694
  156SAPE   H2X17347   2.380   0.762   7.175  3.4844 -0.3382  1.6899
  156SAPE   H2Y17348   2.357   0.799   7.002  1.3878 -1.2959 -1.5930
  156SAPE   C2317349   2.529  -0.048   7.158 -0.1308  0.6765  0.1517
  156SAPE   H3R17350   2.520  -0.157   7.178 -0.9543  0.4534 -1.2734
  156SAPE   H3S17351   2.485   0.009   7.242 -0.8143  1.5512 -0.7714
  156SAPE   C2417352   2.684  -0.040   7.134  0.0518 -0.0760  1.1610
  156SAPE   H4R17353   2.691  -0.104   7.044  1.6295 -0.4581  1.5272
  156SAPE   H4S17354   2.738  -0.095   7.214  2.2567  0.6870  0.2617
  156SAPE   C2517355   2.735   0.095   7.091  0.1235  0.4710  0.0378
  156SAPE   H5R17356   2.791   0.088   6.996 -0.9310 -2.5190 -0.4715
  156SAPE   C2617357   2.727   0.210   7.156  1.0154  0.8968  0.3675
  156SAPE   H6R17358   2.758   0.303   7.106  1.2612  0.6718  0.0957
  156SAPE   C2717359   2.652   0.232   7.287  1.0062 -0.4539 -0.0523
  156SAPE   H7R17360   2.657   0.137   7.343  0.3099 -1.3146 -1.3930
  156SAPE   H7S17361   2.543   0.244   7.266  0.7966 -0.1360  1.1128
  156SAPE   C2817362   2.708   0.356   7.365 -0.2262  0.4535 -0.0415
  156SAPE   H8R17363   2.805   0.396   7.332 -0.8340  2.5444  0.5874
  156SAPE   C2917364   2.649   0.432   7.463  0.3460  0.3595 -0.0708
  156SAPE   H9R17365   2.718   0.498   7.518  1.5684 -0.2352 -0.8442
  156SAPE  C21017366   2.509   0.403   7.516 -0.4065  0.6679  0.7768
  156SAPE  H10R17367   2.515   0.364   7.620  1.7898 -0.0244  0.4308
  156SAPE  H10S17368   2.469   0.320   7.453  1.2635  1.9597 -2.2021
  156SAPE  C21117369   2.412   0.520   7.513  0.6368 -0.9076  0.8477
  156SAPE  H11R17370   2.388   0.561   7.414 -0.5968 -1.4519  0.9013
  156SAPE  C21217371   2.342   0.571   7.616  0.1071 -0.3098 -0.0441
  156SAPE  H12R17372   2.273   0.656   7.605  1.9573  1.1728 -0.6607
  156SAPE  C21317373   2.352   0.538   7.769  0.3942 -0.6063  0.2717
  156SAPE  H13R17374   2.363   0.630   7.830 -2.2407 -0.0633  0.0311
  156SAPE  H13S17375   2.450   0.494   7.799  1.0588 -0.8437 -2.0150
  156SAPE  C21417376   2.234   0.451   7.802 -0.4778  0.5036  0.0668
  156SAPE  H14R17377   2.234   0.366   7.732 -1.8021 -0.6203  1.3498
  156SAPE  C21517378   2.154   0.460   7.906 -0.9595  0.1421 -0.4431
  156SAPE  H15R17379   2.078   0.382   7.923  0.4729 -1.0749  0.7310
  156SAPE  C21617380   2.153   0.574   8.010  0.8279  0.0807  0.3808
  156SAPE  H16R17381   2.049   0.601   8.036  0.1074 -1.4668 -0.7420
  156SAPE  H16S17382   2.196   0.665   7.963 -1.5702  0.3834 -1.4112
  156SAPE  C21717383   2.245   0.542   8.135 -0.1373 -0.1789  0.2908
  156SAPE  H17R17384   2.252   0.638   8.190 -1.4938  0.1930 -0.1636
  156SAPE  H17S17385   2.342   0.495   8.109  0.6383  0.9087  1.1157
  156SAPE  C21817386   2.171   0.452   8.235 -0.0654  0.2620 -0.3234
  156SAPE  H18R17387   2.132   0.373   8.167 -0.1175  0.5568 -0.6398
  156SAPE  H18S17388   2.087   0.502   8.287  0.8457  0.9842  0.4701
  156SAPE  C21917389   2.268   0.398   8.346  0.5798  0.2789 -0.2902
  156SAPE  H19R17390   2.328   0.485   8.380  0.4435  1.5146 -3.0047
  156SAPE  H19S17391   2.324   0.311   8.306 -1.4337 -1.5819  0.7392
  156SAPE  C22017392   2.194   0.331   8.466  0.3470 -0.3085  0.4145
  156SAPE  H20R17393   2.124   0.250   8.434 -1.4956  0.4607  2.2895
  156SAPE  H20S17394   2.132   0.411   8.512 -1.6071 -0.1246 -2.2566
  156SAPE  H20T17395   2.275   0.297   8.533  0.0153  0.1050  1.0341
  156SAPE   C3317396   2.558   0.848   7.082  0.2474  0.6615  0.0498
  156SAPE   H3X17397   2.597   0.868   6.979  1.4687 -0.1171  0.3363
  156SAPE   H3Y17398   2.639   0.789   7.130 -0.8885 -1.0014 -0.0115
  156SAPE   C3417399   2.546   0.986   7.151 -0.9291 -0.1300  0.2037
  156SAPE   H4X17400   2.491   1.062   7.091  0.2228  0.6172  0.0438
  156SAPE   H4Y17401   2.649   1.029   7.145 -1.5713  1.3133 -1.6538
  156SAPE   C3517402   2.502   0.980   7.298 -0.4635  0.0756  0.3223
  156SAPE   H5X17403   2.400   0.941   7.311  0.1082 -0.9775  1.9087
  156SAPE   H5Y17404   2.507   1.086   7.331  1.6861  0.1034  0.0904
  156SAPE   C3617405   2.600   0.897   7.388 -0.1830 -0.0297 -0.0412
  156SAPE   H6X17406   2.703   0.939   7.389 -0.7884  1.5815  2.1791
  156SAPE   H6Y17407   2.598   0.793   7.349  0.3136  0.8829 -2.6895
  156SAPE   C3717408   2.547   0.910   7.534  0.2092  0.6326 -0.1724
  156SAPE   H7X17409   2.547   0.805   7.571  0.9452  1.1585  1.4326
  156SAPE   H7Y17410   2.441   0.944   7.535  0.5352  1.7329 -0.9821
  156SAPE   C3817411   2.622   1.002   7.622  0.6608 -0.3214  0.0719
  156SAPE   H8X17412   2.626   1.094   7.560 -0.9516 -0.6533 -0.5765
  156SAPE   H8Y17413   2.724   0.967   7.648  0.3983 -1.1465  0.0058
  156SAPE   C3917414   2.545   1.008   7.763  0.2720  0.0773 -1.4148
  156SAPE   H9X17415   2.561   0.910   7.813 -0.6338  0.1937 -0.8925
  156SAPE   H9Y17416   2.438   1.033   7.747  0.9771  2.2344 -3.1924
  156SAPE  C31017417   2.605   1.111   7.857  0.5572  0.0156  0.3708
  156SAPE  H10X17418   2.592   1.216   7.823  1.8305  0.0908  0.0556
  156SAPE  H10Y17419   2.714   1.090   7.859  0.3594 -1.0072  0.9166
  156SAPE  C31117420   2.557   1.105   8.003 -0.3440  0.4973  0.4445
  156SAPE  H11X17421   2.572   1.010   8.059 -0.9657  1.2120  1.8981
  156SAPE  H11Y17422   2.447   1.121   8.007 -0.5491 -0.7785  0.5142
  156SAPE  C31217423   2.624   1.208   8.096  0.1736  0.0173 -0.8335
  156SAPE  H12X17424   2.627   1.306   8.044  1.0958  0.8387  0.6708
  156SAPE  H12Y17425   2.731   1.187   8.120 -0.7711 -1.4973  2.7282
  156SAPE  C31317426   2.556   1.215   8.233  0.0366 -0.3104 -0.9555
  156SAPE  H13X17427   2.548   1.112   8.275 -0.1560 -0.4504 -1.3315
  156SAPE  H13Y17428   2.448   1.242   8.234 -0.0624 -0.4917  2.2265
  156SAPE  C31417429   2.621   1.307   8.333 -0.0931 -0.3346 -0.0224
  156SAPE  H14X17430   2.607   1.414   8.307 -1.2605 -0.5337 -0.2636
  156SAPE  H14Y17431   2.726   1.269   8.339  0.1673  0.5441  1.1591
  156SAPE  C31517432   2.552   1.301   8.474  0.2459  0.3507 -0.5317
  156SAPE  H15X17433   2.547   1.195   8.507 -3.9726 -0.0471 -1.9106
  156SAPE  H15Y17434   2.444   1.319   8.458 -0.2609 -1.2591  0.8291
  156SAPE  C31617435   2.610   1.402   8.580  0.1440  0.4260 -0.2891
  156SAPE  H16X17436   2.720   1.392   8.578 -0.0388 -2.1909 -1.2439
  156SAPE  H16Y17437   2.582   1.365   8.681  2.6850  0.4946  0.4917
  156SAPE  C31717438   2.568   1.547   8.563  0.3265  0.2538  0.3195
  156SAPE  H17X17439   2.463   1.579   8.582  0.9878  1.3739  2.4337
  156SAPE  H17Y17440   2.590   1.564   8.455  0.6179  0.1466  0.3605
  156SAPE  C31817441   2.654   1.640   8.651 -0.4080 -0.5622 -0.7053
  156SAPE  H18X17442   2.600   1.738   8.654 -4.5700 -2.6353  1.5158
  156SAPE  H18Y17443   2.758   1.659   8.618 -0.0143  0.6875  1.1112
  156SAPE  H18Z17444   2.657   1.594   8.752  1.3216 -0.7610 -0.8278
  157SAPE     N17445   1.822   1.969   6.269  0.8175  0.4065 -0.3574
  157SAPE   HN117446   1.832   2.062   6.313  2.0743 -0.2228  0.7494
  157SAPE   HN217447   1.906   1.948   6.212  1.7176  2.6657  0.0404
  157SAPE   HN317448   1.735   1.976   6.212  0.5667 -2.2250 -0.4116
  157SAPE   C1217449   1.785   1.870   6.370  0.1387  0.3248 -0.3808
  157SAPE  H12A17450   1.872   1.804   6.390  0.4789  0.4393 -1.4586
  157SAPE  H12B17451   1.696   1.812   6.336 -0.1575 -0.6201  1.8049
  157SAPE   C1117452   1.740   1.941   6.502  0.3095  0.0677 -0.0953
  157SAPE  H11A17453   1.831   1.992   6.541 -0.2500  2.9522 -2.2786
  157SAPE  H11B17454   1.718   1.868   6.583 -1.1094  1.0620  0.4466
  157SAPE     P17455   1.493   1.997   6.501 -0.0978 -0.3725 -0.8253
  157SAPE   O1317456   1.417   2.125   6.506  0.8145 -0.6359  0.1237
  157SAPE   O1417457   1.443   1.899   6.403 -0.2220  0.1944 -0.2020
  157SAPE   O1217458   1.641   2.039   6.474 -0.6528 -0.2791  0.4074
  157SAPE   O1117459   1.494   1.931   6.645 -0.5384  0.1516  0.1707
  157SAPE    C117460   1.536   2.004   6.763  0.1692 -0.3973  0.0116
  157SAPE    HA17461   1.624   2.068   6.740 -1.6900  2.0127 -0.8572
  157SAPE    HB17462   1.458   2.077   6.796  0.2882  0.0261 -0.6149
  157SAPE    C217463   1.585   1.913   6.881  0.6460 -0.2470 -0.3972
  157SAPE    HS17464   1.666   1.851   6.838  0.3993  0.3291 -1.7376
  157SAPE   O2117465   1.483   1.824   6.929 -0.1412 -0.4191 -0.1088
  157SAPE   C2117466   1.528   1.719   7.007  0.2603  1.1524 -0.7734
  157SAPE   O2217467   1.645   1.689   7.014 -0.2155 -0.4670 -0.0707
  157SAPE   C2217468   1.413   1.655   7.080  0.3607  0.4986 -0.8297
  157SAPE   H2R17469   1.315   1.694   7.046  1.3346  2.0128 -2.0510
  157SAPE   H2S17470   1.413   1.545   7.067  1.3787  0.2167  1.0941
  157SAPE    C317471   1.649   2.004   6.995  0.0546 -0.0375 -0.3308
  157SAPE    HX17472   1.714   2.085   6.955 -0.0711  0.6525  0.8320
  157SAPE    HY17473   1.709   1.932   7.053  0.3536  2.6478  3.0051
  157SAPE   O3117474   1.550   2.049   7.095 -0.3622  0.8613  1.1074
  157SAPE   C3117475   1.600   2.113   7.191 -0.1390  0.2799 -1.1739
  157SAPE   O3217476   1.720   2.137   7.204  0.0931 -0.3206 -0.0552
  157SAPE   C3217477   1.486   2.148   7.288 -0.7018  0.2044  0.0845
  157SAPE   H2X17478   1.452   2.052   7.331  2.2730 -1.2402 -0.5229
  157SAPE   H2Y17479   1.400   2.195   7.235  0.4570  1.0824 -1.0808
  157SAPE   C2317480   1.413   1.687   7.237 -0.3586 -0.4064  0.4076
  157SAPE   H3R17481   1.396   1.796   7.252 -0.2335 -0.2033 -0.8479
  157SAPE   H3S17482   1.508   1.649   7.280  1.4252  3.0470 -0.1649
  157SAPE   C2417483   1.302   1.623   7.317  0.6145 -0.3794  0.2502
  157SAPE   H4R17484   1.211   1.681   7.289 -0.1788  0.4871  4.0290
  157SAPE   H4S17485   1.317   1.633   7.427 -1.4210 -1.5320  0.6743
  157SAPE   C2517486   1.271   1.479   7.295  0.2825 -0.0219 -0.2609
  157SAPE   H5R17487   1.231   1.440   7.200  0.0884 -4.2301  1.3218
  157SAPE   C2617488   1.287   1.376   7.378 -0.4503  0.4465  0.8339
  157SAPE   H6R17489   1.260   1.275   7.343  1.9743 -0.5854  1.7608
  157SAPE   C2717490   1.342   1.366   7.522 -0.3867 -0.3692  0.1951
  157SAPE   H7R17491   1.413   1.450   7.539 -2.0437  0.9152  1.0210
  157SAPE   H7S17492   1.411   1.279   7.532 -0.6173 -0.8805 -2.0136
  157SAPE   C2817493   1.236   1.366   7.629 -0.1725 -0.1394 -0.1528
  157SAPE   H8R17494   1.138   1.334   7.590  1.4787 -2.4858 -2.7727
  157SAPE   C2917495   1.250   1.418   7.747 -0.2590 -0.6650  0.5835
  157SAPE   H9R17496   1.172   1.407   7.823 -0.2748 -3.2973  0.2885
  157SAPE  C21017497   1.382   1.481   7.786  0.6832  0.3009  0.4643
  157SAPE  H10R17498   1.401   1.564   7.715 -0.0368  0.2157  0.1591
  157SAPE  H10S17499   1.460   1.402   7.782 -1.7043 -2.2155 -0.5557
  157SAPE  C21117500   1.370   1.546   7.921  0.2617 -0.2349 -0.1496
  157SAPE  H11R17501   1.374   1.655   7.907  0.5447 -0.3369 -0.9074
  157SAPE  C21217502   1.353   1.496   8.046  0.5036 -0.2822  0.3811
  157SAPE  H12R17503   1.325   1.567   8.125 -2.0293 -0.1117 -0.5548
  157SAPE  C21317504   1.354   1.353   8.086  0.8669 -0.7295  0.9295
  157SAPE  H13R17505   1.416   1.340   8.177  2.0066 -2.1863 -0.0172
  157SAPE  H13S17506   1.404   1.294   8.005  2.5046  0.3574  1.1013
  157SAPE  C21417507   1.217   1.297   8.118  0.2605  0.7976 -0.2478
  157SAPE  H14R17508   1.165   1.257   8.029  0.1126  0.4079  0.0086
  157SAPE  C21517509   1.152   1.276   8.228  0.5678 -0.6580 -1.0735
  157SAPE  H15R17510   1.054   1.226   8.230  0.5855 -0.7017  1.2791
  157SAPE  C21617511   1.197   1.309   8.370  0.0107  0.3546 -0.2408
  157SAPE  H16R17512   1.307   1.326   8.374  0.1091 -0.2282 -0.2419
  157SAPE  H16S17513   1.195   1.222   8.440  0.1095 -0.4345 -1.1925
  157SAPE  C21717514   1.123   1.427   8.433 -0.2424 -0.0583  0.2115
  157SAPE  H17R17515   1.085   1.491   8.351 -1.8124 -1.7541 -0.4735
  157SAPE  H17S17516   1.188   1.491   8.496  1.6437  1.4894 -3.0730
  157SAPE  C21817517   0.999   1.386   8.516  0.2155  0.7715 -0.3152
  157SAPE  H18R17518   0.939   1.312   8.459  0.9153 -0.0175 -0.0545
  157SAPE  H18S17519   0.934   1.474   8.537  1.7368  2.2549 -1.5471
  157SAPE  C21917520   1.025   1.351   8.664 -0.6276  0.2685 -0.5728
  157SAPE  H19R17521   1.079   1.255   8.654  0.9744  0.5943  3.2917
  157SAPE  H19S17522   0.928   1.325   8.712  0.3495 -2.7851 -0.0536
  157SAPE  C22017523   1.106   1.453   8.741 -0.9340  0.1138 -0.3818
  157SAPE  H20R17524   1.062   1.552   8.716 -1.7580 -0.3954 -1.0239
  157SAPE  H20S17525   1.211   1.455   8.705 -1.8350 -1.6034 -3.4808
  157SAPE  H20T17526   1.118   1.444   8.852 -2.2208  2.5163  0.0260
  157SAPE   C3317527   1.524   2.254   7.398 -0.4115 -0.2627  0.1374
  157SAPE   H3X17528   1.425   2.297   7.423 -0.5595  0.5812 -1.7020
  157SAPE   H3Y17529   1.573   2.346   7.358 -2.9360  0.2742 -1.9837
  157SAPE   C3417530   1.587   2.194   7.518 -0.9155  0.2160 -0.2941
  157SAPE   H4X17531   1.680   2.153   7.476 -1.9020  0.7962 -3.2935
  157SAPE   H4Y17532   1.519   2.115   7.557 -3.4342  1.9842 -0.8354
  157SAPE   C3517533   1.625   2.303   7.619  0.1651  0.3135 -0.2664
  157SAPE   H5X17534   1.534   2.338   7.673 -0.0701 -0.4120 -0.1848
  157SAPE   H5Y17535   1.680   2.382   7.565  1.5517  0.5159  1.3597
  157SAPE   C3617536   1.730   2.252   7.728  0.3769  1.0309  0.0702
  157SAPE   H6X17537   1.826   2.215   7.685  1.0058  1.5648  0.9802
  157SAPE   H6Y17538   1.679   2.163   7.771  1.5931  0.2203 -0.0902
  157SAPE   C3717539   1.762   2.343   7.839  0.2411 -0.6720 -0.4631
  157SAPE   H7X17540   1.814   2.439   7.819  0.8121 -0.8516  0.1250
  157SAPE   H7Y17541   1.843   2.293   7.897 -1.3682 -1.9275  0.8022
  157SAPE   C3817542   1.637   2.380   7.930  0.6293  0.8349  0.2695
  157SAPE   H8X17543   1.596   2.280   7.956 -2.0086  1.2039 -1.9887
  157SAPE   H8Y17544   1.556   2.445   7.891  1.1742  1.2475 -0.1860
  157SAPE   C3917545   1.675   2.435   8.063 -0.8592 -0.3657 -0.3556
  157SAPE   H9X17546   1.704   2.541   8.044  4.9755 -1.7761 -1.0431
  157SAPE   H9Y17547   1.774   2.391   8.083 -1.3895 -1.3979  0.0756
  157SAPE  C31017548   1.572   2.429   8.171 -0.6909  0.1474 -0.9060
  157SAPE  H10X17549   1.550   2.323   8.194 -0.7308  0.3966  0.2494
  157SAPE  H10Y17550   1.480   2.468   8.124 -0.0298  1.6417 -1.0366
  157SAPE  C31117551   1.605   2.502   8.301 -0.2863 -0.9046 -0.2662
  157SAPE  H11X17552   1.558   2.603   8.300 -1.5081 -1.4651 -0.9897
  157SAPE  H11Y17553   1.711   2.533   8.318 -0.6876 -0.2300  1.1189
  157SAPE  C31217554   1.551   2.434   8.428  0.6991 -0.1132  0.0479
  157SAPE  H12X17555   1.569   2.324   8.426 -0.6882 -0.3559 -1.3019
  157SAPE  H12Y17556   1.440   2.445   8.435  0.5893 -0.3489 -1.0546
  157SAPE  C31317557   1.613   2.496   8.557 -0.5050 -0.3674 -0.2655
  157SAPE  H13X17558   1.622   2.605   8.539 -0.3916 -0.4916 -0.9661
  157SAPE  H13Y17559   1.714   2.452   8.565 -0.5534 -0.5706 -0.7297
  157SAPE  C31417560   1.530   2.443   8.676 -0.2388 -0.3042  0.4569
  157SAPE  H14X17561   1.421   2.455   8.662  0.2414  0.9817 -3.2634
  157SAPE  H14Y17562   1.572   2.499   8.762 -1.4314 -2.5118  2.5949
  157SAPE  C31517563   1.560   2.296   8.705  0.1258 -0.4088  0.2066
  157SAPE  H15X17564   1.670   2.285   8.694  0.0434  0.3211 -1.7111
  157SAPE  H15Y17565   1.504   2.240   8.627  1.4636  1.6822 -2.4251
  157SAPE  C31617566   1.507   2.261   8.846  0.9223  0.0452  1.0007
  157SAPE  H16X17567   1.398   2.279   8.858  1.3509  2.4415  1.9888
  157SAPE  H16Y17568   1.561   2.331   8.914  0.0574  1.7791 -0.0267
  157SAPE  C31717569   1.537   2.115   8.898  0.2303  0.2344 -0.1468
  157SAPE  H17X17570   1.643   2.094   8.871 -0.4459 -1.6391 -1.5357
  157SAPE  H17Y17571   1.476   2.040   8.843 -1.3233  1.6898 -0.4711
  157SAPE  C31817572   1.508   2.107   9.042  0.2055  0.1160  0.3800
  157SAPE  H18X17573   1.583   2.167   9.097 -0.6737  0.8492  0.8159
  157SAPE  H18Y17574   1.524   2.001   9.072  0.1876  0.4161  1.4785
  157SAPE  H18Z17575   1.406   2.145   9.066  0.9980  2.3454  0.4171
  158SAPE     N17576   3.656   5.815   6.227 -0.5918  1.1975  0.1295
  158SAPE   HN117577   3.605   5.897   6.187  0.0429  0.7853 -1.5952
  158SAPE   HN217578   3.593   5.741   6.264  0.3213  0.4075  0.1497
  158SAPE   HN317579   3.712   5.854   6.305 -1.4204 -0.9063  1.8947
  158SAPE   C1217580   3.748   5.757   6.129 -0.0412 -0.9930  0.6357
  158SAPE  H12A17581   3.703   5.743   6.029  0.4678  4.0391 -0.5858
  158SAPE  H12B17582   3.807   5.674   6.173  0.0221 -1.5797 -0.5199
  158SAPE   C1117583   3.850   5.877   6.096  0.0966 -0.6619 -0.0185
  158SAPE  H11A17584   3.801   5.960   6.041 -1.5672 -1.7162 -0.2128
  158SAPE  H11B17585   3.923   5.828   6.029 -2.8395  0.0961 -4.1319
  158SAPE     P17586   4.048   5.994   6.215 -0.0008 -0.0741  0.4373
  158SAPE   O1317587   4.132   5.937   6.105 -0.5177 -0.5077 -0.3187
  158SAPE   O1417588   4.034   6.141   6.211  0.4037 -0.5340  0.8789
  158SAPE   O1217589   3.903   5.927   6.223 -0.8251 -0.2124 -0.2562
  158SAPE   O1117590   4.110   5.962   6.352 -0.1457 -0.5188  0.5307
  158SAPE    C117591   4.031   5.952   6.470  0.1485 -0.3822 -0.6516
  158SAPE    HA17592   4.070   6.022   6.547  1.0677 -2.4536  0.8584
  158SAPE    HB17593   3.923   5.975   6.460  0.1255 -0.7041 -1.1881
  158SAPE    C217594   4.053   5.816   6.537 -0.0192  0.1454 -0.3120
  158SAPE    HS17595   4.008   5.738   6.472 -0.1998  0.3412 -0.4198
  158SAPE   O2117596   3.987   5.816   6.670  0.0577 -0.2196  0.3654
  158SAPE   C2117597   3.923   5.704   6.702 -0.0410 -0.2273  0.1576
  158SAPE   O2217598   3.899   5.605   6.632  0.3003 -0.5581 -0.2941
  158SAPE   C2217599   3.872   5.716   6.844  0.1863  0.4856 -0.0135
  158SAPE   H2R17600   3.950   5.753   6.914 -0.4525  0.5209  0.6892
  158SAPE   H2S17601   3.801   5.802   6.836 -1.0428 -0.4385  0.6238
  158SAPE    C317602   4.204   5.794   6.540  0.2260  0.8471 -0.8269
  158SAPE    HX17603   4.251   5.888   6.577 -0.4714  0.6595  0.6262
  158SAPE    HY17604   4.242   5.756   6.443  1.9059  0.9268 -0.2376
  158SAPE   O3117605   4.226   5.685   6.636 -0.4071 -0.5585  0.3961
  158SAPE   C3117606   4.347   5.693   6.699  0.5974  0.5841 -0.5688
  158SAPE   O3217607   4.430   5.780   6.678  0.2176  0.0279 -0.3823
  158SAPE   C3217608   4.352   5.601   6.822  0.0771 -0.7564 -0.0207
  158SAPE   H2X17609   4.459   5.571   6.835  0.7428  0.6438 -1.7330
  158SAPE   H2Y17610   4.292   5.508   6.823 -2.0211  0.5138 -0.9917
  158SAPE   C2317611   3.809   5.575   6.885  0.4465 -0.1376  1.0246
  158SAPE   H3R17612   3.889   5.498   6.881  1.4935  0.9618 -0.1846
  158SAPE   H3S17613   3.735   5.557   6.804 -0.3150  4.3717  0.4932
  158SAPE   C2417614   3.725   5.573   7.013  0.0212 -0.4484  0.3483
  158SAPE   H4R17615   3.787   5.563   7.104  0.3252  2.2358  0.5370
  158SAPE   H4S17616   3.662   5.482   7.001 -0.1978 -0.1825 -0.6071
  158SAPE   C2517617   3.631   5.689   7.025 -0.2796 -0.3089 -0.8610
  158SAPE   H5R17618   3.647   5.773   6.956 -1.3779  1.2013  0.6524
  158SAPE   C2617619   3.545   5.706   7.124 -0.4358  0.4150  0.1351
  158SAPE   H6R17620   3.484   5.798   7.130 -2.1859 -0.6456 -0.4894
  158SAPE   C2717621   3.530   5.599   7.235  0.5130  0.2199  0.2164
  158SAPE   H7R17622   3.584   5.639   7.323  0.5270  0.2443  0.1965
  158SAPE   H7S17623   3.576   5.500   7.215 -0.4094 -0.0652 -0.6229
  158SAPE   C2817624   3.385   5.569   7.269 -0.0171  1.2702 -0.6320
  158SAPE   H8R17625   3.326   5.529   7.185  0.5741  1.0163 -0.9364
  158SAPE   C2917626   3.331   5.557   7.398  0.0315 -0.3172  0.6840
  158SAPE   H9R17627   3.223   5.538   7.399 -0.6390  2.9085  0.4929
  158SAPE  C21017628   3.406   5.581   7.527  0.0865  0.0025  0.8213
  158SAPE  H10R17629   3.504   5.631   7.513  0.6521 -0.5609  2.6248
  158SAPE  H10S17630   3.434   5.483   7.570  1.3140  0.3337  0.7982
  158SAPE  C21117631   3.326   5.670   7.625 -0.9387  0.2785 -0.0026
  158SAPE  H11R17632   3.260   5.745   7.580  1.0931  1.7344 -0.7305
  158SAPE  C21217633   3.329   5.642   7.756 -0.3729  0.2703 -0.2256
  158SAPE  H12R17634   3.263   5.697   7.825 -0.6361  0.4731 -0.6415
  158SAPE  C21317635   3.403   5.520   7.814  0.2889  0.1813 -0.0835
  158SAPE  H13R17636   3.496   5.491   7.761 -0.3859 -1.5855 -0.3790
  158SAPE  H13S17637   3.330   5.437   7.799  0.6334 -0.2322  0.4710
  158SAPE  C21417638   3.429   5.556   7.968 -0.5177  0.2688  0.3137
  158SAPE  H14R17639   3.447   5.662   7.991 -0.1546 -0.0286  1.4762
  158SAPE  C21517640   3.423   5.464   8.072 -0.3638  0.4871  0.2624
  158SAPE  H15R17641   3.445   5.500   8.173 -2.3404  0.9696  0.5459
  158SAPE  C21617642   3.382   5.321   8.062 -0.6442  0.3669  0.8669
  158SAPE  H16R17643   3.438   5.265   7.985 -0.1633 -0.2626  1.6606
  158SAPE  H16S17644   3.273   5.323   8.037 -0.3538  1.9146 -0.4553
  158SAPE  C21717645   3.393   5.241   8.194  0.0779  0.0867  0.1588
  158SAPE  H17R17646   3.498   5.230   8.228  1.2787  2.8686 -2.3281
  158SAPE  H17S17647   3.353   5.140   8.168  0.9789  0.1532 -1.6720
  158SAPE  C21817648   3.318   5.296   8.313  0.3455  0.1196  0.4679
  158SAPE  H18R17649   3.215   5.319   8.279 -0.0880  1.9396  2.7180
  158SAPE  H18S17650   3.365   5.395   8.334 -0.6025  1.6657 -3.7660
  158SAPE  C21917651   3.323   5.213   8.438  0.2242 -0.0117 -0.5357
  158SAPE  H19R17652   3.271   5.115   8.428 -2.1744  1.0907  0.3607
  158SAPE  H19S17653   3.269   5.265   8.520  0.2366  0.9648 -1.1311
  158SAPE  C22017654   3.464   5.190   8.482 -0.1011 -0.7122 -0.0724
  158SAPE  H20R17655   3.523   5.124   8.415  0.2893  0.0521 -0.4977
  158SAPE  H20S17656   3.451   5.137   8.579  0.0976 -0.8937 -0.1424
  158SAPE  H20T17657   3.516   5.285   8.508 -0.6957 -0.2435 -0.5853
  158SAPE   C3317658   4.313   5.681   6.946 -0.4609  0.2576 -0.4320
  158SAPE   H3X17659   4.206   5.713   6.949 -0.7100 -0.5974  0.1614
  158SAPE   H3Y17660   4.378   5.770   6.960 -1.2185  0.4983  2.2202
  158SAPE   C3417661   4.331   5.586   7.066 -0.4450  0.3089 -0.0017
  158SAPE   H4X17662   4.428   5.533   7.067 -0.4610  0.2838  0.7111
  158SAPE   H4Y17663   4.249   5.512   7.057 -2.3115  2.5241 -3.7035
  158SAPE   C3517664   4.316   5.651   7.202  0.4985  0.2248 -1.2487
  158SAPE   H5X17665   4.220   5.704   7.219  0.4468  0.4860 -2.2982
  158SAPE   H5Y17666   4.399   5.725   7.211  1.8600 -1.4326  1.1234
  158SAPE   C3617667   4.330   5.555   7.319  0.2372 -0.0633  0.2390
  158SAPE   H6X17668   4.431   5.509   7.313  0.1413 -0.3161  0.5547
  158SAPE   H6Y17669   4.249   5.479   7.314 -1.7960  1.9504  0.3987
  158SAPE   C3717670   4.308   5.621   7.460  0.1240 -0.3240 -0.0408
  158SAPE   H7X17671   4.397   5.681   7.488  0.4373 -0.1928 -1.2809
  158SAPE   H7Y17672   4.219   5.687   7.461  0.8227  0.6366 -0.3014
  158SAPE   C3817673   4.300   5.517   7.579 -0.2161 -0.0562 -0.5067
  158SAPE   H8X17674   4.398   5.464   7.572  1.0032  2.1401 -0.8673
  158SAPE   H8Y17675   4.211   5.454   7.561 -0.2454  0.2343 -1.3987
  158SAPE   C3917676   4.293   5.584   7.721 -0.1525 -0.2493 -0.0064
  158SAPE   H9X17677   4.371   5.662   7.730 -0.4288 -0.0526  0.7694
  158SAPE   H9Y17678   4.312   5.514   7.805 -2.1492 -1.8136 -0.7839
  158SAPE  C31017679   4.151   5.640   7.755 -0.5644 -0.1960  0.2755
  158SAPE  H10X17680   4.079   5.556   7.744 -0.1534 -0.4090 -0.9637
  158SAPE  H10Y17681   4.124   5.717   7.680  1.1214 -2.2129 -2.6047
  158SAPE  C31117682   4.139   5.699   7.894 -0.0822 -0.1165  0.3398
  158SAPE  H11X17683   4.030   5.718   7.904 -0.0521  0.4675 -0.3218
  158SAPE  H11Y17684   4.175   5.802   7.912  0.6068 -0.5631  1.6932
  158SAPE  C31217685   4.181   5.598   7.996 -0.9005  0.7727 -0.7545
  158SAPE  H12X17686   4.292   5.603   7.999 -0.8666 -0.1896  0.8689
  158SAPE  H12Y17687   4.150   5.497   7.960 -0.0433  0.4708 -0.6844
  158SAPE  C31317688   4.122   5.624   8.141 -0.0109  0.1762 -0.1243
  158SAPE  H13X17689   4.012   5.612   8.134 -0.0141 -0.1050  0.4115
  158SAPE  H13Y17690   4.142   5.729   8.172  0.0003 -0.0956  0.8182
  158SAPE  C31417691   4.179   5.530   8.248  0.0975 -0.1719  0.1317
  158SAPE  H14X17692   4.285   5.557   8.268 -0.0564  0.2867  0.3243
  158SAPE  H14Y17693   4.176   5.433   8.192  2.1993  0.5368 -1.3273
  158SAPE  C31517694   4.129   5.552   8.390 -0.2812 -0.7859  0.3476
  158SAPE  H15X17695   4.173   5.495   8.474  0.1585 -0.8620  0.0670
  158SAPE  H15Y17696   4.021   5.523   8.392 -1.2860  2.5696  0.7290
  158SAPE  C31617697   4.127   5.702   8.439  0.3112 -0.1951  0.4192
  158SAPE  H16X17698   4.061   5.761   8.373 -0.2755 -0.6595  0.5803
  158SAPE  H16Y17699   4.231   5.741   8.445  0.8715 -1.6933  1.0219
  158SAPE  C31717700   4.048   5.708   8.570  0.2469  0.1955 -0.8733
  158SAPE  H17X17701   4.116   5.651   8.637 -0.3703 -0.3594 -0.7159
  158SAPE  H17Y17702   3.954   5.653   8.551  0.3320 -0.3490  0.2217
  158SAPE  C31817703   4.035   5.849   8.627  0.0272 -0.4438 -0.1251
  158SAPE  H18X17704   3.962   5.907   8.567  0.3275  0.0321 -0.0339
  158SAPE  H18Y17705   4.134   5.898   8.618  0.5072 -1.7342 -3.1557
  158SAPE  H18Z17706   4.005   5.840   8.734 -0.1227  0.1408 -0.1172
  159SAPE     N17707   5.024   1.631   6.379 -0.8582 -0.0079  0.9382
  159SAPE   HN117708   4.945   1.575   6.417  0.1720 -1.5982  0.8002
  159SAPE   HN217709   4.988   1.723   6.345  2.0332  0.5639 -0.8883
  159SAPE   HN317710   5.063   1.586   6.294  0.7297  0.4229  1.4057
  159SAPE   C1217711   5.125   1.665   6.487 -0.4231 -0.3079  0.0432
  159SAPE  H12A17712   5.111   1.579   6.557 -0.7266  1.2244  1.9677
  159SAPE  H12B17713   5.087   1.761   6.529  0.2793 -0.5192  1.2020
  159SAPE   C1117714   5.266   1.690   6.429  0.0575 -0.6299  0.0493
  159SAPE  H11A17715   5.281   1.601   6.365 -0.6003 -0.0075 -1.0018
  159SAPE  H11B17716   5.343   1.701   6.508  1.2537 -0.1802 -1.1485
  159SAPE     P17717   5.409   1.853   6.284  0.2374 -0.5603  0.1500
  159SAPE   O1317718   5.502   1.736   6.266  0.2073 -0.1354 -0.3917
  159SAPE   O1417719   5.381   1.932   6.166 -0.0935 -0.7495  0.4918
  159SAPE   O1217720   5.270   1.814   6.347  0.0393  0.6633  0.0296
  159SAPE   O1117721   5.464   1.962   6.387  0.2991 -0.1032  0.0023
  159SAPE    C117722   5.383   2.039   6.473 -0.5245 -0.5406  0.2693
  159SAPE    HA17723   5.389   2.143   6.434 -4.0618  0.5119  2.1002
  159SAPE    HB17724   5.276   2.011   6.463 -0.4778 -0.2280 -1.4009
  159SAPE    C217725   5.426   2.033   6.621  0.8365 -0.0748 -0.3879
  159SAPE    HS17726   5.520   2.092   6.626  0.1717  0.9393  0.7767
  159SAPE   O2117727   5.464   1.899   6.652  0.0978  0.0261 -0.0882
  159SAPE   C2117728   5.564   1.878   6.730 -0.2843 -0.0321  0.1886
  159SAPE   O2217729   5.660   1.952   6.750  0.2869 -0.1127 -0.0816
  159SAPE   C2217730   5.551   1.734   6.782  0.2223 -0.4174 -0.1229
  159SAPE   H2R17731   5.446   1.701   6.797  0.8243 -1.8228  1.3407
  159SAPE   H2S17732   5.599   1.660   6.715  0.2139 -1.6923  1.2196
  159SAPE    C317733   5.316   2.078   6.725  0.4553 -0.4980  0.1896
  159SAPE    HX17734   5.224   2.018   6.704  1.0053 -2.2747  2.4054
  159SAPE    HY17735   5.306   2.184   6.696  0.5356  0.0977  2.2396
  159SAPE   O3117736   5.355   2.063   6.864  0.0079 -0.8606 -0.3822
  159SAPE   C3117737   5.400   2.166   6.931 -0.0345  0.4775 -0.1783
  159SAPE   O3217738   5.418   2.275   6.882  0.4172 -0.4338  0.0732
  159SAPE   C3217739   5.403   2.138   7.085 -0.2033  0.0389  0.3253
  159SAPE   H2X17740   5.391   2.228   7.148 -1.1785  0.9836 -1.1438
  159SAPE   H2Y17741   5.507   2.103   7.104 -1.0329 -1.8696  1.7659
  159SAPE   C2317742   5.617   1.710   6.923 -0.3214  0.2520 -0.4974
  159SAPE   H3R17743   5.721   1.741   6.899 -0.4057 -1.1611 -2.9809
  159SAPE   H3S17744   5.612   1.602   6.947  0.4602  0.7596  2.3344
  159SAPE   C2417745   5.557   1.781   7.046 -0.1789  0.4394 -0.0062
  159SAPE   H4R17746   5.454   1.747   7.067  0.3667  0.7311  3.8308
  159SAPE   H4S17747   5.559   1.891   7.037  0.2856  0.3576 -1.0730
  159SAPE   C2517748   5.657   1.741   7.157 -0.0622 -0.8444 -0.2701
  159SAPE   H5R17749   5.753   1.790   7.138 -1.0544  1.4971  0.4440
  159SAPE   C2617750   5.655   1.673   7.273 -0.0240 -0.4394 -0.1762
  159SAPE   H6R17751   5.754   1.659   7.319 -0.2384  1.9041  1.1463
  159SAPE   C2717752   5.531   1.608   7.342 -0.2475 -1.1904  0.6519
  159SAPE   H7R17753   5.434   1.633   7.294 -0.1055 -0.5458  0.7010
  159SAPE   H7S17754   5.516   1.655   7.441  2.7876  1.5305 -0.0294
  159SAPE   C2817755   5.543   1.455   7.331 -0.5416 -0.8683  0.1299
  159SAPE   H8R17756   5.526   1.410   7.232 -4.3125  0.2084  0.1405
  159SAPE   C2917757   5.595   1.375   7.428 -0.5074 -0.2165 -0.4221
  159SAPE   H9R17758   5.613   1.269   7.405  1.0207 -0.1749  0.4464
  159SAPE  C21017759   5.647   1.429   7.566 -0.8236  0.1316 -0.6122
  159SAPE  H10R17760   5.668   1.538   7.560 -1.7484  0.3233 -0.5722
  159SAPE  H10S17761   5.738   1.375   7.598  0.1869  1.6865 -0.7749
  159SAPE  C21117762   5.531   1.406   7.671 -0.6927  0.8662  0.5299
  159SAPE  H11R17763   5.457   1.331   7.639 -2.3770  1.9759  1.6930
  159SAPE  C21217764   5.517   1.450   7.794 -0.2881 -0.5726 -0.2706
  159SAPE  H12R17765   5.440   1.400   7.855 -0.8689  2.4360  1.6656
  159SAPE  C21317766   5.614   1.543   7.865 -0.0107 -0.0823  0.6160
  159SAPE  H13R17767   5.664   1.619   7.800 -0.0689  0.2046  0.9060
  159SAPE  H13S17768   5.692   1.480   7.913 -0.3010  0.3424  1.6508
  159SAPE  C21417769   5.548   1.633   7.973  0.0495  0.2826  0.1248
  159SAPE  H14R17770   5.532   1.737   7.941 -2.6314 -0.2291 -0.4100
  159SAPE  C21517771   5.508   1.596   8.098  0.4996  0.1538 -0.0814
  159SAPE  H15R17772   5.457   1.662   8.170 -0.9103 -2.2184  1.2270
  159SAPE  C21617773   5.523   1.460   8.155 -0.5347 -0.1054 -1.1103
  159SAPE  H16R17774   5.580   1.391   8.088 -0.9144 -0.8667 -0.6603
  159SAPE  H16S17775   5.421   1.418   8.160 -0.1306 -1.2456 -1.9312
  159SAPE  C21717776   5.588   1.466   8.291  0.3572  0.1336 -0.3259
  159SAPE  H17R17777   5.684   1.521   8.297  0.3528 -0.0388  1.9362
  159SAPE  H17S17778   5.603   1.362   8.326 -0.9680  0.1767  0.4129
  159SAPE  C21817779   5.508   1.539   8.401  0.2239  0.4668 -0.2417
  159SAPE  H18R17780   5.412   1.488   8.420  0.1142  1.3504  1.9537
  159SAPE  H18S17781   5.497   1.646   8.376 -1.2930  0.2990 -0.3883
  159SAPE  C21917782   5.576   1.518   8.533 -0.3012 -0.7806 -0.2758
  159SAPE  H19R17783   5.605   1.411   8.542  2.1959 -0.1847 -0.3491
  159SAPE  H19S17784   5.504   1.537   8.615 -1.1311 -1.1318 -0.9130
  159SAPE  C22017785   5.691   1.610   8.575 -0.4412  0.1915  0.3669
  159SAPE  H20R17786   5.776   1.582   8.510  0.4177  2.7043  0.2930
  159SAPE  H20S17787   5.735   1.597   8.676 -0.1122  2.4633  0.5814
  159SAPE  H20T17788   5.673   1.717   8.549 -0.5966  0.8473  2.8562
  159SAPE   C3317789   5.320   2.020   7.148 -0.9201  0.3355  0.4009
  159SAPE   H3X17790   5.360   1.922   7.115  0.9669  2.0497 -3.0138
  159SAPE   H3Y17791   5.214   2.033   7.119  0.3612  0.5323 -5.5658
  159SAPE   C3417792   5.313   2.026   7.302  0.5304  0.0406 -0.2329
  159SAPE   H4X17793   5.244   1.943   7.327  0.1458  0.3929 -0.1142
  159SAPE   H4Y17794   5.268   2.122   7.336  1.2134 -1.0270  4.4137
  159SAPE   C3517795   5.445   2.013   7.381 -0.4045 -0.5334 -0.1093
  159SAPE   H5X17796   5.500   2.110   7.387  0.1245 -0.7722 -0.9323
  159SAPE   H5Y17797   5.519   1.948   7.329  0.4025 -0.0593  0.4214
  159SAPE   C3617798   5.423   1.979   7.528  0.8824  0.3819  0.4770
  159SAPE   H6X17799   5.520   1.946   7.571  2.0291 -0.4830 -2.5227
  159SAPE   H6Y17800   5.358   1.889   7.531 -0.3640  1.2699  1.1520
  159SAPE   C3717801   5.373   2.098   7.608  0.0155  0.3879  0.7530
  159SAPE   H7X17802   5.290   2.148   7.555  1.1575  3.1267  1.3863
  159SAPE   H7Y17803   5.458   2.169   7.613 -0.0231  0.3771  1.7720
  159SAPE   C3817804   5.335   2.064   7.756  0.5968  0.2700 -0.4289
  159SAPE   H8X17805   5.426   2.025   7.807  0.7997  2.1218  0.7401
  159SAPE   H8Y17806   5.262   1.981   7.750  0.4507  0.2406  1.2500
  159SAPE   C3917807   5.271   2.179   7.832  0.2651  0.0337  0.2993
  159SAPE   H9X17808   5.245   2.142   7.934 -1.2974 -2.6934 -0.9942
  159SAPE   H9Y17809   5.169   2.201   7.795 -0.0702  1.7904  2.0769
  159SAPE  C31017810   5.356   2.307   7.855  0.1122  0.3216 -0.3229
  159SAPE  H10X17811   5.387   2.339   7.753  1.4147  0.8527  0.2282
  159SAPE  H10Y17812   5.445   2.269   7.909 -1.9422 -0.6985  2.5746
  159SAPE  C31117813   5.285   2.423   7.930  0.2041 -0.1835  0.0457
  159SAPE  H11X17814   5.231   2.367   8.009  0.1364 -4.9811 -2.9760
  159SAPE  H11Y17815   5.205   2.461   7.864  1.5838  0.6139 -1.2329
  159SAPE  C31217816   5.387   2.525   7.968  0.0377  0.3787  0.6147
  159SAPE  H12X17817   5.421   2.569   7.872  1.1581 -1.7965 -0.0676
  159SAPE  H12Y17818   5.477   2.477   8.014  0.6917 -1.0509 -1.9471
  159SAPE  C31317819   5.328   2.632   8.062 -0.6923  0.3413 -0.0762
  159SAPE  H13X17820   5.228   2.671   8.032 -1.0257 -0.2966  0.1768
  159SAPE  H13Y17821   5.396   2.720   8.066 -0.4620  0.1560  0.0754
  159SAPE  C31417822   5.294   2.579   8.201 -0.3064 -0.0831  0.0645
  159SAPE  H14X17823   5.252   2.477   8.193  0.1728 -0.3315  0.6424
  159SAPE  H14Y17824   5.222   2.639   8.261 -1.7914 -0.5038 -1.2462
  159SAPE  C31517825   5.423   2.569   8.289 -0.2990 -0.9928  0.8890
  159SAPE  H15X17826   5.461   2.670   8.311 -0.5178 -0.9131  0.9061
  159SAPE  H15Y17827   5.500   2.513   8.232 -2.0667 -1.1978 -1.4180
  159SAPE  C31617828   5.390   2.490   8.419  0.2028  0.2018 -0.4881
  159SAPE  H16X17829   5.457   2.402   8.412  0.0547 -0.0368  0.8001
  159SAPE  H16Y17830   5.291   2.441   8.408  0.4656  0.0252 -2.4389
  159SAPE  C31717831   5.405   2.564   8.553 -0.5598  0.8046  0.2751
  159SAPE  H17X17832   5.389   2.487   8.631  1.7590 -1.7615 -1.6205
  159SAPE  H17Y17833   5.324   2.640   8.561  0.1934  1.4599  2.6383
  159SAPE  C31817834   5.541   2.626   8.573 -0.1378  0.2910  0.2386
  159SAPE  H18X17835   5.559   2.660   8.677  1.9417 -0.4231  0.1565
  159SAPE  H18Y17836   5.546   2.714   8.504  2.1004 -0.8892 -1.2107
  159SAPE  H18Z17837   5.627   2.565   8.538  2.4093  3.2984  0.7263
  160SAPE     N17838   4.321   0.720   6.457 -0.0998  0.7828  0.2517
  160SAPE   HN117839   4.281   0.632   6.420  2.2065  0.0745 -0.7374
  160SAPE   HN217840   4.302   0.785   6.378 -1.6245  1.1060  0.8610
  160SAPE   HN317841   4.425   0.716   6.460 -0.0091  0.0907 -1.9275
  160SAPE   C1217842   4.277   0.759   6.591  0.4412 -0.1870  0.0484
  160SAPE  H12A17843   4.312   0.684   6.665 -1.9526 -1.1412  0.2896
  160SAPE  H12B17844   4.167   0.745   6.584  0.7073 -1.5952 -2.3160
  160SAPE   C1117845   4.323   0.901   6.636  0.2120 -0.5905 -0.7607
  160SAPE  H11A17846   4.431   0.894   6.663 -0.2165  0.1428  1.3150
  160SAPE  H11B17847   4.269   0.937   6.726  1.0339 -2.4658  0.5491
  160SAPE     P17848   4.170   1.076   6.503  0.3373  0.0380  0.3472
  160SAPE   O1317849   4.199   1.199   6.430  0.2394 -0.5205 -0.0076
  160SAPE   O1417850   4.079   0.980   6.433 -0.3450 -0.0091 -0.1836
  160SAPE   O1217851   4.307   1.011   6.538  0.2423  0.0631 -0.4325
  160SAPE   O1117852   4.112   1.118   6.654 -0.3483  0.3079  0.8098
  160SAPE    C117853   3.969   1.092   6.679 -1.1994  0.0424 -0.5502
  160SAPE    HA17854   3.919   1.015   6.617 -0.6934  1.5393 -2.9778
  160SAPE    HB17855   3.953   1.075   6.787 -1.3490 -1.6438 -0.8083
  160SAPE    C217856   3.886   1.218   6.658  0.1264  0.5278  0.1097
  160SAPE    HS17857   3.895   1.257   6.555 -0.7499  0.5448  0.0317
  160SAPE   O2117858   3.914   1.316   6.760 -0.2587  0.0842 -0.0164
  160SAPE   C2117859   3.908   1.443   6.720  0.2701  0.4617 -0.2984
  160SAPE   O2217860   3.892   1.486   6.609 -0.6039  0.4268  0.1892
  160SAPE   C2217861   3.941   1.540   6.832  0.6133 -0.2273  0.0185
  160SAPE   H2R17862   4.031   1.499   6.882  1.3383 -0.4184 -1.3914
  160SAPE   H2S17863   3.960   1.638   6.783 -1.6128  0.7764  1.0350
  160SAPE    C317864   3.738   1.183   6.664  0.7315  0.4383  0.2073
  160SAPE    HX17865   3.716   1.102   6.591 -1.5070 -0.7870  2.1408
  160SAPE    HY17866   3.676   1.273   6.651  0.2985  0.2792  1.0928
  160SAPE   O3117867   3.700   1.126   6.797 -0.2861  0.4202  0.0685
  160SAPE   C3117868   3.635   1.195   6.882 -0.1454 -0.1558 -0.4576
  160SAPE   O3217869   3.582   1.302   6.863 -0.3866 -0.0326 -0.0350
  160SAPE   C3217870   3.629   1.127   7.020 -0.2812  0.2193 -0.5092
  160SAPE   H2X17871   3.723   1.069   7.033 -0.7100 -0.2093  0.8629
  160SAPE   H2Y17872   3.533   1.074   7.040 -0.3116  1.4489  3.4243
  160SAPE   C2317873   3.820   1.556   6.929  0.7026 -0.1913 -0.1590
  160SAPE   H3R17874   3.833   1.473   7.002  1.3542  0.1246  0.0926
  160SAPE   H3S17875   3.720   1.546   6.882 -0.8991  0.5192  2.8193
  160SAPE   C2417876   3.826   1.673   7.021  0.1987  0.1009  0.0077
  160SAPE   H4R17877   3.728   1.677   7.075 -0.0914  4.1990 -0.5051
  160SAPE   H4S17878   3.832   1.760   6.953 -1.7577 -0.1262 -0.5214
  160SAPE   C2517879   3.944   1.676   7.115 -0.2489 -0.5811 -0.4711
  160SAPE   H5R17880   4.037   1.696   7.060 -0.7731  0.4046 -1.0435
  160SAPE   C2617881   3.943   1.645   7.247  0.2512  0.1464  0.3074
  160SAPE   H6R17882   4.038   1.638   7.302  0.8162  0.7852 -0.5488
  160SAPE   C2717883   3.826   1.595   7.333 -0.1893  0.6831  0.8409
  160SAPE   H7R17884   3.850   1.524   7.415 -3.3218 -0.9643  0.4685
  160SAPE   H7S17885   3.763   1.535   7.265  3.1665 -1.7958 -0.3475
  160SAPE   C2817886   3.756   1.714   7.381  0.6442  0.1583 -0.7007
  160SAPE   H8R17887   3.737   1.792   7.305 -0.3366  2.9563  2.1963
  160SAPE   C2917888   3.697   1.732   7.501 -0.6121 -0.3590  0.3339
  160SAPE   H9R17889   3.637   1.825   7.506 -0.5343 -0.2260 -0.8125
  160SAPE  C21017890   3.701   1.642   7.617 -0.1157  0.3446 -0.3066
  160SAPE  H10R17891   3.781   1.565   7.606 -0.1138  0.5299 -1.7619
  160SAPE  H10S17892   3.605   1.586   7.611 -0.1953  0.2223  1.5910
  160SAPE  C21117893   3.701   1.728   7.742 -0.1358  0.4566 -0.6641
  160SAPE  H11R17894   3.623   1.806   7.749  0.0037  0.7542 -2.0476
  160SAPE  C21217895   3.786   1.724   7.841 -0.4977 -0.1053 -0.9011
  160SAPE  H12R17896   3.769   1.794   7.925  0.0329  0.5606 -1.3410
  160SAPE  C21317897   3.907   1.639   7.860 -0.7165 -0.0064  0.0879
  160SAPE  H13R17898   3.970   1.643   7.768 -1.9041 -0.9834 -0.7968
  160SAPE  H13S17899   3.876   1.532   7.868 -0.5034 -0.2729 -2.0834
  160SAPE  C21417900   3.992   1.679   7.977 -0.7128 -0.0563  0.2951
  160SAPE  H14R17901   4.058   1.762   7.947 -2.0745  0.6712 -0.7614
  160SAPE  C21517902   4.005   1.627   8.099  0.2064  0.2489  1.0689
  160SAPE  H15R17903   4.081   1.668   8.167  0.9317  0.3256  0.2365
  160SAPE  C21617904   3.923   1.513   8.157  0.7820 -0.1751  0.2056
  160SAPE  H16R17905   3.987   1.423   8.149 -0.9068 -1.2535 -2.5456
  160SAPE  H16S17906   3.830   1.493   8.100  1.4187 -1.7272 -0.3149
  160SAPE  C21717907   3.883   1.537   8.306  0.6602  0.6018 -0.5332
  160SAPE  H17R17908   3.822   1.630   8.313 -0.6407 -0.3089  0.6498
  160SAPE  H17S17909   3.973   1.544   8.370  1.3529 -0.8664 -1.2953
  160SAPE  C21817910   3.782   1.427   8.359  0.1235 -0.4734  0.2034
  160SAPE  H18R17911   3.824   1.328   8.331  4.0639  1.1764 -0.4460
  160SAPE  H18S17912   3.685   1.442   8.307  0.3343  1.3816  0.2818
  160SAPE  C21917913   3.764   1.434   8.514 -0.2320  0.1831  0.1667
  160SAPE  H19R17914   3.868   1.432   8.554  0.3023  1.2354 -1.1008
  160SAPE  H19S17915   3.707   1.347   8.553 -1.0766  0.9216  0.6255
  160SAPE  C22017916   3.696   1.561   8.575  0.1896 -0.9112  0.6374
  160SAPE  H20R17917   3.613   1.607   8.517  1.8530 -0.0858 -1.2627
  160SAPE  H20S17918   3.775   1.636   8.594 -0.2450 -0.5760  1.1331
  160SAPE  H20T17919   3.656   1.532   8.674  2.6329 -0.0019  1.9802
  160SAPE   C3317920   3.639   1.230   7.140  0.2823 -0.0905  0.2947
  160SAPE   H3X17921   3.556   1.298   7.113 -0.4106 -0.0538  2.3363
  160SAPE   H3Y17922   3.737   1.280   7.131 -0.0406  0.2771 -1.3951
  160SAPE   C3417923   3.612   1.178   7.281 -0.7702  0.7321  0.1481
  160SAPE   H4X17924   3.681   1.091   7.284 -1.3057  0.1281 -2.3548
  160SAPE   H4Y17925   3.507   1.143   7.272 -0.0364 -1.3667 -0.9972
  160SAPE   C3517926   3.631   1.265   7.400 -0.6987 -0.2296  0.2050
  160SAPE   H5X17927   3.554   1.345   7.406 -1.2942 -0.8738  2.0553
  160SAPE   H5Y17928   3.726   1.318   7.377 -1.0207 -0.2747 -1.3205
  160SAPE   C3617929   3.642   1.192   7.533  0.6343 -0.2446 -0.1885
  160SAPE   H6X17930   3.739   1.137   7.534  0.7049 -0.1485 -0.8954
  160SAPE   H6Y17931   3.554   1.127   7.551 -0.6513  1.4657 -0.0451
  160SAPE   C3717932   3.639   1.289   7.655 -0.4964 -0.6462 -0.1654
  160SAPE   H7X17933   3.556   1.362   7.645 -0.4125 -0.4938  0.2433
  160SAPE   H7Y17934   3.738   1.339   7.652 -0.4217 -0.6437  1.5703
  160SAPE   C3817935   3.628   1.202   7.780 -0.2841 -0.1090  0.7451
  160SAPE   H8X17936   3.680   1.104   7.774 -0.1793 -0.0821  1.2379
  160SAPE   H8Y17937   3.519   1.180   7.792  0.0446 -1.7884  0.8934
  160SAPE   C3917938   3.670   1.276   7.904  0.3910  0.9184 -0.0059
  160SAPE   H9X17939   3.590   1.350   7.921  0.1979  0.0309  3.6604
  160SAPE   H9Y17940   3.762   1.336   7.889 -0.3682  1.8833 -0.9352
  160SAPE  C31017941   3.682   1.194   8.032 -0.5833  0.8248  0.5356
  160SAPE  H10X17942   3.723   1.268   8.104  1.5601  1.6053 -1.3782
  160SAPE  H10Y17943   3.763   1.123   8.008  0.0336  1.9039 -0.6696
  160SAPE  C31117944   3.550   1.132   8.088 -0.1293 -0.2318  0.4688
  160SAPE  H11X17945   3.510   1.060   8.013 -0.2258  0.0580  0.2444
  160SAPE  H11Y17946   3.467   1.203   8.107 -1.1977 -1.4646  0.6286
  160SAPE  C31217947   3.580   1.054   8.218  0.9001  0.3876 -0.4973
  160SAPE  H12X17948   3.636   1.121   8.287  0.6472 -1.9336  2.1093
  160SAPE  H12Y17949   3.628   0.958   8.189  0.7252  0.0052  0.4341
  160SAPE  C31317950   3.461   0.998   8.297  0.2934 -0.4139 -0.3662
  160SAPE  H13X17951   3.388   0.938   8.237 -2.0262 -1.2959  3.0526
  160SAPE  H13Y17952   3.403   1.085   8.334  1.1517 -0.2595  0.6360
  160SAPE  C31417953   3.506   0.911   8.419 -0.0230  0.1903  0.0167
  160SAPE  H14X17954   3.559   0.974   8.495 -1.0601  1.9342 -0.6383
  160SAPE  H14Y17955   3.587   0.843   8.385  0.3536  1.7402 -2.4031
  160SAPE  C31517956   3.389   0.823   8.471  0.0551 -0.6468 -0.7516
  160SAPE  H15X17957   3.371   0.731   8.412 -0.4070 -1.6200  0.8252
  160SAPE  H15Y17958   3.291   0.875   8.462  0.1208 -0.5547 -0.9316
  160SAPE  C31617959   3.406   0.779   8.616 -0.7762  0.4703  0.7286
  160SAPE  H16X17960   3.415   0.865   8.687 -0.2410  0.6416  0.4547
  160SAPE  H16Y17961   3.505   0.729   8.615 -0.4662  0.9884 -1.6800
  160SAPE  C31717962   3.293   0.681   8.649  0.8733  0.3662  0.0069
  160SAPE  H17X17963   3.303   0.596   8.577 -0.5646  0.2517 -0.0754
  160SAPE  H17Y17964   3.203   0.738   8.620  0.1983 -0.1686  1.0008
  160SAPE  C31817965   3.274   0.631   8.796  0.3836 -0.5399  0.3789
  160SAPE  H18X17966   3.339   0.551   8.837  0.2991 -1.1961 -0.7351
  160SAPE  H18Y17967   3.170   0.598   8.816 -0.9133  1.7976 -1.8873
  160SAPE  H18Z17968   3.290   0.720   8.862  1.4895  0.4600 -1.1761
  161SOPE     N17969   4.528   2.582  11.145  0.4161  0.3581  0.2506
  161SOPE   HN117970   4.594   2.662  11.146 -1.2533  1.9252 -2.5753
  161SOPE   HN217971   4.439   2.617  11.186  0.6467 -0.4901  1.5611
  161SOPE   HN317972   4.560   2.498  11.199 -1.1396  1.2045  2.6817
  161SOPE   C1217973   4.524   2.527  11.003 -0.7138  0.0379 -0.0528
  161SOPE  H12A17974   4.488   2.423  11.016 -1.3202  0.4061  1.4520
  161SOPE  H12B17975   4.627   2.531  10.962 -0.6882  0.3424  0.0347
  161SOPE   C1117976   4.428   2.607  10.917  0.0447 -0.1970  0.0861
  161SOPE  H11A17977   4.413   2.576  10.811 -0.1931  1.1358 -0.2803
  161SOPE  H11B17978   4.485   2.702  10.904  0.9297 -0.6423  0.5631
  161SOPE     P17979   4.173   2.547  10.967  0.2416  0.5497  0.6877
  161SOPE   O1317980   4.062   2.603  11.043  0.0650 -0.0695 -0.4686
  161SOPE   O1417981   4.194   2.400  10.998 -0.4976 -0.2288 -0.2984
  161SOPE   O1217982   4.306   2.634  10.992  0.4782  0.1919  0.0090
  161SOPE   O1117983   4.161   2.569  10.811  0.1367 -0.1374 -0.6968
  161SOPE    C117984   4.141   2.703  10.768 -0.2916 -0.2618 -1.6949
  161SOPE    HA17985   4.225   2.769  10.801 -0.4825 -1.4482  1.5708
  161SOPE    HB17986   4.071   2.762  10.831  1.7305  0.2873  0.2044
  161SOPE    C217987   4.132   2.711  10.618  0.3622 -0.4768 -0.5319
  161SOPE    HS17988   4.133   2.819  10.590  0.5460 -0.0281  1.1157
  161SOPE   O2117989   4.025   2.638  10.559 -0.1094  0.0875  0.0358
  161SOPE   C2117990   3.910   2.695  10.574 -0.1157 -0.4381  0.3574
  161SOPE   O2217991   3.894   2.805  10.627 -0.1945 -0.1412 -0.8573
  161SOPE   C2217992   3.804   2.616  10.493  0.1651  0.0789 -0.6014
  161SOPE   H2R17993   3.782   2.514  10.532  1.5056  0.1886  0.5423
  161SOPE   H2S17994   3.850   2.596  10.394 -0.5434  0.8571 -1.1014
  161SOPE    C317995   4.261   2.662  10.540  0.3394 -0.5042  0.1210
  161SOPE    HX17996   4.266   2.558  10.579  0.2133 -0.5379  0.0474
  161SOPE    HY17997   4.357   2.706  10.576 -0.0912  0.2775  0.3466
  161SOPE   O3117998   4.245   2.666  10.398 -0.3190 -0.3449  0.4510
  161SOPE   C3117999   4.282   2.772  10.343 -0.5823  0.0966 -0.2504
  161SOPE   O3218000   4.320   2.874  10.401 -0.0282  0.4828 -0.3913
  161SOPE   C3218001   4.283   2.755  10.190  0.0558  0.6128  0.3024
  161SOPE   H2X18002   4.300   2.647  10.169 -1.4748 -0.4397  3.7227
  161SOPE   H2Y18003   4.367   2.814  10.148  0.0741  1.3507  1.3233
  161SOPE   C2318004   3.673   2.695  10.471 -0.2763 -0.5566 -0.4461
  161SOPE   H3R18005   3.662   2.779  10.543  0.8906 -0.7779  0.0127
  161SOPE   H3S18006   3.589   2.631  10.506 -0.2037 -0.0424  0.7009
  161SOPE   C2418007   3.646   2.749  10.335 -1.0111  0.1329  0.8133
  161SOPE   H4R18008   3.668   2.671  10.260  1.8742  1.0289  0.5976
  161SOPE   H4S18009   3.539   2.778  10.330 -0.8915  0.8033  1.7873
  161SOPE   C2518010   3.754   2.852  10.295  0.4235 -0.5595 -0.1932
  161SOPE   H5R18011   3.739   2.942  10.359  0.0438 -1.9755  1.8312
  161SOPE   H5S18012   3.855   2.815  10.323  0.8089  0.5686 -0.0541
  161SOPE   C2618013   3.733   2.907  10.150  0.4752  0.0148  0.0601
  161SOPE   H6R18014   3.754   2.828  10.074 -2.9256  3.3071 -4.9347
  161SOPE   H6S18015   3.625   2.925  10.129  0.4572  3.4328  2.4253
  161SOPE   C2718016   3.802   3.039  10.123 -0.3842 -0.0370  0.1838
  161SOPE   H7R18017   3.755   3.120  10.182 -0.2156  0.1564  0.0550
  161SOPE   H7S18018   3.910   3.025  10.144 -0.6741 -2.5796  0.2789
  161SOPE   C2818019   3.786   3.100   9.980  0.3912  0.8285  0.0934
  161SOPE   H8R18020   3.686   3.147   9.966  0.7664  1.8061  0.5937
  161SOPE   H8S18021   3.847   3.192   9.974 -2.2428  2.6568 -0.8227
  161SOPE   C2918022   3.828   2.999   9.870  0.2543  0.3497 -0.3593
  161SOPE   H9118023   3.828   2.892   9.895  0.0728  0.4399  0.0358
  161SOPE  C21018024   3.849   3.040   9.746  0.2874  0.3085 -0.3920
  161SOPE  H10118025   3.884   2.966   9.673 -1.1207 -0.8555  0.0838
  161SOPE  C21118026   3.849   3.182   9.692  0.0132 -0.6940  0.1531
  161SOPE  H11R18027   3.950   3.228   9.679 -0.5854  0.8141  0.5645
  161SOPE  H11S18028   3.791   3.249   9.759  2.4797  1.1179  0.6359
  161SOPE  C21218029   3.783   3.192   9.549 -0.2128 -0.1922  0.3461
  161SOPE  H12R18030   3.773   3.300   9.525 -0.5593 -0.3642 -0.2934
  161SOPE  H12S18031   3.679   3.154   9.538 -1.6903  3.4215  0.5466
  161SOPE  C21318032   3.874   3.130   9.438 -0.3623  0.1017 -0.0325
  161SOPE  H13R18033   3.941   3.044   9.463  1.0781  0.9856 -0.7172
  161SOPE  H13S18034   3.940   3.211   9.399 -0.9106 -0.0651 -1.3877
  161SOPE  C21418035   3.794   3.065   9.320  0.4889  0.9122  0.1595
  161SOPE  H14R18036   3.733   3.145   9.273  1.6174  0.6821 -1.8238
  161SOPE  H14S18037   3.724   2.987   9.357 -0.5340  1.9236  0.4246
  161SOPE  C21518038   3.881   2.999   9.208 -0.1448  0.7495  0.2887
  161SOPE  H15R18039   3.815   2.934   9.147 -0.6123 -1.6009  3.0860
  161SOPE  H15S18040   3.949   2.927   9.258 -2.0724 -1.5368 -0.2043
  161SOPE  C21618041   3.928   3.100   9.111  0.2366 -0.7215  0.4627
  161SOPE  H16R18042   4.010   3.160   9.153  1.3779 -0.7529 -1.5770
  161SOPE  H16S18043   3.843   3.169   9.091 -0.2287 -1.9582 -2.4770
  161SOPE  C21718044   3.989   3.036   8.985  0.2680 -0.5425  0.1858
  161SOPE  H17R18045   3.922   2.960   8.941  0.0648  0.0022 -0.4708
  161SOPE  H17S18046   4.080   2.975   9.003 -0.8681 -2.6349 -0.8476
  161SOPE  C21818047   4.009   3.140   8.877 -0.6453  0.2836 -0.0660
  161SOPE  H18R18048   3.928   3.216   8.875 -0.3286  0.6711  0.7986
  161SOPE  H18S18049   4.025   3.098   8.776  0.8425 -3.3302  1.4991
  161SOPE  H18T18050   4.099   3.203   8.897  0.6807 -1.5338 -0.1053
  161SOPE   C3318051   4.141   2.795  10.136  0.5822 -0.5724 -0.3445
  161SOPE   H3X18052   4.122   2.904  10.148 -2.3292 -0.8270 -1.7599
  161SOPE   H3Y18053   4.063   2.746  10.196 -0.1414  0.2739 -0.5742
  161SOPE   C3418054   4.113   2.736   9.997 -0.0889  0.1236 -0.5913
  161SOPE   H4X18055   4.003   2.720   9.992 -0.5159  2.4578 -0.3288
  161SOPE   H4Y18056   4.155   2.634   9.992  1.2040  0.7076 -2.5343
  161SOPE   C3518057   4.172   2.823   9.887  0.3683 -0.0169  0.3840
  161SOPE   H5X18058   4.283   2.829   9.889  0.3917 -0.0654 -0.3866
  161SOPE   H5Y18059   4.154   2.929   9.914 -1.1047 -0.6188  1.9400
  161SOPE   C3618060   4.113   2.787   9.749 -0.3477  0.2033  0.9619
  161SOPE   H6X18061   4.003   2.786   9.761 -0.5454  0.1380 -0.6704
  161SOPE   H6Y18062   4.130   2.677   9.740 -1.0308 -0.1977  3.5410
  161SOPE   C3718063   4.160   2.873   9.631 -0.2126 -0.5320 -0.6904
  161SOPE   H7X18064   4.270   2.874   9.644 -0.4051  0.1335  1.0980
  161SOPE   H7Y18065   4.120   2.976   9.643 -0.2185 -0.5336 -0.6963
  161SOPE   C3818066   4.121   2.805   9.499 -0.0000  0.3131 -0.5251
  161SOPE   H8X18067   4.013   2.796   9.475  0.1613 -5.0436 -0.4218
  161SOPE   H8Y18068   4.157   2.700   9.489 -1.4500 -0.4530  1.6222
  161SOPE   C3918069   4.187   2.874   9.379 -0.5945 -0.0277  0.5819
  161SOPE   H9X18070   4.137   2.972   9.359 -0.0640  0.5255  1.8831
  161SOPE   H9Y18071   4.158   2.817   9.288  1.8291  0.0309 -0.2951
  161SOPE  C31018072   4.337   2.891   9.387 -0.0092 -0.0455  0.1991
  161SOPE  H10X18073   4.391   2.796   9.406  1.1998  0.5988  0.0742
  161SOPE  H10Y18074   4.358   2.954   9.476  0.3027 -0.2022  0.2380
  161SOPE  C31118075   4.402   2.961   9.268 -0.4630 -0.5380  0.3669
  161SOPE  H11X18076   4.493   3.014   9.304 -1.8793  2.3904 -0.1030
  161SOPE  H11Y18077   4.328   3.037   9.234  0.3116 -0.2841 -0.8240
  161SOPE  C31218078   4.434   2.869   9.150 -0.2422 -0.0853  0.2329
  161SOPE  H12X18079   4.345   2.805   9.133 -0.5225  0.3391  0.0786
  161SOPE  H12Y18080   4.524   2.809   9.176  1.6161  2.0059 -0.9794
  161SOPE  C31318081   4.459   2.950   9.019 -0.1088  0.7920  0.2095
  161SOPE  H13X18082   4.543   3.019   9.042  0.5147  0.0553  0.1664
  161SOPE  H13Y18083   4.366   3.011   9.014 -0.7550  0.1841  3.0414
  161SOPE  C31418084   4.478   2.877   8.889 -0.1445 -0.0605 -0.0521
  161SOPE  H14X18085   4.414   2.788   8.874 -0.4448 -0.0383  1.0402
  161SOPE  H14Y18086   4.576   2.825   8.892 -0.2872 -0.3026  0.5278
  161SOPE  C31518087   4.476   2.967   8.766  0.3927 -0.6583  0.0535
  161SOPE  H15X18088   4.505   2.901   8.681  3.4760  0.2389  0.3051
  161SOPE  H15Y18089   4.547   3.046   8.797  0.3426 -0.6423  0.1287
  161SOPE  C31618090   4.337   3.023   8.736  0.2024  0.3835 -0.7851
  161SOPE  H16X18091   4.309   3.097   8.814  0.1141 -0.6579  0.2016
  161SOPE  H16Y18092   4.265   2.940   8.748 -0.1497  0.9861  1.6944
  161SOPE  C31718093   4.320   3.100   8.607  0.2819 -0.2964  0.9687
  161SOPE  H17X18094   4.358   3.026   8.533  0.0419 -0.2327  0.7829
  161SOPE  H17Y18095   4.386   3.190   8.606  0.4276 -0.3979 -0.4279
  161SOPE  C31818096   4.178   3.148   8.577 -0.6904 -0.0179  0.2857
  161SOPE  H18X18097   4.108   3.064   8.594 -3.2347  1.7655 -0.7404
  161SOPE  H18Y18098   4.174   3.180   8.470  1.3833 -1.2330 -0.2068
  161SOPE  H18Z18099   4.147   3.228   8.648 -0.0009  2.2331 -1.7900
  162SOPE     N18100   2.737   2.877  11.252  0.3548 -0.3791 -0.0339
  162SOPE   HN118101   2.674   2.933  11.314 -1.1366 -1.3879 -0.5797
  162SOPE   HN218102   2.771   2.950  11.187  0.1764 -0.0486  0.2411
  162SOPE   HN318103   2.669   2.811  11.208  1.3914 -2.5333  1.3854
  162SOPE   C1218104   2.845   2.807  11.329  0.7048  0.3655  0.3672
  162SOPE  H12A18105   2.793   2.755  11.411  1.1089  2.1633  1.8479
  162SOPE  H12B18106   2.908   2.883  11.381  0.9544 -1.2836  2.5872
  162SOPE   C1118107   2.939   2.713  11.254 -0.3972  0.6471  0.5334
  162SOPE  H11A18108   3.017   2.689  11.329  1.0263  2.0510 -0.4165
  162SOPE  H11B18109   2.994   2.763  11.171 -1.2212 -0.6182 -0.8153
  162SOPE     P18110   2.936   2.507  11.101 -0.0321  0.0200 -0.2533
  162SOPE   O1318111   2.862   2.381  11.075  0.2042 -0.3940  0.1136
  162SOPE   O1418112   3.078   2.485  11.147  0.5809  0.6763  0.3223
  162SOPE   O1218113   2.866   2.598  11.208  0.1828  0.5227 -0.1626
  162SOPE   O1118114   2.940   2.601  10.978  0.2760  0.3039 -0.5713
  162SOPE    C118115   2.816   2.646  10.916 -0.8287  0.0468 -0.2433
  162SOPE    HA18116   2.822   2.754  10.887  1.5506  0.1024  0.3262
  162SOPE    HB18117   2.729   2.649  10.986  0.1981  0.7364  1.0456
  162SOPE    C218118   2.769   2.564  10.796  0.6107  0.2758 -0.0131
  162SOPE    HS18119   2.795   2.460  10.823  2.6807  0.8265  0.2878
  162SOPE   O2118120   2.842   2.606  10.682  0.1194 -0.4415 -0.0449
  162SOPE   C2118121   2.901   2.512  10.606 -0.4683  0.2994 -0.4047
  162SOPE   O2218122   2.927   2.396  10.635  0.1986  0.2716  0.7737
  162SOPE   C2218123   2.935   2.575  10.471  0.0208 -0.2852  0.0230
  162SOPE   H2R18124   3.038   2.616  10.485  0.1231  0.0616 -1.5691
  162SOPE   H2S18125   2.859   2.652  10.447 -2.6723 -2.1628  1.9405
  162SOPE    C318126   2.621   2.561  10.759 -0.0421  0.5891  0.4501
  162SOPE    HX18127   2.585   2.663  10.731  0.7809  0.3257 -1.7961
  162SOPE    HY18128   2.577   2.517  10.851  0.2115  1.6648  1.1008
  162SOPE   O3118129   2.605   2.473  10.640 -1.4232  0.1885 -0.5474
  162SOPE   C3118130   2.539   2.363  10.660 -0.5547  1.0118  0.0369
  162SOPE   O3218131   2.497   2.316  10.768 -0.1227  0.0405 -0.2422
  162SOPE   C3218132   2.510   2.288  10.535 -0.2187  0.6407 -0.0336
  162SOPE   H2X18133   2.472   2.361  10.460 -1.1763  0.0249 -0.1527
  162SOPE   H2Y18134   2.427   2.216  10.553 -0.7309  1.1462 -0.3383
  162SOPE   C2318135   2.936   2.478  10.360  0.1711 -0.0441  0.5634
  162SOPE   H3R18136   2.843   2.418  10.351 -0.0443 -0.0211  2.3122
  162SOPE   H3S18137   3.003   2.395  10.391 -1.8786 -2.1562 -0.3636
  162SOPE   C2418138   2.992   2.531  10.227  0.2012 -0.3710 -0.2845
  162SOPE   H4R18139   2.935   2.624  10.203  0.7870  0.9217  2.8495
  162SOPE   H4S18140   3.100   2.553  10.224 -0.2380  1.9696 -1.3869
  162SOPE   C2518141   2.960   2.430  10.113  0.1705  0.4745  0.5643
  162SOPE   H5R18142   3.009   2.332  10.129 -2.4626 -0.9564  0.4860
  162SOPE   H5S18143   2.852   2.415  10.089  1.0181 -0.7788 -3.0118
  162SOPE   C2618144   3.027   2.493   9.985 -0.3738  0.7387  0.0274
  162SOPE   H6R18145   2.993   2.598   9.974 -0.5983  0.5328 -1.4926
  162SOPE   H6S18146   3.137   2.502   9.998  0.3466 -2.4935 -2.3785
  162SOPE   C2718147   3.017   2.401   9.867  0.2532 -0.8619 -0.5271
  162SOPE   H7R18148   3.055   2.297   9.883 -1.2124 -0.9728  3.1249
  162SOPE   H7S18149   2.907   2.389   9.851 -0.2393 -1.3384  2.5819
  162SOPE   C2818150   3.061   2.467   9.731  0.3431  0.5622 -0.9699
  162SOPE   H8R18151   2.985   2.433   9.658 -1.6031 -1.5266  1.7680
  162SOPE   H8S18152   3.057   2.578   9.732 -1.6120  0.5262 -1.1792
  162SOPE   C2918153   3.203   2.420   9.700 -0.2855 -0.7853 -0.0266
  162SOPE   H9118154   3.257   2.407   9.795 -0.0164 -1.8868 -0.3203
  162SOPE  C21018155   3.262   2.397   9.585  0.0681  0.1940 -0.3859
  162SOPE  H10118156   3.365   2.359   9.582 -0.6185 -1.9218  0.5961
  162SOPE  C21118157   3.196   2.415   9.449 -0.1235  0.2053 -0.1052
  162SOPE  H11R18158   3.117   2.493   9.457  0.6082  1.0037 -0.4311
  162SOPE  H11S18159   3.143   2.323   9.419 -1.3664  1.7466 -3.0807
  162SOPE  C21218160   3.296   2.469   9.354  0.3963  0.3729 -0.0553
  162SOPE  H12R18161   3.383   2.400   9.360  0.4934  0.5107  0.1186
  162SOPE  H12S18162   3.333   2.571   9.375  4.4300 -0.4894 -1.9687
  162SOPE  C21318163   3.239   2.485   9.207 -0.4610  0.2562 -0.4819
  162SOPE  H13R18164   3.189   2.584   9.195 -2.9371 -0.9586 -0.8812
  162SOPE  H13S18165   3.155   2.411   9.206 -0.7704  0.5825  0.2833
  162SOPE  C21418166   3.336   2.446   9.094  0.2744 -0.1721 -0.2063
  162SOPE  H14R18167   3.406   2.362   9.113  0.6322 -0.0423 -0.9294
  162SOPE  H14S18168   3.413   2.526   9.091  1.3965 -1.2059  0.2408
  162SOPE  C21518169   3.272   2.433   8.957 -0.4393 -0.3072 -0.0055
  162SOPE  H15R18170   3.353   2.459   8.886 -0.1065  0.7720  0.7402
  162SOPE  H15S18171   3.190   2.503   8.928  0.4351  0.1505 -1.4562
  162SOPE  C21618172   3.220   2.292   8.930 -0.0746 -0.0489 -0.2629
  162SOPE  H16R18173   3.165   2.257   9.020  2.6366  0.2605  1.6403
  162SOPE  H16S18174   3.310   2.227   8.921  2.4902  2.9592  1.6675
  162SOPE  C21718175   3.125   2.284   8.805  0.0322 -0.2855 -0.0699
  162SOPE  H17R18176   3.186   2.303   8.714  1.5489  0.5076  1.0686
  162SOPE  H17S18177   3.046   2.361   8.812  0.9252  0.8414 -1.6428
  162SOPE  C21818178   3.063   2.148   8.794 -0.0422  0.0391  0.4924
  162SOPE  H18R18179   3.011   2.122   8.889 -1.1213 -0.6016 -0.2598
  162SOPE  H18S18180   3.139   2.072   8.765 -0.0714  0.7562 -1.6306
  162SOPE  H18T18181   2.992   2.159   8.710 -0.3897  1.1243  0.9015
  162SOPE   C3318182   2.623   2.204  10.471  0.2089  0.6839  0.2207
  162SOPE   H3X18183   2.650   2.122  10.540 -1.7005  0.0149  0.2237
  162SOPE   H3Y18184   2.706   2.277  10.457  0.7738 -0.3661 -2.5634
  162SOPE   C3418185   2.599   2.151  10.326  0.6651  0.6017 -0.1676
  162SOPE   H4X18186   2.563   2.238  10.268 -0.4636  1.8167  2.2139
  162SOPE   H4Y18187   2.518   2.074  10.332  0.2616  1.0730  0.5658
  162SOPE   C3518188   2.722   2.093  10.258 -0.7980 -0.0314 -0.3850
  162SOPE   H5X18189   2.761   2.007  10.317  0.8692  1.2985  0.5461
  162SOPE   H5Y18190   2.805   2.167  10.260 -0.8396  0.0665  2.3314
  162SOPE   C3618191   2.694   2.051  10.112 -1.0471  0.3148 -0.2611
  162SOPE   H6X18192   2.621   2.125  10.073  1.8519  3.6396  0.0880
  162SOPE   H6Y18193   2.653   1.949  10.094 -0.3528 -0.3135  1.4968
  162SOPE   C3718194   2.818   2.072  10.018 -0.5619 -0.4433  0.8791
  162SOPE   H7X18195   2.895   2.002  10.057 -1.4019 -2.5774 -1.0305
  162SOPE   H7Y18196   2.850   2.178  10.028  1.3551 -1.1168  2.7646
  162SOPE   C3818197   2.805   2.040   9.869  0.3596 -0.2436  0.6540
  162SOPE   H8X18198   2.758   2.129   9.823 -1.2659 -1.2024  0.3793
  162SOPE   H8Y18199   2.734   1.955   9.857  0.5566 -0.3755  0.4064
  162SOPE   C3918200   2.934   2.011   9.790  0.9057 -0.0319  0.0279
  162SOPE   H9X18201   2.969   1.908   9.812  1.6515 -0.2285 -1.8873
  162SOPE   H9Y18202   3.009   2.091   9.802  1.2369 -0.5450  1.5271
  162SOPE  C31018203   2.889   2.021   9.645 -0.7343  0.9848  0.0269
  162SOPE  H10X18204   2.838   2.118   9.628  0.7811  2.5510  3.5174
  162SOPE  H10Y18205   2.824   1.935   9.618  0.9945  0.1612 -1.7999
  162SOPE  C31118206   3.011   2.012   9.550 -0.8921  0.1317 -0.2836
  162SOPE  H11X18207   3.029   1.905   9.525  0.3490  0.8699 -2.8478
  162SOPE  H11Y18208   3.100   2.057   9.598  0.2901  0.5203 -2.6925
  162SOPE  C31218209   2.979   2.093   9.424 -0.3732 -0.6638  0.1505
  162SOPE  H12X18210   2.967   2.202   9.442  0.4286 -0.4317 -0.6252
  162SOPE  H12Y18211   2.876   2.073   9.387 -0.1335 -0.9223 -0.4017
  162SOPE  C31318212   3.081   2.067   9.305 -0.2085  0.1285  0.1598
  162SOPE  H13X18213   3.179   2.086   9.352  0.2846 -2.0614  0.1323
  162SOPE  H13Y18214   3.055   2.141   9.226  0.2117 -1.3022 -1.3788
  162SOPE  C31418215   3.088   1.934   9.239  0.7523  0.4478  0.7461
  162SOPE  H14X18216   2.984   1.904   9.215  0.9864  0.2078  0.0196
  162SOPE  H14Y18217   3.127   1.855   9.307 -1.0091 -2.6527 -1.6091
  162SOPE  C31518218   3.169   1.941   9.110  0.3219 -0.9680 -0.4624
  162SOPE  H15X18219   3.262   1.992   9.144  0.6175 -0.4158 -2.0326
  162SOPE  H15Y18220   3.114   1.993   9.028  0.2234 -0.5633 -0.1466
  162SOPE  C31618221   3.209   1.802   9.056  0.7033  0.6684 -0.1352
  162SOPE  H16X18222   3.116   1.740   9.060  0.4520  1.0066 -0.5556
  162SOPE  H16Y18223   3.275   1.749   9.127  0.3057 -0.9369 -0.9172
  162SOPE  C31718224   3.265   1.812   8.911  0.2395 -0.4126  0.2773
  162SOPE  H17X18225   3.194   1.877   8.857 -0.1885 -0.4489  0.7834
  162SOPE  H17Y18226   3.264   1.711   8.864  0.7216  0.1529 -0.9836
  162SOPE  C31818227   3.405   1.868   8.895  0.0492 -1.0581  0.1783
  162SOPE  H18X18228   3.476   1.809   8.957 -0.9891 -0.8682  1.5759
  162SOPE  H18Y18229   3.410   1.973   8.931  0.2481 -0.9598 -0.1220
  162SOPE  H18Z18230   3.434   1.877   8.788 -0.3429  0.2730  0.1645
  163SOPE     N18231   1.444   6.455  11.311 -0.3615  0.5744  0.3859
  163SOPE   HN118232   1.508   6.407  11.377 -1.7193 -0.3944  1.0454
  163SOPE   HN218233   1.376   6.387  11.271 -1.6192  1.6143  0.7122
  163SOPE   HN318234   1.480   6.482  11.217  1.3405  0.8741  1.0846
  163SOPE   C1218235   1.365   6.567  11.371 -0.0324 -0.0839 -0.5154
  163SOPE  H12A18236   1.429   6.630  11.436 -0.1893  1.6811 -1.9887
  163SOPE  H12B18237   1.289   6.521  11.437 -1.1130  2.7839  0.3869
  163SOPE   C1118238   1.300   6.655  11.264 -0.0238  0.7282 -0.1458
  163SOPE  H11A18239   1.257   6.741  11.319  2.4434  2.5932 -0.9465
  163SOPE  H11B18240   1.221   6.600  11.208  1.7640 -2.1916  0.0052
  163SOPE     P18241   1.419   6.676  11.030 -0.2536 -0.4768 -0.1148
  163SOPE   O1318242   1.430   6.526  11.036 -0.1609  0.6141  0.4953
  163SOPE   O1418243   1.530   6.754  10.973 -0.5245 -0.1151  0.2165
  163SOPE   O1218244   1.396   6.717  11.178 -0.6750  0.4909  0.3679
  163SOPE   O1118245   1.278   6.705  10.960  0.1218  0.2730  0.1542
  163SOPE    C118246   1.199   6.816  10.985  0.8900 -0.3917 -0.7687
  163SOPE    HA18247   1.245   6.893  11.050 -0.2473  0.6171 -1.1202
  163SOPE    HB18248   1.109   6.779  11.039  0.6714  0.5578 -0.4782
  163SOPE    C218249   1.171   6.894  10.858  0.6901 -0.4317  0.0626
  163SOPE    HS18250   1.115   6.987  10.880 -0.8985 -1.5450  0.9303
  163SOPE   O2118251   1.095   6.814  10.771 -0.5274  0.2546 -0.1268
  163SOPE   C2118252   0.971   6.797  10.803  0.2710  0.1662 -0.5502
  163SOPE   O2218253   0.909   6.848  10.892 -0.0454  0.2729 -0.6431
  163SOPE   C2218254   0.917   6.683  10.709 -0.4017 -0.2627 -0.0925
  163SOPE   H2R18255   0.878   6.606  10.779 -1.4270  1.1288  0.9039
  163SOPE   H2S18256   1.004   6.642  10.652 -0.1972  3.4544 -2.8631
  163SOPE    C318257   1.301   6.947  10.785 -0.0733  0.0880 -0.0950
  163SOPE    HX18258   1.370   6.862  10.765 -0.8827  0.1327 -3.8334
  163SOPE    HY18259   1.346   7.018  10.858 -0.3065  0.7250 -0.5635
  163SOPE   O3118260   1.281   7.009  10.666  0.3673 -0.1417 -0.0302
  163SOPE   C3118261   1.291   6.943  10.553  0.7905 -0.5361 -0.1462
  163SOPE   O3218262   1.326   6.825  10.539  0.1652  0.8657 -0.1960
  163SOPE   C3218263   1.221   7.028  10.446  0.1632  1.2841 -0.1865
  163SOPE   H2X18264   1.165   7.112  10.492  0.9742  1.3310  0.7403
  163SOPE   H2Y18265   1.138   6.968  10.403  0.5643  1.5866 -1.4385
  163SOPE   C2318266   0.804   6.730  10.614 -0.3213  0.4147 -0.4085
  163SOPE   H3R18267   0.825   6.811  10.541  3.3005  0.3244  0.3422
  163SOPE   H3S18268   0.742   6.781  10.691 -0.8012 -1.2540  0.3737
  163SOPE   C2418269   0.720   6.618  10.559 -0.1635  0.1401  0.7408
  163SOPE   H4R18270   0.792   6.557  10.501 -0.6973  0.1787  0.0198
  163SOPE   H4S18271   0.684   6.566  10.650  1.1643  2.5009  2.7414
  163SOPE   C2518272   0.601   6.661  10.470 -0.5541 -0.2374 -0.4019
  163SOPE   H5R18273   0.530   6.729  10.521 -0.1180  0.7186 -1.0412
  163SOPE   H5S18274   0.644   6.726  10.391  1.2761  1.5379  1.8915
  163SOPE   C2618275   0.520   6.550  10.403  0.2641  0.1129  0.4629
  163SOPE   H6R18276   0.591   6.482  10.351 -1.3862  0.8967 -3.1190
  163SOPE   H6S18277   0.461   6.495  10.480 -2.7188  2.2779 -0.0836
  163SOPE   C2718278   0.418   6.597  10.298  0.2624 -0.4054 -0.1461
  163SOPE   H7R18279   0.328   6.643  10.346 -0.3532 -1.7161 -0.0009
  163SOPE   H7S18280   0.468   6.683  10.249 -0.9112  0.2955 -0.1856
  163SOPE   C2818281   0.381   6.476  10.209 -0.0689 -0.0217  0.1259
  163SOPE   H8R18282   0.309   6.509  10.130  0.6911 -1.0107 -1.0151
  163SOPE   H8S18283   0.475   6.452  10.155  0.2297  0.1413  0.5715
  163SOPE   C2918284   0.336   6.361  10.287 -0.4664  0.6265  0.0859
  163SOPE   H9118285   0.422   6.317  10.340  0.9829  2.4061 -0.6945
  163SOPE  C21018286   0.215   6.302  10.296 -0.1352  0.3683 -0.1687
  163SOPE  H10118287   0.195   6.219  10.366 -0.1684  1.4684  1.1769
  163SOPE  C21118288   0.090   6.344  10.228 -0.0230  0.5003 -0.4793
  163SOPE  H11R18289   0.091   6.448  10.191  2.7427 -0.0958 -2.4472
  163SOPE  H11S18290   0.012   6.342  10.307  0.0087 -0.8789 -0.4587
  163SOPE  C21218291   0.039   6.237  10.123 -0.1344 -0.5484  0.1104
  163SOPE  H12R18292  -0.069   6.260  10.131  0.1585  0.7993  0.4058
  163SOPE  H12S18293   0.054   6.131  10.154  1.3093 -0.3072  0.3566
  163SOPE  C21318294   0.086   6.282   9.977  0.1604  0.7313 -0.1730
  163SOPE  H13R18295   0.194   6.262   9.993  0.0959  0.6043  0.1146
  163SOPE  H13S18296   0.055   6.387   9.961  0.9093  1.2142  1.3818
  163SOPE  C21418297   0.032   6.204   9.860  0.3935 -0.0741  0.0276
  163SOPE  H14R18298  -0.064   6.255   9.835  0.6164  0.3737  0.0659
  163SOPE  H14S18299   0.001   6.103   9.893 -0.2333 -0.8426 -2.6357
  163SOPE  C21518300   0.130   6.195   9.742 -0.1142 -0.0087 -0.1748
  163SOPE  H15R18301   0.228   6.165   9.785  0.8023  0.7390 -1.6384
  163SOPE  H15S18302   0.131   6.295   9.694  0.7837 -0.3563 -0.9292
  163SOPE  C21618303   0.079   6.097   9.630 -0.6912  0.3685  0.4822
  163SOPE  H16R18304   0.085   6.001   9.685  0.3802  0.2803  0.2341
  163SOPE  H16S18305   0.149   6.095   9.543  0.1859 -1.8289  1.1619
  163SOPE  C21718306  -0.063   6.132   9.571 -0.0708  0.3432 -0.5918
  163SOPE  H17R18307  -0.127   6.133   9.662  2.4860  1.6720  1.3086
  163SOPE  H17S18308  -0.091   6.047   9.504 -0.5001 -0.2501  0.3226
  163SOPE  C21818309  -0.071   6.262   9.496 -0.3650 -0.5728  0.4187
  163SOPE  H18R18310  -0.180   6.283   9.490 -1.0833 -4.0304 -0.6164
  163SOPE  H18S18311  -0.038   6.259   9.390 -0.9927 -2.3961  0.2398
  163SOPE  H18T18312  -0.015   6.338   9.555  1.1551 -3.9964  3.8404
  163SOPE   C3318313   1.312   7.056  10.330  0.1688 -0.1588  0.6453
  163SOPE   H3X18314   1.263   7.124  10.257  0.6818 -0.9581 -0.4792
  163SOPE   H3Y18315   1.332   6.962  10.274  2.1537  0.1141  0.8258
  163SOPE   C3418316   1.449   7.111  10.360 -0.5376  0.0739  0.7388
  163SOPE   H4X18317   1.507   7.038  10.420 -0.0776  0.3245  0.6012
  163SOPE   H4Y18318   1.437   7.197  10.429 -2.1953  0.5096 -0.0575
  163SOPE   C3518319   1.532   7.157  10.232  0.0227  1.1399 -0.2191
  163SOPE   H5X18320   1.459   7.218  10.174 -2.5345 -0.0853  1.5161
  163SOPE   H5Y18321   1.569   7.070  10.174 -0.3946  1.2364 -0.6429
  163SOPE   C3618322   1.652   7.235  10.279  0.4628  0.3989 -0.4692
  163SOPE   H6X18323   1.745   7.180  10.253 -0.2793 -1.0040 -0.2773
  163SOPE   H6Y18324   1.649   7.240  10.390 -0.7157  0.0356 -0.4738
  163SOPE   C3718325   1.661   7.373  10.221  0.0899  0.4005 -0.9124
  163SOPE   H7X18326   1.741   7.432  10.270 -0.3706  0.5989 -0.3922
  163SOPE   H7Y18327   1.566   7.425  10.246 -0.3180  0.2440 -2.0763
  163SOPE   C3818328   1.700   7.378  10.068  0.1857  0.2637  0.4178
  163SOPE   H8X18329   1.689   7.483  10.035 -0.5745  0.0562 -0.0077
  163SOPE   H8Y18330   1.623   7.325  10.008  0.6374  0.2610 -0.1707
  163SOPE   C3918331   1.838   7.324  10.019 -0.2341 -0.0280 -0.4036
  163SOPE   H9X18332   1.850   7.224  10.066  1.0500  0.3401  0.1207
  163SOPE   H9Y18333   1.918   7.393  10.056 -0.3816 -0.2994  0.4431
  163SOPE  C31018334   1.855   7.311   9.863 -0.8335 -0.4913 -0.8170
  163SOPE  H10X18335   1.805   7.401   9.820 -1.5932 -0.7938 -0.5859
  163SOPE  H10Y18336   1.784   7.233   9.828 -1.6953  0.2862 -0.8464
  163SOPE  C31118337   1.998   7.286   9.807  0.3810  0.1652  0.1272
  163SOPE  H11X18338   2.045   7.203   9.863  0.0090  0.1546  0.4318
  163SOPE  H11Y18339   2.052   7.381   9.827 -0.1240  0.2421  1.2072
  163SOPE  C31218340   2.001   7.265   9.653 -0.6919  0.3122 -0.1770
  163SOPE  H12X18341   1.941   7.174   9.629  0.4591 -0.1694 -1.3044
  163SOPE  H12Y18342   2.107   7.248   9.625 -0.5775 -2.8162  1.6378
  163SOPE  C31318343   1.930   7.382   9.572 -0.4984 -0.4898 -0.5992
  163SOPE  H13X18344   1.969   7.484   9.591 -2.1401  0.3638 -1.6441
  163SOPE  H13Y18345   1.821   7.380   9.595 -0.8653 -0.5006 -2.1987
  163SOPE  C31418346   1.931   7.344   9.424 -0.8097 -0.8610  0.2876
  163SOPE  H14X18347   1.878   7.248   9.409  0.7199 -1.6387 -0.4018
  163SOPE  H14Y18348   2.038   7.322   9.405 -0.5613  0.0970  0.5039
  163SOPE  C31518349   1.896   7.462   9.340  0.0092 -0.4282 -0.4645
  163SOPE  H15X18350   1.926   7.446   9.234 -2.8684 -1.0851 -1.2656
  163SOPE  H15Y18351   1.948   7.551   9.382 -0.0026 -0.6182 -0.0376
  163SOPE  C31618352   1.743   7.492   9.333  0.1426 -0.0303  0.0971
  163SOPE  H16X18353   1.725   7.600   9.315 -0.6055  0.8563  4.7392
  163SOPE  H16Y18354   1.701   7.479   9.435 -1.3657 -0.6864 -0.5692
  163SOPE  C31718355   1.667   7.399   9.233 -0.2242 -0.5181  0.1230
  163SOPE  H17X18356   1.557   7.409   9.242 -0.6033 -2.2053 -1.9348
  163SOPE  H17Y18357   1.688   7.295   9.265 -2.9277 -1.0914  0.2627
  163SOPE  C31818358   1.701   7.417   9.089  0.4700  0.1001 -0.3281
  163SOPE  H18X18359   1.673   7.523   9.071  1.5994  0.1705 -1.9137
  163SOPE  H18Y18360   1.656   7.351   9.011 -0.8289 -0.1572  0.6056
  163SOPE  H18Z18361   1.809   7.408   9.064  0.3238 -1.2621 -0.5478
  164SOPE     N18362   4.073   5.020  10.953 -0.2158 -0.1601  0.2764
  164SOPE   HN118363   4.037   5.019  11.051  0.2637  3.3186  0.6144
  164SOPE   HN218364   4.057   4.935  10.896 -1.8647  1.0127 -1.1425
  164SOPE   HN318365   4.176   5.024  10.967 -0.0323 -1.4387 -0.4934
  164SOPE   C1218366   4.020   5.136  10.877  0.5497  0.1948  0.0969
  164SOPE  H12A18367   4.070   5.132  10.777 -2.0465 -0.5055 -1.2551
  164SOPE  H12B18368   4.043   5.227  10.936  2.5211 -1.2902  1.7698
  164SOPE   C1118369   3.869   5.122  10.865  0.0762 -0.2230  0.2408
  164SOPE  H11A18370   3.835   5.211  10.808  1.1563 -1.1677 -1.9730
  164SOPE  H11B18371   3.822   5.117  10.966 -1.5034  1.5135 -0.3340
  164SOPE     P18372   3.686   4.955  10.778 -0.0239 -0.0457  0.0130
  164SOPE   O1318373   3.592   5.066  10.800 -0.5181  0.4585  0.3673
  164SOPE   O1418374   3.670   4.848  10.877 -0.1910  0.2495  0.0093
  164SOPE   O1218375   3.836   5.005  10.795 -0.0119  0.0907 -0.4046
  164SOPE   O1118376   3.677   4.909  10.636 -0.5375 -0.2007  0.1547
  164SOPE    C118377   3.772   4.805  10.595  0.1661  0.0070 -0.1319
  164SOPE    HA18378   3.713   4.736  10.531  1.6375 -2.7232  1.2692
  164SOPE    HB18379   3.807   4.748  10.684 -1.8921  1.4092  1.6539
  164SOPE    C218380   3.895   4.849  10.512 -0.6749 -0.5573  0.4540
  164SOPE    HS18381   3.972   4.866  10.590 -0.5664 -1.4592  0.5574
  164SOPE   O2118382   3.862   4.975  10.446  0.0414 -0.2884 -0.0289
  164SOPE   C2118383   3.971   5.053  10.424  0.1845 -0.2523  0.7724
  164SOPE   O2218384   4.081   5.039  10.479  0.0931 -0.1163  0.4017
  164SOPE   C2218385   3.940   5.143  10.307 -0.8692 -0.6175  0.6843
  164SOPE   H2R18386   3.975   5.244  10.338  1.0279  0.0856 -3.1952
  164SOPE   H2S18387   3.834   5.149  10.274 -1.0732 -1.0388  1.2388
  164SOPE    C318388   3.941   4.747  10.405  0.2561 -0.6748 -0.0377
  164SOPE    HX18389   3.874   4.745  10.317  2.1401 -1.6765 -1.5275
  164SOPE    HY18390   3.939   4.642  10.441 -0.0848 -0.5322  0.3647
  164SOPE   O3118391   4.073   4.774  10.355  0.1182  0.1331 -0.1320
  164SOPE   C3118392   4.174   4.698  10.399 -0.6035  0.4401  0.1565
  164SOPE   O3218393   4.163   4.600  10.470 -0.4978 -0.0299  0.0768
  164SOPE   C3218394   4.308   4.762  10.358 -0.3158  0.4225 -0.1454
  164SOPE   H2X18395   4.362   4.777  10.454 -1.5547  0.0163  0.6414
  164SOPE   H2Y18396   4.298   4.864  10.314 -2.3308  0.0660 -0.6161
  164SOPE   C2318397   4.020   5.110  10.175 -0.1497 -0.3496  0.5798
  164SOPE   H3R18398   4.006   5.002  10.152  0.7363  0.1339 -2.8800
  164SOPE   H3S18399   4.129   5.119  10.191 -0.1342  0.7240  0.0249
  164SOPE   C2418400   3.971   5.189  10.048  0.2841  0.2130 -0.2656
  164SOPE   H4R18401   3.864   5.167  10.028  0.3830 -0.2604 -0.2795
  164SOPE   H4S18402   3.980   5.297  10.076  0.3953 -0.0515  0.7596
  164SOPE   C2518403   4.063   5.175   9.932  0.7555  0.3400 -0.4158
  164SOPE   H5R18404   4.166   5.212   9.950  1.4851 -2.2441  1.3016
  164SOPE   H5S18405   4.069   5.071   9.895  0.2793  0.3482 -0.5339
  164SOPE   C2618406   4.005   5.254   9.812 -0.2459 -0.7795  0.4496
  164SOPE   H6R18407   3.944   5.196   9.739  0.3840 -2.2948  1.1015
  164SOPE   H6S18408   3.934   5.327   9.856  0.0041  0.2973 -0.8461
  164SOPE   C2718409   4.103   5.349   9.731  0.2172  0.7390 -0.2286
  164SOPE   H7R18410   4.039   5.416   9.670 -0.7207 -0.2210 -0.3381
  164SOPE   H7S18411   4.151   5.417   9.805 -1.7763  1.0268  0.8735
  164SOPE   C2818412   4.204   5.281   9.643  0.0282 -0.1164  0.0009
  164SOPE   H8R18413   4.274   5.356   9.601  0.3190 -1.0529 -1.2352
  164SOPE   H8S18414   4.266   5.206   9.698 -0.6072 -0.6895 -0.0470
  164SOPE   C2918415   4.134   5.207   9.528 -0.1944 -1.1279 -0.3358
  164SOPE   H9118416   4.105   5.107   9.562  0.6224 -1.6058 -0.9955
  164SOPE  C21018417   4.099   5.254   9.410  0.1031 -0.5838  0.2939
  164SOPE  H10118418   4.040   5.189   9.344  0.4089  0.2707 -0.8366
  164SOPE  C21118419   4.116   5.396   9.367  0.1611 -0.7531  0.0071
  164SOPE  H11R18420   4.166   5.454   9.447 -1.4935  2.1405 -0.9091
  164SOPE  H11S18421   4.021   5.451   9.351  0.4473 -0.0173  0.7756
  164SOPE  C21218422   4.205   5.405   9.248  0.1378 -0.2282  0.5298
  164SOPE  H12R18423   4.172   5.351   9.157 -0.5243  0.2203  0.5008
  164SOPE  H12S18424   4.312   5.377   9.266 -0.2104 -2.4847 -0.5148
  164SOPE  C21318425   4.223   5.549   9.203 -0.0111 -0.1640 -0.1064
  164SOPE  H13R18426   4.260   5.605   9.291 -0.1141 -5.4601  3.7424
  164SOPE  H13S18427   4.123   5.590   9.175 -1.9341 -1.7521  3.6800
  164SOPE  C21418428   4.319   5.577   9.090 -0.2786 -0.1221  0.1033
  164SOPE  H14R18429   4.429   5.561   9.090 -0.2115 -0.0495 -2.1536
  164SOPE  H14S18430   4.310   5.688   9.083 -2.2747 -0.1027  2.1356
  164SOPE  C21518431   4.270   5.528   8.956 -0.1691 -0.4081 -0.5792
  164SOPE  H15R18432   4.159   5.536   8.949 -0.2840  0.1040  1.2258
  164SOPE  H15S18433   4.289   5.420   8.934 -1.4644 -0.4935 -1.3657
  164SOPE  C21618434   4.338   5.596   8.840  0.3024 -0.3868  0.2331
  164SOPE  H16R18435   4.321   5.704   8.860 -0.0614 -0.9947  3.9791
  164SOPE  H16S18436   4.291   5.556   8.748  0.7308 -0.3969  0.0219
  164SOPE  C21718437   4.491   5.567   8.822  0.4701  0.1870 -0.0936
  164SOPE  H17R18438   4.536   5.582   8.923  1.0912 -1.7431 -0.0414
  164SOPE  H17S18439   4.533   5.634   8.744  0.7663  0.7627  0.5456
  164SOPE  C21818440   4.514   5.430   8.772 -0.1251  0.6035  0.0054
  164SOPE  H18R18441   4.617   5.417   8.735 -0.0017 -0.7902  0.7626
  164SOPE  H18S18442   4.443   5.398   8.692 -2.5430 -2.9509  3.1950
  164SOPE  H18T18443   4.493   5.352   8.849 -3.2208 -0.8700 -2.1348
  164SOPE   C3318444   4.398   4.670  10.278  0.2386 -0.0074 -0.1735
  164SOPE   H3X18445   4.398   4.566  10.318 -2.8869  0.1521  0.5312
  164SOPE   H3Y18446   4.504   4.703  10.278  0.7535 -1.1267 -3.9173
  164SOPE   C3418447   4.357   4.674  10.129 -0.0695  0.3275  0.3551
  164SOPE   H4X18448   4.390   4.773  10.089 -0.5672  0.1693 -0.4653
  164SOPE   H4Y18449   4.250   4.652  10.112  0.1003 -0.2141 -0.0307
  164SOPE   C3518450   4.431   4.557  10.052 -0.2843  0.3547  0.4964
  164SOPE   H5X18451   4.411   4.458  10.099  0.0733 -0.6285 -1.2976
  164SOPE   H5Y18452   4.537   4.583  10.071 -0.3710  1.0128  0.0970
  164SOPE   C3618453   4.410   4.555   9.897  0.5359 -0.3194 -0.3659
  164SOPE   H6X18454   4.465   4.639   9.849 -0.5341  0.5316 -0.1193
  164SOPE   H6Y18455   4.304   4.571   9.869  0.2608  1.8437  1.5747
  164SOPE   C3718456   4.476   4.442   9.814  0.0656  0.6361  0.4225
  164SOPE   H7X18457   4.439   4.350   9.862 -2.1846  0.7038 -1.0452
  164SOPE   H7Y18458   4.585   4.436   9.835 -0.0087 -0.6586  0.5137
  164SOPE   C3818459   4.449   4.470   9.664  0.1063 -0.1025 -0.8601
  164SOPE   H8X18460   4.482   4.572   9.637 -0.0894  0.1133 -0.2901
  164SOPE   H8Y18461   4.345   4.451   9.628  0.0939  0.8783 -1.3681
  164SOPE   C3918462   4.555   4.398   9.571 -0.5154 -0.8922 -0.5207
  164SOPE   H9X18463   4.541   4.289   9.581 -0.0098 -1.1646 -2.3421
  164SOPE   H9Y18464   4.655   4.426   9.611 -1.1112  0.0052  0.3942
  164SOPE  C31018465   4.555   4.447   9.425 -0.1885  0.5377 -1.0293
  164SOPE  H10X18466   4.470   4.401   9.370  0.1632 -0.0543 -1.0827
  164SOPE  H10Y18467   4.651   4.406   9.388  0.4032 -0.1086  1.1227
  164SOPE  C31118468   4.552   4.595   9.388  0.4337  0.3041  0.1249
  164SOPE  H11X18469   4.614   4.649   9.462  0.3697 -2.1749  2.1047
  164SOPE  H11Y18470   4.450   4.637   9.400  0.6712  1.4247 -1.4619
  164SOPE  C31218471   4.614   4.609   9.248  0.5652 -0.4093 -0.4430
  164SOPE  H12X18472   4.537   4.575   9.175  0.8581  1.0821 -1.4959
  164SOPE  H12Y18473   4.705   4.546   9.240 -1.3147 -3.3270 -0.6321
  164SOPE  C31318474   4.640   4.754   9.225 -0.1769 -0.8029  0.1427
  164SOPE  H13X18475   4.600   4.816   9.308 -0.0482 -1.3838  0.6484
  164SOPE  H13Y18476   4.591   4.782   9.130  0.2231 -0.2151  0.1064
  164SOPE  C31418477   4.789   4.784   9.237 -0.1938 -0.1044 -0.6287
  164SOPE  H14X18478   4.847   4.718   9.169  0.1598 -1.1190  0.6157
  164SOPE  H14Y18479   4.811   4.758   9.343  1.2366 -2.7054 -1.4688
  164SOPE  C31518480   4.830   4.937   9.214  0.3867 -0.2786  0.0295
  164SOPE  H15X18481   4.795   4.995   9.302  0.9560 -1.9499  1.4108
  164SOPE  H15Y18482   4.768   4.974   9.130  1.8505 -0.6892 -1.2728
  164SOPE  C31618483   4.980   4.954   9.188  0.7014  0.2142 -0.4213
  164SOPE  H16X18484   5.006   4.903   9.093 -0.1509 -1.2060  0.0662
  164SOPE  H16Y18485   5.032   4.912   9.277 -0.1494 -0.4821 -0.2417
  164SOPE  C31718486   5.017   5.095   9.155 -0.4039 -0.4355 -0.7272
  164SOPE  H17X18487   4.968   5.158   9.233 -0.6390 -1.9572  0.4148
  164SOPE  H17Y18488   4.982   5.130   9.056 -0.4346  0.8708 -0.2648
  164SOPE  C31818489   5.174   5.099   9.153 -0.0878  0.2265 -0.4439
  164SOPE  H18X18490   5.207   5.202   9.125  0.0603  0.9277  2.1178
  164SOPE  H18Y18491   5.215   5.037   9.071  2.3056  0.6043  0.4099
  164SOPE  H18Z18492   5.221   5.070   9.249  0.7740  2.4699 -0.1308
  165SOPE     N18493   3.727   5.846  11.144  0.2899 -0.0952 -0.1717
  165SOPE   HN118494   3.797   5.792  11.199 -1.3519 -2.1386  0.0381
  165SOPE   HN218495   3.768   5.927  11.094  0.7648  0.9401  1.7958
  165SOPE   HN318496   3.661   5.879  11.217  0.4098 -0.2312 -0.0006
  165SOPE   C1218497   3.654   5.759  11.046  0.5905  0.0601  0.1418
  165SOPE  H12A18498   3.560   5.815  11.025  0.4648 -0.2915 -0.2475
  165SOPE  H12B18499   3.622   5.671  11.106  0.2665 -1.6724 -2.4376
  165SOPE   C1118500   3.736   5.744  10.920  0.5328  0.0650 -0.2810
  165SOPE  H11A18501   3.735   5.840  10.864 -0.2034  0.4827  0.4325
  165SOPE  H11B18502   3.694   5.659  10.861  1.7518  0.6555 -2.1026
  165SOPE     P18503   3.957   5.616  10.848  0.1919 -0.2016 -0.3044
  165SOPE   O1318504   3.882   5.565  10.732 -0.5978  0.4641  0.8163
  165SOPE   O1418505   4.025   5.512  10.936  0.3883 -0.7241 -0.0787
  165SOPE   O1218506   3.872   5.705  10.946  0.2082  0.6260  0.4454
  165SOPE   O1118507   4.060   5.729  10.803 -0.1608 -0.3629 -0.2109
  165SOPE    C118508   4.028   5.841  10.721  1.0465  0.1996 -0.3964
  165SOPE    HA18509   4.075   5.935  10.754  1.5679  0.2643 -1.2934
  165SOPE    HB18510   3.918   5.846  10.703  0.8941 -1.1208  0.0331
  165SOPE    C218511   4.094   5.820  10.581 -0.2970  0.1788  0.1861
  165SOPE    HS18512   4.073   5.909  10.518  0.7811  0.8289  0.7052
  165SOPE   O2118513   4.056   5.699  10.517 -0.1024  0.0491  0.0797
  165SOPE   C2118514   3.945   5.712  10.448 -0.2716 -0.5178  0.3010
  165SOPE   O2218515   3.871   5.806  10.438  0.3411 -0.5022  0.3022
  165SOPE   C2218516   3.913   5.572  10.397  0.2444 -0.6250 -0.2205
  165SOPE   H2R18517   3.846   5.524  10.471 -3.0548  3.5967 -0.0658
  165SOPE   H2S18518   4.002   5.506  10.392  0.6553 -0.0611 -0.4831
  165SOPE    C318519   4.254   5.818  10.600 -0.7138  0.7643 -0.6125
  165SOPE    HX18520   4.275   5.724  10.655  1.6521  1.6916  0.2078
  165SOPE    HY18521   4.308   5.901  10.652  0.0850 -0.2802  0.2676
  165SOPE   O3118522   4.313   5.798  10.474 -0.3000  0.1407  0.2902
  165SOPE   C3118523   4.354   5.900  10.404 -0.2605  0.0240 -0.1380
  165SOPE   O3218524   4.338   6.018  10.432 -0.3553  0.2519 -0.1835
  165SOPE   C3218525   4.419   5.845  10.280 -0.2391 -0.0735  0.1542
  165SOPE   H2X18526   4.377   5.744  10.259 -1.8578  0.5465  0.2180
  165SOPE   H2Y18527   4.529   5.842  10.292 -0.0749  1.6856 -0.6020
  165SOPE   C2318528   3.843   5.574  10.266  0.6843  0.4124 -0.4827
  165SOPE   H3R18529   3.755   5.642  10.262  0.4185  0.3813  2.4673
  165SOPE   H3S18530   3.822   5.468  10.237  1.4597 -0.0297  0.5147
  165SOPE   C2418531   3.924   5.629  10.152 -0.2732 -0.8504  0.5085
  165SOPE   H4R18532   3.995   5.709  10.184 -0.9789 -0.6008  1.5168
  165SOPE   H4S18533   3.990   5.552  10.108  0.3226 -0.5065  0.7842
  165SOPE   C2518534   3.831   5.688  10.045 -0.4294 -0.1654  0.9039
  165SOPE   H5R18535   3.754   5.616  10.011 -0.1468 -1.3284  2.6387
  165SOPE   H5S18536   3.766   5.761  10.099 -0.9167  0.1951 -0.1395
  165SOPE   C2618537   3.911   5.753   9.923 -0.0612  0.0164  0.1252
  165SOPE   H6R18538   3.972   5.838   9.959  1.4405 -0.1360 -1.8802
  165SOPE   H6S18539   3.988   5.681   9.889  0.1477  1.6100 -3.1626
  165SOPE   C2718540   3.816   5.799   9.813  0.5425 -0.2572  0.9264
  165SOPE   H7R18541   3.767   5.709   9.767 -0.2673  1.0168 -0.8460
  165SOPE   H7S18542   3.739   5.864   9.860 -0.4886 -1.0079  0.3340
  165SOPE   C2818543   3.884   5.886   9.703  0.1258  0.2483 -0.0494
  165SOPE   H8R18544   3.801   5.925   9.639 -1.7385 -0.8517  1.5775
  165SOPE   H8S18545   3.931   5.970   9.759 -0.6358 -0.0367  1.0427
  165SOPE   C2918546   3.981   5.803   9.623 -0.3354 -0.4297  0.1619
  165SOPE   H9118547   4.036   5.725   9.678 -0.7606 -0.7586  0.1276
  165SOPE  C21018548   3.980   5.808   9.482  0.0172  0.8500 -1.0247
  165SOPE  H10118549   4.051   5.748   9.422 -0.8414 -1.3060 -0.0024
  165SOPE  C21118550   3.902   5.894   9.389 -0.1536  0.2129 -0.2760
  165SOPE  H11R18551   3.852   5.972   9.449  0.1371 -0.9558  1.5518
  165SOPE  H11S18552   3.819   5.832   9.347 -0.0999  2.0485 -3.4445
  165SOPE  C21218553   3.973   5.981   9.282 -0.2656 -0.6304  0.1959
  165SOPE  H12R18554   4.063   6.037   9.315 -2.0206  1.2756  2.0803
  165SOPE  H12S18555   3.904   6.058   9.244  1.0155  0.5189  0.1168
  165SOPE  C21318556   4.000   5.893   9.164  0.3716  0.7612  0.1985
  165SOPE  H13R18557   3.908   5.853   9.116  0.6769 -0.0348  0.2541
  165SOPE  H13S18558   4.051   5.804   9.207 -1.7989 -0.4066  0.4754
  165SOPE  C21418559   4.081   5.967   9.050 -0.2031 -0.4123  0.0206
  165SOPE  H14R18560   4.116   5.893   8.975 -2.1097  0.1966 -1.5407
  165SOPE  H14S18561   4.168   6.015   9.099 -1.6488  1.2638  1.0550
  165SOPE  C21518562   4.004   6.075   8.977  0.4176  0.6593 -0.8455
  165SOPE  H15R18563   3.967   6.150   9.050  0.8575 -0.8512  1.0312
  165SOPE  H15S18564   3.912   6.028   8.936 -0.2483 -0.3943  1.6354
  165SOPE  C21618565   4.076   6.142   8.858  0.1587  0.3187 -0.0069
  165SOPE  H16R18566   4.114   6.061   8.792  0.1696  0.3953 -0.0940
  165SOPE  H16S18567   4.163   6.200   8.895 -0.2542  1.3613 -0.6430
  165SOPE  C21718568   3.981   6.225   8.771 -0.7726  0.2175 -0.6122
  165SOPE  H17R18569   3.907   6.284   8.829 -1.0115 -0.5685 -0.1048
  165SOPE  H17S18570   3.921   6.148   8.719 -1.2987 -1.9748  2.9276
  165SOPE  C21818571   4.043   6.325   8.673  0.2043  0.0209 -0.2686
  165SOPE  H18R18572   4.091   6.402   8.738  1.3528 -1.5199  0.7972
  165SOPE  H18S18573   3.975   6.384   8.609 -0.5812  0.5140  0.9754
  165SOPE  H18T18574   4.120   6.280   8.607 -1.5862 -0.2804 -2.2134
  165SOPE   C3318575   4.388   5.942  10.165  0.3205 -0.7622  0.2326
  165SOPE   H3X18576   4.465   5.918  10.088 -0.7243 -1.3524 -0.6560
  165SOPE   H3Y18577   4.406   6.045  10.202  0.3639 -1.6487  2.9162
  165SOPE   C3418578   4.248   5.923  10.111  0.4969 -0.1533  0.0231
  165SOPE   H4X18579   4.177   5.956  10.190 -0.7887 -3.5619  0.4472
  165SOPE   H4Y18580   4.221   5.816  10.098 -1.5840  0.0927  1.7961
  165SOPE   C3518581   4.226   5.989   9.983  0.6892  0.0001  0.5792
  165SOPE   H5X18582   4.264   6.093   9.995 -1.0457  0.5990  1.1269
  165SOPE   H5Y18583   4.121   6.013   9.956  0.4645 -0.5717  0.9255
  165SOPE   C3618584   4.288   5.925   9.853  0.1765  0.0354  0.9981
  165SOPE   H6X18585   4.218   5.845   9.822  2.9691 -1.4996 -2.0205
  165SOPE   H6Y18586   4.388   5.880   9.869  0.0430 -0.4179  0.5905
  165SOPE   C3718587   4.305   6.024   9.741 -0.3352 -0.7122 -0.4152
  165SOPE   H7X18588   4.386   6.099   9.756 -1.9225  0.7575  1.2381
  165SOPE   H7Y18589   4.210   6.081   9.740 -0.2064 -0.4420  1.0503
  165SOPE   C3818590   4.318   5.951   9.610 -0.5163  0.2216 -0.4257
  165SOPE   H8X18591   4.222   5.898   9.600 -0.9989  0.7919  1.0404
  165SOPE   H8Y18592   4.405   5.882   9.622 -0.1138  0.3395 -2.3013
  165SOPE   C3918593   4.351   6.049   9.490 -0.0161  0.1651  0.0538
  165SOPE   H9X18594   4.410   6.135   9.527  1.0456  0.2369 -1.7246
  165SOPE   H9Y18595   4.264   6.097   9.441 -0.1134 -1.7815 -1.8417
  165SOPE  C31018596   4.422   5.971   9.383 -0.0063  0.2110 -0.1265
  165SOPE  H10X18597   4.362   5.881   9.357 -0.3600  0.0149  1.2925
  165SOPE  H10Y18598   4.513   5.923   9.424  0.0102  0.4805  0.1494
  165SOPE  C31118599   4.453   6.061   9.258  0.7213  0.7136 -0.6349
  165SOPE  H11X18600   4.525   6.143   9.281 -1.1975  2.1425  0.5887
  165SOPE  H11Y18601   4.359   6.107   9.220  1.3052  2.1764 -0.3828
  165SOPE  C31218602   4.502   5.972   9.151  0.0386 -0.1696  0.7000
  165SOPE  H12X18603   4.427   5.891   9.136 -0.4775  0.3875  0.2331
  165SOPE  H12Y18604   4.594   5.916   9.178 -1.0595 -1.8814  1.0300
  165SOPE  C31318605   4.520   6.037   9.013 -0.5641 -0.2585  0.0597
  165SOPE  H13X18606   4.582   6.129   9.012 -2.1122  0.8313  0.2270
  165SOPE  H13Y18607   4.425   6.068   8.964 -0.1657 -2.2091 -2.1152
  165SOPE  C31418608   4.570   5.937   8.907 -0.1607  0.5336 -0.1181
  165SOPE  H14X18609   4.504   5.849   8.920 -1.4699  1.3069 -1.2990
  165SOPE  H14Y18610   4.674   5.905   8.933 -0.6031 -0.2991  0.6831
  165SOPE  C31518611   4.562   5.994   8.769 -0.7998  0.3179 -0.6768
  165SOPE  H15X18612   4.644   5.947   8.711  0.6684  0.8460  0.8752
  165SOPE  H15Y18613   4.582   6.103   8.779  1.4681 -0.2668  2.7624
  165SOPE  C31618614   4.428   5.964   8.690 -0.7350 -0.6072 -0.0740
  165SOPE  H16X18615   4.350   5.994   8.763 -1.6636 -1.9048 -0.5068
  165SOPE  H16Y18616   4.426   5.853   8.685  0.5192 -0.5968 -1.4370
  165SOPE  C31718617   4.425   6.025   8.551  0.1072 -0.1183  0.1243
  165SOPE  H17X18618   4.469   6.126   8.561  2.0917 -0.9662  0.5216
  165SOPE  H17Y18619   4.318   6.030   8.524 -0.6697 -3.7241  1.8257
  165SOPE  C31818620   4.486   5.943   8.441  0.1032  0.0462 -0.3364
  165SOPE  H18X18621   4.492   5.997   8.344  1.3598 -3.6024 -2.5150
  165SOPE  H18Y18622   4.428   5.850   8.422  1.6050 -1.4244  1.8622
  165SOPE  H18Z18623   4.588   5.909   8.467  1.2805  1.6472 -2.4982
  166SOPE     N18624   5.857   5.668  11.124  0.4059 -0.0799  1.0897
  166SOPE   HN118625   5.804   5.756  11.143 -0.7601 -0.3866 -0.5592
  166SOPE   HN218626   5.957   5.693  11.111 -0.4863  2.8840 -1.2829
  166SOPE   HN318627   5.825   5.628  11.033  0.3156 -1.4453  1.6992
  166SOPE   C1218628   5.847   5.553  11.218 -0.2595  0.3068  0.0498
  166SOPE  H12A18629   5.752   5.566  11.274  0.3674  3.4225  0.6207
  166SOPE  H12B18630   5.934   5.532  11.283 -1.3965 -1.9951  0.9271
  166SOPE   C1118631   5.824   5.431  11.125 -0.0803 -0.6356  0.2153
  166SOPE  H11A18632   5.730   5.429  11.066 -0.2143 -0.5841  0.4259
  166SOPE  H11B18633   5.808   5.351  11.200 -0.1121  0.2736  1.2201
  166SOPE     P18634   6.054   5.328  11.075  0.0265 -0.0637  0.2329
  166SOPE   O1318635   6.031   5.264  11.207 -0.0444 -0.1742 -0.2183
  166SOPE   O1418636   6.174   5.420  11.068  0.3607 -0.4662 -0.1185
  166SOPE   O1218637   5.930   5.406  11.028  0.0864 -0.1859  0.1996
  166SOPE   O1118638   6.070   5.209  10.972 -0.6469 -0.2679  0.0584
  166SOPE    C118639   6.001   5.211  10.850 -0.2730 -0.2714 -0.8987
  166SOPE    HA18640   5.897   5.249  10.860  0.0420  0.6221 -0.9398
  166SOPE    HB18641   6.001   5.111  10.803  0.1392 -0.3635 -0.7087
  166SOPE    C218642   6.069   5.310  10.747  0.3514 -0.5132 -0.0794
  166SOPE    HS18643   6.057   5.411  10.791 -1.1980 -1.0577  0.7919
  166SOPE   O2118644   5.991   5.295  10.625 -0.0436  0.2189  0.1877
  166SOPE   C2118645   5.895   5.388  10.606 -0.7228  0.3965 -0.0835
  166SOPE   O2218646   5.881   5.483  10.680 -0.0905  0.4947  0.2046
  166SOPE   C2218647   5.813   5.364  10.486  0.0224  0.1266  0.6151
  166SOPE   H2R18648   5.743   5.448  10.466  1.1619  0.4209 -2.6268
  166SOPE   H2S18649   5.742   5.280  10.502  0.2036  0.0142  0.8329
  166SOPE    C318650   6.217   5.279  10.725 -0.0902  0.5305 -0.2216
  166SOPE    HX18651   6.276   5.277  10.818 -1.2270 -1.0876  0.5145
  166SOPE    HY18652   6.271   5.360  10.672  0.7046 -0.0196 -0.2712
  166SOPE   O3118653   6.232   5.150  10.669  0.1940 -0.0093  0.1901
  166SOPE   C3118654   6.253   5.144  10.536 -0.1849  0.3608 -0.7818
  166SOPE   O3218655   6.254   5.239  10.462  0.1602 -0.0304 -0.1887
  166SOPE   C3218656   6.285   5.004  10.490 -0.1249  0.5637 -0.0602
  166SOPE   H2X18657   6.256   4.937  10.574  1.8069  0.4195  0.5224
  166SOPE   H2Y18658   6.395   4.993  10.484  0.0830  0.4218  2.8159
  166SOPE   C2318659   5.903   5.342  10.361 -0.4560  0.5156 -0.1775
  166SOPE   H3R18660   5.997   5.291  10.391 -1.5489 -1.1150  0.6371
  166SOPE   H3S18661   5.922   5.441  10.316  1.3458  1.6371  2.7435
  166SOPE   C2418662   5.829   5.253  10.248 -0.4612 -0.2709  0.6547
  166SOPE   H4R18663   5.795   5.148  10.267 -2.5366  0.7685  3.3417
  166SOPE   H4S18664   5.737   5.312  10.229 -0.7310 -0.5030  1.2114
  166SOPE   C2518665   5.919   5.235  10.124 -0.4430 -0.4789 -0.3614
  166SOPE   H5R18666   5.955   5.337  10.099  0.1300 -0.7797 -0.7907
  166SOPE   H5S18667   6.011   5.179  10.151 -0.6393 -0.5190  0.2371
  166SOPE   C2618668   5.841   5.180   9.998  0.3554 -0.0376 -0.9748
  166SOPE   H6R18669   5.845   5.069   9.990  0.8575 -0.0935 -0.1122
  166SOPE   H6S18670   5.735   5.211  10.005  0.8034  1.3482  0.0728
  166SOPE   C2718671   5.898   5.228   9.861  0.6120 -0.0037  0.1148
  166SOPE   H7R18672   5.884   5.338   9.856 -3.5042 -0.3007  1.6389
  166SOPE   H7S18673   6.006   5.204   9.854  0.4802 -0.7168  0.4601
  166SOPE   C2818674   5.828   5.166   9.737  0.0642 -0.4217  0.3443
  166SOPE   H8R18675   5.870   5.225   9.654  0.8394 -0.8338  0.4327
  166SOPE   H8S18676   5.867   5.062   9.733  1.7615  0.2011  0.2044
  166SOPE   C2918677   5.678   5.150   9.730  0.2668 -0.4774  0.1349
  166SOPE   H9118678   5.628   5.123   9.825  0.7186 -0.9392  0.2453
  166SOPE  C21018679   5.600   5.182   9.630 -0.2487  0.1510 -0.0257
  166SOPE  H10118680   5.491   5.170   9.637 -0.7415  3.8284  1.0101
  166SOPE  C21118681   5.638   5.248   9.497  0.2735  0.0350 -0.4757
  166SOPE  H11R18682   5.708   5.177   9.448  1.2248  0.4753  0.2137
  166SOPE  H11S18683   5.690   5.345   9.509  1.4251 -0.4855 -1.1003
  166SOPE  C21218684   5.509   5.253   9.409  0.3383  0.0572  0.3619
  166SOPE  H12R18685   5.438   5.307   9.475  0.0017 -0.6968  0.6151
  166SOPE  H12S18686   5.458   5.161   9.375 -1.2792  0.1482  2.3675
  166SOPE  C21318687   5.533   5.345   9.291 -0.4869 -0.1893  0.9305
  166SOPE  H13R18688   5.569   5.448   9.310  0.2220 -0.3799  0.6684
  166SOPE  H13S18689   5.434   5.343   9.240  1.0626 -1.1763 -2.3448
  166SOPE  C21418690   5.633   5.285   9.186  0.6668 -0.8413 -0.7751
  166SOPE  H14R18691   5.723   5.262   9.247  0.9533  3.0819  0.5756
  166SOPE  H14S18692   5.670   5.369   9.122  0.0927 -0.2431 -0.3377
  166SOPE  C21518693   5.569   5.171   9.110  0.2313  0.0921 -0.2808
  166SOPE  H15R18694   5.485   5.212   9.050 -0.7542 -0.6878  0.5283
  166SOPE  H15S18695   5.525   5.093   9.175 -1.1621  0.0461 -1.2242
  166SOPE  C21618696   5.655   5.080   9.015 -0.3533 -0.0604  0.3485
  166SOPE  H16R18697   5.726   5.129   8.946 -0.0507 -0.3390  0.4593
  166SOPE  H16S18698   5.587   5.025   8.946 -2.2774  1.2012  1.1454
  166SOPE  C21718699   5.738   4.976   9.091 -0.2428 -0.2575  0.2849
  166SOPE  H17R18700   5.662   4.928   9.155 -1.3564 -0.1935 -0.9562
  166SOPE  H17S18701   5.806   5.041   9.150  0.6885  2.0513 -2.9971
  166SOPE  C21818702   5.813   4.876   9.010 -0.7969  0.0364  0.1578
  166SOPE  H18R18703   5.863   4.918   8.921  0.7745 -1.4451  0.2811
  166SOPE  H18S18704   5.740   4.802   8.971  1.5081 -3.4567  1.9442
  166SOPE  H18T18705   5.892   4.824   9.069 -0.6306 -0.3077 -0.3669
  166SOPE   C3318706   6.203   4.954  10.360  0.3141  0.3294  0.7987
  166SOPE   H3X18707   6.227   5.014  10.270  1.8146 -1.0900  0.1969
  166SOPE   H3Y18708   6.094   4.961  10.380  0.2199 -2.1674  1.5051
  166SOPE   C3418709   6.243   4.823  10.318 -1.3061  0.7465  0.1182
  166SOPE   H4X18710   6.254   4.751  10.402  0.5458 -1.3324 -1.7765
  166SOPE   H4Y18711   6.337   4.824  10.259 -1.1687  2.7244  0.3010
  166SOPE   C3518712   6.128   4.765  10.224 -0.9724 -0.2790 -0.2029
  166SOPE   H5X18713   6.104   4.835  10.142  1.6658 -0.2850 -1.0605
  166SOPE   H5Y18714   6.038   4.732  10.281 -0.2828 -1.4809  0.2261
  166SOPE   C3618715   6.184   4.653  10.137 -0.1426  0.9320 -0.8768
  166SOPE   H6X18716   6.164   4.553  10.181 -0.0039  0.5363 -1.7025
  166SOPE   H6Y18717   6.295   4.658  10.124 -0.2680 -0.7504 -3.3327
  166SOPE   C3718718   6.132   4.658   9.993 -0.0167 -0.3479 -0.0311
  166SOPE   H7X18719   6.143   4.754   9.938  0.4516 -1.0115 -1.1236
  166SOPE   H7Y18720   6.022   4.640  10.000  0.0877 -0.2944  2.2548
  166SOPE   C3818721   6.195   4.552   9.904  0.0717  0.2086 -0.1975
  166SOPE   H8X18722   6.111   4.485   9.880  1.2516 -1.0388 -0.9916
  166SOPE   H8Y18723   6.275   4.493   9.955 -1.2700  0.3909  2.2764
  166SOPE   C3918724   6.238   4.614   9.767  0.1806 -0.4380 -0.7191
  166SOPE   H9X18725   6.294   4.706   9.793  2.9894 -2.4126  0.7660
  166SOPE   H9Y18726   6.152   4.630   9.699  0.9724  0.8091 -1.4607
  166SOPE  C31018727   6.350   4.531   9.701  0.6128  0.1016 -0.2941
  166SOPE  H10X18728   6.306   4.441   9.654 -0.7735  1.0558 -0.8973
  166SOPE  H10Y18729   6.424   4.492   9.775 -0.5368 -1.7678 -0.0778
  166SOPE  C31118730   6.431   4.615   9.594  0.7608  0.6166 -0.8193
  166SOPE  H11X18731   6.479   4.705   9.639  1.2355  0.9709 -2.0135
  166SOPE  H11Y18732   6.359   4.635   9.512 -2.1533 -1.7080  0.9587
  166SOPE  C31218733   6.545   4.533   9.528 -0.4270  0.4753 -0.6412
  166SOPE  H12X18734   6.492   4.455   9.469 -0.3943  1.9213 -2.6845
  166SOPE  H12Y18735   6.604   4.476   9.603  1.1177 -0.6211 -2.5747
  166SOPE  C31318736   6.638   4.628   9.456  0.2206  0.3178 -0.1878
  166SOPE  H13X18737   6.731   4.570   9.440  0.0457  0.2471 -0.9850
  166SOPE  H13Y18738   6.657   4.723   9.510 -1.1888 -0.1945  1.2908
  166SOPE  C31418739   6.588   4.663   9.311  0.3532 -0.1660  0.0414
  166SOPE  H14X18740   6.501   4.732   9.323  1.1623  0.9886 -0.5318
  166SOPE  H14Y18741   6.556   4.576   9.249  2.1161 -0.2037 -0.8769
  166SOPE  C31518742   6.705   4.725   9.227  0.0295  0.2926 -0.0206
  166SOPE  H15X18743   6.775   4.640   9.210 -0.8586 -0.1231 -1.8296
  166SOPE  H15Y18744   6.762   4.794   9.294  0.1037  1.2098 -1.0082
  166SOPE  C31618745   6.664   4.795   9.099 -0.3333 -0.5420 -0.7150
  166SOPE  H16X18746   6.754   4.837   9.050  1.2772 -1.8433  0.9868
  166SOPE  H16Y18747   6.583   4.867   9.125 -1.7479 -1.0527 -3.3349
  166SOPE  C31718748   6.604   4.688   8.996 -0.1906 -0.4030  0.1667
  166SOPE  H17X18749   6.513   4.638   9.035  0.4295 -0.8397  1.0782
  166SOPE  H17Y18750   6.678   4.610   8.969 -0.3979 -0.4832 -0.1758
  166SOPE  C31818751   6.571   4.744   8.856  0.5116  0.0847  0.9470
  166SOPE  H18X18752   6.662   4.795   8.817  0.7754 -1.0992 -0.0378
  166SOPE  H18Y18753   6.492   4.822   8.862  0.7748  0.2609  2.4440
  166SOPE  H18Z18754   6.534   4.672   8.781 -0.8008  2.4687 -0.8297
  167SOPE     N18755   2.751   4.088   6.210 -0.1030 -0.2685 -0.0956
  167SOPE   HN118756   2.691   4.008   6.179  0.9465 -0.4336 -1.8275
  167SOPE   HN218757   2.714   4.152   6.283 -0.8835  1.3121 -1.7877
  167SOPE   HN318758   2.766   4.147   6.126 -1.6087 -1.0544 -0.9726
  167SOPE   C1218759   2.881   4.045   6.265 -0.4128  0.2571  0.9022
  167SOPE  H12A18760   2.932   3.985   6.187  0.6921  2.5642 -0.2605
  167SOPE  H12B18761   2.862   3.990   6.359  0.0715 -1.6570 -0.0810
  167SOPE   C1118762   2.968   4.172   6.295 -0.3335 -0.7498  0.4145
  167SOPE  H11A18763   3.066   4.139   6.335 -0.5609 -0.6256  1.0954
  167SOPE  H11B18764   2.936   4.234   6.382  0.0649 -2.1771  1.6256
  167SOPE     P18765   3.011   4.392   6.160 -0.0315 -0.2890 -0.1047
  167SOPE   O1318766   2.877   4.454   6.170 -0.3625 -0.3339  0.3279
  167SOPE   O1418767   3.078   4.422   6.037  0.3841 -0.6281  0.5240
  167SOPE   O1218768   3.009   4.242   6.175 -0.1887 -0.2172 -0.0125
  167SOPE   O1118769   3.103   4.434   6.287  0.4037  0.0585 -0.8589
  167SOPE    C118770   3.117   4.571   6.325 -0.1050 -0.2077 -0.1097
  167SOPE    HA18771   3.018   4.609   6.357 -0.5885 -0.1682 -1.5498
  167SOPE    HB18772   3.149   4.635   6.240 -0.3731 -0.6167 -0.5311
  167SOPE    C218773   3.209   4.596   6.445  1.1038 -0.7057 -0.9361
  167SOPE    HS18774   3.311   4.571   6.407  0.5470  0.2124 -3.2162
  167SOPE   O2118775   3.158   4.528   6.559 -0.3733  0.3715 -0.3738
  167SOPE   C2118776   3.246   4.511   6.662 -0.9629 -0.2538  0.0369
  167SOPE   O2218777   3.366   4.522   6.647  0.1583 -0.1474 -0.5411
  167SOPE   C2218778   3.172   4.485   6.792  0.5024 -0.0937  0.0944
  167SOPE   H2R18779   3.166   4.374   6.790 -0.4398 -0.1230  1.9311
  167SOPE   H2S18780   3.069   4.522   6.776 -0.0967 -1.3367  0.9057
  167SOPE    C318781   3.211   4.744   6.480  0.1092  0.3507  1.0639
  167SOPE    HX18782   3.114   4.773   6.526 -0.5751 -0.3082  0.0649
  167SOPE    HY18783   3.219   4.804   6.387 -0.1407 -2.4374 -0.8613
  167SOPE   O3118784   3.306   4.783   6.578 -0.4580 -0.2281  0.0909
  167SOPE   C3118785   3.426   4.814   6.525  0.3844  0.0027 -0.4623
  167SOPE   O3218786   3.464   4.792   6.414 -0.4218  0.0948  0.5685
  167SOPE   C3218787   3.504   4.883   6.637  0.2652 -0.7191  1.1108
  167SOPE   H2X18788   3.452   4.886   6.736 -1.0178  0.3394  0.4305
  167SOPE   H2Y18789   3.512   4.988   6.602  0.4611 -0.2070  2.5889
  167SOPE   C2318790   3.234   4.541   6.922  0.1921  0.5133 -0.2622
  167SOPE   H3R18791   3.248   4.651   6.924 -1.0681  0.6712  0.9281
  167SOPE   H3S18792   3.327   4.485   6.947 -0.6549 -0.1449  1.5713
  167SOPE   C2418793   3.151   4.501   7.045 -0.5461 -0.0992  0.0197
  167SOPE   H4R18794   3.042   4.517   7.037 -0.5754 -0.4632 -0.3661
  167SOPE   H4S18795   3.157   4.391   7.065 -0.1009 -0.2988 -1.1248
  167SOPE   C2518796   3.209   4.585   7.160  0.4852  0.3238 -0.3634
  167SOPE   H5R18797   3.310   4.539   7.170  0.4917  0.7027  2.0046
  167SOPE   H5S18798   3.216   4.689   7.122  0.3418  0.2313 -0.6403
  167SOPE   C2618799   3.118   4.586   7.286  0.1618 -1.0153  0.3103
  167SOPE   H6R18800   3.017   4.628   7.266  0.1707 -0.5704  1.1292
  167SOPE   H6S18801   3.112   4.484   7.331 -1.2330 -0.9415  0.3413
  167SOPE   C2718802   3.182   4.665   7.392  0.1427 -0.9443 -0.4085
  167SOPE   H7R18803   3.272   4.617   7.437  0.7414 -0.4702 -1.0842
  167SOPE   H7S18804   3.222   4.757   7.344  0.3644 -1.6811 -1.6767
  167SOPE   C2818805   3.082   4.710   7.507 -0.5439 -0.4559  0.5681
  167SOPE   H8R18806   3.135   4.781   7.574 -0.4616 -1.5124  1.6708
  167SOPE   H8S18807   3.004   4.772   7.459  0.4228  0.2715 -0.1038
  167SOPE   C2918808   3.018   4.600   7.596  0.1158 -0.2621  0.1796
  167SOPE   H9118809   2.951   4.532   7.543 -0.5310  0.1110  0.5038
  167SOPE  C21018810   3.037   4.584   7.727  1.0095 -0.2610  0.3074
  167SOPE  H10118811   2.984   4.499   7.772 -1.5258  0.5714 -0.9101
  167SOPE  C21118812   3.123   4.659   7.815  0.0368  0.0882 -0.1407
  167SOPE  H11R18813   3.212   4.693   7.757  0.4414 -1.4831 -0.4904
  167SOPE  H11S18814   3.164   4.583   7.884 -0.6254 -2.1415 -2.0665
  167SOPE  C21218815   3.063   4.773   7.901  0.5225 -0.2786 -0.6232
  167SOPE  H12R18816   2.977   4.739   7.964  0.4404  0.3568 -0.3738
  167SOPE  H12S18817   3.040   4.860   7.835 -0.1763  0.2526  0.2762
  167SOPE  C21318818   3.156   4.814   8.012  0.6905  0.2317 -0.4185
  167SOPE  H13R18819   3.263   4.826   7.984  0.7469  0.4656 -0.1065
  167SOPE  H13S18820   3.160   4.743   8.097  1.5932 -0.0245 -0.6704
  167SOPE  C21418821   3.133   4.960   8.063  0.2060  0.1596 -0.2091
  167SOPE  H14R18822   3.192   5.020   7.991  1.3070 -1.8538 -1.0625
  167SOPE  H14S18823   3.188   4.971   8.159  0.3340  0.9028 -0.3631
  167SOPE  C21518824   2.992   4.996   8.100 -0.4680 -0.0825 -0.2680
  167SOPE  H15R18825   2.958   4.918   8.172  4.8027 -2.5898 -0.0618
  167SOPE  H15S18826   2.923   4.995   8.013 -3.4304 -1.3269  1.9079
  167SOPE  C21618827   2.985   5.137   8.153  0.1462  0.3441  0.0777
  167SOPE  H16R18828   3.049   5.208   8.097 -0.6901  1.1060  0.0597
  167SOPE  H16S18829   3.014   5.127   8.260  2.6171  0.8840 -0.4758
  167SOPE  C21718830   2.842   5.197   8.160 -0.1261 -0.3028  0.2914
  167SOPE  H17R18831   2.777   5.130   8.221  0.3496 -0.3503  0.7482
  167SOPE  H17S18832   2.819   5.200   8.051 -0.9488 -0.0316  0.4671
  167SOPE  C21818833   2.853   5.336   8.214  0.8518 -0.1164 -0.3730
  167SOPE  H18R18834   2.750   5.376   8.222  1.0548  0.0150  3.2013
  167SOPE  H18S18835   2.930   5.396   8.161  0.1471  1.2391  0.0929
  167SOPE  H18T18836   2.898   5.332   8.316 -1.7914  0.3572  0.9020
  167SOPE   C3318837   3.652   4.842   6.658  0.0702  0.3943  0.1899
  167SOPE   H3X18838   3.694   4.906   6.738  0.9003  0.6489 -0.4377
  167SOPE   H3Y18839   3.706   4.857   6.562  1.4026  1.1743  1.0295
  167SOPE   C3418840   3.660   4.691   6.697 -0.0716 -0.2393  0.1128
  167SOPE   H4X18841   3.767   4.664   6.704 -0.2419 -0.5761  1.6686
  167SOPE   H4Y18842   3.606   4.617   6.634 -1.7797 -0.0861  1.3255
  167SOPE   C3518843   3.595   4.653   6.829 -0.0676 -0.0702 -0.5179
  167SOPE   H5X18844   3.610   4.545   6.852  2.8452  0.6260  1.3806
  167SOPE   H5Y18845   3.487   4.680   6.838 -0.2271 -0.8376  0.0393
  167SOPE   C3618846   3.663   4.722   6.956 -0.4394  0.2540  0.1578
  167SOPE   H6X18847   3.631   4.829   6.955  1.8681  0.9858 -0.7138
  167SOPE   H6Y18848   3.772   4.724   6.937 -0.4521  0.6993  0.1221
  167SOPE   C3718849   3.630   4.659   7.094 -0.3859 -0.7060 -0.1392
  167SOPE   H7X18850   3.689   4.567   7.114 -2.1833 -2.1651 -1.2263
  167SOPE   H7Y18851   3.520   4.647   7.091 -0.6702  1.4273 -0.1289
  167SOPE   C3818852   3.647   4.761   7.210 -0.0328 -0.2160  0.2674
  167SOPE   H8X18853   3.616   4.865   7.187  1.7092  0.0326 -1.2906
  167SOPE   H8Y18854   3.756   4.783   7.214 -0.1581  0.6416 -0.6389
  167SOPE   C3918855   3.587   4.716   7.337 -0.6336 -0.5015 -0.1497
  167SOPE   H9X18856   3.588   4.605   7.348  0.3051 -0.6928 -1.8137
  167SOPE   H9Y18857   3.478   4.736   7.327 -1.0932 -2.1130  1.1188
  167SOPE  C31018858   3.647   4.778   7.459  0.2351 -0.0149 -0.1266
  167SOPE  H10X18859   3.674   4.884   7.436  1.4993 -0.6229 -1.5921
  167SOPE  H10Y18860   3.746   4.730   7.474 -0.4627 -1.6067 -0.4640
  167SOPE  C31118861   3.565   4.778   7.582  0.1206  0.1227  0.3216
  167SOPE  H11X18862   3.544   4.678   7.627 -0.1984 -0.3734 -0.9116
  167SOPE  H11Y18863   3.465   4.823   7.568  2.0082  3.9880 -2.3626
  167SOPE  C31218864   3.632   4.857   7.690 -0.2864  0.6440  0.1896
  167SOPE  H12X18865   3.671   4.951   7.647  1.3809 -0.0156  0.1726
  167SOPE  H12Y18866   3.727   4.816   7.730  0.3719  1.0981 -0.8991
  167SOPE  C31318867   3.540   4.864   7.811 -0.0740 -0.6017 -0.7547
  167SOPE  H13X18868   3.537   4.766   7.862 -1.0208 -0.6121 -0.8127
  167SOPE  H13Y18869   3.440   4.904   7.785 -0.1210 -0.6073 -0.5841
  167SOPE  C31418870   3.591   4.966   7.911 -0.3930  0.2398  0.2809
  167SOPE  H14X18871   3.613   5.063   7.861 -0.0004  0.1750  0.3224
  167SOPE  H14Y18872   3.698   4.938   7.923  0.1778  0.3899 -3.3702
  167SOPE  C31518873   3.538   4.961   8.049  0.1555 -0.7838  0.0165
  167SOPE  H15X18874   3.427   4.968   8.043  0.2589 -0.2284 -2.5992
  167SOPE  H15Y18875   3.567   5.057   8.096  0.0302 -0.5436 -0.3834
  167SOPE  C31618876   3.600   4.848   8.132 -0.1118  0.3120  0.2759
  167SOPE  H16X18877   3.708   4.832   8.109 -0.0195 -0.6450  1.3080
  167SOPE  H16Y18878   3.551   4.755   8.096 -0.4024  0.6855 -0.3173
  167SOPE  C31718879   3.566   4.858   8.283 -0.1115  0.0881 -0.5352
  167SOPE  H17X18880   3.604   4.955   8.322  0.1380 -0.5996  0.9839
  167SOPE  H17Y18881   3.620   4.779   8.339 -1.1211  0.5445  1.1689
  167SOPE  C31818882   3.417   4.845   8.313  0.0002 -0.2714  0.1082
  167SOPE  H18X18883   3.383   4.750   8.266  0.3196 -0.3644  0.0582
  167SOPE  H18Y18884   3.365   4.931   8.267 -0.5354 -1.4110 -1.5091
  167SOPE  H18Z18885   3.397   4.848   8.422  1.8210 -2.3456  0.5791
  168SOPE     N18886   1.275   0.397   6.278  0.2578 -0.2276 -0.7551
  168SOPE   HN118887   1.211   0.479   6.270  1.6279  1.2919  2.3330
  168SOPE   HN218888   1.367   0.423   6.237  1.1734 -2.2380 -0.1181
  168SOPE   HN318889   1.233   0.314   6.233  1.0443 -2.1891  1.9141
  168SOPE   C1218890   1.307   0.381   6.424 -0.8197  0.2290 -0.2501
  168SOPE  H12A18891   1.326   0.485   6.459 -0.5660  0.1570 -0.1669
  168SOPE  H12B18892   1.394   0.311   6.433  0.7518  2.2747  1.7853
  168SOPE   C1118893   1.181   0.321   6.500  0.0551 -0.0880  0.9862
  168SOPE  H11A18894   1.108   0.405   6.494  0.0653 -0.1563 -0.2272
  168SOPE  H11B18895   1.210   0.302   6.606  0.3181 -0.5775  0.8285
  168SOPE     P18896   1.067   0.085   6.495  0.2197  0.2753 -0.1290
  168SOPE   O1318897   1.157  -0.027   6.476 -0.2569 -0.0048  0.2110
  168SOPE   O1418898   0.928   0.062   6.443 -0.3870 -0.2508  0.5184
  168SOPE   O1218899   1.124   0.220   6.433  0.2279  0.1918 -0.0599
  168SOPE   O1118900   1.060   0.111   6.649  0.1053 -0.0855  0.1882
  168SOPE    C118901   0.964   0.198   6.702 -0.4298 -0.0848 -0.4444
  168SOPE    HA18902   0.861   0.159   6.687 -0.4258 -0.6893  0.8837
  168SOPE    HB18903   0.982   0.299   6.659 -2.2615  0.2588 -0.4670
  168SOPE    C218904   0.990   0.211   6.860  0.1037  1.3471  0.2359
  168SOPE    HS18905   0.947   0.306   6.899  1.6060  1.8881  0.6450
  168SOPE   O2118906   1.130   0.210   6.888  0.0144 -0.0750 -0.1904
  168SOPE   C2118907   1.199   0.324   6.869  0.9589  0.7090 -0.6320
  168SOPE   O2218908   1.143   0.428   6.833 -0.7964 -0.2906 -0.0987
  168SOPE   C2218909   1.340   0.291   6.895 -0.2635  0.0156 -0.0276
  168SOPE   H2R18910   1.382   0.250   6.800 -2.0405 -0.5001 -0.6301
  168SOPE   H2S18911   1.347   0.208   6.969  0.2420 -1.0452 -1.2108
  168SOPE    C318912   0.921   0.086   6.932 -0.3718 -0.2836  1.1509
  168SOPE    HX18913   0.973  -0.002   6.889 -1.1055  0.2401 -0.9114
  168SOPE    HY18914   0.816   0.089   6.895  0.4714  1.2200 -1.3400
  168SOPE   O3118915   0.932   0.083   7.071  0.2723  0.2892  0.4561
  168SOPE   C3118916   0.858   0.176   7.135 -1.1630 -0.1705  0.3389
  168SOPE   O3218917   0.777   0.243   7.078 -0.0408  0.3356 -0.0253
  168SOPE   C3218918   0.898   0.170   7.284 -0.5628  0.5793 -0.6073
  168SOPE   H2X18919   0.991   0.109   7.293 -1.0310 -0.3299 -1.7097
  168SOPE   H2Y18920   0.813   0.118   7.332 -0.9308  0.3460 -1.4982
  168SOPE   C2318921   1.415   0.418   6.937 -0.6848  0.8254 -0.2701
  168SOPE   H3R18922   1.412   0.490   6.853 -0.7043  0.3904 -0.6414
  168SOPE   H3S18923   1.518   0.392   6.967 -0.4023  2.2942  0.1337
  168SOPE   C2418924   1.365   0.479   7.069 -0.3059  0.0583  0.8416
  168SOPE   H4R18925   1.407   0.581   7.075  0.3099 -0.0158 -1.3926
  168SOPE   H4S18926   1.254   0.489   7.077 -0.2106  0.4759  1.8726
  168SOPE   C2518927   1.405   0.413   7.205  0.8322  0.7104  0.6757
  168SOPE   H5R18928   1.363   0.310   7.205 -2.7105  1.9520 -1.7765
  168SOPE   H5S18929   1.516   0.401   7.198  0.7188 -1.5544  1.9127
  168SOPE   C2618930   1.359   0.490   7.327  0.6774 -0.1156 -0.1063
  168SOPE   H6R18931   1.391   0.596   7.317  1.1944 -0.2629 -0.0248
  168SOPE   H6S18932   1.248   0.477   7.332  0.4225  1.9461  0.6064
  168SOPE   C2718933   1.428   0.440   7.456 -1.5662 -0.4620  1.0658
  168SOPE   H7R18934   1.415   0.330   7.462 -0.8506 -0.7287 -1.3284
  168SOPE   H7S18935   1.535   0.467   7.439 -2.4589  4.1061  1.4279
  168SOPE   C2818936   1.383   0.520   7.575 -0.0720  0.1230 -0.0050
  168SOPE   H8R18937   1.405   0.625   7.544  1.5795  0.0604  0.8434
  168SOPE   H8S18938   1.274   0.503   7.588 -0.2738  0.9192 -0.5633
  168SOPE   C2918939   1.459   0.496   7.701 -0.6388 -0.0943  0.6248
  168SOPE   H9118940   1.563   0.511   7.668 -1.4732 -0.4831 -2.4863
  168SOPE  C21018941   1.413   0.460   7.822  0.3544  0.1711  0.6675
  168SOPE  H10118942   1.480   0.448   7.908  0.9691 -1.3624  0.0180
  168SOPE  C21118943   1.268   0.421   7.848  0.1307  0.1424  0.2039
  168SOPE  H11R18944   1.265   0.311   7.862  4.2851 -0.0444  0.9335
  168SOPE  H11S18945   1.200   0.459   7.768  0.8073  0.8689 -0.0421
  168SOPE  C21218946   1.214   0.488   7.974 -0.3001  0.0579 -0.5377
  168SOPE  H12R18947   1.103   0.480   7.968 -0.2642 -0.3069 -0.7644
  168SOPE  H12S18948   1.248   0.594   7.975  0.6886 -0.2387  0.8574
  168SOPE  C21318949   1.261   0.414   8.099  0.6816 -0.0643 -0.2623
  168SOPE  H13R18950   1.369   0.432   8.118  0.9802  0.6586 -2.2957
  168SOPE  H13S18951   1.246   0.305   8.086  0.0526  0.0646 -0.7078
  168SOPE  C21418952   1.187   0.464   8.222  0.0786  0.1137  0.4593
  168SOPE  H14R18953   1.078   0.448   8.207 -0.0963  0.1729  1.5906
  168SOPE  H14S18954   1.202   0.574   8.230  1.1744 -0.1100  1.6888
  168SOPE  C21518955   1.234   0.402   8.360  0.4332  0.3120 -0.1556
  168SOPE  H15R18956   1.344   0.399   8.375  0.2608  2.3898  2.1223
  168SOPE  H15S18957   1.199   0.299   8.342  0.5363  0.4980 -1.5741
  168SOPE  C21618958   1.172   0.464   8.488 -0.2710 -0.1525  0.6594
  168SOPE  H16R18959   1.062   0.474   8.476 -0.5812 -2.6687  0.7571
  168SOPE  H16S18960   1.229   0.557   8.506  1.0395 -0.7109 -0.3728
  168SOPE  C21718961   1.201   0.381   8.616  0.4715 -0.7169 -0.1142
  168SOPE  H17R18962   1.309   0.372   8.642  0.8848 -3.0675 -2.2318
  168SOPE  H17S18963   1.156   0.280   8.600 -0.6289  0.1659 -3.3783
  168SOPE  C21818964   1.117   0.446   8.733 -0.1390  0.9834  0.5151
  168SOPE  H18R18965   1.108   0.389   8.827  0.2433  1.3746  0.7923
  168SOPE  H18S18966   1.012   0.461   8.698 -0.4125  1.9793  1.6853
  168SOPE  H18T18967   1.148   0.551   8.754  0.2982  0.6430  1.6233
  168SOPE   C3318968   0.924   0.311   7.338 -0.5876  0.2558  0.2101
  168SOPE   H3X18969   0.827   0.365   7.340  0.0361  1.4694 -0.8665
  168SOPE   H3Y18970   0.990   0.367   7.268 -0.0083  0.3760  0.8435
  168SOPE   C3418971   0.988   0.325   7.478 -0.0641  0.0316 -0.5134
  168SOPE   H4X18972   0.996   0.433   7.506 -3.1770  0.4655 -0.8412
  168SOPE   H4Y18973   1.095   0.299   7.468  0.0002 -1.3759  2.6182
  168SOPE   C3518974   0.919   0.243   7.583  0.2507 -0.2534  0.2493
  168SOPE   H5X18975   0.941   0.136   7.567 -1.4879 -0.5508 -0.4056
  168SOPE   H5Y18976   0.810   0.267   7.577  0.2952 -0.4732 -3.8342
  168SOPE   C3618977   0.977   0.267   7.725  0.6269 -0.5208  0.6189
  168SOPE   H6X18978   0.956   0.374   7.744 -3.2904 -1.0966  0.3648
  168SOPE   H6Y18979   1.085   0.243   7.717  0.3706 -1.2319 -1.2383
  168SOPE   C3718980   0.922   0.166   7.828  0.0339 -0.2063 -0.7110
  168SOPE   H7X18981   0.966   0.068   7.801  1.4549  0.3301 -0.4815
  168SOPE   H7Y18982   0.814   0.148   7.816 -0.8188  3.0454  0.9693
  168SOPE   C3818983   0.972   0.203   7.972  0.5329 -0.2407 -0.4763
  168SOPE   H8X18984   0.935   0.304   7.999 -1.3423 -0.4251 -2.1089
  168SOPE   H8Y18985   1.083   0.205   7.970  0.5356  0.6802 -0.0988
  168SOPE   C3918986   0.936   0.097   8.080  0.4159  0.1409 -0.1761
  168SOPE   H9X18987   0.994   0.002   8.070  0.9347  0.4118  0.1936
  168SOPE   H9Y18988   0.828   0.072   8.072  0.3024 -0.1804  1.8889
  168SOPE  C31018989   0.965   0.155   8.221  0.4559  0.0138 -0.6715
  168SOPE  H10X18990   0.924   0.258   8.227  0.9272  0.1374  0.6189
  168SOPE  H10Y18991   1.075   0.160   8.225  0.5251  0.5491 -2.3183
  168SOPE  C31118992   0.907   0.078   8.344  0.5482 -0.6537 -0.5002
  168SOPE  H11X18993   0.956  -0.021   8.352 -1.5275 -1.5930  2.0807
  168SOPE  H11Y18994   0.797   0.073   8.327  0.5096  3.0389 -2.4294
  168SOPE  C31218995   0.956   0.138   8.475 -0.0845 -0.1703 -0.8235
  168SOPE  H12X18996   0.920   0.242   8.489 -0.6430 -0.5329  0.6654
  168SOPE  H12Y18997   1.065   0.154   8.472 -0.2335  0.9698 -0.4847
  168SOPE  C31318998   0.916   0.054   8.601 -0.0383 -0.2052 -0.3000
  168SOPE  H13X18999   0.934   0.120   8.689  1.6192 -0.3878 -0.4761
  168SOPE  H13Y19000   0.978  -0.036   8.617 -0.0486 -0.3287 -0.9217
  168SOPE  C31419001   0.765   0.026   8.616  0.1330  0.4877  0.4689
  168SOPE  H14X19002   0.718  -0.025   8.529 -2.2151 -0.9617  2.4619
  168SOPE  H14Y19003   0.713   0.124   8.626  0.1854  0.3361  2.7420
  168SOPE  C31519004   0.720  -0.058   8.735  0.4365 -0.0656 -0.2552
  168SOPE  H15X19005   0.708   0.007   8.824  0.6876 -0.1673 -0.1460
  168SOPE  H15Y19006   0.806  -0.127   8.755 -0.2033 -0.8391 -0.1175
  168SOPE  C31619007   0.588  -0.119   8.722 -0.2339  0.5172 -0.2168
  168SOPE  H16X19008   0.591  -0.159   8.618  0.2101  2.0649 -0.8318
  168SOPE  H16Y19009   0.526  -0.027   8.719 -0.8975  0.1391  1.3028
  168SOPE  C31719010   0.567  -0.224   8.829  0.6007 -0.6274 -0.0868
  168SOPE  H17X19011   0.576  -0.165   8.922  1.0175  1.7760 -1.5635
  168SOPE  H17Y19012   0.649  -0.299   8.837  1.9983  0.5766 -2.2988
  168SOPE  C31819013   0.429  -0.301   8.813  0.0207  0.2833  0.2918
  168SOPE  H18X19014   0.406  -0.332   8.709  0.5627  1.5621 -0.2228
  168SOPE  H18Y19015   0.345  -0.238   8.850 -0.2503  0.1407 -0.0734
  168SOPE  H18Z19016   0.435  -0.389   8.882  0.6408 -0.0691 -0.2034
  169SOPE     N19017   4.278   2.763   6.484  0.2380 -0.3904  0.2376
  169SOPE   HN119018   4.350   2.719   6.544  1.7224 -0.2999 -1.4131
  169SOPE   HN219019   4.326   2.853   6.467  2.7854 -1.1780  2.5750
  169SOPE   HN319020   4.198   2.767   6.551 -1.5967 -0.8785 -1.8048
  169SOPE   C1219021   4.253   2.678   6.365  0.7305 -0.3923  0.3135
  169SOPE  H12A19022   4.210   2.740   6.284  0.1354 -1.4705 -0.2199
  169SOPE  H12B19023   4.174   2.606   6.396  0.5727 -0.7357 -0.8194
  169SOPE   C1119024   4.393   2.627   6.322  0.0301 -0.0585  0.1406
  169SOPE  H11A19025   4.460   2.715   6.321 -0.0178 -0.0149  0.7366
  169SOPE  H11B19026   4.371   2.594   6.218 -0.8327  0.3916  0.1704
  169SOPE     P19027   4.409   2.377   6.374  0.4451  0.2820 -0.5099
  169SOPE   O1319028   4.516   2.344   6.278  0.6495  0.1656  0.4215
  169SOPE   O1419029   4.269   2.335   6.337  0.4022 -0.8035  0.5184
  169SOPE   O1219030   4.426   2.526   6.418  0.0485  0.0255 -0.4589
  169SOPE   O1119031   4.448   2.312   6.508 -0.4572  0.4256  0.0835
  169SOPE    C119032   4.367   2.211   6.574 -0.0403 -0.0709 -0.2784
  169SOPE    HA19033   4.433   2.167   6.653  0.4172 -1.2026 -1.2653
  169SOPE    HB19034   4.340   2.128   6.506  0.8900 -0.3224 -0.3548
  169SOPE    C219035   4.236   2.262   6.653 -0.1857  0.4038 -0.3770
  169SOPE    HS19036   4.174   2.306   6.572 -1.1726 -2.1840 -1.1469
  169SOPE   O2119037   4.276   2.348   6.759  0.3574  0.3720  0.6875
  169SOPE   C2119038   4.222   2.468   6.748 -0.4347 -0.3219 -0.0389
  169SOPE   O2219039   4.145   2.503   6.660 -0.1997  0.6033 -0.0995
  169SOPE   C2219040   4.257   2.555   6.864  0.3806 -0.1325  0.3992
  169SOPE   H2R19041   4.207   2.653   6.853 -1.4724 -0.9227  1.4534
  169SOPE   H2S19042   4.366   2.575   6.861  0.5730 -0.2459  3.4097
  169SOPE    C319043   4.164   2.144   6.723 -0.1169  0.3333  0.1783
  169SOPE    HX19044   4.234   2.069   6.766 -1.1783 -0.4615  0.5717
  169SOPE    HY19045   4.123   2.089   6.635  1.2336  1.6159 -1.3299
  169SOPE   O3119046   4.059   2.177   6.815  0.1050 -0.9579 -0.3649
  169SOPE   C3119047   4.057   2.118   6.938 -0.6905  0.0622 -0.5807
  169SOPE   O3219048   4.141   2.038   6.980 -0.2516 -0.0096  0.7439
  169SOPE   C3219049   3.921   2.158   7.012 -0.6389 -0.1068 -0.1849
  169SOPE   H2X19050   3.842   2.133   6.938 -3.5919  0.5336  2.5335
  169SOPE   H2Y19051   3.917   2.267   7.035 -1.5604  0.4038 -2.4894
  169SOPE   C2319052   4.211   2.486   6.998  0.2653  0.3643 -0.4049
  169SOPE   H3R19053   4.274   2.398   7.024 -0.8018 -0.4335 -0.4355
  169SOPE   H3S19054   4.117   2.432   6.973 -0.3544  0.4042  1.7018
  169SOPE   C2419055   4.176   2.583   7.107 -0.1123  0.2801 -0.3454
  169SOPE   H4R19056   4.265   2.628   7.156 -0.1321  0.6935 -0.6829
  169SOPE   H4S19057   4.119   2.671   7.069  0.2426  0.4230 -0.5529
  169SOPE   C2519058   4.099   2.517   7.222 -0.2652 -0.7707  0.0244
  169SOPE   H5R19059   4.005   2.477   7.179 -0.6135  0.0113  0.0329
  169SOPE   H5S19060   4.167   2.443   7.268  1.1458  0.8720  0.6959
  169SOPE   C2619061   4.055   2.625   7.327  0.2214 -0.1966 -0.0296
  169SOPE   H6R19062   4.120   2.714   7.339 -1.6946  1.2781 -0.0757
  169SOPE   H6S19063   3.965   2.663   7.274  0.3284 -0.0778 -0.1289
  169SOPE   C2719064   4.007   2.569   7.455  0.0406 -0.2228  0.6773
  169SOPE   H7R19065   3.941   2.484   7.427 -1.1925  1.0742 -0.5387
  169SOPE   H7S19066   4.095   2.532   7.512  0.2383  1.6502  1.6699
  169SOPE   C2819067   3.932   2.672   7.540  0.3113 -0.2945 -0.2832
  169SOPE   H8R19068   4.004   2.748   7.578 -0.2260 -0.6352  1.5289
  169SOPE   H8S19069   3.857   2.726   7.479  0.4840 -1.3056 -1.4358
  169SOPE   C2919070   3.857   2.604   7.659  0.4942 -0.0666  0.1763
  169SOPE   H9119071   3.756   2.566   7.637  0.9139 -0.7519 -0.5891
  169SOPE  C21019072   3.905   2.589   7.783 -0.6368  0.4356  0.1746
  169SOPE  H10119073   3.841   2.543   7.860  2.3318  0.9831  3.2146
  169SOPE  C21119074   4.042   2.625   7.840 -0.6633  0.0816 -0.0616
  169SOPE  H11R19075   4.092   2.671   7.753  2.2430  0.8982  1.8901
  169SOPE  H11S19076   4.097   2.531   7.862 -1.2109 -0.9627 -2.7351
  169SOPE  C21219077   4.048   2.719   7.964 -0.0471  0.1988 -0.5139
  169SOPE  H12R19078   3.997   2.817   7.949  2.0717  1.5136  0.3780
  169SOPE  H12S19079   4.156   2.739   7.981  0.3146 -2.7761  1.4126
  169SOPE  C21319080   4.005   2.655   8.096 -0.0224 -0.3905 -1.0035
  169SOPE  H13R19081   4.062   2.560   8.101 -1.2096 -1.0521  1.9484
  169SOPE  H13S19082   3.895   2.637   8.094 -0.6451  1.6864  3.5421
  169SOPE  C21419083   4.049   2.730   8.221  0.0465 -0.4579  0.3268
  169SOPE  H14R19084   4.019   2.837   8.222  2.8003  0.4211  2.1210
  169SOPE  H14S19085   4.160   2.735   8.227 -0.0121 -0.4430  1.7430
  169SOPE  C21519086   3.991   2.672   8.349 -0.9734  0.4232 -0.0079
  169SOPE  H15R19087   3.897   2.619   8.324 -1.4222  1.1353  0.1771
  169SOPE  H15S19088   3.988   2.759   8.417 -1.7047  0.0389  0.4641
  169SOPE  C21619089   4.093   2.576   8.417 -0.4380  0.3953  0.5091
  169SOPE  H16R19090   4.181   2.638   8.445 -1.2618  2.3264 -0.9639
  169SOPE  H16S19091   4.124   2.501   8.341 -1.9726  1.3358 -1.1112
  169SOPE  C21719092   4.039   2.532   8.549 -0.8779 -0.1994  0.7565
  169SOPE  H17R19093   3.942   2.482   8.529 -0.4208 -0.4748 -0.9301
  169SOPE  H17S19094   4.007   2.615   8.616 -0.5924 -0.1500  0.8341
  169SOPE  C21819095   4.137   2.433   8.612  0.1198  0.5091 -0.0794
  169SOPE  H18R19096   4.090   2.379   8.697  2.9819 -0.1546  1.2239
  169SOPE  H18S19097   4.220   2.490   8.659 -0.8148  1.6023  0.2990
  169SOPE  H18T19098   4.178   2.364   8.536 -2.4551 -0.4323 -0.7137
  169SOPE   C3319099   3.895   2.063   7.135  0.4864 -0.1170 -1.1836
  169SOPE   H3X19100   3.922   1.960   7.104 -0.2625 -0.6164 -0.1982
  169SOPE   H3Y19101   3.785   2.068   7.150  0.6836 -0.5282  0.5680
  169SOPE   C3419102   3.978   2.099   7.258 -0.1157 -0.3904  0.1393
  169SOPE   H4X19103   3.968   2.209   7.266  1.2934 -0.3272  1.8135
  169SOPE   H4Y19104   4.085   2.089   7.227 -0.1515  3.0459 -1.5704
  169SOPE   C3519105   3.937   2.027   7.383 -0.3534 -0.4201 -0.2123
  169SOPE   H5X19106   3.951   1.918   7.369  1.1099 -0.2384 -0.3617
  169SOPE   H5Y19107   3.831   2.039   7.412  0.3996  0.3150  2.5504
  169SOPE   C3619108   4.016   2.073   7.506 -0.0574  1.0119  0.4337
  169SOPE   H6X19109   4.028   2.183   7.501  0.3888  0.9587  0.3532
  169SOPE   H6Y19110   4.120   2.035   7.499 -0.8798 -1.1714 -0.7488
  169SOPE   C3719111   3.952   2.050   7.640 -0.0201 -0.2356  0.2894
  169SOPE   H7X19112   3.950   1.944   7.671  2.0827  0.0706  1.6338
  169SOPE   H7Y19113   3.847   2.087   7.637 -1.1525 -3.1878  0.1342
  169SOPE   C3819114   4.027   2.130   7.748  0.2964  0.3684  0.3691
  169SOPE   H8X19115   4.136   2.108   7.742 -0.1628 -3.0065  1.9029
  169SOPE   H8Y19116   4.009   2.236   7.719 -0.4427 -0.0268 -0.7069
  169SOPE   C3919117   3.957   2.103   7.880 -0.3908 -0.3037  0.0381
  169SOPE   H9X19118   3.968   1.992   7.890  0.9495 -0.1626  0.3226
  169SOPE   H9Y19119   3.855   2.145   7.868  0.0708  1.1770  1.1646
  169SOPE  C31019120   4.016   2.169   8.007 -0.0394  0.5333 -0.0047
  169SOPE  H10X19121   4.015   2.280   8.010  1.6668  0.6080 -1.0795
  169SOPE  H10Y19122   4.118   2.126   8.014 -0.5957 -0.5348  2.4919
  169SOPE  C31119123   3.939   2.115   8.128  0.3752 -0.6325 -0.2231
  169SOPE  H11X19124   3.957   2.005   8.130 -2.4419 -1.1506 -0.1563
  169SOPE  H11Y19125   3.830   2.130   8.117  0.0521 -0.5991  2.2994
  169SOPE  C31219126   3.987   2.168   8.265  0.6131 -0.6860 -0.6128
  169SOPE  H12X19127   3.972   2.278   8.273  1.0722 -0.6159 -0.7023
  169SOPE  H12Y19128   4.097   2.156   8.263  0.7637  0.4089 -0.0162
  169SOPE  C31319129   3.934   2.091   8.383  0.0818 -0.4811  0.3738
  169SOPE  H13X19130   3.998   2.104   8.473  1.2296 -0.3951 -0.4275
  169SOPE  H13Y19131   3.954   1.983   8.368  1.4807 -0.3410  0.9909
  169SOPE  C31419132   3.786   2.129   8.414 -0.3583  0.4691 -0.6778
  169SOPE  H14X19133   3.738   2.118   8.315  0.5061  0.5345 -1.1101
  169SOPE  H14Y19134   3.791   2.236   8.443  0.8086  1.1444 -3.1460
  169SOPE  C31519135   3.730   2.045   8.533 -0.5188  0.1441  0.5766
  169SOPE  H15X19136   3.812   2.036   8.607 -0.6271 -2.3083  0.4577
  169SOPE  H15Y19137   3.711   1.945   8.489 -0.2686  0.5664 -0.5541
  169SOPE  C31619138   3.601   2.089   8.602 -0.6320 -0.8179  0.7112
  169SOPE  H16X19139   3.599   2.198   8.626  0.0961 -0.9148  1.2407
  169SOPE  H16Y19140   3.577   2.036   8.696 -0.9165  0.7163  1.5410
  169SOPE  C31719141   3.485   2.076   8.503  0.2911 -0.1417 -0.4658
  169SOPE  H17X19142   3.464   1.970   8.476 -0.2515 -0.5157  1.3275
  169SOPE  H17Y19143   3.499   2.125   8.404 -3.8008 -1.3965 -1.9135
  169SOPE  C31819144   3.346   2.128   8.555  0.0596 -0.4809 -0.1891
  169SOPE  H18X19145   3.327   2.084   8.656 -1.5761  1.7682  0.5469
  169SOPE  H18Y19146   3.263   2.117   8.482  0.3258  0.0845 -0.5853
  169SOPE  H18Z19147   3.357   2.237   8.575 -1.6024 -0.1138 -1.1078
  170SOPE     N19148   4.066   0.217   6.076 -0.4229  0.6159 -0.0123
  170SOPE   HN119149   4.134   0.158   6.127  1.1326  0.4779 -2.1247
  170SOPE   HN219150   3.967   0.183   6.086 -0.4487  0.8469  0.5746
  170SOPE   HN319151   4.091   0.201   5.977 -1.8135 -1.4754 -0.1186
  170SOPE   C1219152   4.067   0.359   6.117  0.4645 -0.1694 -0.6871
  170SOPE  H12A19153   3.974   0.392   6.064  0.2783  1.5132  0.5967
  170SOPE  H12B19154   4.154   0.416   6.078 -0.0820 -0.1836 -1.9841
  170SOPE   C1119155   4.049   0.377   6.268  0.5666  0.4368  0.3382
  170SOPE  H11A19156   3.944   0.343   6.279  0.0551  1.4523 -1.1029
  170SOPE  H11B19157   4.048   0.484   6.300  0.8175  1.0433 -1.5883
  170SOPE     P19158   4.274   0.344   6.403  0.1351 -0.1356 -0.1167
  170SOPE   O1319159   4.298   0.484   6.352  0.3195 -0.0838 -0.0091
  170SOPE   O1419160   4.366   0.229   6.375  0.3938  0.6012 -0.4988
  170SOPE   O1219161   4.135   0.296   6.349 -0.3261  0.1507 -0.7017
  170SOPE   O1119162   4.241   0.354   6.554 -0.0300  0.3303 -0.0529
  170SOPE    C119163   4.107   0.372   6.608 -0.3142 -0.3113  0.1911
  170SOPE    HA19164   4.057   0.274   6.626 -1.7395  0.4407  0.3814
  170SOPE    HB19165   4.049   0.425   6.530 -2.1414 -2.5654 -0.0855
  170SOPE    C219166   4.092   0.456   6.738 -0.1290 -0.0739 -0.2035
  170SOPE    HS19167   4.139   0.555   6.721  2.0091 -1.3555 -2.2831
  170SOPE   O2119168   4.150   0.376   6.852 -0.2922 -0.2074  0.7141
  170SOPE   C2119169   4.208   0.459   6.949 -0.2812  0.3836  0.5613
  170SOPE   O2219170   4.227   0.579   6.937  0.5132 -0.6205 -0.1358
  170SOPE   C2219171   4.234   0.384   7.078  0.6120  1.2274  0.0437
  170SOPE   H2R19172   4.344   0.396   7.084  0.9148  0.0658 -2.1021
  170SOPE   H2S19173   4.218   0.277   7.052  1.3192  1.1841 -0.2385
  170SOPE    C319174   3.942   0.471   6.766  0.0526  0.0450  0.4908
  170SOPE    HX19175   3.894   0.371   6.768 -0.1812  0.1075 -1.1771
  170SOPE    HY19176   3.883   0.527   6.691  0.7947 -1.0555 -0.9720
  170SOPE   O3119177   3.929   0.544   6.891 -0.3433  0.3253  0.1622
  170SOPE   C3119178   3.925   0.677   6.871 -0.5076 -0.4988  0.0400
  170SOPE   O3219179   3.947   0.737   6.768  0.3791  0.3693 -0.5947
  170SOPE   C3219180   3.875   0.737   7.001  0.6427 -0.1911  0.7561
  170SOPE   H2X19181   3.868   0.654   7.075  0.8488  0.7266  1.8251
  170SOPE   H2Y19182   3.771   0.767   6.979  1.7634  3.3952 -0.2794
  170SOPE   C2319183   4.153   0.428   7.196 -0.7066 -0.1499  0.2221
  170SOPE   H3R19184   4.045   0.402   7.182 -0.4927 -1.9749  1.6359
  170SOPE   H3S19185   4.155   0.536   7.219  1.2348 -0.2923  0.8918
  170SOPE   C2419186   4.198   0.351   7.311 -0.3117 -0.0420  0.8721
  170SOPE   H4R19187   4.154   0.251   7.294  1.9336 -1.1746  1.3789
  170SOPE   H4S19188   4.309   0.347   7.317 -0.2565 -0.7104 -0.3763
  170SOPE   C2519189   4.129   0.415   7.432  0.7575  0.9093 -0.3293
  170SOPE   H5R19190   4.153   0.523   7.442  0.6858  1.2879 -3.2538
  170SOPE   H5S19191   4.018   0.422   7.421  0.5742  1.3088  1.4070
  170SOPE   C2619192   4.159   0.345   7.572  0.6102  0.9311  0.6418
  170SOPE   H6R19193   4.268   0.346   7.596  0.7112  1.2736  0.2031
  170SOPE   H6S19194   4.104   0.409   7.645 -1.2742  0.1999 -0.0878
  170SOPE   C2719195   4.117   0.195   7.575  0.2621  0.0664 -0.2414
  170SOPE   H7R19196   4.009   0.180   7.555  0.3284 -3.7972  1.3911
  170SOPE   H7S19197   4.185   0.143   7.504  0.2312  0.4045 -0.5190
  170SOPE   C2819198   4.141   0.132   7.714 -0.4683 -1.0135  1.3425
  170SOPE   H8R19199   4.126   0.022   7.704 -0.8266 -0.8056 -0.8829
  170SOPE   H8S19200   4.250   0.145   7.728 -0.2701 -0.0792 -0.6493
  170SOPE   C2919201   4.053   0.200   7.812  0.3856 -0.0613  0.1134
  170SOPE   H9119202   3.952   0.204   7.767  0.6334 -2.0101 -0.7300
  170SOPE  C21019203   4.081   0.246   7.936  0.5526  0.0170 -0.2274
  170SOPE  H10119204   4.011   0.301   8.001 -0.2008 -1.2260  0.0517
  170SOPE  C21119205   4.217   0.238   7.999  0.0704 -0.7520  1.0230
  170SOPE  H11R19206   4.278   0.164   7.941  0.8176  2.0859 -2.1777
  170SOPE  H11S19207   4.207   0.204   8.104 -0.3570 -1.7206  0.6870
  170SOPE  C21219208   4.302   0.366   7.998 -0.9290  0.1873  0.4432
  170SOPE  H12R19209   4.390   0.343   8.061  0.4643  0.9092 -1.1623
  170SOPE  H12S19210   4.251   0.444   8.059 -1.1203 -0.7811  1.5676
  170SOPE  C21319211   4.344   0.425   7.856 -0.8112 -0.5211  0.6478
  170SOPE  H13R19212   4.259   0.481   7.812 -0.3447  0.3665  0.8554
  170SOPE  H13S19213   4.389   0.344   7.795  0.2344 -0.2110  0.9871
  170SOPE  C21419214   4.457   0.530   7.863 -0.3589 -0.2563  0.1164
  170SOPE  H14R19215   4.536   0.467   7.909 -1.3059  0.0387  2.3132
  170SOPE  H14S19216   4.434   0.617   7.929  1.2541  0.4783 -0.2444
  170SOPE  C21519217   4.489   0.600   7.727  0.4371 -0.5189 -0.6034
  170SOPE  H15R19218   4.529   0.522   7.659 -1.2329  0.1473 -2.4855
  170SOPE  H15S19219   4.580   0.662   7.736 -0.3091  0.7522 -1.4440
  170SOPE  C21619220   4.374   0.663   7.650 -0.3421  0.0973  0.6122
  170SOPE  H16R19221   4.323   0.741   7.709 -1.5519 -0.6088  0.5205
  170SOPE  H16S19222   4.290   0.592   7.637  0.8141 -1.1657 -0.4099
  170SOPE  C21719223   4.414   0.718   7.512 -1.1708 -0.6036  0.3916
  170SOPE  H17R19224   4.444   0.637   7.442 -0.3432  1.5290 -1.8764
  170SOPE  H17S19225   4.515   0.764   7.521 -1.0108 -0.2610 -2.2666
  170SOPE  C21819226   4.314   0.809   7.447  0.5122 -0.0606 -0.5194
  170SOPE  H18R19227   4.339   0.813   7.339 -0.9105 -3.3627 -1.0867
  170SOPE  H18S19228   4.317   0.912   7.490  0.9999  0.9564 -2.8428
  170SOPE  H18T19229   4.215   0.758   7.439 -0.8560  2.3193  0.1091
  170SOPE   C3319230   3.960   0.854   7.060  0.5895 -0.5208 -0.0587
  170SOPE   H3X19231   3.973   0.935   6.985 -0.6338 -0.1464  0.1052
  170SOPE   H3Y19232   4.064   0.820   7.080  0.3764 -1.3772 -0.3633
  170SOPE   C3419233   3.898   0.917   7.189 -0.6458 -0.1256 -0.2760
  170SOPE   H4X19234   3.794   0.941   7.159 -0.9104 -2.2943 -1.2999
  170SOPE   H4Y19235   3.948   1.014   7.204 -3.2340  1.4881 -1.4088
  170SOPE   C3519236   3.910   0.813   7.303 -0.4506 -0.3724 -0.2296
  170SOPE   H5X19237   4.018   0.793   7.320 -0.9919 -2.9698  0.5907
  170SOPE   H5Y19238   3.863   0.717   7.273 -0.5774 -0.5490  0.5037
  170SOPE   C3619239   3.849   0.848   7.438  1.1479 -0.0636 -0.3738
  170SOPE   H6X19240   3.745   0.885   7.431  1.2136  0.3427  0.5777
  170SOPE   H6Y19241   3.911   0.938   7.461 -2.0800  1.9383  1.3475
  170SOPE   C3719242   3.878   0.750   7.554 -0.4010  0.0079  0.0390
  170SOPE   H7X19243   3.981   0.709   7.545  0.0953  1.4513 -1.3248
  170SOPE   H7Y19244   3.804   0.668   7.541  1.8779 -2.4397  1.2819
  170SOPE   C3819245   3.860   0.825   7.688  0.3207 -0.2897  0.8049
  170SOPE   H8X19246   3.754   0.856   7.692  0.1932 -0.0130 -2.1203
  170SOPE   H8Y19247   3.925   0.915   7.693  1.4060 -0.7454 -2.4472
  170SOPE   C3919248   3.894   0.730   7.803 -0.3260  1.1491  0.1382
  170SOPE   H9X19249   4.005   0.720   7.811 -0.3680  0.7685  0.2610
  170SOPE   H9Y19250   3.842   0.634   7.783  1.0353  0.3645  0.2472
  170SOPE  C31019251   3.859   0.785   7.941  0.0873 -0.4484  0.0575
  170SOPE  H10X19252   3.752   0.811   7.960  0.3141 -0.6134  1.6653
  170SOPE  H10Y19253   3.910   0.883   7.950 -1.8223  0.6920 -0.8252
  170SOPE  C31119254   3.908   0.687   8.047  0.1388  0.0756  0.5747
  170SOPE  H11X19255   4.018   0.675   8.036  0.3456 -1.8915  3.6654
  170SOPE  H11Y19256   3.870   0.587   8.018 -1.6895  0.3079  1.9517
  170SOPE  C31219257   3.865   0.727   8.191  0.6428  0.2019  0.6773
  170SOPE  H12X19258   3.754   0.726   8.190  0.5994  1.6964 -0.3938
  170SOPE  H12Y19259   3.896   0.828   8.226  0.8595  0.3947 -0.0350
  170SOPE  C31319260   3.926   0.618   8.284 -0.1339  0.3404  0.8237
  170SOPE  H13X19261   4.036   0.609   8.272 -0.5518 -2.6354 -1.9172
  170SOPE  H13Y19262   3.894   0.513   8.271 -1.3768  0.8963 -1.0209
  170SOPE  C31419263   3.880   0.632   8.432  1.0793  0.3091  0.5680
  170SOPE  H14X19264   3.887   0.742   8.447 -0.2991  0.4798  0.0915
  170SOPE  H14Y19265   3.939   0.585   8.514  1.2415  2.4505  1.7643
  170SOPE  C31519266   3.737   0.576   8.456 -0.2887 -0.7721  0.5555
  170SOPE  H15X19267   3.684   0.614   8.366 -0.1378  2.5511  1.7139
  170SOPE  H15Y19268   3.692   0.626   8.544  0.5442  0.0323  0.5398
  170SOPE  C31619269   3.733   0.421   8.461  0.4891 -1.3370  0.3495
  170SOPE  H16X19270   3.810   0.385   8.532  0.5390 -1.3287  0.3001
  170SOPE  H16Y19271   3.769   0.377   8.365  1.6087 -2.7784  1.3813
  170SOPE  C31719272   3.602   0.358   8.504  0.0941  0.4305 -0.7222
  170SOPE  H17X19273   3.616   0.247   8.499 -0.3480  0.4374 -3.5582
  170SOPE  H17Y19274   3.518   0.381   8.435  0.0098 -1.9938 -1.5453
  170SOPE  C31819275   3.569   0.381   8.653 -0.4653  0.2329 -0.2336
  170SOPE  H18X19276   3.465   0.354   8.682  0.2863 -1.1027  1.4000
  170SOPE  H18Y19277   3.585   0.488   8.678 -0.5183  0.1144  0.3118
  170SOPE  H18Z19278   3.628   0.311   8.716 -0.7781  1.5908  1.6417
  171SOPE     N19279   5.171   5.689   6.588  0.0839 -0.1780 -0.8671
  171SOPE   HN119280   5.221   5.725   6.672 -2.5913  3.6561 -0.6533
  171SOPE   HN219281   5.220   5.726   6.504 -2.4141  4.2868 -0.6567
  171SOPE   HN319282   5.077   5.733   6.584  0.5268  0.6784 -2.3616
  171SOPE   C1219283   5.170   5.540   6.588 -0.1040 -0.7210 -0.0163
  171SOPE  H12A19284   5.099   5.499   6.662  0.4520  1.6486  1.9479
  171SOPE  H12B19285   5.273   5.507   6.611  0.0566  0.9813  1.9636
  171SOPE   C1119286   5.121   5.500   6.444  0.1848 -0.0355  0.8130
  171SOPE  H11A19287   5.127   5.389   6.441  2.2176  0.0300 -1.7413
  171SOPE  H11B19288   5.183   5.548   6.365  0.3947  0.7848  1.4675
  171SOPE     P19289   4.885   5.510   6.319 -0.1068  0.0176  0.1169
  171SOPE   O1319290   4.917   5.374   6.281  0.2455 -0.0154  0.2517
  171SOPE   O1419291   4.881   5.620   6.221  0.0099 -0.1437 -0.2625
  171SOPE   O1219292   4.986   5.551   6.430 -0.1457 -0.5537  0.3651
  171SOPE   O1119293   4.752   5.497   6.403 -0.6437  0.1610  0.5177
  171SOPE    C119294   4.731   5.584   6.514  0.2711  0.7676  0.2160
  171SOPE    HA19295   4.624   5.613   6.524 -0.0140 -0.6162  1.7158
  171SOPE    HB19296   4.806   5.666   6.512  4.7923 -3.0004  0.1998
  171SOPE    C219297   4.747   5.502   6.643 -0.0667 -0.0022 -0.3927
  171SOPE    HS19298   4.847   5.453   6.642 -0.6136 -1.2623 -3.1979
  171SOPE   O2119299   4.638   5.411   6.659  0.0100 -0.0982  0.3273
  171SOPE   C2119300   4.657   5.306   6.726 -0.1854  0.6326 -0.3127
  171SOPE   O2219301   4.768   5.262   6.761  0.4197 -1.0868 -0.0527
  171SOPE   C2219302   4.526   5.226   6.745 -0.5332 -0.0293 -0.7376
  171SOPE   H2R19303   4.526   5.123   6.704 -0.2846 -0.3233 -0.0253
  171SOPE   H2S19304   4.446   5.283   6.694  0.6791  0.8940 -1.6812
  171SOPE    C319305   4.745   5.597   6.764  0.7501 -0.1616  0.1667
  171SOPE    HX19306   4.652   5.657   6.755 -0.4993 -2.0127  0.1631
  171SOPE    HY19307   4.826   5.671   6.747  1.2786 -0.2691  2.0237
  171SOPE   O3119308   4.746   5.535   6.904 -0.8779 -0.2248 -0.2483
  171SOPE   C3119309   4.866   5.522   6.960 -0.0396 -0.4719  0.5902
  171SOPE   O3219310   4.970   5.562   6.911  0.2014  0.1166 -0.0041
  171SOPE   C3219311   4.848   5.427   7.082  0.0612  0.0104 -0.4916
  171SOPE   H2X19312   4.947   5.381   7.107 -0.6147 -1.2296  0.0007
  171SOPE   H2Y19313   4.784   5.341   7.054  1.9512 -1.4009 -0.6734
  171SOPE   C2319314   4.486   5.204   6.896 -0.4406 -0.8742 -0.2341
  171SOPE   H3R19315   4.375   5.200   6.890 -0.4323 -3.4146  0.1428
  171SOPE   H3S19316   4.512   5.289   6.964  3.5842 -2.1249  0.0425
  171SOPE   C2419317   4.552   5.080   6.956  0.7643 -0.1798 -0.2714
  171SOPE   H4R19318   4.555   5.004   6.875  1.4231  3.3905 -3.9449
  171SOPE   H4S19319   4.654   5.109   6.989  0.9110  0.8915 -1.5759
  171SOPE   C2519320   4.473   5.031   7.079 -0.3208  0.3745  0.4658
  171SOPE   H5R19321   4.366   5.008   7.065 -0.4863  0.5715  1.3237
  171SOPE   H5S19322   4.519   4.938   7.119 -0.0128  1.0633  1.7895
  171SOPE   C2619323   4.464   5.128   7.195 -0.2360 -0.1276  0.0187
  171SOPE   H6R19324   4.564   5.163   7.230 -1.3060  3.0694  0.1785
  171SOPE   H6S19325   4.406   5.218   7.166 -0.8859 -1.2988 -2.5304
  171SOPE   C2719326   4.389   5.066   7.317  0.2265 -0.8525  0.1882
  171SOPE   H7R19327   4.293   5.035   7.270 -0.8226 -0.0540  1.6922
  171SOPE   H7S19328   4.448   4.987   7.369  1.6058 -1.3240 -1.9713
  171SOPE   C2819329   4.345   5.174   7.421 -0.7300  0.3024  0.3096
  171SOPE   H8R19330   4.437   5.208   7.472  1.0133  2.1695 -3.6439
  171SOPE   H8S19331   4.303   5.258   7.361 -1.7356 -0.9540 -0.8097
  171SOPE   C2919332   4.238   5.120   7.513  0.3472  0.4547 -0.1261
  171SOPE   H9119333   4.139   5.103   7.467  0.1517  2.2688 -0.4589
  171SOPE  C21019334   4.258   5.089   7.637 -1.1737 -0.5478  0.0407
  171SOPE  H10119335   4.172   5.060   7.699 -1.0766  0.0076  0.4430
  171SOPE  C21119336   4.383   5.093   7.721 -0.2908 -0.5157 -0.7652
  171SOPE  H11R19337   4.372   5.183   7.784  1.9026 -0.8036  0.1237
  171SOPE  H11S19338   4.473   5.097   7.656  0.1724  2.5733 -0.0867
  171SOPE  C21219339   4.398   4.972   7.815  0.8168  0.6510 -0.7559
  171SOPE  H12R19340   4.437   4.886   7.756  0.9078  0.6040 -0.6248
  171SOPE  H12S19341   4.293   4.966   7.851  0.0734  2.4741 -2.4545
  171SOPE  C21319342   4.483   4.999   7.939 -0.2069  0.0726  0.8394
  171SOPE  H13R19343   4.437   5.090   7.983  0.1025  1.6672 -1.9070
  171SOPE  H13S19344   4.585   5.032   7.911 -0.7320  0.0334 -1.2543
  171SOPE  C21419345   4.477   4.886   8.039  0.2592  0.5799  0.3293
  171SOPE  H14R19346   4.490   4.787   7.989 -1.5773  1.0754 -1.2123
  171SOPE  H14S19347   4.378   4.883   8.087 -1.4784  0.1664 -2.9755
  171SOPE  C21519348   4.579   4.892   8.160 -0.0462  0.3941 -0.9043
  171SOPE  H15R19349   4.564   4.989   8.213 -1.7702 -0.4697  0.2774
  171SOPE  H15S19350   4.684   4.887   8.122  0.6206  0.0591  0.8810
  171SOPE  C21619351   4.560   4.780   8.268 -0.1165  0.5676 -0.7007
  171SOPE  H16R19352   4.548   4.686   8.210 -2.5832  1.4081 -1.7037
  171SOPE  H16S19353   4.461   4.789   8.318 -0.6691 -0.8201 -1.4739
  171SOPE  C21719354   4.679   4.769   8.360 -0.2040  0.3150 -0.4954
  171SOPE  H17R19355   4.715   4.868   8.392 -0.6990 -0.0406  1.2722
  171SOPE  H17S19356   4.757   4.721   8.297 -1.1353  0.6765 -1.9867
  171SOPE  C21819357   4.656   4.687   8.489 -0.5770  0.3988 -0.2301
  171SOPE  H18R19358   4.748   4.672   8.548  0.2080 -0.6057 -1.6471
  171SOPE  H18S19359   4.608   4.589   8.468 -0.0117 -0.2595  1.4326
  171SOPE  H18T19360   4.588   4.747   8.553 -0.7122 -0.5249  0.5187
  171SOPE   C3319361   4.801   5.506   7.200 -0.1588 -0.7002 -0.0164
  171SOPE   H3X19362   4.704   5.555   7.174  0.5864  0.1078 -1.4083
  171SOPE   H3Y19363   4.874   5.589   7.211 -0.5595 -0.2183 -0.9206
  171SOPE   C3419364   4.799   5.422   7.325  0.3984  0.0667 -0.4271
  171SOPE   H4X19365   4.899   5.382   7.352 -0.0446 -0.2899  0.7240
  171SOPE   H4Y19366   4.727   5.339   7.319  0.4745 -0.0970  0.7533
  171SOPE   C3519367   4.750   5.493   7.460 -0.4846  0.1676  0.3193
  171SOPE   H5X19368   4.646   5.530   7.453 -1.0678 -1.5475 -0.4993
  171SOPE   H5Y19369   4.819   5.579   7.478  1.3104 -1.4434  1.4526
  171SOPE   C3619370   4.759   5.399   7.583 -0.6002 -0.4025  0.2761
  171SOPE   H6X19371   4.869   5.389   7.598 -0.7194 -3.0171 -0.1581
  171SOPE   H6Y19372   4.724   5.294   7.572 -1.2139 -0.0344 -1.7531
  171SOPE   C3719373   4.691   5.469   7.702 -0.3088  0.2290 -0.2709
  171SOPE   H7X19374   4.580   5.469   7.702 -0.3346 -0.3892  1.4438
  171SOPE   H7Y19375   4.720   5.575   7.719  1.1796  0.0033 -1.2244
  171SOPE   C3819376   4.725   5.387   7.824 -0.2861 -0.0850 -0.3259
  171SOPE   H8X19377   4.834   5.397   7.842 -0.2578  1.5815 -1.2225
  171SOPE   H8Y19378   4.706   5.279   7.804 -0.7741  0.3135 -2.2595
  171SOPE   C3919379   4.642   5.438   7.942  0.3119  0.4465  0.1236
  171SOPE   H9X19380   4.536   5.448   7.912  0.0580 -1.0722  0.4209
  171SOPE   H9Y19381   4.675   5.538   7.977 -3.1227  0.8597  2.6915
  171SOPE  C31019382   4.653   5.353   8.078 -0.4952 -0.4019  0.7025
  171SOPE  H10X19383   4.710   5.406   8.156 -0.9537  0.1902  0.6356
  171SOPE  H10Y19384   4.714   5.262   8.054  3.1733  2.2062 -0.8664
  171SOPE  C31119385   4.519   5.331   8.147 -0.1746  0.1574 -1.0633
  171SOPE  H11X19386   4.488   5.226   8.166 -2.3819  0.9133 -0.1606
  171SOPE  H11Y19387   4.434   5.366   8.085 -1.8943  0.2132  1.2060
  171SOPE  C31219388   4.518   5.405   8.287  0.2369 -0.0763 -0.0384
  171SOPE  H12X19389   4.414   5.408   8.325  0.2317 -0.4098 -0.0252
  171SOPE  H12Y19390   4.558   5.506   8.265  0.8544 -0.5049 -0.9287
  171SOPE  C31319391   4.605   5.351   8.405  0.1745  0.4716  0.3578
  171SOPE  H13X19392   4.604   5.425   8.487 -0.5753  0.5968  0.2484
  171SOPE  H13Y19393   4.709   5.339   8.369  0.0414 -1.6014  0.5359
  171SOPE  C31419394   4.559   5.210   8.451 -0.1486 -0.8474 -0.1077
  171SOPE  H14X19395   4.562   5.145   8.361 -0.2122  0.3141 -0.9860
  171SOPE  H14Y19396   4.457   5.209   8.494 -0.0987  1.0689  0.1533
  171SOPE  C31519397   4.657   5.154   8.552  0.6158  0.7909  0.0385
  171SOPE  H15X19398   4.675   5.230   8.631  0.1376 -0.2821  1.2262
  171SOPE  H15Y19399   4.751   5.129   8.497  0.5147  0.6726 -0.0815
  171SOPE  C31619400   4.590   5.033   8.629 -0.3228 -0.0806  0.3713
  171SOPE  H16X19401   4.544   4.968   8.551 -1.7869 -0.5331  1.5599
  171SOPE  H16Y19402   4.514   5.085   8.690 -1.0688 -1.2675  0.4817
  171SOPE  C31719403   4.698   4.963   8.707  0.7321  0.9980  1.0278
  171SOPE  H17X19404   4.772   5.035   8.748  1.5238  0.4673  0.5583
  171SOPE  H17Y19405   4.754   4.902   8.632 -0.1294  2.1495 -0.6323
  171SOPE  C31819406   4.628   4.884   8.821  0.7073 -0.3639  0.3942
  171SOPE  H18X19407   4.696   4.821   8.883  1.6679 -0.2792 -0.5433
  171SOPE  H18Y19408   4.551   4.817   8.778  0.8246 -0.0810 -0.2774
  171SOPE  H18Z19409   4.571   4.954   8.886 -0.2261 -0.9423  0.2185
  172SOPE     N19410   4.972   1.013   6.628 -0.1806  0.6273 -0.1265
  172SOPE   HN119411   5.070   1.034   6.654  0.3719  0.4288 -1.9175
  172SOPE   HN219412   4.965   0.961   6.538 -2.2888 -0.1499  0.4188
  172SOPE   HN319413   4.918   1.101   6.610  0.0806  0.3584 -2.5995
  172SOPE   C1219414   4.896   0.936   6.727 -0.0240  0.4077 -0.8542
  172SOPE  H12A19415   4.910   0.989   6.824 -0.7583  0.5790 -0.8323
  172SOPE  H12B19416   4.939   0.834   6.732  1.7262  1.1850  0.8583
  172SOPE   C1119417   4.746   0.925   6.708  0.1920  0.0791 -0.0072
  172SOPE  H11A19418   4.702   1.027   6.710 -0.1758  0.0479 -2.5876
  172SOPE  H11B19419   4.705   0.867   6.793  1.2134 -4.2832 -2.1494
  172SOPE     P19420   4.679   0.740   6.529 -0.1728  0.0447 -0.3060
  172SOPE   O1319421   4.801   0.663   6.508  0.1562 -0.2788 -0.1807
  172SOPE   O1419422   4.595   0.755   6.414 -0.3116 -0.3717 -0.1229
  172SOPE   O1219423   4.708   0.874   6.576  0.0715  0.5482  0.0234
  172SOPE   O1119424   4.592   0.675   6.639  0.1168  0.1454  0.1345
  172SOPE    C119425   4.586   0.531   6.646 -0.2021  0.5340  0.4243
  172SOPE    HA19426   4.659   0.483   6.578 -0.6766 -0.8591  0.8709
  172SOPE    HB19427   4.485   0.489   6.626  0.2113 -1.1384  1.6241
  172SOPE    C219428   4.611   0.482   6.795  0.5452 -0.2666  0.1642
  172SOPE    HS19429   4.507   0.476   6.835 -0.3196 -0.4609 -2.0092
  172SOPE   O2119430   4.701   0.570   6.861  0.4132 -0.3433 -0.2251
  172SOPE   C2119431   4.677   0.585   6.987 -0.6141 -0.2444  0.5800
  172SOPE   O2219432   4.585   0.536   7.048 -0.1766  0.0106  0.1770
  172SOPE   C2219433   4.783   0.686   7.042 -0.4183 -1.3164 -0.0989
  172SOPE   H2R19434   4.734   0.783   7.023 -1.4016 -1.7207  0.3006
  172SOPE   H2S19435   4.871   0.681   6.975 -0.7805 -2.2060 -0.5228
  172SOPE    C319436   4.668   0.340   6.792  0.6763  0.6003  1.1440
  172SOPE    HX19437   4.772   0.349   6.756  0.4965  2.9424  1.0201
  172SOPE    HY19438   4.619   0.282   6.711  0.0306  0.6942  1.4588
  172SOPE   O3119439   4.665   0.276   6.921 -0.6475 -0.0943  0.1577
  172SOPE   C3119440   4.557   0.213   6.957  0.3909  0.1080  0.2525
  172SOPE   O3219441   4.455   0.199   6.898  0.4243 -0.8576  0.1467
  172SOPE   C3219442   4.604   0.135   7.081  0.3677  0.1017 -0.3143
  172SOPE   H2X19443   4.710   0.103   7.086 -0.2075 -1.7644  1.2429
  172SOPE   H2Y19444   4.548   0.039   7.077 -0.4391  0.6109 -2.5209
  172SOPE   C2319445   4.810   0.664   7.191  0.2350 -0.1897  0.2366
  172SOPE   H3R19446   4.719   0.667   7.255  2.1055 -2.1730  3.2195
  172SOPE   H3S19447   4.890   0.736   7.219  0.7668 -0.3627 -0.7924
  172SOPE   C2419448   4.872   0.529   7.221 -0.2679  0.8468  0.8590
  172SOPE   H4R19449   4.805   0.444   7.197  0.1383  1.1075 -1.5057
  172SOPE   H4S19450   4.962   0.517   7.156  1.2485  0.8862  2.8651
  172SOPE   C2519451   4.927   0.514   7.366  0.2552  0.0977 -0.1210
  172SOPE   H5R19452   4.953   0.406   7.362 -0.7795 -0.2844  2.2532
  172SOPE   H5S19453   5.022   0.571   7.376 -1.7695  3.8187 -0.2384
  172SOPE   C2619454   4.824   0.550   7.473 -0.2120  0.6581  0.1664
  172SOPE   H6R19455   4.794   0.657   7.474 -1.0126  0.4480 -0.0713
  172SOPE   H6S19456   4.727   0.505   7.443  0.1703 -0.4756  0.5658
  172SOPE   C2719457   4.865   0.495   7.610  0.6608  0.4370  0.2938
  172SOPE   H7R19458   4.776   0.506   7.675 -0.9304 -0.2088 -1.6621
  172SOPE   H7S19459   4.883   0.385   7.612 -3.1660 -0.3079  1.6452
  172SOPE   C2819460   4.994   0.564   7.659  0.6500 -0.2394  0.1064
  172SOPE   H8R19461   5.082   0.530   7.601 -0.0276  0.5215 -1.4294
  172SOPE   H8S19462   4.986   0.671   7.630 -1.5581  0.0276  1.4939
  172SOPE   C2919463   5.008   0.535   7.809 -0.5510 -0.7484 -0.4955
  172SOPE   H9119464   5.019   0.430   7.838 -1.4366 -0.5372  0.6329
  172SOPE  C21019465   4.998   0.631   7.904  0.7108 -0.2657 -0.1522
  172SOPE  H10119466   4.992   0.596   8.008 -1.6532 -0.7509 -0.4113
  172SOPE  C21119467   4.979   0.785   7.881 -0.3959 -0.3496  0.0400
  172SOPE  H11R19468   4.909   0.808   7.798 -0.0351 -0.7394 -0.3750
  172SOPE  H11S19469   5.075   0.822   7.840 -0.2064 -1.4105 -0.4815
  172SOPE  C21219470   4.929   0.848   8.004 -0.5677 -0.0580 -0.1345
  172SOPE  H12R19471   4.950   0.957   8.009 -1.4829  0.2205 -1.7332
  172SOPE  H12S19472   4.972   0.804   8.097  0.1754  0.8899 -0.0160
  172SOPE  C21319473   4.778   0.826   8.020  0.6178  0.4384 -0.8006
  172SOPE  H13R19474   4.743   0.764   7.935 -0.5665 -0.2388  0.1504
  172SOPE  H13S19475   4.730   0.926   8.011  0.1413  0.1442 -1.6132
  172SOPE  C21419476   4.741   0.766   8.156  0.3112  0.2231 -0.0781
  172SOPE  H14R19477   4.828   0.708   8.193 -0.8895 -0.8592  1.1371
  172SOPE  H14S19478   4.646   0.710   8.157  1.1687 -1.3136 -0.9917
  172SOPE  C21519479   4.726   0.872   8.269  0.4954 -0.7263 -0.1026
  172SOPE  H15R19480   4.626   0.918   8.250  0.3798 -0.2748  1.4315
  172SOPE  H15S19481   4.804   0.949   8.253 -0.9606  0.8121 -0.0669
  172SOPE  C21619482   4.719   0.822   8.414  1.0258  0.9531 -0.4423
  172SOPE  H16R19483   4.788   0.736   8.426  0.3871  0.1045 -2.5813
  172SOPE  H16S19484   4.616   0.784   8.429  0.3204  2.1198 -2.0222
  172SOPE  C21719485   4.748   0.933   8.516  0.6386 -0.0174  0.3245
  172SOPE  H17R19486   4.726   0.896   8.618 -1.1899  0.4153  0.1407
  172SOPE  H17S19487   4.669   1.010   8.500 -1.3137 -1.9516  0.1901
  172SOPE  C21819488   4.891   0.992   8.519  0.3703 -0.0429  0.9608
  172SOPE  H18R19489   4.963   0.914   8.552  1.0145  0.6141  1.1114
  172SOPE  H18S19490   4.891   1.082   8.583 -0.7000 -0.1234  1.0901
  172SOPE  H18T19491   4.915   1.035   8.419 -1.5837  1.1700  0.9583
  172SOPE   C3319492   4.569   0.207   7.214 -0.2408  0.4471 -0.2557
  172SOPE   H3X19493   4.468   0.173   7.244  0.2358 -0.3116  0.5055
  172SOPE   H3Y19494   4.563   0.318   7.205  1.8659  0.4957 -1.7868
  172SOPE   C3419495   4.662   0.175   7.329 -0.1048  0.3661 -0.0984
  172SOPE   H4X19496   4.767   0.204   7.308 -0.3597  0.4626 -1.3295
  172SOPE   H4Y19497   4.657   0.064   7.333  1.7409  0.2955  1.5231
  172SOPE   C3519498   4.624   0.221   7.469  0.2867 -0.3017  0.0939
  172SOPE   H5X19499   4.521   0.180   7.480  1.1523 -2.6126  0.0717
  172SOPE   H5Y19500   4.632   0.331   7.463 -0.4276 -0.2843 -0.7600
  172SOPE   C3619501   4.712   0.168   7.582  0.4901  0.5962  0.5101
  172SOPE   H6X19502   4.814   0.196   7.548  0.7024 -2.5833 -1.8750
  172SOPE   H6Y19503   4.708   0.058   7.588  1.5971  0.6047  1.8069
  172SOPE   C3719504   4.677   0.223   7.715  1.0598 -0.4479 -0.9357
  172SOPE   H7X19505   4.576   0.194   7.750  0.2718  2.1367 -0.8413
  172SOPE   H7Y19506   4.683   0.334   7.719  1.1842 -0.4451  2.5105
  172SOPE   C3819507   4.765   0.179   7.837 -0.4212  0.1217 -0.7814
  172SOPE   H8X19508   4.865   0.212   7.802 -0.2107 -2.0726 -2.4619
  172SOPE   H8Y19509   4.756   0.068   7.844  1.2904 -0.0159 -0.2855
  172SOPE   C3919510   4.720   0.266   7.960  0.5289  0.1029  0.3036
  172SOPE   H9X19511   4.616   0.257   7.998 -0.0591 -0.0307 -1.2591
  172SOPE   H9Y19512   4.738   0.368   7.919 -0.3811 -1.0741 -3.4670
  172SOPE  C31019513   4.812   0.250   8.084  0.3920  0.4000  0.5501
  172SOPE  H10X19514   4.922   0.258   8.069  0.0710  0.9637 -1.8517
  172SOPE  H10Y19515   4.790   0.146   8.116 -1.0121  0.6244  0.3596
  172SOPE  C31119516   4.766   0.347   8.191  0.6824  0.2231  0.5841
  172SOPE  H11X19517   4.657   0.337   8.211  1.0714 -2.0879  1.8615
  172SOPE  H11Y19518   4.790   0.449   8.153 -0.2494 -0.1997 -1.2620
  172SOPE  C31219519   4.838   0.323   8.328 -0.1966 -0.4618 -0.1409
  172SOPE  H12X19520   4.948   0.336   8.317 -0.1049 -0.3153  0.8374
  172SOPE  H12Y19521   4.820   0.218   8.360  0.5635 -0.6795 -0.4015
  172SOPE  C31319522   4.805   0.430   8.430  0.2490 -0.1575 -0.3669
  172SOPE  H13X19523   4.697   0.429   8.455  0.0249  1.8821 -1.1246
  172SOPE  H13Y19524   4.821   0.535   8.400  0.9853  0.2564  1.3260
  172SOPE  C31419525   4.879   0.408   8.560  0.0260 -0.6736 -0.2258
  172SOPE  H14X19526   4.988   0.416   8.542 -0.1339  1.5436 -0.4386
  172SOPE  H14Y19527   4.856   0.306   8.597  0.5424 -0.7191 -0.0232
  172SOPE  C31519528   4.828   0.506   8.671 -0.7211 -0.9986  0.0621
  172SOPE  H15X19529   4.734   0.556   8.641 -0.9759 -2.1443 -1.1533
  172SOPE  H15Y19530   4.892   0.596   8.680 -2.9896  0.6651  0.2525
  172SOPE  C31619531   4.806   0.441   8.806 -0.5746  0.2985  0.8837
  172SOPE  H16X19532   4.747   0.347   8.812  2.1886 -1.5762  0.9567
  172SOPE  H16Y19533   4.738   0.507   8.863  1.4519  1.2522  2.3316
  172SOPE  C31719534   4.928   0.420   8.889  0.7555 -0.7029 -0.2082
  172SOPE  H17X19535   4.974   0.521   8.893 -0.6598 -0.0199 -0.3283
  172SOPE  H17Y19536   4.998   0.347   8.843  0.2588 -2.6288  1.9057
  172SOPE  C31819537   4.891   0.362   9.027  0.0334  0.1095 -0.5765
  172SOPE  H18X19538   4.832   0.270   9.005  0.0993 -0.1583  0.3273
  172SOPE  H18Y19539   4.841   0.441   9.087  1.3449 -0.7581  1.7852
  172SOPE  H18Z19540   4.979   0.330   9.087 -0.2273 -1.6997 -1.0855
  173SAPI   C1219541   0.575   6.289  10.940 -0.2615 -0.1847  0.1575
  173SAPI    H219542   0.578   6.292  10.829 -0.4480 -0.6912  0.1358
  173SAPI    O219543   0.585   6.412  11.007  0.2224 -0.5141 -0.2600
  173SAPI   HO219544   0.672   6.452  11.006 -0.5033  1.4295  2.3087
  173SAPI   C1319545   0.450   6.217  10.990  0.3741 -0.2786  0.1888
  173SAPI    H319546   0.459   6.113  10.951 -0.0277 -0.3646  0.3224
  173SAPI    O319547   0.334   6.272  10.925  0.1139 -0.0132 -0.1071
  173SAPI   HO319548   0.367   6.319  10.849 -0.8903  2.7327  1.0129
  173SAPI   C1419549   0.443   6.197  11.146  0.5334 -0.6911  0.1310
  173SAPI    H419550   0.446   6.299  11.190  0.7338 -0.6962  0.1307
  173SAPI    O419551   0.324   6.135  11.179  0.5302 -0.1447 -0.0990
  173SAPI   HO419552   0.273   6.199  11.229  0.0094 -0.6240 -0.0219
  173SAPI   C1519553   0.571   6.119  11.179 -0.2860  0.7192 -0.1868
  173SAPI    H519554   0.575   6.025  11.120  2.7329  2.0867 -2.4333
  173SAPI    O519555   0.569   6.076  11.313  0.2735 -0.1594  0.3029
  173SAPI   HO519556   0.624   5.997  11.321 -0.0400 -0.3494  0.6474
  173SAPI   C1619557   0.705   6.194  11.141  0.4096  0.2909 -0.1929
  173SAPI    H619558   0.695   6.296  11.184 -1.5474  0.2820 -0.5460
  173SAPI    O619559   0.822   6.130  11.188  0.4243  0.5113 -0.3926
  173SAPI   HO619560   0.886   6.199  11.170  0.0038  2.0526  3.2778
  173SAPI   C1119561   0.698   6.197  10.989  0.5520 -0.9478  0.3226
  173SAPI    H119562   0.697   6.095  10.944  0.0043  0.2198 -2.4821
  173SAPI     P19563   0.957   6.202  10.881  0.4544  0.0436 -0.0962
  173SAPI   O1319564   0.985   6.078  10.952 -0.6418  0.2087 -0.1961
  173SAPI   O1419565   1.072   6.298  10.872 -0.1664 -0.5135 -0.3361
  173SAPI   O1219566   0.822   6.266  10.958  0.1340  0.0906 -0.4443
  173SAPI   O1119567   0.906   6.180  10.740  0.2099  0.0709  0.1484
  173SAPI    C119568   0.829   6.283  10.664 -0.6980  0.2193 -0.1810
  173SAPI    HA19569   0.723   6.278  10.695 -1.4487  0.0508 -2.5166
  173SAPI    HB19570   0.865   6.386  10.682 -0.5597  0.6894 -2.7065
  173SAPI    C219571   0.810   6.265  10.512  0.1018 -0.3605  0.4516
  173SAPI    HS19572   0.736   6.340  10.479  1.5690  1.9839  2.2031
  173SAPI   O2119573   0.776   6.130  10.486 -0.3278  0.1396  0.2862
  173SAPI   C2119574   0.652   6.098  10.453  0.2439  0.4271  0.6500
  173SAPI   O2219575   0.561   6.182  10.460 -0.2796 -0.7551 -0.0975
  173SAPI   C2219576   0.634   5.946  10.421 -0.2241  1.2097 -0.0636
  173SAPI   H2R19577   0.735   5.900  10.421 -1.3246 -1.4263  0.5450
  173SAPI   H2S19578   0.591   5.896  10.510 -0.3280  0.7106 -0.3926
  173SAPI    C319579   0.945   6.283  10.438  0.5508 -0.4574  0.0465
  173SAPI    HX19580   0.935   6.245  10.334  0.3126 -0.3408  0.0274
  173SAPI    HY19581   1.021   6.223  10.493  1.3474  0.4860 -0.0014
  173SAPI   O3119582   0.976   6.418  10.438 -0.6617 -0.1298 -0.4079
  173SAPI   C3119583   1.082   6.453  10.370 -0.0511  0.2867 -0.3330
  173SAPI   O3219584   1.152   6.368  10.313  0.0774 -0.1375  0.3706
  173SAPI   C3219585   1.097   6.604  10.364 -0.1838 -0.1970  0.3117
  173SAPI   H2X19586   1.150   6.631  10.458  0.8625  0.8176 -0.5372
  173SAPI   H2Y19587   0.999   6.656  10.364  0.8753  1.9545  0.4715
  173SAPI   C2319588   0.554   5.915  10.295 -0.0977  0.2550 -0.4087
  173SAPI   H3R19589   0.453   5.961  10.294  0.2405  1.0035 -0.7235
  173SAPI   H3S19590   0.544   5.805  10.286 -3.1852  0.2490  1.4521
  173SAPI   C2419591   0.621   5.962  10.169  0.7396 -0.6406  0.2128
  173SAPI   H4R19592   0.619   5.878  10.096  1.6339  0.4975 -1.1598
  173SAPI   H4S19593   0.729   5.986  10.180  0.7258 -1.5210  2.9919
  173SAPI   C2519594   0.545   6.072  10.099  0.0493  0.4785  0.0540
  173SAPI   H5R19595   0.441   6.040  10.088  0.4022 -1.4555  1.7888
  173SAPI   C2619596   0.596   6.189  10.058  0.1984 -0.4135 -0.2465
  173SAPI   H6R19597   0.524   6.260  10.014  1.2507  0.0163 -1.3134
  173SAPI   C2719598   0.732   6.245  10.075 -0.6805 -0.0879 -0.3973
  173SAPI   H7R19599   0.797   6.181  10.012  0.5259 -1.3348  1.9614
  173SAPI   H7S19600   0.765   6.213  10.177 -1.2717 -0.0875 -0.2024
  173SAPI   C2819601   0.755   6.394  10.051  0.4793  0.4150 -0.2303
  173SAPI   H8R19602   0.721   6.456  10.135 -1.0104 -0.6833  0.0152
  173SAPI   C2919603   0.801   6.447   9.939  0.0397 -0.7130  1.0582
  173SAPI   H9R19604   0.805   6.557   9.940  2.6786 -0.7350  1.0075
  173SAPI  C21019605   0.856   6.393   9.810  1.0368  0.0983 -0.1638
  173SAPI  H10R19606   0.923   6.308   9.835  0.4188 -0.7383 -1.3062
  173SAPI  H10S19607   0.923   6.470   9.766  2.8344 -0.9909  0.5403
  173SAPI  C21119608   0.757   6.330   9.722  0.0645 -0.1162  0.7095
  173SAPI  H11R19609   0.698   6.251   9.770 -0.4383 -0.1222  0.0904
  173SAPI  C21219610   0.737   6.365   9.591  0.6340  0.0253  0.0011
  173SAPI  H12R19611   0.668   6.301   9.534 -0.4399 -1.0274  2.3732
  173SAPI  C21319612   0.805   6.474   9.508  0.2924 -0.4626 -1.2359
  173SAPI  H13R19613   0.915   6.468   9.511  0.3953  0.3533 -2.6023
  173SAPI  H13S19614   0.792   6.572   9.560  0.7896 -2.0530  2.1764
  173SAPI  C21419615   0.739   6.483   9.371  0.3332  0.3733 -0.1698
  173SAPI  H14R19616   0.669   6.404   9.340  0.5716  0.2993 -0.5295
  173SAPI  C21519617   0.758   6.593   9.297  0.4054  0.1481  0.0119
  173SAPI  H15R19618   0.712   6.603   9.197  0.8912  0.0136 -0.2290
  173SAPI  C21619619   0.829   6.716   9.328 -0.4520 -0.4400  0.6075
  173SAPI  H16R19620   0.935   6.700   9.297 -0.5531 -2.6213  1.1762
  173SAPI  H16S19621   0.844   6.744   9.435  1.8505  1.8839 -0.2120
  173SAPI  C21719622   0.780   6.848   9.262 -0.1620  0.1650  0.4619
  173SAPI  H17R19623   0.829   6.936   9.307 -0.8976  1.5380 -1.2849
  173SAPI  H17S19624   0.669   6.853   9.261 -0.4003 -3.0847 -0.5481
  173SAPI  C21819625   0.824   6.864   9.113 -0.9578  0.6238  0.2842
  173SAPI  H18R19626   0.765   6.941   9.059 -0.9954  0.5175  0.1737
  173SAPI  H18S19627   0.802   6.766   9.065 -1.4525  0.4863  0.7796
  173SAPI  C21919628   0.974   6.894   9.107 -0.1091 -0.1778  0.0384
  173SAPI  H19R19629   1.030   6.801   9.133  0.2649 -0.4542 -1.5938
  173SAPI  H19S19630   0.999   6.980   9.172 -1.1307  0.9249 -0.9681
  173SAPI  C22019631   1.029   6.924   8.961  0.1676  1.0640  0.6167
  173SAPI  H20R19632   0.961   7.005   8.926 -0.5163  0.8170  1.3327
  173SAPI  H20S19633   1.011   6.835   8.896  1.8843  1.3205 -0.2567
  173SAPI  H20T19634   1.132   6.963   8.963  0.2535  0.9089 -0.3874
  173SAPI   C3319635   1.193   6.655  10.253 -0.6689 -0.5309 -0.8681
  173SAPI   H3X19636   1.292   6.607  10.269  1.0225  2.9232  0.1835
  173SAPI   H3Y19637   1.221   6.762  10.266  0.0492 -0.8766  0.7419
  173SAPI   C3419638   1.127   6.642  10.120 -0.2305  0.9575  0.6251
  173SAPI   H4X19639   1.040   6.711  10.120 -0.4038  0.7391  0.7449
  173SAPI   H4Y19640   1.096   6.537  10.101 -1.2010  1.2318  0.6476
  173SAPI   C3519641   1.218   6.686  10.002  0.0804 -0.2946 -0.8349
  173SAPI   H5X19642   1.318   6.639  10.014 -0.1606 -0.7055 -0.4326
  173SAPI   H5Y19643   1.236   6.796  10.012 -0.8343 -0.3033  1.4303
  173SAPI   C3619644   1.158   6.651   9.868  0.0748  0.0408  1.1435
  173SAPI   H6X19645   1.054   6.690   9.866 -0.6589 -1.0455 -5.3075
  173SAPI   H6Y19646   1.138   6.542   9.875 -1.2234  0.3189  2.1486
  173SAPI   C3719647   1.247   6.698   9.745 -0.3451 -0.7063  1.0887
  173SAPI   H7X19648   1.346   6.651   9.761 -0.6524 -1.1895  1.6214
  173SAPI   H7Y19649   1.266   6.807   9.746  0.4718 -0.8192 -0.1199
  173SAPI   C3819650   1.176   6.657   9.618 -0.8034  0.3131  0.4298
  173SAPI   H8X19651   1.076   6.705   9.621 -0.8098  0.6937 -2.7073
  173SAPI   H8Y19652   1.170   6.546   9.621  1.0770  0.1877  0.8489
  173SAPI   C3919653   1.242   6.702   9.490  0.0038  0.2774  0.0407
  173SAPI   H9X19654   1.207   6.645   9.401  0.4609 -1.9366  1.1945
  173SAPI   H9Y19655   1.350   6.676   9.492 -0.0769 -0.0035  0.6892
  173SAPI  C31019656   1.233   6.852   9.475 -0.3233 -0.9192  0.0341
  173SAPI  H10X19657   1.285   6.891   9.565 -1.8732  0.3387  0.4264
  173SAPI  H10Y19658   1.124   6.872   9.480 -0.5665 -1.8904 -0.9459
  173SAPI  C31119659   1.317   6.900   9.355 -0.1388 -0.3191  0.1251
  173SAPI  H11X19660   1.313   6.831   9.268  1.1041  0.5873 -0.6911
  173SAPI  H11Y19661   1.425   6.895   9.379  0.5259  0.7894 -2.3413
  173SAPI  C31219662   1.275   7.046   9.317 -0.5731 -0.1113  0.0228
  173SAPI  H12X19663   1.296   7.119   9.398  0.4997  0.4568 -0.7291
  173SAPI  H12Y19664   1.166   7.041   9.298 -0.4623 -2.2301 -0.2681
  173SAPI  C31319665   1.347   7.099   9.191  0.0014  0.2001  0.4792
  173SAPI  H13X19666   1.321   7.034   9.105 -1.2726 -0.1654  1.1284
  173SAPI  H13Y19667   1.457   7.115   9.201 -0.0118  3.8972 -2.7225
  173SAPI  C31419668   1.307   7.243   9.148 -0.3272  0.4445  0.0969
  173SAPI  H14X19669   1.345   7.306   9.231  0.9933 -0.5542  0.2942
  173SAPI  H14Y19670   1.198   7.258   9.136 -0.6912 -0.9829  1.2346
  173SAPI  C31519671   1.379   7.268   9.017  0.9467  0.1802  0.1034
  173SAPI  H15X19672   1.357   7.184   8.948 -1.2819  0.7084  0.1093
  173SAPI  H15Y19673   1.488   7.263   9.038  1.3970  1.6752 -1.5410
  173SAPI  C31619674   1.351   7.404   8.955  1.1441 -0.2514 -0.1137
  173SAPI  H16X19675   1.381   7.477   9.033 -0.6002  3.0439 -2.3280
  173SAPI  H16Y19676   1.242   7.408   8.934  1.0120 -1.0542  0.3317
  173SAPI  C31719677   1.430   7.424   8.829  0.1324 -0.3373  0.0870
  173SAPI  H17X19678   1.382   7.371   8.744  1.6075 -0.6012 -0.6092
  173SAPI  H17Y19679   1.530   7.380   8.849  0.3793  0.3930  0.4900
  173SAPI  C31819680   1.447   7.579   8.817 -0.4573  0.0665  0.4708
  173SAPI  H18X19681   1.477   7.621   8.915 -0.3973  0.1322  0.4233
  173SAPI  H18Y19682   1.350   7.631   8.800 -0.8196 -0.5073  0.7393
  173SAPI  H18Z19683   1.504   7.595   8.723 -0.3040 -0.0550  0.5435
  174SAPI   C1219684   4.928   6.321  11.262  0.1129 -0.2898 -0.3060
  174SAPI    H219685   4.935   6.213  11.287  3.6231 -0.0304  0.3271
  174SAPI    O219686   4.800   6.364  11.302  0.8639 -0.3675  0.0855
  174SAPI   HO219687   4.739   6.328  11.237  0.9114 -1.5527  0.6778
  174SAPI   C1319688   5.037   6.392  11.344 -1.0184  0.5547 -1.1613
  174SAPI    H319689   5.141   6.368  11.312  0.4873  1.5226  2.4858
  174SAPI    O319690   5.015   6.361  11.483 -1.0266  0.2734  0.0391
  174SAPI   HO319691   4.921   6.365  11.504 -0.8549  0.5334  0.7953
  174SAPI   C1419692   5.024   6.543  11.322 -0.7411  0.0454  0.4459
  174SAPI    H419693   4.921   6.574  11.352 -1.0732 -1.4900  0.9580
  174SAPI    O419694   5.105   6.629  11.405  0.2333  0.6218  0.0034
  174SAPI   HO419695   5.130   6.563  11.470 -1.5116 -1.6694 -1.4843
  174SAPI   C1519696   5.055   6.571  11.176 -0.7102 -0.3945 -0.1365
  174SAPI    H519697   5.157   6.538  11.147 -0.6714  0.0660 -0.5213
  174SAPI    O519698   5.047   6.709  11.141 -0.3561 -0.5010  0.0658
  174SAPI   HO519699   5.091   6.732  11.058 -2.5507  1.9984 -0.5440
  174SAPI   C1619700   4.958   6.491  11.090 -0.5370  0.0062  0.3153
  174SAPI    H619701   4.857   6.532  11.110  0.5400  2.2263  1.4937
  174SAPI    O619702   4.989   6.512  10.944 -0.1174  0.1824  0.2942
  174SAPI   HO619703   4.913   6.491  10.891 -0.2222  2.7291 -0.7080
  174SAPI   C1119704   4.960   6.343  11.112 -0.0327 -0.0895  0.3583
  174SAPI    H119705   5.065   6.314  11.094 -0.1359 -1.1946  1.4749
  174SAPI     P19706   4.920   6.131  10.962 -0.2260 -0.0628 -0.6897
  174SAPI   O1319707   4.800   6.059  10.909  0.2798  0.3594 -0.3028
  174SAPI   O1419708   5.000   6.058  11.061 -0.4703  0.2852 -0.4163
  174SAPI   O1219709   4.862   6.270  11.030 -0.3693  0.2061  0.0610
  174SAPI   O1119710   5.012   6.165  10.838  0.2132 -0.6379  0.4503
  174SAPI    C119711   4.961   6.200  10.709  0.1736  0.2764  0.6071
  174SAPI    HA19712   4.857   6.239  10.706 -0.7859 -2.1805 -2.0117
  174SAPI    HB19713   5.028   6.277  10.665 -1.0271  1.0280  0.0508
  174SAPI    C219714   4.961   6.080  10.613 -0.3549  0.1757 -0.8832
  174SAPI    HS19715   4.923   5.996  10.675  0.4145 -0.2746 -1.0019
  174SAPI   O2119716   5.095   6.043  10.565  0.3607  0.4123  0.5583
  174SAPI   C2119717   5.164   5.965  10.647 -0.0565 -0.5116  0.4356
  174SAPI   O2219718   5.110   5.902  10.735  0.1234  0.4528 -0.2717
  174SAPI   C2219719   5.313   5.971  10.607  0.6182  0.0942  0.0028
  174SAPI   H2R19720   5.357   6.074  10.607  2.6005 -0.7064  0.6487
  174SAPI   H2S19721   5.356   5.911  10.690  0.0158  1.5739  1.4446
  174SAPI    C319722   4.859   6.104  10.498 -0.7372 -0.3794  0.3095
  174SAPI    HX19723   4.880   6.193  10.436 -0.7835  0.8693  2.0177
  174SAPI    HY19724   4.755   6.125  10.532 -0.1619  1.7510  0.8942
  174SAPI   O3119725   4.880   5.998  10.400  0.3543 -0.0337 -0.6062
  174SAPI   C3119726   4.825   5.888  10.439 -0.1703  0.5108 -0.0835
  174SAPI   O3219727   4.739   5.881  10.534 -0.3265 -0.0205 -0.1618
  174SAPI   C3219728   4.878   5.766  10.365  0.0199  0.2340  0.2967
  174SAPI   H2X19729   4.793   5.704  10.329  1.2621 -1.6350  0.4578
  174SAPI   H2Y19730   4.937   5.692  10.424  1.6307  1.3363  0.1451
  174SAPI   C2319731   5.349   5.912  10.459  0.1634 -0.0535 -0.5164
  174SAPI   H3R19732   5.283   5.978  10.398 -0.5783 -0.6692 -0.4019
  174SAPI   H3S19733   5.304   5.811  10.452  0.6695 -0.4232  1.1608
  174SAPI   C2419734   5.501   5.911  10.427  0.3961 -0.2670 -0.2013
  174SAPI   H4R19735   5.542   6.015  10.421 -1.4414  0.4268 -2.0104
  174SAPI   H4S19736   5.504   5.883  10.319 -0.6075  0.9464 -0.5763
  174SAPI   C2519737   5.593   5.835  10.521  0.4608 -0.6407 -0.6625
  174SAPI   H5R19738   5.557   5.832  10.625 -0.1178  0.7771 -0.7911
  174SAPI   C2619739   5.701   5.777  10.489  0.6578 -0.0149  0.6959
  174SAPI   H6R19740   5.760   5.728  10.568  0.5901 -1.2439  0.0075
  174SAPI   C2719741   5.771   5.767  10.351 -0.4128  0.1267 -0.2433
  174SAPI   H7R19742   5.880   5.751  10.362 -0.7859 -2.5308  0.1585
  174SAPI   H7S19743   5.777   5.866  10.299  3.6106  0.9854  1.4689
  174SAPI   C2819744   5.688   5.671  10.258 -0.3754 -0.4648 -0.1942
  174SAPI   H8R19745   5.594   5.632  10.299 -1.4613  1.3550 -0.8575
  174SAPI   C2919746   5.695   5.651  10.129  0.3141 -0.0481  0.7028
  174SAPI   H9R19747   5.627   5.580  10.081 -1.2672  1.7885  0.1131
  174SAPI  C21019748   5.791   5.709  10.025 -0.0063  0.4602  0.4729
  174SAPI  H10R19749   5.895   5.684  10.053 -0.4814  0.1548  2.0861
  174SAPI  H10S19750   5.792   5.820  10.030 -1.5251  0.6432 -1.7344
  174SAPI  C21119751   5.770   5.658   9.881 -0.6692  0.4385 -0.4549
  174SAPI  H11R19752   5.720   5.562   9.863 -2.4535  0.9851  1.2284
  174SAPI  C21219753   5.792   5.738   9.771 -0.1166  0.1876 -0.3410
  174SAPI  H12R19754   5.791   5.690   9.672 -2.3849 -0.5191 -0.0400
  174SAPI  C21319755   5.845   5.885   9.777  0.2063  0.3435 -0.4783
  174SAPI  H13R19756   5.787   5.931   9.861 -0.9676 -1.7303 -0.0948
  174SAPI  H13S19757   5.815   5.939   9.685 -1.0321 -0.1074 -0.3512
  174SAPI  C21419758   5.988   5.911   9.815  0.6451  0.2348 -0.3873
  174SAPI  H14R19759   5.999   5.873   9.917 -1.6019  0.5056  0.0051
  174SAPI  C21519760   6.081   5.985   9.754  0.0662  0.2381  0.3596
  174SAPI  H15R19761   6.179   5.994   9.802 -0.5416 -0.1232  1.7267
  174SAPI  C21619762   6.069   6.048   9.615  0.2688 -0.6206  0.2575
  174SAPI  H16R19763   6.058   6.159   9.614 -1.8745 -0.8087 -0.3327
  174SAPI  H16S19764   5.987   6.001   9.557  0.3430 -0.8037  0.3001
  174SAPI  C21719765   6.195   6.025   9.528 -0.6561 -0.0600  0.7305
  174SAPI  H17R19766   6.282   6.085   9.561  1.1820 -2.8418  1.2320
  174SAPI  H17S19767   6.179   6.071   9.428 -0.5820  0.7695  1.0911
  174SAPI  C21819768   6.235   5.876   9.517  0.9496  0.3592 -0.2372
  174SAPI  H18R19769   6.146   5.814   9.491  0.9134 -0.1797  1.0557
  174SAPI  H18S19770   6.272   5.836   9.614 -0.4918 -4.1367 -1.2885
  174SAPI  C21919771   6.350   5.849   9.419  0.4113  0.4287 -0.4535
  174SAPI  H19R19772   6.440   5.906   9.450  0.5012  0.5789 -0.9838
  174SAPI  H19S19773   6.329   5.886   9.317  0.6078 -1.2640 -1.1335
  174SAPI  C22019774   6.373   5.700   9.411 -0.6288 -0.0246  0.4789
  174SAPI  H20R19775   6.406   5.656   9.508  0.7774 -0.4518 -0.1574
  174SAPI  H20S19776   6.445   5.673   9.330  0.0422  1.6638  0.4676
  174SAPI  H20T19777   6.275   5.655   9.388 -0.4502  0.2731 -0.9128
  174SAPI   C3319778   4.958   5.807  10.234 -0.5918 -0.9608 -0.1033
  174SAPI   H3X19779   5.057   5.848  10.265 -1.1561  0.3984 -0.0337
  174SAPI   H3Y19780   4.904   5.880  10.171 -0.6186  0.0656  1.0768
  174SAPI   C3419781   4.987   5.686  10.145  0.2636  0.3004 -0.2777
  174SAPI   H4X19782   4.892   5.638  10.114  0.6664 -1.6028  1.2284
  174SAPI   H4Y19783   5.036   5.607  10.206 -1.8979 -2.1268 -1.4751
  174SAPI   C3519784   5.069   5.705  10.018 -0.0331 -0.5103 -0.3607
  174SAPI   H5X19785   5.068   5.615   9.952  0.9419 -0.4088 -0.5320
  174SAPI   H5Y19786   5.175   5.722  10.048  0.7007 -1.5388 -2.2028
  174SAPI   C3619787   5.015   5.826   9.930  0.3248 -1.0060  0.3835
  174SAPI   H6X19788   5.093   5.855   9.856 -0.1870  1.9842  0.9153
  174SAPI   H6Y19789   5.005   5.922   9.983  0.2415  1.4493 -3.6375
  174SAPI   C3719790   4.891   5.793   9.846  0.6362  0.2414 -0.3457
  174SAPI   H7X19791   4.809   5.769   9.916  2.5260  1.0058  2.3193
  174SAPI   H7Y19792   4.917   5.692   9.807  2.9967 -0.0616  1.7127
  174SAPI   C3819793   4.846   5.904   9.749 -0.5378  1.0860 -0.3156
  174SAPI   H8X19794   4.869   6.005   9.789  1.8657 -0.6558  3.1810
  174SAPI   H8Y19795   4.736   5.900   9.732 -0.4182  0.7679 -1.0746
  174SAPI   C3919796   4.922   5.873   9.617  0.2081 -1.1776 -0.2396
  174SAPI   H9X19797   4.890   5.771   9.587 -0.0400 -1.1028 -0.2298
  174SAPI   H9Y19798   5.032   5.870   9.637  0.1515  0.9394  0.6579
  174SAPI  C31019799   4.902   5.981   9.504  0.1760  1.0504 -0.3794
  174SAPI  H10X19800   4.925   6.087   9.531 -0.0946  2.0305 -3.6148
  174SAPI  H10Y19801   4.793   5.976   9.488  0.2801  2.6636 -1.9842
  174SAPI  C31119802   4.964   5.942   9.371 -0.0959  0.5506 -0.2926
  174SAPI  H11X19803   4.933   5.841   9.336  3.9048 -1.3164  0.9450
  174SAPI  H11Y19804   5.073   5.927   9.381 -0.2165 -1.1401 -1.1779
  174SAPI  C31219805   4.940   6.042   9.262 -0.0543  0.6412  0.2019
  174SAPI  H12X19806   5.004   6.132   9.275 -1.4257  1.5724  0.6828
  174SAPI  H12Y19807   4.833   6.073   9.257 -0.4846 -0.6070  1.1469
  174SAPI  C31319808   4.994   5.988   9.130  0.5248  0.6692  0.5926
  174SAPI  H13X19809   4.936   5.898   9.100  3.1929 -0.6152 -1.0331
  174SAPI  H13Y19810   5.097   5.947   9.137  0.0240 -0.6126  0.5935
  174SAPI  C31419811   4.963   6.095   9.024  0.2383 -0.8541  0.2679
  174SAPI  H14X19812   5.020   6.187   9.049 -0.0425 -0.3089 -0.9936
  174SAPI  H14Y19813   4.861   6.139   9.026  0.6293  0.1622 -0.7139
  174SAPI  C31519814   5.001   6.054   8.886  0.1957 -0.2064 -0.2240
  174SAPI  H15X19815   4.922   5.989   8.841 -1.6475  1.1047  0.9426
  174SAPI  H15Y19816   5.103   6.011   8.887  0.0360 -0.5781  0.4784
  174SAPI  C31619817   4.996   6.170   8.788  0.0720 -0.3453 -0.6381
  174SAPI  H16X19818   5.087   6.223   8.821 -1.2580  0.0670  2.7861
  174SAPI  H16Y19819   4.908   6.236   8.806  1.8975  2.2393 -0.6832
  174SAPI  C31719820   4.987   6.132   8.636 -0.1223 -0.0657 -0.4751
  174SAPI  H17X19821   4.989   6.230   8.584 -0.5786  0.5125  0.5782
  174SAPI  H17Y19822   4.886   6.091   8.616 -0.8277  1.1974  0.3809
  174SAPI  C31819823   5.079   6.018   8.589 -0.1296  0.2861  0.2678
  174SAPI  H18X19824   5.058   5.934   8.659 -3.3394 -2.3376 -3.4358
  174SAPI  H18Y19825   5.187   6.046   8.595 -0.2247  0.4342  1.9114
  174SAPI  H18Z19826   5.044   5.976   8.493 -0.8357 -1.6625  1.3117
  175SAPI   C1219827   6.715   4.288   6.075  0.3483 -0.4430  0.1442
  175SAPI    H219828   6.742   4.183   6.097  0.4141 -0.2374  1.0756
  175SAPI    O219829   6.814   4.349   5.991 -0.6851  0.1278 -0.2889
  175SAPI   HO219830   6.890   4.371   6.046 -1.9157  1.1896  1.0595
  175SAPI   C1319831   6.587   4.295   6.005  1.3506  0.0529 -0.0144
  175SAPI    H319832   6.503   4.244   6.056  0.1439 -0.1357 -2.0612
  175SAPI    O319833   6.595   4.235   5.871  0.0297  0.3590 -0.3780
  175SAPI   HO319834   6.511   4.220   5.827 -0.2862  3.6982 -1.2002
  175SAPI   C1419835   6.548   4.438   5.993 -0.1705 -0.3396  0.1855
  175SAPI    H419836   6.628   4.490   5.936  1.2704 -0.7097  1.7946
  175SAPI    O419837   6.429   4.463   5.927  0.0898  0.2624  0.0381
  175SAPI   HO419838   6.433   4.546   5.881  1.9382  0.8734  1.1923
  175SAPI   C1519839   6.559   4.516   6.123  0.1767  0.0254 -0.3003
  175SAPI    H519840   6.483   4.465   6.186  1.9896 -2.7092 -0.1565
  175SAPI    O519841   6.520   4.654   6.106  0.1325  0.4403  0.4977
  175SAPI   HO519842   6.575   4.702   6.043 -0.9715  0.1561 -0.7467
  175SAPI   C1619843   6.700   4.508   6.181  1.1564 -0.4050 -0.1976
  175SAPI    H619844   6.768   4.558   6.109 -0.7685 -1.2421 -2.7541
  175SAPI    O619845   6.705   4.573   6.309 -0.0290 -0.2709  0.3402
  175SAPI   HO619846   6.796   4.561   6.337 -0.2449  0.0106  1.1810
  175SAPI   C1119847   6.732   4.365   6.210  0.6825  0.1657 -0.0376
  175SAPI    H119848   6.655   4.316   6.274 -0.2204  1.6291  0.0295
  175SAPI     P19849   6.897   4.208   6.361  0.0118 -0.1875  0.2175
  175SAPI   O1319850   7.025   4.223   6.430 -0.2408 -0.0733 -0.0306
  175SAPI   O1419851   6.878   4.090   6.274 -0.1372 -0.8834  0.0514
  175SAPI   O1219852   6.860   4.349   6.269  0.8715 -0.3147  0.1055
  175SAPI   O1119853   6.781   4.206   6.462 -0.7762  0.0989  0.0156
  175SAPI    C119854   6.744   4.321   6.536  0.4804 -0.1839 -0.2067
  175SAPI    HA19855   6.743   4.417   6.479  0.3573  0.2496  0.5001
  175SAPI    HB19856   6.637   4.311   6.565  0.9375  0.0719  1.7722
  175SAPI    C219857   6.827   4.343   6.665 -0.0913 -0.0995 -0.1059
  175SAPI    HS19858   6.920   4.383   6.618  0.5027  0.7186  1.6426
  175SAPI   O2119859   6.848   4.210   6.721  0.0549  0.0742 -0.4086
  175SAPI   C2119860   6.946   4.219   6.811  0.0113  0.6018 -0.4148
  175SAPI   O2219861   7.033   4.303   6.821 -0.3309 -0.0573  0.3591
  175SAPI   C2219862   6.965   4.085   6.890 -0.3367 -0.7732 -0.4301
  175SAPI   H2R19863   6.997   4.014   6.810 -1.7918 -0.9319 -0.8944
  175SAPI   H2S19864   7.050   4.095   6.961 -0.4520  1.9800 -0.5837
  175SAPI    C319865   6.773   4.440   6.769  0.0342  0.2296 -0.2499
  175SAPI    HX19866   6.751   4.532   6.710 -0.2441 -1.2008 -2.5116
  175SAPI    HY19867   6.846   4.459   6.850 -0.6592 -0.8476  0.6476
  175SAPI   O3119868   6.644   4.393   6.815  0.3136 -0.1245  0.1206
  175SAPI   C3119869   6.641   4.375   6.945  0.5703  0.3386 -0.3164
  175SAPI   O3219870   6.732   4.362   7.021  0.0057 -0.4066  0.0222
  175SAPI   C3219871   6.502   4.327   6.978  0.1628  0.7054 -0.1510
  175SAPI   H2X19872   6.484   4.231   6.926 -2.0373  2.1689 -2.3288
  175SAPI   H2Y19873   6.428   4.401   6.942 -0.5806 -0.6596 -1.5323
  175SAPI   C2319874   6.848   4.014   6.959 -0.1277  0.4180 -0.5737
  175SAPI   H3R19875   6.853   3.906   6.930  0.0869  0.5123 -0.8919
  175SAPI   H3S19876   6.747   4.053   6.934 -1.3170 -0.7350  2.0527
  175SAPI   C2419877   6.857   4.015   7.111 -0.2045 -0.2628  0.0247
  175SAPI   H4R19878   6.861   4.120   7.148  0.3665 -0.7735  1.4406
  175SAPI   H4S19879   6.957   3.979   7.141 -0.2201 -0.2610  0.0790
  175SAPI   C2519880   6.750   3.946   7.189 -0.1303  0.1025 -0.6033
  175SAPI   H5R19881   6.715   3.847   7.155  0.0471 -0.2596  0.2435
  175SAPI   C2619882   6.704   3.988   7.310 -0.2463 -0.5297  0.0515
  175SAPI   H6R19883   6.633   3.923   7.364 -0.9659 -1.0748 -1.4854
  175SAPI   C2719884   6.748   4.111   7.378 -0.0506 -0.5803  0.1005
  175SAPI   H7R19885   6.657   4.159   7.420  0.2840 -0.8131  1.1060
  175SAPI   H7S19886   6.790   4.191   7.314  1.8207 -0.6959  1.1178
  175SAPI   C2819887   6.838   4.086   7.493 -0.2998 -0.3744 -0.4150
  175SAPI   H8R19888   6.945   4.103   7.473 -0.3652 -0.4417 -0.8442
  175SAPI   C2919889   6.803   4.042   7.616  0.6673 -0.7058 -0.4858
  175SAPI   H9R19890   6.884   4.026   7.688  0.4134  0.0393 -0.0294
  175SAPI  C21019891   6.667   4.011   7.668  0.1247 -0.1857 -0.1542
  175SAPI  H10R19892   6.688   3.954   7.761  1.6609 -0.1085 -0.4399
  175SAPI  H10S19893   6.609   3.948   7.596  0.6937 -0.0605 -0.7357
  175SAPI  C21119894   6.576   4.129   7.701 -0.1196  0.4622  0.7134
  175SAPI  H11R19895   6.506   4.151   7.619 -0.1471 -0.5485  0.4408
  175SAPI  C21219896   6.547   4.183   7.825  0.3837 -0.2955 -0.1245
  175SAPI  H12R19897   6.478   4.268   7.824  1.4479  0.5938 -1.1315
  175SAPI  C21319898   6.604   4.142   7.954  0.6329 -0.4273 -0.5772
  175SAPI  H13R19899   6.711   4.115   7.938  0.2913 -1.1890 -1.7114
  175SAPI  H13S19900   6.544   4.056   7.991  1.1310 -0.2001  0.8300
  175SAPI  C21419901   6.595   4.259   8.046 -0.1623 -0.3212  0.3023
  175SAPI  H14R19902   6.628   4.355   8.005 -0.5255 -0.1861  0.3168
  175SAPI  C21519903   6.542   4.266   8.166  0.9385  0.0638 -0.5906
  175SAPI  H15R19904   6.549   4.364   8.216  0.8675  0.0805 -0.6136
  175SAPI  C21619905   6.487   4.147   8.246  0.8115 -0.0680 -0.1226
  175SAPI  H16R19906   6.510   4.045   8.208 -0.1921 -0.3946  0.1119
  175SAPI  H16S19907   6.377   4.156   8.230  1.1589  0.0445 -3.1770
  175SAPI  C21719908   6.512   4.157   8.397  0.5330  0.2578 -0.8112
  175SAPI  H17R19909   6.460   4.254   8.412  1.2080  0.4587  0.3167
  175SAPI  H17S19910   6.617   4.172   8.430  1.0819  0.6087 -2.6175
  175SAPI  C21819911   6.444   4.049   8.483  0.5369 -0.6559 -1.0169
  175SAPI  H18R19912   6.516   3.965   8.479 -0.7062 -1.9191  1.3856
  175SAPI  H18S19913   6.343   4.035   8.439  1.1885 -0.2057 -2.7352
  175SAPI  C21919914   6.431   4.087   8.631 -0.2022  0.0986 -0.6299
  175SAPI  H19R19915   6.519   4.151   8.655 -1.3646  1.5616 -0.1628
  175SAPI  H19S19916   6.424   4.008   8.708 -0.4055  1.9445  1.3271
  175SAPI  C22019917   6.303   4.165   8.654 -0.0761 -0.2954  0.2437
  175SAPI  H20R19918   6.211   4.104   8.645  0.6297 -1.6041  1.4608
  175SAPI  H20S19919   6.298   4.228   8.563  1.5789 -1.1569 -0.4976
  175SAPI  H20T19920   6.310   4.231   8.743  0.6312  0.1364 -0.1173
  175SAPI   C3319921   6.482   4.289   7.129 -0.8656  0.2673  0.0500
  175SAPI   H3X19922   6.576   4.312   7.183 -1.3952 -0.0122  1.1053
  175SAPI   H3Y19923   6.476   4.179   7.136 -1.0217  0.4039  3.7833
  175SAPI   C3419924   6.382   4.374   7.211  0.6070  0.5132 -0.1937
  175SAPI   H4X19925   6.284   4.364   7.159  0.2603 -1.5101  0.7383
  175SAPI   H4Y19926   6.400   4.483   7.204 -1.6827  0.9583  0.1199
  175SAPI   C3519927   6.364   4.321   7.354  0.4903 -0.6388 -0.0641
  175SAPI   H5X19928   6.459   4.301   7.410  0.2741 -0.6388  0.3058
  175SAPI   H5Y19929   6.311   4.224   7.344 -2.2987  0.8934 -1.0827
  175SAPI   C3619930   6.275   4.403   7.443 -0.5704  0.3132 -0.0979
  175SAPI   H6X19931   6.175   4.410   7.396 -0.0352  0.4141 -1.2659
  175SAPI   H6Y19932   6.318   4.497   7.485 -0.2432  0.0102  0.2543
  175SAPI   C3719933   6.250   4.326   7.577 -0.3348 -0.5066 -0.0261
  175SAPI   H7X19934   6.345   4.283   7.615 -0.2969  0.1018  0.5716
  175SAPI   H7Y19935   6.188   4.236   7.552  1.2864 -1.6101 -0.2727
  175SAPI   C3819936   6.178   4.420   7.684  0.7349 -0.6641  0.7667
  175SAPI   H8X19937   6.080   4.460   7.649  1.3125 -0.8900 -1.2051
  175SAPI   H8Y19938   6.240   4.510   7.701  0.8966 -0.8604  1.2314
  175SAPI   C3919939   6.151   4.354   7.821 -0.3651 -0.1669  0.3326
  175SAPI   H9X19940   6.244   4.296   7.840  0.9276  1.3259 -1.0271
  175SAPI   H9Y19941   6.071   4.278   7.810  1.0975 -2.0090  1.7773
  175SAPI  C31019942   6.113   4.449   7.937  0.4430  0.4456  0.2597
  175SAPI  H10X19943   6.097   4.389   8.029  3.6332 -0.8487  0.0786
  175SAPI  H10Y19944   6.012   4.490   7.915 -0.6533 -1.6734  1.1207
  175SAPI  C31119945   6.212   4.566   7.954  0.2141  0.8352  0.3176
  175SAPI  H11X19946   6.195   4.643   7.875 -1.1299 -0.1176 -0.3583
  175SAPI  H11Y19947   6.314   4.528   7.929  0.0070  0.5856 -0.1601
  175SAPI  C31219948   6.202   4.651   8.083 -0.3660  0.1076  0.4262
  175SAPI  H12X19949   6.095   4.682   8.086 -0.7929 -1.3549  2.2225
  175SAPI  H12Y19950   6.270   4.736   8.067  0.8380 -0.8389  0.3818
  175SAPI  C31319951   6.241   4.580   8.209 -0.5065  0.6950  0.1123
  175SAPI  H13X19952   6.337   4.524   8.209 -0.0273  1.2089  4.1283
  175SAPI  H13Y19953   6.170   4.503   8.244  1.8562 -2.4404 -1.4674
  175SAPI  C31419954   6.259   4.677   8.330  0.4762 -0.3841  0.0635
  175SAPI  H14X19955   6.157   4.719   8.339 -0.4763 -1.8246 -2.7235
  175SAPI  H14Y19956   6.323   4.763   8.299 -2.1025  2.0145  1.0338
  175SAPI  C31519957   6.299   4.607   8.459  0.6420  0.1317 -0.2496
  175SAPI  H15X19958   6.401   4.572   8.433  0.6972 -0.7511  1.0745
  175SAPI  H15Y19959   6.241   4.514   8.479 -0.3209  0.9712  0.9780
  175SAPI  C31619960   6.291   4.689   8.589 -0.1019  0.6379 -0.1337
  175SAPI  H16X19961   6.213   4.767   8.576 -0.6999  0.1134  0.2711
  175SAPI  H16Y19962   6.395   4.725   8.607  0.2517 -1.4747  2.7926
  175SAPI  C31719963   6.242   4.598   8.707 -0.2276  0.5170  0.8700
  175SAPI  H17X19964   6.296   4.502   8.720 -0.8909  0.2561  1.7838
  175SAPI  H17Y19965   6.140   4.561   8.682  0.1419 -0.3859  0.6501
  175SAPI  C31819966   6.241   4.667   8.847  0.1490  0.1481 -0.0087
  175SAPI  H18X19967   6.340   4.675   8.897 -1.0894  1.0386  2.4520
  175SAPI  H18Y19968   6.190   4.591   8.911 -1.1060 -1.1004 -2.3755
  175SAPI  H18Z19969   6.184   4.762   8.835 -0.5438 -0.5032 -2.5605
  176SAPI   C1219970   5.884   1.466   6.145 -0.1277  0.7115  0.3895
  176SAPI    H219971   5.915   1.566   6.108  1.5227 -0.2936 -1.0219
  176SAPI    O219972   5.750   1.465   6.188 -0.1743 -0.3245  0.0593
  176SAPI   HO219973   5.748   1.507   6.274  0.6054  1.2702 -0.6532
  176SAPI   C1319974   5.912   1.377   6.026  0.1450 -0.2344 -0.0958
  176SAPI    H319975   6.013   1.393   5.982  0.1240  4.1845  0.9330
  176SAPI    O319976   5.830   1.419   5.917 -0.6723  0.4702 -0.6795
  176SAPI   HO319977   5.753   1.464   5.952 -0.5975 -1.0980  1.8122
  176SAPI   C1419978   5.893   1.225   6.058 -0.3446 -0.1400 -0.3495
  176SAPI    H419979   5.788   1.201   6.085 -0.2965  0.5948  0.5055
  176SAPI    O419980   5.909   1.139   5.942  0.5636  0.0329 -0.3843
  176SAPI   HO419981   5.904   1.199   5.867 -0.1114 -0.3530 -0.6478
  176SAPI   C1519982   5.981   1.184   6.178  0.1632 -0.0037  0.6692
  176SAPI    H519983   6.083   1.211   6.143 -0.8007  1.4950 -1.1458
  176SAPI    O519984   5.972   1.039   6.204  0.1214 -0.1776  0.8615
  176SAPI   HO519985   6.047   1.016   6.258  0.9679  0.0546 -0.1851
  176SAPI   C1619986   5.951   1.272   6.295 -0.0784 -0.0552 -0.1223
  176SAPI    H619987   5.845   1.243   6.310  0.1613 -0.4571  0.8448
  176SAPI    O619988   6.035   1.235   6.403  0.3341 -0.4829 -0.6702
  176SAPI   HO619989   6.122   1.274   6.392  0.8090 -0.8809  1.2432
  176SAPI   C1119990   5.966   1.425   6.260 -0.3762 -0.2694 -0.7303
  176SAPI    H119991   6.075   1.433   6.239  0.0902  0.5785  1.7022
  176SAPI     P19992   6.007   1.650   6.405 -0.0067  0.2745  0.7236
  176SAPI   O1319993   5.923   1.748   6.478  0.0720 -0.4767 -0.1812
  176SAPI   O1419994   6.059   1.695   6.271  0.3887 -0.1840 -0.0747
  176SAPI   O1219995   5.932   1.503   6.373  0.0189 -0.4729  0.1529
  176SAPI   O1119996   6.132   1.614   6.500  0.1682  0.1694  0.0774
  176SAPI    C119997   6.115   1.522   6.600  0.1421 -0.4904 -0.1513
  176SAPI    HA19998   6.063   1.427   6.574 -1.6386 -1.0123  4.3617
  176SAPI    HB19999   6.213   1.483   6.634  0.3284 -0.6175 -0.8074
  176SAPI    C220000   6.034   1.572   6.726 -0.2414 -0.1341  0.2013
  176SAPI    HS20001   5.934   1.610   6.694  0.0566  0.3633 -0.1598
  176SAPI   O2120002   6.116   1.670   6.789 -0.4251 -0.1783  0.1530
  176SAPI   C2120003   6.052   1.749   6.866 -0.8112 -0.0807  0.6256
  176SAPI   O2220004   5.932   1.782   6.858  0.6387  0.5906 -0.5244
  176SAPI   C2220005   6.149   1.802   6.973 -0.7857 -0.8128  0.0068
  176SAPI   H2R20006   6.230   1.726   6.981  0.9520  1.0743  1.2542
  176SAPI   H2S20007   6.195   1.890   6.925 -0.4938 -0.7247  0.4447
  176SAPI    C320008   6.004   1.445   6.818  0.5993 -0.0079  0.0900
  176SAPI    HX20009   6.105   1.398   6.820 -0.7352 -3.2175 -1.5877
  176SAPI    HY20010   5.937   1.386   6.753 -0.5985  0.4838  0.8576
  176SAPI   O3120011   5.961   1.471   6.953  0.2912 -0.2728  0.5956
  176SAPI   C3120012   5.961   1.353   7.009  0.2659  0.5027 -0.0702
  176SAPI   O3220013   5.999   1.248   6.958 -0.7114 -0.1715  0.3834
  176SAPI   C3220014   5.892   1.364   7.152 -0.0553 -0.8618  0.2926
  176SAPI   H2X20015   5.809   1.290   7.155 -0.3767 -0.4854  2.0577
  176SAPI   H2Y20016   5.856   1.467   7.170  1.6741 -0.4033  1.4115
  176SAPI   C2320017   6.091   1.848   7.110 -0.0242 -0.8224  0.2430
  176SAPI   H3R20018   6.001   1.787   7.132 -1.6370  1.5881  0.6561
  176SAPI   H3S20019   6.069   1.957   7.107 -0.1177 -0.8447 -2.4489
  176SAPI   C2420020   6.191   1.816   7.223 -0.1398 -0.2662  0.6914
  176SAPI   H4R20021   6.238   1.716   7.210 -1.5784 -1.0344  1.1696
  176SAPI   H4S20022   6.130   1.803   7.315 -0.2067 -2.5477  0.3779
  176SAPI   C2520023   6.306   1.920   7.228  1.1324  0.3082  0.5555
  176SAPI   H5R20024   6.368   1.916   7.137  1.1296 -1.0222  0.5823
  176SAPI   C2620025   6.327   2.012   7.326 -0.0422  0.9842  0.5299
  176SAPI   H6R20026   6.409   2.085   7.317  0.9324 -0.2634 -1.5240
  176SAPI   C2720027   6.241   2.039   7.448 -0.3073 -0.2768  0.0621
  176SAPI   H7R20028   6.138   2.030   7.408 -0.1740  0.0457 -0.3686
  176SAPI   H7S20029   6.248   2.145   7.482 -1.3751  0.4164 -1.7579
  176SAPI   C2820030   6.269   1.948   7.567  0.3622  0.1032  0.5461
  176SAPI   H8R20031   6.280   1.844   7.533 -0.2741  0.2299 -0.0704
  176SAPI   C2920032   6.255   1.972   7.697  0.0598  0.1031  0.7479
  176SAPI   H9R20033   6.261   1.894   7.774 -0.2020 -1.5705 -0.8659
  176SAPI  C21020034   6.220   2.097   7.761 -0.6419  0.0496 -0.3555
  176SAPI  H10R20035   6.122   2.087   7.813 -1.2592 -0.5289 -1.5858
  176SAPI  H10S20036   6.201   2.172   7.681  1.4212 -0.6142 -1.5381
  176SAPI  C21120037   6.333   2.150   7.847 -0.8625 -0.3322  0.4538
  176SAPI  H11R20038   6.411   2.212   7.800 -0.9346  0.0540  0.8374
  176SAPI  C21220039   6.353   2.109   7.973 -0.3947  0.4432 -0.0679
  176SAPI  H12R20040   6.439   2.136   8.037 -0.0535 -1.6875  0.4600
  176SAPI  C21320041   6.261   2.018   8.057 -0.2754 -0.0884  0.1311
  176SAPI  H13R20042   6.316   1.959   8.134  1.5544  0.1053 -0.9448
  176SAPI  H13S20043   6.214   1.945   7.988  0.0334  0.1868 -0.3823
  176SAPI  C21420044   6.145   2.092   8.115  1.0552 -0.1555 -0.1470
  176SAPI  H14R20045   6.067   2.106   8.039  0.3860  0.4162  0.6212
  176SAPI  C21520046   6.128   2.136   8.244  0.2872 -0.1551  0.1398
  176SAPI  H15R20047   6.041   2.189   8.285  0.9103  0.8880  0.1789
  176SAPI  C21620048   6.242   2.128   8.345  0.3576 -0.0870  0.8090
  176SAPI  H16R20049   6.343   2.126   8.298 -0.9185 -1.7686 -2.1283
  176SAPI  H16S20050   6.238   2.043   8.416 -0.9822  0.0815  0.9566
  176SAPI  C21720051   6.236   2.263   8.429  0.1955  0.0458  0.4190
  176SAPI  H17R20052   6.141   2.255   8.487 -0.3162  0.6333 -0.3185
  176SAPI  H17S20053   6.240   2.355   8.367 -0.0645  1.4966  2.4287
  176SAPI  C21820054   6.350   2.276   8.541 -0.0054  0.1390  0.5337
  176SAPI  H18R20055   6.451   2.308   8.509  0.0124  0.1632  0.6116
  176SAPI  H18S20056   6.360   2.181   8.599 -0.0900 -0.2498 -0.0778
  176SAPI  C21920057   6.305   2.368   8.649 -0.1328 -0.0773 -0.2377
  176SAPI  H19R20058   6.208   2.338   8.695 -1.6369  0.8409 -2.6391
  176SAPI  H19S20059   6.296   2.468   8.601 -0.5379  0.5849  1.1490
  176SAPI  C22020060   6.407   2.375   8.767 -0.1716  0.2736 -0.2940
  176SAPI  H20R20061   6.508   2.398   8.726  0.4189 -2.3338 -0.4552
  176SAPI  H20S20062   6.413   2.281   8.825  1.8571  1.3838  1.4679
  176SAPI  H20T20063   6.384   2.459   8.837  0.6851 -0.8892  1.4416
  176SAPI   C3320064   5.985   1.339   7.273 -0.9527  0.1151 -0.3482
  176SAPI   H3X20065   6.055   1.262   7.235 -0.8295 -0.4341  0.9615
  176SAPI   H3Y20066   5.924   1.297   7.356  0.6368  0.6193  1.1423
  176SAPI   C3420067   6.049   1.473   7.308 -0.4814  1.1722 -0.8082
  176SAPI   H4X20068   5.960   1.539   7.311 -2.1312 -0.9661 -0.4897
  176SAPI   H4Y20069   6.111   1.498   7.219  0.2112 -0.7720 -0.9099
  176SAPI   C3520070   6.132   1.489   7.438  0.5997 -0.3390 -0.5944
  176SAPI   H5X20071   6.193   1.583   7.436 -0.6179  0.5045  0.5458
  176SAPI   H5Y20072   6.201   1.402   7.445  0.1803 -0.7351 -1.2411
  176SAPI   C3620073   6.038   1.499   7.557 -0.4365  0.5195 -0.2889
  176SAPI   H6X20074   5.995   1.398   7.573  3.2516 -1.3834 -1.1577
  176SAPI   H6Y20075   5.964   1.580   7.544  0.7042  2.0228  1.8646
  176SAPI   C3720076   6.117   1.552   7.685  0.1996  0.4627  0.4577
  176SAPI   H7X20077   6.189   1.630   7.653  1.2187 -0.0494  1.4175
  176SAPI   H7Y20078   6.183   1.466   7.709 -0.6861 -1.0314 -2.0732
  176SAPI   C3820079   6.031   1.588   7.806  0.9485 -0.2537 -0.5558
  176SAPI   H8X20080   5.960   1.505   7.825 -0.6808  0.6905 -2.1744
  176SAPI   H8Y20081   5.976   1.679   7.774  1.6198  1.5630  2.9610
  176SAPI   C3920082   6.113   1.631   7.925 -0.2673 -0.2596 -0.2246
  176SAPI   H9X20083   6.171   1.723   7.904 -0.7268  0.0985  0.0638
  176SAPI   H9Y20084   6.190   1.556   7.954  0.5696  0.8736  0.5722
  176SAPI  C31020085   6.022   1.667   8.043  0.5758 -0.4624  1.3982
  176SAPI  H10X20086   5.939   1.598   8.068 -0.9802  1.4983  1.9513
  176SAPI  H10Y20087   5.970   1.764   8.026 -0.2923 -1.3130 -1.3551
  176SAPI  C31120088   6.099   1.687   8.180 -0.1177 -0.0198  0.4784
  176SAPI  H11X20089   6.176   1.767   8.176 -2.4583  2.4454  2.0303
  176SAPI  H11Y20090   6.144   1.586   8.196  1.4502  0.5327 -0.2401
  176SAPI  C31220091   6.015   1.753   8.292  0.5569 -0.2253  0.1138
  176SAPI  H12X20092   5.921   1.694   8.297  0.7683 -0.6206 -0.4612
  176SAPI  H12Y20093   5.992   1.856   8.258  1.6302  0.5502  1.6037
  176SAPI  C31320094   6.082   1.768   8.426  0.2448  0.2703 -0.0768
  176SAPI  H13X20095   6.173   1.831   8.415 -1.1867  2.9953  2.4131
  176SAPI  H13Y20096   6.115   1.668   8.460  0.2169  0.5618  0.8174
  176SAPI  C31420097   5.986   1.827   8.536 -0.1188  0.0520  0.2059
  176SAPI  H14X20098   6.030   1.810   8.637  1.4038 -0.8609 -0.5726
  176SAPI  H14Y20099   5.891   1.771   8.543 -0.4122  0.5683  0.4061
  176SAPI  C31520100   5.983   1.975   8.522 -0.2157  0.1034 -0.0240
  176SAPI  H15X20101   5.963   1.998   8.415  1.5367 -3.5358 -1.2894
  176SAPI  H15Y20102   6.082   2.019   8.543 -0.8018  1.3431  0.2485
  176SAPI  C31620103   5.881   2.039   8.604 -0.6013 -0.2311 -0.4032
  176SAPI  H16X20104   5.910   2.030   8.711  1.9170 -0.3554 -1.0168
  176SAPI  H16Y20105   5.778   2.000   8.612 -0.4386 -0.6747 -0.4547
  176SAPI  C31720106   5.886   2.199   8.593 -0.1620 -0.0518 -0.3244
  176SAPI  H17X20107   5.852   2.221   8.490  1.1139 -2.5893 -1.3849
  176SAPI  H17Y20108   5.987   2.239   8.614 -0.0308 -0.3386 -0.4169
  176SAPI  C31820109   5.776   2.264   8.683 -0.7274 -0.8990  0.0529
  176SAPI  H18X20110   5.775   2.370   8.652  1.8869 -1.0800 -0.9514
  176SAPI  H18Y20111   5.813   2.266   8.788  0.2073  1.5766 -0.2496
  176SAPI  H18Z20112   5.679   2.214   8.665  1.3367 -5.0704 -1.0320
  177SLPC     N20113   6.712   6.056  11.364 -0.3358  0.5060 -0.0762
  177SLPC   C1320114   6.786   6.135  11.467 -0.8785 -0.2347  0.8119
  177SLPC  H13A20115   6.869   6.192  11.428 -2.1892  1.4789  0.4281
  177SLPC  H13B20116   6.718   6.213  11.496 -0.5351  0.9072 -1.2391
  177SLPC  H13C20117   6.829   6.090  11.555 -1.0718  2.9242  2.6621
  177SLPC   C1420118   6.601   5.968  11.427  0.0800  0.5241  0.5071
  177SLPC  H14A20119   6.547   5.918  11.347  2.8417  0.8919 -1.7607
  177SLPC  H14B20120   6.642   5.897  11.496 -0.3856 -0.6845 -0.4169
  177SLPC  H14C20121   6.534   6.029  11.485  1.7386 -0.7522  4.0176
  177SLPC   C1520122   6.808   5.946  11.316 -0.3275 -0.8831  0.4407
  177SLPC  H15A20123   6.882   5.987  11.249  0.2139 -0.4102  1.3180
  177SLPC  H15B20124   6.876   5.914  11.394  2.1191 -0.9363 -1.5760
  177SLPC  H15C20125   6.768   5.863  11.260  1.6096 -1.8345  0.3702
  177SLPC   C1220126   6.657   6.138  11.249 -0.6458  0.5254  0.6309
  177SLPC  H12A20127   6.733   6.211  11.223 -0.5601  0.0869 -0.3954
  177SLPC  H12B20128   6.575   6.200  11.282 -1.1409  1.7222 -2.5367
  177SLPC   C1120129   6.614   6.068  11.122 -0.1163 -0.2789  0.6114
  177SLPC  H11A20130   6.709   6.026  11.082  0.2458  0.6367  0.4782
  177SLPC  H11B20131   6.587   6.142  11.044  1.4568 -2.4110 -2.1290
  177SLPC     P20132   6.512   5.832  11.073 -0.1811 -0.1391 -0.0757
  177SLPC   O1320133   6.636   5.765  11.112 -0.3551 -0.0677  0.0495
  177SLPC   O1420134   6.388   5.754  11.082 -0.3128  0.2880  0.0460
  177SLPC   O1220135   6.504   5.971  11.150  0.0579 -0.2828 -0.2474
  177SLPC   O1120136   6.516   5.868  10.923  0.2811 -0.1439 -0.0392
  177SLPC    C120137   6.573   5.770  10.836  0.0934  0.1113 -0.0250
  177SLPC    HA20138   6.673   5.811  10.813 -0.2922  2.0143  1.4427
  177SLPC    HB20139   6.602   5.674  10.884  2.0596  0.7124  0.0412
  177SLPC    C220140   6.478   5.741  10.717  0.6155 -0.4839  0.5966
  177SLPC    HS20141   6.536   5.664  10.661 -1.5305  0.2066 -2.9099
  177SLPC   O2120142   6.452   5.855  10.635  0.2562  0.4127  0.0046
  177SLPC   C2120143   6.545   5.890  10.545 -0.1788 -0.6872  0.5934
  177SLPC   O2220144   6.654   5.840  10.529 -0.1852  0.4275 -0.2182
  177SLPC   C2220145   6.490   6.005  10.472 -0.2019 -0.0050  0.3343
  177SLPC   H2R20146   6.382   5.999  10.448 -0.5143  0.9796  1.3846
  177SLPC   H2S20147   6.491   6.104  10.523 -2.3314  0.3444 -0.1961
  177SLPC    C320148   6.344   5.699  10.766  0.2599 -0.0792 -0.0932
  177SLPC    HX20149   6.283   5.784  10.801  0.0573 -0.7402  1.2190
  177SLPC    HY20150   6.360   5.630  10.852 -0.7170 -0.4299 -0.1815
  177SLPC   O3120151   6.269   5.627  10.666 -0.4234 -0.2733  0.2109
  177SLPC   C3120152   6.183   5.708  10.600  0.2923 -0.2770  0.6860
  177SLPC   O3220153   6.144   5.816  10.629  0.1899 -0.0078 -0.7358
  177SLPC   C3220154   6.132   5.648  10.467 -0.6791 -0.5236 -0.6141
  177SLPC   H2X20155   6.027   5.678  10.448 -0.7330 -0.7056 -0.6093
  177SLPC   H2Y20156   6.139   5.538  10.481  1.1252 -0.1061  2.9164
  177SLPC   C2320157   6.561   6.030  10.333 -0.5242 -0.1753 -0.0749
  177SLPC   H3R20158   6.670   6.019  10.351 -0.8700 -0.0588  2.5351
  177SLPC   H3S20159   6.557   6.136  10.298  0.7188 -0.2689 -0.5330
  177SLPC   C2420160   6.525   5.922  10.231  0.6161  0.6612 -0.0731
  177SLPC   H4R20161   6.414   5.921  10.231  0.6083  0.2285  1.1118
  177SLPC   H4S20162   6.560   5.820  10.259 -1.4909 -0.2487 -0.5982
  177SLPC   C2520163   6.567   5.948  10.088 -0.3769 -0.2610 -0.7971
  177SLPC   H5R20164   6.678   5.945  10.079 -0.4216  0.6600 -1.9664
  177SLPC   H5S20165   6.544   6.053  10.058  0.7757  0.5598  0.9778
  177SLPC   C2620166   6.521   5.846   9.983 -0.4525 -0.2756 -0.4257
  177SLPC   H6R20167   6.411   5.851   9.970 -0.1902  1.2596 -2.4779
  177SLPC   H6S20168   6.553   5.745  10.017  1.6224  0.3726 -0.3156
  177SLPC   C2720169   6.586   5.877   9.845  0.3358  0.6112  0.5835
  177SLPC   H7R20170   6.696   5.893   9.837  0.4106 -0.3687 -0.5062
  177SLPC   H7S20171   6.546   5.979   9.825  0.0644  0.3915 -0.0178
  177SLPC   C2820172   6.544   5.777   9.734  0.1135  1.0682 -0.3977
  177SLPC   H8R20173   6.528   5.834   9.640  0.3739 -1.5299 -2.1070
  177SLPC   H8S20174   6.451   5.723   9.759  2.0350 -2.5074 -0.3584
  177SLPC   C2920175   6.644   5.664   9.716  1.0416 -0.0648 -0.3506
  177SLPC   H9R20176   6.646   5.587   9.795 -1.6731  0.1533  0.0149
  177SLPC  C21020177   6.729   5.666   9.616  0.2890 -0.3126  1.4655
  177SLPC  H10R20178   6.822   5.608   9.623  1.0201  0.6144 -0.1633
  177SLPC  C21120179   6.744   5.767   9.501  0.2369  0.9934  0.3383
  177SLPC  H11R20180   6.666   5.845   9.494 -0.2681  0.4164 -0.7734
  177SLPC  H11S20181   6.838   5.823   9.520  1.7975 -0.5812 -1.9995
  177SLPC  C21220182   6.758   5.700   9.364 -0.2755 -0.1594 -0.2383
  177SLPC  H12R20183   6.765   5.591   9.353  0.1644 -0.0819 -0.7811
  177SLPC  C21320184   6.758   5.768   9.253 -0.1263 -0.1946 -0.0126
  177SLPC  H13R20185   6.760   5.712   9.159  0.8914 -0.2375  0.0266
  177SLPC  C21420186   6.750   5.912   9.229 -0.5808 -0.0979 -0.0030
  177SLPC  H14R20187   6.835   5.934   9.161  0.1579 -0.6474  0.7146
  177SLPC  H14S20188   6.772   5.973   9.320  0.7227 -0.6254  0.0582
  177SLPC  C21520189   6.612   5.972   9.174  0.0553  0.2438 -0.0105
  177SLPC  H15R20190   6.618   6.078   9.142 -1.5309  0.3343 -0.1023
  177SLPC  H15S20191   6.535   5.960   9.254  1.1482  0.0469  1.0322
  177SLPC  C21620192   6.559   5.906   9.042 -0.4694 -0.7695 -0.0138
  177SLPC  H16R20193   6.543   5.796   9.048  0.7788 -0.9083  1.1926
  177SLPC  H16S20194   6.638   5.929   8.967  1.7275 -0.6470  2.1908
  177SLPC  C21720195   6.418   5.956   8.998 -0.0254 -0.1579 -0.1150
  177SLPC  H17R20196   6.428   6.066   8.982 -3.1579  0.2833  0.3863
  177SLPC  H17S20197   6.348   5.945   9.083  4.0433 -0.0073  3.5862
  177SLPC  C21820198   6.347   5.885   8.885 -0.0214 -0.6327  0.2081
  177SLPC  H18R20199   6.351   5.775   8.897 -0.9177 -0.8013 -0.8840
  177SLPC  H18S20200   6.403   5.909   8.793  0.9028  0.1633  0.9556
  177SLPC  H18T20201   6.238   5.907   8.874 -0.2984 -2.0541 -0.0701
  177SLPC   C3320202   6.214   5.698  10.349 -0.8101 -0.5627 -0.3153
  177SLPC   H3X20203   6.314   5.652  10.366  0.1946  0.0909 -3.7730
  177SLPC   H3Y20204   6.220   5.809  10.347  0.4757 -0.5801  0.9477
  177SLPC   C3420205   6.157   5.654  10.217 -0.2801 -0.4980  0.2166
  177SLPC   H4X20206   6.050   5.677  10.194  0.2528  1.1707 -0.7960
  177SLPC   H4Y20207   6.162   5.545  10.199  3.9061 -0.0970 -2.0976
  177SLPC   C3520208   6.235   5.717  10.099  0.3797 -0.1674  0.0190
  177SLPC   H5X20209   6.343   5.708  10.123 -0.1500 -1.1594  2.3911
  177SLPC   H5Y20210   6.225   5.828  10.095  2.0371  0.0072  0.1427
  177SLPC   C3620211   6.188   5.663   9.962 -0.1775 -0.1831 -0.8191
  177SLPC   H6X20212   6.249   5.724   9.892  0.1409  0.2988 -0.1319
  177SLPC   H6Y20213   6.082   5.677   9.933 -0.8477 -3.1124 -0.0668
  177SLPC   C3720214   6.234   5.513   9.931 -0.4210  0.1657 -0.1572
  177SLPC   H7X20215   6.167   5.445   9.987 -0.9069  1.8631  1.4143
  177SLPC   H7Y20216   6.336   5.510   9.974 -0.4527  0.9151 -0.0199
  177SLPC   C3820217   6.240   5.476   9.785  0.4705 -0.3430  0.3112
  177SLPC   H8X20218   6.253   5.366   9.782  0.0651 -0.5072  2.5531
  177SLPC   H8Y20219   6.331   5.520   9.739  1.1482 -2.2593 -0.3055
  177SLPC   C3920220   6.112   5.509   9.716 -0.3663  0.8073  0.1825
  177SLPC   H9X20221   6.090   5.618   9.707  0.5426  1.1934  2.2428
  177SLPC   H9Y20222   6.029   5.468   9.777 -0.4223 -0.1402 -0.5075
  177SLPC  C31020223   6.091   5.455   9.578  0.2096  0.4091  0.8361
  177SLPC  H10X20224   6.089   5.344   9.582 -2.3905  0.2578 -1.4887
  177SLPC  H10Y20225   6.173   5.474   9.505  0.7167  2.3201  1.8213
  177SLPC  C31120226   5.951   5.500   9.521  0.5563 -0.2542 -0.8162
  177SLPC  H11X20227   5.952   5.611   9.527 -0.5145 -0.2321 -0.7712
  177SLPC  H11Y20228   5.859   5.470   9.576 -1.0646  0.9708 -2.7182
  177SLPC  C31220229   5.924   5.465   9.373  0.1052  0.1124 -0.2075
  177SLPC  H12X20230   5.819   5.499   9.356 -1.7393 -2.8013  3.6881
  177SLPC  H12Y20231   5.919   5.354   9.362 -2.3344 -0.3171  3.3710
  177SLPC  C31320232   6.029   5.521   9.279  0.1588  0.7293 -0.1990
  177SLPC  H13X20233   6.123   5.465   9.294  1.9940  4.1257  2.2832
  177SLPC  H13Y20234   6.047   5.626   9.308 -0.7062  1.6489 -2.7176
  177SLPC  C31420235   5.986   5.523   9.133  0.4795  0.6050  0.6305
  177SLPC  H14X20236   6.050   5.592   9.073 -0.7895  0.5069 -0.9021
  177SLPC  H14Y20237   5.886   5.571   9.125  0.6908  1.1023  0.8845
  177SLPC  C31520238   5.973   5.382   9.075 -0.3181 -0.6885  0.0298
  177SLPC  H15X20239   5.934   5.392   8.971  0.7832  0.5482 -0.2903
  177SLPC  H15Y20240   5.906   5.320   9.138 -0.2626  0.1825  0.9823
  177SLPC  C31620241   6.096   5.303   9.052 -0.2158  0.2913  0.5192
  177SLPC  H16X20242   6.131   5.251   9.144 -0.4413  1.7703  1.4808
  177SLPC  H16Y20243   6.174   5.366   9.005 -0.7047 -0.0425 -0.8056
  177SLPC  C31720244   6.073   5.180   8.953 -0.2836  0.0102 -1.2844
  177SLPC  H17X20245   6.067   5.227   8.853  0.8700  0.1953 -1.2847
  177SLPC  H17Y20246   5.973   5.144   8.983  0.0809  0.8632  1.2291
  177SLPC  C31820247   6.169   5.061   8.969  0.6552 -0.1020 -0.5376
  177SLPC  H18X20248   6.164   5.038   9.078 -2.1866  0.6802 -0.4305
  177SLPC  H18Y20249   6.266   5.097   8.930 -0.2586  0.9638 -1.9242
  177SLPC  H18Z20250   6.141   4.975   8.905 -0.4772  2.0097 -3.0179
  178SLPC     N20251   2.121   2.450  11.398 -0.3387 -0.0917  0.1818
  178SLPC   C1320252   2.208   2.571  11.362 -0.5143  0.6112 -0.8029
  178SLPC  H13A20253   2.166   2.637  11.287 -0.5585  0.0730 -1.2627
  178SLPC  H13B20254   2.221   2.638  11.446 -1.3310  0.5873 -0.6484
  178SLPC  H13C20255   2.303   2.539  11.323 -0.6359 -1.2684  0.3032
  178SLPC   C1420256   2.003   2.504  11.479  0.0907  0.5973 -0.6093
  178SLPC  H14A20257   2.040   2.577  11.549  1.0819 -1.2374  0.8618
  178SLPC  H14B20258   1.943   2.574  11.423  1.3192  2.0545 -0.1514
  178SLPC  H14C20259   1.944   2.430  11.532 -1.2221  2.1560  0.2094
  178SLPC   C1520260   2.195   2.376  11.499  0.0643  0.4006 -0.6339
  178SLPC  H15A20261   2.153   2.277  11.510 -0.9144  0.4474 -3.2077
  178SLPC  H15B20262   2.290   2.354  11.453 -0.5994 -0.1891 -1.7779
  178SLPC  H15C20263   2.208   2.421  11.596 -1.6883  1.5415 -0.8810
  178SLPC   C1220264   2.087   2.357  11.279  0.0310 -0.3991 -0.7115
  178SLPC  H12A20265   2.028   2.273  11.312  0.0151  0.3808  1.4188
  178SLPC  H12B20266   2.180   2.312  11.249  0.9001 -0.3102  1.6367
  178SLPC   C1120267   2.023   2.414  11.155 -0.2172  0.6306  0.2008
  178SLPC  H11A20268   2.025   2.338  11.075 -0.2849  2.3795 -1.5329
  178SLPC  H11B20269   2.077   2.504  11.117  1.0215 -0.2799 -0.2431
  178SLPC     P20270   1.777   2.338  11.184 -0.4001  0.3367 -0.0692
  178SLPC   O1320271   1.799   2.234  11.291 -0.0026 -0.8497 -0.0013
  178SLPC   O1420272   1.645   2.408  11.184  0.2522  0.0440  0.0239
  178SLPC   O1220273   1.887   2.451  11.176 -0.0168 -0.8457  0.0865
  178SLPC   O1120274   1.777   2.263  11.040  0.0454  0.4570 -0.7606
  178SLPC    C120275   1.704   2.312  10.929 -0.6373  0.3290 -0.1208
  178SLPC    HA20276   1.594   2.322  10.947 -0.6257  1.2076 -0.4948
  178SLPC    HB20277   1.720   2.421  10.916 -1.7667  0.4177 -0.8617
  178SLPC    C220278   1.735   2.242  10.791 -0.2638 -0.0340 -0.6550
  178SLPC    HS20279   1.675   2.294  10.714  1.6399  1.8395 -0.9629
  178SLPC   O2120280   1.705   2.098  10.785 -0.2644  0.5349  0.5552
  178SLPC   C2120281   1.582   2.063  10.776  0.5888 -0.1619  0.1150
  178SLPC   O2220282   1.483   2.136  10.781 -0.2789 -0.2990 -0.6290
  178SLPC   C2220283   1.566   1.910  10.759 -0.1310  0.1576 -0.3220
  178SLPC   H2R20284   1.658   1.867  10.802  1.8546  2.2577 -2.2039
  178SLPC   H2S20285   1.476   1.882  10.818  0.3603  3.2777  2.2048
  178SLPC    C320286   1.888   2.257  10.778  0.0604 -0.0240  0.6489
  178SLPC    HX20287   1.934   2.186  10.850 -3.3175 -3.2502 -0.1063
  178SLPC    HY20288   1.920   2.363  10.787  0.1605  0.0279 -0.2505
  178SLPC   O3120289   1.926   2.222  10.643 -0.9336 -0.0853 -0.2427
  178SLPC   C3120290   2.020   2.131  10.628  0.4897 -0.1199 -0.2706
  178SLPC   O3220291   2.088   2.086  10.717  0.2564  0.2909 -0.5228
  178SLPC   C3220292   2.028   2.085  10.488  1.8254  0.6268 -0.3634
  178SLPC   H2X20293   1.998   2.165  10.416  1.6167 -0.7535 -1.8596
  178SLPC   H2Y20294   1.955   2.002  10.476  0.9229  1.3743 -0.1473
  178SLPC   C2320295   1.555   1.859  10.620  0.3176  0.5501  0.0247
  178SLPC   H3R20296   1.451   1.872  10.583 -0.0696 -1.0433  0.4468
  178SLPC   H3S20297   1.582   1.751  10.621  0.5335  0.5295  3.0785
  178SLPC   C2420298   1.638   1.940  10.515 -0.1412  0.0382 -0.2821
  178SLPC   H4R20299   1.743   1.949  10.552 -0.1732 -0.7333  0.0039
  178SLPC   H4S20300   1.595   2.043  10.514 -0.2730 -0.0149 -0.1350
  178SLPC   C2520301   1.645   1.869  10.376 -0.0922  0.0561  0.3919
  178SLPC   H5R20302   1.549   1.825  10.342  0.9266 -0.4248 -2.1070
  178SLPC   H5S20303   1.722   1.791  10.396  2.2172  2.5000  1.6964
  178SLPC   C2620304   1.697   1.961  10.269 -0.7315 -0.8642  0.1081
  178SLPC   H6R20305   1.770   2.030  10.316 -2.4776  0.9653  0.2457
  178SLPC   H6S20306   1.614   2.030  10.243  0.4750  0.7979  0.4922
  178SLPC   C2720307   1.761   1.884  10.155 -0.2406 -0.2356  0.0080
  178SLPC   H7R20308   1.687   1.819  10.102 -0.7635  0.8983 -0.6957
  178SLPC   H7S20309   1.832   1.817  10.207  0.3014  0.6651  0.4483
  178SLPC   C2820310   1.821   1.971  10.034 -0.2726  0.6847 -0.2131
  178SLPC   H8R20311   1.892   1.909   9.976  1.1003  0.1451  1.9152
  178SLPC   H8S20312   1.876   2.057  10.077 -0.3203  1.6026 -1.9034
  178SLPC   C2920313   1.710   2.020   9.948  0.3739 -0.0811 -0.6327
  178SLPC   H9R20314   1.666   2.120   9.966  1.1731  0.2290 -0.3193
  178SLPC  C21020315   1.678   1.946   9.845 -0.2352 -0.5095  0.1673
  178SLPC  H10R20316   1.598   1.990   9.783  1.6245  3.3067  0.1942
  178SLPC  C21120317   1.729   1.815   9.793 -0.4397 -0.4597 -0.4596
  178SLPC  H11R20318   1.745   1.749   9.881 -1.4167 -0.3799 -0.2022
  178SLPC  H11S20319   1.824   1.834   9.739 -0.8396 -0.8803 -1.3128
  178SLPC  C21220320   1.629   1.746   9.701  0.3476  0.4097 -0.2634
  178SLPC  H12R20321   1.523   1.778   9.702 -0.3286 -1.5292 -1.9687
  178SLPC  C21320322   1.655   1.652   9.610 -0.3311  0.2982  0.7918
  178SLPC  H13R20323   1.576   1.627   9.538 -0.1337  0.8703  0.3676
  178SLPC  C21420324   1.790   1.589   9.573 -0.4365  0.0077 -0.1300
  178SLPC  H14R20325   1.768   1.481   9.559  0.7487 -0.0262 -2.3768
  178SLPC  H14S20326   1.876   1.596   9.642 -1.7665 -1.8134  1.8241
  178SLPC  C21520327   1.831   1.656   9.438 -0.2804  0.0637  0.2628
  178SLPC  H15R20328   1.811   1.765   9.441  0.0806  0.1187  0.9997
  178SLPC  H15S20329   1.765   1.622   9.355  1.5824 -1.6446 -0.5878
  178SLPC  C21620330   1.977   1.629   9.399  0.1756  0.8723 -0.2947
  178SLPC  H16R20331   2.004   1.522   9.413 -0.0244  0.6819 -1.2655
  178SLPC  H16S20332   2.053   1.690   9.452 -0.5921  1.8159 -0.2650
  178SLPC  C21720333   2.007   1.674   9.255  0.5539 -0.6871 -0.4173
  178SLPC  H17R20334   1.938   1.634   9.178 -2.6206  0.1443  1.7722
  178SLPC  H17S20335   2.113   1.659   9.226  1.0079  2.5562 -0.7852
  178SLPC  C21820336   1.992   1.833   9.243  0.1942  0.1117 -0.7453
  178SLPC  H18R20337   2.031   1.868   9.145  0.4493 -1.7870 -1.3748
  178SLPC  H18S20338   2.061   1.878   9.318  2.1301 -1.3049 -1.5632
  178SLPC  H18T20339   1.894   1.881   9.258  0.6741  0.7328  0.5347
  178SLPC   C3320340   2.168   2.032  10.451 -0.1985  0.1022  0.6596
  178SLPC   H3X20341   2.191   1.952  10.524  0.5440 -0.2975 -0.0100
  178SLPC   H3Y20342   2.244   2.113  10.449 -2.4182  2.3282 -1.3083
  178SLPC   C3420343   2.168   1.975  10.308  0.0824  0.3114 -0.5027
  178SLPC   H4X20344   2.099   1.890  10.288 -0.2458  0.5053 -0.1966
  178SLPC   H4Y20345   2.268   1.927  10.303 -0.0526 -0.2334  1.3321
  178SLPC   C3520346   2.160   2.068  10.191  0.2556  0.5211  0.4139
  178SLPC   H5X20347   2.236   2.147  10.206 -2.0275  2.4479  2.7688
  178SLPC   H5Y20348   2.064   2.123  10.192 -0.8499 -1.1293 -2.1164
  178SLPC   C3620349   2.189   2.007  10.057  0.7350 -0.9555  0.5088
  178SLPC   H6X20350   2.132   1.912  10.050 -1.1917  0.1729  0.1724
  178SLPC   H6Y20351   2.296   1.977  10.047  0.8450 -0.8468  1.2917
  178SLPC   C3720352   2.158   2.078   9.924 -0.2683 -0.5914  1.2236
  178SLPC   H7X20353   2.198   2.181   9.936  2.5564 -1.0503 -2.3701
  178SLPC   H7Y20354   2.050   2.089   9.902  0.6295  2.2805 -2.9244
  178SLPC   C3820355   2.227   2.014   9.800  0.1505 -0.5433 -0.5560
  178SLPC   H8X20356   2.188   1.913   9.774 -0.0556 -0.0861 -2.1620
  178SLPC   H8Y20357   2.335   1.999   9.822  0.2215 -1.5547 -1.5075
  178SLPC   C3920358   2.222   2.103   9.674  0.1150  0.3687 -0.1722
  178SLPC   H9X20359   2.269   2.203   9.683 -0.4423  0.4358  3.7039
  178SLPC   H9Y20360   2.122   2.131   9.637  0.2650 -0.7994 -1.5901
  178SLPC  C31020361   2.291   2.040   9.546 -0.8006  0.7293 -0.0444
  178SLPC  H10X20362   2.249   1.940   9.525  0.1728  0.3944 -0.4751
  178SLPC  H10Y20363   2.401   2.031   9.565 -0.7057  0.4275 -0.6945
  178SLPC  C31120364   2.275   2.125   9.420  0.0347 -0.1260  0.2066
  178SLPC  H11X20365   2.311   2.228   9.445 -0.7788 -0.3639  2.5700
  178SLPC  H11Y20366   2.166   2.136   9.405  0.2092 -0.0495 -1.1481
  178SLPC  C31220367   2.353   2.077   9.304 -0.4881 -0.4780  0.2297
  178SLPC  H12X20368   2.308   1.977   9.287 -1.5229 -0.1875  1.1458
  178SLPC  H12Y20369   2.462   2.067   9.317 -0.4260  0.2165  0.3076
  178SLPC  C31320370   2.323   2.177   9.188  0.3932 -0.6748 -0.1502
  178SLPC  H13X20371   2.329   2.282   9.223 -0.5019 -0.2376 -1.2404
  178SLPC  H13Y20372   2.217   2.179   9.153 -0.1022  5.7656  0.6100
  178SLPC  C31420373   2.401   2.147   9.060 -0.0307 -0.0240  0.2688
  178SLPC  H14X20374   2.400   2.038   9.038 -1.2362 -0.1068  0.6080
  178SLPC  H14Y20375   2.507   2.158   9.090 -0.2883  0.3603  1.0807
  178SLPC  C31520376   2.359   2.226   8.947  0.1034 -0.3777  0.2718
  178SLPC  H15X20377   2.250   2.218   8.926 -0.3305  1.8515  1.3068
  178SLPC  H15Y20378   2.364   2.333   8.979 -1.0549 -0.1410 -0.2800
  178SLPC  C31620379   2.450   2.205   8.822 -0.7247 -0.6401  0.1924
  178SLPC  H16X20380   2.423   2.108   8.776 -0.3163 -0.4279 -0.5147
  178SLPC  H16Y20381   2.555   2.222   8.855 -0.6137 -1.2446  0.1599
  178SLPC  C31720382   2.405   2.306   8.717  0.3736  0.0245  0.2865
  178SLPC  H17X20383   2.410   2.405   8.766  2.0967  1.0298 -1.7641
  178SLPC  H17Y20384   2.298   2.278   8.702  0.5432 -1.1351  1.0696
  178SLPC  C31820385   2.491   2.302   8.590  0.1498  0.1793 -0.4602
  178SLPC  H18X20386   2.449   2.348   8.498 -0.6794 -2.6158 -1.5830
  178SLPC  H18Y20387   2.500   2.200   8.548  0.1215  0.2476 -0.6314
  178SLPC  H18Z20388   2.589   2.352   8.610 -0.5450  0.7749  1.7338
  179SLPC     N20389   2.738   4.685  10.705  0.5351 -0.3569 -0.2063
  179SLPC   C1320390   2.836   4.772  10.637 -0.3110 -0.4586  0.2299
  179SLPC  H13A20391   2.860   4.726  10.542 -0.8904 -0.6423  0.1631
  179SLPC  H13B20392   2.819   4.878  10.627  2.5856  0.1503  0.9101
  179SLPC  H13C20393   2.928   4.774  10.693  0.5282 -0.5464 -1.0927
  179SLPC   C1420394   2.708   4.749  10.839  0.0121 -0.7581 -0.9818
  179SLPC  H14A20395   2.797   4.782  10.890 -0.9990 -0.0250  0.3872
  179SLPC  H14B20396   2.654   4.842  10.830  0.8123  0.1816  2.5155
  179SLPC  H14C20397   2.644   4.692  10.905 -1.0579  2.0940  0.6329
  179SLPC   C1520398   2.802   4.555  10.725 -0.1217  0.1913  0.1120
  179SLPC  H15A20399   2.846   4.520  10.633 -2.1556 -1.7598 -0.2245
  179SLPC  H15B20400   2.877   4.565  10.802 -0.2487  2.3633  0.0185
  179SLPC  H15C20401   2.733   4.477  10.754  0.4816 -0.5680 -0.4642
  179SLPC   C1220402   2.613   4.658  10.614 -0.2348 -0.1113  0.0981
  179SLPC  H12A20403   2.644   4.596  10.531  0.1172 -1.2296  1.0367
  179SLPC  H12B20404   2.577   4.749  10.568  0.3826 -0.7735 -1.7634
  179SLPC   C1120405   2.490   4.592  10.677 -0.2845  0.4102  0.5109
  179SLPC  H11A20406   2.455   4.664  10.754  2.8135  2.4967  0.1856
  179SLPC  H11B20407   2.517   4.492  10.716  1.0700 -0.7859 -3.1018
  179SLPC     P20408   2.324   4.684  10.491 -0.3825 -0.0135  0.0404
  179SLPC   O1320409   2.179   4.663  10.509 -0.3363 -0.0549  0.8302
  179SLPC   O1420410   2.372   4.812  10.541  0.1256  0.6952  0.4071
  179SLPC   O1220411   2.401   4.568  10.566 -0.0168  0.2928  0.2610
  179SLPC   O1120412   2.364   4.665  10.344 -0.3318 -0.1159 -0.2714
  179SLPC    C120413   2.327   4.756  10.244 -0.1759 -0.2143  0.5418
  179SLPC    HA20414   2.234   4.815  10.261  0.7309  1.2079  0.7348
  179SLPC    HB20415   2.410   4.829  10.240 -1.0922  0.8446  0.1574
  179SLPC    C220416   2.306   4.704  10.098 -0.0128  0.3165 -0.0682
  179SLPC    HS20417   2.402   4.662  10.060 -0.1080 -0.0506  0.0870
  179SLPC   O2120418   2.261   4.813  10.010 -0.2856 -0.3103  0.2200
  179SLPC   C2120419   2.281   4.797   9.883  0.7019  0.7587  0.1743
  179SLPC   O2220420   2.320   4.694   9.830  0.2325 -0.3590  0.3111
  179SLPC   C2220421   2.240   4.928   9.813  0.5581  0.7660 -0.0404
  179SLPC   H2R20422   2.151   4.967   9.866 -0.8426 -1.6807 -0.4021
  179SLPC   H2S20423   2.325   4.999   9.808  0.0904  1.2405 -1.9814
  179SLPC    C320424   2.191   4.597  10.112  0.1691 -0.5777 -0.0015
  179SLPC    HX20425   2.095   4.649  10.128 -1.5677 -2.5559 -2.8580
  179SLPC    HY20426   2.215   4.531  10.198  1.1352 -0.2623 -0.0147
  179SLPC   O3120427   2.166   4.523   9.990  0.2860 -0.4282 -0.5031
  179SLPC   C3120428   2.251   4.420   9.979 -0.0401  0.6701  0.2291
  179SLPC   O3220429   2.340   4.397  10.060 -0.0601  0.3405  0.0829
  179SLPC   C3220430   2.214   4.332   9.857 -0.2213 -0.3693  0.0035
  179SLPC   H2X20431   2.140   4.390   9.798 -1.7942 -2.2746 -0.0063
  179SLPC   H2Y20432   2.162   4.246   9.903 -3.7620  1.2714 -0.6250
  179SLPC   C2320433   2.198   4.895   9.671 -1.0284 -0.1228 -0.4159
  179SLPC   H3R20434   2.114   4.824   9.686 -1.5072  0.5327  0.0341
  179SLPC   H3S20435   2.289   4.855   9.622  0.2181  3.3506 -1.2462
  179SLPC   C2420436   2.132   5.004   9.591  0.3303  0.2652 -0.3211
  179SLPC   H4R20437   2.191   5.098   9.593  0.5327  0.1347  0.2122
  179SLPC   H4S20438   2.036   5.025   9.644  1.5627 -0.1817  2.2781
  179SLPC   C2520439   2.096   4.962   9.450 -0.6114 -0.3684 -0.1043
  179SLPC   H5R20440   2.009   4.893   9.439  0.2668 -1.2819 -1.6027
  179SLPC   H5S20441   2.190   4.912   9.419 -1.5644 -1.2058 -1.8209
  179SLPC   C2620442   2.061   5.083   9.365 -0.3843  0.3003  0.5694
  179SLPC   H6R20443   2.150   5.150   9.365  0.8138 -1.2394 -0.1037
  179SLPC   H6S20444   1.980   5.127   9.428 -0.2394 -1.0144  1.7240
  179SLPC   C2720445   2.037   5.061   9.219 -0.2183 -0.0360 -0.4287
  179SLPC   H7R20446   1.943   5.005   9.202  0.3115 -1.1198  0.1445
  179SLPC   H7S20447   2.112   4.991   9.177 -1.7135 -1.1187 -1.3734
  179SLPC   C2820448   2.035   5.193   9.135  0.5931 -0.0003 -0.5214
  179SLPC   H8R20449   2.139   5.232   9.132 -0.2706  2.3462 -2.5043
  179SLPC   H8S20450   1.986   5.272   9.195 -0.5920 -1.1085  0.0378
  179SLPC   C2920451   1.981   5.175   9.002  0.5420  0.7411 -1.0036
  179SLPC   H9R20452   1.875   5.203   8.997 -0.4936 -1.6356  3.1470
  179SLPC  C21020453   2.052   5.128   8.896  0.0616 -0.6632  0.2246
  179SLPC  H10R20454   2.011   5.104   8.796  3.0252  0.9992 -1.5375
  179SLPC  C21120455   2.198   5.087   8.888  0.0164 -0.4649  0.1146
  179SLPC  H11R20456   2.256   5.105   8.982 -1.5841 -0.4894  1.1447
  179SLPC  H11S20457   2.251   5.155   8.818  1.0704  0.2241  1.5215
  179SLPC  C21220458   2.219   4.942   8.857 -0.1103 -0.1276 -0.8165
  179SLPC  H12R20459   2.193   4.877   8.941  0.8321 -0.3421 -0.6759
  179SLPC  C21320460   2.267   4.885   8.745 -0.1949  0.5202 -0.6510
  179SLPC  H13R20461   2.280   4.776   8.748  1.5836  0.6797  3.1342
  179SLPC  C21420462   2.310   4.960   8.617  0.0002  0.0018  0.1851
  179SLPC  H14R20463   2.420   4.953   8.597  0.4344  0.9051  2.0768
  179SLPC  H14S20464   2.277   5.065   8.630  2.4513  0.8728  0.0351
  179SLPC  C21520465   2.252   4.897   8.494  0.1848 -0.5469 -0.1475
  179SLPC  H15R20466   2.314   4.952   8.421 -0.4220  0.0623 -0.2091
  179SLPC  H15S20467   2.146   4.924   8.473  0.3845  2.6046  2.1181
  179SLPC  C21620468   2.304   4.754   8.470  0.1131  0.0172  0.8839
  179SLPC  H16R20469   2.293   4.723   8.364  0.7796 -3.0164  1.6311
  179SLPC  H16S20470   2.250   4.675   8.526  0.0020 -3.0488 -3.1045
  179SLPC  C21720471   2.450   4.717   8.502 -0.5810  0.0737  0.2227
  179SLPC  H17R20472   2.481   4.762   8.598  0.6009  0.7155 -0.4383
  179SLPC  H17S20473   2.519   4.768   8.431  1.0410  0.2836  1.8923
  179SLPC  C21820474   2.476   4.568   8.500 -0.3444 -0.8093 -0.1524
  179SLPC  H18R20475   2.413   4.531   8.584  1.4057  0.8932  2.0106
  179SLPC  H18S20476   2.581   4.534   8.503  0.0482  0.3353 -0.4926
  179SLPC  H18T20477   2.439   4.521   8.406  0.3510 -2.4545  0.3566
  179SLPC   C3320478   2.343   4.286   9.787  0.3828  0.6226  0.3097
  179SLPC   H3X20479   2.318   4.191   9.735  0.4353 -0.7828  2.7258
  179SLPC   H3Y20480   2.426   4.256   9.855 -0.0273  0.8947  0.9385
  179SLPC   C3420481   2.397   4.387   9.683  0.0311 -0.5046 -0.2398
  179SLPC   H4X20482   2.483   4.340   9.629  1.5376  1.4850  0.3331
  179SLPC   H4Y20483   2.439   4.469   9.744 -0.5137  1.5323 -2.4238
  179SLPC   C3520484   2.301   4.445   9.574 -0.2015 -0.2626  0.3899
  179SLPC   H5X20485   2.233   4.517   9.624  0.3413  1.1834 -0.8677
  179SLPC   H5Y20486   2.243   4.366   9.522  0.3150 -0.5712  0.2748
  179SLPC   C3620487   2.385   4.517   9.459 -0.6123 -0.1375 -0.2405
  179SLPC   H6X20488   2.393   4.438   9.381 -2.4511 -1.9234  1.2789
  179SLPC   H6Y20489   2.487   4.539   9.496  0.2886 -2.2651 -1.2604
  179SLPC   C3720490   2.313   4.644   9.403 -0.0205 -0.0330  0.8061
  179SLPC   H7X20491   2.335   4.733   9.466  0.1796  0.5068 -0.0127
  179SLPC   H7Y20492   2.203   4.628   9.400 -0.2167  1.3753 -0.4807
  179SLPC   C3820493   2.360   4.684   9.258  0.1739  0.2385  0.4691
  179SLPC   H8X20494   2.471   4.690   9.262  0.3158 -1.4710 -0.2494
  179SLPC   H8Y20495   2.322   4.784   9.228  0.4147 -0.0912 -0.9986
  179SLPC   C3920496   2.334   4.575   9.149 -0.0013  0.8274  0.3052
  179SLPC   H9X20497   2.226   4.557   9.167 -0.3179  2.9387  0.7641
  179SLPC   H9Y20498   2.390   4.481   9.166 -0.2664  0.3267 -1.3940
  179SLPC  C31020499   2.360   4.622   9.011  0.2059 -0.0968  0.4392
  179SLPC  H10X20500   2.469   4.618   8.988  0.7633  0.7974  2.6984
  179SLPC  H10Y20501   2.325   4.725   8.990  1.8931  0.7867  1.7446
  179SLPC  C31120502   2.289   4.538   8.899 -0.4335 -0.0681 -0.9333
  179SLPC  H11X20503   2.330   4.435   8.908  2.6095  1.0074 -1.3720
  179SLPC  H11Y20504   2.338   4.585   8.811  0.9834  1.7434  0.7240
  179SLPC  C31220505   2.140   4.552   8.910 -0.4709 -0.5914  0.3678
  179SLPC  H12X20506   2.121   4.659   8.931  0.0716 -0.5529  0.6899
  179SLPC  H12Y20507   2.108   4.491   8.998 -0.2940  1.1676  1.7093
  179SLPC  C31320508   2.057   4.514   8.780 -0.3029 -0.0527 -0.3693
  179SLPC  H13X20509   2.105   4.424   8.735 -0.2137 -0.8814  1.3046
  179SLPC  H13Y20510   2.068   4.597   8.708  1.5659 -2.3699 -2.9528
  179SLPC  C31420511   1.914   4.493   8.826  0.1055 -0.3487 -0.0664
  179SLPC  H14X20512   1.878   4.596   8.842 -0.0300 -0.2946 -0.6905
  179SLPC  H14Y20513   1.909   4.434   8.920 -1.5709  2.3426  1.6678
  179SLPC  C31520514   1.822   4.417   8.722 -0.3538 -0.1332  0.0990
  179SLPC  H15X20515   1.846   4.308   8.727 -1.6050 -0.3933  0.7865
  179SLPC  H15Y20516   1.861   4.450   8.623  0.0965 -1.1154 -0.0731
  179SLPC  C31620517   1.668   4.446   8.738  0.1936 -0.0034 -0.3683
  179SLPC  H16X20518   1.654   4.555   8.726  0.2983  0.1180  0.5061
  179SLPC  H16Y20519   1.625   4.422   8.838  0.7170  2.9547  0.6493
  179SLPC  C31720520   1.583   4.364   8.633  0.1309  0.1244  0.4191
  179SLPC  H17X20521   1.556   4.264   8.672  3.3735 -1.2901 -0.5763
  179SLPC  H17Y20522   1.652   4.349   8.547 -1.3579  2.0187 -1.2121
  179SLPC  C31820523   1.451   4.436   8.583  0.0131  0.0016  0.2469
  179SLPC  H18X20524   1.476   4.536   8.543 -0.5962  0.9273  2.0496
  179SLPC  H18Y20525   1.392   4.468   8.672  1.9849  4.7844  0.1021
  179SLPC  H18Z20526   1.401   4.375   8.505  0.2271  2.0514 -1.5953
  180SLPC     N20527   5.064   3.401  11.312 -0.3375 -0.7435  0.6286
  180SLPC   C1320528   5.062   3.533  11.244 -0.4545  0.9079 -0.2494
  180SLPC  H13A20529   5.063   3.617  11.312  3.3340  1.1493 -0.3789
  180SLPC  H13B20530   5.150   3.544  11.183 -1.6876  1.1081 -2.0898
  180SLPC  H13C20531   4.985   3.537  11.168 -0.0625 -0.8144 -0.7751
  180SLPC   C1420532   4.937   3.394  11.392 -0.5885  0.1009  0.9528
  180SLPC  H14A20533   4.850   3.397  11.327 -0.5949 -0.5752  0.9237
  180SLPC  H14B20534   4.929   3.302  11.448  3.4700 -0.5782  0.6615
  180SLPC  H14C20535   4.932   3.477  11.461 -1.3217  1.8122 -1.0351
  180SLPC   C1520536   5.180   3.393  11.404 -0.1014 -0.2720 -0.8709
  180SLPC  H15A20537   5.276   3.418  11.360  0.1997 -1.5281 -0.9625
  180SLPC  H15B20538   5.167   3.461  11.487  0.0408  0.5410 -1.4931
  180SLPC  H15C20539   5.197   3.293  11.439  1.4209 -0.4690 -2.0586
  180SLPC   C1220540   5.051   3.284  11.214  0.5983  0.2306  0.0744
  180SLPC  H12A20541   5.072   3.188  11.259 -1.3451 -0.5020 -0.4975
  180SLPC  H12B20542   5.133   3.291  11.144 -0.9147  2.3093 -1.5984
  180SLPC   C1120543   4.931   3.272  11.114 -0.0572  0.1504  0.5702
  180SLPC  H11A20544   4.840   3.254  11.175  0.5941 -1.5357  1.1022
  180SLPC  H11B20545   4.949   3.176  11.061  0.5390  0.2188  0.6408
  180SLPC     P20546   5.013   3.380  10.898  0.0015  0.0502  0.0182
  180SLPC   O1320547   5.046   3.519  10.856 -0.0189  0.2193  0.3208
  180SLPC   O1420548   5.131   3.295  10.924  0.4113 -0.2610  0.1353
  180SLPC   O1220549   4.916   3.386  11.029 -0.7681  0.2443  0.1847
  180SLPC   O1120550   4.919   3.311  10.787  0.1063 -0.2484  0.0378
  180SLPC    C120551   4.804   3.391  10.747 -0.1671  0.5089  0.4646
  180SLPC    HA20552   4.758   3.426  10.841 -0.0643 -0.6896  0.9763
  180SLPC    HB20553   4.828   3.478  10.682 -1.5438  0.8890  0.4382
  180SLPC    C220554   4.689   3.314  10.682  0.7768  0.2924  0.5545
  180SLPC    HS20555   4.657   3.238  10.758 -0.6506  0.6057  0.3040
  180SLPC   O2120556   4.732   3.261  10.556  0.1354  0.0118 -0.0430
  180SLPC   C2120557   4.662   3.161  10.503  0.2587  0.5605  0.5820
  180SLPC   O2220558   4.566   3.116  10.560  0.4592  0.1441  0.1579
  180SLPC   C2220559   4.727   3.099  10.373 -0.2758  0.5136  0.0119
  180SLPC   H2R20560   4.821   3.148  10.341  0.1487 -1.6503 -2.3367
  180SLPC   H2S20561   4.745   2.989  10.379  0.5195  0.4347 -2.6959
  180SLPC    C320562   4.563   3.410  10.667  0.1578 -0.0627 -0.0124
  180SLPC    HX20563   4.600   3.494  10.604 -1.2968  1.6070  1.2517
  180SLPC    HY20564   4.535   3.452  10.766 -0.4128 -0.9877  0.2313
  180SLPC   O3120565   4.440   3.352  10.625 -0.0512 -0.0930 -0.4265
  180SLPC   C3120566   4.384   3.397  10.511 -0.0323 -1.1513 -1.0906
  180SLPC   O3220567   4.425   3.496  10.447  0.6016 -0.1312  0.3526
  180SLPC   C3220568   4.261   3.320  10.497 -0.0795 -0.4804  0.0961
  180SLPC   H2X20569   4.186   3.357  10.569  0.9264  2.2992 -0.1806
  180SLPC   H2Y20570   4.269   3.209  10.508 -1.2641 -0.6556 -0.5926
  180SLPC   C2320571   4.626   3.101  10.252 -0.7063  0.3992  0.2747
  180SLPC   H3R20572   4.590   3.205  10.246  1.9228  1.3819  0.1345
  180SLPC   H3S20573   4.545   3.031  10.280 -0.0709 -0.7901 -0.7194
  180SLPC   C2420574   4.686   3.058  10.120 -0.1659 -0.7084 -0.3869
  180SLPC   H4R20575   4.744   2.963  10.124  0.2594 -0.4111  1.7985
  180SLPC   H4S20576   4.756   3.139  10.092  0.1012 -0.6203  0.5194
  180SLPC   C2520577   4.581   3.049  10.000 -0.3291 -0.1377  0.0202
  180SLPC   H5R20578   4.545   3.149   9.967 -1.4991 -0.6513 -0.2872
  180SLPC   H5S20579   4.495   2.981  10.019 -0.0927 -0.1136  1.2414
  180SLPC   C2620580   4.669   2.997   9.888 -0.5758  0.4273  0.1700
  180SLPC   H6R20581   4.700   2.890   9.890 -2.6236 -0.3679 -2.8639
  180SLPC   H6S20582   4.755   3.067   9.893  0.3422 -0.6198 -0.5399
  180SLPC   C2720583   4.591   3.020   9.760  0.4267  0.2159 -0.4089
  180SLPC   H7R20584   4.559   3.126   9.760 -0.0594  0.1569 -3.0688
  180SLPC   H7S20585   4.500   2.956   9.753 -0.7196  1.7412  0.0869
  180SLPC   C2820586   4.682   2.989   9.645 -0.1716  0.6557  0.3491
  180SLPC   H8R20587   4.777   3.043   9.664 -1.0153  1.4115  2.8057
  180SLPC   H8S20588   4.645   3.044   9.555  0.8154 -1.7538 -1.6479
  180SLPC   C2920589   4.722   2.846   9.615  0.0318  0.2281 -0.0008
  180SLPC   H9R20590   4.704   2.774   9.697 -1.4286 -1.9483 -2.0767
  180SLPC  C21020591   4.776   2.801   9.496 -0.0578 -0.7491 -0.5566
  180SLPC  H10R20592   4.787   2.692   9.483  1.2127 -0.7900  0.6226
  180SLPC  C21120593   4.788   2.891   9.377 -0.1205 -0.5189 -0.7218
  180SLPC  H11R20594   4.832   2.988   9.410 -1.1642 -0.0100 -0.7848
  180SLPC  H11S20595   4.683   2.915   9.350 -0.2939 -0.7384 -0.2449
  180SLPC  C21220596   4.864   2.845   9.254 -0.5275  0.0549 -0.0340
  180SLPC  H12R20597   4.938   2.921   9.223 -0.9460  0.7011  0.5256
  180SLPC  C21320598   4.864   2.732   9.184 -0.1572  0.0511  0.1214
  180SLPC  H13R20599   4.935   2.722   9.101  2.0148  0.2964  1.8553
  180SLPC  C21420600   4.771   2.619   9.203  0.0827  0.1153  0.7250
  180SLPC  H14R20601   4.746   2.592   9.098 -0.1416  1.1357  0.5012
  180SLPC  H14S20602   4.671   2.646   9.242  0.7597  1.5048  1.5615
  180SLPC  C21520603   4.826   2.493   9.278  0.1737 -0.0189  0.5395
  180SLPC  H15R20604   4.738   2.444   9.325  1.2267 -2.9269 -0.2909
  180SLPC  H15S20605   4.898   2.528   9.355  1.1759 -1.3315  0.2386
  180SLPC  C21620606   4.886   2.383   9.189  0.2510  0.0770  0.2950
  180SLPC  H16R20607   4.974   2.436   9.147 -1.0830  2.2560  0.0588
  180SLPC  H16S20608   4.823   2.342   9.107  2.3850 -0.9867 -0.8906
  180SLPC  C21720609   4.949   2.262   9.259 -0.3112  0.0120  0.9311
  180SLPC  H17R20610   5.024   2.293   9.335 -0.8270  0.6722  1.1805
  180SLPC  H17S20611   5.003   2.194   9.189  3.4005  0.9374  2.6514
  180SLPC  C21820612   4.844   2.181   9.343 -0.6613 -0.3170 -0.0258
  180SLPC  H18R20613   4.890   2.100   9.404  1.2436 -0.0394 -1.0118
  180SLPC  H18S20614   4.767   2.130   9.280 -1.2355 -0.9063  1.1189
  180SLPC  H18T20615   4.788   2.253   9.406  1.2184  0.0095  1.3379
  180SLPC   C3320616   4.207   3.351  10.356 -0.7394  0.4873 -0.0793
  180SLPC   H3X20617   4.203   3.459  10.327 -1.9004  0.4015 -0.3056
  180SLPC   H3Y20618   4.104   3.309  10.364  0.4049 -2.4823  0.2786
  180SLPC   C3420619   4.259   3.263  10.239 -0.5021 -0.2052 -0.0560
  180SLPC   H4X20620   4.277   3.161  10.278  2.9315  0.3110  0.0926
  180SLPC   H4Y20621   4.362   3.302  10.219  0.5508 -1.7434  1.9272
  180SLPC   C3520622   4.179   3.282  10.111 -0.4811  0.3534 -0.3489
  180SLPC   H5X20623   4.131   3.382  10.110 -0.8818  0.1742  0.3625
  180SLPC   H5Y20624   4.096   3.208  10.107 -0.2682  0.0985 -0.0523
  180SLPC   C3620625   4.275   3.268   9.986 -0.0277  0.2666  0.7575
  180SLPC   H6X20626   4.329   3.175  10.013 -2.1891 -1.2589  0.0874
  180SLPC   H6Y20627   4.347   3.353   9.980  1.5576 -1.1191 -2.0843
  180SLPC   C3720628   4.199   3.272   9.852 -0.0148  0.1310 -0.0216
  180SLPC   H7X20629   4.162   3.375   9.834  1.0731  0.4761 -0.3624
  180SLPC   H7Y20630   4.111   3.205   9.858 -0.2691  0.3575 -1.1471
  180SLPC   C3820631   4.283   3.233   9.737  0.6474 -0.0250 -0.4346
  180SLPC   H8X20632   4.282   3.122   9.734 -3.0401 -0.1313 -0.7218
  180SLPC   H8Y20633   4.388   3.266   9.745  0.6056 -0.3343  2.4257
  180SLPC   C3920634   4.235   3.295   9.605  0.3111  0.1672  0.5692
  180SLPC   H9X20635   4.220   3.406   9.605 -1.1996 -0.0146  0.5636
  180SLPC   H9Y20636   4.141   3.240   9.587  0.3961  0.0554  0.4639
  180SLPC  C31020637   4.327   3.269   9.483 -0.4863 -0.7949 -0.5607
  180SLPC  H10X20638   4.358   3.164   9.463  0.2547 -0.7452  0.2504
  180SLPC  H10Y20639   4.423   3.322   9.500 -0.2635 -1.9905  2.5916
  180SLPC  C31120640   4.286   3.348   9.353 -0.6632 -0.2275 -0.1004
  180SLPC  H11X20641   4.252   3.452   9.370  2.0736  0.7735 -0.2206
  180SLPC  H11Y20642   4.193   3.300   9.316 -0.1029 -2.6003  1.3729
  180SLPC  C31220643   4.391   3.340   9.237 -0.4784  0.2678 -0.2230
  180SLPC  H12X20644   4.431   3.236   9.236 -3.0562 -0.8451 -2.1121
  180SLPC  H12Y20645   4.479   3.407   9.237  0.7738 -1.3183 -1.0182
  180SLPC  C31320646   4.319   3.348   9.103 -0.5301 -0.1995  0.6390
  180SLPC  H13X20647   4.250   3.435   9.106  1.3961  1.5476 -1.2965
  180SLPC  H13Y20648   4.266   3.256   9.072  0.5844 -1.4294  2.2225
  180SLPC  C31420649   4.418   3.353   8.987 -0.5517 -0.3950 -0.3230
  180SLPC  H14X20650   4.372   3.345   8.886 -0.3194 -1.9280 -0.3315
  180SLPC  H14Y20651   4.492   3.272   9.002 -0.1478 -0.1693 -1.0630
  180SLPC  C31520652   4.501   3.488   8.968 -0.3791  0.1484 -0.0042
  180SLPC  H15X20653   4.572   3.504   9.052 -1.5614 -0.4391  1.1397
  180SLPC  H15Y20654   4.424   3.567   8.978 -0.0310  0.4856  0.0311
  180SLPC  C31620655   4.574   3.492   8.826  0.1762 -0.0858 -0.0911
  180SLPC  H16X20656   4.488   3.502   8.757  1.4929  3.2328 -1.4300
  180SLPC  H16Y20657   4.626   3.393   8.831  1.3241  0.5442  1.2290
  180SLPC  C31720658   4.678   3.601   8.798  0.2430 -0.1615 -0.5593
  180SLPC  H17X20659   4.748   3.613   8.883 -0.1956 -1.8174  0.0666
  180SLPC  H17Y20660   4.627   3.699   8.785 -0.0214 -0.1438  0.5730
  180SLPC  C31820661   4.757   3.571   8.672 -1.2584 -0.0226  0.1138
  180SLPC  H18X20662   4.769   3.673   8.629  0.0474  1.0712  2.8013
  180SLPC  H18Y20663   4.700   3.513   8.597 -2.3832  1.0034  0.1539
  180SLPC  H18Z20664   4.853   3.527   8.707 -2.6031 -3.9227 -0.6220
  181SLPC     N20665   5.714   3.077  11.293 -0.7033 -0.7216  0.8557
  181SLPC   C1320666   5.755   2.940  11.237  0.2318  0.5879  0.1377
  181SLPC  H13A20667   5.675   2.870  11.223  2.9660 -2.5486 -1.2187
  181SLPC  H13B20668   5.790   2.939  11.134 -0.2218 -1.3191 -0.0301
  181SLPC  H13C20669   5.830   2.885  11.291  3.8116  3.6886 -1.1971
  181SLPC   C1420670   5.837   3.163  11.292  0.3499  0.5267  0.3897
  181SLPC  H14A20671   5.829   3.264  11.327 -0.4388  0.2321  1.1015
  181SLPC  H14B20672   5.910   3.121  11.359 -0.5092  1.6866  2.1135
  181SLPC  H14C20673   5.876   3.152  11.192 -1.5909 -2.9393 -0.1928
  181SLPC   C1520674   5.648   3.064  11.426 -0.2867  0.5161  0.5705
  181SLPC  H15A20675   5.712   3.030  11.507 -0.2925  1.6992  1.0959
  181SLPC  H15B20676   5.613   3.158  11.467  0.1625  1.0184 -0.1639
  181SLPC  H15C20677   5.567   2.994  11.430  1.4558 -1.7473 -1.0101
  181SLPC   C1220678   5.622   3.148  11.195  0.4520  0.1316  0.0825
  181SLPC  H12A20679   5.630   3.253  11.222 -2.7668  0.3709  0.5399
  181SLPC  H12B20680   5.519   3.119  11.201  0.7732 -1.3859 -1.2238
  181SLPC   C1120681   5.658   3.137  11.041  0.2414  0.1596 -0.4970
  181SLPC  H11A20682   5.573   3.169  10.979  0.0429 -1.0284 -0.8742
  181SLPC  H11B20683   5.682   3.030  11.019  2.5790  0.5066  0.1041
  181SLPC     P20684   5.748   3.376  11.009  0.1561 -0.2874 -0.0740
  181SLPC   O1320685   5.605   3.407  10.986  0.7500 -0.1433  0.5558
  181SLPC   O1420686   5.813   3.427  11.137 -0.3556  0.4774 -0.5793
  181SLPC   O1220687   5.772   3.219  11.010  0.4526 -0.1161  0.2463
  181SLPC   O1120688   5.833   3.425  10.886  0.2492 -0.0945 -0.5531
  181SLPC    C120689   5.879   3.331  10.789  0.4292 -0.8261  0.6577
  181SLPC    HA20690   5.954   3.384  10.726 -1.0193  4.9044  3.0703
  181SLPC    HB20691   5.934   3.246  10.833  0.2918 -0.9145  0.6617
  181SLPC    C220692   5.769   3.298  10.689  0.4186  0.2646 -0.5592
  181SLPC    HS20693   5.690   3.247  10.747  2.2160 -0.4801  1.3466
  181SLPC   O2120694   5.826   3.219  10.583  0.0843  0.6245 -0.0611
  181SLPC   C2120695   5.750   3.128  10.536  0.5931  0.1700  0.1314
  181SLPC   O2220696   5.637   3.102  10.576 -0.2202  0.1499 -0.5554
  181SLPC   C2220697   5.822   3.060  10.418 -0.0447  0.1900  0.0191
  181SLPC   H2R20698   5.925   3.103  10.413  0.0991 -0.1155  0.3689
  181SLPC   H2S20699   5.832   2.954  10.447 -0.4049  0.6641  1.9830
  181SLPC    C320700   5.691   3.421  10.632 -0.5137 -0.3565 -0.2952
  181SLPC    HX20701   5.759   3.487  10.574 -1.1515  0.2910 -0.3221
  181SLPC    HY20702   5.649   3.477  10.719 -0.4230 -0.9479  0.1357
  181SLPC   O3120703   5.581   3.385  10.548  0.0389 -0.6294 -0.2826
  181SLPC   C3120704   5.505   3.495  10.522  0.0835  0.2862  0.6361
  181SLPC   O3220705   5.513   3.601  10.577 -0.2764 -0.4092  0.5033
  181SLPC   C3220706   5.418   3.470  10.392 -0.4750  0.3029 -0.5933
  181SLPC   H2X20707   5.390   3.572  10.358 -3.2631 -0.2985 -0.3261
  181SLPC   H2Y20708   5.328   3.408  10.413 -0.7591 -0.2848 -3.1403
  181SLPC   C2320709   5.749   3.076  10.286 -0.8401 -0.1923 -0.8086
  181SLPC   H3R20710   5.769   3.179  10.249 -2.3196  1.1329  1.7788
  181SLPC   H3S20711   5.639   3.069  10.301 -0.4700 -2.1721  1.8159
  181SLPC   C2420712   5.792   2.973  10.176  0.1264  0.2671 -0.1460
  181SLPC   H4R20713   5.751   2.877  10.215  1.9800 -0.2875  0.5272
  181SLPC   H4S20714   5.902   2.964  10.173  0.3596  0.5253  3.3928
  181SLPC   C2520715   5.737   2.999  10.036  0.0816  0.6058  0.7787
  181SLPC   H5R20716   5.788   3.090   9.997 -1.7054  0.8981 -1.0300
  181SLPC   H5S20717   5.627   3.016  10.045  0.3132  2.2116  0.9028
  181SLPC   C2620718   5.763   2.888   9.932 -0.1942  1.1544 -0.0580
  181SLPC   H6R20719   5.718   2.794   9.972  0.9892 -1.0648 -3.4625
  181SLPC   H6S20720   5.871   2.875   9.908 -1.0178 -0.8125 -3.3337
  181SLPC   C2720721   5.689   2.902   9.801  0.1493 -0.1887 -0.3700
  181SLPC   H7R20722   5.583   2.929   9.824  0.3598 -0.5952  1.1700
  181SLPC   H7S20723   5.681   2.803   9.752 -0.5540  0.9897 -2.8335
  181SLPC   C2820724   5.744   2.991   9.692 -0.1794 -0.4176 -0.9620
  181SLPC   H8R20725   5.736   3.093   9.736 -0.2397 -0.7614 -0.1687
  181SLPC   H8S20726   5.674   2.991   9.606  0.1486  0.8508 -1.2552
  181SLPC   C2920727   5.882   2.968   9.654  0.0684 -0.7100  0.9273
  181SLPC   H9R20728   5.957   2.987   9.731  0.7197  0.7781 -0.0251
  181SLPC  C21020729   5.919   2.921   9.533 -0.1762 -0.5694 -0.6516
  181SLPC  H10R20730   6.027   2.903   9.525 -0.2214 -0.5746 -1.2546
  181SLPC  C21120731   5.841   2.887   9.407 -0.6880 -1.2409  0.2226
  181SLPC  H11R20732   5.741   2.858   9.447 -0.3651  1.3196  3.3268
  181SLPC  H11S20733   5.882   2.805   9.345  0.0235 -0.6624 -0.0815
  181SLPC  C21220734   5.809   3.003   9.312 -1.1854 -0.2954  0.1729
  181SLPC  H12R20735   5.812   3.101   9.362 -1.7892  1.1135 -2.3756
  181SLPC  C21320736   5.798   2.993   9.177  0.4936  0.3642  0.1221
  181SLPC  H13R20737   5.771   3.086   9.125  1.6702  1.2636  1.0396
  181SLPC  C21420738   5.806   2.870   9.092 -0.2334 -0.2030 -0.0944
  181SLPC  H14R20739   5.824   2.782   9.157  2.6476 -0.6276 -1.3170
  181SLPC  H14S20740   5.887   2.875   9.016 -0.7373 -0.1484 -0.6361
  181SLPC  C21520741   5.682   2.842   9.013 -0.7814  0.0339 -0.0091
  181SLPC  H15R20742   5.598   2.838   9.086  0.9037  2.5743  2.2835
  181SLPC  H15S20743   5.694   2.745   8.961 -0.2860  0.9490 -1.6754
  181SLPC  C21620744   5.646   2.949   8.896  0.5845 -0.9880 -0.5907
  181SLPC  H16R20745   5.654   3.051   8.938 -0.3978 -0.4663 -1.6061
  181SLPC  H16S20746   5.548   2.928   8.848  0.6664  0.8953 -1.6870
  181SLPC  C21720747   5.753   2.953   8.783  0.0075  0.6228  0.0882
  181SLPC  H17R20748   5.797   2.853   8.766 -0.1584  0.6425 -0.4580
  181SLPC  H17S20749   5.829   3.021   8.826 -0.3914  0.5209  0.9842
  181SLPC  C21820750   5.706   3.011   8.654 -0.5695  0.0274 -0.4324
  181SLPC  H18R20751   5.608   2.963   8.632 -0.9396  0.8530 -0.6186
  181SLPC  H18S20752   5.775   2.995   8.568 -0.9865  0.5475 -0.8799
  181SLPC  H18T20753   5.698   3.121   8.663  2.0557  0.3350 -1.0373
  181SLPC   C3320754   5.502   3.398  10.279  0.2337 -0.6809 -0.2709
  181SLPC   H3X20755   5.523   3.293  10.310  1.0650 -0.3664  0.2656
  181SLPC   H3Y20756   5.595   3.451  10.250 -0.2399  0.7036  0.6798
  181SLPC   C3420757   5.425   3.375  10.153  0.2250 -0.5515  0.1427
  181SLPC   H4X20758   5.389   3.472  10.111 -0.2734 -0.1697  1.3916
  181SLPC   H4Y20759   5.337   3.309  10.171  0.6307 -0.6684  1.8502
  181SLPC   C3520760   5.504   3.318  10.036  0.0325  0.0009  0.3879
  181SLPC   H5X20761   5.539   3.215  10.053  0.7535  0.1612 -0.0829
  181SLPC   H5Y20762   5.594   3.377  10.007 -1.0169  1.5160  0.0817
  181SLPC   C3620763   5.423   3.324   9.904  0.1757 -0.3155  0.7404
  181SLPC   H6X20764   5.371   3.423   9.897 -3.1282 -1.9634 -0.2478
  181SLPC   H6Y20765   5.341   3.249   9.906  0.9258 -1.1452  0.6087
  181SLPC   C3720766   5.500   3.303   9.776  0.0472 -0.6013  0.4230
  181SLPC   H7X20767   5.527   3.198   9.751  0.4879 -0.8522  1.8783
  181SLPC   H7Y20768   5.597   3.356   9.786  0.1114  0.0299 -2.4327
  181SLPC   C3820769   5.431   3.362   9.654 -0.2317 -0.0556  0.2079
  181SLPC   H8X20770   5.428   3.473   9.661  2.9583  0.1307 -0.0563
  181SLPC   H8Y20771   5.330   3.319   9.639 -0.1133  0.3857 -2.2363
  181SLPC   C3920772   5.516   3.341   9.528  0.0266  0.3363  0.7087
  181SLPC   H9X20773   5.542   3.234   9.514  1.0125  0.4428  1.6086
  181SLPC   H9Y20774   5.605   3.406   9.540  0.7061 -0.6722  1.2309
  181SLPC  C31020775   5.430   3.383   9.403  0.7382  0.1466 -0.7015
  181SLPC  H10X20776   5.425   3.494   9.414  0.4348 -0.0118  0.8593
  181SLPC  H10Y20777   5.329   3.340   9.422  1.6574 -1.2895  1.2987
  181SLPC  C31120778   5.487   3.346   9.268 -0.2976 -0.6783  0.1338
  181SLPC  H11X20779   5.523   3.241   9.271 -0.7117 -0.8169  0.3166
  181SLPC  H11Y20780   5.568   3.419   9.245 -1.9083  2.3944  3.2879
  181SLPC  C31220781   5.381   3.364   9.157  0.0839  0.0787  0.6115
  181SLPC  H12X20782   5.356   3.472   9.161  1.1032  0.3199  0.8617
  181SLPC  H12Y20783   5.293   3.304   9.185  0.4298 -0.0878  1.3521
  181SLPC  C31320784   5.425   3.321   9.019  0.8301  0.4480 -0.0374
  181SLPC  H13X20785   5.459   3.215   9.022 -0.9771 -0.1550  0.0653
  181SLPC  H13Y20786   5.507   3.390   8.991  1.3408  0.1493  0.6826
  181SLPC  C31420787   5.326   3.320   8.906 -0.3885  0.1399 -0.6468
  181SLPC  H14X20788   5.299   3.425   8.882  0.4794  0.9333  1.5446
  181SLPC  H14Y20789   5.227   3.281   8.938 -0.6626  0.9076 -0.5346
  181SLPC  C31520790   5.376   3.250   8.780 -0.7514 -0.0303 -0.1986
  181SLPC  H15X20791   5.477   3.209   8.804 -0.9290  0.2135  1.0422
  181SLPC  H15Y20792   5.399   3.325   8.701 -0.4549  0.2366  0.1350
  181SLPC  C31620793   5.285   3.155   8.722 -0.5505  0.2738  0.1218
  181SLPC  H16X20794   5.199   3.207   8.675 -1.8964 -0.2123  1.9378
  181SLPC  H16Y20795   5.227   3.088   8.789 -0.7051  1.6937  1.4554
  181SLPC  C31720796   5.361   3.060   8.621  0.3372 -0.2009 -0.5838
  181SLPC  H17X20797   5.412   2.978   8.676  0.4227 -0.2649 -0.7600
  181SLPC  H17Y20798   5.436   3.121   8.565  0.5715 -1.4271 -1.6468
  181SLPC  C31820799   5.277   2.983   8.517 -0.3841 -0.0392  0.2460
  181SLPC  H18X20800   5.348   2.939   8.445 -0.4906 -1.5862  1.0601
  181SLPC  H18Y20801   5.216   3.055   8.458  1.1197 -0.2060 -1.5805
  181SLPC  H18Z20802   5.200   2.917   8.563  1.6753 -0.7413  2.9093
  182SLPC     N20803   5.731   0.383  10.920  0.2171 -0.2199  0.1319
  182SLPC   C1320804   5.697   0.526  10.899  0.8822 -0.4743 -0.3116
  182SLPC  H13A20805   5.683   0.587  10.988 -0.3990  1.9875 -2.0736
  182SLPC  H13B20806   5.765   0.571  10.828  0.5313  1.0839  0.2880
  182SLPC  H13C20807   5.593   0.529  10.870  0.8368 -2.9500 -0.6341
  182SLPC   C1420808   5.686   0.300  10.795  0.1747  0.4706 -0.2084
  182SLPC  H14A20809   5.712   0.362  10.711 -0.1114  2.6489  1.2045
  182SLPC  H14B20810   5.740   0.207  10.793 -2.9975 -1.4801 -2.2525
  182SLPC  H14C20811   5.579   0.292  10.802  0.2320  0.6170  1.1542
  182SLPC   C1520812   5.647   0.324  11.032 -0.2308  0.8463 -0.8895
  182SLPC  H15A20813   5.662   0.220  11.057  0.0231  0.5219 -2.3215
  182SLPC  H15B20814   5.668   0.377  11.124 -0.8813  0.0886 -0.2878
  182SLPC  H15C20815   5.542   0.348  11.018 -0.8964  2.5085  4.5418
  182SLPC   C1220816   5.877   0.369  10.960  0.6931  0.3600  0.5044
  182SLPC  H12A20817   5.882   0.267  10.992 -2.3402  0.1124  0.4914
  182SLPC  H12B20818   5.897   0.425  11.050  0.3059  1.0965  0.1474
  182SLPC   C1120819   5.984   0.398  10.860  0.0813  0.4876  0.3318
  182SLPC  H11A20820   5.948   0.377  10.756 -0.1556 -0.5308  0.6061
  182SLPC  H11B20821   6.073   0.340  10.892 -0.3794 -0.7161 -0.4926
  182SLPC     P20822   6.162   0.590  10.864 -0.1311 -0.1334  0.1250
  182SLPC   O1320823   6.157   0.736  10.896  0.2410  0.2190  0.0023
  182SLPC   O1420824   6.225   0.506  10.966 -0.8725  0.4240 -0.4478
  182SLPC   O1220825   6.011   0.533  10.865 -0.2557 -0.4892 -0.2325
  182SLPC   O1120826   6.227   0.569  10.728  0.0480 -0.1650 -0.6534
  182SLPC    C120827   6.274   0.441  10.685  0.3866  0.3078  0.0255
  182SLPC    HA20828   6.358   0.398  10.744 -1.5853 -1.6159  1.6395
  182SLPC    HB20829   6.191   0.367  10.682 -0.5626  1.3614 -0.4030
  182SLPC    C220830   6.318   0.446  10.535  0.0091  0.1541 -0.3636
  182SLPC    HS20831   6.339   0.343  10.501 -0.3276  0.0532 -0.2668
  182SLPC   O2120832   6.429   0.534  10.517 -0.1560 -0.0361  0.7814
  182SLPC   C2120833   6.545   0.467  10.486 -0.5649  0.8637  0.0325
  182SLPC   O2220834   6.551   0.342  10.472  0.3333 -0.3229 -0.1197
  182SLPC   C2220835   6.664   0.564  10.496  0.4045 -0.3562 -0.6508
  182SLPC   H2R20836   6.649   0.651  10.428  1.0293  0.1179 -0.1851
  182SLPC   H2S20837   6.654   0.612  10.595  2.6456  1.6254 -1.2936
  182SLPC    C320838   6.202   0.501  10.458  0.4193  0.1688  0.3013
  182SLPC    HX20839   6.187   0.611  10.465 -3.3874  0.0585 -2.3827
  182SLPC    HY20840   6.103   0.462  10.490 -0.3398  1.0862 -0.8157
  182SLPC   O3120841   6.219   0.445  10.329  0.2290 -0.6322  0.1740
  182SLPC   C3120842   6.235   0.529  10.231 -0.5502  0.0137  0.0040
  182SLPC   O3220843   6.248   0.648  10.233  0.9300  0.3764 -0.1937
  182SLPC   C3220844   6.251   0.441  10.107  0.2239  0.3326 -0.3631
  182SLPC   H2X20845   6.152   0.408  10.070  0.5633 -2.0613  0.6529
  182SLPC   H2Y20846   6.314   0.356  10.139 -1.3982 -0.8399 -0.1822
  182SLPC   C2320847   6.803   0.509  10.476 -0.3001  0.1444 -0.1464
  182SLPC   H3R20848   6.805   0.399  10.492 -0.8806 -0.1265 -1.7489
  182SLPC   H3S20849   6.875   0.553  10.548  2.0771  0.8129 -2.7588
  182SLPC   C2420850   6.853   0.554  10.341 -0.1121 -0.2551 -0.1714
  182SLPC   H4R20851   6.946   0.494  10.332 -0.4762 -1.0616  1.1461
  182SLPC   H4S20852   6.870   0.663  10.333  1.3153 -0.4583 -0.1989
  182SLPC   C2520853   6.775   0.497  10.224  0.3773  0.0668  0.6544
  182SLPC   H5R20854   6.676   0.546  10.215  0.7177  0.4281 -1.8446
  182SLPC   H5S20855   6.766   0.389  10.245  0.3266  0.3765  2.3953
  182SLPC   C2620856   6.860   0.516  10.093  0.8474  0.4741  0.1358
  182SLPC   H6R20857   6.966   0.497  10.122  0.4776 -0.3368  0.9666
  182SLPC   H6S20858   6.836   0.616  10.051 -5.5555 -1.2465 -1.2790
  182SLPC   C2720859   6.808   0.424   9.979 -0.4398 -0.0345  0.1221
  182SLPC   H7R20860   6.702   0.448   9.961 -0.2219  1.7892  1.0100
  182SLPC   H7S20861   6.829   0.321  10.017  2.5944  0.4797  0.0822
  182SLPC   C2820862   6.886   0.432   9.846 -0.2948  0.3040 -0.7634
  182SLPC   H8R20863   6.992   0.403   9.862 -0.6105 -0.3778  0.1223
  182SLPC   H8S20864   6.890   0.540   9.819  0.0207  0.3855 -0.3911
  182SLPC   C2920865   6.817   0.356   9.741 -0.2238 -0.5623 -0.3222
  182SLPC   H9R20866   6.710   0.336   9.755 -0.4553  0.3353 -0.7563
  182SLPC  C21020867   6.891   0.316   9.636 -0.4686  0.1964  0.1309
  182SLPC  H10R20868   6.838   0.256   9.561  1.2488 -2.8504  1.1669
  182SLPC  C21120869   7.038   0.335   9.603  0.4583 -0.7507 -0.5436
  182SLPC  H11R20870   7.098   0.399   9.671 -1.2244  0.7449 -0.4110
  182SLPC  H11S20871   7.046   0.392   9.507  1.7161 -0.1056 -0.0779
  182SLPC  C21220872   7.121   0.210   9.589 -0.0118  0.2614  0.4008
  182SLPC  H12R20873   7.172   0.171   9.679  0.1958 -0.0704  0.1427
  182SLPC  C21320874   7.150   0.146   9.471 -0.3924  0.8539  0.4542
  182SLPC  H13R20875   7.212   0.056   9.479  1.1085  1.6747 -1.0983
  182SLPC  C21420876   7.109   0.171   9.331  1.1836 -0.2789  0.7799
  182SLPC  H14R20877   7.004   0.207   9.327  1.2569 -0.1335 -1.0877
  182SLPC  H14S20878   7.120   0.072   9.282  1.6958 -0.1920  0.7113
  182SLPC  C21520879   7.196   0.266   9.253 -0.4102  0.6732  0.0673
  182SLPC  H15R20880   7.289   0.212   9.225 -1.2704 -0.8161 -0.0493
  182SLPC  H15S20881   7.215   0.362   9.306  0.2775  0.3395  0.4459
  182SLPC  C21620882   7.128   0.297   9.118 -0.0828 -0.9553 -0.4325
  182SLPC  H16R20883   7.194   0.358   9.053  0.9830 -0.9972  0.5684
  182SLPC  H16S20884   7.027   0.338   9.138  0.8581  1.1978  0.1887
  182SLPC  C21720885   7.097   0.177   9.029  0.1961  0.0782 -0.2361
  182SLPC  H17R20886   7.044   0.216   8.939  0.9883  3.6495  0.6735
  182SLPC  H17S20887   7.035   0.100   9.079  0.4364 -0.0578 -0.1487
  182SLPC  C21820888   7.222   0.104   8.975  0.4810 -0.9547 -0.0486
  182SLPC  H18R20889   7.208   0.022   8.902 -1.0963 -1.5148  0.8381
  182SLPC  H18S20890   7.289   0.072   9.058  0.2807 -3.9646 -0.9192
  182SLPC  H18T20891   7.269   0.182   8.911  0.6506  0.7535  2.0335
  182SLPC   C3320892   6.330   0.526   9.996 -0.4189  0.0906  0.0128
  182SLPC   H3X20893   6.435   0.533  10.031  0.3404 -3.9195 -0.8792
  182SLPC   H3Y20894   6.290   0.629   9.990 -0.5869  0.1368  1.5634
  182SLPC   C3420895   6.327   0.458   9.857  0.0867 -0.2304  0.0213
  182SLPC   H4X20896   6.222   0.465   9.820  0.2445  1.3206 -0.2318
  182SLPC   H4Y20897   6.371   0.356   9.852 -0.6690 -0.5780  0.3787
  182SLPC   C3520898   6.416   0.524   9.757  0.8618 -0.5039  0.0545
  182SLPC   H5X20899   6.516   0.554   9.795  0.3259 -0.7608  1.7480
  182SLPC   H5Y20900   6.366   0.622   9.747  0.5562 -0.5863  0.6740
  182SLPC   C3620901   6.437   0.444   9.629 -0.0754  0.6149 -0.4022
  182SLPC   H6X20902   6.459   0.337   9.651 -1.9741  0.2530 -0.0176
  182SLPC   H6Y20903   6.527   0.484   9.578 -0.1763 -0.4487 -1.4590
  182SLPC   C3720904   6.319   0.454   9.529 -0.4763 -0.5418  0.1855
  182SLPC   H7X20905   6.230   0.418   9.583 -0.8610  0.8910  0.5364
  182SLPC   H7Y20906   6.342   0.387   9.442  1.2431  4.0323 -3.2855
  182SLPC   C3820907   6.316   0.598   9.476 -0.0275 -0.3697 -0.4429
  182SLPC   H8X20908   6.416   0.625   9.436  0.5655 -0.6510  0.7972
  182SLPC   H8Y20909   6.292   0.671   9.556 -2.4135 -1.3924 -0.1323
  182SLPC   C3920910   6.212   0.617   9.359 -0.1701  0.1394  0.2815
  182SLPC   H9X20911   6.111   0.619   9.404 -0.2152  0.1321  0.1808
  182SLPC   H9Y20912   6.224   0.533   9.288 -1.7521  0.9760 -1.0461
  182SLPC  C31020913   6.233   0.755   9.298  0.1803  0.1249 -0.0235
  182SLPC  H10X20914   6.258   0.829   9.377 -0.9411 -0.6638  1.1074
  182SLPC  H10Y20915   6.148   0.791   9.235  0.1153 -1.5851 -0.9714
  182SLPC  C31120916   6.353   0.763   9.200  0.0608 -0.0475 -0.0486
  182SLPC  H11X20917   6.432   0.711   9.259  0.6712  0.0171 -0.7982
  182SLPC  H11Y20918   6.386   0.867   9.178  2.3467 -0.5476  0.7634
  182SLPC  C31220919   6.341   0.682   9.073 -0.6404 -0.1914  0.3331
  182SLPC  H12X20920   6.238   0.640   9.067 -1.1472  0.9431  0.7737
  182SLPC  H12Y20921   6.413   0.598   9.063 -0.4482 -0.1787  1.5496
  182SLPC  C31320922   6.336   0.762   8.933  0.6385  0.5949 -0.0880
  182SLPC  H13X20923   6.438   0.806   8.929  1.8062 -1.9702 -1.0007
  182SLPC  H13Y20924   6.258   0.841   8.938  0.0953  0.1161 -0.9304
  182SLPC  C31420925   6.317   0.663   8.814  0.4232 -0.8453  0.5566
  182SLPC  H14X20926   6.264   0.572   8.850  0.7756 -0.0931  3.2346
  182SLPC  H14Y20927   6.419   0.632   8.783 -0.0348  0.3969 -2.5305
  182SLPC  C31520928   6.245   0.727   8.688 -0.4986  0.2526 -0.7284
  182SLPC  H15X20929   6.150   0.774   8.723 -0.5328 -1.1257  1.2377
  182SLPC  H15Y20930   6.222   0.658   8.603  0.8805  2.8848 -3.3956
  182SLPC  C31620931   6.323   0.824   8.616  0.3551 -0.4492  0.5821
  182SLPC  H16X20932   6.365   0.904   8.680  1.8297  1.0534 -2.0840
  182SLPC  H16Y20933   6.252   0.875   8.548  1.6629 -0.1323 -0.5878
  182SLPC  C31720934   6.442   0.768   8.537  0.4620 -0.2210 -0.7599
  182SLPC  H17X20935   6.422   0.781   8.429  1.0467 -0.6382 -0.9256
  182SLPC  H17Y20936   6.452   0.659   8.556 -2.1694 -0.5850 -1.0593
  182SLPC  C31820937   6.577   0.839   8.566  0.1460 -0.2143  0.1793
  182SLPC  H18X20938   6.575   0.941   8.520 -1.0843 -0.3438 -0.0955
  182SLPC  H18Y20939   6.662   0.786   8.518 -0.0326 -0.2945 -0.0519
  182SLPC  H18Z20940   6.586   0.846   8.676  0.9361 -1.3580  0.1969
  183SLPC     N20941   0.868   2.744  11.070  0.3106 -0.4071 -0.1174
  183SLPC   C1320942   0.967   2.785  11.176  0.1600  0.5234 -0.8068
  183SLPC  H13A20943   0.918   2.782  11.272 -3.6903 -1.0390 -2.6027
  183SLPC  H13B20944   1.051   2.718  11.183 -1.0764 -0.9396  0.7376
  183SLPC  H13C20945   1.000   2.886  11.159 -0.0029  0.9403  1.1381
  183SLPC   C1420946   0.759   2.845  11.079 -0.4185  0.4128 -0.0963
  183SLPC  H14A20947   0.788   2.946  11.057 -0.8836  0.3370 -1.1131
  183SLPC  H14B20948   0.689   2.822  11.000 -0.6395  2.2943 -0.4871
  183SLPC  H14C20949   0.715   2.832  11.177  0.7020 -1.0654  0.2480
  183SLPC   C1520950   0.811   2.609  11.105  0.1013  0.0975 -0.5647
  183SLPC  H15A20951   0.724   2.591  11.044  1.6119 -2.3541 -2.1685
  183SLPC  H15B20952   0.879   2.526  11.104  1.2566  0.9847  0.6270
  183SLPC  H15C20953   0.769   2.622  11.203  0.5933 -0.1197 -0.3219
  183SLPC   C1220954   0.947   2.740  10.941 -0.4947  0.1221  0.1910
  183SLPC  H12A20955   1.027   2.668  10.953 -0.0786  0.7371  1.3038
  183SLPC  H12B20956   1.002   2.833  10.942  0.1881 -0.2655 -0.4826
  183SLPC   C1120957   0.877   2.716  10.804 -1.0129 -0.1975 -0.7352
  183SLPC  H11A20958   0.939   2.729  10.713 -0.7019  0.0209 -0.4922
  183SLPC  H11B20959   0.809   2.803  10.801 -0.0751  0.5458 -0.7723
  183SLPC     P20960   0.868   2.461  10.749  0.1434  0.2667 -0.3315
  183SLPC   O1320961   1.011   2.442  10.789 -0.0523 -0.5648  0.0938
  183SLPC   O1420962   0.776   2.347  10.785 -0.2371 -0.4870 -0.3290
  183SLPC   O1220963   0.807   2.590  10.806  0.0902 -0.0502  0.4682
  183SLPC   O1120964   0.852   2.496  10.596  0.5647 -0.2111 -0.3037
  183SLPC    C120965   0.726   2.525  10.529  0.2433  1.5671 -0.0743
  183SLPC    HA20966   0.649   2.559  10.601 -0.5079 -0.0131 -0.1036
  183SLPC    HB20967   0.742   2.612  10.461  0.6784  1.7260  0.2258
  183SLPC    C220968   0.685   2.393  10.452 -0.2740 -0.3075  0.1705
  183SLPC    HS20969   0.718   2.307  10.514 -1.8881 -0.7646  0.4465
  183SLPC   O2120970   0.755   2.395  10.326  0.8701 -0.0242  0.2941
  183SLPC   C2120971   0.790   2.282  10.276 -0.2585 -0.1338  0.2288
  183SLPC   O2220972   0.779   2.172  10.324 -0.7372 -0.4349 -0.3437
  183SLPC   C2220973   0.875   2.314  10.149 -0.8020  0.3221  0.0281
  183SLPC   H2R20974   0.842   2.415  10.116  0.5002  0.6590 -0.3022
  183SLPC   H2S20975   0.982   2.330  10.172 -0.3697 -1.3199 -0.6776
  183SLPC    C320976   0.527   2.393  10.429 -0.4130 -0.6771  0.5075
  183SLPC    HX20977   0.499   2.472  10.356  1.3097 -0.0077  0.5171
  183SLPC    HY20978   0.468   2.420  10.519 -1.3413 -1.4351  0.1331
  183SLPC   O3120979   0.477   2.275  10.369  0.0441 -0.3438  0.4478
  183SLPC   C3120980   0.460   2.167  10.444 -1.1323 -0.1568  0.8089
  183SLPC   O3220981   0.479   2.159  10.564  0.2107 -0.8244 -0.1270
  183SLPC   C3220982   0.412   2.055  10.354 -1.0957 -0.3278  0.3143
  183SLPC   H2X20983   0.304   2.058  10.328 -0.7886  0.0982 -0.9878
  183SLPC   H2Y20984   0.442   1.958  10.399  1.4632  0.2661  0.0803
  183SLPC   C2320985   0.855   2.201  10.041 -0.7789 -0.2355 -0.2551
  183SLPC   H3R20986   0.749   2.189  10.010 -1.0049 -0.7652  0.7045
  183SLPC   H3S20987   0.894   2.108  10.085 -1.6851 -0.0588  0.9646
  183SLPC   C2420988   0.937   2.223   9.907 -0.1850  0.0691 -0.4085
  183SLPC   H4R20989   1.048   2.213   9.910 -0.2935 -1.2514  0.4910
  183SLPC   H4S20990   0.907   2.321   9.866 -1.6392 -0.7749 -1.4394
  183SLPC   C2520991   0.899   2.131   9.793 -1.4622 -0.9037 -0.1915
  183SLPC   H5R20992   0.791   2.144   9.769 -1.0473  1.2581 -1.1038
  183SLPC   H5S20993   0.909   2.023   9.816  2.0411 -0.7196 -0.3376
  183SLPC   C2620994   0.968   2.161   9.665 -0.0019  0.6195 -0.3500
  183SLPC   H6R20995   1.067   2.111   9.665 -0.9501 -1.3866  0.0223
  183SLPC   H6S20996   0.985   2.269   9.651  0.2912  0.7731  1.0196
  183SLPC   C2720997   0.879   2.111   9.550 -0.0783  0.5463  0.2657
  183SLPC   H7R20998   0.778   2.157   9.549 -0.7727 -0.8833 -1.4600
  183SLPC   H7S20999   0.876   2.004   9.582 -0.8313  1.2354  2.6723
  183SLPC   C2821000   0.945   2.141   9.411  0.0080 -0.4415 -0.6108
  183SLPC   H8R21001   1.046   2.095   9.405  0.9839  1.0360  2.4093
  183SLPC   H8S21002   0.947   2.251   9.402 -1.2012 -0.2876  0.6269
  183SLPC   C2921003   0.855   2.094   9.301 -0.4901  0.0179  0.1881
  183SLPC   H9R21004   0.757   2.058   9.337 -0.8631  1.1881  0.3967
  183SLPC  C21021005   0.883   2.106   9.167 -0.0658  0.1424 -0.1587
  183SLPC  H10R21006   0.806   2.072   9.096 -0.6254 -0.6754  0.8159
  183SLPC  C21121007   1.016   2.162   9.111  0.1990 -0.0611 -0.7262
  183SLPC  H11R21008   1.056   2.246   9.171 -0.4236 -0.1500 -0.1710
  183SLPC  H11S21009   0.997   2.218   9.017 -1.3386 -0.1634 -0.5038
  183SLPC  C21221010   1.117   2.053   9.089  0.7770  0.0630 -0.3446
  183SLPC  H12R21011   1.173   2.019   9.177 -0.5877 -0.2731  0.4214
  183SLPC  C21321012   1.150   1.988   8.976 -0.7664 -0.5959 -1.1185
  183SLPC  H13R21013   1.226   1.909   8.976  0.7725  0.8240 -0.0696
  183SLPC  C21421014   1.092   2.016   8.838 -0.2795 -0.2615 -0.4045
  183SLPC  H14R21015   0.997   2.074   8.844  0.3450  1.0852 -2.3497
  183SLPC  H14S21016   1.052   1.918   8.802  1.2694 -1.7963  1.8109
  183SLPC  C21521017   1.195   2.073   8.745 -0.4565  0.2760  0.6620
  183SLPC  H15R21018   1.275   1.999   8.724 -1.6026 -0.9155  0.3292
  183SLPC  H15S21019   1.238   2.171   8.774  1.1978 -0.3456  0.3903
  183SLPC  C21621020   1.133   2.087   8.606 -0.0214  0.3385  0.1418
  183SLPC  H16R21021   1.037   2.140   8.620 -0.8000 -0.4274 -1.9140
  183SLPC  H16S21022   1.098   1.988   8.570 -2.2716  1.3552 -0.6078
  183SLPC  C21721023   1.227   2.156   8.505 -1.0822 -0.2763 -0.0787
  183SLPC  H17R21024   1.328   2.112   8.514  0.3189  2.6704 -0.3128
  183SLPC  H17S21025   1.235   2.263   8.536  1.4132 -0.4438  0.0238
  183SLPC  C21821026   1.180   2.154   8.358 -0.3333  0.6856  0.2395
  183SLPC  H18R21027   1.167   2.049   8.323 -2.1178  1.8998 -3.2659
  183SLPC  H18S21028   1.255   2.211   8.299 -0.9722  1.0308 -0.2449
  183SLPC  H18T21029   1.082   2.204   8.349  0.2740  1.6432 -1.8155
  183SLPC   C3321030   0.477   2.038  10.214 -0.5943 -0.4356 -0.5422
  183SLPC   H3X21031   0.477   1.934  10.175  1.1359  0.8940 -4.7152
  183SLPC   H3Y21032   0.581   2.077  10.214 -0.2892 -1.1518 -2.1016
  183SLPC   C3421033   0.393   2.101  10.098  0.2066  0.0056 -0.2550
  183SLPC   H4X21034   0.363   2.204  10.127 -0.5153 -0.3870  0.4418
  183SLPC   H4Y21035   0.309   2.033  10.075  0.4515 -0.5812  0.5576
  183SLPC   C3521036   0.475   2.104   9.971 -0.2066  0.1212  0.2936
  183SLPC   H5X21037   0.544   2.018   9.983  0.2221  0.0554 -2.0578
  183SLPC   H5Y21038   0.530   2.201   9.969  0.3028 -0.1413  1.1484
  183SLPC   C3621039   0.395   2.073   9.846 -0.2010 -0.1296 -0.2091
  183SLPC   H6X21040   0.312   2.144   9.828 -1.6083 -1.5260  0.5874
  183SLPC   H6Y21041   0.352   1.974   9.873  0.7562 -0.3737  0.4912
  183SLPC   C3721042   0.477   2.070   9.717 -0.5539  0.7133 -0.1140
  183SLPC   H7X21043   0.541   1.980   9.703  0.8472  1.8096 -1.0130
  183SLPC   H7Y21044   0.545   2.157   9.707  0.4299 -0.3142 -3.9268
  183SLPC   C3821045   0.383   2.065   9.591 -1.1425  0.9529  0.1575
  183SLPC   H8X21046   0.321   2.157   9.584 -2.4174  0.0228 -3.6151
  183SLPC   H8Y21047   0.319   1.974   9.597 -1.9415  1.4829 -0.0923
  183SLPC   C3921048   0.473   2.067   9.462 -0.4547  1.0175  0.1087
  183SLPC   H9X21049   0.518   1.966   9.461  0.1863  1.2690  1.3909
  183SLPC   H9Y21050   0.553   2.144   9.456  0.5271 -0.0496 -4.7859
  183SLPC  C31021051   0.399   2.084   9.337  0.3583 -0.2808  0.4468
  183SLPC  H10X21052   0.355   2.186   9.337  0.5051 -0.2144  0.7484
  183SLPC  H10Y21053   0.319   2.007   9.339 -2.9192  2.8621 -0.3526
  183SLPC  C31121054   0.481   2.065   9.208  0.2030 -0.4506  0.2758
  183SLPC  H11X21055   0.541   1.974   9.232  0.7348 -0.3598 -0.6500
  183SLPC  H11Y21056   0.558   2.145   9.202 -0.4621  0.1055 -1.3518
  183SLPC  C31221057   0.397   2.032   9.085  0.1948  0.1667  0.2979
  183SLPC  H12X21058   0.349   2.129   9.059  1.1075  0.0883 -1.9110
  183SLPC  H12Y21059   0.324   1.956   9.120 -1.7526  1.8139  0.0046
  183SLPC  C31321060   0.489   1.994   8.971 -0.3597 -0.3911  0.6474
  183SLPC  H13X21061   0.544   1.902   9.000  1.3743  0.4905  0.3537
  183SLPC  H13Y21062   0.560   2.080   8.965  0.4521 -0.9736  1.6318
  183SLPC  C31421063   0.417   1.974   8.836  0.5482 -0.2202 -0.2170
  183SLPC  H14X21064   0.490   1.954   8.755  0.9214 -2.9090  0.7052
  183SLPC  H14Y21065   0.386   2.081   8.829 -0.0230 -0.2887  0.9294
  183SLPC  C31521066   0.309   1.868   8.831  0.7133 -0.9966  0.4832
  183SLPC  H15X21067   0.233   1.897   8.907  0.7051  0.1556  0.0549
  183SLPC  H15Y21068   0.360   1.772   8.851  0.0681 -1.3009  0.7105
  183SLPC  C31621069   0.242   1.846   8.698  0.2866 -0.5304  0.4280
  183SLPC  H16X21070   0.195   1.944   8.675  0.6286  0.2482  2.7465
  183SLPC  H16Y21071   0.165   1.766   8.707  0.9965 -1.2931 -0.1575
  183SLPC  C31721072   0.328   1.809   8.581 -0.1491  0.2835 -0.1209
  183SLPC  H17X21073   0.382   1.715   8.604 -0.7199  0.0990  0.5017
  183SLPC  H17Y21074   0.408   1.886   8.576 -0.5863  0.6528 -2.2709
  183SLPC  C31821075   0.251   1.798   8.451  0.0452  0.0731 -0.2212
  183SLPC  H18X21076   0.156   1.741   8.456  0.4089 -0.5893 -0.6818
  183SLPC  H18Y21077   0.315   1.739   8.382  1.2780  0.8273  0.2465
  183SLPC  H18Z21078   0.238   1.893   8.395  3.7879  0.1975 -1.0891
  184SLPC     N21079   4.245   6.396  10.847  0.0253 -0.3752 -0.0890
  184SLPC   C1321080   4.370   6.480  10.845  1.1725 -0.1259  0.3761
  184SLPC  H13A21081   4.462   6.424  10.846  0.9682 -0.5375  2.8664
  184SLPC  H13B21082   4.357   6.544  10.758  0.8139 -1.0424 -0.2589
  184SLPC  H13C21083   4.372   6.545  10.931  0.6835 -0.6962  0.8287
  184SLPC   C1421084   4.242   6.303  10.718  0.3351 -0.2019  0.0991
  184SLPC  H14A21085   4.142   6.266  10.705  0.4347 -0.4848  0.1320
  184SLPC  H14B21086   4.268   6.358  10.628  2.4218 -2.1171 -0.5665
  184SLPC  H14C21087   4.316   6.225  10.731 -1.4159 -2.0035 -0.3583
  184SLPC   C1521088   4.135   6.497  10.849  0.2848 -0.1143 -0.0352
  184SLPC  H15A21089   4.123   6.549  10.755 -1.7407  1.5782  1.0679
  184SLPC  H15B21090   4.047   6.450  10.892  1.2774 -0.8623  1.2560
  184SLPC  H15C21091   4.159   6.574  10.921  1.1325 -0.8011  0.4357
  184SLPC   C1221092   4.240   6.310  10.965 -0.1445 -0.0302  0.1147
  184SLPC  H12A21093   4.263   6.372  11.050 -0.4693 -0.9894  0.9307
  184SLPC  H12B21094   4.320   6.238  10.957  0.4582  0.5386  0.9715
  184SLPC   C1121095   4.107   6.228  10.986  0.0606  0.4509 -0.3476
  184SLPC  H11A21096   4.131   6.145  11.056 -2.0188 -0.7622 -0.9527
  184SLPC  H11B21097   4.089   6.164  10.897  0.8542 -0.0150 -0.1817
  184SLPC     P21098   3.851   6.227  11.048 -0.2484  0.0316 -0.0237
  184SLPC   O1321099   3.870   6.082  11.058  0.0828  0.0898  0.3989
  184SLPC   O1421100   3.777   6.300  11.152 -0.7796 -0.2875 -0.5579
  184SLPC   O1221101   3.994   6.301  11.030  0.3795  0.6286  0.0359
  184SLPC   O1121102   3.767   6.244  10.922 -0.1743 -0.1061 -0.6238
  184SLPC    C121103   3.801   6.265  10.787  0.3359  0.3603  0.2844
  184SLPC    HA21104   3.733   6.343  10.747  1.4354  0.7014 -1.0003
  184SLPC    HB21105   3.905   6.303  10.774  0.2266  0.4177 -0.4858
  184SLPC    C221106   3.790   6.128  10.701  0.4140  0.2879  0.4333
  184SLPC    HS21107   3.870   6.063  10.740  1.2111  0.0359 -1.5315
  184SLPC   O2121108   3.805   6.131  10.558  0.2461 -0.4106 -0.7228
  184SLPC   C2121109   3.933   6.151  10.526 -0.1001 -0.3263 -0.5246
  184SLPC   O2221110   4.031   6.140  10.598 -0.3953 -0.4837  0.1684
  184SLPC   C2221111   3.961   6.198  10.378  0.3921  0.5666  0.0005
  184SLPC   H2R21112   3.962   6.309  10.382 -1.6666  0.5891  3.0385
  184SLPC   H2S21113   4.061   6.160  10.347  0.0397  0.1447 -0.6522
  184SLPC    C321114   3.647   6.068  10.726 -0.3359 -0.2109  0.4458
  184SLPC    HX21115   3.582   6.148  10.685  0.3514  2.2009  3.6559
  184SLPC    HY21116   3.622   6.061  10.834 -0.7905 -2.3697  0.2582
  184SLPC   O3121117   3.643   5.937  10.669 -0.3238  0.2876  0.6644
  184SLPC   C3121118   3.562   5.933  10.566 -0.3631  0.1040  0.5315
  184SLPC   O3221119   3.487   6.025  10.531 -0.4371 -0.1020 -0.4063
  184SLPC   C3221120   3.546   5.783  10.513  0.0215 -0.4146 -0.5968
  184SLPC   H2X21121   3.568   5.728  10.606 -0.0829  0.1442 -0.2351
  184SLPC   H2Y21122   3.634   5.758  10.449  2.0346  1.6145  1.1809
  184SLPC   C2321123   3.853   6.154  10.272 -0.2743  0.1146 -0.1556
  184SLPC   H3R21124   3.752   6.179  10.310  0.2064  1.1981  0.4828
  184SLPC   H3S21125   3.858   6.046  10.249 -2.0242  0.1993 -1.1186
  184SLPC   C2421126   3.867   6.241  10.147  0.4310  0.1855  0.7827
  184SLPC   H4R21127   3.970   6.249  10.106 -0.3818  1.0032 -1.2246
  184SLPC   H4S21128   3.838   6.342  10.183 -0.8612 -1.0648  3.6125
  184SLPC   C2521129   3.771   6.192  10.035  0.2399 -0.4989 -0.0081
  184SLPC   H5R21130   3.667   6.171  10.068 -0.1462 -1.9153 -1.9834
  184SLPC   H5S21131   3.803   6.092   9.998 -0.0177 -1.7490  2.8827
  184SLPC   C2621132   3.772   6.287   9.916 -0.9197 -0.2781 -0.0159
  184SLPC   H6R21133   3.880   6.315   9.910 -0.5860 -1.3413  0.7959
  184SLPC   H6S21134   3.703   6.374   9.917 -0.1029  0.4342  2.6466
  184SLPC   C2721135   3.746   6.204   9.796  0.7702 -0.2179 -0.2050
  184SLPC   H7R21136   3.651   6.152   9.821 -0.8611  3.1147  1.1740
  184SLPC   H7S21137   3.836   6.140   9.780  0.4170 -1.4116  2.1771
  184SLPC   C2821138   3.728   6.301   9.671 -0.2849  0.2380  0.3385
  184SLPC   H8R21139   3.700   6.404   9.701 -0.2076  0.1538  0.7014
  184SLPC   H8S21140   3.649   6.254   9.608  0.0170 -0.7097  0.6597
  184SLPC   C2921141   3.858   6.315   9.600 -0.2806  0.1968  0.8632
  184SLPC   H9R21142   3.950   6.344   9.652  0.2997  0.4359 -0.2479
  184SLPC  C21021143   3.879   6.315   9.465  0.7869  0.3803  0.7753
  184SLPC  H10R21144   3.982   6.326   9.428  0.5475 -0.7221 -0.2834
  184SLPC  C21121145   3.771   6.317   9.356  0.0481  0.2714  0.3165
  184SLPC  H11R21146   3.672   6.316   9.407  0.1621  0.3044  0.5400
  184SLPC  H11S21147   3.777   6.233   9.284  0.4243 -0.5963  1.3332
  184SLPC  C21221148   3.784   6.438   9.270  0.0837 -0.5128 -0.2121
  184SLPC  H12R21149   3.860   6.510   9.305 -0.1915  0.2052 -1.0415
  184SLPC  C21321150   3.704   6.485   9.163 -0.2242  0.7072 -0.0681
  184SLPC  H13R21151   3.740   6.572   9.107  0.5674  0.6421  0.3146
  184SLPC  C21421152   3.578   6.422   9.117  0.0990  0.4608 -0.0562
  184SLPC  H14R21153   3.500   6.500   9.128 -0.2334  0.1580 -0.2180
  184SLPC  H14S21154   3.552   6.334   9.181  1.6761  1.4340  2.0248
  184SLPC  C21521155   3.572   6.372   8.975  0.0227 -0.2388  0.6396
  184SLPC  H15R21156   3.473   6.321   8.966 -0.1302  0.3884 -1.6747
  184SLPC  H15S21157   3.651   6.297   8.954  0.9322  0.4201  1.6128
  184SLPC  C21621158   3.568   6.474   8.854  0.6318 -0.3506 -0.3630
  184SLPC  H16R21159   3.490   6.554   8.858 -0.4881 -1.2359 -2.6273
  184SLPC  H16S21160   3.534   6.424   8.760  0.0072  0.0174 -0.3384
  184SLPC  C21721161   3.696   6.553   8.819  0.0951  0.0533 -0.4972
  184SLPC  H17R21162   3.779   6.482   8.839 -1.0968 -1.7705 -1.6754
  184SLPC  H17S21163   3.693   6.637   8.891  2.1375  1.0004 -1.4402
  184SLPC  C21821164   3.698   6.599   8.677  0.5305  0.2192 -0.0394
  184SLPC  H18R21165   3.699   6.518   8.602  1.6376  2.2571 -2.3710
  184SLPC  H18S21166   3.796   6.642   8.645  1.7564 -1.5037  1.2195
  184SLPC  H18T21167   3.622   6.678   8.659  1.7664  0.9007 -2.9465
  184SLPC   C3321168   3.400   5.746  10.468  0.3078 -0.3999  0.1054
  184SLPC   H3X21169   3.319   5.771  10.540 -0.2053  0.2448 -0.6698
  184SLPC   H3Y21170   3.393   5.635  10.456  1.1229 -0.7002  2.0560
  184SLPC   C3421171   3.358   5.817  10.331 -0.7294  0.0889 -0.5269
  184SLPC   H4X21172   3.367   5.926  10.351  1.6299  0.3418 -2.4758
  184SLPC   H4Y21173   3.255   5.794  10.297 -1.1292 -0.5031  1.0110
  184SLPC   C3521174   3.459   5.785  10.218  0.5798  0.4411 -0.4318
  184SLPC   H5X21175   3.477   5.676  10.226  0.1456  0.4622  1.0688
  184SLPC   H5Y21176   3.560   5.829  10.236  1.2006 -1.6288  1.6648
  184SLPC   C3621177   3.408   5.812  10.076  0.0247 -0.4478  0.5126
  184SLPC   H6X21178   3.321   5.755  10.038  0.2651  0.8540 -2.3076
  184SLPC   H6Y21179   3.498   5.799  10.012 -0.6714  1.2459 -0.8908
  184SLPC   C3721180   3.364   5.957  10.061 -0.1658  0.2861  0.9517
  184SLPC   H7X21181   3.446   6.024  10.096  1.3908  0.0304 -1.9339
  184SLPC   H7Y21182   3.282   5.964  10.135  1.6088  0.7546  2.9813
  184SLPC   C3821183   3.332   5.993   9.917  0.7922 -0.0148  0.6718
  184SLPC   H8X21184   3.331   6.104   9.910 -1.8367  0.2303  2.7795
  184SLPC   H8Y21185   3.235   5.947   9.889 -0.1945  2.0923  0.4015
  184SLPC   C3921186   3.439   5.946   9.810 -0.2825 -0.3263 -0.2720
  184SLPC   H9X21187   3.440   5.836   9.802 -1.9706 -0.3672 -0.1366
  184SLPC   H9Y21188   3.538   5.992   9.831 -0.7805 -0.0741  1.7270
  184SLPC  C31021189   3.388   5.998   9.675 -0.6665  0.2507 -0.0705
  184SLPC  H10X21190   3.386   6.108   9.690 -1.8119 -0.1263  3.2029
  184SLPC  H10Y21191   3.294   5.953   9.636  0.1480 -1.9203  0.3403
  184SLPC  C31121192   3.487   5.961   9.564  0.0121  0.6158 -0.2473
  184SLPC  H11X21193   3.504   5.852   9.556 -2.4272  0.1884 -0.3168
  184SLPC  H11Y21194   3.581   6.018   9.583 -0.0041  0.4435  0.3593
  184SLPC  C31221195   3.428   5.992   9.424 -0.0647  0.4853  0.0754
  184SLPC  H12X21196   3.385   6.095   9.423 -0.6915  0.2542  1.1021
  184SLPC  H12Y21197   3.342   5.924   9.406 -0.9543  1.3191  1.0266
  184SLPC  C31321198   3.532   5.971   9.310 -0.5314  0.7717 -0.3575
  184SLPC  H13X21199   3.592   5.880   9.332 -1.2410  0.7384  1.5950
  184SLPC  H13Y21200   3.607   6.053   9.313 -0.0001  0.2878 -0.3164
  184SLPC  C31421201   3.472   5.966   9.170  0.4480  0.2363 -0.2821
  184SLPC  H14X21202   3.426   6.065   9.148  0.9236  0.9091  1.5023
  184SLPC  H14Y21203   3.400   5.881   9.169 -1.3707  1.6883 -2.3474
  184SLPC  C31521204   3.571   5.938   9.054 -0.4092  1.4623  0.3353
  184SLPC  H15X21205   3.624   5.847   9.089 -2.1199  1.3232  2.8304
  184SLPC  H15Y21206   3.638   6.025   9.037  0.4753  0.9888  1.2856
  184SLPC  C31621207   3.488   5.923   8.927  0.2570 -0.1092 -0.2932
  184SLPC  H16X21208   3.464   6.024   8.885 -0.9059  0.9596  2.6680
  184SLPC  H16Y21209   3.389   5.873   8.939  0.0029  1.0064  3.4664
  184SLPC  C31721210   3.552   5.843   8.819 -0.3494  0.2690  0.3477
  184SLPC  H17X21211   3.489   5.845   8.728 -1.5143 -0.7582  1.0943
  184SLPC  H17Y21212   3.567   5.735   8.840  1.8021 -0.3275 -3.3006
  184SLPC  C31821213   3.688   5.892   8.778  0.0998 -0.1504  0.8768
  184SLPC  H18X21214   3.759   5.883   8.863  1.7441 -0.5611 -0.4736
  184SLPC  H18Y21215   3.688   6.003   8.769  0.0039 -0.2919 -1.6832
  184SLPC  H18Z21216   3.721   5.856   8.678  1.4169 -0.9579  1.5782
  185SLPC     N21217   6.322   1.991   6.329  0.2995 -0.1186  0.5690
  185SLPC   C1321218   6.360   1.905   6.210  0.0902  0.1351 -0.4665
  185SLPC  H13A21219   6.314   1.807   6.219  1.3288 -0.4303 -0.0922
  185SLPC  H13B21220   6.350   1.946   6.110  1.3107  1.4032 -0.1008
  185SLPC  H13C21221   6.464   1.876   6.213 -0.0928 -0.4305  1.4077
  185SLPC   C1421222   6.172   1.986   6.340  0.3209 -0.0570 -0.6201
  185SLPC  H14A21223   6.127   1.912   6.405 -2.8337  0.7432 -1.6989
  185SLPC  H14B21224   6.130   2.080   6.375 -1.9949 -1.5807  1.0358
  185SLPC  H14C21225   6.133   1.979   6.240 -2.4063 -0.4082  0.3736
  185SLPC   C1521226   6.381   2.130   6.316  0.4507  0.0551 -0.4821
  185SLPC  H15A21227   6.356   2.198   6.396  2.6565  0.5613 -0.1631
  185SLPC  H15B21228   6.489   2.123   6.315  0.4835 -2.5482  2.7604
  185SLPC  H15C21229   6.357   2.181   6.224 -1.1867 -3.3784 -2.1422
  185SLPC   C1221230   6.386   1.932   6.455  0.2924 -0.6963  0.2644
  185SLPC  H12A21231   6.339   1.838   6.480 -0.7000 -0.6944 -1.4284
  185SLPC  H12B21232   6.351   1.991   6.538  2.0486 -0.7044  1.0662
  185SLPC   C1121233   6.544   1.937   6.480  0.0145  0.4269 -0.1705
  185SLPC  H11A21234   6.589   1.877   6.398  2.9232  2.1213  0.0570
  185SLPC  H11B21235   6.552   1.887   6.579 -0.6126  0.6759  0.0068
  185SLPC     P21236   6.605   2.151   6.616 -0.3612 -0.2415  0.5765
  185SLPC   O1321237   6.637   2.291   6.575  0.0598  0.0891 -0.2671
  185SLPC   O1421238   6.484   2.143   6.701 -0.0214  0.0556 -0.7437
  185SLPC   O1221239   6.600   2.070   6.486 -0.0089 -0.0301  0.7146
  185SLPC   O1121240   6.725   2.078   6.696  0.5624  0.0485  0.4197
  185SLPC    C121241   6.850   2.046   6.637 -0.4381 -0.5601 -0.1986
  185SLPC    HA21242   6.854   2.079   6.531  3.2593  1.1010  0.3064
  185SLPC    HB21243   6.936   2.099   6.684  0.8795 -2.5325 -0.2463
  185SLPC    C221244   6.876   1.898   6.646  0.0521  0.0477 -0.1542
  185SLPC    HS21245   6.778   1.849   6.623 -0.4509 -0.1323  2.1321
  185SLPC   O2121246   6.911   1.880   6.779  0.2932 -0.9400  0.3844
  185SLPC   C2121247   6.898   1.757   6.821  0.0955 -0.1189 -0.9650
  185SLPC   O2221248   6.840   1.670   6.758 -0.0373 -0.2130 -0.0406
  185SLPC   C2221249   6.941   1.747   6.962 -0.2756 -0.2265  0.0042
  185SLPC   H2R21250   7.014   1.829   6.979 -0.9653  0.3112  0.3793
  185SLPC   H2S21251   6.856   1.763   7.031 -1.1246  0.7024 -1.2181
  185SLPC    C321252   6.986   1.851   6.553  0.3799  0.4555 -0.1208
  185SLPC    HX21253   6.963   1.882   6.449  0.2934 -0.9789 -0.5580
  185SLPC    HY21254   6.985   1.740   6.552 -1.1806  0.4359  1.0120
  185SLPC   O3121255   7.110   1.918   6.592  0.1335  0.3998 -0.1513
  185SLPC   C3121256   7.191   1.840   6.665  0.7414  0.2210 -0.7769
  185SLPC   O3221257   7.166   1.727   6.696 -0.0410 -0.2196 -0.1530
  185SLPC   C3221258   7.325   1.911   6.692  0.9426 -0.6642 -0.1454
  185SLPC   H2X21259   7.315   2.022   6.686 -1.6921 -0.7502  1.3565
  185SLPC   H2Y21260   7.395   1.886   6.609  0.3050 -0.2712 -0.8168
  185SLPC   C2321261   7.000   1.605   6.987  0.0464  0.0043  0.2707
  185SLPC   H3R21262   7.104   1.608   6.947 -0.1231  1.5379 -0.1227
  185SLPC   H3S21263   6.931   1.528   6.948 -1.0905  0.6466  0.9615
  185SLPC   C2421264   6.995   1.560   7.136 -0.3566  0.0043 -0.3263
  185SLPC   H4R21265   7.038   1.458   7.144  0.4478  0.4808  2.4128
  185SLPC   H4S21266   6.888   1.555   7.163 -0.3643  1.1275 -0.0902
  185SLPC   C2521267   7.076   1.658   7.232  0.3895  1.0138  0.2848
  185SLPC   H5R21268   7.032   1.758   7.211 -1.8298  0.2344  0.8900
  185SLPC   H5S21269   7.185   1.651   7.212  1.0606  2.4825  2.9110
  185SLPC   C2621270   7.039   1.628   7.375  0.5596 -0.3999  0.0701
  185SLPC   H6R21271   7.068   1.524   7.399  1.6671  0.3062  2.0559
  185SLPC   H6S21272   6.929   1.633   7.383  0.4676  2.4467 -1.4470
  185SLPC   C2721273   7.117   1.707   7.476 -0.0344 -0.5924  0.5082
  185SLPC   H7R21274   7.120   1.812   7.443 -0.8673  0.2145  2.7825
  185SLPC   H7S21275   7.217   1.659   7.486  0.1477  0.1629  3.2675
  185SLPC   C2821276   7.046   1.703   7.615  0.0725  0.3816  0.5583
  185SLPC   H8R21277   7.007   1.599   7.614 -0.5483  0.5630  2.3954
  185SLPC   H8S21278   6.956   1.767   7.604 -0.6508 -0.6245  0.5304
  185SLPC   C2921279   7.117   1.740   7.739 -0.1915 -0.3419  0.6333
  185SLPC   H9R21280   7.203   1.806   7.719 -0.7628 -0.2257 -1.7200
  185SLPC  C21021281   7.092   1.708   7.873 -0.0537  0.2884  0.7370
  185SLPC  H10R21282   7.152   1.766   7.945  0.7262 -0.1202  0.4208
  185SLPC  C21121283   6.978   1.626   7.929  1.0070 -0.3414 -0.3746
  185SLPC  H11R21284   6.993   1.524   7.888 -1.0289 -2.0618  2.7842
  185SLPC  H11S21285   6.888   1.678   7.889 -0.4814 -1.4504  1.3715
  185SLPC  C21221286   6.973   1.634   8.083  1.2512  0.4301  0.3021
  185SLPC  H12R21287   6.956   1.735   8.122 -2.0976 -0.1238  0.5449
  185SLPC  C21321288   6.978   1.535   8.166  0.2529 -0.9487  0.5417
  185SLPC  H13R21289   6.976   1.565   8.272 -3.3395  0.0190  0.3220
  185SLPC  C21421290   6.992   1.386   8.127  0.4133 -0.1492 -0.2268
  185SLPC  H14R21291   7.083   1.348   8.180  1.8786 -0.5105 -2.8162
  185SLPC  H14S21292   7.002   1.365   8.019  0.0912 -0.1917 -0.2477
  185SLPC  C21521293   6.858   1.302   8.162 -0.5235  0.1220 -0.1585
  185SLPC  H15R21294   6.862   1.204   8.110  1.0530 -0.9432  1.8528
  185SLPC  H15S21295   6.775   1.366   8.126 -0.6506 -0.5006 -1.0040
  185SLPC  C21621296   6.846   1.271   8.313 -0.7035 -0.3323  0.5805
  185SLPC  H16R21297   6.760   1.330   8.349 -1.5894  0.0239 -1.9237
  185SLPC  H16S21298   6.931   1.315   8.370 -0.6527  1.4458 -0.7436
  185SLPC  C21721299   6.832   1.136   8.360  0.0811  0.1426  0.0602
  185SLPC  H17R21300   6.914   1.081   8.308 -0.7797  1.0216 -2.3975
  185SLPC  H17S21301   6.740   1.097   8.313 -0.9253  1.5740  0.7545
  185SLPC  C21821302   6.843   1.105   8.506 -0.3364  0.2996  0.1168
  185SLPC  H18R21303   6.758   1.131   8.573  1.4889  3.2316  1.4736
  185SLPC  H18S21304   6.934   1.152   8.548  0.1714 -1.1660  0.7134
  185SLPC  H18T21305   6.851   0.994   8.507 -1.0825  0.2252 -0.7823
  185SLPC   C3321306   7.392   1.871   6.828 -0.0268 -1.0606 -0.3453
  185SLPC   H3X21307   7.499   1.898   6.842 -1.1107  2.6782  2.0320
  185SLPC   H3Y21308   7.394   1.760   6.836 -3.3830 -1.2034  0.1842
  185SLPC   C3421309   7.326   1.939   6.948 -0.4191  0.9825  0.1825
  185SLPC   H4X21310   7.226   1.892   6.967 -0.3118  1.0387  0.9077
  185SLPC   H4Y21311   7.312   2.048   6.934  1.1611  1.1100 -0.5474
  185SLPC   C3521312   7.409   1.916   7.078 -1.0222  0.3194  0.7392
  185SLPC   H5X21313   7.511   1.956   7.062 -1.6377  0.9750 -2.1318
  185SLPC   H5Y21314   7.401   1.806   7.089 -4.1498  0.1522 -1.8630
  185SLPC   C3621315   7.342   1.969   7.205 -0.3419  0.3622 -0.0750
  185SLPC   H6X21316   7.237   1.931   7.202  0.8030 -3.0759 -1.4160
  185SLPC   H6Y21317   7.335   2.079   7.189  1.3717  0.1733 -2.8807
  185SLPC   C3721318   7.424   1.933   7.327 -0.1423  0.0157 -0.1895
  185SLPC   H7X21319   7.523   1.983   7.319  0.3936 -0.5912  1.9313
  185SLPC   H7Y21320   7.438   1.824   7.340  2.0752  0.3400  0.6139
  185SLPC   C3821321   7.358   1.999   7.456 -0.0923  0.4342  0.7434
  185SLPC   H8X21322   7.255   1.964   7.478 -0.2831  1.4128  1.4657
  185SLPC   H8Y21323   7.334   2.101   7.417 -3.7423 -0.1338  1.1104
  185SLPC   C3921324   7.431   1.994   7.582 -0.0142 -0.4479 -0.5547
  185SLPC   H9X21325   7.530   2.040   7.563 -0.9570  0.7492 -2.8598
  185SLPC   H9Y21326   7.452   1.895   7.629  2.1554  0.7553  1.2038
  185SLPC  C31021327   7.367   2.079   7.691 -0.6143  0.4870 -0.4550
  185SLPC  H10X21328   7.257   2.061   7.689 -0.6392  0.0897  1.8021
  185SLPC  H10Y21329   7.382   2.184   7.660 -1.3131  0.5764 -0.4985
  185SLPC  C31121330   7.414   2.054   7.833 -0.3225 -1.3854  0.4055
  185SLPC  H11X21331   7.525   2.051   7.838 -0.2414  1.2229  1.7838
  185SLPC  H11Y21332   7.379   1.953   7.860 -0.2206 -1.1335  1.5187
  185SLPC  C31221333   7.365   2.166   7.922  0.0683 -0.0118 -0.1605
  185SLPC  H12X21334   7.258   2.140   7.938 -0.3075  1.6299  0.2259
  185SLPC  H12Y21335   7.350   2.262   7.867 -0.1219  0.6221  0.9772
  185SLPC  C31321336   7.448   2.184   8.044 -0.1584 -0.1055 -0.2546
  185SLPC  H13X21337   7.542   2.236   8.016  1.1272  0.1010  3.8135
  185SLPC  H13Y21338   7.493   2.086   8.071  1.5255  0.3490 -1.2391
  185SLPC  C31421339   7.374   2.253   8.155 -0.7040 -1.0754 -0.3552
  185SLPC  H14X21340   7.294   2.183   8.188 -0.9575 -1.2128 -1.2310
  185SLPC  H14Y21341   7.326   2.345   8.116 -1.4067 -1.5956 -0.7299
  185SLPC  C31521342   7.472   2.269   8.275  0.1305  0.6258 -0.4316
  185SLPC  H15X21343   7.515   2.370   8.262  0.8732  0.4203  0.3342
  185SLPC  H15Y21344   7.557   2.201   8.253 -0.1600 -0.2601  1.0136
  185SLPC  C31621345   7.410   2.242   8.409 -0.3316  0.8225  0.4115
  185SLPC  H16X21346   7.486   2.232   8.489  1.8684 -0.6330 -1.7075
  185SLPC  H16Y21347   7.368   2.139   8.401  0.9706  0.2193  1.0421
  185SLPC  C31721348   7.305   2.338   8.455  0.2688 -0.3360  0.2495
  185SLPC  H17X21349   7.221   2.359   8.386  0.6542  1.6129  0.3274
  185SLPC  H17Y21350   7.350   2.437   8.478  1.5771 -0.9100  0.2515
  185SLPC  C31821351   7.243   2.289   8.586  0.4435 -0.3684  0.1867
  185SLPC  H18X21352   7.201   2.187   8.575 -0.1153  0.1018 -3.0586
  185SLPC  H18Y21353   7.162   2.356   8.622  0.8617  1.2235 -1.6629
  185SLPC  H18Z21354   7.328   2.277   8.657  1.9268  0.6910 -1.3213
  186SLPC     N21355   6.175   5.773   5.840 -0.3651 -0.4154 -0.1613
  186SLPC   C1321356   6.255   5.673   5.767 -0.3239  0.1265  0.2007
  186SLPC  H13A21357   6.322   5.727   5.701  0.6805 -0.4501  0.7334
  186SLPC  H13B21358   6.314   5.613   5.834  1.4519  0.6693 -0.7961
  186SLPC  H13C21359   6.191   5.615   5.701 -2.3104  2.7991 -0.3989
  186SLPC   C1421360   6.082   5.708   5.933  0.6612  0.1519 -0.7488
  186SLPC  H14A21361   6.130   5.655   6.014 -2.9024 -0.3126  1.2867
  186SLPC  H14B21362   6.019   5.779   5.985  0.6194  0.2917 -0.9913
  186SLPC  H14C21363   6.020   5.637   5.881 -0.8579  0.5430  0.4405
  186SLPC   C1521364   6.095   5.853   5.740 -0.3676  0.6297  0.2721
  186SLPC  H15A21365   6.029   5.784   5.689 -0.1964 -0.0184  0.9170
  186SLPC  H15B21366   6.039   5.936   5.780 -3.3084 -0.5208 -1.1820
  186SLPC  H15C21367   6.171   5.900   5.678 -0.1948 -0.6162 -0.4837
  186SLPC   C1221368   6.254   5.874   5.910 -0.5462 -0.6475 -0.7029
  186SLPC  H12A21369   6.188   5.945   5.958  1.8793  0.5962  0.9777
  186SLPC  H12B21370   6.302   5.935   5.835  1.7287 -2.1095 -0.5365
  186SLPC   C1121371   6.359   5.828   6.014  0.7726 -0.2118 -0.5938
  186SLPC  H11A21372   6.437   5.906   6.028  1.5274 -0.7317 -1.6924
  186SLPC  H11B21373   6.416   5.741   5.973  1.3942 -0.5654  0.9580
  186SLPC     P21374   6.254   5.907   6.241 -0.0175  0.3273  0.8672
  186SLPC   O1321375   6.174   6.013   6.175 -0.5076 -0.0758  0.4441
  186SLPC   O1421376   6.188   5.846   6.363 -0.1273  0.7774 -0.0168
  186SLPC   O1221377   6.296   5.791   6.138 -0.3008  0.0277  0.4819
  186SLPC   O1121378   6.397   5.980   6.274 -0.1263  0.1079 -0.1997
  186SLPC    C121379   6.480   5.935   6.377 -0.4295  0.1403 -0.9211
  186SLPC    HA21380   6.481   5.824   6.372 -1.2913  0.1156 -0.7201
  186SLPC    HB21381   6.582   5.973   6.355  0.3196 -0.5856  1.0715
  186SLPC    C221382   6.435   5.982   6.517  0.5386 -0.1790 -0.0872
  186SLPC    HS21383   6.327   5.961   6.525  0.1031  2.0665  0.6031
  186SLPC   O2121384   6.474   6.118   6.543 -0.1658  0.8717 -0.2429
  186SLPC   C2121385   6.378   6.208   6.539 -0.6471 -0.4834 -0.6222
  186SLPC   O2221386   6.264   6.197   6.501  0.7260  0.2890 -0.0679
  186SLPC   C2221387   6.433   6.332   6.594  0.4109 -0.1032  0.2459
  186SLPC   H2R21388   6.535   6.307   6.629  0.6256 -2.1149 -1.5730
  186SLPC   H2S21389   6.462   6.392   6.505 -0.9223  0.9680  0.4904
  186SLPC    C321390   6.492   5.880   6.627 -0.4076 -0.2709  0.5196
  186SLPC    HX21391   6.599   5.856   6.606 -0.3500  0.5195 -0.1258
  186SLPC    HY21392   6.440   5.782   6.620 -0.0036 -0.5292  1.0820
  186SLPC   O3121393   6.500   5.933   6.761 -0.3437  0.0574 -0.3499
  186SLPC   C3121394   6.392   5.977   6.820 -0.7131 -0.7196 -0.1836
  186SLPC   O3221395   6.280   5.985   6.779  0.0386  0.9077 -0.0511
  186SLPC   C3221396   6.423   6.019   6.963  0.3697 -0.0347 -0.7383
  186SLPC   H2X21397   6.517   6.078   6.952 -0.1777  0.9617 -0.2102
  186SLPC   H2Y21398   6.446   5.927   7.020 -3.2758 -0.4248  0.3367
  186SLPC   C2321399   6.337   6.406   6.690  0.2068  0.1418  0.2386
  186SLPC   H3R21400   6.313   6.336   6.773  1.3758  1.6903  1.9664
  186SLPC   H3S21401   6.246   6.431   6.632  1.4676  1.6710 -1.1773
  186SLPC   C2421402   6.403   6.531   6.749 -0.6930  0.4033 -0.4280
  186SLPC   H4R21403   6.427   6.600   6.664  0.2254  0.8289  0.1603
  186SLPC   H4S21404   6.503   6.498   6.785  0.1095  2.4505 -0.5900
  186SLPC   C2521405   6.333   6.614   6.862  0.7886 -0.2153 -0.5950
  186SLPC   H5R21406   6.232   6.653   6.837  0.7992  1.7011  1.8881
  186SLPC   H5S21407   6.385   6.711   6.879 -0.0513  0.1310  0.0420
  186SLPC   C2621408   6.332   6.534   6.994 -0.0605 -0.4893 -0.2849
  186SLPC   H6R21409   6.438   6.521   7.022 -0.0432 -1.1041 -0.6273
  186SLPC   H6S21410   6.276   6.439   6.978  0.0562 -0.7594  0.8510
  186SLPC   C2721411   6.257   6.615   7.101 -0.4253 -0.0430 -0.2529
  186SLPC   H7R21412   6.149   6.614   7.076 -0.7549  1.8724  0.8296
  186SLPC   H7S21413   6.281   6.724   7.097  0.1527 -0.1855 -1.0620
  186SLPC   C2821414   6.271   6.556   7.244 -0.2142 -0.7285  0.0485
  186SLPC   H8R21415   6.276   6.445   7.246 -0.8175 -0.7691  2.2697
  186SLPC   H8S21416   6.173   6.577   7.293 -0.3983 -3.0882  0.8359
  186SLPC   C2921417   6.388   6.603   7.323 -0.6642 -0.6387 -0.6836
  186SLPC   H9R21418   6.466   6.657   7.268  0.8768 -1.1759  0.9127
  186SLPC  C21021419   6.399   6.589   7.456  0.4566 -0.1243 -0.0090
  186SLPC  H10R21420   6.490   6.618   7.511  0.2928  0.8918 -0.2606
  186SLPC  C21121421   6.292   6.526   7.547  0.5459  0.1902  0.8255
  186SLPC  H11R21422   6.223   6.461   7.488  1.0053 -1.8859  2.4689
  186SLPC  H11S21423   6.248   6.616   7.595 -0.2470 -0.2476  0.9468
  186SLPC  C21221424   6.364   6.441   7.641 -0.3019 -0.4370  0.6886
  186SLPC  H12R21425   6.421   6.358   7.596 -0.9546 -0.1211 -0.7700
  186SLPC  C21321426   6.350   6.450   7.778  0.0000 -1.0714 -0.4673
  186SLPC  H13R21427   6.397   6.378   7.845  0.0767 -2.9893 -2.4643
  186SLPC  C21421428   6.262   6.552   7.848 -0.2279 -0.2733 -0.0352
  186SLPC  H14R21429   6.158   6.560   7.808  0.1393  1.7686 -0.7055
  186SLPC  H14S21430   6.291   6.659   7.840 -1.8348  0.2438  0.7783
  186SLPC  C21521431   6.238   6.507   7.993 -0.3846 -0.5676 -0.4210
  186SLPC  H15R21432   6.339   6.504   8.038 -0.1179 -0.0298 -0.9663
  186SLPC  H15S21433   6.193   6.405   7.997  0.2280 -1.0345 -3.2316
  186SLPC  C21621434   6.134   6.595   8.061  0.1322  0.3099 -0.0626
  186SLPC  H16R21435   6.034   6.589   8.012 -0.6261  2.0324  1.1347
  186SLPC  H16S21436   6.170   6.700   8.047  0.6381  0.0995 -0.3562
  186SLPC  C21721437   6.112   6.582   8.210  0.1593 -0.1778  0.3497
  186SLPC  H17R21438   6.036   6.658   8.239 -1.6591 -1.5494 -0.6139
  186SLPC  H17S21439   6.201   6.592   8.276 -0.8798  1.1524  1.6139
  186SLPC  C21821440   6.059   6.437   8.247 -0.5007 -0.6708  0.2897
  186SLPC  H18R21441   5.957   6.415   8.208 -0.5233  0.2867 -0.2269
  186SLPC  H18S21442   6.049   6.434   8.358 -0.6195 -1.8946  0.2575
  186SLPC  H18T21443   6.132   6.361   8.213 -0.8845 -0.0247 -2.1352
  186SLPC   C3321444   6.306   6.107   7.024  0.0674  0.0396  0.0376
  186SLPC   H3X21445   6.221   6.039   7.048 -0.3648  0.3922 -0.4671
  186SLPC   H3Y21446   6.266   6.186   6.957 -2.4883  0.3321  1.7465
  186SLPC   C3421447   6.343   6.186   7.155  0.4529 -0.3793  0.6255
  186SLPC   H4X21448   6.247   6.238   7.178 -0.4363 -1.0802 -1.2802
  186SLPC   H4Y21449   6.411   6.266   7.119  0.2445 -0.2839  0.4401
  186SLPC   C3521450   6.414   6.106   7.268  0.4261 -0.0627  0.0791
  186SLPC   H5X21451   6.438   6.186   7.342 -1.0440 -1.0912  1.7401
  186SLPC   H5Y21452   6.509   6.059   7.236  0.4952  0.8222 -1.0964
  186SLPC   C3621453   6.321   6.004   7.336  0.1685 -0.3842  1.1020
  186SLPC   H6X21454   6.323   5.916   7.269  1.2209 -0.0529  0.6744
  186SLPC   H6Y21455   6.221   6.050   7.324  1.9650  3.5577 -0.7664
  186SLPC   C3721456   6.355   5.953   7.475  0.0161 -0.2087  0.6626
  186SLPC   H7X21457   6.460   5.983   7.494  0.5250 -3.0623  3.0494
  186SLPC   H7Y21458   6.357   5.845   7.498 -1.9143 -0.0710  1.7293
  186SLPC   C3821459   6.275   6.015   7.588  0.5692 -0.1435 -0.6096
  186SLPC   H8X21460   6.168   6.000   7.565  0.5209 -0.6868 -0.0647
  186SLPC   H8Y21461   6.300   6.124   7.590  3.6379 -0.7462  0.2706
  186SLPC   C3921462   6.310   5.957   7.722  0.3300 -0.9018  0.0380
  186SLPC   H9X21463   6.418   5.942   7.704  0.9319  0.6955  1.9832
  186SLPC   H9Y21464   6.267   5.856   7.738  1.1774 -1.2979 -0.1567
  186SLPC  C31021465   6.288   6.049   7.843  0.0195 -0.2590 -0.3153
  186SLPC  H10X21466   6.184   6.088   7.853 -0.5558 -1.8675  0.1764
  186SLPC  H10Y21467   6.341   6.146   7.831 -0.7309  0.0399 -1.3048
  186SLPC  C31121468   6.341   5.997   7.977 -0.3205  0.2488  0.2152
  186SLPC  H11X21469   6.440   5.947   7.977 -0.0031  0.8456  1.1859
  186SLPC  H11Y21470   6.279   5.912   8.012  1.1944 -1.1017 -0.2826
  186SLPC  C31221471   6.345   6.093   8.094  0.6560  0.0712  0.2002
  186SLPC  H12X21472   6.355   6.030   8.185  1.6407  1.4042  1.0387
  186SLPC  H12Y21473   6.243   6.135   8.112  0.9452  0.4137  1.0920
  186SLPC  C31321474   6.453   6.195   8.086 -0.3416 -0.1938 -1.1012
  186SLPC  H13X21475   6.445   6.261   7.997 -0.0253  0.5549 -0.5912
  186SLPC  H13Y21476   6.551   6.143   8.085  0.8061  1.7468  1.1437
  186SLPC  C31421477   6.437   6.292   8.204 -0.4227 -0.2335  0.2867
  186SLPC  H14X21478   6.441   6.240   8.302  2.0170  1.0143  0.9493
  186SLPC  H14Y21479   6.341   6.345   8.185 -0.8699 -1.9303 -3.0805
  186SLPC  C31521480   6.543   6.407   8.201 -0.1659  0.0781 -0.7055
  186SLPC  H15X21481   6.535   6.443   8.096 -0.5592 -0.7988 -0.9832
  186SLPC  H15Y21482   6.646   6.370   8.219 -0.8978 -0.4914  3.2402
  186SLPC  C31621483   6.517   6.531   8.298  0.0218 -0.2505  0.3404
  186SLPC  H16X21484   6.421   6.583   8.277 -0.1832 -0.9781 -0.6171
  186SLPC  H16Y21485   6.601   6.598   8.270  0.0850 -0.3852  0.2022
  186SLPC  C31721486   6.533   6.497   8.445  0.3099 -0.1220  0.4141
  186SLPC  H17X21487   6.546   6.600   8.485  2.0931  0.2833 -1.0759
  186SLPC  H17Y21488   6.623   6.446   8.484  1.4894  1.4867 -0.0732
  186SLPC  C31821489   6.405   6.442   8.518 -0.1432  0.5963  0.0432
  186SLPC  H18X21490   6.406   6.467   8.626  0.0840  1.2411 -0.1058
  186SLPC  H18Y21491   6.411   6.333   8.499  0.6268  0.7545 -0.6718
  186SLPC  H18Z21492   6.310   6.479   8.473 -0.5678 -1.7284 -1.1590
  187SLPC     N21493   6.317   3.315   6.375  0.8004 -0.0206  0.8485
  187SLPC   C1321494   6.386   3.231   6.278  1.0827  0.1347  0.1355
  187SLPC  H13A21495   6.370   3.263   6.176 -3.1800 -0.3265  0.4468
  187SLPC  H13B21496   6.492   3.240   6.293  1.3433  1.6339 -2.0715
  187SLPC  H13C21497   6.351   3.129   6.291  3.2233 -0.5106  1.2213
  187SLPC   C1421498   6.174   3.273   6.380 -0.3241  0.3367 -0.1281
  187SLPC  H14A21499   6.124   3.321   6.463 -1.3002  0.6200 -0.8623
  187SLPC  H14B21500   6.124   3.297   6.288 -0.0250  2.7606  0.2833
  187SLPC  H14C21501   6.174   3.168   6.406  2.0049  0.8665  2.5510
  187SLPC   C1521502   6.327   3.456   6.320 -0.7292  0.1851 -0.4451
  187SLPC  H15A21503   6.275   3.453   6.226  1.5290  0.5824 -1.7698
  187SLPC  H15B21504   6.284   3.528   6.389 -0.2412  0.9069 -0.8792
  187SLPC  H15C21505   6.429   3.493   6.313 -0.1128 -0.9646  1.5590
  187SLPC   C1221506   6.378   3.307   6.517 -0.1003  0.5592  0.4662
  187SLPC  H12A21507   6.352   3.210   6.557 -0.3398  0.8575  1.0347
  187SLPC  H12B21508   6.341   3.380   6.587 -1.5605  0.3125  0.0012
  187SLPC   C1121509   6.535   3.314   6.516  0.5309 -0.6370  0.2566
  187SLPC  H11A21510   6.572   3.330   6.620  1.6396  1.3431 -0.4008
  187SLPC  H11B21511   6.566   3.406   6.463 -2.2047  1.1439  1.5545
  187SLPC     P21512   6.581   3.052   6.528 -0.0389 -0.2642 -0.1105
  187SLPC   O1321513   6.450   3.006   6.507  0.2900  0.4230 -0.0372
  187SLPC   O1421514   6.685   2.964   6.486 -0.3870  0.0126 -0.3930
  187SLPC   O1221515   6.599   3.199   6.454 -0.0409  0.2890 -0.0412
  187SLPC   O1121516   6.599   3.078   6.685 -0.2722  0.4073  0.4710
  187SLPC    C121517   6.724   3.124   6.735 -0.0842 -1.0158  0.1255
  187SLPC    HA21518   6.800   3.050   6.701  1.8160  1.0176 -0.3138
  187SLPC    HB21519   6.756   3.218   6.685 -0.6618  0.5946  2.6308
  187SLPC    C221520   6.730   3.138   6.888 -0.3549  0.4208  0.3589
  187SLPC    HS21521   6.749   3.041   6.939 -0.0554  1.2070  1.7863
  187SLPC   O2121522   6.607   3.189   6.937 -0.0436 -0.4187  0.0184
  187SLPC   C2121523   6.509   3.110   6.969 -0.1100 -0.1951  0.7815
  187SLPC   O2221524   6.522   2.990   6.976  0.4034  0.1201  0.0388
  187SLPC   C2221525   6.381   3.197   6.997 -0.0098  0.8001 -0.4181
  187SLPC   H2R21526   6.411   3.294   7.042  2.6046 -0.2082  0.2054
  187SLPC   H2S21527   6.330   3.214   6.899 -1.2040 -0.9947 -0.1742
  187SLPC    C321528   6.859   3.225   6.923  0.1308 -0.4107  0.3438
  187SLPC    HX21529   6.866   3.318   6.863 -1.3131  0.5477  1.5788
  187SLPC    HY21530   6.942   3.160   6.889  0.7761  0.6345 -0.1290
  187SLPC   O3121531   6.869   3.268   7.062 -0.0800  0.0228  0.2435
  187SLPC   C3121532   6.925   3.191   7.153 -0.4609 -0.1981  0.0348
  187SLPC   O3221533   6.979   3.084   7.138  0.0862  0.0923  0.0621
  187SLPC   C3221534   6.911   3.258   7.292 -0.3830 -0.1686  0.3731
  187SLPC   H2X21535   6.928   3.368   7.281 -0.6360 -0.2780 -1.3136
  187SLPC   H2Y21536   6.999   3.238   7.357  0.0757  2.5191  0.7083
  187SLPC   C2321537   6.287   3.119   7.094  0.0325  0.0317 -0.0352
  187SLPC   H3R21538   6.271   3.018   7.049 -0.3058 -0.4362  1.1004
  187SLPC   H3S21539   6.187   3.166   7.103 -0.0837 -0.1367 -0.3891
  187SLPC   C2421540   6.353   3.102   7.226  0.5915  0.1904 -0.5488
  187SLPC   H4R21541   6.393   3.203   7.250 -0.0776  0.2962  0.1477
  187SLPC   H4S21542   6.441   3.035   7.222  0.3752 -0.2353  1.1312
  187SLPC   C2521543   6.259   3.072   7.350 -0.3643 -0.2659  0.5697
  187SLPC   H5R21544   6.223   2.967   7.357 -0.2309 -0.2455  1.8157
  187SLPC   H5S21545   6.178   3.149   7.347  0.5361  0.6808 -0.0236
  187SLPC   C2621546   6.339   3.097   7.481 -0.5063 -0.2077 -0.2987
  187SLPC   H6R21547   6.361   3.205   7.491  0.5265 -0.4456  0.0353
  187SLPC   H6S21548   6.436   3.044   7.479 -0.7887 -0.8384 -3.4390
  187SLPC   C2721549   6.255   3.056   7.599  0.0210  0.0170 -1.2481
  187SLPC   H7R21550   6.223   2.950   7.585  0.5791 -0.3064 -0.1685
  187SLPC   H7S21551   6.166   3.121   7.593  0.6691  1.1162  0.4663
  187SLPC   C2821552   6.320   3.072   7.734  0.3134  0.2425  0.3828
  187SLPC   H8R21553   6.408   3.004   7.734  0.9599  1.0526  0.0685
  187SLPC   H8S21554   6.249   3.038   7.812 -0.3528  0.9055  0.0752
  187SLPC   C2921555   6.369   3.211   7.764  0.5740 -0.4952 -0.0698
  187SLPC   H9R21556   6.438   3.255   7.691  1.3254  0.1948  1.0193
  187SLPC  C21021557   6.322   3.296   7.857  0.1218 -0.1902 -0.5182
  187SLPC  H10R21558   6.361   3.398   7.872  0.9043 -0.7022  1.2474
  187SLPC  C21121559   6.218   3.264   7.959  0.0367  1.3984  0.5871
  187SLPC  H11R21560   6.162   3.175   7.923 -0.0885  2.0316 -0.8572
  187SLPC  H11S21561   6.136   3.340   7.960 -0.4015  0.9474 -0.1215
  187SLPC  C21221562   6.259   3.249   8.101  0.6076  0.4035  0.1482
  187SLPC  H12R21563   6.356   3.295   8.124  0.8956 -0.3812  0.5454
  187SLPC  C21321564   6.189   3.177   8.194 -0.9510  0.4005 -0.5170
  187SLPC  H13R21565   6.231   3.173   8.296 -2.1438  1.8578  0.0894
  187SLPC  C21421566   6.066   3.094   8.165 -0.1296 -0.6823 -0.2820
  187SLPC  H14R21567   6.096   3.030   8.080  1.8408  0.3082 -0.3816
  187SLPC  H14S21568   5.981   3.160   8.139  1.1436  1.2607  0.2621
  187SLPC  C21521569   6.046   3.003   8.288  0.2174 -0.1754  0.0304
  187SLPC  H15R21570   6.029   3.074   8.372  0.9489  1.7279 -1.3714
  187SLPC  H15S21571   6.134   2.946   8.323  1.3709  0.9616 -0.9157
  187SLPC  C21621572   5.924   2.910   8.273  0.8007 -0.1715 -0.5724
  187SLPC  H16R21573   5.918   2.860   8.372  0.1839  1.0227  0.0178
  187SLPC  H16S21574   5.936   2.832   8.194  1.0551 -1.4980  0.7344
  187SLPC  C21721575   5.791   2.973   8.235  0.0556 -0.4281  0.4839
  187SLPC  H17R21576   5.787   3.018   8.134 -2.5084 -3.5965 -0.9905
  187SLPC  H17S21577   5.771   3.059   8.304 -2.9267 -1.5778  1.1943
  187SLPC  C21821578   5.678   2.873   8.235 -0.6252  0.6513  0.5922
  187SLPC  H18R21579   5.584   2.926   8.259 -0.9535  0.4275 -0.1632
  187SLPC  H18S21580   5.691   2.793   8.312  2.4334 -0.5023 -0.9439
  187SLPC  H18T21581   5.682   2.822   8.136  2.8827  1.6912  0.0401
  187SLPC   C3321582   6.783   3.243   7.376 -0.7034 -0.1311  0.0571
  187SLPC   H3X21583   6.801   3.269   7.483 -0.0698 -0.9683  0.1583
  187SLPC   H3Y21584   6.762   3.134   7.379 -1.3718  0.0145  1.9103
  187SLPC   C3421585   6.652   3.301   7.329  0.2035 -0.2582  0.2405
  187SLPC   H4X21586   6.565   3.252   7.378 -0.0792  1.8535  2.0105
  187SLPC   H4Y21587   6.651   3.289   7.218  0.1206  1.2593  0.0511
  187SLPC   C3521588   6.639   3.459   7.350  0.0784 -1.4452 -0.9807
  187SLPC   H5X21589   6.537   3.489   7.320  0.4583  0.3661 -0.5492
  187SLPC   H5Y21590   6.722   3.509   7.296  0.3748 -0.4860  0.3300
  187SLPC   C3621591   6.657   3.499   7.500 -0.1179 -0.3726  0.5111
  187SLPC   H6X21592   6.766   3.486   7.520 -0.0044 -1.3001 -0.5827
  187SLPC   H6Y21593   6.598   3.423   7.556  2.6024 -1.8500  1.5867
  187SLPC   C3721594   6.601   3.641   7.524  0.4984 -0.0914 -0.1603
  187SLPC   H7X21595   6.646   3.707   7.447 -0.3863  1.1592  0.3701
  187SLPC   H7Y21596   6.492   3.638   7.500  0.7318 -0.8332 -1.2580
  187SLPC   C3821597   6.635   3.686   7.676 -0.1728  0.7242 -0.2462
  187SLPC   H8X21598   6.566   3.767   7.707 -2.1620 -0.7548 -0.5655
  187SLPC   H8Y21599   6.743   3.711   7.674  0.0638 -0.2819 -1.0924
  187SLPC   C3921600   6.607   3.572   7.773  0.6556  0.4244  0.0113
  187SLPC   H9X21601   6.677   3.489   7.751 -1.9172 -1.2582 -2.5343
  187SLPC   H9Y21602   6.502   3.537   7.759  0.5056 -0.1626  2.1497
  187SLPC  C31021603   6.618   3.614   7.918  0.5326 -0.2324 -0.4119
  187SLPC  H10X21604   6.555   3.704   7.931  1.5507  0.0740  3.7676
  187SLPC  H10Y21605   6.720   3.636   7.958 -1.0645 -0.2726  4.2464
  187SLPC  C31121606   6.556   3.510   8.023 -0.2430 -0.3363 -0.1012
  187SLPC  H11X21607   6.608   3.411   8.016 -1.6770 -1.1530  0.4388
  187SLPC  H11Y21608   6.449   3.506   7.994  0.3397 -0.4758 -2.4467
  187SLPC  C31221609   6.573   3.557   8.170 -0.6236  0.1280 -0.2508
  187SLPC  H12X21610   6.552   3.665   8.181 -1.4913 -0.1143  0.6988
  187SLPC  H12Y21611   6.677   3.539   8.205 -0.7405  1.5832  0.9420
  187SLPC  C31321612   6.472   3.506   8.267 -0.8386  0.2038  0.1899
  187SLPC  H13X21613   6.379   3.485   8.210 -0.3803 -0.8872 -0.1926
  187SLPC  H13Y21614   6.446   3.586   8.340  1.6688  0.5592  0.7742
  187SLPC  C31421615   6.523   3.386   8.352 -0.2348 -0.0569 -0.8250
  187SLPC  H14X21616   6.622   3.413   8.394 -0.9729 -0.1394  1.0684
  187SLPC  H14Y21617   6.532   3.294   8.290 -1.8054  0.1169 -1.3537
  187SLPC  C31521618   6.434   3.364   8.475  0.0045  0.4806 -0.3490
  187SLPC  H15X21619   6.330   3.344   8.443  0.3371 -0.2551 -1.0103
  187SLPC  H15Y21620   6.442   3.446   8.549 -0.0489 -1.5798  2.0487
  187SLPC  C31621621   6.478   3.244   8.559  0.1710 -0.6947 -0.6499
  187SLPC  H16X21622   6.415   3.248   8.651 -0.5978 -1.4751 -1.1256
  187SLPC  H16Y21623   6.584   3.273   8.572 -0.6944  2.9748 -0.5616
  187SLPC  C31721624   6.454   3.109   8.492  0.0851  0.0197  0.3258
  187SLPC  H17X21625   6.509   3.082   8.400  0.4326 -1.4347  0.9414
  187SLPC  H17Y21626   6.346   3.098   8.470  0.1125 -1.3138  0.7605
  187SLPC  C31821627   6.480   2.991   8.588 -0.1812  0.5169 -0.2896
  187SLPC  H18X21628   6.419   3.014   8.679 -0.3219  1.3738 -0.5879
  187SLPC  H18Y21629   6.587   2.971   8.610 -0.1513 -0.0875 -0.9712
  187SLPC  H18Z21630   6.433   2.897   8.555 -1.2796  1.1359 -0.5547
  188SLPC     N21631   2.145   2.983   6.466  0.3627  0.2217  0.1588
  188SLPC   C1321632   2.160   2.950   6.321 -0.1710  0.6381  0.6306
  188SLPC  H13A21633   2.261   2.979   6.293 -0.2734  1.4406  1.0410
  188SLPC  H13B21634   2.138   2.846   6.305  1.0428  0.1356  1.9861
  188SLPC  H13C21635   2.090   2.992   6.250  0.7169 -0.5013 -0.9836
  188SLPC   C1421636   2.025   2.914   6.513 -0.1153  0.1012  0.6621
  188SLPC  H14A21637   1.947   2.932   6.441  0.8984  0.1515 -0.4710
  188SLPC  H14B21638   2.032   2.806   6.514  3.0195  0.2048  1.1638
  188SLPC  H14C21639   2.000   2.955   6.609  1.4456  0.3122  1.0019
  188SLPC   C1521640   2.117   3.127   6.495  0.5009 -0.2130  0.5480
  188SLPC  H15A21641   2.213   3.176   6.505  2.0299 -2.3227 -2.3505
  188SLPC  H15B21642   2.050   3.166   6.420  1.0431  0.0629  0.2022
  188SLPC  H15C21643   2.070   3.139   6.591  0.3811  2.0389  0.2729
  188SLPC   C1221644   2.265   2.938   6.544  0.1655  0.1310 -0.6279
  188SLPC  H12A21645   2.264   2.832   6.564 -0.5064  0.4800  1.4185
  188SLPC  H12B21646   2.251   2.971   6.646 -0.0296 -0.9710 -0.2779
  188SLPC   C1121647   2.415   2.991   6.515 -0.2709 -0.0655 -0.1103
  188SLPC  H11A21648   2.453   2.946   6.421  1.4595  1.1135 -0.0160
  188SLPC  H11B21649   2.481   2.957   6.597 -0.6375  1.9182  1.0852
  188SLPC     P21650   2.520   3.210   6.436 -0.3430 -0.1616 -0.0088
  188SLPC   O1321651   2.498   3.161   6.300 -0.4085 -0.4364  0.1776
  188SLPC   O1421652   2.515   3.360   6.452  0.0333 -0.1332 -0.4336
  188SLPC   O1221653   2.413   3.138   6.516 -0.0270  0.1126 -0.0570
  188SLPC   O1121654   2.646   3.141   6.494  0.1486 -1.0545  0.2279
  188SLPC    C121655   2.725   3.225   6.588 -0.1826 -0.5897  0.0894
  188SLPC    HA21656   2.830   3.191   6.588  0.5931  1.3515 -3.5345
  188SLPC    HB21657   2.736   3.329   6.550 -2.0555  0.3567  1.9198
  188SLPC    C221658   2.669   3.233   6.732 -0.1054 -0.4668  0.4556
  188SLPC    HS21659   2.564   3.269   6.727  0.6951  1.9340 -0.7635
  188SLPC   O2121660   2.744   3.327   6.805  0.2591 -0.2816 -0.0486
  188SLPC   C2121661   2.702   3.455   6.792  0.1076 -0.8725 -0.0173
  188SLPC   O2221662   2.604   3.488   6.730 -0.2097  0.7164  0.4698
  188SLPC   C2221663   2.790   3.539   6.886  0.5197 -0.1526  0.3011
  188SLPC   H2R21664   2.780   3.488   6.984 -2.1892 -1.1509 -0.4217
  188SLPC   H2S21665   2.890   3.549   6.838  0.3132  0.4732 -0.0152
  188SLPC    C321666   2.659   3.098   6.805 -0.5128 -0.2181  0.2496
  188SLPC    HX21667   2.762   3.058   6.811 -0.0188  0.7561 -1.1805
  188SLPC    HY21668   2.591   3.033   6.746  0.1282 -0.8627  0.2184
  188SLPC   O3121669   2.598   3.121   6.932 -0.2576  0.5134  0.6943
  188SLPC   C3121670   2.569   3.019   7.006 -0.6445  0.1291 -0.1542
  188SLPC   O3221671   2.567   2.899   6.975  0.2372  0.3519  0.0202
  188SLPC   C3221672   2.533   3.083   7.144  0.2539  0.4364 -0.7016
  188SLPC   H2X21673   2.475   3.008   7.202  0.7194 -1.1758 -2.2401
  188SLPC   H2Y21674   2.466   3.172   7.133  2.1126  1.9211 -0.4397
  188SLPC   C2321675   2.739   3.686   6.911  0.2211  0.3012 -0.4886
  188SLPC   H3R21676   2.636   3.694   6.951 -0.7049 -1.7085 -2.2438
  188SLPC   H3S21677   2.731   3.732   6.810 -0.8871 -0.4074 -0.7367
  188SLPC   C2421678   2.841   3.765   6.996 -0.5328 -0.2830 -0.2028
  188SLPC   H4R21679   2.796   3.860   7.032 -0.6591 -0.3027 -0.3057
  188SLPC   H4S21680   2.931   3.770   6.931  0.0212  0.7656  0.6235
  188SLPC   C2521681   2.874   3.694   7.123 -0.1280  0.2706 -0.5041
  188SLPC   H5R21682   2.959   3.734   7.184 -0.0364  0.3442 -0.6810
  188SLPC   H5S21683   2.907   3.590   7.100 -0.4076  0.5716 -2.3554
  188SLPC   C2621684   2.745   3.684   7.209 -0.4428  0.2907 -0.2112
  188SLPC   H6R21685   2.670   3.611   7.172 -2.7582  1.2562  2.2115
  188SLPC   H6S21686   2.696   3.783   7.221 -1.2729 -0.1822  0.3726
  188SLPC   C2721687   2.778   3.651   7.359 -0.3621 -0.1663 -0.1718
  188SLPC   H7R21688   2.811   3.746   7.406 -0.7652 -0.6939  1.2442
  188SLPC   H7S21689   2.870   3.589   7.361  0.4033  0.9475  0.0788
  188SLPC   C2821690   2.660   3.601   7.446  0.5968 -0.5084 -0.4783
  188SLPC   H8R21691   2.594   3.536   7.383  1.6406 -0.4725 -1.6507
  188SLPC   H8S21692   2.593   3.681   7.483 -1.2342 -2.6006  1.0555
  188SLPC   C2921693   2.723   3.539   7.564  0.0803 -0.1682 -0.9380
  188SLPC   H9R21694   2.803   3.469   7.534  1.5655  0.5254  1.1899
  188SLPC  C21021695   2.701   3.564   7.700  0.2513 -0.3478  0.2452
  188SLPC  H10R21696   2.759   3.513   7.778  2.6909 -0.0057 -1.2280
  188SLPC  C21121697   2.596   3.659   7.757 -0.0479 -0.5843  0.4409
  188SLPC  H11R21698   2.521   3.598   7.811  1.3803 -0.4957  2.6648
  188SLPC  H11S21699   2.537   3.710   7.678  0.9836 -1.1325 -0.7206
  188SLPC  C21221700   2.640   3.767   7.854 -0.0336 -0.0606  0.3433
  188SLPC  H12R21701   2.630   3.872   7.822  0.1123 -0.1842 -0.1129
  188SLPC  C21321702   2.680   3.756   7.985  0.8826 -0.2014 -0.0367
  188SLPC  H13R21703   2.716   3.844   8.039  0.2592  0.7250 -1.0882
  188SLPC  C21421704   2.688   3.627   8.061  0.2866  0.3562 -0.5697
  188SLPC  H14R21705   2.788   3.627   8.109 -0.4395  0.7943  0.9751
  188SLPC  H14S21706   2.700   3.546   7.985 -2.0247  1.6012 -2.3840
  188SLPC  C21521707   2.581   3.592   8.160 -0.9785 -0.3574 -0.3362
  188SLPC  H15R21708   2.489   3.577   8.100 -2.1446 -1.0014  1.5160
  188SLPC  H15S21709   2.566   3.672   8.236 -0.1179 -0.7651  0.2845
  188SLPC  C21621710   2.616   3.468   8.248 -0.0143 -0.3899 -0.0330
  188SLPC  H16R21711   2.641   3.381   8.184 -0.2770  1.5024 -2.8850
  188SLPC  H16S21712   2.521   3.445   8.301  1.6616  1.1942  4.0948
  188SLPC  C21721713   2.714   3.503   8.357 -0.3472  0.2398 -0.4316
  188SLPC  H17R21714   2.694   3.597   8.412  3.4712  1.5648 -0.9967
  188SLPC  H17S21715   2.811   3.525   8.306 -0.2165  0.9640  0.1294
  188SLPC  C21821716   2.725   3.383   8.459  0.1650 -0.1563 -0.2462
  188SLPC  H18R21717   2.793   3.406   8.544  1.1905 -0.2299 -1.0302
  188SLPC  H18S21718   2.769   3.294   8.409  0.4057  0.8782 -1.9336
  188SLPC  H18T21719   2.630   3.362   8.514  1.5462 -0.7735  2.0299
  188SLPC   C3321720   2.658   3.143   7.227 -0.0780 -0.1379  0.6497
  188SLPC   H3X21721   2.708   3.216   7.161  0.4137  0.3655  1.5535
  188SLPC   H3Y21722   2.731   3.060   7.234 -0.5097 -0.8710 -2.3998
  188SLPC   C3421723   2.616   3.202   7.360  0.1873  0.3197 -0.0685
  188SLPC   H4X21724   2.538   3.281   7.348 -1.4056 -1.1938 -0.1535
  188SLPC   H4Y21725   2.710   3.242   7.403  0.1148  1.2566 -0.7596
  188SLPC   C3521726   2.566   3.104   7.469  0.1410  0.8625 -0.2378
  188SLPC   H5X21727   2.645   3.027   7.460  0.5525  1.4105 -1.5661
  188SLPC   H5Y21728   2.464   3.068   7.443 -0.3715  1.5854  0.7104
  188SLPC   C3621729   2.568   3.155   7.614 -0.2908 -0.9568  0.2900
  188SLPC   H6X21730   2.486   3.228   7.628  0.3473 -0.5259  1.9841
  188SLPC   H6Y21731   2.659   3.216   7.631 -1.5948  1.8203 -1.8234
  188SLPC   C3721732   2.557   3.044   7.717 -0.5554  0.0544  0.1699
  188SLPC   H7X21733   2.640   2.971   7.714  1.6672  2.4220  1.0570
  188SLPC   H7Y21734   2.471   2.982   7.682 -1.2915  0.7137  0.7466
  188SLPC   C3821735   2.542   3.106   7.858  0.3741  0.4008 -0.2498
  188SLPC   H8X21736   2.532   3.017   7.923  1.5429  0.5301  0.1168
  188SLPC   H8Y21737   2.444   3.159   7.858  0.8116  1.2409 -1.0844
  188SLPC   C3921738   2.661   3.194   7.903 -0.1782 -0.6859  0.1474
  188SLPC   H9X21739   2.628   3.221   8.006  0.7563 -1.2979  0.6245
  188SLPC   H9Y21740   2.674   3.289   7.847  0.4957 -0.4011  0.7702
  188SLPC  C31021741   2.795   3.125   7.909 -0.3805 -0.4781 -0.8398
  188SLPC  H10X21742   2.816   3.087   7.807 -1.6055  0.5998 -1.5216
  188SLPC  H10Y21743   2.796   3.031   7.969  2.1054 -2.4048 -3.6570
  188SLPC  C31121744   2.915   3.209   7.945  0.0965  0.2134 -0.3608
  188SLPC  H11X21745   2.927   3.283   7.863 -1.9854  2.0389  0.8664
  188SLPC  H11Y21746   3.006   3.145   7.950 -0.3834 -0.4393  0.4730
  188SLPC  C31221747   2.890   3.283   8.079  0.1076  0.2744 -0.0341
  188SLPC  H12X21748   2.819   3.223   8.139  0.3172 -0.4470 -0.4933
  188SLPC  H12Y21749   2.831   3.376   8.064 -3.1008 -1.3691  1.5412
  188SLPC  C31321750   3.014   3.299   8.169  0.2165  0.4039  0.6502
  188SLPC  H13X21751   2.989   3.361   8.258 -2.8363  1.0569 -0.5711
  188SLPC  H13Y21752   3.083   3.363   8.110 -0.6421  0.8166  0.0836
  188SLPC  C31421753   3.098   3.171   8.199 -0.0317 -0.0485 -0.2228
  188SLPC  H14X21754   3.139   3.146   8.099 -1.7827  0.1544 -1.0343
  188SLPC  H14Y21755   3.036   3.090   8.242 -1.7274  2.4530  2.4442
  188SLPC  C31521756   3.223   3.199   8.286 -0.2028 -0.3415  0.1080
  188SLPC  H15X21757   3.184   3.169   8.385 -2.5106 -0.2270 -0.7028
  188SLPC  H15Y21758   3.242   3.308   8.297 -3.3225  0.1989  0.9947
  188SLPC  C31621759   3.341   3.115   8.248  0.0598  0.0895  0.0080
  188SLPC  H16X21760   3.433   3.147   8.301  0.9614  0.2372 -1.5613
  188SLPC  H16Y21761   3.363   3.148   8.144  1.0245 -2.5536 -0.7199
  188SLPC  C31721762   3.325   2.963   8.251 -0.0797 -0.2012  0.3694
  188SLPC  H17X21763   3.427   2.936   8.218 -1.1614 -0.0694 -3.5929
  188SLPC  H17Y21764   3.248   2.932   8.176 -0.1187  0.6521  0.0446
  188SLPC  C31821765   3.293   2.901   8.386 -0.3811 -0.7236 -0.6493
  188SLPC  H18X21766   3.279   2.791   8.378  0.8376 -0.9021 -0.5214
  188SLPC  H18Y21767   3.206   2.959   8.422 -0.7964 -0.8824 -1.3865
  188SLPC  H18Z21768   3.373   2.922   8.460 -0.1452  1.3791 -1.4262
  189SLPC     N21769   5.427   4.328   6.371 -0.4306 -0.0206  0.3151
  189SLPC   C1321770   5.299   4.382   6.314 -0.7649 -0.2249 -0.1997
  189SLPC  H13A21771   5.232   4.426   6.386  0.1304  1.4708 -0.3521
  189SLPC  H13B21772   5.321   4.452   6.235  1.4248 -0.1841  0.3871
  189SLPC  H13C21773   5.238   4.314   6.257 -1.4010  2.2397 -2.6760
  189SLPC   C1421774   5.489   4.242   6.271 -0.3864  0.3282  0.0522
  189SLPC  H14A21775   5.438   4.149   6.250  2.1345 -0.7262 -2.0309
  189SLPC  H14B21776   5.502   4.289   6.174  1.6883 -2.4374 -1.1352
  189SLPC  H14C21777   5.587   4.204   6.293 -0.3701 -0.9837 -2.0475
  189SLPC   C1521778   5.388   4.236   6.485  0.5377 -0.0577 -0.0900
  189SLPC  H15A21779   5.319   4.162   6.447  0.6384  0.3235 -1.0261
  189SLPC  H15B21780   5.470   4.173   6.515 -0.3604 -1.0462  0.3322
  189SLPC  H15C21781   5.337   4.286   6.567  0.0033 -2.6306  1.2672
  189SLPC   C1221782   5.515   4.438   6.411  0.1608  0.7433 -0.4819
  189SLPC  H12A21783   5.551   4.492   6.324 -0.5393  0.0770 -1.1929
  189SLPC  H12B21784   5.603   4.401   6.461 -0.8976  0.1721  1.0338
  189SLPC   C1121785   5.445   4.552   6.495 -0.2943  0.1597 -0.1697
  189SLPC  H11A21786   5.397   4.504   6.583 -1.2536  1.1453 -0.1318
  189SLPC  H11B21787   5.362   4.600   6.437 -1.2493 -3.2882 -1.9087
  189SLPC     P21788   5.621   4.746   6.440  0.1273 -0.2430 -0.4505
  189SLPC   O1321789   5.766   4.721   6.469 -0.5147  0.1233 -0.1686
  189SLPC   O1421790   5.572   4.748   6.305 -0.1489 -0.2034 -0.3466
  189SLPC   O1221791   5.542   4.649   6.536 -0.3990 -0.3657  0.1175
  189SLPC   O1121792   5.597   4.892   6.501 -0.3602  0.6362 -0.7492
  189SLPC    C121793   5.484   4.944   6.570 -0.8389  0.1066 -0.0828
  189SLPC    HA21794   5.465   5.051   6.546  1.6657  0.7546  0.5742
  189SLPC    HB21795   5.393   4.883   6.550 -0.6285 -0.4302  0.5830
  189SLPC    C221796   5.513   4.950   6.721 -0.1963 -0.2274  0.1329
  189SLPC    HS21797   5.512   4.844   6.755  1.7229 -0.9029 -1.6799
  189SLPC   O2121798   5.415   5.030   6.787  0.4048  0.4243  0.2153
  189SLPC   C2121799   5.290   4.986   6.783 -0.3444 -0.1897  0.1752
  189SLPC   O2221800   5.254   4.873   6.747  0.1461 -0.6208 -0.5363
  189SLPC   C2221801   5.200   5.108   6.812  0.4708 -0.4651  0.4981
  189SLPC   H2R21802   5.252   5.206   6.801 -0.4643 -0.2093 -2.1561
  189SLPC   H2S21803   5.118   5.110   6.738 -0.1951 -0.1563  1.2317
  189SLPC    C321804   5.661   4.999   6.754 -0.1853  0.8455  0.1412
  189SLPC    HX21805   5.668   5.108   6.736  1.1484  0.6426 -0.7074
  189SLPC    HY21806   5.737   4.961   6.682 -0.6321 -0.4084  0.2942
  189SLPC   O3121807   5.695   4.962   6.888  0.2682 -0.2223  0.3358
  189SLPC   C3121808   5.662   5.051   6.978 -0.0739  0.2981  0.6724
  189SLPC   O3221809   5.603   5.157   6.959  0.2265 -0.1430 -0.4928
  189SLPC   C3221810   5.690   4.994   7.119 -0.4007 -0.0029 -0.4702
  189SLPC   H2X21811   5.762   4.911   7.107  1.8937  1.8833 -0.5715
  189SLPC   H2Y21812   5.598   4.946   7.157  0.3151 -0.3012  0.9672
  189SLPC   C2321813   5.121   5.101   6.951  0.0501  0.2809  0.8764
  189SLPC   H3R21814   5.075   5.001   6.964  0.7800 -0.2189 -0.1907
  189SLPC   H3S21815   5.033   5.169   6.944  0.1421  0.2900 -0.5304
  189SLPC   C2421816   5.207   5.159   7.069 -0.2302 -0.2494  0.4205
  189SLPC   H4R21817   5.132   5.214   7.130  0.2809  0.0913  0.7465
  189SLPC   H4S21818   5.293   5.219   7.033  1.2343 -1.3304  1.9510
  189SLPC   C2521819   5.276   5.053   7.164  1.0473  0.0793 -0.6497
  189SLPC   H5R21820   5.322   4.977   7.098 -3.8044 -2.1547 -1.8954
  189SLPC   H5S21821   5.200   4.990   7.215  1.0574 -2.2392 -3.3162
  189SLPC   C2621822   5.374   5.126   7.256  1.0862  0.3714  0.4736
  189SLPC   H6R21823   5.456   5.161   7.190  1.1146  0.7530  0.7114
  189SLPC   H6S21824   5.422   5.043   7.312  0.6259 -2.0190 -2.4183
  189SLPC   C2721825   5.318   5.244   7.337 -0.1313  0.3045  0.5872
  189SLPC   H7R21826   5.273   5.321   7.271  0.6066  0.6691  0.5045
  189SLPC   H7S21827   5.404   5.298   7.380  1.4518 -0.8808 -0.9412
  189SLPC   C2821828   5.213   5.212   7.451 -0.0868  0.2614  1.3920
  189SLPC   H8R21829   5.128   5.152   7.414 -0.0071  1.2507 -0.4976
  189SLPC   H8S21830   5.178   5.313   7.482 -0.9830  0.7182 -0.9139
  189SLPC   C2921831   5.288   5.137   7.553 -0.5349 -0.7127  0.2781
  189SLPC   H9R21832   5.334   5.044   7.514  2.5614  1.0147 -0.5378
  189SLPC  C21021833   5.299   5.168   7.682  0.0696  0.1135  0.2403
  189SLPC  H10R21834   5.366   5.100   7.737 -0.7860  0.6164  1.9811
  189SLPC  C21121835   5.245   5.281   7.767  0.7172 -0.7234  0.0697
  189SLPC  H11R21836   5.135   5.267   7.775  0.2596  2.0783 -0.4038
  189SLPC  H11S21837   5.247   5.375   7.708  3.2854 -0.0444  1.0859
  189SLPC  C21221838   5.315   5.313   7.894 -0.2081 -0.2443  0.2798
  189SLPC  H12R21839   5.424   5.324   7.881 -0.4176  1.6485 -0.1737
  189SLPC  C21321840   5.261   5.331   8.017  0.0564  0.6094  0.1145
  189SLPC  H13R21841   5.329   5.337   8.103  0.1010  0.3546  0.1001
  189SLPC  C21421842   5.113   5.317   8.059 -1.3646  0.6271 -0.6766
  189SLPC  H14R21843   5.035   5.320   7.981 -3.8096  0.0130  1.5958
  189SLPC  H14S21844   5.092   5.401   8.128 -1.5081  0.3511 -0.3780
  189SLPC  C21521845   5.084   5.181   8.122 -0.2502  0.2651 -0.4160
  189SLPC  H15R21846   5.133   5.103   8.059 -1.1522 -0.0801 -0.7134
  189SLPC  H15S21847   4.981   5.148   8.095 -0.4256  0.2296  0.2804
  189SLPC  C21621848   5.115   5.165   8.272  0.0957  0.4394 -0.8938
  189SLPC  H16R21849   5.049   5.231   8.332 -0.4557 -0.3573 -0.5962
  189SLPC  H16S21850   5.219   5.200   8.289 -0.3886  1.1439  0.8243
  189SLPC  C21721851   5.095   5.025   8.337  0.2027  0.7276 -0.5111
  189SLPC  H17R21852   5.105   5.032   8.447 -1.7299 -0.2373 -0.2281
  189SLPC  H17S21853   5.169   4.948   8.304 -0.5438  0.2563 -1.1159
  189SLPC  C21821854   4.955   4.968   8.318  0.2142 -0.2931 -0.0766
  189SLPC  H18R21855   4.953   4.873   8.376  1.9962  0.3665  1.1533
  189SLPC  H18S21856   4.927   4.940   8.214 -1.1271  1.1482 -0.1323
  189SLPC  H18T21857   4.871   5.031   8.354 -0.6232 -2.7492  2.7700
  189SLPC   C3321858   5.746   5.085   7.229  0.2587 -0.8094  0.0335
  189SLPC   H3X21859   5.669   5.165   7.234  0.7133 -0.3942  0.4295
  189SLPC   H3Y21860   5.842   5.130   7.197 -0.1690 -0.7843 -1.2600
  189SLPC   C3421861   5.747   5.026   7.369 -0.1309  0.1897 -0.1442
  189SLPC   H4X21862   5.855   5.004   7.385 -0.5005 -0.0517  2.5080
  189SLPC   H4Y21863   5.685   4.934   7.371  1.3059 -0.8137  0.2713
  189SLPC   C3521864   5.713   5.126   7.481 -0.5553 -0.5700  0.4049
  189SLPC   H5X21865   5.608   5.150   7.456 -0.5301 -1.5869 -0.7575
  189SLPC   H5Y21866   5.773   5.219   7.467 -0.9960  0.4580  4.2277
  189SLPC   C3621867   5.721   5.064   7.620  0.1792 -0.4633  0.1829
  189SLPC   H6X21868   5.828   5.059   7.649 -0.0061  1.9643  1.5889
  189SLPC   H6Y21869   5.674   4.964   7.620 -0.3019 -0.2574  1.4123
  189SLPC   C3721870   5.676   5.148   7.741  0.6217  0.1151 -0.5612
  189SLPC   H7X21871   5.573   5.188   7.729  0.2050 -1.2350 -1.7529
  189SLPC   H7Y21872   5.736   5.241   7.750 -1.6536  1.7834 -1.5678
  189SLPC   C3821873   5.686   5.072   7.876  0.2386 -0.1995  0.7440
  189SLPC   H8X21874   5.789   5.034   7.889  0.0524 -0.1921  2.4860
  189SLPC   H8Y21875   5.617   4.986   7.866  1.4028 -0.9396 -1.4317
  189SLPC   C3921876   5.654   5.155   8.004  0.2532  0.2326  0.0913
  189SLPC   H9X21877   5.638   5.081   8.085  1.9216  1.6913  1.8535
  189SLPC   H9Y21878   5.560   5.212   7.989 -1.9172 -3.6519 -2.6464
  189SLPC  C31021879   5.758   5.258   8.037 -0.7918 -0.7519 -0.1720
  189SLPC  H10X21880   5.759   5.336   7.959 -0.0858 -2.4185 -1.9094
  189SLPC  H10Y21881   5.863   5.221   8.038 -0.9129 -1.0998  0.7741
  189SLPC  C31121882   5.734   5.330   8.174 -0.7517  0.2022  0.3305
  189SLPC  H11X21883   5.716   5.245   8.244  0.3694  0.1957  0.6399
  189SLPC  H11Y21884   5.635   5.380   8.175 -1.6290 -1.3796 -1.4945
  189SLPC  C31221885   5.854   5.421   8.214 -0.1222  0.0737  0.1939
  189SLPC  H12X21886   5.881   5.492   8.132 -0.1930 -1.1856 -0.9548
  189SLPC  H12Y21887   5.934   5.352   8.249  1.0791  1.7723  0.9471
  189SLPC  C31321888   5.810   5.509   8.329  0.9357 -0.1487 -0.8697
  189SLPC  H13X21889   5.714   5.551   8.293  1.4800 -0.1925 -2.4544
  189SLPC  H13Y21890   5.874   5.597   8.351 -2.5133  2.0717  1.2524
  189SLPC  C31421891   5.803   5.433   8.466  0.4305  0.0238  0.3684
  189SLPC  H14X21892   5.907   5.412   8.499  0.6110  1.6713  0.9915
  189SLPC  H14Y21893   5.739   5.343   8.466  0.0113  0.3167 -0.0157
  189SLPC  C31521894   5.732   5.515   8.573  0.2368  0.0920 -0.4018
  189SLPC  H15X21895   5.629   5.528   8.534  0.9647  1.3702 -2.0294
  189SLPC  H15Y21896   5.776   5.617   8.580  0.2338 -0.0148  2.0988
  189SLPC  C31621897   5.729   5.440   8.702  0.0259 -1.2807 -0.4552
  189SLPC  H16X21898   5.832   5.407   8.730 -0.1200  0.9140  3.3420
  189SLPC  H16Y21899   5.668   5.350   8.681 -0.3059 -1.1649  0.0006
  189SLPC  C31721900   5.659   5.511   8.818 -0.0807 -0.9079  0.1143
  189SLPC  H17X21901   5.676   5.443   8.905 -2.0832 -1.4002  0.1835
  189SLPC  H17Y21902   5.552   5.520   8.787  0.2302  1.5702 -0.3953
  189SLPC  C31821903   5.701   5.659   8.856 -0.4515 -0.5812  0.4368
  189SLPC  H18X21904   5.628   5.705   8.926 -1.9230 -0.1781 -1.3027
  189SLPC  H18Y21905   5.691   5.723   8.766  4.8848  1.1320  0.6841
  189SLPC  H18Z21906   5.807   5.669   8.889 -1.0450  2.3032  1.8066
  190SLPC     N21907   2.004   2.730   5.913  0.4844 -0.4771 -0.5536
  190SLPC   C1321908   2.130   2.724   5.829 -0.2429  0.3441  0.0910
  190SLPC  H13A21909   2.132   2.644   5.757  1.2097 -0.6334  1.1798
  190SLPC  H13B21910   2.137   2.814   5.769  0.5617  0.5236  0.4422
  190SLPC  H13C21911   2.221   2.712   5.885 -0.2874  3.7064  1.0937
  190SLPC   C1421912   1.887   2.784   5.827  1.0998  0.8833 -0.3617
  190SLPC  H14A21913   1.867   2.716   5.745  2.9698 -0.9991  0.6152
  190SLPC  H14B21914   1.800   2.773   5.889 -1.0251  0.2096 -3.2729
  190SLPC  H14C21915   1.897   2.889   5.805 -1.1631  1.2521  0.2208
  190SLPC   C1521916   2.030   2.821   6.025  0.4816  0.1512  0.5589
  190SLPC  H15A21917   2.133   2.820   6.058  0.5265  1.5587  0.5277
  190SLPC  H15B21918   2.022   2.924   5.994 -1.5174 -0.2869 -0.5536
  190SLPC  H15C21919   1.970   2.802   6.112 -0.1698  0.2733  0.1446
  190SLPC   C1221920   1.972   2.592   5.978 -0.0892 -0.6785  0.5355
  190SLPC  H12A21921   2.062   2.566   6.030 -0.4059 -1.1558  0.8556
  190SLPC  H12B21922   1.958   2.526   5.893 -0.9631 -0.3701  0.4324
  190SLPC   C1121923   1.857   2.588   6.077  0.0158 -0.1911  1.0434
  190SLPC  H11A21924   1.793   2.499   6.094 -3.9153  2.0291 -0.7327
  190SLPC  H11B21925   1.783   2.662   6.041 -2.5071 -3.1686 -0.4014
  190SLPC     P21926   2.020   2.562   6.278  0.2500  0.2984 -0.4432
  190SLPC   O1321927   2.019   2.416   6.248  0.9009  0.2217  0.4091
  190SLPC   O1421928   2.147   2.630   6.248  0.1024 -0.4047 -0.1489
  190SLPC   O1221929   1.902   2.636   6.203  0.8916  0.5569 -0.4137
  190SLPC   O1121930   1.976   2.594   6.430  0.4802 -0.1482 -1.0560
  190SLPC    C121931   1.838   2.574   6.475 -0.3289 -0.1494  0.7499
  190SLPC    HA21932   1.792   2.671   6.445 -0.2148 -0.8807 -2.0612
  190SLPC    HB21933   1.786   2.492   6.421 -0.9754  0.7829 -0.0948
  190SLPC    C221934   1.823   2.560   6.624  0.4548  0.3778 -0.3816
  190SLPC    HS21935   1.713   2.558   6.640  0.7759 -3.7158  2.8495
  190SLPC   O2121936   1.892   2.661   6.692 -0.1949  0.3283  0.1471
  190SLPC   C2121937   1.830   2.720   6.788 -0.2489 -0.4004  0.1929
  190SLPC   O2221938   1.709   2.706   6.815 -0.0526  0.1263 -0.0134
  190SLPC   C2221939   1.927   2.823   6.855  0.3478  0.4269 -0.5336
  190SLPC   H2R21940   2.017   2.772   6.896  0.7292  1.5488  0.0675
  190SLPC   H2S21941   1.964   2.900   6.783  2.1351  0.0992 -0.0256
  190SLPC    C321942   1.888   2.419   6.661  0.3102  0.2210 -0.0877
  190SLPC    HX21943   1.995   2.424   6.632 -0.2297 -3.1043 -3.3981
  190SLPC    HY21944   1.840   2.334   6.608 -0.8740  1.0924 -0.4648
  190SLPC   O3121945   1.883   2.398   6.808  0.2001  0.1295 -0.3754
  190SLPC   C3121946   1.762   2.367   6.855 -0.4366  0.2039 -0.1758
  190SLPC   O3221947   1.663   2.331   6.790 -0.7141  0.1007  0.2424
  190SLPC   C3221948   1.769   2.383   7.009  0.2883 -0.2010 -0.0236
  190SLPC   H2X21949   1.845   2.308   7.040 -0.9576 -1.8259 -0.7344
  190SLPC   H2Y21950   1.669   2.358   7.049 -0.1482 -1.7223 -1.9021
  190SLPC   C2321951   1.865   2.889   6.979 -0.0363 -0.5994 -0.7692
  190SLPC   H3R21952   1.818   2.811   7.043 -0.0128  0.1557  0.1859
  190SLPC   H3S21953   1.789   2.956   6.933  2.4443  1.8167 -1.5958
  190SLPC   C2421954   1.958   2.982   7.058  0.4053 -0.1856  0.2131
  190SLPC   H4R21955   1.889   3.052   7.109 -1.5265 -0.7335 -1.5052
  190SLPC   H4S21956   2.013   3.050   6.990  1.4360 -1.5409 -0.3526
  190SLPC   C2521957   2.052   2.917   7.159 -0.0154 -0.1336 -0.1196
  190SLPC   H5R21958   2.109   2.838   7.106 -0.5567  0.9215 -2.3931
  190SLPC   H5S21959   2.002   2.851   7.233  0.5687  0.3728  0.7367
  190SLPC   C2621960   2.145   3.020   7.230 -0.1611  0.1188 -0.1107
  190SLPC   H6R21961   2.196   3.077   7.150  0.8475 -1.5725 -0.7264
  190SLPC   H6S21962   2.226   2.959   7.276  0.9939  0.8233 -1.1556
  190SLPC   C2721963   2.070   3.108   7.340  0.0874  0.3063  0.3220
  190SLPC   H7R21964   1.979   3.155   7.298 -1.2266  1.5404  4.0852
  190SLPC   H7S21965   2.139   3.190   7.370 -0.4513  0.7751  0.2904
  190SLPC   C2821966   2.027   3.019   7.460  0.2677  0.3741 -1.1131
  190SLPC   H8R21967   1.951   2.949   7.419  1.0581 -1.6826  0.7102
  190SLPC   H8S21968   1.984   3.095   7.529 -0.1820 -0.0686 -0.9008
  190SLPC   C2921969   2.142   2.931   7.515 -0.4286  0.2528 -0.4065
  190SLPC   H9R21970   2.173   2.851   7.446  0.9732  0.3374  0.0918
  190SLPC  C21021971   2.196   2.928   7.635  0.1840  0.7870  0.7216
  190SLPC  H10R21972   2.264   2.842   7.649  1.1542  1.6692  1.5470
  190SLPC  C21121973   2.164   3.014   7.751  0.2862  0.0117  0.2980
  190SLPC  H11R21974   2.136   3.115   7.715  0.2850 -0.3296 -0.6832
  190SLPC  H11S21975   2.256   3.032   7.812  2.5148  1.5470 -3.2369
  190SLPC  C21221976   2.046   2.970   7.838  0.0366  0.6162  0.6658
  190SLPC  H12R21977   1.969   2.917   7.779  0.5008  1.7364 -1.0410
  190SLPC  C21321978   2.032   2.980   7.970  0.5071  0.2068  0.4245
  190SLPC  H13R21979   1.938   2.947   8.016  0.1174  0.5779 -0.0962
  190SLPC  C21421980   2.128   3.042   8.064 -0.1808  0.7595 -0.5857
  190SLPC  H14R21981   2.103   3.144   8.100  1.6043  0.7980  0.6463
  190SLPC  H14S21982   2.226   3.063   8.016  0.5756 -0.7025  0.2622
  190SLPC  C21521983   2.161   2.944   8.183 -0.4482  0.4245  0.4554
  190SLPC  H15R21984   2.189   2.842   8.149 -0.7876  0.4578  0.0615
  190SLPC  H15S21985   2.066   2.929   8.240 -0.4387  1.5763  0.7983
  190SLPC  C21621986   2.267   3.007   8.272 -0.0920  0.4302  0.8679
  190SLPC  H16R21987   2.263   2.978   8.379  3.9351  0.6075  1.2240
  190SLPC  H16S21988   2.248   3.116   8.274  2.7531  1.0757 -1.0672
  190SLPC  C21721989   2.405   3.005   8.205  0.4370 -1.5194 -0.3768
  190SLPC  H17R21990   2.397   3.057   8.107 -0.7518  0.1171  0.5310
  190SLPC  H17S21991   2.438   2.899   8.196 -0.9361 -1.8496 -2.1754
  190SLPC  C21821992   2.521   3.065   8.292  0.6461  0.5929 -0.0126
  190SLPC  H18R21993   2.509   3.030   8.397 -1.8692  0.3686 -0.3297
  190SLPC  H18S21994   2.507   3.174   8.310 -0.3442  0.3933  0.5098
  190SLPC  H18T21995   2.625   3.042   8.258  0.7661  0.9807  0.0785
  190SLPC   C3321996   1.808   2.523   7.066  0.4967 -0.0643  0.2022
  190SLPC   H3X21997   1.731   2.594   7.030 -2.1021 -1.6352  2.2523
  190SLPC   H3Y21998   1.906   2.537   7.015  1.3023 -0.9793  1.4220
  190SLPC   C3421999   1.832   2.521   7.217  0.1847  0.2102  0.2567
  190SLPC   H4X22000   1.941   2.522   7.240 -0.2210  0.5153  2.2810
  190SLPC   H4Y22001   1.793   2.428   7.264  0.5862 -0.0599  0.0656
  190SLPC   C3522002   1.765   2.640   7.283 -0.2628 -0.3691 -0.1761
  190SLPC   H5X22003   1.657   2.629   7.262 -0.2819 -1.2338  0.3591
  190SLPC   H5Y22004   1.801   2.737   7.241  1.5612 -0.5619  0.8568
  190SLPC   C3622005   1.801   2.634   7.436  0.3268 -0.6372  0.9092
  190SLPC   H6X22006   1.912   2.626   7.442  0.3509 -0.1966  1.1427
  190SLPC   H6Y22007   1.746   2.550   7.484 -1.4069 -0.4287 -0.6327
  190SLPC   C3722008   1.735   2.752   7.506  0.2234  0.1229 -0.2284
  190SLPC   H7X22009   1.626   2.737   7.494  0.1560 -1.2445  1.5577
  190SLPC   H7Y22010   1.773   2.850   7.471 -0.4866  0.0558 -1.2404
  190SLPC   C3822011   1.744   2.749   7.655 -0.1566 -0.5852  0.0139
  190SLPC   H8X22012   1.844   2.784   7.687 -0.7546  0.7510  0.4980
  190SLPC   H8Y22013   1.744   2.641   7.682 -1.8952 -0.2634  1.5657
  190SLPC   C3922014   1.637   2.831   7.730  0.2842 -0.1132 -0.1069
  190SLPC   H9X22015   1.540   2.793   7.691 -0.7496  1.5975  0.7019
  190SLPC   H9Y22016   1.649   2.938   7.706 -1.3785  0.4368  1.3369
  190SLPC  C31022017   1.639   2.804   7.879  0.5807 -0.1817 -0.0423
  190SLPC  H10X22018   1.741   2.830   7.915  0.6592  0.4396 -0.6996
  190SLPC  H10Y22019   1.611   2.700   7.909  0.0739 -0.1621 -0.4457
  190SLPC  C31122020   1.517   2.871   7.945  0.0939 -0.0588  0.1417
  190SLPC  H11X22021   1.419   2.838   7.905  0.2772  0.1129 -0.4489
  190SLPC  H11Y22022   1.518   2.978   7.914 -0.5172  0.1578  0.8359
  190SLPC  C31222023   1.521   2.859   8.100  0.5941 -0.1612 -0.0956
  190SLPC  H12X22024   1.535   2.750   8.119 -1.6252 -0.5011 -0.1840
  190SLPC  H12Y22025   1.423   2.890   8.143  0.5195 -1.4456  0.7235
  190SLPC  C31322026   1.633   2.944   8.161 -0.3774 -0.0369  0.1707
  190SLPC  H13X22027   1.574   3.037   8.179 -1.9171 -1.3887  2.5933
  190SLPC  H13Y22028   1.706   2.959   8.079  0.2335  2.6954  1.1098
  190SLPC  C31422029   1.688   2.900   8.302 -0.0364 -0.2153  0.5051
  190SLPC  H14X22030   1.599   2.862   8.357  0.5447 -0.7167  1.1131
  190SLPC  H14Y22031   1.711   2.987   8.366 -0.3712 -0.3382  0.7941
  190SLPC  C31522032   1.808   2.804   8.297  0.1941  0.2493 -0.7734
  190SLPC  H15X22033   1.880   2.848   8.224  0.1485  0.9060 -0.4258
  190SLPC  H15Y22034   1.783   2.709   8.246  1.5274 -0.1471 -0.7380
  190SLPC  C31622035   1.867   2.788   8.438  0.0781  0.4682  0.0552
  190SLPC  H16X22036   1.802   2.771   8.527  1.3412 -0.1926  0.8867
  190SLPC  H16Y22037   1.921   2.884   8.451  0.9411 -0.1486  1.1862
  190SLPC  C31722038   1.957   2.658   8.447  0.5995  0.5281 -0.4649
  190SLPC  H17X22039   2.016   2.648   8.353 -1.4960 -1.2844 -1.6805
  190SLPC  H17Y22040   1.900   2.563   8.445  2.0391 -0.3911  0.2497
  190SLPC  C31822041   2.045   2.649   8.571  0.2865  0.2683 -0.5204
  190SLPC  H18X22042   2.103   2.742   8.588  1.1957 -0.6910  2.1078
  190SLPC  H18Y22043   2.130   2.579   8.559  0.6115  0.6378 -0.3938
  190SLPC  H18Z22044   1.987   2.624   8.662  1.0563  0.3976  0.0185
  191SLPC     N22045   1.393   5.683   5.970 -0.2985  0.2804  0.2735
  191SLPC   C1322046   1.474   5.779   5.888 -0.3593 -0.2435  0.3927
  191SLPC  H13A22047   1.442   5.882   5.902  1.3195  0.1709  1.4523
  191SLPC  H13B22048   1.578   5.767   5.917 -0.9607 -0.0264  2.8595
  191SLPC  H13C22049   1.464   5.752   5.784 -2.6729 -0.1000  0.5190
  191SLPC   C1422050   1.412   5.545   5.910  0.1303  0.0761  0.1600
  191SLPC  H14A22051   1.337   5.474   5.941  1.4750 -0.6182  2.0275
  191SLPC  H14B22052   1.399   5.546   5.803 -0.7582  0.5061  0.2640
  191SLPC  H14C22053   1.504   5.495   5.935  1.2965  0.6252 -2.6675
  191SLPC   C1522054   1.247   5.717   5.943  0.1557 -0.0945  0.7912
  191SLPC  H15A22055   1.222   5.815   5.981  0.1518  0.1559  0.1512
  191SLPC  H15B22056   1.224   5.699   5.839  1.0771 -1.8955  0.8676
  191SLPC  H15C22057   1.174   5.655   5.993 -0.0956 -0.2748  0.2000
  191SLPC   C1222058   1.429   5.688   6.117 -0.0303 -0.3820  0.6816
  191SLPC  H12A22059   1.364   5.628   6.178  0.2668  1.0877  2.5663
  191SLPC  H12B22060   1.422   5.793   6.142 -1.1489 -0.0462 -0.9232
  191SLPC   C1122061   1.567   5.636   6.163  0.1689  0.2227 -0.4409
  191SLPC  H11A22062   1.603   5.539   6.124 -0.5577 -0.4728  0.5896
  191SLPC  H11B22063   1.565   5.632   6.274  1.6091  0.1052 -0.4082
  191SLPC     P22064   1.712   5.870   6.174 -0.1884 -0.3315  0.2466
  191SLPC   O1322065   1.861   5.881   6.174  0.0281 -0.3064  0.8165
  191SLPC   O1422066   1.631   5.969   6.097 -0.0586  0.1271  0.4392
  191SLPC   O1222067   1.675   5.726   6.123  0.2751  0.6818 -0.5318
  191SLPC   O1122068   1.670   5.865   6.326 -0.4202 -0.0983 -0.0352
  191SLPC    C122069   1.556   5.935   6.374  0.1340  0.5593 -0.0944
  191SLPC    HA22070   1.569   6.046   6.369  0.7028  0.4766 -0.5903
  191SLPC    HB22071   1.462   5.905   6.323 -0.4385 -0.0599  1.2785
  191SLPC    C222072   1.518   5.911   6.526 -1.1126  0.6188 -0.0776
  191SLPC    HS22073   1.428   5.970   6.557 -0.9612 -0.2765  2.3010
  191SLPC   O2122074   1.635   5.950   6.607  0.2892  0.0145 -0.2805
  191SLPC   C2122075   1.600   5.953   6.738  0.1350 -0.1902  0.3987
  191SLPC   O2222076   1.493   5.989   6.780  0.9224 -1.2000  0.2246
  191SLPC   C2222077   1.709   5.888   6.837 -0.3153 -0.3106  0.9781
  191SLPC   H2R22078   1.662   5.788   6.848 -0.7861 -0.6181 -2.4813
  191SLPC   H2S22079   1.808   5.882   6.787  0.2553  0.2389  2.0168
  191SLPC    C322080   1.477   5.761   6.534 -0.4193 -0.3731  0.0496
  191SLPC    HX22081   1.564   5.702   6.498 -0.0310 -0.0628  0.4703
  191SLPC    HY22082   1.397   5.738   6.460 -0.7996 -1.4964  0.7770
  191SLPC   O3122083   1.441   5.718   6.666 -0.4361  0.4747 -0.4970
  191SLPC   C3122084   1.315   5.729   6.707  0.5972 -0.0881  0.7606
  191SLPC   O3222085   1.227   5.778   6.635 -0.1625  0.3207 -0.3119
  191SLPC   C3222086   1.299   5.688   6.843 -0.7132  0.4417 -0.9481
  191SLPC   H2X22087   1.353   5.592   6.859  0.5373  1.2181 -0.3595
  191SLPC   H2Y22088   1.190   5.673   6.862 -0.4130 -2.3478 -0.9759
  191SLPC   C2322089   1.711   5.958   6.979  0.4612 -0.6608  0.4835
  191SLPC   H3R22090   1.722   5.887   7.064  2.5337 -3.6911 -2.0660
  191SLPC   H3S22091   1.608   6.000   6.987  0.5855  0.1794 -1.6038
  191SLPC   C2422092   1.815   6.077   6.990  0.2078  1.2765 -0.6350
  191SLPC   H4R22093   1.832   6.108   6.885 -0.1105  0.2740 -0.9991
  191SLPC   H4S22094   1.915   6.049   7.031  0.2309 -0.0806 -1.5349
  191SLPC   C2522095   1.743   6.188   7.059  0.2623  0.8085 -1.1098
  191SLPC   H5R22096   1.638   6.203   7.026 -0.7302 -3.3163 -0.3575
  191SLPC   H5S22097   1.783   6.289   7.036  0.7726  1.2830  1.5431
  191SLPC   C2622098   1.730   6.154   7.207 -0.5211  0.2967  0.2008
  191SLPC   H6R22099   1.831   6.139   7.252 -1.8033  0.8566  3.5147
  191SLPC   H6S22100   1.675   6.058   7.215  0.9226 -0.5314  0.7683
  191SLPC   C2722101   1.659   6.256   7.293  0.2386 -0.6613  0.1381
  191SLPC   H7R22102   1.630   6.214   7.392 -1.3694 -1.2742 -0.5590
  191SLPC   H7S22103   1.563   6.276   7.240 -0.4061  0.3410  1.5941
  191SLPC   C2822104   1.731   6.393   7.299 -0.0594  0.0621 -0.4571
  191SLPC   H8R22105   1.656   6.463   7.342  0.4129  0.8152 -0.8423
  191SLPC   H8S22106   1.735   6.426   7.193 -0.7816 -1.9432 -1.1555
  191SLPC   C2922107   1.864   6.373   7.371 -0.5432  0.3306 -0.2582
  191SLPC   H9R22108   1.948   6.316   7.329  0.7014  1.7223  0.2490
  191SLPC  C21022109   1.899   6.434   7.483  0.3330  0.2991 -0.3593
  191SLPC  H10R22110   1.988   6.401   7.539  0.8909 -1.0152 -1.9517
  191SLPC  C21122111   1.801   6.533   7.543  0.0383 -0.2633  0.0753
  191SLPC  H11R22112   1.700   6.494   7.565 -0.0775 -0.3924 -0.6399
  191SLPC  H11S22113   1.779   6.611   7.466  0.5830  0.2595  0.4362
  191SLPC  C21222114   1.854   6.597   7.667 -0.6118  0.1444  0.6352
  191SLPC  H12R22115   1.880   6.703   7.654  1.1565 -0.3872 -0.6480
  191SLPC  C21322116   1.851   6.539   7.787 -0.4054  0.1487  0.0749
  191SLPC  H13R22117   1.898   6.593   7.871  1.2936 -1.4197  0.2192
  191SLPC  C21422118   1.821   6.392   7.821 -0.2573 -0.2378  0.3492
  191SLPC  H14R22119   1.831   6.327   7.732 -0.7333 -0.5792  0.5370
  191SLPC  H14S22120   1.721   6.378   7.868  1.3209 -2.9191  3.2973
  191SLPC  C21522121   1.919   6.342   7.928 -0.2203 -0.4154  0.3968
  191SLPC  H15R22122   1.878   6.250   7.975  1.0161  0.0584  2.4992
  191SLPC  H15S22123   1.912   6.420   8.007  0.2714 -0.6552  0.6767
  191SLPC  C21622124   2.063   6.319   7.871 -0.2661  0.2639  0.9018
  191SLPC  H16R22125   2.082   6.410   7.810  1.0376  1.2156  2.6452
  191SLPC  H16S22126   2.057   6.229   7.806  1.1404 -0.5920  1.9141
  191SLPC  C21722127   2.173   6.296   7.975 -1.2312 -0.2066 -0.3859
  191SLPC  H17R22128   2.142   6.200   8.021 -0.9099  0.4892  1.3588
  191SLPC  H17S22129   2.173   6.383   8.044  1.1010 -0.4012 -0.0892
  191SLPC  C21822130   2.308   6.289   7.919 -0.3213 -0.3277  0.4715
  191SLPC  H18R22131   2.297   6.228   7.827  1.8675 -1.3958  0.8457
  191SLPC  H18S22132   2.368   6.234   7.995  2.3292  2.2612  0.4142
  191SLPC  H18T22133   2.357   6.384   7.890 -0.6488  0.2946  1.8491
  191SLPC   C3322134   1.358   5.778   6.956 -0.0119 -0.0625  0.0909
  191SLPC   H3X22135   1.316   5.880   6.966  1.3759  0.4595  0.9482
  191SLPC   H3Y22136   1.469   5.777   6.950 -0.0108  0.0865  0.0813
  191SLPC   C3422137   1.332   5.712   7.091  1.0293  0.7807 -0.3621
  191SLPC   H4X22138   1.365   5.607   7.079 -0.8236  0.0212  0.7810
  191SLPC   H4Y22139   1.224   5.715   7.116  0.7421  0.3485 -1.4800
  191SLPC   C3522140   1.420   5.777   7.213  0.1642  0.2378  0.5392
  191SLPC   H5X22141   1.400   5.886   7.213 -1.7082 -0.0722 -0.3839
  191SLPC   H5Y22142   1.525   5.770   7.175  0.1947  2.7158 -0.0037
  191SLPC   C3622143   1.380   5.719   7.348 -0.4032  0.5607  0.9007
  191SLPC   H6X22144   1.367   5.608   7.353  1.3750  0.3654  2.5507
  191SLPC   H6Y22145   1.281   5.764   7.370 -0.0224  1.3139  1.0964
  191SLPC   C3722146   1.468   5.763   7.463  0.0331 -0.3862  0.6465
  191SLPC   H7X22147   1.465   5.874   7.470  0.5391 -0.4403  1.9976
  191SLPC   H7Y22148   1.576   5.738   7.454  0.0660  0.1325 -0.5745
  191SLPC   C3822149   1.416   5.713   7.599 -0.4351 -0.2342  0.0349
  191SLPC   H8X22150   1.405   5.603   7.600  0.4688 -0.3320  0.3638
  191SLPC   H8Y22151   1.319   5.761   7.623  2.3180  5.0248  2.3535
  191SLPC   C3922152   1.514   5.753   7.714  0.1040 -0.1987 -0.4271
  191SLPC   H9X22153   1.514   5.864   7.718 -0.5657 -0.2061 -0.2343
  191SLPC   H9Y22154   1.618   5.734   7.679  1.2765  2.1381  1.5060
  191SLPC  C31022155   1.497   5.679   7.851 -0.0510 -0.3516 -0.1886
  191SLPC  H10X22156   1.513   5.571   7.831 -0.3579  0.0927 -3.5170
  191SLPC  H10Y22157   1.390   5.685   7.879 -0.1465  0.2121 -0.6489
  191SLPC  C31122158   1.585   5.735   7.967 -0.1530 -0.6416  0.6948
  191SLPC  H11X22159   1.591   5.845   7.954 -0.7211 -0.6954 -0.0826
  191SLPC  H11Y22160   1.688   5.699   7.949  0.0699  0.7182 -1.0681
  191SLPC  C31222161   1.533   5.722   8.104  0.3219  0.2641 -0.1965
  191SLPC  H12X22162   1.527   5.613   8.125  2.5332  0.7135  3.7707
  191SLPC  H12Y22163   1.437   5.774   8.128  0.2406  0.4235 -0.8568
  191SLPC  C31322164   1.630   5.769   8.220 -0.1714 -0.1641 -0.4847
  191SLPC  H13X22165   1.681   5.862   8.187 -2.2927  1.8008  1.4104
  191SLPC  H13Y22166   1.705   5.688   8.224 -0.2329 -0.1601  1.7793
  191SLPC  C31422167   1.577   5.782   8.362 -0.0343 -0.6051 -0.3608
  191SLPC  H14X22168   1.517   5.693   8.388 -0.9231  0.5470  1.7980
  191SLPC  H14Y22169   1.504   5.865   8.372  1.9913  1.1837  0.4126
  191SLPC  C31522170   1.695   5.804   8.466  0.4100 -0.1346  0.5024
  191SLPC  H15X22171   1.741   5.905   8.456 -0.7852  0.5294  1.5495
  191SLPC  H15Y22172   1.781   5.735   8.445 -0.5329 -0.8499 -1.2321
  191SLPC  C31622173   1.649   5.812   8.606  0.0458  0.6605 -0.3727
  191SLPC  H16X22174   1.621   5.715   8.652  1.8038  0.7548  1.0211
  191SLPC  H16Y22175   1.554   5.869   8.614  0.4692  1.4573 -0.9383
  191SLPC  C31722176   1.733   5.895   8.698 -0.4240  0.1324 -0.6159
  191SLPC  H17X22177   1.749   6.000   8.665  0.2367  0.7713  1.5754
  191SLPC  H17Y22178   1.838   5.859   8.703 -0.4371  0.2525  1.2290
  191SLPC  C31822179   1.690   5.899   8.843  0.1693  0.6449  0.0459
  191SLPC  H18X22180   1.591   5.948   8.848 -1.7200 -2.9223  1.1208
  191SLPC  H18Y22181   1.767   5.957   8.899  1.7206  1.0077 -2.3147
  191SLPC  H18Z22182   1.676   5.798   8.887  0.0554  0.7557  0.2657
  192SLPC     N22183   3.684   6.334   6.258 -0.1107 -0.2408 -0.3210
  192SLPC   C1322184   3.781   6.321   6.150 -0.7033  0.2878  0.1044
  192SLPC  H13A22185   3.851   6.239   6.155  1.2589  1.9346  0.8931
  192SLPC  H13B22186   3.728   6.300   6.058  1.9438 -1.9326 -1.0411
  192SLPC  H13C22187   3.836   6.413   6.145 -2.9484  1.6910 -0.2202
  192SLPC   C1422188   3.653   6.190   6.300 -0.1982  0.0110 -0.2755
  192SLPC  H14A22189   3.750   6.155   6.331  0.8835  2.6678 -0.4369
  192SLPC  H14B22190   3.583   6.177   6.381 -0.8444 -0.5533 -0.9109
  192SLPC  H14C22191   3.607   6.138   6.217  1.1875  0.3323 -1.2991
  192SLPC   C1522192   3.561   6.404   6.206 -0.0960 -0.3709 -0.4337
  192SLPC  H15A22193   3.510   6.344   6.133 -0.0833 -0.3133 -0.4897
  192SLPC  H15B22194   3.496   6.430   6.288  0.7539 -1.0530  0.4865
  192SLPC  H15C22195   3.581   6.505   6.173 -4.0291  0.9945  0.7254
  192SLPC   C1222196   3.740   6.418   6.376  0.1541  0.6818 -0.3193
  192SLPC  H12A22197   3.787   6.508   6.342  0.2807  2.1624  3.3510
  192SLPC  H12B22198   3.810   6.357   6.431 -1.6550 -2.1390 -0.8903
  192SLPC   C1122199   3.643   6.462   6.492 -0.1821  0.1612 -0.1726
  192SLPC  H11A22200   3.708   6.493   6.577  0.9598  0.9777 -1.3157
  192SLPC  H11B22201   3.586   6.369   6.510  0.7273 -0.8317 -2.1943
  192SLPC     P22202   3.411   6.579   6.533 -0.0090 -0.2764  0.0590
  192SLPC   O1322203   3.354   6.713   6.494  0.1073  0.2350  0.5059
  192SLPC   O1422204   3.335   6.457   6.533 -0.5082 -0.0255  0.2416
  192SLPC   O1222205   3.549   6.565   6.451 -0.1257  0.9975  0.0340
  192SLPC   O1122206   3.460   6.600   6.682 -0.3523 -0.7152 -0.2897
  192SLPC    C122207   3.545   6.709   6.727 -0.2734  0.3590  0.2122
  192SLPC    HA22208   3.597   6.671   6.818 -1.3522 -0.5485  0.4717
  192SLPC    HB22209   3.624   6.738   6.654 -2.7505  0.0340 -2.8168
  192SLPC    C222210   3.469   6.837   6.770 -0.1911 -0.0250  0.1221
  192SLPC    HS22211   3.448   6.899   6.680  2.0938  1.4252  0.5067
  192SLPC   O2122212   3.553   6.902   6.860 -0.3846  0.3404  0.0066
  192SLPC   C2122213   3.532   7.028   6.885  0.0535  0.0373  1.2464
  192SLPC   O2222214   3.443   7.094   6.832  0.3796 -0.6241 -0.5820
  192SLPC   C2222215   3.653   7.083   6.971  0.5418 -0.0782  0.1394
  192SLPC   H2R22216   3.730   7.003   6.973  1.0443  0.3986  0.0320
  192SLPC   H2S22217   3.703   7.164   6.914 -0.9428  0.0038 -1.1149
  192SLPC    C322218   3.329   6.782   6.826  0.0371 -0.3272 -0.0741
  192SLPC    HX22219   3.365   6.697   6.887  1.9487  0.1366 -0.5074
  192SLPC    HY22220   3.263   6.737   6.749  0.7124 -0.9950 -0.2709
  192SLPC   O3122221   3.254   6.881   6.907  0.0499 -0.1385  0.1932
  192SLPC   C3122222   3.187   6.849   7.016 -0.0451  0.2310  0.2668
  192SLPC   O3222223   3.181   6.737   7.060 -0.0819  0.1254 -0.2336
  192SLPC   C3222224   3.112   6.964   7.071  0.0440  0.3088  0.2029
  192SLPC   H2X22225   3.004   6.937   7.072 -0.9084  3.1636 -3.1659
  192SLPC   H2Y22226   3.122   7.058   7.012 -2.8886 -0.2378 -1.4064
  192SLPC   C2322227   3.599   7.111   7.111  0.1657  0.3491 -0.7130
  192SLPC   H3R22228   3.509   7.177   7.117 -0.4780 -0.6128  1.0735
  192SLPC   H3S22229   3.678   7.173   7.159 -0.6280  0.1853  0.8707
  192SLPC   C2422230   3.581   6.984   7.192 -0.4651  0.0675 -0.3461
  192SLPC   H4R22231   3.680   6.934   7.200 -0.7521 -0.3532  0.8206
  192SLPC   H4S22232   3.504   6.914   7.154 -2.3131  0.5450  2.2317
  192SLPC   C2522233   3.531   7.022   7.334 -0.8178 -0.1619  0.2569
  192SLPC   H5R22234   3.424   7.048   7.318 -0.6968 -0.2447 -0.7648
  192SLPC   H5S22235   3.584   7.113   7.371  0.5888 -0.8270 -0.0553
  192SLPC   C2622236   3.550   6.908   7.431  0.0022 -0.1978  0.0285
  192SLPC   H6R22237   3.654   6.869   7.422  0.1447  0.1263  0.2223
  192SLPC   H6S22238   3.478   6.825   7.420 -1.0035  0.7183 -0.5425
  192SLPC   C2722239   3.514   6.955   7.574 -0.3500  0.6223 -0.0219
  192SLPC   H7R22240   3.490   6.872   7.644 -0.0427  0.0458 -0.5804
  192SLPC   H7S22241   3.416   7.006   7.560 -1.4582 -0.9558  1.5845
  192SLPC   C2822242   3.626   7.034   7.643  0.2336  0.2458 -0.2804
  192SLPC   H8R22243   3.674   7.101   7.568  2.7928 -1.0358  0.0767
  192SLPC   H8S22244   3.714   6.976   7.676 -0.0025  0.9257  1.6611
  192SLPC   C2922245   3.578   7.126   7.752 -0.2030  0.4686  0.2051
  192SLPC   H9R22246   3.515   7.214   7.732 -1.5019 -0.0146  1.9378
  192SLPC  C21022247   3.580   7.093   7.880 -0.0487  0.6615 -0.5983
  192SLPC  H10R22248   3.540   7.170   7.948 -0.2234  0.8397 -0.9016
  192SLPC  C21122249   3.653   6.972   7.943 -0.2212  0.2733  0.5106
  192SLPC  H11R22250   3.759   6.966   7.911 -0.9484 -0.2165 -1.9677
  192SLPC  H11S22251   3.614   6.888   7.883  0.4419 -0.4314  1.0574
  192SLPC  C21222252   3.622   6.943   8.091 -0.0446 -0.2359  0.9062
  192SLPC  H12R22253   3.528   6.984   8.129 -0.4584  0.1162 -0.4713
  192SLPC  C21322254   3.690   6.861   8.172 -0.2193 -0.0205  0.1078
  192SLPC  H13R22255   3.663   6.850   8.278 -1.0361 -0.4290 -0.1360
  192SLPC  C21422256   3.815   6.789   8.123  0.6051 -0.1020 -0.5875
  192SLPC  H14R22257   3.842   6.823   8.021  1.1680  3.3611  0.6093
  192SLPC  H14S22258   3.785   6.682   8.127  0.9595 -0.1739  1.0805
  192SLPC  C21522259   3.930   6.811   8.225 -0.4365 -0.7783 -0.4131
  192SLPC  H15R22260   3.890   6.830   8.327 -0.7309 -2.0404 -0.2771
  192SLPC  H15S22261   3.978   6.907   8.197  0.2968 -0.2995  2.2132
  192SLPC  C21622262   4.041   6.705   8.241  0.1539 -0.3210 -0.1479
  192SLPC  H16R22263   4.118   6.745   8.310 -0.8077 -2.0487  2.0526
  192SLPC  H16S22264   4.095   6.700   8.144  0.4600 -0.1776  0.0141
  192SLPC  C21722265   4.001   6.569   8.298  0.1530  0.1019  0.3515
  192SLPC  H17R22266   3.935   6.573   8.387  0.9126 -0.6022  0.9628
  192SLPC  H17S22267   3.946   6.513   8.220 -2.6821  1.2024  1.4034
  192SLPC  C21822268   4.133   6.485   8.329 -0.3151  0.1397  0.3052
  192SLPC  H18R22269   4.123   6.375   8.316  2.5436 -0.0108 -1.7903
  192SLPC  H18S22270   4.177   6.511   8.428 -0.6247 -0.1712  0.5238
  192SLPC  H18T22271   4.210   6.503   8.251 -0.0773  0.3456  0.5844
  192SLPC   C3322272   3.158   7.004   7.210 -0.5569  0.4484 -0.4690
  192SLPC   H3X22273   3.267   7.023   7.205 -0.5718  1.1354  1.2007
  192SLPC   H3Y22274   3.148   6.923   7.285  0.9082  1.9205  1.4027
  192SLPC   C3422275   3.083   7.123   7.269 -0.1391 -0.6115  0.5802
  192SLPC   H4X22276   2.973   7.105   7.264 -0.7919  2.7974  0.0715
  192SLPC   H4Y22277   3.095   7.214   7.207  0.8417 -1.5047 -0.5829
  192SLPC   C3522278   3.132   7.152   7.418 -0.3248 -0.2294  0.6149
  192SLPC   H5X22279   3.094   7.252   7.447  0.0027  0.7401 -2.0656
  192SLPC   H5Y22280   3.242   7.168   7.426 -0.3323 -0.0936  0.4403
  192SLPC   C3622281   3.112   7.039   7.518  0.1702  0.2439  0.2231
  192SLPC   H6X22282   3.193   6.963   7.512 -0.4298 -0.5106  1.3137
  192SLPC   H6Y22283   3.016   6.985   7.506  1.6222 -2.4721  0.0171
  192SLPC   C3722284   3.116   7.082   7.668  0.0173  0.0738 -0.8341
  192SLPC   H7X22285   3.044   7.164   7.690 -1.2115 -1.0526 -0.5395
  192SLPC   H7Y22286   3.216   7.127   7.688 -0.1092  0.5844 -1.3118
  192SLPC   C3822287   3.086   6.973   7.774 -0.4057  0.1481  0.4801
  192SLPC   H8X22288   3.150   6.885   7.755  0.1950  0.5641  0.5669
  192SLPC   H8Y22289   2.980   6.941   7.765  0.0424 -1.7201  1.3848
  192SLPC   C3922290   3.147   7.013   7.910 -0.0352 -0.2235  0.3598
  192SLPC   H9X22291   3.074   7.086   7.950 -0.3048 -1.1074  1.5339
  192SLPC   H9Y22292   3.239   7.070   7.888 -2.0286  2.6029 -1.4368
  192SLPC  C31022293   3.176   6.902   8.017 -0.6215 -0.0484 -0.2276
  192SLPC  H10X22294   3.078   6.862   8.051 -0.0571 -0.5833  0.8055
  192SLPC  H10Y22295   3.219   6.945   8.110 -0.8086 -1.9944  0.8066
  192SLPC  C31122296   3.279   6.792   7.971  0.3681  0.3447 -0.1816
  192SLPC  H11X22297   3.350   6.854   7.913  0.5557  1.1586  0.8790
  192SLPC  H11Y22298   3.228   6.730   7.894 -0.1470  0.0688  0.3732
  192SLPC  C31222299   3.338   6.712   8.094  0.4645  0.0726 -0.7888
  192SLPC  H12X22300   3.264   6.696   8.176  1.0633  0.5677 -0.1407
  192SLPC  H12Y22301   3.414   6.776   8.144 -0.8063  1.3835 -0.4644
  192SLPC  C31322302   3.401   6.578   8.063  0.2678 -0.8535  0.0471
  192SLPC  H13X22303   3.481   6.590   7.987  1.6599  1.0251  1.6871
  192SLPC  H13Y22304   3.329   6.499   8.032 -0.9663  0.3882 -0.3241
  192SLPC  C31422305   3.467   6.522   8.189  0.9799 -0.4479  0.3659
  192SLPC  H14X22306   3.395   6.526   8.274  1.2522 -1.6999  0.6723
  192SLPC  H14Y22307   3.550   6.585   8.225  1.0868  0.8387 -1.9560
  192SLPC  C31522308   3.498   6.372   8.175  0.0837  0.0732 -1.3108
  192SLPC  H15X22309   3.590   6.357   8.116  1.2264 -0.9312  0.6320
  192SLPC  H15Y22310   3.415   6.326   8.117  1.0430 -2.5326 -0.7507
  192SLPC  C31622311   3.515   6.314   8.318  0.1046 -0.2542  0.1077
  192SLPC  H16X22312   3.483   6.208   8.315 -1.7106  0.2711  0.0338
  192SLPC  H16Y22313   3.438   6.357   8.385  0.8231  1.2164  0.0336
  192SLPC  C31722314   3.650   6.339   8.384 -0.7964 -0.2931  0.0105
  192SLPC  H17X22315   3.655   6.447   8.409 -0.9270 -0.0726 -0.8937
  192SLPC  H17Y22316   3.735   6.317   8.315  0.4131 -2.4827  2.0414
  192SLPC  C31822317   3.674   6.254   8.515  0.7723 -0.1592 -0.2451
  192SLPC  H18X22318   3.780   6.262   8.549  0.4047 -1.1841  1.2627
  192SLPC  H18Y22319   3.658   6.145   8.496 -0.4823  0.3337 -2.3950
  192SLPC  H18Z22320   3.602   6.284   8.594 -0.1173 -0.6428 -0.8575
  193SOD    SOD22321   5.389   3.035   2.106  0.5018  0.0402 -0.1270
  194SOD    SOD22322   5.942   5.295  16.189 -0.3625  0.0444 -0.1557
  195SOD    SOD22323   4.371   3.601  13.300  0.7565 -0.1206  0.3773
  196SOD    SOD22324   4.619   2.960   3.540  0.3576 -0.4141  0.1390
  197SOD    SOD22325   1.565   6.043   5.238 -0.2645 -0.4813  0.3901
  198SOD    SOD22326   3.974   2.788   5.051  0.0708  0.0327  0.5114
  199SOD    SOD22327   3.788   0.782   3.990  0.6768 -0.1878  0.3145
  200SOD    SOD22328   1.263   3.029  14.753 -0.1227 -0.1156 -0.2917
  201SOD    SOD22329   5.083   0.396   1.641 -0.1395  0.1715 -0.3515
  202SOD    SOD22330   6.519   4.146  12.650  0.1619  0.0459 -0.0410
  203SOD    SOD22331   5.755   2.201  12.176 -0.2284 -0.0165 -0.3279
  204SOD    SOD22332   2.950   6.218   1.617 -0.4069 -0.0993 -0.3018
  205SOD    SOD22333   4.352   0.227   5.452 -0.0860  0.4046 -0.0920
  206SOD    SOD22334   1.979   0.647  12.831 -0.0400  0.2897  0.5302
  207SOD    SOD22335   3.535   2.927  11.825 -0.0474  0.0796  0.2388
  208SOD    SOD22336   1.408   0.140   2.292  0.0377 -0.1805 -0.1527
  209SOD    SOD22337   3.966   0.693  15.444  0.0105 -0.0755 -0.1054
  210SOD    SOD22338   2.364   3.639  17.351 -0.7993 -0.2129  0.0219
  211SOD    SOD22339   6.691   5.961   4.563  0.1705 -0.4770  0.2119
  212SOD    SOD22340   3.537   1.758  12.333  0.3393  0.6944  0.4267
  213SOD    SOD22341   5.043   3.670   4.240 -0.1259  0.1034  0.3134
  214SOD    SOD22342   0.248   6.104   2.763 -0.6444  0.6361 -0.1523
  215SOD    SOD22343   6.258   6.752  16.097  0.0987  0.5761 -0.1747
  216SOD    SOD22344   5.880   2.675  13.284  0.5204 -0.1388  0.1609
  217SOD    SOD22345   5.833   6.423   4.826  0.0092 -0.4513 -0.0427
  218SOD    SOD22346   0.270   5.462  11.408  0.5092  0.6817 -0.2211
  219SOD    SOD22347   5.370   1.356  12.318  0.3936 -0.1139  0.4311
  220SOD    SOD22348   1.470   4.235  11.715 -0.3856 -0.4501  0.5280
  221SOD    SOD22349   0.836   1.548   3.005  0.0174 -0.1384  0.0502
  222SOD    SOD22350   4.158   6.347   0.141 -0.0807  0.3246 -0.4179
  223SOD    SOD22351   2.821   1.981  11.345  0.2844 -0.3775 -1.0019
  224SOD    SOD22352   4.525   6.012   6.633 -0.3124  0.0896 -0.0606
  225SOD    SOD22353   1.214   4.873  10.613  0.6510  0.0267  0.0679
  226SOD    SOD22354   2.076   2.533   0.455  0.3483 -0.3129 -0.6275
  227SOD    SOD22355   4.496   4.955  14.238  0.4846 -0.1309 -0.3557
  228SOD    SOD22356   1.706   5.790  12.980 -0.9608  0.0931  0.4451
  229SOD    SOD22357   5.794   1.382   3.983 -0.0883  0.4877  0.0564
  230SOD    SOD22358   1.209   1.641   6.219  0.0295 -0.0061  0.4284
  231SOD    SOD22359   1.445   6.530  15.771 -0.0235  0.2328  0.3333
  232SOD    SOD22360   1.618   6.000  10.654  0.6203 -0.4093 -0.1460
  233SOD    SOD22361   5.298   3.075  16.804 -0.0902  0.5245 -0.0494
  234SOD    SOD22362   2.005   1.962   5.528  0.3507 -0.2973 -0.2142
  235SOD    SOD22363   6.751   2.932  11.721 -0.0823 -0.1006 -0.0380
  236SOD    SOD22364   1.311   2.163   3.829 -0.1572  0.1448  0.1292
  237SOD    SOD22365   0.635   5.436   5.808 -0.3934 -0.0988 -0.3322
  238SOD    SOD22366   0.856   4.078  11.679 -0.0771  0.1324 -0.1689
  239SOD    SOD22367   1.168   2.528   5.014 -0.0235 -0.1159 -0.3343
  240SOD    SOD22368   0.897   5.851   0.377 -0.0480  0.0864 -0.0909
  241SOD    SOD22369   2.866   5.359   2.349  0.5175  0.2743  0.0798
  242SOD    SOD22370   4.520   1.746   6.835 -0.5368 -0.1932  0.2488
  243SOD    SOD22371   1.380   4.436   5.898  0.0394 -0.1587  0.3440
  244SOD    SOD22372   6.388   4.656   5.031  0.2252  0.2065 -0.1851
  245SOD    SOD22373   0.766   1.909  15.878 -0.4476 -0.2684 -0.0398
  246SOD    SOD22374   5.416   3.721  10.749  0.0404  0.2289 -0.4181
  247SOD    SOD22375   6.424   1.251  12.849  0.0318 -0.6480  0.0517
  248SOD    SOD22376   0.837   3.745  16.924  0.4207 -0.4064 -0.0926
  249SOD    SOD22377   0.537   5.508  12.621 -0.0414 -0.1908  0.5902
  250SOD    SOD22378   2.098   2.393  15.320  0.3733 -0.9004  0.0496
  251SOD    SOD22379   5.189   4.170   1.453 -0.0308  0.0770 -0.1245
  252SOD    SOD22380   5.323   1.461  11.448 -0.1744  0.2730 -0.1149
  253SOD    SOD22381   2.371   0.794   0.024 -0.1336  0.2516 -0.7135
  254SOD    SOD22382   0.964   1.488   5.390 -1.0347  0.2509 -0.4178
  255SOD    SOD22383   0.524   4.645  14.716 -0.2047 -0.5850 -0.0074
  256SOD    SOD22384   5.730   4.591   5.559 -0.3264  0.4038  0.3483
  257SOD    SOD22385   0.353   4.145  16.521 -0.0768 -0.7952 -0.5697
  258SOD    SOD22386   5.379   6.241  12.454  0.2835 -0.2914 -0.0109
  259SOD    SOD22387   6.704   1.110  11.082  0.0238  0.0977 -0.0998
  260SOD    SOD22388   2.134   5.912   6.482  0.1861 -0.1283 -0.5271
  261SOD    SOD22389   6.634   1.402   3.535 -0.2484 -0.1074  0.4362
  262SOD    SOD22390   4.881   5.079   4.349 -0.1123 -0.2132 -0.7107
  263SOD    SOD22391   6.466   0.413  15.094  0.0710 -0.0925  0.0110
  264SOD    SOD22392   6.116   0.120  11.243 -0.2641 -0.0208  0.3778
  265SOD    SOD22393   6.651   3.558  11.394  0.4251  0.0593 -0.0473
  266CLA    CLA22394   5.803   3.830   1.629 -0.1122 -0.0115 -0.0003
  267CLA    CLA22395   4.406   2.204  11.970  0.0635 -0.0970 -0.0883
  268CLA    CLA22396   3.587   3.015  12.287  0.3826  0.1156 -0.1173
  269CLA    CLA22397   1.699   4.433   4.897  0.4889  0.3648 -0.6549
  270CLA    CLA22398   6.311   3.259  11.646  0.3648  0.2879 -0.3849
  271CLA    CLA22399   0.706   1.142  16.118 -0.2826 -0.1709  0.0082
  272CLA    CLA22400   3.490   2.138   4.170  0.0888 -0.3282 -0.0623
  273CLA    CLA22401   1.425   3.176  13.255 -0.1310 -0.4136 -0.3262
  274CLA    CLA22402   2.968   0.348  14.736  0.0919 -0.0371 -0.0552
  275CLA    CLA22403   5.090   0.470  17.037 -0.1826 -0.0444 -0.0138
  276CLA    CLA22404   2.937   3.137  11.471 -0.5490 -0.0026  0.1518
  277CLA    CLA22405   1.934   0.805   1.227  0.0801 -0.3431  0.1153
  278CLA    CLA22406   4.472   6.075   4.489 -0.0380  0.4710  0.1770
  279CLA    CLA22407   0.042   0.017  12.869  0.1198 -0.5546 -0.0580
  280CLA    CLA22408   5.069   0.242  12.192 -0.4996  0.0099 -0.0932
  281CLA    CLA22409   1.738   0.387  16.991  0.7547  0.2033  0.0772
  282CLA    CLA22410   3.956   1.541   3.508 -0.2175  0.2351  0.1393
  283CLA    CLA22411   3.993   0.993   2.312 -0.1914  0.2831 -0.1173
  284CLA    CLA22412   1.909   0.865  13.376 -0.0188 -0.3901 -0.3062
  285CLA    CLA22413   0.814   6.124  17.154  0.0180 -0.3305 -0.2933
  286CLA    CLA22414   1.765   3.039   3.197 -0.3411 -0.1801  0.4897
  287CLA    CLA22415   2.339   5.811   1.949 -0.1194 -0.4526 -0.6953
  288CLA    CLA22416   3.783   4.671   2.734  0.0566  0.0114 -0.2951
  289CLA    CLA22417   0.468   6.737   4.940 -0.6151  0.1668  0.1135
  290CLA    CLA22418   1.925   5.399  12.653 -0.0297  0.2390 -0.3468
  291CLA    CLA22419   0.819   4.061  15.580  0.0870 -0.1508  0.1593
  292CLA    CLA22420   0.089   1.725   2.041  0.0111  0.0436  0.1116
  293CLA    CLA22421   0.459   6.029   5.229 -0.1827  0.5567 -0.2554
  294CLA    CLA22422   6.023   0.210   4.531 -0.4822 -0.1526 -0.0569
  295CLA    CLA22423   0.982   2.589   2.920  0.0768  0.2378 -0.0564
  296CLA    CLA22424   4.284   4.313   1.048  0.3361  0.0628  0.0833
  297CLA    CLA22425   3.390   6.000   1.614  0.1857  0.1834 -0.1740
  298CLA    CLA22426   4.459   2.225  12.423  0.0189  0.2094  0.4193
  299CLA    CLA22427   1.709   1.266  14.776  0.1482  0.1307 -0.2153
  300CLA    CLA22428   0.587   3.782  13.259  0.0455 -0.0873  0.1454
  301CLA    CLA22429   0.902   5.114  11.896  0.5032 -0.0296 -0.2376
  302CLA    CLA22430   2.192   4.578   0.893 -0.0034 -0.7657 -0.0412
  303CLA    CLA22431   3.759   1.292  12.173  0.6702 -0.0729  0.3080
  304CLA    CLA22432   5.195   6.310  15.039 -0.1506  0.2693  0.4099
  305CLA    CLA22433   1.701   4.534  14.734 -0.3670  0.1220  0.2087
  306CLA    CLA22434   6.555   1.393  15.367  0.1315 -0.1002  0.2197
  307CLA    CLA22435   4.894   2.198   1.622 -0.0451 -0.2321 -0.0337
  308CLA    CLA22436   5.453   4.179  15.917  0.1551  0.1395  0.4289
  309CLA    CLA22437   2.731   4.041   0.309 -0.0106  0.0492 -0.0655
  310CLA    CLA22438   4.393   5.062  15.559  0.1508  0.1817  0.0438
  311CLA    CLA22439   4.124   3.906  16.699 -0.0456 -0.0775  0.0170
  312CLA    CLA22440   6.216   4.782   3.792 -0.0531  0.0043  0.2174
  313CLA    CLA22441   5.770   5.843   3.606  0.0106  0.0889  0.0368
  314CLA    CLA22442   5.665   2.371   2.991 -0.2852 -0.5019  0.0201
  315CLA    CLA22443   3.301   5.282  14.827 -0.3136  0.1738 -0.1642
  316CLA    CLA22444   0.147   3.055  16.628  0.2521 -0.0396 -0.2395
  317CLA    CLA22445   0.858   4.899  13.061  0.1556  0.0451 -0.1183
  318CLA    CLA22446   0.605   1.871   3.957  0.3324  0.0633  0.0402
  319TIP3   OH222447   5.995   5.741   0.757  0.3587  0.4730  0.3044
  319TIP3    H122448   5.926   5.695   0.805 -0.4964  1.7071  0.3156
  319TIP3    H222449   6.017   5.816   0.812 -0.7064  1.9754 -1.2078
  320TIP3   OH222450   2.833   0.376   3.313  0.1331 -0.6514  0.1723
  320TIP3    H122451   2.746   0.403   3.341 -0.5534 -1.4983 -1.0606
  320TIP3    H222452   2.848   0.292   3.356  0.0026 -0.8819 -0.2237
  321TIP3   OH222453   0.290   4.790  12.727 -0.3199  0.6839  0.3647
  321TIP3    H122454   0.297   4.795  12.631 -0.4675  0.8532  0.3630
  321TIP3    H222455   0.324   4.874  12.758  1.3557 -0.0190  0.5461
  322TIP3   OH222456   3.680   5.806   2.391  0.2856 -0.0513  0.5613
  322TIP3    H122457   3.613   5.744   2.420  0.2460 -0.2405  0.0655
  322TIP3    H222458   3.635   5.891   2.390  0.0515 -0.1766  0.2330
  323TIP3   OH222459   2.655   2.406  15.995  0.2173  0.1437 -0.4180
  323TIP3    H122460   2.597   2.354  16.050  0.6661  1.3035  1.2099
  323TIP3    H222461   2.655   2.493  16.035  2.5605  0.3590 -0.7350
  324TIP3   OH222462   5.151   4.989  10.772 -0.5463  0.1293  0.3255
  324TIP3    H122463   5.070   4.980  10.722  0.2025 -0.9182 -0.7792
  324TIP3    H222464   5.184   5.076  10.749  0.2277 -0.6440 -1.8166
  325TIP3   OH222465   3.220   0.995   4.041 -0.1825 -0.3675  0.3603
  325TIP3    H122466   3.175   1.077   4.063 -0.0659  0.0342 -0.8446
  325TIP3    H222467   3.284   0.984   4.111 -0.8402  0.0657  1.0575
  326TIP3   OH222468   3.790   0.958  12.018 -0.7460 -0.2913  0.3351
  326TIP3    H122469   3.785   1.028  12.083 -1.7823  1.0375 -1.0948
  326TIP3    H222470   3.881   0.927  12.023 -1.2953 -1.7768  3.8693
  327TIP3   OH222471   4.031   1.180   5.691 -0.2240  0.0455  0.1275
  327TIP3    H122472   4.053   1.204   5.781 -2.2848  0.1526  0.6433
  327TIP3    H222473   3.996   1.091   5.698  0.0962 -0.1464 -0.6558
  328TIP3   OH222474   6.603   0.503   2.742 -0.3393  0.2810 -0.4992
  328TIP3    H122475   6.674   0.481   2.682 -0.2772 -2.2284  0.3815
  328TIP3    H222476   6.525   0.508   2.687 -0.1456 -1.1506 -0.9290
  329TIP3   OH222477   2.628   3.902  13.140  0.0334 -0.1730 -0.1533
  329TIP3    H122478   2.570   3.862  13.204  0.1639 -0.5809 -0.2911
  329TIP3    H222479   2.639   3.992  13.171  1.6440 -0.8689  1.5076
  330TIP3   OH222480   6.064   2.253   3.825 -0.1180  0.0136  0.0426
  330TIP3    H122481   6.011   2.173   3.835  1.2546 -0.9246  0.1185
  330TIP3    H222482   6.053   2.278   3.734 -0.9384  0.0241  0.1355
  331TIP3   OH222483   2.964   4.939   0.932 -0.4870  0.8914 -0.3148
  331TIP3    H122484   3.052   4.912   0.959 -0.5314  1.4264  0.4023
  331TIP3    H222485   2.965   4.930   0.837  0.5814  1.5365 -0.3915
  332TIP3   OH222486   0.401   0.529  14.419 -0.0140  0.1981 -0.0336
  332TIP3    H122487   0.361   0.615  14.407 -0.7473 -0.2448 -0.9215
  332TIP3    H222488   0.439   0.509  14.333  0.6077 -0.1355  0.3191
  333TIP3   OH222489   0.952   2.724   6.614 -0.1071  0.4544 -0.2840
  333TIP3    H122490   1.033   2.675   6.630  0.1951 -0.0868 -3.0348
  333TIP3    H222491   0.883   2.666   6.645  0.4752  0.4867  1.1519
  334TIP3   OH222492   2.424   0.549   1.897 -0.3162 -0.1736 -0.0680
  334TIP3    H122493   2.425   0.533   1.991 -1.9816 -0.3904 -0.0563
  334TIP3    H222494   2.501   0.604   1.881  1.0296 -1.6524  1.1082
  335TIP3   OH222495   3.913   6.480   0.574  0.6082 -0.0277  0.3809
  335TIP3    H122496   3.935   6.537   0.500  2.2232  0.3342  1.0999
  335TIP3    H222497   3.917   6.391   0.539 -0.9677  0.2200 -0.5138
  336TIP3   OH222498   3.648   5.485  11.775 -0.0979  0.3054 -0.4943
  336TIP3    H122499   3.711   5.432  11.726 -0.6984 -0.9978  0.0934
  336TIP3    H222500   3.637   5.438  11.858  2.0228  3.1871  1.6396
  337TIP3   OH222501   0.369   0.014   1.945 -0.3704  0.3373  0.5441
  337TIP3    H122502   0.417  -0.011   1.866  0.2690 -1.8647  1.5538
  337TIP3    H222503   0.342   0.105   1.928 -0.5523 -0.1386 -2.3122
  338TIP3   OH222504   1.978   0.658  12.167  0.3299  0.5851 -0.5079
  338TIP3    H122505   2.032   0.631  12.093 -1.2080 -1.8644 -0.8590
  338TIP3    H222506   2.039   0.662  12.241  1.2055 -1.1895 -1.0676
  339TIP3   OH222507   2.430   0.550   0.870 -0.5383  0.0629 -0.4214
  339TIP3    H122508   2.430   0.454   0.872 -1.8155  0.0691  0.7451
  339TIP3    H222509   2.347   0.576   0.910  0.1859  1.6810  0.1328
  340TIP3   OH222510   6.401   3.214  16.782 -0.1634 -0.2509  0.4590
  340TIP3    H122511   6.420   3.197  16.875 -0.7101  1.1327  0.8500
  340TIP3    H222512   6.354   3.297  16.783  2.8620  1.6562 -1.3545
  341TIP3   OH222513   1.918   6.208  14.714 -0.2988  0.0617  0.1799
  341TIP3    H122514   1.868   6.210  14.632  0.0885 -0.4362 -0.0730
  341TIP3    H222515   1.853   6.181  14.780 -1.3028  3.0478  0.5738
  342TIP3   OH222516   1.707   6.178   3.506  0.4681 -0.2527  0.0776
  342TIP3    H122517   1.729   6.181   3.599  0.2450 -0.9120  0.1502
  342TIP3    H222518   1.736   6.092   3.476  0.0920 -0.2358 -0.3540
  343TIP3   OH222519   5.254   3.223   4.633  0.3328 -0.3297 -0.1938
  343TIP3    H122520   5.308   3.192   4.705  0.9150 -0.0922 -0.5233
  343TIP3    H222521   5.308   3.288   4.589 -0.7103  0.8817  0.2501
  344TIP3   OH222522   1.085   2.002   5.918  0.5619  0.2818  0.1289
  344TIP3    H122523   1.083   2.094   5.943  0.2663  0.1652  0.5428
  344TIP3    H222524   1.109   1.956   5.998  0.9204  0.0147 -0.1288
  345TIP3   OH222525   3.551   6.755   6.159 -0.0685 -0.3391 -0.7780
  345TIP3    H122526   3.484   6.797   6.213  0.2544  0.1713 -0.7781
  345TIP3    H222527   3.515   6.757   6.070 -0.3513 -0.6819 -0.6779
  346TIP3   OH222528   3.379   5.230   0.537  0.6938 -0.0817 -0.2064
  346TIP3    H122529   3.284   5.217   0.548  0.9051 -0.7139  1.0936
  346TIP3    H222530   3.408   5.156   0.484  0.8227 -1.3489  1.5243
  347TIP3   OH222531   1.076   1.445   1.549  0.2354  0.1931 -0.5373
  347TIP3    H122532   1.040   1.437   1.461 -0.5419  0.9868 -0.3106
  347TIP3    H222533   1.163   1.482   1.536 -0.1927  1.0889 -0.9387
  348TIP3   OH222534   2.028   4.564   6.396 -0.1428  0.1481  0.5496
  348TIP3    H122535   2.066   4.556   6.483  1.3083 -0.7860 -0.1323
  348TIP3    H222536   2.092   4.523   6.337 -0.7572  1.3584 -1.0481
  349TIP3   OH222537   6.286   0.678   0.578 -0.0897 -0.2698  0.7226
  349TIP3    H122538   6.257   0.749   0.520 -1.6728 -0.6676  0.9837
  349TIP3    H222539   6.212   0.618   0.581  0.7327 -1.2754  1.5763
  350TIP3   OH222540   5.043   0.555   0.102  0.3133 -0.1407  0.4656
  350TIP3    H122541   4.951   0.576   0.120  0.8179  2.0385  0.8097
  350TIP3    H222542   5.059   0.590   0.014  0.8686 -0.2994  0.5021
  351TIP3   OH222543   0.742   1.031  14.767  0.4820  0.4348 -0.3607
  351TIP3    H122544   0.671   1.085  14.803  1.1328  1.5534 -0.6808
  351TIP3    H222545   0.724   1.029  14.673 -0.3517 -1.1778 -0.2020
  352TIP3   OH222546   1.360   4.966  12.171  0.1059 -0.1182  0.2024
  352TIP3    H122547   1.371   4.879  12.210  1.0446 -0.5948 -1.0767
  352TIP3    H222548   1.293   4.955  12.104 -0.5182  0.3952  0.7235
  353TIP3   OH222549   2.874   3.551  13.289  0.4107  0.2307 -0.4822
  353TIP3    H122550   2.917   3.467  13.308  1.5351  1.3121  2.2704
  353TIP3    H222551   2.939   3.616  13.314 -1.0765  1.9566 -0.9592
  354TIP3   OH222552   5.801   3.942   0.004  0.0596 -0.4035  0.0033
  354TIP3    H122553   5.778   3.963   0.094  0.8119  2.4472 -0.3723
  354TIP3    H222554   5.897   3.943   0.003  0.0597 -0.5460 -0.7981
  355TIP3   OH222555   2.896   6.489  17.445 -0.0511 -0.5561  0.5941
  355TIP3    H122556   2.855   6.471  17.530 -0.4594 -0.3048  0.4537
  355TIP3    H222557   2.988   6.463  17.457  0.0535  0.0985  1.3233
  356TIP3   OH222558   6.189   3.820  14.652  0.1311  0.7128 -0.8110
  356TIP3    H122559   6.109   3.769  14.662  0.3213  0.8668  2.8717
  356TIP3    H222560   6.161   3.911  14.664  0.7942  0.7756  0.3795
  357TIP3   OH222561   2.319   2.227  17.388  0.4442 -0.0468 -0.1459
  357TIP3    H122562   2.355   2.218  17.477 -0.5588 -1.6235  0.1294
  357TIP3    H222563   2.385   2.279  17.341  0.3119  2.1446  1.8993
  358TIP3   OH222564   1.277   6.484   0.400 -0.5050  0.5201  0.7339
  358TIP3    H122565   1.236   6.510   0.482 -0.1357  0.1563  1.0454
  358TIP3    H222566   1.233   6.535   0.333 -1.3217  0.2775  1.0771
  359TIP3   OH222567   3.749   2.558   3.464 -0.2437 -0.2507 -0.3201
  359TIP3    H122568   3.823   2.601   3.421  0.0630 -0.4743 -0.0198
  359TIP3    H222569   3.789   2.500   3.529 -0.6354 -1.1415 -0.8536
  360TIP3   OH222570   0.692   1.085  14.475 -0.2853 -0.0384  0.3982
  360TIP3    H122571   0.758   1.127  14.420 -2.8140  0.7200 -2.3018
  360TIP3    H222572   0.618   1.146  14.476 -1.0437 -0.8202  3.3051
  361TIP3   OH222573   1.749   4.083   1.553  0.0832  0.5757  0.7293
  361TIP3    H122574   1.812   4.074   1.624 -0.5480  1.1478  1.3775
  361TIP3    H222575   1.777   4.018   1.488  0.4554 -0.2228  1.6591
  362TIP3   OH222576   3.085   2.568   1.235 -0.0004  0.0403  0.1778
  362TIP3    H122577   3.089   2.629   1.162  1.8394  2.4546  2.1126
  362TIP3    H222578   3.035   2.614   1.302  1.2696 -0.5991  1.6275
  363TIP3   OH222579   4.606   5.211   5.006  0.6785 -0.0765  0.0097
  363TIP3    H122580   4.511   5.208   5.016  0.7596 -3.2151  0.8485
  363TIP3    H222581   4.640   5.215   5.095  1.3648  0.5329 -0.2628
  364TIP3   OH222582   3.111   4.913  17.210  0.2744  0.4070 -0.0583
  364TIP3    H122583   3.094   4.916  17.115  0.4251  1.5302 -0.0526
  364TIP3    H222584   3.202   4.939  17.219  0.5785 -0.7359  0.3299
  365TIP3   OH222585   4.961   4.228  11.354 -0.3623  0.3419  0.2402
  365TIP3    H122586   5.007   4.151  11.321 -0.0176  0.8297 -0.4318
  365TIP3    H222587   5.022   4.268  11.416 -0.2937  0.4076  0.1312
  366TIP3   OH222588   1.444   5.846   2.984  0.4651 -0.2792  0.4204
  366TIP3    H122589   1.456   5.813   2.895  2.6348 -1.8862  1.2014
  366TIP3    H222590   1.465   5.939   2.977  1.2182 -0.4981 -0.6750
  367TIP3   OH222591   0.213   3.678  15.553  0.5698  0.5247 -0.1092
  367TIP3    H122592   0.203   3.629  15.471  0.8896 -0.1576  0.2458
  367TIP3    H222593   0.133   3.660  15.602  1.3613 -1.0346  0.7158
  368TIP3   OH222594   3.155   2.320  11.948  0.0259 -0.5649  0.0822
  368TIP3    H122595   3.086   2.318  12.014 -0.0501  0.2393  0.0365
  368TIP3    H222596   3.208   2.396  11.970  1.2213 -1.4759  0.4191
  369TIP3   OH222597   5.825   2.920   1.920 -0.7292  0.4981  0.1000
  369TIP3    H122598   5.784   2.882   1.998 -0.2636  1.9788  1.1142
  369TIP3    H222599   5.893   2.856   1.895 -1.3727 -0.3423  0.4376
  370TIP3   OH222600   5.902   3.917  13.176 -0.1617  0.1033 -0.2743
  370TIP3    H122601   5.951   3.999  13.168 -0.8997  0.5716 -0.1056
  370TIP3    H222602   5.897   3.883  13.087  0.5894 -0.0303 -0.2737
  371TIP3   OH222603   0.423   4.369  15.131 -0.2617  0.5444  0.2693
  371TIP3    H122604   0.382   4.447  15.092 -0.4840  0.2837 -0.0241
  371TIP3    H222605   0.363   4.344  15.201 -0.5438  0.2457 -0.0697
  372TIP3   OH222606   4.269   5.051  14.326 -0.0665 -0.5811  0.0123
  372TIP3    H122607   4.303   5.137  14.352 -0.8718  0.4607 -2.1062
  372TIP3    H222608   4.281   4.996  14.404  1.2306  1.2076  1.1681
  373TIP3   OH222609   4.186   3.139   5.343 -0.7219 -0.0119  0.3954
  373TIP3    H122610   4.262   3.114   5.292 -0.5979 -0.5789  0.8458
  373TIP3    H222611   4.126   3.179   5.280 -0.3562 -0.2284 -0.0912
  374TIP3   OH222612   5.643   2.258  13.570 -0.7991  0.0036  0.4466
  374TIP3    H122613   5.581   2.266  13.498 -2.2313 -1.0238  1.4862
  374TIP3    H222614   5.593   2.285  13.647  0.0349 -0.8253  1.3159
  375TIP3   OH222615   1.079   5.756  15.574 -0.7880 -0.0068  0.1414
  375TIP3    H122616   1.127   5.817  15.519 -1.3688 -0.1433 -0.5248
  375TIP3    H222617   1.146   5.713  15.627 -0.2888  0.5666 -0.0153
  376TIP3   OH222618   2.468   2.989   5.288 -0.0434 -0.0585  0.8682
  376TIP3    H122619   2.388   2.936   5.282 -0.0155  0.0227 -0.3753
  376TIP3    H222620   2.533   2.929   5.324 -0.2370 -0.6248  0.2992
  377TIP3   OH222621   0.802   4.228   3.259  0.3209 -0.6330  0.1130
  377TIP3    H122622   0.883   4.179   3.242  0.6316 -0.8014  1.8178
  377TIP3    H222623   0.832   4.313   3.290 -0.0161 -1.4347  2.9340
  378TIP3   OH222624   3.772   2.563  15.704 -0.2675  0.0188  0.6969
  378TIP3    H122625   3.762   2.625  15.633  2.8335  1.0522  1.0468
  378TIP3    H222626   3.742   2.610  15.782  3.1928  1.7086  1.1670
  379TIP3   OH222627   1.334   5.542   2.396  0.2796 -0.5300 -0.3373
  379TIP3    H122628   1.349   5.604   2.466  0.3043 -0.2107 -0.6229
  379TIP3    H222629   1.329   5.595   2.316  3.6223 -1.1057 -1.0876
  380TIP3   OH222630   2.280   5.827   0.294  0.1352  0.1727  0.5975
  380TIP3    H122631   2.219   5.885   0.248 -0.9046 -0.8644  0.6305
  380TIP3    H222632   2.275   5.855   0.386  0.5218  0.7783  0.4394
  381TIP3   OH222633   6.657   5.917   2.460  0.3091  0.1484  0.2710
  381TIP3    H122634   6.711   5.845   2.493 -0.0284 -0.5711 -0.6769
  381TIP3    H222635   6.676   5.919   2.366 -2.0407 -0.8004 -0.2811
  382TIP3   OH222636   6.322   5.393   2.319 -0.0294  0.1883  0.4844
  382TIP3    H122637   6.412   5.363   2.333  0.8166  2.7156  0.9944
  382TIP3    H222638   6.327   5.449   2.241 -0.6799  1.9561  1.6259
  383TIP3   OH222639   6.034   4.425  14.693  0.0280  0.2027 -0.1165
  383TIP3    H122640   6.062   4.516  14.684 -0.7534  0.4905  0.3101
  383TIP3    H222641   6.011   4.415  14.785 -0.6768 -0.1856 -0.3218
  384TIP3   OH222642   1.971   1.034  16.714 -0.3287 -0.7260  0.1202
  384TIP3    H122643   2.000   0.952  16.675  1.1899 -1.3582  2.3388
  384TIP3    H222644   2.052   1.077  16.742 -1.0968  1.5384 -0.9353
  385TIP3   OH222645   0.350   1.017  14.319 -0.0936 -0.3520 -0.4159
  385TIP3    H122646   0.419   0.978  14.373 -0.2398 -0.1907 -0.1097
  385TIP3    H222647   0.393   1.090  14.273  0.1165 -0.7051 -0.7904
  386TIP3   OH222648   5.985   1.362  10.760 -0.1249 -0.5959 -0.2083
  386TIP3    H122649   5.943   1.341  10.844 -2.2502  1.2359 -0.7005
  386TIP3    H222650   6.075   1.382  10.782 -1.1233  2.0147  2.0884
  387TIP3   OH222651   0.728   5.752  12.900  0.0480 -0.1584  0.7909
  387TIP3    H122652   0.767   5.727  12.816 -0.4534 -0.0887  0.5391
  387TIP3    H222653   0.731   5.847  12.901  2.4022 -0.1552  1.9567
  388TIP3   OH222654   2.610   1.239  15.088 -0.0703 -0.2132 -0.2536
  388TIP3    H122655   2.547   1.310  15.079 -0.3340 -0.1426  1.7446
  388TIP3    H222656   2.568   1.164  15.046 -2.3087 -0.6119  2.3719
  389TIP3   OH222657   6.293   6.480   4.451 -0.4183 -0.5732 -0.0640
  389TIP3    H122658   6.216   6.438   4.410  0.4518 -1.7373 -0.5691
  389TIP3    H222659   6.288   6.571   4.422 -0.3083 -1.1637 -2.1265
  390TIP3   OH222660   6.682   0.441  11.605 -0.5066 -0.7369 -0.3669
  390TIP3    H122661   6.621   0.480  11.667  0.1306 -0.7836  0.2926
  390TIP3    H222662   6.626   0.394  11.543 -1.1261 -1.0934  0.4459
  391TIP3   OH222663   0.476   4.359   0.043  0.0033  0.1764  0.3794
  391TIP3    H122664   0.501   4.387  -0.045  0.0302 -0.6000  0.1402
  391TIP3    H222665   0.459   4.441   0.090 -2.2582  0.5603 -0.9753
  392TIP3   OH222666   3.549   0.341  13.705 -0.4470  0.3696 -0.1786
  392TIP3    H122667   3.615   0.393  13.752 -1.1893 -0.0974  1.4730
  392TIP3    H222668   3.466   0.375  13.737 -1.1552  1.9783 -3.3400
  393TIP3   OH222669   0.828   3.192  12.855  0.8909 -0.0328 -0.1249
  393TIP3    H122670   0.790   3.104  12.855  0.3279  0.1978 -1.0901
  393TIP3    H222671   0.782   3.238  12.785  1.3220  0.9738  0.2375
  394TIP3   OH222672   5.337   0.161   5.957  0.0000  0.5279 -0.2713
  394TIP3    H122673   5.320   0.249   5.923 -0.1432  0.8175  0.5200
  394TIP3    H222674   5.251   0.131   5.987 -0.2378 -0.4731 -1.8396
  395TIP3   OH222675   0.399   0.975   2.280  0.6366  0.1468  0.1273
  395TIP3    H122676   0.454   1.043   2.242  2.6084 -0.6773  1.3621
  395TIP3    H222677   0.361   1.015   2.358  0.8088  0.2024  0.1812
  396TIP3   OH222678   0.505   5.568  15.543  0.7247 -0.3806  0.3428
  396TIP3    H122679   0.557   5.536  15.616  0.2763  0.6916  1.1652
  396TIP3    H222680   0.505   5.663  15.553 -0.5984 -0.2962 -0.1840
  397TIP3   OH222681   4.084   0.815   2.032  0.9355  0.6468 -0.2167
  397TIP3    H122682   4.068   0.868   2.111  0.4289 -0.5292  0.5000
  397TIP3    H222683   3.996   0.796   1.999  1.1264  0.4962 -0.6331
  398TIP3   OH222684   4.997   2.038  14.950 -0.2608 -0.3576  0.1432
  398TIP3    H122685   5.010   1.962  15.007 -1.3914  0.7398  1.9559
  398TIP3    H222686   5.085   2.061  14.920  0.4770 -0.4757  2.1231
  399TIP3   OH222687   5.175   2.836  15.228 -0.5776  0.7010  0.2282
  399TIP3    H122688   5.271   2.839  15.231 -0.4629  2.4865 -2.2937
  399TIP3    H222689   5.150   2.807  15.316  2.2450  0.6102  1.1156
  400TIP3   OH222690   5.675   1.558   1.332 -0.4409  0.5905 -0.0486
  400TIP3    H122691   5.709   1.584   1.418 -0.3483  2.7664 -0.6680
  400TIP3    H222692   5.742   1.502   1.295  0.7112  1.6883  0.3043
  401TIP3   OH222693   1.486   5.247   3.925 -0.3329  0.2839  0.5842
  401TIP3    H122694   1.482   5.218   4.016  2.1159 -0.6503  0.4575
  401TIP3    H222695   1.540   5.325   3.927 -1.4144  1.0731  0.0611
  402TIP3   OH222696   3.269   3.519  12.224  0.1480  0.2896  0.5320
  402TIP3    H122697   3.338   3.531  12.158  0.1710 -0.6256  0.3717
  402TIP3    H222698   3.192   3.561  12.186  0.1733 -0.1876 -0.0750
  403TIP3   OH222699   5.711   2.691  15.682 -0.2351  0.1245 -0.1117
  403TIP3    H122700   5.630   2.658  15.722 -0.1314 -2.0665 -1.5472
  403TIP3    H222701   5.684   2.719  15.594  0.6463 -1.3820 -0.9018
  404TIP3   OH222702   5.443   4.367   1.201  0.8806  0.2506  0.0804
  404TIP3    H122703   5.489   4.450   1.191 -1.4628  1.5739 -0.6007
  404TIP3    H222704   5.403   4.372   1.288 -1.8565  1.3693 -1.1051
  405TIP3   OH222705   6.214   2.370  16.122  0.2552  0.0184 -0.2020
  405TIP3    H122706   6.203   2.457  16.160  0.6768 -0.1494  0.3233
  405TIP3    H222707   6.277   2.327  16.180  0.7757 -0.3052 -1.0034
  406TIP3   OH222708   4.844   2.453   0.944  0.2388  0.2771  0.6357
  406TIP3    H122709   4.918   2.432   1.002  0.0187 -2.1072  0.1468
  406TIP3    H222710   4.766   2.427   0.994  0.0186 -1.2667 -0.4259
  407TIP3   OH222711   6.218   4.931  11.333 -0.2117 -0.3436  0.0591
  407TIP3    H122712   6.145   4.990  11.350  0.3826  0.3754  0.2083
  407TIP3    H222713   6.183   4.866  11.272 -0.6360  0.7422 -0.8976
  408TIP3   OH222714   3.792   4.785  12.636  0.2491 -0.0133 -0.0407
  408TIP3    H122715   3.696   4.793  12.635 -0.3220 -4.4058  1.0761
  408TIP3    H222716   3.816   4.805  12.727  0.5068  1.4475 -0.4061
  409TIP3   OH222717   5.679   0.994  14.476  0.1527 -0.5923  0.4525
  409TIP3    H122718   5.765   1.020  14.511 -0.6645  1.4200  1.1031
  409TIP3    H222719   5.623   1.070  14.491 -2.1849 -2.3942  1.4319
  410TIP3   OH222720   4.286   1.051   3.940 -0.3136  0.3051  0.0474
  410TIP3    H122721   4.219   1.120   3.946 -1.0152 -0.0085 -2.7414
  410TIP3    H222722   4.250   0.989   3.877  2.2919 -0.2569 -1.0047
  411TIP3   OH222723   4.577   4.020  11.489 -0.3969  0.5771  0.1574
  411TIP3    H122724   4.661   4.013  11.533  0.1528 -0.4513 -1.0170
  411TIP3    H222725   4.593   4.079  11.416 -0.5793  0.0770 -0.2958
  412TIP3   OH222726   3.064   2.898  17.228  0.7083 -0.4454 -0.0042
  412TIP3    H122727   3.084   2.866  17.316  0.4288  0.9662  0.6011
  412TIP3    H222728   3.004   2.833  17.192 -3.2192  1.2258  2.7424
  413TIP3   OH222729   5.005   0.772   3.324 -0.3286  0.5819 -0.4954
  413TIP3    H122730   5.059   0.693   3.324  0.4292  1.0880  0.1287
  413TIP3    H222731   5.061   0.840   3.288 -0.6091  1.0708 -0.0214
  414TIP3   OH222732   6.663   2.309  16.432 -0.1495 -0.1420 -0.4168
  414TIP3    H122733   6.705   2.234  16.475 -1.1025 -0.2721  0.3214
  414TIP3    H222734   6.720   2.383  16.452 -1.3387  0.1348  2.5343
  415TIP3   OH222735   5.469   6.369   1.083  0.0758  0.0958 -0.5323
  415TIP3    H122736   5.552   6.378   1.131  0.2494  0.1566 -0.8391
  415TIP3    H222737   5.489   6.404   0.995  0.1661 -1.3442 -1.1079
  416TIP3   OH222738   2.040   5.848  14.093  0.1137 -0.1010  0.3558
  416TIP3    H122739   2.067   5.939  14.089  3.3260 -0.9559  0.4289
  416TIP3    H222740   2.020   5.824  14.003  1.6342  0.0744 -0.0520
  417TIP3   OH222741   0.654   6.400   2.707  0.8827  0.1825 -0.5842
  417TIP3    H122742   0.738   6.421   2.666  0.3885  3.7619 -0.1338
  417TIP3    H222743   0.589   6.428   2.643 -0.0096 -1.9227 -0.6522
  418TIP3   OH222744   2.617   6.310  16.968  0.1868 -0.3751 -0.4718
  418TIP3    H122745   2.628   6.405  16.975  1.3501 -0.3691 -2.0610
  418TIP3    H222746   2.595   6.295  16.877 -3.9402 -1.3483  0.4727
  419TIP3   OH222747   3.546   3.967  11.777  0.0820  0.2971  0.2572
  419TIP3    H122748   3.475   4.013  11.731 -0.9116 -0.2140  1.2474
  419TIP3    H222749   3.509   3.882  11.800  1.4823 -0.5375 -0.4163
  420TIP3   OH222750   6.280   0.776   3.232 -0.2609  0.3579  0.6937
  420TIP3    H122751   6.194   0.770   3.272 -0.5690 -0.1607 -0.0327
  420TIP3    H222752   6.295   0.690   3.193 -0.4532  1.1651 -1.2608
  421TIP3   OH222753   6.319   0.648  15.518 -0.0107 -0.0772 -0.2858
  421TIP3    H122754   6.279   0.725  15.560 -0.3286  0.0745 -0.8546
  421TIP3    H222755   6.258   0.577  15.535 -0.0601 -0.0496 -0.3454
  422TIP3   OH222756   4.726   4.550  12.418  0.3223  0.0543  0.0001
  422TIP3    H122757   4.776   4.606  12.358 -1.4628 -0.2067 -1.8461
  422TIP3    H222758   4.653   4.605  12.447  1.0489  0.0996  1.8174
  423TIP3   OH222759   5.798   3.801   2.764  0.0827 -0.0780  0.1745
  423TIP3    H122760   5.868   3.851   2.723  0.9525 -0.3963  1.2207
  423TIP3    H222761   5.732   3.792   2.696  2.1338 -1.9672 -1.7633
  424TIP3   OH222762   4.646   2.761  11.777  0.3312  0.4516 -0.2465
  424TIP3    H122763   4.684   2.754  11.690  1.6125 -0.3283  0.3349
  424TIP3    H222764   4.708   2.714  11.834 -0.8411  0.3066  0.9693
  425TIP3   OH222765   5.918   4.794  12.109 -0.2390 -0.3107 -0.4321
  425TIP3    H122766   5.856   4.728  12.078 -0.1643 -0.9789  0.7970
  425TIP3    H222767   5.941   4.844  12.030 -1.8311 -0.4577 -1.0183
  426TIP3   OH222768   4.885   5.561  12.877 -0.4032  0.2801 -0.6720
  426TIP3    H122769   4.936   5.571  12.958 -0.7281  0.6289 -0.5111
  426TIP3    H222770   4.857   5.469  12.879 -0.2407  0.2325 -0.4879
  427TIP3   OH222771   4.738   4.113   3.915  0.6316  0.6296  0.1160
  427TIP3    H122772   4.680   4.145   3.846  0.5770 -1.8053 -1.0478
  427TIP3    H222773   4.789   4.044   3.874 -0.1238 -1.6469  2.7169
  428TIP3   OH222774   4.845   0.671   0.794 -0.0139 -1.3943 -0.0721
  428TIP3    H122775   4.859   0.590   0.745 -0.4862 -2.2131  1.1082
  428TIP3    H222776   4.751   0.672   0.812 -0.7667  1.2021 -3.0509
  429TIP3   OH222777   0.953   0.567   0.642  0.2647 -0.1026  0.3744
  429TIP3    H122778   0.884   0.535   0.700 -0.6957  0.5962 -0.3686
  429TIP3    H222779   0.924   0.653   0.613  0.5312 -0.5749 -1.4433
  430TIP3   OH222780   0.539   4.957   3.155  0.0424  0.0159 -0.2619
  430TIP3    H122781   0.451   4.918   3.161  0.0269 -0.0777 -0.9979
  430TIP3    H222782   0.598   4.882   3.149 -0.0689  0.0410 -2.8051
  431TIP3   OH222783   2.929   4.028   0.781  0.2386 -0.2180 -0.1286
  431TIP3    H122784   2.854   4.081   0.756 -0.8766 -1.7001 -0.0621
  431TIP3    H222785   2.990   4.035   0.707  0.3576  1.5037  0.0910
  432TIP3   OH222786   0.422   6.470   2.526 -0.0971 -0.9152 -0.0240
  432TIP3    H122787   0.423   6.379   2.499  2.1959 -0.5993 -1.3034
  432TIP3    H222788   0.366   6.514   2.461  1.9403 -0.8617 -1.8798
  433TIP3   OH222789   1.014   2.522  12.515  0.3407 -0.2963 -0.2453
  433TIP3    H122790   0.998   2.604  12.468 -1.1312  0.0422  0.7701
  433TIP3    H222791   1.107   2.503  12.500  1.1243  2.3435  0.7098
  434TIP3   OH222792   4.786   0.136  15.863  0.1210  0.4994 -0.4440
  434TIP3    H122793   4.842   0.077  15.915 -1.4242  0.8291  1.7061
  434TIP3    H222794   4.836   0.217  15.858  0.4339  0.3626  0.2773
  435TIP3   OH222795   6.166   0.201   3.889 -0.0172 -0.2579  0.3706
  435TIP3    H122796   6.090   0.156   3.925  0.9964 -0.5930  2.2114
  435TIP3    H222797   6.239   0.142   3.907  0.6076 -0.3738 -2.1927
  436TIP3   OH222798   2.618   1.774  10.780  0.2262  0.4044  0.3667
  436TIP3    H122799   2.701   1.818  10.761  0.1107  0.7879  0.7272
  436TIP3    H222800   2.636   1.722  10.858  0.6684 -1.0762 -0.6902
  437TIP3   OH222801   0.951   2.915   2.940 -0.7401  0.2233  0.1962
  437TIP3    H122802   0.982   2.825   2.930 -2.0361 -0.2704  0.4926
  437TIP3    H222803   1.031   2.967   2.947  0.0222 -0.9338  0.2801
  438TIP3   OH222804   2.167   4.983  14.391  0.0030  0.1701  0.6916
  438TIP3    H122805   2.253   4.970  14.429  0.0057  1.1227  1.0257
  438TIP3    H222806   2.106   4.961  14.461  0.0043  1.4622  1.1213
  439TIP3   OH222807   6.375   3.680  16.284  0.3817 -0.2923  0.2559
  439TIP3    H122808   6.344   3.613  16.344 -1.5951  2.1459  2.2025
  439TIP3    H222809   6.295   3.717  16.245  1.2417  1.7860  0.3142
  440TIP3   OH222810   3.406   6.556  15.027  0.1270  0.4860  0.3048
  440TIP3    H122811   3.481   6.594  15.071  0.9519 -0.6893 -0.0539
  440TIP3    H222812   3.443   6.506  14.954 -1.1064  1.2933 -0.9459
  441TIP3   OH222813   0.698   5.887   5.870  0.1596 -0.3652  0.1912
  441TIP3    H122814   0.744   5.893   5.954  0.7892 -0.4803 -0.1319
  441TIP3    H222815   0.605   5.892   5.892  0.3190  2.3568  0.6898
  442TIP3   OH222816   3.003   5.057   5.760 -0.0000  0.5299  0.2307
  442TIP3    H122817   2.996   5.039   5.854  0.0037  1.3686  0.3931
  442TIP3    H222818   3.026   5.149   5.755  0.5098  0.3598 -0.5896
  443TIP3   OH222819   0.202   3.004   2.768  0.4220  0.9072  0.3454
  443TIP3    H122820   0.156   3.061   2.831 -0.9053  1.3129 -0.9325
  443TIP3    H222821   0.207   3.057   2.688  0.4585 -0.2422 -0.4309
  444TIP3   OH222822   4.239   5.057  13.691 -0.3807 -0.2324  0.0751
  444TIP3    H122823   4.185   4.981  13.670 -0.5981 -0.1595  0.3551
  444TIP3    H222824   4.190   5.102  13.760 -0.8174  0.7824 -0.8671
  445TIP3   OH222825   2.223   1.993  11.356 -0.0181 -0.0935 -0.1681
  445TIP3    H122826   2.246   1.907  11.319 -0.1241  0.9218 -2.8433
  445TIP3    H222827   2.296   2.050  11.333 -0.0837  0.6455  1.3151
  446TIP3   OH222828   4.771   4.404   3.992 -0.1743 -0.1527 -0.4389
  446TIP3    H122829   4.812   4.392   3.906 -0.5176  0.7171 -0.7473
  446TIP3    H222830   4.795   4.326   4.042 -2.0545 -1.9480 -2.1489
  447TIP3   OH222831   4.671   3.489   3.389 -0.3147  0.3503 -0.3990
  447TIP3    H122832   4.725   3.453   3.319 -0.4201  0.7313 -0.6776
  447TIP3    H222833   4.597   3.530   3.344 -0.2893  0.7570 -0.0752
  448TIP3   OH222834   3.318   0.626  13.628  0.8314 -0.1376  0.4941
  448TIP3    H122835   3.375   0.703  13.623 -0.3120  0.7685  0.8532
  448TIP3    H222836   3.360   0.569  13.692  1.2102  0.6260  0.9478
  449TIP3   OH222837   5.175   6.424  15.362 -0.4701  0.5743 -0.4535
  449TIP3    H122838   5.128   6.351  15.403  2.5060 -0.4745  1.3529
  449TIP3    H222839   5.157   6.414  15.269 -0.5008 -2.2678 -0.2408
  450TIP3   OH222840   5.154   5.478  17.044 -0.2141  0.2479  0.0536
  450TIP3    H122841   5.237   5.432  17.031 -0.4174  0.3442 -1.9207
  450TIP3    H222842   5.179   5.566  17.074  0.2926 -0.2351  1.0930
  451TIP3   OH222843   4.497   0.335   3.071 -0.2649  0.3394 -0.6038
  451TIP3    H122844   4.440   0.304   3.142 -0.2046  0.3515 -0.5509
  451TIP3    H222845   4.571   0.274   3.072 -1.3001 -1.0482 -2.0701
  452TIP3   OH222846   6.580   4.793   2.993 -0.2673  0.2025  0.0500
  452TIP3    H122847   6.498   4.839   2.977 -0.8126 -1.1108 -1.1526
  452TIP3    H222848   6.586   4.729   2.922  1.3650 -0.3246  0.6141
  453TIP3   OH222849   4.961   1.672  12.106  0.1432 -0.0520  0.2960
  453TIP3    H122850   5.049   1.708  12.117 -0.0531  1.1362 -1.6657
  453TIP3    H222851   4.975   1.579  12.087  1.0628  0.3621 -1.1437
  454TIP3   OH222852   2.034   6.486  16.981 -0.4815 -0.3574  0.1156
  454TIP3    H122853   2.092   6.449  16.915 -2.2297 -2.5382 -0.3154
  454TIP3    H222854   2.066   6.450  17.064 -0.1001 -0.0364  0.1109
  455TIP3   OH222855   0.492   2.150   3.308 -0.6872  0.0121  0.1066
  455TIP3    H122856   0.474   2.237   3.273  2.0185  0.2264 -0.9569
  455TIP3    H222857   0.449   2.090   3.248  0.5023  0.5338 -1.3191
  456TIP3   OH222858   3.234   2.209  16.531 -0.7855 -0.2686  0.0348
  456TIP3    H122859   3.208   2.181  16.443  0.0372  0.7040 -0.5372
  456TIP3    H222860   3.158   2.257  16.564 -0.6101  0.5160 -0.6806
  457TIP3   OH222861   5.394   5.327  16.948 -0.1829  0.5152 -0.5003
  457TIP3    H122862   5.464   5.262  16.955 -1.5457 -0.8149  2.8333
  457TIP3    H222863   5.440   5.411  16.938  1.7815 -0.4709 -0.2705
  458TIP3   OH222864   4.384   5.441   4.621 -0.2104  0.6508  0.5978
  458TIP3    H122865   4.322   5.416   4.690 -1.0578  2.5624  0.5798
  458TIP3    H222866   4.336   5.425   4.539  0.4795 -0.7845  0.4413
  459TIP3   OH222867   3.301   4.137  16.488  0.2754  0.2200  0.7383
  459TIP3    H122868   3.234   4.149  16.555  0.2123  0.7640  0.5830
  459TIP3    H222869   3.253   4.114  16.408  0.3881 -1.0062  1.0051
  460TIP3   OH222870   3.131   0.736   3.937 -0.0186  0.5580  1.2372
  460TIP3    H122871   3.172   0.719   3.852 -1.1252 -0.5736  0.8986
  460TIP3    H222872   3.167   0.821   3.964  0.5445  0.8272 -0.2328
  461TIP3   OH222873   0.704   2.873  14.855 -0.5637  0.4652  0.3072
  461TIP3    H122874   0.794   2.865  14.887 -0.0244  0.2789 -1.2016
  461TIP3    H222875   0.664   2.788  14.874  0.9439 -1.1545 -2.9465
  462TIP3   OH222876   3.625   2.898  14.228  0.0866 -0.3860  0.3581
  462TIP3    H122877   3.571   2.959  14.279  0.2007 -0.8778  1.0873
  462TIP3    H222878   3.566   2.865  14.161 -0.5170 -0.8440  1.0901
  463TIP3   OH222879   1.979   4.630   1.373 -0.4701  0.1730 -0.3677
  463TIP3    H122880   2.026   4.552   1.404 -1.2297 -0.7113 -1.3427
  463TIP3    H222881   1.947   4.605   1.286 -0.5499  1.6680 -0.7974
  464TIP3   OH222882   4.536   2.827  15.201 -0.2540 -0.1207  0.2138
  464TIP3    H122883   4.552   2.736  15.175  0.7166  0.1495 -0.1883
  464TIP3    H222884   4.615   2.873  15.175 -0.5331  0.7545  0.8752
  465TIP3   OH222885   1.229   2.567  16.220 -0.2429  0.2204 -0.2675
  465TIP3    H122886   1.219   2.648  16.170  1.0930 -0.2907 -1.4236
  465TIP3    H222887   1.142   2.550  16.256 -1.3093  0.5155 -2.5535
  466TIP3   OH222888   5.639   4.795  17.097  0.3454 -0.3872  0.3623
  466TIP3    H122889   5.626   4.792  17.192  0.8497 -0.2889  0.4357
  466TIP3    H222890   5.550   4.789  17.061  0.2070 -1.3069  0.8141
  467TIP3   OH222891   3.203   6.498   1.219 -0.1803  0.4460  0.4194
  467TIP3    H122892   3.111   6.483   1.237 -0.5587  0.2244 -1.5216
  467TIP3    H222893   3.241   6.518   1.305 -1.9119  0.0515  1.3242
  468TIP3   OH222894   4.913   5.625  16.261  0.1441  0.6496  0.4238
  468TIP3    H122895   4.821   5.646  16.274  0.0547  0.2569  0.4215
  468TIP3    H222896   4.954   5.644  16.346 -0.3496 -1.4052  1.1662
  469TIP3   OH222897   6.770   5.256  13.349  0.4460 -0.1741  0.0325
  469TIP3    H122898   6.696   5.204  13.317 -0.2879 -0.6858  2.3733
  469TIP3    H222899   6.827   5.266  13.272 -0.3083 -2.8201 -1.0022
  470TIP3   OH222900   0.646   2.197   0.192 -0.0405 -0.4648 -0.3566
  470TIP3    H122901   0.579   2.181   0.125  1.8588  2.8170 -3.4062
  470TIP3    H222902   0.618   2.279   0.233  1.9803  1.0299 -1.7736
  471TIP3   OH222903   3.221   3.989   4.823  0.5151 -0.1946  0.1939
  471TIP3    H122904   3.215   4.056   4.891 -1.0452 -0.5934  0.5041
  471TIP3    H222905   3.140   3.939   4.832  1.0028 -1.2495 -0.9440
  472TIP3   OH222906   0.085   2.188  15.646 -0.4464  0.0387  0.1002
  472TIP3    H122907   0.058   2.207  15.735  3.7334 -1.9744  2.0993
  472TIP3    H222908   0.063   2.095  15.633  3.1654 -1.1362  1.1315
  473TIP3   OH222909   5.844   2.289  11.173  0.0132  0.2373 -0.1241
  473TIP3    H122910   5.769   2.346  11.191 -0.0402 -0.0710  0.6526
  473TIP3    H222911   5.920   2.347  11.176 -0.2037  0.5864 -1.1011
  474TIP3   OH222912   0.875   1.810  13.108 -0.1702 -0.1101 -0.5750
  474TIP3    H122913   0.961   1.770  13.123 -0.1512  0.1795  0.1617
  474TIP3    H222914   0.813   1.738  13.114  0.0008 -0.2755 -0.8095
  475TIP3   OH222915   1.559   4.760   4.137 -0.0192  0.2769  0.3246
  475TIP3    H122916   1.503   4.753   4.214 -0.2356 -0.7603  0.0891
  475TIP3    H222917   1.648   4.761   4.172 -0.1244  0.0327  0.6031
  476TIP3   OH222918   3.162   5.204  11.181  0.1587  0.1063 -0.1272
  476TIP3    H122919   3.132   5.238  11.266  0.2002 -0.6286  0.1884
  476TIP3    H222920   3.152   5.109  11.188  3.3980 -0.3059  0.3421
  477TIP3   OH222921   0.081   0.406  16.750 -0.1146 -0.7158 -0.4956
  477TIP3    H122922   0.140   0.364  16.811  3.2245  0.7464 -2.4579
  477TIP3    H222923   0.065   0.493  16.788  0.4349 -0.4852 -0.7855
  478TIP3   OH222924   0.190   4.929  15.081 -0.3742  0.0929 -0.0711
  478TIP3    H122925   0.212   4.954  15.171  0.3400 -1.4864  0.2299
  478TIP3    H222926   0.106   4.885  15.089 -2.7297  3.9591 -0.8863
  479TIP3   OH222927   5.896   2.463  16.038  0.1185 -0.9564 -0.4251
  479TIP3    H122928   5.893   2.443  16.132  1.9234 -1.9844 -0.5283
  479TIP3    H222929   5.833   2.403  15.999 -1.4904  0.2542  0.1974
  480TIP3   OH222930   4.590   4.345  17.382 -0.3208 -0.3166  0.0897
  480TIP3    H122931   4.579   4.263  17.335  1.2145  0.5310 -1.9172
  480TIP3    H222932   4.642   4.322  17.460 -2.5274 -1.6717  1.2685
  481TIP3   OH222933   0.246   2.367   3.433  0.8483 -0.1702  0.2767
  481TIP3    H122934   0.271   2.326   3.516  1.3972 -1.1956 -0.3783
  481TIP3    H222935   0.158   2.334   3.416  1.1688 -0.8510 -0.0948
  482TIP3   OH222936   0.367   0.072  14.099 -0.3602  0.1337 -0.4549
  482TIP3    H122937   0.302   0.133  14.134  0.1350  0.4548 -0.0814
  482TIP3    H222938   0.316   0.008  14.050 -1.0357 -0.1076  0.5396
  483TIP3   OH222939   3.911   1.647  17.226 -0.7607  0.0246  0.3573
  483TIP3    H122940   3.943   1.698  17.301  0.2813  1.0367 -0.7229
  483TIP3    H222941   3.985   1.591  17.203 -1.4289 -1.0218  0.6824
  484TIP3   OH222942   3.373   4.222  15.576  0.2533  0.1668 -0.1120
  484TIP3    H122943   3.283   4.253  15.582 -1.1945 -2.2061 -4.5543
  484TIP3    H222944   3.420   4.295  15.535 -0.9261 -0.0912 -2.1102
  485TIP3   OH222945   4.097   2.572  13.482  0.2357  0.0583  0.1183
  485TIP3    H122946   4.022   2.516  13.461 -0.6153  1.3199 -0.3038
  485TIP3    H222947   4.089   2.589  13.576  2.1196 -2.7847  0.9433
  486TIP3   OH222948   5.915   0.530   3.862 -0.6415 -0.1791  0.1804
  486TIP3    H122949   5.883   0.593   3.927  0.3922  1.3561 -0.7296
  486TIP3    H222950   6.007   0.519   3.884 -0.8340 -1.5066  0.3907
  487TIP3   OH222951   1.222   1.842  15.728  0.3895 -0.4667 -0.1982
  487TIP3    H122952   1.194   1.779  15.662  1.4323  0.0785 -1.1942
  487TIP3    H222953   1.270   1.908  15.679 -2.3649  2.2723  0.4352
  488TIP3   OH222954   4.974   2.872  11.647 -0.1145 -0.6206 -0.5521
  488TIP3    H122955   4.981   2.784  11.684  0.0289 -0.5971 -0.5218
  488TIP3    H222956   4.880   2.886  11.636 -0.1410 -0.7536 -0.4989
  489TIP3   OH222957   4.776   6.076  14.068 -0.1295 -0.0750 -0.2643
  489TIP3    H122958   4.740   6.106  13.984  0.2407 -0.9620 -0.7520
  489TIP3    H222959   4.720   6.117  14.133  0.9215  2.4489 -0.8327
  490TIP3   OH222960   2.021   0.540  13.390 -0.0165 -0.1022  0.4193
  490TIP3    H122961   1.970   0.621  13.385 -0.9394 -0.5522  1.7837
  490TIP3    H222962   2.088   0.549  13.322 -1.9833  0.4528 -1.5517
  491TIP3   OH222963   1.250   1.937  12.074 -0.3776 -0.0080 -0.1052
  491TIP3    H122964   1.198   1.903  12.146 -0.0529 -3.9969 -1.4865
  491TIP3    H222965   1.186   1.980  12.017 -1.2816 -0.2966  0.6616
  492TIP3   OH222966   6.193   3.648   1.074  0.0644  0.6702  0.1835
  492TIP3    H122967   6.119   3.615   1.126 -0.6004  0.6193 -0.7664
  492TIP3    H222968   6.154   3.674   0.991  1.1537  0.4603 -0.4142
  493TIP3   OH222969   2.920   1.591  12.596  0.2129  0.2534 -0.3733
  493TIP3    H122970   2.835   1.623  12.624  0.9741  2.7162 -0.6074
  493TIP3    H222971   2.902   1.505  12.557 -2.0091  0.3672  0.2625
  494TIP3   OH222972   3.727   4.400  15.081  0.2114  0.1276 -0.1337
  494TIP3    H122973   3.810   4.386  15.128  0.6332 -0.0808 -0.9212
  494TIP3    H222974   3.718   4.323  15.025 -2.0087 -1.3211  2.0316
  495TIP3   OH222975   5.049   6.495   2.142 -0.1934 -0.4763  0.1816
  495TIP3    H122976   5.050   6.506   2.237  0.9511 -1.1042  0.2616
  495TIP3    H222977   4.959   6.514   2.116 -1.1018 -2.5110  1.6470
  496TIP3   OH222978   6.521   1.405  13.311 -0.0194 -0.0696 -0.2490
  496TIP3    H122979   6.506   1.313  13.334 -0.0120 -0.1685 -0.6220
  496TIP3    H222980   6.453   1.425  13.248 -1.4266  0.8648  1.4919
  497TIP3   OH222981   5.891   1.848   2.407  0.0597  0.0030 -0.7864
  497TIP3    H122982   5.915   1.931   2.448 -2.5356  0.1535  0.6000
  497TIP3    H222983   5.958   1.787   2.438  1.0254  1.1969 -0.4447
  498TIP3   OH222984   3.678   1.213   1.979  0.0973  0.1241  0.1500
  498TIP3    H122985   3.703   1.149   2.046 -0.0543  2.5070  2.6697
  498TIP3    H222986   3.613   1.167   1.926  0.9019 -2.2059  1.0180
  499TIP3   OH222987   2.704   0.918   4.813 -0.1887 -0.1056 -0.1774
  499TIP3    H122988   2.773   0.978   4.786 -0.0902 -0.1445 -0.0068
  499TIP3    H222989   2.744   0.863   4.880 -0.6662  0.5057  0.6230
  500TIP3   OH222990   6.006   4.792   4.635 -0.4017  0.6315 -0.4137
  500TIP3    H122991   6.040   4.799   4.545  0.6103 -0.0105 -0.1007
  500TIP3    H222992   5.985   4.882   4.660 -1.4763  0.7256 -1.5762
  501TIP3   OH222993   5.084   6.441  14.781 -0.5368 -0.6524 -0.6721
  501TIP3    H122994   5.048   6.517  14.826  0.0734 -0.5793 -0.2887
  501TIP3    H222995   5.138   6.397  14.847  1.6198  0.3044 -1.7268
  502TIP3   OH222996   1.553   2.677   3.238 -0.0001  0.1262 -0.8621
  502TIP3    H122997   1.556   2.668   3.143 -1.2363 -1.5864 -0.7920
  502TIP3    H222998   1.552   2.587   3.270 -1.1006  0.6611  0.7098
  503TIP3   OH222999   0.097   0.221  12.106 -0.2268 -0.2557  0.0136
  503TIP3    H123000   0.015   0.183  12.137 -1.1460  1.5429 -0.0465
  503TIP3    H223001   0.096   0.208  12.011 -1.1654  0.9835 -0.1750
  504TIP3   OH223002   1.282   1.265   4.183  0.1785 -0.1898  0.2342
  504TIP3    H123003   1.206   1.234   4.232 -1.8574  1.3069 -1.7889
  504TIP3    H223004   1.321   1.185   4.147 -0.9123 -0.9459  0.6645
  505TIP3   OH223005   4.374   1.147   0.281 -0.2409 -0.1200  0.4036
  505TIP3    H123006   4.403   1.058   0.300  1.7549  0.5656  0.7457
  505TIP3    H223007   4.374   1.191   0.366 -1.9357  0.0647  0.3574
  506TIP3   OH223008   4.896   5.020  10.614  0.2245  0.0898 -0.3876
  506TIP3    H123009   4.961   5.020  10.543  1.9843  1.4679  1.1312
  506TIP3    H223010   4.826   5.077  10.581  0.3147 -0.4526 -1.5759
  507TIP3   OH223011   1.692   0.008   0.190  0.2139 -0.2530 -0.4057
  507TIP3    H123012   1.664   0.092   0.225  0.0983  0.6726 -2.5460
  507TIP3    H223013   1.639  -0.057   0.236 -1.4319  1.0319 -0.4019
  508TIP3   OH223014   5.225   6.303   2.774 -0.0925  0.0686 -0.0188
  508TIP3    H123015   5.150   6.244   2.770 -0.2438  0.0285  2.0789
  508TIP3    H223016   5.289   6.257   2.828  0.3142  1.2379  0.5433
  509TIP3   OH223017   4.015   4.427   1.588 -0.2457  0.6120 -0.1377
  509TIP3    H123018   4.004   4.443   1.494 -0.6404  1.3693  0.0268
  509TIP3    H223019   3.937   4.378   1.614 -0.2866  0.6726 -0.1467
  510TIP3   OH223020   2.001   3.827  15.516  0.7076 -0.1929 -0.2096
  510TIP3    H123021   2.080   3.815  15.569  0.1037 -0.8516  0.5649
  510TIP3    H223022   1.930   3.830  15.579 -0.0364 -1.0198 -0.9773
  511TIP3   OH223023   4.187   5.885   0.586  0.2618 -0.6355  0.2066
  511TIP3    H123024   4.205   5.939   0.664  1.1678  0.1727 -0.5342
  511TIP3    H223025   4.092   5.890   0.575  0.4636  2.6959 -1.1016
  512TIP3   OH223026   6.602   5.000  15.716 -0.1925  0.0085  0.1869
  512TIP3    H123027   6.688   4.981  15.753  0.8319  0.6771 -1.6977
  512TIP3    H223028   6.621   5.041  15.632 -2.3657  0.6970 -0.0340
  513TIP3   OH223029   2.318   3.125   0.976  0.4471 -0.5827 -0.3022
  513TIP3    H123030   2.298   3.171   1.057  0.7823  1.4865 -1.3287
  513TIP3    H223031   2.239   3.133   0.923  1.0522  0.2903 -1.1203
  514TIP3   OH223032   1.694   2.703   1.586 -0.5554  0.3937 -0.2678
  514TIP3    H123033   1.777   2.658   1.565 -0.6502 -0.0802  0.3601
  514TIP3    H223034   1.658   2.654   1.659  0.2034  2.5379  1.6488
  515TIP3   OH223035   6.622   1.545   2.061 -0.0360  0.3421  0.3736
  515TIP3    H123036   6.681   1.470   2.054  0.6072  0.8263  0.5085
  515TIP3    H223037   6.677   1.621   2.041 -1.2992  0.5784 -2.7624
  516TIP3   OH223038   3.379   2.437   5.215  0.4708 -0.2361 -0.3631
  516TIP3    H123039   3.460   2.411   5.259  1.2469 -2.5120 -2.8692
  516TIP3    H223040   3.407   2.476   5.133 -0.9483 -0.4520 -0.9867
  517TIP3   OH223041   6.140   0.604  13.776 -0.2490  0.3762  0.1586
  517TIP3    H123042   6.138   0.550  13.855  0.1977  0.1944  0.0454
  517TIP3    H223043   6.172   0.546  13.708  1.0017  0.9981  0.2024
  518TIP3   OH223044   3.261   3.140  14.138 -0.0432 -0.0223 -0.2285
  518TIP3    H123045   3.243   3.228  14.172 -2.2494 -0.3407 -0.4175
  518TIP3    H223046   3.312   3.155  14.059  1.8119  0.9250  1.0696
  519TIP3   OH223047   1.556   1.511  10.827  0.2610 -0.3291 -0.1839
  519TIP3    H123048   1.578   1.482  10.738  1.7128 -0.2497  0.1146
  519TIP3    H223049   1.463   1.532  10.824 -0.6413 -3.8761 -0.7266
  520TIP3   OH223050   3.875   1.205  13.703 -0.0092 -0.4607  0.2906
  520TIP3    H123051   3.815   1.273  13.734  0.5185  0.7891 -1.2911
  520TIP3    H223052   3.945   1.204  13.769 -0.0911  0.4733  0.4173
  521TIP3   OH223053   2.254   2.554   5.142  0.5563 -0.2127  0.3091
  521TIP3    H123054   2.178   2.512   5.182 -1.7825  2.4412 -0.9310
  521TIP3    H223055   2.300   2.484   5.097 -0.9608 -1.9956  1.4064
  522TIP3   OH223056   5.614   3.060   2.450 -0.1283 -0.2815  0.0080
  522TIP3    H123057   5.637   2.972   2.480 -0.9983 -0.1069  1.2431
  522TIP3    H223058   5.660   3.069   2.366  0.1710 -1.8127 -0.0237
  523TIP3   OH223059   6.508   6.407  11.202  0.0158 -0.6899 -0.4461
  523TIP3    H123060   6.473   6.488  11.164 -1.3088 -1.3798 -0.7484
  523TIP3    H223061   6.601   6.407  11.177 -0.3721 -0.1617 -2.0267
  524TIP3   OH223062   1.544   0.559   6.198  0.3217  0.3314 -0.0311
  524TIP3    H123063   1.553   0.602   6.284  0.2747  0.5805 -0.1494
  524TIP3    H223064   1.624   0.508   6.188 -0.0340 -0.3439  0.5187
  525TIP3   OH223065   6.227   4.605  11.971  0.2867  0.1416 -0.4181
  525TIP3    H123066   6.200   4.661  11.898  1.3391  0.5005 -0.5623
  525TIP3    H223067   6.176   4.636  12.046  0.6443  1.1179 -0.5632
  526TIP3   OH223068   4.798   4.463  14.576  0.1908 -0.1659  0.2309
  526TIP3    H123069   4.840   4.404  14.639 -0.0278  0.7718  1.2818
  526TIP3    H223070   4.705   4.454  14.593 -0.1246 -1.9481 -1.8393
  527TIP3   OH223071   4.053   4.369  13.084 -0.3509 -0.3333  0.0526
  527TIP3    H123072   4.023   4.325  13.004  1.4271  1.9884 -2.0449
  527TIP3    H223073   3.973   4.407  13.121 -0.9095  0.7768 -2.1212
  528TIP3   OH223074   2.011   4.739  15.110  0.4357 -0.1810 -0.5438
  528TIP3    H123075   2.015   4.781  15.196  1.9474  0.1884 -0.7648
  528TIP3    H223076   1.952   4.664  15.122 -0.6240  0.7766  0.3934
  529TIP3   OH223077   5.850   4.438  15.291 -0.0706 -0.7160 -0.3157
  529TIP3    H123078   5.945   4.449  15.294  0.0231 -1.2214 -1.0485
  529TIP3    H223079   5.826   4.410  15.379  0.5726 -1.4138 -0.3528
  530TIP3   OH223080   0.574   0.893  15.460  0.4685  0.2533 -0.4731
  530TIP3    H123081   0.513   0.848  15.518  0.8364 -2.8475 -2.2814
  530TIP3    H223082   0.519   0.942  15.399 -0.1568 -0.9991 -0.9340
  531TIP3   OH223083   4.271   4.728   1.140 -0.1260 -0.1837 -0.5362
  531TIP3    H123084   4.188   4.763   1.170  0.1347  1.1556 -1.2929
  531TIP3    H223085   4.337   4.774   1.192  0.1580 -3.1161  1.9837
  532TIP3   OH223086   6.701   2.121  11.066  0.3585  0.3299 -0.0706
  532TIP3    H123087   6.763   2.191  11.086 -1.1072  1.7880 -0.4294
  532TIP3    H223088   6.637   2.161  11.007 -0.6553 -1.2622 -0.1215
  533TIP3   OH223089   0.774   5.003  14.685 -0.4351  0.6367  0.3357
  533TIP3    H123090   0.752   4.966  14.771 -0.6404  0.2733  0.1301
  533TIP3    H223091   0.869   5.019  14.690 -0.4862  0.8468  0.7136
  534TIP3   OH223092   1.257   0.544   1.309  0.5720  0.0678  0.7990
  534TIP3    H123093   1.305   0.499   1.378  1.6751  0.8550  0.5590
  534TIP3    H223094   1.267   0.488   1.232 -0.8493 -0.9273  1.2905
  535TIP3   OH223095   4.005   4.979  16.595 -0.3757  0.6729 -0.2040
  535TIP3    H123096   3.914   5.000  16.574 -1.2173 -2.2667  0.0475
  535TIP3    H223097   4.003   4.960  16.689  0.4786  0.4196 -0.2372
  536TIP3   OH223098   0.085   4.635  11.348 -0.3170  0.4993 -0.3984
  536TIP3    H123099  -0.005   4.605  11.332 -0.8787  0.2080  2.6645
  536TIP3    H223100   0.078   4.731  11.344 -0.3372  0.4651 -1.8599
  537TIP3   OH223101   3.677   0.123   4.546 -0.0138 -0.5043  0.0095
  537TIP3    H123102   3.706   0.150   4.459  0.8987  1.2133  0.7989
  537TIP3    H223103   3.735   0.050   4.569  0.3181 -0.3905 -0.4642
  538TIP3   OH223104   5.291   2.989  12.933  0.4159  0.3179  0.4052
  538TIP3    H123105   5.205   3.025  12.953  0.3680  1.1098 -1.0761
  538TIP3    H223106   5.315   2.939  13.011 -1.1703  0.4663  1.0264
  539TIP3   OH223107   0.763   4.845  16.898  0.2812 -0.3899  0.0071
  539TIP3    H123108   0.761   4.910  16.969 -0.2752 -1.7361  1.2727
  539TIP3    H223109   0.847   4.801  16.908  0.6618  0.1179 -0.8556
  540TIP3   OH223110   4.133   1.878  11.712 -0.2070 -0.2355  0.5343
  540TIP3    H123111   4.135   1.947  11.777  0.1420 -0.6678  0.9923
  540TIP3    H223112   4.041   1.849  11.710 -0.2275 -0.1935  0.8081
  541TIP3   OH223113   2.211   4.572   0.470 -0.0158  0.1565  0.4041
  541TIP3    H123114   2.248   4.607   0.389  0.8814  0.8119  1.0753
  541TIP3    H223115   2.282   4.522   0.510 -0.1075  0.7128  1.2969
  542TIP3   OH223116   6.219   2.272   1.484 -0.1814  0.1853  0.2600
  542TIP3    H123117   6.234   2.355   1.441 -0.4890  0.4737  0.6962
  542TIP3    H223118   6.245   2.206   1.420 -1.3717  0.5799 -0.6745
  543TIP3   OH223119   1.100   6.667  14.116 -0.6700  0.3974  0.3028
  543TIP3    H123120   1.157   6.693  14.043 -0.1431 -2.7335 -0.5412
  543TIP3    H223121   1.020   6.719  14.103  0.2769  1.5821 -1.1457
  544TIP3   OH223122   1.688   3.266  12.406 -0.7078 -0.3305 -0.0397
  544TIP3    H123123   1.605   3.229  12.377 -1.5779  0.6220  1.1389
  544TIP3    H223124   1.724   3.200  12.465 -0.1273 -1.1767 -1.3067
  545TIP3   OH223125   1.281   3.946   1.548  0.2729 -0.3995  0.6080
  545TIP3    H123126   1.335   3.912   1.477  1.0539 -0.0757  1.0376
  545TIP3    H223127   1.219   4.004   1.505  1.5616  0.8071  0.2992
  546TIP3   OH223128   4.967   4.345   5.343  0.2261 -0.0845 -0.4540
  546TIP3    H123129   5.003   4.432   5.357  1.8548 -0.5034 -1.6966
  546TIP3    H223130   4.895   4.358   5.281  0.3664  0.3982 -0.5194
  547TIP3   OH223131   0.581   3.829  12.208  0.0281  0.3226 -0.8424
  547TIP3    H123132   0.615   3.857  12.123  0.8591 -0.3586 -0.7390
  547TIP3    H223133   0.641   3.868  12.272  1.3981 -1.8800 -0.7035
  548TIP3   OH223134   2.061   0.497  14.186  0.1981 -0.0835  0.3631
  548TIP3    H123135   2.122   0.556  14.230  3.3256 -0.4167 -3.0881
  548TIP3    H223136   2.095   0.489  14.097 -3.0678 -3.0236 -0.8390
  549TIP3   OH223137   4.852   3.158   1.627  0.0892  0.1848 -0.4295
  549TIP3    H123138   4.805   3.235   1.658  2.0109  0.8347  1.0570
  549TIP3    H223139   4.784   3.097   1.600 -1.5408  1.5354  0.4927
  550TIP3   OH223140   3.879   1.821  11.778 -0.1291 -0.3966 -0.4043
  550TIP3    H123141   3.856   1.814  11.871 -0.3221  0.3167 -0.3967
  550TIP3    H223142   3.797   1.840  11.734  0.1274  0.2829 -0.5992
  551TIP3   OH223143   5.470   5.875   1.566 -0.1566  0.3678 -0.1045
  551TIP3    H123144   5.494   5.941   1.631  0.2080 -1.1752  1.3994
  551TIP3    H223145   5.491   5.791   1.607 -0.5685 -0.7151 -1.9564
  552TIP3   OH223146   2.247   2.459   0.980 -0.1564  0.2608 -0.0050
  552TIP3    H123147   2.158   2.486   1.003 -0.6305  0.5582 -2.0222
  552TIP3    H223148   2.243   2.363   0.979  0.5191  0.0610  3.2905
  553TIP3   OH223149   0.462   0.511   0.733  0.3370 -0.3801  0.0657
  553TIP3    H123150   0.440   0.507   0.826 -0.3415  0.8942 -0.0217
  553TIP3    H223151   0.430   0.428   0.697 -0.5804 -0.3281  0.7243
  554TIP3   OH223152   2.579   4.429   4.747  0.1612  0.2082 -0.2127
  554TIP3    H123153   2.638   4.493   4.787 -1.2405  0.7519  1.0686
  554TIP3    H223154   2.494   4.446   4.786 -0.3938 -2.0825 -0.2466
  555TIP3   OH223155   1.394   3.139   6.560 -0.5613 -0.3827 -0.6656
  555TIP3    H123156   1.335   3.141   6.635  0.1854  1.8450 -0.0689
  555TIP3    H223157   1.477   3.108   6.595  0.3295  2.3891 -0.0252
  556TIP3   OH223158   1.539   3.992   2.069 -0.4283  0.6414 -0.5883
  556TIP3    H123159   1.603   3.966   2.136 -0.3347 -2.1166 -1.6220
  556TIP3    H223160   1.455   3.964   2.104 -0.3060 -1.4425 -1.8197
  557TIP3   OH223161   0.382   2.844   4.800  0.3433  0.4324 -0.4888
  557TIP3    H123162   0.376   2.753   4.774 -1.4971  0.2987  0.2228
  557TIP3    H223163   0.474   2.866   4.791  1.1509 -2.0069  0.9717
  558TIP3   OH223164   1.157   3.649  15.888  0.6392  0.1979 -0.1584
  558TIP3    H123165   1.085   3.587  15.878  1.4148 -0.8456  0.5332
  558TIP3    H223166   1.138   3.694  15.970 -0.0792  1.1293 -0.8061
  559TIP3   OH223167   5.031   4.065   3.520  0.1265  0.0562  0.2484
  559TIP3    H123168   4.951   4.013   3.531  0.1841  0.0921  0.8519
  559TIP3    H223169   5.059   4.085   3.609  2.0482 -1.8486  0.1604
  560TIP3   OH223170   2.815   4.321   1.847 -0.7655  0.1823  0.4713
  560TIP3    H123171   2.887   4.305   1.786 -1.0410 -0.2854  0.2624
  560TIP3    H223172   2.821   4.414   1.867 -1.4981  0.6683 -1.3463
  561TIP3   OH223173   3.005   0.110   0.402 -0.3104 -0.4609  0.5677
  561TIP3    H123174   2.976   0.023   0.429  1.4035 -0.9207  1.0393
  561TIP3    H223175   3.053   0.095   0.320  0.0962  0.0274  0.7122
  562TIP3   OH223176   0.582   4.559  13.622  0.3241  0.4292  0.0269
  562TIP3    H123177   0.570   4.610  13.542  1.4762  1.7765  0.6685
  562TIP3    H223178   0.641   4.612  13.675 -0.6523 -0.2867  1.9095
  563TIP3   OH223179   0.551   0.388  14.956 -0.0493 -0.1900  0.8275
  563TIP3    H123180   0.562   0.468  14.906  1.6783 -0.5337  0.5644
  563TIP3    H223181   0.520   0.417  15.042  0.6988  0.7942  0.7850
  564TIP3   OH223182   3.270   4.440  17.402 -0.4478 -0.0325 -0.1774
  564TIP3    H123183   3.259   4.479  17.315 -2.6602 -1.9183 -0.8316
  564TIP3    H223184   3.184   4.450  17.443  0.2371 -0.2323  1.3444
  565TIP3   OH223185   3.051   2.865   1.782  0.3376 -0.4719  0.2289
  565TIP3    H123186   3.067   2.822   1.866 -1.6281 -1.5241  0.1164
  565TIP3    H223187   2.986   2.932   1.801 -1.1087 -1.5768 -0.6239
  566TIP3   OH223188   3.569   3.949   0.250  0.2330  0.1685  0.0994
  566TIP3    H123189   3.484   3.907   0.261  1.0287 -1.5914 -0.2481
  566TIP3    H223190   3.614   3.896   0.185  1.8389  0.7189  0.7288
  567TIP3   OH223191   6.002   5.147   2.633 -0.4010 -0.2377 -0.4600
  567TIP3    H123192   5.994   5.241   2.651  3.8032 -0.1242  1.9656
  567TIP3    H223193   6.062   5.142   2.559  0.6402 -0.9480  0.3989
  568TIP3   OH223194   0.501   0.042  13.366 -0.6618  0.6452 -0.2144
  568TIP3    H123195   0.526   0.024  13.457  0.4188  2.3556 -0.1325
  568TIP3    H223196   0.584   0.038  13.318 -1.3689 -1.4796 -1.4059
  569TIP3   OH223197   2.960   5.917   4.035  0.1551  0.4626  0.2731
  569TIP3    H123198   2.999   5.996   3.998 -1.7413  0.6893 -1.4210
  569TIP3    H223199   2.876   5.946   4.071 -1.1500 -0.9085 -1.4742
  570TIP3   OH223200   5.051   3.181  13.330 -0.5972  0.7786  0.5091
  570TIP3    H123201   5.002   3.249  13.284 -0.5818  0.5300  0.1197
  570TIP3    H223202   5.033   3.197  13.423 -1.9762  0.2965  0.3571
  571TIP3   OH223203   1.813   0.974  15.756 -0.2153  0.0266 -0.1239
  571TIP3    H123204   1.885   0.912  15.763  0.5429  0.7318 -1.3708
  571TIP3    H223205   1.820   1.029  15.833  0.0605 -0.4410  0.1858
  572TIP3   OH223206   5.474   2.104   4.850 -0.1601  0.2222  0.3636
  572TIP3    H123207   5.433   2.134   4.768  1.3910 -0.0777 -0.5556
  572TIP3    H223208   5.416   2.035   4.882 -0.0698 -0.6318 -1.2365
  573TIP3   OH223209   1.255   3.403  13.515 -0.4235 -0.0091 -0.0818
  573TIP3    H123210   1.323   3.336  13.523 -0.5006 -0.2290 -1.0437
  573TIP3    H223211   1.239   3.408  13.420 -0.7190  1.0679  0.0191
  574TIP3   OH223212   2.846   4.153  17.304  0.2483 -0.0359  0.2438
  574TIP3    H123213   2.917   4.125  17.362 -0.5563  0.1422  1.3415
  574TIP3    H223214   2.832   4.078  17.246  0.8054 -0.3687  0.5271
  575TIP3   OH223215   0.890   3.983   4.875 -0.2546  0.2647  0.1750
  575TIP3    H123216   0.977   3.972   4.913 -0.1236 -2.8013 -0.8069
  575TIP3    H223217   0.831   3.984   4.951  0.3359 -1.7981  0.7191
  576TIP3   OH223218   3.788   4.389  14.050 -0.2638 -0.7425  0.5553
  576TIP3    H123219   3.740   4.434  14.119 -1.4277 -2.5348  0.9868
  576TIP3    H223220   3.762   4.297  14.059  0.1082 -1.1365 -1.8129
  577TIP3   OH223221   5.961   0.533  14.212 -0.3264 -0.1112  0.5618
  577TIP3    H123222   5.903   0.567  14.281 -2.1521 -1.9535  0.0280
  577TIP3    H223223   5.996   0.452  14.248  0.3368 -0.0431  0.0860
  578TIP3   OH223224   2.416   1.268   4.021 -0.3335 -0.9246 -0.6383
  578TIP3    H123225   2.424   1.179   4.057  0.2592 -1.0029 -0.9595
  578TIP3    H223226   2.505   1.292   3.997 -0.1612  0.5233  1.2444
  579TIP3   OH223227   1.195   2.971  10.988  0.0830  0.8314  0.3331
  579TIP3    H123228   1.231   3.054  11.018  1.7099  0.2556  0.1103
  579TIP3    H223229   1.193   2.978  10.892 -1.0953  1.1156  0.3706
  580TIP3   OH223230   6.621   5.885  16.639 -0.4299 -0.3345  0.5396
  580TIP3    H123231   6.579   5.826  16.576 -0.9634  0.0465  0.5393
  580TIP3    H223232   6.584   5.859  16.723  1.0079 -1.5098  0.8554
  581TIP3   OH223233   0.913   0.018  13.554  0.2744 -0.0171  0.2399
  581TIP3    H123234   0.912  -0.005  13.647  0.0701  0.2055  0.2917
  581TIP3    H223235   0.836   0.072  13.542 -0.8823 -1.7592 -0.4953
  582TIP3   OH223236   2.451   6.118   6.764  0.1076 -0.1246  0.8341
  582TIP3    H123237   2.479   6.097   6.675 -1.9033  1.1288 -0.1858
  582TIP3    H223238   2.454   6.035   6.811  0.3220 -0.9928 -0.6565
  583TIP3   OH223239   3.024   1.307   0.149  0.7365 -0.0065 -0.4320
  583TIP3    H123240   2.979   1.302   0.064 -0.9259  0.7193  0.3566
  583TIP3    H223241   3.017   1.399   0.174 -1.5367 -0.6998  1.8628
  584TIP3   OH223242   5.573   0.236  14.214  0.5734  0.2430  0.7125
  584TIP3    H123243   5.556   0.144  14.235 -0.4968 -0.4458 -2.6132
  584TIP3    H223244   5.496   0.264  14.164  1.7704  2.3361 -0.0809
  585TIP3   OH223245   4.652   5.689  13.393  0.2375  0.3014  0.0095
  585TIP3    H123246   4.688   5.703  13.481  5.1646 -4.1965 -0.7173
  585TIP3    H223247   4.571   5.639  13.408  0.8084 -0.1100  2.0732
  586TIP3   OH223248   4.825   1.560  15.198  0.1653  0.0759 -0.2819
  586TIP3    H123249   4.887   1.500  15.157 -0.1447 -0.0476 -0.5766
  586TIP3    H223250   4.820   1.634  15.138  1.5515  1.0336  0.7138
  587TIP3   OH223251   2.804   6.750  17.452 -0.1656  0.0782  0.2453
  587TIP3    H123252   2.851   6.763  17.370  1.0410 -0.6581  0.7928
  587TIP3    H223253   2.791   6.656  17.459  0.2690  0.0738  1.1733
  588TIP3   OH223254   4.449   2.412   5.288 -0.1658 -0.2542 -0.0385
  588TIP3    H123255   4.419   2.325   5.261  2.6035 -1.8388  1.5613
  588TIP3    H223256   4.410   2.424   5.375 -0.3099  0.0158 -0.1372
  589TIP3   OH223257   1.042   1.780   3.646  0.1471 -0.1624  0.3441
  589TIP3    H123258   1.070   1.867   3.674 -0.7655 -0.2830  1.7966
  589TIP3    H223259   1.087   1.720   3.706 -1.2163 -0.4905  1.1044
  590TIP3   OH223260   5.197   5.184  14.971  0.2063 -0.3320  0.5655
  590TIP3    H123261   5.122   5.129  14.950  1.1703 -1.5191  0.1097
  590TIP3    H223262   5.222   5.158  15.060  0.9298 -0.9660  0.1875
  591TIP3   OH223263   0.050   5.597   2.766  0.1503  0.1615  0.1565
  591TIP3    H123264   0.105   5.654   2.820  0.3004 -1.1174  1.3960
  591TIP3    H223265  -0.023   5.573   2.823 -0.3873 -0.1676 -0.6522
  592TIP3   OH223266   3.680   5.150   0.278 -0.0879  0.0509 -0.5469
  592TIP3    H123267   3.689   5.177   0.369 -0.2412 -1.3011 -0.1098
  592TIP3    H223268   3.764   5.111   0.256 -0.7074 -1.5312 -0.2873
  593TIP3   OH223269   3.785   1.989   1.692  0.0108  0.7281  0.0706
  593TIP3    H123270   3.718   2.058   1.685  0.3934  1.1453  0.4624
  593TIP3    H223271   3.773   1.936   1.613 -0.6894  0.8829  0.0657
  594TIP3   OH223272   1.304   0.319   2.202  0.4222 -0.5557  0.5090
  594TIP3    H123273   1.317   0.410   2.227 -0.4453  0.0888 -1.2522
  594TIP3    H223274   1.211   0.313   2.180  0.7548 -1.5048 -0.7830
  595TIP3   OH223275   0.943   0.181  12.028  0.3106  0.3096 -0.1507
  595TIP3    H123276   0.977   0.261  12.068  1.3727  0.0487 -0.4856
  595TIP3    H223277   0.886   0.143  12.094  0.9656  0.5878  0.5890
  596TIP3   OH223278   0.144   1.015   3.687 -0.0471 -0.7590 -0.6256
  596TIP3    H123279   0.179   1.091   3.735 -2.3048  0.1533 -0.2724
  596TIP3    H223280   0.068   0.988   3.739  0.0469 -2.5732 -1.3704
  597TIP3   OH223281   0.991   2.852   4.231 -0.4747  0.0327  0.2536
  597TIP3    H123282   1.073   2.889   4.199 -0.4692  0.6754  0.9686
  597TIP3    H223283   1.014   2.814   4.316 -0.5928 -1.1973 -0.2358
  598TIP3   OH223284   2.693   4.960   5.242 -0.1164 -0.1778 -0.2141
  598TIP3    H123285   2.633   4.993   5.309 -1.2545  1.5107 -1.9588
  598TIP3    H223286   2.649   4.882   5.207 -1.6768  1.3216 -1.8216
  599TIP3   OH223287   4.686   6.073   0.730 -0.4529 -0.1410 -0.4348
  599TIP3    H123288   4.682   6.054   0.824  1.5943 -0.5333 -0.3757
  599TIP3    H223289   4.769   6.120   0.719 -0.3996 -0.5789 -2.1308
  600TIP3   OH223290   0.462   4.706  16.289 -0.3019  0.1639 -0.5211
  600TIP3    H123291   0.437   4.783  16.239  0.0807  0.3519 -0.4239
  600TIP3    H223292   0.380   4.659  16.304 -0.3910 -0.0512 -1.5902
  601TIP3   OH223293   0.687   3.473   4.318 -0.6484 -0.3258  0.1840
  601TIP3    H123294   0.641   3.545   4.363  0.5442 -0.5309  1.8244
  601TIP3    H223295   0.721   3.512   4.238 -0.3934  0.8361  0.8396
  602TIP3   OH223296   1.232   2.932   1.359  0.6918 -0.2197  0.2274
  602TIP3    H123297   1.211   2.839   1.355  0.8659 -0.2294 -0.6295
  602TIP3    H223298   1.328   2.935   1.356  0.6998 -0.0286  0.6307
  603TIP3   OH223299   4.247   4.458  11.816 -0.1390 -0.4893  0.1726
  603TIP3    H123300   4.225   4.415  11.733  1.3675  1.7959 -1.5153
  603TIP3    H223301   4.191   4.535  11.819  0.9799  0.3264  0.4634
  604TIP3   OH223302   3.347   3.683   4.237  0.8014  0.8068 -0.0118
  604TIP3    H123303   3.365   3.629   4.160  1.5780 -0.8261  1.2486
  604TIP3    H223304   3.276   3.638   4.282  1.3675  0.8897  0.9875
  605TIP3   OH223305   6.073   0.963   3.438  0.6970 -0.4515  0.8243
  605TIP3    H123306   6.009   0.896   3.461 -0.3329  0.9769  2.4053
  605TIP3    H223307   6.142   0.953   3.504  1.3613 -1.0101  0.0507
  606TIP3   OH223308   2.543   5.131   0.627  0.2740 -0.3734  0.5763
  606TIP3    H123309   2.501   5.069   0.568  0.3536  0.5107 -0.4256
  606TIP3    H223310   2.484   5.206   0.630  1.2763  0.4537 -0.0366
  607TIP3   OH223311   4.200   3.727  10.400 -0.3261 -0.7084  0.2096
  607TIP3    H123312   4.124   3.709  10.455 -0.5602 -0.4364 -0.0175
  607TIP3    H223313   4.276   3.715  10.458 -0.6183  0.9715  0.9833
  608TIP3   OH223314   0.922   1.611  11.740 -0.5798 -0.3305 -0.1606
  608TIP3    H123315   0.897   1.520  11.728  2.1108 -1.0841 -0.7787
  608TIP3    H223316   1.016   1.612  11.724 -0.7557  2.8598 -1.8736
  609TIP3   OH223317   6.085   2.810   0.409  0.0617  0.3276  0.3550
  609TIP3    H123318   6.108   2.873   0.477  0.0877  1.0083 -0.2823
  609TIP3    H223319   6.168   2.782   0.372  0.0521 -0.1059  0.6413
  610TIP3   OH223320   5.211   3.749   2.221 -0.0909  0.4925  0.7856
  610TIP3    H123321   5.302   3.721   2.225  0.6989  2.2600 -2.2101
  610TIP3    H223322   5.203   3.814   2.291  0.2918 -1.0347  2.3535
  611TIP3   OH223323   0.746   4.761   3.149  0.6344 -0.3172  0.6044
  611TIP3    H123324   0.695   4.682   3.138  0.4600 -0.1963  0.5470
  611TIP3    H223325   0.828   4.744   3.101 -0.3507  0.4373 -1.4599
  612TIP3   OH223326   4.119   0.026   4.977  0.9345  0.1027  0.0036
  612TIP3    H123327   4.214   0.031   4.977  0.8576  2.6174  0.3429
  612TIP3    H223328   4.093   0.042   5.068  0.1831 -0.3744 -0.1168
  613TIP3   OH223329   1.933   3.767  12.256 -0.6542  0.0894 -0.0560
  613TIP3    H123330   1.881   3.765  12.175  1.4163 -0.8813 -1.4403
  613TIP3    H223331   1.912   3.685  12.300  0.6008 -0.9092 -1.2530
  614TIP3   OH223332   2.641   4.792  14.043 -1.0038 -0.5782 -0.7070
  614TIP3    H123333   2.572   4.736  14.078 -0.0536 -0.9419  0.7065
  614TIP3    H223334   2.620   4.879  14.076 -0.9046 -0.6606 -0.4134
  615TIP3   OH223335   4.672   4.798  16.873  0.4055  0.7466  0.6011
  615TIP3    H123336   4.642   4.745  16.799  0.4674  0.3265  0.8821
  615TIP3    H223337   4.723   4.739  16.927 -0.4061  0.8195  1.4681
  616TIP3   OH223338   2.033   5.371   1.703  0.0086 -0.5984 -0.3212
  616TIP3    H123339   2.055   5.365   1.610  1.2660  0.4928 -0.1256
  616TIP3    H223340   2.091   5.439   1.737 -0.4978 -0.9101  1.2490
  617TIP3   OH223341   0.027   0.206   2.024  0.6330 -0.1846  0.2537
  617TIP3    H123342   0.014   0.111   2.031  1.2041 -0.3383 -0.5453
  617TIP3    H223343   0.069   0.217   1.939 -2.9484  1.1386 -1.5664
  618TIP3   OH223344   3.959   3.867   1.017 -0.1082  0.3878  0.2010
  618TIP3    H123345   4.008   3.810   1.076 -0.1245  0.7835  0.6021
  618TIP3    H223346   3.867   3.852   1.042 -0.1102  0.6105  0.3287
  619TIP3   OH223347   5.992   0.609   1.472 -0.2343 -0.5124  0.3490
  619TIP3    H123348   5.989   0.692   1.520  1.9176 -0.2690  0.1567
  619TIP3    H223349   5.944   0.547   1.526 -1.5496  0.7579  0.6836
  620TIP3   OH223350   2.248   4.713  14.371  0.0613  0.1222 -0.5348
  620TIP3    H123351   2.154   4.710  14.391 -0.4711 -1.1329 -2.8055
  620TIP3    H223352   2.285   4.771  14.438 -2.3942  1.0606  0.1387
  621TIP3   OH223353   2.342   4.099  15.004 -0.6160 -0.3500  0.2964
  621TIP3    H123354   2.368   4.180  14.960 -2.1184  0.6490  1.1596
  621TIP3    H223355   2.419   4.042  14.997  0.5784  1.2424 -0.0985
  622TIP3   OH223356   3.430   0.011   3.108  0.2575 -0.4365 -1.0431
  622TIP3    H123357   3.436   0.102   3.138 -4.2681 -0.1575 -0.1967
  622TIP3    H223358   3.469  -0.040   3.179  0.2830  0.7523 -0.1672
  623TIP3   OH223359   5.202   2.197   2.378  0.4361 -0.1397  0.8521
  623TIP3    H123360   5.295   2.215   2.394  0.1024  2.5010  0.3251
  623TIP3    H223361   5.169   2.278   2.339 -2.3005 -0.6648  1.8796
  624TIP3   OH223362   5.204   4.095  11.596 -0.3688  0.0806 -0.1465
  624TIP3    H123363   5.149   4.067  11.669  1.4741 -1.6628  0.6796
  624TIP3    H223364   5.217   4.015  11.544  0.6720  0.6248 -0.7742
  625TIP3   OH223365   5.622   3.369   1.919  0.2533  0.4243 -0.2074
  625TIP3    H123366   5.546   3.427   1.911 -0.3947 -0.3073  0.5708
  625TIP3    H223367   5.666   3.376   1.833 -1.4601 -0.2131 -1.1807
  626TIP3   OH223368   5.398   5.222  14.763 -0.0561  0.6744  0.2914
  626TIP3    H123369   5.410   5.317  14.761 -1.7060  0.9272  0.7899
  626TIP3    H223370   5.317   5.209  14.813 -1.0651 -0.8362 -1.5927
  627TIP3   OH223371   3.465   3.050  15.552 -0.4004  0.4367  0.0730
  627TIP3    H123372   3.526   3.116  15.585  0.6466 -1.1628  1.4575
  627TIP3    H223373   3.405   3.100  15.497  0.9599  2.3829  0.2289
  628TIP3   OH223374   3.215   6.351   6.246 -0.3325 -0.2133  0.4735
  628TIP3    H123375   3.224   6.256   6.244 -0.3487 -0.2413  1.3408
  628TIP3    H223376   3.187   6.371   6.336 -1.8177  0.4803 -0.1136
  629TIP3   OH223377   6.560   1.674   4.214  0.5808 -0.7590 -0.3570
  629TIP3    H123378   6.609   1.650   4.135  0.6415 -1.5398 -0.0909
  629TIP3    H223379   6.520   1.592   4.244  1.8033 -0.8210  1.2813
  630TIP3   OH223380   6.738   6.176  12.283 -0.1406  0.1010 -0.9927
  630TIP3    H123381   6.746   6.153  12.376 -1.4335 -0.0618 -0.8923
  630TIP3    H223382   6.827   6.175  12.250  0.3802  0.4730  0.3265
  631TIP3   OH223383   0.699   5.211   0.585 -0.0943 -0.6606  0.0680
  631TIP3    H123384   0.682   5.123   0.618  1.7707 -0.7444  0.9570
  631TIP3    H223385   0.705   5.265   0.664  1.2470 -0.2389 -0.2905
  632TIP3   OH223386   3.782   3.926  13.539 -0.1789  0.6391 -0.1965
  632TIP3    H123387   3.721   3.934  13.613  0.8724 -0.6346  0.8745
  632TIP3    H223388   3.857   3.980  13.565  0.8409 -0.9887  0.4406
  633TIP3   OH223389   3.169   0.791  12.237 -0.1722  0.2567 -0.2141
  633TIP3    H123390   3.192   0.706  12.200 -0.1160  0.1530  0.0606
  633TIP3    H223391   3.217   0.854  12.182  0.7759  0.0467  0.3371
  634TIP3   OH223392   5.432   1.730   3.935  0.4156  0.0331  0.0965
  634TIP3    H123393   5.525   1.709   3.943  0.7931  1.8810  0.8881
  634TIP3    H223394   5.404   1.750   4.024 -0.5755  0.2277 -0.2458
  635TIP3   OH223395   2.979   1.059   5.423  0.3180 -0.0110  0.1149
  635TIP3    H123396   2.921   1.104   5.361  1.1913 -0.5154 -1.1194
  635TIP3    H223397   3.064   1.102   5.411  0.7417 -0.8105  0.2108
  636TIP3   OH223398   3.427   6.048  16.339 -0.9122  0.5518  0.2267
  636TIP3    H123399   3.439   6.068  16.247  0.0719  0.6536  0.3621
  636TIP3    H223400   3.335   6.069  16.357 -1.2054  0.1845 -0.8022
  637TIP3   OH223401   2.026   3.223  16.217 -0.0087 -0.0809 -0.1999
  637TIP3    H123402   2.059   3.158  16.279  0.0637  1.9498  2.0312
  637TIP3    H223403   1.932   3.205  16.212 -0.2217  0.4396  1.4696
  638TIP3   OH223404   0.904   4.517   1.169 -0.0157 -0.0199 -0.7746
  638TIP3    H123405   0.896   4.458   1.244 -0.2863 -0.8441 -1.4270
  638TIP3    H223406   0.932   4.601   1.206 -1.3259 -0.0603  0.3871
  639TIP3   OH223407   4.400   6.466  17.130 -0.1874  0.0054  0.5975
  639TIP3    H123408   4.309   6.436  17.132  0.1845 -1.3417 -1.0614
  639TIP3    H223409   4.436   6.439  17.215 -0.6295 -1.8557  0.2290
  640TIP3   OH223410   1.284   5.939   4.145 -0.0071 -0.1962  0.2728
  640TIP3    H123411   1.214   5.976   4.090 -0.9942 -1.9250  0.2806
  640TIP3    H223412   1.323   5.872   4.090  1.0655  0.1406  0.6092
  641TIP3   OH223413   6.304   6.000   5.553 -0.0322  0.6955  0.7090
  641TIP3    H123414   6.222   6.038   5.521  0.1971  0.7918  0.2251
  641TIP3    H223415   6.372   6.057   5.517  0.4363 -1.0851 -1.4164
  642TIP3   OH223416   5.051   3.225   5.505  0.5825  0.0905 -0.0321
  642TIP3    H123417   5.009   3.156   5.454 -2.4416  0.5413  1.6211
  642TIP3    H223418   5.087   3.285   5.439 -0.3335 -0.9627 -1.5559
  643TIP3   OH223419   6.671   1.044  11.299 -0.5117  0.2528  0.0111
  643TIP3    H123420   6.679   0.953  11.328  0.0654  0.6182  1.0933
  643TIP3    H223421   6.588   1.075  11.337  0.9939  1.2115  2.8719
  644TIP3   OH223422   0.235   3.824  15.850 -0.0653  0.0254 -0.0777
  644TIP3    H123423   0.245   3.882  15.774  0.6172 -0.5919 -0.4742
  644TIP3    H223424   0.210   3.883  15.921 -0.1414  0.7032 -0.6445
  645TIP3   OH223425   3.690   1.920  16.303  0.0332 -0.1205  0.2691
  645TIP3    H123426   3.758   1.979  16.271 -1.7176  2.1416  0.4765
  645TIP3    H223427   3.697   1.926  16.399 -0.1645 -0.2107  0.2895
  646TIP3   OH223428   4.842   1.990   3.077 -0.2286 -0.1354 -0.2500
  646TIP3    H123429   4.767   2.048   3.064 -1.2592 -0.6171  2.7456
  646TIP3    H223430   4.906   2.044   3.125  0.0236 -0.6435 -0.0111
  647TIP3   OH223431   2.227   0.052  14.999  0.1720  0.5563  0.0543
  647TIP3    H123432   2.200   0.123  14.942  2.1715  1.6936  0.4089
  647TIP3    H223433   2.270  -0.011  14.941  0.5116  0.8006  0.0354
  648TIP3   OH223434   0.445   3.222  15.198 -0.1403  0.4461  0.3405
  648TIP3    H123435   0.464   3.269  15.117  0.8066 -0.5425 -0.0511
  648TIP3    H223436   0.527   3.228  15.248  0.0908 -0.9427  0.1694
  649TIP3   OH223437   4.194   2.960  12.642  0.2636 -0.3382  0.3154
  649TIP3    H123438   4.232   2.899  12.705 -1.5623 -1.6323  0.2274
  649TIP3    H223439   4.172   3.037  12.694 -0.4980 -1.0819  1.1120
  650TIP3   OH223440   2.571   6.357  15.464 -0.2309 -0.1337  0.0598
  650TIP3    H123441   2.506   6.364  15.393 -1.0800 -1.3792  0.6782
  650TIP3    H223442   2.653   6.335  15.419 -0.6544 -0.4686 -0.5686
  651TIP3   OH223443   4.760   5.328  16.727 -0.7227  0.0404 -0.4531
  651TIP3    H123444   4.827   5.388  16.757 -1.4466  1.2831 -1.2231
  651TIP3    H223445   4.803   5.275  16.659 -0.8517  1.8216 -1.9999
  652TIP3   OH223446   6.563   1.073  14.361  0.7228  0.2395 -0.4186
  652TIP3    H123447   6.645   1.057  14.314  0.8120 -4.8461  0.8824
  652TIP3    H223448   6.590   1.102  14.448  0.9677  1.0100 -0.7431
  653TIP3   OH223449   0.369   4.649  11.624  0.2993  0.1252 -0.1239
  653TIP3    H123450   0.384   4.719  11.561  1.4210  0.8898  0.9485
  653TIP3    H223451   0.281   4.663  11.656  0.9063  1.7663  0.9105
  654TIP3   OH223452   5.775   3.983   5.878  0.1924 -0.2565 -0.2876
  654TIP3    H123453   5.694   3.994   5.928  0.4104  0.2719 -0.0365
  654TIP3    H223454   5.839   3.949   5.941  0.2873 -0.2349 -0.3712
  655TIP3   OH223455   4.875   1.463  11.777  0.2355  0.3291  0.0328
  655TIP3    H123456   4.875   1.478  11.872 -0.5575  1.8482 -0.1667
  655TIP3    H223457   4.843   1.545  11.740  0.9751 -0.0712 -1.5943
  656TIP3   OH223458   4.665   6.565  12.361 -0.0106  0.1368  0.4683
  656TIP3    H123459   4.761   6.570  12.354 -0.0075  0.6150  0.8329
  656TIP3    H223460   4.650   6.520  12.445 -0.0995  4.0683  2.8231
  657TIP3   OH223461   4.846   3.843   0.327 -0.2221  0.7337 -0.0496
  657TIP3    H123462   4.848   3.799   0.412  1.6096  1.7956  0.5289
  657TIP3    H223463   4.910   3.795   0.274 -2.6600 -1.1001 -1.5530
  658TIP3   OH223464   2.505   4.623   0.486 -0.3116 -0.2043 -0.0487
  658TIP3    H123465   2.542   4.583   0.407  2.1379 -0.0030  0.9096
  658TIP3    H223466   2.514   4.556   0.553  1.3886  0.9456  0.9539
  659TIP3   OH223467   0.631   2.900   5.273 -0.5322 -0.2606  0.2479
  659TIP3    H123468   0.571   2.902   5.199  0.8798 -0.5424 -0.9543
  659TIP3    H223469   0.600   2.969   5.331 -1.7516 -0.1172 -0.5327
  660TIP3   OH223470   0.159   5.234  15.264 -0.2229  0.0178 -0.5337
  660TIP3    H123471   0.082   5.205  15.216 -1.7995 -0.8659  2.2922
  660TIP3    H223472   0.159   5.181  15.343  3.2142  0.1561 -0.2966
  661TIP3   OH223473   1.348   5.295   4.525 -0.3426  0.2000 -0.0074
  661TIP3    H123474   1.308   5.221   4.571 -2.7870  0.7625 -1.0356
  661TIP3    H223475   1.371   5.358   4.594  0.3525 -0.8546  0.7483
  662TIP3   OH223476   6.014   4.864   3.528  0.3000  0.0201 -0.3036
  662TIP3    H123477   6.095   4.881   3.576  0.7198  1.0184 -1.3238
  662TIP3    H223478   5.961   4.943   3.543 -1.3142 -1.3466  1.8881
  663TIP3   OH223479   2.917   0.835  11.527 -0.4553 -0.1344  0.7749
  663TIP3    H123480   2.880   0.751  11.555  0.9740 -0.9655  0.2445
  663TIP3    H223481   2.997   0.812  11.479  0.3595  1.5642  1.2437
  664TIP3   OH223482   0.497   6.503   4.705  0.3301 -0.0534  0.1330
  664TIP3    H123483   0.473   6.561   4.777  0.3119 -1.4575  1.2947
  664TIP3    H223484   0.418   6.495   4.652  0.5685  1.6159 -0.5217
  665TIP3   OH223485   3.438   0.121   4.138  0.2754 -0.3621  0.1032
  665TIP3    H123486   3.456   0.095   4.228  0.0754  1.8963  0.8403
  665TIP3    H223487   3.346   0.095   4.124  0.0916 -0.0935  0.7840
  666TIP3   OH223488   3.664   3.170   5.115 -0.1807  0.2680  0.0623
  666TIP3    H123489   3.724   3.219   5.059 -0.4770  0.3711 -0.1651
  666TIP3    H223490   3.716   3.096   5.147  0.5665  1.2301  1.1710
  667TIP3   OH223491   2.646   6.025  11.301  0.0011  0.7582 -0.3347
  667TIP3    H123492   2.619   5.982  11.220 -1.6400  1.3300 -0.1215
  667TIP3    H223493   2.580   6.093  11.316  0.5870  1.0409  1.1748
  668TIP3   OH223494   2.420   4.104   5.401 -0.2751 -0.4656 -0.0539
  668TIP3    H123495   2.462   4.130   5.483 -0.0105  2.4804 -1.0269
  668TIP3    H223496   2.346   4.050   5.428 -1.2266  1.8442  2.2855
  669TIP3   OH223497   4.062   3.729   4.472  0.1240 -0.1065  0.4141
  669TIP3    H123498   4.079   3.726   4.378  0.5697 -1.5172  0.5212
  669TIP3    H223499   4.026   3.816   4.487 -0.5904 -0.1020 -1.1705
  670TIP3   OH223500   0.680   4.540   2.525 -0.7346  0.0223 -0.4149
  670TIP3    H123501   0.708   4.569   2.439 -0.2774  0.0370 -0.2634
  670TIP3    H223502   0.728   4.459   2.541 -0.1274  0.4821  0.1894
  671TIP3   OH223503   5.061   2.637   5.468 -0.3513  0.3201 -0.5183
  671TIP3    H123504   4.998   2.681   5.524  2.0611  2.2132  0.8904
  671TIP3    H223505   5.040   2.667   5.379 -0.2082  2.5596  0.1608
  672TIP3   OH223506   2.306   3.610   4.407 -0.5784 -0.3445 -0.2646
  672TIP3    H123507   2.323   3.547   4.337 -1.6509  0.3411 -1.1880
  672TIP3    H223508   2.389   3.658   4.417 -0.9634  0.9246 -2.5379
  673TIP3   OH223509   1.052   2.859  12.447  0.4262  0.2830 -0.3500
  673TIP3    H123510   1.005   2.908  12.514 -2.3244 -0.3683 -1.6730
  673TIP3    H223511   1.120   2.811  12.495 -1.6518 -0.4569  2.0601
  674TIP3   OH223512   6.724   3.470   4.967 -0.2701  0.2958  0.2922
  674TIP3    H123513   6.819   3.466   4.970 -0.2535  0.6496  0.2644
  674TIP3    H223514   6.703   3.485   4.875 -0.3232  0.8747  0.3942
  675TIP3   OH223515   0.634   1.925  13.660  0.2298  0.0871  0.3546
  675TIP3    H123516   0.677   1.935  13.575 -0.9222  0.1433 -0.2428
  675TIP3    H223517   0.683   1.856  13.705  1.5403  0.8356  0.1055
  676TIP3   OH223518   4.333   2.959  15.751  0.0120  0.2570 -0.4020
  676TIP3    H123519   4.321   2.896  15.821 -0.8782  1.1197  0.2570
  676TIP3    H223520   4.415   3.003  15.771 -0.2335  0.4905  0.0974
  677TIP3   OH223521   4.654   1.923  16.814  0.9644 -0.1949 -0.1099
  677TIP3    H123522   4.716   1.850  16.819  0.7304 -0.4473 -0.7458
  677TIP3    H223523   4.580   1.895  16.867 -0.0451 -1.3694 -2.0214
  678TIP3   OH223524   1.387   0.415  14.907 -0.1315  0.7370 -0.6343
  678TIP3    H123525   1.465   0.377  14.949  0.2681  2.6137  0.4072
  678TIP3    H223526   1.397   0.392  14.814  0.5543 -0.8368 -0.2135
  679TIP3   OH223527   6.569   2.707  14.596  0.3525  0.0351  0.5948
  679TIP3    H123528   6.624   2.745  14.527  2.0751 -1.9121  0.7879
  679TIP3    H223529   6.618   2.722  14.677 -0.8438  0.8246  1.1919
  680TIP3   OH223530   5.525   3.866   4.968  0.0003 -0.3177  0.3731
  680TIP3    H123531   5.500   3.928   5.037 -0.6303 -1.4318  1.1823
  680TIP3    H223532   5.489   3.904   4.888 -1.5689 -0.2667  1.0543
  681TIP3   OH223533   2.906   2.313   3.180  0.0075 -0.6370  0.4831
  681TIP3    H123534   2.943   2.228   3.158  2.1022 -0.1145  1.6839
  681TIP3    H223535   2.930   2.369   3.107  1.3426 -0.3977  1.0724
  682TIP3   OH223536   6.183   0.472  13.515 -0.3231  0.4997  0.1733
  682TIP3    H123537   6.169   0.378  13.511 -1.7044  0.6714  0.4461
  682TIP3    H223538   6.149   0.505  13.432  0.8768  0.7006 -0.2645
  683TIP3   OH223539   0.837   4.754   2.662 -0.2362  0.4237 -0.0178
  683TIP3    H123540   0.792   4.684   2.615 -0.3073  0.8966 -0.6622
  683TIP3    H223541   0.926   4.722   2.675  0.3360  1.0131 -2.1133
  684TIP3   OH223542   4.389   4.445  16.668  0.1621  0.2109 -0.0010
  684TIP3    H123543   4.364   4.516  16.609  0.6483  1.2194  0.9718
  684TIP3    H223544   4.316   4.438  16.730  0.4223  0.3343  0.3211
  685TIP3   OH223545   2.213   4.181  13.076  0.0800  1.0941  0.1419
  685TIP3    H123546   2.139   4.198  13.134  0.5123 -0.7964  1.3242
  685TIP3    H223547   2.289   4.215  13.123  0.5640 -1.3208  1.2252
  686TIP3   OH223548   5.537   2.555  10.860 -0.0156  0.0843 -0.1301
  686TIP3    H123549   5.587   2.480  10.826  1.0208  0.5830  0.2805
  686TIP3    H223550   5.603   2.619  10.885 -0.9008  1.2317 -0.6588
  687TIP3   OH223551   1.837   4.890  15.549 -0.2755 -0.0806 -0.2085
  687TIP3    H123552   1.775   4.830  15.591  0.5074  0.4039  1.7659
  687TIP3    H223553   1.838   4.967  15.606  3.1867 -0.6435  0.7503
  688TIP3   OH223554   1.386   4.390  13.520 -0.2973  0.3491 -0.1263
  688TIP3    H123555   1.330   4.442  13.577 -0.7441 -1.4519  1.1500
  688TIP3    H223556   1.327   4.356  13.453 -0.2125  0.5433 -0.3041
  689TIP3   OH223557   1.910   2.512   3.014  0.4700 -1.2498  0.0016
  689TIP3    H123558   1.852   2.588   3.020  0.7767 -1.0093 -0.0449
  689TIP3    H223559   1.851   2.436   3.023  0.3105 -0.9942  1.2392
  690TIP3   OH223560   0.005   5.838   1.052  0.1168 -0.1545 -0.1596
  690TIP3    H123561   0.101   5.839   1.050  0.1190 -0.0065  0.0004
  690TIP3    H223562  -0.020   5.796   0.970  0.2852  1.3745 -1.0256
  691TIP3   OH223563   0.613   4.234   6.282  0.3299 -0.1566 -0.4999
  691TIP3    H123564   0.574   4.288   6.351  2.8722  4.6240 -2.3380
  691TIP3    H223565   0.689   4.193   6.323 -0.9133 -1.4513  0.6122
  692TIP3   OH223566   1.923   6.290   0.387  0.5503 -0.5685 -0.2244
  692TIP3    H123567   1.867   6.272   0.462  1.5783  0.7037  0.8933
  692TIP3    H223568   1.879   6.247   0.314 -2.8626  1.8809  0.1825
  693TIP3   OH223569   4.203   5.370  15.030  0.0477 -0.4295  0.3469
  693TIP3    H123570   4.276   5.390  15.088 -1.1525  1.4787  1.3272
  693TIP3    H223571   4.145   5.315  15.083  0.5330 -1.5736 -0.2764
  694TIP3   OH223572   0.755   0.036  16.218 -0.5638 -0.1241  0.1260
  694TIP3    H123573   0.690  -0.023  16.181 -1.1589 -0.9110  2.2863
  694TIP3    H223574   0.837   0.013  16.174 -0.7305 -2.7583  1.0502
  695TIP3   OH223575   1.191   0.057   3.784  0.2500 -0.4609 -0.0744
  695TIP3    H123576   1.134   0.060   3.707  1.5590 -0.2404 -1.0781
  695TIP3    H223577   1.198  -0.036   3.805  0.5481 -0.5956 -0.7485
  696TIP3   OH223578   3.398   2.045  13.100  0.4225  0.4347  0.6919
  696TIP3    H123579   3.322   2.068  13.047  1.4565  1.2320 -0.5347
  696TIP3    H223580   3.391   1.950  13.112 -1.0080  0.5686  1.0351
  697TIP3   OH223581   1.559   3.466  16.215  0.0246  0.6016 -0.2929
  697TIP3    H123582   1.498   3.539  16.201  0.1832  0.9919  0.9600
  697TIP3    H223583   1.572   3.463  16.310 -0.3102 -1.3301 -0.2650
  698TIP3   OH223584   3.528   5.185  17.311  0.1669 -0.0155  0.0172
  698TIP3    H123585   3.615   5.161  17.278  0.2534 -0.6071  0.6493
  698TIP3    H223586   3.537   5.277  17.337  0.6865 -0.1494  0.3297
  699TIP3   OH223587   0.650   5.563  13.093 -0.5893  0.0850  0.6055
  699TIP3    H123588   0.664   5.634  13.030  0.0815 -1.3588 -0.9450
  699TIP3    H223589   0.635   5.608  13.176  1.1120  2.0442 -0.0499
  700TIP3   OH223590   1.020   2.008  13.465  0.1076 -0.1607  0.3590
  700TIP3    H123591   0.949   2.071  13.458  0.7497  0.6002  0.4773
  700TIP3    H223592   1.000   1.957  13.544 -0.1260  0.2808  0.5850
  701TIP3   OH223593   0.652   4.461   4.801 -0.5103  0.1908  0.1053
  701TIP3    H123594   0.701   4.497   4.876  0.1820  0.5591 -0.5158
  701TIP3    H223595   0.686   4.508   4.725 -0.6297 -0.7465 -0.5479
  702TIP3   OH223596   0.240   0.784   6.348  0.6879 -0.2401  0.1538
  702TIP3    H123597   0.254   0.879   6.337  2.9949 -0.6476 -1.3179
  702TIP3    H223598   0.321   0.753   6.389  0.2656 -1.6646 -0.0556
  703TIP3   OH223599   4.717   5.549  11.994 -0.7903  0.1653 -0.1076
  703TIP3    H123600   4.727   5.473  11.937 -1.6212 -0.2184  0.2453
  703TIP3    H223601   4.792   5.605  11.973 -1.2535  0.2039 -1.8125
  704TIP3   OH223602   1.779   5.530  13.829 -0.3751 -0.5406 -0.0055
  704TIP3    H123603   1.813   5.591  13.764 -1.5975  0.0684 -0.0945
  704TIP3    H223604   1.849   5.465  13.840  0.7931  0.6551 -0.1758
  705TIP3   OH223605   1.037   4.944  13.575 -1.0850 -0.2432 -0.4021
  705TIP3    H123606   1.000   4.930  13.488  0.0686  1.2984 -1.1896
  705TIP3    H223607   1.091   4.867  13.592 -0.7754 -0.2458 -1.3626
  706TIP3   OH223608   4.354   4.085  12.849  0.0590  0.0119  0.2985
  706TIP3    H123609   4.371   4.173  12.816  0.9134 -0.2439  0.0219
  706TIP3    H223610   4.411   4.076  12.925 -1.8149  0.5558  1.8432
  707TIP3   OH223611   5.274   2.791  15.992 -0.2163  0.0797 -0.4907
  707TIP3    H123612   5.190   2.820  16.029 -0.7499  1.5518 -2.6614
  707TIP3    H223613   5.252   2.709  15.946 -0.2822  0.0138 -0.3417
  708TIP3   OH223614   5.861   5.452  14.141  0.2006 -0.0222  0.0527
  708TIP3    H123615   5.788   5.393  14.158  1.4283 -1.1724  1.7114
  708TIP3    H223616   5.910   5.410  14.070  1.7455 -1.7838  2.0288
  709TIP3   OH223617   6.615   5.342   4.765 -0.9487  0.0806 -0.4774
  709TIP3    H123618   6.569   5.287   4.701 -2.1477 -0.0780  0.4865
  709TIP3    H223619   6.556   5.346   4.840  0.4560  0.2099  0.6650
  710TIP3   OH223620   1.564   1.242  11.022  0.2444  0.3500  0.1431
  710TIP3    H123621   1.566   1.314  10.958  0.5925  0.4805  0.2953
  710TIP3    H223622   1.612   1.276  11.097  0.6520 -0.1400  0.1101
  711TIP3   OH223623   2.035   4.538  15.440 -0.2195  0.4269  0.1223
  711TIP3    H123624   2.100   4.477  15.474 -0.4945 -1.0223 -1.8088
  711TIP3    H223625   2.083   4.620  15.429  0.8929 -0.1962  0.1424
  712TIP3   OH223626   5.284   2.234   1.421 -0.5618  0.3832  0.3775
  712TIP3    H123627   5.295   2.177   1.498 -0.6056  0.9253  0.7968
  712TIP3    H223628   5.309   2.180   1.347  0.0598  0.0255  0.8373
  713TIP3   OH223629   5.520   5.596   3.386  0.6306  0.0676 -0.3286
  713TIP3    H123630   5.523   5.609   3.292 -0.5267  1.4318 -0.1912
  713TIP3    H223631   5.612   5.589   3.412  1.0309  1.2473 -1.3578
  714TIP3   OH223632   0.387   6.137   5.718  0.1705 -0.3706 -0.3749
  714TIP3    H123633   0.477   6.127   5.689  0.4154  0.9441 -0.1513
  714TIP3    H223634   0.389   6.116   5.812  0.1640 -0.7654 -0.4657
  715TIP3   OH223635   1.352   5.580  14.646 -0.3619 -0.3278 -0.0762
  715TIP3    H123636   1.354   5.591  14.551 -1.1471 -3.5559 -0.5616
  715TIP3    H223637   1.261   5.556  14.666 -0.1287 -0.0745  1.4837
  716TIP3   OH223638   1.561   3.873  14.106 -0.2017  0.8675 -0.1722
  716TIP3    H123639   1.485   3.820  14.080 -0.1614  0.5471  0.3544
  716TIP3    H223640   1.636   3.814  14.096 -0.0227  1.1682 -0.6424
  717TIP3   OH223641   1.070   2.847  13.167  0.0411  0.1045 -0.2810
  717TIP3    H123642   1.034   2.910  13.230 -0.9644  0.1381 -0.8794
  717TIP3    H223643   1.159   2.879  13.150 -0.3045  1.1075 -0.2397
  718TIP3   OH223644   0.070   5.393   0.888 -0.0229  0.0884 -0.0459
  718TIP3    H123645   0.018   5.314   0.870  0.1168 -0.0829  0.2871
  718TIP3    H223646   0.141   5.389   0.824 -0.5376  0.4387 -0.6476
  719TIP3   OH223647   6.198   0.594  11.549 -0.3002  0.1210 -0.5815
  719TIP3    H123648   6.125   0.590  11.486 -0.7738 -2.2195  0.0115
  719TIP3    H223649   6.216   0.502  11.570  1.0200  0.7725  1.3789
  720TIP3   OH223650   1.923   2.200  14.687 -0.8436  0.1981  0.0915
  720TIP3    H123651   1.863   2.155  14.747 -0.9635  0.7429  0.3942
  720TIP3    H223652   2.009   2.189  14.727 -0.5030 -1.7976 -1.0679
  721TIP3   OH223653   3.378   0.836  12.705 -0.5944 -0.0807  0.1189
  721TIP3    H123654   3.329   0.829  12.623 -1.3892 -0.2820  0.6023
  721TIP3    H223655   3.311   0.851  12.772  0.1569  1.6737  0.5304
  722TIP3   OH223656   3.837   3.871   5.158  0.2323 -0.3444  0.0807
  722TIP3    H123657   3.760   3.927   5.148  0.3546 -0.5182 -2.8480
  722TIP3    H223658   3.902   3.928   5.200 -1.0030  0.2685  1.2304
  723TIP3   OH223659   1.535   2.672   2.935 -0.6281 -0.1993 -0.3595
  723TIP3    H123660   1.449   2.696   2.900 -0.7485 -0.9966 -0.6264
  723TIP3    H223661   1.546   2.580   2.911  0.5949  0.0724 -0.9324
  724TIP3   OH223662   0.465   5.643   3.093 -0.4573 -0.0326 -0.2037
  724TIP3    H123663   0.408   5.700   3.145 -1.4823 -1.0968 -0.1223
  724TIP3    H223664   0.457   5.557   3.134  1.3116 -0.2062 -0.1303
  725TIP3   OH223665   5.773   2.974  15.676  0.2484  0.2971  0.3647
  725TIP3    H123666   5.747   2.882  15.669  1.4672 -0.0627  0.3395
  725TIP3    H223667   5.835   2.976  15.749  0.1616  1.1322  0.4338
  726TIP3   OH223668   5.329   0.306  17.129 -0.2604 -0.0854 -0.1935
  726TIP3    H123669   5.359   0.368  17.195  0.3737  0.7476 -1.2300
  726TIP3    H223670   5.254   0.349  17.089  1.7440  1.3578 -2.7442
  727TIP3   OH223671   5.417   3.761   6.170 -0.7501  0.5398  0.0330
  727TIP3    H123672   5.367   3.749   6.251 -1.1545 -0.4524 -0.3425
  727TIP3    H223673   5.353   3.794   6.107 -0.5802  0.7083 -0.0518
  728TIP3   OH223674   0.817   0.408   3.928 -0.1261 -0.2330  0.0021
  728TIP3    H123675   0.772   0.486   3.959  0.0718  0.0541 -0.4306
  728TIP3    H223676   0.772   0.335   3.972 -0.0943  0.1394  0.6682
  729TIP3   OH223677   0.841   2.497   6.722  0.1550  0.1722 -0.4654
  729TIP3    H123678   0.849   2.487   6.817  1.1947  1.9221 -0.3143
  729TIP3    H223679   0.867   2.412   6.687 -0.7015 -0.6575  0.8151
  730TIP3   OH223680   4.820   4.962   4.561  0.0006  0.4137 -0.1852
  730TIP3    H123681   4.770   4.880   4.558  0.8910 -0.3197  2.2451
  730TIP3    H223682   4.801   4.999   4.647  1.0194  1.8469 -0.5361
  731TIP3   OH223683   2.258   4.028  10.840 -0.0411  0.2497 -0.2753
  731TIP3    H123684   2.324   4.014  10.773  0.8061  0.8386  0.4212
  731TIP3    H223685   2.180   4.056  10.791 -0.4506 -2.4384 -1.2856
  732TIP3   OH223686   1.060   2.293   0.396 -0.9033  0.2111 -0.1255
  732TIP3    H123687   1.111   2.329   0.468  0.7774  1.3149 -1.7759
  732TIP3    H223688   1.088   2.343   0.320 -3.8188  0.2338 -1.3103
  733TIP3   OH223689   2.629   6.277   5.542 -0.0970 -0.1435 -0.4657
  733TIP3    H123690   2.540   6.275   5.576  0.1868 -2.0975  0.2662
  733TIP3    H223691   2.681   6.315   5.613 -0.0668 -0.8192 -0.1191
  734TIP3   OH223692   1.302   1.294   6.726  0.1225  0.1911  0.3511
  734TIP3    H123693   1.358   1.242   6.667 -0.6098  0.5938 -0.7398
  734TIP3    H223694   1.219   1.248   6.727  0.4175 -0.3438  1.8818
  735TIP3   OH223695   0.945   2.932   5.485  0.3146 -0.1412 -0.2536
  735TIP3    H123696   0.970   2.957   5.396  0.7218 -0.3645 -0.2048
  735TIP3    H223697   0.929   2.838   5.479  0.3107 -0.1497 -0.0962
  736TIP3   OH223698   5.228   4.412   3.860 -0.2452 -0.3108 -0.7490
  736TIP3    H123699   5.158   4.475   3.843 -1.5465 -1.7214 -0.8541
  736TIP3    H223700   5.288   4.458   3.919 -1.2294  0.9655 -0.7015
  737TIP3   OH223701   4.544   6.198  15.658 -0.7334  0.6203  0.5580
  737TIP3    H123702   4.553   6.260  15.586 -0.8417  0.1044  0.0991
  737TIP3    H223703   4.546   6.253  15.737 -1.3800  1.2618  0.1366
  738TIP3   OH223704   5.773   4.988   3.291 -0.1842  0.3871 -0.2068
  738TIP3    H123705   5.798   5.010   3.381 -0.8608  2.9480 -0.5423
  738TIP3    H223706   5.844   5.024   3.237 -1.2694  1.7616 -0.7984
  739TIP3   OH223707   4.652   1.263   0.800 -0.6507  0.1564  0.7104
  739TIP3    H123708   4.698   1.184   0.828 -0.4030 -0.0641 -0.2600
  739TIP3    H223709   4.715   1.334   0.817 -0.0087 -0.1176 -0.3964
  740TIP3   OH223710   0.598   4.134  16.045  0.0420  0.3525 -0.7437
  740TIP3    H123711   0.625   4.175  15.963 -0.2089  0.2539 -0.8746
  740TIP3    H223712   0.569   4.047  16.020  1.9910 -0.4779 -0.2684
  741TIP3   OH223713   2.893   4.109   4.292 -0.4181  0.0471 -0.1080
  741TIP3    H123714   2.905   4.201   4.315  0.9671  0.1191 -1.0224
  741TIP3    H223715   2.922   4.061   4.369  0.9501  0.3533 -0.4053
  742TIP3   OH223716   2.471   4.129   2.985 -0.0234 -0.3089 -0.3823
  742TIP3    H123717   2.484   4.088   3.071 -0.9508 -0.2146 -0.1877
  742TIP3    H223718   2.395   4.084   2.948  0.8328 -0.8833 -1.5011
  743TIP3   OH223719   0.267   4.857  13.520  0.6200  0.1419  0.0898
  743TIP3    H123720   0.213   4.788  13.482 -0.1675  1.1327 -0.6532
  743TIP3    H223721   0.211   4.934  13.521  0.7822  0.3254  2.8310
  744TIP3   OH223722   2.852   1.370   5.524 -0.0590  0.1939  0.2694
  744TIP3    H123723   2.856   1.318   5.443  2.0554  1.0780 -0.2370
  744TIP3    H223724   2.816   1.309   5.589  0.6344 -1.3462 -0.7344
  745TIP3   OH223725   4.566   5.770   0.723 -0.2435 -0.4440  0.3330
  745TIP3    H123726   4.513   5.786   0.645 -0.9970 -0.8276  0.7468
  745TIP3    H223727   4.517   5.703   0.771  0.1750 -0.1693  1.1616
  746TIP3   OH223728   3.488   0.919  15.095  0.8616  0.4442  0.8272
  746TIP3    H123729   3.428   0.910  15.170  2.2278  1.4084  2.0952
  746TIP3    H223730   3.446   0.869  15.025 -2.5662  2.9129  0.8977
  747TIP3   OH223731   5.366   2.215   0.556 -0.1436  0.3488  0.5751
  747TIP3    H123732   5.322   2.243   0.477  0.0474  0.0247  0.3507
  747TIP3    H223733   5.303   2.161   0.602 -1.0243  2.2179  1.6968
  748TIP3   OH223734   4.618   1.384  15.299 -0.2917 -0.4789 -0.1260
  748TIP3    H123735   4.583   1.337  15.223  0.6450  0.1734 -0.9823
  748TIP3    H223736   4.693   1.433  15.265 -0.5266  0.7125  0.9797
  749TIP3   OH223737   2.271   3.132  15.585 -0.0718 -0.1812  0.7805
  749TIP3    H123738   2.329   3.084  15.645  0.3994 -0.4303  0.1434
  749TIP3    H223739   2.222   3.063  15.540 -1.0990  0.0370  1.5232
  750TIP3   OH223740   6.323   3.721  10.828 -0.2254  0.1471  0.1734
  750TIP3    H123741   6.403   3.746  10.782  0.0823  0.1921  0.7207
  750TIP3    H223742   6.260   3.704  10.758  0.0627  0.7632 -0.2544
  751TIP3   OH223743   4.854   4.079  13.080  0.6444  0.2400 -0.2581
  751TIP3    H123744   4.872   4.020  13.007 -0.5928 -0.0369 -0.3701
  751TIP3    H223745   4.789   4.033  13.133 -1.0942  1.8358 -0.8528
  752TIP3   OH223746   1.169   3.211   0.569  0.0675  0.3365 -0.1882
  752TIP3    H123747   1.163   3.116   0.575 -1.9900  0.4134 -0.3071
  752TIP3    H223748   1.183   3.229   0.476 -0.5913  0.1871 -0.3140
  753TIP3   OH223749   0.858   3.722  10.432 -0.1565 -0.0553 -0.0746
  753TIP3    H123750   0.827   3.680  10.352 -0.0860 -0.6099  0.1815
  753TIP3    H223751   0.919   3.659  10.470  0.5837  0.6344 -0.1013
  754TIP3   OH223752   4.103   2.247  13.276  0.6511 -0.2102  0.0735
  754TIP3    H123753   4.018   2.229  13.236  1.2279 -0.4491 -1.0882
  754TIP3    H223754   4.082   2.283  13.362 -0.6260  0.2742 -0.4248
  755TIP3   OH223755   4.742   0.137  16.327  0.3480  0.8451 -0.2156
  755TIP3    H123756   4.714   0.129  16.236  0.4217  0.7831 -0.2325
  755TIP3    H223757   4.762   0.048  16.354 -1.0029  0.6815  0.2969
  756TIP3   OH223758   5.888   3.860  11.941 -0.5048 -0.2891 -0.2080
  756TIP3    H123759   5.983   3.856  11.928 -0.3479 -0.3841  0.9095
  756TIP3    H223760   5.864   3.949  11.914 -0.2652 -0.5807 -1.4504
  757TIP3   OH223761   0.857   0.163   4.596 -0.6512 -0.4626  0.0280
  757TIP3    H123762   0.803   0.159   4.517 -1.2340  0.1677  0.3853
  757TIP3    H223763   0.937   0.206   4.568 -0.1369 -1.7647 -0.6016
  758TIP3   OH223764   0.036   3.506  12.611  0.6565  0.5962 -0.5080
  758TIP3    H123765   0.107   3.570  12.616  1.8742 -0.7489  0.3174
  758TIP3    H223766   0.066   3.441  12.548  0.7772 -0.6600  0.7890
  759TIP3   OH223767   1.722   5.180  17.059  0.1174  0.9454 -0.3318
  759TIP3    H123768   1.811   5.164  17.028  0.0849  1.1323 -0.5297
  759TIP3    H223769   1.674   5.100  17.038  0.7062  0.0349  1.6011
  760TIP3   OH223770   0.300   0.585   4.567  0.9451 -0.4395  0.0603
  760TIP3    H123771   0.309   0.490   4.561  0.4820 -0.6058  1.6784
  760TIP3    H223772   0.269   0.611   4.480 -0.4354 -1.9648  0.0339
  761TIP3   OH223773   1.708   1.240   2.335 -0.3857  0.4042 -0.0675
  761TIP3    H123774   1.705   1.186   2.256 -0.9668  0.5275 -0.1357
  761TIP3    H223775   1.650   1.314   2.316  1.7014  1.9900 -0.6419
  762TIP3   OH223776   5.456   1.702   4.870  0.1998 -1.0416 -0.1567
  762TIP3    H123777   5.451   1.623   4.816  0.1133 -1.8239  0.9581
  762TIP3    H223778   5.532   1.750   4.837  0.9814 -2.1953 -0.0773
  763TIP3   OH223779   4.425   4.305  12.714  0.0350 -0.0957  0.5673
  763TIP3    H123780   4.346   4.321  12.662  0.3894 -2.1300 -0.7225
  763TIP3    H223781   4.497   4.331  12.657  0.3577 -0.3258  0.8686
  764TIP3   OH223782   6.520   1.915   2.971 -0.4360 -0.0730 -0.4552
  764TIP3    H123783   6.470   1.959   2.902 -0.7122  1.1852  0.5086
  764TIP3    H223784   6.455   1.880   3.031 -0.1799  0.0510 -0.1016
  765TIP3   OH223785   1.089   3.584  12.031 -0.1306 -0.5852 -0.7067
  765TIP3    H123786   0.997   3.558  12.041  0.0928 -2.1024 -2.2494
  765TIP3    H223787   1.091   3.675  12.061 -1.4728 -1.4378  2.5014
  766TIP3   OH223788   3.081   5.242  16.899 -0.3172 -0.5280  0.2310
  766TIP3    H123789   3.159   5.187  16.906  0.4543  0.5573  0.5648
  766TIP3    H223790   3.113   5.323  16.858 -1.2061  0.0484  0.6418
  767TIP3   OH223791   4.828   3.080  11.401 -0.6018 -0.2284  0.0693
  767TIP3    H123792   4.855   2.995  11.366 -0.5931 -0.1998  0.0064
  767TIP3    H223793   4.898   3.104  11.462 -0.3816 -0.0591 -0.2469
  768TIP3   OH223794   2.389   0.004  11.736 -0.3265  0.4427  0.8554
  768TIP3    H123795   2.390  -0.071  11.796  2.0115 -0.7642 -0.5393
  768TIP3    H223796   2.384  -0.036  11.649 -1.0885  2.0434  0.1280
  769TIP3   OH223797   4.191   2.882  14.559 -0.0884  0.4958  0.2449
  769TIP3    H123798   4.237   2.832  14.626  0.1063  0.9775  0.4693
  769TIP3    H223799   4.162   2.962  14.603  2.6589  2.2921 -0.9340
  770TIP3   OH223800   1.308   1.739   4.005  0.3177 -0.1782 -0.0567
  770TIP3    H123801   1.355   1.657   4.023 -1.0717 -1.2201 -0.9791
  770TIP3    H223802   1.287   1.774   4.091 -0.2340 -1.4884  0.3571
  771TIP3   OH223803   1.169   5.555  12.297 -0.9042  0.8418  0.0451
  771TIP3    H123804   1.257   5.531  12.327 -1.5527 -0.9796  0.6482
  771TIP3    H223805   1.147   5.489  12.231 -1.6001  1.6353 -0.5356
  772TIP3   OH223806   3.099   0.824  12.848 -0.0503  0.2556  0.5084
  772TIP3    H123807   3.051   0.848  12.769  1.9351  2.0935 -0.2357
  772TIP3    H223808   3.102   0.905  12.899  1.7058  0.0377  0.7932
  773TIP3   OH223809   3.361   3.570   6.350 -0.4484  0.1715  0.3878
  773TIP3    H123810   3.269   3.574   6.326 -0.5222 -1.7031  0.2361
  773TIP3    H223811   3.408   3.599   6.271 -0.8609 -0.3444 -0.0506
  774TIP3   OH223812   6.554   6.066   4.415 -0.2925  0.1797 -0.3265
  774TIP3    H123813   6.478   6.032   4.369 -0.9591  0.8311  0.2785
  774TIP3    H223814   6.595   6.126   4.353  0.2538 -0.8287 -0.9803
  775TIP3   OH223815   3.547   4.166   0.867  0.7764 -0.5934 -0.5147
  775TIP3    H123816   3.575   4.204   0.784  0.9396  2.1929  0.7058
  775TIP3    H223817   3.629   4.154   0.917  0.5741 -1.1453 -0.3047
  776TIP3   OH223818   0.011   3.149   2.930  0.6644 -0.4361  0.1913
  776TIP3    H123819  -0.008   3.129   3.021 -0.4423  1.2778  0.3678
  776TIP3    H223820   0.029   3.243   2.929 -0.2808 -0.2348 -1.4807
  777TIP3   OH223821   3.536   1.939   4.413  0.4188 -0.6242 -0.4927
  777TIP3    H123822   3.526   1.983   4.329  1.8108  0.2796 -0.2139
  777TIP3    H223823   3.631   1.927   4.423  0.3987  0.5173  1.5446
  778TIP3   OH223824   0.127   0.653  13.573  0.2764  0.0129 -0.1543
  778TIP3    H123825   0.090   0.608  13.649 -2.1875  1.1805 -0.5659
  778TIP3    H223826   0.098   0.743  13.582  0.2828  0.2704 -2.2507
  779TIP3   OH223827   3.613   4.854   0.627  0.0315  0.3205  0.3435
  779TIP3    H123828   3.643   4.944   0.616 -2.9309  1.4166  0.2986
  779TIP3    H223829   3.620   4.816   0.539 -0.3656  1.0908 -0.0275
  780TIP3   OH223830   2.233   3.885  14.807 -0.2723 -0.3383  0.3597
  780TIP3    H123831   2.234   3.931  14.891  1.0290 -0.0098  0.1820
  780TIP3    H223832   2.141   3.859  14.796 -0.5591  0.0201  1.6513
  781TIP3   OH223833   2.495   6.657  17.315 -0.2943 -0.1277  0.0570
  781TIP3    H123834   2.476   6.748  17.340  0.7539  0.0919  0.1247
  781TIP3    H223835   2.428   6.605  17.359 -0.5065  0.5547  0.5611
  782TIP3   OH223836   2.074   4.850  12.640 -0.2935  0.5318  0.4154
  782TIP3    H123837   2.009   4.869  12.708 -0.3435  2.1263 -0.0318
  782TIP3    H223838   2.119   4.934  12.626 -0.0917  0.1684 -1.3010
  783TIP3   OH223839   2.262   2.882  14.728  0.0756 -0.4312  0.5348
  783TIP3    H123840   2.302   2.965  14.703 -0.3611 -0.6935 -1.1066
  783TIP3    H223841   2.307   2.816  14.675 -0.7663 -1.0362  0.5485
  784TIP3   OH223842   4.229   0.380  14.808  0.2261  0.0271  0.5931
  784TIP3    H123843   4.237   0.294  14.768  1.2590  0.9073 -1.2312
  784TIP3    H223844   4.143   0.411  14.781  0.6671  0.3601 -0.4865
  785TIP3   OH223845   2.927   0.389   2.508  0.6813 -0.3924 -0.2854
  785TIP3    H123846   2.930   0.482   2.490  0.2806 -0.1302  0.9003
  785TIP3    H223847   2.870   0.381   2.585  1.4419 -1.5134  0.1934
  786TIP3   OH223848   0.501   6.350   3.275 -0.4676 -0.1262 -0.2391
  786TIP3    H123849   0.533   6.440   3.269 -0.5985 -0.1342 -1.1473
  786TIP3    H223850   0.580   6.296   3.275 -0.2936  0.0188  1.8504
  787TIP3   OH223851   0.239   6.045   3.933 -0.3033 -0.2475 -0.5889
  787TIP3    H123852   0.319   6.080   3.972  0.4705 -0.1963 -2.1147
  787TIP3    H223853   0.263   6.026   3.842 -2.1299  0.1540 -1.2113
  788TIP3   OH223854   5.733   5.445   0.752  0.7938  0.0370 -0.0154
  788TIP3    H123855   5.661   5.400   0.797  0.3031  1.4132  0.6269
  788TIP3    H223856   5.705   5.449   0.661 -0.3832  1.3137  0.3639
  789TIP3   OH223857   0.829   3.272   2.602  0.9246  0.1163  0.1439
  789TIP3    H123858   0.881   3.220   2.541 -2.1231 -2.7460 -0.2620
  789TIP3    H223859   0.743   3.277   2.562 -0.2065  1.3521  2.5180
  790TIP3   OH223860   3.085   1.844  13.700  0.0923  0.5420 -0.0004
  790TIP3    H123861   3.147   1.779  13.666  0.8029  0.2063  1.7975
  790TIP3    H223862   3.034   1.871  13.624  1.4525 -0.2861 -1.2627
  791TIP3   OH223863   6.135   2.742  14.153 -0.2882  0.4737 -0.1584
  791TIP3    H123864   6.148   2.677  14.084  4.7122  0.6815  0.2282
  791TIP3    H223865   6.074   2.700  14.214 -2.6782 -0.8370 -3.1516
  792TIP3   OH223866   5.359   3.220  12.768  0.1264  0.4108 -0.6546
  792TIP3    H123867   5.451   3.205  12.744  0.1614  0.2039 -0.4020
  792TIP3    H223868   5.337   3.145  12.824 -0.2337  0.3984 -0.8119
  793TIP3   OH223869   4.383   3.463  12.169 -0.5735  0.7351 -0.6862
  793TIP3    H123870   4.341   3.377  12.164  0.9367 -0.0149 -1.1220
  793TIP3    H223871   4.377   3.498  12.080  0.5787  0.1764 -1.0030
  794TIP3   OH223872   5.077   6.133   4.704  0.0555  0.2818 -0.1979
  794TIP3    H123873   4.999   6.127   4.648  0.3294 -0.2880 -0.5299
  794TIP3    H223874   5.112   6.044   4.707 -0.3559  0.1500  1.4936
  795TIP3   OH223875   1.310   6.175  10.859 -0.4348 -0.3287  0.3659
  795TIP3    H123876   1.394   6.215  10.880 -0.8747  0.6866  0.2382
  795TIP3    H223877   1.245   6.240  10.886 -1.1321 -0.4951 -0.8333
  796TIP3   OH223878   3.785   0.576  13.507 -0.2678 -0.7584 -0.2408
  796TIP3    H123879   3.770   0.537  13.593  1.9927  0.2624  0.7136
  796TIP3    H223880   3.857   0.525  13.470 -2.3047 -2.2947 -2.3756
  797TIP3   OH223881   4.642   3.435   2.311  0.9192 -0.2559 -0.2711
  797TIP3    H123882   4.705   3.440   2.382  0.6583 -0.0755 -0.0498
  797TIP3    H223883   4.597   3.351   2.323 -2.2157  1.5570  2.4492
  798TIP3   OH223884   4.789   0.810  12.586 -0.7231  0.6281 -0.0283
  798TIP3    H123885   4.713   0.858  12.552 -1.4059 -0.2062  0.2853
  798TIP3    H223886   4.752   0.746  12.646  0.1689 -0.2778 -0.4168
  799TIP3   OH223887   1.611   6.534   3.798  0.0913  0.3233 -0.2843
  799TIP3    H123888   1.593   6.622   3.765 -0.3297  0.1807 -0.4454
  799TIP3    H223889   1.706   6.531   3.808  0.2746  0.2825 -1.7800
  800TIP3   OH223890   6.748   0.245   1.392  0.4086 -0.1361 -0.2491
  800TIP3    H123891   6.772   0.304   1.463  1.7332 -1.2563  0.2752
  800TIP3    H223892   6.654   0.230   1.405  0.5148  0.1014  0.9519
  801TIP3   OH223893   6.461   2.645  14.246 -0.0232 -0.3272 -0.1501
  801TIP3    H123894   6.485   2.707  14.178 -0.3518 -0.8026 -0.7043
  801TIP3    H223895   6.397   2.587  14.205  0.2597 -1.0233  0.3636
  802TIP3   OH223896   0.847   2.171  13.938  0.4115  0.3821  0.0983
  802TIP3    H123897   0.883   2.093  13.896 -0.3629 -0.4772  1.0005
  802TIP3    H223898   0.772   2.195  13.884 -0.0131 -0.1597  0.4412
  803TIP3   OH223899   2.440   1.934  14.458 -0.1692 -0.8836 -0.3266
  803TIP3    H123900   2.514   1.900  14.408 -0.1008 -0.4846 -0.5034
  803TIP3    H223901   2.480   1.985  14.528 -0.2424  1.1175 -1.6466
  804TIP3   OH223902   4.127   2.776   3.022 -0.5434  0.5538  0.5649
  804TIP3    H123903   4.033   2.790   3.035 -0.6775 -1.2059  1.8254
  804TIP3    H223904   4.139   2.682   3.031  1.3225  0.7117  0.1835
  805TIP3   OH223905   5.938   2.120   1.537  0.2744  0.2160  0.2801
  805TIP3    H123906   5.906   2.088   1.452  1.9774  1.1329 -0.7565
  805TIP3    H223907   6.028   2.146   1.520  0.3316  1.3765  2.1527
  806TIP3   OH223908   5.408   3.959   5.197 -0.4345  0.6205 -0.0086
  806TIP3    H123909   5.359   4.020   5.252  0.2262  1.1879 -0.0446
  806TIP3    H223910   5.369   3.873   5.217 -0.2241  0.8135  1.3260
  807TIP3   OH223911   1.303   2.816   1.648  0.4452  0.0092 -1.0068
  807TIP3    H123912   1.222   2.852   1.685  1.1811  0.2709  0.4372
  807TIP3    H223913   1.275   2.766   1.572 -1.0940 -0.0400 -0.4385
  808TIP3   OH223914   6.690   0.541   6.428 -0.2134  0.2573 -0.6725
  808TIP3    H123915   6.735   0.569   6.508  0.6542 -0.4593 -0.8960
  808TIP3    H223916   6.644   0.461   6.452  0.5560 -0.3016 -1.0419
  809TIP3   OH223917   0.014   3.210   3.709 -0.1243 -0.2874  0.1807
  809TIP3    H123918   0.104   3.234   3.731  0.3747 -2.1423  0.3494
  809TIP3    H223919  -0.027   3.191   3.793  0.5151 -3.1460 -0.0275
  810TIP3   OH223920   5.880   2.991   2.967 -0.0684  0.1066  0.3818
  810TIP3    H123921   5.812   3.044   2.925  1.0643  1.1845 -0.1784
  810TIP3    H223922   5.892   3.032   3.053  0.6615  0.6599  0.0290
  811TIP3   OH223923   2.246   4.789   4.049 -0.1955 -0.1040 -0.1199
  811TIP3    H123924   2.332   4.747   4.050 -0.5743 -0.9184 -0.4938
  811TIP3    H223925   2.201   4.753   4.126 -0.3878 -0.0947 -0.2265
  812TIP3   OH223926   3.550   0.275   5.822  0.4181  0.4280  0.7489
  812TIP3    H123927   3.587   0.331   5.891  0.8411  0.9414  0.1257
  812TIP3    H223928   3.614   0.279   5.751 -1.0231  1.7383 -0.5655
  813TIP3   OH223929   4.992   4.437   5.881 -0.0221  0.8653  0.0298
  813TIP3    H123930   5.003   4.377   5.807  1.0146  2.2266 -0.9644
  813TIP3    H223931   4.927   4.500   5.852 -1.2479  0.1618  1.1426
  814TIP3   OH223932   2.846   1.655  13.715  0.0228  0.3088 -0.0013
  814TIP3    H123933   2.931   1.684  13.747 -0.4861  1.6327  0.2062
  814TIP3    H223934   2.782   1.711  13.760 -0.9975 -0.8417  0.0720
  815TIP3   OH223935   2.364   0.296  14.466  0.7011  0.0022  0.0479
  815TIP3    H123936   2.294   0.272  14.404 -1.4259  0.6712  2.0504
  815TIP3    H223937   2.323   0.359  14.524  3.2210  0.8854  0.9728
  816TIP3   OH223938   0.959   3.919   1.375  0.0700 -0.0391 -0.0513
  816TIP3    H123939   1.028   3.853   1.370  0.7724  0.7590 -1.1352
  816TIP3    H223940   0.980   3.982   1.307  0.9134  2.7807  2.6128
  817TIP3   OH223941   3.302   1.190   4.588  0.1540 -0.0793  0.6081
  817TIP3    H123942   3.283   1.106   4.629  0.6908  0.1294  1.2906
  817TIP3    H223943   3.318   1.169   4.496 -0.8155 -0.5762  0.5423
  818TIP3   OH223944   3.049   3.885   5.640  0.5389  0.3301 -0.1250
  818TIP3    H123945   3.118   3.905   5.703  1.5409 -0.6030 -0.8719
  818TIP3    H223946   3.034   3.791   5.651  0.0366  0.3534 -0.6058
  819TIP3   OH223947   1.855   2.063   4.846 -0.2708 -0.2095 -0.1212
  819TIP3    H123948   1.827   2.041   4.935  0.5821  0.1363  0.2404
  819TIP3    H223949   1.922   1.998   4.825 -0.3934 -0.2251 -0.4771
  820TIP3   OH223950   3.550   0.921   2.794 -0.0005 -0.1868  0.1960
  820TIP3    H123951   3.549   0.828   2.769  0.1926 -0.3070  0.6160
  820TIP3    H223952   3.560   0.968   2.711  2.6005 -0.6494  0.1633
  821TIP3   OH223953   5.264   6.157  11.405  0.4455 -0.9591  0.6619
  821TIP3    H123954   5.192   6.214  11.432  0.0021 -0.0432 -2.1556
  821TIP3    H223955   5.343   6.208  11.422  0.1315 -0.0516 -0.4755
  822TIP3   OH223956   3.944   5.838   3.294 -1.2340 -0.3647 -0.0802
  822TIP3    H123957   3.894   5.885   3.361 -1.9238 -0.4195 -0.5516
  822TIP3    H223958   3.882   5.823   3.223 -0.2698  0.5599 -1.1671
  823TIP3   OH223959   5.146   5.929  15.389 -0.4219 -0.0004  0.6221
  823TIP3    H123960   5.184   5.962  15.470 -1.0249  0.1675  0.8379
  823TIP3    H223961   5.170   5.836  15.387  1.7984  0.5083 -0.2796
  824TIP3   OH223962   0.279   3.760   4.913 -0.4445  0.0080 -0.5388
  824TIP3    H123963   0.204   3.817   4.899 -0.7151 -0.3215 -0.4624
  824TIP3    H223964   0.355   3.813   4.890 -0.7256  0.2379 -0.9510
  825TIP3   OH223965   5.675   2.333   4.619  0.0485  0.1071 -0.1173
  825TIP3    H123966   5.685   2.369   4.707  1.6292 -0.7095  0.0725
  825TIP3    H223967   5.594   2.372   4.586 -0.8547  0.0378  1.8792
  826TIP3   OH223968   2.764   1.532   5.223 -0.0227 -0.2663 -0.8128
  826TIP3    H123969   2.845   1.541   5.273 -0.5627 -0.7998  0.1896
  826TIP3    H223970   2.793   1.518   5.133  1.0467 -1.5489 -0.3088
  827TIP3   OH223971   4.594   0.010  12.974  0.1252 -0.2060  0.0837
  827TIP3    H123972   4.537   0.033  13.047  1.5791  1.8367  0.6563
  827TIP3    H223973   4.650  -0.060  13.008  0.6433  0.5766  0.8752
  828TIP3   OH223974   2.822   0.895  13.752 -0.1891 -0.0729 -0.3097
  828TIP3    H123975   2.870   0.900  13.669  0.4122  0.0908  0.0362
  828TIP3    H223976   2.890   0.905  13.819 -0.2641 -2.9033  0.3014
  829TIP3   OH223977   5.014   6.139  15.264  0.3461  0.6423  0.0156
  829TIP3    H123978   5.074   6.072  15.299  0.8370  2.0235  1.9368
  829TIP3    H223979   5.071   6.199  15.217  0.3733  1.4821  1.0995
  830TIP3   OH223980   4.441   6.743  16.039  0.3747  0.4857 -0.0026
  830TIP3    H123981   4.394   6.714  16.117 -0.0192 -1.3260 -0.8703
  830TIP3    H223982   4.511   6.800  16.073 -0.8793  1.2067  1.4948
  831TIP3   OH223983   1.774   3.194   0.938  0.1400 -0.3397  0.0809
  831TIP3    H123984   1.725   3.119   0.904  1.3453 -0.6911 -0.9997
  831TIP3    H223985   1.719   3.270   0.917 -0.5619 -0.8188  0.1434
  832TIP3   OH223986   1.046   3.442   6.173 -0.0153 -0.1759  0.0869
  832TIP3    H123987   1.126   3.419   6.126  0.2629 -0.6243  0.7667
  832TIP3    H223988   1.066   3.426   6.265 -0.8333 -0.1457  0.2814
  833TIP3   OH223989   3.477   3.012  13.731  0.1488 -0.4441 -0.3762
  833TIP3    H123990   3.570   3.009  13.708 -0.3769 -0.0608 -2.7833
  833TIP3    H223991   3.452   2.921  13.744  0.8544 -0.5467  0.3318
  834TIP3   OH223992   1.301   5.940  11.447  0.4448  0.0826  0.0912
  834TIP3    H123993   1.294   5.866  11.388 -0.7438  0.2582 -0.0069
  834TIP3    H223994   1.283   6.017  11.393 -0.8701  0.2300  0.7079
  835TIP3   OH223995   6.004   2.676   1.526 -0.0714  0.3755  0.1193
  835TIP3    H123996   6.086   2.643   1.491  0.2025  0.9786  0.1845
  835TIP3    H223997   5.960   2.599   1.562 -1.1882 -0.6309 -3.0760
  836TIP3   OH223998   0.173   0.651   2.122 -0.1929  0.3080 -0.1348
  836TIP3    H123999   0.204   0.738   2.098 -2.3397  0.8054 -1.3371
  836TIP3    H224000   0.250   0.594   2.113  0.7092  1.6894 -1.5247
  837TIP3   OH224001   1.140   4.752   1.805 -0.4536  0.6437  0.2017
  837TIP3    H124002   1.136   4.797   1.890  1.1594  0.1025  0.6015
  837TIP3    H224003   1.177   4.666   1.825 -0.0142  0.5171 -1.0462
  838TIP3   OH224004   0.007   2.251   5.865  0.3799  0.1264 -0.8996
  838TIP3    H124005  -0.081   2.216   5.848 -0.5325  0.7754  1.8917
  838TIP3    H224006   0.034   2.289   5.781 -2.3895  0.6709 -1.6710
  839TIP3   OH224007   5.820   2.331  13.007  0.0406 -0.1659  0.1607
  839TIP3    H124008   5.794   2.266  12.942 -1.2611  0.8422 -0.3714
  839TIP3    H224009   5.788   2.296  13.090  3.2712 -2.3365  0.6552
  840TIP3   OH224010   1.677   5.739  10.726  0.2016  0.0081 -0.3570
  840TIP3    H124011   1.705   5.668  10.669  1.1960 -0.7842  1.0816
  840TIP3    H224012   1.647   5.696  10.806  1.3338  1.2058  0.7606
  841TIP3   OH224013   6.651   3.730   3.709  0.0191  0.4505 -0.2264
  841TIP3    H124014   6.633   3.770   3.624 -0.3281 -1.7402 -1.2453
  841TIP3    H224015   6.573   3.748   3.762 -0.0665  1.2133 -0.6076
  842TIP3   OH224016   3.006   3.233   2.728 -0.0769 -0.1334  0.4582
  842TIP3    H124017   3.094   3.201   2.744 -0.2624 -0.8960 -0.0185
  842TIP3    H224018   3.009   3.271   2.640 -0.9205 -2.8590 -0.8554
  843TIP3   OH224019   2.781   1.211  11.875 -0.2224 -0.3621 -0.0812
  843TIP3    H124020   2.823   1.237  11.957 -0.5211  0.2190 -0.1132
  843TIP3    H224021   2.830   1.133  11.848 -1.0922 -1.5013  1.4418
  844TIP3   OH224022   5.289   2.556   0.826  0.0679  0.1490 -0.1832
  844TIP3    H124023   5.231   2.613   0.876  0.5150  0.1498  0.3479
  844TIP3    H224024   5.364   2.541   0.884 -0.0364 -0.9654 -0.3171
  845TIP3   OH224025   0.799   3.359  17.302 -0.4672 -0.0648 -0.1241
  845TIP3    H124026   0.731   3.388  17.362 -1.2201  0.0676 -1.0299
  845TIP3    H224027   0.778   3.267  17.284  1.1303 -0.8504  1.6592
  846TIP3   OH224028   4.043   0.596  13.978 -0.5938 -0.1108 -0.2794
  846TIP3    H124029   3.969   0.635  14.024 -0.0930 -0.0703  0.5262
  846TIP3    H224030   4.079   0.667  13.925 -0.0199  0.4084  0.7579
  847TIP3   OH224031   0.125   3.962   1.272  0.5090 -0.3257 -0.4320
  847TIP3    H124032   0.202   4.009   1.305  1.0321 -1.3028 -0.2281
  847TIP3    H224033   0.131   3.875   1.311 -0.4151 -0.5917 -0.8479
  848TIP3   OH224034   6.156   5.959   0.942 -0.1719  0.6267 -0.8560
  848TIP3    H124035   6.172   5.994   1.030  0.2952 -0.7417 -0.3742
  848TIP3    H224036   6.179   6.032   0.884 -0.5220  1.5655  0.1393
  849TIP3   OH224037   2.687   1.683  11.032 -0.0315  0.4654  0.6100
  849TIP3    H124038   2.720   1.594  11.042 -0.6217  0.2463  0.6456
  849TIP3    H224039   2.625   1.694  11.104 -1.3158  0.2647 -0.4336
  850TIP3   OH224040   1.902   2.313   2.504 -0.1029 -0.2473  0.1824
  850TIP3    H124041   1.929   2.366   2.579  1.6226  1.1995 -1.3667
  850TIP3    H224042   1.902   2.223   2.536  1.5431  0.2447  1.6577
  851TIP3   OH224043   5.827   4.378   1.694  0.2467  0.1951 -0.6053
  851TIP3    H124044   5.916   4.380   1.728  0.1032 -1.1328 -0.0977
  851TIP3    H224045   5.831   4.314   1.623  0.4625  2.6295 -2.9714
  852TIP3   OH224046   1.372   1.943  16.846 -0.0250 -0.3000 -0.3943
  852TIP3    H124047   1.369   1.852  16.818 -0.7263  0.3092 -2.4925
  852TIP3    H224048   1.434   1.984  16.785 -1.3420  1.0454 -0.8686
  853TIP3   OH224049   2.916   0.857   2.630  0.0753  0.1604 -0.2805
  853TIP3    H124050   2.902   0.845   2.724 -0.8247  1.0287 -0.2838
  853TIP3    H224051   2.960   0.942   2.622 -0.3477  0.3495 -0.6718
  854TIP3   OH224052   6.723   6.708   2.126  0.0143 -0.2748 -0.2189
  854TIP3    H124053   6.629   6.696   2.119  0.3619 -2.8468 -2.2451
  854TIP3    H224054   6.759   6.619   2.119  2.6054  0.6627  0.0340
  855TIP3   OH224055   6.407   5.132   0.266  0.0046  0.8647 -0.0166
  855TIP3    H124056   6.488   5.178   0.288 -0.0135  0.5709  0.6605
  855TIP3    H224057   6.433   5.066   0.201  0.3495  0.6004  0.3908
  856TIP3   OH224058   0.352   2.644  15.406  0.2691  0.0815  0.9050
  856TIP3    H124059   0.259   2.626  15.397  0.9457 -3.0437 -1.1513
  856TIP3    H224060   0.366   2.727  15.359 -1.0207 -1.0953 -1.7279
  857TIP3   OH224061   6.623   5.712  11.927 -0.0809  0.1035  0.4346
  857TIP3    H124062   6.669   5.724  11.844  0.2599 -0.7467  0.4956
  857TIP3    H224063   6.531   5.726  11.905  0.0801  0.6173  0.0684
  858TIP3   OH224064   2.204   2.688   1.886 -0.1233 -0.2067  0.2231
  858TIP3    H124065   2.224   2.610   1.938  3.3427  0.8633  0.7852
  858TIP3    H224066   2.116   2.713   1.913 -0.0424 -2.0245  2.5313
  859TIP3   OH224067   6.059   1.380   1.739 -0.1440 -0.4002  0.1429
  859TIP3    H124068   6.094   1.468   1.752 -0.1874 -0.1074 -1.4947
  859TIP3    H224069   5.964   1.391   1.739 -0.1445 -0.3768 -0.4430
  860TIP3   OH224070   6.776   1.232  11.498  0.9305  0.4026 -0.3506
  860TIP3    H124071   6.775   1.162  11.433  2.9047 -0.6856  0.6976
  860TIP3    H224072   6.757   1.189  11.581  2.0406  1.1035  0.2960
  861TIP3   OH224073   3.660   2.735  11.251  0.0578  0.1163 -0.4151
  861TIP3    H124074   3.589   2.674  11.234  1.0330 -1.7478  1.7594
  861TIP3    H224075   3.737   2.695  11.211  0.8235 -0.4772  1.5345
  862TIP3   OH224076   1.490   6.273   0.530  0.0513  1.0217 -0.2213
  862TIP3    H124077   1.521   6.190   0.494  0.0301  1.2202 -0.7049
  862TIP3    H224078   1.418   6.299   0.472 -0.1617  1.2138  0.1244
  863TIP3   OH224079   5.035   2.689   0.288 -0.0388 -0.1507  0.5219
  863TIP3    H124080   5.105   2.628   0.266  0.5800 -0.1657  2.3640
  863TIP3    H224081   4.955   2.636   0.283  0.4090 -0.9328  1.3465
  864TIP3   OH224082   4.175   6.413   0.362 -0.0718 -0.4260  0.1056
  864TIP3    H124083   4.193   6.507   0.364  1.1110 -0.6478  1.8313
  864TIP3    H224084   4.238   6.375   0.423  0.3135 -2.5084 -1.4798
  865TIP3   OH224085   2.998   4.522  12.969  0.4946 -0.4440 -0.5222
  865TIP3    H124086   3.058   4.447  12.971  1.5512  0.3610 -0.6249
  865TIP3    H224087   2.912   4.484  12.952  0.9507 -1.6571 -0.2328
  866TIP3   OH224088   3.538   4.481  16.844 -0.0599  0.4583 -0.5119
  866TIP3    H124089   3.482   4.521  16.911 -0.8830  0.6658 -1.2980
  866TIP3    H224090   3.603   4.432  16.893 -1.0929 -0.0087  0.4450
  867TIP3   OH224091   5.311   2.411  11.889 -0.1011 -0.3897  0.2445
  867TIP3    H124092   5.288   2.439  11.977 -0.6872  3.2038 -0.8910
  867TIP3    H224093   5.233   2.364  11.857 -0.2019 -0.9600  1.2955
  868TIP3   OH224094   6.419   4.750  12.199  0.0423  0.6718 -0.4142
  868TIP3    H124095   6.325   4.737  12.195  0.1679 -1.0172  0.8958
  868TIP3    H224096   6.434   4.792  12.284  0.6554 -1.6750  0.7101
  869TIP3   OH224097   2.459   2.746  14.304  0.2119 -0.6066 -0.5455
  869TIP3    H124098   2.492   2.738  14.394 -1.0580  0.6509  0.0697
  869TIP3    H224099   2.533   2.781  14.255  0.6292 -0.3799  0.2246
  870TIP3   OH224100   3.993   3.095   6.662  0.1412 -0.3986  0.2730
  870TIP3    H124101   3.930   3.130   6.599  0.0832 -0.8656  0.0712
  870TIP3    H224102   4.040   3.173   6.694  1.1830 -0.2615 -1.4327
  871TIP3   OH224103   5.698   2.294   6.554 -0.5416 -0.1480 -0.6904
  871TIP3    H124104   5.728   2.203   6.561 -3.3905 -1.1284  0.0868
  871TIP3    H224105   5.778   2.346   6.563  0.8702 -2.4747  1.7058
  872TIP3   OH224106   6.130   2.025   0.544  0.5448  0.5722  0.9503
  872TIP3    H124107   6.125   1.958   0.613  2.6272  0.9628  1.5638
  872TIP3    H224108   6.192   1.988   0.480 -0.3556  0.7834 -0.0633
  873TIP3   OH224109   4.938   4.393  13.774 -0.3812  0.0575 -0.0913
  873TIP3    H124110   5.033   4.382  13.778 -0.3075 -0.6763 -2.5653
  873TIP3    H224111   4.926   4.485  13.750 -0.2965  0.0872 -0.0217
  874TIP3   OH224112   3.209   4.350   4.547 -1.0380  0.0693  0.4047
  874TIP3    H124113   3.200   4.438   4.513  0.0791  0.6002  1.3819
  874TIP3    H224114   3.128   4.334   4.596 -1.8009  0.0367 -0.8458
  875TIP3   OH224115   2.604   5.147  12.039  0.2711 -0.0982  0.0402
  875TIP3    H124116   2.666   5.152  12.112  0.7409 -1.6673 -0.2007
  875TIP3    H224117   2.520   5.127  12.079  0.7801 -2.3602  0.1327
  876TIP3   OH224118   4.869   5.252   3.414  0.3329  0.3229  0.0913
  876TIP3    H124119   4.817   5.328   3.441 -1.1119 -0.5659 -0.1098
  876TIP3    H224120   4.949   5.290   3.377 -0.8983  1.8285 -1.1725
  877TIP3   OH224121   0.572   6.675  11.509  0.5305  0.1048  0.2341
  877TIP3    H124122   0.494   6.661  11.457  1.1775 -0.6678 -0.5666
  877TIP3    H224123   0.550   6.747  11.568 -0.1420  1.1681 -1.2667
  878TIP3   OH224124   2.330   6.332   2.585  0.0042  0.3182  0.2378
  878TIP3    H124125   2.291   6.277   2.653 -1.7773 -1.3716 -1.9937
  878TIP3    H224126   2.270   6.407   2.578 -0.0137  0.3096  0.2976
  879TIP3   OH224127   0.429   2.084   4.429  0.1512 -0.0434 -0.6501
  879TIP3    H124128   0.374   2.141   4.375  1.2758  0.1844 -1.5828
  879TIP3    H224129   0.397   1.996   4.409 -0.3792  0.1250 -0.5839
  880TIP3   OH224130   3.466   5.226  12.588  0.7108 -0.5039 -0.2189
  880TIP3    H124131   3.393   5.260  12.537  0.6713 -0.9448 -0.4521
  880TIP3    H224132   3.528   5.299  12.591  0.0974  0.0082  0.3136
  881TIP3   OH224133   6.151   3.828   3.673  1.0992  0.0960  1.0045
  881TIP3    H124134   6.140   3.921   3.695 -1.4542 -0.0293  0.5369
  881TIP3    H224135   6.155   3.826   3.578  0.4382 -0.3238  0.9808
  882TIP3   OH224136   4.057   3.600   2.226  0.1157 -0.6680  0.2355
  882TIP3    H124137   4.100   3.661   2.286 -0.2544  1.9212 -1.9015
  882TIP3    H224138   4.109   3.604   2.146 -1.7667 -0.5287 -1.0663
  883TIP3   OH224139   2.540   0.737   0.590 -0.5979  0.2269  0.0025
  883TIP3    H124140   2.445   0.738   0.587 -0.5583  0.5230 -1.8149
  883TIP3    H224141   2.568   0.752   0.500  1.1723 -1.1283  0.2608
  884TIP3   OH224142   3.001   0.121   1.541 -0.8301 -0.2799 -0.0803
  884TIP3    H124143   2.916   0.104   1.502 -0.7101  0.5575 -0.7521
  884TIP3    H224144   3.050   0.167   1.473  0.5769 -1.7532 -0.1331
  885TIP3   OH224145   0.499   6.582  16.131 -0.1197  0.2752 -0.5186
  885TIP3    H124146   0.484   6.591  16.225 -1.2016  0.4946 -0.7029
  885TIP3    H224147   0.498   6.488  16.115 -0.6699  0.2626 -0.4193
  886TIP3   OH224148   6.340   2.068   2.778  0.5354 -0.4103  0.0110
  886TIP3    H124149   6.330   2.121   2.698 -1.1421  1.8868  1.6090
  886TIP3    H224150   6.255   2.026   2.789  0.0825  0.8506  1.5836
  887TIP3   OH224151   4.369   2.806   1.572  0.0916  0.0253 -0.5572
  887TIP3    H124152   4.454   2.798   1.529 -0.1090  0.6509 -1.0965
  887TIP3    H224153   4.375   2.749   1.649  1.5398  1.2023  0.2637
  888TIP3   OH224154   6.323   3.439  10.965  0.1705 -0.4687 -0.2764
  888TIP3    H124155   6.318   3.423  10.870 -1.5890 -0.5447 -0.2074
  888TIP3    H224156   6.323   3.534  10.973  1.1028 -0.4565 -0.3716
  889TIP3   OH224157   1.702   4.868  14.188 -0.0886  0.0464  0.4416
  889TIP3    H124158   1.646   4.850  14.264  2.0421  1.5913  2.5524
  889TIP3    H224159   1.684   4.959  14.166  0.1312 -0.0538 -0.1564
  890TIP3   OH224160   0.510   1.686  11.751  0.0622  0.0868  0.1545
  890TIP3    H124161   0.536   1.722  11.835 -0.9020  0.5109  0.2921
  890TIP3    H224162   0.553   1.742  11.686 -0.3620  0.6642  0.3696
  891TIP3   OH224163   5.993   0.076  14.137 -0.1743 -0.0553 -0.7256
  891TIP3    H124164   5.998   0.116  14.223  0.9735  0.5697 -1.0645
  891TIP3    H224165   6.023  -0.014  14.151 -0.5412 -0.1302 -0.3849
  892TIP3   OH224166   4.996   3.037  14.520 -0.1076 -0.1212  0.5766
  892TIP3    H124167   5.051   3.077  14.587  0.2630 -0.2724  0.3646
  892TIP3    H224168   4.910   3.078  14.532  0.2914  0.8339  0.2930
  893TIP3   OH224169   4.118   5.874  14.559 -0.1919 -0.4417 -0.2458
  893TIP3    H124170   4.097   5.828  14.477  2.2516 -1.8376 -0.1790
  893TIP3    H224171   4.079   5.818  14.627  0.6569 -1.1239 -0.3027
  894TIP3   OH224172   5.843   0.074  14.869  0.9206  0.5032  0.0253
  894TIP3    H124173   5.795  -0.006  14.848 -0.6863  0.8506  2.0258
  894TIP3    H224174   5.822   0.134  14.797 -1.9022  0.6870  0.8864
  895TIP3   OH224175   1.774   0.035  15.992  0.3420  0.0598 -0.2615
  895TIP3    H124176   1.737   0.091  16.061  1.6204  0.1788  0.3555
  895TIP3    H224177   1.857   0.005  16.028  2.0347  1.7486 -2.5458
  896TIP3   OH224178   1.685   1.430  16.921  0.1523  0.5792 -0.0803
  896TIP3    H124179   1.600   1.388  16.907 -0.0685  0.5635  1.1372
  896TIP3    H224180   1.721   1.442  16.834 -0.2244 -1.2076 -0.5253
  897TIP3   OH224181   3.544   4.061  15.775  0.2188  0.3608 -0.5888
  897TIP3    H124182   3.463   4.112  15.784  0.7116  1.2812 -1.1521
  897TIP3    H224183   3.599   4.092  15.847  0.9809  1.5595 -1.6432
  898TIP3   OH224184   1.729   0.355  13.120 -0.2668  0.3953 -0.1292
  898TIP3    H124185   1.727   0.310  13.204  0.5872  1.0521  0.2496
  898TIP3    H224186   1.678   0.435  13.134  1.6174  1.5444  0.3926
  899TIP3   OH224187   0.307   0.011   3.534  0.5169  0.2802  0.0286
  899TIP3    H124188   0.215   0.009   3.507  0.2358 -2.3370  0.8716
  899TIP3    H224189   0.311   0.080   3.600 -1.4749 -1.0861  1.7231
  900TIP3   OH224190   1.490   2.184  16.196  0.1665  0.5726  0.4785
  900TIP3    H124191   1.530   2.100  16.175 -0.2475  0.1749  1.2261
  900TIP3    H224192   1.407   2.162  16.239  0.5870  1.3233  1.7495
  901TIP3   OH224193   0.023   2.236   0.496  0.5037 -0.5153  0.3105
  901TIP3    H124194   0.059   2.254   0.410  3.0705  2.0216  1.7451
  901TIP3    H224195  -0.072   2.241   0.484  0.7855 -0.3787 -2.3619
  902TIP3   OH224196   3.033   3.615   2.028 -0.2396  0.4666 -0.0008
  902TIP3    H124197   3.017   3.614   1.933 -0.4347 -0.7196  0.0271
  902TIP3    H224198   3.128   3.615   2.036 -0.2128 -0.0471 -0.2167
  903TIP3   OH224199   0.636   3.889   0.074 -0.5080 -0.4125 -0.1139
  903TIP3    H124200   0.702   3.840   0.026 -1.1279 -1.5520  0.1469
  903TIP3    H224201   0.553   3.864   0.033 -0.8770  0.0961  0.3059
  904TIP3   OH224202   3.179   4.252   6.545 -0.3293 -0.0151 -0.0177
  904TIP3    H124203   3.164   4.336   6.500  0.4688  1.2483  1.9304
  904TIP3    H224204   3.244   4.208   6.490  0.3111  1.2845 -0.3594
  905TIP3   OH224205   5.529   2.163  12.779  0.1997 -0.0206  0.0495
  905TIP3    H124206   5.501   2.254  12.784 -0.7741 -0.3120  0.1079
  905TIP3    H224207   5.506   2.127  12.865 -2.4613 -1.1453 -1.0289
  906TIP3   OH224208   4.227   3.498   3.809  0.2621  0.0686  0.2101
  906TIP3    H124209   4.253   3.554   3.882  0.8204 -0.0330  0.0901
  906TIP3    H224210   4.135   3.521   3.793  0.5171  1.0310  0.0825
  907TIP3   OH224211   4.599   0.379  13.687 -0.0971  0.3540 -0.0128
  907TIP3    H124212   4.692   0.384  13.711 -0.2530  0.3241  0.6203
  907TIP3    H224213   4.599   0.358  13.593  0.5390 -0.8798  0.2454
  908TIP3   OH224214   5.033   5.060   2.761 -0.1407  0.0300 -0.3309
  908TIP3    H124215   5.007   5.019   2.678 -1.6805  0.8528 -0.3043
  908TIP3    H224216   5.022   5.154   2.746  0.1361  0.2230  0.6134
  909TIP3   OH224217   4.836   4.958  14.731  0.4859 -0.4678 -0.1213
  909TIP3    H124218   4.762   4.901  14.751  0.2135 -0.9330 -2.2249
  909TIP3    H224219   4.902   4.900  14.694  0.7489  0.3638 -1.0019
  910TIP3   OH224220   0.706   1.304   5.106 -0.5323 -0.0725  0.2740
  910TIP3    H124221   0.694   1.226   5.052 -0.0063 -0.3469  0.5510
  910TIP3    H224222   0.737   1.371   5.045  2.6404 -1.0688  0.6102
  911TIP3   OH224223   2.739   2.887   6.591 -0.2750  0.5308 -0.0153
  911TIP3    H124224   2.719   2.978   6.572  3.1140  1.9037  1.9501
  911TIP3    H224225   2.802   2.861   6.524  0.1420  0.2597  0.4729
  912TIP3   OH224226   0.452   6.723   4.072 -0.4838  0.2672 -0.0421
  912TIP3    H124227   0.363   6.699   4.047 -0.1387 -0.5636 -0.5306
  912TIP3    H224228   0.508   6.680   4.007  0.3221 -0.0246  0.8137
  913TIP3   OH224229   6.188   3.445   6.818 -0.0931  0.1668  0.8289
  913TIP3    H124230   6.234   3.523   6.787 -1.4555  0.0375 -1.9413
  913TIP3    H224231   6.150   3.471   6.902  0.8551  1.9078  0.7690
  914TIP3   OH224232   1.106   5.004  11.286 -0.5332  0.2520 -0.3229
  914TIP3    H124233   1.165   4.957  11.227  0.5018 -0.8507  1.4858
  914TIP3    H224234   1.134   5.096  11.280 -1.4279  0.4325 -2.5923
  915TIP3   OH224235   6.335   1.223   5.337  0.3567 -1.0432  0.3404
  915TIP3    H124236   6.426   1.195   5.350  0.8641  0.2472 -0.2527
  915TIP3    H224237   6.326   1.233   5.242 -0.4483 -1.2549  0.3835
  916TIP3   OH224238   4.243   6.156  15.319 -0.4075  0.6239 -0.1053
  916TIP3    H124239   4.194   6.155  15.401 -2.0978  1.8637 -1.0471
  916TIP3    H224240   4.179   6.130  15.252  0.7128  0.4476 -1.1495
  917TIP3   OH224241   2.619   2.831   0.267 -0.4607  0.0669  0.2940
  917TIP3    H124242   2.548   2.766   0.269  0.1543 -0.6370 -0.2309
  917TIP3    H224243   2.690   2.789   0.316 -0.0697  0.3534 -0.0278
  918TIP3   OH224244   1.565   4.913   4.390  0.5597  0.5974 -0.5751
  918TIP3    H124245   1.575   4.977   4.460  1.0464  0.7217 -0.7552
  918TIP3    H224246   1.623   4.841   4.415 -1.5949 -0.7892  0.7653
  919TIP3   OH224247   0.789   2.638   5.523  0.1345  0.3964 -0.3716
  919TIP3    H124248   0.798   2.572   5.592 -0.3736  1.7087  1.0040
  919TIP3    H224249   0.699   2.629   5.492  0.2702  0.0120 -0.6675
  920TIP3   OH224250   6.712   1.276  11.795  0.4839 -0.1232  0.5509
  920TIP3    H124251   6.726   1.184  11.815  2.2554  0.4171  2.1420
  920TIP3    H224252   6.729   1.321  11.878  2.2803  1.8219 -0.7865
  921TIP3   OH224253   3.342   2.325   2.108 -0.1780  0.6147  0.0035
  921TIP3    H124254   3.424   2.324   2.058  0.4170  2.2148  0.8705
  921TIP3    H224255   3.367   2.292   2.194 -0.7312 -0.0821 -0.0981
  922TIP3   OH224256   2.669   1.267   3.879  0.4020 -1.0148  0.6371
  922TIP3    H124257   2.695   1.359   3.872 -0.0223 -0.9410 -0.0560
  922TIP3    H224258   2.735   1.220   3.827  0.3445 -1.0517  0.5981
  923TIP3   OH224259   5.113   0.526   5.130 -0.4733  1.0375 -0.3556
  923TIP3    H124260   5.103   0.431   5.120 -1.8100  1.1990 -0.7816
  923TIP3    H224261   5.141   0.556   5.044  0.5978  0.9610 -0.0398
  924TIP3   OH224262   5.079   1.570   6.106  0.0670  0.8110  0.0582
  924TIP3    H124263   5.096   1.478   6.128 -0.9747  1.1402  2.6570
  924TIP3    H224264   5.093   1.576   6.012  1.2924 -1.7459  0.0060
  925TIP3   OH224265   1.016   1.707  15.158  0.5599 -0.0890  0.3495
  925TIP3    H124266   1.024   1.634  15.096 -2.2875 -0.3763  0.1811
  925TIP3    H224267   1.101   1.710  15.202  1.2636 -2.5965 -0.6169
  926TIP3   OH224268   2.637   3.803  11.843  0.5777 -0.1589  0.3291
  926TIP3    H124269   2.552   3.807  11.887 -1.1563 -1.5245 -2.5707
  926TIP3    H224270   2.682   3.728  11.882 -0.2104 -0.3549  0.8685
  927TIP3   OH224271   4.640   3.320   1.028  0.0106 -0.5839 -0.1212
  927TIP3    H124272   4.638   3.412   1.005 -0.9977  0.0855  2.2923
  927TIP3    H224273   4.559   3.305   1.076  0.9145 -2.2977  1.0009
  928TIP3   OH224274   3.171   3.887   2.939  0.2796 -0.4602  0.6319
  928TIP3    H124275   3.100   3.838   2.897 -0.2330  0.4468  0.4095
  928TIP3    H224276   3.133   3.918   3.021  0.3588  0.1649  0.4384
  929TIP3   OH224277   0.475   0.661  17.339 -0.3434  0.0522 -0.2007
  929TIP3    H124278   0.479   0.569  17.313 -0.5123 -0.4987  1.5997
  929TIP3    H224279   0.422   0.662  17.419  1.0746  1.4611  0.7907
  930TIP3   OH224280   4.572   6.488  12.918  0.0154  0.3512 -0.2310
  930TIP3    H124281   4.663   6.483  12.890  0.2152  2.7111 -0.2075
  930TIP3    H224282   4.526   6.532  12.846 -0.5237  1.6721  0.8715
  931TIP3   OH224283   3.655   2.633   2.945  0.4606 -0.0297  0.1901
  931TIP3    H124284   3.631   2.725   2.935 -1.3150 -0.1388  2.5680
  931TIP3    H224285   3.586   2.585   2.898  0.8113 -0.1767 -0.1803
  932TIP3   OH224286   2.535   3.553  14.453  0.3233 -0.1039 -0.2790
  932TIP3    H124287   2.582   3.574  14.373  0.9856  2.4630  0.6653
  932TIP3    H224288   2.523   3.638  14.497 -0.5925 -1.3170  2.0175
  933TIP3   OH224289   4.552   5.956   3.843  0.1594  0.1265  0.0870
  933TIP3    H124290   4.526   5.933   3.754 -0.8800  1.3053  0.0593
  933TIP3    H224291   4.634   6.005   3.832 -0.4959  1.1541 -0.3242
  934TIP3   OH224292   4.389   5.952   3.572 -0.0546 -0.2018 -0.2868
  934TIP3    H124293   4.346   6.013   3.632  0.1740  1.3481 -1.6195
  934TIP3    H224294   4.319   5.897   3.538 -0.3998 -0.1278  0.2939
  935TIP3   OH224295   2.927   6.135  11.193 -0.1504  1.0613 -0.0936
  935TIP3    H124296   2.907   6.045  11.221  0.6141  1.0728  0.5419
  935TIP3    H224297   2.921   6.187  11.273  0.1955  1.4376 -0.3071
  936TIP3   OH224298   2.799   1.335   4.650 -0.0387  0.2019  0.5997
  936TIP3    H124299   2.779   1.424   4.680  0.4380  0.9068 -1.0945
  936TIP3    H224300   2.892   1.322   4.671 -0.2197 -0.0895  1.2588
  937TIP3   OH224301   0.261   0.588  16.401  0.6770 -0.8973 -0.0971
  937TIP3    H124302   0.330   0.640  16.362 -0.8191 -0.9849 -3.1453
  937TIP3    H224303   0.222   0.541  16.328 -0.1642 -3.8332  2.0323
  938TIP3   OH224304   4.614   2.616  15.819 -0.2259  0.3019 -0.5917
  938TIP3    H124305   4.693   2.562  15.823  0.2831  1.0142 -0.7879
  938TIP3    H224306   4.587   2.611  15.727  0.2005  0.8916 -0.7589
  939TIP3   OH224307   1.370   1.320   0.745  0.0025  0.3714  0.3617
  939TIP3    H124308   1.366   1.236   0.790 -1.4435  0.4264  0.3839
  939TIP3    H224309   1.300   1.316   0.680  0.5708  1.1780 -0.3214
  940TIP3   OH224310   1.402   3.486   3.568 -0.0788 -0.1179  0.3630
  940TIP3    H124311   1.399   3.577   3.537 -0.3048 -0.2222  0.0693
  940TIP3    H224312   1.329   3.444   3.523  0.7721 -0.7490 -0.4666
  941TIP3   OH224313   3.861   2.795   3.100 -0.0032  0.2620 -0.0008
  941TIP3    H124314   3.784   2.766   3.050  0.3579 -0.2527 -0.2609
  941TIP3    H224315   3.830   2.872   3.148 -0.9818 -0.5679  0.7231
  942TIP3   OH224316   1.911   6.140  13.882 -0.0099 -0.1594 -0.0018
  942TIP3    H124317   1.939   6.048  13.888  0.0950 -0.0258  3.0288
  942TIP3    H224318   1.897   6.167  13.973 -1.0802  2.5442 -0.8658
  943TIP3   OH224319   4.778   2.804   3.219 -0.0265 -0.4073 -0.7084
  943TIP3    H124320   4.827   2.886   3.214  0.0760 -0.4677 -0.7047
  943TIP3    H224321   4.688   2.831   3.237  0.0341 -0.3022 -0.5566
  944TIP3   OH224322   2.417   6.437  12.530  0.2513 -0.7374  0.3070
  944TIP3    H124323   2.505   6.462  12.500 -0.4171  1.2062 -0.1289
  944TIP3    H224324   2.434   6.374  12.600  2.0063 -0.3687  0.2743
  945TIP3   OH224325   0.575   6.540  11.907  0.7472 -0.2371  0.3936
  945TIP3    H124326   0.579   6.599  11.982 -0.2212  1.2549 -0.6520
  945TIP3    H224327   0.666   6.527  11.882  1.0239  0.0902  1.1900
  946TIP3   OH224328   6.024   0.103  15.428 -0.2329  0.1475 -0.0583
  946TIP3    H124329   5.985   0.188  15.447  1.7702  1.0048  0.5316
  946TIP3    H224330   6.088   0.121  15.359 -0.1069 -0.9804 -0.2568
  947TIP3   OH224331   3.190   4.635   4.496  0.1780 -0.1712  1.0682
  947TIP3    H124332   3.208   4.714   4.548 -0.1763  1.5745 -1.2788
  947TIP3    H224333   3.213   4.660   4.407 -0.5062 -2.5849  0.1480
  948TIP3   OH224334   0.672   3.006  15.655 -0.2535 -0.0504  0.2291
  948TIP3    H124335   0.699   2.922  15.617 -0.2367  0.0025  0.1244
  948TIP3    H224336   0.586   2.988  15.694  0.5681 -0.5981  1.8818
  949TIP3   OH224337   4.448   1.520   0.870 -0.0041 -0.2286 -0.5140
  949TIP3    H124338   4.521   1.487   0.923 -0.0044  0.6851  0.0602
  949TIP3    H224339   4.468   1.612   0.855 -0.8803 -0.0486 -0.6382
  950TIP3   OH224340   4.277   2.026  16.695  0.1805  0.4133 -0.2495
  950TIP3    H124341   4.284   2.121  16.705  0.7531  0.2471  1.2486
  950TIP3    H224342   4.183   2.008  16.693  0.0323  0.8926  1.1329
  951TIP3   OH224343   2.420   6.621  14.520  0.3540  0.0295  0.2144
  951TIP3    H124344   2.514   6.639  14.513  0.6703 -0.0669  3.1577
  951TIP3    H224345   2.413   6.526  14.521  0.3797  0.0284  1.2297
  952TIP3   OH224346   5.619   3.382  14.243 -0.1620  0.2589 -0.1500
  952TIP3    H124347   5.689   3.324  14.271 -0.7008  0.5431  1.9289
  952TIP3    H224348   5.651   3.470  14.261 -0.4711  0.4717 -0.6083
  953TIP3   OH224349   3.437   1.012   3.331 -0.1146 -0.4114 -0.3034
  953TIP3    H124350   3.466   0.987   3.243 -0.4970 -1.7536 -0.0744
  953TIP3    H224351   3.500   1.079   3.359 -0.5989  0.7944 -1.9761
  954TIP3   OH224352   5.442   1.569  12.384  0.0675  0.0220  0.2995
  954TIP3    H124353   5.537   1.563  12.386  0.1203  0.4064 -0.4938
  954TIP3    H224354   5.421   1.653  12.425  0.1290  0.2962 -0.2134
  955TIP3   OH224355   3.831   6.329  15.954 -0.3822 -0.3562 -0.3674
  955TIP3    H124356   3.911   6.343  15.903 -0.6530  1.3269 -0.3727
  955TIP3    H224357   3.860   6.273  16.027  1.1351  1.2711  0.3568
  956TIP3   OH224358   4.826   1.675   4.609 -0.4157 -0.0934  0.5384
  956TIP3    H124359   4.747   1.712   4.570 -0.0699 -0.4327 -0.5287
  956TIP3    H224360   4.816   1.689   4.703 -0.6442  1.9893  0.2499
  957TIP3   OH224361   0.383   5.679   0.410  0.6900 -0.3769 -0.3436
  957TIP3    H124362   0.402   5.766   0.375  3.0800 -0.7974 -0.2759
  957TIP3    H224363   0.434   5.620   0.354 -0.9548 -1.7587 -0.4339
  958TIP3   OH224364   0.388   5.225  13.644  0.1993 -0.7567  0.1675
  958TIP3    H124365   0.473   5.246  13.683  0.7176 -3.1148  0.4538
  958TIP3    H224366   0.355   5.152  13.696 -1.6104 -0.4794 -0.5125
  959TIP3   OH224367   5.377   4.513   3.613  0.1081  0.1167 -0.2250
  959TIP3    H124368   5.350   4.572   3.542 -0.1953 -0.1522 -0.3315
  959TIP3    H224369   5.299   4.463   3.635  0.6142 -0.9945 -0.8585
  960TIP3   OH224370   1.945   2.529   2.703 -0.1818  0.7616  0.3333
  960TIP3    H124371   1.998   2.599   2.665  0.1236  0.1178 -0.4719
  960TIP3    H224372   1.991   2.504   2.783 -0.9423  2.2812  1.2985
  961TIP3   OH224373   2.443   1.458   5.228  0.2359 -0.0090  0.2778
  961TIP3    H124374   2.402   1.397   5.167  0.3928  0.3208 -0.1569
  961TIP3    H224375   2.531   1.473   5.194 -0.2653  1.5736 -0.4389
  962TIP3   OH224376   6.376   4.667   1.353 -0.1297  0.3733 -0.5757
  962TIP3    H124377   6.287   4.639   1.332  0.2961 -2.0668  0.5058
  962TIP3    H224378   6.430   4.590   1.337  1.1785  0.4470  2.6343
  963TIP3   OH224379   1.692   4.308   6.097 -0.1781  0.1041  0.0362
  963TIP3    H124380   1.623   4.331   6.036 -1.0965  0.0870  1.0442
  963TIP3    H224381   1.758   4.377   6.086 -0.4712  0.2596 -0.7488
  964TIP3   OH224382   4.511   6.247  11.540 -0.1153  0.9573  0.2331
  964TIP3    H124383   4.536   6.171  11.592 -1.1414  0.2406 -0.2790
  964TIP3    H224384   4.538   6.225  11.450  1.1236  1.9381  0.3340
  965TIP3   OH224385   4.833   6.729  16.107  0.0976  0.1393 -0.1134
  965TIP3    H124386   4.834   6.700  16.199  0.6747  0.4083 -0.0295
  965TIP3    H224387   4.883   6.810  16.107  1.5311 -0.7071 -0.9385
  966TIP3   OH224388   3.402   1.674  16.887  0.6524  0.0275  0.0746
  966TIP3    H124389   3.468   1.697  16.821 -0.1412  2.5269  0.0540
  966TIP3    H224390   3.320   1.711  16.853 -0.5429 -1.9299  0.6975
  967TIP3   OH224391   2.489   0.699   2.189 -0.0025  0.3474 -0.0218
  967TIP3    H124392   2.552   0.730   2.255 -1.4827  1.4458  0.9451
  967TIP3    H224393   2.503   0.605   2.185  0.5223  0.3295  1.4663
  968TIP3   OH224394   4.979   4.684  11.037  0.0662  0.4041 -0.1986
  968TIP3    H124395   4.921   4.627  11.087  0.2775  0.5050  0.1643
  968TIP3    H224396   4.993   4.637  10.954  0.4357 -0.1951  0.1914
  969TIP3   OH224397   3.794   5.720  14.663  0.2945 -0.3208  0.5732
  969TIP3    H124398   3.712   5.711  14.712  1.2842  0.1571  2.4146
  969TIP3    H224399   3.767   5.749  14.576 -1.4792  0.0930  1.2253
  970TIP3   OH224400   3.935   4.709   0.695  0.7142  0.1808  0.0355
  970TIP3    H124401   3.908   4.678   0.782  0.0772 -0.6697 -0.4432
  970TIP3    H224402   3.866   4.769   0.668  1.1706  0.8391  0.3252
  971TIP3   OH224403   5.656   2.245   0.495 -0.4953 -0.4263 -0.3980
  971TIP3    H124404   5.666   2.224   0.402 -3.1479  0.0776 -0.8757
  971TIP3    H224405   5.566   2.219   0.516 -0.5514  1.1372  1.5464
  972TIP3   OH224406   1.222   2.209   5.583  0.2760 -0.3693 -0.5384
  972TIP3    H124407   1.270   2.172   5.657 -0.9286  0.1245  0.5301
  972TIP3    H224408   1.178   2.134   5.543 -0.7037 -0.3629  0.5085
  973TIP3   OH224409   1.889   4.344  16.051  0.1825  0.3372  0.1364
  973TIP3    H124410   1.844   4.261  16.044  0.8507  0.0820 -1.4678
  973TIP3    H224411   1.916   4.349  16.143 -0.3428 -0.9527  0.3726
  974TIP3   OH224412   1.575   4.148  15.794 -0.2136 -0.0670  0.0233
  974TIP3    H124413   1.572   4.205  15.718 -0.5648 -1.0867 -0.7493
  974TIP3    H224414   1.604   4.205  15.866 -0.4373  1.0402 -0.7388
  975TIP3   OH224415   0.952   3.092   3.991 -0.1105  0.1096 -0.4071
  975TIP3    H124416   1.020   3.149   3.954  2.1028 -0.5107  2.3532
  975TIP3    H224417   0.915   3.143   4.063 -0.8969 -0.4786 -0.3827
  976TIP3   OH224418   2.578   0.610  14.323 -0.3377 -0.0807  0.2632
  976TIP3    H124419   2.585   0.518  14.345 -1.9092 -0.0074  1.1736
  976TIP3    H224420   2.626   0.656  14.391 -0.8759 -0.1502  0.6950
  977TIP3   OH224421   4.823   0.863  12.962 -0.0902 -1.0062 -0.4725
  977TIP3    H124422   4.779   0.898  13.039  1.6694 -2.5056  1.3078
  977TIP3    H224423   4.916   0.861  12.986  0.7509 -0.0077 -3.2654
  978TIP3   OH224424   6.286   3.946  11.488 -0.0705  0.2465 -0.2462
  978TIP3    H124425   6.218   3.965  11.423 -0.3285  0.0137 -0.0468
  978TIP3    H224426   6.245   3.966  11.572 -0.0892 -0.4236 -0.0840
  979TIP3   OH224427   0.234   4.138  11.021  0.3212 -0.0097 -0.2243
  979TIP3    H124428   0.215   4.223  10.980  0.4080  0.3503  0.4569
  979TIP3    H224429   0.190   4.074  10.965  0.6375  0.4406 -1.0060
  980TIP3   OH224430   0.088   4.665  13.427  0.4202  0.1871  0.5217
  980TIP3    H124431   0.042   4.584  13.404  1.3511 -0.3411  0.4718
  980TIP3    H224432   0.140   4.686  13.350  1.2900  0.0309  1.0528
  981TIP3   OH224433   5.703   6.162  13.605 -0.2594  0.0164  0.2601
  981TIP3    H124434   5.656   6.239  13.638  0.3847  0.4226  0.2543
  981TIP3    H224435   5.666   6.147  13.518 -2.1313 -1.1956  1.1893
  982TIP3   OH224436   2.123   4.117   3.432 -0.1371 -0.8722 -0.5217
  982TIP3    H124437   2.187   4.132   3.501 -0.4758 -1.1577 -0.1428
  982TIP3    H224438   2.094   4.205   3.407 -1.8941 -0.8254  1.4891
  983TIP3   OH224439   0.466   0.895  17.191 -0.2282  0.3990  0.5341
  983TIP3    H124440   0.469   0.831  17.262  1.3532  0.3540  0.4583
  983TIP3    H224441   0.463   0.980  17.235 -0.4349  0.3403  0.6359
  984TIP3   OH224442   5.979   6.210   0.860  0.0636 -0.5241 -0.0315
  984TIP3    H124443   6.023   6.137   0.817 -1.1577 -1.1864 -0.2135
  984TIP3    H224444   6.021   6.216   0.946  0.3133 -1.3050 -0.0923
  985TIP3   OH224445   4.457   5.366  12.757  0.7248  0.0192 -0.6052
  985TIP3    H124446   4.522   5.353  12.826 -0.9022 -0.5203  0.9029
  985TIP3    H224447   4.508   5.368  12.676  2.6297 -0.0511  0.5353
  986TIP3   OH224448   3.260   1.572   3.196 -0.6895 -0.2850  0.1475
  986TIP3    H124449   3.252   1.477   3.191 -0.9424 -0.2180 -1.5103
  986TIP3    H224450   3.262   1.592   3.289 -1.0249 -1.8811  0.5220
  987TIP3   OH224451   6.473   2.455  14.588  0.0283  0.1073  0.4599
  987TIP3    H124452   6.509   2.542  14.570  1.6380 -0.6218 -0.0368
  987TIP3    H224453   6.528   2.421  14.658  1.1544 -1.5290 -1.1515
  988TIP3   OH224454   6.290   3.370  15.034  0.1159  0.2282  0.1249
  988TIP3    H124455   6.375   3.329  15.021  0.6508  0.2040  2.9158
  988TIP3    H224456   6.299   3.457  14.995  1.8220  0.5819  1.1787
  989TIP3   OH224457   4.201   5.909   1.902 -0.0458  0.4201  0.0394
  989TIP3    H124458   4.202   5.914   1.998 -2.1050  0.3030  0.1309
  989TIP3    H224459   4.292   5.922   1.876  0.3003  2.3716  1.9026
  990TIP3   OH224460   4.644   5.466  16.510  0.2604  0.0375  0.5500
  990TIP3    H124461   4.679   5.437  16.595 -0.8026 -0.7475  0.7378
  990TIP3    H224462   4.694   5.545  16.490  0.1554  0.5683  2.1829
  991TIP3   OH224463   1.343   2.876  16.220 -0.4128  0.4403 -0.2667
  991TIP3    H124464   1.265   2.887  16.165 -0.4693  1.0699 -0.0666
  991TIP3    H224465   1.309   2.850  16.305 -0.2846 -1.2897 -0.7105
  992TIP3   OH224466   1.937   0.016   3.825  0.0580  0.0251  0.0002
  992TIP3    H124467   1.943  -0.070   3.783  0.8866 -0.2728  0.7088
  992TIP3    H224468   1.969   0.002   3.914  2.5471  1.5307 -0.5505
  993TIP3   OH224469   1.167   0.021   1.528  0.1306 -0.2143  0.9685
  993TIP3    H124470   1.161   0.100   1.473  2.8562 -0.6046 -0.0284
  993TIP3    H224471   1.166   0.055   1.617 -0.7892  0.7603  0.6152
  994TIP3   OH224472   4.887   0.396  15.908  0.5504 -0.2224  0.5967
  994TIP3    H124473   4.861   0.468  15.965  1.0741  1.1759 -0.8245
  994TIP3    H224474   4.967   0.361  15.948 -0.0300 -0.4026  1.6115
  995TIP3   OH224475   4.503   0.467  17.448  0.4197  0.5036  0.1723
  995TIP3    H124476   4.443   0.486  17.520  0.5034  1.3300  0.0339
  995TIP3    H224477   4.520   0.552  17.409 -0.4953 -0.0490 -1.5240
  996TIP3   OH224478   5.068   2.166   5.980 -0.2469  0.2359  0.3743
  996TIP3    H124479   5.081   2.083   6.025  0.0605 -0.2639 -0.5961
  996TIP3    H224480   5.110   2.232   6.035 -2.1324  0.0606  2.1227
  997TIP3   OH224481   2.485   4.134   0.724  0.1911 -0.3543 -0.3224
  997TIP3    H124482   2.396   4.117   0.692 -1.1819  2.4977  1.5006
  997TIP3    H224483   2.491   4.083   0.805 -0.4388  0.6340  0.3715
  998TIP3   OH224484   0.127   4.021  13.739  0.3633  0.0488 -0.2076
  998TIP3    H124485   0.074   4.043  13.662  0.4013  1.3471  0.1136
  998TIP3    H224486   0.189   3.956  13.707 -1.0966 -1.1617 -0.7035
  999TIP3   OH224487   0.925   4.947   1.768  0.4387  0.6426  0.4902
  999TIP3    H124488   0.864   4.873   1.772  0.4413  0.6493  0.6575
  999TIP3    H224489   1.010   4.908   1.785  0.8136  0.2438 -1.9231
 1000TIP3   OH224490   1.293   2.759  12.322 -0.4990  0.1952  0.2821
 1000TIP3    H124491   1.378   2.740  12.284 -0.2251  1.0957  0.4320
 1000TIP3    H224492   1.310   2.771  12.416 -1.3142 -3.0388  0.9870
 1001TIP3   OH224493   1.243   3.098   0.962 -0.0981 -0.2885  0.1244
 1001TIP3    H124494   1.209   3.118   1.050  0.8948 -2.6246  1.1135
 1001TIP3    H224495   1.224   3.177   0.911 -0.3468  1.3247  2.5350
 1002TIP3   OH224496   2.688   3.602  15.401 -0.1955 -0.0350  0.0717
 1002TIP3    H124497   2.726   3.518  15.378 -1.1541  0.0137 -1.9727
 1002TIP3    H224498   2.724   3.663  15.337 -2.0853  0.3831 -0.6796
 1003TIP3   OH224499   3.170   0.947  11.901 -0.1931 -0.4978 -0.0582
 1003TIP3    H124500   3.098   0.885  11.893 -0.7311 -0.0765  1.2317
 1003TIP3    H224501   3.130   1.033  11.894 -0.0310 -0.2251  1.7833
 1004TIP3   OH224502   2.174   4.216  15.831  0.3132 -0.3725  0.3305
 1004TIP3    H124503   2.255   4.248  15.792 -0.3009 -2.3000 -2.9519
 1004TIP3    H224504   2.202   4.150  15.894  1.3246  0.3971  0.7044
 1005TIP3   OH224505   3.172   5.520   3.043  0.2729 -0.3267 -0.0174
 1005TIP3    H124506   3.188   5.439   2.994  0.7870  0.0248 -0.4394
 1005TIP3    H224507   3.259   5.553   3.063  0.0656 -0.2857  0.8500
 1006TIP3   OH224508   1.970   2.700  14.526 -0.6903 -0.5790 -0.5429
 1006TIP3    H124509   2.000   2.757  14.596 -1.8349 -0.0421 -0.4692
 1006TIP3    H224510   2.049   2.656  14.494  0.2049  1.0070 -0.5679
 1007TIP3   OH224511   0.801   6.527   1.134 -0.5913  0.2223  0.1411
 1007TIP3    H124512   0.804   6.609   1.183  0.6489  0.4016 -0.2168
 1007TIP3    H224513   0.795   6.553   1.042 -0.3410 -0.0858  0.0333
 1008TIP3   OH224514   4.049   1.814   4.565 -0.6363  0.0697 -0.1403
 1008TIP3    H124515   4.129   1.762   4.554 -0.8639 -0.1842 -0.6445
 1008TIP3    H224516   4.012   1.784   4.648  0.5533  1.2370  0.8546
 1009TIP3   OH224517   1.976   4.561  13.450  0.2335 -0.0022 -0.2859
 1009TIP3    H124518   1.941   4.499  13.514  0.2755  1.0090  0.7539
 1009TIP3    H224519   1.964   4.647  13.491  2.4028  0.5188 -0.5963
 1010TIP3   OH224520   1.412   3.299   2.925  0.4689 -0.1178  0.0503
 1010TIP3    H124521   1.443   3.213   2.953  0.6685  0.1396  0.6309
 1010TIP3    H224522   1.358   3.329   2.998  1.2978  0.7250  0.3331
 1011TIP3   OH224523   6.500   1.636  14.273  0.4182 -0.0088 -0.8171
 1011TIP3    H124524   6.490   1.675  14.186 -1.6743 -1.4481 -1.3041
 1011TIP3    H224525   6.540   1.550  14.256 -0.0823 -0.3350 -0.3940
 1012TIP3   OH224526   6.269   0.594   1.176  0.1341  0.0224 -0.4753
 1012TIP3    H124527   6.180   0.622   1.153 -0.4318 -0.6857  0.7676
 1012TIP3    H224528   6.319   0.676   1.180 -0.2650  0.3596 -1.9129
 1013TIP3   OH224529   3.035   3.233  14.409 -0.3560  0.3357  0.7029
 1013TIP3    H124530   2.967   3.300  14.407 -2.0240 -1.0479  4.0091
 1013TIP3    H224531   3.086   3.253  14.487  0.4299 -1.0451  0.5663
 1014TIP3   OH224532   3.952   2.006   5.153 -0.1675  0.4853  0.0443
 1014TIP3    H124533   3.881   1.948   5.127 -0.9115  0.9275  1.0013
 1014TIP3    H224534   3.937   2.087   5.105  0.0647  0.3573 -0.2437
 1015TIP3   OH224535   3.261   2.214   5.321  0.1120  0.2402 -0.0980
 1015TIP3    H124536   3.278   2.300   5.283 -0.7132  0.5076  0.0994
 1015TIP3    H224537   3.170   2.219   5.350  0.3448 -0.3792  0.7782
 1016TIP3   OH224538   1.289   1.041   3.329 -0.2616  0.1740 -0.2351
 1016TIP3    H124539   1.354   1.001   3.387  0.2003  0.7503 -0.3484
 1016TIP3    H224540   1.205   1.013   3.365  0.0209  0.3017  0.5568
 1017TIP3   OH224541   5.317   1.803  16.048 -0.2202  0.3311 -0.2908
 1017TIP3    H124542   5.395   1.852  16.021 -0.1222  0.1229 -0.3843
 1017TIP3    H224543   5.305   1.827  16.140  0.5575 -0.4281  0.0236
 1018TIP3   OH224544   6.268   5.377   4.743 -0.0207  0.0143  0.2675
 1018TIP3    H124545   6.243   5.325   4.819  0.9726  1.5653  1.7402
 1018TIP3    H224546   6.207   5.351   4.674 -0.4398 -2.0174  1.3479
 1019TIP3   OH224547   2.547   3.059  11.378  0.7473 -0.1167 -0.0581
 1019TIP3    H124548   2.469   3.063  11.322  1.1030  0.7701 -0.5140
 1019TIP3    H224549   2.591   3.143  11.363  0.7089  0.2619  1.7857
 1020TIP3   OH224550   2.914   1.010  11.733 -0.0788  0.3727  0.1476
 1020TIP3    H124551   3.002   1.047  11.732 -0.7521  2.0747 -1.0090
 1020TIP3    H224552   2.900   0.977  11.645 -0.3586 -0.5458  0.5231
 1021TIP3   OH224553   0.058   1.544   0.077  0.1313 -0.0739 -0.6870
 1021TIP3    H124554   0.102   1.624   0.047 -0.8946  1.0309  0.5946
 1021TIP3    H224555  -0.034   1.571   0.089  0.0969 -0.9469  1.4583
 1022TIP3   OH224556   2.170   5.166   1.835  0.0919  0.2943 -1.1515
 1022TIP3    H124557   2.123   5.215   1.768 -1.4759 -0.1283 -0.4171
 1022TIP3    H224558   2.102   5.121   1.884  1.3910 -1.9182 -1.2234
 1023TIP3   OH224559   4.423   4.524   0.843 -0.3568  0.5547 -0.3945
 1023TIP3    H124560   4.387   4.466   0.910  0.2835  0.6649  0.0563
 1023TIP3    H224561   4.432   4.609   0.887  0.4648  0.5212 -0.4863
 1024TIP3   OH224562   1.359   0.490  16.065  0.0972  0.0313  0.4393
 1024TIP3    H124563   1.296   0.421  16.086 -0.2089  0.0747 -0.2903
 1024TIP3    H224564   1.331   0.522  15.979  1.5101 -0.4405 -0.2415
 1025TIP3   OH224565   2.509   1.850   5.774 -0.4673 -0.3477  0.3948
 1025TIP3    H124566   2.479   1.931   5.734 -1.1446 -1.3337 -1.1898
 1025TIP3    H224567   2.596   1.836   5.737 -1.2513 -1.4653 -1.1338
 1026TIP3   OH224568   4.338   3.653  16.441  0.2274 -0.0632 -0.3759
 1026TIP3    H124569   4.302   3.733  16.404  0.9042 -0.1899 -1.3296
 1026TIP3    H224570   4.347   3.593  16.367  2.2785 -0.0710 -0.1728
 1027TIP3   OH224571   0.652   4.945   4.242  0.0954 -0.2946 -0.1282
 1027TIP3    H124572   0.559   4.966   4.254  0.3470  0.9556 -0.2742
 1027TIP3    H224573   0.666   4.954   4.148  0.4778 -0.0150 -0.0440
 1028TIP3   OH224574   2.381   0.967   1.882 -0.0606  0.0285 -0.3553
 1028TIP3    H124575   2.412   0.880   1.857 -1.1105 -0.3668 -0.3177
 1028TIP3    H224576   2.342   0.954   1.968 -1.3645  0.2622 -0.8946
 1029TIP3   OH224577   6.236   3.281  12.236 -0.1823  0.0247 -0.2266
 1029TIP3    H124578   6.326   3.314  12.238 -0.2063  0.0825  1.5644
 1029TIP3    H224579   6.181   3.359  12.226 -0.0892  0.1346  0.1275
 1030TIP3   OH224580   0.518   2.129   4.701  0.3850 -0.0480  0.2620
 1030TIP3    H124581   0.453   2.171   4.645  0.7076 -1.5054 -1.2548
 1030TIP3    H224582   0.493   2.037   4.703  0.4440 -0.0712  2.4685
 1031TIP3   OH224583   1.894   0.682   0.334  0.2381 -0.4685  0.1742
 1031TIP3    H124584   1.870   0.658   0.244  1.1004 -1.3047  0.1451
 1031TIP3    H224585   1.820   0.733   0.366 -1.9310 -3.4620  0.3356
 1032TIP3   OH224586   1.384   1.064   5.566 -0.3634  0.3900  0.2529
 1032TIP3    H124587   1.322   1.114   5.513  1.1596 -0.4798 -2.5321
 1032TIP3    H224588   1.341   0.979   5.578 -0.4843  0.4048 -0.0640
 1033TIP3   OH224589   2.282   5.312   5.544  0.7343  0.0798  0.9868
 1033TIP3    H124590   2.311   5.335   5.632  0.7800 -1.1194  1.3016
 1033TIP3    H224591   2.337   5.237   5.520  0.0727 -0.1960  0.3165
 1034TIP3   OH224592   1.735   1.083   3.318 -0.2017 -0.0011  0.8291
 1034TIP3    H124593   1.828   1.071   3.300 -0.2139  3.4566 -2.7062
 1034TIP3    H224594   1.691   1.019   3.262 -0.0062 -0.0070  0.6834
 1035TIP3   OH224595   5.461   0.512  11.263  0.2805  0.8592  0.4351
 1035TIP3    H124596   5.434   0.457  11.189  0.6298  0.4538  0.6103
 1035TIP3    H224597   5.456   0.602  11.228 -2.4153  0.9293  0.7982
 1036TIP3   OH224598   3.178   4.189   4.305 -0.4664  0.4063 -0.2018
 1036TIP3    H124599   3.182   4.100   4.340 -0.1883  0.1062 -0.9806
 1036TIP3    H224600   3.162   4.244   4.382 -3.0817 -0.5163  0.0065
 1037TIP3   OH224601   0.025   3.257  13.428 -0.4773  0.1874 -0.5104
 1037TIP3    H124602   0.043   3.165  13.408  1.4882  0.3250  0.4178
 1037TIP3    H224603   0.089   3.280  13.495 -1.6976  1.9319  0.1156
 1038TIP3   OH224604   5.861   3.414  15.691 -0.0201  0.0137  0.1424
 1038TIP3    H124605   5.907   3.398  15.608  1.9058  0.1873  1.1294
 1038TIP3    H224606   5.780   3.363  15.683  0.9772 -1.4626 -1.1243
 1039TIP3   OH224607   2.518   5.815   3.841  0.1375  0.0580  0.1568
 1039TIP3    H124608   2.443   5.756   3.839 -0.9339  1.3537  0.6351
 1039TIP3    H224609   2.541   5.827   3.749 -0.6906  0.2050 -0.0365
 1040TIP3   OH224610   0.384   0.701   5.507  0.3576  0.0742  0.0565
 1040TIP3    H124611   0.437   0.780   5.497  2.2932 -1.1418  0.2698
 1040TIP3    H224612   0.437   0.631   5.469 -0.9112 -1.2888  0.6909
 1041TIP3   OH224613   0.857   3.802  15.255 -0.2885 -0.3597 -0.0492
 1041TIP3    H124614   0.923   3.732  15.253 -1.4057 -1.4626  0.4294
 1041TIP3    H224615   0.788   3.768  15.312 -1.3823  0.6721 -0.7157
 1042TIP3   OH224616   3.556   1.281  14.330 -0.5263  0.0190  0.4464
 1042TIP3    H124617   3.601   1.365  14.324 -0.0316 -0.2557  0.2451
 1042TIP3    H224618   3.600   1.225  14.265  1.3665 -1.4055  2.7537
 1043TIP3   OH224619   4.091   2.710   4.846  0.1527 -0.0311  0.7895
 1043TIP3    H124620   4.052   2.743   4.765 -1.0339 -0.2634  1.2512
 1043TIP3    H224621   4.183   2.693   4.824 -0.5186 -1.6654 -0.9772
 1044TIP3   OH224622   0.228   4.244  15.889  0.1355 -0.1754 -0.1171
 1044TIP3    H124623   0.267   4.206  15.968 -2.2166  0.5117  1.5022
 1044TIP3    H224624   0.200   4.169  15.837  0.4480 -0.6560  0.3992
 1045TIP3   OH224625   2.586   5.818   3.032 -0.0017  0.1382  0.6946
 1045TIP3    H124626   2.619   5.749   3.089  1.3361  1.1934  1.2569
 1045TIP3    H224627   2.633   5.897   3.059 -0.2467  0.9421 -1.0260
 1046TIP3   OH224628   4.495   4.467   2.695 -0.8941 -0.1419 -0.0933
 1046TIP3    H124629   4.434   4.504   2.759 -0.9205 -0.0696 -0.1603
 1046TIP3    H224630   4.581   4.493   2.727 -0.9512  0.6401 -0.5601
 1047TIP3   OH224631   4.338   0.716   3.528  0.0192  0.0448  0.3688
 1047TIP3    H124632   4.405   0.707   3.461  1.4571 -0.4231  1.8110
 1047TIP3    H224633   4.373   0.780   3.589 -0.3014 -1.0517  1.7573
 1048TIP3   OH224634   4.245   6.068  15.643 -0.5878  0.4302 -0.0219
 1048TIP3    H124635   4.175   6.126  15.673  0.1159  0.5014  1.6095
 1048TIP3    H224636   4.317   6.127  15.621 -0.4434  0.2628  0.0002
 1049TIP3   OH224637   1.644   0.905   0.700 -0.1641  0.0332 -0.0479
 1049TIP3    H124638   1.553   0.889   0.725  0.0757 -1.6591 -0.1378
 1049TIP3    H224639   1.671   0.981   0.751 -0.7294 -1.2664  2.2918
 1050TIP3   OH224640   4.794   1.366   4.459  0.2585 -0.1315  0.4283
 1050TIP3    H124641   4.883   1.376   4.425  0.0996 -0.9356 -0.2697
 1050TIP3    H224642   4.796   1.407   4.545  2.0633 -2.5009  1.6560
 1051TIP3   OH224643   0.324   0.320  12.293 -0.2061  0.6003 -0.0626
 1051TIP3    H124644   0.245   0.277  12.260 -0.5608  1.1820 -0.0025
 1051TIP3    H224645   0.302   0.414  12.291  0.3518  0.7430  0.3049
 1052TIP3   OH224646   2.298   5.055  12.698  0.4676  0.1512  0.0365
 1052TIP3    H124647   2.300   5.016  12.786  1.6184 -0.7449 -0.3737
 1052TIP3    H224648   2.371   5.117  12.699  0.1191  0.5644 -0.1033
 1053TIP3   OH224649   0.246   4.967   2.231  0.2681  0.1797  0.3759
 1053TIP3    H124650   0.261   4.873   2.237 -1.2235 -0.1561 -0.5997
 1053TIP3    H224651   0.199   4.989   2.312 -1.0253 -0.2895 -0.2249
 1054TIP3   OH224652   3.249   4.200   0.809  0.2681  0.1387  0.4754
 1054TIP3    H124653   3.298   4.230   0.732  1.3234  3.1101  2.1200
 1054TIP3    H224654   3.316   4.172   0.871 -0.5076 -1.1263  0.7831
 1055TIP3   OH224655   2.590   1.407  12.317 -0.0388 -0.3791  0.3070
 1055TIP3    H124656   2.567   1.498  12.337  0.8620 -0.1289  0.2331
 1055TIP3    H224657   2.674   1.393  12.361 -0.2130 -1.2081  0.3946
 1056TIP3   OH224658   5.587   5.125  16.981  0.3195  0.1185  0.3300
 1056TIP3    H124659   5.529   5.056  16.951 -1.4859  2.4601 -2.0584
 1056TIP3    H224660   5.666   5.115  16.927  0.4573 -0.5949  0.6551
 1057TIP3   OH224661   1.848   4.630  16.524  0.2137  0.0133  0.4504
 1057TIP3    H124662   1.867   4.574  16.600 -1.4881 -0.8321  0.3173
 1057TIP3    H224663   1.758   4.660  16.539 -0.1718 -0.2058 -1.2340
 1058TIP3   OH224664   0.797   4.783   5.689  0.3073  0.0602 -0.7813
 1058TIP3    H124665   0.706   4.806   5.672  0.8769  1.1919 -2.5468
 1058TIP3    H224666   0.814   4.816   5.777 -1.6333 -2.3584  0.6100
 1059TIP3   OH224667   5.608   2.681  17.027  0.0116 -0.0293  0.2106
 1059TIP3    H124668   5.651   2.691  17.112  0.8463  1.1992 -0.3214
 1059TIP3    H224669   5.677   2.696  16.963 -1.0217  1.2528 -0.6799
 1060TIP3   OH224670   0.966   5.232  12.568  0.3357 -0.2597 -0.4803
 1060TIP3    H124671   0.934   5.288  12.498 -0.2540 -1.6208 -1.3221
 1060TIP3    H224672   1.044   5.189  12.532  1.6230  0.9957  0.6369
 1061TIP3   OH224673   5.008   2.663  13.964 -0.6008  0.1684 -0.5216
 1061TIP3    H124674   5.052   2.734  14.010 -0.8640  2.1321 -3.0553
 1061TIP3    H224675   4.942   2.632  14.026  0.9541  0.6030  1.4572
 1062TIP3   OH224676   6.517   1.602   2.350 -0.5273  0.2674 -0.3356
 1062TIP3    H124677   6.430   1.569   2.374 -0.5717  1.3136  1.1203
 1062TIP3    H224678   6.532   1.569   2.262 -1.7161 -1.2848 -0.0024
 1063TIP3   OH224679   1.257   6.514  15.648  0.5758  0.1956  0.5546
 1063TIP3    H124680   1.231   6.427  15.616  1.5142 -0.5744  1.8074
 1063TIP3    H224681   1.182   6.570  15.627  0.0773 -0.8321 -0.5572
 1064TIP3   OH224682   0.359   4.346  10.370 -1.0106 -0.2829 -0.2225
 1064TIP3    H124683   0.316   4.429  10.350 -1.9580 -0.7243 -0.0808
 1064TIP3    H224684   0.441   4.371  10.412 -0.6853  0.5999 -1.3429
 1065TIP3   OH224685   1.156   0.799   2.861  0.3603  0.0939 -0.0384
 1065TIP3    H124686   1.181   0.709   2.837 -3.1052 -1.0069 -0.0950
 1065TIP3    H224687   1.062   0.793   2.879  0.7634  2.8485  4.2700
 1066TIP3   OH224688   5.182   3.621   1.935  0.3965  0.3652  0.3426
 1066TIP3    H124689   5.183   3.667   2.019 -0.3209 -0.5693  0.8864
 1066TIP3    H224690   5.167   3.529   1.958 -0.1051  0.1328 -0.8268
 1067TIP3   OH224691   4.670   2.932   1.730 -0.3714  0.0433 -0.4623
 1067TIP3    H124692   4.681   2.858   1.790 -1.9711 -2.0926 -2.5949
 1067TIP3    H224693   4.597   2.982   1.767 -0.1736 -0.2226  0.2947
 1068TIP3   OH224694   1.215   0.805  17.422  0.5518 -0.5929 -0.6493
 1068TIP3    H124695   1.236   0.876  17.362  0.2251  0.1803  0.1408
 1068TIP3    H224696   1.300   0.769  17.448  0.7213 -0.4095 -0.9462
 1069TIP3   OH224697   1.916   0.021  17.300 -0.0778 -0.0116  0.0603
 1069TIP3    H124698   1.995  -0.027  17.275 -0.5202 -0.3821 -0.6984
 1069TIP3    H224699   1.925   0.037  17.394  1.1457  0.4361 -0.1186
 1070TIP3   OH224700   1.276   0.688   4.744  0.1493  0.2189 -0.1170
 1070TIP3    H124701   1.314   0.761   4.793 -1.1369  1.8063 -1.3624
 1070TIP3    H224702   1.327   0.684   4.663  0.3664 -0.4313  0.0490
 1071TIP3   OH224703   1.931   5.328   3.066 -0.0986 -0.2420 -0.1614
 1071TIP3    H124704   1.957   5.415   3.035  3.0541 -1.6079 -1.8195
 1071TIP3    H224705   1.857   5.303   3.011 -0.7066  1.1508 -0.0034
 1072TIP3   OH224706   1.540   3.609  17.162  0.3143  0.3619  0.3224
 1072TIP3    H124707   1.614   3.662  17.191  1.8427 -1.2387 -0.4347
 1072TIP3    H224708   1.552   3.602  17.067 -0.9494  0.2613  0.1618
 1073TIP3   OH224709   1.835   0.582  13.807  0.2875  0.5931  0.0582
 1073TIP3    H124710   1.822   0.582  13.901  1.1819  0.9831  0.1954
 1073TIP3    H224711   1.896   0.654  13.791 -0.7310  1.2724 -0.9517
 1074TIP3   OH224712   2.194   5.604  14.747  0.0603 -0.1604 -0.0423
 1074TIP3    H124713   2.141   5.526  14.764  1.6201 -0.8663  1.8499
 1074TIP3    H224714   2.184   5.658  14.825  0.4970  0.6847 -0.5508
 1075TIP3   OH224715   1.490   3.127   2.157 -0.6969 -0.5723  0.1023
 1075TIP3    H124716   1.462   3.036   2.162 -1.8890 -0.1620  1.3160
 1075TIP3    H224717   1.532   3.143   2.242  1.2889 -0.5259 -0.8375
 1076TIP3   OH224718   0.545   5.888   5.506 -0.5507  0.2185 -0.1250
 1076TIP3    H124719   0.616   5.845   5.459 -0.2493 -1.5813  1.8141
 1076TIP3    H224720   0.491   5.928   5.438  0.5928 -1.0665 -1.8523
 1077TIP3   OH224721   0.439   0.354  13.661  0.0068  0.9184  0.0825
 1077TIP3    H124722   0.430   0.343  13.567  2.5113 -0.3398 -0.0724
 1077TIP3    H224723   0.478   0.440  13.673  1.0683  0.4804 -0.1511
 1078TIP3   OH224724   1.572   0.800   3.433  0.4168 -0.6665  0.1764
 1078TIP3    H124725   1.506   0.771   3.371  0.1611  1.3311 -0.5438
 1078TIP3    H224726   1.523   0.848   3.500  0.9008 -1.2336  0.9691
 1079TIP3   OH224727   2.375   5.972  13.954  0.3773 -0.5188 -0.7906
 1079TIP3    H124728   2.448   5.976  13.892  0.1699  0.7386 -0.9843
 1079TIP3    H224729   2.297   5.965  13.898  0.2042  0.4046 -0.6744
 1080TIP3   OH224730   0.507   5.283  15.148 -0.4851  0.3674  0.2655
 1080TIP3    H124731   0.587   5.231  15.144  0.7372  2.2381 -2.9002
 1080TIP3    H224732   0.523   5.349  15.215 -0.6825 -1.1126  1.8281
 1081TIP3   OH224733   1.442   2.355   3.877 -0.0186 -0.2148 -0.5223
 1081TIP3    H124734   1.478   2.427   3.824  0.3182  0.1231  0.1453
 1081TIP3    H224735   1.391   2.399   3.945  0.4269 -0.5849  0.0687
 1082TIP3   OH224736   4.827   3.732  13.881  0.4727  0.3580  0.2474
 1082TIP3    H124737   4.744   3.687  13.868  0.7767  0.3109 -1.7916
 1082TIP3    H224738   4.857   3.703  13.967 -1.1355 -0.3807  0.5914
 1083TIP3   OH224739   2.313   0.313  16.513  0.1766 -0.5705  0.4379
 1083TIP3    H124740   2.376   0.368  16.467 -0.7147  0.6243  0.5991
 1083TIP3    H224741   2.348   0.224  16.504  1.4682 -0.0307 -0.1233
 1084TIP3   OH224742   2.254   6.566  13.089  0.0274 -0.2749  0.0256
 1084TIP3    H124743   2.249   6.513  13.169 -2.2335  0.3927  0.3861
 1084TIP3    H224744   2.209   6.514  13.023  0.8191 -0.2841 -0.5183
 1085TIP3   OH224745   6.451   4.907  15.025 -0.8882  0.6242  0.2731
 1085TIP3    H124746   6.465   4.938  14.935 -0.0954  0.9277  0.4931
 1085TIP3    H224747   6.365   4.865  15.023 -0.8370  0.5464 -0.6533
 1086TIP3   OH224748   2.502   6.529  13.759 -0.5072  0.0104  0.5582
 1086TIP3    H124749   2.441   6.500  13.826  0.7624 -0.7526  1.4296
 1086TIP3    H224750   2.448   6.539  13.680 -2.0263  0.9317  1.6627
 1087TIP3   OH224751   6.686   4.828  15.159  0.2785 -0.2683  0.2993
 1087TIP3    H124752   6.609   4.838  15.104  0.2207  0.5719  0.5105
 1087TIP3    H224753   6.711   4.736  15.150  0.0957 -0.2123 -0.8767
 1088TIP3   OH224754   2.430   5.722  14.719 -0.2259  0.2716  0.3807
 1088TIP3    H124755   2.406   5.753  14.631  0.3394  1.0707  0.4938
 1088TIP3    H224756   2.368   5.652  14.738  0.2805 -0.6359 -1.0940
 1089TIP3   OH224757   3.607   3.575   4.934  0.0054 -0.2536 -0.0760
 1089TIP3    H124758   3.523   3.571   4.978  0.7291  0.0398  1.3828
 1089TIP3    H224759   3.609   3.662   4.895  1.0475  1.1791  2.9276
 1090TIP3   OH224760   5.949   3.768   0.576  0.1280  0.1370  0.3170
 1090TIP3    H124761   5.997   3.757   0.494 -1.1057  1.3063 -0.5959
 1090TIP3    H224762   5.938   3.678   0.609 -1.2906 -0.6277 -1.9637
 1091TIP3   OH224763   3.458   4.391   2.213 -0.4099  0.2371 -0.0230
 1091TIP3    H124764   3.483   4.300   2.230 -0.8776  0.3148  1.2801
 1091TIP3    H224765   3.516   4.420   2.143 -1.0596 -1.4295 -1.3261
 1092TIP3   OH224766   4.069   0.404  12.199  0.1064  0.1914 -0.3947
 1092TIP3    H124767   4.055   0.473  12.264 -0.0730 -0.1122 -0.1031
 1092TIP3    H224768   4.163   0.404  12.184 -0.0104  1.1849 -1.1721
 1093TIP3   OH224769   1.025   6.128  11.751  0.4202 -0.0308 -0.0771
 1093TIP3    H124770   1.022   6.211  11.799  0.0334  1.2757 -2.2070
 1093TIP3    H224771   0.945   6.083  11.776  0.8399  0.0134  1.4381
 1094TIP3   OH224772   3.685   1.781   0.143  0.5869  0.1177  0.3027
 1094TIP3    H124773   3.674   1.873   0.120 -1.1442 -0.0522  0.3576
 1094TIP3    H224774   3.696   1.737   0.058  0.8053  0.2846  0.2420
 1095TIP3   OH224775   5.572   5.369   4.320  0.0228 -0.3262  1.0414
 1095TIP3    H124776   5.571   5.276   4.346 -0.7827 -0.3402  0.9622
 1095TIP3    H224777   5.665   5.391   4.318  0.4063 -1.7616 -1.1570
 1096TIP3   OH224778   0.180   4.649  14.396 -0.0585  0.6328 -0.0074
 1096TIP3    H124779   0.177   4.557  14.423  1.7391  0.3089 -0.7649
 1096TIP3    H224780   0.265   4.680  14.428 -0.3600  1.8360 -0.3466
 1097TIP3   OH224781   5.196   1.011   3.258  0.1110 -0.1958 -0.0114
 1097TIP3    H124782   5.195   0.951   3.183 -0.6337 -1.5412  1.0269
 1097TIP3    H224783   5.138   1.082   3.232  1.4751  0.4252 -1.5104
 1098TIP3   OH224784   4.553   4.033   3.405  0.6488 -0.6045  0.2261
 1098TIP3    H124785   4.577   3.966   3.340 -0.0024 -0.4057 -0.2258
 1098TIP3    H224786   4.524   3.982   3.481  1.6137 -0.8401  0.4471
 1099TIP3   OH224787   3.138   0.148   4.385  0.2594 -0.0029  0.3570
 1099TIP3    H124788   3.151   0.107   4.299 -0.5246  1.5100 -0.5333
 1099TIP3    H224789   3.142   0.075   4.447 -0.9416 -1.4301 -1.1217
 1100TIP3   OH224790   2.249   2.431  14.848  0.1334  0.1331 -0.1591
 1100TIP3    H124791   2.194   2.400  14.776 -1.7440  1.1103  0.7795
 1100TIP3    H224792   2.301   2.356  14.873 -1.5041 -1.1542 -0.4477
 1101TIP3   OH224793   0.076   1.124  14.335  0.6285  0.0139 -0.3730
 1101TIP3    H124794   0.123   1.094  14.257  2.2448 -0.0582  0.5779
 1101TIP3    H224795   0.086   1.219  14.333  1.1696 -0.0307  0.0321
 1102TIP3   OH224796   5.068   1.217   5.698  0.1613  0.0492  0.2476
 1102TIP3    H124797   4.985   1.263   5.688  1.0938  1.3559 -2.5484
 1102TIP3    H224798   5.111   1.261   5.771  0.5465  3.0688 -1.6339
 1103TIP3   OH224799   3.120   1.164   4.311  0.2570 -0.5156  0.2645
 1103TIP3    H124800   3.092   1.188   4.223  1.4989  0.9211  0.2246
 1103TIP3    H224801   3.098   1.240   4.365  3.5755  0.5919  0.2871
 1104TIP3   OH224802   5.556   2.278  14.452 -0.1890 -0.3602  0.0868
 1104TIP3    H124803   5.615   2.344  14.415 -1.6633  0.3132 -1.1416
 1104TIP3    H224804   5.592   2.261  14.539  0.8306  1.2900  0.0388
 1105TIP3   OH224805   6.588   5.263   2.275 -0.0343 -1.0354 -0.2846
 1105TIP3    H124806   6.622   5.183   2.315  1.6449  1.1440  3.0737
 1105TIP3    H224807   6.642   5.275   2.197  1.2019 -2.0375  0.3782
 1106TIP3   OH224808   4.077   6.303  12.241 -0.0640  0.7249 -0.3036
 1106TIP3    H124809   4.139   6.284  12.171 -1.4769  0.5565 -1.5628
 1106TIP3    H224810   3.991   6.296  12.200 -0.9473  0.8004  1.4128
 1107TIP3   OH224811   4.324   3.671   1.400  0.2845 -0.8604 -0.0378
 1107TIP3    H124812   4.336   3.627   1.484  0.7377 -0.7060 -0.0184
 1107TIP3    H224813   4.250   3.626   1.360  0.2001 -1.0738  0.3526
 1108TIP3   OH224814   2.813   3.785  12.447  0.1098 -0.8287 -0.1187
 1108TIP3    H124815   2.839   3.768  12.357  0.0795  0.9457 -0.4823
 1108TIP3    H224816   2.737   3.842  12.440  1.6659  1.5168  1.0135
 1109TIP3   OH224817   0.074   5.061  13.508 -0.1323  0.0111 -0.4995
 1109TIP3    H124818  -0.007   5.018  13.481 -0.6220  0.8956 -0.5173
 1109TIP3    H224819   0.071   5.147  13.465  0.9414 -0.0379 -0.6961
 1110TIP3   OH224820   5.137   4.213  12.736  0.1027  0.0261  0.2816
 1110TIP3    H124821   5.183   4.249  12.812  0.4088  0.7913 -0.2525
 1110TIP3    H224822   5.188   4.135  12.712  1.7120  1.3586 -0.8532
 1111TIP3   OH224823   5.104   3.948   2.358 -0.0005 -0.6339 -0.3197
 1111TIP3    H124824   5.123   4.040   2.343 -2.6432 -0.3553 -3.0102
 1111TIP3    H224825   5.056   3.946   2.440 -0.5090  0.4802 -0.5763
 1112TIP3   OH224826   4.082   5.503  13.791 -0.0454  0.2770  0.4423
 1112TIP3    H124827   4.076   5.472  13.881  0.2696  1.1434  0.7742
 1112TIP3    H224828   4.103   5.596  13.799  0.2941  0.2990 -0.5244
 1113TIP3   OH224829   5.376   6.696  11.238  0.2814 -0.3781  0.3065
 1113TIP3    H124830   5.284   6.723  11.233  0.0940 -0.9247  0.6572
 1113TIP3    H224831   5.425   6.770  11.204 -0.3541 -0.4536 -0.8393
 1114TIP3   OH224832   3.274   1.730   1.537  0.0004 -0.3506  0.3223
 1114TIP3    H124833   3.311   1.796   1.479 -1.1668 -1.2827 -1.5759
 1114TIP3    H224834   3.324   1.651   1.518  1.2201 -0.1615  2.3961
 1115TIP3   OH224835   0.600   5.949  14.590 -0.0971 -0.1619 -0.2915
 1115TIP3    H124836   0.644   5.961  14.674 -1.9394 -0.2847  0.7359
 1115TIP3    H224837   0.656   5.888  14.543 -0.4560 -2.4542  2.0245
 1116TIP3   OH224838   0.129   1.286  17.155 -0.3051 -0.5544  0.3913
 1116TIP3    H124839   0.121   1.293  17.060  0.6471 -0.0705  0.3412
 1116TIP3    H224840   0.061   1.345  17.189  0.9622  1.2227 -0.0230
 1117TIP3   OH224841   5.342   0.316  13.360  0.2652 -0.4880  0.5407
 1117TIP3    H124842   5.294   0.389  13.398 -1.2427  0.1023 -2.2502
 1117TIP3    H224843   5.347   0.336  13.267  1.9575 -2.7874  0.0453
 1118TIP3   OH224844   4.114   1.468  15.227  0.2273  0.5604  0.3788
 1118TIP3    H124845   4.101   1.526  15.302 -0.8739  0.0040  0.6366
 1118TIP3    H224846   4.136   1.384  15.266 -1.3965 -0.0056  0.1571
 1119TIP3   OH224847   6.212   4.915  15.530 -0.6526  0.3148 -0.0410
 1119TIP3    H124848   6.232   4.917  15.624  0.5791  0.8663 -0.2812
 1119TIP3    H224849   6.294   4.885  15.489 -1.5950 -1.2519 -0.8581
 1120TIP3   OH224850   1.715   5.558  11.615 -0.2536  0.3701  0.1189
 1120TIP3    H124851   1.682   5.532  11.701  1.2454  0.2292  0.6984
 1120TIP3    H224852   1.639   5.591  11.568 -1.2127 -0.1105  1.2929
 1121TIP3   OH224853   0.734   5.604   0.794  0.3792  0.6935 -0.4716
 1121TIP3    H124854   0.799   5.643   0.853  1.3545 -0.3164 -0.8311
 1121TIP3    H224855   0.774   5.613   0.707  1.6304 -2.7887 -0.4189
 1122TIP3   OH224856   0.595   6.308  16.873  0.1683 -0.2082  1.0641
 1122TIP3    H124857   0.673   6.342  16.917  0.9794  0.5396 -0.8431
 1122TIP3    H224858   0.627   6.274  16.789 -1.6679  1.3800 -0.3956
 1123TIP3   OH224859   6.510   0.899   4.744 -0.8116  0.0955 -0.5805
 1123TIP3    H124860   6.567   0.861   4.811 -1.8062  0.1657  0.3324
 1123TIP3    H224861   6.505   0.831   4.676  0.8728  0.3529 -1.0137
 1124TIP3   OH224862   2.508   4.430  16.921 -0.3960  0.4802  0.0830
 1124TIP3    H124863   2.599   4.414  16.895 -0.8989 -0.3201 -1.3749
 1124TIP3    H224864   2.490   4.520  16.893 -1.1678 -0.6050 -3.4753
 1125TIP3   OH224865   6.264   1.119  17.394 -0.2437 -0.5388 -0.4464
 1125TIP3    H124866   6.323   1.065  17.447 -0.3159 -0.9807 -0.8099
 1125TIP3    H224867   6.222   1.178  17.457  2.0571  1.1997 -0.3934
 1126TIP3   OH224868   0.031   6.210   2.398 -0.0521 -0.1065  0.1247
 1126TIP3    H124869   0.035   6.124   2.357  0.7097  0.3108 -0.6977
 1126TIP3    H224870  -0.034   6.200   2.468 -1.8176 -0.7080 -1.5094
 1127TIP3   OH224871   4.781   6.105   3.208  0.2729 -0.2674 -0.1939
 1127TIP3    H124872   4.734   6.123   3.290 -0.2494  0.2917 -0.6143
 1127TIP3    H224873   4.870   6.137   3.225 -0.1450  0.9728 -0.2595
 1128TIP3   OH224874   4.064   5.169   2.108  0.4164  0.5054  0.5839
 1128TIP3    H124875   4.105   5.161   2.194  1.7836  3.0022  0.2513
 1128TIP3    H224876   3.998   5.238   2.119 -3.7776 -3.1098  1.0102
 1129TIP3   OH224877   2.145   0.811  11.379 -0.2100 -0.4597  0.5469
 1129TIP3    H124878   2.130   0.847  11.466  0.7560  2.7459 -0.4767
 1129TIP3    H224879   2.066   0.761  11.360 -2.7095  2.8185  1.3955
 1130TIP3   OH224880   4.209   6.630  15.433 -0.5876 -0.6649 -0.4550
 1130TIP3    H124881   4.198   6.702  15.371 -0.8732  0.4969  0.9219
 1130TIP3    H224882   4.283   6.580  15.397 -0.8188 -0.0922 -1.7911
 1131TIP3   OH224883   3.235   2.631  15.740 -0.2572  0.0241 -0.0436
 1131TIP3    H124884   3.325   2.662  15.730 -1.1142  2.1583 -2.1069
 1131TIP3    H224885   3.213   2.648  15.831  1.6447 -1.3487  0.7444
 1132TIP3   OH224886   5.507   0.060  15.761  0.1078  0.3604 -0.1372
 1132TIP3    H124887   5.472   0.087  15.846 -0.2268  0.5855 -0.3450
 1132TIP3    H224888   5.600   0.084  15.765 -0.1478  1.4333 -0.2653
 1133TIP3   OH224889   4.744   6.432  12.672 -0.0245  0.4304  0.0629
 1133TIP3    H124890   4.729   6.525  12.656 -1.2221  0.5057  1.4446
 1133TIP3    H224891   4.662   6.390  12.645  0.6524 -0.2911 -0.9308
 1134TIP3   OH224892   6.736   2.993   4.196  0.1652  0.8678 -0.2071
 1134TIP3    H124893   6.773   3.004   4.108 -1.2688 -1.0003 -1.1038
 1134TIP3    H224894   6.808   2.958   4.248  0.7069  0.8600 -0.9428
 1135TIP3   OH224895   6.644   6.549  12.203  0.4068 -0.1007 -0.2075
 1135TIP3    H124896   6.577   6.485  12.229 -1.6631  1.4945 -1.2851
 1135TIP3    H224897   6.694   6.565  12.282 -1.6541 -0.0603  1.1587
 1136TIP3   OH224898   2.035   2.912   2.903  0.6811 -0.0766 -0.7249
 1136TIP3    H124899   2.024   2.895   2.997 -0.4908  0.7300 -0.6999
 1136TIP3    H224900   1.971   2.855   2.861  2.4965 -1.9000 -1.2211
 1137TIP3   OH224901   4.968   5.776  16.048  0.2864  0.1444 -0.7936
 1137TIP3    H124902   4.972   5.728  16.131  1.0769 -1.3077 -1.6375
 1137TIP3    H224903   4.877   5.769  16.020  0.1342  0.1840 -0.3153
 1138TIP3   OH224904   1.611   5.576  10.965  0.3904  0.0647  0.1800
 1138TIP3    H124905   1.536   5.611  11.013  0.8284  0.9652  0.2333
 1138TIP3    H224906   1.615   5.484  10.990  0.0582  0.3029  1.1521
 1139TIP3   OH224907   4.479   2.421   2.043 -0.3452  0.0551  0.0894
 1139TIP3    H124908   4.543   2.419   1.972 -0.7669  2.1309 -0.3953
 1139TIP3    H224909   4.455   2.329   2.056  0.4640 -0.4620 -1.7835
 1140TIP3   OH224910   6.358   5.898   3.186  0.0471  0.1977  0.0767
 1140TIP3    H124911   6.380   5.965   3.121 -0.8463  0.4378  0.0158
 1140TIP3    H224912   6.263   5.898   3.189  0.0581 -0.6358  0.5405
 1141TIP3   OH224913   3.701   5.287  12.820 -0.2644 -0.6552  0.6788
 1141TIP3    H124914   3.651   5.297  12.901 -1.1289 -0.6960  0.1606
 1141TIP3    H224915   3.679   5.365  12.769 -0.1575 -0.8957  0.2606
 1142TIP3   OH224916   4.273   1.206   5.410 -0.1727 -0.8389 -0.6720
 1142TIP3    H124917   4.230   1.178   5.329 -2.3148  0.1146  0.0605
 1142TIP3    H224918   4.221   1.280   5.440  0.3063 -1.4235  1.8024
 1143TIP3   OH224919   1.926   6.054  16.380 -0.1770  0.2060 -0.3269
 1143TIP3    H124920   1.969   6.138  16.369  0.7936 -0.4006 -1.4868
 1143TIP3    H224921   1.966   6.016  16.458  1.5693 -0.4080 -1.4622
 1144TIP3   OH224922   5.107   1.854  12.461 -0.0689  0.6603  0.0116
 1144TIP3    H124923   5.057   1.872  12.380  0.4277  2.0780 -0.0150
 1144TIP3    H224924   5.108   1.938  12.506  4.0384  1.3233 -0.9691
 1145TIP3   OH224925   5.895   4.015   5.480  0.3103  0.2704  0.2671
 1145TIP3    H124926   5.910   3.926   5.512  1.1511  0.3750  0.1727
 1145TIP3    H224927   5.806   4.036   5.509  0.4898 -0.2033  1.2088
 1146TIP3   OH224928   0.389   5.059   3.554 -0.0610 -0.1191 -0.3855
 1146TIP3    H124929   0.302   5.073   3.591  0.0369  0.3910 -0.3466
 1146TIP3    H224930   0.406   4.966   3.568  0.2876  0.1839  1.5423
 1147TIP3   OH224931   5.744   5.326  12.479  0.2919 -0.0341  0.0782
 1147TIP3    H124932   5.680   5.264  12.515  1.1813 -0.8007  0.3824
 1147TIP3    H224933   5.824   5.275  12.471  1.3262  1.3123  1.2622
 1148TIP3   OH224934   0.537   2.044   6.002 -0.3080 -0.6928 -0.1195
 1148TIP3    H124935   0.609   1.995   6.042  0.2660 -0.2048 -0.5314
 1148TIP3    H224936   0.511   2.108   6.069 -0.5377 -1.0402  0.1269
 1149TIP3   OH224937   6.134   2.029   0.146 -0.1526 -0.2323  0.1491
 1149TIP3    H124938   6.212   2.067   0.106  0.7270 -1.6150  0.4836
 1149TIP3    H224939   6.144   2.047   0.239 -1.1855  1.1990  0.0164
 1150TIP3   OH224940   3.344   1.949   5.260  0.3983 -0.3201 -0.3759
 1150TIP3    H124941   3.281   1.929   5.190 -2.5970 -1.9831  2.5104
 1150TIP3    H224942   3.309   2.027   5.302  2.2752  0.7714 -0.7233
 1151TIP3   OH224943   1.399   5.680  16.814  0.0762  0.3031 -0.1368
 1151TIP3    H124944   1.470   5.649  16.758  1.5451  0.4402  1.5562
 1151TIP3    H224945   1.386   5.771  16.788 -0.2260 -0.0201 -1.1667
 1152TIP3   OH224946   4.888   0.644   3.962 -0.3780  0.4312 -0.1477
 1152TIP3    H124947   4.897   0.730   4.004 -0.2646  0.3111  0.0733
 1152TIP3    H224948   4.934   0.653   3.879 -1.2096  0.8919 -0.5777
 1153TIP3   OH224949   5.165   5.870  15.655  0.1892  0.4114  0.3541
 1153TIP3    H124950   5.259   5.872  15.675  0.7563 -1.6385 -1.6340
 1153TIP3    H224951   5.130   5.800  15.710 -0.4261  1.7417  1.7397
 1154TIP3   OH224952   2.664   6.718  15.811 -0.1337  0.0268 -0.1382
 1154TIP3    H124953   2.724   6.787  15.839  0.4541  0.0069 -1.2797
 1154TIP3    H224954   2.607   6.759  15.746 -2.6838  0.5564  2.2503
 1155TIP3   OH224955   2.053   1.061  14.945 -0.1709  0.7302 -0.2029
 1155TIP3    H124956   2.131   1.070  14.999 -1.9355  0.8858  2.5113
 1155TIP3    H224957   2.037   0.966  14.940 -0.4031  0.7445  0.2036
 1156TIP3   OH224958   3.185   2.612  17.244  0.0831  0.3558 -0.0523
 1156TIP3    H124959   3.226   2.697  17.260  0.1889  0.4499 -0.7694
 1156TIP3    H224960   3.116   2.630  17.180 -1.5905  0.3227  1.6440
 1157TIP3   OH224961   1.565   3.535  14.594  0.6455 -0.7121 -0.0322
 1157TIP3    H124962   1.642   3.510  14.543 -0.8016 -3.9331 -0.9183
 1157TIP3    H224963   1.525   3.451  14.618 -1.8821  0.8258  1.5035
 1158TIP3   OH224964   0.307   0.639  16.031 -0.3696  0.2756 -0.8546
 1158TIP3    H124965   0.378   0.697  16.057 -0.6845  0.4984 -0.4897
 1158TIP3    H224966   0.228   0.680  16.066 -0.5051 -0.8332  0.2288
 1159TIP3   OH224967   6.449   0.972  15.310 -0.0053  0.7561  0.6125
 1159TIP3    H124968   6.383   0.921  15.262  1.0800 -0.2531  0.1532
 1159TIP3    H224969   6.423   0.963  15.402 -0.3377  0.0946  0.4662
 1160TIP3   OH224970   6.520   6.563   3.212 -0.1681  0.5833 -0.1949
 1160TIP3    H124971   6.428   6.568   3.189 -0.0510 -0.1018 -0.8725
 1160TIP3    H224972   6.567   6.569   3.128  0.4144  1.1402  0.1581
 1161TIP3   OH224973   5.192   3.057   1.602 -0.1452 -0.1468 -0.3304
 1161TIP3    H124974   5.174   3.151   1.609  2.6743  0.4335  0.3569
 1161TIP3    H224975   5.246   3.049   1.524  2.9822 -0.4991  1.6912
 1162TIP3   OH224976   5.638   5.973   0.706  0.5970 -0.1025  0.4421
 1162TIP3    H124977   5.657   5.919   0.783 -0.0161 -0.7107  0.1667
 1162TIP3    H224978   5.708   5.953   0.644 -0.4887 -1.7891 -0.2833
 1163TIP3   OH224979   0.464   0.192   3.932 -0.7860  0.2921 -0.4977
 1163TIP3    H124980   0.516   0.224   4.006 -1.5581  0.6890 -0.1233
 1163TIP3    H224981   0.441   0.102   3.956 -1.7414  0.6977  0.1301
 1164TIP3   OH224982   2.101   5.956  12.367 -0.0301 -0.4181 -0.3456
 1164TIP3    H124983   2.135   6.033  12.413 -0.0596 -0.6895  0.1297
 1164TIP3    H224984   2.130   5.968  12.276 -2.1582  1.4483 -0.8622
 1165TIP3   OH224985   2.283   5.662   3.522 -0.6191  0.4998  0.0475
 1165TIP3    H124986   2.293   5.645   3.615  1.3802  0.5289 -0.1104
 1165TIP3    H224987   2.303   5.578   3.480 -1.7638  0.4199 -0.3584
 1166TIP3   OH224988   0.038   2.508   6.005  0.4714  0.0949  0.1222
 1166TIP3    H124989  -0.045   2.551   5.983  0.6536  1.5882  2.1357
 1166TIP3    H224990   0.016   2.414   6.009 -1.2672  0.4961  1.1187
 1167TIP3   OH224991   4.014   2.831   0.987 -0.3128  0.3886 -0.0407
 1167TIP3    H124992   3.953   2.779   0.934 -0.6661 -0.6473  1.3126
 1167TIP3    H224993   4.061   2.766   1.040 -0.3808  1.4125  1.3304
 1168TIP3   OH224994   1.218   5.708  16.099 -0.4175 -0.0748 -0.1313
 1168TIP3    H124995   1.222   5.800  16.128 -1.0838 -0.1936  0.3811
 1168TIP3    H224996   1.171   5.663  16.170  0.8836 -1.0357  0.1476
 1169TIP3   OH224997   5.757   3.041   6.524  0.1139 -0.3576 -0.1438
 1169TIP3    H124998   5.803   3.005   6.599 -0.0647  1.2561  0.7895
 1169TIP3    H224999   5.692   2.975   6.501 -0.7345 -0.3351  2.0075
 1170TIP3   OH225000   3.475   5.296   0.200  0.6138  0.0178 -0.5172
 1170TIP3    H125001   3.412   5.249   0.145 -0.3041  0.3333  0.2338
 1170TIP3    H225002   3.536   5.228   0.230 -1.4339 -1.0129  1.5983
 1171TIP3   OH225003   5.581   3.496  13.266 -0.2607 -0.2610 -0.5461
 1171TIP3    H125004   5.628   3.568  13.223 -1.5629  1.0346  0.0847
 1171TIP3    H225005   5.492   3.529  13.277 -0.2173 -0.8262  2.3622
 1172TIP3   OH225006   0.714   4.856  13.665 -0.4016 -0.0550 -0.0486
 1172TIP3    H125007   0.747   4.848  13.575  0.7231  1.0354  0.2230
 1172TIP3    H225008   0.786   4.899  13.712 -2.3076  2.7760  0.5312
 1173TIP3   OH225009   2.425   1.318  14.266  0.0292  0.4555 -0.4035
 1173TIP3    H125010   2.347   1.346  14.314  0.6295  0.5235  0.5470
 1173TIP3    H225011   2.434   1.382  14.195  0.6804  1.9897  1.0080
 1174TIP3   OH225012   6.350   3.906   3.024  0.2334 -0.4119  0.0522
 1174TIP3    H125013   6.366   3.818   3.058  0.1586 -0.3528  0.2410
 1174TIP3    H225014   6.318   3.891   2.935  0.3110 -0.5724  0.0505
 1175TIP3   OH225015   1.125   4.915  16.666  0.2640  0.2171 -0.1022
 1175TIP3    H125016   1.183   4.897  16.592 -0.8154  1.7566 -1.4034
 1175TIP3    H225017   1.124   5.010  16.674 -1.8332  0.2410  0.0245
 1176TIP3   OH225018   1.078   0.355  17.408 -0.5035  0.4300  0.3700
 1176TIP3    H125019   1.010   0.297  17.374  0.1595 -1.2186  1.7185
 1176TIP3    H225020   1.095   0.417  17.336 -1.5078 -0.8007 -0.9897
 1177TIP3   OH225021   2.865   4.872   1.205 -0.4319  0.0006 -0.0054
 1177TIP3    H125022   2.868   4.908   1.117  1.2881  1.5387  0.6180
 1177TIP3    H225023   2.957   4.874   1.235 -0.6164 -2.5347  1.0370
 1178TIP3   OH225024   3.673   0.232   0.972  0.1589  0.7836 -0.1383
 1178TIP3    H125025   3.746   0.183   1.010 -0.5366  0.1296  0.3781
 1178TIP3    H225026   3.702   0.254   0.884 -0.0310 -1.8074 -0.9336
 1179TIP3   OH225027   0.943   4.381  14.045  0.4853  0.4186 -0.0056
 1179TIP3    H125028   0.965   4.473  14.031  0.6619  0.3234 -0.3627
 1179TIP3    H225029   0.884   4.359  13.973  1.7863 -0.2069 -0.9438
 1180TIP3   OH225030   5.802   3.559  14.389  0.2970  0.3324 -0.0604
 1180TIP3    H125031   5.859   3.486  14.410  0.8379  0.8632  0.3572
 1180TIP3    H225032   5.862   3.630  14.364 -0.2091  0.6759 -0.3242
 1181TIP3   OH225033   6.384   2.659  13.160  0.5192 -0.0697 -0.4219
 1181TIP3    H125034   6.400   2.592  13.093  0.2010 -0.3565 -0.2079
 1181TIP3    H225035   6.405   2.742  13.115 -0.9125 -0.1461 -1.2871
 1182TIP3   OH225036   1.555   3.056   0.444  0.1581 -0.1758 -0.3029
 1182TIP3    H125037   1.579   2.964   0.435  1.3812 -0.1343  1.8356
 1182TIP3    H225038   1.459   3.055   0.454  0.2265 -1.3070  0.4655
 1183TIP3   OH225039   5.477   6.275  14.088 -0.1901 -0.6261 -0.0244
 1183TIP3    H125040   5.550   6.257  14.028  0.0512  1.5945 -0.4890
 1183TIP3    H225041   5.466   6.195  14.138  1.0518 -1.7992 -1.5479
 1184TIP3   OH225042   4.127   4.848  16.368  0.1348  0.5813 -0.4043
 1184TIP3    H125043   4.085   4.764  16.352  1.0449 -0.0130  0.1860
 1184TIP3    H225044   4.067   4.895  16.425 -1.3828  1.2216 -2.4386
 1185TIP3   OH225045   1.596   3.583   5.550  0.7878  1.1769 -0.4265
 1185TIP3    H125046   1.600   3.662   5.604  1.3811  0.5552  0.4627
 1185TIP3    H225047   1.678   3.536   5.569 -0.7263 -1.0134  1.1927
 1186TIP3   OH225048   3.212   6.066  16.959 -0.0420 -0.0444 -0.1261
 1186TIP3    H125049   3.173   6.090  16.875 -0.5067  0.2045  0.1618
 1186TIP3    H225050   3.253   6.147  16.990  0.3124 -0.1885 -0.2066
 1187TIP3   OH225051   4.955   0.118   0.206 -0.1600  0.1659  0.3511
 1187TIP3    H125052   4.926   0.027   0.210  0.5899 -0.3099 -2.4746
 1187TIP3    H225053   4.941   0.152   0.294  1.2274 -3.1929  2.0535
 1188TIP3   OH225054   0.155   2.853   0.846  0.5149  0.4859 -0.0943
 1188TIP3    H125055   0.132   2.915   0.777  1.1867  0.6743 -0.1484
 1188TIP3    H225056   0.113   2.771   0.819  1.0756  0.4579 -0.9260
 1189TIP3   OH225057   5.493   2.055  12.533 -0.6564  0.7045 -0.2212
 1189TIP3    H125058   5.442   1.974  12.533  1.7860 -0.9432 -1.0045
 1189TIP3    H225059   5.494   2.082  12.625 -0.7630 -0.6747  0.2030
 1190TIP3   OH225060   3.330   2.714  11.469  0.1728 -0.0889 -0.0310
 1190TIP3    H125061   3.272   2.785  11.442 -0.9230 -1.4575 -1.4033
 1190TIP3    H225062   3.353   2.669  11.388 -0.3833 -2.2256  0.9260
 1191TIP3   OH225063   3.713   4.190   4.194 -0.0714  0.3602 -0.9221
 1191TIP3    H125064   3.720   4.285   4.193 -0.2845  0.4144  0.8825
 1191TIP3    H225065   3.691   4.168   4.284  1.1461 -1.4919 -1.0313
 1192TIP3   OH225066   0.429   1.662  15.370 -0.6640  0.0023 -0.0817
 1192TIP3    H125067   0.456   1.697  15.455  0.5343 -1.8594  0.3527
 1192TIP3    H225068   0.454   1.730  15.307  0.4181  0.4858  0.8383
 1193TIP3   OH225069   1.872   0.978   2.329 -0.1541  0.2785  0.1639
 1193TIP3    H125070   1.898   0.937   2.246  0.0173  0.6245  0.0478
 1193TIP3    H225071   1.782   0.948   2.343  0.3723 -1.1713  0.7149
 1194TIP3   OH225072   2.904   0.668   2.428  0.7757  0.2761 -0.4783
 1194TIP3    H125073   2.924   0.720   2.506  2.4903 -0.0579 -0.6436
 1194TIP3    H225074   2.810   0.680   2.415  0.5419  0.7760  1.3093
 1195TIP3   OH225075   3.830   2.925   4.926  0.3815  0.3569  0.2967
 1195TIP3    H125076   3.739   2.915   4.899  0.4351 -0.3120  0.3497
 1195TIP3    H225077   3.868   2.987   4.863  1.1824 -2.9784 -2.8740
 1196TIP3   OH225078   3.024   2.083  16.827  0.1828 -0.2909  0.1484
 1196TIP3    H125079   3.018   2.064  16.920 -0.7792  3.1617  0.9353
 1196TIP3    H225080   3.093   2.149  16.821  0.5108 -0.7397 -1.6842
 1197TIP3   OH225081   1.305   0.743  12.825 -0.3874  0.4755  0.2792
 1197TIP3    H125082   1.260   0.687  12.761 -1.0859  1.9847 -0.6030
 1197TIP3    H225083   1.380   0.778  12.778  1.2852 -1.2973  1.4707
 1198TIP3   OH225084   0.667   2.404  14.949  0.7871 -0.0193  0.5847
 1198TIP3    H125085   0.755   2.382  14.918  0.0699  0.0137 -1.6168
 1198TIP3    H225086   0.644   2.331  15.007  0.6996 -2.2776 -2.0523
 1199TIP3   OH225087   0.094   3.437   2.658  0.3561  0.4758 -0.1968
 1199TIP3    H125088   0.177   3.427   2.704 -0.8827 -0.6310  1.9909
 1199TIP3    H225089   0.093   3.365   2.595  0.6102 -0.1964  0.5458
 1200TIP3   OH225090   5.734   4.026  10.549  1.0817  0.0859 -0.2154
 1200TIP3    H125091   5.646   4.043  10.515  0.8293 -1.2365 -0.2658
 1200TIP3    H225092   5.756   4.105  10.599 -0.1573  0.4070 -0.1434
 1201TIP3   OH225093   5.437   2.315   2.418 -0.6156 -0.2859  0.1840
 1201TIP3    H125094   5.483   2.322   2.334 -0.2385  2.8816  0.4970
 1201TIP3    H225095   5.496   2.266   2.474  0.3596 -0.1414 -0.6862
 1202TIP3   OH225096   3.862   0.732  11.679  0.7892  0.2691  0.7537
 1202TIP3    H125097   3.795   0.681  11.724  0.9844  0.9238  1.8354
 1202TIP3    H225098   3.896   0.674  11.611  0.5805 -0.8021  1.5501
 1203TIP3   OH225099   0.514   4.343  12.116 -0.1678 -0.0533 -0.1648
 1203TIP3    H125100   0.509   4.392  12.198  1.6431  1.4912 -0.9141
 1203TIP3    H225101   0.443   4.379  12.063 -0.3507  0.0436  0.1376
 1204TIP3   OH225102   4.494   4.352  11.902 -0.3757 -0.1320 -0.5037
 1204TIP3    H125103   4.522   4.306  11.823  0.9018  0.1605 -0.2461
 1204TIP3    H225104   4.413   4.396  11.877 -0.9965 -1.5372 -1.1012
 1205TIP3   OH225105   2.670   1.008   3.022  0.0628 -0.9735  0.3123
 1205TIP3    H125106   2.636   1.042   2.940 -1.3609 -3.5042 -0.2683
 1205TIP3    H225107   2.724   1.078   3.058 -2.5148  1.7585 -0.7909
 1206TIP3   OH225108   5.599   1.925  11.766 -0.0217  0.2255 -0.1806
 1206TIP3    H125109   5.647   1.867  11.707 -0.5411  0.3763 -0.7620
 1206TIP3    H225110   5.593   2.008  11.718  0.5066  0.7002  0.5416
 1207TIP3   OH225111   1.956   5.671   2.602  0.3512 -0.3690  0.4812
 1207TIP3    H125112   1.882   5.726   2.575  0.7480  0.5015  1.1361
 1207TIP3    H225113   1.915   5.592   2.638 -0.2389 -0.1962  0.2007
 1208TIP3   OH225114   5.456   0.896  13.986 -0.1423 -1.1424  0.0167
 1208TIP3    H125115   5.441   0.957  13.914 -1.9451 -0.5773  0.8250
 1208TIP3    H225116   5.476   0.813  13.942 -0.3316 -0.6049 -1.1314
 1209TIP3   OH225117   6.659   1.420  12.337 -0.2149 -0.0944  0.3114
 1209TIP3    H125118   6.625   1.337  12.304 -0.9633 -0.1782  1.2336
 1209TIP3    H225119   6.704   1.459  12.263  2.1642 -2.3431  0.4175
 1210TIP3   OH225120   0.572   2.432  11.977 -0.2249  0.2121 -0.8535
 1210TIP3    H125121   0.572   2.483  12.059  2.4774  0.3393 -0.8293
 1210TIP3    H225122   0.535   2.492  11.912 -1.7646  0.3590  0.1205
 1211TIP3   OH225123   2.668   2.302   2.151  0.3474  0.3923  0.1646
 1211TIP3    H125124   2.612   2.317   2.227  0.8816 -1.8398  1.0759
 1211TIP3    H225125   2.676   2.206   2.146  1.2424  0.5402 -2.0312
 1212TIP3   OH225126   1.447   2.049   2.997  0.2775  0.0276  0.0453
 1212TIP3    H125127   1.437   2.079   2.907 -1.3495 -0.3727  0.0683
 1212TIP3    H225128   1.397   2.111   3.049  1.8572  0.7328  0.8160
 1213TIP3   OH225129   0.939   5.253  14.241 -0.3468 -0.4411  0.1787
 1213TIP3    H125130   0.928   5.190  14.312 -1.7812  1.8401  2.1505
 1213TIP3    H225131   1.019   5.301  14.263 -0.6501  0.0966  0.1437
 1214TIP3   OH225132   3.949   3.948   2.341  0.2848  0.4891  0.1712
 1214TIP3    H125133   3.901   4.029   2.351 -0.2810  0.3865 -1.3648
 1214TIP3    H225134   3.963   3.940   2.246  1.7386 -0.3942  0.4188
 1215TIP3   OH225135   6.251   1.571   3.425 -0.2184 -0.4098 -0.5515
 1215TIP3    H125136   6.183   1.597   3.363  0.0283  1.3268 -0.1452
 1215TIP3    H225137   6.236   1.477   3.439 -2.0749 -0.2196 -1.0102
 1216TIP3   OH225138   2.997   1.996   5.157 -0.1240  0.2970 -0.2253
 1216TIP3    H125139   2.981   1.950   5.239 -1.4805  0.3075 -0.4663
 1216TIP3    H225140   2.990   2.089   5.181  0.8938  0.3508 -0.0860
 1217TIP3   OH225141   5.237   1.498  13.694  0.5187  0.0406 -0.0969
 1217TIP3    H125142   5.254   1.438  13.767 -0.3123 -0.8102 -0.5772
 1217TIP3    H225143   5.175   1.451  13.638  1.0076  0.7499 -1.2705
 1218TIP3   OH225144   5.322   4.070  13.087 -0.0922 -0.6190 -0.1219
 1218TIP3    H125145   5.393   4.059  13.024 -1.0883 -1.0528 -1.1853
 1218TIP3    H225146   5.247   4.100  13.035 -0.4130  0.9223  1.1343
 1219TIP3   OH225147   0.204   4.539  17.044 -0.4882 -0.1949  0.1590
 1219TIP3    H125148   0.181   4.452  17.079 -1.2200 -0.1756 -0.2589
 1219TIP3    H225149   0.198   4.529  16.949  1.6990 -0.3021 -0.0026
 1220TIP3   OH225150   3.281   2.765  16.894  0.4088  0.4965 -0.0225
 1220TIP3    H125151   3.192   2.735  16.914  0.4055 -0.3055 -1.1378
 1220TIP3    H225152   3.295   2.840  16.951 -0.9334  0.5408  0.2723
 1221TIP3   OH225153   1.109   5.169  15.868 -0.2048  0.5680  0.1368
 1221TIP3    H125154   1.173   5.167  15.796 -0.1706  0.2255  0.1740
 1221TIP3    H225155   1.025   5.148  15.826 -0.2007  0.4660  0.1795
 1222TIP3   OH225156   1.209   2.591  10.987 -1.3958  0.8026 -0.4789
 1222TIP3    H125157   1.230   2.599  10.894 -0.0755  2.2506 -0.0921
 1222TIP3    H225158   1.277   2.533  11.022 -2.3249 -0.3593 -0.5099
 1223TIP3   OH225159   1.236   5.330   3.861 -0.4608 -0.1425  0.4020
 1223TIP3    H125160   1.300   5.267   3.895 -1.8170 -2.4409 -1.0001
 1223TIP3    H225161   1.264   5.345   3.770 -1.5710 -0.7823 -0.0696
 1224TIP3   OH225162   1.440   3.440   6.709 -0.6657 -0.4453  0.6545
 1224TIP3    H125163   1.475   3.522   6.744  0.4514 -0.5039 -0.2923
 1224TIP3    H225164   1.388   3.467   6.633  1.0932 -0.7021 -0.7085
 1225TIP3   OH225165   5.786   5.501   3.145  0.2666  0.2025 -0.6851
 1225TIP3    H125166   5.697   5.467   3.143  0.3568 -0.0722 -0.1905
 1225TIP3    H225167   5.813   5.502   3.053 -0.5690  1.1788 -0.9392
 1226TIP3   OH225168   2.487   5.427  15.704  0.6901 -0.0957  0.4149
 1226TIP3    H125169   2.407   5.429  15.757  0.4864  1.0208  0.0766
 1226TIP3    H225170   2.456   5.432  15.613  1.1926  2.5774  0.3267
 1227TIP3   OH225171   4.859   2.422   4.723  0.2788 -0.2334 -0.1831
 1227TIP3    H125172   4.834   2.501   4.674  1.2529 -0.0001 -0.3329
 1227TIP3    H225173   4.868   2.452   4.813  0.5841 -0.1743 -0.2294
 1228TIP3   OH225174   0.523   1.168   0.581 -0.0566  0.0520  0.5153
 1228TIP3    H125175   0.498   1.157   0.673 -1.4022  1.9142  0.4404
 1228TIP3    H225176   0.445   1.208   0.540  1.1015  0.8192 -1.0503
 1229TIP3   OH225177   4.511   4.889  13.221 -0.1744  0.5398  0.2493
 1229TIP3    H125178   4.546   4.949  13.287  1.4918  0.9551 -0.9628
 1229TIP3    H225179   4.546   4.921  13.138 -1.4436 -0.5413 -0.7467
 1230TIP3   OH225180   6.502   2.251  12.946  0.1438  0.3473  0.4712
 1230TIP3    H125181   6.442   2.180  12.923  0.8663 -0.3821  0.7424
 1230TIP3    H225182   6.481   2.271  13.037 -0.5059  0.9501  0.1950
 1231TIP3   OH225183   6.321   3.216   1.611 -0.2316  0.5291 -0.1887
 1231TIP3    H125184   6.356   3.273   1.680  0.5247  0.1626 -0.2527
 1231TIP3    H225185   6.287   3.140   1.658  2.2376 -0.7403 -0.2884
 1232TIP3   OH225186   0.545   2.101   1.423  0.0091  0.1815 -0.3439
 1232TIP3    H125187   0.635   2.107   1.455 -0.2483 -0.5062  0.5698
 1232TIP3    H225188   0.503   2.182   1.453  0.3913  0.6349 -1.0227
 1233TIP3   OH225189   0.364   4.299  12.951  0.5436 -0.2460  0.3699
 1233TIP3    H125190   0.365   4.250  13.033  1.3963 -0.3520  0.2990
 1233TIP3    H225191   0.443   4.271  12.905 -0.2967 -0.7405 -0.8208
 1234TIP3   OH225192   6.304   2.344  11.908  0.3726  0.4618 -0.7866
 1234TIP3    H125193   6.397   2.330  11.922  0.4639  1.8529  0.3089
 1234TIP3    H225194   6.298   2.430  11.866 -0.4820  3.2419  4.1524
 1235TIP3   OH225195   0.125   1.146  13.571  0.4770  0.5142 -0.2034
 1235TIP3    H125196   0.191   1.214  13.556  1.4944 -0.6206 -1.0892
 1235TIP3    H225197   0.124   1.134  13.666  0.5117  1.5308 -0.0630
 1236TIP3   OH225198   0.276   0.952  16.552 -0.0087  0.3038  0.2671
 1236TIP3    H125199   0.311   1.025  16.602  2.1112 -0.6490  0.2551
 1236TIP3    H225200   0.328   0.951  16.472 -1.2839 -0.0949 -0.5840
 1237TIP3   OH225201   6.144   1.369   2.112 -0.0809 -0.1382 -0.4511
 1237TIP3    H125202   6.224   1.338   2.154 -0.7661 -0.5959  0.5380
 1237TIP3    H225203   6.173   1.444   2.059  0.9277 -0.0283  0.2285
 1238TIP3   OH225204   0.226   2.182  14.154  0.4342  0.1710  0.2609
 1238TIP3    H125205   0.207   2.228  14.072  0.2169 -0.8327 -0.2749
 1238TIP3    H225206   0.321   2.178  14.158  0.4702 -1.1653 -0.7958
 1239TIP3   OH225207   3.399   5.496  16.020  0.7308 -0.1379  0.1920
 1239TIP3    H125208   3.469   5.510  15.957 -1.1627  0.9841 -1.7886
 1239TIP3    H225209   3.347   5.425  15.983  1.0292 -1.3033  1.8869
 1240TIP3   OH225210   4.694   2.870   0.956  0.2841 -0.0581  0.1933
 1240TIP3    H125211   4.722   2.860   1.047  0.1315  0.9709  0.3725
 1240TIP3    H225212   4.751   2.939   0.921 -1.0418  1.0745  0.1533
 1241TIP3   OH225213   3.141   1.019   1.330 -0.4209  0.0927  0.0799
 1241TIP3    H125214   3.206   1.068   1.279 -0.8533 -0.5741 -1.1622
 1241TIP3    H225215   3.079   0.986   1.264 -1.0014 -0.7999  1.0422
 1242TIP3   OH225216   5.935   6.469  14.877 -0.2219 -0.0804  0.2282
 1242TIP3    H125217   6.014   6.487  14.826 -1.6551  0.8348 -1.8067
 1242TIP3    H225218   5.921   6.374  14.867  0.3557 -0.1588  0.1717
 1243TIP3   OH225219   2.251   3.953   0.426  0.1304  0.0834 -0.2410
 1243TIP3    H125220   2.275   4.016   0.358 -0.4279 -1.2366 -1.7198
 1243TIP3    H225221   2.260   4.002   0.508  4.1668  0.7664 -0.8968
 1244TIP3   OH225222   0.976   5.165   0.728  0.1007 -0.3099  0.1788
 1244TIP3    H125223   0.943   5.077   0.747 -2.0316  0.6739  1.3834
 1244TIP3    H225224   0.906   5.224   0.757  0.6948  1.7438 -2.2189
 1245TIP3   OH225225   0.118   1.655   3.268  0.0170  0.3698 -0.1270
 1245TIP3    H125226   0.123   1.738   3.315  1.2678  0.2656 -0.0449
 1245TIP3    H225227   0.082   1.678   3.182 -4.6953  0.2438  1.5141
 1246TIP3   OH225228   6.330   3.215  12.632 -0.2697 -0.1593 -0.4973
 1246TIP3    H125229   6.254   3.235  12.577 -1.6935  0.6441  1.5935
 1246TIP3    H225230   6.358   3.301  12.665  1.0744 -0.5309 -0.6291
 1247TIP3   OH225231   2.137   4.698   5.496 -0.2815 -0.1030 -0.2734
 1247TIP3    H125232   2.058   4.725   5.449 -0.6517 -0.1834  0.2923
 1247TIP3    H225233   2.154   4.770   5.556  0.1619 -0.0224 -0.4942
 1248TIP3   OH225234   6.309   5.481  14.021  0.4611  0.2481  0.4997
 1248TIP3    H125235   6.378   5.505  13.958  0.2825  0.4999  0.4029
 1248TIP3    H225236   6.334   5.525  14.102  0.7285 -0.1320  0.6300
 1249TIP3   OH225237   2.215   4.952   3.036 -0.0827  0.0122 -0.5390
 1249TIP3    H125238   2.188   5.041   3.011  0.2469 -0.0974 -1.3218
 1249TIP3    H225239   2.309   4.950   3.020  0.0339 -0.2675  0.1540
 1250TIP3   OH225240   2.923   6.357  12.459  0.5184 -0.8441  0.2605
 1250TIP3    H125241   2.978   6.315  12.393  2.0214 -1.5710  1.9081
 1250TIP3    H225242   2.885   6.285  12.508  1.4135 -0.3501  1.7495
 1251TIP3   OH225243   4.814   0.561   0.351 -0.6796 -0.1265 -0.2136
 1251TIP3    H125244   4.830   0.614   0.273 -0.0207  0.6590  0.4352
 1251TIP3    H225245   4.721   0.540   0.347 -0.8562  0.6895 -0.7337
 1252TIP3   OH225246   1.261   1.323   1.985  0.0398 -0.1288  0.2910
 1252TIP3    H125247   1.345   1.302   2.026  0.4284 -2.6398 -1.5282
 1252TIP3    H225248   1.283   1.348   1.896 -1.1263 -1.3537 -0.3887
 1253TIP3   OH225249   1.396   3.754   4.886  0.1849  0.3841  0.6242
 1253TIP3    H125250   1.424   3.669   4.922  3.5416  0.4874 -1.3289
 1253TIP3    H225251   1.369   3.735   4.797 -0.9309  1.1455  0.7802
 1254TIP3   OH225252   6.458   2.347  15.077 -0.4461  0.1048  0.3099
 1254TIP3    H125253   6.515   2.271  15.081 -1.2925 -0.5420  0.4973
 1254TIP3    H225254   6.490   2.405  15.146  0.0468 -0.1991  0.3371
 1255TIP3   OH225255   2.296   6.055  12.871 -0.2904  0.2670  0.3401
 1255TIP3    H125256   2.334   6.045  12.958 -0.4494 -1.2896  0.2630
 1255TIP3    H225257   2.203   6.070  12.887 -0.1455  1.0860  0.4535
 1256TIP3   OH225258   3.128   2.117  15.089 -0.2085  0.4692 -0.1225
 1256TIP3    H125259   3.047   2.144  15.132 -0.6738 -1.0901  0.0286
 1256TIP3    H225260   3.190   2.104  15.161 -0.4493 -0.3683 -0.0608
 1257TIP3   OH225261   3.001   0.899  12.549 -0.8406 -0.2771 -0.9019
 1257TIP3    H125262   3.076   0.841  12.531 -0.4703 -1.0067  2.3675
 1257TIP3    H225263   2.934   0.840  12.586 -0.6234  1.1678  2.0901
 1258TIP3   OH225264   5.214   1.388  14.392 -0.2935 -0.3591  0.2358
 1258TIP3    H125265   5.217   1.449  14.466  1.6272  0.9172 -0.8286
 1258TIP3    H225266   5.265   1.313  14.421 -0.3048 -0.2626  0.5139
 1259TIP3   OH225267   3.565   4.955   1.318  0.4046 -0.3381  0.5399
 1259TIP3    H125268   3.621   4.976   1.244  0.5918 -0.0139  0.7725
 1259TIP3    H225269   3.562   5.035   1.370 -2.7170  0.7237 -1.0134
 1260TIP3   OH225270   3.470   5.674   4.247 -0.2133 -0.2417  0.3636
 1260TIP3    H125271   3.389   5.666   4.297 -1.1497 -0.8084 -1.1658
 1260TIP3    H225272   3.465   5.761   4.207  0.7761  0.4216  1.6155
 1261TIP3   OH225273   6.711   4.071  12.045  0.3952  0.5480  0.4672
 1261TIP3    H125274   6.631   4.113  12.014  0.4883  0.8267  0.5972
 1261TIP3    H225275   6.760   4.052  11.965  0.5507  1.0951  0.4252
 1262TIP3   OH225276   2.380   3.593  14.075  0.5011 -0.6629  0.1661
 1262TIP3    H125277   2.332   3.554  14.002  2.2240  1.3009 -2.1615
 1262TIP3    H225278   2.463   3.545  14.078  0.6528 -0.3916  0.5122
 1263TIP3   OH225279   6.480   4.252   5.186  0.0640  0.1402 -1.1453
 1263TIP3    H125280   6.534   4.224   5.260 -0.0413 -0.1640 -1.1827
 1263TIP3    H225281   6.509   4.197   5.113 -0.0572  0.2174 -1.2524
 1264TIP3   OH225282   2.425   5.196   0.157 -0.1957  0.2806  0.3529
 1264TIP3    H125283   2.399   5.253   0.229 -2.1378 -1.7519  1.3585
 1264TIP3    H225284   2.493   5.139   0.195 -1.3222 -0.8883  0.6968
 1265TIP3   OH225285   1.067   0.306   1.439 -0.0852  0.2766  0.1866
 1265TIP3    H125286   1.133   0.362   1.478  0.5527 -0.1044 -0.3321
 1265TIP3    H225287   1.017   0.272   1.514  1.8637 -1.4022  0.8121
 1266TIP3   OH225288   3.263   4.709  11.467 -0.1779  0.0767  0.5545
 1266TIP3    H125289   3.181   4.687  11.423 -0.1382  0.4064  0.3142
 1266TIP3    H225290   3.238   4.725  11.558 -0.3626  0.0669  0.5043
 1267TIP3   OH225291   3.693   3.778   1.076  0.3691  0.5399  0.3659
 1267TIP3    H125292   3.651   3.762   1.161  1.0952  1.5898  0.9436
 1267TIP3    H225293   3.630   3.830   1.027 -0.2626 -0.4877  0.0461
 1268TIP3   OH225294   4.967   4.982   3.956  0.1499 -0.0770  0.0042
 1268TIP3    H125295   5.034   4.978   3.888  0.8219  1.2466  0.5508
 1268TIP3    H225296   4.886   4.958   3.911  1.1263 -2.9977 -0.3879
 1269TIP3   OH225297   0.549   3.826   0.345  0.1629 -0.3008 -1.3502
 1269TIP3    H125298   0.460   3.861   0.332 -0.1862 -0.9163 -0.6611
 1269TIP3    H225299   0.587   3.827   0.257  0.2163  1.8950 -1.3786
 1270TIP3   OH225300   1.184   4.907   2.915  0.8171  0.3825  0.2708
 1270TIP3    H125301   1.165   4.863   2.998 -2.7862  1.4856  0.2200
 1270TIP3    H225302   1.169   4.839   2.849  0.0811  0.3923  0.4112
 1271TIP3   OH225303   5.323   3.971   5.531 -0.0029 -0.0538 -0.0530
 1271TIP3    H125304   5.251   4.027   5.501  0.3272  1.4145  1.7446
 1271TIP3    H225305   5.293   3.937   5.615  0.7192 -0.8423 -0.0981
 1272TIP3   OH225306   4.614   5.439  12.442 -0.2204  0.9375  0.6978
 1272TIP3    H125307   4.635   5.500  12.372 -2.3812  3.2518  1.9037
 1272TIP3    H225308   4.626   5.490  12.522 -0.0186 -0.9256  1.9207
 1273TIP3   OH225309   6.181   1.857   0.911  0.1204  0.3029  0.2427
 1273TIP3    H125310   6.162   1.920   0.981 -1.4626 -0.1484  0.2755
 1273TIP3    H225311   6.198   1.911   0.834  0.0523  0.7863  0.5598
 1274TIP3   OH225312   1.399   1.498   4.092 -0.1952 -1.0890  0.0739
 1274TIP3    H125313   1.488   1.494   4.128 -0.3280 -0.7612  0.4412
 1274TIP3    H225314   1.361   1.413   4.114  0.4806 -1.7803 -1.2971
 1275TIP3   OH225315   3.417   5.381  12.880 -0.1168  0.3838 -0.6794
 1275TIP3    H125316   3.338   5.422  12.847  0.1869  0.5988 -1.1579
 1275TIP3    H225317   3.471   5.454  12.912 -0.0065  0.2615 -0.5808
 1276TIP3   OH225318   4.992   3.749   6.079 -0.0276  0.2840  0.4630
 1276TIP3    H125319   5.085   3.728   6.070 -0.4588 -1.6716  0.2496
 1276TIP3    H225320   4.989   3.814   6.150  1.3985 -0.4420  1.2341
 1277TIP3   OH225321   3.873   4.931  15.034 -0.2205 -0.2107 -0.3705
 1277TIP3    H125322   3.960   4.957  15.005 -0.9230  0.9076 -1.5525
 1277TIP3    H225323   3.870   4.836  15.021  1.6379 -0.6980  2.0010
 1278TIP3   OH225324   5.097   5.684   5.837  0.1018  0.2486 -0.2919
 1278TIP3    H125325   5.183   5.724   5.821 -0.1535  1.0283  0.1929
 1278TIP3    H225326   5.096   5.665   5.930  0.4247 -1.4479 -0.6090
 1279TIP3   OH225327   3.034   3.596   5.378  0.2429 -0.1642 -0.4264
 1279TIP3    H125328   3.103   3.556   5.326  0.0950 -0.5504 -0.3288
 1279TIP3    H225329   2.961   3.609   5.318 -0.2657 -1.4578 -0.1334
 1280TIP3   OH225330   0.342   0.734  14.872 -0.0332  0.2715  0.6882
 1280TIP3    H125331   0.339   0.658  14.813 -0.1451  0.7330  0.0902
 1280TIP3    H225332   0.410   0.712  14.936  0.6950  0.1262 -0.1150
 1281TIP3   OH225333   0.199   0.400  16.217 -0.0947 -0.3147  0.2963
 1281TIP3    H125334   0.254   0.461  16.168 -1.1563  0.1538 -0.3479
 1281TIP3    H225335   0.120   0.390  16.163 -1.3716  0.3144  1.9737
 1282TIP3   OH225336   0.000   5.777   0.391  0.2792  0.5561 -0.4149
 1282TIP3    H125337   0.043   5.827   0.462  1.0963 -0.5408 -0.1093
 1282TIP3    H225338   0.047   5.804   0.312 -0.0641  1.1414 -0.4260
 1283TIP3   OH225339   0.526   4.902   5.718 -0.1532 -0.0808  0.0945
 1283TIP3    H125340   0.464   4.973   5.703 -0.7725 -0.5351  0.4132
 1283TIP3    H225341   0.471   4.823   5.722  0.4756 -0.5248  0.1326
 1284TIP3   OH225342   0.496   4.738  15.197  0.0986 -0.3176 -0.1372
 1284TIP3    H125343   0.530   4.825  15.217 -0.0401  0.1780 -1.9310
 1284TIP3    H225344   0.556   4.678  15.242  2.3192  0.6014 -1.6968
 1285TIP3   OH225345   0.296   4.477   3.950 -0.0982 -0.4414  0.0586
 1285TIP3    H125346   0.351   4.420   3.896  0.9205 -0.2103  0.8366
 1285TIP3    H225347   0.353   4.506   4.021 -1.1369  0.0679  0.7076
 1286TIP3   OH225348   5.120   6.720  15.948  0.2276  0.2203  0.1086
 1286TIP3    H125349   5.197   6.664  15.937  0.2976  0.6882 -2.2311
 1286TIP3    H225350   5.149   6.789  16.008  1.8122  0.6419 -1.0779
 1287TIP3   OH225351   4.344   5.630  12.254 -0.0054  0.5428  0.0017
 1287TIP3    H125352   4.253   5.628  12.286 -0.5748  0.4125 -1.5327
 1287TIP3    H225353   4.382   5.549  12.287 -0.1803  0.9932  1.3662
 1288TIP3   OH225354   1.927   2.127  14.402  0.2556  0.3174 -0.1990
 1288TIP3    H125355   1.871   2.053  14.378  1.1322 -0.4601  0.0993
 1288TIP3    H225356   1.921   2.131  14.497 -0.0524  0.8511 -0.2386
 1289TIP3   OH225357   2.659   2.056   0.410 -0.0912  0.0389  0.3000
 1289TIP3    H125358   2.624   2.087   0.494  0.8714 -2.1591  1.5756
 1289TIP3    H225359   2.606   1.979   0.389 -0.6518  0.8434 -1.4148
 1290TIP3   OH225360   6.503   1.895   0.031  0.8911  0.2477  0.3258
 1290TIP3    H125361   6.417   1.924   0.062  1.1879  0.5108  0.9041
 1290TIP3    H225362   6.492   1.801   0.016 -0.2326  0.6647 -2.0653
 1291TIP3   OH225363   4.849   3.770  15.771  0.1288  0.4338 -0.4937
 1291TIP3    H125364   4.806   3.693  15.734  1.2675 -0.5855  0.2500
 1291TIP3    H225365   4.830   3.840  15.708 -2.5174  0.0394 -0.2518
 1292TIP3   OH225366   2.600   6.675  16.551  0.1105 -0.5429  0.0203
 1292TIP3    H125367   2.642   6.605  16.501  1.3654  0.9837 -1.1877
 1292TIP3    H225368   2.535   6.712  16.491  1.1661  0.8768 -0.3001
 1293TIP3   OH225369   1.921   6.681  16.204  0.5804 -0.3313  0.2720
 1293TIP3    H125370   1.988   6.747  16.186  0.7416 -0.6680 -0.4205
 1293TIP3    H225371   1.916   6.677  16.299  1.2537 -0.0052  0.3273
 1294TIP3   OH225372   2.011   1.387  11.516  0.1650 -0.0551  0.4359
 1294TIP3    H125373   2.106   1.377  11.521  0.3652  0.6807 -1.1153
 1294TIP3    H225374   1.996   1.479  11.540 -0.0660  0.0266 -0.0075
 1295TIP3   OH225375   5.714   6.711   6.123 -0.0687 -0.1955 -0.2891
 1295TIP3    H125376   5.810   6.707   6.124 -0.1187 -2.0485  0.5083
 1295TIP3    H225377   5.691   6.749   6.207 -0.0432  0.0306 -0.3836
 1296TIP3   OH225378   6.073   1.473   4.806  0.2575  0.3452 -0.6179
 1296TIP3    H125379   6.116   1.474   4.892  2.2269  2.1332 -1.5370
 1296TIP3    H225380   6.117   1.402   4.759  0.7594  0.8153 -0.8667
 1297TIP3   OH225381   5.228   6.484   5.473 -0.0636  0.1987  0.6118
 1297TIP3    H125382   5.295   6.424   5.506 -0.0896 -0.0592  0.2028
 1297TIP3    H225383   5.157   6.426   5.443  0.5761  0.3429 -1.2831
 1298TIP3   OH225384   0.668   6.737  13.126  0.4037  0.2306  0.3303
 1298TIP3    H125385   0.651   6.695  13.041 -0.7557 -0.5156  0.8992
 1298TIP3    H225386   0.751   6.698  13.155 -0.0037 -0.7250  0.2595
 1299TIP3   OH225387   6.079   4.211   4.034 -0.4522  0.2220 -0.2797
 1299TIP3    H125388   6.124   4.186   4.115  0.6437  1.2022 -0.5633
 1299TIP3    H225389   5.988   4.188   4.049  0.1520 -2.1922  0.1892
 1300TIP3   OH225390   3.446   1.066   3.714  0.7617 -0.2465  0.3677
 1300TIP3    H125391   3.487   1.097   3.794  1.0124  2.3487 -0.6783
 1300TIP3    H225392   3.447   1.141   3.655 -2.9575 -0.8216 -0.7263
 1301TIP3   OH225393   3.163   4.160  16.718  0.2944 -0.3606  0.1865
 1301TIP3    H125394   3.214   4.240  16.708  3.4725 -2.1783  0.4641
 1301TIP3    H225395   3.135   4.161  16.810 -1.4952  1.2812 -0.2918
 1302TIP3   OH225396   1.231   2.937   3.231  0.1880  0.3076  0.8077
 1302TIP3    H125397   1.192   2.970   3.312  0.8199  0.1618  1.1766
 1302TIP3    H225398   1.325   2.935   3.249  0.1763 -1.7010  0.8072
 1303TIP3   OH225399   2.106   4.989   4.823  0.1699  0.1446  0.3027
 1303TIP3    H125400   2.114   5.083   4.839 -0.1740  0.1464  0.4925
 1303TIP3    H225401   2.144   4.948   4.901 -0.3912  0.1387  0.5793
 1304TIP3   OH225402   6.169   2.829   6.141 -0.2905  0.1720 -0.0137
 1304TIP3    H125403   6.103   2.898   6.135 -1.2768 -0.7740 -0.3402
 1304TIP3    H225404   6.251   2.872   6.115 -0.9049  1.1869 -0.3232
 1305TIP3   OH225405   0.290   4.040  11.627 -0.3992 -0.1965  0.0480
 1305TIP3    H125406   0.375   4.025  11.584 -0.8079 -0.0701 -0.8230
 1305TIP3    H225407   0.239   3.961  11.607 -0.1699 -0.7059  1.3892
 1306TIP3   OH225408   3.856   5.995  12.286  0.3783  0.3316 -1.0163
 1306TIP3    H125409   3.855   6.029  12.196  1.3028  1.5603 -0.6043
 1306TIP3    H225410   3.806   6.059  12.336 -3.6376 -2.3337 -1.1964
 1307TIP3   OH225411   1.101   5.324   3.269  0.4961  0.1245  0.2238
 1307TIP3    H125412   1.168   5.264   3.303 -1.3721 -2.5056 -0.4681
 1307TIP3    H225413   1.023   5.305   3.320 -0.3054  1.6632 -0.3647
 1308TIP3   OH225414   1.776   5.935   5.191  0.1170  0.1628  0.0303
 1308TIP3    H125415   1.781   5.851   5.146 -1.8669  0.0840 -0.1285
 1308TIP3    H225416   1.815   5.919   5.277 -1.3115 -1.2854  0.4616
 1309TIP3   OH225417   4.980   0.897   4.816  0.1751  0.2513  0.0268
 1309TIP3    H125418   4.935   0.849   4.886 -0.9576  0.8512 -0.2548
 1309TIP3    H225419   5.044   0.951   4.861 -0.2023  0.2652  0.5612
 1310TIP3   OH225420   5.190   5.050  16.629 -0.1529 -0.0915 -0.5960
 1310TIP3    H125421   5.095   5.043  16.635 -0.2701  1.7464  0.2395
 1310TIP3    H225422   5.216   4.973  16.578 -2.0072 -0.9778 -0.3122
 1311TIP3   OH225423   5.736   6.257  14.541  0.1718  0.0235 -0.0125
 1311TIP3    H125424   5.727   6.310  14.620  2.0856  0.1351  0.1872
 1311TIP3    H225425   5.680   6.301  14.476 -2.2328 -0.6571  1.4941
 1312TIP3   OH225426   4.731   4.035  16.365 -0.2096  0.0737  0.7365
 1312TIP3    H125427   4.661   4.085  16.407 -1.0805 -0.9964  0.5823
 1312TIP3    H225428   4.790   4.012  16.437 -0.5652  0.0914  1.0376
 1313TIP3   OH225429   6.475   1.230  16.221  0.3532 -0.0509  0.8304
 1313TIP3    H125430   6.503   1.172  16.150  1.3595  2.3006 -0.8185
 1313TIP3    H225431   6.497   1.183  16.301  0.9346 -2.0045 -0.4238
 1314TIP3   OH225432   6.008   0.568  16.851  0.2082 -0.1906 -0.3686
 1314TIP3    H125433   6.066   0.644  16.854 -2.2282  1.8049 -0.0002
 1314TIP3    H225434   6.036   0.513  16.924  1.0254  1.1788  0.3925
 1315TIP3   OH225435   0.985   3.928  15.814  0.2084 -0.0773 -0.3060
 1315TIP3    H125436   0.941   3.968  15.739 -0.1622  2.2734  1.0737
 1315TIP3    H225437   0.914   3.888  15.864  0.3057 -0.5658 -0.5456
 1316TIP3   OH225438   3.226   0.941   4.712 -0.7178  0.1599 -0.0056
 1316TIP3    H125439   3.234   0.965   4.805  0.3852 -0.6874  0.1376
 1316TIP3    H225440   3.141   0.898   4.706 -0.4387 -0.5409  0.8022
 1317TIP3   OH225441   1.831   0.631  16.474  0.6547  0.6078  0.5313
 1317TIP3    H125442   1.921   0.607  16.495  1.4178  2.9495  0.2547
 1317TIP3    H225443   1.779   0.591  16.543  1.9785 -0.2090  1.0983
 1318TIP3   OH225444   4.586   6.546  13.410  0.2012 -0.1229  0.2731
 1318TIP3    H125445   4.582   6.533  13.316  0.4887  1.2561  0.0466
 1318TIP3    H225446   4.498   6.527  13.441 -0.3389  0.9897 -0.5093
 1319TIP3   OH225447   5.281   4.413  16.561 -0.2015 -0.0141  0.4267
 1319TIP3    H125448   5.359   4.411  16.616 -0.1099  0.1782  0.3042
 1319TIP3    H225449   5.230   4.487  16.594  0.3824  0.8124 -0.4642
 1320TIP3   OH225450   6.220   4.404  15.307 -0.3616  0.1246  0.2887
 1320TIP3    H125451   6.198   4.497  15.297 -2.1373 -0.0761  1.7492
 1320TIP3    H225452   6.249   4.377  15.220 -1.5561  1.6284 -0.6401
 1321TIP3   OH225453   0.433   5.211  16.191  0.0492 -0.2317 -0.4291
 1321TIP3    H125454   0.338   5.206  16.207  0.3863  0.3581  2.2270
 1321TIP3    H225455   0.471   5.223  16.278  2.6600 -1.3280 -1.3335
 1322TIP3   OH225456   0.267   4.588   6.257  0.4945 -0.7220 -0.0781
 1322TIP3    H125457   0.317   4.641   6.320  0.4461 -0.0892 -0.5601
 1322TIP3    H225458   0.255   4.504   6.301  1.1334 -0.5525  0.4461
 1323TIP3   OH225459   2.017   5.630  12.015 -0.0906 -0.6291  0.5428
 1323TIP3    H125460   1.991   5.721  12.007 -0.1128 -0.7065 -0.3202
 1323TIP3    H225461   2.104   5.626  11.973  0.0287 -0.9475  0.8135
 1324TIP3   OH225462   2.951   0.291  14.252  0.6697 -0.1640 -0.0762
 1324TIP3    H125463   2.942   0.365  14.311  1.7635 -0.3373  0.3352
 1324TIP3    H225464   2.894   0.224  14.288 -0.5169  0.5356 -0.5844
 1325TIP3   OH225465   5.226   4.129   1.686 -1.1381 -0.8078  0.3958
 1325TIP3    H125466   5.199   4.164   1.771  1.5946  0.7639  0.7397
 1325TIP3    H225467   5.299   4.070   1.707 -0.0628  0.0335 -0.8757
 1326TIP3   OH225468   3.180   5.673   2.680 -0.0112  0.5452  0.7378
 1326TIP3    H125469   3.169   5.613   2.607 -2.1348 -1.0514  2.2279
 1326TIP3    H225470   3.228   5.747   2.644  0.6848 -1.0134 -1.7601
 1327TIP3   OH225471   0.647   0.547  14.528  0.3061  0.0406 -0.1482
 1327TIP3    H125472   0.567   0.507  14.496  0.1538  0.2752 -0.0661
 1327TIP3    H225473   0.717   0.489  14.498  0.0352 -0.7404  0.6892
 1328TIP3   OH225474   6.625   0.348  11.993 -0.0601 -0.1220  0.0825
 1328TIP3    H125475   6.716   0.337  11.964  0.0906 -0.1994  0.5709
 1328TIP3    H225476   6.598   0.260  12.019  0.0195  0.0558  0.7763
 1329TIP3   OH225477   4.080   5.033  12.447 -0.3840  0.6346  0.5662
 1329TIP3    H125478   4.092   4.970  12.518 -1.2353 -0.0957  0.0912
 1329TIP3    H225479   3.991   5.016  12.416  0.9413 -1.2392 -2.7114
 1330TIP3   OH225480   4.993   2.445  16.811 -0.1616 -0.0279 -0.5940
 1330TIP3    H125481   4.935   2.412  16.880  1.0601  1.3542  1.2058
 1330TIP3    H225482   4.944   2.518  16.773 -0.6060 -0.4261 -0.7926
 1331TIP3   OH225483   2.500   2.164   3.578 -0.6032  0.4817  0.6291
 1331TIP3    H125484   2.577   2.127   3.622 -0.9345  0.1024  0.8927
 1331TIP3    H225485   2.505   2.258   3.597 -1.2389  0.2168  2.2938
 1332TIP3   OH225486   4.591   5.886   3.117 -0.3967  0.1044 -0.4185
 1332TIP3    H125487   4.642   5.806   3.105 -1.1433 -0.1421 -2.2928
 1332TIP3    H225488   4.656   5.955   3.129  0.2652 -0.6902  0.7659
 1333TIP3   OH225489   1.236   0.458   5.743  0.0700 -0.1260 -0.3672
 1333TIP3    H125490   1.277   0.372   5.733  2.0244  0.8061 -0.8070
 1333TIP3    H225491   1.283   0.499   5.816 -1.6290  0.1696  0.6367
 1334TIP3   OH225492   1.710   4.979  13.081 -0.1852 -0.2258  0.3574
 1334TIP3    H125493   1.641   4.965  13.017  0.3461 -0.9986 -0.0611
 1334TIP3    H225494   1.715   4.897  13.130 -0.8132  0.4627  1.6419
 1335TIP3   OH225495   2.153   2.876  12.565  0.4595 -0.1638  0.5782
 1335TIP3    H125496   2.168   2.830  12.482 -0.4673  2.0121 -0.8543
 1335TIP3    H225497   2.232   2.928  12.578 -0.6341  1.8812 -0.6083
 1336TIP3   OH225498   1.157   0.094  15.610  0.4722  0.2798 -0.0525
 1336TIP3    H125499   1.196   0.074  15.526  0.6197  2.3362 -0.5402
 1336TIP3    H225500   1.064   0.074  15.599  0.6415 -0.3149 -0.4024
 1337TIP3   OH225501   3.537   6.497  14.756  0.6121  0.4523 -0.3340
 1337TIP3    H125502   3.475   6.535  14.693  1.4855 -0.9455 -2.1509
 1337TIP3    H225503   3.616   6.480  14.705  1.2263 -1.1493  1.0278
 1338TIP3   OH225504   0.694   5.922  17.462  0.4083  0.6318 -0.2208
 1338TIP3    H125505   0.779   5.892  17.429 -0.5193 -1.9284 -0.5910
 1338TIP3    H225506   0.637   5.917  17.386 -0.9334 -1.7626  0.8068
 1339TIP3   OH225507   6.327   5.067  13.364  0.4734  0.1017  0.5828
 1339TIP3    H125508   6.389   5.135  13.390  1.7910  0.0835 -2.1288
 1339TIP3    H225509   6.280   5.106  13.290 -3.2161  0.2968  2.7781
 1340TIP3   OH225510   2.981   6.316  16.836  0.3208 -0.3584  0.0093
 1340TIP3    H125511   2.932   6.381  16.786 -2.4690 -1.0795  1.6307
 1340TIP3    H225512   2.941   6.232  16.814  1.8256 -1.2055  0.3090
 1341TIP3   OH225513   6.008   6.429  15.657 -0.1004  0.1347 -0.5995
 1341TIP3    H125514   6.078   6.467  15.605  0.3453 -0.0103 -0.1054
 1341TIP3    H225515   5.934   6.489  15.645 -0.2786 -0.3360 -2.0761
 1342TIP3   OH225516   6.427   4.053   2.620  0.4514  0.0849 -0.2205
 1342TIP3    H125517   6.384   3.982   2.571  1.6776 -1.0971  0.3714
 1342TIP3    H225518   6.518   4.026   2.626  0.5723  0.7920  1.6768
 1343TIP3   OH225519   1.565   3.952  12.192  0.6756 -0.2245  0.2989
 1343TIP3    H125520   1.554   4.043  12.166 -0.6069 -0.5187 -0.2640
 1343TIP3    H225521   1.538   3.949  12.283 -0.5029 -0.2553 -0.0378
 1344TIP3   OH225522   0.072   1.044  16.897  0.4354  0.3606 -0.4086
 1344TIP3    H125523   0.164   1.063  16.917  0.4240  1.8599 -1.6191
 1344TIP3    H225524   0.029   1.129  16.897 -1.3555 -0.4413  1.7466
 1345TIP3   OH225525   0.912   3.907  16.359 -1.0924 -0.4393 -0.0748
 1345TIP3    H125526   0.960   3.937  16.436 -0.4688 -0.4499 -0.4543
 1345TIP3    H225527   0.868   3.985  16.325 -1.4011 -0.4435  0.3129
 1346TIP3   OH225528   6.467   6.105   2.026 -0.4236  0.2993 -0.5274
 1346TIP3    H125529   6.452   6.062   2.110 -0.2184 -1.3771 -1.3163
 1346TIP3    H225530   6.517   6.042   1.974  0.6048  1.8056 -1.4760
 1347TIP3   OH225531   3.316   1.387  10.622 -0.1732  0.4497 -0.3362
 1347TIP3    H125532   3.246   1.381  10.557  0.8045  0.6749 -1.4481
 1347TIP3    H225533   3.300   1.470  10.668 -1.6147 -0.3226  0.6336
 1348TIP3   OH225534   0.231   4.080  14.970  0.0091 -0.1681  0.1789
 1348TIP3    H125535   0.259   4.085  15.061  0.1986 -0.1592  0.1198
 1348TIP3    H225536   0.301   4.121  14.921 -0.2374  0.1076  0.0566
 1349TIP3   OH225537   5.139   0.123   0.751  0.5092 -0.0419  0.2382
 1349TIP3    H125538   5.231   0.148   0.752  0.8113 -1.0351 -0.6549
 1349TIP3    H225539   5.126   0.076   0.833  0.4982  1.0402  0.8786
 1350TIP3   OH225540   0.744   5.632   5.260 -0.1003 -0.2225  0.1515
 1350TIP3    H125541   0.793   5.594   5.332  0.1367  0.7577  0.5177
 1350TIP3    H225542   0.686   5.561   5.230  1.0413 -1.1739  0.1498
 1351TIP3   OH225543   2.223   4.182  12.323 -0.0515 -0.3711  0.6123
 1351TIP3    H125544   2.178   4.122  12.264  0.3896 -1.4112  1.3068
 1351TIP3    H225545   2.181   4.169  12.408 -1.0175  1.4616  0.4732
 1352TIP3   OH225546   0.673   3.663   0.572  0.2408  0.2475  0.6667
 1352TIP3    H125547   0.681   3.733   0.636  1.2785 -0.1432  0.9738
 1352TIP3    H225548   0.658   3.708   0.489 -1.5398  0.7457  1.2106
 1353TIP3   OH225549   0.695   6.164   3.403 -0.3098 -0.1996 -0.1086
 1353TIP3    H125550   0.773   6.110   3.414 -0.3122 -0.1020  0.4121
 1353TIP3    H225551   0.719   6.249   3.440  0.0838  0.5328 -1.9457
 1354TIP3   OH225552   6.173   2.731   5.590 -0.7897 -0.3161  0.4774
 1354TIP3    H125553   6.207   2.728   5.679 -1.2739 -0.1689  0.6729
 1354TIP3    H225554   6.103   2.797   5.594 -0.6498 -0.1327 -0.0668
 1355TIP3   OH225555   4.738   0.403  15.635  0.0405  0.0015 -0.2265
 1355TIP3    H125556   4.802   0.339  15.603 -1.8020 -0.9648 -2.2338
 1355TIP3    H225557   4.767   0.424  15.723  1.7725 -2.1807 -0.1968
 1356TIP3   OH225558   2.685   6.266   4.752  0.4038 -0.2502  0.3183
 1356TIP3    H125559   2.649   6.346   4.714  0.5719 -0.3496 -0.0562
 1356TIP3    H225560   2.642   6.259   4.837  0.3809  0.2328  0.3522
 1357TIP3   OH225561   0.192   2.896  11.622  0.3062 -0.7031 -0.3461
 1357TIP3    H125562   0.240   2.975  11.597 -0.4681  0.0224  0.4053
 1357TIP3    H225563   0.190   2.844  11.542  1.0076 -0.0592 -0.8016
 1358TIP3   OH225564   0.982   2.595  11.672 -0.9064  0.3312  0.1973
 1358TIP3    H125565   0.949   2.505  11.664 -1.4542  0.6127 -0.8243
 1358TIP3    H225566   1.060   2.597  11.617  0.9770 -0.3578  2.6784
 1359TIP3   OH225567   2.559   4.963   1.241  0.4419 -0.6328  0.5349
 1359TIP3    H125568   2.636   4.929   1.195  0.0472  1.7367 -2.1558
 1359TIP3    H225569   2.485   4.917   1.201  0.1708  0.6172 -0.4452
 1360TIP3   OH225570   2.204   0.253   4.480  0.1930 -0.4364  0.2047
 1360TIP3    H125571   2.277   0.242   4.418  0.7210  0.7690  0.5833
 1360TIP3    H225572   2.247   0.270   4.564 -0.4785  1.6414  0.1814
 1361TIP3   OH225573   3.554   6.311   0.140 -0.3924  0.1334 -0.1888
 1361TIP3    H125574   3.637   6.280   0.178 -0.0377 -0.0718 -1.1000
 1361TIP3    H225575   3.538   6.395   0.182 -0.1427 -0.2024  0.5975
 1362TIP3   OH225576   2.780   3.985  14.293 -0.2937 -0.1121 -0.4989
 1362TIP3    H125577   2.723   3.955  14.365 -0.0348  1.0825  0.2398
 1362TIP3    H225578   2.720   3.998  14.219 -0.9997  1.0139  0.2326
 1363TIP3   OH225579   4.721   4.919  14.189  0.0153 -0.8708  0.6660
 1363TIP3    H125580   4.755   4.906  14.277 -0.6695  2.4813  1.5543
 1363TIP3    H225581   4.794   4.955  14.139 -1.0108  3.1547  1.6913
 1364TIP3   OH225582   1.620   0.596  16.045  0.5306 -0.4910  0.5685
 1364TIP3    H125583   1.652   0.610  15.956 -1.3426 -1.3524 -0.2971
 1364TIP3    H225584   1.533   0.558  16.034 -0.1471  0.2361  2.7827
 1365TIP3   OH225585   3.565   4.309   1.537 -0.0092 -0.5317 -0.1388
 1365TIP3    H125586   3.528   4.360   1.610 -0.8267 -0.8028 -0.3492
 1365TIP3    H225587   3.495   4.308   1.471  1.0928  0.5904 -1.3742
 1366TIP3   OH225588   0.993   3.539  14.546 -0.2503 -0.0855 -0.1463
 1366TIP3    H125589   1.062   3.554  14.610  0.1874 -0.7546 -0.4494
 1366TIP3    H225590   0.994   3.618  14.492 -0.7417  0.5580  0.7617
 1367TIP3   OH225591   1.048   1.959  13.785  0.4024  0.1782 -0.0565
 1367TIP3    H125592   1.033   1.881  13.731 -3.1661 -0.4660  1.6005
 1367TIP3    H225593   1.084   1.924  13.867 -1.9525  0.0119  1.0004
 1368TIP3   OH225594   4.178   1.411  13.372  0.5486  0.8341  0.1618
 1368TIP3    H125595   4.143   1.482  13.427  1.3475  1.3567  0.0169
 1368TIP3    H225596   4.273   1.426  13.371  0.6529  0.2000 -0.4867
 1369TIP3   OH225597   5.974   3.752  14.329  0.4713  0.5759  0.2012
 1369TIP3    H125598   6.036   3.719  14.394 -0.8650 -3.0695 -0.1426
 1369TIP3    H225599   6.015   3.733  14.245 -0.2719 -0.1173 -0.0130
 1370TIP3   OH225600   3.881   1.247  11.397 -0.1323 -0.4698 -0.5342
 1370TIP3    H125601   3.887   1.155  11.422  0.5571 -0.3113 -0.0959
 1370TIP3    H225602   3.936   1.256  11.319 -0.2279 -0.4391 -0.5984
 1371TIP3   OH225603   3.815   0.408  17.025 -0.3301  0.1954 -0.1089
 1371TIP3    H125604   3.728   0.370  17.039 -0.8341  1.4990  0.3742
 1371TIP3    H225605   3.868   0.369  17.094 -0.5105 -0.5955 -0.3960
 1372TIP3   OH225606   3.385   2.498  14.479  0.2056  0.6022 -0.1283
 1372TIP3    H125607   3.389   2.476  14.386 -0.4023 -2.4122  0.4574
 1372TIP3    H225608   3.444   2.572  14.489 -0.2672  1.4864 -3.0126
 1373TIP3   OH225609   2.440   5.961   4.787 -0.2094 -0.5869 -0.5775
 1373TIP3    H125610   2.476   5.932   4.870  1.5666 -0.1019 -1.1240
 1373TIP3    H225611   2.355   6.000   4.809  1.0262  1.2499  1.3146
 1374TIP3   OH225612   6.410   5.676  12.383 -0.3775  0.2800 -0.8529
 1374TIP3    H125613   6.335   5.660  12.325 -0.8112 -1.6611  0.1522
 1374TIP3    H225614   6.475   5.610  12.358 -0.2654 -0.0858  0.3258
 1375TIP3   OH225615   0.471   4.011  15.225  0.1742 -1.1056 -0.1166
 1375TIP3    H125616   0.564   3.989  15.238 -0.4581 -3.4810  0.9875
 1375TIP3    H225617   0.442   3.951  15.157 -1.0015 -1.7564  0.9356
 1376TIP3   OH225618   2.190   3.218  16.003 -0.0496 -0.1685 -0.1722
 1376TIP3    H125619   2.257   3.275  16.042  0.8919 -1.6276  0.4383
 1376TIP3    H225620   2.114   3.229  16.060 -0.7039  2.1707 -1.3652
 1377TIP3   OH225621   2.670   4.353  16.155 -0.0930  0.2688 -0.0401
 1377TIP3    H125622   2.598   4.295  16.127 -1.2288  1.1390  0.9465
 1377TIP3    H225623   2.628   4.438  16.168  1.6638  1.5877 -2.2078
 1378TIP3   OH225624   0.214   3.131   3.444  0.5463  0.2776 -0.2899
 1378TIP3    H125625   0.252   3.044   3.430  0.6146  0.3311 -0.4320
 1378TIP3    H225626   0.167   3.123   3.528 -0.4504 -0.2475 -0.8690
 1379TIP3   OH225627   5.142   1.566   5.539  0.4563  0.4101  0.0353
 1379TIP3    H125628   5.137   1.658   5.514 -1.2977 -0.0135 -1.2907
 1379TIP3    H225629   5.065   1.525   5.500  1.3219 -1.6904  0.3799
 1380TIP3   OH225630   2.085   3.263  15.725 -0.5329 -0.3832 -0.0713
 1380TIP3    H125631   2.121   3.265  15.813 -0.0569  1.9043 -0.2471
 1380TIP3    H225632   2.142   3.203  15.677  0.3453 -0.2182  0.7385
 1381TIP3   OH225633   1.221   2.540  11.489  0.2649 -0.4092  0.0906
 1381TIP3    H125634   1.287   2.511  11.551  0.0601 -0.3986  0.3161
 1381TIP3    H225635   1.237   2.488  11.411 -0.1021 -1.1369  0.4913
 1382TIP3   OH225636   2.333   2.965  16.862  0.4770 -0.1694  0.2923
 1382TIP3    H125637   2.422   2.957  16.828  0.6862  3.2576 -0.3396
 1382TIP3    H225638   2.283   3.005  16.791 -0.4040  2.0902  2.0294
 1383TIP3   OH225639   5.043   6.003  13.700  0.8939  0.0573  0.3221
 1383TIP3    H125640   4.958   6.041  13.724  0.7370 -0.5135  0.7049
 1383TIP3    H225641   5.069   6.049  13.621  0.8172  1.1124  0.8921
 1384TIP3   OH225642   1.506   2.031   3.917 -0.2093 -0.8375 -0.7512
 1384TIP3    H125643   1.589   2.070   3.889  0.2776 -0.8773  0.5652
 1384TIP3    H225644   1.507   2.038   4.012 -0.7754 -2.7187 -0.5559
 1385TIP3   OH225645   3.487   3.826  12.646 -0.1216  0.6968 -0.0239
 1385TIP3    H125646   3.407   3.878  12.656 -0.2228  0.2418  1.8280
 1385TIP3    H225647   3.547   3.884  12.599 -1.1344  1.4842 -0.3817
 1386TIP3   OH225648   0.612   1.013  11.829 -0.3862  0.2323 -0.0992
 1386TIP3    H125649   0.520   1.025  11.804 -0.4329 -0.7466 -0.4679
 1386TIP3    H225650   0.613   0.929  11.875  0.5989 -0.7147 -1.7451
 1387TIP3   OH225651   5.724   1.707   3.268 -1.0778  0.3781 -0.1824
 1387TIP3    H125652   5.682   1.724   3.183 -2.9146  2.7101  1.0900
 1387TIP3    H225653   5.671   1.639   3.308  0.6314 -1.7819 -1.3805
 1388TIP3   OH225654   5.435   0.059   3.541 -0.5417  0.6139  0.0731
 1388TIP3    H125655   5.415   0.146   3.507  1.5318 -0.1867 -3.8023
 1388TIP3    H225656   5.494   0.021   3.476 -2.3439 -4.2129  0.8468
 1389TIP3   OH225657   0.295   3.762   1.820 -0.4071 -0.2887 -0.1236
 1389TIP3    H125658   0.328   3.694   1.761  0.2795 -0.1279  0.0651
 1389TIP3    H225659   0.212   3.727   1.853 -0.0757 -1.0241 -0.0555
 1390TIP3   OH225660   3.207   5.912   1.194  0.1652  0.5470 -0.0458
 1390TIP3    H125661   3.293   5.887   1.227  0.1595  0.3372 -0.1925
 1390TIP3    H225662   3.188   5.996   1.237  1.5600  1.9147 -1.9620
 1391TIP3   OH225663   4.248   0.039  15.669 -0.0810  0.4534 -0.2998
 1391TIP3    H125664   4.302   0.058  15.592 -1.1057  1.8355 -0.7151
 1391TIP3    H225665   4.158   0.038  15.635 -0.5106  0.5906  0.8015
 1392TIP3   OH225666   6.320   4.437  17.193 -0.2543 -0.2397  0.1817
 1392TIP3    H125667   6.330   4.414  17.100  0.4313  0.7307  0.0017
 1392TIP3    H225668   6.227   4.453  17.203 -0.2575  0.2130 -0.4844
 1393TIP3   OH225669   0.170   4.110   4.215  0.0493  0.1996 -0.1507
 1393TIP3    H125670   0.135   4.118   4.126  0.5174  1.8681 -0.2150
 1393TIP3    H225671   0.257   4.150   4.211 -0.0657  0.6415  1.1208
 1394TIP3   OH225672   4.247   1.421  16.101  0.2514 -0.4042  0.0269
 1394TIP3    H125673   4.185   1.354  16.130  0.4424 -0.4879  0.2511
 1394TIP3    H225674   4.333   1.380  16.114  0.4213  0.2887  1.2103
 1395TIP3   OH225675   5.281   0.245   2.999  0.1362  0.2072 -0.3462
 1395TIP3    H125676   5.275   0.151   3.016  1.1154  0.4681  1.7031
 1395TIP3    H225677   5.328   0.251   2.916 -1.1207 -1.1063 -1.2074
 1396TIP3   OH225678   6.171   3.175  13.855 -0.0776 -0.0115  0.5847
 1396TIP3    H125679   6.128   3.177  13.941 -0.6202 -1.4574  0.3811
 1396TIP3    H225680   6.123   3.239  13.802 -0.3891  0.1606  1.0725
 1397TIP3   OH225681   5.243   5.740   2.768 -0.3148 -0.1527 -0.0787
 1397TIP3    H125682   5.149   5.725   2.762 -0.2546 -0.8293  0.5438
 1397TIP3    H225683   5.270   5.695   2.848  0.1465  1.9465  1.0363
 1398TIP3   OH225684   1.005   0.969   1.773 -0.2298  0.0856 -0.2257
 1398TIP3    H125685   0.949   1.012   1.837  0.4789 -0.1488  0.5611
 1398TIP3    H225686   0.944   0.928   1.712 -0.9373  1.9948 -0.8872
 1399TIP3   OH225687   2.277   4.806  15.545  0.0470 -0.3803 -0.3191
 1399TIP3    H125688   2.282   4.896  15.576  1.8984  0.0820 -1.7472
 1399TIP3    H225689   2.185   4.782  15.552 -0.1371  0.8295  2.1862
 1400TIP3   OH225690   5.698   0.320  12.361  0.0570 -0.4689 -0.0377
 1400TIP3    H125691   5.660   0.262  12.427 -0.9250 -0.0096 -0.1789
 1400TIP3    H225692   5.737   0.391  12.410  2.1934 -1.7363  0.1949
 1401TIP3   OH225693   3.574   5.936   2.716 -0.1129  0.4739 -0.4225
 1401TIP3    H125694   3.521   5.867   2.755  0.2176 -0.1905 -1.1279
 1401TIP3    H225695   3.660   5.896   2.702  0.0183  0.9543 -1.0495
 1402TIP3   OH225696   0.127   1.942   2.319 -0.5896 -0.0855 -0.1241
 1402TIP3    H125697   0.042   1.964   2.357 -0.5859 -0.9800  0.4308
 1402TIP3    H225698   0.107   1.882   2.248 -0.3265 -2.1557  1.4419
 1403TIP3   OH225699   5.515   6.694  16.072 -0.0969 -0.6219 -0.5326
 1403TIP3    H125700   5.486   6.695  15.981 -2.0394  0.0433  0.0399
 1403TIP3    H225701   5.463   6.626  16.114 -0.1944 -0.0272  0.3520
 1404TIP3   OH225702   5.454   1.090  14.699  0.1933 -0.2890 -0.0674
 1404TIP3    H125703   5.441   1.148  14.624 -0.4254  0.8136  0.8607
 1404TIP3    H225704   5.368   1.049  14.713 -0.4750  1.5368  1.6356
 1405TIP3   OH225705   2.084   0.463  16.504 -0.8655  0.4642  0.1966
 1405TIP3    H125706   2.156   0.401  16.495 -1.8021 -0.5548 -0.6488
 1405TIP3    H225707   2.086   0.490  16.596  0.2850  0.0979  0.2938
 1406TIP3   OH225708   3.781   4.164  12.334 -0.4286 -0.4531 -0.2018
 1406TIP3    H125709   3.719   4.092  12.346  0.0939 -0.8257  0.3375
 1406TIP3    H225710   3.743   4.237  12.384 -0.2062 -0.8237  0.5229
 1407TIP3   OH225711   0.456   0.308   5.567 -0.1118 -0.4372  0.4365
 1407TIP3    H125712   0.451   0.219   5.531 -0.9176 -0.4023  0.4546
 1407TIP3    H225713   0.498   0.359   5.498 -1.6922 -0.3592 -0.4951
 1408TIP3   OH225714   1.107   4.620   4.565 -0.5712  0.1136 -0.2952
 1408TIP3    H125715   1.044   4.592   4.499 -0.9926  0.5478 -0.0829
 1408TIP3    H225716   1.061   4.608   4.648  0.2098 -1.1215 -0.0215
 1409TIP3   OH225717   1.199   4.640  14.971 -0.2981 -0.3726 -0.1705
 1409TIP3    H125718   1.122   4.651  14.915 -0.3373  0.3285  0.0112
 1409TIP3    H225719   1.166   4.602  15.052 -0.6282  0.9147  0.3165
 1410TIP3   OH225720   5.851   4.492   6.337  0.3862 -0.0661  0.1012
 1410TIP3    H125721   5.945   4.503   6.323  0.5262  0.6567  1.4505
 1410TIP3    H225722   5.822   4.576   6.373 -0.5205 -0.7155  0.9533
 1411TIP3   OH225723   2.463   5.447   6.005  0.3678  0.0454 -0.3379
 1411TIP3    H125724   2.487   5.361   5.969  1.0607 -0.0923  0.4209
 1411TIP3    H225725   2.458   5.504   5.929  1.2746 -0.3583 -0.7182
 1412TIP3   OH225726   1.562   4.905  17.056 -0.6507  0.1153 -0.3704
 1412TIP3    H125727   1.615   4.887  16.979 -1.8709 -2.3441 -0.7360
 1412TIP3    H225728   1.597   4.848  17.124 -2.4305 -1.1646 -0.4735
 1413TIP3   OH225729   5.033   2.833   1.950 -0.3973 -0.3032  0.2761
 1413TIP3    H125730   4.946   2.794   1.943 -0.4812  0.0235 -0.5976
 1413TIP3    H225731   5.054   2.860   1.861  0.3024  0.2640  0.6096
 1414TIP3   OH225732   5.843   0.830   4.715 -0.3474 -0.2653  0.1870
 1414TIP3    H125733   5.852   0.834   4.811 -1.9661 -0.9661  0.3935
 1414TIP3    H225734   5.749   0.835   4.699 -0.0564  0.6935 -1.4445
 1415TIP3   OH225735   2.064   3.431   0.451 -0.2869  0.1816 -0.3191
 1415TIP3    H125736   1.971   3.407   0.453 -0.4352  0.7205 -0.7392
 1415TIP3    H225737   2.065   3.526   0.461  0.3708 -0.0384  3.2056
 1416TIP3   OH225738   0.706   1.284   1.423  0.0728 -0.6460  0.3760
 1416TIP3    H125739   0.700   1.193   1.449  1.1833 -0.6387  0.6933
 1416TIP3    H225740   0.641   1.293   1.352 -0.0044 -1.6807  0.3052
 1417TIP3   OH225741   5.830   2.001  16.621 -0.5489 -0.0908  0.2191
 1417TIP3    H125742   5.769   2.004  16.547 -0.2565  2.1613 -0.0213
 1417TIP3    H225743   5.781   1.960  16.692 -2.6874  2.3417  0.2725
 1418TIP3   OH225744   1.224   1.276  15.655  0.2748 -0.6530 -0.6392
 1418TIP3    H125745   1.257   1.342  15.594 -0.1408 -0.7382 -0.9666
 1418TIP3    H225746   1.227   1.194  15.605 -2.1605 -0.3859 -1.3775
 1419TIP3   OH225747   0.130   3.814  15.166  0.1250  0.6941  0.4996
 1419TIP3    H125748   0.069   3.825  15.093  0.2994  0.8493  0.3752
 1419TIP3    H225749   0.213   3.850  15.134 -0.0285  1.6110  1.0930
 1420TIP3   OH225750   1.075   5.325   0.141 -0.5894  0.0095  0.1695
 1420TIP3    H125751   0.986   5.330   0.106 -1.1795  1.3645  1.7606
 1420TIP3    H225752   1.113   5.411   0.125  0.8213 -0.8167 -1.3145
 1421TIP3   OH225753   4.812   1.034  15.650  0.3499  0.1233  0.2129
 1421TIP3    H125754   4.775   1.053  15.564 -1.0520  1.8279  1.1155
 1421TIP3    H225755   4.847   0.946  15.643  0.5389  0.3331 -2.1791
 1422TIP3   OH225756   5.207   3.826   4.931 -0.2478  0.9744 -0.4367
 1422TIP3    H125757   5.263   3.884   4.879  2.6746 -0.9644  0.3120
 1422TIP3    H225758   5.242   3.832   5.020  0.2050 -1.8530 -0.3389
 1423TIP3   OH225759   1.369   5.287  16.597  1.1287  0.3134  0.4130
 1423TIP3    H125760   1.411   5.278  16.512 -2.5461  2.7139 -1.9199
 1423TIP3    H225761   1.358   5.382  16.609 -0.5430 -0.0538  2.4329
 1424TIP3   OH225762   4.419   5.363  14.834 -0.0986  0.2315 -1.1920
 1424TIP3    H125763   4.334   5.367  14.879  0.1413 -0.6693 -0.6299
 1424TIP3    H225764   4.478   5.414  14.890  0.1723 -0.7896 -0.5200
 1425TIP3   OH225765   5.621   0.649   1.115 -0.4881  0.2000  0.5062
 1425TIP3    H125766   5.554   0.690   1.169 -1.0123 -0.0111  0.0261
 1425TIP3    H225767   5.696   0.708   1.121 -1.3057  1.3946 -0.3814
 1426TIP3   OH225768   3.380   6.379  16.781 -0.1692 -0.1624  0.2083
 1426TIP3    H125769   3.378   6.361  16.687 -1.3920 -0.0888  0.2060
 1426TIP3    H225770   3.288   6.385  16.806  0.1472  0.9069  1.1979
 1427TIP3   OH225771   0.579   3.291  13.952  0.2061 -0.4871 -0.3122
 1427TIP3    H125772   0.633   3.219  13.983  1.0088  0.6881  1.1207
 1427TIP3    H225773   0.641   3.355  13.918  0.0845  1.8206  3.2801
 1428TIP3   OH225774   6.711   1.993   6.944 -0.0665 -0.1957  0.1044
 1428TIP3    H125775   6.738   2.011   6.854  1.0693 -0.9861  0.2658
 1428TIP3    H225776   6.618   1.969   6.936  0.1472 -0.7576 -0.9193
 1429TIP3   OH225777   0.198   2.027  17.155 -0.0648 -0.1481  0.6906
 1429TIP3    H125778   0.290   2.040  17.133  0.1499 -2.3111 -0.0253
 1429TIP3    H225779   0.152   2.099  17.112  1.0378 -0.6705 -1.5467
 1430TIP3   OH225780   0.667   3.705  16.151  0.5314 -1.0370  0.1156
 1430TIP3    H125781   0.674   3.664  16.065 -1.0085 -1.7993  0.3198
 1430TIP3    H225782   0.581   3.746  16.152  2.1232  2.7996 -0.2468
 1431TIP3   OH225783   2.776   0.828  15.007 -0.2771 -0.0534  0.0512
 1431TIP3    H125784   2.847   0.816  15.071 -0.4001  0.4306  0.2797
 1431TIP3    H225785   2.771   0.744  14.961  0.8179  0.0790 -0.3431
 1432TIP3   OH225786   1.810   4.641  14.098 -0.0427  0.1566  0.2564
 1432TIP3    H125787   1.785   4.732  14.116 -0.1250 -0.0874  1.4447
 1432TIP3    H225788   1.733   4.590  14.123 -0.6141 -0.1538 -1.9265
 1433TIP3   OH225789   1.999   2.202   6.098  0.5157  0.4746  0.6482
 1433TIP3    H125790   2.078   2.231   6.051 -0.7930  1.1838 -1.2193
 1433TIP3    H225791   1.981   2.274   6.159  0.7528  0.7501  0.3978
 1434TIP3   OH225792   3.720   4.389  12.476 -0.2192 -0.4591  0.2258
 1434TIP3    H125793   3.651   4.400  12.542 -0.1992  0.3536  0.1212
 1434TIP3    H225794   3.699   4.453  12.408 -0.5395 -1.6612 -0.8346
 1435TIP3   OH225795   4.279   6.534   4.681 -0.3967  0.9147 -0.7599
 1435TIP3    H125796   4.346   6.466   4.686 -0.7161  0.6409  0.0242
 1435TIP3    H225797   4.243   6.526   4.593  0.5092  0.9842 -1.1455
 1436TIP3   OH225798   6.594   5.157   1.277 -0.6276 -0.1401  0.1010
 1436TIP3    H125799   6.631   5.219   1.340  1.4380  0.3327 -1.4718
 1436TIP3    H225800   6.537   5.210   1.222  2.1594  0.8647 -2.1036
 1437TIP3   OH225801   1.573   5.201   1.781 -0.3337  0.2115 -0.1388
 1437TIP3    H125802   1.540   5.196   1.691 -2.0765  1.4009  0.3759
 1437TIP3    H225803   1.635   5.274   1.780 -0.0535 -0.0260 -0.4466
 1438TIP3   OH225804   3.512   3.296   2.224  0.3729  0.6445  0.2906
 1438TIP3    H125805   3.484   3.298   2.133  3.2859  1.9663 -0.6869
 1438TIP3    H225806   3.467   3.371   2.264 -0.0108  0.7622 -0.3410
 1439TIP3   OH225807   4.171   2.408   4.903 -0.7354 -0.0241 -0.6205
 1439TIP3    H125808   4.113   2.430   4.830  1.0962 -2.9702 -3.2103
 1439TIP3    H225809   4.254   2.451   4.882  0.0526 -1.5422 -0.8053
 1440TIP3   OH225810   1.454   2.545   2.044 -0.1324  0.4284  0.3137
 1440TIP3    H125811   1.489   2.630   2.070  1.7128 -1.1048  3.3864
 1440TIP3    H225812   1.398   2.519   2.117  0.1100 -1.4093 -0.1137
 1441TIP3   OH225813   4.822   2.859   0.151 -0.1210  0.3799 -0.1916
 1441TIP3    H125814   4.907   2.818   0.172 -0.6778 -0.2849  0.8684
 1441TIP3    H225815   4.798   2.906   0.231 -1.7911 -1.2843  0.3422
 1442TIP3   OH225816   3.128   2.463  15.051  0.1769 -0.0393  0.6586
 1442TIP3    H125817   3.191   2.526  15.017  1.4405 -0.8219  1.4855
 1442TIP3    H225818   3.050   2.477  14.998  1.8336 -0.7825 -2.1552
 1443TIP3   OH225819   6.742   4.563  13.686 -0.0429 -0.8117 -0.1196
 1443TIP3    H125820   6.667   4.621  13.676 -0.1155 -0.7719  0.6114
 1443TIP3    H225821   6.787   4.567  13.602  0.6207  1.2150  0.2908
 1444TIP3   OH225822   1.144   1.213   6.354 -0.0559 -1.0250  0.2503
 1444TIP3    H125823   1.112   1.299   6.328  3.9484  0.6711  0.1860
 1444TIP3    H225824   1.235   1.211   6.324 -0.0475 -5.5068 -0.0908
 1445TIP3   OH225825   0.434   3.858  16.189 -0.1218  0.3760  0.0800
 1445TIP3    H125826   0.393   3.776  16.161  1.4712 -0.7121  0.7751
 1445TIP3    H225827   0.362   3.921  16.190 -1.1590 -0.6766 -1.7245
 1446TIP3   OH225828   6.590   3.565   5.189  0.2292  0.1471 -0.3896
 1446TIP3    H125829   6.633   3.502   5.131  0.2868 -0.6154  0.4530
 1446TIP3    H225830   6.663   3.610   5.232  0.2839 -1.6044  1.5346
 1447TIP3   OH225831   0.760   3.084   3.013 -0.2102 -0.3547 -0.2223
 1447TIP3    H125832   0.786   3.171   2.982 -1.1553  0.3794  0.9445
 1447TIP3    H225833   0.828   3.025   2.980  1.5619  1.1168  0.6136
 1448TIP3   OH225834   2.236   5.410  11.533 -0.3707 -0.0126  0.2011
 1448TIP3    H125835   2.153   5.373  11.563 -1.0100  0.4225 -0.9622
 1448TIP3    H225836   2.253   5.366  11.450  0.1363  0.4986  0.0297
 1449TIP3   OH225837   2.086   5.760  12.577 -0.3273  0.3490  0.4694
 1449TIP3    H125838   2.126   5.807  12.504 -0.3392  3.6552  2.4195
 1449TIP3    H225839   2.018   5.706  12.536 -0.6862  2.4277 -1.9155
 1450TIP3   OH225840   2.613   6.002  15.842  0.2887  0.8939  0.5110
 1450TIP3    H125841   2.642   6.020  15.931  2.8852  1.0593 -0.2876
 1450TIP3    H225842   2.594   5.908  15.841 -3.6523  1.4924  2.1410
 1451TIP3   OH225843   2.443   4.103   4.546 -0.4535  0.1672  0.5119
 1451TIP3    H125844   2.496   4.156   4.605  2.1429 -2.5182  0.8209
 1451TIP3    H225845   2.403   4.036   4.603  0.3006 -1.1121 -0.4006
 1452TIP3   OH225846   1.883   3.015  14.661 -0.3376 -0.0055 -0.2959
 1452TIP3    H125847   1.911   3.023  14.570  0.3705 -0.4652 -0.1234
 1452TIP3    H225848   1.926   3.088  14.706 -0.0691 -0.2260 -0.1894
 1453TIP3   OH225849   1.130   0.067  11.860 -0.0491  0.3086 -0.1704
 1453TIP3    H125850   1.060   0.111  11.909  0.9307  1.0085  0.6429
 1453TIP3    H225851   1.171   0.009  11.925  0.5160  0.3629 -0.4780
 1454TIP3   OH225852   3.850   1.285   2.307 -0.1712  0.1929 -0.1618
 1454TIP3    H125853   3.878   1.195   2.326  0.7974 -0.0510 -2.4152
 1454TIP3    H225854   3.924   1.339   2.335  0.0397  0.1142 -0.5699
 1455TIP3   OH225855   4.718   6.153  15.035  0.1530  0.1313 -0.3047
 1455TIP3    H125856   4.704   6.129  15.127 -0.4841 -0.2887 -0.5061
 1455TIP3    H225857   4.771   6.082  15.000  1.3420  0.8414  0.0082
 1456TIP3   OH225858   6.285   1.443  12.934 -0.6135  0.2144 -0.5408
 1456TIP3    H125859   6.194   1.442  12.903 -1.2846 -0.0834  1.2818
 1456TIP3    H225860   6.277   1.443  13.030  1.3101  1.0770 -0.3364
 1457TIP3   OH225861   6.585   1.851  15.559 -0.0612  0.1274 -0.4358
 1457TIP3    H125862   6.555   1.939  15.581 -0.7492 -0.4371  1.0456
 1457TIP3    H225863   6.588   1.805  15.643  1.3888 -0.9443 -1.0289
 1458TIP3   OH225864   5.250   3.473  12.760  0.0907 -0.2972  0.0197
 1458TIP3    H125865   5.258   3.386  12.799  1.1331 -0.0468  0.3957
 1458TIP3    H225866   5.234   3.457  12.667  2.3852 -0.9294 -0.3347
 1459TIP3   OH225867   3.126   4.668   3.325 -0.1319 -0.3712 -0.4390
 1459TIP3    H125868   3.160   4.623   3.402  0.6663  1.4425  0.3188
 1459TIP3    H225869   3.161   4.619   3.251  1.8058 -0.2654  0.3560
 1460TIP3   OH225870   4.089   2.996  12.406  0.1267  0.0070 -0.8744
 1460TIP3    H125871   4.118   2.973  12.494  0.0063  1.3779 -0.4500
 1460TIP3    H225872   4.130   3.081  12.388 -1.6904  0.8885 -1.1835
 1461TIP3   OH225873   5.922   4.847  16.728  0.1938 -0.2012 -0.4036
 1461TIP3    H125874   5.970   4.837  16.645 -0.9955 -1.9925 -0.9445
 1461TIP3    H225875   5.987   4.828  16.796  1.1716  1.2224 -0.8846
 1462TIP3   OH225876   5.738   5.046  13.113 -0.5058 -0.5374 -0.2706
 1462TIP3    H125877   5.655   5.082  13.144 -0.1441 -0.2977  0.4349
 1462TIP3    H225878   5.804   5.108  13.142 -0.1847  0.0100 -2.0501
 1463TIP3   OH225879   6.118   6.515   3.606 -0.0508 -0.3271  0.2668
 1463TIP3    H125880   6.162   6.578   3.549 -0.3253 -0.3097  0.0730
 1463TIP3    H225881   6.054   6.471   3.549 -0.5861 -0.0498  0.6433
 1464TIP3   OH225882   1.899   5.556  12.409 -0.4115 -0.3613  0.6560
 1464TIP3    H125883   1.916   5.504  12.488 -0.0705 -1.3183 -0.0213
 1464TIP3    H225884   1.979   5.548  12.357 -0.5074  0.5358  0.3597
 1465TIP3   OH225885   1.896   1.414  15.584  0.0112 -0.3156 -0.1559
 1465TIP3    H125886   1.888   1.323  15.554 -0.8815 -0.9065  1.7019
 1465TIP3    H225887   1.879   1.409  15.678 -0.0889  1.7937 -0.0306
 1466TIP3   OH225888   2.834   0.792  14.036 -0.2721  0.2916  0.0086
 1466TIP3    H125889   2.875   0.782  14.121  0.0377  1.7935  0.0627
 1466TIP3    H225890   2.791   0.878  14.040 -0.3779  0.3172 -1.2861
 1467TIP3   OH225891   4.997   4.061  12.431  0.4390  0.1728 -0.5839
 1467TIP3    H125892   4.952   4.132  12.477 -0.6836 -0.2214 -1.0159
 1467TIP3    H225893   5.084   4.095  12.412 -0.1603  1.5392 -1.0090
 1468TIP3   OH225894   3.487   4.461   1.787 -0.1786 -0.0387 -0.7190
 1468TIP3    H125895   3.414   4.518   1.762  0.3940  0.3481 -1.5787
 1468TIP3    H225896   3.529   4.507   1.859 -0.7821 -0.2724 -0.2045
 1469TIP3   OH225897   4.920   3.475  12.312 -0.0785 -0.1883  0.4032
 1469TIP3    H125898   4.880   3.433  12.388  0.5068 -0.1264  0.7551
 1469TIP3    H225899   4.904   3.569  12.325  1.0537 -0.0618  1.0921
 1470TIP3   OH225900   2.876   0.440   3.719 -0.9095 -0.3559 -0.0182
 1470TIP3    H125901   2.809   0.508   3.726 -0.8746 -0.4397  1.1932
 1470TIP3    H225902   2.932   0.469   3.647  0.0933  1.7684  1.5324
 1471TIP3   OH225903   2.964   4.521   4.619  0.0860  0.5756 -0.1742
 1471TIP3    H125904   3.030   4.577   4.578  0.8869 -0.5998 -0.5447
 1471TIP3    H225905   2.887   4.577   4.628  0.8931  1.7594 -0.4249
 1472TIP3   OH225906   4.300   4.031  16.915 -0.2719  0.1138  0.7977
 1472TIP3    H125907   4.391   4.012  16.891 -0.3190  1.2549 -0.3994
 1472TIP3    H225908   4.248   3.993  16.844 -0.6969 -0.0499  1.1938
 1473TIP3   OH225909   5.135   5.692   6.105  0.3276 -0.6125  0.2387
 1473TIP3    H125910   5.047   5.658   6.123  0.0913  0.5318  1.4021
 1473TIP3    H225911   5.135   5.780   6.142  2.1024 -0.7351  0.6380
 1474TIP3   OH225912   1.803   4.928   3.433  0.4189  0.2047  0.0447
 1474TIP3    H125913   1.789   4.873   3.511 -0.8788  0.3785 -0.0437
 1474TIP3    H225914   1.826   4.866   3.364 -0.6118 -0.1899  0.0485
 1475TIP3   OH225915   2.013   1.257  13.777  0.0257 -1.0667 -0.4938
 1475TIP3    H125916   1.930   1.224  13.809 -0.6833 -1.1730 -2.3307
 1475TIP3    H225917   2.060   1.284  13.855 -1.6081 -1.2820  0.6003
 1476TIP3   OH225918   1.662   6.233  14.231  0.4743  0.6318 -0.0456
 1476TIP3    H125919   1.714   6.161  14.194 -0.7710  0.3915 -1.4304
 1476TIP3    H225920   1.578   6.227  14.186  0.3425  2.9757 -0.2331
 1477TIP3   OH225921   2.926   4.639  17.012  0.0593 -0.2260  0.2301
 1477TIP3    H125922   2.987   4.658  16.941 -0.0871  3.5978  0.9039
 1477TIP3    H225923   2.856   4.588  16.971  1.2883 -0.4282 -1.7099
 1478TIP3   OH225924   0.451   5.812   5.809  0.2594  0.6716  0.4338
 1478TIP3    H125925   0.361   5.842   5.801 -0.5063 -1.7933 -1.5645
 1478TIP3    H225926   0.494   5.841   5.729  1.3102  1.8567  1.3855
 1479TIP3   OH225927   2.162   6.656   0.203 -0.6067  0.1789 -0.3276
 1479TIP3    H125928   2.204   6.624   0.123 -0.6046 -0.2645 -0.1531
 1479TIP3    H225929   2.082   6.699   0.173 -0.9768 -0.6199 -0.5123
 1480TIP3   OH225930   5.035   4.931  17.371  0.2553  0.4444  0.2059
 1480TIP3    H125931   5.049   5.023  17.349  1.3917  0.4256  0.7874
 1480TIP3    H225932   5.024   4.888  17.286 -0.8587  1.1806 -0.0526
 1481TIP3   OH225933   4.626   4.614  16.652 -0.0808 -0.0938  0.3776
 1481TIP3    H125934   4.657   4.575  16.570  2.0773 -0.9631  1.5183
 1481TIP3    H225935   4.568   4.548  16.689  2.8889 -2.0785  1.8828
 1482TIP3   OH225936   0.071   2.152  12.803 -0.0960 -1.0411 -0.0368
 1482TIP3    H125937   0.106   2.242  12.800 -1.6014 -0.4463 -0.6857
 1482TIP3    H225938   0.009   2.153  12.876  1.3724 -2.1642  1.2855
 1483TIP3   OH225939   5.718   0.005  14.035 -0.4023 -0.1702  0.2913
 1483TIP3    H125940   5.666   0.074  13.992  0.0090 -0.0287  0.0089
 1483TIP3    H225941   5.762   0.050  14.107 -2.2168 -0.7087  1.7950
 1484TIP3   OH225942   3.178   0.346  13.005  0.1025 -0.8499  0.0813
 1484TIP3    H125943   3.131   0.312  13.081  0.6874 -2.8365 -0.3990
 1484TIP3    H225944   3.137   0.431  12.988 -0.7364 -0.8333  1.9636
 1485TIP3   OH225945   1.573   1.268  16.451  0.0296  0.1714 -0.4575
 1485TIP3    H125946   1.560   1.352  16.494 -1.0264 -0.0927 -0.2312
 1485TIP3    H225947   1.639   1.223  16.504  0.4048  0.7511 -0.4303
 1486TIP3   OH225948   1.754   0.641   3.309  0.6679 -0.3733  0.1886
 1486TIP3    H125949   1.697   0.705   3.351 -0.0877 -1.1472  0.3640
 1486TIP3    H225950   1.821   0.693   3.266  0.9835  0.4711  1.6502
 1487TIP3   OH225951   0.611   5.776  11.325  0.1266  0.1097 -0.6223
 1487TIP3    H125952   0.635   5.737  11.241  1.1406 -1.5717  0.4020
 1487TIP3    H225953   0.517   5.793  11.318  0.5290  1.9107 -2.8018
 1488TIP3   OH225954   2.311   5.584   6.409  0.2001  0.2494  0.4605
 1488TIP3    H125955   2.262   5.594   6.327  1.7799  1.6089 -0.3611
 1488TIP3    H225956   2.250   5.538   6.467 -2.3542  2.4954 -0.2348
 1489TIP3   OH225957   6.201   4.876   2.332 -0.6550  0.1471  0.2051
 1489TIP3    H125958   6.183   4.785   2.355 -0.3663 -0.5073 -1.8875
 1489TIP3    H225959   6.296   4.881   2.326 -0.5884  0.9392  1.4544
 1490TIP3   OH225960   5.638   2.313  16.247 -0.3966 -0.0059  0.0230
 1490TIP3    H125961   5.590   2.314  16.164 -1.2046  0.0658  0.4782
 1490TIP3    H225962   5.632   2.402  16.280 -0.6403 -0.1853  0.4701
 1491TIP3   OH225963   1.997   3.219   4.629  0.2365  0.0287  0.2339
 1491TIP3    H125964   2.076   3.273   4.635  0.5294 -0.4315  0.6629
 1491TIP3    H225965   1.937   3.270   4.575  1.3250 -0.2128 -1.2532
 1492TIP3   OH225966   2.396   5.320  16.137 -0.4097 -0.0939  0.1853
 1492TIP3    H125967   2.321   5.349  16.085 -1.8919 -1.5004  1.4058
 1492TIP3    H225968   2.454   5.277  16.074 -1.0504  0.2354 -0.6495
 1493TIP3   OH225969   1.654   0.675  15.765  0.5705 -0.4552 -0.1634
 1493TIP3    H125970   1.614   0.678  15.678 -1.6129  2.4543  0.7888
 1493TIP3    H225971   1.747   0.693  15.749  0.3407 -0.5685 -1.8919
 1494TIP3   OH225972   2.198   3.871  15.737  0.5425 -0.0001 -0.9287
 1494TIP3    H125973   2.227   3.932  15.805  1.0550 -1.3753  0.1283
 1494TIP3    H225974   2.206   3.785  15.777 -0.4653 -0.7547 -2.2829
 1495TIP3   OH225975   1.075   4.234   1.643  0.3381 -0.3531 -0.4269
 1495TIP3    H125976   1.099   4.238   1.550 -1.6025 -4.1291 -1.2754
 1495TIP3    H225977   0.980   4.226   1.643 -0.0508  2.4960  2.1778
 1496TIP3   OH225978   6.152   0.561  13.258  0.4234 -0.4268  0.3943
 1496TIP3    H125979   6.090   0.610  13.204 -1.1892  0.1607  2.6236
 1496TIP3    H225980   6.238   0.586  13.224 -0.4727  0.3043 -1.5158
 1497TIP3   OH225981   0.574   2.822  17.401 -0.3365 -0.4932 -0.3963
 1497TIP3    H125982   0.634   2.826  17.326  0.7722 -1.6351  0.3961
 1497TIP3    H225983   0.491   2.792  17.364  0.2311 -1.1637 -1.1507
 1498TIP3   OH225984   4.426   2.542  13.558  0.1076  0.0026 -0.0048
 1498TIP3    H125985   4.372   2.492  13.496 -1.2328 -0.0239  1.1286
 1498TIP3    H225986   4.434   2.629  13.518 -0.8686  0.0316 -0.1640
 1499TIP3   OH225987   4.518   0.012   3.402 -0.2293 -0.0040 -0.2956
 1499TIP3    H125988   4.462  -0.007   3.478  0.6754  1.1343  0.6814
 1499TIP3    H225989   4.604   0.030   3.439 -0.0671  1.8390 -1.4808
 1500TIP3   OH225990   3.176   4.319   1.711  0.0586  0.5909  0.6574
 1500TIP3    H125991   3.205   4.369   1.635 -0.6543  0.4086  0.2501
 1500TIP3    H225992   3.136   4.240   1.673 -1.3281  1.0211  1.1444
 1501TIP3   OH225993   6.196   2.413   6.840 -0.0536 -0.0750  0.2059
 1501TIP3    H125994   6.178   2.489   6.784 -0.5721  0.8508  1.5773
 1501TIP3    H225995   6.137   2.423   6.914 -1.3912 -2.7932 -0.3986
 1502TIP3   OH225996   1.792   5.771  16.683 -0.3754 -0.1210 -0.5184
 1502TIP3    H125997   1.752   5.685  16.667  1.1989 -0.8303 -0.8399
 1502TIP3    H225998   1.885   5.752  16.696 -0.3188  1.2867  1.6676
 1503TIP3   OH225999   4.536   6.061  11.780  0.1195  0.3552  0.2088
 1503TIP3    H126000   4.561   6.139  11.829  0.1714 -0.2643  1.1839
 1503TIP3    H226001   4.587   5.990  11.819 -0.1964 -0.2362 -0.4221
 1504TIP3   OH226002   4.596   1.769  16.019  0.5124 -0.2865  0.5376
 1504TIP3    H126003   4.684   1.799  16.041 -0.1379  0.8099  1.7075
 1504TIP3    H226004   4.544   1.848  16.013 -0.9472 -1.0352  2.3456
 1505TIP3   OH226005   6.015   6.476   2.462 -0.7109 -0.2407  0.0722
 1505TIP3    H126006   5.972   6.425   2.394 -0.1869  0.1184 -0.5351
 1505TIP3    H226007   6.073   6.535   2.415 -0.7636  0.4073  0.8061
 1506TIP3   OH226008   4.562   2.751   3.607  0.9965 -0.4164 -0.1079
 1506TIP3    H126009   4.480   2.705   3.591  0.4902  1.2145 -2.8208
 1506TIP3    H226010   4.621   2.684   3.641 -0.2243 -2.6284 -2.0796
 1507TIP3   OH226011   5.394   3.705   3.621  0.6583  0.3432  0.0250
 1507TIP3    H126012   5.376   3.711   3.715 -0.4953  2.6461 -0.2881
 1507TIP3    H226013   5.370   3.790   3.586  0.6100 -0.6109 -2.4704
 1508TIP3   OH226014   1.393   5.947  16.677 -0.2401 -0.4196 -0.1771
 1508TIP3    H126015   1.477   5.963  16.720  0.4563 -1.6593 -1.0090
 1508TIP3    H226016   1.389   6.012  16.607 -0.2985  0.0889  0.2975
 1509TIP3   OH226017   5.092   0.207  13.913 -1.3730 -0.2485 -0.3034
 1509TIP3    H126018   5.058   0.227  13.826 -1.4720  0.2678 -0.1472
 1509TIP3    H226019   5.074   0.113  13.924 -0.3315 -0.5897 -1.2837
 1510TIP3   OH226020   0.392   6.446   0.056  0.0115 -0.2777 -0.0191
 1510TIP3    H126021   0.484   6.463   0.035 -0.4496  0.6099 -1.4397
 1510TIP3    H226022   0.369   6.370   0.003 -0.4132  0.2799 -0.6419
 1511TIP3   OH226023   2.251   6.760   4.147 -0.2724  0.0280 -0.5663
 1511TIP3    H126024   2.162   6.751   4.115  0.1029 -0.9628 -1.3837
 1511TIP3    H226025   2.271   6.854   4.139 -0.3568 -0.1078 -2.8259
 1512TIP3   OH226026   5.764   4.102   4.993  0.2699 -0.8353  0.4155
 1512TIP3    H126027   5.825   4.110   5.067  0.9209  0.2896 -0.2177
 1512TIP3    H226028   5.730   4.013   5.000  0.2674 -0.7359  2.1076
 1513TIP3   OH226029   5.054   1.109  14.366  0.1333  0.3197  0.1187
 1513TIP3    H126030   5.017   1.162  14.296  0.5994 -0.9902 -1.1749
 1513TIP3    H226031   5.058   1.020  14.329  1.7991 -0.1251  1.2458
 1514TIP3   OH226032   0.834   3.153   0.425  0.4348  0.2963 -0.4219
 1514TIP3    H126033   0.796   3.173   0.340  1.0037 -0.6212 -0.9092
 1514TIP3    H226034   0.796   3.218   0.484  0.5346  1.3660 -1.4969
 1515TIP3   OH226035   2.621   6.140  12.139  0.1986  0.6055  0.0864
 1515TIP3    H126036   2.566   6.215  12.161  1.9860  1.7918  0.6685
 1515TIP3    H226037   2.618   6.136  12.043 -0.8133  0.6911  0.1020
 1516TIP3   OH226038   0.747   2.503  11.379  0.2995  0.2229 -0.5864
 1516TIP3    H126039   0.718   2.415  11.405  0.4711  0.6393  1.1534
 1516TIP3    H226040   0.718   2.560  11.450  1.1292  1.4126 -1.1687
 1517TIP3   OH226041   6.039   0.855  16.063  0.7376 -0.3932  0.5411
 1517TIP3    H126042   6.065   0.877  15.974 -1.0435  0.5785  0.2137
 1517TIP3    H226043   5.987   0.774  16.054  0.0395  0.0391  0.5954
 1518TIP3   OH226044   3.243   3.577   4.851 -0.4549  0.0052  0.3881
 1518TIP3    H126045   3.160   3.619   4.826 -0.4996 -0.6406 -0.5907
 1518TIP3    H226046   3.254   3.507   4.787  1.8173  1.2843 -0.7278
 1519TIP3   OH226047   3.348   4.034  17.416  0.7159 -0.2775 -0.2653
 1519TIP3    H126048   3.342   4.114  17.467 -1.2200 -1.6943  1.9470
 1519TIP3    H226049   3.365   3.965  17.480 -0.6861 -2.0067 -1.6340
 1520TIP3   OH226050   5.634   3.546   2.413 -0.1885  0.3221  0.5633
 1520TIP3    H126051   5.722   3.522   2.386  1.2424  2.5825  2.7069
 1520TIP3    H226052   5.608   3.477   2.474  1.0407  0.6597  1.5250
 1521TIP3   OH226053   1.035   5.611  16.306 -0.1560  0.4893  0.6398
 1521TIP3    H126054   0.994   5.643  16.386 -0.4093 -0.6280  0.9749
 1521TIP3    H226055   0.963   5.601  16.244 -0.1103  0.3637  0.6075
 1522TIP3   OH226056   2.579   2.575  10.362  0.6110 -0.3590  0.1104
 1522TIP3    H126057   2.499   2.626  10.379 -0.0923 -0.8070 -1.6527
 1522TIP3    H226058   2.585   2.516  10.437 -1.1349 -0.7995 -0.0360
 1523TIP3   OH226059   3.049   5.415  13.102 -0.3270 -0.3508 -0.1816
 1523TIP3    H126060   3.127   5.459  13.070  0.6850 -2.7521 -1.2713
 1523TIP3    H226061   3.048   5.434  13.196  0.8375  0.7534 -0.3596
 1524TIP3   OH226062   5.452   4.067   2.311 -0.0452 -0.3699 -0.1601
 1524TIP3    H126063   5.427   4.101   2.225  0.3962  2.1498  0.6247
 1524TIP3    H226064   5.369   4.054   2.357 -0.2889 -1.7919 -0.9146
 1525TIP3   OH226065   6.526   4.841   2.633 -0.1864 -0.1565  0.5601
 1525TIP3    H126066   6.547   4.789   2.711 -0.8779 -1.6449 -0.2041
 1525TIP3    H226067   6.497   4.777   2.569  0.3180  1.0488 -0.9258
 1526TIP3   OH226068   0.594   0.093   0.729 -0.0439  0.2219 -0.1757
 1526TIP3    H126069   0.681   0.064   0.756  0.0422  0.7456  0.1080
 1526TIP3    H226070   0.606   0.126   0.640 -0.0397 -0.1182 -0.3014
 1527TIP3   OH226071   1.366   0.488  11.971  0.2012 -0.0050  0.7969
 1527TIP3    H126072   1.437   0.436  12.008  0.3038 -0.7657 -0.3865
 1527TIP3    H226073   1.395   0.507  11.882  0.3018  2.3860  1.2829
 1528TIP3   OH226074   0.915   6.679   5.874  0.0065  0.5667 -0.0349
 1528TIP3    H126075   0.941   6.602   5.924  0.0597  0.3890 -0.3396
 1528TIP3    H226076   0.929   6.655   5.783 -3.2108 -0.3401 -0.4267
 1529TIP3   OH226077   0.948   6.736  11.458  0.0788  0.7366 -0.2293
 1529TIP3    H126078   0.877   6.795  11.480  0.3007  0.4839  1.2985
 1529TIP3    H226079   0.922   6.696  11.375 -1.8816  0.1775  0.5843
 1530TIP3   OH226080   2.963   4.188  17.028  0.2538  0.2359  0.1178
 1530TIP3    H126081   2.868   4.186  17.023  0.2913 -0.7935 -0.2903
 1530TIP3    H226082   2.989   4.100  17.053  1.0899  0.5756  0.5072
 1531TIP3   OH226083   5.088   1.649  16.772 -0.8757  0.6402  0.2419
 1531TIP3    H126084   5.180   1.623  16.764 -0.7657  1.1459 -0.2045
 1531TIP3    H226085   5.088   1.713  16.844 -0.4236  2.6254 -1.4405
 1532TIP3   OH226086   4.170   2.801  16.246 -0.0030  0.3446 -0.3676
 1532TIP3    H126087   4.213   2.739  16.305  1.1306  0.1955 -1.3069
 1532TIP3    H226088   4.223   2.880  16.252 -2.5402  2.0532  2.3390
 1533TIP3   OH226089   3.247   0.547   2.198 -0.1071 -0.0631 -0.5925
 1533TIP3    H126090   3.200   0.469   2.168 -0.1759 -0.1270 -0.3258
 1533TIP3    H226091   3.283   0.521   2.283 -0.2804  0.2547 -0.4204
 1534TIP3   OH226092   0.298   6.438   1.239 -0.3741  0.2491 -0.9298
 1534TIP3    H126093   0.293   6.527   1.272  0.6127  0.5088 -1.4401
 1534TIP3    H226094   0.207   6.410   1.230 -0.8497 -0.6537  4.0233
 1535TIP3   OH226095   0.028   2.131   1.836 -0.0823  0.4878  0.0600
 1535TIP3    H126096   0.050   2.062   1.898  1.1422  1.6009  0.9312
 1535TIP3    H226097   0.089   2.119   1.763  1.5345  1.7521  1.1052
 1536TIP3   OH226098   1.421   3.049  15.797  0.0065  0.1286  0.1969
 1536TIP3    H126099   1.451   3.019  15.712  1.3493  0.4439  0.5349
 1536TIP3    H226100   1.333   3.013  15.806  0.5976 -1.5383 -0.4773
 1537TIP3   OH226101   6.714   1.018   2.862  0.1830  0.5785  0.4900
 1537TIP3    H126102   6.723   1.106   2.898 -0.1167  1.5569 -1.6967
 1537TIP3    H226103   6.694   1.031   2.769 -1.1331 -1.7836  0.3593
 1538TIP3   OH226104   5.800   1.185   4.761  0.6969 -0.3161  0.0090
 1538TIP3    H126105   5.848   1.168   4.841 -2.7736 -2.0818  1.9508
 1538TIP3    H226106   5.771   1.098   4.731  0.1531  0.4924 -1.9956
 1539TIP3   OH226107   4.272   1.711  16.088 -0.0792 -0.2909 -0.4555
 1539TIP3    H126108   4.346   1.736  16.144  0.2562  0.2279 -1.1238
 1539TIP3    H226109   4.274   1.615  16.087  0.1967 -0.2939  0.0325
 1540TIP3   OH226110   3.637   3.997  16.874  0.0905  0.2648  0.0188
 1540TIP3    H126111   3.606   4.048  16.800  1.4279  1.7629  0.4506
 1540TIP3    H226112   3.731   4.015  16.879  0.0284  0.3041  2.1090
 1541TIP3   OH226113   3.588   4.453   0.960 -0.2246  0.5718  0.1386
 1541TIP3    H126114   3.633   4.369   0.967  1.5750  1.4654 -0.0940
 1541TIP3    H226115   3.573   4.464   0.867 -1.4701  0.0361  0.2562
 1542TIP3   OH226116   3.134   3.821   6.390 -0.2262 -0.2255 -0.3925
 1542TIP3    H126117   3.151   3.769   6.311 -0.9099  0.5401 -1.0567
 1542TIP3    H226118   3.147   3.911   6.363 -0.5208  0.0541  0.3646
 1543TIP3   OH226119   6.471   5.705  14.648 -0.8001  0.0904  0.6648
 1543TIP3    H126120   6.518   5.622  14.648 -0.7355  0.1275  0.6029
 1543TIP3    H226121   6.395   5.690  14.591  1.1431  1.1705 -2.4253
 1544TIP3   OH226122   4.081   1.028   0.871  0.6675 -0.8430 -0.0634
 1544TIP3    H126123   4.138   1.028   0.793  1.6551 -0.4031  0.6361
 1544TIP3    H226124   3.993   1.015   0.836  0.8463  1.2160 -1.4606
 1545TIP3   OH226125   3.513   1.388  12.609  0.5431 -0.5874 -0.1203
 1545TIP3    H126126   3.546   1.366  12.522 -0.6693 -1.7465 -0.3187
 1545TIP3    H226127   3.421   1.360  12.608  0.0447  0.8735  1.0020
 1546TIP3   OH226128   2.916   4.042  10.451 -0.1814  0.0633  0.6668
 1546TIP3    H126129   2.836   3.989  10.451  1.7197 -3.1092  0.8834
 1546TIP3    H226130   2.951   4.033  10.540  1.0665  0.2226  0.2166
 1547TIP3   OH226131   0.969   5.877  12.019 -0.2864  0.0198  0.0134
 1547TIP3    H126132   1.048   5.827  11.998  0.9538  0.9899  2.0168
 1547TIP3    H226133   0.933   5.903  11.934  3.3991  2.3205 -1.0864
 1548TIP3   OH226134   4.550   4.051   2.886 -0.2558 -0.4129  0.0958
 1548TIP3    H126135   4.507   4.047   2.801  0.2828 -0.4783 -0.1790
 1548TIP3    H226136   4.607   3.974   2.888  0.3896  0.0614  0.1511
 1549TIP3   OH226137   1.930   6.368  14.238 -0.2961 -0.2240  0.1672
 1549TIP3    H126138   1.840   6.343  14.256 -0.6121  0.9852  0.3386
 1549TIP3    H226139   1.983   6.298  14.277 -1.1489 -1.0081 -0.0523
 1550TIP3   OH226140   2.475   0.700  13.584  0.2032  0.4504  0.0370
 1550TIP3    H126141   2.482   0.725  13.676  0.6648 -0.8052  0.3604
 1550TIP3    H226142   2.410   0.760  13.548  0.2768  1.1924  1.0928
 1551TIP3   OH226143   0.675   3.206  10.260  0.1064 -0.2542  0.1696
 1551TIP3    H126144   0.600   3.266  10.260 -0.7748 -1.3069  1.2369
 1551TIP3    H226145   0.718   3.222  10.344  0.8857  0.1024 -0.2943
 1552TIP3   OH226146   4.116   3.115   2.249 -0.2939 -0.3442  0.3866
 1552TIP3    H126147   4.194   3.078   2.208  0.0899  0.9123 -0.0526
 1552TIP3    H226148   4.122   3.209   2.232 -2.7762 -0.3871 -1.1474
 1553TIP3   OH226149   5.568   0.065   6.796 -0.2809 -0.0821  0.2572
 1553TIP3    H126150   5.610   0.145   6.767  0.0107 -0.7708 -1.3510
 1553TIP3    H226151   5.481   0.092   6.825 -0.0567  0.8454  0.0732
 1554TIP3   OH226152   5.044   3.490   3.143  0.4069 -0.0865  0.0206
 1554TIP3    H126153   5.088   3.405   3.137  1.6683  0.4432  0.9927
 1554TIP3    H226154   5.034   3.519   3.053  1.6577 -0.4597 -0.2622
 1555TIP3   OH226155   1.938   2.107  15.731  0.1909 -0.4914  0.0814
 1555TIP3    H126156   1.880   2.158  15.788  1.1367 -0.0550  0.6691
 1555TIP3    H226157   1.903   2.121  15.643 -0.0542  0.5121  0.3258
 1556TIP3   OH226158   1.183   0.582  16.447  0.3606  0.2512  0.1604
 1556TIP3    H126159   1.208   0.561  16.536 -0.1416 -0.1109  0.2174
 1556TIP3    H226160   1.179   0.678  16.446 -1.9222  0.2281  1.1825
 1557TIP3   OH226161   4.898   3.398  17.130 -0.3904  0.1079  0.3101
 1557TIP3    H126162   4.877   3.425  17.219  1.6377 -0.6908  1.0783
 1557TIP3    H226163   4.848   3.458  17.074 -1.2204  1.0137  1.9683
 1558TIP3   OH226164   6.050   5.874   0.439  0.2958 -0.4727 -0.4549
 1558TIP3    H126165   6.124   5.896   0.382 -0.2489 -0.1439 -1.0503
 1558TIP3    H226166   6.057   5.934   0.513  0.1027  0.1815 -0.9644
 1559TIP3   OH226167   3.201   0.763  17.053  0.0613  0.3330  0.0741
 1559TIP3    H126168   3.279   0.781  17.001 -0.3971 -0.0337 -0.7674
 1559TIP3    H226169   3.133   0.746  16.988 -1.0055  1.7665  0.7793
 1560TIP3   OH226170   3.767   3.558   3.353 -0.0772  0.0726 -0.2781
 1560TIP3    H126171   3.862   3.557   3.367 -0.2262  1.7841  1.4131
 1560TIP3    H226172   3.738   3.636   3.401 -2.0292  1.1136 -2.9378
 1561TIP3   OH226173   0.853   2.283   0.862  0.6656  0.1509 -0.1060
 1561TIP3    H126174   0.876   2.258   0.952 -0.1619  1.9553  0.6496
 1561TIP3    H226175   0.805   2.207   0.828  2.1562 -1.1016  0.4774
 1562TIP3   OH226176   1.727   1.137   0.856 -0.1318 -0.1840 -0.0194
 1562TIP3    H126177   1.808   1.133   0.907 -0.3763 -0.3145  0.3639
 1562TIP3    H226178   1.658   1.122   0.920 -0.5154  0.7538 -0.1962
 1563TIP3   OH226179   4.603   3.706   2.334  0.3536  0.0600  0.4651
 1563TIP3    H126180   4.661   3.752   2.273  0.0581  0.2487  0.3219
 1563TIP3    H226181   4.614   3.613   2.312  2.0730 -0.0749  1.7502
 1564TIP3   OH226182   2.123   5.275   0.607  0.0150 -0.2127 -0.1185
 1564TIP3    H126183   2.195   5.334   0.585  1.4809 -1.2911  1.5423
 1564TIP3    H226184   2.081   5.315   0.683  0.0894 -0.5651  0.1097
 1565TIP3   OH226185   6.701   6.767  15.554 -0.0988 -0.3338 -0.0188
 1565TIP3    H126186   6.659   6.841  15.510 -1.7897 -1.2886 -0.0967
 1565TIP3    H226187   6.743   6.718  15.483 -1.6178 -1.0963 -0.4429
 1566TIP3   OH226188   4.639   0.891  16.499  0.5740 -0.2007 -0.6712
 1566TIP3    H126189   4.706   0.911  16.564  1.0358  1.2906 -1.5566
 1566TIP3    H226190   4.560   0.935  16.532  0.0500 -1.7697  0.2593
 1567TIP3   OH226191   2.590   4.777  15.984 -0.3390 -0.2436  0.3547
 1567TIP3    H126192   2.536   4.768  15.906 -1.4715  0.4518  1.0322
 1567TIP3    H226193   2.680   4.769  15.952 -0.8049 -0.7250 -0.8946
 1568TIP3   OH226194   6.489   3.130   0.603  0.7285  0.2330 -0.2238
 1568TIP3    H126195   6.529   3.201   0.653  0.2678  1.7792 -1.9679
 1568TIP3    H226196   6.415   3.102   0.657 -0.2517  2.4146 -0.3690
 1569TIP3   OH226197   0.301   2.080  11.539  0.6064 -0.4530 -0.1880
 1569TIP3    H126198   0.327   1.995  11.573  0.9593  0.1936  1.2486
 1569TIP3    H226199   0.381   2.118  11.504  0.5255 -0.5707 -0.4980
 1570TIP3   OH226200   2.690   0.614  15.675  0.1378 -0.0959  0.1149
 1570TIP3    H126201   2.677   0.701  15.637  1.3493  0.2189  0.3779
 1570TIP3    H226202   2.713   0.558  15.601  1.7327  0.3500  0.2296
 1571TIP3   OH226203   3.241   5.156   1.303 -0.1180 -0.1384 -0.0453
 1571TIP3    H126204   3.156   5.199   1.295  0.1926  0.3900 -0.5799
 1571TIP3    H226205   3.234   5.078   1.248 -0.6259 -0.7145  0.7972
 1572TIP3   OH226206   2.809   5.235  14.138  0.1927 -0.0518  0.1099
 1572TIP3    H126207   2.864   5.259  14.064 -0.8841 -1.8221 -1.3647
 1572TIP3    H226208   2.767   5.317  14.164  1.9201  0.9331 -0.0518
 1573TIP3   OH226209   5.663   6.622   5.305  0.5299 -0.8415  0.1079
 1573TIP3    H126210   5.738   6.563   5.303 -0.2491 -1.9255  1.6682
 1573TIP3    H226211   5.662   6.657   5.394  1.5855  2.4188 -1.0123
 1574TIP3   OH226212   4.250   0.997  16.213 -0.7146 -0.3934 -0.3789
 1574TIP3    H126213   4.314   0.932  16.185 -0.9458 -0.5500 -0.5575
 1574TIP3    H226214   4.286   1.081  16.185 -0.0532 -0.3592  0.5174
 1575TIP3   OH226215   4.366   3.968   2.644 -0.5406 -0.1088  0.0839
 1575TIP3    H126216   4.284   3.962   2.595 -0.6285 -0.1006  0.2266
 1575TIP3    H226217   4.406   3.882   2.636  1.1365  0.8136 -2.8819
 1576TIP3   OH226218   4.177   5.619  11.737  0.1003  0.1705 -0.0238
 1576TIP3    H126219   4.164   5.541  11.682  0.3133  0.0622  0.0781
 1576TIP3    H226220   4.111   5.612  11.806  0.4052 -0.1431  0.2338
 1577TIP3   OH226221   4.349   1.683   5.148 -0.0125 -0.0306  0.0408
 1577TIP3    H126222   4.310   1.608   5.193 -1.1476 -0.2877 -1.3241
 1577TIP3    H226223   4.289   1.756   5.165 -0.7890 -0.2799 -1.5485
 1578TIP3   OH226224   1.954   6.430   0.840 -0.0388 -0.0910 -1.2019
 1578TIP3    H126225   1.872   6.440   0.889  0.7873  0.2456  0.1842
 1578TIP3    H226226   1.969   6.336   0.836 -0.0297 -0.1187 -0.6222
 1579TIP3   OH226227   6.693   6.035   5.180  0.1026  0.1937 -0.1270
 1579TIP3    H126228   6.777   6.008   5.144  0.7806  3.0349 -0.9663
 1579TIP3    H226229   6.628   6.003   5.117  0.7277 -0.2169 -0.5715
 1580TIP3   OH226230   2.724   0.960   2.286  0.2685 -0.2194  0.2768
 1580TIP3    H126231   2.812   0.963   2.323  0.2514  0.1673  0.2903
 1580TIP3    H226232   2.736   0.988   2.195  0.2561 -0.8085  0.0922
 1581TIP3   OH226233   1.927   0.406   0.456 -0.0623  0.6243 -0.2139
 1581TIP3    H126234   1.922   0.415   0.551 -2.8778  1.1650 -0.3281
 1581TIP3    H226235   1.937   0.495   0.423  0.6699  0.4626 -0.4477
 1582TIP3   OH226236   6.144   4.085   3.193 -0.2337  0.1530  0.1971
 1582TIP3    H126237   6.056   4.057   3.165  0.0674 -0.6451  0.0271
 1582TIP3    H226238   6.204   4.036   3.137  0.3734 -1.0003  1.7702
 1583TIP3   OH226239   3.392   2.976   1.551  0.1137  1.1142  0.0120
 1583TIP3    H126240   3.348   2.898   1.517  0.2876  0.9700  0.1185
 1583TIP3    H226241   3.434   2.947   1.632  3.0594  0.4400 -1.6219
 1584TIP3   OH226242   2.183   2.067  11.638  0.2116 -0.4071  0.1464
 1584TIP3    H126243   2.125   1.996  11.665 -0.6955  0.5183  0.6727
 1584TIP3    H226244   2.228   2.032  11.561 -1.7448 -0.8216 -0.8854
 1585TIP3   OH226245   5.920   6.445   3.352 -0.0281 -0.4274  0.4410
 1585TIP3    H126246   5.959   6.370   3.308 -0.1548 -2.0152  2.8870
 1585TIP3    H226247   5.827   6.423   3.361 -0.3969  0.7604 -0.2235
 1586TIP3   OH226248   1.669   6.038  14.050  0.4687 -0.0269  0.1148
 1586TIP3    H126249   1.681   5.949  14.017  0.0872 -0.1273  0.2503
 1586TIP3    H226250   1.632   6.086  13.976 -0.3143 -0.2333  0.3700
 1587TIP3   OH226251   2.215   3.872  14.378 -0.1193 -0.3374  0.2215
 1587TIP3    H126252   2.121   3.853  14.386 -0.3163  0.9879  1.2744
 1587TIP3    H226253   2.220   3.967  14.369  1.1292 -0.3966  0.1425
 1588TIP3   OH226254   5.257   3.440   6.257 -0.0540  0.4559 -0.1879
 1588TIP3    H126255   5.347   3.472   6.266 -1.0790  3.3517  0.9767
 1588TIP3    H226256   5.252   3.367   6.319  1.4925  0.2239 -0.2917
 1589TIP3   OH226257   5.258   6.161   0.399  0.1107  0.0530  0.0493
 1589TIP3    H126258   5.251   6.202   0.485  0.4056 -1.8450  1.0369
 1589TIP3    H226259   5.297   6.228   0.343  0.5180  1.1226  1.5637
 1590TIP3   OH226260   3.223   0.824   2.600  0.1459  0.5696 -0.3748
 1590TIP3    H126261   3.207   0.792   2.511  0.5342 -1.2639  0.1774
 1590TIP3    H226262   3.309   0.788   2.623  0.3594  1.6045  0.5027
 1591TIP3   OH226263   4.755   0.312  16.722 -0.6490  0.4049  0.5354
 1591TIP3    H126264   4.818   0.283  16.788  0.2204 -0.0344 -0.4566
 1591TIP3    H226265   4.706   0.233  16.700  1.1530 -0.2390 -1.5514
 1592TIP3   OH226266   3.123   1.634  16.786  0.2388  0.1947 -0.7555
 1592TIP3    H126267   3.029   1.636  16.806  0.7869  0.5214  2.2646
 1592TIP3    H226268   3.127   1.613  16.693 -2.8136 -0.3688 -0.8694
 1593TIP3   OH226269   0.949   4.632  11.617  0.1455  0.0089 -0.0274
 1593TIP3    H126270   0.981   4.722  11.628 -0.4964  0.3611 -0.8877
 1593TIP3    H226271   0.907   4.611  11.700 -2.6030  1.7438 -0.8389
 1594TIP3   OH226272   4.236   3.543  10.716 -0.8347 -0.1572 -0.3107
 1594TIP3    H126273   4.182   3.468  10.693 -0.5083 -0.2169 -0.9083
 1594TIP3    H226274   4.277   3.519  10.799 -1.6444 -0.1486  0.0950
 1595TIP3   OH226275   6.091   3.221  11.859 -0.1225 -0.4548  0.0210
 1595TIP3    H126276   6.075   3.312  11.886  0.5079 -1.1079  2.8680
 1595TIP3    H226277   6.179   3.223  11.820  0.3345  0.0048  1.0404
 1596TIP3   OH226278   0.733   2.956   5.704 -0.1432 -0.1275  0.5006
 1596TIP3    H126279   0.789   2.961   5.626  0.2308 -1.3123  0.6691
 1596TIP3    H226280   0.793   2.937   5.776 -0.4747  1.0626  1.1110
 1597TIP3   OH226281   0.571   1.752   6.211  0.0811 -0.4644  0.3364
 1597TIP3    H126282   0.611   1.831   6.176 -1.9038  1.2879  1.7567
 1597TIP3    H226283   0.630   1.725   6.281  1.2609 -0.8577 -0.7592
 1598TIP3   OH226284   4.563   6.437  15.512 -0.2274 -0.0172  0.0492
 1598TIP3    H126285   4.555   6.517  15.563 -0.1260 -0.8913  1.5182
 1598TIP3    H226286   4.642   6.449  15.459 -0.7624  1.2243 -0.4915
 1599TIP3   OH226287   5.891   2.924   5.463  0.5052  0.4265  0.3898
 1599TIP3    H126288   5.837   2.853   5.497  1.1470 -0.6894 -0.8208
 1599TIP3    H226289   5.831   2.998   5.453  0.0326  0.4011  2.6122
 1600TIP3   OH226290   4.402   2.748  14.392 -0.4285 -0.3119  0.0478
 1600TIP3    H126291   4.350   2.827  14.398 -0.6817 -0.2069 -2.4275
 1600TIP3    H226292   4.346   2.679  14.429 -3.1502 -0.4844 -3.8050
 1601TIP3   OH226293   1.317   2.644   0.658 -0.2240  0.1235  0.0035
 1601TIP3    H126294   1.340   2.728   0.618  1.5643 -0.4133 -0.2051
 1601TIP3    H226295   1.304   2.665   0.751 -1.8431  0.9383 -0.3722
 1602TIP3   OH226296   3.689   5.082  16.954 -0.0479  0.1392  0.5210
 1602TIP3    H126297   3.687   5.128  16.870  1.0926  0.1838  0.5121
 1602TIP3    H226298   3.737   5.140  17.012  0.2246 -0.4409  0.8786
 1603TIP3   OH226299   0.104   0.743   1.530  0.0789  0.3032  0.0231
 1603TIP3    H126300   0.052   0.714   1.455  0.5484  0.5458 -0.4019
 1603TIP3    H226301   0.156   0.816   1.497  1.5496 -0.6522  0.1037
 1604TIP3   OH226302   2.769   3.853  14.655  0.0609 -0.4953 -0.5733
 1604TIP3    H126303   2.683   3.861  14.615 -0.8160  0.4432  1.3627
 1604TIP3    H226304   2.763   3.773  14.708  0.0919 -0.0084  0.1769
 1605TIP3   OH226305   1.691   6.150   2.410  0.4229  0.0385  0.6924
 1605TIP3    H126306   1.616   6.191   2.452  1.2619  0.3276  1.9679
 1605TIP3    H226307   1.659   6.124   2.323 -0.2106  3.1794 -0.1170
 1606TIP3   OH226308   6.423   1.128   3.806 -0.0380 -0.6807 -0.6150
 1606TIP3    H126309   6.360   1.098   3.872  0.7400 -0.0927  0.4328
 1606TIP3    H226310   6.429   1.223   3.820  2.2820 -0.9092  0.4472
 1607TIP3   OH226311   2.599   1.858   5.240  0.4001  0.1639 -0.0341
 1607TIP3    H126312   2.624   1.766   5.249 -0.3804  0.0055  0.7028
 1607TIP3    H226313   2.565   1.866   5.151 -1.4675 -0.7851  0.5316
 1608TIP3   OH226314   1.758   5.408   4.985  0.3501  1.0088  0.1948
 1608TIP3    H126315   1.847   5.425   5.015  0.7454  1.0007 -0.9063
 1608TIP3    H226316   1.718   5.357   5.055  2.8021 -3.3908 -1.2385
 1609TIP3   OH226317   1.310   2.068  17.147 -0.6154 -0.0725 -0.0672
 1609TIP3    H126318   1.363   2.144  17.171  1.9119 -1.2351 -1.5971
 1609TIP3    H226319   1.354   2.031  17.070 -1.2372 -3.5835  1.0863
 1610TIP3   OH226320   5.558   3.343  16.103 -0.3291 -0.0906  0.4779
 1610TIP3    H126321   5.594   3.266  16.060  1.4029  0.2180  1.2592
 1610TIP3    H226322   5.481   3.366  16.052 -0.0843 -1.5226 -0.5896
 1611TIP3   OH226323   1.455   2.264   2.084  0.5672 -0.2767  0.1381
 1611TIP3    H126324   1.540   2.245   2.122  0.9201  1.7329  0.4458
 1611TIP3    H226325   1.471   2.337   2.024 -1.0368  0.6630  0.7843
 1612TIP3   OH226326   4.770   2.044   4.533  0.2932  0.3335 -0.4051
 1612TIP3    H126327   4.743   2.094   4.610  0.1401  2.7797 -1.9312
 1612TIP3    H226328   4.830   2.103   4.487  1.3658 -1.5654 -1.5435
 1613TIP3   OH226329   2.786   5.303  15.629  0.0677  0.0491 -0.3024
 1613TIP3    H126330   2.778   5.384  15.679 -0.4979  1.0557 -1.9405
 1613TIP3    H226331   2.866   5.263  15.661  0.8565  1.7105 -0.0853
 1614TIP3   OH226332   3.249   6.327   4.958  0.1964  0.4521 -0.3691
 1614TIP3    H126333   3.160   6.347   4.929 -0.1934 -1.1577 -0.3861
 1614TIP3    H226334   3.274   6.249   4.907  1.2305  0.2759  0.3695
 1615TIP3   OH226335   3.085   4.903   1.441  0.4372 -0.4219 -0.1425
 1615TIP3    H126336   3.158   4.960   1.416 -0.0582  0.1579 -0.2810
 1615TIP3    H226337   3.076   4.917   1.536 -0.4626  0.6667 -0.3714
 1616TIP3   OH226338   1.864   0.658  11.318 -0.0120 -1.2702 -0.6586
 1616TIP3    H126339   1.898   0.571  11.295 -1.4659 -2.5663  1.6513
 1616TIP3    H226340   1.772   0.655  11.290 -0.4890 -1.0984  0.8042
 1617TIP3   OH226341   4.434   0.869   4.432 -0.0537  0.3282  0.3087
 1617TIP3    H126342   4.438   0.774   4.420  0.3551  0.0498  2.2817
 1617TIP3    H226343   4.367   0.898   4.371 -2.9230 -1.7565  2.1986
 1618TIP3   OH226344   4.693   6.720   5.248  0.5368 -0.4400 -0.1837
 1618TIP3    H126345   4.644   6.742   5.168  0.2082 -0.4537  0.0144
 1618TIP3    H226346   4.682   6.626   5.257 -0.8308 -0.2104  0.7975
 1619TIP3   OH226347   6.508   6.514   2.154 -0.4634 -0.0249  0.3710
 1619TIP3    H126348   6.544   6.435   2.114 -0.4749 -0.4296  1.1414
 1619TIP3    H226349   6.437   6.541   2.096  1.0550  0.7913 -1.1976
 1620TIP3   OH226350   4.144   5.875  11.324  0.1433 -0.0564  0.0921
 1620TIP3    H126351   4.213   5.939  11.309 -1.6163  2.4886  1.8809
 1620TIP3    H226352   4.097   5.870  11.241 -0.0873  1.5589  0.1021
 1621TIP3   OH226353   5.626   2.004  11.365 -0.5110 -0.1058 -0.1483
 1621TIP3    H126354   5.712   2.041  11.381 -0.4517 -0.7424  1.1028
 1621TIP3    H226355   5.641   1.936  11.299 -0.1559  0.1979 -0.3779
 1622TIP3   OH226356   0.061   1.989   5.684  0.1947 -0.1762 -0.0783
 1622TIP3    H126357  -0.031   1.997   5.710  0.3432 -0.6039  0.6125
 1622TIP3    H226358   0.099   2.074   5.704  0.5191 -0.7563  2.0702
 1623TIP3   OH226359   0.019   6.590  10.794 -0.4079 -0.7394 -0.3015
 1623TIP3    H126360   0.007   6.513  10.849 -0.9801 -0.7315 -0.4074
 1623TIP3    H226361   0.073   6.559  10.721 -0.6817 -1.0523 -0.3736
 1624TIP3   OH226362   1.038   6.209   2.109  0.2512 -0.1848  0.4633
 1624TIP3    H126363   1.039   6.130   2.164  0.0949  0.1873  1.0084
 1624TIP3    H226364   0.963   6.196   2.051 -0.3774  0.0010  1.2164
 1625TIP3   OH226365   4.879   5.843  14.731  0.0376 -0.4623 -0.0473
 1625TIP3    H126366   4.904   5.884  14.813  0.4765  1.7381 -1.1914
 1625TIP3    H226367   4.787   5.818  14.743 -1.3405  3.7794 -0.2033
 1626TIP3   OH226368   3.419   4.486  12.688 -0.3088  0.3652 -0.3931
 1626TIP3    H126369   3.448   4.571  12.720 -2.1590  0.3730  1.4491
 1626TIP3    H226370   3.411   4.432  12.767 -0.7063 -1.0332 -1.3474
 1627TIP3   OH226371   5.420   2.769   2.767 -0.4161 -0.5794 -0.9013
 1627TIP3    H126372   5.400   2.749   2.858 -1.1159  0.1734 -0.8709
 1627TIP3    H226373   5.426   2.865   2.764  1.0683 -0.6706 -1.3665
 1628TIP3   OH226374   2.192   1.497  13.126  0.6663 -0.0616  0.1721
 1628TIP3    H126375   2.200   1.543  13.042  2.0064 -1.7965 -0.7046
 1628TIP3    H226376   2.104   1.519  13.156  1.3204  3.2850 -0.0060
 1629TIP3   OH226377   3.593   0.159  11.378 -0.3459 -0.1889 -0.7385
 1629TIP3    H126378   3.566   0.197  11.295  1.0983 -1.6035 -1.9190
 1629TIP3    H226379   3.686   0.140  11.367 -0.4602 -1.8140  0.6399
 1630TIP3   OH226380   6.622   3.811   2.907  0.5777  0.0895 -0.0106
 1630TIP3    H126381   6.657   3.887   2.862 -1.5217  2.0501  1.4214
 1630TIP3    H226382   6.563   3.770   2.844  2.8293 -1.3674 -1.3133
 1631TIP3   OH226383   2.858   3.014   0.259 -0.0849  0.3246 -0.0802
 1631TIP3    H126384   2.909   2.976   0.330  0.5300  0.0805 -0.6469
 1631TIP3    H226385   2.850   2.944   0.194 -2.5912 -0.2323  0.6931
 1632TIP3   OH226386   5.623   4.072  12.459 -0.3928  0.2102  0.1440
 1632TIP3    H126387   5.642   4.138  12.394  1.1282  1.9120  2.1792
 1632TIP3    H226388   5.581   4.120  12.531 -1.3303 -1.4378  0.7569
 1633TIP3   OH226389   1.938   3.276   5.324  0.6151 -0.3920 -0.4283
 1633TIP3    H126390   1.924   3.370   5.325  0.9251 -0.3373 -0.9011
 1633TIP3    H226391   1.866   3.240   5.376  1.5055  0.2098  1.2785
 1634TIP3   OH226392   5.840   0.166   0.494  0.3626  0.1706 -0.2258
 1634TIP3    H126393   5.768   0.211   0.451  0.2994 -0.6572 -1.0145
 1634TIP3    H226394   5.817   0.074   0.490  1.6595 -0.1580 -0.8937
 1635TIP3   OH226395   2.782   6.436  11.884 -0.3121 -0.0249  0.6360
 1635TIP3    H126396   2.732   6.355  11.892 -1.0622  0.4666  1.0285
 1635TIP3    H226397   2.864   6.409  11.844 -1.4169 -0.6594 -1.3319
 1636TIP3   OH226398   1.968   6.500   3.570  0.4345 -0.6269  0.1610
 1636TIP3    H126399   1.979   6.509   3.665  1.0646 -2.0590  0.2558
 1636TIP3    H226400   1.982   6.406   3.553 -1.6095 -0.7777 -1.1004
 1637TIP3   OH226401   3.785   3.305   2.198 -0.1108 -0.4849  0.2469
 1637TIP3    H126402   3.693   3.279   2.194  0.4031 -2.4312 -0.1101
 1637TIP3    H226403   3.817   3.266   2.279  0.4158  0.1108  0.3279
 1638TIP3   OH226404   3.361   3.744  17.016  0.1020  0.6085 -0.5714
 1638TIP3    H126405   3.317   3.815  17.062 -0.6466  0.5475 -1.1593
 1638TIP3    H226406   3.453   3.769  17.013 -0.2831  1.9980 -1.5429
 1639TIP3   OH226407   2.834   5.601   1.166 -0.0461  0.1567 -0.4436
 1639TIP3    H126408   2.814   5.558   1.083  1.8192 -0.7103 -0.4920
 1639TIP3    H226409   2.886   5.677   1.141 -0.8909  0.8594 -0.1431
 1640TIP3   OH226410   6.543   0.184  15.415  0.9201 -0.4801 -0.4779
 1640TIP3    H126411   6.465   0.180  15.471  1.2570  0.1715  0.0551
 1640TIP3    H226412   6.529   0.262  15.361  2.3188  1.1336  1.3654
 1641TIP3   OH226413   4.067   1.459  15.869  0.4453 -0.3131  0.8252
 1641TIP3    H126414   4.107   1.467  15.956  0.9788  1.6192  0.4594
 1641TIP3    H226415   4.123   1.512  15.812 -1.6085  1.0083 -0.0715
 1642TIP3   OH226416   1.998   3.697   2.526  0.0563  0.0431  0.1869
 1642TIP3    H126417   2.005   3.774   2.469 -0.7280  0.8682  1.1695
 1642TIP3    H226418   2.007   3.732   2.615 -0.1989 -1.0251  0.6505
 1643TIP3   OH226419   1.792   0.759   3.597 -0.2231 -0.4021  0.4980
 1643TIP3    H126420   1.844   0.831   3.560  0.2613  0.1684  2.2256
 1643TIP3    H226421   1.704   0.773   3.561  0.2813 -0.0745 -0.6802
 1644TIP3   OH226422   3.926   6.066  14.181  0.0272  0.6008  0.5585
 1644TIP3    H126423   3.881   6.093  14.261 -1.4896 -1.2101  0.3900
 1644TIP3    H226424   3.875   6.106  14.110 -1.9167 -2.0112  0.3338
 1645TIP3   OH226425   3.429   6.705   4.671  0.0469 -0.2099  0.0543
 1645TIP3    H126426   3.334   6.716   4.664  0.1309  0.4913 -0.0907
 1645TIP3    H226427   3.441   6.613   4.693 -0.7079 -0.1253  0.8804
 1646TIP3   OH226428   1.038   0.366  12.402 -0.3234  0.3428 -0.3510
 1646TIP3    H126429   1.085   0.429  12.456 -1.3961  3.6955 -2.9753
 1646TIP3    H226430   1.100   0.345  12.332 -0.4807 -0.4275 -0.2616
 1647TIP3   OH226431   6.536   0.725  15.817  0.0950 -0.1423  0.0352
 1647TIP3    H126432   6.541   0.818  15.792 -0.1885 -0.5722 -1.7347
 1647TIP3    H226433   6.461   0.691  15.768  0.2796 -1.3448  0.5518
 1648TIP3   OH226434   4.358   1.389   0.445  0.4010  0.1334 -0.3056
 1648TIP3    H126435   4.415   1.441   0.388  0.9846  0.9058  0.9321
 1648TIP3    H226436   4.272   1.431   0.437  0.8514  1.2979  0.6273
 1649TIP3   OH226437   4.763   3.681   0.858 -0.0335  0.4517  0.1136
 1649TIP3    H126438   4.705   3.606   0.849  1.1899 -0.2696 -2.9574
 1649TIP3    H226439   4.711   3.755   0.826 -0.2634  0.3766  0.3108
 1650TIP3   OH226440   1.412   0.984   3.573 -0.3223 -0.4460  0.1176
 1650TIP3    H126441   1.363   0.967   3.654 -2.5839  0.1512 -1.0604
 1650TIP3    H226442   1.455   1.068   3.589 -0.7690 -0.3155  0.6898
 1651TIP3   OH226443   0.561   3.740   4.341  0.0109 -0.1156  0.1748
 1651TIP3    H126444   0.606   3.784   4.269 -0.4149 -0.0939 -0.0842
 1651TIP3    H226445   0.483   3.794   4.357  0.7872  0.6386  1.5562
 1652TIP3   OH226446   1.817   4.469   3.255 -0.0534 -0.2069 -0.1461
 1652TIP3    H126447   1.731   4.427   3.255 -0.2566  0.1625 -1.2378
 1652TIP3    H226448   1.864   4.427   3.183 -0.4330  1.7076 -1.6014
 1653TIP3   OH226449   2.307   1.150   5.017 -0.0053  0.1586  0.2624
 1653TIP3    H126450   2.342   1.131   4.930  0.6430 -2.1669  0.9747
 1653TIP3    H226451   2.213   1.163   5.002  0.3194  1.2591 -0.9588
 1654TIP3   OH226452   5.648   4.273  16.994  0.7910 -0.2236 -0.6952
 1654TIP3    H126453   5.663   4.351  17.046 -1.2489 -0.4227  0.2969
 1654TIP3    H226454   5.698   4.204  17.039  0.5192 -0.0162 -0.0706
 1655TIP3   OH226455   0.726   6.517   0.369 -0.5204 -0.5343  0.6905
 1655TIP3    H126456   0.694   6.516   0.279  0.6278  1.9236  0.1952
 1655TIP3    H226457   0.793   6.585   0.371 -0.8353 -0.1677  3.5236
 1656TIP3   OH226458   6.733   5.240  16.923 -0.1275  0.0236 -0.0885
 1656TIP3    H126459   6.811   5.263  16.874 -0.9714  0.1228 -1.4413
 1656TIP3    H226460   6.717   5.316  16.979  0.2626  0.3642 -0.4308
 1657TIP3   OH226461   4.908   5.991   3.852  0.0286  0.5321  0.2906
 1657TIP3    H126462   4.981   5.981   3.912 -0.2516  1.2270  0.7544
 1657TIP3    H226463   4.862   6.070   3.881 -0.7124  0.3007 -0.1971
 1658TIP3   OH226464   0.269   3.776  11.868  0.0298  0.0276 -0.6318
 1658TIP3    H126465   0.239   3.778  11.959 -2.7506 -0.3540 -1.4523
 1658TIP3    H226466   0.253   3.864  11.836  1.2149  0.2234 -0.7423
 1659TIP3   OH226467   0.310   6.690  14.370 -0.7045  0.1649  0.0979
 1659TIP3    H126468   0.292   6.599  14.395  0.6758 -0.5954 -1.4216
 1659TIP3    H226469   0.228   6.722  14.334 -0.5384 -1.4853 -1.9785
 1660TIP3   OH226470   4.706   0.749   1.034  0.4001  0.0195 -0.4036
 1660TIP3    H126471   4.660   0.685   0.980 -1.2032  0.4843  0.3496
 1660TIP3    H226472   4.797   0.718   1.036 -0.5372 -3.0055  1.0542
 1661TIP3   OH226473   3.583   5.293  16.312  0.5466  0.0869 -0.3614
 1661TIP3    H126474   3.490   5.315  16.311  0.2071 -1.1865 -2.4146
 1661TIP3    H226475   3.589   5.213  16.365  0.5999  0.6121  0.4312
 1662TIP3   OH226476   2.152   3.269   4.998 -0.1881  0.2940 -0.1415
 1662TIP3    H126477   2.242   3.297   4.978 -0.4276  1.7425  0.6785
 1662TIP3    H226478   2.098   3.317   4.936 -0.4289 -0.4274 -0.5016
 1663TIP3   OH226479   0.240   5.354   4.014  0.0020 -0.3670  1.0031
 1663TIP3    H126480   0.213   5.344   4.106 -1.9952  0.5921  0.5860
 1663TIP3    H226481   0.227   5.268   3.976 -0.2999 -0.4885  1.3716
 1664TIP3   OH226482   1.598   0.859   5.627 -0.0752 -0.1134 -0.9272
 1664TIP3    H126483   1.597   0.949   5.659  0.4292  0.6182 -2.8149
 1664TIP3    H226484   1.552   0.808   5.694  0.4070  1.3917  0.5863
 1665TIP3   OH226485   2.666   0.865  11.231  0.4000  0.2088  0.5936
 1665TIP3    H126486   2.754   0.901  11.224  0.8824 -1.2167 -1.2250
 1665TIP3    H226487   2.679   0.771  11.246 -0.7876 -0.0728  0.0227
 1666TIP3   OH226488   5.898   3.287   6.525  0.1792  0.1608 -0.2064
 1666TIP3    H126489   5.868   3.224   6.459  2.3614 -0.4688 -0.6800
 1666TIP3    H226490   5.918   3.233   6.602 -1.6915  0.8109  0.8100
 1667TIP3   OH226491   1.988   2.848  16.979 -0.5488 -0.1459 -0.1306
 1667TIP3    H126492   2.047   2.913  17.017  1.2379 -1.7899  0.1166
 1667TIP3    H226493   1.942   2.810  17.053  1.5124 -1.9978  0.3235
 1668TIP3   OH226494   5.295   1.322   3.506  0.4860 -0.2032  0.1450
 1668TIP3    H126495   5.265   1.347   3.418  0.4968  0.4204  0.3095
 1668TIP3    H226496   5.388   1.343   3.506  0.5832 -0.6318  0.1574
 1669TIP3   OH226497   2.961   1.909   6.414  0.2095 -0.1408  0.2596
 1669TIP3    H126498   2.908   1.954   6.480 -1.1941  1.4384 -1.8066
 1669TIP3    H226499   3.025   1.974   6.385  1.5359 -1.1640  0.7842
 1670TIP3   OH226500   4.321   6.641  16.249  0.2346 -0.2535  0.3471
 1670TIP3    H126501   4.228   6.635  16.268  0.2612 -0.1935  0.5070
 1670TIP3    H226502   4.364   6.627  16.334  0.3579  0.0571  0.3397
 1671TIP3   OH226503   3.729   5.031  14.631  0.3682  0.3617 -0.0046
 1671TIP3    H126504   3.766   5.086  14.700  3.2152  0.6717 -1.6237
 1671TIP3    H226505   3.635   5.049  14.634  0.6321  1.7823  2.5065
 1672TIP3   OH226506   2.152   0.998  12.320 -0.5578 -0.2900 -0.1768
 1672TIP3    H126507   2.151   0.909  12.355  1.7517  0.2843  1.5301
 1672TIP3    H226508   2.235   1.004  12.272  0.6606  1.6874  1.9900
 1673TIP3   OH226509   5.957   3.678  14.643 -0.0748  0.2789 -0.2108
 1673TIP3    H126510   5.976   3.603  14.700  1.7822  2.8579  2.9318
 1673TIP3    H226511   5.887   3.725  14.689  1.7406  2.6467  0.3471
 1674TIP3   OH226512   3.334   5.973   0.374  0.1844 -0.3374 -0.3125
 1674TIP3    H126513   3.265   6.001   0.315  0.5734  1.6030  0.0707
 1674TIP3    H226514   3.341   6.044   0.438  1.8939 -0.9196  0.2044
 1675TIP3   OH226515   1.487   2.428  13.443 -0.1075  0.6961  0.2535
 1675TIP3    H126516   1.535   2.421  13.525  0.8793  0.8010 -0.3037
 1675TIP3    H226517   1.488   2.522  13.422 -0.2983  0.6623  0.0903
 1676TIP3   OH226518   5.289   0.155  16.456  0.0351 -0.0428  0.3950
 1676TIP3    H126519   5.340   0.081  16.488  1.4918  0.0113 -1.6243
 1676TIP3    H226520   5.310   0.227  16.515  1.5952 -0.2768  0.1650
 1677TIP3   OH226521   6.302   1.101  15.860 -0.4951  0.1507 -0.1252
 1677TIP3    H126522   6.309   1.177  15.804 -0.6635 -1.7484 -2.9065
 1677TIP3    H226523   6.209   1.079  15.860 -0.3569 -0.4763  0.0043
 1678TIP3   OH226524   5.837   3.171  13.922  0.1806 -0.3095 -0.0986
 1678TIP3    H126525   5.764   3.226  13.896  0.4149  0.2884  0.4913
 1678TIP3    H226526   5.798   3.101  13.974  0.2459  1.4851  2.5880
 1679TIP3   OH226527   2.164   0.819   1.021  0.4683 -0.6822 -0.2038
 1679TIP3    H126528   2.099   0.830   1.091 -0.4293 -0.6652 -1.0182
 1679TIP3    H226529   2.176   0.724   1.014  0.8251 -0.6693  0.2052
 1680TIP3   OH226530   1.797   3.429   6.143  0.2453 -0.0079  0.3583
 1680TIP3    H126531   1.844   3.511   6.157  0.1335 -0.3375  3.3799
 1680TIP3    H226532   1.764   3.404   6.230 -3.2580 -1.1797 -1.0810
 1681TIP3   OH226533   6.447   6.160  17.291 -0.1983  0.6413  0.1455
 1681TIP3    H126534   6.480   6.124  17.374  1.8785 -1.0679 -1.3092
 1681TIP3    H226535   6.507   6.231  17.269 -0.2592  0.5656 -0.2789
 1682TIP3   OH226536   2.765   5.062   3.335  0.7788 -0.0269  0.2216
 1682TIP3    H126537   2.745   4.974   3.303 -1.5040  1.5396 -3.2926
 1682TIP3    H226538   2.696   5.081   3.398 -1.8395  0.8607 -2.6855
 1683TIP3   OH226539   4.036   3.311  11.686  0.2605 -0.0481  0.3412
 1683TIP3    H126540   4.048   3.331  11.593 -0.2049 -0.3101  0.2222
 1683TIP3    H226541   4.125   3.308  11.721  0.3615  2.6372  0.4659
 1684TIP3   OH226542   4.115   0.286  16.605 -0.2826  0.0432  0.4374
 1684TIP3    H126543   4.077   0.331  16.680 -0.8969 -0.7561  0.6196
 1684TIP3    H226544   4.195   0.247  16.640 -1.2604 -1.4991  1.0793
 1685TIP3   OH226545   5.109   1.540  11.534 -0.1006  0.1749  0.3993
 1685TIP3    H126546   5.045   1.610  11.538 -0.6896 -0.4173  2.6065
 1685TIP3    H226547   5.143   1.533  11.623 -0.6075 -2.8049  0.4630
 1686TIP3   OH226548   4.278   6.024   5.574  0.1412  0.3906 -0.3640
 1686TIP3    H126549   4.234   6.045   5.657 -0.5479  1.0863 -0.8937
 1686TIP3    H226550   4.360   6.074   5.578 -0.0858  0.7612 -0.2891
 1687TIP3   OH226551   6.264   1.424  13.242  0.0719 -0.1469 -0.0647
 1687TIP3    H126552   6.272   1.467  13.327  1.9340  0.0838 -0.3264
 1687TIP3    H226553   6.192   1.362  13.253  0.6933 -0.5696  1.8628
 1688TIP3   OH226554   4.172   4.222  17.249  0.1698 -0.1332 -0.3693
 1688TIP3    H126555   4.210   4.299  17.292 -0.4123 -0.8696  1.5657
 1688TIP3    H226556   4.079   4.226  17.270 -0.0428 -0.8641 -1.0920
 1689TIP3   OH226557   2.417   3.244   5.194  0.3351  0.1402 -0.6296
 1689TIP3    H126558   2.389   3.218   5.107  0.7074 -0.7226 -0.5041
 1689TIP3    H226559   2.426   3.161   5.242 -0.8984  0.6482  0.5508
 1690TIP3   OH226560   4.721   5.762  13.639  0.1037  0.4807 -0.3753
 1690TIP3    H126561   4.735   5.842  13.689  0.9534 -0.1251  0.4096
 1690TIP3    H226562   4.707   5.694  13.706  0.3181 -0.1808 -0.9843
 1691TIP3   OH226563   5.042   3.143  11.571 -0.1033 -0.0055  0.0288
 1691TIP3    H126564   5.006   3.183  11.650  1.9839  2.0828  0.0427
 1691TIP3    H226565   5.058   3.051  11.596 -2.3941 -0.2255  0.9376
 1692TIP3   OH226566   2.443   3.863  10.652  0.0315 -0.3792 -0.1657
 1692TIP3    H126567   2.523   3.868  10.599  0.1890 -2.0412 -0.1507
 1692TIP3    H226568   2.431   3.769  10.668 -2.1476 -0.2036 -0.4778
 1693TIP3   OH226569   5.032   4.900   2.499  0.2644  0.6261  0.2608
 1693TIP3    H126570   5.021   4.900   2.404  1.3868  0.7555  0.1143
 1693TIP3    H226571   5.090   4.826   2.517 -0.8150 -0.0727  0.9703
 1694TIP3   OH226572   0.960   3.639  15.599 -0.8145 -0.1747  0.2988
 1694TIP3    H126573   1.009   3.718  15.574  0.0845 -0.6891  0.3964
 1694TIP3    H226574   1.011   3.601  15.671 -0.6017 -1.4435 -0.4884
 1695TIP3   OH226575   3.873   3.393  11.888 -0.2605  0.8328 -0.2785
 1695TIP3    H126576   3.927   3.379  11.810 -1.3719  2.9583 -1.5192
 1695TIP3    H226577   3.889   3.316  11.941  0.2108 -0.9524 -2.7980
 1696TIP3   OH226578   6.376   2.277  11.301  0.6131  0.0304  0.1222
 1696TIP3    H126579   6.335   2.206  11.252  1.6376 -0.3019 -0.2767
 1696TIP3    H226580   6.381   2.349  11.238  0.2153  0.2343  0.3175
 1697TIP3   OH226581   5.975   4.435  13.170  0.1534 -0.1222 -0.0427
 1697TIP3    H126582   6.042   4.455  13.235  0.6595  0.2834 -0.6730
 1697TIP3    H226583   5.959   4.518  13.125 -1.0290 -0.1344  0.3217
 1698TIP3   OH226584   4.925   5.882   3.047  0.2255  0.1160 -0.2055
 1698TIP3    H126585   4.955   5.798   3.082  2.3862  0.4708 -1.0391
 1698TIP3    H226586   4.951   5.946   3.113 -1.3998  0.1553  0.4182
 1699TIP3   OH226587   6.100   4.479  11.153 -0.2745 -0.5395 -0.4205
 1699TIP3    H126588   6.135   4.433  11.076  0.7441 -0.2774 -0.1357
 1699TIP3    H226589   6.075   4.409  11.213 -1.8110 -0.7698 -1.2668
 1700TIP3   OH226590   2.733   0.707   6.151  0.3969  0.0644  0.2931
 1700TIP3    H126591   2.816   0.743   6.120 -0.2478  1.7894  0.4553
 1700TIP3    H226592   2.730   0.731   6.244  1.2458 -3.0178  1.2479
 1701TIP3   OH226593   0.571   4.447   0.659 -1.1065 -0.1888 -0.7070
 1701TIP3    H126594   0.637   4.381   0.682 -0.0514  1.4721  1.4666
 1701TIP3    H226595   0.581   4.460   0.565  2.9595  1.2030 -0.2717
 1702TIP3   OH226596   0.753   0.559  16.287  0.3955 -0.2199  0.3400
 1702TIP3    H126597   0.761   0.464  16.291  1.9254 -0.0876  0.7301
 1702TIP3    H226598   0.773   0.589  16.376  0.9864  0.5308 -0.0316
 1703TIP3   OH226599   0.142   1.286  13.968 -0.5637  0.0277 -0.0019
 1703TIP3    H126600   0.066   1.313  13.917  1.2663  1.6357 -2.0593
 1703TIP3    H226601   0.132   1.331  14.052 -1.7828  0.3344 -0.2897
 1704TIP3   OH226602   6.477   1.980  13.387  0.0958  0.1774 -0.1584
 1704TIP3    H126603   6.570   1.956  13.390  0.6317  1.9840 -0.8520
 1704TIP3    H226604   6.451   1.964  13.297 -0.4159 -0.7014  0.1252
 1705TIP3   OH226605   1.563   3.384   0.845 -0.6034  0.5571 -0.4279
 1705TIP3    H126606   1.504   3.400   0.919 -0.3075  1.6960 -0.4222
 1705TIP3    H226607   1.505   3.353   0.775 -0.6877 -2.2326  0.7371
 1706TIP3   OH226608   0.669   3.511  15.690 -0.2946  0.5003  0.2260
 1706TIP3    H126609   0.703   3.451  15.623 -0.8496  0.1921  0.2131
 1706TIP3    H226610   0.576   3.488  15.698 -0.1920  0.3800  1.2558
 1707TIP3   OH226611   1.803   6.056   4.608  0.1577 -0.2248  0.0318
 1707TIP3    H126612   1.725   6.111   4.611 -0.6486 -1.3453  0.6036
 1707TIP3    H226613   1.771   5.968   4.631  1.4448 -0.8729 -0.5516
 1708TIP3   OH226614   0.095   4.197   5.743  0.4718 -0.5521 -0.0851
 1708TIP3    H126615   0.121   4.230   5.829  0.1995 -0.9788  0.1649
 1708TIP3    H226616   0.022   4.138   5.761 -0.5586  0.4851 -0.7507
 1709TIP3   OH226617   1.635   3.743   4.554  0.4793  0.1608  0.0794
 1709TIP3    H126618   1.677   3.679   4.497  0.5746  1.8522 -1.8990
 1709TIP3    H226619   1.556   3.769   4.507  0.4988  1.5408  0.7460
 1710TIP3   OH226620   4.639   0.221  11.019 -0.2713 -0.0140 -0.3781
 1710TIP3    H126621   4.676   0.216  11.107  0.4319  3.0686 -0.3707
 1710TIP3    H226622   4.711   0.194  10.961 -0.1413 -0.2895 -0.0887
 1711TIP3   OH226623   5.223   6.638   1.550 -0.0096 -0.3741 -0.4930
 1711TIP3    H126624   5.305   6.612   1.506 -0.1510 -1.3240 -0.2018
 1711TIP3    H226625   5.200   6.721   1.508  1.2659  0.0801 -0.3675
 1712TIP3   OH226626   6.598   2.788   4.529 -0.3015  0.2304  0.2838
 1712TIP3    H126627   6.510   2.754   4.510 -0.8046  1.6586 -0.0159
 1712TIP3    H226628   6.610   2.859   4.467  1.0120  0.1689  0.4469
 1713TIP3   OH226629   6.502   6.742  16.168  0.7680  0.2930 -0.1998
 1713TIP3    H126630   6.579   6.722  16.116  0.7385 -0.9048  0.1883
 1713TIP3    H226631   6.536   6.758  16.256  0.5022 -1.4418  0.2568
 1714TIP3   OH226632   6.447   3.709   2.188  0.5803  0.0046  0.1088
 1714TIP3    H126633   6.503   3.697   2.265 -0.8454 -2.1936  0.8948
 1714TIP3    H226634   6.366   3.745   2.222  0.8344  1.5294 -0.7916
 1715TIP3   OH226635   2.755   1.982  16.480  0.1226 -0.8255 -0.0755
 1715TIP3    H126636   2.676   2.023  16.516  0.3734  0.5887 -1.0357
 1715TIP3    H226637   2.722   1.924  16.412 -0.0725  0.4587 -1.1114
 1716TIP3   OH226638   1.124   4.326   2.259  0.6752  0.6139 -0.4576
 1716TIP3    H126639   1.212   4.292   2.274  0.2897  0.1337  0.8089
 1716TIP3    H226640   1.098   4.289   2.174  0.3203 -2.2258  0.7836
 1717TIP3   OH226641   3.353   2.670  12.694 -0.0124  0.1464  0.1014
 1717TIP3    H126642   3.386   2.739  12.636 -1.0647  0.5896  0.0105
 1717TIP3    H226643   3.410   2.595  12.677  0.3559  0.6000 -0.7267
 1718TIP3   OH226644   4.654   5.342   4.684  0.5618  0.3149  0.2065
 1718TIP3    H126645   4.698   5.414   4.729  0.2861  2.4406 -2.6230
 1718TIP3    H226646   4.561   5.361   4.694  0.4681 -0.0258 -0.0081
 1719TIP3   OH226647   0.278   0.718   4.827 -0.3219  0.2033 -0.9630
 1719TIP3    H126648   0.226   0.798   4.836 -1.4745 -0.6272  0.0593
 1719TIP3    H226649   0.269   0.693   4.735 -0.6565  0.7838 -1.0917
 1720TIP3   OH226650   2.258   6.448  16.802 -0.2063  0.0401  0.3346
 1720TIP3    H126651   2.277   6.385  16.872 -3.4854 -0.8166  0.5886
 1720TIP3    H226652   2.271   6.533  16.842  2.2667 -0.3800  0.5970
 1721TIP3   OH226653   4.750   4.029   6.181  0.0460 -0.5441 -0.4932
 1721TIP3    H126654   4.699   4.038   6.262 -0.1582 -0.0145 -0.6766
 1721TIP3    H226655   4.828   3.980   6.207 -1.0544 -2.3488 -0.4198
 1722TIP3   OH226656   3.287   3.020   2.129 -0.1196 -0.1753  0.0452
 1722TIP3    H126657   3.258   3.111   2.143  1.3531  0.0026  2.4798
 1722TIP3    H226658   3.244   2.971   2.199  1.4269 -0.7748  0.6169
 1723TIP3   OH226659   2.490   4.498  15.854  0.0285  0.2402  0.3647
 1723TIP3    H126660   2.459   4.581  15.816 -0.5987 -0.9632 -1.9215
 1723TIP3    H226661   2.425   4.476  15.920  0.0156  1.3657  0.7529
 1724TIP3   OH226662   6.415   5.003  17.249 -0.2147  0.0538  0.2884
 1724TIP3    H126663   6.338   5.048  17.214 -0.8259  0.3340  1.9039
 1724TIP3    H226664   6.380   4.945  17.317  0.8736 -0.8373  0.1220
 1725TIP3   OH226665   0.330   3.931   2.740  0.1347 -0.1553 -0.1058
 1725TIP3    H126666   0.402   3.994   2.735  0.8349 -0.7632  1.5793
 1725TIP3    H226667   0.349   3.867   2.671  0.3893  0.5117 -0.6568
 1726TIP3   OH226668   5.813   5.569  14.613  0.3357 -0.1294 -0.1681
 1726TIP3    H126669   5.858   5.652  14.631 -0.7640  0.4584 -0.0550
 1726TIP3    H226670   5.800   5.568  14.519  2.4820 -1.3268 -0.5250
 1727TIP3   OH226671   1.995   1.603   2.897 -0.0907 -0.1505  0.6585
 1727TIP3    H126672   1.947   1.570   2.822 -1.9534  0.6009  1.4544
 1727TIP3    H226673   1.994   1.532   2.960  1.8305 -0.9335 -0.1056
 1728TIP3   OH226674   1.626   2.129  15.107  0.2428  0.4272 -0.2088
 1728TIP3    H126675   1.618   2.044  15.149  2.1395 -0.2709 -1.1368
 1728TIP3    H226676   1.621   2.192  15.179  0.6663 -0.5733  0.7225
 1729TIP3   OH226677   4.395   5.275   0.568 -0.6151  0.0494  0.0404
 1729TIP3    H126678   4.387   5.358   0.614  0.6203 -0.2577  0.8676
 1729TIP3    H226679   4.372   5.209   0.633 -0.6052 -0.3047 -0.3094
 1730TIP3   OH226680   2.343   6.232   4.147  0.5031  0.6814 -0.1882
 1730TIP3    H126681   2.302   6.210   4.231 -1.0958 -1.5748 -1.4248
 1730TIP3    H226682   2.401   6.158   4.129  1.9049  1.8105 -0.4708
 1731TIP3   OH226683   1.074   6.471   3.955 -0.1095  0.2299  0.1969
 1731TIP3    H126684   1.079   6.397   4.016 -0.5692 -0.4726 -0.5840
 1731TIP3    H226685   1.164   6.500   3.944  0.2963 -1.2870 -0.7473
 1732TIP3   OH226686   5.913   0.775   2.481  0.1319  0.1534  0.3253
 1732TIP3    H126687   5.930   0.865   2.453  0.0336  0.1798  0.3496
 1732TIP3    H226688   5.847   0.743   2.419 -0.0459  0.1938  0.4940
 1733TIP3   OH226689   0.263   2.650   0.182  0.0057  0.2439 -0.3317
 1733TIP3    H126690   0.221   2.695   0.109  0.3288  0.6944 -0.2465
 1733TIP3    H226691   0.355   2.642   0.154  0.0425  0.0477 -0.1511
 1734TIP3   OH226692   5.638   0.942   2.485  0.1415  0.0842 -0.2281
 1734TIP3    H126693   5.641   0.852   2.517 -5.2019  0.0092  1.0037
 1734TIP3    H226694   5.645   0.995   2.564  0.4213  0.6009 -0.5988
 1735TIP3   OH226695   5.459   3.641  15.363  0.2705 -0.3390  0.3721
 1735TIP3    H126696   5.495   3.553  15.379 -1.4345 -1.1538  0.0154
 1735TIP3    H226697   5.426   3.637  15.273 -2.3422 -0.3307  1.2236
 1736TIP3   OH226698   0.338   1.071  15.435  0.4173  0.1690  0.2310
 1736TIP3    H126699   0.340   1.015  15.512  1.7857 -0.8009 -0.4840
 1736TIP3    H226700   0.245   1.089  15.422  0.1423  0.2849  2.0331
 1737TIP3   OH226701   3.415   1.820   0.984 -0.3968 -0.3732 -0.4411
 1737TIP3    H126702   3.348   1.866   1.034 -1.8282 -0.5226 -2.1334
 1737TIP3    H226703   3.449   1.885   0.923  3.9519  0.9317  2.8270
 1738TIP3   OH226704   6.531   0.796  14.621  0.4046  0.1572 -0.1696
 1738TIP3    H126705   6.505   0.768  14.533  0.2656 -0.8472  0.1828
 1738TIP3    H226706   6.552   0.889  14.610 -1.8557  0.6722 -0.7875
 1739TIP3   OH226707   1.416   4.933   6.150 -0.3111 -0.1750 -0.0220
 1739TIP3    H126708   1.361   4.910   6.075  2.0626 -0.1912 -1.8848
 1739TIP3    H226709   1.407   5.028   6.159 -1.1515 -0.2680  0.1274
 1740TIP3   OH226710   3.140   3.768   1.303  0.2161  0.3152  0.3237
 1740TIP3    H126711   3.098   3.682   1.311  2.4898 -1.1329 -1.9771
 1740TIP3    H226712   3.069   3.827   1.279 -1.0295 -1.4244 -0.4763
 1741TIP3   OH226713   5.215   3.738  14.243  0.7348 -0.4079  0.4882
 1741TIP3    H126714   5.159   3.789  14.303  0.7762  2.4388 -1.6846
 1741TIP3    H226715   5.265   3.680  14.301 -0.8610  0.5145  2.9749
 1742TIP3   OH226716   2.020   1.043   3.211  0.0714  0.0876 -0.1956
 1742TIP3    H126717   2.088   1.078   3.152  1.5352 -2.1704  0.0337
 1742TIP3    H226718   2.061   0.967   3.252 -1.7949  0.0993  1.8536
 1743TIP3   OH226719   5.191   3.809  14.000  0.0061 -0.3511 -0.0181
 1743TIP3    H126720   5.219   3.768  14.082  2.4808 -0.5570 -0.8611
 1743TIP3    H226721   5.187   3.737  13.937 -0.2113  0.0306 -0.4442
 1744TIP3   OH226722   5.110   2.674  13.573 -0.1925  0.0638  0.4281
 1744TIP3    H126723   5.191   2.706  13.534  0.5510  1.2177  2.7010
 1744TIP3    H226724   5.041   2.726  13.531  0.3154 -0.2777 -0.8706
 1745TIP3   OH226725   1.474   3.311  16.841 -0.2212 -0.5881 -0.0246
 1745TIP3    H126726   1.439   3.257  16.912  0.5918  1.6914  2.2493
 1745TIP3    H226727   1.562   3.277  16.826  0.2583  0.0009  1.3351
 1746TIP3   OH226728   3.755   2.775   4.434  0.0783  0.0362 -0.1832
 1746TIP3    H126729   3.712   2.708   4.487  0.1942 -0.2341 -0.4314
 1746TIP3    H226730   3.723   2.858   4.470 -0.6846 -0.1568 -0.3945
 1747TIP3   OH226731   5.278   6.186   1.087  0.4449 -0.1283 -0.3125
 1747TIP3    H126732   5.321   6.114   1.040 -0.1740 -0.1953 -0.7994
 1747TIP3    H226733   5.347   6.251   1.099  0.7543 -0.3554 -0.8084
 1748TIP3   OH226734   2.678   5.022  16.089  0.1456  0.0363 -0.5760
 1748TIP3    H126735   2.671   5.085  16.018  1.4857 -1.1183 -1.7883
 1748TIP3    H226736   2.646   4.939  16.051 -1.1244 -0.1711  0.8289
 1749TIP3   OH226737   5.258   2.450   2.643  0.2973 -0.1065  0.6272
 1749TIP3    H126738   5.341   2.433   2.599  1.2445 -0.5133  2.4582
 1749TIP3    H226739   5.256   2.546   2.653  0.4220 -0.0731  0.3356
 1750TIP3   OH226740   1.784   2.241   3.448  0.7775  0.2585 -0.3563
 1750TIP3    H126741   1.821   2.166   3.403 -0.0065 -0.3956  0.0637
 1750TIP3    H226742   1.749   2.206   3.530  0.6736  1.1323 -0.0123
 1751TIP3   OH226743   0.166   0.156   5.580  0.1579 -0.4743  0.4374
 1751TIP3    H126744   0.128   0.240   5.556 -1.0099 -1.0698  0.1419
 1751TIP3    H226745   0.224   0.176   5.653  3.0876  1.2866 -2.0849
 1752TIP3   OH226746   5.148   1.440  12.270 -0.2276  0.4242  0.4530
 1752TIP3    H126747   5.085   1.380  12.229 -0.0107 -1.8481  3.1478
 1752TIP3    H226748   5.095   1.497  12.326 -0.3068  2.0719 -1.2040
 1753TIP3   OH226749   1.048   2.611  13.284 -0.5161 -0.5537 -0.0155
 1753TIP3    H126750   1.055   2.701  13.251 -1.3926 -0.7033 -0.6325
 1753TIP3    H226751   1.122   2.602  13.345  0.2448  0.2127 -0.8055
 1754TIP3   OH226752   0.580   3.359   3.776 -0.7312 -0.7749 -0.3238
 1754TIP3    H126753   0.612   3.353   3.866 -3.1352 -0.1446  0.6456
 1754TIP3    H226754   0.653   3.397   3.728 -0.1003  0.9513  1.8212
 1755TIP3   OH226755   3.949   6.211  12.786 -0.8435  0.4126  0.2746
 1755TIP3    H126756   3.898   6.292  12.793 -0.5782  0.5995  0.0529
 1755TIP3    H226757   3.990   6.216  12.700  0.4419  0.7779  0.8902
 1756TIP3   OH226758   5.406   2.951  13.701  0.6847  0.0676  0.3645
 1756TIP3    H126759   5.486   2.972  13.653  1.7745 -1.4218  1.4248
 1756TIP3    H226760   5.348   2.913  13.636  0.4576  1.9181 -0.6015
 1757TIP3   OH226761   5.131   3.761  11.955  0.1468  0.0554  0.4374
 1757TIP3    H126762   5.113   3.838  12.010  0.4597  0.0498  0.5519
 1757TIP3    H226763   5.206   3.720  11.997  0.3969  0.0565 -0.0054
 1758TIP3   OH226764   1.885   4.947  14.455  0.2322 -0.1183 -0.6391
 1758TIP3    H126765   1.854   4.896  14.530  0.9274 -0.4326 -0.5657
 1758TIP3    H226766   1.858   5.037  14.475 -1.7046 -0.5441 -1.1369
 1759TIP3   OH226767   6.613   6.430  16.254  0.3318 -0.4346  0.0487
 1759TIP3    H126768   6.585   6.342  16.228  0.8247 -1.7101  3.2825
 1759TIP3    H226769   6.656   6.416  16.338 -0.3095  3.0491  1.0901
 1760TIP3   OH226770   5.198   5.093  14.296 -0.6691 -0.4210 -0.2158
 1760TIP3    H126771   5.237   5.018  14.340  2.5818 -0.0001 -2.0134
 1760TIP3    H226772   5.197   5.162  14.363  0.1820 -0.9449  0.3641
 1761TIP3   OH226773   5.756   1.598   4.450 -0.2829  0.3790  0.2493
 1761TIP3    H126774   5.807   1.548   4.387 -2.1719 -2.0093  0.4662
 1761TIP3    H226775   5.784   1.563   4.535 -0.8978  0.4029  0.4631
 1762TIP3   OH226776   4.745   4.738   2.332 -0.4753 -0.4917  0.1571
 1762TIP3    H126777   4.699   4.792   2.397 -1.0409 -1.1338  0.2984
 1762TIP3    H226778   4.823   4.789   2.310 -1.2054  0.5874 -0.0231
 1763TIP3   OH226779   2.979   5.697   4.233  0.2783  0.2240  0.1687
 1763TIP3    H126780   2.944   5.760   4.170  1.3159  1.0903  0.4139
 1763TIP3    H226781   2.903   5.661   4.277 -0.3279  1.8835  0.5513
 1764TIP3   OH226782   5.868   1.687   1.621 -0.4537 -0.2357 -0.0833
 1764TIP3    H126783   5.925   1.687   1.698 -0.8850  0.5975  0.2470
 1764TIP3    H226784   5.780   1.701   1.656 -0.5240  1.2988 -0.8115
 1765TIP3   OH226785   4.541   2.389  16.811 -0.0271  0.3658 -0.2692
 1765TIP3    H126786   4.505   2.444  16.742 -0.1448  0.9531  0.2526
 1765TIP3    H226787   4.587   2.449  16.869 -1.6145  0.2071  1.2659
 1766TIP3   OH226788   2.092   5.712  14.967  0.3180  0.4063 -0.2810
 1766TIP3    H126789   2.015   5.749  14.924 -1.2913 -4.2846 -2.0684
 1766TIP3    H226790   2.062   5.687  15.054  0.1384 -0.3882 -0.5659
 1767TIP3   OH226791   0.586   3.939   2.993  0.8044  0.0803 -0.1705
 1767TIP3    H126792   0.529   4.001   3.039  0.2771  0.7744 -1.6949
 1767TIP3    H226793   0.532   3.862   2.978  0.4054  0.5189 -1.1066
 1768TIP3   OH226794   5.135   0.790   2.241 -0.1906 -1.1914  0.1913
 1768TIP3    H126795   5.093   0.721   2.293 -2.1289 -0.3351 -0.1390
 1768TIP3    H226796   5.091   0.871   2.269 -1.3344 -0.6910 -2.7467
 1769TIP3   OH226797   3.530   3.425   1.974  0.2972  0.0827  0.7440
 1769TIP3    H126798   3.624   3.442   1.961 -0.0036  1.5987  0.2734
 1769TIP3    H226799   3.511   3.350   1.919  1.2379 -0.2513  0.8589
 1770TIP3   OH226800   2.572   4.686  16.268  0.5432 -0.4538 -0.0036
 1770TIP3    H126801   2.649   4.734  16.299 -0.5597  1.4591 -0.0226
 1770TIP3    H226802   2.560   4.717  16.178  0.8018 -2.1624 -0.6687
 1771TIP3   OH226803   4.206   0.390  15.681  0.6873  0.5017  0.1242
 1771TIP3    H126804   4.179   0.299  15.668  0.5332  0.5825 -0.1160
 1771TIP3    H226805   4.296   0.392  15.649  0.9697  0.2444  0.8841
 1772TIP3   OH226806   4.033   2.112   4.903  0.1392 -0.2187 -0.0514
 1772TIP3    H126807   4.022   2.176   4.833 -1.1454 -0.3272  0.0286
 1772TIP3    H226808   4.070   2.162   4.976 -0.6871  0.3982 -0.0472
 1773TIP3   OH226809   0.951   0.619   2.032  0.8441  0.0807  0.2220
 1773TIP3    H126810   1.032   0.655   2.069  0.2604  0.8531  0.7958
 1773TIP3    H226811   0.948   0.654   1.943  1.1097  0.1187  0.2285
 1774TIP3   OH226812   3.528   3.956   2.593 -0.1622  0.0138 -0.6178
 1774TIP3    H126813   3.570   3.985   2.674 -0.6539 -0.0021 -0.3549
 1774TIP3    H226814   3.589   3.893   2.555 -0.4899 -0.9266  0.3702
 1775TIP3   OH226815   1.267   4.920  16.166 -0.5683 -0.4908 -0.1201
 1775TIP3    H126816   1.204   4.850  16.147 -0.7164 -0.6231  0.8446
 1775TIP3    H226817   1.351   4.885  16.136 -0.1180 -2.2804  2.8774
 1776TIP3   OH226818   3.086   1.115   6.027 -0.1233  0.1097 -0.3093
 1776TIP3    H126819   3.168   1.117   6.078 -0.1901  0.9567 -0.2169
 1776TIP3    H226820   3.030   1.055   6.075  0.4087 -0.4034 -0.3165
 1777TIP3   OH226821   5.578   6.125   5.503 -0.1229  0.0146 -0.5897
 1777TIP3    H126822   5.623   6.071   5.439  2.2744 -1.4188  2.0644
 1777TIP3    H226823   5.529   6.062   5.557 -1.0056  1.0200 -0.1609
 1778TIP3   OH226824   2.539   1.020  13.749 -0.1382  0.3138  0.1286
 1778TIP3    H126825   2.633   1.037  13.744 -0.3498  1.5994  0.2367
 1778TIP3    H226826   2.532   0.924  13.751  1.1540  0.2010  0.0193
 1779TIP3   OH226827   3.545   3.080   5.753  0.0354 -0.2843  0.5440
 1779TIP3    H126828   3.593   3.118   5.679 -2.4278  0.3758 -0.8515
 1779TIP3    H226829   3.576   2.990   5.758  1.1702  0.0212 -0.4738
 1780TIP3   OH226830   4.518   1.475   4.412 -0.8070  0.7107  0.3148
 1780TIP3    H126831   4.585   1.432   4.465 -1.6039  0.8109  1.4220
 1780TIP3    H226832   4.568   1.519   4.343  0.1840 -0.1082  0.4804
 1781TIP3   OH226833   0.153   3.507  14.151  0.1825 -0.7282  0.1816
 1781TIP3    H126834   0.072   3.540  14.111 -0.0500 -1.2768  0.1854
 1781TIP3    H226835   0.207   3.481  14.077 -0.7667 -2.9682  0.1980
 1782TIP3   OH226836   6.692   0.717   3.232 -0.6979 -0.1608  0.2720
 1782TIP3    H126837   6.655   0.791   3.184  0.0107  0.0252  0.0002
 1782TIP3    H226838   6.724   0.657   3.164  1.0073  0.4541  0.4759
 1783TIP3   OH226839   6.254   1.367   0.701  0.2852  0.4633  0.0087
 1783TIP3    H126840   6.200   1.375   0.622  0.4047  0.4138 -0.0787
 1783TIP3    H226841   6.294   1.454   0.712  0.0569  0.5481  0.1685
 1784TIP3   OH226842   2.061   4.232   3.710  0.3085 -0.2394 -0.3716
 1784TIP3    H126843   1.995   4.211   3.643 -0.0015  2.2449 -0.9231
 1784TIP3    H226844   2.011   4.278   3.778  1.0983 -0.3807  0.3141
 1785TIP3   OH226845   0.501   3.864  11.720 -0.1532  0.3415  0.6671
 1785TIP3    H126846   0.424   3.863  11.778  0.2198 -0.7238  1.1768
 1785TIP3    H226847   0.551   3.787  11.747  0.6027  0.4778 -0.3255
 1786TIP3   OH226848   5.110   3.661   4.665 -0.2159  0.0316 -0.0430
 1786TIP3    H126849   5.193   3.614   4.658 -0.8715 -0.9834 -1.7497
 1786TIP3    H226850   5.117   3.711   4.746  1.1496 -1.7983  1.0498
 1787TIP3   OH226851   2.412   6.299  12.247 -0.6977 -0.5636 -0.8379
 1787TIP3    H126852   2.340   6.362  12.256 -0.0427  0.2233 -0.9706
 1787TIP3    H226853   2.453   6.298  12.334  0.4357  0.6295 -1.3272
 1788TIP3   OH226854   5.438   2.473  16.967 -0.0020  0.0516 -0.1728
 1788TIP3    H126855   5.423   2.439  17.055  1.8284 -0.4789 -0.0278
 1788TIP3    H226856   5.479   2.558  16.980 -0.5138  0.3651 -0.5410
 1789TIP3   OH226857   0.072   5.217  12.434 -0.6237  0.4771  0.1231
 1789TIP3    H126858   0.167   5.228  12.447 -0.7230  0.1393  1.3054
 1789TIP3    H226859   0.059   5.226  12.340  0.8089 -1.0780 -0.2719
 1790TIP3   OH226860   2.726   5.685   5.748 -0.1083 -0.0800  0.1736
 1790TIP3    H126861   2.647   5.630   5.751 -0.7644  0.8636  0.9031
 1790TIP3    H226862   2.782   5.651   5.818  0.1237 -0.7344 -0.3262
 1791TIP3   OH226863   0.553   6.500  15.137 -0.1608 -0.1382  0.2869
 1791TIP3    H126864   0.559   6.460  15.050 -0.0953 -0.2343  0.3352
 1791TIP3    H226865   0.572   6.429  15.197  1.9635  0.3707  0.3086
 1792TIP3   OH226866   3.816   5.001  16.263 -0.5304 -0.2500  0.3781
 1792TIP3    H126867   3.858   5.084  16.238 -0.2152 -0.8272 -1.1098
 1792TIP3    H226868   3.781   5.018  16.350 -0.2667  1.3812  0.2104
 1793TIP3   OH226869   5.045   0.310   4.293 -0.1458  0.0130 -0.2722
 1793TIP3    H126870   5.075   0.356   4.215 -2.1354  0.1169 -1.0193
 1793TIP3    H226871   5.125   0.296   4.344  1.1923  0.0956 -2.2211
 1794TIP3   OH226872   0.089   0.735   5.500  0.2295  0.4187  0.4709
 1794TIP3    H126873   0.051   0.678   5.567  1.0343  0.5025  1.0083
 1794TIP3    H226874   0.181   0.745   5.526  0.9245 -0.6184 -1.3390
 1795TIP3   OH226875   0.161   5.946   5.813 -0.1747 -0.1581  0.0065
 1795TIP3    H126876   0.216   6.006   5.864  0.3622 -0.9727  0.3931
 1795TIP3    H226877   0.107   5.902   5.878  0.5123 -1.2025 -0.1170
 1796TIP3   OH226878   3.174   1.289  15.855  0.4493  0.6187 -0.0499
 1796TIP3    H126879   3.258   1.291  15.809  0.7311 -2.6350  0.0916
 1796TIP3    H226880   3.116   1.242  15.796 -0.6028  0.7365  0.8709
 1797TIP3   OH226881   3.001   5.180  16.541  0.5922 -0.2104 -0.1601
 1797TIP3    H126882   3.084   5.135  16.552 -0.1248 -2.4167 -2.7282
 1797TIP3    H226883   2.936   5.121  16.578 -0.0889  0.2943 -0.5177
 1798TIP3   OH226884   6.237   1.764  15.236 -0.0869  0.4861 -0.3296
 1798TIP3    H126885   6.218   1.850  15.274  0.6341  0.7112 -0.4644
 1798TIP3    H226886   6.322   1.739  15.272 -1.0378 -0.9494  1.0249
 1799TIP3   OH226887   5.918   4.726   5.912  0.5613 -0.2024 -0.2020
 1799TIP3    H126888   5.898   4.634   5.928 -1.1629  0.3057  0.8404
 1799TIP3    H226889   5.833   4.767   5.895  1.4139  0.9831 -2.0446
 1800TIP3   OH226890   5.015   6.638  12.023  0.0224 -0.1312 -0.0662
 1800TIP3    H126891   4.935   6.646  11.970  1.1837 -1.7665 -2.2389
 1800TIP3    H226892   5.086   6.659  11.962  1.3383 -0.0490  1.4380
 1801TIP3   OH226893   3.524   2.401   3.492 -0.0819 -0.5998  0.0413
 1801TIP3    H126894   3.596   2.462   3.477 -0.5969 -0.5111 -2.4798
 1801TIP3    H226895   3.568   2.318   3.513  0.6599 -0.0092  0.9493
 1802TIP3   OH226896   2.433   2.064  13.621  0.0522 -0.1850 -0.4960
 1802TIP3    H126897   2.374   2.107  13.683  1.6862 -0.3266  1.2579
 1802TIP3    H226898   2.376   2.011  13.565 -1.4449 -0.5310  1.2812
 1803TIP3   OH226899   5.901   4.613   5.149 -0.0439 -1.0780  0.3908
 1803TIP3    H126900   5.869   4.524   5.159 -1.5647 -0.6243 -0.1553
 1803TIP3    H226901   5.840   4.667   5.199  1.0459 -0.3578  0.9867
 1804TIP3   OH226902   0.499   6.312  16.160  0.5637  0.3416  0.0446
 1804TIP3    H126903   0.494   6.217  16.169 -0.2738  0.2481 -1.1998
 1804TIP3    H226904   0.575   6.337  16.213  0.6727 -0.9844  0.5552
 1805TIP3   OH226905   5.894   1.470  14.492 -0.2649  0.5694  0.0641
 1805TIP3    H126906   5.986   1.483  14.468 -0.5305  1.1298 -0.6901
 1805TIP3    H226907   5.897   1.422  14.574  0.7138  1.2417  0.4335
 1806TIP3   OH226908   1.852   2.268   5.704 -0.1859 -0.9685  0.7490
 1806TIP3    H126909   1.769   2.258   5.657 -0.2854 -1.5851  1.0525
 1806TIP3    H226910   1.905   2.323   5.646 -0.9283 -0.2683  0.7188
 1807TIP3   OH226911   5.154   0.293   0.535  0.0263  0.1762  0.2684
 1807TIP3    H126912   5.132   0.248   0.617 -0.2379 -1.6885 -0.7640
 1807TIP3    H226913   5.069   0.315   0.497  0.1455  0.8267  0.3668
 1808TIP3   OH226914   3.077   5.412   1.935  0.6051  0.6727  0.0513
 1808TIP3    H126915   3.067   5.503   1.906  0.9006  0.4000 -0.9114
 1808TIP3    H226916   2.989   5.386   1.963  0.4318  1.1160 -0.0769
 1809TIP3   OH226917   1.377   0.801   3.111  0.1996  0.4131 -0.5319
 1809TIP3    H126918   1.352   0.889   3.138 -1.2534  0.1591 -0.9602
 1809TIP3    H226919   1.311   0.776   3.045 -0.6541 -1.7471  1.0172
 1810TIP3   OH226920   4.692   1.611   1.520 -0.3531  0.7411 -0.5267
 1810TIP3    H126921   4.699   1.705   1.540  2.1461 -0.0365  3.4566
 1810TIP3    H226922   4.617   1.581   1.571  1.4001  0.0204  1.8204
 1811TIP3   OH226923   3.611   0.883  12.831 -0.0408  0.2519 -0.0677
 1811TIP3    H126924   3.537   0.852  12.779  0.5178 -1.9009  0.3491
 1811TIP3    H226925   3.583   0.874  12.922  1.3280 -2.4213  0.1739
 1812TIP3   OH226926   6.468   2.848  16.408 -0.3617 -0.1374  0.3455
 1812TIP3    H126927   6.546   2.885  16.450 -0.3640  0.0565  0.1839
 1812TIP3    H226928   6.466   2.889  16.321 -0.1681 -0.7937  0.0283
 1813TIP3   OH226929   6.442   1.709   1.630 -0.5981 -0.6417  0.4018
 1813TIP3    H126930   6.503   1.783   1.628 -0.2193 -0.9632 -0.7452
 1813TIP3    H226931   6.390   1.719   1.550 -1.6791 -0.6838  1.0895
 1814TIP3   OH226932   5.460   0.216  13.587 -0.6516  0.4009 -0.1754
 1814TIP3    H126933   5.410   0.254  13.514  0.1904  0.7254 -0.6010
 1814TIP3    H226934   5.533   0.171  13.544 -1.0802 -0.8627  0.3849
 1815TIP3   OH226935   5.278   3.989  14.467 -0.0680 -0.0331 -0.5962
 1815TIP3    H126936   5.272   3.931  14.543 -0.5250 -0.7430 -1.1595
 1815TIP3    H226937   5.199   3.970  14.416 -0.3030  1.1984 -0.7194
 1816TIP3   OH226938   6.532   2.463   1.003  0.0741 -0.4704 -0.2707
 1816TIP3    H126939   6.611   2.451   1.055  0.7461 -1.1076 -1.3933
 1816TIP3    H226940   6.530   2.557   0.982 -0.1278 -0.2389  0.7651
 1817TIP3   OH226941   0.598   1.051   0.158 -0.3678 -0.1791  0.0740
 1817TIP3    H126942   0.545   1.098   0.222 -1.5635  0.1758 -1.1406
 1817TIP3    H226943   0.652   1.118   0.118  0.2072 -0.3643  0.5265
 1818TIP3   OH226944   1.558   4.364  13.726  0.3609 -0.1222 -0.1420
 1818TIP3    H126945   1.584   4.455  13.739 -1.4904  0.4162 -0.0592
 1818TIP3    H226946   1.508   4.364  13.644 -1.7698 -0.5684  1.0826
 1819TIP3   OH226947   0.011   3.640  14.789  0.4961  0.4721  0.1101
 1819TIP3    H126948   0.092   3.593  14.810 -0.2563 -0.6757  0.5368
 1819TIP3    H226949   0.037   3.702  14.720  1.8191  0.4319  0.5343
 1820TIP3   OH226950   0.808   1.800  14.656 -0.2533 -0.5358  0.0297
 1820TIP3    H126951   0.892   1.785  14.613 -0.8397  0.9922 -1.8228
 1820TIP3    H226952   0.780   1.886  14.625 -1.1925  0.3018  2.8581
 1821TIP3   OH226953   3.128   4.027   3.177 -0.2103 -0.0475  0.5318
 1821TIP3    H126954   3.168   4.111   3.196  0.0924 -0.5708  2.3839
 1821TIP3    H226955   3.068   4.012   3.250 -2.3658 -0.1875 -1.1631
 1822TIP3   OH226956   3.626   0.263   4.781 -0.1271 -0.2983  0.1774
 1822TIP3    H126957   3.622   0.234   4.690  2.1734  0.9794 -0.4157
 1822TIP3    H226958   3.596   0.187   4.831 -0.7966 -1.2713 -1.5893
 1823TIP3   OH226959   3.620   1.826  11.655 -0.1963 -0.4273 -0.0703
 1823TIP3    H126960   3.587   1.781  11.733 -0.8098  2.6991  1.6740
 1823TIP3    H226961   3.542   1.852  11.607  0.0606  0.0608 -0.2349
 1824TIP3   OH226962   0.329   2.456  12.434 -0.0613 -0.2088  0.3686
 1824TIP3    H126963   0.335   2.431  12.526 -0.0107  0.3973  0.5333
 1824TIP3    H226964   0.269   2.392  12.396  0.1341 -0.6319  0.7579
 1825TIP3   OH226965   1.548   2.058  15.747  1.1115  0.1121  0.7272
 1825TIP3    H126966   1.569   2.057  15.653  1.9421  1.3929  0.8626
 1825TIP3    H226967   1.555   1.966  15.774  0.5217 -0.3252 -0.5234
 1826TIP3   OH226968   2.994   5.300  12.028  1.0635  0.2822  0.1585
 1826TIP3    H126969   2.952   5.214  12.034 -1.2852  1.2907 -0.5122
 1826TIP3    H226970   3.086   5.280  12.009  0.7326 -2.0714  0.6755
 1827TIP3   OH226971   2.522   0.132   6.200  0.0119 -0.1599 -0.0397
 1827TIP3    H126972   2.516   0.092   6.113 -0.5348 -0.6292  0.2041
 1827TIP3    H226973   2.457   0.084   6.252 -1.7078  1.9546 -0.0793
 1828TIP3   OH226974   0.815   6.680   5.218  0.0873  0.0363  0.7676
 1828TIP3    H126975   0.854   6.747   5.274 -1.3354  0.9552  0.7157
 1828TIP3    H226976   0.801   6.605   5.277  1.9714 -0.3724  0.7549
 1829TIP3   OH226977   3.411   2.025   2.631 -0.7987  0.0866 -0.0162
 1829TIP3    H126978   3.394   1.969   2.556  0.0589  1.0406 -0.9530
 1829TIP3    H226979   3.494   1.992   2.668 -0.0570  0.9646 -0.8347
 1830TIP3   OH226980   4.312   5.985   1.010  0.0255  0.1742 -0.3210
 1830TIP3    H126981   4.292   5.893   1.025  0.0789  0.3125  0.6712
 1830TIP3    H226982   4.254   6.032   1.069  0.4821  0.7499 -0.3194
 1831TIP3   OH226983   4.629   3.889  12.458  0.7659  0.0208  0.0117
 1831TIP3    H126984   4.571   3.824  12.418  0.1315  0.8611 -0.4867
 1831TIP3    H226985   4.632   3.866  12.550  0.7884 -0.8885 -0.2113
 1832TIP3   OH226986   3.573   1.376  15.855  0.0477  0.0986  0.0738
 1832TIP3    H126987   3.662   1.413  15.850  1.5920 -3.0304  1.5051
 1832TIP3    H226988   3.571   1.311  15.785 -0.5905 -0.8079  0.9097
 1833TIP3   OH226989   3.955   2.989  16.275 -0.4162  0.1817 -0.0989
 1833TIP3    H126990   4.014   2.933  16.225  0.2003  0.2414  0.5462
 1833TIP3    H226991   3.869   2.947  16.266  0.1069 -1.1559  0.7615
 1834TIP3   OH226992   2.942   2.127  13.207 -0.1970  0.2168  0.2139
 1834TIP3    H126993   2.988   2.048  13.178  2.3085  0.6844  2.4809
 1834TIP3    H226994   2.899   2.101  13.288 -1.6573  0.5311 -0.4338
 1835TIP3   OH226995   3.186   2.821   4.491 -0.7162  0.0895  0.8578
 1835TIP3    H126996   3.128   2.826   4.567 -2.6760  1.1501 -0.6075
 1835TIP3    H226997   3.220   2.911   4.482  1.9462 -0.6663  2.1607
 1836TIP3   OH226998   1.019   1.206   2.106 -0.0379  0.4378  0.8904
 1836TIP3    H126999   1.100   1.252   2.085 -0.3377  1.0648  1.0718
 1836TIP3    H227000   1.046   1.116   2.124  0.4436  0.2767 -0.4711
 1837TIP3   OH227001   6.231   3.753  15.807 -0.0445  0.3797  0.2758
 1837TIP3    H127002   6.145   3.712  15.796 -0.0495  0.0918  1.3003
 1837TIP3    H227003   6.283   3.688  15.853  0.2772  1.1025  0.9589
 1838TIP3   OH227004   1.558   4.201  16.975 -0.2552 -0.0624  0.2895
 1838TIP3    H127005   1.465   4.194  16.994 -0.4754  0.1804 -0.6585
 1838TIP3    H227006   1.575   4.296  16.971 -0.7875  0.0008 -3.1965
 1839TIP3   OH227007   4.735   6.724  11.608 -0.0512 -0.2370 -0.3367
 1839TIP3    H127008   4.709   6.633  11.594  2.8114 -1.1107 -0.6702
 1839TIP3    H227009   4.788   6.721  11.688  0.2579  1.0847 -0.4797
 1840TIP3   OH227010   4.283   5.161   0.343  0.7673  0.0564  0.3171
 1840TIP3    H127011   4.326   5.199   0.420 -0.6489  1.5588  0.4256
 1840TIP3    H227012   4.195   5.140   0.373  0.3953  0.0797 -0.7237
 1841TIP3   OH227013   1.175   1.450  16.610  0.1529 -0.4818  0.3935
 1841TIP3    H127014   1.237   1.388  16.648 -0.2418 -0.8371  0.4658
 1841TIP3    H227015   1.196   1.450  16.516  0.9195  0.1614  0.5551
 1842TIP3   OH227016   2.859   0.020   3.548 -0.0912 -0.2508 -0.0336
 1842TIP3    H127017   2.890  -0.010   3.463 -0.8988  2.0398 -1.2315
 1842TIP3    H227018   2.795  -0.045   3.575  1.8158 -2.2270 -0.0284
 1843TIP3   OH227019   0.288   1.652   6.254 -0.8017  0.4887 -0.3571
 1843TIP3    H127020   0.214   1.712   6.245 -0.8780  0.1756 -2.5392
 1843TIP3    H227021   0.364   1.703   6.228 -0.6898  0.0156 -0.9912
 1844TIP3   OH227022   5.566   0.914  17.414 -0.0121  0.3647  0.6780
 1844TIP3    H127023   5.649   0.881  17.448 -0.8910 -2.1832  0.5634
 1844TIP3    H227024   5.508   0.917  17.490 -0.3711  0.2128  0.4141
 1845TIP3   OH227025   0.435   2.889  15.046  0.2502  1.1768 -0.2122
 1845TIP3    H127026   0.520   2.857  15.016  0.4594  0.2869  1.1917
 1845TIP3    H227027   0.448   2.907  15.139 -1.2787  0.3077  0.2091
 1846TIP3   OH227028   6.184   4.769  14.978 -0.1851 -0.3225 -0.3205
 1846TIP3    H127029   6.089   4.780  14.967 -0.8165 -2.9023  1.6801
 1846TIP3    H227030   6.211   4.719  14.901 -0.6156 -0.3472 -0.4571
 1847TIP3   OH227031   4.058   5.169   2.398 -0.4017 -0.4955  0.8347
 1847TIP3    H127032   4.027   5.078   2.403  0.6958 -0.8519  1.8686
 1847TIP3    H227033   4.120   5.177   2.472 -2.1201  1.7368  2.1731
 1848TIP3   OH227034   2.422   2.770   6.792 -0.0685  0.0252 -0.4890
 1848TIP3    H127035   2.343   2.821   6.811 -0.7090 -1.0809 -0.0753
 1848TIP3    H227036   2.480   2.789   6.865  0.3397  1.3597 -1.1258
 1849TIP3   OH227037   3.901   1.481  13.908  0.3137  0.2318  0.4719
 1849TIP3    H127038   3.845   1.421  13.958  0.7943  0.5354  1.3858
 1849TIP3    H227039   3.849   1.561  13.899  0.3898  0.3238  0.8489
 1850TIP3   OH227040   1.688   2.689  16.327  0.0906 -0.0900 -0.2009
 1850TIP3    H127041   1.750   2.649  16.387 -0.0565 -0.0344 -0.0128
 1850TIP3    H227042   1.607   2.639  16.338  0.6216 -1.3931 -1.8104
 1851TIP3   OH227043   4.235   5.357  17.085 -0.2393 -0.2260 -0.8864
 1851TIP3    H127044   4.261   5.404  17.006  0.8732  0.7158  0.0155
 1851TIP3    H227045   4.316   5.346  17.134 -0.9810 -0.4127  0.3247
 1852TIP3   OH227046   2.313   1.048   1.085 -0.2849  0.5103  0.4253
 1852TIP3    H127047   2.262   0.970   1.064 -0.8739  1.1503 -0.5984
 1852TIP3    H227048   2.254   1.102   1.137 -0.2492  0.7450  0.2214
 1853TIP3   OH227049   4.477   3.866  15.138  0.0102  0.2639  0.5332
 1853TIP3    H127050   4.455   3.948  15.095  0.5448  0.0837 -0.0948
 1853TIP3    H227051   4.555   3.885  15.190 -0.6515  0.4892  1.4685
 1854TIP3   OH227052   1.102   5.912   0.503 -0.6282 -0.1614  0.3913
 1854TIP3    H127053   1.175   5.965   0.532 -0.8647 -0.0374  0.7714
 1854TIP3    H227054   1.142   5.836   0.460 -0.2930  0.3408 -0.1900
 1855TIP3   OH227055   5.126   0.657   6.913 -0.3485 -0.8502  0.5806
 1855TIP3    H127056   5.108   0.740   6.957 -1.1124 -0.9159  0.4019
 1855TIP3    H227057   5.152   0.682   6.824  0.4549 -0.7564  0.8337
 1856TIP3   OH227058   4.072   1.388   2.637 -0.0216 -0.6230 -0.3410
 1856TIP3    H127059   4.004   1.350   2.692 -0.2857 -1.1984 -1.0542
 1856TIP3    H227060   4.111   1.314   2.591 -0.1046 -0.1178 -1.2563
 1857TIP3   OH227061   4.545   1.519   3.519 -0.8333 -0.4272 -0.3536
 1857TIP3    H127062   4.497   1.586   3.470 -0.7645 -0.7016 -0.8059
 1857TIP3    H227063   4.478   1.478   3.575 -0.5976  0.9896  1.0307
 1858TIP3   OH227064   6.604   0.236  13.027  0.4498  0.4566 -0.1126
 1858TIP3    H127065   6.674   0.176  13.002  0.4871  0.3021  0.3691
 1858TIP3    H227066   6.548   0.241  12.949  2.4384  2.7040 -1.5372
 1859TIP3   OH227067   4.296   4.275  16.355  0.3562  0.4060  0.2362
 1859TIP3    H127068   4.344   4.281  16.272  0.5659 -0.9921  0.2227
 1859TIP3    H227069   4.234   4.347  16.353 -0.5616 -0.3765 -1.7568
 1860TIP3   OH227070   2.551   6.116   3.304  0.3860 -0.2909 -0.2485
 1860TIP3    H127071   2.506   6.050   3.358  0.2465  0.4214  0.5285
 1860TIP3    H227072   2.639   6.081   3.291 -0.1258 -1.3193 -1.0978
 1861TIP3   OH227073   4.034   4.010  15.689 -0.2253  0.4926  0.0398
 1861TIP3    H127074   4.010   3.931  15.641 -1.8959  0.6142  0.6091
 1861TIP3    H227075   4.095   4.057  15.631 -2.3703  0.7976 -2.1010
 1862TIP3   OH227076   2.399   1.678   6.501 -0.2600 -0.6132 -0.0375
 1862TIP3    H127077   2.356   1.609   6.551  1.1889 -1.0571  0.6513
 1862TIP3    H227078   2.401   1.644   6.411  0.2174 -1.3592  0.2511
 1863TIP3   OH227079   3.672   4.212   0.203  0.0158 -0.4920 -0.2782
 1863TIP3    H127080   3.710   4.277   0.262  0.1176  0.8184 -1.7129
 1863TIP3    H227081   3.662   4.134   0.256 -0.5217  0.8220  1.6435
 1864TIP3   OH227082   6.474   0.192   1.464  0.0776 -0.4006  0.4115
 1864TIP3    H127083   6.397   0.193   1.520  0.4736  4.0282  1.2790
 1864TIP3    H227084   6.444   0.228   1.380  0.5216 -2.1443 -0.5394
 1865TIP3   OH227085   4.977   1.826  13.816 -0.5527  0.2967 -0.3705
 1865TIP3    H127086   5.008   1.811  13.905  2.0189 -2.5091 -1.5914
 1865TIP3    H227087   4.885   1.851  13.827 -0.5366 -0.6667  3.0089
 1866TIP3   OH227088   1.025   2.508  15.124  0.2234 -0.0488 -0.4668
 1866TIP3    H127089   1.013   2.419  15.158  0.0250 -0.5016 -1.6624
 1866TIP3    H227090   0.964   2.561  15.173 -0.2213 -0.7195 -0.2794
 1867TIP3   OH227091   1.901   2.547  12.679  0.1032 -0.0793  0.0546
 1867TIP3    H127092   1.890   2.456  12.650 -0.6499  0.3352 -1.0048
 1867TIP3    H227093   1.996   2.558  12.687  0.2071 -0.9224  0.0819
 1868TIP3   OH227094   6.653   1.132  14.620 -0.0913 -0.1165  0.1400
 1868TIP3    H127095   6.696   1.217  14.630 -0.0285 -0.1297 -0.0216
 1868TIP3    H227096   6.721   1.068  14.639 -0.3741 -0.1255  1.2120
 1869TIP3   OH227097   2.653   4.350   2.404  0.6893 -0.3620 -0.1219
 1869TIP3    H127098   2.597   4.273   2.389 -1.4982  1.0802  0.1499
 1869TIP3    H227099   2.635   4.407   2.329  1.1287  0.5075  0.4148
 1870TIP3   OH227100   4.600   0.327  14.595 -0.4026 -0.2610  0.6752
 1870TIP3    H127101   4.627   0.379  14.671 -2.0847  0.3769  0.8937
 1870TIP3    H227102   4.640   0.372  14.520  0.4403 -0.3028  1.0867
 1871TIP3   OH227103   1.592   5.692  13.955  0.7462  0.2577 -0.2906
 1871TIP3    H127104   1.636   5.629  13.898 -0.1563 -1.0900  0.4271
 1871TIP3    H227105   1.525   5.732  13.899  0.9489  0.1679 -0.6016
 1872TIP3   OH227106   1.678   1.759  11.290  0.4861 -0.8259 -0.4239
 1872TIP3    H127107   1.717   1.830  11.239  0.6301 -0.5398  0.0723
 1872TIP3    H227108   1.631   1.706  11.226  0.1275 -0.1192 -0.7603
 1873TIP3   OH227109   0.978   3.167  11.980 -0.2738  0.3784  0.9232
 1873TIP3    H127110   0.894   3.179  11.935  0.5256  0.4993 -0.5793
 1873TIP3    H227111   0.959   3.102  12.048 -1.5159  0.1733  0.4112
 1874TIP3   OH227112   0.619   5.484  14.971  0.1008  0.4690 -0.1773
 1874TIP3    H127113   0.535   5.451  15.003 -1.2375  1.7404 -2.1638
 1874TIP3    H227114   0.640   5.429  14.896  0.2262  1.1472 -0.6513
 1875TIP3   OH227115   3.905   3.067   5.907 -0.3259  0.1836  0.2531
 1875TIP3    H127116   3.934   3.098   5.821  0.5065  1.4425  0.9486
 1875TIP3    H227117   3.929   3.138   5.966 -1.3391 -0.4552  1.4544
 1876TIP3   OH227118   1.525   2.672   3.955 -1.0169 -0.3387 -0.1075
 1876TIP3    H127119   1.441   2.694   3.915 -0.3657 -1.7155 -2.3697
 1876TIP3    H227120   1.572   2.624   3.888  1.9722  1.1423  0.7753
 1877TIP3   OH227121   6.321   5.007  12.991  0.4719  0.3984  0.5115
 1877TIP3    H127122   6.406   5.051  12.988  1.0096 -0.6669 -1.0381
 1877TIP3    H227123   6.263   5.070  13.034  1.6164  1.8705 -0.0281
 1878TIP3   OH227124   1.874   5.271  15.025  0.1495  0.0403 -0.7616
 1878TIP3    H127125   1.958   5.303  14.991 -0.8420  0.8815 -2.5390
 1878TIP3    H227126   1.874   5.178  15.002  0.6723 -0.0156 -0.5605
 1879TIP3   OH227127   2.728   2.652  13.612  0.3535 -0.0071  0.4347
 1879TIP3    H127128   2.690   2.587  13.552  0.3619  0.5386 -0.1685
 1879TIP3    H227129   2.683   2.636  13.695 -0.2455 -0.2391  0.0765
 1880TIP3   OH227130   5.061   4.536   1.929  0.5351 -0.1575 -0.0291
 1880TIP3    H127131   5.030   4.612   1.880  2.8961 -0.3237 -1.9626
 1880TIP3    H227132   4.999   4.528   2.002 -0.3133  3.0602 -0.2312
 1881TIP3   OH227133   2.556   4.402  17.261 -0.1212  0.5139 -0.3805
 1881TIP3    H127134   2.648   4.428  17.261 -0.2946  1.1291 -0.0248
 1881TIP3    H227135   2.549   4.337  17.331 -0.1964  1.3318  0.3820
 1882TIP3   OH227136   5.224   5.310  16.721 -0.1006  0.1819  0.0718
 1882TIP3    H127137   5.229   5.220  16.690  1.6988  0.0951  0.4868
 1882TIP3    H227138   5.265   5.308  16.807 -1.1390  1.1943  0.6177
 1883TIP3   OH227139   0.699   0.091   2.262  0.1493  0.0848 -0.2439
 1883TIP3    H127140   0.733   0.041   2.188 -2.2664 -0.2984 -1.2014
 1883TIP3    H227141   0.674   0.175   2.224 -0.0513  0.3161  0.3907
 1884TIP3   OH227142   3.959   1.843  14.438  0.0008  0.1627 -0.4544
 1884TIP3    H127143   3.994   1.931  14.456 -2.0171  0.9562 -0.1034
 1884TIP3    H227144   3.996   1.788  14.506  0.1774  1.0676  0.2057
 1885TIP3   OH227145   2.728   5.273   1.418 -0.1992  0.1237  0.5193
 1885TIP3    H127146   2.635   5.297   1.411  0.1154  1.0778 -0.5897
 1885TIP3    H227147   2.727   5.187   1.459 -1.5607  0.2788  0.8635
 1886TIP3   OH227148   4.723   0.335   5.703 -0.2659 -0.3624  0.2423
 1886TIP3    H127149   4.785   0.295   5.763 -0.3307 -0.5281  0.1982
 1886TIP3    H227150   4.736   0.429   5.715  0.1869 -0.3956  0.0364
 1887TIP3   OH227151   6.540   5.741  15.480  0.2577  0.4814 -0.5205
 1887TIP3    H127152   6.499   5.713  15.398  1.7472 -1.5635 -0.6618
 1887TIP3    H227153   6.624   5.694  15.481  0.3730  0.6392  2.0612
 1888TIP3   OH227154   0.420   3.122  13.795 -0.6248 -0.2021 -0.3433
 1888TIP3    H127155   0.472   3.092  13.720 -1.2605 -2.5223  0.0435
 1888TIP3    H227156   0.480   3.175  13.847  0.4801 -0.3932 -1.3872
 1889TIP3   OH227157   2.952   3.053  16.189 -0.5506 -0.0347  0.3486
 1889TIP3    H127158   2.858   3.045  16.204 -0.5630  1.2960  1.1961
 1889TIP3    H227159   2.960   3.074  16.096 -1.2170  1.3276  0.5802
 1890TIP3   OH227160   5.071   6.306  11.909 -0.3380 -0.4057  0.1733
 1890TIP3    H127161   5.022   6.375  11.866 -0.5125  0.5238  1.7795
 1890TIP3    H227162   5.025   6.291  11.992  1.1906 -0.5848  1.0413
 1891TIP3   OH227163   5.804   3.482   2.077 -0.5541 -0.1441 -0.1750
 1891TIP3    H127164   5.745   3.438   2.015  1.2823 -2.8545 -0.1513
 1891TIP3    H227165   5.833   3.560   2.030 -1.5122 -0.5557 -1.5329
 1892TIP3   OH227166   2.361   2.302  15.741  0.3817  0.6809 -0.4673
 1892TIP3    H127167   2.431   2.238  15.729 -0.8433 -0.7819 -0.2185
 1892TIP3    H227168   2.329   2.286  15.830  0.1356  1.7476 -0.3495
 1893TIP3   OH227169   0.171   5.502  12.285  0.5603 -0.5788  1.0542
 1893TIP3    H127170   0.168   5.412  12.318  0.2665 -0.8999  0.1750
 1893TIP3    H227171   0.191   5.493  12.192 -2.1008  0.0990  0.3463
 1894TIP3   OH227172   4.047   5.651   5.537 -0.7228  0.0526 -0.2479
 1894TIP3    H127173   4.125   5.656   5.481  1.3534 -1.4128  2.2495
 1894TIP3    H227174   4.021   5.559   5.532 -2.1879  0.4845 -0.8525
 1895TIP3   OH227175   4.698   0.930   2.763 -0.0328 -0.0150  0.0415
 1895TIP3    H127176   4.610   0.927   2.725  0.3522 -1.5782 -0.7999
 1895TIP3    H227177   4.724   1.022   2.756 -1.1970  0.2833 -0.6411
 1896TIP3   OH227178   4.352   3.580  15.965 -0.4280 -0.0682 -0.1579
 1896TIP3    H127179   4.447   3.570  15.965 -0.3038  0.9815  0.5411
 1896TIP3    H227180   4.328   3.580  15.872  0.0142 -2.1509 -0.3333
 1897TIP3   OH227181   0.701   5.678   2.956 -0.0657  0.0947 -0.2457
 1897TIP3    H127182   0.608   5.666   2.970 -0.3366  1.4137 -0.7846
 1897TIP3    H227183   0.734   5.711   3.040  0.3141 -2.1773  0.5773
 1898TIP3   OH227184   4.394   0.048   5.041  0.5727 -0.2741 -0.3176
 1898TIP3    H127185   4.420   0.140   5.053 -1.9866  0.8279 -2.1304
 1898TIP3    H227186   4.444   0.019   4.965  1.1970 -0.3035  0.1008
 1899TIP3   OH227187   4.590   5.638  12.663 -0.3834  0.2362 -0.8942
 1899TIP3    H127188   4.515   5.684  12.625 -0.4433 -0.6556 -1.9140
 1899TIP3    H227189   4.627   5.700  12.726 -2.0261  0.6487 -0.3013
 1900TIP3   OH227190   0.438   4.288   2.450  0.3827  0.5608 -0.4335
 1900TIP3    H127191   0.495   4.341   2.395  1.0256  0.2688 -0.0680
 1900TIP3    H227192   0.355   4.336   2.453  0.9568  1.5686 -0.0845
 1901TIP3   OH227193   1.990   1.378   0.517  0.3842  0.2899  0.6156
 1901TIP3    H127194   1.947   1.360   0.434 -0.7355 -1.5596  1.5323
 1901TIP3    H227195   2.083   1.387   0.494  0.1018 -0.1795 -0.8280
 1902TIP3   OH227196   0.554   1.933   5.149  0.1262  0.1222 -0.5285
 1902TIP3    H127197   0.551   2.018   5.105 -0.6977  0.1833 -0.3775
 1902TIP3    H227198   0.619   1.882   5.100 -1.0913  0.0267 -2.1198
 1903TIP3   OH227199   6.318   2.705  16.023  0.5618  0.2421  0.0584
 1903TIP3    H127200   6.331   2.633  16.084  2.2848 -0.2340 -0.8059
 1903TIP3    H227201   6.359   2.780  16.066 -2.4067  1.1363  1.5725
 1904TIP3   OH227202   5.109   4.564  14.950  0.1813  1.1277 -0.6446
 1904TIP3    H127203   5.167   4.516  15.008 -1.4608  0.0200  0.1797
 1904TIP3    H227204   5.127   4.530  14.863 -1.4125 -1.6582 -0.0191
 1905TIP3   OH227205   2.752   3.056   2.919 -0.2656 -0.4634 -0.0844
 1905TIP3    H127206   2.735   3.021   3.006  0.2327  1.4480  0.8209
 1905TIP3    H227207   2.839   3.024   2.896 -0.0727 -0.3308  0.4636
 1906TIP3   OH227208   6.126   1.095   1.706  0.6625 -0.8440  0.2937
 1906TIP3    H127209   6.075   1.101   1.625  0.4958 -0.7312  0.4081
 1906TIP3    H227210   6.110   1.179   1.750 -1.7269 -2.0658  1.9548
 1907TIP3   OH227211   6.152   1.122  12.416 -1.0917  1.0033 -0.0163
 1907TIP3    H127212   6.067   1.080  12.412 -0.2737 -1.0510  1.7885
 1907TIP3    H227213   6.200   1.088  12.341 -0.8160 -0.4889  0.8010
 1908TIP3   OH227214   6.083   5.465   0.670 -0.4546 -0.2052  0.2939
 1908TIP3    H127215   6.040   5.550   0.681  3.0993  1.8182  0.2486
 1908TIP3    H227216   6.106   5.438   0.759 -1.0146 -0.8225  0.2567
 1909TIP3   OH227217   5.937   1.504  15.947  0.2258 -0.1820 -0.2818
 1909TIP3    H127218   5.987   1.582  15.922  0.6238 -0.0492  0.8704
 1909TIP3    H227219   5.983   1.470  16.023 -1.2102 -0.2937  0.5714
 1910TIP3   OH227220   6.162   2.873  14.597  0.0031 -0.4690 -0.3727
 1910TIP3    H127221   6.224   2.908  14.661  0.1339 -0.8105 -0.3153
 1910TIP3    H227222   6.087   2.843  14.649  0.9185 -2.5601 -0.1718
 1911TIP3   OH227223   3.009   6.044  14.307 -0.2337  0.6833 -0.1685
 1911TIP3    H127224   2.950   5.971  14.287  2.6891 -1.9254 -0.0173
 1911TIP3    H227225   2.983   6.071  14.395 -1.7893  0.2880 -0.4616
 1912TIP3   OH227226   5.717   1.021   5.739 -0.0226 -0.3497 -0.3094
 1912TIP3    H127227   5.737   0.947   5.682  1.5939  0.3477 -0.6869
 1912TIP3    H227228   5.787   1.022   5.803  0.8848  1.7663 -1.2508
 1913TIP3   OH227229   4.744   6.449   2.280  0.5717 -0.2794  0.1470
 1913TIP3    H127230   4.746   6.488   2.368  1.1136 -0.3463  0.1688
 1913TIP3    H227231   4.684   6.504   2.231  0.1232 -0.3474  0.6117
 1914TIP3   OH227232   1.747   5.548   4.720  0.0119  0.2958 -0.4520
 1914TIP3    H127233   1.756   5.501   4.803 -1.3433 -0.0905 -0.4834
 1914TIP3    H227234   1.691   5.491   4.667 -2.2178  2.1675 -0.2802
 1915TIP3   OH227235   1.165   3.331   2.587  0.3190 -0.2344 -0.1346
 1915TIP3    H127236   1.233   3.349   2.521  0.2230 -0.4257 -0.2880
 1915TIP3    H227237   1.173   3.402   2.650 -0.5140  0.7325 -1.0864
 1916TIP3   OH227238   0.836   3.156  13.446  0.2864 -0.3571  0.2729
 1916TIP3    H127239   0.785   3.076  13.431  1.5942 -1.4324  1.2816
 1916TIP3    H227240   0.905   3.153  13.379 -0.0832  0.3325 -0.1561
 1917TIP3   OH227241   5.055   5.059  13.941  0.5094  0.2797  0.3352
 1917TIP3    H127242   5.027   5.135  13.890  0.8580 -1.7204 -3.2009
 1917TIP3    H227243   5.016   4.984  13.896  2.9998 -1.9022  1.4757
 1918TIP3   OH227244   6.273   2.372  16.809  0.5060 -0.2752  0.3120
 1918TIP3    H127245   6.186   2.376  16.770 -0.4680 -0.1137  2.3676
 1918TIP3    H227246   6.332   2.354  16.735 -1.1892  0.1078 -1.1940
 1919TIP3   OH227247   4.585   4.680  10.537  0.0047 -0.1557  0.1838
 1919TIP3    H127248   4.556   4.771  10.533 -1.7683 -0.7264 -0.7452
 1919TIP3    H227249   4.672   4.681  10.497 -0.9968  0.7634 -2.1350
 1920TIP3   OH227250   2.037   5.073  11.219  0.4772  0.0701  0.3443
 1920TIP3    H127251   1.967   5.048  11.158  1.6170 -1.2217 -0.4919
 1920TIP3    H227252   1.997   5.065  11.306  0.1599 -2.8851  0.0250
 1921TIP3   OH227253   2.833   2.909  12.353  0.3690 -0.1021  0.4052
 1921TIP3    H127254   2.762   2.968  12.329 -0.0051 -0.2701  1.0639
 1921TIP3    H227255   2.885   2.958  12.417  2.3782  1.0224 -1.9113
 1922TIP3   OH227256   1.862   2.970  12.498 -0.1256  0.1301 -0.2414
 1922TIP3    H127257   1.943   2.940  12.456  0.1328  0.4340  0.0285
 1922TIP3    H227258   1.880   2.964  12.592 -0.5096 -0.0481 -0.1768
 1923TIP3   OH227259   0.040   4.976  16.629  0.6582 -0.2029 -0.1768
 1923TIP3    H127260   0.058   5.062  16.590  1.8526 -0.4743 -0.2819
 1923TIP3    H227261   0.023   4.919  16.554 -1.5653  0.2118 -0.0433
 1924TIP3   OH227262   3.094   3.284   5.509 -0.4018 -0.9271  0.4258
 1924TIP3    H127263   3.119   3.341   5.582  0.6020 -1.5307  0.5733
 1924TIP3    H227264   3.005   3.256   5.530 -0.9783  0.6803  0.2770
 1925TIP3   OH227265   2.370   1.655  16.608  0.5680  0.1346  0.2987
 1925TIP3    H127266   2.465   1.671  16.611  0.5007  0.4714  2.3526
 1925TIP3    H227267   2.332   1.731  16.652 -0.6169 -0.3387  0.1127
 1926TIP3   OH227268   3.080   6.467  11.048 -0.5592  0.0561  0.1353
 1926TIP3    H127269   3.091   6.553  11.009  1.1021  0.3594  1.1907
 1926TIP3    H227270   3.048   6.412  10.976  1.1541  0.8805 -1.3408
 1927TIP3   OH227271   3.022   3.632  17.212 -0.1130 -0.2624 -0.1277
 1927TIP3    H127272   2.996   3.713  17.169 -2.1753 -0.3450  0.8293
 1927TIP3    H227273   3.028   3.654  17.305 -1.3917 -1.3206  0.2382
 1928TIP3   OH227274   1.300   5.262  12.845 -0.1016  0.1804 -0.1952
 1928TIP3    H127275   1.296   5.187  12.786 -1.1647 -0.4142  0.5889
 1928TIP3    H227276   1.210   5.273  12.875 -0.2441  2.5997 -1.2790
 1929TIP3   OH227277   3.398   6.191  14.543  0.1144  0.7651 -0.1698
 1929TIP3    H127278   3.355   6.274  14.521 -0.8447  0.3492  0.1117
 1929TIP3    H227279   3.376   6.176  14.635  1.2217  0.7493  0.1084
 1930TIP3   OH227280   0.956   6.448   1.580 -0.3902  0.2674 -0.3796
 1930TIP3    H127281   0.984   6.417   1.493  1.3034 -0.4199  0.3636
 1930TIP3    H227282   0.880   6.395   1.601  0.7594 -1.4648 -0.3518
 1931TIP3   OH227283   3.088   0.242   0.655  0.4517 -0.2621 -0.0688
 1931TIP3    H127284   3.119   0.156   0.685  0.1586 -0.4563 -0.3113
 1931TIP3    H227285   3.019   0.221   0.592  0.3642  0.1545 -0.1115
 1932TIP3   OH227286   1.736   4.010  16.729  0.1426  0.0535 -0.0259
 1932TIP3    H127287   1.716   3.996  16.822  2.1013  0.5861  0.5082
 1932TIP3    H227288   1.724   4.104  16.716  1.1322  0.1913  0.0206
 1933TIP3   OH227289   1.696   0.148   2.645 -0.4641  0.1554  0.0784
 1933TIP3    H127290   1.749   0.227   2.633  2.9060 -1.3514  3.1720
 1933TIP3    H227291   1.668   0.152   2.736 -2.1309 -1.2000 -0.3356
 1934TIP3   OH227292   5.186   2.893   3.151 -0.4377  0.4153  0.0950
 1934TIP3    H127293   5.127   2.951   3.199 -2.6986 -2.1061  0.5656
 1934TIP3    H227294   5.263   2.886   3.208 -1.9970 -0.4727  2.2498
 1935TIP3   OH227295   4.831   6.306  11.705  0.1499  0.2776  0.5591
 1935TIP3    H127296   4.813   6.242  11.774 -2.1713  1.0070  0.7255
 1935TIP3    H227297   4.772   6.379  11.724  1.5729  1.7838 -0.5366
 1936TIP3   OH227298   1.164   5.521   5.359  0.0093  0.0161 -0.9850
 1936TIP3    H127299   1.085   5.473   5.334  0.0762 -0.2168 -0.7423
 1936TIP3    H227300   1.210   5.536   5.276  0.1381 -0.5971 -1.0306
 1937TIP3   OH227301   4.756   1.473   0.454  0.3515  0.3335  0.1226
 1937TIP3    H127302   4.788   1.408   0.517 -1.7680 -0.9520 -0.0104
 1937TIP3    H227303   4.780   1.557   0.491  2.6966 -0.4793  0.5980
 1938TIP3   OH227304   5.857   1.430   5.075  0.2317 -0.2098 -0.0317
 1938TIP3    H127305   5.948   1.413   5.097  0.1342  1.1333  1.6229
 1938TIP3    H227306   5.806   1.369   5.128  0.1250 -0.8150 -0.7987
 1939TIP3   OH227307   2.362   5.869   6.522  0.3193  0.2571 -0.4406
 1939TIP3    H127308   2.385   5.780   6.549 -1.5869  0.4269  2.1257
 1939TIP3    H227309   2.444   5.918   6.527  1.2184 -1.1254 -0.9931
 1940TIP3   OH227310   4.015   0.573  15.671 -0.5180 -0.2691  0.0325
 1940TIP3    H127311   4.002   0.601  15.762  0.0404 -1.4041  0.4784
 1940TIP3    H227312   4.081   0.504  15.676 -0.6366 -0.5008 -1.2202
 1941TIP3   OH227313   2.699   6.368  16.326  0.0850 -0.4129  0.2459
 1941TIP3    H127314   2.740   6.353  16.241 -0.6094 -1.2587  0.0471
 1941TIP3    H227315   2.616   6.321  16.322 -0.1492 -0.1202  1.2452
 1942TIP3   OH227316   3.623   4.393  16.601 -0.3818  0.4263  0.4534
 1942TIP3    H127317   3.716   4.372  16.594 -0.4195  0.5858 -0.7321
 1942TIP3    H227318   3.613   4.427  16.690  0.3271 -1.3442  1.2748
 1943TIP3   OH227319   2.725   0.972   4.060 -0.2888  0.0236  0.5163
 1943TIP3    H127320   2.694   0.925   4.137 -1.0040  2.5092  1.8555
 1943TIP3    H227321   2.646   0.995   4.012  0.0949 -0.6983 -0.4950
 1944TIP3   OH227322   2.957   3.700   2.456  0.6892  0.0334  0.8771
 1944TIP3    H127323   3.014   3.723   2.529 -0.4838  0.4642  1.6864
 1944TIP3    H227324   2.913   3.782   2.434  0.7829 -0.1739 -0.1013
 1945TIP3   OH227325   0.297   6.626   3.292  0.5365 -0.3274 -0.4342
 1945TIP3    H127326   0.386   6.595   3.276  1.2232  0.9161  0.8202
 1945TIP3    H227327   0.304   6.681   3.369 -0.8923  1.6874 -1.6510
 1946TIP3   OH227328   2.373   1.271  10.675 -0.4369  0.2988 -0.0467
 1946TIP3    H127329   2.373   1.207  10.747 -1.6862  1.3309  0.9124
 1946TIP3    H227330   2.451   1.249  10.624 -1.0737 -2.3015 -0.0404
 1947TIP3   OH227331   6.251   5.236  13.159 -0.1331  0.1681 -0.0869
 1947TIP3    H127332   6.310   5.311  13.157 -0.2081  0.2191 -1.1784
 1947TIP3    H227333   6.163   5.274  13.154 -0.1973  0.0340  0.0103
 1948TIP3   OH227334   2.175   1.366   3.480 -0.0435 -0.3249 -0.4379
 1948TIP3    H127335   2.234   1.399   3.412  0.2491  1.8716  0.7949
 1948TIP3    H227336   2.226   1.369   3.560 -1.2067 -0.2983  0.3285
 1949TIP3   OH227337   4.009   1.341   5.185  0.0082  0.1292 -0.0243
 1949TIP3    H127338   3.921   1.364   5.157 -0.2834  1.0463  1.5117
 1949TIP3    H227339   3.996   1.293   5.267  0.9282  0.9681  0.6447
 1950TIP3   OH227340   4.343   3.704   2.934  0.0221  0.2387  0.3337
 1950TIP3    H127341   4.307   3.694   2.846  1.9015  0.7741 -0.5490
 1950TIP3    H227342   4.267   3.699   2.992 -1.2071 -0.5489 -1.2738
 1951TIP3   OH227343   6.093   3.508  14.836  0.4057  0.1110  0.5668
 1951TIP3    H127344   6.181   3.490  14.802 -0.0439  0.9706 -1.1323
 1951TIP3    H227345   6.046   3.426  14.827 -0.0084  0.5587 -1.9695
 1952TIP3   OH227346   0.509   3.417   1.801 -0.1297  0.0508 -0.3116
 1952TIP3    H127347   0.586   3.473   1.785  1.5524 -1.8585  0.7099
 1952TIP3    H227348   0.493   3.374   1.717 -0.2461  0.6220 -0.5877
 1953TIP3   OH227349   2.047   4.255  16.752  0.3074  0.7997  0.2870
 1953TIP3    H127350   2.118   4.314  16.776  0.0560  0.9208  0.7393
 1953TIP3    H227351   2.024   4.210  16.834  0.5501  0.0167 -0.0620
 1954TIP3   OH227352   4.176   5.996  14.948  0.0341  0.5677  0.5537
 1954TIP3    H127353   4.124   5.918  14.970  1.7206 -0.4894  1.0287
 1954TIP3    H227354   4.145   6.064  15.007 -0.4821 -0.1581  1.1318
 1955TIP3   OH227355   3.276   2.368  13.177 -0.3099 -0.4433 -0.2511
 1955TIP3    H127356   3.320   2.288  13.205 -0.4353 -0.6491 -0.6447
 1955TIP3    H227357   3.207   2.382  13.242 -0.5551 -0.8808 -0.4135
 1956TIP3   OH227358   2.676   4.559   2.588  0.3718 -0.3629 -0.0443
 1956TIP3    H127359   2.720   4.629   2.539 -2.3679  1.5063 -0.0587
 1956TIP3    H227360   2.657   4.492   2.523 -0.1046  0.5017 -0.8177
 1957TIP3   OH227361   3.101   0.720  15.697 -0.1328 -0.4714 -0.2720
 1957TIP3    H127362   3.094   0.758  15.785  0.6077 -0.9946  0.0176
 1957TIP3    H227363   3.181   0.668  15.699  1.2141  1.3725 -1.9671
 1958TIP3   OH227364   2.466   5.799  16.234 -0.3228  0.1929  0.0339
 1958TIP3    H127365   2.528   5.863  16.198  1.1152 -0.3960  1.3497
 1958TIP3    H227366   2.496   5.715  16.200  1.6874 -0.5291  3.0948
 1959TIP3   OH227367   4.001   2.853  11.098 -0.3941 -0.6532 -0.4106
 1959TIP3    H127368   4.034   2.764  11.089 -0.6374 -0.9870  1.5274
 1959TIP3    H227369   3.929   2.858  11.035 -0.2699 -1.7790 -0.6608
 1960TIP3   OH227370   3.823   2.481  16.845  0.0915 -0.2841 -0.2036
 1960TIP3    H127371   3.876   2.524  16.913  0.7165 -1.1861 -0.0980
 1960TIP3    H227372   3.824   2.543  16.772  1.9117 -0.5738 -0.4687
 1961TIP3   OH227373   3.376   5.684   5.957 -0.2234  0.1777 -0.5414
 1961TIP3    H127374   3.287   5.701   5.925 -0.0933  1.9231 -0.0493
 1961TIP3    H227375   3.418   5.770   5.960  1.3588 -0.5573 -0.3464
 1962TIP3   OH227376   3.111   3.178   2.454 -0.2013  0.0801  0.0891
 1962TIP3    H127377   3.081   3.092   2.426  0.2492 -0.5847  1.5304
 1962TIP3    H227378   3.141   3.221   2.374  0.2975 -1.4110 -0.5503
 1963TIP3   OH227379   6.490   3.580   0.304  0.2018  0.1243  0.0100
 1963TIP3    H127380   6.527   3.575   0.216  1.8399  2.6847  0.4374
 1963TIP3    H227381   6.566   3.570   0.362 -0.6357 -0.0455  1.1080
 1964TIP3   OH227382   2.413   4.281  13.308  0.5208  0.0999 -0.2540
 1964TIP3    H127383   2.437   4.374  13.304 -0.1317  0.3022  0.2427
 1964TIP3    H227384   2.359   4.275  13.386 -2.6828  0.0823 -2.2997
 1965TIP3   OH227385   4.887   1.304   1.311  0.1823 -0.1236  0.4235
 1965TIP3    H127386   4.899   1.398   1.326  0.6183  0.0447 -0.9224
 1965TIP3    H227387   4.814   1.280   1.368 -0.3509  1.1610  0.2985
 1966TIP3   OH227388   3.590   5.209   5.453  0.3180 -0.1522 -0.0513
 1966TIP3    H127389   3.552   5.269   5.518 -0.3529 -0.6215  0.0053
 1966TIP3    H227390   3.577   5.254   5.369  2.6952  1.2317  0.2435
 1967TIP3   OH227391   3.744   1.001  16.353  0.0032 -0.1944 -0.3536
 1967TIP3    H127392   3.805   0.977  16.282  1.0694  1.3215 -0.0065
 1967TIP3    H227393   3.761   0.936  16.421  0.3961 -0.4926 -0.7224
 1968TIP3   OH227394   4.195   6.205  17.399 -0.3567 -0.0930 -0.1015
 1968TIP3    H127395   4.202   6.130  17.458  0.2516  0.3264  0.3678
 1968TIP3    H227396   4.285   6.225  17.374 -0.5789 -0.0203 -0.8730
 1969TIP3   OH227397   1.810   4.160   4.504 -0.1176  0.5139 -0.2836
 1969TIP3    H127398   1.803   4.074   4.545  1.3862  0.1995 -0.6379
 1969TIP3    H227399   1.730   4.206   4.531 -1.8401 -1.5598 -1.5098
 1970TIP3   OH227400   3.794   0.711  14.011  0.0143  0.3104 -0.6276
 1970TIP3    H127401   3.747   0.707  14.094 -0.9513 -1.8455 -1.2033
 1970TIP3    H227402   3.760   0.789  13.967 -0.4530  0.7177  0.4335
 1971TIP3   OH227403   3.564   0.310  12.632 -0.1386  0.1140 -0.4277
 1971TIP3    H127404   3.522   0.298  12.717  1.8241  0.3446  0.6326
 1971TIP3    H227405   3.614   0.229  12.618 -0.1068  0.2544 -1.1714
 1972TIP3   OH227406   3.343   6.614  11.891 -0.2469 -0.6166  0.0186
 1972TIP3    H127407   3.407   6.558  11.936  0.6612  0.0801 -0.3654
 1972TIP3    H227408   3.337   6.692  11.947 -0.9265 -0.7659  0.1571
 1973TIP3   OH227409   2.188   4.368  14.967 -0.3514 -0.4498 -0.0242
 1973TIP3    H127410   2.100   4.406  14.967 -0.5540 -0.8839 -1.0606
 1973TIP3    H227411   2.222   4.388  14.880  1.5013  1.7337  1.0873
 1974TIP3   OH227412   4.426   0.892   1.112  0.0330 -0.3101 -0.3299
 1974TIP3    H127413   4.385   0.978   1.105 -2.0896 -1.1223  1.0819
 1974TIP3    H227414   4.516   0.907   1.084 -0.2179  2.3912 -0.0369
 1975TIP3   OH227415   3.616   1.749   6.569  0.6613 -0.1659  0.3726
 1975TIP3    H127416   3.612   1.664   6.613 -1.1836 -0.0365  0.5467
 1975TIP3    H227417   3.608   1.812   6.640 -0.4457  0.0761  0.0580
 1976TIP3   OH227418   3.640   4.717   5.676 -0.0226  0.7263  0.5239
 1976TIP3    H127419   3.582   4.704   5.602  1.0442 -1.3964 -0.0022
 1976TIP3    H227420   3.604   4.662   5.746 -0.9908  2.6592  1.6329
 1977TIP3   OH227421   6.015   1.993  14.090  0.6801 -0.3416 -0.1184
 1977TIP3    H127422   6.052   2.081  14.102 -1.2874  0.6923 -1.1279
 1977TIP3    H227423   6.055   1.941  14.159  1.2511  1.5741  1.0796
 1978TIP3   OH227424   3.372   6.291  11.983  0.2700 -0.0980  0.6483
 1978TIP3    H127425   3.381   6.205  12.025  0.4156  0.1168  1.0628
 1978TIP3    H227426   3.331   6.346  12.050 -1.1306 -0.2049 -0.1023
 1979TIP3   OH227427   6.054   0.927   5.655 -0.3332  0.5001 -0.1497
 1979TIP3    H127428   6.138   0.965   5.630  0.6647 -0.9293  0.8442
 1979TIP3    H227429   6.053   0.933   5.750 -0.6338 -0.9180 -0.0482
 1980TIP3   OH227430   4.003   0.065   0.928 -0.0996  0.8277  0.0407
 1980TIP3    H127431   3.943   0.085   1.000 -1.3056 -0.8443 -0.4325
 1980TIP3    H227432   3.987  -0.028   0.909  1.7414  0.6697 -0.9661
 1981TIP3   OH227433   6.703   3.792  16.010  0.2818 -0.0972 -0.4604
 1981TIP3    H127434   6.690   3.764  16.100  0.3496  0.3890 -0.2970
 1981TIP3    H227435   6.798   3.804  16.002  0.0828  3.6419  0.5954
 1982TIP3   OH227436   6.519   4.844  14.430 -0.1309 -0.4601  0.3365
 1982TIP3    H127437   6.543   4.925  14.475 -2.4082 -0.0114  0.8354
 1982TIP3    H227438   6.600   4.818  14.385  1.5241  0.3882  2.6427
 1983TIP3   OH227439   3.343   3.889  12.286 -0.3179 -0.1512 -0.6264
 1983TIP3    H127440   3.336   3.968  12.233  2.4415  0.6096 -0.0240
 1983TIP3    H227441   3.310   3.916  12.372  0.9880  0.5164 -0.3104
 1984TIP3   OH227442   3.682   3.516  13.075  0.5191  0.3868  0.0224
 1984TIP3    H127443   3.607   3.576  13.076  0.3983  0.4012 -2.9461
 1984TIP3    H227444   3.648   3.436  13.036  2.0333  0.4349 -1.4928
 1985TIP3   OH227445   0.919   3.980  16.876  0.6279  0.4872  0.3180
 1985TIP3    H127446   0.962   4.064  16.890  0.6886  0.5294 -0.1046
 1985TIP3    H227447   0.858   3.997  16.804  0.2052  0.3225  0.6364
 1986TIP3   OH227448   5.266   6.686   5.680  0.7097 -0.3139 -0.1646
 1986TIP3    H127449   5.281   6.625   5.753  0.3155  0.3240  0.4641
 1986TIP3    H227450   5.231   6.631   5.610  1.3004 -0.9739  0.0466
 1987TIP3   OH227451   2.638   0.652   5.905  0.2876 -0.0032  0.6912
 1987TIP3    H127452   2.654   0.647   5.999  2.0627 -0.7333  0.3968
 1987TIP3    H227453   2.717   0.693   5.870  1.5083 -3.2989 -0.8663
 1988TIP3   OH227454   3.409   4.065   3.897  0.4340 -0.7806 -0.3661
 1988TIP3    H127455   3.325   4.062   3.852  0.7018 -0.6562 -0.8920
 1988TIP3    H227456   3.394   4.119   3.974 -0.2114 -1.5729  0.0764
 1989TIP3   OH227457   3.546   2.054   2.310  0.0014 -0.0583  0.5815
 1989TIP3    H127458   3.622   2.018   2.356 -1.6648 -1.3022  2.5477
 1989TIP3    H227459   3.528   2.137   2.353  0.8077  0.7375 -0.5639
 1990TIP3   OH227460   4.475   1.391   3.838 -0.7207  0.5025  0.6864
 1990TIP3    H127461   4.386   1.357   3.847 -0.0671 -1.4129  0.4316
 1990TIP3    H227462   4.508   1.398   3.928 -1.4908  2.3664  0.8601
 1991TIP3   OH227463   4.619   1.437  13.616 -0.4673 -0.0161  0.1615
 1991TIP3    H127464   4.674   1.493  13.562 -1.0915 -0.3088 -0.8070
 1991TIP3    H227465   4.678   1.370  13.649  0.2575  1.0895  1.2146
 1992TIP3   OH227466   5.266   1.311   5.872  0.2076 -0.0302  0.3749
 1992TIP3    H127467   5.275   1.406   5.866 -1.6512  0.3479  2.3402
 1992TIP3    H227468   5.355   1.278   5.868  0.9271  1.8244  0.0983
 1993TIP3   OH227469   0.166   0.035   5.097  0.1882  0.6397  0.5663
 1993TIP3    H127470   0.258   0.020   5.074 -0.2207  0.1704 -0.8661
 1993TIP3    H227471   0.159   0.005   5.188  0.9345 -1.5603 -0.0519
 1994TIP3   OH227472   5.408   5.593  15.843 -0.7680  0.2474 -0.4131
 1994TIP3    H127473   5.341   5.652  15.877  0.0727  2.5952 -2.4925
 1994TIP3    H227474   5.491   5.635  15.866 -0.0350 -1.3753  0.0575
 1995TIP3   OH227475   3.976   5.070   5.084  0.5219 -0.1294  0.1250
 1995TIP3    H127476   4.004   5.034   5.169 -0.0423 -3.2342 -0.8558
 1995TIP3    H227477   4.000   5.002   5.021  1.5373  2.3506 -2.3840
 1996TIP3   OH227478   2.770   2.809  16.188 -0.4020 -0.5590 -0.1610
 1996TIP3    H127479   2.851   2.804  16.137  0.8376 -1.5451  1.7985
 1996TIP3    H227480   2.722   2.729  16.165  1.4594 -2.4967  2.1655
 1997TIP3   OH227481   6.766   0.921  13.490 -0.5550  0.3701 -0.2283
 1997TIP3    H127482   6.810   0.977  13.555 -1.5146 -0.9362  1.6533
 1997TIP3    H227483   6.673   0.937  13.505 -0.8303 -1.3404  0.0352
 1998TIP3   OH227484   0.109   3.728   0.413  0.3546 -1.3368  0.3181
 1998TIP3    H127485   0.071   3.662   0.470  0.5398 -1.3767  0.3948
 1998TIP3    H227486   0.157   3.787   0.472  0.8851 -1.6066  0.1672
 1999TIP3   OH227487   1.829   2.424  14.556  0.1996 -0.0303 -0.2502
 1999TIP3    H127488   1.873   2.469  14.629  0.0602  0.1772 -0.2919
 1999TIP3    H227489   1.861   2.334  14.560  1.7320  0.4297 -1.1445
 2000TIP3   OH227490   3.577   5.904   4.693  0.8442  0.1734  0.0808
 2000TIP3    H127491   3.507   5.863   4.642 -0.0804  2.1155 -0.2835
 2000TIP3    H227492   3.644   5.927   4.629  1.5784 -1.1105  0.3470
 2001TIP3   OH227493   6.494   5.756  13.523 -0.2733 -0.0784  0.1806
 2001TIP3    H127494   6.541   5.726  13.445 -2.2326 -0.0785 -1.0816
 2001TIP3    H227495   6.559   5.756  13.593  1.2442 -1.3050 -1.1737
 2002TIP3   OH227496   1.539   4.832  11.497  0.0430  0.0349 -0.3469
 2002TIP3    H127497   1.556   4.856  11.588 -0.9740 -2.5386  0.6290
 2002TIP3    H227498   1.519   4.914  11.454 -0.5972  1.2302  2.0349
 2003TIP3   OH227499   2.608   0.341  14.388  0.0097 -0.8288  0.0166
 2003TIP3    H127500   2.656   0.351  14.470  1.2609 -1.7268 -0.5746
 2003TIP3    H227501   2.518   0.325  14.415  0.3102 -0.6411  1.2021
 2004TIP3   OH227502   2.375   3.620   5.654 -0.2570  0.1943 -0.4985
 2004TIP3    H127503   2.447   3.581   5.604 -0.2238 -0.0485 -0.2651
 2004TIP3    H227504   2.381   3.579   5.740 -0.4946  0.3927 -0.3863
 2005TIP3   OH227505   6.342   5.425   1.505 -0.0087 -0.6909  0.0679
 2005TIP3    H127506   6.262   5.378   1.482  0.3568 -2.3598  1.9302
 2005TIP3    H227507   6.409   5.386   1.450  0.0023 -1.2888  0.4908
 2006TIP3   OH227508   1.021   0.363   0.455 -0.2799  0.2578 -0.0237
 2006TIP3    H127509   0.997   0.441   0.503  0.1586  0.5602 -0.2880
 2006TIP3    H227510   1.106   0.384   0.416 -0.7599  0.1426 -1.1738
 2007TIP3   OH227511   2.252   4.640   3.516  0.7033 -0.3720  0.2409
 2007TIP3    H127512   2.163   4.665   3.539  0.4670 -2.1263  1.4298
 2007TIP3    H227513   2.241   4.560   3.464  1.5977 -1.1335  1.1944
 2008TIP3   OH227514   0.706   2.832   1.696  0.6468 -0.5989 -0.0581
 2008TIP3    H127515   0.628   2.776   1.692  0.4747 -0.2951 -1.1123
 2008TIP3    H227516   0.727   2.852   1.605  3.0661 -2.1724  0.0672
 2009TIP3   OH227517   2.381   4.884   0.437  0.1173  0.1673  0.3222
 2009TIP3    H127518   2.444   4.920   0.374 -0.7558 -0.4311 -0.9251
 2009TIP3    H227519   2.410   4.794   0.450  1.0940  0.6639  1.8677
 2010TIP3   OH227520   0.197   3.582  17.008  0.2337 -0.0985 -0.1924
 2010TIP3    H127521   0.180   3.667  17.047  1.6938  0.4733 -0.7272
 2010TIP3    H227522   0.274   3.596  16.953  1.9116 -2.2386  1.4471
 2011TIP3   OH227523   1.960   6.557  12.239  0.1238 -0.1136  0.2035
 2011TIP3    H127524   1.870   6.524  12.237  0.9272 -2.5252 -1.5189
 2011TIP3    H227525   1.950   6.653  12.237 -2.3944 -0.2972 -0.1801
 2012TIP3   OH227526   0.160   3.162   3.178  0.2542 -0.1471 -0.5376
 2012TIP3    H127527   0.119   3.075   3.176  1.1953 -0.6542  0.7507
 2012TIP3    H227528   0.176   3.178   3.271  1.3647  0.7953 -0.8711
 2013TIP3   OH227529   1.702   1.399  11.998 -0.0497 -0.5874  0.3345
 2013TIP3    H127530   1.711   1.475  12.056 -0.1399  0.5904 -1.1245
 2013TIP3    H227531   1.662   1.434  11.918 -0.0268 -2.1662 -0.4185
 2014TIP3   OH227532   0.620   0.489   4.525 -0.0261  0.6616  0.4492
 2014TIP3    H127533   0.660   0.445   4.451  1.8128  1.7363  0.7429
 2014TIP3    H227534   0.534   0.449   4.533 -0.2785  0.5090 -2.2287
 2015TIP3   OH227535   3.610   0.568  12.687 -0.4750  0.5224  0.2685
 2015TIP3    H127536   3.657   0.545  12.767 -0.1314 -0.5818 -0.2239
 2015TIP3    H227537   3.618   0.490  12.632 -0.0213  1.5433 -1.1652
 2016TIP3   OH227538   1.613   0.111   5.286 -0.5824 -0.3098  0.2194
 2016TIP3    H127539   1.560   0.183   5.319  1.3136  1.0184  0.4872
 2016TIP3    H227540   1.578   0.033   5.330 -1.7938  0.6147  0.9495
 2017TIP3   OH227541   1.430   3.407  17.334 -0.5132  0.2043 -1.0982
 2017TIP3    H127542   1.448   3.487  17.285  2.0223  1.0053  0.8975
 2017TIP3    H227543   1.509   3.354  17.322 -0.6657 -0.4259  0.4313
 2018TIP3   OH227544   2.289   5.471   1.252  0.2734 -0.9014 -0.5542
 2018TIP3    H127545   2.288   5.452   1.158  2.5868  1.3058 -1.1660
 2018TIP3    H227546   2.237   5.551   1.261  1.4833 -0.1040 -0.3182
 2019TIP3   OH227547   4.510   5.043  13.648 -0.1159 -0.0310 -0.4660
 2019TIP3    H127548   4.419   5.051  13.679 -0.2912  1.1751 -1.2488
 2019TIP3    H227549   4.563   5.078  13.720 -0.3231 -0.0047 -0.3238
 2020TIP3   OH227550   1.263   6.025   1.999  0.0599 -0.1706  0.0264
 2020TIP3    H127551   1.256   5.940   1.956  1.3072  0.1177 -0.8376
 2020TIP3    H227552   1.284   6.005   2.090  0.4499 -0.7964 -0.1923
 2021TIP3   OH227553   1.185   1.452   2.385 -0.0499  0.5221  0.1810
 2021TIP3    H127554   1.274   1.481   2.365 -0.3597 -0.0913 -2.5384
 2021TIP3    H227555   1.134   1.533   2.391  0.4059  0.8147  0.1867
 2022TIP3   OH227556   0.628   5.438  12.833 -0.1248  0.3124  0.1623
 2022TIP3    H127557   0.708   5.389  12.853  0.4962  1.2688  0.0952
 2022TIP3    H227558   0.605   5.481  12.915 -0.4880  0.1598  0.1428
 2023TIP3   OH227559   5.671   5.413  12.765  0.3208 -0.0806  0.0439
 2023TIP3    H127560   5.600   5.465  12.727 -0.7527 -1.9983 -0.6738
 2023TIP3    H227561   5.675   5.443  12.856 -0.6520  0.8544 -0.1953
 2024TIP3   OH227562   1.042   6.557  17.071  0.0659 -0.3183 -0.2433
 2024TIP3    H127563   1.122   6.579  17.024  3.4842 -1.0163  4.4759
 2024TIP3    H227564   1.039   6.619  17.144 -0.5180 -3.5335  2.7565
 2025TIP3   OH227565   0.408   1.094  12.991  1.0791 -0.2767  0.1921
 2025TIP3    H127566   0.496   1.078  12.957  1.3292  1.0346  0.1931
 2025TIP3    H227567   0.350   1.079  12.916  1.2310 -1.6605  0.3223
 2026TIP3   OH227568   2.764   2.203  14.452  0.0443  0.0275 -0.1487
 2026TIP3    H127569   2.745   2.133  14.514 -0.0142 -1.3871 -1.6944
 2026TIP3    H227570   2.859   2.216  14.459 -0.0895  0.5480  0.8828
 2027TIP3   OH227571   0.297   0.494   1.020 -0.4799  0.3991  0.0982
 2027TIP3    H127572   0.335   0.409   0.996 -0.4310  0.3784  0.2456
 2027TIP3    H227573   0.270   0.483   1.111 -1.0957  0.3214 -0.0859
 2028TIP3   OH227574   3.439   2.264  14.262 -0.2073 -0.1186  0.4367
 2028TIP3    H127575   3.422   2.347  14.216 -0.4110 -0.8048 -0.7557
 2028TIP3    H227576   3.527   2.275  14.298 -0.7374  1.1263  1.4599
 2029TIP3   OH227577   5.776   4.729   0.827 -0.2835  0.2297  0.5151
 2029TIP3    H127578   5.695   4.682   0.846 -1.3673  1.4435 -0.8274
 2029TIP3    H227579   5.788   4.719   0.732  2.4165 -1.8129  0.9480
 2030TIP3   OH227580   1.449   3.615   5.897 -0.3273  0.0913  0.2990
 2030TIP3    H127581   1.499   3.664   5.831  0.3758  0.3949  1.0388
 2030TIP3    H227582   1.515   3.569   5.948 -0.8589 -0.1231  0.8033
 2031TIP3   OH227583   1.897   4.740   6.257  0.7491  0.0735 -0.2049
 2031TIP3    H127584   1.926   4.811   6.314 -1.8203 -0.2784  1.7298
 2031TIP3    H227585   1.907   4.661   6.310  1.6194 -0.7837 -1.5750
 2032TIP3   OH227586   0.295   4.139  14.147 -0.1603 -0.1753 -0.3641
 2032TIP3    H127587   0.266   4.058  14.104 -2.1253  0.2166  0.1417
 2032TIP3    H227588   0.259   4.209  14.093 -2.4399  0.3303  1.6393
 2033TIP3   OH227589   2.845   2.129  14.117 -0.3890  0.2108  0.1046
 2033TIP3    H127590   2.833   2.173  14.201 -0.8963 -0.4182  0.3693
 2033TIP3    H227591   2.887   2.195  14.062  2.1866 -0.1157  1.5181
 2034TIP3   OH227592   0.414   2.888   5.101 -0.5565 -0.3968 -0.4301
 2034TIP3    H127593   0.325   2.904   5.132 -0.0537 -1.0750  1.5225
 2034TIP3    H227594   0.452   2.975   5.090 -0.6876 -0.1038  1.2166
 2035TIP3   OH227595   1.107   1.904   3.040 -0.1721  0.1189 -0.7731
 2035TIP3    H127596   1.073   1.986   3.006 -0.6629  1.5035  2.6814
 2035TIP3    H227597   1.197   1.899   3.007 -0.3202  1.7436 -1.4819
 2036TIP3   OH227598   5.098   5.659   3.538  0.5716 -0.2335 -0.2716
 2036TIP3    H127599   5.048   5.648   3.619 -0.0452 -0.3587 -0.6612
 2036TIP3    H227600   5.186   5.681   3.568  0.1123  0.7607  0.4332
 2037TIP3   OH227601   2.668   2.157  12.415  0.7779  0.4401  0.5148
 2037TIP3    H127602   2.664   2.195  12.327 -1.2554 -1.1801 -0.1956
 2037TIP3    H227603   2.732   2.086  12.407 -0.4208 -0.6103 -0.1052
 2038TIP3   OH227604   4.498   1.518   0.243  0.9010 -0.3685 -0.0348
 2038TIP3    H127605   4.477   1.534   0.150 -0.1562  1.6810  0.4878
 2038TIP3    H227606   4.585   1.478   0.241  0.1612 -2.0358 -1.9690
 2039TIP3   OH227607   6.705   2.826  14.809  0.6019 -0.1730 -0.5097
 2039TIP3    H127608   6.761   2.866  14.743 -0.4902  2.3805 -0.0265
 2039TIP3    H227609   6.658   2.900  14.849  0.7016 -1.6437  2.6547
 2040TIP3   OH227610   6.031   1.895   4.462 -0.1512 -0.0226 -0.0841
 2040TIP3    H127611   6.045   1.887   4.367 -1.8573  0.1204 -0.3740
 2040TIP3    H227612   6.038   1.805   4.494  0.0847 -0.1190 -0.3895
 2041TIP3   OH227613   5.311   5.591  12.250  0.5663  0.2317 -0.2837
 2041TIP3    H127614   5.260   5.519  12.286  0.4514  0.2083 -0.4943
 2041TIP3    H227615   5.254   5.668  12.260  1.2995  0.5867  1.3865
 2042TIP3   OH227616   4.686   1.762  12.130  0.0328 -0.1817  0.3523
 2042TIP3    H127617   4.761   1.703  12.136  0.1347 -0.2196 -0.9953
 2042TIP3    H227618   4.698   1.823  12.204  2.5093  1.0441 -0.9280
 2043TIP3   OH227619   2.397   4.602  13.631 -0.3425  0.1439 -0.0435
 2043TIP3    H127620   2.442   4.662  13.691 -1.0638  2.2780 -1.4970
 2043TIP3    H227621   2.304   4.613  13.652 -0.4802 -0.5290 -0.2929
 2044TIP3   OH227622   2.462   4.635  15.401  0.6420  0.3482 -0.3368
 2044TIP3    H127623   2.395   4.696  15.429  1.5386  1.0278  0.3815
 2044TIP3    H227624   2.415   4.570  15.347 -0.6536  0.5242  0.5486
 2045TIP3   OH227625   2.847   3.470   2.702  0.5331 -0.0995 -0.0343
 2045TIP3    H127626   2.825   3.456   2.610  0.8075 -1.0282  0.0307
 2045TIP3    H227627   2.916   3.406   2.719  0.4044 -0.0064  0.8450
 2046TIP3   OH227628   4.452   3.615   1.175  0.5626  0.5073 -0.1716
 2046TIP3    H127629   4.395   3.649   1.106  1.5463 -0.2700 -1.4337
 2046TIP3    H227630   4.415   3.649   1.256 -1.8668 -0.1890 -0.8928
 2047TIP3   OH227631   3.671   3.296   3.375 -0.1196 -0.1975  0.1876
 2047TIP3    H127632   3.719   3.378   3.368 -0.7533  0.1625 -0.0519
 2047TIP3    H227633   3.624   3.303   3.458 -2.3748  0.9266 -1.0739
 2048TIP3   OH227634   5.334   6.245   4.566 -0.3764 -0.0127 -0.0612
 2048TIP3    H127635   5.393   6.296   4.510  0.6971 -1.8149 -0.6539
 2048TIP3    H227636   5.332   6.292   4.649  2.5445 -0.2745  0.2455
 2049TIP3   OH227637   6.698   2.454   0.153 -0.7394  0.0197  0.8793
 2049TIP3    H127638   6.637   2.465   0.080  1.4416  1.2732 -0.9104
 2049TIP3    H227639   6.737   2.541   0.164  0.7147 -0.7331  1.9334
 2050TIP3   OH227640   0.852   1.595   5.572  0.5632 -0.3200  0.6703
 2050TIP3    H127641   0.901   1.640   5.640 -1.3377  2.3303  0.4428
 2050TIP3    H227642   0.838   1.507   5.606  0.7426  0.5486  3.1518
 2051TIP3   OH227643   4.659   4.609   0.244  0.5513  0.2956  0.1763
 2051TIP3    H127644   4.628   4.519   0.254  0.9226  0.1592  0.1097
 2051TIP3    H227645   4.665   4.623   0.150 -0.0045  0.5646  0.1785
 2052TIP3   OH227646   6.062   2.208   4.888 -0.2316 -0.3133  0.3428
 2052TIP3    H127647   6.078   2.130   4.941  2.8642 -0.3515 -0.4670
 2052TIP3    H227648   6.064   2.177   4.798 -1.8332  0.3029  0.0719
 2053TIP3   OH227649   4.201   2.540  16.999 -0.6431  0.1915  0.3261
 2053TIP3    H127650   4.149   2.537  16.918 -1.7427 -0.7615  1.0413
 2053TIP3    H227651   4.178   2.624  17.039 -0.4871  0.4390 -0.0984
 2054TIP3   OH227652   3.975   3.059   0.798  0.3789 -0.4064  0.0976
 2054TIP3    H127653   3.980   2.996   0.726  0.1118  0.3935 -0.6372
 2054TIP3    H227654   4.008   3.012   0.874  0.2225 -1.4172 -0.4495
 2055TIP3   OH227655   4.047   0.714   2.445 -0.4968 -0.2582  0.2804
 2055TIP3    H127656   4.141   0.697   2.452 -0.2702 -0.4259 -2.1671
 2055TIP3    H227657   4.041   0.798   2.401 -1.4249 -1.0748 -1.2606
 2056TIP3   OH227658   4.865   1.600   2.712 -0.0116 -0.2066  0.0271
 2056TIP3    H127659   4.851   1.649   2.631  0.8336 -1.5130 -0.9448
 2056TIP3    H227660   4.845   1.663   2.782  2.9717  2.2501 -1.0632
 2057TIP3   OH227661   3.044   1.568   5.651  0.8786  0.2336 -0.7661
 2057TIP3    H127662   2.979   1.516   5.603 -0.6404  1.4766 -0.1699
 2057TIP3    H227663   3.128   1.533   5.624 -0.0203 -0.9884 -2.1277
 2058TIP3   OH227664   5.289   4.285  11.768 -0.2450  0.6507  0.5248
 2058TIP3    H127665   5.348   4.343  11.720  0.0223  1.3111  1.6210
 2058TIP3    H227666   5.245   4.233  11.700  1.9774 -0.2621 -0.3086
 2059TIP3   OH227667   2.217   2.126  14.206 -0.1358  1.4123 -0.3839
 2059TIP3    H127668   2.189   2.152  14.294  2.3137 -0.6307  1.1492
 2059TIP3    H227669   2.137   2.124  14.155 -2.0290  0.6566  2.3691
 2060TIP3   OH227670   3.714   1.913  14.143 -0.0697 -0.0323  0.0696
 2060TIP3    H127671   3.785   1.852  14.122 -0.0400 -0.0765  0.2946
 2060TIP3    H227672   3.759   1.995  14.164 -0.1772  1.4294 -4.3121
 2061TIP3   OH227673   0.721   3.154  11.637  0.5491  0.6359  0.1281
 2061TIP3    H127674   0.648   3.119  11.585  0.8304 -0.9756  0.7519
 2061TIP3    H227675   0.789   3.174  11.572  0.2286  0.3750 -0.2965
 2062TIP3   OH227676   0.474   6.373   6.518 -0.2047 -0.0045 -0.0899
 2062TIP3    H127677   0.459   6.439   6.451 -2.9007  0.6646  1.0502
 2062TIP3    H227678   0.519   6.420   6.588 -1.0784  0.3532  0.2398
 2063TIP3   OH227679   0.541   6.740  13.637 -0.7527 -0.2150  0.3002
 2063TIP3    H127680   0.577   6.653  13.650 -0.9806 -0.1190  1.7183
 2063TIP3    H227681   0.534   6.777  13.725  1.2227  2.0055 -0.3508
 2064TIP3   OH227682   0.827   5.315   5.738 -0.9053  0.6261 -0.5417
 2064TIP3    H127683   0.803   5.226   5.714 -1.5262  0.6543 -0.0234
 2064TIP3    H227684   0.922   5.312   5.749 -1.2334 -0.8719  3.0818
 2065TIP3   OH227685   2.370   4.993  11.944  0.1501  0.4123  0.4207
 2065TIP3    H127686   2.352   5.082  11.912  0.7359  1.5926  3.1198
 2065TIP3    H227687   2.283   4.953  11.952 -0.2501  1.2598  0.5292
 2066TIP3   OH227688   5.106   4.720   6.245  0.0678  0.0634  0.2645
 2066TIP3    H127689   5.109   4.719   6.341  0.4767  1.0407  0.2716
 2066TIP3    H227690   5.186   4.765   6.219 -0.7970  1.2080 -0.4921
 2067TIP3   OH227691   0.769   4.550   4.144  0.0407 -0.4443 -0.5632
 2067TIP3    H127692   0.811   4.622   4.096  2.3274 -0.0265  1.8005
 2067TIP3    H227693   0.815   4.471   4.114 -0.5604 -0.5868 -1.1388
 2068TIP3   OH227694   1.556   6.316  15.714 -0.2038 -0.0853 -0.4318
 2068TIP3    H127695   1.553   6.224  15.739  0.3293 -0.4439 -1.6077
 2068TIP3    H227696   1.643   6.328  15.677 -1.1313  0.1993 -2.7195
 2069TIP3   OH227697   1.934   1.535   5.421  0.1329  0.0672  0.4117
 2069TIP3    H127698   1.840   1.525   5.404 -0.1100  0.7972  1.2265
 2069TIP3    H227699   1.960   1.451   5.459 -0.5257  0.3653  1.5590
 2070TIP3   OH227700   3.300   5.022  13.363  0.0135  0.1640 -0.0484
 2070TIP3    H127701   3.288   5.062  13.276 -1.8974 -0.7623 -0.2620
 2070TIP3    H227702   3.345   4.940  13.345 -2.2391 -1.0549 -0.4944
 2071TIP3   OH227703   6.475   4.858   4.938  0.1066 -0.5650  0.1422
 2071TIP3    H127704   6.466   4.866   4.843  1.1039  5.2456  0.1434
 2071TIP3    H227705   6.569   4.858   4.954 -0.0156  0.9146  1.0896
 2072TIP3   OH227706   5.372   1.824  12.449  0.1156  0.3668  0.0067
 2072TIP3    H127707   5.397   1.849  12.360  1.0474  0.6761  0.3330
 2072TIP3    H227708   5.277   1.827  12.450  0.0932  0.2130 -1.0183
 2073TIP3   OH227709   3.309   3.303  16.041 -0.1200 -0.5645 -0.1163
 2073TIP3    H127710   3.313   3.311  15.946 -1.0698 -0.2610 -0.1411
 2073TIP3    H227711   3.272   3.387  16.070 -0.4215 -0.8979  0.4728
 2074TIP3   OH227712   3.618   4.578  12.300 -0.3023 -0.1377 -0.0282
 2074TIP3    H127713   3.583   4.664  12.324  1.3475  0.7609 -0.6678
 2074TIP3    H227714   3.549   4.538  12.246 -0.6307  1.2906 -0.7073
 2075TIP3   OH227715   5.662   2.397  11.482 -0.2189 -0.0957  0.2559
 2075TIP3    H127716   5.621   2.413  11.567 -0.4603 -1.5393  0.4485
 2075TIP3    H227717   5.729   2.464  11.474 -1.5080  1.2909  0.6838
 2076TIP3   OH227718   0.074   4.645  12.771  0.2914  0.0407 -0.0571
 2076TIP3    H127719   0.065   4.608  12.683  1.1794 -0.8679  0.2100
 2076TIP3    H227720   0.149   4.704  12.764  0.3466 -0.0132  0.0789
 2077TIP3   OH227721   0.767   3.432  11.652 -0.1641  0.7379  0.1304
 2077TIP3    H127722   0.710   3.359  11.628  0.6930  0.1712 -0.2095
 2077TIP3    H227723   0.852   3.392  11.669 -0.3603  1.2485  2.8510
 2078TIP3   OH227724   2.631   3.981   4.812 -0.5901 -0.4493 -0.2746
 2078TIP3    H127725   2.543   4.008   4.836 -1.1264  0.0337 -2.5284
 2078TIP3    H227726   2.625   3.886   4.800 -0.6691 -0.4895  0.0897
 2079TIP3   OH227727   0.271   1.389   0.988 -0.1506  0.5544 -0.2827
 2079TIP3    H127728   0.265   1.466   0.931  0.5500  1.7008  1.1064
 2079TIP3    H227729   0.239   1.317   0.935 -0.8110  1.8033 -1.6550
 2080TIP3   OH227730   1.474   0.352   3.390 -0.0664  0.3999  0.3328
 2080TIP3    H127731   1.492   0.355   3.297 -0.9696 -1.1587  0.0757
 2080TIP3    H227732   1.548   0.397   3.431  1.2457 -0.4603 -1.0144
 2081TIP3   OH227733   6.648   0.965  15.776 -0.1979  0.0630 -0.0789
 2081TIP3    H127734   6.662   0.957  15.682  1.2904 -1.0802  0.1976
 2081TIP3    H227735   6.686   1.050  15.799  2.3563 -0.9823 -0.0873
 2082TIP3   OH227736   1.337   0.859  15.334 -0.3466 -0.0437 -0.4221
 2082TIP3    H127737   1.266   0.864  15.270  0.0192 -0.2850 -0.8560
 2082TIP3    H227738   1.414   0.837  15.281  0.4248  2.0071 -0.2478
 2083TIP3   OH227739   5.362   1.848   3.366  0.1711  0.0434 -0.4235
 2083TIP3    H127740   5.412   1.899   3.431  1.6841  0.1880 -1.6456
 2083TIP3    H227741   5.363   1.902   3.287  0.4881 -1.1826 -1.2886
 2084TIP3   OH227742   5.964   5.735  14.929  0.4574  0.0693 -0.4323
 2084TIP3    H127743   6.032   5.767  14.869 -0.4402  2.0566 -0.4753
 2084TIP3    H227744   5.890   5.794  14.915 -0.9195 -1.3784  0.3858
 2085TIP3   OH227745   0.861   6.510  16.626 -0.2282  0.1320  0.3404
 2085TIP3    H127746   0.823   6.432  16.587  0.3576  0.3812 -0.7848
 2085TIP3    H227747   0.915   6.477  16.698 -1.9887 -0.2683  1.5230
 2086TIP3   OH227748   1.707   4.664   0.069  0.3330  0.1950 -0.2641
 2086TIP3    H127749   1.734   4.688   0.157  0.3682  0.4396 -0.3393
 2086TIP3    H227750   1.784   4.625   0.029  1.8663  4.1287 -1.7140
 2087TIP3   OH227751   6.286   2.413   2.970  0.3501 -0.2884  0.4745
 2087TIP3    H127752   6.272   2.468   2.893  0.5173 -1.7530 -0.6506
 2087TIP3    H227753   6.201   2.414   3.015  0.2222  0.5169  0.2373
 2088TIP3   OH227754   6.617   2.007  11.326 -0.5402  0.5026 -0.0829
 2088TIP3    H127755   6.658   2.089  11.298 -1.0618  0.6364 -0.4483
 2088TIP3    H227756   6.529   2.010  11.290 -0.7742  0.0669  0.4407
 2089TIP3   OH227757   5.910   2.100  11.763 -0.2476 -0.0471  0.0281
 2089TIP3    H127758   5.926   2.007  11.747 -0.0505 -0.0273  0.1067
 2089TIP3    H227759   5.897   2.137  11.675 -0.1223 -0.1117 -0.0185
 2090TIP3   OH227760   4.859   4.227  11.938 -0.3248  0.6619 -0.2618
 2090TIP3    H127761   4.839   4.245  12.030  0.8495 -0.2537  0.2083
 2090TIP3    H227762   4.787   4.172  11.908  0.8123 -1.7480  1.0985
 2091TIP3   OH227763   2.773   0.338   2.726 -0.3194  0.4848 -0.6184
 2091TIP3    H127764   2.821   0.377   2.799 -0.7987 -0.1302  0.0412
 2091TIP3    H227765   2.685   0.374   2.735 -0.2995  0.6490 -1.0852
 2092TIP3   OH227766   4.920   4.936  13.690  0.1567  0.2824  0.3080
 2092TIP3    H127767   4.987   4.970  13.630  3.0196 -0.6061  2.7178
 2092TIP3    H227768   4.855   4.896  13.633  1.5140  1.4507 -2.2421
 2093TIP3   OH227769   1.967   3.013   1.930  0.2200  0.3993  0.1760
 2093TIP3    H127770   2.041   3.011   1.992 -1.0159  0.2893  1.7237
 2093TIP3    H227771   1.894   2.976   1.979 -0.1129 -2.8669 -2.4641
 2094TIP3   OH227772   0.750   3.474  14.359 -0.0742  0.3488  0.1268
 2094TIP3    H127773   0.690   3.470  14.284  0.7448  0.3089 -0.5356
 2094TIP3    H227774   0.789   3.561  14.354  0.9400 -0.1132 -0.2642
 2095TIP3   OH227775   4.808   0.688  10.876 -0.0217 -0.0629 -0.2787
 2095TIP3    H127776   4.723   0.683  10.832 -0.0953 -3.1388 -0.0437
 2095TIP3    H227777   4.789   0.729  10.960 -1.2026 -0.2254 -0.4453
 2096TIP3   OH227778   2.768   6.560  15.602 -0.0160 -0.4122  0.3196
 2096TIP3    H127779   2.680   6.530  15.577  0.0015 -0.7225  0.6250
 2096TIP3    H227780   2.755   6.602  15.687 -0.3215  1.8821 -0.7814
 2097TIP3   OH227781   0.467   5.935  16.328  0.3040 -0.0695  0.2901
 2097TIP3    H127782   0.372   5.930  16.317  0.5671 -2.2088 -1.7614
 2097TIP3    H227783   0.496   5.843  16.329  2.2582  0.4883  2.2122
 2098TIP3   OH227784   4.452   0.646  13.959  0.0834 -0.1451  0.1074
 2098TIP3    H127785   4.399   0.614  13.886  2.6342 -1.1348 -1.4759
 2098TIP3    H227786   4.473   0.568  14.010  0.1928  0.1909  0.5886
 2099TIP3   OH227787   5.048   6.065   2.674  0.3917 -0.4364  0.6516
 2099TIP3    H127788   5.057   6.102   2.586 -0.5746  0.0555  0.7468
 2099TIP3    H227789   5.129   6.016   2.688  1.3503  0.9735  0.2042
 2100TIP3   OH227790   4.512   3.882   5.939 -1.0253  0.1208 -0.4275
 2100TIP3    H127791   4.507   3.899   6.033  2.6791  0.6214 -0.1737
 2100TIP3    H227792   4.480   3.793   5.929 -1.9372  0.2235  1.2221
 2101TIP3   OH227793   2.167   3.982  17.054 -0.2814 -0.1057  0.0752
 2101TIP3    H127794   2.120   4.065  17.065  0.3123  0.4593 -1.4255
 2101TIP3    H227795   2.209   3.990  16.968 -0.6490 -2.1745 -0.3304
 2102TIP3   OH227796   3.151   0.514  13.440 -0.3693 -0.1415  0.3798
 2102TIP3    H127797   3.211   0.565  13.494  1.9982 -0.9579 -1.3422
 2102TIP3    H227798   3.149   0.427  13.482  1.2657 -0.6973 -0.5863
 2103TIP3   OH227799   4.489   3.733   2.622 -0.3505  0.3262 -0.0177
 2103TIP3    H127800   4.544   3.743   2.544  1.5987 -1.2691  1.0387
 2103TIP3    H227801   4.451   3.646   2.613 -1.0447  0.5935  0.2745
 2104TIP3   OH227802   5.893   1.953   1.304 -0.5260  0.1046 -0.1326
 2104TIP3    H127803   5.825   1.930   1.368  0.3340  0.3925  0.9222
 2104TIP3    H227804   5.890   1.883   1.239 -0.5127 -0.9490  0.9601
 2105TIP3   OH227805   1.566   6.747   5.603  0.4686  0.5453  0.3791
 2105TIP3    H127806   1.649   6.784   5.633 -0.0254  1.5345  0.5661
 2105TIP3    H227807   1.534   6.696   5.678  0.4153  1.0132  0.6806
 2106TIP3   OH227808   4.371   1.803  12.044  0.0547 -0.4669  0.4207
 2106TIP3    H127809   4.459   1.790  12.080  0.2536 -2.6691 -0.6836
 2106TIP3    H227810   4.375   1.764  11.957 -2.2504 -1.4735  0.6904
 2107TIP3   OH227811   5.006   4.176   3.797 -0.0561 -0.1385  0.4622
 2107TIP3    H127812   4.954   4.255   3.780  2.3880  1.4633 -0.0643
 2107TIP3    H227813   5.096   4.207   3.801  0.9491 -2.8480  0.9196
 2108TIP3   OH227814   5.227   6.412  13.223  0.5471  0.1009 -0.2621
 2108TIP3    H127815   5.207   6.453  13.307  1.3999 -0.4246  0.2170
 2108TIP3    H227816   5.243   6.320  13.245 -0.2825 -0.2802 -1.1638
 2109TIP3   OH227817   4.792   0.667   0.074  0.3187  0.1201  0.1226
 2109TIP3    H127818   4.717   0.671   0.015 -0.9754  2.1626  1.7466
 2109TIP3    H227819   4.840   0.749   0.058  0.9962 -0.1678  0.6157
 2110TIP3   OH227820   0.671   1.075  14.067  0.2966  0.3366  0.2951
 2110TIP3    H127821   0.629   0.994  14.040  0.3348  0.2421  0.5159
 2110TIP3    H227822   0.751   1.047  14.111  0.1222  0.4771  0.7092
 2111TIP3   OH227823   0.334   3.951   0.208  0.1673 -0.0272  0.3550
 2111TIP3    H127824   0.245   3.916   0.218  0.5527 -1.2135 -0.1897
 2111TIP3    H227825   0.324   4.021   0.143 -0.7280  1.4398  1.9669
 2112TIP3   OH227826   1.156   3.165   1.231 -0.0205 -0.2981  0.1678
 2112TIP3    H127827   1.207   3.106   1.286 -0.3539 -1.8169 -1.0663
 2112TIP3    H227828   1.133   3.238   1.288  1.0441 -0.9976  1.5494
 2113TIP3   OH227829   6.056   2.598   3.656 -0.5809  0.0398 -0.5082
 2113TIP3    H127830   6.011   2.594   3.740 -0.8165  0.0418 -0.6313
 2113TIP3    H227831   6.047   2.509   3.620 -1.6881  0.3798 -1.1409
 2114TIP3   OH227832   0.338   3.804   5.205 -0.0172 -0.2766 -0.0880
 2114TIP3    H127833   0.305   3.757   5.128 -0.9678 -0.4014  0.3914
 2114TIP3    H227834   0.351   3.735   5.270 -0.4131 -0.0069  0.2747
 2115TIP3   OH227835   5.581   4.460   0.237 -1.1267  0.7010 -0.1224
 2115TIP3    H127836   5.565   4.445   0.330 -0.4230  1.3373  0.1167
 2115TIP3    H227837   5.578   4.373   0.198 -0.7250  0.3386  0.6192
 2116TIP3   OH227838   2.886   6.749   4.735  0.6912  0.3941  0.0048
 2116TIP3    H127839   2.805   6.736   4.785 -0.7491 -1.6692 -2.6339
 2116TIP3    H227840   2.922   6.832   4.769 -2.1579  1.0585  1.7236
 2117TIP3   OH227841   0.821   4.314  13.813  0.3677 -0.1420 -0.4539
 2117TIP3    H127842   0.820   4.312  13.718 -0.2420  0.2035 -0.4589
 2117TIP3    H227843   0.729   4.302  13.838  0.7073 -1.8121  0.1198
 2118TIP3   OH227844   5.018   0.612  17.302 -0.1723 -0.8226  0.3428
 2118TIP3    H127845   5.047   0.542  17.243  2.6377 -0.4915  1.2085
 2118TIP3    H227846   4.966   0.670  17.246 -1.2241 -2.7104 -0.7558
 2119TIP3   OH227847   5.324   1.842  14.418 -0.1761 -0.5453 -0.4905
 2119TIP3    H127848   5.251   1.894  14.387 -0.3395 -0.4464  0.0462
 2119TIP3    H227849   5.287   1.755  14.435 -0.3598 -0.2859  0.5324
 2120TIP3   OH227850   2.114   0.557   1.324  0.3186 -0.7220  0.2948
 2120TIP3    H127851   2.068   0.639   1.339  0.6906 -0.4936  0.2176
 2120TIP3    H227852   2.128   0.554   1.229 -0.3932 -1.2623  0.1976
 2121TIP3   OH227853   1.466   1.495  16.034  0.2340 -0.5180 -0.1950
 2121TIP3    H127854   1.387   1.547  16.018 -0.2987 -1.1397  0.3387
 2121TIP3    H227855   1.466   1.430  15.964  0.0510 -0.7722  0.0401
 2122TIP3   OH227856   5.628   6.031   4.393  0.0551 -0.9923  1.0183
 2122TIP3    H127857   5.593   6.009   4.307  1.2818  2.2930 -0.5081
 2122TIP3    H227858   5.564   6.091   4.431  0.7480 -0.3437  1.1961
 2123TIP3   OH227859   3.768   0.992  15.138  0.0405 -0.0392 -0.3032
 2123TIP3    H127860   3.676   0.972  15.154  0.0469  1.4712  2.1048
 2123TIP3    H227861   3.767   1.067  15.079 -0.3195  0.4534  0.3198
 2124TIP3   OH227862   3.088   5.774  15.729  0.5052  0.0780 -0.9883
 2124TIP3    H127863   3.182   5.754  15.720  0.8106  1.0899 -0.1939
 2124TIP3    H227864   3.084   5.836  15.802 -0.7152  0.6228 -1.5089
 2125TIP3   OH227865   3.630   6.287   4.186  0.2138 -0.3426 -0.0676
 2125TIP3    H127866   3.606   6.370   4.146  1.6772  0.1643  0.0757
 2125TIP3    H227867   3.593   6.292   4.274  1.1180  0.5691  0.2693
 2126TIP3   OH227868   0.396   5.154   2.653  0.2083  0.2192  0.1214
 2126TIP3    H127869   0.372   5.144   2.560  0.6480  2.3839 -0.2597
 2126TIP3    H227870   0.344   5.228   2.684  2.3610  1.5702  0.7213
 2127TIP3   OH227871   3.550   3.098   6.406 -0.2055 -0.0583  0.0188
 2127TIP3    H127872   3.484   3.161   6.434 -0.3163  0.3156 -1.0276
 2127TIP3    H227873   3.614   3.096   6.477 -0.6934  0.5245  0.4772
 2128TIP3   OH227874   0.506   4.421  16.234  0.0928  0.2129  0.6707
 2128TIP3    H127875   0.575   4.429  16.169  0.9714 -1.0761  1.4103
 2128TIP3    H227876   0.457   4.504  16.228  1.9016  1.3001  0.3663
 2129TIP3   OH227877   5.627   4.236  12.256  0.2191  0.7952  0.3052
 2129TIP3    H127878   5.604   4.329  12.254 -0.5699  0.5963 -0.6178
 2129TIP3    H227879   5.565   4.194  12.197  0.4700 -0.3524  0.8111
 2130TIP3   OH227880   2.235   5.630  14.082  0.4784 -0.0300  0.1771
 2130TIP3    H127881   2.162   5.568  14.079 -0.1559  0.7384 -2.0415
 2130TIP3    H227882   2.193   5.716  14.093  1.1722  0.2881  0.4114
 2131TIP3   OH227883   3.966   5.033   3.677  0.0987 -0.2531  0.0688
 2131TIP3    H127884   3.941   4.955   3.627  0.9058 -0.9699  0.7272
 2131TIP3    H227885   3.886   5.084   3.684 -0.6801 -1.4593  0.3582
 2132TIP3   OH227886   4.735   5.925  11.929 -0.0001 -0.3660 -0.4309
 2132TIP3    H127887   4.691   5.950  12.011  2.0226  1.3170  0.2303
 2132TIP3    H227888   4.828   5.927  11.951  0.5376 -1.0371 -2.4936
 2133TIP3   OH227889   1.859   4.218  14.006  0.4748 -0.3616 -0.6186
 2133TIP3    H127890   1.829   4.210  13.915 -0.1306  0.9204 -0.5550
 2133TIP3    H227891   1.790   4.178  14.058  0.3306 -0.1691 -0.6611
 2134TIP3   OH227892   4.271   1.790   1.555  0.5875  1.1863 -0.5126
 2134TIP3    H127893   4.336   1.830   1.613  0.3659  1.3308 -0.3619
 2134TIP3    H227894   4.186   1.821   1.589  0.4491  1.1425 -0.8145
 2135TIP3   OH227895   2.150   5.574  12.799  0.0581  1.1094  0.1776
 2135TIP3    H127896   2.145   5.656  12.751  0.1166 -0.0446 -1.9369
 2135TIP3    H227897   2.097   5.513  12.748  0.8262 -0.4128  1.1309
 2136TIP3   OH227898   6.498   6.265  13.356  0.2578  0.0975 -0.4489
 2136TIP3    H127899   6.533   6.176  13.354 -0.2130 -0.0716 -1.9001
 2136TIP3    H227900   6.504   6.296  13.265  1.6984  2.0667  0.2312
 2137TIP3   OH227901   3.772   3.589   4.007 -0.2028 -0.6265 -0.4119
 2137TIP3    H127902   3.801   3.586   4.098 -1.4360  0.3821  0.0447
 2137TIP3    H227903   3.727   3.673   3.999  0.2148 -0.5326 -2.0640
 2138TIP3   OH227904   6.712   2.610   4.091 -0.0938  0.4525 -0.3954
 2138TIP3    H127905   6.747   2.624   4.004  0.3453  1.2851 -0.0952
 2138TIP3    H227906   6.654   2.684   4.106  0.6522  0.8918  0.4199
 2139TIP3   OH227907   2.398   2.031  13.999 -0.3688  0.1580 -0.2688
 2139TIP3    H127908   2.460   2.090  14.042 -1.6585  0.3486  1.4283
 2139TIP3    H227909   2.340   2.002  14.070 -1.0643 -1.4922 -1.4586
 2140TIP3   OH227910   5.424   3.312  14.812 -0.2445 -0.3487  0.7299
 2140TIP3    H127911   5.382   3.243  14.864 -1.5402  1.8624  2.8102
 2140TIP3    H227912   5.427   3.388  14.870  0.5366  1.5832 -1.6561
 2141TIP3   OH227913   3.935   4.793   3.530  0.0728 -0.1046  0.0446
 2141TIP3    H127914   3.851   4.755   3.505  0.8914 -1.9316 -0.0864
 2141TIP3    H227915   3.984   4.799   3.448 -0.1486  1.6288  0.0038
 2142TIP3   OH227916   4.792   5.115   4.799  0.4728  0.4131 -0.0515
 2142TIP3    H127917   4.740   5.131   4.878  0.1060 -0.4320 -0.1133
 2142TIP3    H227918   4.763   5.183   4.738 -1.4478 -0.7221 -0.4954
 2143TIP3   OH227919   1.347   2.370  16.570  0.2972  0.4184 -0.0621
 2143TIP3    H127920   1.421   2.347  16.628  0.6138 -0.4733 -0.7900
 2143TIP3    H227921   1.270   2.337  16.616  0.2424  1.9140  1.0083
 2144TIP3   OH227922   1.706   2.851   4.077  0.1569  0.0905 -0.3657
 2144TIP3    H127923   1.684   2.758   4.084  1.1599 -0.1800 -0.7002
 2144TIP3    H227924   1.659   2.882   4.000  1.2825 -0.5942 -1.3535
 2145TIP3   OH227925   6.016   4.426   3.463  0.0706  0.2580  0.6689
 2145TIP3    H127926   6.023   4.449   3.370  0.9229 -0.7349  0.4669
 2145TIP3    H227927   5.949   4.485   3.498  0.7606  1.6395 -0.2535
 2146TIP3   OH227928   5.471   1.840   5.527  0.5088  0.3795  0.2920
 2146TIP3    H127929   5.494   1.809   5.615 -0.5099 -1.2501  0.0274
 2146TIP3    H227930   5.522   1.786   5.468  1.0219  1.3191 -0.1480
 2147TIP3   OH227931   4.917   6.265  13.412  0.1055  0.5014  0.1181
 2147TIP3    H127932   4.883   6.276  13.500 -0.8744 -1.5294  0.0470
 2147TIP3    H227933   4.840   6.252  13.357  0.7944 -1.5104 -0.4720
 2148TIP3   OH227934   4.245   4.632  12.342 -0.0884  0.0608 -0.7265
 2148TIP3    H127935   4.294   4.563  12.298  0.5406 -0.4838  0.7507
 2148TIP3    H227936   4.153   4.610  12.327  0.1077 -0.9576 -0.5067
 2149TIP3   OH227937   3.600   4.476   0.451 -0.1582 -0.1499  0.1496
 2149TIP3    H127938   3.637   4.558   0.420  1.0967 -0.5817  0.4669
 2149TIP3    H227939   3.517   4.468   0.403 -0.9393  1.8962  1.0246
 2150TIP3   OH227940   1.345   4.610   0.512  0.1654  0.3043  0.5829
 2150TIP3    H127941   1.359   4.682   0.574  3.2659 -0.1979  0.6366
 2150TIP3    H227942   1.428   4.603   0.464 -1.1802 -1.1399 -1.7067
 2151TIP3   OH227943   5.343   4.468  15.037 -0.9049 -0.4047 -0.3041
 2151TIP3    H127944   5.366   4.376  15.050 -0.9488 -0.0736  3.0857
 2151TIP3    H227945   5.348   4.507  15.124 -0.1499  3.0286 -1.6927
 2152TIP3   OH227946   3.453   3.158   0.278 -0.4149  0.1540 -0.0507
 2152TIP3    H127947   3.535   3.168   0.229 -1.1299  0.1708 -1.2715
 2152TIP3    H227948   3.456   3.228   0.344  1.6635 -1.3470  1.6060
 2153TIP3   OH227949   3.413   0.840   3.549 -0.4870 -0.0803 -0.2250
 2153TIP3    H127950   3.426   0.907   3.615  0.9349 -0.0490 -0.4980
 2153TIP3    H227951   3.421   0.886   3.465  1.6429 -0.7208 -0.4275
 2154TIP3   OH227952   2.882   2.510  14.734  0.3303  1.1126  0.1107
 2154TIP3    H127953   2.895   2.587  14.788  0.0434  1.4776 -0.3324
 2154TIP3    H227954   2.952   2.513  14.669  2.2846 -0.6937  1.9485
 2155TIP3   OH227955   2.509   4.363   4.053  0.0441 -0.1224 -0.1549
 2155TIP3    H127956   2.497   4.326   4.141  2.1655  1.0825  0.7174
 2155TIP3    H227957   2.603   4.355   4.036  0.2751  2.8692 -0.7681
 2156TIP3   OH227958   2.327   0.304  13.902  0.2958 -0.0585 -0.1429
 2156TIP3    H127959   2.336   0.288  13.808 -1.7470 -0.9396 -0.2269
 2156TIP3    H227960   2.271   0.233  13.934  1.3276 -0.0536  1.8447
 2157TIP3   OH227961   0.306   6.273   2.316 -0.1147  0.6598 -0.0781
 2157TIP3    H127962   0.247   6.347   2.332  0.1019  0.7038  0.5339
 2157TIP3    H227963   0.263   6.223   2.246 -1.7146 -0.2006  1.4303
 2158TIP3   OH227964   5.325   6.768   4.035 -0.0042 -0.0959 -0.0660
 2158TIP3    H127965   5.301   6.860   4.032  2.1468  0.5995  1.5487
 2158TIP3    H227966   5.372   6.753   3.953  0.3961  0.5112  0.0421
 2159TIP3   OH227967   0.539   3.872   3.673 -0.3831  0.1625  0.1941
 2159TIP3    H127968   0.498   3.792   3.708  1.3124 -1.1682 -0.7395
 2159TIP3    H227969   0.479   3.901   3.605 -0.9448 -0.4038  0.4297
 2160TIP3   OH227970   6.386   3.965  15.902  0.3779 -0.0639  0.1570
 2160TIP3    H127971   6.440   4.003  15.833  0.7184 -0.8722 -0.0387
 2160TIP3    H227972   6.345   3.889  15.861 -0.4496  0.1933  0.4759
 2161TIP3   OH227973   3.569   4.220   0.604 -0.0689  0.5273 -0.5510
 2161TIP3    H127974   3.476   4.201   0.592 -0.6306  2.5407  0.0928
 2161TIP3    H227975   3.578   4.311   0.574  1.2456  1.0734  1.3291
 2162TIP3   OH227976   5.507   4.627   2.758  0.5256 -0.1274  0.3942
 2162TIP3    H127977   5.471   4.567   2.693  0.1911  1.5947 -1.0820
 2162TIP3    H227978   5.602   4.610   2.757  0.4960 -0.2721 -0.3939
 2163TIP3   OH227979   2.115   5.387   4.616 -0.9634 -0.1297 -0.4787
 2163TIP3    H127980   2.201   5.365   4.580  0.0337 -0.5028  1.9363
 2163TIP3    H227981   2.060   5.311   4.595  0.4428 -1.7719  1.3698
 2164TIP3   OH227982   4.629   2.642   2.171 -0.5167 -0.1395 -0.0828
 2164TIP3    H127983   4.561   2.614   2.232  1.1986 -0.1497  1.9380
 2164TIP3    H227984   4.698   2.577   2.180 -0.4092 -0.4843 -2.5543
 2165TIP3   OH227985   1.397   2.742  12.923 -0.0120 -0.0764  0.1351
 2165TIP3    H127986   1.348   2.807  12.973 -0.6943  0.6328 -1.4130
 2165TIP3    H227987   1.407   2.668  12.984 -1.8700  0.2715  0.9226
 2166TIP3   OH227988   5.909   6.084   0.058  0.5650 -0.3158  0.1759
 2166TIP3    H127989   5.836   6.099  -0.003  0.7975 -2.1319 -0.5908
 2166TIP3    H227990   5.867   6.082   0.144 -0.8632 -3.9792 -0.4041
 2167TIP3   OH227991   2.349   0.107   0.129 -0.0601 -0.3691 -0.5051
 2167TIP3    H127992   2.307   0.040   0.182  0.2440 -0.1945 -0.0394
 2167TIP3    H227993   2.440   0.078   0.120  0.1489  0.1211 -0.0505
 2168TIP3   OH227994   4.187   3.920   5.128 -0.1422  0.6392 -0.1158
 2168TIP3    H127995   4.129   3.992   5.154  0.1737  0.7433  0.3034
 2168TIP3    H227996   4.266   3.932   5.181 -0.9522 -1.3356  1.7035
 2169TIP3   OH227997   0.246   6.564   4.600  0.1308  0.4641  0.0080
 2169TIP3    H127998   0.195   6.571   4.681 -1.2358 -0.3160 -0.7447
 2169TIP3    H227999   0.239   6.650   4.559  0.0203  0.5718  0.2550
 2170TIP3   OH228000   5.978   1.882  13.582 -0.1653 -0.2708 -0.2655
 2170TIP3    H128001   5.974   1.791  13.552 -0.4739 -0.2441 -0.3046
 2170TIP3    H228002   6.011   1.875  13.672 -1.8064 -0.5564  0.3397
 2171TIP3   OH228003   1.439   4.207  10.511 -0.1780 -0.0715 -0.1047
 2171TIP3    H128004   1.402   4.260  10.582 -1.9619 -0.9821 -0.3070
 2171TIP3    H228005   1.393   4.235  10.433  1.3176  0.4577 -0.8457
 2172TIP3   OH228006   5.148   4.899  15.537 -0.0239  0.3498 -0.0419
 2172TIP3    H128007   5.225   4.867  15.491 -0.7604 -1.8022  0.0981
 2172TIP3    H228008   5.110   4.965  15.478  1.8306  1.3786 -0.1405
 2173TIP3   OH228009   0.587   0.419   3.262 -0.1850 -0.0135  0.2488
 2173TIP3    H128010   0.552   0.410   3.351 -0.2590  0.8718  0.3245
 2173TIP3    H228011   0.512   0.401   3.205 -0.4383  0.5689  0.3892
 2174TIP3   OH228012   5.744   3.208  15.268 -0.0004  0.1252 -0.5040
 2174TIP3    H128013   5.800   3.158  15.327 -0.7814 -1.8186 -1.3551
 2174TIP3    H228014   5.702   3.143  15.212 -1.5649  1.6741 -1.2449
 2175TIP3   OH228015   2.216   1.146  16.825  0.3514  0.0127 -0.6347
 2175TIP3    H128016   2.303   1.125  16.790  0.7952  0.5456  0.1054
 2175TIP3    H228017   2.201   1.081  16.893  0.6886  0.6096  0.0273
 2176TIP3   OH228018   5.824   0.146  12.606 -0.0144 -0.3343  0.2580
 2176TIP3    H128019   5.738   0.108  12.590  0.2656 -1.2257  0.8017
 2176TIP3    H228020   5.814   0.194  12.689 -0.6613  1.7641 -0.9627
 2177TIP3   OH228021   4.076   3.854  14.725 -0.1925  0.2273  0.2956
 2177TIP3    H128022   4.022   3.894  14.658  0.8498  0.0669 -0.6803
 2177TIP3    H228023   4.016   3.800  14.777 -1.1107  0.8265 -0.1330
 2178TIP3   OH228024   4.337   6.465  11.230 -0.0117 -0.4695 -0.1742
 2178TIP3    H128025   4.262   6.406  11.235 -1.7347  1.4629 -1.5539
 2178TIP3    H228026   4.339   6.510  11.314  1.5091 -2.5851  1.0129
 2179TIP3   OH228027   0.386   3.596  15.743  0.1224  0.4003 -0.3366
 2179TIP3    H128028   0.366   3.684  15.775  0.6439 -0.1146  1.5510
 2179TIP3    H228029   0.341   3.590  15.659 -0.4655  2.2381 -0.1915
 2180TIP3   OH228030   5.002   0.930   6.360 -0.6203 -0.5816 -0.1771
 2180TIP3    H128031   4.959   0.920   6.274 -1.2593 -0.3893  0.1140
 2180TIP3    H228032   5.091   0.957   6.339 -0.3414 -1.9097 -0.8259
 2181TIP3   OH228033   0.977   1.663  16.411  0.0117 -0.1830  0.0551
 2181TIP3    H128034   0.945   1.654  16.321  1.2276  0.3295 -0.4527
 2181TIP3    H228035   1.064   1.622  16.410 -0.2640 -0.8278  1.1833
 2182TIP3   OH228036   2.542   5.509  12.601  0.0426 -0.7946 -0.6066
 2182TIP3    H128037   2.552   5.588  12.549 -0.6443 -0.6296 -0.4923
 2182TIP3    H228038   2.606   5.448  12.564 -0.1155 -0.5237 -1.3426
 2183TIP3   OH228039   3.027   1.403   0.947 -0.7978 -0.4900  0.5381
 2183TIP3    H128040   3.017   1.449   1.030 -0.0309 -0.9586  0.8992
 2183TIP3    H228041   2.973   1.453   0.885 -1.4732 -0.2072  1.3357
 2184TIP3   OH228042   4.710   5.870  11.225 -0.4126  0.4278  0.6445
 2184TIP3    H128043   4.626   5.861  11.179 -1.2318  0.2173  2.1365
 2184TIP3    H228044   4.688   5.867  11.318  1.3610 -0.5778  1.0829
 2185TIP3   OH228045   0.122   0.622  12.036  0.3294 -0.7642 -0.5452
 2185TIP3    H128046   0.187   0.692  12.028 -0.2716 -0.0016  0.9215
 2185TIP3    H228047   0.075   0.624  11.952  0.2070  0.7318 -0.4770
 2186TIP3   OH228048   4.325   0.392   2.648  0.2441 -0.1208 -0.3807
 2186TIP3    H128049   4.293   0.465   2.703  1.1058 -0.1541  0.1755
 2186TIP3    H228050   4.252   0.330   2.646  0.2440 -0.1843  0.8600
 2187TIP3   OH228051   6.170   3.224   3.759 -0.0484  0.1392  0.1316
 2187TIP3    H128052   6.127   3.284   3.697 -0.7744  1.1260  1.5286
 2187TIP3    H228053   6.263   3.249   3.756 -0.4560  2.0157  1.3252
 2188TIP3   OH228054   0.573   6.258   5.412  0.6634 -0.1962 -0.2282
 2188TIP3    H128055   0.597   6.202   5.485  1.0113 -0.3606 -0.4684
 2188TIP3    H228056   0.544   6.198   5.344  0.2986 -0.0402 -0.2085
 2189TIP3   OH228057   4.465   4.460   1.499  0.2226  0.1159 -0.1725
 2189TIP3    H128058   4.390   4.429   1.550 -0.8456 -0.2542 -1.8681
 2189TIP3    H228059   4.441   4.440   1.408  1.7266  1.3726 -0.8837
 2190TIP3   OH228060   1.717   1.572  11.066  0.5954 -0.4369 -0.1429
 2190TIP3    H128061   1.728   1.479  11.088  1.2634 -0.5275 -0.8112
 2190TIP3    H228062   1.654   1.572  10.994 -0.5699 -0.2445  0.8539
 2191TIP3   OH228063   4.293   4.075   2.984  0.6325  0.2490 -0.3208
 2191TIP3    H128064   4.385   4.062   2.960  0.6948  0.4091 -0.1690
 2191TIP3    H228065   4.259   3.986   2.995  0.5550  0.1628 -1.1758
 2192TIP3   OH228066   5.103   2.096  12.578 -0.5046  0.1623  0.5150
 2192TIP3    H128067   5.054   2.128  12.654  0.5511 -1.5318  2.0045
 2192TIP3    H228068   5.156   2.171  12.551 -0.8321  0.7864  1.5406
 2193TIP3   OH228069   5.165   3.613  17.273 -0.2526  0.4057 -0.0359
 2193TIP3    H128070   5.210   3.608  17.357 -1.5802  1.8387  0.8090
 2193TIP3    H228071   5.080   3.573  17.289  0.5207 -2.0445 -1.5490
 2194TIP3   OH228072   2.160   3.288  11.931 -0.0682 -0.1742 -0.3505
 2194TIP3    H128073   2.070   3.258  11.923  0.1248 -0.8228 -0.1388
 2194TIP3    H228074   2.176   3.295  12.025  0.0823  0.0059 -0.3866
 2195TIP3   OH228075   0.850   3.328   2.968 -0.4011  0.2263 -0.3865
 2195TIP3    H128076   0.875   3.348   3.058 -0.4726  0.4913 -0.4221
 2195TIP3    H228077   0.931   3.301   2.926 -0.1719  1.0236 -0.4862
 2196TIP3   OH228078   0.799   5.905  12.603 -0.1100 -0.5528  0.0849
 2196TIP3    H128079   0.832   5.953  12.679 -1.3025  0.8063 -0.2091
 2196TIP3    H228080   0.869   5.912  12.538 -0.5307  1.5945 -0.2434
 2197TIP3   OH228081   5.508   3.850  13.996  0.2075  0.3894 -0.2332
 2197TIP3    H128082   5.442   3.879  13.933  1.8028 -1.6069 -3.1021
 2197TIP3    H228083   5.475   3.877  14.081 -3.9408  0.0949 -1.5447
 2198TIP3   OH228084   1.595   2.864  12.432 -0.4469 -0.3012  0.0229
 2198TIP3    H128085   1.567   2.773  12.422  0.3670 -0.7032  1.2407
 2198TIP3    H228086   1.690   2.859  12.445 -0.3983  0.7256  0.1693
 2199TIP3   OH228087   0.735   5.271   1.130 -0.3419  0.3220  0.0832
 2199TIP3    H128088   0.668   5.204   1.142 -0.6265  0.6254  0.2237
 2199TIP3    H228089   0.711   5.340   1.192  1.4379 -0.5731  1.8386
 2200TIP3   OH228090   5.652   3.523  11.987 -0.4595  0.3020  0.0159
 2200TIP3    H128091   5.637   3.456  12.053  1.6919 -0.0103  0.2835
 2200TIP3    H228092   5.633   3.480  11.904  0.5265 -0.5550  0.2111
 2201TIP3   OH228093   0.015   1.405   4.127  0.4752  0.0177 -0.7565
 2201TIP3    H128094   0.040   1.497   4.131 -1.3316  0.6441 -2.1905
 2201TIP3    H228095  -0.078   1.405   4.150  1.1544 -1.9400  2.6437
 2202TIP3   OH228096   6.199   6.560   0.045 -0.6092 -0.2702 -1.0341
 2202TIP3    H128097   6.211   6.518   0.131 -2.5535  1.1796  0.0497
 2202TIP3    H228098   6.156   6.494  -0.008  3.2018 -2.2266 -1.9692
 2203TIP3   OH228099   5.210   1.900   5.964  0.2620 -0.0457  0.2464
 2203TIP3    H128100   5.271   1.922   6.035 -0.4399 -0.5161  1.0162
 2203TIP3    H228101   5.146   1.841   6.005 -0.4275  0.0506 -0.6619
 2204TIP3   OH228102   4.348   5.364   1.996 -0.0337  0.3849 -0.0676
 2204TIP3    H128103   4.285   5.319   1.941 -1.3459  1.0378  0.8336
 2204TIP3    H228104   4.428   5.366   1.944 -0.5346 -1.0869 -0.9649
 2205TIP3   OH228105   6.506   2.635  13.836  0.3195 -0.3158  0.6647
 2205TIP3    H128106   6.488   2.695  13.908  1.4158  0.0892  0.6236
 2205TIP3    H228107   6.510   2.549  13.878 -1.3843 -0.3956  0.7025
 2206TIP3   OH228108   5.281   5.758  14.112 -0.0480 -0.2095 -0.6061
 2206TIP3    H128109   5.257   5.670  14.142 -0.7420 -0.4973 -1.9426
 2206TIP3    H228110   5.198   5.804  14.104  0.3657  0.8775  0.8897
 2207TIP3   OH228111   2.856   3.271   4.290 -0.1639  0.4672  0.6097
 2207TIP3    H128112   2.926   3.329   4.260 -1.4131  2.1423  0.7320
 2207TIP3    H228113   2.842   3.211   4.217  1.9428 -0.4961  0.9302
 2208TIP3   OH228114   4.657   6.023   5.711  0.3328  0.2068 -0.1937
 2208TIP3    H128115   4.597   6.046   5.782 -1.3917 -1.4992 -1.0256
 2208TIP3    H228116   4.734   5.987   5.756 -1.5400 -2.7792  0.9009
 2209TIP3   OH228117   2.137   5.080  12.437  0.0541 -0.1038 -0.2341
 2209TIP3    H128118   2.150   5.169  12.471  0.8926  0.0830 -1.0040
 2209TIP3    H228119   2.044   5.063  12.450 -0.2676  1.1604 -0.6827
 2210TIP3   OH228120   4.943   4.940   5.052  0.6661  0.4560 -0.2687
 2210TIP3    H128121   4.868   4.924   4.994 -2.6901 -3.1440  4.2932
 2210TIP3    H228122   5.004   4.870   5.032 -0.5366 -0.8501  0.4475
 2211TIP3   OH228123   5.431   4.067  13.410  0.6403 -0.4394 -0.0409
 2211TIP3    H128124   5.466   4.020  13.334 -1.8214 -1.4457 -0.6637
 2211TIP3    H228125   5.348   4.104  13.379  0.6144  0.9840  1.5776
 2212TIP3   OH228126   0.102   0.314  11.850 -0.7532  0.5167  0.0332
 2212TIP3    H128127   0.133   0.404  11.859 -0.2311  0.3428  0.0077
 2212TIP3    H228128   0.173   0.269  11.804 -0.5664 -0.1450  0.9473
 2213TIP3   OH228129   1.265   1.008   1.826  0.2047 -0.3765  0.0493
 2213TIP3    H128130   1.170   1.017   1.822  0.3137  1.2404  0.2327
 2213TIP3    H228131   1.284   0.925   1.784 -1.2857 -0.6864 -0.0468
 2214TIP3   OH228132   5.063   1.670   3.566  0.0295 -0.6215 -0.0921
 2214TIP3    H128133   5.004   1.598   3.589  2.8434 -2.6582  1.3124
 2214TIP3    H228134   5.091   1.649   3.477 -0.0296 -0.6120 -0.1134
 2215TIP3   OH228135   1.864   1.818  15.736 -0.6660  0.1381 -0.2271
 2215TIP3    H128136   1.895   1.787  15.821 -0.9032  1.0800  0.2064
 2215TIP3    H228137   1.860   1.913  15.744 -1.3608  0.1937 -1.0612
 2216TIP3   OH228138   5.893   0.651   5.136  0.1520 -0.6533  0.5808
 2216TIP3    H128139   5.814   0.597   5.146  0.5523 -1.0027  2.2104
 2216TIP3    H228140   5.953   0.597   5.085 -0.7721 -0.2197 -1.0440
 2217TIP3   OH228141   0.757   5.237   4.193  0.0283  0.1709  0.2083
 2217TIP3    H128142   0.724   5.326   4.189  0.2773  0.2584  0.0977
 2217TIP3    H228143   0.702   5.194   4.259 -0.8580  0.0789 -0.5702
 2218TIP3   OH228144   2.962   6.095   2.010 -0.0828  0.5585  0.3737
 2218TIP3    H128145   2.907   6.173   2.016 -0.4167  0.2923  0.8383
 2218TIP3    H228146   2.908   6.031   1.964  0.1866  0.5993  0.0018
 2219TIP3   OH228147   3.814   2.594   4.795  0.6953 -0.0717 -0.3410
 2219TIP3    H128148   3.725   2.575   4.764  0.8576 -1.5196  0.0512
 2219TIP3    H228149   3.844   2.665   4.738 -0.2864 -0.3564 -1.2421
 2220TIP3   OH228150   5.713   3.732  13.447 -0.2510  0.3956  0.0580
 2220TIP3    H128151   5.765   3.794  13.499  0.1142  0.2134 -0.0864
 2220TIP3    H228152   5.772   3.659  13.431 -0.8403 -0.2240  0.6489
 2221TIP3   OH228153   0.330   2.905   1.324  0.1911  0.1288 -0.3720
 2221TIP3    H128154   0.295   2.852   1.395  1.0895 -1.5995 -1.1413
 2221TIP3    H228155   0.405   2.950   1.362  0.1991 -0.1760 -0.0215
 2222TIP3   OH228156   3.156   6.645  13.790  0.3112  0.1384  0.6654
 2222TIP3    H128157   3.075   6.679  13.827 -0.8047 -1.3557 -0.3161
 2222TIP3    H228158   3.176   6.568  13.843  1.2300  0.6121  1.0332
 2223TIP3   OH228159   1.357   5.445   3.071  0.4345 -0.1740  0.7028
 2223TIP3    H128160   1.293   5.385   3.032 -0.8599 -0.0053  2.4552
 2223TIP3    H228161   1.306   5.497   3.133  2.1070  0.6783  1.4116
 2224TIP3   OH228162   5.881   0.747  14.745  0.2260 -0.3213 -0.5328
 2224TIP3    H128163   5.889   0.818  14.681 -0.1677 -1.3212 -1.7274
 2224TIP3    H228164   5.787   0.728  14.748  0.3002 -0.6340 -0.0320
 2225TIP3   OH228165   0.083   1.494   0.579 -0.3996  0.1514  0.6330
 2225TIP3    H128166   0.049   1.512   0.492  1.2094 -0.1993 -0.1078
 2225TIP3    H228167   0.092   1.399   0.582  2.8831  0.3358 -0.2119
 2226TIP3   OH228168   6.765   6.152   6.154 -0.1351  0.6390  0.3820
 2226TIP3    H128169   6.823   6.085   6.190 -0.2622  0.4010  0.1474
 2226TIP3    H228170   6.814   6.234   6.164 -0.6740  0.7700  2.2445
 2227TIP3   OH228171   4.959   1.694  13.503 -0.2678  0.1887 -0.2968
 2227TIP3    H128172   4.975   1.600  13.493 -0.6396  0.2544 -1.7482
 2227TIP3    H228173   4.877   1.699  13.552 -0.0683 -0.2409  0.0865
 2228TIP3   OH228174   6.776   3.957  11.782  0.9546  0.2037 -0.0029
 2228TIP3    H128175   6.763   3.961  11.687  0.6878 -0.6009 -0.0038
 2228TIP3    H228176   6.689   3.942  11.818  0.9119  1.4164  0.4431
 2229TIP3   OH228177   2.830   4.369   3.083  0.2797 -0.6875  0.0799
 2229TIP3    H128178   2.776   4.406   3.153  2.1205  2.6194 -0.0492
 2229TIP3    H228179   2.772   4.369   3.006 -0.6359 -0.7566  0.7559
 2230TIP3   OH228180   5.658   4.619  11.325  0.3664  0.4356 -0.2727
 2230TIP3    H128181   5.617   4.552  11.270 -0.5265  0.6969  0.0569
 2230TIP3    H228182   5.712   4.569  11.387 -1.5221 -0.1302  1.0070
 2231TIP3   OH228183   6.237   5.152  12.392  0.0317 -0.5536 -0.0571
 2231TIP3    H128184   6.185   5.197  12.458  0.7969  0.8907 -0.4097
 2231TIP3    H228185   6.327   5.155  12.425  0.3714 -0.1225 -0.9940
 2232TIP3   OH228186   6.577   6.283   2.894  0.0072  0.5243  0.0929
 2232TIP3    H128187   6.500   6.338   2.880 -0.3452  0.0215  0.0453
 2232TIP3    H228188   6.609   6.308   2.981 -1.1065 -0.3486  0.7685
 2233TIP3   OH228189   3.672   5.946   6.476 -0.4334  0.9577 -0.0616
 2233TIP3    H128190   3.633   6.013   6.532  0.9828  1.7213  0.0662
 2233TIP3    H228191   3.652   5.863   6.520  0.6732  1.5373  1.6252
 2234TIP3   OH228192   0.222   0.709  15.220 -0.0041  0.1075  0.5767
 2234TIP3    H128193   0.184   0.647  15.158 -1.1666  0.3216  1.0542
 2234TIP3    H228194   0.276   0.655  15.279 -0.2631 -0.3191  0.4208
 2235TIP3   OH228195   4.327   6.178   1.267  0.1643  0.3117 -0.2697
 2235TIP3    H128196   4.314   6.246   1.333 -0.4887  0.8313 -0.9118
 2235TIP3    H228197   4.238   6.150   1.244  0.4120 -0.4271 -0.3487
 2236TIP3   OH228198   1.157   3.646  13.005 -0.0367 -0.1278 -0.4109
 2236TIP3    H128199   1.237   3.617  12.963 -0.2417  0.4570 -1.2397
 2236TIP3    H228200   1.157   3.604  13.091 -1.4420 -4.4949 -2.2603
 2237TIP3   OH228201   0.504   3.109   3.681 -0.3344 -0.1369  0.3929
 2237TIP3    H128202   0.515   3.198   3.714  0.4762 -0.1641  0.2301
 2237TIP3    H228203   0.559   3.056   3.739  1.4892 -0.1267 -1.2328
 2238TIP3   OH228204   2.790   2.519  12.121  0.6058  0.5536  0.0104
 2238TIP3    H128205   2.772   2.574  12.044  1.6740  0.4624 -0.3282
 2238TIP3    H228206   2.856   2.568  12.170 -0.0960  0.6304  0.9163
 2239TIP3   OH228207   1.991   6.548  14.451 -0.0006 -0.6546  0.5377
 2239TIP3    H128208   1.927   6.484  14.421  0.2991 -0.7101 -0.0006
 2239TIP3    H228209   2.073   6.498  14.459 -0.2027 -0.8026  2.1233
 2240TIP3   OH228210   2.287   3.454  12.725 -0.1344  0.2690 -0.4397
 2240TIP3    H128211   2.291   3.525  12.789 -0.2955 -0.3941  0.3346
 2240TIP3    H228212   2.356   3.393  12.754  0.9716  0.7592 -1.9174
 2241TIP3   OH228213   6.207   4.922   0.398  0.3158  0.0330  0.3215
 2241TIP3    H128214   6.211   5.018   0.402  2.4493  0.0583 -1.1797
 2241TIP3    H228215   6.285   4.892   0.444  0.5440 -0.9242 -0.6479
 2242TIP3   OH228216   2.880   0.087  15.861 -0.4699 -0.1578 -0.8872
 2242TIP3    H128217   2.849   0.134  15.784 -0.2880 -0.4807 -1.1615
 2242TIP3    H228218   2.967   0.055  15.837  0.6142  1.7177  0.2844
 2243TIP3   OH228219   2.797   4.015   5.626 -0.1992  0.3687  0.0814
 2243TIP3    H128220   2.743   3.937   5.639  0.7768 -0.4523 -0.6132
 2243TIP3    H228221   2.887   3.982   5.628  0.2447  1.5477  0.1878
 2244TIP3   OH228222   5.411   2.552   3.505  0.0052 -0.6585  0.3468
 2244TIP3    H128223   5.482   2.539   3.441 -1.5774 -0.7097 -1.5059
 2244TIP3    H228224   5.404   2.467   3.549 -0.7487 -1.6269 -1.4983
 2245TIP3   OH228225   1.287   5.045  17.008  0.0029  0.2180 -0.2244
 2245TIP3    H128226   1.380   5.027  16.995 -0.0356 -0.5546  0.5218
 2245TIP3    H228227   1.252   5.053  16.919  0.3284 -1.9229 -0.6039
 2246TIP3   OH228228   6.624   3.394  15.861  0.5690  0.4884 -0.2727
 2246TIP3    H128229   6.675   3.367  15.784  1.1789 -0.3721  0.4121
 2246TIP3    H228230   6.643   3.327  15.927 -1.9452 -0.2632 -0.1862
 2247TIP3   OH228231   0.187   2.603   4.318 -0.6612  0.5475  0.0374
 2247TIP3    H128232   0.115   2.573   4.374 -0.8914 -0.2232 -0.6620
 2247TIP3    H228233   0.145   2.665   4.257 -0.6795  0.3010 -0.1998
 2248TIP3   OH228234   2.462   3.293  12.853  0.0599 -0.0610 -0.2507
 2248TIP3    H128235   2.546   3.337  12.843 -1.0636  2.5706  1.0958
 2248TIP3    H228236   2.474   3.235  12.929  0.4447  0.8708  0.4135
 2249TIP3   OH228237   1.698   4.110   3.686 -0.0926 -0.2597 -0.1948
 2249TIP3    H128238   1.641   4.057   3.741  1.9085  0.0832  2.4085
 2249TIP3    H228239   1.661   4.198   3.691  0.8721  0.0971  2.0148
 2250TIP3   OH228240   2.721   4.201  10.729 -0.2484  0.3903  0.3600
 2250TIP3    H128241   2.796   4.230  10.678 -2.0967 -0.4323 -3.1026
 2250TIP3    H228242   2.739   4.109  10.748  0.6072  0.7900  1.6597
 2251TIP3   OH228243   1.303   3.569  15.316 -0.4260 -0.1030  0.2830
 2251TIP3    H128244   1.211   3.568  15.288 -0.0727  1.1966 -1.0719
 2251TIP3    H228245   1.301   3.613  15.402 -0.8907  2.0228 -0.7315
 2252TIP3   OH228246   3.225   2.950  11.089 -0.2977  0.0782  0.2362
 2252TIP3    H128247   3.316   2.921  11.088 -0.6973 -1.4223  1.7562
 2252TIP3    H228248   3.190   2.922  11.004  0.2354 -0.9017  0.3194
 2253TIP3   OH228249   1.929   1.787  17.344  0.5037  0.1695  0.1336
 2253TIP3    H128250   1.910   1.752  17.257 -0.5930  2.1584 -0.4956
 2253TIP3    H228251   2.025   1.797  17.344  0.4049  1.9640 -1.6821
 2254TIP3   OH228252   6.776   4.914   2.771 -0.5762 -0.0403  0.0899
 2254TIP3    H128253   6.780   4.835   2.824 -1.8130 -0.0427  0.2044
 2254TIP3    H228254   6.715   4.893   2.700  1.2224 -0.1250 -1.5263
 2255TIP3   OH228255   6.675   4.518   5.406 -0.0273 -0.1141  0.1492
 2255TIP3    H128256   6.703   4.451   5.344  1.4015 -0.4444  1.1002
 2255TIP3    H228257   6.659   4.470   5.488 -3.7035 -0.0055 -0.3063
 2256TIP3   OH228258   1.734   1.575   4.802 -0.0965  0.0889 -0.4588
 2256TIP3    H128259   1.808   1.519   4.827 -0.0804 -0.1228 -0.9679
 2256TIP3    H228260   1.739   1.579   4.707  0.5069  1.7886 -0.3938
 2257TIP3   OH228261   3.434   3.980   3.132 -0.8767  0.1084  0.0216
 2257TIP3    H128262   3.351   3.935   3.149 -1.2550  0.5709 -0.5913
 2257TIP3    H228263   3.501   3.912   3.143 -1.4171 -0.5314 -0.5744
 2258TIP3   OH228264   2.814   4.654   5.298  0.5329  0.1256  0.8055
 2258TIP3    H128265   2.886   4.615   5.247  1.0052  1.3183  0.5145
 2258TIP3    H228266   2.858   4.699   5.370  0.3581  2.9159 -0.6897
 2259TIP3   OH228267   1.588   4.174  16.324  0.3573 -0.3063 -0.1973
 2259TIP3    H128268   1.535   4.139  16.252  0.0877 -0.8829  0.2716
 2259TIP3    H228269   1.541   4.149  16.403 -0.1291  1.6080  0.1588
 2260TIP3   OH228270   5.553   6.429  16.430 -0.0434 -0.0458 -0.6442
 2260TIP3    H128271   5.570   6.455  16.520  1.4670 -1.4215 -0.5048
 2260TIP3    H228272   5.468   6.386  16.433 -1.7570  3.0055 -0.5658
 2261TIP3   OH228273   6.744   2.377   4.704  0.3217 -0.1093 -0.1133
 2261TIP3    H128274   6.817   2.321   4.678 -0.1543 -1.4660  1.2527
 2261TIP3    H228275   6.746   2.375   4.800 -1.8003 -0.6476 -0.0230
 2262TIP3   OH228276   5.798   4.353   4.869  0.5741 -0.0426  0.3504
 2262TIP3    H128277   5.785   4.283   4.933  0.7861  1.3182  1.9649
 2262TIP3    H228278   5.887   4.341   4.838  0.6266 -0.4655  0.6612
 2263TIP3   OH228279   0.074   2.687  15.442 -0.1172  0.6544  0.4209
 2263TIP3    H128280  -0.001   2.671  15.385  1.0750 -1.9373 -0.5627
 2263TIP3    H228281   0.064   2.624  15.513  1.3137  0.0007  0.0635
 2264TIP3   OH228282   3.801   2.857  17.449  0.2550  0.1009 -0.6162
 2264TIP3    H128283   3.760   2.940  17.470 -1.1924 -0.6339 -0.4206
 2264TIP3    H228284   3.805   2.809  17.532  0.4239 -0.3078 -0.8535
 2265TIP3   OH228285   5.550   0.606   4.203 -0.0616 -0.4212  0.2799
 2265TIP3    H128286   5.537   0.516   4.173 -0.6414 -0.5757  0.9518
 2265TIP3    H228287   5.461   0.638   4.220  0.0477  0.6772 -1.0495
 2266TIP3   OH228288   6.214   1.290   3.439  0.1290  0.5402  0.7041
 2266TIP3    H128289   6.210   1.286   3.344  0.6545 -2.6515  0.6865
 2266TIP3    H228290   6.297   1.247   3.461 -0.1752  0.8605  2.6215
 2267TIP3   OH228291   5.143   2.234  16.977  0.2232 -0.5722  0.0887
 2267TIP3    H128292   5.126   2.142  16.956  0.8372 -0.3733 -1.4498
 2267TIP3    H228293   5.065   2.280  16.947  0.2823 -0.4961  0.0540
 2268TIP3   OH228294   3.418   0.354   0.943  0.1577  0.4105  0.5323
 2268TIP3    H128295   3.494   0.296   0.948  0.5362  0.8314 -0.1852
 2268TIP3    H228296   3.445   0.424   0.884 -0.7855  0.5774  0.2817
 2269TIP3   OH228297   2.420   6.304   0.408  0.3663 -0.6953  0.4475
 2269TIP3    H128298   2.362   6.258   0.348  0.1451 -1.9980  1.6023
 2269TIP3    H228299   2.386   6.283   0.495  1.3825  0.1574  1.0745
 2270TIP3   OH228300   5.129   5.187   6.256 -0.2233  0.0550 -0.0934
 2270TIP3    H128301   5.054   5.243   6.237  0.9983  1.8266  0.0215
 2270TIP3    H228302   5.176   5.181   6.173  1.6864  2.4609  0.7078
 2271TIP3   OH228303   4.492   0.019   4.577  0.2157 -0.4067 -0.0810
 2271TIP3    H128304   4.400  -0.004   4.565  0.4564 -0.4613 -2.1852
 2271TIP3    H228305   4.500   0.037   4.670 -1.8978 -0.5149  0.1738
 2272TIP3   OH228306   6.024   4.719   6.546 -0.6834 -0.1828  0.4808
 2272TIP3    H128307   5.930   4.720   6.529 -0.8378 -2.5712  0.8527
 2272TIP3    H228308   6.033   4.752   6.635 -1.3225 -1.1557  0.9197
 2273TIP3   OH228309   5.884   2.123   3.303 -0.1186 -0.0806  0.0796
 2273TIP3    H128310   5.909   2.092   3.216  0.0707 -0.3507  0.2275
 2273TIP3    H228311   5.866   2.216   3.291 -2.1545 -0.5286 -0.6883
 2274TIP3   OH228312   1.536   6.511   1.481 -0.0231 -0.2746 -0.3138
 2274TIP3    H128313   1.509   6.549   1.397 -2.2495  0.4219  0.6381
 2274TIP3    H228314   1.555   6.420   1.461  4.1867  0.8000 -2.4303
 2275TIP3   OH228315   4.470   5.185  12.450  0.0048  0.2766 -0.1585
 2275TIP3    H128316   4.384   5.210  12.416  1.1033  0.4947 -3.0545
 2275TIP3    H228317   4.516   5.268  12.459  0.0443  0.1316  1.0447
 2276TIP3   OH228318   1.212   2.421  12.958  0.1444  0.2625  0.3070
 2276TIP3    H128319   1.126   2.392  12.926 -0.2273  0.7158  0.8659
 2276TIP3    H228320   1.193   2.503  13.005  1.3968  2.6961 -3.0475
 2277TIP3   OH228321   1.816   0.289   5.470  0.2503  0.0596 -0.0045
 2277TIP3    H128322   1.860   0.244   5.542  2.0439 -1.4937 -1.9118
 2277TIP3    H228323   1.725   0.261   5.477 -0.1543  1.7498  2.8910
 2278TIP3   OH228324   0.376   3.866   1.546  0.0571  0.0640 -0.8079
 2278TIP3    H128325   0.456   3.832   1.586 -0.3381  0.6408  0.5453
 2278TIP3    H228326   0.306   3.835   1.603 -0.6076  0.2899 -1.4897
 2279TIP3   OH228327   3.306   4.467  14.650 -0.1364  0.1908  0.0787
 2279TIP3    H128328   3.230   4.502  14.603  0.9173  1.0903 -1.0089
 2279TIP3    H228329   3.356   4.419  14.584  1.3003  1.3668  0.2501
 2280TIP3   OH228330   4.663   5.001   4.287  0.0505 -0.2127  0.3755
 2280TIP3    H128331   4.610   5.061   4.236 -1.2852 -3.3367 -2.3226
 2280TIP3    H228332   4.626   4.914   4.269  3.3224 -2.1711  1.9194
 2281TIP3   OH228333   1.790   1.016   4.857 -0.4212  0.0845 -0.4685
 2281TIP3    H128334   1.722   1.007   4.925 -0.4710 -0.5756 -0.5986
 2281TIP3    H228335   1.757   0.963   4.784  0.8710 -1.3850 -0.0349
 2282TIP3   OH228336   2.236   5.167  13.709  0.6472  0.3468 -0.0251
 2282TIP3    H128337   2.187   5.084  13.714 -0.8269  1.0304 -1.8194
 2282TIP3    H228338   2.297   5.154  13.636  0.6043  0.7311 -0.1325
 2283TIP3   OH228339   4.655   6.576   0.423  0.4859  0.5397  0.0370
 2283TIP3    H128340   4.712   6.577   0.500 -0.2841  1.1545  0.6281
 2283TIP3    H228341   4.697   6.517   0.361  0.6096 -0.7859  1.3374
 2284TIP3   OH228342   5.563   3.685   5.342 -0.2352  0.1657  0.7943
 2284TIP3    H128343   5.639   3.641   5.304 -0.6713 -0.2261  0.3598
 2284TIP3    H228344   5.518   3.724   5.267  0.2416  1.5154  1.1883
 2285TIP3   OH228345   3.552   3.448  12.762  0.4690 -0.3458 -0.3561
 2285TIP3    H128346   3.571   3.408  12.677  2.0503  0.5639 -0.4650
 2285TIP3    H228347   3.540   3.541  12.742  0.7132 -0.1462  0.3896
 2286TIP3   OH228348   3.063   5.321   5.525  0.2491 -0.4020  0.3399
 2286TIP3    H128349   3.036   5.257   5.591 -0.5608 -0.2962  0.1193
 2286TIP3    H228350   3.033   5.405   5.561  0.8945 -0.1942  0.4091
 2287TIP3   OH228351   4.412   5.804   6.262  0.1353  0.2680 -0.4089
 2287TIP3    H128352   4.363   5.885   6.253  2.6332  1.8030 -1.0618
 2287TIP3    H228353   4.353   5.736   6.228 -0.5541  2.3400 -3.8302
 2288TIP3   OH228354   6.506   1.581  11.403 -0.6627  0.1857 -0.1400
 2288TIP3    H128355   6.419   1.587  11.443 -0.6161  1.1029 -0.1640
 2288TIP3    H228356   6.504   1.643  11.331 -0.5422 -1.0291 -1.2247
 2289TIP3   OH228357   5.854   5.206  11.986 -1.0250 -0.0106 -0.0984
 2289TIP3    H128358   5.834   5.120  12.021  1.3187 -0.4235  0.4249
 2289TIP3    H228359   5.810   5.267  12.046  1.7473 -0.7372  3.0095
 2290TIP3   OH228360   0.100   1.923  14.169  0.1065 -0.0559 -0.2421
 2290TIP3    H128361   0.141   2.010  14.170 -0.9237  0.4413  0.1747
 2290TIP3    H228362   0.167   1.865  14.205  0.8428  0.5431 -0.6049
 2291TIP3   OH228363   4.137   3.444  15.125 -0.1175  0.3771 -0.2905
 2291TIP3    H128364   4.096   3.525  15.155  1.6152  0.4246  2.2698
 2291TIP3    H228365   4.151   3.457  15.031 -1.4733  2.2955 -0.2857
 2292TIP3   OH228366   4.215   4.547  15.297 -0.3800 -0.0677 -0.0514
 2292TIP3    H128367   4.243   4.622  15.349  1.6176 -1.3302  0.8053
 2292TIP3    H228368   4.188   4.481  15.362  1.6934 -1.4928 -0.5450
 2293TIP3   OH228369   5.149   4.333   2.654  0.1207  0.2408  0.4694
 2293TIP3    H128370   5.063   4.374   2.667  0.3692  0.9078  0.0226
 2293TIP3    H228371   5.142   4.291   2.568 -0.8476 -2.4954  1.7439
 2294TIP3   OH228372   5.873   2.400   1.595  0.1114 -0.1529  0.2591
 2294TIP3    H128373   5.901   2.308   1.597  1.0803  0.1402  0.3797
 2294TIP3    H228374   5.800   2.401   1.532 -0.0884 -1.0456  0.4570
 2295TIP3   OH228375   2.280   3.843   1.771 -0.3485 -0.5331 -0.2766
 2295TIP3    H128376   2.283   3.760   1.819 -1.3340 -0.2876  0.2314
 2295TIP3    H228377   2.278   3.911   1.838  1.4164 -0.0323 -0.6901
 2296TIP3   OH228378   3.707   1.814   5.598  0.2204 -0.3807 -0.5435
 2296TIP3    H128379   3.652   1.815   5.677  0.6669 -0.9423 -0.2182
 2296TIP3    H228380   3.794   1.835   5.630  0.3979 -0.5865 -0.8911
 2297TIP3   OH228381   0.376   4.958   5.960 -0.3550  0.0094 -0.5444
 2297TIP3    H128382   0.453   4.901   5.955  0.5025  0.9585  1.0335
 2297TIP3    H228383   0.400   5.025   6.024 -3.7040 -1.5718  2.7077
 2298TIP3   OH228384   4.572   2.987  10.974  0.0266  0.1697 -0.5319
 2298TIP3    H128385   4.528   3.062  10.933 -1.3897  0.2875  1.0800
 2298TIP3    H228386   4.503   2.943  11.024  1.2858 -1.0095  0.2486
 2299TIP3   OH228387   0.561   1.561   4.880 -0.4434  0.6414  0.7813
 2299TIP3    H128388   0.558   1.657   4.877  0.2967  0.6418 -0.3114
 2299TIP3    H228389   0.654   1.540   4.883 -0.6117 -0.0451  1.5498
 2300TIP3   OH228390   5.179   1.749  15.148  0.4494  0.1244 -0.5510
 2300TIP3    H128391   5.228   1.681  15.193 -0.0350 -1.0805 -1.7711
 2300TIP3    H228392   5.093   1.750  15.191  0.5981  0.2795 -0.2526
 2301TIP3   OH228393   1.295   0.450   1.811  0.1877  0.1343  0.5723
 2301TIP3    H128394   1.341   0.402   1.879 -1.8422 -0.0581  1.8932
 2301TIP3    H228395   1.204   0.452   1.841 -0.7773  0.0971 -2.1119
 2302TIP3   OH228396   1.977   4.140  11.177  0.0859  0.4126  0.5327
 2302TIP3    H128397   1.961   4.209  11.114  0.9145  0.8753  0.8135
 2302TIP3    H228398   1.969   4.059  11.127 -0.3585  0.7290  0.0890
 2303TIP3   OH228399   2.683   5.456   2.474 -0.3156  0.1423 -0.0473
 2303TIP3    H128400   2.607   5.441   2.531  0.8868  0.8179  1.8480
 2303TIP3    H228401   2.646   5.491   2.393 -2.3846 -3.5979 -0.9732
 2304TIP3   OH228402   2.681   4.674   1.950 -0.3480  0.3207 -0.1544
 2304TIP3    H128403   2.669   4.609   1.882  0.2686  0.4765 -0.4211
 2304TIP3    H228404   2.611   4.738   1.936 -0.7267 -0.0782 -0.1193
 2305TIP3   OH228405   3.758   6.250   4.761  0.4643  0.2689  0.1958
 2305TIP3    H128406   3.698   6.210   4.824  2.1019  0.2353  1.8077
 2305TIP3    H228407   3.844   6.243   4.802  1.5440  0.6524 -1.8752
 2306TIP3   OH228408   4.995   6.077  14.619 -0.0774 -0.3995  0.1346
 2306TIP3    H128409   4.964   5.989  14.641 -0.4127 -0.5561 -0.9131
 2306TIP3    H228410   5.087   6.078  14.648  0.5830 -1.8221 -1.6788
 2307TIP3   OH228411   4.892   6.661  16.781 -0.1900 -0.1519 -0.1731
 2307TIP3    H128412   4.981   6.684  16.806 -0.0480 -0.2050 -0.6245
 2307TIP3    H228413   4.862   6.735  16.727 -0.1487 -0.4864 -0.6535
 2308TIP3   OH228414   1.250   4.928  11.541  0.0478 -0.6052 -0.1485
 2308TIP3    H128415   1.325   4.983  11.561 -2.3786  2.5176  1.1060
 2308TIP3    H228416   1.223   4.955  11.453 -1.9200  1.3580  0.9619
 2309TIP3   OH228417   6.705   4.272  12.563  0.6428  0.2687  0.2997
 2309TIP3    H128418   6.710   4.233  12.476  0.0193  0.9992 -0.0735
 2309TIP3    H228419   6.757   4.352  12.556  0.9962  0.0842  0.7462
 2310TIP3   OH228420   0.906   2.313  12.055  0.2658 -0.1710 -0.3658
 2310TIP3    H128421   0.911   2.373  12.129 -1.3777  0.1525 -0.4706
 2310TIP3    H228422   0.837   2.251  12.079  0.6101 -0.8411 -1.0720
 2311TIP3   OH228423   0.344   6.653  15.476 -0.0452  0.1809  0.1954
 2311TIP3    H128424   0.360   6.662  15.570 -0.7663 -0.5713  0.3989
 2311TIP3    H228425   0.249   6.646  15.469 -0.0087  0.4808 -0.6188
 2312TIP3   OH228426   2.248   6.768   2.034 -0.2126  0.0389 -0.3514
 2312TIP3    H128427   2.155   6.788   2.032  0.0556  1.3051 -0.8264
 2312TIP3    H228428   2.252   6.672   2.027 -1.5154 -0.2115  1.7139
 2313TIP3   OH228429   1.653   0.603  10.610 -0.0802 -0.5329 -0.3287
 2313TIP3    H128430   1.744   0.591  10.637 -0.3851  0.7433  1.4396
 2313TIP3    H228431   1.606   0.531  10.652 -0.2591  0.3916  1.1743
 2314TIP3   OH228432   5.503   5.008   5.532 -0.1929 -0.0699  0.0576
 2314TIP3    H128433   5.430   4.993   5.472 -0.4106 -0.1629  0.3411
 2314TIP3    H228434   5.469   5.072   5.595  0.2157  0.4442 -0.2360
 2315TIP3   OH228435   2.513   4.892  12.898  0.4539 -0.0438 -0.5371
 2315TIP3    H128436   2.534   4.984  12.881 -0.7152 -0.0501 -2.2835
 2315TIP3    H228437   2.418   4.890  12.905  0.5936 -0.7535  2.2189
 2316TIP3   OH228438   4.744   5.656   4.260  0.3772 -0.2677  0.3662
 2316TIP3    H128439   4.697   5.637   4.341 -2.4306  0.1311 -1.0174
 2316TIP3    H228440   4.780   5.744   4.273  1.5276 -0.9128  1.7747
 2317TIP3   OH228441   6.331   2.090   1.322 -0.0145  0.1101  0.0978
 2317TIP3    H128442   6.426   2.096   1.306  0.2109  0.7237  1.4376
 2317TIP3    H228443   6.291   2.099   1.236  1.1045  1.5989 -0.3128
 2318TIP3   OH228444   6.308   3.192  15.280  0.1689 -0.4632 -0.4825
 2318TIP3    H128445   6.305   3.101  15.250 -2.2576 -0.0769 -1.6240
 2318TIP3    H228446   6.363   3.237  15.215 -0.3651 -0.7278 -1.1202
 2319TIP3   OH228447   6.326   4.539   3.283 -0.4322 -0.7527  0.0822
 2319TIP3    H128448   6.335   4.464   3.225  2.7770  0.0547 -0.6600
 2319TIP3    H228449   6.311   4.500   3.370 -1.5640 -2.0935 -0.6752
 2320TIP3   OH228450   1.651   0.075  10.754  0.4309 -0.2651 -0.1307
 2320TIP3    H128451   1.741   0.042  10.752  0.0357 -1.4666  0.5071
 2320TIP3    H228452   1.607   0.020  10.819 -0.9207 -0.1043 -0.8691
 2321TIP3   OH228453   2.299   5.267  11.835  0.0610 -0.4091 -0.1718
 2321TIP3    H128454   2.363   5.338  11.826  1.2702 -1.6158 -1.5528
 2321TIP3    H228455   2.220   5.301  11.793  0.8597 -0.1259 -1.4930
 2322TIP3   OH228456   0.291   4.627  15.414  0.1031 -0.5902  0.0699
 2322TIP3    H128457   0.297   4.629  15.319  2.1684 -0.5419  0.1534
 2322TIP3    H228458   0.337   4.547  15.439  0.2073 -0.2369  1.0507
 2323TIP3   OH228459   4.069   3.242  11.419 -0.4569  0.1023 -0.1975
 2323TIP3    H128460   4.006   3.261  11.349  0.1969 -0.9965 -1.1163
 2323TIP3    H228461   4.030   3.168  11.466 -1.3742  1.4419  1.2772
 2324TIP3   OH228462   4.345   6.044  11.254  0.1626 -0.2340 -0.0411
 2324TIP3    H128463   4.429   6.074  11.288 -0.2414 -0.1611  0.9362
 2324TIP3    H228464   4.290   6.123  11.253 -0.4911 -0.6418  1.2509
 2325TIP3   OH228465   1.430   4.077   2.987 -0.4076  0.2352  0.3237
 2325TIP3    H128466   1.521   4.097   2.969  0.1820 -2.0049  0.5257
 2325TIP3    H228467   1.401   4.026   2.911 -1.4082  0.6532  0.4080
 2326TIP3   OH228468   6.405   5.546   0.312  0.1377 -0.4180 -0.5567
 2326TIP3    H128469   6.386   5.514   0.400  0.1281 -1.0418 -0.7842
 2326TIP3    H228470   6.466   5.482   0.275 -0.7393 -0.7771 -1.4169
 2327TIP3   OH228471   2.385   0.839  14.527  0.1834  0.1784  0.1734
 2327TIP3    H128472   2.404   0.914  14.470 -0.5681  0.5518  0.4016
 2327TIP3    H228473   2.466   0.825  14.576  1.0828 -0.5663 -1.4358
 2328TIP3   OH228474   3.363   3.521   1.110 -0.1995 -0.2473 -0.4490
 2328TIP3    H128475   3.288   3.541   1.054 -1.5570 -2.6646  0.3443
 2328TIP3    H228476   3.392   3.605   1.143 -1.0764  0.9793 -2.6203
 2329TIP3   OH228477   0.095   1.943   3.392 -0.2710 -0.1131 -0.6024
 2329TIP3    H128478   0.152   2.019   3.398 -0.1705 -0.3167  1.5144
 2329TIP3    H228479   0.036   1.963   3.319 -0.6130  2.2536  0.2474
 2330TIP3   OH228480   5.070   1.802   1.430  0.3531  0.3836  0.2135
 2330TIP3    H128481   5.123   1.821   1.352  2.0741 -1.1199  0.9302
 2330TIP3    H228482   5.113   1.852   1.499  0.5257 -0.4358  0.7052
 2331TIP3   OH228483   2.279   0.455  11.376 -0.0822 -0.1569  0.3893
 2331TIP3    H128484   2.259   0.518  11.308  0.8919 -2.2262 -1.9715
 2331TIP3    H228485   2.196   0.410  11.392 -0.6612  1.3022  1.7270
 2332TIP3   OH228486   2.314   6.471  16.284  0.1311  0.8513 -0.3436
 2332TIP3    H128487   2.338   6.379  16.286 -3.7580 -0.3580  0.4986
 2332TIP3    H228488   2.288   6.492  16.374 -0.6336  2.2285 -0.8412
 2333TIP3   OH228489   5.685   5.475   0.498 -0.0375 -0.2615  0.1908
 2333TIP3    H128490   5.618   5.519   0.445 -0.1026 -0.3856  0.1690
 2333TIP3    H228491   5.762   5.531   0.490 -0.1786 -0.0471  0.3256
 2334TIP3   OH228492   3.551   0.019   5.462  0.0361  0.3519  0.0762
 2334TIP3    H128493   3.466   0.017   5.418  0.5494  2.8779 -1.2625
 2334TIP3    H228494   3.598  -0.056   5.425 -0.5872  0.6841 -1.4814
 2335TIP3   OH228495   1.342   2.649   6.491  0.4970  0.3982 -0.0341
 2335TIP3    H128496   1.395   2.696   6.556  0.8783 -0.6679  0.4457
 2335TIP3    H228497   1.270   2.610   6.542 -0.2438  1.0542 -0.5407
 2336TIP3   OH228498   1.455   4.802   1.055  0.2566 -0.5101 -0.5045
 2336TIP3    H128499   1.448   4.772   0.964 -0.0232 -1.0341 -0.3180
 2336TIP3    H228500   1.428   4.894   1.052  0.6779 -0.3975 -1.0198
 2337TIP3   OH228501   1.268   2.097   1.758  0.1518  0.2478 -0.1404
 2337TIP3    H128502   1.199   2.038   1.728  0.9908  0.7485 -3.5077
 2337TIP3    H228503   1.332   2.040   1.799 -0.0838 -0.9325 -1.3328
 2338TIP3   OH228504   2.578   2.325  16.412 -0.1038  0.0038  0.0468
 2338TIP3    H128505   2.544   2.288  16.493  0.4342  0.8886  0.7000
 2338TIP3    H228506   2.543   2.269  16.343  0.0990 -1.2440  0.9423
 2339TIP3   OH228507   1.049   3.459  11.396  0.9218 -0.2151  0.3303
 2339TIP3    H128508   1.040   3.461  11.301  1.7656  0.5082  0.2506
 2339TIP3    H228509   1.143   3.470  11.411  0.6908  0.6474  1.2663
 2340TIP3   OH228510   6.399   3.016  15.674  0.5983 -0.1764 -0.1566
 2340TIP3    H128511   6.424   2.947  15.735  0.1887  1.0338  1.4493
 2340TIP3    H228512   6.361   2.970  15.599  0.2146 -1.6807  0.9271
 2341TIP3   OH228513   5.547   1.021   4.916 -0.0226  0.0440 -0.4093
 2341TIP3    H128514   5.452   1.017   4.923 -0.0088  0.6677  0.1056
 2341TIP3    H228515   5.567   0.967   4.839 -0.9253  1.3244 -1.5774
 2342TIP3   OH228516   6.137   6.749   2.631  0.6810  0.3597 -0.2728
 2342TIP3    H128517   6.219   6.709   2.604 -0.3590 -0.5086 -2.3957
 2342TIP3    H228518   6.073   6.679   2.626 -0.6014  1.5179 -0.9112
 2343TIP3   OH228519   4.203   6.733  11.117  0.2450 -0.2106 -0.1636
 2343TIP3    H128520   4.235   6.652  11.156  1.4218  0.8173  1.0803
 2343TIP3    H228521   4.280   6.789  11.110 -0.2399  0.2984 -2.4259
 2344TIP3   OH228522   4.323   6.658  13.661  0.1293  0.0605  0.2925
 2344TIP3    H128523   4.314   6.589  13.595 -1.5606  0.6660 -0.1857
 2344TIP3    H228524   4.339   6.611  13.743  0.0694 -0.8391 -0.1971
 2345TIP3   OH228525   6.377   4.769   0.664  0.3821 -0.2711  0.1965
 2345TIP3    H128526   6.301   4.793   0.716 -0.8005  1.2281 -2.0456
 2345TIP3    H228527   6.344   4.702   0.603  1.1358 -0.3820 -0.1015
 2346TIP3   OH228528   2.518   2.069  15.129  0.5984 -0.8934  0.2432
 2346TIP3    H128529   2.472   2.047  15.210  0.4282 -1.5308 -0.0173
 2346TIP3    H228530   2.578   1.997  15.115  0.3442 -0.9904 -0.4047
 2347TIP3   OH228531   0.981   5.186  13.455  0.1326  0.2922  0.0253
 2347TIP3    H128532   0.886   5.178  13.456  0.2270 -1.2558 -0.4995
 2347TIP3    H228533   1.012   5.119  13.515  0.9188 -0.0411 -0.7233
 2348TIP3   OH228534   0.913   4.554   1.757 -0.2942  0.9502 -0.1635
 2348TIP3    H128535   0.914   4.463   1.725 -0.6723  0.5841  0.8368
 2348TIP3    H228536   0.943   4.606   1.682 -1.4677  0.1517 -1.2292
 2349TIP3   OH228537   6.449   0.041   2.148  1.0172 -0.1274 -0.4294
 2349TIP3    H128538   6.417   0.131   2.150  0.3486 -0.3635 -0.1252
 2349TIP3    H228539   6.405   0.001   2.074  2.0268  0.0414 -1.1422
 2350TIP3   OH228540   0.764   6.559  17.343 -0.0479 -0.1853  0.2680
 2350TIP3    H128541   0.751   6.467  17.320 -1.0897  0.2459 -0.9944
 2350TIP3    H228542   0.709   6.607  17.282  0.0787  1.2663  1.2394
 2351TIP3   OH228543   0.718   6.023   1.434  0.5315  0.1789  0.0880
 2351TIP3    H128544   0.684   6.013   1.523  0.7869  0.8772  0.2738
 2351TIP3    H228545   0.705   6.116   1.414 -1.0101 -0.2744 -1.2232
 2352TIP3   OH228546   6.665   4.268  15.196  0.4529 -0.1166 -0.1034
 2352TIP3    H128547   6.611   4.336  15.236 -1.1929  0.1173 -2.4971
 2352TIP3    H228548   6.623   4.186  15.222 -1.6040  0.0771 -2.4342
 2353TIP3   OH228549   2.545   5.132  13.612  0.2467  0.0189  0.1867
 2353TIP3    H128550   2.637   5.151  13.592  0.5392 -0.2759  1.2119
 2353TIP3    H228551   2.536   5.151  13.705 -0.3702 -1.3228  0.4255
 2354TIP3   OH228552   1.488   0.423  11.341 -0.3552  0.2706  0.5186
 2354TIP3    H128553   1.500   0.518  11.345  0.1825  0.1912  0.8666
 2354TIP3    H228554   1.575   0.388  11.326 -0.4543 -0.2034  0.9888
 2355TIP3   OH228555   5.156   1.091  13.707 -1.0050  0.1271 -0.4044
 2355TIP3    H128556   5.200   1.124  13.785 -0.3513 -2.4004  0.4034
 2355TIP3    H228557   5.204   1.131  13.634 -1.7932  2.7375  0.4115
 2356TIP3   OH228558   2.286   3.069   2.905 -0.5097  0.0018  0.0376
 2356TIP3    H128559   2.207   3.019   2.887 -0.5039 -0.5441  1.3780
 2356TIP3    H228560   2.357   3.018   2.868 -0.5565 -0.7592  0.9596
 2357TIP3   OH228561   2.965   2.975  16.480  0.4682 -0.0141  0.1842
 2357TIP3    H128562   2.945   3.019  16.562 -1.6422  2.9758 -1.7405
 2357TIP3    H228563   3.060   2.987  16.469  0.0596  4.4279 -0.2070
 2358TIP3   OH228564   0.584   1.030  12.732  0.4770 -0.5161 -0.0697
 2358TIP3    H128565   0.541   0.967  12.675  1.6567 -1.4251  0.0000
 2358TIP3    H228566   0.611   1.101  12.673  2.7552 -1.9968 -0.9477
 2359TIP3   OH228567   6.022   6.006  12.290  0.7694 -0.2503  0.0953
 2359TIP3    H128568   6.039   6.010  12.384  0.4876 -0.6003  0.1651
 2359TIP3    H228569   6.030   5.913  12.268  1.0449 -0.1433 -0.2691
 2360TIP3   OH228570   2.342   5.909   3.413  0.0722  0.0764 -0.2132
 2360TIP3    H128571   2.294   5.923   3.331 -0.7480  1.9438  0.5189
 2360TIP3    H228572   2.293   5.840   3.458 -0.6232  0.3905 -0.4646
 2361TIP3   OH228573   4.841   6.550  13.872 -0.1797  0.5319 -0.3136
 2361TIP3    H128574   4.753   6.554  13.836  0.4182 -0.0422 -1.9595
 2361TIP3    H228575   4.844   6.466  13.919 -0.8441  1.1005  0.7841
 2362TIP3   OH228576   4.091   5.726   5.801 -0.1784 -0.5770  0.3187
 2362TIP3    H128577   4.054   5.715   5.714  0.8167 -0.0609 -0.1834
 2362TIP3    H228578   4.053   5.654   5.853 -0.1678 -1.3577 -0.7345
 2363TIP3   OH228579   3.822   5.245   3.797  0.6235 -0.5543  0.3078
 2363TIP3    H128580   3.914   5.230   3.822  1.6596  2.0428 -1.4680
 2363TIP3    H228581   3.784   5.291   3.872  1.3816  0.1400  0.2849
 2364TIP3   OH228582   0.819   5.803   0.979  0.4501  0.3794  0.2290
 2364TIP3    H128583   0.748   5.830   0.921 -1.3918 -2.4974  0.9320
 2364TIP3    H228584   0.819   5.868   1.049 -4.1363 -1.3260  2.1921
 2365TIP3   OH228585   3.958   2.653  17.035 -0.2903  0.4059  0.6201
 2365TIP3    H128586   3.881   2.685  17.081  0.3594  1.7507  0.8159
 2365TIP3    H228587   4.001   2.732  17.003  1.9404 -0.1726  1.9936
 2366TIP3   OH228588   5.364   5.117   1.848 -0.5711  0.7850  0.2624
 2366TIP3    H128589   5.297   5.166   1.802  0.2773  0.9029 -0.8728
 2366TIP3    H228590   5.430   5.097   1.782  0.6484  0.9023  1.3999
 2367TIP3   OH228591   1.127   4.423   0.167 -0.3155 -0.0842  0.1567
 2367TIP3    H128592   1.089   4.335   0.177  0.3921 -0.2696  1.4321
 2367TIP3    H228593   1.076   4.478   0.226 -0.5704  0.3129 -0.4274
 2368TIP3   OH228594   0.112   5.278   3.054 -0.1748 -0.1534 -0.0137
 2368TIP3    H128595   0.044   5.224   3.095 -1.9472  0.7115 -1.6602
 2368TIP3    H228596   0.075   5.367   3.055  0.7136  0.2535 -1.4044
 2369TIP3   OH228597   6.291   3.453  16.035  0.2235 -0.3074 -0.0255
 2369TIP3    H128598   6.312   3.546  16.042 -1.9265  0.3275 -1.1052
 2369TIP3    H228599   6.360   3.417  15.979  2.0935  0.1877  1.8081
 2370TIP3   OH228600   3.674   6.029   0.109 -0.4685  0.7485  0.5819
 2370TIP3    H128601   3.691   6.102   0.049 -0.2196 -0.4615 -0.8945
 2370TIP3    H228602   3.587   5.999   0.084  0.3774 -0.9410 -0.5105
 2371TIP3   OH228603   0.864   4.274   5.088  0.5636 -0.0108  0.7232
 2371TIP3    H128604   0.947   4.256   5.131  2.0207  0.6072 -1.6855
 2371TIP3    H228605   0.877   4.358   5.044 -1.6616  0.5516  0.9979
 2372TIP3   OH228606   0.186   6.757  13.691 -0.0233 -0.8984  0.0959
 2372TIP3    H128607   0.113   6.778  13.633 -1.3380 -1.2468  1.5472
 2372TIP3    H228608   0.236   6.691  13.643 -0.6793 -0.6833 -0.9219
 2373TIP3   OH228609   3.237   4.913   1.151  0.3861  0.0618  0.6751
 2373TIP3    H128610   3.278   4.925   1.066  0.8630 -1.1632  0.7078
 2373TIP3    H228611   3.300   4.861   1.201  1.2202  2.7645  2.6623
 2374TIP3   OH228612   2.538   5.986   5.515 -0.1653 -0.4068 -0.2561
 2374TIP3    H128613   2.566   6.066   5.560 -1.2235 -1.4900  2.5823
 2374TIP3    H228614   2.616   5.929   5.518  0.2697  0.1066 -1.3452
 2375TIP3   OH228615   5.609   0.216  16.461  0.2098 -0.0248 -0.2712
 2375TIP3    H128616   5.577   0.284  16.521  0.7894  0.5548 -0.6081
 2375TIP3    H228617   5.679   0.258  16.411  1.3948 -1.1995  0.3231
 2376TIP3   OH228618   5.358   0.266   3.299  0.2362 -0.0215  0.1552
 2376TIP3    H128619   5.357   0.283   3.204 -0.7452 -0.6071  0.0441
 2376TIP3    H228620   5.267   0.244   3.320  0.2996  0.7951  1.3679
 2377TIP3   OH228621   4.531   3.123   5.415  0.1753 -0.3678  0.4125
 2377TIP3    H128622   4.604   3.174   5.382 -0.1366  0.2740  0.7015
 2377TIP3    H228623   4.514   3.159   5.502 -1.1386  0.1758 -0.0477
 2378TIP3   OH228624   1.952   4.312   4.728  0.2366 -0.4220  0.3969
 2378TIP3    H128625   1.922   4.281   4.643  1.4648  3.0216 -1.4836
 2378TIP3    H228626   1.875   4.353   4.767  0.3760  0.6973 -0.4735
 2379TIP3   OH228627   1.801   5.477   5.495 -0.1267 -0.2112 -0.0125
 2379TIP3    H128628   1.773   5.427   5.418  1.0747  0.4620 -0.8948
 2379TIP3    H228629   1.719   5.513   5.530 -0.8334 -1.4984 -0.2527
 2380TIP3   OH228630   6.469   3.476  12.400 -0.2872 -0.0307 -0.8635
 2380TIP3    H128631   6.497   3.384  12.392  0.3076  0.2436 -2.1365
 2380TIP3    H228632   6.395   3.473  12.462  0.0655 -1.2865 -0.4674
 2381TIP3   OH228633   5.714   2.496  14.452  0.8735 -0.0391 -0.5977
 2381TIP3    H128634   5.729   2.492  14.546  0.0102  0.7413 -0.4161
 2381TIP3    H228635   5.801   2.484  14.413  0.9540 -2.5177  0.2176
 2382TIP3   OH228636   1.681   1.135   1.671 -0.3479  0.1327  0.1114
 2382TIP3    H128637   1.588   1.113   1.671  0.0996 -1.9670 -0.8115
 2382TIP3    H228638   1.695   1.183   1.590 -0.5211 -0.0241 -0.0108
 2383TIP3   OH228639   5.539   0.888   4.676 -0.3149  0.5593  0.5794
 2383TIP3    H128640   5.506   0.946   4.607 -2.2938 -1.6960 -0.5116
 2383TIP3    H228641   5.479   0.813   4.675  1.4969 -1.0440  2.6283
 2384TIP3   OH228642   0.311   5.801  13.073  0.4447 -0.1112 -0.4799
 2384TIP3    H128643   0.258   5.854  13.013 -0.8251  0.2010  0.8505
 2384TIP3    H228644   0.391   5.851  13.085 -0.8491  1.7615  0.9764
 2385TIP3   OH228645   0.408   4.220   0.888  0.4481 -0.4787  0.0748
 2385TIP3    H128646   0.388   4.133   0.851 -0.5039 -0.3416  0.2439
 2385TIP3    H228647   0.343   4.278   0.848  1.2504  0.2157 -0.2406
 2386TIP3   OH228648   4.339   5.278  13.004  0.8194  0.6095  0.4376
 2386TIP3    H128649   4.350   5.317  12.917  0.0679  1.4303  0.6878
 2386TIP3    H228650   4.302   5.192  12.988 -0.1483  1.0917 -0.0474
 2387TIP3   OH228651   5.825   4.090  11.791 -0.0016 -0.1593 -0.2661
 2387TIP3    H128652   5.887   4.163  11.794 -0.3065  0.0881  0.1017
 2387TIP3    H228653   5.739   4.130  11.806 -0.5291 -0.1991 -2.7546
 2388TIP3   OH228654   4.595   0.595   1.490  0.0282 -0.3218 -0.2617
 2388TIP3    H128655   4.515   0.589   1.542  0.6524 -0.1911  0.7370
 2388TIP3    H228656   4.649   0.660   1.535  1.2672 -1.4073 -0.1357
 2389TIP3   OH228657   3.909   4.145  16.576  0.2519  0.1047 -0.7662
 2389TIP3    H128658   3.842   4.097  16.528 -0.7493  0.3855  0.2971
 2389TIP3    H228659   3.982   4.084  16.583 -0.5938 -0.8919 -0.3606
 2390TIP3   OH228660   0.997   0.100   0.506 -0.0551  0.1027 -0.2419
 2390TIP3    H128661   1.083   0.076   0.539 -0.6917 -1.2929  0.5238
 2390TIP3    H228662   1.004   0.192   0.483  1.6376  0.0037 -0.2370
 2391TIP3   OH228663   1.475   5.660   4.829 -0.2726  0.4449 -0.1676
 2391TIP3    H128664   1.547   5.636   4.886 -1.0444 -0.7414  0.3399
 2391TIP3    H228665   1.409   5.696   4.888  0.7844  3.9326 -0.8686
 2392TIP3   OH228666   4.761   5.393  10.893 -0.2622 -0.5123  0.2678
 2392TIP3    H128667   4.842   5.407  10.942  0.4749  0.8603 -1.2625
 2392TIP3    H228668   4.692   5.420  10.954  0.4532 -1.0702  1.3588
 2393TIP3   OH228669   1.160   6.587   1.330 -0.2038  0.8684  0.0835
 2393TIP3    H128670   1.098   6.514   1.334 -0.1760  0.8834  1.4646
 2393TIP3    H228671   1.119   6.656   1.382  0.6038  1.1567  0.3542
 2394TIP3   OH228672   4.137   5.470  13.180 -0.1978 -0.5077 -0.5684
 2394TIP3    H128673   4.169   5.553  13.215  0.6767 -0.9409 -0.3155
 2394TIP3    H228674   4.151   5.476  13.086 -2.1848  0.4985 -0.8556
 2395TIP3   OH228675   4.866   6.139   4.546 -0.8884  0.0914  0.4765
 2395TIP3    H128676   4.918   6.101   4.475 -0.6443  0.1900  0.6004
 2395TIP3    H228677   4.858   6.231   4.524 -0.8666  0.1096  0.5434
 2396TIP3   OH228678   4.741   2.052   5.371  0.2766 -0.1256 -0.3979
 2396TIP3    H128679   4.671   2.068   5.434  0.3011 -0.8641 -0.1715
 2396TIP3    H228680   4.704   1.988   5.310  0.7075 -0.4273 -0.3477
 2397TIP3   OH228681   2.367   0.777  13.307  0.4192  0.0694  0.0920
 2397TIP3    H128682   2.363   0.682  13.318  2.3745 -0.3766 -2.0859
 2397TIP3    H228683   2.277   0.806  13.313 -0.2013 -1.8881  1.0443
 2398TIP3   OH228684   1.631   0.354  17.383 -0.2156 -0.1098  0.2683
 2398TIP3    H128685   1.607   0.262  17.385 -1.4498  0.1806 -0.4742
 2398TIP3    H228686   1.717   0.356  17.340 -0.8534 -0.7893 -1.0866
 2399TIP3   OH228687   6.728   0.341   5.518 -0.1747 -0.0220 -0.3089
 2399TIP3    H128688   6.652   0.399   5.519  0.3822  0.7649  1.7091
 2399TIP3    H228689   6.772   0.360   5.435 -1.5022  0.4036 -0.9368
 2400TIP3   OH228690   1.277   2.130   4.720  0.1097  0.8511 -0.2220
 2400TIP3    H128691   1.364   2.140   4.758 -0.1658  3.8607 -0.1769
 2400TIP3    H228692   1.292   2.082   4.638  1.3556 -1.2286  1.1073
 2401TIP3   OH228693   5.417   4.072   4.266 -0.0589  0.0547 -0.7399
 2401TIP3    H128694   5.501   4.072   4.221  0.6876  1.0170  0.6133
 2401TIP3    H228695   5.359   4.122   4.208  0.3630 -0.3635 -1.5386
 2402TIP3   OH228696   6.149   4.223  12.356 -0.2622  0.0906  0.2845
 2402TIP3    H128697   6.133   4.165  12.282  0.7971 -1.6689  1.3590
 2402TIP3    H228698   6.119   4.173  12.432  0.1863  1.1724  1.2024
 2403TIP3   OH228699   5.045   0.500  13.996  0.1418  0.2158  0.0742
 2403TIP3    H128700   5.109   0.430  13.987  1.1698  0.8549  2.0103
 2403TIP3    H228701   5.042   0.541  13.909  0.4104 -1.4242 -0.7461
 2404TIP3   OH228702   0.260   3.747   2.939 -0.6230  0.1321  0.1554
 2404TIP3    H128703   0.274   3.814   2.871  0.8566 -0.1159  0.1841
 2404TIP3    H228704   0.290   3.666   2.899 -0.0797 -0.0836  0.9873
 2405TIP3   OH228705   5.804   0.274  16.211 -0.3361 -0.6942 -0.0422
 2405TIP3    H128706   5.790   0.181  16.195  0.6180 -0.5871 -1.7915
 2405TIP3    H228707   5.744   0.319  16.152  0.2322 -0.2277 -0.2861
 2406TIP3   OH228708   1.792   5.898   2.840  0.0255 -0.3141  0.3987
 2406TIP3    H128709   1.706   5.920   2.805  1.1792  0.7137 -2.0258
 2406TIP3    H228710   1.798   5.803   2.832 -0.6199 -0.3210 -0.0442
 2407TIP3   OH228711   0.684   1.775   1.702 -0.4118  0.6547 -0.0475
 2407TIP3    H128712   0.688   1.698   1.645 -1.5793 -0.6852  1.5700
 2407TIP3    H228713   0.592   1.801   1.700 -0.0506  1.9750 -0.4796
 2408TIP3   OH228714   4.602   6.560  13.771  0.3812  0.1921 -0.0474
 2408TIP3    H128715   4.522   6.519  13.804  0.3875  0.4059  0.2411
 2408TIP3    H228716   4.573   6.645  13.736  0.6927  0.9598  1.4758
 2409TIP3   OH228717   2.590   0.583  11.797  0.5390 -0.9352  0.3208
 2409TIP3    H128718   2.611   0.676  11.808  1.2355 -0.9479 -0.7210
 2409TIP3    H228719   2.672   0.538  11.818  0.5143 -1.2401 -0.2280
 2410TIP3   OH228720   6.717   3.459  16.880  0.0055  0.2693  0.0891
 2410TIP3    H128721   6.698   3.503  16.963 -2.9497 -1.3099  0.3933
 2410TIP3    H228722   6.799   3.413  16.895  1.0707  2.3476  1.0828
 2411TIP3   OH228723   6.731   2.809  16.862 -0.0092 -0.2328 -0.3105
 2411TIP3    H128724   6.727   2.904  16.861 -0.7038 -0.2434  0.2917
 2411TIP3    H228725   6.696   2.785  16.948  0.9110 -0.9998 -0.1329
 2412TIP3   OH228726   4.597   1.953  11.902  0.1302  0.5492  0.3067
 2412TIP3    H128727   4.647   1.933  11.982 -0.8979  0.6996  0.9990
 2412TIP3    H228728   4.527   2.011  11.931 -1.5100 -1.0451 -0.3050
 2413TIP3   OH228729   3.529   3.348   4.324 -0.3073 -0.1981 -0.4590
 2413TIP3    H128730   3.559   3.380   4.239 -1.7730  0.6601 -0.6952
 2413TIP3    H228731   3.553   3.256   4.325  2.9455  0.5272 -0.2856
 2414TIP3   OH228732   0.401   4.499   1.428  0.7510 -0.2772  0.2614
 2414TIP3    H128733   0.321   4.489   1.376  0.9369  1.2059 -0.3706
 2414TIP3    H228734   0.463   4.542   1.368  1.0735  1.2116  1.5995
 2415TIP3   OH228735   0.022   2.722   5.232 -0.1844 -0.2170  0.0449
 2415TIP3    H128736  -0.018   2.691   5.151  0.9848  1.0990 -1.1054
 2415TIP3    H228737  -0.048   2.718   5.297 -2.3164  2.2244 -1.8961
 2416TIP3   OH228738   0.400   1.131  11.031  0.1795  0.2895 -0.0807
 2416TIP3    H128739   0.455   1.054  11.016 -0.1740  0.1838 -0.8914
 2416TIP3    H228740   0.461   1.200  11.056  0.4786 -0.2992  0.8687
 2417TIP3   OH228741   0.077   1.782  15.424 -0.0208 -0.4224 -0.0921
 2417TIP3    H128742   0.069   1.714  15.358  0.2533 -2.5159  1.8841
 2417TIP3    H228743  -0.013   1.806  15.446 -0.2184 -1.8330  0.7545
 2418TIP3   OH228744   0.247   0.489   2.750  0.0986  0.1484 -0.1553
 2418TIP3    H128745   0.257   0.400   2.784 -0.8837 -0.3266 -1.0501
 2418TIP3    H228746   0.266   0.546   2.825  0.5066 -0.8135  0.4877
 2419TIP3   OH228747   2.596   4.646  11.139 -0.1634  0.1162  0.0163
 2419TIP3    H128748   2.651   4.568  11.137  0.8840  0.8198 -2.2905
 2419TIP3    H228749   2.621   4.692  11.219  0.1369 -1.2384  0.7325
 2420TIP3   OH228750   0.653   4.242   1.011  0.3851 -0.1858 -0.1857
 2420TIP3    H128751   0.707   4.296   0.954  2.4394 -1.6895  0.2260
 2420TIP3    H228752   0.572   4.228   0.962  0.1390  2.4259 -0.6695
 2421TIP3   OH228753   0.722   3.190  15.254 -0.4881  0.1578  0.0423
 2421TIP3    H128754   0.768   3.269  15.224  0.7719 -0.8877 -0.9009
 2421TIP3    H228755   0.792   3.131  15.283 -1.4131 -0.6025  0.8139
 2422TIP3   OH228756   5.208   2.301   1.732  0.3596 -0.6234  0.1239
 2422TIP3    H128757   5.126   2.258   1.709 -0.4210  0.6799  0.3472
 2422TIP3    H228758   5.187   2.352   1.810  1.8704 -1.6803  1.2742
 2423TIP3   OH228759   2.685   6.078   2.041  0.1032  0.1149 -0.2696
 2423TIP3    H128760   2.592   6.064   2.062  0.4061  0.6337  1.6609
 2423TIP3    H228761   2.690   6.170   2.016  0.5129  1.0961  2.9176
 2424TIP3   OH228762   5.849   2.416   0.584  0.4427 -0.2429 -0.0917
 2424TIP3    H128763   5.927   2.365   0.610  0.6773  0.9448  1.7322
 2424TIP3    H228764   5.779   2.350   0.578  1.1405 -1.0505  0.3514
 2425TIP3   OH228765   3.931   5.038   0.130  0.2421 -0.1671  0.5753
 2425TIP3    H128766   3.977   5.119   0.153  0.2879  0.6225 -1.8945
 2425TIP3    H228767   3.985   4.968   0.165  1.9834  0.8185  0.0125
 2426TIP3   OH228768   2.420   6.607   4.022  0.3195  0.1217 -0.5007
 2426TIP3    H128769   2.373   6.576   3.944 -0.1091 -0.8967  0.1394
 2426TIP3    H228770   2.361   6.670   4.062  0.3590  0.3288 -0.7627
 2427TIP3   OH228771   0.457   1.545   1.537 -0.1959 -0.4707  0.1774
 2427TIP3    H128772   0.451   1.640   1.544  3.1116  0.1290 -2.5167
 2427TIP3    H228773   0.549   1.528   1.517 -0.8822 -4.1539 -0.6429
 2428TIP3   OH228774   1.771   0.477  11.916  0.2327  0.4159 -0.1445
 2428TIP3    H128775   1.845   0.526  11.881  1.5632 -0.7983  0.8453
 2428TIP3    H228776   1.811   0.399  11.955 -1.2190  1.1272  3.0818
 2429TIP3   OH228777   3.205   6.725  17.298  0.0377 -0.4481 -0.3888
 2429TIP3    H128778   3.263   6.758  17.367 -1.1378 -0.0948  0.4731
 2429TIP3    H228779   3.203   6.630  17.311  0.8976 -0.5249 -0.8119
 2430TIP3   OH228780   5.446   4.230  11.979 -0.4968  0.5922 -0.6004
 2430TIP3    H128781   5.393   4.216  11.901 -0.1462 -1.9482 -0.4765
 2430TIP3    H228782   5.410   4.309  12.019 -1.3969  1.3301 -2.7180
 2431TIP3   OH228783   1.928   1.235  16.046 -0.1409  0.0053  0.2640
 2431TIP3    H128784   1.954   1.219  15.955  0.8772 -2.7685  0.9638
 2431TIP3    H228785   1.968   1.319  16.067 -1.6252  1.4831 -2.2224
 2432TIP3   OH228786   0.228   3.861   5.857 -0.4593 -0.0075 -0.4910
 2432TIP3    H128787   0.227   3.911   5.938  0.0378  1.8042 -1.5494
 2432TIP3    H228788   0.307   3.891   5.812 -0.4242 -1.3889 -1.4047
 2433TIP3   OH228789   3.778   4.821  13.759  0.4136 -0.1061  0.8254
 2433TIP3    H128790   3.843   4.860  13.818 -0.3638  0.7399  1.1573
 2433TIP3    H228791   3.763   4.733  13.794  0.9524 -0.0988  1.0846
 2434TIP3   OH228792   2.646   1.597   5.478  0.1422 -0.6779  0.0038
 2434TIP3    H128793   2.677   1.564   5.394  1.4714 -0.3184  0.3388
 2434TIP3    H228794   2.725   1.608   5.531 -0.5925 -0.1233  1.0282
 2435TIP3   OH228795   4.744   3.740   6.345 -0.7185 -0.3683 -0.4579
 2435TIP3    H128796   4.805   3.803   6.308 -2.1759  0.7273 -1.1320
 2435TIP3    H228797   4.713   3.781   6.426 -1.7553 -0.1124 -0.9548
 2436TIP3   OH228798   6.605   2.482  15.782 -0.0107  0.1666  0.1936
 2436TIP3    H128799   6.625   2.469  15.690 -0.0929 -1.0937  0.3376
 2436TIP3    H228800   6.571   2.397  15.812 -1.8241  1.0754  0.9181
 2437TIP3   OH228801   6.091   5.877   3.165  0.4939 -0.0578 -0.5896
 2437TIP3    H128802   6.024   5.846   3.225  1.6407 -2.4413 -0.4127
 2437TIP3    H228803   6.090   5.814   3.093  2.0099  0.2767 -0.9389
 2438TIP3   OH228804   2.598   1.657   2.472 -0.1718  0.7930  0.4337
 2438TIP3    H128805   2.548   1.579   2.449 -1.5011  1.2708  1.5881
 2438TIP3    H228806   2.533   1.724   2.489  0.8614  1.5953  1.4433
 2439TIP3   OH228807   0.461   0.666   6.691 -0.3595  0.0189  0.5643
 2439TIP3    H128808   0.497   0.644   6.777 -2.3122  0.3484  1.5142
 2439TIP3    H228809   0.511   0.612   6.630  2.3121  1.0643  1.6564
 2440TIP3   OH228810   5.466   6.688   1.781  0.0776 -0.2203  0.4153
 2440TIP3    H128811   5.395   6.740   1.740  1.2997  1.0060 -0.2338
 2440TIP3    H228812   5.470   6.720   1.871 -0.1635 -0.2675  0.4439
 2441TIP3   OH228813   6.580   2.118   3.417 -0.3517 -0.7121 -0.1472
 2441TIP3    H128814   6.654   2.155   3.465  0.2519 -0.8975 -0.9145
 2441TIP3    H228815   6.591   2.150   3.327 -0.6715 -1.5036 -0.4792
 2442TIP3   OH228816   5.813   3.827  14.819 -0.5574 -0.5760  0.2179
 2442TIP3    H128817   5.728   3.852  14.784 -0.1766 -0.7374 -0.8353
 2442TIP3    H228818   5.793   3.762  14.886 -1.1933 -1.4543 -0.8059
 2443TIP3   OH228819   5.737   5.870   2.443 -0.5482  0.0106  0.1972
 2443TIP3    H128820   5.728   5.960   2.411 -0.4537  0.4585  1.3715
 2443TIP3    H228821   5.662   5.824   2.406 -0.8150  0.6721 -0.1035
 2444TIP3   OH228822   0.949   0.672   3.333 -0.1696  0.5136 -1.0383
 2444TIP3    H128823   1.036   0.679   3.372 -0.3525  1.6174 -0.7924
 2444TIP3    H228824   0.927   0.579   3.340  1.0302  0.1969 -1.2146
 2445TIP3   OH228825   4.659   4.526   3.537  0.2679 -0.7333  0.5095
 2445TIP3    H128826   4.617   4.443   3.560 -0.0795 -0.7039 -0.0154
 2445TIP3    H228827   4.705   4.507   3.455 -2.0938  0.3066 -1.1482
 2446TIP3   OH228828   3.721   0.309  13.072  0.1240  0.2337 -0.3448
 2446TIP3    H128829   3.790   0.268  13.124  2.2213  1.9055 -1.6476
 2446TIP3    H228830   3.652   0.330  13.135  1.0381 -0.9877  1.1121
 2447TIP3   OH228831   4.269   1.098  10.555  0.1649  0.0839 -0.1250
 2447TIP3    H128832   4.331   1.171  10.548 -0.6535  1.0594  2.0034
 2447TIP3    H228833   4.191   1.136  10.595 -1.3197 -1.4219 -1.4507
 2448TIP3   OH228834   2.098   1.696   0.995  0.2775 -0.5233  0.4370
 2448TIP3    H128835   2.007   1.713   1.020 -0.4516 -0.6447 -1.8377
 2448TIP3    H228836   2.099   1.709   0.900  2.6626 -0.5125  0.4073
 2449TIP3   OH228837   2.637   2.903   5.542 -0.3231  0.1432  0.0646
 2449TIP3    H128838   2.701   2.842   5.507 -0.0321  1.2037 -1.3570
 2449TIP3    H228839   2.622   2.874   5.632  0.2642 -1.6093 -0.3726
 2450TIP3   OH228840   5.111   4.753   4.898 -0.0216 -0.4349 -0.0139
 2450TIP3    H128841   5.128   4.661   4.916 -1.0459 -0.5405  0.5229
 2450TIP3    H228842   5.106   4.759   4.803  0.3409 -0.8740 -0.0607
 2451TIP3   OH228843   4.277   4.831   2.586  0.4953  0.3794 -0.1100
 2451TIP3    H128844   4.208   4.770   2.612  0.2848 -0.2215 -1.9811
 2451TIP3    H228845   4.302   4.874   2.668 -1.3763 -0.1150  0.7765
 2452TIP3   OH228846   6.547   5.915  14.153  0.0103 -0.4704  0.3916
 2452TIP3    H128847   6.566   5.930  14.061  3.0304 -0.5361  0.9224
 2452TIP3    H228848   6.539   6.002  14.191 -1.5002 -0.4414  0.0844
 2453TIP3   OH228849   3.410   1.107  12.706 -0.2022  0.0106  0.1311
 2453TIP3    H128850   3.462   1.122  12.627  0.1552 -0.6043  0.2394
 2453TIP3    H228851   3.418   1.013  12.722  0.5172  0.2690  1.4397
 2454TIP3   OH228852   6.462   1.084   2.682  0.6142 -0.6028  0.4725
 2454TIP3    H128853   6.457   0.999   2.638 -0.8114  0.0987 -0.8007
 2454TIP3    H228854   6.539   1.126   2.643  1.0897 -1.1444  0.8162
 2455TIP3   OH228855   3.604   2.625   4.594  0.3591 -0.9061  0.7135
 2455TIP3    H128856   3.553   2.616   4.513  0.5831 -2.6107  0.7153
 2455TIP3    H228857   3.538   2.627   4.664  0.1918 -0.0524  0.5404
 2456TIP3   OH228858   0.427   4.204   6.103 -0.2742 -0.9038  0.0943
 2456TIP3    H128859   0.477   4.244   6.032  0.3222 -0.2497  0.8647
 2456TIP3    H228860   0.487   4.202   6.177 -0.5113 -2.6229  0.2937
 2457TIP3   OH228861   4.758   1.368   3.462  0.0590 -0.6431 -0.1805
 2457TIP3    H128862   4.675   1.413   3.479  0.2958 -0.3465  0.2227
 2457TIP3    H228863   4.776   1.383   3.369  0.7610  1.1856  0.2006
 2458TIP3   OH228864   3.951   2.369  10.772  0.3980 -0.4079 -0.2577
 2458TIP3    H128865   3.987   2.299  10.717 -0.5332 -0.9773 -0.1694
 2458TIP3    H228866   4.018   2.438  10.770  1.4258 -1.3712 -0.2010
 2459TIP3   OH228867   1.039   1.175   1.515 -0.1884  0.1096 -0.2595
 2459TIP3    H128868   0.999   1.139   1.594  0.7409 -0.3172  0.0308
 2459TIP3    H228869   1.065   1.263   1.539 -0.4863  0.2100 -0.2958
 2460TIP3   OH228870   0.775   2.740  12.198  0.7044 -0.0615 -0.3402
 2460TIP3    H128871   0.810   2.660  12.237 -0.8658 -0.8925 -0.5729
 2460TIP3    H228872   0.775   2.724  12.104 -0.4468 -0.1552 -0.3333
 2461TIP3   OH228873   2.457   0.301   0.351  0.1914 -0.2919  0.4752
 2461TIP3    H128874   2.489   0.212   0.367 -0.6644 -1.2831 -2.5130
 2461TIP3    H228875   2.379   0.309   0.405  1.4784 -0.4875  2.4504
 2462TIP3   OH228876   1.486   5.620  16.110 -0.4056  0.1661 -0.0648
 2462TIP3    H128877   1.520   5.704  16.080 -0.6407  1.5004  2.9962
 2462TIP3    H228878   1.392   5.624  16.093 -0.1855 -0.2529 -1.4850
 2463TIP3   OH228879   6.510   0.459  15.352 -0.3669  0.0529 -0.6180
 2463TIP3    H128880   6.575   0.517  15.313 -0.3183  0.2952 -0.1833
 2463TIP3    H228881   6.476   0.508  15.428 -0.2018 -0.5498 -0.1424
 2464TIP3   OH228882   1.223   0.480   0.311 -0.2684 -0.3943 -0.0018
 2464TIP3    H128883   1.289   0.464   0.378 -0.1586  2.5724  0.7153
 2464TIP3    H228884   1.261   0.444   0.231 -0.1088 -3.3963  1.2522
 2465TIP3   OH228885   6.104   4.118  11.316 -0.0588  0.2868  0.1345
 2465TIP3    H128886   6.048   4.045  11.342  0.4169  0.3170  1.2779
 2465TIP3    H228887   6.043   4.192  11.304 -0.8239 -0.6889 -2.9738
 2466TIP3   OH228888   4.186   6.697   1.212  0.0032  0.1715 -0.3586
 2466TIP3    H128889   4.225   6.745   1.139  0.1890  0.6567  0.0553
 2466TIP3    H228890   4.248   6.707   1.284 -0.8044  0.8532  0.2730
 2467TIP3   OH228891   3.120   5.011  12.186 -0.2981 -0.3686  0.5549
 2467TIP3    H128892   3.111   4.918  12.165 -0.2377 -0.8789  2.5873
 2467TIP3    H228893   3.174   5.047  12.115 -0.3320 -1.8691 -0.2606
 2468TIP3   OH228894   1.812   4.300  10.641  0.0499  0.3557  0.4848
 2468TIP3    H128895   1.798   4.327  10.732  0.7130  0.6638  0.5048
 2468TIP3    H228896   1.835   4.382  10.596  1.4408 -0.0500  0.4082
 2469TIP3   OH228897   4.322   5.125  16.802 -0.5724  0.0554  0.3823
 2469TIP3    H128898   4.269   5.194  16.762 -1.1336 -0.5389  0.0803
 2469TIP3    H228899   4.405   5.167  16.823 -0.9950  0.8780  0.4177
 2470TIP3   OH228900   1.655   4.929  12.569 -0.1523  0.0575 -0.0332
 2470TIP3    H128901   1.706   4.894  12.642 -0.9567 -0.1473  0.4507
 2470TIP3    H228902   1.639   4.853  12.513  1.5295  0.4520 -1.0960
 2471TIP3   OH228903   6.366   2.995  12.430  0.3318 -0.5074  0.1935
 2471TIP3    H128904   6.402   3.036  12.508  0.6813 -0.6879  0.1287
 2471TIP3    H228905   6.316   2.921  12.463 -1.6270  0.8424  0.4458
 2472TIP3   OH228906   5.335   2.630   1.393  0.4022 -0.1740 -0.7326
 2472TIP3    H128907   5.351   2.722   1.373 -1.2555  0.1972 -0.4413
 2472TIP3    H228908   5.385   2.615   1.474 -1.3100  1.1914  0.6502
 2473TIP3   OH228909   0.765   4.734   0.251  0.1152  0.8658 -0.1000
 2473TIP3    H128910   0.812   4.736   0.334  0.0698  3.5497 -0.0461
 2473TIP3    H228911   0.833   4.715   0.186  0.4773  0.4923  0.3763
 2474TIP3   OH228912   3.338   2.727   1.366  0.0773  0.3781 -0.7524
 2474TIP3    H128913   3.331   2.657   1.431 -0.2026 -0.4101 -1.6133
 2474TIP3    H228914   3.255   2.725   1.319  1.5685 -1.6046 -3.6193
 2475TIP3   OH228915   4.322   4.511   5.037 -0.3394  0.1402 -0.3682
 2475TIP3    H128916   4.260   4.583   5.048  0.6894  0.9402  0.4165
 2475TIP3    H228917   4.350   4.490   5.126 -1.2025 -1.8002 -0.4965
 2476TIP3   OH228918   4.699   3.092  14.865 -0.6006 -0.5498 -0.2797
 2476TIP3    H128919   4.727   3.110  14.776 -1.9553  1.2399 -0.4094
 2476TIP3    H228920   4.625   3.033  14.856  0.6140 -2.1538 -0.1642
 2477TIP3   OH228921   3.321   6.116   4.518  0.0459  0.1070  0.2536
 2477TIP3    H128922   3.228   6.110   4.540 -0.2199  0.0918 -0.8238
 2477TIP3    H228923   3.367   6.103   4.601 -0.8499 -2.0815  0.4470
 2478TIP3   OH228924   1.080   3.227   3.795 -0.3818  0.3016 -0.1409
 2478TIP3    H128925   1.125   3.303   3.830 -0.8500  0.4016  0.2585
 2478TIP3    H228926   1.145   3.156   3.800 -0.4006  0.3369  0.8446
 2479TIP3   OH228927   1.309   4.701  12.221  0.3380 -0.1436  0.5321
 2479TIP3    H128928   1.318   4.668  12.131  2.2710 -0.2915  0.7267
 2479TIP3    H228929   1.273   4.628  12.270 -0.0856 -0.2913  0.0155
 2480TIP3   OH228930   4.995   1.822  13.279 -0.1538 -0.2305  0.5183
 2480TIP3    H128931   4.961   1.763  13.346 -0.3960  0.4240  0.9788
 2480TIP3    H228932   4.953   1.906  13.297 -0.6311 -0.1661 -0.7780
 2481TIP3   OH228933   6.644   4.757   3.482  0.8062 -0.0889  0.3020
 2481TIP3    H128934   6.729   4.756   3.526  1.0409 -0.0517 -0.1439
 2481TIP3    H228935   6.657   4.706   3.402  0.4648  0.0966  0.1239
 2482TIP3   OH228936   6.453   2.741  13.409 -0.7453 -0.5147 -0.5079
 2482TIP3    H128937   6.432   2.689  13.332 -3.5468 -1.9121  1.0460
 2482TIP3    H228938   6.393   2.816  13.404 -0.1756 -0.0295 -0.2157
 2483TIP3   OH228939   0.457   6.115   0.870 -0.4175  0.5486 -0.3023
 2483TIP3    H128940   0.523   6.183   0.859 -1.5927  2.1841  1.9137
 2483TIP3    H228941   0.402   6.146   0.942 -0.5813 -3.0920  1.3811
 2484TIP3   OH228942   3.219   1.047   5.712  0.2812 -0.4084 -0.2377
 2484TIP3    H128943   3.147   1.081   5.659  1.0820  0.9654 -0.5013
 2484TIP3    H228944   3.180   1.026   5.796 -0.6557 -0.8474 -0.7763
 2485TIP3   OH228945   5.611   4.375   3.594  0.3547  0.4309  0.6081
 2485TIP3    H128946   5.552   4.449   3.610  0.3696  0.9471 -1.5153
 2485TIP3    H228947   5.599   4.353   3.502  2.6237 -0.1961  0.3813
 2486TIP3   OH228948   6.280   6.209  16.615  0.3903  0.3609 -0.0636
 2486TIP3    H128949   6.282   6.243  16.705 -0.7837 -2.1095  1.0025
 2486TIP3    H228950   6.372   6.198  16.592  0.7229 -0.3604  1.4636
 2487TIP3   OH228951   2.177   5.781  15.943  0.2849 -0.1976 -0.1190
 2487TIP3    H128952   2.188   5.725  15.866 -0.3392  2.1463 -2.0726
 2487TIP3    H228953   2.266   5.808  15.965  0.5403 -1.4960  0.5213
 2488TIP3   OH228954   3.073   4.505   1.929  0.3911  0.0996 -0.0691
 2488TIP3    H128955   3.113   4.418   1.922 -0.2648 -0.0999 -1.6849
 2488TIP3    H228956   3.081   4.527   2.022  1.3859 -1.2861  0.2118
 2489TIP3   OH228957   0.374   1.424  14.784 -0.0597  0.1603 -0.2552
 2489TIP3    H128958   0.384   1.458  14.695 -0.7036 -0.1682 -0.4578
 2489TIP3    H228959   0.423   1.342  14.784 -1.8712 -0.9721 -0.9728
 2490TIP3   OH228960   1.204   3.356   5.108 -0.0650  0.4337  0.5417
 2490TIP3    H128961   1.184   3.262   5.111  3.0097 -0.3634 -0.8314
 2490TIP3    H228962   1.213   3.376   5.015  1.9819  1.4265  0.9107
 2491TIP3   OH228963   3.281   2.773  13.469 -0.0950  0.2720  0.1389
 2491TIP3    H128964   3.301   2.866  13.462  1.4087 -0.1115 -1.3113
 2491TIP3    H228965   3.279   2.742  13.378 -1.5902 -0.9317  0.5378
 2492TIP3   OH228966   0.213   6.347  11.330  0.5523 -0.1350  0.1101
 2492TIP3    H128967   0.277   6.418  11.343  0.1658  0.2520 -0.0900
 2492TIP3    H228968   0.136   6.376  11.380  0.0314  0.0645 -0.8021
 2493TIP3   OH228969   3.487   4.121   2.327 -0.8486  0.6464 -0.6386
 2493TIP3    H128970   3.511   4.028   2.337 -0.5015  0.6803 -1.1314
 2493TIP3    H228971   3.442   4.142   2.409  2.0035  0.9334  1.0026
 2494TIP3   OH228972   0.364   0.665   0.514  0.9086 -0.4583 -0.2968
 2494TIP3    H128973   0.380   0.609   0.590  0.5981 -1.4414 -0.9343
 2494TIP3    H228974   0.323   0.743   0.550  3.4083  0.3994  0.8941
 2495TIP3   OH228975   4.592   0.064   0.765 -0.1513 -0.1620  0.4673
 2495TIP3    H128976   4.533   0.128   0.805 -3.0066 -2.7225  0.6850
 2495TIP3    H228977   4.620   0.008   0.837 -0.6266 -1.3250 -0.2243
 2496TIP3   OH228978   0.919   4.389   3.962 -0.0234 -0.3415 -0.6977
 2496TIP3    H128979   1.005   4.402   3.923  0.1054 -0.4977 -0.4679
 2496TIP3    H228980   0.861   4.447   3.912  0.1603 -0.4516 -1.0387
 2497TIP3   OH228981   4.477   4.247  16.892  0.5286 -0.1878  0.5828
 2497TIP3    H128982   4.444   4.320  16.839  0.9746  2.7015  3.8903
 2497TIP3    H228983   4.403   4.186  16.897  0.3614 -0.4889 -2.8605
 2498TIP3   OH228984   0.601   4.857  13.900  0.2188 -0.2330  0.0757
 2498TIP3    H128985   0.644   4.859  13.814  0.2482  1.0892  0.0985
 2498TIP3    H228986   0.657   4.912  13.955 -0.9919  0.7761  0.3471
 2499TIP3   OH228987   0.976   5.024  12.369  0.0216 -0.0374 -0.3560
 2499TIP3    H128988   1.054   5.078  12.358 -0.5942  0.7756 -0.8618
 2499TIP3    H228989   0.923   5.041  12.290 -1.1989  0.3307  0.5068
 2500TIP3   OH228990   6.524   3.737  14.471  0.1797 -0.4411 -0.0369
 2500TIP3    H128991   6.565   3.815  14.433 -0.5157  0.5482  1.1662
 2500TIP3    H228992   6.501   3.683  14.396 -0.2133  0.9677 -0.9800
 2501TIP3   OH228993   6.222   1.024   2.136 -0.4653  0.7158 -0.2640
 2501TIP3    H128994   6.182   1.078   2.068 -1.1026 -0.1071 -0.5608
 2501TIP3    H228995   6.154   1.017   2.204  0.2017  1.6226  0.5179
 2502TIP3   OH228996   0.533   4.135  12.445  0.2808 -0.5329 -0.3149
 2502TIP3    H128997   0.540   4.220  12.488  1.1195 -1.0899  0.6870
 2502TIP3    H228998   0.442   4.131  12.416 -0.4687 -0.3241  1.8366
 2503TIP3   OH228999   5.548   0.114  12.544  0.1800 -0.4673 -0.2997
 2503TIP3    H129000   5.518   0.078  12.461  0.4377 -1.8859  0.2014
 2503TIP3    H229001   5.468   0.144  12.588  0.0447  0.2930 -1.0352
 2504TIP3   OH229002   6.460   4.447  11.982 -0.0678  0.1729  0.2166
 2504TIP3    H129003   6.380   4.500  11.982 -0.4165 -0.2889 -1.6364
 2504TIP3    H229004   6.448   4.386  12.055 -2.0686 -0.7732 -0.8129
 2505TIP3   OH229005   5.411   1.787   2.808  0.1067  0.2705  0.2732
 2505TIP3    H129006   5.315   1.784   2.812 -0.1115  2.6657 -1.3223
 2505TIP3    H229007   5.430   1.860   2.750  2.9422 -0.0260  0.7120
 2506TIP3   OH229008   1.035   0.100   3.537 -0.3603 -0.1019 -0.6120
 2506TIP3    H129009   0.942   0.115   3.520 -1.0882 -2.0365  1.2056
 2506TIP3    H229010   1.056   0.022   3.487  0.4907  0.7002 -1.5297
 2507TIP3   OH229011   3.191   3.257   2.189  0.4000 -0.8004 -0.2607
 2507TIP3    H129012   3.239   3.335   2.219 -2.7159  0.7187  1.2152
 2507TIP3    H229013   3.157   3.282   2.103  0.0657 -0.8390 -0.1404
 2508TIP3   OH229014   1.669   5.704  14.223  0.5357 -0.2696 -0.3625
 2508TIP3    H129015   1.630   5.678  14.140  0.5958 -0.1391 -0.4317
 2508TIP3    H229016   1.759   5.671  14.218  0.5013 -0.3767 -0.2939
 2509TIP3   OH229017   6.610   1.889   0.422 -0.3953  0.8420  0.0169
 2509TIP3    H129018   6.672   1.896   0.495 -1.5843  0.6637  1.0822
 2509TIP3    H229019   6.665   1.887   0.344  0.8822  2.0616  0.8358
 2510TIP3   OH229020   0.683   6.169   4.237  0.2849 -0.7255  0.2717
 2510TIP3    H129021   0.769   6.151   4.198  0.6017  0.3396  0.4342
 2510TIP3    H229022   0.700   6.172   4.331  0.8603  2.9852  0.1982
 2511TIP3   OH229023   0.146   0.819   3.401 -0.1615  0.1831 -0.0461
 2511TIP3    H129024   0.070   0.798   3.348  0.4673 -0.6757 -0.6385
 2511TIP3    H229025   0.116   0.887   3.461 -1.0647  0.7087 -1.0625
 2512TIP3   OH229026   2.982   4.202   0.178  0.6289 -0.1201 -0.5459
 2512TIP3    H129027   2.993   4.283   0.226  0.0915  0.3238 -1.1520
 2512TIP3    H229028   2.916   4.153   0.228 -0.7403  0.8016 -1.3707
 2513TIP3   OH229029   4.687   2.957   5.255  0.4824 -0.0000  0.2520
 2513TIP3    H129030   4.648   2.994   5.334 -0.3678 -2.0922  0.8841
 2513TIP3    H229031   4.777   2.938   5.279  0.1559 -0.8707  0.8379
 2514TIP3   OH229032   5.985   3.597  16.041  0.1699 -0.0400  0.5055
 2514TIP3    H129033   5.979   3.613  15.947  1.4494 -0.0747  0.3970
 2514TIP3    H229034   5.936   3.516  16.056 -1.0495  0.6072  0.0667
 2515TIP3   OH229035   0.971   1.650   1.366  0.3878  0.2837  0.2817
 2515TIP3    H129036   0.989   1.578   1.307 -0.1105  0.5555 -0.2049
 2515TIP3    H229037   0.905   1.617   1.427 -0.0222  0.3980 -0.0926
 2516TIP3   OH229038   1.550   5.335  14.687 -0.0780 -0.2623  0.1695
 2516TIP3    H129039   1.496   5.410  14.662 -0.3374 -0.0740  1.2177
 2516TIP3    H229040   1.637   5.373  14.702 -0.0905 -0.2480  0.2081
 2517TIP3   OH229041   0.866   4.450  17.417  0.0752  0.6629 -0.0021
 2517TIP3    H129042   0.829   4.365  17.442  1.0381  0.1010 -0.4491
 2517TIP3    H229043   0.933   4.467  17.484 -1.2225  1.8805  1.0569
 2518TIP3   OH229044   2.350   0.458  11.830  0.2655  0.4450 -0.5280
 2518TIP3    H129045   2.343   0.394  11.759  1.0089 -1.0318  0.6533
 2518TIP3    H229046   2.434   0.501  11.815 -0.1311  1.0206 -1.1947
 2519TIP3   OH229047   0.683   4.379   5.603 -0.0613  0.1198  0.1650
 2519TIP3    H129048   0.779   4.380   5.602 -0.0462  1.2804  0.4616
 2519TIP3    H229049   0.658   4.324   5.530  0.8458  1.0483 -0.8802
 2520TIP3   OH229050   4.661   5.948   6.470  0.2786 -0.4431 -0.4754
 2520TIP3    H129051   4.751   5.979   6.480 -0.3952  1.7825 -0.7194
 2520TIP3    H229052   4.663   5.890   6.394  1.6533 -1.1588  0.0861
 2521TIP3   OH229053   5.889   4.421  11.847  0.0410 -0.3660  0.3440
 2521TIP3    H129054   5.976   4.410  11.885  0.6501  0.1026 -0.8828
 2521TIP3    H229055   5.833   4.445  11.922  1.2004  0.5079  0.9579
 2522TIP3   OH229056   0.110   3.522   6.440 -0.1385  0.6893  0.5495
 2522TIP3    H129057   0.175   3.486   6.500  1.2543  2.7300  0.3437
 2522TIP3    H229058   0.137   3.612   6.425 -1.1264  0.6365 -2.1921
 2523TIP3   OH229059   2.686   2.774  17.010 -0.8447  0.1639  0.0239
 2523TIP3    H129060   2.647   2.830  16.943 -0.9896  1.1961  0.9438
 2523TIP3    H229061   2.617   2.711  17.031 -0.8610 -0.0598 -0.6467
 2524TIP3   OH229062   4.329   4.292  10.641 -0.4519  0.8405  0.2638
 2524TIP3    H129063   4.246   4.338  10.627  0.4114  2.4530  0.1989
 2524TIP3    H229064   4.384   4.320  10.568  0.3770  0.2874  0.6599
 2525TIP3   OH229065   0.839   1.392  13.023  0.2673 -0.8920 -0.5916
 2525TIP3    H129066   0.932   1.386  13.042 -0.1442 -2.0544  1.3764
 2525TIP3    H229067   0.808   1.302  13.025 -1.3142 -0.3909  1.5194
 2526TIP3   OH229068   5.706   1.479  16.416 -0.3188  0.2307  0.6528
 2526TIP3    H129069   5.709   1.574  16.430 -0.2627  0.3311 -0.0193
 2526TIP3    H229070   5.797   1.451  16.427 -0.0626  0.4838 -0.6338
 2527TIP3   OH229071   5.357   5.834  12.393 -0.0651 -0.6556 -0.2463
 2527TIP3    H129072   5.262   5.847  12.393  0.0050 -0.0867 -0.5309
 2527TIP3    H229073   5.371   5.765  12.328 -0.1994  0.0395 -1.0361
 2528TIP3   OH229074   3.594   3.563  14.199 -0.5630  0.1867  0.2604
 2528TIP3    H129075   3.555   3.538  14.283  2.1806  2.0500  2.2866
 2528TIP3    H229076   3.582   3.487  14.143 -3.5071 -0.7370  1.9237
 2529TIP3   OH229077   3.392   5.184   3.507 -0.0532 -0.0066 -0.5181
 2529TIP3    H129078   3.436   5.262   3.473  0.4466 -0.7664 -1.6969
 2529TIP3    H229079   3.315   5.173   3.450 -1.5532  1.0222  1.2097
 2530TIP3   OH229080   2.015   6.708   1.788  0.1155 -0.1196  0.2071
 2530TIP3    H129081   1.975   6.630   1.826  0.7180 -1.6178 -2.0284
 2530TIP3    H229082   2.063   6.675   1.712  1.5858  2.2644  0.0227
 2531TIP3   OH229083   6.347   0.251   0.573 -0.0512  0.5458 -0.3729
 2531TIP3    H129084   6.346   0.191   0.498  0.1197 -0.4061  0.3657
 2531TIP3    H229085   6.260   0.241   0.613 -0.5118  1.7999 -0.9992
 2532TIP3   OH229086   5.292   1.941   0.138 -0.1382  0.6204  0.1243
 2532TIP3    H129087   5.338   1.965   0.219  0.2332 -0.0293  0.1181
 2532TIP3    H229088   5.348   1.974   0.068 -0.8046  1.7913  0.1292
 2533TIP3   OH229089   0.972   4.096  16.613  0.1686  0.1396  0.1381
 2533TIP3    H129090   0.982   4.171  16.673  0.5436  0.2580 -0.0709
 2533TIP3    H229091   1.058   4.085  16.574 -0.1000  0.1229 -0.4579
 2534TIP3   OH229092   3.815   2.601   1.238 -0.6362  0.7595 -0.1446
 2534TIP3    H129093   3.804   2.543   1.313 -0.9429  0.3059 -0.5411
 2534TIP3    H229094   3.734   2.653   1.236 -1.3644 -0.3758 -1.1474
 2535TIP3   OH229095   0.022   4.358   2.539  0.2986  0.1387  0.2003
 2535TIP3    H129096   0.067   4.273   2.547  0.6042  0.3726  1.0643
 2535TIP3    H229097   0.092   4.423   2.549  0.0292  0.4948 -0.2355
 2536TIP3   OH229098   2.401   4.975   4.333 -0.0486  0.1902 -0.2139
 2536TIP3    H129099   2.451   5.030   4.273 -1.3156  0.8091 -0.7437
 2536TIP3    H229100   2.353   4.915   4.276 -1.5864  1.0585  0.1331
 2537TIP3   OH229101   5.929   6.114   4.516  0.5569 -0.3867 -0.2715
 2537TIP3    H129102   5.879   6.121   4.435 -0.8059  1.4309  0.6363
 2537TIP3    H229103   6.020   6.125   4.490  0.0412  1.4847 -1.4446
 2538TIP3   OH229104   4.961   4.625  13.402  0.3989 -0.0325  0.2203
 2538TIP3    H129105   4.887   4.564  13.409  0.6272 -0.4214 -0.6526
 2538TIP3    H229106   4.925   4.703  13.361  0.5162 -0.3152 -0.4330
 2539TIP3   OH229107   1.590   0.654  11.549  0.2606 -0.6642 -0.5799
 2539TIP3    H129108   1.546   0.733  11.580  2.9124  0.2691  1.1698
 2539TIP3    H229109   1.607   0.670  11.457 -1.3543 -0.2845 -0.8473
 2540TIP3   OH229110   3.803   6.300  11.739 -0.3916 -0.1777  0.1501
 2540TIP3    H129111   3.861   6.250  11.796 -0.1890 -0.1078  0.0067
 2540TIP3    H229112   3.787   6.382  11.786  0.5159  0.2718 -0.2952
 2541TIP3   OH229113   4.855   2.007  11.834  0.4478  0.2011  0.2205
 2541TIP3    H129114   4.932   1.956  11.808 -0.1279  0.2050 -1.6194
 2541TIP3    H229115   4.781   1.960  11.794 -0.2517  1.5438 -0.1098
 2542TIP3   OH229116   0.702   4.784  16.433  0.2953  0.3061  0.2578
 2542TIP3    H129117   0.641   4.741  16.374  0.6844 -0.2522  0.2509
 2542TIP3    H229118   0.743   4.852  16.380  1.3540 -0.8161 -0.4276
 2543TIP3   OH229119   2.912   6.478   0.667 -0.4517  0.5409  0.4896
 2543TIP3    H129120   2.970   6.485   0.742 -1.0622 -1.6670  1.2347
 2543TIP3    H229121   2.830   6.443   0.702 -0.3331 -1.8034 -1.3311
 2544TIP3   OH229122   3.008   0.654   1.079 -1.1124  0.1684  0.3534
 2544TIP3    H129123   2.970   0.662   1.166  0.0430 -3.8372  1.4373
 2544TIP3    H229124   3.102   0.663   1.092 -0.9832  0.5781 -0.6998
 2545TIP3   OH229125   1.002   6.028   3.601 -0.1646  0.2267 -0.1924
 2545TIP3    H129126   1.066   6.033   3.530  0.6652 -0.0372  0.5163
 2545TIP3    H229127   0.991   5.934   3.616 -0.8873  0.2670 -0.4553
 2546TIP3   OH229128   4.266   5.568   4.912 -0.5066 -0.5631  0.5391
 2546TIP3    H129129   4.246   5.480   4.881 -0.6176 -0.4896  0.3984
 2546TIP3    H229130   4.268   5.622   4.832  0.3002 -0.5756  0.5429
 2547TIP3   OH229131   1.050   6.507  11.039 -0.2758 -0.2038  0.2076
 2547TIP3    H129132   1.058   6.436  10.975  0.2976  1.1390 -1.3004
 2547TIP3    H229133   1.104   6.578  11.002 -0.0898  0.6917  2.1128
 2548TIP3   OH229134   3.960   4.735   5.092  0.1513  0.0861  0.1586
 2548TIP3    H129135   3.933   4.660   5.145  0.5421  0.0679  0.3370
 2548TIP3    H229136   3.898   4.737   5.019 -1.4853  1.1473  1.5047
 2549TIP3   OH229137   2.174   6.544   2.577 -0.5727  0.6283 -0.0126
 2549TIP3    H129138   2.079   6.559   2.574 -0.8981 -1.2576 -0.5090
 2549TIP3    H229139   2.209   6.595   2.504 -1.2444  1.1364  0.0137
 2550TIP3   OH229140   2.910   4.842   1.924  0.3434 -0.1343  0.3996
 2550TIP3    H129141   2.954   4.818   2.005  2.1305  1.0392 -0.1585
 2550TIP3    H229142   2.846   4.773   1.909 -0.1720 -0.2756  2.8933
 2551TIP3   OH229143   1.995   5.192  14.324  0.1140  0.0223  0.0463
 2551TIP3    H129144   2.038   5.246  14.390  1.0928 -1.8846  1.0303
 2551TIP3    H229145   2.017   5.102  14.347 -0.7625 -0.7986 -2.0179
 2552TIP3   OH229146   6.091   3.219  12.444  0.4413  0.1794  0.2782
 2552TIP3    H129147   6.160   3.199  12.380 -0.7975  0.2416 -1.1487
 2552TIP3    H229148   6.050   3.299  12.410 -1.0522 -0.4883  0.4396
 2553TIP3   OH229149   1.878   6.723  12.624  0.6585  0.3125 -0.0017
 2553TIP3    H129150   1.867   6.633  12.592 -1.3424  0.2890  0.5937
 2553TIP3    H229151   1.912   6.714  12.712  0.5159  0.1384  0.0354
 2554TIP3   OH229152   2.369   1.799  13.827 -0.1501  0.3416 -0.8185
 2554TIP3    H129153   2.331   1.879  13.863  0.7404 -0.2357  1.6367
 2554TIP3    H229154   2.296   1.736  13.826  0.1191 -0.1360  1.8287
 2555TIP3   OH229155   4.676   1.868  15.316 -0.1396  0.3019 -0.4119
 2555TIP3    H129156   4.649   1.935  15.379 -0.6332  1.5615 -1.8994
 2555TIP3    H229157   4.679   1.914  15.233  0.6004 -1.2978 -1.3059
 2556TIP3   OH229158   2.081   3.051   5.480 -0.2169 -0.2696 -0.0680
 2556TIP3    H129159   2.076   3.037   5.386 -0.4160  0.6963 -0.2145
 2556TIP3    H229160   2.015   3.119   5.498  1.1188  0.9510  0.4581
 2557TIP3   OH229161   0.656   5.670  10.687  0.4702  0.1689 -0.2950
 2557TIP3    H129162   0.664   5.592  10.633 -0.0620  0.9975 -1.6199
 2557TIP3    H229163   0.746   5.688  10.716  0.7632 -0.2960 -0.8907
 2558TIP3   OH229164   6.435   5.289  11.309 -0.1714  0.2258  0.3444
 2558TIP3    H129165   6.443   5.350  11.236  0.4315  0.3567  0.5127
 2558TIP3    H229166   6.371   5.330  11.367 -0.8165  0.0156 -0.2088
 2559TIP3   OH229167   6.445   4.309  12.226  0.0220 -0.0305  0.3664
 2559TIP3    H129168   6.468   4.361  12.303  1.2957 -1.4621  0.9993
 2559TIP3    H229169   6.426   4.222  12.260  1.4959 -0.9377 -0.9918
 2560TIP3   OH229170   6.247   0.226  11.012  0.7418  0.5120  0.1809
 2560TIP3    H129171   6.325   0.183  10.978  0.4140  0.4161 -0.4703
 2560TIP3    H229172   6.262   0.319  10.996  1.3448  0.6314  1.3695
 2561TIP3   OH229173   6.031   5.747  17.054  0.2126 -0.1570  0.7470
 2561TIP3    H129174   6.123   5.718  17.055 -0.2632 -1.7634  2.0279
 2561TIP3    H229175   5.981   5.666  17.050 -1.1710  0.6530  1.1293
 2562TIP3   OH229176   3.753   4.971  11.206  0.3277 -0.0326  0.3056
 2562TIP3    H129177   3.673   5.019  11.227  1.1976  0.7971  1.8845
 2562TIP3    H229178   3.732   4.879  11.223 -0.5811  0.0625 -0.2789
 2563TIP3   OH229179   2.049   1.520  15.344  0.2071 -1.1717  0.1787
 2563TIP3    H129180   1.964   1.479  15.326  0.1992 -1.1098  0.0745
 2563TIP3    H229181   2.095   1.516  15.261 -1.1287  2.2860 -0.9099
 2564TIP3   OH229182   2.825   6.428  16.593 -0.3067  0.5027  0.9381
 2564TIP3    H129183   2.806   6.409  16.501 -1.4650  0.6999  1.1232
 2564TIP3    H229184   2.916   6.460  16.592  0.1962 -0.8710  0.0754
 2565TIP3   OH229185   5.952   4.758  16.392 -1.1055  0.0657  0.4154
 2565TIP3    H129186   5.918   4.846  16.407  0.5951  1.0666 -1.1175
 2565TIP3    H229187   6.025   4.750  16.453 -2.8680 -1.4144  2.4874
 2566TIP3   OH229188   3.056   2.640   3.449  0.1392  0.4801 -0.1626
 2566TIP3    H129189   3.066   2.717   3.505  0.4804  1.2134 -1.1943
 2566TIP3    H229190   3.140   2.630   3.406  0.3034 -0.8850  0.4414
 2567TIP3   OH229191   6.196   3.829   1.294 -0.1524  0.1047  0.6213
 2567TIP3    H129192   6.188   3.755   1.234  0.3677 -0.0825  0.7746
 2567TIP3    H229193   6.238   3.792   1.372 -0.6363  0.3888  1.0200
 2568TIP3   OH229194   0.009   5.294  12.154 -0.3798  0.9956 -0.5754
 2568TIP3    H129195  -0.050   5.223  12.180 -0.3829  0.5772 -1.6529
 2568TIP3    H229196  -0.040   5.344  12.088 -0.2807  1.8555 -0.0081
 2569TIP3   OH229197   2.112   6.072  11.590 -0.1870 -0.5484 -0.1175
 2569TIP3    H129198   2.197   6.033  11.608  0.5347  0.9285 -0.1835
 2569TIP3    H229199   2.062   6.002  11.548  0.3629 -1.9807  1.5166
 2570TIP3   OH229200   1.286   4.241   3.161  0.0496  0.4424  0.5373
 2570TIP3    H129201   1.346   4.199   3.099 -2.7415  0.2902 -2.3036
 2570TIP3    H229202   1.321   4.218   3.248  1.6528 -3.2507 -0.8896
 2571TIP3   OH229203   3.796   3.530  11.628  0.8976 -0.1998 -0.2709
 2571TIP3    H129204   3.795   3.518  11.723  0.0300 -0.2201 -0.2761
 2571TIP3    H229205   3.880   3.574  11.611  1.0852 -0.2376  0.4960
 2572TIP3   OH229206   1.510   3.382  16.481 -0.2516 -0.4276 -0.3116
 2572TIP3    H129207   1.467   3.370  16.566 -0.0469 -0.6785 -0.2420
 2572TIP3    H229208   1.514   3.294  16.444 -0.2534 -0.3313 -0.5411
 2573TIP3   OH229209   4.712   2.389  16.539  0.0070 -0.5160  0.5451
 2573TIP3    H129210   4.681   2.301  16.561  1.7161 -1.4042 -0.3733
 2573TIP3    H229211   4.764   2.376  16.459 -0.4714  1.4905 -0.1393
 2574TIP3   OH229212   5.869   2.087  16.104 -0.3190 -0.0511 -0.1263
 2574TIP3    H129213   5.917   2.009  16.133 -0.8638  0.0525  1.1081
 2574TIP3    H229214   5.899   2.156  16.163 -1.6224  0.1179  0.3763
 2575TIP3   OH229215   2.338   4.761   2.347  0.1706 -0.6140 -0.1099
 2575TIP3    H129216   2.368   4.768   2.437  1.6061 -0.5415 -0.5591
 2575TIP3    H229217   2.254   4.716   2.352  0.5314 -1.1815  1.2162
 2576TIP3   OH229218   6.090   2.689   5.904  0.3012  0.2196 -0.2933
 2576TIP3    H129219   6.110   2.608   5.952  0.0143  0.8481  0.9191
 2576TIP3    H229220   6.116   2.759   5.963 -1.8108  1.0347 -0.2485
 2577TIP3   OH229221   5.455   1.197   4.003 -0.6572 -0.3542 -0.5939
 2577TIP3    H129222   5.398   1.154   3.939 -0.0862 -0.3671 -1.1050
 2577TIP3    H229223   5.542   1.195   3.962  0.4778 -3.4115  1.6182
 2578TIP3   OH229224   1.980   2.520  14.850  0.3279 -0.2313  0.0911
 2578TIP3    H129225   2.074   2.520  14.867  0.2139  3.0328  1.4641
 2578TIP3    H229226   1.959   2.611  14.833 -2.7475 -0.7195  0.7178
 2579TIP3   OH229227   6.166   1.832  16.165  0.3374 -0.0685 -0.4671
 2579TIP3    H129228   6.071   1.849  16.171  0.6148  1.1385  1.7247
 2579TIP3    H229229   6.180   1.754  16.219  0.6517  0.0831 -0.3271
 2580TIP3   OH229230   2.259   2.730   0.837 -0.0255 -0.5051 -0.2319
 2580TIP3    H129231   2.220   2.781   0.908  2.5198  2.2692 -0.6011
 2580TIP3    H229232   2.324   2.675   0.880  3.2253  2.8805 -0.3094
 2581TIP3   OH229233   3.275   6.738   5.348 -0.2527  0.5193  0.3978
 2581TIP3    H129234   3.269   6.649   5.382 -1.2278  0.8689  1.1998
 2581TIP3    H229235   3.193   6.779   5.375  1.2005  2.4193  2.2890
 2582TIP3   OH229236   2.715   1.811   0.210 -0.0776 -0.0742  0.5904
 2582TIP3    H129237   2.779   1.742   0.229 -0.2217 -0.1385  0.8394
 2582TIP3    H229238   2.668   1.823   0.292  0.7429  1.1486  0.9167
 2583TIP3   OH229239   4.222   2.760   1.309  0.2548  0.5011  0.6508
 2583TIP3    H129240   4.301   2.811   1.297  0.7764 -0.2936  0.6249
 2583TIP3    H229241   4.151   2.821   1.291  0.8188  1.5081  1.7332
 2584TIP3   OH229242   1.882   4.237   3.970  0.0386  0.2872 -0.5272
 2584TIP3    H129243   1.859   4.180   4.044 -1.3770  0.1587 -1.0425
 2584TIP3    H229244   1.823   4.209   3.900  1.7116  0.0427 -1.8948
 2585TIP3   OH229245   3.803   6.082   5.736 -0.0338 -0.5422 -0.0779
 2585TIP3    H129246   3.898   6.085   5.750 -0.2962 -0.3455  1.8257
 2585TIP3    H229247   3.791   6.115   5.647  1.6630 -0.3577 -0.2665
 2586TIP3   OH229248   4.372   3.432  10.948 -0.1212 -0.4758 -0.3042
 2586TIP3    H129249   4.388   3.340  10.927  0.7180 -0.7313  1.2777
 2586TIP3    H229250   4.317   3.429  11.026 -2.2490  0.4121 -1.6809
 2587TIP3   OH229251   1.959   1.804   5.360  1.0270  0.2303  0.4937
 2587TIP3    H129252   2.040   1.786   5.313 -0.7999 -1.3767 -2.2804
 2587TIP3    H229253   1.936   1.721   5.402 -1.6625 -1.0646 -3.0345
 2588TIP3   OH229254   2.544   2.597   2.105 -0.5614 -0.1408 -0.4152
 2588TIP3    H129255   2.524   2.632   2.018  1.6021 -0.0827 -0.9422
 2588TIP3    H229256   2.583   2.511   2.087 -0.2097 -0.1784  0.5055
 2589TIP3   OH229257   5.915   4.138   0.206  0.8094  0.4997  0.3300
 2589TIP3    H129258   5.822   4.124   0.226  1.2019 -1.9395  0.6543
 2589TIP3    H229259   5.962   4.096   0.277  2.1730 -0.8728 -1.2931
 2590TIP3   OH229260   3.424   3.763   1.276  0.7247  0.2790  0.1295
 2590TIP3    H129261   3.465   3.820   1.340  0.1727  2.3088 -1.2160
 2590TIP3    H229262   3.330   3.775   1.289  0.5975 -0.1570 -0.3115
 2591TIP3   OH229263   4.383   2.951   0.938 -0.4154 -0.3679 -0.3117
 2591TIP3    H129264   4.447   2.881   0.955 -1.5939 -1.2756  0.5820
 2591TIP3    H229265   4.373   2.952   0.843  1.0497 -0.0719 -0.4936
 2592TIP3   OH229266   3.912   0.542  14.412 -0.1447 -0.1088 -0.3154
 2592TIP3    H129267   3.954   0.625  14.391  0.0236 -0.7280 -2.6570
 2592TIP3    H229268   3.859   0.521  14.336 -0.9900 -1.6747  0.6453
 2593TIP3   OH229269   2.325   0.797   6.453  0.9848 -0.3509 -0.3678
 2593TIP3    H129270   2.310   0.888   6.480 -0.6114 -0.9737  1.0785
 2593TIP3    H229271   2.359   0.755   6.532  1.9343 -0.9699 -1.0968
 2594TIP3   OH229272   4.145   3.688   3.168 -0.1070  0.0554  0.0153
 2594TIP3    H129273   4.182   3.711   3.254  1.4021  4.9263 -1.5745
 2594TIP3    H229274   4.056   3.723   3.170 -0.1301  0.0183 -0.3467
 2595TIP3   OH229275   4.609   0.360   3.603 -0.2704 -0.3439  0.2386
 2595TIP3    H129276   4.520   0.390   3.622 -0.2736  0.1385 -0.4767
 2595TIP3    H229277   4.628   0.396   3.516  0.9063  0.2120  0.7019
 2596TIP3   OH229278   6.276   0.992   3.620 -0.0800  0.0664 -0.1356
 2596TIP3    H129279   6.342   0.977   3.687  0.7231  2.4350 -0.3118
 2596TIP3    H229280   6.198   1.018   3.669 -0.2977 -0.7335 -0.0344
 2597TIP3   OH229281   4.971   6.409   5.133 -0.1300  0.3793  0.1886
 2597TIP3    H129282   4.952   6.379   5.222 -0.0411  0.7211  0.3229
 2597TIP3    H229283   4.945   6.336   5.077 -1.3105  0.6184  0.4061
 2598TIP3   OH229284   6.709   0.247  13.810 -0.1162  0.1980  0.9486
 2598TIP3    H129285   6.694   0.241  13.715 -1.8989 -0.8849  1.2576
 2598TIP3    H229286   6.792   0.201  13.824 -0.1771 -0.2203 -0.0038
 2599TIP3   OH229287   1.356   5.733  15.351 -0.0528 -0.3297 -0.4941
 2599TIP3    H129288   1.411   5.753  15.275 -1.7632 -0.3855 -1.8113
 2599TIP3    H229289   1.268   5.724  15.315 -0.9389 -0.2882  1.5262
 2600TIP3   OH229290   1.605   0.376  15.250 -0.1722 -0.3150 -0.1197
 2600TIP3    H129291   1.636   0.351  15.162 -0.7693  1.9925 -1.0787
 2600TIP3    H229292   1.684   0.373  15.304  0.6178  0.0181 -1.2033
 2601TIP3   OH229293   1.976   5.513   0.440 -0.3733 -0.7976 -0.1671
 2601TIP3    H129294   1.905   5.558   0.393  0.2753  0.5547  0.1127
 2601TIP3    H229295   1.935   5.434   0.476 -1.7718  0.0411  0.1208
 2602TIP3   OH229296   1.297   0.390   0.073 -0.3328  0.2966  0.0382
 2602TIP3    H129297   1.209   0.382   0.037  0.0875 -0.7145 -0.8119
 2602TIP3    H229298   1.338   0.460   0.021 -0.7307  1.0403  0.6907
 2603TIP3   OH229299   2.592   6.169   6.156 -0.5241  0.5175  0.4775
 2603TIP3    H129300   2.610   6.077   6.138 -0.6219  0.4947  0.4961
 2603TIP3    H229301   2.515   6.168   6.213 -0.4381  0.6052  0.5944
 2604TIP3   OH229302   2.624   3.030   3.529  0.2754 -0.1606 -0.0996
 2604TIP3    H129303   2.566   2.976   3.477  0.0785  1.5270 -1.7548
 2604TIP3    H229304   2.578   3.113   3.539  1.6031  0.5822  0.1730
 2605TIP3   OH229305   2.035   5.427  13.549 -0.3949 -0.3162 -0.1373
 2605TIP3    H129306   2.028   5.337  13.516  0.1639 -0.3817 -0.0803
 2605TIP3    H229307   2.016   5.419  13.643 -1.7307 -0.1662 -0.3750
 2606TIP3   OH229308   0.247   6.525  14.593 -0.2539  0.5118 -0.5803
 2606TIP3    H129309   0.217   6.447  14.546 -0.7462 -0.0970  0.7065
 2606TIP3    H229310   0.204   6.520  14.678  2.0935  0.5306  0.6925
 2607TIP3   OH229311   1.509   2.635   5.377  0.0977  0.6425  0.2549
 2607TIP3    H129312   1.466   2.551   5.392 -0.5762  0.9447  0.0628
 2607TIP3    H229313   1.495   2.684   5.458  2.0701 -0.0701  1.0913
 2608TIP3   OH229314   2.763   3.273  11.950  0.6686  0.5387  0.0783
 2608TIP3    H129315   2.776   3.235  11.863 -0.9893  0.8393 -0.3256
 2608TIP3    H229316   2.754   3.198  12.008  0.8089  0.3372 -0.1549
 2609TIP3   OH229317   1.748   2.909   4.761 -0.0789  0.4296 -0.1121
 2609TIP3    H129318   1.786   2.986   4.802 -0.4229  0.4822  0.1090
 2609TIP3    H229319   1.763   2.923   4.667  2.4578 -0.6068  0.0524
 2610TIP3   OH229320   6.213   0.321   1.570 -0.4519 -0.4656  0.1377
 2610TIP3    H129321   6.201   0.331   1.664 -0.5298  1.0759 -0.0090
 2610TIP3    H229322   6.238   0.408   1.539  1.7993 -1.4259 -0.9666
 2611TIP3   OH229323   0.157   6.678  13.957 -0.0762 -0.2327  0.3386
 2611TIP3    H129324   0.197   6.602  13.915  0.1676 -0.5574  1.1480
 2611TIP3    H229325   0.147   6.741  13.885  2.1893 -0.0017  0.1373
 2612TIP3   OH229326   2.068   4.164  13.695  0.0435 -0.7887  0.3769
 2612TIP3    H129327   2.090   4.076  13.726 -1.6221 -0.6312  2.1596
 2612TIP3    H229328   1.974   4.160  13.677  0.3215  0.0951 -1.5249
 2613TIP3   OH229329   5.921   2.890   2.354 -0.4848  0.8922  0.4355
 2613TIP3    H129330   5.945   2.841   2.433 -1.9838 -0.3933  0.1440
 2613TIP3    H229331   5.897   2.823   2.291  0.1305  1.9299 -0.9503
 2614TIP3   OH229332   6.482   5.979   4.001 -0.2166 -0.0239 -0.5807
 2614TIP3    H129333   6.454   6.049   3.943 -1.0617 -0.9552 -1.3423
 2614TIP3    H229334   6.571   5.957   3.973  0.0626  0.7437 -0.3154
 2615TIP3   OH229335   6.262   0.572   1.453 -0.3350  0.1285 -0.1597
 2615TIP3    H129336   6.311   0.601   1.375 -2.1698  0.0840 -1.3844
 2615TIP3    H229337   6.170   0.577   1.427 -1.0788  1.0669  2.3601
 2616TIP3   OH229338   1.428   3.496  14.965  0.6147  0.0277 -0.0292
 2616TIP3    H129339   1.490   3.444  15.016  0.5307 -0.5462 -0.5127
 2616TIP3    H229340   1.479   3.529  14.891  0.1613 -1.1174 -0.8747
 2617TIP3   OH229341   6.362   5.024   4.083 -0.4013 -0.5572 -0.2824
 2617TIP3    H129342   6.390   5.108   4.119 -0.5943 -0.6885  0.1798
 2617TIP3    H229343   6.300   5.047   4.014  0.4079 -0.2824 -0.9298
 2618TIP3   OH229344   0.542   3.122   5.026  0.0987  0.0741  0.4668
 2618TIP3    H129345   0.602   3.159   4.962 -1.1381 -0.6573 -1.1817
 2618TIP3    H229346   0.480   3.192   5.045 -0.7934 -0.3471 -0.7922
 2619TIP3   OH229347   0.554   3.610  16.429 -0.7676  0.4466  0.6845
 2619TIP3    H129348   0.529   3.567  16.347 -2.4953 -0.6076  1.7050
 2619TIP3    H229349   0.474   3.653  16.458 -1.1421 -1.8040  3.3626
 2620TIP3   OH229350   6.088   3.100  16.731 -0.2927 -0.5897  0.3751
 2620TIP3    H129351   6.021   3.163  16.755 -0.9528 -1.2077  0.1915
 2620TIP3    H229352   6.137   3.142  16.660 -1.8992 -1.0094 -1.0386
 2621TIP3   OH229353   6.712   2.699   3.825 -0.1551 -0.0739  0.4331
 2621TIP3    H129354   6.767   2.622   3.813  0.0272  0.0805  0.2522
 2621TIP3    H229355   6.696   2.731   3.736 -0.4524 -0.0596  0.4924
 2622TIP3   OH229356   3.961   2.975   0.523 -0.1079 -0.2038 -0.1912
 2622TIP3    H129357   3.931   3.021   0.444 -1.7258 -0.8482  0.0124
 2622TIP3    H229358   3.910   2.894   0.524 -0.9497  0.2848  2.0944
 2623TIP3   OH229359   3.514   4.821  17.375  0.0348  0.1906 -0.7926
 2623TIP3    H129360   3.590   4.879  17.374 -0.0464  0.2940 -1.9283
 2623TIP3    H229361   3.546   4.739  17.337 -0.7176  0.6406 -2.4609
 2624TIP3   OH229362   2.159   2.670  16.703 -0.0081 -0.1141  0.2759
 2624TIP3    H129363   2.202   2.650  16.786  1.3250 -0.8201 -0.5374
 2624TIP3    H229364   2.198   2.753  16.675 -0.0614 -0.1437  0.1097
 2625TIP3   OH229365   6.323   1.116  13.810 -0.1462 -0.7257  0.1885
 2625TIP3    H129366   6.245   1.171  13.816  0.7642  0.4360  2.5977
 2625TIP3    H229367   6.290   1.030  13.783 -2.2244 -0.1974  0.8925
 2626TIP3   OH229368   2.830   0.409   0.960  0.0696  0.2846  0.1965
 2626TIP3    H129369   2.908   0.418   0.904  0.1385 -0.4039  0.1720
 2626TIP3    H229370   2.756   0.420   0.900  0.1454  1.0206  0.2340
 2627TIP3   OH229371   5.798   0.501   4.273 -0.3774 -0.4645 -0.3957
 2627TIP3    H129372   5.842   0.536   4.351  1.2075 -2.3617 -0.3608
 2627TIP3    H229373   5.720   0.555   4.263 -1.1356 -0.6990  3.0405
 2628TIP3   OH229374   4.742   6.195  12.432  0.4517  0.2080  0.2849
 2628TIP3    H129375   4.783   6.234  12.510  0.6449 -0.9849  0.8060
 2628TIP3    H229376   4.695   6.118  12.466 -0.0776  0.0885 -0.6798
 2629TIP3   OH229377   5.302   4.574  11.391 -0.5774 -0.3542 -0.1258
 2629TIP3    H129378   5.323   4.518  11.316  1.5510 -0.1254  0.2356
 2629TIP3    H229379   5.284   4.660  11.353 -0.5132 -0.4781 -0.4424
 2630TIP3   OH229380   4.138   5.774  15.702  0.1372 -0.4326 -0.1768
 2630TIP3    H129381   4.158   5.686  15.733  1.0517  0.3791  1.6530
 2630TIP3    H229382   4.187   5.832  15.759 -0.6346  1.3046 -1.1817
 2631TIP3   OH229383   5.423   2.095  11.130 -0.0861 -0.1796 -0.0219
 2631TIP3    H129384   5.450   2.075  11.040  0.3697  0.2669  0.0094
 2631TIP3    H229385   5.487   2.159  11.160 -0.6037  0.1419  0.4095
 2632TIP3   OH229386   6.768   0.557   4.643  0.2410 -0.2522  0.2184
 2632TIP3    H129387   6.832   0.493   4.612 -1.7468 -1.9439 -0.6657
 2632TIP3    H229388   6.728   0.516   4.720 -0.8930  0.0001 -0.2072
 2633TIP3   OH229389   3.074   2.770   2.042 -0.0244  0.0197 -0.5252
 2633TIP3    H129390   3.090   2.795   2.133 -0.5566 -0.9754 -0.1389
 2633TIP3    H229391   2.981   2.787   2.028  0.1723  0.6820 -1.0601
 2634TIP3   OH229392   1.610   6.588  15.927  0.3517  0.4915  0.1531
 2634TIP3    H129393   1.620   6.676  15.965  2.1200  0.1118  0.6971
 2634TIP3    H229394   1.640   6.530  15.997 -1.5625 -0.6175  0.0865
 2635TIP3   OH229395   5.406   3.254  14.401 -0.0390 -0.3551 -0.2722
 2635TIP3    H129396   5.498   3.277  14.406 -0.5819  2.2873 -1.0037
 2635TIP3    H229397   5.405   3.160  14.383  2.4311 -0.7757  1.3361
 2636TIP3   OH229398   0.045   6.498  13.726  0.0507  0.3195  0.0990
 2636TIP3    H129399   0.132   6.525  13.757 -0.1473  0.6967  0.3307
 2636TIP3    H229400   0.061   6.459  13.640  0.8167 -1.9843  1.1991
 2637TIP3   OH229401   1.649   3.257  12.099  0.0404  0.0565  0.2478
 2637TIP3    H129402   1.623   3.292  12.184  2.1813 -0.9296  1.3745
 2637TIP3    H229403   1.575   3.202  12.072 -0.3889 -0.1656  1.7985
 2638TIP3   OH229404   4.829   4.050  11.591  0.3035  0.0752 -0.2686
 2638TIP3    H129405   4.882   4.069  11.668  2.5300 -2.5579 -0.9954
 2638TIP3    H229406   4.863   4.109  11.523  0.6599  0.0856 -0.0836
 2639TIP3   OH229407   0.737   1.551   5.262  0.4862  0.0394 -0.2567
 2639TIP3    H129408   0.740   1.646   5.274  0.3939  0.0870 -0.6102
 2639TIP3    H229409   0.666   1.523   5.320  0.2688  0.2312 -0.4262
 2640TIP3   OH229410   2.386   5.422  15.436  0.0269 -0.2776  0.3266
 2640TIP3    H129411   2.436   5.466  15.367  1.5915  2.5613  3.0305
 2640TIP3    H229412   2.294   5.441  15.416  0.4992  1.2690 -0.5020
 2641TIP3   OH229413   4.716   1.993  13.951 -0.1524 -0.5188 -0.3856
 2641TIP3    H129414   4.671   2.015  13.870 -0.9357  2.8798  0.8168
 2641TIP3    H229415   4.677   1.910  13.978 -2.2893 -0.0586 -1.8097
 2642TIP3   OH229416   4.955   5.290  11.180 -0.3646  0.5660  0.2800
 2642TIP3    H129417   4.988   5.235  11.109 -1.1550  1.8850 -1.1856
 2642TIP3    H229418   4.957   5.379  11.144 -0.1984  1.3594  2.1515
 2643TIP3   OH229419   5.845   4.778  12.712  0.0141  0.5114 -0.6136
 2643TIP3    H129420   5.894   4.860  12.713 -0.4140  0.7853  0.9700
 2643TIP3    H229421   5.816   4.767  12.802 -1.7730 -0.2891 -1.2492
 2644TIP3   OH229422   2.892   5.700  16.523 -0.1317 -0.3918  0.0895
 2644TIP3    H129423   2.907   5.612  16.555  0.9311  0.3003  1.6234
 2644TIP3    H229424   2.800   5.717  16.541 -0.1050 -0.8443  0.6761
 2645TIP3   OH229425   6.515   4.602   0.357  0.4733  0.0324 -0.1151
 2645TIP3    H129426   6.501   4.677   0.299 -1.8545  1.1603  1.7498
 2645TIP3    H229427   6.527   4.641   0.444 -2.0417 -1.7149  1.1181
 2646TIP3   OH229428   3.849   4.281  11.091 -0.1373  0.0464  0.2805
 2646TIP3    H129429   3.794   4.241  11.158 -1.0313 -0.5877 -0.7889
 2646TIP3    H229430   3.832   4.230  11.012  0.9406  0.7238 -0.4238
 2647TIP3   OH229431   5.995   0.533   6.197 -0.3207  0.1154  0.0404
 2647TIP3    H129432   5.947   0.493   6.124  0.0606 -0.8270  0.2887
 2647TIP3    H229433   5.969   0.481   6.273  1.0172 -0.3539  0.1986
 2648TIP3   OH229434   1.899   5.931  16.079  0.3508  0.5404 -0.1720
 2648TIP3    H129435   1.847   5.859  16.116 -1.4478  0.0403 -3.3319
 2648TIP3    H229436   1.915   5.988  16.154 -2.9593 -0.4020  1.4923
 2649TIP3   OH229437   1.959   5.653  14.272  0.2880 -0.3418 -0.2825
 2649TIP3    H129438   1.981   5.731  14.221 -0.6587 -0.3785 -0.7705
 2649TIP3    H229439   2.003   5.581  14.227  0.9421 -0.1364  0.0138
 2650TIP3   OH229440   4.758   3.953   1.389 -0.2811 -0.8937  0.0128
 2650TIP3    H129441   4.671   3.936   1.352 -0.7008  0.2885  0.4061
 2650TIP3    H229442   4.809   3.987   1.316 -1.6584  3.2943  0.7251
 2651TIP3   OH229443   0.893   6.218   2.939 -0.3006 -0.2482  0.7653
 2651TIP3    H129444   0.976   6.234   2.893 -0.8883  3.0521  0.5697
 2651TIP3    H229445   0.919   6.191   3.027  1.0160  0.4373  0.6194
 2652TIP3   OH229446   4.007   0.172  15.858  0.4122 -0.3399  0.3426
 2652TIP3    H129447   4.003   0.154  15.764 -0.5053 -3.5940  0.8917
 2652TIP3    H229448   4.097   0.152  15.882  0.6619  0.5460  0.1872
 2653TIP3   OH229449   4.411   0.582   3.039  0.1924  0.3111  0.7446
 2653TIP3    H129450   4.461   0.613   3.114 -0.8097 -0.8898  1.9696
 2653TIP3    H229451   4.424   0.487   3.038 -0.4012  0.2243 -0.1406
 2654TIP3   OH229452   5.643   3.305  13.503 -0.2800  0.0864  0.1979
 2654TIP3    H129453   5.629   3.336  13.414  0.5487 -1.5137 -0.5407
 2654TIP3    H229454   5.589   3.362  13.558 -2.3305 -0.0929 -1.5184
 2655TIP3   OH229455   5.965   0.442   4.964  0.3544 -0.0684  0.0873
 2655TIP3    H129456   5.881   0.399   4.945  0.5944 -0.5279  0.0577
 2655TIP3    H229457   6.017   0.375   5.008  1.5696 -0.5860 -2.0079
 2656TIP3   OH229458   5.589   0.648   2.307  0.1118  0.5308  0.8275
 2656TIP3    H129459   5.564   0.741   2.309 -0.3778  0.4517 -0.5106
 2656TIP3    H229460   5.600   0.628   2.214  0.9671 -0.5711  1.1383
 2657TIP3   OH229461   3.358   1.336   1.809  0.3978  0.3404  0.3415
 2657TIP3    H129462   3.338   1.347   1.901  0.4720  0.1029  0.3881
 2657TIP3    H229463   3.427   1.269   1.807 -1.0699 -1.2216  0.0008
 2658TIP3   OH229464   3.081   1.663   3.974 -0.2054 -0.3087  0.3167
 2658TIP3    H129465   3.064   1.648   4.067 -0.7858 -0.0735  0.2544
 2658TIP3    H229466   3.123   1.749   3.970  0.0929 -0.4506  0.3861
 2659TIP3   OH229467   3.773   4.885   5.382  0.4611  0.1986  0.2192
 2659TIP3    H129468   3.714   4.838   5.441  0.7541  0.2949  0.5965
 2659TIP3    H229469   3.810   4.817   5.325  0.9322 -0.0454  0.8052
 2660TIP3   OH229470   3.071   2.178  15.594  0.1690 -0.4168  0.1080
 2660TIP3    H129471   3.109   2.239  15.657 -1.3658  1.8353 -1.0021
 2660TIP3    H229472   3.119   2.194  15.513  1.3046 -2.4249  0.3111
 2661TIP3   OH229473   3.936   1.702  16.661  0.2711 -0.4091 -0.4192
 2661TIP3    H129474   4.005   1.729  16.600  1.2692 -0.7123  0.5399
 2661TIP3    H229475   3.951   1.755  16.739 -0.7212 -0.3301 -0.2748
 2662TIP3   OH229476   5.082   0.523   5.703 -0.5021  0.2844 -0.4003
 2662TIP3    H129477   5.062   0.475   5.622 -0.9410  0.6758 -0.5263
 2662TIP3    H229478   5.007   0.581   5.715  0.3734  1.4860 -0.6591
 2663TIP3   OH229479   2.904   1.645  14.869  0.4198  0.1359  0.1550
 2663TIP3    H129480   2.862   1.561  14.892 -0.3304  0.8720  1.6035
 2663TIP3    H229481   2.972   1.657  14.934  1.0405  0.3016 -0.5131
 2664TIP3   OH229482   2.312   6.653  11.447 -0.1592  0.3045  0.0013
 2664TIP3    H129483   2.238   6.616  11.399  0.5732 -1.4925  0.1487
 2664TIP3    H229484   2.363   6.699  11.381 -0.4860  0.0356 -0.4419
 2665TIP3   OH229485   4.974   4.289   1.451  0.3665  0.4960 -0.3751
 2665TIP3    H129486   4.908   4.328   1.395  0.5560  0.4649 -0.6204
 2665TIP3    H229487   4.968   4.338   1.534  1.2456  1.6795 -0.9851
 2666TIP3   OH229488   2.090   2.489  16.273  0.1911 -0.2225  0.2488
 2666TIP3    H129489   2.170   2.498  16.222 -1.0243  3.3546 -1.3290
 2666TIP3    H229490   2.093   2.561  16.336 -2.7427  1.5738 -1.4494
 2667TIP3   OH229491   3.592   5.231   2.333  0.0949  0.4576  0.4270
 2667TIP3    H129492   3.656   5.254   2.401 -0.5596 -1.2372  1.6997
 2667TIP3    H229493   3.585   5.135   2.339 -0.9840  0.4055 -1.1376
 2668TIP3   OH229494   4.931   2.817   0.763 -0.7691 -0.1233  0.1566
 2668TIP3    H129495   4.846   2.801   0.805 -1.0537 -1.8291 -0.9519
 2668TIP3    H229496   4.917   2.794   0.672  0.5058  1.0652 -0.3683
 2669TIP3   OH229497   0.203   1.388  15.882  0.2357  0.7392 -0.6141
 2669TIP3    H129498   0.192   1.356  15.792  0.3124  0.6771 -0.6011
 2669TIP3    H229499   0.283   1.346  15.913  0.2796  0.8636 -0.5610
 2670TIP3   OH229500   5.495   5.647  14.896 -0.4125  0.2205 -0.2912
 2670TIP3    H129501   5.545   5.570  14.869 -0.2041  0.8022 -1.6606
 2670TIP3    H229502   5.419   5.611  14.941 -0.2557 -0.7958 -0.8025
 2671TIP3   OH229503   5.624   6.287   4.272  0.6041  0.2606 -0.2887
 2671TIP3    H129504   5.693   6.221   4.278  0.5155  0.0761 -1.2729
 2671TIP3    H229505   5.639   6.343   4.348  1.6207  0.0169 -0.2998
 2672TIP3   OH229506   1.982   1.408  16.417  0.1100 -0.5664 -0.5175
 2672TIP3    H129507   1.922   1.346  16.376 -2.6429  1.4747  0.1263
 2672TIP3    H229508   2.061   1.357  16.435 -1.7635 -3.7125 -0.4660
 2673TIP3   OH229509   6.361   6.677  13.656  0.4671 -0.8154 -0.0005
 2673TIP3    H129510   6.425   6.609  13.631  1.2815  0.0089 -0.2114
 2673TIP3    H229511   6.288   6.628  13.694  1.1850 -1.7934  0.1685
 2674TIP3   OH229512   0.643   3.263   3.337 -0.8670  0.1887  0.1859
 2674TIP3    H129513   0.597   3.181   3.357 -0.8174 -0.0339 -0.5805
 2674TIP3    H229514   0.685   3.246   3.253 -1.6875  1.3483 -0.4771
 2675TIP3   OH229515   0.308   3.114   4.305 -0.5942 -0.6846 -0.0081
 2675TIP3    H129516   0.302   3.041   4.367 -3.3076 -1.5643 -1.1341
 2675TIP3    H229517   0.296   3.074   4.219 -1.5536  0.9820 -0.7104
 2676TIP3   OH229518   3.018   6.725   5.940  0.0077  0.4265  0.7155
 2676TIP3    H129519   3.082   6.694   6.003 -0.4767  1.2974  1.6682
 2676TIP3    H229520   2.935   6.691   5.971 -0.0585 -0.4275 -0.3333
 2677TIP3   OH229521   2.745   4.248   4.098  0.3665 -0.0992  0.6944
 2677TIP3    H129522   2.806   4.315   4.129 -0.1748  0.8903 -0.2865
 2677TIP3    H229523   2.770   4.169   4.146  0.9859  0.8066  1.9424
 2678TIP3   OH229524   0.122   0.834   2.845 -0.4382 -0.5970 -0.0381
 2678TIP3    H129525   0.051   0.898   2.860 -0.4117 -1.0595  2.6463
 2678TIP3    H229526   0.102   0.796   2.760 -1.2038  2.0254 -1.1337
 2679TIP3   OH229527   0.410   5.744   2.445  0.0001  0.0282  0.0603
 2679TIP3    H129528   0.402   5.840   2.441 -0.0599 -0.0193 -2.1088
 2679TIP3    H229529   0.483   5.729   2.505 -0.1525  1.4184  0.6394
 2680TIP3   OH229530   4.699   5.455   3.484 -0.0022 -0.8132 -0.3428
 2680TIP3    H129531   4.674   5.540   3.449  2.6341 -0.6202 -2.0145
 2680TIP3    H229532   4.642   5.443   3.561  1.1992  3.5783  1.5260
 2681TIP3   OH229533   4.966   3.034  15.917  0.1075 -0.3954  0.6020
 2681TIP3    H129534   4.996   3.028  16.008 -0.7093 -0.3120  0.8856
 2681TIP3    H229535   4.880   2.992  15.918  0.9223 -2.1711 -0.5475
 2682TIP3   OH229536   6.165   4.743  11.131 -0.6734  0.0736  0.2228
 2682TIP3    H129537   6.148   4.649  11.131  0.4188 -0.1630 -1.7236
 2682TIP3    H229538   6.084   4.783  11.100 -0.4427 -0.4007 -1.0090
 2683TIP3   OH229539   1.472   2.375   4.579 -0.1461 -0.0328  0.0558
 2683TIP3    H129540   1.504   2.455   4.536 -0.4732 -0.5725 -1.2610
 2683TIP3    H229541   1.516   2.374   4.664  0.4397  1.1565 -0.2046
 2684TIP3   OH229542   3.279   1.500  14.953  0.8024  0.0959  0.1359
 2684TIP3    H129543   3.224   1.498  14.874  1.1983 -0.8523 -0.1330
 2684TIP3    H229544   3.254   1.421  15.001  1.3849  0.0596  0.3898
 2685TIP3   OH229545   5.076   5.529   2.463  0.3302 -0.4728  0.5210
 2685TIP3    H129546   5.021   5.561   2.391  1.0296  0.1975  0.2747
 2685TIP3    H229547   5.053   5.584   2.537 -1.2631 -1.9294  1.1872
 2686TIP3   OH229548   0.072   6.046  11.745 -0.4478 -0.2903 -0.2320
 2686TIP3    H129549  -0.000   6.097  11.782 -1.0456 -1.4474  0.2220
 2686TIP3    H229550   0.133   6.112  11.713  0.5662  0.9114  3.5615
 2687TIP3   OH229551   0.537   6.033  16.038 -0.1599  0.7253  0.6321
 2687TIP3    H129552   0.621   6.017  16.082  0.0694 -0.4188 -0.1967
 2687TIP3    H229553   0.479   5.965  16.071  0.2265 -0.6336 -1.3595
 2688TIP3   OH229554   6.677   5.759  13.743 -0.1044 -0.4333 -0.0180
 2688TIP3    H129555   6.675   5.821  13.817 -0.6033  1.8589 -1.8336
 2688TIP3    H229556   6.765   5.723  13.744  0.5749  1.1789  0.4646
 2689TIP3   OH229557   1.332   2.922   4.326 -0.5974  0.7931 -0.1436
 2689TIP3    H129558   1.306   2.921   4.234  1.6250  1.4381 -0.8614
 2689TIP3    H229559   1.391   2.997   4.333 -0.9267  0.9246  1.8972
 2690TIP3   OH229560   0.624   4.359  10.794 -0.0120 -0.1026  0.2823
 2690TIP3    H129561   0.567   4.303  10.847  1.3856 -2.9982 -1.0513
 2690TIP3    H229562   0.704   4.368  10.845  0.6512 -1.3661 -0.4972
 2691TIP3   OH229563   3.480   0.593   4.360  0.1359  0.1258  0.1251
 2691TIP3    H129564   3.416   0.565   4.295 -0.0639  1.6625 -0.3745
 2691TIP3    H229565   3.428   0.638   4.427  0.5913  0.7102  0.0952
 2692TIP3   OH229566   2.955   4.902   4.172 -0.3153  0.2354  0.0844
 2692TIP3    H129567   2.994   4.988   4.154 -2.0131  0.8873 -0.6844
 2692TIP3    H229568   3.008   4.841   4.121  1.4640  0.6610  1.3271
 2693TIP3   OH229569   2.469   3.396   0.314 -0.0699  0.4628 -0.3671
 2693TIP3    H129570   2.391   3.340   0.313 -1.3052  2.1006 -0.0709
 2693TIP3    H229571   2.537   3.341   0.353 -0.2870 -1.9251 -3.0043
 2694TIP3   OH229572   3.637   4.780   1.810 -0.1970  0.1580 -0.6609
 2694TIP3    H129573   3.646   4.790   1.715 -0.7999  1.6530 -0.5883
 2694TIP3    H229574   3.720   4.743   1.839  1.4078  2.9757 -1.3481
 2695TIP3   OH229575   5.660   4.675  14.288  0.3242 -0.4166 -0.5882
 2695TIP3    H129576   5.674   4.735  14.361 -0.2026  1.5865 -2.0467
 2695TIP3    H229577   5.579   4.629  14.310  0.4057 -0.1534  0.2884
 2696TIP3   OH229578   0.258   5.539   3.412 -0.5376 -0.0327 -0.7212
 2696TIP3    H129579   0.174   5.495   3.426 -0.3288  0.2151  1.5488
 2696TIP3    H229580   0.300   5.487   3.343 -0.5044 -3.1878  1.4489
 2697TIP3   OH229581   3.851   6.641   3.759 -0.3814  0.0135  0.4121
 2697TIP3    H129582   3.859   6.703   3.832  0.5950  0.1954  0.1663
 2697TIP3    H229583   3.791   6.573   3.791 -0.5450  0.4766  1.1073
 2698TIP3   OH229584   6.390   3.983  11.905  0.6568 -0.2625  0.0278
 2698TIP3    H129585   6.458   3.919  11.886 -0.6633 -0.7675 -3.6799
 2698TIP3    H229586   6.420   4.064  11.864 -0.0199  0.0969  0.2208
 2699TIP3   OH229587   1.835   4.303   0.786  0.2791 -0.6004 -0.2302
 2699TIP3    H129588   1.846   4.392   0.819 -1.8330 -0.0336 -0.9240
 2699TIP3    H229589   1.914   4.287   0.734  0.5314  1.0099 -0.3921
 2700TIP3   OH229590   5.248   4.537  17.225 -0.5142  0.1672 -0.0138
 2700TIP3    H129591   5.259   4.512  17.317 -0.0193 -0.1268 -0.1448
 2700TIP3    H229592   5.208   4.461  17.184 -1.8342  0.7389  0.1869
 2701TIP3   OH229593   4.996   5.471   5.359  0.4857  0.1164 -0.3183
 2701TIP3    H129594   4.912   5.472   5.314 -0.4101 -0.3052  1.2702
 2701TIP3    H229595   5.043   5.547   5.325 -0.3561  0.1003 -1.5525
 2702TIP3   OH229596   5.820   5.808  17.366 -0.2012  0.3632 -0.4242
 2702TIP3    H129597   5.818   5.845  17.454 -2.5667  0.3397 -0.4045
 2702TIP3    H229598   5.759   5.734  17.370 -0.0182  0.0957 -1.9773
 2703TIP3   OH229599   3.568   0.605  15.745 -0.3436  0.0015  1.3122
 2703TIP3    H129600   3.582   0.581  15.837 -0.1169  1.2425  1.6120
 2703TIP3    H229601   3.634   0.554  15.698  1.5816  1.5424  2.1614
 2704TIP3   OH229602   6.446   0.074  11.695  0.3505 -0.0816 -0.2911
 2704TIP3    H129603   6.404   0.139  11.639  0.6104  1.0103  0.7510
 2704TIP3    H229604   6.540   0.091  11.685  0.4443 -0.6405 -0.4010
 2705TIP3   OH229605   2.409   4.058   1.282 -0.1631  0.3857  0.1140
 2705TIP3    H129606   2.423   4.136   1.335 -0.5498  0.1989  0.4960
 2705TIP3    H229607   2.428   4.086   1.192 -0.7816  1.0512  0.1820
 2706TIP3   OH229608   4.209   5.128   4.605  0.3273  0.4027 -0.4894
 2706TIP3    H129609   4.187   5.209   4.559  0.2011  1.8185  1.9299
 2706TIP3    H229610   4.172   5.059   4.550 -0.6546  2.0444 -1.9961
 2707TIP3   OH229611   0.669   4.435  15.153  0.2643 -0.2971  0.6666
 2707TIP3    H129612   0.576   4.414  15.152 -0.0980  1.1454 -0.8737
 2707TIP3    H229613   0.713   4.355  15.124 -0.8533  0.1220 -2.5803
 2708TIP3   OH229614   2.480   5.690  14.006 -0.5008  0.0382 -0.5578
 2708TIP3    H129615   2.431   5.636  14.069  0.2326  1.4410  1.3241
 2708TIP3    H229616   2.443   5.777  14.017  0.6940  0.6063 -0.9586
 2709TIP3   OH229617   6.393   6.703   5.658  0.7582  0.1867 -0.5236
 2709TIP3    H129618   6.485   6.730   5.658  0.9186 -0.2799 -1.6354
 2709TIP3    H229619   6.369   6.702   5.565  0.2068 -1.5998 -0.3862
 2710TIP3   OH229620   4.840   4.604  14.174  0.4861 -0.0337  0.2671
 2710TIP3    H129621   4.800   4.678  14.128  1.9485  0.4774 -0.2287
 2710TIP3    H229622   4.824   4.621  14.267 -1.6521 -0.5841  0.0687
 2711TIP3   OH229623   1.542   4.684   5.658 -0.4629  0.0879 -0.3444
 2711TIP3    H129624   1.482   4.659   5.728 -0.2887 -0.2400 -0.3125
 2711TIP3    H229625   1.524   4.622   5.587 -0.3009  0.1153 -0.4104
 2712TIP3   OH229626   0.483   4.617   4.117 -0.4448  0.8752  0.5295
 2712TIP3    H129627   0.574   4.587   4.122 -0.3679  1.2628  2.0125
 2712TIP3    H229628   0.462   4.645   4.207 -1.0671  3.5717 -0.3628
 2713TIP3   OH229629   4.166   1.111  13.477 -0.3632  0.5971  0.5352
 2713TIP3    H129630   4.159   1.055  13.401 -0.5769  0.7333  0.4543
 2713TIP3    H229631   4.140   1.198  13.446  0.9512  0.9694  0.3932
 2714TIP3   OH229632   0.096   2.521  11.501  0.4134 -0.1570 -0.1958
 2714TIP3    H129633   0.095   2.548  11.593  0.6702 -1.0260  0.0747
 2714TIP3    H229634   0.004   2.513  11.476  0.3407  0.3956 -0.1184
 2715TIP3   OH229635   6.331   2.952   1.780 -0.1838  0.1873 -0.0094
 2715TIP3    H129636   6.257   2.933   1.722 -1.3360 -2.3830  2.0727
 2715TIP3    H229637   6.396   2.885   1.759  0.6243  1.0348 -0.2709
 2716TIP3   OH229638   5.404   5.747  11.952  0.4782  0.3280  0.4655
 2716TIP3    H129639   5.406   5.663  11.907 -0.4055  0.1390  0.7554
 2716TIP3    H229640   5.482   5.747  12.008  1.2168  0.2881 -0.5521
 2717TIP3   OH229641   2.742   3.346  12.284 -1.0472 -0.2691  0.0974
 2717TIP3    H129642   2.812   3.386  12.336 -1.5981 -0.0900  0.7171
 2717TIP3    H229643   2.674   3.412  12.281 -1.1799 -0.4278 -0.5427
 2718TIP3   OH229644   3.976   1.407  15.006  0.2108  0.0459 -0.0967
 2718TIP3    H129645   4.040   1.394  14.936 -0.3327  2.8232 -1.2501
 2718TIP3    H229646   4.029   1.430  15.082  0.7373  2.2264 -1.0179
 2719TIP3   OH229647   2.516   6.618   6.138 -0.0970  0.2168 -0.4715
 2719TIP3    H129648   2.483   6.658   6.218  1.3865  1.2345 -0.3305
 2719TIP3    H229649   2.481   6.529   6.140 -1.8488  0.8768  0.2029
 2720TIP3   OH229650   0.924   4.567  16.482  0.1541 -0.0633 -0.1541
 2720TIP3    H129651   0.861   4.495  16.484  0.4904 -0.3632 -0.1500
 2720TIP3    H229652   0.872   4.645  16.465 -0.1314 -0.4045 -0.8544
 2721TIP3   OH229653   6.244   0.902  14.449 -0.0404  0.7772  0.0453
 2721TIP3    H129654   6.182   0.903  14.376  1.1849  2.1147 -1.0492
 2721TIP3    H229655   6.313   0.842  14.420  0.4171  1.2619  0.1319
 2722TIP3   OH229656   4.799   2.688   4.059  0.3822 -0.1603  0.4037
 2722TIP3    H129657   4.718   2.728   4.092 -0.1456 -2.6140  2.3509
 2722TIP3    H229658   4.859   2.762   4.049 -1.5806  1.5453  0.4009
 2723TIP3   OH229659   4.851   3.694  13.541 -0.4914 -0.3875  0.2943
 2723TIP3    H129660   4.896   3.777  13.557  0.4593 -0.3886 -1.9190
 2723TIP3    H229661   4.872   3.640  13.617 -1.1774  1.3630  1.8141
 2724TIP3   OH229662   5.346   2.688   2.519 -0.3191  0.1158  0.1845
 2724TIP3    H129663   5.386   2.758   2.571  0.2360 -0.0620 -0.0067
 2724TIP3    H229664   5.290   2.734   2.456  1.1196  0.4639 -0.8721
 2725TIP3   OH229665   4.126   4.475  11.136  0.2076  0.6411 -0.5426
 2725TIP3    H129666   4.110   4.433  11.052  1.5936  1.5606 -1.2999
 2725TIP3    H229667   4.208   4.523  11.124  0.9737  0.0040  1.6299
 2726TIP3   OH229668   3.459   4.923  15.855 -0.7402  0.2428 -0.1723
 2726TIP3    H129669   3.411   4.895  15.932 -0.1194 -0.8460 -0.1638
 2726TIP3    H229670   3.508   5.000  15.884 -0.1893 -0.4064  0.6403
 2727TIP3   OH229671   5.551   6.434   4.037  0.0473 -0.4008  0.2662
 2727TIP3    H129672   5.543   6.361   4.098 -2.0642 -2.0847 -1.8325
 2727TIP3    H229673   5.585   6.394   3.957 -0.7150  1.0187 -0.7945
 2728TIP3   OH229674   0.102   3.961   4.898  0.3844 -0.3172  0.2879
 2728TIP3    H129675   0.124   4.041   4.851 -1.7294  0.8538  1.1493
 2728TIP3    H229676   0.010   3.946   4.877  0.1209 -1.2273  1.9762
 2729TIP3   OH229677   4.485   1.276   4.684  0.3871  0.8155  0.6378
 2729TIP3    H129678   4.474   1.300   4.776  2.1613  0.8830  0.8606
 2729TIP3    H229679   4.579   1.259   4.674  0.4275  1.8529 -1.3959
 2730TIP3   OH229680   1.607   5.560  16.645 -0.4928 -0.3325 -0.3317
 2730TIP3    H129681   1.629   5.476  16.683 -0.2570  0.4903  1.4633
 2730TIP3    H229682   1.544   5.540  16.576 -0.7119 -1.9474  0.3008
 2731TIP3   OH229683   6.206   4.575   2.349 -1.0953 -0.5515  0.3712
 2731TIP3    H129684   6.130   4.583   2.406  0.0496 -2.0660  2.2795
 2731TIP3    H229685   6.209   4.482   2.327 -1.0917 -0.1132 -1.6509
 2732TIP3   OH229686   4.290   2.662   3.566  0.1021  0.3668  0.0497
 2732TIP3    H129687   4.285   2.652   3.661 -0.9799 -1.6426 -0.1443
 2732TIP3    H229688   4.203   2.635   3.535  0.4409  0.9870 -1.5028
 2733TIP3   OH229689   4.369   0.784  13.487 -0.2226 -0.5047 -0.3757
 2733TIP3    H129690   4.376   0.872  13.451 -0.3509 -0.8467 -1.2894
 2733TIP3    H229691   4.403   0.790  13.576  1.0571  0.1753 -0.8948
 2734TIP3   OH229692   4.462   3.535   3.562  0.3546 -0.4018  0.3725
 2734TIP3    H129693   4.381   3.495   3.593 -0.1989  0.5251  0.1265
 2734TIP3    H229694   4.496   3.472   3.498 -0.5824 -0.4207 -0.1172
 2735TIP3   OH229695   2.413   5.610  11.502  0.4069  0.0771  0.0472
 2735TIP3    H129696   2.456   5.577  11.423  0.6937 -2.3085  1.1235
 2735TIP3    H229697   2.332   5.558  11.509  1.1279 -0.8746  2.0950
 2736TIP3   OH229698   3.463   6.540  13.707 -0.1129  0.1065 -0.2351
 2736TIP3    H129699   3.372   6.565  13.694 -0.3631 -1.0849 -0.8837
 2736TIP3    H229700   3.489   6.501  13.624  0.1597 -2.0464  0.8028
 2737TIP3   OH229701   4.166   4.738  17.032 -0.3143  0.5901  0.3754
 2737TIP3    H129702   4.114   4.786  17.096 -1.5767  0.6273 -0.6514
 2737TIP3    H229703   4.226   4.804  16.996 -1.6361  1.2949 -0.6063
 2738TIP3   OH229704   6.146   5.254  16.859 -0.5940 -0.0510 -0.1226
 2738TIP3    H129705   6.170   5.171  16.899  0.6962 -0.0868 -0.9235
 2738TIP3    H229706   6.166   5.243  16.766 -0.4373  1.1367 -0.2453
 2739TIP3   OH229707   3.975   4.743   1.241 -0.1780  0.3143  0.6504
 2739TIP3    H129708   3.978   4.649   1.261  3.2713  0.6110  2.2626
 2739TIP3    H229709   3.915   4.779   1.306 -0.2865 -0.5901  1.0654
 2740TIP3   OH229710   3.811   2.267   2.865 -0.1731 -0.5645 -0.0298
 2740TIP3    H129711   3.752   2.196   2.893  0.3249 -0.6375  0.8938
 2740TIP3    H229712   3.835   2.310   2.947 -0.5600  0.7557 -0.5872
 2741TIP3   OH229713   0.132   2.809   4.943  0.2721  0.2201  0.0225
 2741TIP3    H129714   0.172   2.839   5.025 -0.9654  2.7819 -0.2196
 2741TIP3    H229715   0.189   2.843   4.875  0.4420 -0.5593 -0.2351
 2742TIP3   OH229716   4.973   2.856  13.777 -0.4792  0.2112 -0.3455
 2742TIP3    H129717   5.020   2.783  13.816 -0.0830  1.0815  0.8682
 2742TIP3    H229718   4.892   2.817  13.743 -0.0045 -0.8800 -0.2625
 2743TIP3   OH229719   4.695   4.703  14.390  0.3494  0.4819  0.3435
 2743TIP3    H129720   4.727   4.658  14.469  1.0992  0.8760  0.2778
 2743TIP3    H229721   4.620   4.754  14.419  0.7066  0.7306  0.8311
 2744TIP3   OH229722   1.446   5.039   5.767  0.3956  0.5858 -0.6921
 2744TIP3    H129723   1.371   4.979   5.762  0.4575  0.0495  2.5430
 2744TIP3    H229724   1.421   5.102   5.835  2.0595  1.7366 -1.0869
 2745TIP3   OH229725   1.334   6.062   5.216 -0.4008  0.1598 -0.2329
 2745TIP3    H129726   1.266   5.996   5.229 -0.7980  0.8423  1.4010
 2745TIP3    H229727   1.307   6.135   5.271  2.2693 -0.0284  1.4997
 2746TIP3   OH229728   5.117   3.001   2.171  0.3588 -0.0540  0.3462
 2746TIP3    H129729   5.060   2.944   2.120  1.7323 -0.2375 -1.0499
 2746TIP3    H229730   5.120   3.083   2.121  2.4146 -0.5328 -0.3825
 2747TIP3   OH229731   5.460   5.616   1.991  0.1147 -0.1412  0.5141
 2747TIP3    H129732   5.410   5.534   1.996 -0.5930  0.0193 -2.2812
 2747TIP3    H229733   5.541   5.598   2.038  1.1254 -3.4125 -2.1260
 2748TIP3   OH229734   4.225   6.300   0.681  0.2735 -0.0813 -0.4780
 2748TIP3    H129735   4.260   6.379   0.640  0.0337  0.7437  0.8785
 2748TIP3    H229736   4.302   6.245   0.696  0.5315  0.1997 -0.7618
 2749TIP3   OH229737   5.623   0.658  12.251  0.9376 -0.3837  0.0134
 2749TIP3    H129738   5.648   0.604  12.176  0.6436  2.3860 -2.2632
 2749TIP3    H229739   5.705   0.703  12.275  0.7676 -0.3689  0.5609
 2750TIP3   OH229740   4.608   0.344  13.100 -0.6281  0.3816  0.1674
 2750TIP3    H129741   4.687   0.336  13.153  0.2976 -0.7728 -1.2760
 2750TIP3    H229742   4.589   0.254  13.072 -2.9975  0.4864  1.1856
 2751TIP3   OH229743   6.144   6.327   1.086 -0.2798 -0.3032  0.5050
 2751TIP3    H129744   6.216   6.323   1.024 -0.1789 -1.2905  0.6783
 2751TIP3    H229745   6.160   6.255   1.147 -1.9317 -1.1659 -0.0234
 2752TIP3   OH229746   5.408   5.510  11.819 -0.2707  0.3092  0.4138
 2752TIP3    H129747   5.434   5.439  11.877 -0.8970 -0.3768 -0.1172
 2752TIP3    H229748   5.482   5.520  11.759 -0.0940  0.2494  0.6217
 2753TIP3   OH229749   6.600   4.344   0.659 -0.4677  0.8412 -0.2062
 2753TIP3    H129750   6.627   4.421   0.710 -0.8516  0.7534  0.1399
 2753TIP3    H229751   6.562   4.285   0.724 -0.7408  0.6258 -0.5596
 2754TIP3   OH229752   6.463   3.633   1.010  0.7805 -0.8314 -0.3312
 2754TIP3    H129753   6.490   3.640   1.101  0.5200  2.1530 -0.3830
 2754TIP3    H229754   6.368   3.646   1.012  1.0872  2.5073 -1.1448
 2755TIP3   OH229755   4.638   3.842  12.748  0.0131 -0.0903 -0.1301
 2755TIP3    H129756   4.616   3.764  12.800 -0.3727 -1.0745 -1.6871
 2755TIP3    H229757   4.557   3.892  12.744 -0.0443 -0.1763 -0.0646
 2756TIP3   OH229758   3.653   1.911  16.804 -0.0962  0.0138 -0.3097
 2756TIP3    H129759   3.566   1.921  16.766 -0.9963 -1.5753  1.1893
 2756TIP3    H229760   3.656   1.977  16.874 -1.2594 -1.7275  1.4891
 2757TIP3   OH229761   2.231   4.423   1.692  0.2306  0.1290  0.2411
 2757TIP3    H129762   2.256   4.486   1.624 -0.9578  0.9545  0.5337
 2757TIP3    H229763   2.145   4.392   1.665 -0.7384  1.2625  1.8545
 2758TIP3   OH229764   5.970   5.660   2.150 -0.0784  0.0484 -0.2413
 2758TIP3    H129765   5.953   5.743   2.106  1.3874  0.9229  0.7752
 2758TIP3    H229766   5.951   5.677   2.242 -2.6101 -1.6136 -0.3295
 2759TIP3   OH229767   4.664   4.836   0.800 -0.6192 -0.3314  0.4651
 2759TIP3    H129768   4.586   4.847   0.746 -1.7588 -1.7942  1.7258
 2759TIP3    H229769   4.666   4.743   0.822  0.7882 -0.1040  1.4905
 2760TIP3   OH229770   4.686   6.038   4.931  0.5070 -0.4563 -0.4527
 2760TIP3    H129771   4.680   5.999   4.844  0.9346 -1.2457 -0.1400
 2760TIP3    H229772   4.660   6.129   4.918  0.0344 -0.6969 -1.3038
 2761TIP3   OH229773   0.350   0.774  12.823  0.3408  0.2917  1.0462
 2761TIP3    H129774   0.430   0.787  12.772 -0.4171  0.3359 -0.1557
 2761TIP3    H229775   0.291   0.843  12.793 -1.5569 -2.0585 -0.9713
 2762TIP3   OH229776   6.031   0.004   6.701  0.5942  0.2191  0.4183
 2762TIP3    H129777   6.100   0.039   6.644 -1.2625  2.0649 -0.8631
 2762TIP3    H229778   6.023   0.069   6.771 -1.0173  1.0269 -0.4573
 2763TIP3   OH229779   4.128   4.535  10.756 -0.0252 -0.0436  0.0731
 2763TIP3    H129780   4.173   4.574  10.681  1.5455  1.6070  1.7565
 2763TIP3    H229781   4.040   4.514  10.723  0.7425  0.1798 -2.3102
 2764TIP3   OH229782   0.445   1.209  14.180  0.2349  0.3388  0.0353
 2764TIP3    H129783   0.526   1.259  14.171 -0.4696  1.8474  1.4720
 2764TIP3    H229784   0.450   1.142  14.112  2.6599  0.3843  0.0854
 2765TIP3   OH229785   4.282   5.859   5.096 -0.1725 -0.0095  0.3671
 2765TIP3    H129786   4.318   5.836   5.010 -0.1403 -0.5982  0.5356
 2765TIP3    H229787   4.193   5.825   5.095 -0.5262  0.8797  0.1960
 2766TIP3   OH229788   4.778   2.450   1.929 -0.1261  0.4056 -0.8787
 2766TIP3    H129789   4.802   2.419   2.016  0.7645  0.2227 -1.1773
 2766TIP3    H229790   4.860   2.453   1.881 -0.7298 -0.4455 -2.0184
 2767TIP3   OH229791   0.045   4.968   3.101  0.0543  0.7142  0.6614
 2767TIP3    H129792  -0.051   4.966   3.109  0.0491  1.4476  0.8184
 2767TIP3    H229793   0.062   4.942   3.011 -0.2444 -0.3363  0.8930
 2768TIP3   OH229794   4.723   4.850  12.039  0.2640 -0.6487  0.2217
 2768TIP3    H129795   4.759   4.837  12.127 -1.5232  2.1301  1.4848
 2768TIP3    H229796   4.676   4.769  12.020 -0.4386 -0.8164  2.4229
 2769TIP3   OH229797   1.667   6.471   2.348  0.6171  0.6062  0.3540
 2769TIP3    H129798   1.712   6.387   2.338  2.2505  1.4081  0.5187
 2769TIP3    H229799   1.639   6.494   2.260 -0.3591 -0.3706  0.3976
 2770TIP3   OH229800   4.435   0.185  16.970 -0.3442 -0.1994 -0.2190
 2770TIP3    H129801   4.439   0.195  17.066 -0.7810 -2.2087  0.0553
 2770TIP3    H229802   4.522   0.153  16.946  0.6148  2.6373 -0.8915
 2771TIP3   OH229803   2.549   0.709  15.225  0.1217 -0.5568  0.0498
 2771TIP3    H129804   2.619   0.676  15.168 -0.1683  0.2506 -0.7964
 2771TIP3    H229805   2.498   0.768  15.169 -1.3742 -1.2890  0.5910
 2772TIP3   OH229806   6.166   5.192   0.459 -0.0627  0.2148  0.2836
 2772TIP3    H129807   6.167   5.249   0.382  0.5031  1.8697  1.4434
 2772TIP3    H229808   6.074   5.186   0.484 -0.3464 -0.9959 -0.9461
 2773TIP3   OH229809   0.823   0.331  14.946 -0.0146  0.0625 -0.4672
 2773TIP3    H129810   0.857   0.279  15.019  0.5692 -0.5653 -1.1683
 2773TIP3    H229811   0.735   0.356  14.974 -0.4857 -1.6660 -0.2847
 2774TIP3   OH229812   2.781   4.765  12.288  0.0687  0.3329 -0.1283
 2774TIP3    H129813   2.860   4.724  12.323  0.4957  0.3989 -0.9855
 2774TIP3    H229814   2.813   4.818  12.215 -0.9338 -0.7402 -1.3734
 2775TIP3   OH229815   3.860   4.647  14.989  0.0428 -0.0976 -1.0460
 2775TIP3    H129816   3.812   4.572  15.024  0.6274 -0.7277 -1.5513
 2775TIP3    H229817   3.803   4.684  14.922 -0.3926  0.1283 -0.5616
 2776TIP3   OH229818   1.673   5.082  16.130  0.1851  0.4468 -0.0267
 2776TIP3    H129819   1.682   5.054  16.221 -0.6698 -1.0226 -0.3711
 2776TIP3    H229820   1.596   5.138  16.130 -1.4021 -1.6465 -0.2611
 2777TIP3   OH229821   1.426   0.705  16.253  0.5958 -0.1061 -0.1717
 2777TIP3    H129822   1.479   0.655  16.192 -1.6907 -2.2037 -0.6164
 2777TIP3    H229823   1.341   0.714  16.209 -0.7846 -0.7092  2.1813
 2778TIP3   OH229824   2.639   3.158  17.121 -0.4484 -0.0354 -0.0472
 2778TIP3    H129825   2.664   3.162  17.028  0.4227  0.2178  0.1901
 2778TIP3    H229826   2.698   3.220  17.164  0.2540 -1.3172  0.9041
 2779TIP3   OH229827   4.433   5.554   2.954  0.1802  0.0886  0.2511
 2779TIP3    H129828   4.432   5.517   2.866  3.0467  0.6194 -0.0845
 2779TIP3    H229829   4.369   5.626   2.950 -0.3559 -0.4328 -1.1010
 2780TIP3   OH229830   0.036   1.864  12.784 -0.5123 -0.0585  0.0896
 2780TIP3    H129831   0.050   1.959  12.789  1.7648 -0.3736  0.8531
 2780TIP3    H229832   0.032   1.836  12.875  2.7645 -1.1202  0.0152
 2781TIP3   OH229833   4.558   3.699  14.163 -0.1361  0.3386  0.1339
 2781TIP3    H129834   4.530   3.665  14.078 -2.2038  0.2334  0.8115
 2781TIP3    H229835   4.620   3.635  14.195  0.0121 -0.0643 -0.9067
 2782TIP3   OH229836   6.037   1.526  10.538 -0.1714 -0.0249 -0.0179
 2782TIP3    H129837   6.027   1.453  10.476  1.4054 -0.5742  0.3390
 2782TIP3    H229838   6.019   1.487  10.624  0.6841 -0.0027  0.1765
 2783TIP3   OH229839   0.616   0.645   1.604 -0.1824 -0.2502  0.4934
 2783TIP3    H129840   0.535   0.649   1.655 -0.9141 -3.2851 -0.1868
 2783TIP3    H229841   0.586   0.632   1.513  0.9906 -1.5541  0.2488
 2784TIP3   OH229842   3.857   3.913   4.494  0.3114 -0.3034  0.1338
 2784TIP3    H129843   3.849   3.889   4.402  1.8185  0.2479 -0.1726
 2784TIP3    H229844   3.789   3.862   4.539 -0.3224 -0.7087 -1.2492
 2785TIP3   OH229845   4.437   6.083  12.721  0.1014 -0.2372 -0.1262
 2785TIP3    H129846   4.344   6.088  12.740 -0.1859 -0.7797 -1.3054
 2785TIP3    H229847   4.465   6.174  12.712 -0.7141 -0.1181 -1.5728
 2786TIP3   OH229848   5.578   3.629  15.845 -0.2789  0.2847 -0.1950
 2786TIP3    H129849   5.489   3.663  15.840 -0.7971 -0.3870  2.6411
 2786TIP3    H229850   5.571   3.539  15.814 -0.7984 -0.0237  0.7709
 2787TIP3   OH229851   4.165   3.623  14.024 -0.1359  0.1298  0.2296
 2787TIP3    H129852   4.103   3.695  14.013 -0.1271 -0.2078 -2.8062
 2787TIP3    H229853   4.113   3.544  14.007  0.6446 -0.3050 -0.1739
 2788TIP3   OH229854   6.235   1.742   0.239  0.0159  0.0983 -0.0002
 2788TIP3    H129855   6.298   1.725   0.309 -0.5056  0.5769  0.5964
 2788TIP3    H229856   6.170   1.800   0.279 -1.2503 -1.0248 -0.3560
 2789TIP3   OH229857   3.809   3.395   4.956  0.1167  0.6051  0.9539
 2789TIP3    H129858   3.768   3.476   4.986 -0.1593  0.5315  0.7813
 2789TIP3    H229859   3.789   3.392   4.863 -0.5405 -0.0450  1.1042
 2790TIP3   OH229860   6.151   5.932  15.230  0.2481  0.2445 -0.3917
 2790TIP3    H129861   6.121   5.973  15.149 -0.7524  1.3583  0.5042
 2790TIP3    H229862   6.182   6.005  15.283  1.4666 -0.5336  0.0185
 2791TIP3   OH229863   3.069   2.372   1.051 -0.2059 -0.0105  0.4577
 2791TIP3    H129864   3.012   2.299   1.071  0.4716 -0.6259  0.1875
 2791TIP3    H229865   3.054   2.435   1.122 -1.1458 -0.1917  0.4261
 2792TIP3   OH229866   4.367   1.100  12.734  0.3199  0.2300 -0.4436
 2792TIP3    H129867   4.371   1.195  12.727  2.2861  0.2748  0.5158
 2792TIP3    H229868   4.355   1.084  12.828 -1.9597 -0.4881 -0.8036
 2793TIP3   OH229869   4.265   3.350   5.919  0.5761  0.0309 -0.3051
 2793TIP3    H129870   4.199   3.340   5.850  0.8149 -3.0939 -0.2644
 2793TIP3    H229871   4.280   3.260   5.949  3.1552  0.9089  1.2984
 2794TIP3   OH229872   5.544   3.411   4.141 -0.0494 -0.0674 -0.2461
 2794TIP3    H129873   5.525   3.379   4.053  1.6340 -0.6738 -0.4197
 2794TIP3    H229874   5.529   3.506   4.136 -1.0932 -0.2618 -0.8523
 2795TIP3   OH229875   4.834   0.705   2.800 -0.1092  0.5471  0.1810
 2795TIP3    H129876   4.776   0.637   2.765  1.5186 -0.4973 -0.5957
 2795TIP3    H229877   4.790   0.788   2.776 -1.7848 -0.1864  0.5471
 2796TIP3   OH229878   5.308   3.342   2.844 -0.1340 -0.7792 -0.0943
 2796TIP3    H129879   5.301   3.403   2.770 -0.3469 -1.6583 -0.8144
 2796TIP3    H229880   5.390   3.367   2.887  0.1900 -0.4880 -0.8463
 2797TIP3   OH229881   4.974   3.182  14.192 -0.1502 -0.0192 -0.2333
 2797TIP3    H129882   5.061   3.207  14.162  0.4470 -0.5740  0.9667
 2797TIP3    H229883   4.977   3.190  14.288 -1.0057 -1.2531 -0.0682
 2798TIP3   OH229884   3.861   3.556  13.513  0.0156  0.4487  0.1123
 2798TIP3    H129885   3.935   3.522  13.564 -1.0536 -1.9533  0.2218
 2798TIP3    H229886   3.889   3.546  13.422 -0.2463 -0.7959  0.1422
 2799TIP3   OH229887   1.520   1.513   3.048 -0.2423  0.0327  0.1149
 2799TIP3    H129888   1.608   1.549   3.057 -0.5898  0.8179  0.5547
 2799TIP3    H229889   1.533   1.422   3.023  0.7186 -0.4645  2.2718
 2800TIP3   OH229890   5.474   4.299  13.116 -0.0056 -0.2261  0.0899
 2800TIP3    H129891   5.424   4.218  13.123  1.0099 -0.8135  0.7049
 2800TIP3    H229892   5.564   4.271  13.100  0.1824  0.8102 -0.7502
 2801TIP3   OH229893   2.275   5.043   0.794 -0.6495 -0.3251 -0.1312
 2801TIP3    H129894   2.212   5.060   0.724 -2.3089 -0.6488  1.2173
 2801TIP3    H229895   2.317   4.960   0.770 -0.9496 -0.2622 -0.8896
 2802TIP3   OH229896   4.431   3.900  14.281 -0.2393 -1.0146 -0.3334
 2802TIP3    H129897   4.459   3.817  14.242  0.3950 -0.7990 -0.3527
 2802TIP3    H229898   4.503   3.960  14.262 -0.5241 -0.5593  0.0183
 2803TIP3   OH229899   0.952   6.605   5.612 -0.3314  0.3578 -0.3496
 2803TIP3    H129900   0.883   6.671   5.618 -0.6892  0.0582 -0.9315
 2803TIP3    H229901   1.023   6.648   5.565 -0.5697  0.3337 -0.7405
 2804TIP3   OH229902   0.693   2.988  12.351  0.3161 -0.1942  0.3610
 2804TIP3    H129903   0.598   2.991  12.359  0.4724  1.0183  2.4851
 2804TIP3    H229904   0.711   2.901  12.314 -1.5484 -1.2623  1.7611
 2805TIP3   OH229905   5.358   4.592  13.256  0.2452  0.0579  0.6827
 2805TIP3    H129906   5.439   4.641  13.240 -0.3398  0.8535  0.1069
 2805TIP3    H229907   5.336   4.554  13.172 -0.8678  1.2211  0.4258
 2806TIP3   OH229908   5.249   5.011   0.387  0.5961 -0.7340  0.2113
 2806TIP3    H129909   5.281   5.002   0.297  0.0476  2.2305 -0.3954
 2806TIP3    H229910   5.154   5.011   0.380  0.4965  1.9148  0.3431
 2807TIP3   OH229911   6.377   0.434  14.447  0.4110 -0.2089 -0.3923
 2807TIP3    H129912   6.423   0.350  14.453  0.0408 -0.3936 -0.0737
 2807TIP3    H229913   6.348   0.451  14.537  2.2056  1.2468 -0.0077
 2808TIP3   OH229914   5.375   1.598   5.865 -0.5230  0.0215  0.4067
 2808TIP3    H129915   5.438   1.556   5.806 -0.9077  0.0669 -0.0362
 2808TIP3    H229916   5.412   1.584   5.952  1.6000  2.5048  0.0158
 2809TIP3   OH229917   0.201   4.908  14.815  0.4153  0.6110  0.2503
 2809TIP3    H129918   0.225   4.935  14.904  0.2163 -1.3011  0.9321
 2809TIP3    H229919   0.113   4.945  14.802 -0.5043 -0.8883  1.7435
 2810TIP3   OH229920   3.932   4.239   3.500  0.2315 -0.1246  0.4921
 2810TIP3    H129921   3.964   4.306   3.562  1.2825 -0.3496  0.2159
 2810TIP3    H229922   3.839   4.258   3.491  0.1834  0.3143  1.6497
 2811TIP3   OH229923   0.232   2.675   3.545  0.0495  0.4107  0.0342
 2811TIP3    H129924   0.262   2.588   3.520 -0.5923  0.2093 -0.0452
 2811TIP3    H229925   0.138   2.665   3.559 -0.3490  1.4468 -1.6042
 2812TIP3   OH229926   1.591   0.197   0.823  0.0142  0.1087 -0.3077
 2812TIP3    H129927   1.630   0.198   0.910 -0.3839  0.6529 -0.1328
 2812TIP3    H229928   1.657   0.239   0.767 -0.0989  0.5442 -0.1124
 2813TIP3   OH229929   5.851   6.545  16.333  0.0329 -0.6362  0.0872
 2813TIP3    H129930   5.775   6.495  16.362  0.1672 -0.9895 -0.1646
 2813TIP3    H229931   5.850   6.538  16.238 -0.3314  0.4038 -0.0018
 2814TIP3   OH229932   4.273   2.481   2.224 -0.0848  0.2036  0.0165
 2814TIP3    H129933   4.223   2.410   2.183 -0.0391 -0.3376  0.8679
 2814TIP3    H229934   4.349   2.492   2.167 -1.0460  0.9037 -1.1885
 2815TIP3   OH229935   4.007   1.733  16.107  0.0837 -0.3346 -0.1498
 2815TIP3    H129936   3.989   1.661  16.167  2.0190 -0.3241  0.5254
 2815TIP3    H229937   4.102   1.729  16.093  0.0125  1.1407 -1.3327
 2816TIP3   OH229938   3.588   1.981   4.930  0.4935 -0.4966  0.1717
 2816TIP3    H129939   3.665   1.957   4.879 -0.3587 -0.1140 -1.3544
 2816TIP3    H229940   3.612   2.066   4.969  0.5576  0.0453 -0.9906
 2817TIP3   OH229941   5.811   5.394  16.026  0.1581  0.1250 -0.5954
 2817TIP3    H129942   5.719   5.365  16.028  0.0514  0.3141 -1.9165
 2817TIP3    H229943   5.834   5.394  15.933  1.5838 -0.1603 -0.2689
 2818TIP3   OH229944   1.213   3.515   2.780  0.0835 -1.0342  0.1979
 2818TIP3    H129945   1.281   3.578   2.757 -1.0990  0.6242  1.0401
 2818TIP3    H229946   1.239   3.484   2.867  0.4403 -1.3975 -0.0350
 2819TIP3   OH229947   0.188   2.210  14.415 -0.1053 -0.1536  0.1423
 2819TIP3    H129948   0.135   2.284  14.444 -1.0352 -0.4533 -0.7668
 2819TIP3    H229949   0.202   2.225  14.321  1.5799  0.0110  0.3826
 2820TIP3   OH229950   0.087   1.459  16.123 -0.0166 -0.0281 -0.5780
 2820TIP3    H129951   0.102   1.423  16.036 -2.9068 -2.3038 -0.2910
 2820TIP3    H229952   0.077   1.554  16.108 -2.6588 -0.5578 -3.1774
 2821TIP3   OH229953   1.560   2.555   3.722  0.0582 -0.0708  0.4543
 2821TIP3    H129954   1.655   2.557   3.715 -0.0500  0.4513 -1.2568
 2821TIP3    H229955   1.528   2.580   3.635 -1.6461 -0.2764  0.9711
 2822TIP3   OH229956   3.083   1.811   1.367  0.1516  0.7472 -1.0169
 2822TIP3    H129957   3.117   1.768   1.446 -1.5717 -1.0877 -1.2061
 2822TIP3    H229958   3.094   1.905   1.386 -0.9613  0.4213  1.7958
 2823TIP3   OH229959   2.801   0.608  16.634 -0.5207  0.1884  0.0193
 2823TIP3    H129960   2.876   0.635  16.687 -0.5605  0.7423 -0.2003
 2823TIP3    H229961   2.781   0.520  16.665  1.1320 -0.5539 -0.9227
 2824TIP3   OH229962   4.204   5.073  12.185  0.6917 -0.4624 -0.0749
 2824TIP3    H129963   4.151   5.045  12.259  2.3546 -0.6339  1.1131
 2824TIP3    H229964   4.180   5.164  12.170  0.0601 -0.5421  0.4306
 2825TIP3   OH229965   5.797   5.720  13.537 -0.3873 -0.0029  0.2100
 2825TIP3    H129966   5.827   5.785  13.474  1.1080  0.0682  0.9247
 2825TIP3    H229967   5.758   5.771  13.608 -0.9646 -0.0049 -0.1084
 2826TIP3   OH229968   3.009   6.345  17.105  0.1063  0.5300 -0.1678
 2826TIP3    H129969   3.021   6.367  17.013  0.4826 -0.2607 -0.3197
 2826TIP3    H229970   2.918   6.367  17.124 -0.5861 -1.2130 -1.2880
 2827TIP3   OH229971   0.382   4.894   0.004 -0.3634 -0.0884 -0.2187
 2827TIP3    H129972   0.292   4.899   0.037 -0.6164 -2.1478 -0.4821
 2827TIP3    H229973   0.437   4.911   0.080 -0.9768 -1.1318  0.4855
 2828TIP3   OH229974   2.339   1.560  11.990 -0.3943  0.1970  0.1869
 2828TIP3    H129975   2.383   1.621  11.932 -0.2594 -1.7156 -1.8363
 2828TIP3    H229976   2.399   1.486  11.997 -1.4465 -0.6199  0.8964
 2829TIP3   OH229977   3.703   1.925  11.187  0.3731 -0.3039 -0.6044
 2829TIP3    H129978   3.631   1.877  11.228  0.4349 -0.2560 -0.4385
 2829TIP3    H229979   3.713   1.885  11.100 -0.0042 -0.1551 -0.7164
 2830TIP3   OH229980   3.547   0.202  11.818 -0.1731 -0.0420 -0.0577
 2830TIP3    H129981   3.555   0.128  11.758 -2.8720 -1.3859  1.0379
 2830TIP3    H229982   3.600   0.177  11.894  0.3163 -0.0375 -0.3958
 2831TIP3   OH229983   0.018   3.312  12.840 -0.3692 -0.4033  0.4164
 2831TIP3    H129984  -0.013   3.359  12.762  0.0936 -0.3383  0.2713
 2831TIP3    H229985   0.037   3.224  12.809 -0.9711 -0.6171  0.6320
 2832TIP3   OH229986   4.126   4.318   2.349 -0.2998 -0.3186  0.5912
 2832TIP3    H129987   4.143   4.326   2.443  2.5764 -0.5306  0.1727
 2832TIP3    H229988   4.139   4.226   2.330  2.4005  0.2195 -0.4980
 2833TIP3   OH229989   0.477   2.093   0.621 -0.0339 -0.3582  0.2258
 2833TIP3    H129990   0.432   2.149   0.685  0.3836  0.9891 -0.6206
 2833TIP3    H229991   0.436   2.113   0.538  0.3065 -1.1347 -0.1406
 2834TIP3   OH229992   1.490   3.000  17.359 -0.0065  0.5385 -0.1849
 2834TIP3    H129993   1.469   2.996  17.452 -0.4590  1.5020 -0.2458
 2834TIP3    H229994   1.514   2.910  17.337 -0.6664  0.1381  0.6755
 2835TIP3   OH229995   2.123   1.823   2.672 -0.4942  0.0496  0.5418
 2835TIP3    H129996   2.073   1.904   2.661 -2.4788 -1.3409 -1.6956
 2835TIP3    H229997   2.081   1.779   2.746  0.1680  0.7271  1.3405
 2836TIP3   OH229998   1.102   5.449   2.702  0.5224 -0.4633 -0.7233
 2836TIP3    H129999   1.039   5.406   2.760  1.8406 -3.1693 -1.1273
 2836TIP3    H230000   1.160   5.497   2.760  0.4005 -1.1702  0.0000
 2837TIP3   OH230001   4.315   2.263   1.817  0.1884  0.0546  0.4433
 2837TIP3    H130002   4.262   2.322   1.764  2.1353 -0.0412 -1.7845
 2837TIP3    H230003   4.272   2.262   1.903 -2.8344  0.6298 -0.9384
 2838TIP3   OH230004   3.550   4.982   4.971 -0.1616 -0.2575  0.6085
 2838TIP3    H130005   3.530   4.949   5.058 -2.9416 -2.1788 -0.6273
 2838TIP3    H230006   3.490   5.055   4.958 -0.7393 -0.8434 -0.1416
 2839TIP3   OH230007   0.265   4.517   2.675  0.2365  0.2688 -0.5630
 2839TIP3    H130008   0.225   4.603   2.660  0.1399  0.0308 -1.7791
 2839TIP3    H230009   0.356   4.536   2.699 -0.2238  0.7576  0.9174
 2840TIP3   OH230010   6.282   6.580  13.161  0.0970  0.4040  0.6765
 2840TIP3    H130011   6.371   6.574  13.196 -0.3263 -1.9050  1.4780
 2840TIP3    H230012   6.233   6.627  13.229  0.8035  2.4569 -0.1361
 2841TIP3   OH230013   3.980   2.040  12.641 -0.4002  0.2967 -0.3205
 2841TIP3    H130014   3.981   2.127  12.601 -0.8795 -0.7591 -2.8172
 2841TIP3    H230015   3.992   1.980  12.567 -2.6698 -1.8764  0.9540
 2842TIP3   OH230016   5.615   4.481  16.440  0.0199 -0.0216 -0.1273
 2842TIP3    H130017   5.640   4.393  16.409 -3.1162 -1.7996  1.8449
 2842TIP3    H230018   5.601   4.469  16.534 -1.4227  2.3813  0.0274
 2843TIP3   OH230019   5.367   1.058   1.092  0.6142  0.1728 -0.1434
 2843TIP3    H130020   5.317   1.136   1.070  0.3297  0.5279  1.6393
 2843TIP3    H230021   5.380   1.013   1.008 -1.3968  0.8328 -0.8575
 2844TIP3   OH230022   2.164   1.626  16.420 -0.2195  0.7034  0.4861
 2844TIP3    H130023   2.220   1.617  16.497  0.3082 -0.8577 -0.0415
 2844TIP3    H230024   2.079   1.594  16.449 -0.3533  1.3132  0.7709
 2845TIP3   OH230025   0.671   6.003  16.922  0.2369  0.2779  0.2691
 2845TIP3    H130026   0.703   6.084  16.960  0.5333  0.5881 -0.6081
 2845TIP3    H230027   0.736   5.937  16.945  1.0236  0.7028 -0.6642
 2846TIP3   OH230028   5.968   4.810  14.089  0.1199 -0.3345 -0.4781
 2846TIP3    H130029   5.961   4.727  14.137  0.1810 -0.6838 -1.0675
 2846TIP3    H230030   5.914   4.798  14.011  2.3275 -0.8783 -2.0297
 2847TIP3   OH230031   6.463   2.256  11.569 -0.6466 -0.2286 -0.3595
 2847TIP3    H130032   6.407   2.199  11.622 -0.7683 -1.6278 -1.9365
 2847TIP3    H230033   6.423   2.256  11.482  1.4099 -0.7085 -1.3497
 2848TIP3   OH230034   2.403   1.123  13.340  0.2561  0.3794  0.1743
 2848TIP3    H130035   2.388   1.124  13.435 -0.3227  0.4575  0.0835
 2848TIP3    H230036   2.378   1.035  13.313  1.7730 -0.1151  0.2992
 2849TIP3   OH230037   4.167   3.285   3.538 -0.4506  0.1507  0.2086
 2849TIP3    H130038   4.125   3.301   3.623 -0.0101 -3.1937  1.2238
 2849TIP3    H230039   4.112   3.218   3.497  1.0200 -0.5261 -0.7365
 2850TIP3   OH230040   5.718   1.601   2.583  1.0177 -0.7348  0.4103
 2850TIP3    H130041   5.646   1.593   2.520 -0.0521  0.9977  1.3473
 2850TIP3    H230042   5.792   1.560   2.539 -0.2650 -1.6321 -1.0247
 2851TIP3   OH230043   1.031   2.263   4.693 -0.1423 -0.4123  0.1902
 2851TIP3    H130044   1.118   2.224   4.685  1.7465  2.7395  2.6908
 2851TIP3    H230045   0.979   2.197   4.740  1.2140 -1.9224 -0.3614
 2852TIP3   OH230046   5.872   2.441  13.306 -0.1074 -0.9425 -0.2461
 2852TIP3    H130047   5.817   2.376  13.263 -0.6887  1.4661 -3.5014
 2852TIP3    H230048   5.959   2.401  13.309 -0.8069 -2.5453 -0.4184
 2853TIP3   OH230049   5.318   6.281  16.826 -0.4321 -0.1349 -0.8571
 2853TIP3    H130050   5.229   6.286  16.791 -0.5186  2.0307 -0.4844
 2853TIP3    H230051   5.345   6.372  16.835  0.9195 -0.6785  1.3573
 2854TIP3   OH230052   4.063   1.673  14.622  0.4019  0.0386 -0.2854
 2854TIP3    H130053   4.092   1.746  14.677  3.6676 -1.1609 -0.2136
 2854TIP3    H230054   3.989   1.635  14.669  1.0448  1.0301  1.6084
 2855TIP3   OH230055   2.444   5.818   0.981 -0.5973 -0.2675 -0.4227
 2855TIP3    H130056   2.459   5.911   0.999 -1.2362  0.0571 -1.4593
 2855TIP3    H230057   2.531   5.781   0.973 -0.2964 -0.1373  1.7026
 2856TIP3   OH230058   4.155   4.970   2.922 -0.0281 -0.1077 -0.4428
 2856TIP3    H130059   4.089   4.913   2.883 -1.4924  0.4723  1.0483
 2856TIP3    H230060   4.106   5.045   2.955  1.5588  0.9682 -0.3933
 2857TIP3   OH230061   2.872   4.201   1.395 -0.3970  0.0981 -0.4916
 2857TIP3    H130062   2.960   4.230   1.421  0.2575 -0.7156 -1.7204
 2857TIP3    H230063   2.820   4.207   1.476  0.7458  0.6898  0.2302
 2858TIP3   OH230064   3.832   0.993   4.092  0.0774  0.8744  0.7320
 2858TIP3    H130065   3.780   1.039   4.158  1.5538  2.3703  0.9447
 2858TIP3    H230066   3.920   0.988   4.131  0.2642 -1.0189  0.1464
 2859TIP3   OH230067   2.932   5.509  11.804  0.2512  0.3842 -0.1508
 2859TIP3    H130068   2.916   5.415  11.792 -1.9324  0.8591 -1.4075
 2859TIP3    H230069   2.954   5.541  11.717 -2.7069  1.6251 -0.5577
 2860TIP3   OH230070   0.291   6.736   1.658  0.4841  0.3473  0.2397
 2860TIP3    H130071   0.206   6.727   1.615  0.1385  1.3950  0.6717
 2860TIP3    H230072   0.301   6.655   1.709 -0.1295  0.0969 -0.0298
 2861TIP3   OH230073   5.506   2.142   0.795  0.6489 -0.4476  0.5929
 2861TIP3    H130074   5.448   2.203   0.840  0.6026  0.1831 -0.3109
 2861TIP3    H230075   5.493   2.159   0.702  0.2395 -2.2144  0.2941
 2862TIP3   OH230076   6.139   4.346  11.941 -0.1722  0.2548  0.0902
 2862TIP3    H130077   6.169   4.315  11.855  0.0114 -0.4105  0.3834
 2862TIP3    H230078   6.186   4.428  11.955  1.6782 -0.8366  0.6042
 2863TIP3   OH230079   0.577   6.050  12.524 -0.1153 -0.0187 -0.1775
 2863TIP3    H130080   0.518   5.986  12.485  0.0003 -0.0567 -0.2924
 2863TIP3    H230081   0.655   5.999  12.547 -0.0685  0.0590 -0.1648
 2864TIP3   OH230082   0.405   4.184  14.411 -0.2135 -0.3980  0.3737
 2864TIP3    H130083   0.483   4.237  14.394 -0.4981  0.4247  1.5702
 2864TIP3    H230084   0.366   4.173  14.324  1.4458 -1.2195 -0.3268
 2865TIP3   OH230085   3.419   1.898   5.711  0.1766 -0.2987  0.2011
 2865TIP3    H130086   3.413   1.954   5.634  0.9354  1.6970  1.5251
 2865TIP3    H230087   3.398   1.955   5.785 -2.3978 -2.5715  1.4100
 2866TIP3   OH230088   3.145   5.190  11.644 -0.3254 -0.4863 -0.2402
 2866TIP3    H130089   3.053   5.199  11.670 -0.3216  0.1622 -0.4327
 2866TIP3    H230090   3.182   5.277  11.657  0.3691 -0.8457  0.2255
 2867TIP3   OH230091   3.925   3.735   3.501  0.1788 -0.0868 -1.0065
 2867TIP3    H130092   3.844   3.777   3.530 -0.4990 -0.8009 -1.7930
 2867TIP3    H230093   3.988   3.807   3.493  0.1155  0.2885  1.1269
 2868TIP3   OH230094   4.318   6.433  15.269 -0.5502  0.3887 -0.0584
 2868TIP3    H130095   4.269   6.372  15.213  0.8914 -3.1364  2.1949
 2868TIP3    H230096   4.400   6.446  15.223 -0.2809 -0.6425  0.0966
 2869TIP3   OH230097   4.843   1.386  12.347 -0.0110  0.2547  0.1450
 2869TIP3    H130098   4.748   1.389  12.332 -0.2209  0.3601  1.4050
 2869TIP3    H230099   4.861   1.463  12.400  0.4546 -0.8269  1.6030
 2870TIP3   OH230100   6.028   0.317  13.193 -0.3492 -0.5324  0.7584
 2870TIP3    H130101   6.041   0.405  13.227 -0.6000 -0.8789  1.7882
 2870TIP3    H230102   6.085   0.262  13.247 -0.2324 -1.0134  0.1561
 2871TIP3   OH230103   0.601   0.324  17.344  0.7604  0.3368 -0.4405
 2871TIP3    H130104   0.584   0.277  17.262 -0.3550  1.7211 -1.0472
 2871TIP3    H230105   0.661   0.395  17.318 -1.6436  2.4059 -0.6928
 2872TIP3   OH230106   6.068   5.298   4.548  0.2638 -0.3247 -0.5825
 2872TIP3    H130107   5.998   5.253   4.501 -0.0165 -0.9834  0.4326
 2872TIP3    H230108   6.028   5.379   4.580  0.1531 -0.3896 -0.5578
 2873TIP3   OH230109   4.897   6.358   4.176 -0.1562 -0.4346  0.1081
 2873TIP3    H130110   4.912   6.442   4.220  0.1485 -0.2997 -0.2575
 2873TIP3    H230111   4.982   6.314   4.177 -0.8491 -1.9338  2.7400
 2874TIP3   OH230112   1.544   0.637  15.223  0.8127 -0.0856  0.4835
 2874TIP3    H130113   1.633   0.630  15.189  0.3435 -2.0106 -0.4847
 2874TIP3    H230114   1.509   0.548  15.218 -1.8844  0.9384 -1.1645
 2875TIP3   OH230115   0.743   2.130   2.378 -0.0900  0.1887 -0.5845
 2875TIP3    H130116   0.719   2.162   2.291  0.6063  3.1648  0.2181
 2875TIP3    H230117   0.826   2.083   2.363 -1.6239 -2.3545 -1.9410
 2876TIP3   OH230118   2.481   3.658   0.289 -0.0681 -0.2896  0.2635
 2876TIP3    H130119   2.480   3.566   0.315 -1.0706  0.1431  1.8568
 2876TIP3    H230120   2.505   3.705   0.368 -2.3105  1.0212  0.2441
 2877TIP3   OH230121   1.591   1.590  15.272 -0.4868 -0.8660 -1.1572
 2877TIP3    H130122   1.622   1.556  15.356  0.8446 -1.2972 -1.7950
 2877TIP3    H230123   1.625   1.529  15.207  0.2237  0.5478 -2.1692
 2878TIP3   OH230124   0.293   6.343   3.048  0.4876 -0.1499 -0.2466
 2878TIP3    H130125   0.333   6.349   2.961 -0.8424 -0.6339 -0.9215
 2878TIP3    H230126   0.367   6.344   3.109  1.3956  1.2924 -1.3132
 2879TIP3   OH230127   5.632   1.852   0.585 -0.0187  0.2153 -0.3224
 2879TIP3    H130128   5.548   1.869   0.627 -0.2652 -0.3332 -0.5768
 2879TIP3    H230129   5.684   1.930   0.603 -0.4906  0.4494  0.0635
 2880TIP3   OH230130   5.849   4.314   2.721 -0.0530 -0.3025 -0.1386
 2880TIP3    H130131   5.763   4.273   2.729  0.0250 -0.2739  1.0045
 2880TIP3    H230132   5.861   4.328   2.627 -0.0291 -3.0419 -0.6201
 2881TIP3   OH230133   5.873   2.374   3.193  0.1388 -0.0880 -0.3190
 2881TIP3    H130134   5.948   2.424   3.161 -0.0077 -0.1579 -0.7771
 2881TIP3    H230135   5.810   2.376   3.121 -0.3836  0.1353  0.1316
 2882TIP3   OH230136   1.623   4.166   0.195  0.5083 -0.0660  0.3249
 2882TIP3    H130137   1.595   4.150   0.285 -0.0748 -0.8484  0.0144
 2882TIP3    H230138   1.685   4.238   0.202 -2.5255  2.7606  0.9356
 2883TIP3   OH230139   5.297   2.155  12.068 -0.4435  0.6039 -0.5699
 2883TIP3    H130140   5.251   2.082  12.027  1.7666 -1.5010  0.3914
 2883TIP3    H230141   5.229   2.203  12.115 -1.9284 -1.2642 -0.6638
 2884TIP3   OH230142   2.987   3.917  11.818  0.0411  0.2765 -0.0338
 2884TIP3    H130143   3.060   3.878  11.770 -0.1680  0.7245 -0.7261
 2884TIP3    H230144   3.007   4.010  11.821 -2.3293  1.1037 -3.6934
 2885TIP3   OH230145   0.061   1.105  16.439  0.7606 -0.2001  0.2526
 2885TIP3    H130146   0.051   1.182  16.496 -2.7688 -2.0178  2.3891
 2885TIP3    H230147   0.144   1.065  16.468  0.7542  0.7804  1.7647
 2886TIP3   OH230148   0.191   3.918   3.622  0.1930  0.3102 -0.6162
 2886TIP3    H130149   0.256   3.929   3.553  0.7362 -2.4882 -0.6672
 2886TIP3    H230150   0.107   3.915   3.576  0.7240 -4.5170 -1.7827
 2887TIP3   OH230151   0.993   2.941   0.359 -0.6868 -0.1650  0.0626
 2887TIP3    H130152   0.969   3.030   0.385  0.5339 -0.1253  1.1767
 2887TIP3    H230153   0.920   2.887   0.388 -1.1230  0.3844  0.0111
 2888TIP3   OH230154   1.447   0.165   1.423 -0.1404  0.2463 -0.2197
 2888TIP3    H130155   1.502   0.117   1.484 -0.1569  0.3353 -0.1352
 2888TIP3    H230156   1.479   0.140   1.336  0.3107  0.6199 -0.1683
 2889TIP3   OH230157   5.307   5.254  12.202  0.0627  0.0469 -0.3916
 2889TIP3    H130158   5.261   5.269  12.284  1.2902  0.6874  0.2143
 2889TIP3    H230159   5.391   5.217  12.228 -0.0791 -1.1108 -1.4627
 2890TIP3   OH230160   1.292   0.507   5.441 -0.1514  0.2890  0.2053
 2890TIP3    H130161   1.329   0.594   5.455 -0.4607  0.4618 -0.0368
 2890TIP3    H230162   1.203   0.524   5.411  0.2672 -0.0716 -1.3343
 2891TIP3   OH230163   6.104   5.079  12.159  0.3493  0.3696  0.2113
 2891TIP3    H130164   6.127   5.102  12.249 -0.0997 -0.7444  0.6245
 2891TIP3    H230165   6.025   5.026  12.168 -0.1628  0.9225 -0.9042
 2892TIP3   OH230166   4.215   3.416   2.446  0.0495 -0.1037  0.2791
 2892TIP3    H130167   4.193   3.394   2.355  1.5222  0.5994 -0.2738
 2892TIP3    H230168   4.130   3.430   2.488 -0.7318 -1.7584 -0.6216
 2893TIP3   OH230169   3.421   5.233   3.827  0.0099  0.5242 -0.3061
 2893TIP3    H130170   3.497   5.288   3.848  1.4752 -2.4135  3.0794
 2893TIP3    H230171   3.443   5.194   3.742  2.3523 -0.2251  0.5560
 2894TIP3   OH230172   3.532   2.218  12.330  0.0580  0.3668  0.0104
 2894TIP3    H130173   3.598   2.235  12.397 -0.8258  1.5798  0.6233
 2894TIP3    H230174   3.542   2.290  12.268 -0.7044  0.6044  0.1453
 2895TIP3   OH230175   1.996   3.657  11.069  0.4274  0.0778  0.3116
 2895TIP3    H130176   2.046   3.576  11.061  0.5693  0.1962 -0.0000
 2895TIP3    H230177   1.994   3.693  10.980  2.9107  1.9351  0.8989
 2896TIP3   OH230178   5.254   4.921   2.897 -0.3341  0.3785 -0.0721
 2896TIP3    H130179   5.186   4.963   2.844  0.5559  0.1409 -1.4706
 2896TIP3    H230180   5.234   4.827   2.891  1.3487  0.0754 -2.4418
 2897TIP3   OH230181   1.617   3.436  15.164 -0.4477 -0.2793  0.1669
 2897TIP3    H130182   1.608   3.421  15.258  1.5243 -1.1736  0.2716
 2897TIP3    H230183   1.634   3.530  15.157  0.4520 -0.3774  0.8299
 2898TIP3   OH230184   1.690   2.112   3.682  0.0124 -0.0275 -0.2471
 2898TIP3    H130185   1.727   2.164   3.753 -1.6113  0.3593  0.3642
 2898TIP3    H230186   1.733   2.027   3.690  0.9057  0.4569  0.2797
 2899TIP3   OH230187   2.095   5.819   6.276 -0.0387  0.0951 -0.1588
 2899TIP3    H130188   2.095   5.733   6.232 -2.6348 -0.7519  1.2704
 2899TIP3    H230189   2.016   5.862   6.243  0.7505  1.6026 -0.1603
 2900TIP3   OH230190   4.203   3.269  14.052 -0.1489 -0.0280 -0.2486
 2900TIP3    H130191   4.241   3.185  14.077 -2.6648 -0.7865  1.4715
 2900TIP3    H230192   4.167   3.254  13.965 -0.0029 -0.5494 -0.2218
 2901TIP3   OH230193   5.413   4.431  16.969 -0.1170 -0.6965  0.3907
 2901TIP3    H130194   5.496   4.385  16.984 -0.4683 -1.3438  0.3934
 2901TIP3    H230195   5.355   4.364  16.934 -0.5889 -0.1998  0.2111
 2902TIP3   OH230196   2.533   4.201   5.886 -0.8357 -0.3691  0.1073
 2902TIP3    H130197   2.493   4.274   5.933  1.9135  0.9889  0.5552
 2902TIP3    H230198   2.537   4.229   5.795  0.7457  0.3430  0.3728
 2903TIP3   OH230199   0.085   3.005   6.306 -0.0798 -0.4046  0.5116
 2903TIP3    H130200   0.144   3.076   6.335  1.4686 -0.9780 -1.0249
 2903TIP3    H230201   0.049   2.969   6.387  0.2866  1.1396  1.4102
 2904TIP3   OH230202   6.163   3.341   3.237 -0.4501  0.4628  0.0468
 2904TIP3    H130203   6.232   3.311   3.178 -0.2463  0.4979  0.2645
 2904TIP3    H230204   6.195   3.319   3.324 -0.4396  1.0332  0.1915
 2905TIP3   OH230205   4.615   2.079  17.126  0.1302  0.1771  0.1239
 2905TIP3    H130206   4.572   2.026  17.194  0.8935 -1.4531 -0.5980
 2905TIP3    H230207   4.557   2.071  17.050 -0.2111  1.1682  0.2708
 2906TIP3   OH230208   3.277   4.057  11.761 -0.0451  0.4305  0.3749
 2906TIP3    H130209   3.262   4.085  11.671 -1.2470 -0.2595  0.3291
 2906TIP3    H230210   3.224   4.118  11.814  0.7020  0.8708  0.6334
 2907TIP3   OH230211   1.535   1.495   6.741 -0.4245  0.3828 -0.4186
 2907TIP3    H130212   1.464   1.559   6.740  0.6353  1.5899 -0.4431
 2907TIP3    H230213   1.493   1.413   6.767 -1.5486  1.3901  1.1019
 2908TIP3   OH230214   0.846   0.201   0.194 -0.9621 -0.2267 -0.0851
 2908TIP3    H130215   0.857   0.295   0.209 -0.9849  0.0404 -1.5323
 2908TIP3    H230216   0.797   0.196   0.112  0.8550 -1.4850 -1.1914
 2909TIP3   OH230217   2.878   1.600  16.909  0.3787 -0.4193  0.1562
 2909TIP3    H130218   2.850   1.689  16.931  2.3217 -0.1657  1.8973
 2909TIP3    H230219   2.810   1.543  16.945 -0.3188  0.3060 -0.0058
 2910TIP3   OH230220   3.982   5.847   5.232 -0.2314  0.0937 -0.3574
 2910TIP3    H130221   3.982   5.782   5.162  1.0261  0.2118 -0.4984
 2910TIP3    H230222   4.038   5.810   5.300  0.7608  1.1283 -0.5679
 2911TIP3   OH230223   3.485   1.465  15.348  0.7196  0.2989 -0.5913
 2911TIP3    H130224   3.565   1.474  15.400 -0.2755 -0.1716  1.0925
 2911TIP3    H230225   3.417   1.506  15.401 -0.2492  0.3043 -1.7954
 2912TIP3   OH230226   2.110   2.145  17.166  0.4482 -0.1068 -1.0155
 2912TIP3    H130227   2.054   2.143  17.243 -0.4707  1.3464 -1.6021
 2912TIP3    H230228   2.192   2.182  17.196  0.0663  0.5275 -0.7505
 2913TIP3   OH230229   1.101   2.044   0.191  0.1635  0.0507  0.3159
 2913TIP3    H130230   1.148   2.125   0.211 -0.0376  0.2724 -0.0960
 2913TIP3    H230231   1.061   2.019   0.274 -1.2548  1.3395  0.0680
 2914TIP3   OH230232   5.162   1.026  13.365  0.0557 -0.3846 -0.1024
 2914TIP3    H130233   5.102   1.004  13.437  0.5146 -1.1271  0.0522
 2914TIP3    H230234   5.153   1.121  13.357 -0.9162 -0.4362  0.1237
 2915TIP3   OH230235   5.750   2.228   2.400  0.7384 -0.2356 -0.3034
 2915TIP3    H130236   5.827   2.283   2.386 -0.2137  1.1362 -0.3075
 2915TIP3    H230237   5.706   2.226   2.315 -1.9341  3.2863  0.7701
 2916TIP3   OH230238   1.793   1.689   5.147 -0.3207 -0.6341  0.2130
 2916TIP3    H130239   1.749   1.609   5.176  0.5144 -2.4040 -2.8944
 2916TIP3    H230240   1.825   1.729   5.227 -0.8635 -3.4036  1.9621
 2917TIP3   OH230241   0.179   6.466   1.986 -0.2551  0.1910  0.4827
 2917TIP3    H130242   0.160   6.387   2.036 -0.2028  0.4696  0.9581
 2917TIP3    H230243   0.241   6.514   2.041 -0.5220  0.7010  0.3435
 2918TIP3   OH230244   2.164   6.406  12.895  0.2346 -0.0754 -0.0872
 2918TIP3    H130245   2.120   6.477  12.848 -0.5555 -1.4952 -1.5974
 2918TIP3    H230246   2.239   6.383  12.839  1.7774  0.9677  1.4637
 2919TIP3   OH230247   1.769   3.234  11.736  0.1537 -0.1555  0.7049
 2919TIP3    H130248   1.781   3.260  11.645  3.1189  0.0999  1.0624
 2919TIP3    H230249   1.696   3.288  11.767 -1.0931 -0.4306 -1.5276
 2920TIP3   OH230250   1.945   2.083   2.626  0.5496  0.4389 -0.4268
 2920TIP3    H130251   1.976   2.096   2.716  0.0383  1.0663 -0.3279
 2920TIP3    H230252   1.853   2.058   2.636  0.6492 -0.0731 -0.7588
 2921TIP3   OH230253   6.348   3.305   3.418 -0.4880 -0.2638 -0.2078
 2921TIP3    H130254   6.391   3.373   3.366  0.5484  0.3942  1.4090
 2921TIP3    H230255   6.398   3.303   3.500 -1.6570 -1.6808  0.5160
 2922TIP3   OH230256   1.042   3.207   3.432  0.3228  0.1273  0.3868
 2922TIP3    H130257   1.081   3.134   3.479  1.3443 -0.1390 -0.8097
 2922TIP3    H230258   0.980   3.167   3.372 -1.0835  0.4749  1.5472
 2923TIP3   OH230259   2.017   1.345   4.487 -0.0804  0.3381 -0.0340
 2923TIP3    H130260   2.080   1.416   4.471 -0.2748  0.2364 -1.3002
 2923TIP3    H230261   2.071   1.273   4.520  0.3681  0.4851 -0.4364
 2924TIP3   OH230262   6.400   2.584  16.918  0.0362  0.6509 -0.1616
 2924TIP3    H130263   6.409   2.621  16.830 -1.2267  1.3812 -0.0098
 2924TIP3    H230264   6.359   2.499  16.904 -0.8082  1.0594 -0.2556
 2925TIP3   OH230265   2.208   1.812   5.238  0.1144 -0.1277  0.5461
 2925TIP3    H130266   2.198   1.730   5.190 -1.3377  0.0220  0.5399
 2925TIP3    H230267   2.270   1.791   5.308  0.8543 -0.8316 -0.2846
 2926TIP3   OH230268   3.704   0.401   0.753  0.1975  0.2013  0.0959
 2926TIP3    H130269   3.759   0.402   0.674 -0.6643  2.2929 -0.5532
 2926TIP3    H230270   3.729   0.479   0.801 -2.0647  1.1761 -0.1685
 2927TIP3   OH230271   5.553   5.641   1.736  0.7863  0.4183 -0.6593
 2927TIP3    H130272   5.643   5.675   1.731  1.2103 -0.6888 -1.1849
 2927TIP3    H230273   5.532   5.642   1.829  1.9049 -0.6021 -0.3554
 2928TIP3   OH230274   3.792   6.011  15.096 -0.1762 -0.0005  0.8233
 2928TIP3    H130275   3.834   5.931  15.127  1.3622  0.6090  0.3924
 2928TIP3    H230276   3.713   5.981  15.050  1.8875 -1.5592 -1.9900
 2929TIP3   OH230277   2.581   1.066   5.901 -0.0618  0.4191  0.0283
 2929TIP3    H130278   2.572   0.984   5.949  0.0300  0.0691 -0.5543
 2929TIP3    H230279   2.515   1.060   5.832 -0.6365  1.1973  0.4816
 2930TIP3   OH230280   4.998   3.779  10.866 -0.2397 -0.2539  0.4059
 2930TIP3    H130281   5.018   3.685  10.861 -0.4739 -0.3045  0.4092
 2930TIP3    H230282   4.962   3.801  10.780 -1.0033 -0.3616  0.6905
 2931TIP3   OH230283   4.706   1.677   4.860 -0.3916 -0.0996  0.0814
 2931TIP3    H130284   4.712   1.600   4.916  1.1016 -0.8560 -1.0667
 2931TIP3    H230285   4.614   1.702   4.865 -0.7804 -1.5624  0.9917
 2932TIP3   OH230286   2.071   4.996  15.001 -0.2489  0.1403 -0.4893
 2932TIP3    H130287   2.001   4.945  15.040 -0.2510  1.0108  0.6922
 2932TIP3    H230288   2.097   4.946  14.923 -1.4736 -0.7011 -0.3794
 2933TIP3   OH230289   0.123   0.572   3.802 -0.7274 -0.2191  0.0652
 2933TIP3    H130290   0.069   0.634   3.852 -2.1859 -1.0458 -0.4461
 2933TIP3    H230291   0.127   0.494   3.857  1.7950  0.5376  1.0852
 2934TIP3   OH230292   5.685   0.272   0.770 -0.7534 -0.1933  0.3920
 2934TIP3    H130293   5.724   0.269   0.683 -1.8678 -1.2555 -0.0974
 2934TIP3    H230294   5.659   0.182   0.789 -2.1439  0.3061  1.0481
 2935TIP3   OH230295   2.817   3.512  12.511 -0.3986 -0.4969  0.4190
 2935TIP3    H130296   2.881   3.582  12.524 -0.8730  0.0824 -0.2859
 2935TIP3    H230297   2.735   3.557  12.495 -0.5595 -1.1876 -0.8730
 2936TIP3   OH230298   2.412   0.134   4.881  0.0477  0.0837 -0.9181
 2936TIP3    H130299   2.341   0.143   4.945 -2.1984 -0.1568 -3.2479
 2936TIP3    H230300   2.491   0.125   4.935 -1.6663  0.1601  1.8016
 2937TIP3   OH230301   1.633   5.012  16.447 -0.5586 -0.6132 -0.0234
 2937TIP3    H130302   1.589   4.949  16.390  0.9174 -0.1778 -1.7610
 2937TIP3    H230303   1.590   5.095  16.428  0.6060 -0.2770 -1.3552
 2938TIP3   OH230304   2.855   1.780   1.645 -0.1963 -0.0925  0.1768
 2938TIP3    H130305   2.824   1.694   1.616 -0.4991  0.1205 -0.1329
 2938TIP3    H230306   2.896   1.818   1.567  1.0981 -0.4757  0.6391
 2939TIP3   OH230307   3.456   1.127  12.973  0.9387  0.2749 -0.3380
 2939TIP3    H130308   3.536   1.179  12.982  0.5897  1.2734 -2.4391
 2939TIP3    H230309   3.426   1.144  12.883 -0.6107 -1.5555 -0.2330
 2940TIP3   OH230310   5.130   0.162   5.769 -0.0522  0.1589  0.3258
 2940TIP3    H130311   5.186   0.239   5.769 -0.7804  0.7961 -2.5581
 2940TIP3    H230312   5.178   0.097   5.719 -1.0311  0.0580 -0.5126
 2941TIP3   OH230313   3.165   5.093   2.296 -0.4084 -0.1221 -0.0454
 2941TIP3    H130314   3.229   5.072   2.228 -1.1739 -2.8194 -0.0501
 2941TIP3    H230315   3.217   5.099   2.376  0.1758  0.5999 -0.4589
 2942TIP3   OH230316   0.773   2.123   1.611 -0.9018 -0.5171  0.6086
 2942TIP3    H130317   0.857   2.106   1.654 -0.4253  2.0930  0.8901
 2942TIP3    H230318   0.709   2.078   1.666  0.0489 -0.0896  2.1583
 2943TIP3   OH230319   4.293   5.005  17.102  0.0708  0.2042  0.2426
 2943TIP3    H130320   4.219   5.057  17.132  0.3531  0.9834 -0.3731
 2943TIP3    H230321   4.306   5.032  17.011  0.9663 -0.0778  0.2754
 2944TIP3   OH230322   0.606   6.730  15.924  0.8546  0.2916  0.4456
 2944TIP3    H130323   0.595   6.825  15.932 -1.1310  0.2125 -0.7214
 2944TIP3    H230324   0.562   6.694  16.001 -0.1367  0.2652 -0.1219
 2945TIP3   OH230325   5.554   1.269  12.638  0.2645  0.3310 -0.2781
 2945TIP3    H130326   5.463   1.268  12.609  0.1363  0.2912  0.1289
 2945TIP3    H230327   5.569   1.360  12.665  0.5250  0.4828 -0.9015
 2946TIP3   OH230328   4.047   1.708  13.212  0.0452  0.6147  0.1532
 2946TIP3    H130329   4.070   1.642  13.147 -0.3479  0.3173  0.3117
 2946TIP3    H230330   4.117   1.773  13.206  0.9841 -0.3111  0.6961
 2947TIP3   OH230331   1.237   4.418   5.482  0.3459 -0.0703  0.0254
 2947TIP3    H130332   1.160   4.434   5.428  0.2303  0.8002  0.4174
 2947TIP3    H230333   1.260   4.327   5.467 -2.1717 -1.0840  1.7026
 2948TIP3   OH230334   1.739   2.139  11.536 -0.4370  0.4667  0.0004
 2948TIP3    H130335   1.748   2.183  11.452 -1.0156 -0.1684 -0.3998
 2948TIP3    H230336   1.781   2.054  11.523  0.1574  0.6537  0.5973
 2949TIP3   OH230337   1.737   6.416  12.217  0.0199 -0.1167  0.5705
 2949TIP3    H130338   1.672   6.390  12.283 -0.8260 -0.4514 -0.3550
 2949TIP3    H230339   1.700   6.384  12.135  1.2614 -0.0934 -0.0135
 2950TIP3   OH230340   2.440   2.592  13.954  0.1992  0.3199 -0.0164
 2950TIP3    H130341   2.403   2.670  13.993  1.1112  0.5704  0.3903
 2950TIP3    H230342   2.467   2.538  14.029 -0.9842 -0.6787 -0.2797
 2951TIP3   OH230343   3.136   6.401  15.643 -0.2081 -0.2216 -0.2444
 2951TIP3    H130344   3.063   6.359  15.690 -0.0227 -2.4015 -1.7423
 2951TIP3    H230345   3.095   6.469  15.590 -0.8452  0.0682  0.5991
 2952TIP3   OH230346   0.257   6.084  13.578 -0.4143  0.1451 -0.3414
 2952TIP3    H130347   0.234   5.992  13.585  0.6977 -0.1063  0.2273
 2952TIP3    H230348   0.259   6.116  13.668  1.3980  0.1408 -0.3344
 2953TIP3   OH230349   5.899   1.465   0.794 -0.2805 -0.0656  0.1825
 2953TIP3    H130350   5.873   1.501   0.709  0.8334 -2.6908 -1.4055
 2953TIP3    H230351   5.833   1.498   0.855 -1.5870  1.2892 -1.8200
 2954TIP3   OH230352   4.754   5.807  12.839 -0.1666  0.1954 -0.5139
 2954TIP3    H130353   4.798   5.835  12.759 -1.3030  0.0639 -1.1999
 2954TIP3    H230354   4.806   5.732  12.870  0.9056  0.9111 -0.5157
 2955TIP3   OH230355   2.844   6.067   0.928 -0.0118 -0.6843  0.8138
 2955TIP3    H130356   2.810   6.099   0.844  2.0677 -0.2825  0.0561
 2955TIP3    H230357   2.939   6.070   0.918  0.3002 -0.7741  3.1592
 2956TIP3   OH230358   4.685   5.017   2.640  0.1133 -0.6562  0.1995
 2956TIP3    H130359   4.737   5.082   2.594  0.9477 -1.1216  0.4590
 2956TIP3    H230360   4.668   5.056   2.726 -0.0077 -0.4785  0.0943
 2957TIP3   OH230361   2.420   3.792   0.940  0.0786 -0.2333 -0.3286
 2957TIP3    H130362   2.362   3.799   1.016  2.3814  0.0176  1.5127
 2957TIP3    H230363   2.432   3.698   0.927  0.6320 -0.2599  0.3812
 2958TIP3   OH230364   5.302   5.106  15.212 -0.1845  0.1890 -0.1893
 2958TIP3    H130365   5.336   5.020  15.189  1.1272  0.7257 -0.3157
 2958TIP3    H230366   5.330   5.121  15.302  0.4007  0.8591 -0.4697
 2959TIP3   OH230367   5.261   1.292  14.146 -0.1478 -0.4116 -0.0141
 2959TIP3    H130368   5.247   1.201  14.171 -1.9975 -0.3440 -0.6232
 2959TIP3    H230369   5.221   1.343  14.216  1.9941  0.0275  0.9804
 2960TIP3   OH230370   3.458   0.275  12.910 -0.0176 -0.2226 -0.3214
 2960TIP3    H130371   3.534   0.312  12.955  0.8626 -2.3357  0.0300
 2960TIP3    H230372   3.389   0.340  12.923  1.5983  1.6097 -0.3539
 2961TIP3   OH230373   2.092   5.393  14.862 -0.5849  0.0836  0.2594
 2961TIP3    H130374   2.091   5.300  14.839 -2.4769 -0.7857  3.1893
 2961TIP3    H230375   2.183   5.412  14.882  0.2080 -0.4733 -2.4261
 2962TIP3   OH230376   4.805   6.629   3.580 -0.5816  0.4783  0.0658
 2962TIP3    H130377   4.870   6.686   3.540 -0.2931  0.1522  0.0678
 2962TIP3    H230378   4.852   6.547   3.597 -0.8400  0.4277  0.5734
 2963TIP3   OH230379   2.264   3.177  13.693  0.1269 -0.4837  0.7452
 2963TIP3    H130380   2.360   3.180  13.695  0.1009 -0.1222  1.9972
 2963TIP3    H230381   2.242   3.092  13.730 -0.0397 -0.9082 -0.2841
 2964TIP3   OH230382   4.183   3.428   5.030 -0.2935 -0.0472 -0.6624
 2964TIP3    H130383   4.123   3.500   5.050 -0.5276  0.2115 -2.1750
 2964TIP3    H230384   4.143   3.352   5.074 -1.3544  0.2635 -1.0458
 2965TIP3   OH230385   2.517   1.019   3.887  0.5041 -0.4900  0.5655
 2965TIP3    H130386   2.423   1.032   3.873  0.6422  1.6517  1.2070
 2965TIP3    H230387   2.558   1.095   3.846  1.7650 -0.2001  2.2312
 2966TIP3   OH230388   2.309   1.930  13.405 -0.1675 -0.2778 -0.0925
 2966TIP3    H130389   2.245   2.000  13.421  1.4005  1.3685 -0.7094
 2966TIP3    H230390   2.263   1.868  13.348 -1.0260  1.2190 -1.1068
 2967TIP3   OH230391   2.136   0.220  14.299 -0.3609 -0.8222  0.5808
 2967TIP3    H130392   2.093   0.163  14.234  1.2742 -0.3419 -1.0186
 2967TIP3    H230393   2.111   0.309  14.274  0.4797 -0.6173  0.4407
 2968TIP3   OH230394   6.236   2.036   3.223  0.5493 -0.1996  0.3324
 2968TIP3    H130395   6.268   2.105   3.164  1.5347  0.2119  1.3062
 2968TIP3    H230396   6.149   2.015   3.190  0.9674  0.1812 -1.1262
 2969TIP3   OH230397   6.420   4.564  11.096  0.1828  0.2328 -0.1996
 2969TIP3    H130398   6.361   4.501  11.053  0.5026 -1.3050  1.4956
 2969TIP3    H230399   6.480   4.592  11.026  0.4409 -1.8782 -0.8956
 2970TIP3   OH230400   0.296   1.036   5.514  0.5050 -0.3174 -0.0236
 2970TIP3    H130401   0.240   1.109   5.540  0.2111 -0.8244  0.8414
 2970TIP3    H230402   0.366   1.076   5.462 -2.1429  0.0209 -3.7172
 2971TIP3   OH230403   5.059   3.072  12.628  0.2600  0.0053 -0.2635
 2971TIP3    H130404   5.115   3.047  12.554  0.1651 -2.4825  0.4096
 2971TIP3    H230405   5.112   3.051  12.706 -0.6600 -0.0217  0.3714
 2972TIP3   OH230406   2.504   4.313  14.900 -0.4112  0.4814 -0.0957
 2972TIP3    H130407   2.550   4.332  14.982  1.3722  1.9482 -1.3359
 2972TIP3    H230408   2.533   4.225  14.876  2.4064  1.5479 -1.1118
 2973TIP3   OH230409   5.741   1.844   6.173  0.5079 -0.1342 -0.0651
 2973TIP3    H130410   5.655   1.805   6.192  0.6658 -0.5791 -0.2636
 2973TIP3    H230411   5.754   1.907   6.243 -0.4566  0.7017 -0.6100
 2974TIP3   OH230412   3.856   6.102   4.261 -0.3382 -0.3054  0.2471
 2974TIP3    H130413   3.783   6.156   4.233 -0.3318 -1.7258 -2.8629
 2974TIP3    H230414   3.929   6.128   4.206  0.1357 -2.1930 -0.0995
 2975TIP3   OH230415   3.587   5.838  11.377  0.1653 -0.6880 -0.3102
 2975TIP3    H130416   3.539   5.910  11.418  0.6916 -1.4275  1.7254
 2975TIP3    H230417   3.581   5.766  11.439  1.9060 -1.5607 -1.0750
 2976TIP3   OH230418   5.403   5.303   3.335  0.5631  0.0156  0.4489
 2976TIP3    H130419   5.435   5.392   3.354 -0.8301  0.6295  0.0410
 2976TIP3    H230420   5.437   5.284   3.248  1.5924 -0.2246  0.8824
 2977TIP3   OH230421   5.130   2.302  16.262 -0.2642  0.0824  0.6701
 2977TIP3    H130422   5.111   2.284  16.354 -1.8719  0.6514  0.4695
 2977TIP3    H230423   5.199   2.368  16.265 -0.5444  0.3576  1.4778
 2978TIP3   OH230424   2.084   2.342   0.030 -0.1118  0.2059 -0.7135
 2978TIP3    H130425   2.160   2.327  -0.026  1.2533 -1.4271  1.3762
 2978TIP3    H230426   2.036   2.259   0.028  0.6928 -0.3900  1.4281
 2979TIP3   OH230427   5.920   4.153  15.728  0.5128 -0.0820  0.1705
 2979TIP3    H130428   5.987   4.086  15.716  1.4363  0.8333 -0.0216
 2979TIP3    H230429   5.927   4.178  15.820  1.8900  1.4311 -0.2844
 2980TIP3   OH230430   2.749   0.245   5.775 -0.3691 -0.0302 -0.1722
 2980TIP3    H130431   2.837   0.220   5.746 -0.4967 -0.3965 -0.2437
 2980TIP3    H230432   2.698   0.250   5.695 -0.3243  0.5526 -0.1678
 2981TIP3   OH230433   3.654   0.051  12.695 -0.0785  0.1311 -0.2402
 2981TIP3    H130434   3.746   0.068  12.716 -0.0662  1.5266 -1.3230
 2981TIP3    H230435   3.658  -0.006  12.618 -0.0992  1.0050 -0.9015
 2982TIP3   OH230436   1.143   6.601  16.737  0.1042 -0.5304  0.3930
 2982TIP3    H130437   1.105   6.687  16.718  0.3010 -0.6100 -0.3946
 2982TIP3    H230438   1.191   6.614  16.818 -1.1325 -0.2857  1.1249
 2983TIP3   OH230439   5.377   2.606  14.588 -0.1449  0.5748 -0.5502
 2983TIP3    H130440   5.286   2.580  14.595 -0.0594  0.4238  0.0884
 2983TIP3    H230441   5.377   2.700  14.606 -0.4102  0.9855 -2.5063
 2984TIP3   OH230442   2.082   4.102  12.828  0.4271 -0.7429  0.3630
 2984TIP3    H130443   2.005   4.134  12.876  0.9273  0.0121  0.6682
 2984TIP3    H230444   2.155   4.113  12.889  1.1110  0.4109 -0.6136
 2985TIP3   OH230445   0.448   2.026  17.019  0.4901 -0.3492  0.0954
 2985TIP3    H130446   0.543   2.039  17.008  0.3692 -0.4480 -1.2171
 2985TIP3    H230447   0.421   1.981  16.939 -0.1448 -3.2331  1.7812
 2986TIP3   OH230448   5.227   6.753   5.296  0.8395  0.9699 -0.0178
 2986TIP3    H130449   5.196   6.696   5.366  0.8885  2.3070  1.1422
 2986TIP3    H230450   5.286   6.698   5.244 -0.1776 -0.4080  0.2142
 2987TIP3   OH230451   3.699   5.897   1.474  0.3634 -0.1491 -0.0492
 2987TIP3    H130452   3.764   5.967   1.466  1.5720 -1.1476  0.8125
 2987TIP3    H230453   3.616   5.944   1.484  1.4436  1.2999  3.7205
 2988TIP3   OH230454   2.011   0.371  17.416 -0.1883 -0.0919 -0.6005
 2988TIP3    H130455   1.950   0.349  17.487  0.2026  0.5502 -0.0516
 2988TIP3    H230456   2.062   0.292  17.403  1.6720  0.5942  1.8219
 2989TIP3   OH230457   4.956   0.648   1.114 -0.0131 -0.0870 -0.5631
 2989TIP3    H130458   4.909   0.580   1.162 -0.8686  0.4316 -0.6487
 2989TIP3    H230459   5.047   0.640   1.144 -0.5029  0.1562  1.0587
 2990TIP3   OH230460   2.062   6.731   5.312  0.2254  0.0003  0.3269
 2990TIP3    H130461   2.001   6.713   5.383 -0.4053  1.0284  0.0696
 2990TIP3    H230462   2.012   6.784   5.250  0.7634 -0.8714 -0.8973
 2991TIP3   OH230463   1.915   2.820  16.084  0.3567 -0.2086 -0.7252
 2991TIP3    H130464   2.009   2.837  16.078  0.4130  0.4004  1.1991
 2991TIP3    H230465   1.874   2.905  16.067  0.2755  0.0341  0.5857
 2992TIP3   OH230466   0.255   1.958  12.487  0.1835 -0.4767 -0.1625
 2992TIP3    H130467   0.232   1.881  12.540 -1.5437  0.2202  0.1821
 2992TIP3    H230468   0.337   1.934  12.444 -0.0806 -2.3409  0.2679
 2993TIP3   OH230469   3.311   6.577  13.130  0.4240 -0.5020  0.5620
 2993TIP3    H130470   3.352   6.651  13.084  0.1708  0.6311  2.0739
 2993TIP3    H230471   3.238   6.617  13.178  0.3395 -1.7196  1.4906
 2994TIP3   OH230472   3.353   2.832  13.892 -0.2066 -0.1068 -0.8129
 2994TIP3    H130473   3.278   2.813  13.947  0.6144  0.5462  0.5899
 2994TIP3    H230474   3.428   2.828  13.952  0.6754  0.9787 -1.7978
 2995TIP3   OH230475   2.893   5.032   0.301 -0.0709  0.1448  0.3418
 2995TIP3    H130476   2.887   5.030   0.396  2.4714  0.4951  0.5935
 2995TIP3    H230477   2.867   4.944   0.273 -1.3432  0.1925  1.2820
 2996TIP3   OH230478   2.024   0.346   4.076  0.0462 -0.5861  0.3199
 2996TIP3    H130479   2.040   0.351   4.171  1.8120  0.3868  0.0220
 2996TIP3    H230480   2.030   0.252   4.056  0.9820 -0.6849  0.9842
 2997TIP3   OH230481   4.673   1.910   0.739 -0.1540 -0.6591  0.4675
 2997TIP3    H130482   4.605   1.946   0.796 -1.5388  0.3372 -1.6701
 2997TIP3    H230483   4.626   1.888   0.658  2.2511  1.5967 -1.7279
 2998TIP3   OH230484   4.902   4.653  13.724  0.5361  0.3870  0.1449
 2998TIP3    H130485   4.940   4.737  13.749 -0.9780  1.8559 -2.1220
 2998TIP3    H230486   4.812   4.674  13.698  0.2121 -1.8909 -0.7864
 2999TIP3   OH230487   0.344   5.656  14.490 -0.4725 -0.2533 -0.6369
 2999TIP3    H130488   0.319   5.596  14.560  1.0009 -2.5960 -1.9994
 2999TIP3    H230489   0.422   5.617  14.452 -0.4049  1.6975 -2.6888
 3000TIP3   OH230490   0.701   0.293   0.978 -0.1432 -0.3676  0.3517
 3000TIP3    H130491   0.706   0.324   1.069 -0.7626 -1.3957  0.7578
 3000TIP3    H230492   0.780   0.241   0.967 -0.2694 -0.5774  0.4350
 3001TIP3   OH230493   1.282   3.707  11.506  0.3723 -0.0256  0.8673
 3001TIP3    H130494   1.360   3.654  11.526  0.1850 -0.6947 -0.1380
 3001TIP3    H230495   1.315   3.779  11.453  0.0863 -1.2681 -1.0764
 3002TIP3   OH230496   3.724   5.793  13.203 -0.1816  0.7786 -0.2268
 3002TIP3    H130497   3.666   5.824  13.133  1.5843  0.7299 -1.8007
 3002TIP3    H230498   3.686   5.710  13.231 -1.8184  1.5758  0.0631
 3003TIP3   OH230499   4.585   2.854   4.182 -0.2745 -0.1311 -0.0820
 3003TIP3    H130500   4.577   2.944   4.150 -0.8500 -0.2459 -0.2640
 3003TIP3    H230501   4.598   2.863   4.276  1.0218  0.1909 -0.2699
 3004TIP3   OH230502   6.619   0.724  12.304  0.6921  0.3040  0.5064
 3004TIP3    H130503   6.577   0.672  12.235  2.0520  0.6929 -0.6567
 3004TIP3    H230504   6.683   0.665  12.343 -0.2893 -0.0177  1.7079
 3005TIP3   OH230505   6.511   0.411   1.817  0.3403 -0.0911 -0.1707
 3005TIP3    H130506   6.547   0.467   1.886  0.8181  0.7453 -1.0762
 3005TIP3    H230507   6.464   0.471   1.760  1.0768 -0.5662 -1.3022
 3006TIP3   OH230508   5.250   3.873   3.498  0.2888 -0.2690  0.6309
 3006TIP3    H130509   5.166   3.827   3.506  0.2430 -1.0399 -2.9527
 3006TIP3    H230510   5.230   3.964   3.518 -1.0660 -0.6655  1.1917
 3007TIP3   OH230511   2.531   5.472  13.060  0.6818 -0.1517  0.1459
 3007TIP3    H130512   2.546   5.378  13.069 -0.4485 -0.3476  0.0454
 3007TIP3    H230513   2.469   5.494  13.129  0.8156  0.4910  0.0694
 3008TIP3   OH230514   5.504   1.323  14.881  0.7631 -0.3540 -0.2077
 3008TIP3    H130515   5.497   1.309  14.786  0.0851  0.1073 -0.2282
 3008TIP3    H230516   5.532   1.238  14.915  0.1977 -0.7601 -0.7358
 3009TIP3   OH230517   0.033   4.285  14.975 -0.0171 -0.3759  0.5350
 3009TIP3    H130518   0.099   4.216  14.961 -0.7471 -0.8031 -1.0071
 3009TIP3    H230519   0.012   4.280  15.068  1.9407 -0.3865  1.0215
 3010TIP3   OH230520   3.775   2.275  12.717 -0.0005  0.1027 -0.1298
 3010TIP3    H130521   3.824   2.205  12.760  1.8946  0.5300 -1.4255
 3010TIP3    H230522   3.748   2.237  12.633 -0.8023  0.2789  0.0449
 3011TIP3   OH230523   0.255   5.587   1.289  0.1875 -0.0288  0.0961
 3011TIP3    H130524   0.174   5.550   1.254  0.0969 -0.9389  1.2029
 3011TIP3    H230525   0.324   5.536   1.248  0.1143 -0.5265  0.5770
 3012TIP3   OH230526   1.350   2.201   2.773  0.1510 -0.0285  0.0453
 3012TIP3    H130527   1.262   2.171   2.797 -0.0835 -1.4448 -2.2919
 3012TIP3    H230528   1.349   2.204   2.678  1.8116  2.6900  0.0272
 3013TIP3   OH230529   0.510   4.701  13.390 -0.4036  0.3732  0.1394
 3013TIP3    H130530   0.545   4.790  13.395  2.0524 -0.5246  0.3742
 3013TIP3    H230531   0.417   4.713  13.374 -0.0980  2.9754 -0.1546
 3014TIP3   OH230532   2.066   1.072   4.317  0.6857  0.2124 -0.0729
 3014TIP3    H130533   2.136   1.091   4.254  0.6246  1.5330  0.2380
 3014TIP3    H230534   1.986   1.088   4.268  0.6264  0.3732  0.0767
 3015TIP3   OH230535   0.573   3.655   6.971  0.5665  0.6384 -0.2722
 3015TIP3    H130536   0.610   3.733   7.012  1.4518 -0.9295  2.0541
 3015TIP3    H230537   0.642   3.590   6.975 -0.2056 -0.3755 -2.0333
 3016TIP3   OH230538   3.042   3.645  12.122  0.1429  0.6928 -0.8258
 3016TIP3    H130539   3.028   3.739  12.139  0.4311  0.3753  1.4991
 3016TIP3    H230540   2.967   3.619  12.068 -1.2902  1.7585  0.5448
 3017TIP3   OH230541   3.029   3.556  11.515 -0.0411  0.2198  0.3364
 3017TIP3    H130542   2.992   3.468  11.520 -0.0803  0.2748  1.2661
 3017TIP3    H230543   2.964   3.612  11.557 -0.1186  0.7359 -0.4481
 3018TIP3   OH230544   1.652   3.231   0.222  0.2357 -0.0889 -0.0732
 3018TIP3    H130545   1.646   3.182   0.304 -1.0930 -1.6204 -1.0089
 3018TIP3    H230546   1.568   3.213   0.178  0.6385  1.2442 -1.4574
 3019TIP3   OH230547   5.996   2.952  15.279 -0.3543 -0.6127 -0.1942
 3019TIP3    H130548   6.019   3.012  15.350  0.0985 -1.2885  0.2519
 3019TIP3    H230549   5.996   2.865  15.320 -3.8880 -0.7024 -0.1384
 3020TIP3   OH230550   2.389   5.422   0.594  0.4841 -0.8012  0.4995
 3020TIP3    H130551   2.363   5.469   0.514 -0.4359 -1.3752  0.4361
 3020TIP3    H230552   2.424   5.490   0.652  0.0662 -0.1890  0.0508
 3021TIP3   OH230553   0.558   5.956  17.234 -0.1144  0.0333  0.2687
 3021TIP3    H130554   0.481   6.011  17.246 -0.6325 -0.2822 -1.3086
 3021TIP3    H230555   0.615   6.008  17.176 -0.3972 -0.8463 -0.8463
 3022TIP3   OH230556   6.356   5.282  17.310  0.0239 -0.2624  0.3190
 3022TIP3    H130557   6.330   5.199  17.350 -1.0535 -0.4676 -0.7143
 3022TIP3    H230558   6.314   5.349  17.363 -2.8334 -0.5869 -1.2896
 3023TIP3   OH230559   3.977   2.373  15.627 -0.6255  0.1849 -0.0087
 3023TIP3    H130560   3.919   2.449  15.630  1.1552  1.5911  1.8363
 3023TIP3    H230561   3.920   2.298  15.642 -2.1513  1.3607  0.2959
 3024TIP3   OH230562   4.517   4.784   4.224 -0.5809 -0.2680 -0.1523
 3024TIP3    H130563   4.499   4.697   4.189 -2.9997 -0.3286  1.0171
 3024TIP3    H230564   4.465   4.789   4.304  2.1466  1.0582  1.6969
 3025TIP3   OH230565   5.822   4.940  14.297  0.1191  0.0761  0.5547
 3025TIP3    H130566   5.888   4.986  14.348 -0.3688  0.9853  0.3760
 3025TIP3    H230567   5.873   4.885  14.237  0.7254  1.0123  0.1960
 3026TIP3   OH230568   3.184   1.921  12.713 -0.0658 -0.2113  0.0877
 3026TIP3    H130569   3.172   2.013  12.690 -2.9654 -0.9459 -1.8397
 3026TIP3    H230570   3.185   1.875  12.629 -0.7427 -2.1294  1.0618
 3027TIP3   OH230571   6.400   0.887  11.360 -0.1312 -0.6970 -0.1871
 3027TIP3    H130572   6.471   0.828  11.334 -1.7870 -2.9396  0.1355
 3027TIP3    H230573   6.363   0.918  11.277 -1.0337 -2.4210 -0.4802
 3028TIP3   OH230574   1.437   2.022  17.441 -0.4489  0.1094  0.0529
 3028TIP3    H130575   1.368   2.056  17.498  1.1697 -0.1960  2.3284
 3028TIP3    H230576   1.392   1.959  17.385 -2.0859  0.1276  1.2663
 3029TIP3   OH230577   3.861   2.468   3.081 -0.2489 -0.1766  0.4852
 3029TIP3    H130578   3.793   2.402   3.097 -2.0106  1.5087  0.2740
 3029TIP3    H230579   3.813   2.546   3.055  1.8588  0.7821 -0.7837
 3030TIP3   OH230580   3.623   1.192  16.194  0.0044  0.1568  0.3952
 3030TIP3    H130581   3.662   1.117  16.239  1.8457  0.8397  0.0245
 3030TIP3    H230582   3.686   1.213  16.125 -2.0383  0.0413 -1.6109
 3031TIP3   OH230583   4.905   4.393  17.378  0.3450  0.0919  0.4542
 3031TIP3    H130584   4.982   4.378  17.323  0.5912 -1.4747  1.1516
 3031TIP3    H230585   4.942   4.421  17.462  0.2564 -1.5098  1.0662
 3032TIP3   OH230586   5.317   4.365   1.480  0.0942 -0.1902 -0.0446
 3032TIP3    H130587   5.395   4.384   1.533  0.1582 -0.6025  0.0163
 3032TIP3    H230588   5.260   4.441   1.493 -1.0118 -1.3371  2.6570
 3033TIP3   OH230589   0.298   2.935  12.784 -0.1851 -0.2432  0.3579
 3033TIP3    H130590   0.373   2.881  12.758 -0.2611 -0.7925  1.2514
 3033TIP3    H230591   0.330   3.025  12.775  0.0337 -0.4241 -0.8618
 3034TIP3   OH230592   1.694   0.211   6.746 -0.8216  0.3051 -0.1747
 3034TIP3    H130593   1.626   0.246   6.688 -1.0269 -1.1447 -0.8700
 3034TIP3    H230594   1.724   0.132   6.701  1.9038  1.3052 -0.2688
 3035TIP3   OH230595   6.195   3.023   6.575 -0.5841  0.4625 -0.8535
 3035TIP3    H130596   6.288   3.011   6.555 -0.4902 -1.3399  0.4291
 3035TIP3    H230597   6.155   2.939   6.553 -1.7978  0.9817 -0.6952
 3036TIP3   OH230598   6.447   0.373  16.993  0.0201  0.4350 -0.4230
 3036TIP3    H130599   6.488   0.457  16.976  1.5196 -0.2087 -0.1499
 3036TIP3    H230600   6.481   0.315  16.925 -0.7423 -0.0337 -0.4143
 3037TIP3   OH230601   1.404   2.847   0.127 -0.3087  0.2959  0.2334
 3037TIP3    H130602   1.320   2.889   0.145  0.1980  1.2141  0.4841
 3037TIP3    H230603   1.443   2.831   0.213  0.2461  0.8495  0.0879
 3038TIP3   OH230604   0.173   3.859  13.272  0.5070 -0.2903 -0.6884
 3038TIP3    H130605   0.163   3.922  13.343  2.3771 -0.1470 -0.4881
 3038TIP3    H230606   0.167   3.911  13.192 -0.9890 -0.3582 -0.6381
 3039TIP3   OH230607   6.271   5.360  15.172  0.0371  0.4166  0.4631
 3039TIP3    H130608   6.204   5.389  15.110  0.4258 -0.1490 -0.2386
 3039TIP3    H230609   6.354   5.376  15.127  0.3066 -3.7503 -1.0196
 3040TIP3   OH230610   2.724   2.468   5.836  0.2335  0.3490  0.4893
 3040TIP3    H130611   2.639   2.504   5.859  0.1739  0.6203 -0.1296
 3040TIP3    H230612   2.781   2.491   5.909  0.1252  1.4508  0.2506
 3041TIP3   OH230613   5.002   5.720   0.449  0.0255 -0.6388 -0.2923
 3041TIP3    H130614   5.098   5.724   0.454  0.0474 -2.0964  0.8390
 3041TIP3    H230615   4.972   5.729   0.539 -0.9000 -0.5384 -0.5974
 3042TIP3   OH230616   2.398   4.661  14.699 -0.1368 -0.2511 -0.1681
 3042TIP3    H130617   2.474   4.619  14.738 -0.4021 -0.2659  0.3378
 3042TIP3    H230618   2.323   4.612  14.732 -0.3327 -0.7767 -1.3252
 3043TIP3   OH230619   3.197   4.131  14.561 -0.2167  0.2922  0.0459
 3043TIP3    H130620   3.110   4.094  14.546  0.2306 -0.5141 -0.6550
 3043TIP3    H230621   3.187   4.224  14.540 -1.1308  0.4114  0.9274
 3044TIP3   OH230622   0.544   3.551  15.328 -0.2509 -0.0592  0.1494
 3044TIP3    H130623   0.450   3.563  15.338 -0.1030  1.4134  0.0192
 3044TIP3    H230624   0.583   3.615  15.387  0.7020 -1.5317  1.1721
 3045TIP3   OH230625   4.775   2.744  14.950 -1.0272  0.4570  0.8199
 3045TIP3    H130626   4.709   2.736  14.881 -1.2183  1.9618  0.7900
 3045TIP3    H230627   4.743   2.688  15.021 -1.4836 -0.0999  0.1900
 3046TIP3   OH230628   3.585   5.581  15.817 -0.1522 -0.0553 -0.1864
 3046TIP3    H130629   3.607   5.508  15.760  0.3886  0.5763 -0.8047
 3046TIP3    H230630   3.668   5.627  15.831 -0.6978  1.2186 -0.9213
 3047TIP3   OH230631   2.522   3.383  14.709  0.1384  0.1371  0.3754
 3047TIP3    H130632   2.564   3.298  14.697  0.4034  0.0891  1.5331
 3047TIP3    H230633   2.497   3.410  14.621  1.2447 -0.5307 -0.1584
 3048TIP3   OH230634   3.429   3.990   1.748  0.3121  0.1208 -0.7807
 3048TIP3    H130635   3.350   4.025   1.705  0.7169 -2.3781 -3.9602
 3048TIP3    H230636   3.406   3.899   1.768  1.3752  0.2632  1.3378
 3049TIP3   OH230637   3.490   6.378   5.368  0.1107 -0.0112  0.0172
 3049TIP3    H130638   3.535   6.421   5.441 -0.7890 -1.2999  1.3978
 3049TIP3    H230639   3.397   6.398   5.383 -0.0593 -0.0326 -0.9670
 3050TIP3   OH230640   5.692   2.836   3.953  0.7904 -0.2077 -0.0174
 3050TIP3    H130641   5.716   2.835   4.045 -0.0407  0.1256  0.2093
 3050TIP3    H230642   5.702   2.927   3.926 -0.2205 -0.0530  0.0931
 3051TIP3   OH230643   5.231   0.565   0.798  0.7554 -0.1598  0.0380
 3051TIP3    H130644   5.175   0.487   0.801  0.5942 -0.0284  0.6998
 3051TIP3    H230645   5.169   0.638   0.797  0.9144 -0.0177  0.5746
 3052TIP3   OH230646   5.806   4.575  17.073 -0.3985 -0.5784 -0.1976
 3052TIP3    H130647   5.773   4.518  17.143  1.7624 -0.7303  0.7910
 3052TIP3    H230648   5.739   4.643  17.064 -1.0040 -0.8705  1.6376
 3053TIP3   OH230649   2.132   0.391  15.484 -0.0178  0.4579  0.1547
 3053TIP3    H130650   2.223   0.402  15.511  0.3335  2.6074 -1.6512
 3053TIP3    H230651   2.088   0.360  15.563  2.0286  0.5551  1.4209
 3054TIP3   OH230652   4.798   1.671   0.634 -0.3411 -0.6790  0.6365
 3054TIP3    H130653   4.843   1.670   0.719 -0.6458  3.5147  1.0421
 3054TIP3    H230654   4.705   1.677   0.657 -0.4732 -0.2270 -0.0153
 3055TIP3   OH230655   2.678   2.669   0.713  0.1011 -0.2618 -0.2839
 3055TIP3    H130656   2.645   2.755   0.685 -1.0426 -1.2266 -2.1171
 3055TIP3    H230657   2.772   2.673   0.697  0.1957  0.9135  0.4405
 3056TIP3   OH230658   2.121   4.758   3.190 -0.3501 -0.7453  0.0159
 3056TIP3    H130659   2.171   4.680   3.215 -0.5937 -0.9316 -0.0691
 3056TIP3    H230660   2.173   4.800   3.122  0.7471  0.2208  1.3839
 3057TIP3   OH230661   2.501   0.589   0.002  0.2445 -0.0629 -0.8474
 3057TIP3    H130662   2.582   0.584   0.052  1.0116 -0.5567 -2.1146
 3057TIP3    H230663   2.444   0.524   0.044  1.0963 -0.9188 -0.9766
 3058TIP3   OH230664   1.998   3.480  13.841  0.1259  0.3038 -0.1504
 3058TIP3    H130665   1.974   3.570  13.862  2.0016  0.4716  1.5780
 3058TIP3    H230666   1.918   3.430  13.857 -0.3089  1.3654  1.2091
 3059TIP3   OH230667   3.626   0.652   3.653  0.4220  0.5380  0.7043
 3059TIP3    H130668   3.718   0.677   3.647  0.8456 -0.9983  0.2090
 3059TIP3    H230669   3.581   0.713   3.594  1.2778  0.6503  0.1396
 3060TIP3   OH230670   0.926   2.830   3.884 -0.1343  0.0068  0.0097
 3060TIP3    H130671   0.893   2.875   3.806 -1.4769  0.9683  1.0737
 3060TIP3    H230672   0.923   2.897   3.953 -0.8717 -1.3164  1.3222
 3061TIP3   OH230673   1.905   5.215   4.534 -0.5251 -0.5093  0.1491
 3061TIP3    H130674   1.897   5.175   4.447  0.3420  2.0145 -1.1986
 3061TIP3    H230675   1.840   5.285   4.533 -1.6729 -1.4765  2.2352
 3062TIP3   OH230676   4.605   2.081  12.174  0.1889  0.5846  0.0475
 3062TIP3    H130677   4.571   2.144  12.237  0.2872  0.7388 -0.0537
 3062TIP3    H230678   4.531   2.063  12.116  0.4243  1.3127 -0.4860
 3063TIP3   OH230679   2.264   2.096   1.623  0.2371 -0.1356 -0.4299
 3063TIP3    H130680   2.269   2.109   1.528  1.8645  0.2841 -0.3237
 3063TIP3    H230681   2.249   2.183   1.658  0.7344 -0.1232 -0.2461
 3064TIP3   OH230682   5.995   4.956  11.081 -0.1586 -0.1141  0.2482
 3064TIP3    H130683   5.993   5.032  11.023 -1.5301 -0.3766 -0.0776
 3064TIP3    H230684   5.969   4.991  11.167  0.8751  0.0845  0.4928
 3065TIP3   OH230685   6.132   6.290   3.057 -0.1315  0.1116 -0.2454
 3065TIP3    H130686   6.176   6.206   3.040 -2.3543 -1.4817  1.3197
 3065TIP3    H230687   6.111   6.288   3.150 -1.9071  1.5571 -0.5522
 3066TIP3   OH230688   2.898   2.158   1.068 -0.4585 -0.8202 -0.0302
 3066TIP3    H130689   2.846   2.091   1.114  0.9050 -1.2141  1.0131
 3066TIP3    H230690   2.968   2.108   1.025 -1.4040 -0.3936 -2.1571
 3067TIP3   OH230691   4.106   1.984   3.365  0.4464 -0.5140 -0.1713
 3067TIP3    H130692   4.186   2.022   3.329 -0.0637  1.7846  0.9975
 3067TIP3    H230693   4.048   1.974   3.289 -0.0651  2.8645 -0.3507
 3068TIP3   OH230694   1.810   4.563  12.627 -0.1932 -0.0220  0.1707
 3068TIP3    H130695   1.833   4.648  12.665  1.1320 -0.5590  0.6091
 3068TIP3    H230696   1.889   4.510  12.636 -0.4136 -0.7479 -1.7144
 3069TIP3   OH230697   5.984   3.035  12.881 -0.1906 -0.0048 -0.1230
 3069TIP3    H130698   6.071   3.001  12.861  0.6605  1.8332  0.1904
 3069TIP3    H230699   5.924   2.977  12.835  1.0353 -2.5409  1.2843
 3070TIP3   OH230700   5.003   2.514  12.612  0.2941  0.3364  0.2759
 3070TIP3    H130701   4.919   2.560  12.604  0.1195  0.0920  0.6766
 3070TIP3    H230702   4.996   2.439  12.554  0.5380  0.7487 -0.2978
 3071TIP3   OH230703   4.567   0.636  15.830  0.3004  0.0015  0.0202
 3071TIP3    H130704   4.531   0.548  15.816  1.6790 -0.5228 -0.3389
 3071TIP3    H230705   4.633   0.625  15.898 -0.6913  1.0984  1.2198
 3072TIP3   OH230706   3.520   1.165  12.007  0.1624  0.5921  0.2094
 3072TIP3    H130707   3.602   1.208  12.034  2.3093 -1.8180 -1.9077
 3072TIP3    H230708   3.467   1.236  11.971  2.1650  1.9812 -0.1950
 3073TIP3   OH230709   6.656   4.056   1.362  0.6361 -0.0739  0.3904
 3073TIP3    H130710   6.596   4.072   1.289 -0.2595  0.4170  1.2090
 3073TIP3    H230711   6.738   4.031   1.320 -0.1356 -0.7723 -0.7637
 3074TIP3   OH230712   2.290   5.223  12.146  0.4253 -0.0777  0.4595
 3074TIP3    H130713   2.258   5.219  12.056  1.1602 -0.4233  0.2093
 3074TIP3    H230714   2.210   5.227  12.200 -0.0162  0.1775 -0.1992
 3075TIP3   OH230715   2.810   3.594   3.707  0.1570 -0.2678 -0.0060
 3075TIP3    H130716   2.822   3.520   3.767  1.5204  0.3232  0.4859
 3075TIP3    H230717   2.878   3.583   3.641 -1.0747 -0.6836 -1.2593
 3076TIP3   OH230718   2.144   5.204   4.222  0.2608 -0.0471 -0.0781
 3076TIP3    H130719   2.233   5.187   4.191  0.2128 -0.5305  0.0383
 3076TIP3    H230720   2.111   5.275   4.166  1.3060  1.3035  0.9399
 3077TIP3   OH230721   5.073   3.646   1.250 -0.1136  0.4889  0.1743
 3077TIP3    H130722   5.033   3.650   1.337  0.7234 -0.5111  0.6225
 3077TIP3    H230723   5.006   3.683   1.191 -1.2012 -0.0059  1.0609
 3078TIP3   OH230724   2.044   4.353  14.173 -0.6907  0.4443 -0.7578
 3078TIP3    H130725   2.118   4.385  14.120  0.2251 -0.7075 -0.2093
 3078TIP3    H230726   1.990   4.303  14.112 -0.4369  0.3740 -0.9255
 3079TIP3   OH230727   0.245   5.106  16.803  0.2963  0.0363 -0.3141
 3079TIP3    H130728   0.196   5.037  16.758 -1.6650 -0.9561  2.9992
 3079TIP3    H230729   0.297   5.060  16.868 -1.3174  1.5981  2.2239
 3080TIP3   OH230730   4.325   0.251  11.387  0.2789  0.1287  0.2992
 3080TIP3    H130731   4.364   0.239  11.300  0.1088  1.0091  0.0996
 3080TIP3    H230732   4.303   0.344  11.391 -2.4300 -0.4357  0.1392
 3081TIP3   OH230733   0.116   3.540   1.882  0.1350 -0.2456  0.1600
 3081TIP3    H130734   0.102   3.537   1.787 -0.0736 -0.0912  0.1846
 3081TIP3    H230735   0.042   3.590   1.915 -1.1681 -2.4065  0.6927
 3082TIP3   OH230736   4.741   3.751  10.961 -0.2322 -0.0298 -0.1061
 3082TIP3    H130737   4.831   3.750  10.927 -0.4252 -1.2204 -0.6358
 3082TIP3    H230738   4.687   3.767  10.884 -0.4564  1.7906  0.3697
 3083TIP3   OH230739   1.946   4.991  14.133  0.3501 -0.0245  0.1781
 3083TIP3    H130740   1.966   5.062  14.193  0.1226 -0.8771  1.2971
 3083TIP3    H230741   1.887   4.933  14.182 -1.0842  0.0210 -1.3976
 3084TIP3   OH230742   0.802   0.134   5.948  0.5026 -0.0394 -0.2894
 3084TIP3    H130743   0.868   0.139   6.018 -0.7669  0.7317  0.9131
 3084TIP3    H230744   0.832   0.064   5.891  1.3905 -0.9702  1.2608
 3085TIP3   OH230745   0.401   0.931   5.761  0.3439  0.3683 -0.4692
 3085TIP3    H130746   0.372   0.957   5.849 -1.1061 -0.7413 -0.5716
 3085TIP3    H230747   0.351   0.988   5.702 -1.2787 -1.1233 -0.6285
 3086TIP3   OH230748   6.649   5.897  16.240 -0.8218  0.5571 -0.1146
 3086TIP3    H130749   6.589   5.863  16.307 -1.2601 -0.2977 -0.9269
 3086TIP3    H230750   6.601   5.970  16.200 -0.8986  0.5358 -0.0612
 3087TIP3   OH230751   1.154   4.174   1.894 -0.1659 -0.2316  0.0474
 3087TIP3    H130752   1.154   4.188   1.799 -0.5224 -1.4989 -0.1484
 3087TIP3    H230753   1.168   4.080   1.905  2.0201  0.1555  1.3191
 3088TIP3   OH230754   1.956   1.160   1.576  0.7490  0.0516  0.0354
 3088TIP3    H130755   2.011   1.119   1.643 -0.2665  0.6234  1.2575
 3088TIP3    H230756   1.889   1.094   1.556 -1.2148  1.1587  2.3988
 3089TIP3   OH230757   4.308   0.516  13.391  0.2674 -0.4917  0.4787
 3089TIP3    H130758   4.389   0.465  13.391 -0.4086 -1.5906  0.4105
 3089TIP3    H230759   4.320   0.579  13.463  0.4054 -1.9283  1.7762
 3090TIP3   OH230760   5.476   1.063   3.308  0.5414 -0.5981 -0.4448
 3090TIP3    H130761   5.503   1.084   3.219  1.2054  0.0451 -0.1056
 3090TIP3    H230762   5.380   1.071   3.307  0.3859 -2.2266 -1.4859
 3091TIP3   OH230763   0.047   2.689  14.124  0.1631  0.1985 -0.1559
 3091TIP3    H130764   0.002   2.611  14.092  0.5438 -1.0922  2.1793
 3091TIP3    H230765   0.014   2.701  14.213  1.4883  1.5914  0.1947
 3092TIP3   OH230766   3.343   3.472   2.332 -0.4198 -0.0988  0.2161
 3092TIP3    H130767   3.371   3.490   2.422 -3.6457 -0.1103  1.3537
 3092TIP3    H230768   3.251   3.497   2.330 -0.9966 -1.9750 -2.5545
 3093TIP3   OH230769   3.762   1.335   0.693 -0.0375 -0.2466 -0.0953
 3093TIP3    H130770   3.720   1.383   0.621  1.1637 -0.3239 -0.8844
 3093TIP3    H230771   3.836   1.390   0.719 -1.4086  0.6058  2.2830
 3094TIP3   OH230772   3.146   0.305   1.746 -0.3788 -0.2425  0.7655
 3094TIP3    H130773   3.127   0.265   1.661  0.2207  1.2535 -0.1089
 3094TIP3    H230774   3.241   0.315   1.747 -0.5025  1.0672  0.9729
 3095TIP3   OH230775   4.678   3.160  11.941 -0.3455  0.2282 -0.4299
 3095TIP3    H130776   4.746   3.093  11.955 -1.7812 -0.8644  2.1082
 3095TIP3    H230777   4.596   3.111  11.947 -1.4383  2.1322  1.0360
 3096TIP3   OH230778   1.032   5.589   2.282 -0.1568 -0.0637  0.0675
 3096TIP3    H130779   1.060   5.508   2.324  0.0662  0.9149  1.8788
 3096TIP3    H230780   0.976   5.632   2.346  0.9882  1.9499 -0.1989
 3097TIP3   OH230781   5.692   6.754   1.545  0.2825  0.3695  0.3516
 3097TIP3    H130782   5.755   6.697   1.501  0.5159  0.2595  0.8231
 3097TIP3    H230783   5.730   6.769   1.632 -0.3494  0.2902  0.6427
 3098TIP3   OH230784   1.287   4.987   1.704 -0.3538  0.4677  0.2271
 3098TIP3    H130785   1.370   4.994   1.658  0.6226 -0.7249  1.6716
 3098TIP3    H230786   1.261   4.895   1.693 -0.7912  0.5041  0.8765
 3099TIP3   OH230787   1.079   2.984   1.816  0.2323 -0.0400 -0.3543
 3099TIP3    H130788   1.164   3.023   1.835 -0.4278  0.5704  1.6050
 3099TIP3    H230789   1.022   3.059   1.801 -0.1494 -0.4072 -0.7381
 3100TIP3   OH230790   1.808   2.865   0.055  0.3959 -0.3616  0.9191
 3100TIP3    H130791   1.729   2.833   0.013 -0.6999  1.0343  1.8417
 3100TIP3    H230792   1.877   2.850  -0.010 -0.7655 -0.7441 -0.2761
 3101TIP3   OH230793   4.811   1.083   2.179 -0.1815 -0.5209 -0.4236
 3101TIP3    H130794   4.728   1.130   2.189  0.2353  0.4835 -1.4937
 3101TIP3    H230795   4.796   1.022   2.107  0.1466  0.0241 -0.9651
 3102TIP3   OH230796   6.768   2.709  16.230 -0.3103 -0.1253 -0.3135
 3102TIP3    H130797   6.819   2.701  16.150 -0.3265 -0.8426 -0.2638
 3102TIP3    H230798   6.724   2.794  16.223 -0.7246 -0.4067 -1.3080
 3103TIP3   OH230799   0.339   2.884   3.419  0.5358 -0.5579 -0.3064
 3103TIP3    H130800   0.312   2.815   3.480  2.3871 -0.3338  0.8492
 3103TIP3    H230801   0.292   2.865   3.338 -0.3092 -2.1617  0.5293
 3104TIP3   OH230802   4.510   1.628  14.865 -0.9343  0.0048 -0.8118
 3104TIP3    H130803   4.471   1.577  14.936  2.8874 -0.1177  1.5102
 3104TIP3    H230804   4.558   1.563  14.813  2.2590  0.7130  0.9613
 3105TIP3   OH230805   1.942   3.731   2.127  0.0900  0.3936 -0.3913
 3105TIP3    H130806   2.034   3.750   2.143  0.3506 -0.6240 -0.5982
 3105TIP3    H230807   1.941   3.639   2.100 -0.9563  0.4693 -0.6539
 3106TIP3   OH230808   4.833   3.565   4.614 -0.0203  0.0289 -0.1936
 3106TIP3    H130809   4.820   3.496   4.680 -0.1390  1.4475  1.3458
 3106TIP3    H230810   4.927   3.584   4.618 -0.1741  0.7710  0.3078
 3107TIP3   OH230811   5.196   0.866   1.445  0.1681 -0.5448  0.1217
 3107TIP3    H130812   5.268   0.923   1.473 -0.1581 -0.6503  1.2180
 3107TIP3    H230813   5.117   0.907   1.480 -0.2814 -0.6135 -0.7872
 3108TIP3   OH230814   1.887   4.071   1.259  0.0829  0.1619 -0.0802
 3108TIP3    H130815   1.940   4.141   1.296 -2.6303  1.8015  1.0120
 3108TIP3    H230816   1.854   4.107   1.177  0.0531 -0.5596 -0.3937
 3109TIP3   OH230817   2.663   1.175   1.739  0.5554 -0.0005  0.1390
 3109TIP3    H130818   2.701   1.241   1.797  1.7956  0.2841 -0.9495
 3109TIP3    H230819   2.680   1.208   1.651 -2.4367  0.2579 -0.4643
 3110TIP3   OH230820   6.746   2.530  11.895 -0.0413  0.0129  0.2178
 3110TIP3    H130821   6.779   2.617  11.919 -1.2335  0.1022  1.7542
 3110TIP3    H230822   6.822   2.484  11.861  1.5113  0.4930  2.7373
 3111TIP3   OH230823   5.771   2.305   1.194  0.2432 -0.5303  0.1205
 3111TIP3    H130824   5.698   2.247   1.216 -1.4767  1.2816 -0.4898
 3111TIP3    H230825   5.773   2.369   1.266 -1.8310  2.1131 -1.9411
 3112TIP3   OH230826   2.168   1.470   1.156 -0.0272  0.3601 -0.2776
 3112TIP3    H130827   2.172   1.494   1.063  0.1434  2.6976  0.2732
 3112TIP3    H230828   2.204   1.545   1.202 -0.0592 -0.7712  1.7157
 3113TIP3   OH230829   0.765   0.599   0.002  0.1038 -0.5167  0.1825
 3113TIP3    H130830   0.725   0.567  -0.079  1.1451 -0.9438 -0.1857
 3113TIP3    H230831   0.845   0.644  -0.027 -0.5690  1.1514  0.8180
 3114TIP3   OH230832   3.267   2.741   2.950  0.1818 -0.4591  0.0288
 3114TIP3    H130833   3.185   2.753   2.997 -0.4892  0.3406 -1.2985
 3114TIP3    H230834   3.329   2.800   2.993 -0.5816  0.7200 -0.4530
 3115TIP3   OH230835   3.245   3.626  10.717  0.2666 -0.1416  0.2588
 3115TIP3    H130836   3.201   3.620  10.632 -1.0152 -0.9447  0.9370
 3115TIP3    H230837   3.334   3.595  10.701  0.4547  0.9755 -1.0434
 3116TIP3   OH230838   0.167   2.619  16.978  0.6245 -0.0236  0.2542
 3116TIP3    H130839   0.149   2.708  16.946  0.0196 -0.7894 -1.6597
 3116TIP3    H230840   0.245   2.629  17.032  1.0651  1.5546 -0.6054
 3117TIP3   OH230841   0.061   0.961   0.453  0.6618  0.4483  0.7180
 3117TIP3    H130842   0.125   0.924   0.514  0.0145 -1.5349  0.2846
 3117TIP3    H230843   0.095   0.939   0.367  1.2685  2.7137  0.3320
 3118TIP3   OH230844   2.938   2.807  11.653 -0.3000 -0.0636  1.0473
 3118TIP3    H130845   2.952   2.900  11.669  1.3623  0.3770 -2.1869
 3118TIP3    H230846   3.006   2.763  11.703  1.5386  0.8327 -0.5432
 3119TIP3   OH230847   4.861   0.063  13.755  0.6565  0.4606  0.1612
 3119TIP3    H130848   4.875  -0.004  13.821  1.6032  0.0155 -0.4733
 3119TIP3    H230849   4.881   0.020  13.672  1.5360  1.5828 -0.2440
 3120TIP3   OH230850   0.492   2.048  17.373 -0.6668 -0.2054  0.3197
 3120TIP3    H130851   0.472   2.042  17.279 -0.6525  0.0879  0.2977
 3120TIP3    H230852   0.581   2.084  17.375 -0.4006 -0.8410  0.4341
 3121TIP3   OH230853   6.508   3.549   0.761  0.9434  0.2334 -0.8184
 3121TIP3    H130854   6.418   3.547   0.729  1.0606  3.7566 -1.7896
 3121TIP3    H230855   6.503   3.595   0.845  1.6844 -1.1044 -0.0100
 3122TIP3   OH230856   3.958   4.592  12.791 -0.7509 -0.4206 -0.1130
 3122TIP3    H130857   3.918   4.667  12.745 -0.7510 -0.9272 -0.9660
 3122TIP3    H230858   4.030   4.631  12.841  0.4117 -0.0609 -1.9706
 3123TIP3   OH230859   3.902   3.464  10.689 -0.2814  0.3593  0.4614
 3123TIP3    H130860   3.946   3.422  10.763  0.1688  0.9630  0.5445
 3123TIP3    H230861   3.809   3.446  10.703 -0.1721  0.1833  0.9929
 3124TIP3   OH230862   0.485   2.453  11.063  0.8623  0.2777  0.0451
 3124TIP3    H130863   0.486   2.518  10.993 -3.4200 -0.8936 -1.4418
 3124TIP3    H230864   0.559   2.395  11.044  2.4998  2.4816 -0.7622
 3125TIP3   OH230865   2.610   4.853  15.090 -0.1283 -0.3920 -0.2230
 3125TIP3    H130866   2.545   4.907  15.133  0.3967  1.2719 -1.4292
 3125TIP3    H230867   2.679   4.914  15.064  0.6620 -1.6940 -1.3226
 3126TIP3   OH230868   6.067   1.182   5.281  0.4840 -0.6453  0.2560
 3126TIP3    H130869   6.136   1.248   5.276  0.4973 -0.7357 -0.9670
 3126TIP3    H230870   6.106   1.109   5.329  0.6621 -0.0144  1.0862
 3127TIP3   OH230871   2.463   3.177   1.244 -0.5396  0.7163  0.5643
 3127TIP3    H130872   2.501   3.195   1.158  0.4425 -0.1743  0.7801
 3127TIP3    H230873   2.391   3.239   1.252  0.0152  1.5354 -0.4555
 3128TIP3   OH230874   4.323   6.708  11.404 -0.3805 -0.1250 -0.1059
 3128TIP3    H130875   4.306   6.802  11.394  0.8436  0.0102 -1.2885
 3128TIP3    H230876   4.418   6.700  11.402 -0.4557 -1.3730  0.2113
 3129TIP3   OH230877   1.838   4.521   2.393  0.4808 -0.2618  0.2931
 3129TIP3    H130878   1.796   4.455   2.448  0.7472 -0.8495 -0.1978
 3129TIP3    H230879   1.807   4.502   2.305  1.1558 -0.2119  0.0398
 3130TIP3   OH230880   4.387   2.951  10.644 -0.5289 -0.4035  0.3639
 3130TIP3    H130881   4.352   2.920  10.560  2.3637  1.6170 -1.8237
 3130TIP3    H230882   4.455   3.014  10.619  0.2204  0.5922  4.2990
 3131TIP3   OH230883   6.536   3.450   6.092 -0.2134  0.0068  0.3930
 3131TIP3    H130884   6.559   3.513   6.161  1.6455  0.4176 -0.5372
 3131TIP3    H230885   6.586   3.371   6.114 -0.9161 -0.4320  0.4211
 3132TIP3   OH230886   4.308   2.867  17.224 -0.2879  0.1330  0.4419
 3132TIP3    H130887   4.265   2.818  17.294 -0.5004  0.4949  0.5684
 3132TIP3    H230888   4.276   2.957  17.234  1.6334  0.7575  1.4798
 3133TIP3   OH230889   0.556   5.558  13.929  0.6669  0.1047 -0.1830
 3133TIP3    H130890   0.642   5.544  13.888  1.3648  1.8763  0.5836
 3133TIP3    H230891   0.572   5.550  14.023  0.0449  0.6720 -0.0197
 3134TIP3   OH230892   5.717   3.535  17.388 -0.1110 -0.4513 -0.5251
 3134TIP3    H130893   5.645   3.597  17.389  0.0936 -0.2166 -0.0853
 3134TIP3    H230894   5.677   3.452  17.363 -0.9838 -0.8502  1.9369
 3135TIP3   OH230895   0.017   2.081  15.294  0.5218  0.0627 -0.3131
 3135TIP3    H130896  -0.048   2.107  15.230  0.2322 -0.8044 -0.3827
 3135TIP3    H230897  -0.027   2.089  15.379 -0.0984 -1.6574 -0.4330
 3136TIP3   OH230898   3.021   1.576   1.184 -0.0478 -0.6497  0.3649
 3136TIP3    H130899   3.082   1.647   1.203  1.3768 -1.7195 -0.1157
 3136TIP3    H230900   3.032   1.514   1.255 -0.4771 -0.9178  0.2043
 3137TIP3   OH230901   3.780   5.552   3.802  0.5970  0.2991  0.2344
 3137TIP3    H130902   3.845   5.526   3.737 -1.8266 -0.8726 -1.9090
 3137TIP3    H230903   3.820   5.625   3.849  3.5452 -0.5905 -0.6840
 3138TIP3   OH230904   5.601   2.119   3.377 -0.4530  0.0393  0.3465
 3138TIP3    H130905   5.686   2.079   3.362 -0.1625  0.2681  1.3399
 3138TIP3    H230906   5.586   2.174   3.300  0.4866  0.3178  0.3585
 3139TIP3   OH230907   1.557   3.679   0.384  0.1936 -0.2637 -0.0731
 3139TIP3    H130908   1.632   3.709   0.435 -0.1645 -1.3058  1.1251
 3139TIP3    H230909   1.585   3.686   0.293  0.2267  3.3154  0.0965
 3140TIP3   OH230910   2.802   5.966   3.179 -1.0082  0.4538  0.2782
 3140TIP3    H130911   2.826   5.963   3.272 -0.3513  2.9025  0.2627
 3140TIP3    H230912   2.865   5.910   3.135 -0.9790 -0.2846  1.2425
 3141TIP3   OH230913   1.569   4.502   1.665  0.0082 -0.0651  0.2688
 3141TIP3    H130914   1.504   4.431   1.666 -0.1074  0.0225  1.4844
 3141TIP3    H230915   1.647   4.462   1.627 -0.5419 -0.3732 -0.5684
 3142TIP3   OH230916   5.271   5.366  13.775 -0.2625 -0.0816 -0.2531
 3142TIP3    H130917   5.254   5.460  13.762 -0.0205 -0.0944 -0.6720
 3142TIP3    H230918   5.333   5.363  13.848 -1.8234 -0.0207  1.1114
 3143TIP3   OH230919   4.966   6.587   4.302  0.5475 -0.4104  0.0778
 3143TIP3    H130920   5.054   6.602   4.268  0.5352 -0.2159  0.1290
 3143TIP3    H230921   4.924   6.673   4.299  0.5022 -0.4177  0.4505
 3144TIP3   OH230922   2.544   1.933   4.551 -0.4000 -0.4383 -0.3195
 3144TIP3    H130923   2.597   1.859   4.582  0.5466  0.7133  0.9064
 3144TIP3    H230924   2.467   1.933   4.608  0.1131  0.1380  0.3932
 3145TIP3   OH230925   4.186   6.734  16.538 -0.1986  0.1236  0.7905
 3145TIP3    H130926   4.158   6.644  16.519  3.1632 -0.3280 -3.5107
 3145TIP3    H230927   4.134   6.788  16.477  1.6253  0.3021 -0.6922
 3146TIP3   OH230928   6.374   1.909   3.431  0.4688 -0.0678 -0.0028
 3146TIP3    H130929   6.458   1.954   3.438  0.6087 -0.1669 -0.8921
 3146TIP3    H230930   6.323   1.963   3.371  0.1697 -0.4021 -0.0531
 3147TIP3   OH230931   1.284   2.485  12.503 -0.5621 -0.5830 -0.3281
 3147TIP3    H130932   1.336   2.532  12.437 -1.2179  1.8612  0.7808
 3147TIP3    H230933   1.349   2.437  12.555  0.3669  0.5233 -0.4212
 3148TIP3   OH230934   6.482   4.122  14.183  0.2394  0.4671  0.6060
 3148TIP3    H130935   6.456   4.176  14.258  1.9552  1.8080  0.2748
 3148TIP3    H230936   6.553   4.170  14.141 -1.2741  0.2898 -2.5118
 3149TIP3   OH230937   6.336   3.030  13.674  0.1661  0.2044  0.0899
 3149TIP3    H130938   6.327   3.027  13.769  1.7191  0.2541  0.2587
 3149TIP3    H230939   6.424   3.065  13.659 -0.4036  1.1026 -1.3843
 3150TIP3   OH230940   0.843   6.415   2.394  0.2057 -0.5757  0.0224
 3150TIP3    H130941   0.937   6.407   2.378  0.2850  2.0614 -1.3405
 3150TIP3    H230942   0.803   6.404   2.308 -0.4295  1.3208  0.0290
 3151TIP3   OH230943   5.126   6.255  16.156 -0.0433 -0.4321  0.3651
 3151TIP3    H130944   5.200   6.263  16.096 -1.0495  1.0901 -0.7341
 3151TIP3    H230945   5.108   6.161  16.159  0.3123 -0.6017 -1.4127
 3152TIP3   OH230946   5.744   3.177   3.466  0.3030  0.4279 -0.0313
 3152TIP3    H130947   5.708   3.227   3.539 -0.1617 -1.6908  1.2440
 3152TIP3    H230948   5.711   3.222   3.388 -2.4686  0.4629  1.0586
 3153TIP3   OH230949   3.841   1.919   4.786  0.1198  0.0557 -0.2440
 3153TIP3    H130950   3.914   1.981   4.784  0.5994 -0.4694 -2.4865
 3153TIP3    H230951   3.846   1.877   4.872  1.9819  0.6045 -0.0520
 3154TIP3   OH230952   3.165   0.390  15.252 -0.2873 -0.2780  0.3107
 3154TIP3    H130953   3.080   0.347  15.241 -0.3649 -0.0290 -0.1059
 3154TIP3    H230954   3.216   0.360  15.177  0.4448 -1.4673  1.2654
 3155TIP3   OH230955   0.176   1.223   5.283  0.2952  0.1543  0.3475
 3155TIP3    H130956   0.137   1.163   5.219  0.3121  1.3652 -0.8456
 3155TIP3    H230957   0.270   1.217   5.267  0.2312  1.3819 -0.6389
 3156TIP3   OH230958   5.268   6.303   0.645  0.4299  0.8141 -0.4308
 3156TIP3    H130959   5.356   6.278   0.672 -0.5764 -1.3241  1.2424
 3156TIP3    H230960   5.226   6.331   0.727 -0.7679  0.6490 -0.9734
 3157TIP3   OH230961   0.667   1.985   6.389 -0.0822 -0.1322  0.1217
 3157TIP3    H130962   0.731   2.012   6.455 -1.0188  0.2626  0.8988
 3157TIP3    H230963   0.668   1.889   6.393 -0.7951 -0.1083  1.4033
 3158TIP3   OH230964   3.228   0.351   5.881 -0.2558 -0.4830  0.1412
 3158TIP3    H130965   3.304   0.312   5.836  0.3756  0.6537  0.1804
 3158TIP3    H230966   3.252   0.443   5.893 -1.7294 -0.0572  0.0021
 3159TIP3   OH230967   4.722   2.153   2.600  0.2780 -0.0382  0.2858
 3159TIP3    H130968   4.795   2.091   2.596 -0.6527 -1.1277 -0.4020
 3159TIP3    H230969   4.764   2.238   2.614  1.7733 -0.4904 -1.1097
 3160TIP3   OH230970   6.677   0.549  15.144 -0.1528 -0.5419 -0.0428
 3160TIP3    H130971   6.707   0.628  15.100  0.5083 -0.3897  0.6453
 3160TIP3    H230972   6.756   0.495  15.153 -0.4929 -1.0416 -0.0333
 3161TIP3   OH230973   2.275   1.218  12.037 -0.2148  0.5932 -0.2544
 3161TIP3    H130974   2.305   1.130  12.014  1.9272  0.7630  1.5228
 3161TIP3    H230975   2.352   1.273  12.027 -1.4077  2.2243 -0.9016
 3162TIP3   OH230976   4.824   2.886  15.249 -0.3171  0.3033  0.3318
 3162TIP3    H130977   4.869   2.937  15.316  0.6162  0.0491 -0.0829
 3162TIP3    H230978   4.878   2.895  15.170 -2.3338  2.1354 -0.9716
 3163TIP3   OH230979   2.654   4.337   2.854  0.5708 -0.4582 -0.0036
 3163TIP3    H130980   2.597   4.262   2.874  0.2829 -0.9494 -2.3176
 3163TIP3    H230981   2.596   4.401   2.813  1.4113 -0.4977 -1.3455
 3164TIP3   OH230982   4.836   0.173  12.934  0.6259  0.5893 -0.2620
 3164TIP3    H130983   4.769   0.240  12.918 -0.6037 -0.8343 -1.4279
 3164TIP3    H230984   4.787   0.090  12.930  1.9406 -0.3687  1.9196
 3165TIP3   OH230985   6.771   3.227  14.781  0.1812  0.1490  0.3322
 3165TIP3    H130986   6.828   3.204  14.854  1.2756 -0.6556 -0.7369
 3165TIP3    H230987   6.827   3.222  14.704 -1.1605  0.0651 -0.6808
 3166TIP3   OH230988   6.774   5.259   6.269  0.2678  0.3894 -0.1232
 3166TIP3    H130989   6.839   5.208   6.220  0.3542  0.2303  0.1588
 3166TIP3    H230990   6.754   5.206   6.345  0.0647  0.5998 -0.0304
 3167TIP3   OH230991   1.378   3.803   0.750  0.3967 -0.5805 -0.2178
 3167TIP3    H130992   1.472   3.798   0.768  0.7037  2.3753 -0.4887
 3167TIP3    H230993   1.336   3.768   0.828  1.7347 -0.3811  0.6143
 3168TIP3   OH230994   6.433   1.927  13.110  0.3710  0.0987  0.1079
 3168TIP3    H130995   6.401   1.837  13.115 -0.4560  0.4425  1.4048
 3168TIP3    H230996   6.430   1.949  13.017  1.2094 -1.4197 -0.3106
 3169TIP3   OH230997   3.431   3.303  12.416  0.5687 -0.1067 -0.7344
 3169TIP3    H130998   3.459   3.272  12.330  0.2411  0.0883 -0.9139
 3169TIP3    H230999   3.513   3.331  12.459  0.7445 -0.3003 -0.9402
 3170TIP3   OH231000   4.581   0.092  13.629  0.5311  0.5295 -0.4311
 3170TIP3    H131001   4.530   0.071  13.707  1.6064  1.6029  0.5959
 3170TIP3    H231002   4.645   0.157  13.658 -0.0488  2.1782 -2.5391
 3171TIP3   OH231003   3.717   2.629   3.960 -0.0021 -0.3349 -0.1921
 3171TIP3    H131004   3.768   2.548   3.957 -0.9731 -1.0400  1.0304
 3171TIP3    H231005   3.652   2.619   3.891 -0.0712 -0.5775 -0.0942
 3172TIP3   OH231006   2.047   3.379  12.848  0.0163 -0.2670  0.1730
 3172TIP3    H131007   2.038   3.439  12.921  2.0055  0.6872 -0.2954
 3172TIP3    H231008   2.132   3.399  12.810 -1.3178  0.0386 -3.0748
 3173TIP3   OH231009   1.731   3.008  15.302 -0.1322 -0.2339 -0.2586
 3173TIP3    H131010   1.662   3.060  15.261  0.3752  0.6703 -0.0002
 3173TIP3    H231011   1.761   3.062  15.375  2.5432  0.5875 -1.8083
 3174TIP3   OH231012   1.926   1.908   1.749  0.4108 -0.0183  0.6910
 3174TIP3    H131013   1.906   1.816   1.732 -0.6666  0.4201 -0.6565
 3174TIP3    H231014   2.020   1.911   1.763  1.0190 -0.9546 -2.4367
 3175TIP3   OH231015   4.488   6.772  13.921 -0.2840 -0.3121  0.3263
 3175TIP3    H131016   4.519   6.721  13.996 -1.2785 -1.8926 -0.3042
 3175TIP3    H231017   4.400   6.801  13.946 -1.3956 -2.3941 -0.8522
 3176TIP3   OH231018   1.136   3.299   4.151 -0.2831 -0.7366  0.1605
 3176TIP3    H131019   1.166   3.331   4.066  0.5592 -1.3971  0.2009
 3176TIP3    H231020   1.040   3.299   4.144 -0.2394 -0.2074 -0.5688
 3177TIP3   OH231021   5.906   5.743  16.178  0.3322 -0.2536 -0.4353
 3177TIP3    H131022   5.902   5.713  16.087  0.4390 -0.9338 -0.2242
 3177TIP3    H231023   5.988   5.793  16.183  0.6368 -0.7276 -0.5709
 3178TIP3   OH231024   0.277   2.538   2.113  0.8032  0.0772 -0.1871
 3178TIP3    H131025   0.347   2.525   2.177  0.1190 -0.1613  0.5427
 3178TIP3    H231026   0.243   2.450   2.097 -1.7061  0.4280  2.2811
 3179TIP3   OH231027   6.227   4.090   5.218 -0.3482 -0.4606  0.2495
 3179TIP3    H131028   6.313   4.132   5.223 -0.2831 -0.5945  0.2328
 3179TIP3    H231029   6.245   3.997   5.209 -0.4247 -0.2825 -2.5044
 3180TIP3   OH231030   5.646   5.731  15.909 -0.0525  0.1497 -0.4663
 3180TIP3    H131031   5.646   5.818  15.949  1.7013  0.3945 -0.9096
 3180TIP3    H231032   5.737   5.717  15.883 -0.6942 -0.9500 -2.2880
 3181TIP3   OH231033   0.983   2.806  13.803  0.0596  0.6317  0.6469
 3181TIP3    H131034   0.982   2.901  13.817  2.4702  0.7768  0.2171
 3181TIP3    H231035   1.057   2.775  13.855  0.4143 -0.7624 -0.6156
 3182TIP3   OH231036   2.851   6.442  13.374 -0.2352 -0.4704 -0.4838
 3182TIP3    H131037   2.865   6.358  13.419  0.6379  0.2273  0.6027
 3182TIP3    H231038   2.757   6.457  13.380 -0.1100 -0.1487  1.6745
 3183TIP3   OH231039   3.465   3.500   5.264 -0.0748  0.2125 -0.0729
 3183TIP3    H131040   3.545   3.552   5.254  2.0266 -2.5715  1.0561
 3183TIP3    H231041   3.447   3.501   5.358 -0.9244  0.1338 -0.2259
 3184TIP3   OH231042   2.186   6.220  14.765 -0.2260  0.1583  0.0464
 3184TIP3    H131043   2.151   6.279  14.832 -0.4020 -0.5093  0.5448
 3184TIP3    H231044   2.110   6.168  14.737  0.1490 -0.6035  0.4161
 3185TIP3   OH231045   5.942   0.757   3.547  0.5753  0.0376  0.6528
 3185TIP3    H131046   5.878   0.724   3.610  1.4427 -1.8742  0.5715
 3185TIP3    H231047   5.978   0.679   3.505  0.6286  1.2038 -1.6543
 3186TIP3   OH231048   6.182   2.806  13.644  0.1772  0.1556 -0.1801
 3186TIP3    H131049   6.253   2.764  13.595  0.6252 -1.8756  1.9757
 3186TIP3    H231050   6.219   2.890  13.672  0.5925  0.4822 -1.6438
 3187TIP3   OH231051   6.553   5.140  13.194 -0.3928 -0.1152 -0.2423
 3187TIP3    H131052   6.571   5.050  13.166  1.6659  0.0699  0.3134
 3187TIP3    H231053   6.512   5.182  13.118 -1.2434 -1.4493 -0.5537
 3188TIP3   OH231054   5.205   3.014   5.932 -0.2240 -0.3247 -0.3250
 3188TIP3    H131055   5.134   2.977   5.984 -0.1030 -0.0532  0.0366
 3188TIP3    H231056   5.161   3.068   5.866 -0.4282 -1.5280 -1.1993
 3189TIP3   OH231057   2.665   1.699   0.475  0.2522 -0.0772  0.2817
 3189TIP3    H131058   2.744   1.753   0.480  0.7114 -0.7494  0.4278
 3189TIP3    H231059   2.640   1.684   0.566 -0.8263  1.2298  0.2319
 3190TIP3   OH231060   4.484   4.367   0.352 -0.2139 -0.3360 -0.4282
 3190TIP3    H131061   4.397   4.406   0.345  0.5411  1.3549 -0.8776
 3190TIP3    H231062   4.493   4.346   0.445 -0.3830  1.3130 -0.0023
 3191TIP3   OH231063   2.890   6.442  10.766  0.1418 -0.4304 -0.0463
 3191TIP3    H131064   2.890   6.379  10.694  0.9094 -0.1867 -0.2649
 3191TIP3    H231065   2.873   6.388  10.844  2.9446 -1.3246  0.0811
 3192TIP3   OH231066   6.633   3.329   2.060  0.4106 -0.2897 -0.4327
 3192TIP3    H131067   6.575   3.326   2.136 -0.5505 -0.5997 -1.1563
 3192TIP3    H231068   6.690   3.405   2.076  1.1582 -1.1449  1.2264
 3193TIP3   OH231069   3.461   3.724  11.862  0.1711  0.2668 -0.1048
 3193TIP3    H131070   3.548   3.719  11.902  0.1068 -0.1886 -0.0281
 3193TIP3    H231071   3.409   3.657  11.906 -0.6592  1.5137  0.8929
 3194TIP3   OH231072   0.951   1.381   2.552  0.1509 -0.1145  0.3095
 3194TIP3    H131073   0.924   1.289   2.542  2.2375 -0.7008 -0.3789
 3194TIP3    H231074   0.974   1.409   2.464  0.6129  0.7149  0.6893
 3195TIP3   OH231075   4.729   1.871  16.402  0.4516 -0.0448 -0.3258
 3195TIP3    H131076   4.657   1.930  16.423 -1.0200 -1.2373 -1.7861
 3195TIP3    H231077   4.739   1.879  16.307 -1.2947 -3.6808 -0.9747
 3196TIP3   OH231078   0.689   2.734   2.227 -0.3934 -0.1714 -0.3543
 3196TIP3    H131079   0.783   2.737   2.211 -0.4494  1.1537 -0.5605
 3196TIP3    H231080   0.679   2.764   2.318 -0.6997  1.2451 -0.8279
 3197TIP3   OH231081   6.589   5.623  11.330  0.3377 -0.0760 -0.8500
 3197TIP3    H131082   6.631   5.667  11.256  1.1912 -1.5789 -1.2927
 3197TIP3    H231083   6.635   5.540  11.339  0.4976  0.1932  1.6190
 3198TIP3   OH231084   2.555   2.457   5.217  0.0472 -0.1297  0.0887
 3198TIP3    H131085   2.503   2.394   5.167  0.1067 -0.6256  0.6404
 3198TIP3    H231086   2.496   2.489   5.285  0.3394 -0.4205  0.4889
 3199TIP3   OH231087   4.888   3.897  12.874  0.6151  0.2540  0.2453
 3199TIP3    H131088   4.804   3.872  12.836  0.4046 -0.7468  1.3072
 3199TIP3    H231089   4.939   3.932  12.801 -0.0617 -0.8406 -0.7741
 3200TIP3   OH231090   5.661   1.205  13.287  0.0463  0.0138  0.1321
 3200TIP3    H131091   5.707   1.127  13.256  1.1355 -0.0520  1.7533
 3200TIP3    H231092   5.593   1.222  13.222  1.3616 -0.8452 -1.5152
 3201TIP3   OH231093   0.955   4.385   5.634  0.4699  0.1445 -0.4632
 3201TIP3    H131094   1.016   4.317   5.607  0.3166 -0.8562  1.5483
 3201TIP3    H231095   1.001   4.467   5.616  1.3168 -0.5092 -1.3819
 3202TIP3   OH231096   3.855   3.661  16.953  0.2987 -0.0315 -0.1607
 3202TIP3    H131097   3.950   3.667  16.945  0.4402 -1.8112 -0.3803
 3202TIP3    H231098   3.841   3.585  17.010 -0.9888 -0.3846 -0.8974
 3203TIP3   OH231099   4.538   2.185   5.523  0.0447 -0.7946  0.1065
 3203TIP3    H131100   4.448   2.218   5.533 -0.1292 -1.1561 -0.2641
 3203TIP3    H231101   4.588   2.232   5.590 -0.3899 -0.4768  0.2108
 3204TIP3   OH231102   5.848   5.827   4.512  0.2957 -0.6500  0.6414
 3204TIP3    H131103   5.823   5.900   4.454  0.3084 -1.7681 -0.8341
 3204TIP3    H231104   5.872   5.869   4.594 -0.9382  0.9203  0.2552
 3205TIP3   OH231105   0.492   1.712  15.633  0.0118 -0.3609 -0.1236
 3205TIP3    H131106   0.400   1.729  15.650 -0.2061 -0.1048 -1.4168
 3205TIP3    H231107   0.528   1.796  15.605  0.3906 -0.6679 -0.5939
 3206TIP3   OH231108   4.404   4.434  10.934  0.1193 -0.1762 -0.0994
 3206TIP3    H131109   4.366   4.489  11.002 -0.1883 -1.4922  0.8304
 3206TIP3    H231110   4.356   4.458  10.854 -1.2768 -0.3793  0.6536
 3207TIP3   OH231111   4.298   5.957  15.893 -0.0444  0.4945 -0.2514
 3207TIP3    H131112   4.375   5.901  15.897 -1.0040 -0.9022 -0.6916
 3207TIP3    H231113   4.285   5.973  15.800 -1.3839 -0.9142 -0.3492
 3208TIP3   OH231114   5.684   0.554  11.993  0.1058  0.0643 -0.1286
 3208TIP3    H131115   5.698   0.640  11.955  0.2881  0.1067  0.0329
 3208TIP3    H231116   5.770   0.512  11.994 -0.0617 -0.2991 -0.6304
 3209TIP3   OH231117   0.091   4.664  16.584 -0.0610 -0.2279  0.7922
 3209TIP3    H131118   0.132   4.618  16.657  1.2292  0.4822  0.5452
 3209TIP3    H231119   0.157   4.727  16.555 -0.7893 -0.0628 -0.5876
 3210TIP3   OH231120   4.496   1.373   2.192  0.0037 -0.6779  0.6792
 3210TIP3    H131121   4.437   1.394   2.265 -0.0526  0.1351  0.4109
 3210TIP3    H231122   4.503   1.278   2.193 -0.3351 -0.7004  1.4848
 3211TIP3   OH231123   0.158   3.518  11.802 -0.5007  0.4239 -0.4606
 3211TIP3    H131124   0.239   3.468  11.788  0.9304  2.8496 -1.5912
 3211TIP3    H231125   0.188   3.607  11.824 -2.8849  0.6184  2.7409
 3212TIP3   OH231126   2.279   1.264  11.633  0.3770 -0.0038  0.0816
 3212TIP3    H131127   2.212   1.201  11.657  0.0321  0.5561  0.6356
 3212TIP3    H231128   2.360   1.213  11.630  0.0481 -0.5342  0.1720
 3213TIP3   OH231129   5.177   2.557  15.884 -0.1678  0.0474 -0.0564
 3213TIP3    H131130   5.143   2.481  15.837  1.4049  0.2720 -1.6736
 3213TIP3    H231131   5.114   2.627  15.864  0.0971 -0.0374 -1.3109
 3214TIP3   OH231132   5.280   0.743  17.080  0.4631  0.1819 -0.2546
 3214TIP3    H131133   5.245   0.654  17.076  0.1932  0.2001  1.1524
 3214TIP3    H231134   5.279   0.765  17.173 -0.9606  2.2436 -0.6861
 3215TIP3   OH231135   2.377   5.809   5.628  0.0219  0.0817  0.1770
 3215TIP3    H131136   2.435   5.883   5.611 -0.3901  0.4753  0.4727
 3215TIP3    H231137   2.311   5.813   5.559  1.5845 -1.6856 -1.5345
 3216TIP3   OH231138   1.109   0.878  16.473  0.3352 -0.5209  0.0285
 3216TIP3    H131139   1.033   0.844  16.522  0.5110 -1.9767 -0.6544
 3216TIP3    H231140   1.071   0.916  16.394  0.3010 -1.5711 -0.4879
 3217TIP3   OH231141   5.834   1.921  16.995  1.0917 -0.0408 -0.4105
 3217TIP3    H131142   5.863   1.979  17.065  2.0527 -0.5327 -0.3769
 3217TIP3    H231143   5.784   1.977  16.936  1.2579  0.6254  0.0642
 3218TIP3   OH231144   0.227   0.775  14.535  0.0229 -0.4682 -0.4134
 3218TIP3    H131145   0.201   0.689  14.569  0.6794 -0.8054 -0.7459
 3218TIP3    H231146   0.311   0.793  14.576  0.6652 -0.7268 -1.5618
 3219TIP3   OH231147   1.729   0.024  17.099 -0.2719  0.1946  0.3858
 3219TIP3    H131148   1.809   0.051  17.145  0.9101 -0.6026 -1.0755
 3219TIP3    H231149   1.693   0.105  17.063  0.6258  0.4272 -0.0308
 3220TIP3   OH231150   2.011   2.219  16.223  0.6626 -0.2536  0.7368
 3220TIP3    H131151   2.031   2.195  16.313 -2.8315 -0.5932  1.5493
 3220TIP3    H231152   1.970   2.305  16.228  1.4519  0.2526 -0.6999
 3221TIP3   OH231153   2.082   3.092   5.199 -0.1163 -0.1343 -0.0439
 3221TIP3    H131154   2.029   3.159   5.244  1.2864  0.0532  1.4159
 3221TIP3    H231155   2.112   3.135   5.119 -0.9948  0.2338 -0.1847
 3222TIP3   OH231156   1.993   3.475  15.089 -0.5493  0.4756  0.0996
 3222TIP3    H131157   1.949   3.558  15.070  0.4910  1.2879  1.0889
 3222TIP3    H231158   2.066   3.472  15.028 -2.0283 -0.9916 -1.7113
 3223TIP3   OH231159   1.855   4.394  15.572 -0.0280 -0.3235 -0.6519
 3223TIP3    H131160   1.879   4.446  15.495 -1.5334  0.7176 -0.4555
 3223TIP3    H231161   1.887   4.306  15.552 -0.6276 -0.1473 -2.5963
 3224TIP3   OH231162   1.407   0.188  14.008 -0.3647  0.3879 -0.0918
 3224TIP3    H131163   1.361   0.109  13.979 -1.0882  0.3576  1.0778
 3224TIP3    H231164   1.469   0.156  14.074 -1.0980  0.8469  0.8492
 3225TIP3   OH231165   1.487   3.532   5.030 -0.2017 -0.2492  0.1339
 3225TIP3    H131166   1.580   3.512   5.017  0.5118  0.6352  3.0083
 3225TIP3    H231167   1.469   3.504   5.120 -2.5712  0.1733 -0.1494
 3226TIP3   OH231168   5.380   5.970  16.340 -0.4569  0.1336  0.1590
 3226TIP3    H131169   5.405   5.969  16.247  1.7035 -0.2688  0.7053
 3226TIP3    H231170   5.369   6.063  16.360 -2.6500  0.1741 -0.8577
 3227TIP3   OH231171   0.169   6.017   5.060 -0.0188 -0.3544  0.3369
 3227TIP3    H131172   0.239   6.054   5.114  1.5771 -1.3007 -0.9817
 3227TIP3    H231173   0.205   6.018   4.971 -2.1682  0.2072 -0.5742
 3228TIP3   OH231174   6.383   1.860  15.030 -0.2939  0.0250  0.2109
 3228TIP3    H131175   6.320   1.836  15.097 -1.3195 -1.6545 -1.2597
 3228TIP3    H231176   6.331   1.865  14.949  1.2615 -0.3202 -0.8589
 3229TIP3   OH231177   5.480   5.247  13.485 -0.2241 -0.4142  0.4094
 3229TIP3    H131178   5.539   5.178  13.513 -0.6170 -1.1223 -0.4647
 3229TIP3    H231179   5.463   5.298  13.564  1.7675 -0.0075  0.6238
 3230TIP3   OH231180   5.948   5.052   0.202  0.5145  0.4342 -0.0183
 3230TIP3    H131181   6.013   5.122   0.205  1.9925 -0.9128  1.6079
 3230TIP3    H231182   5.999   4.971   0.204 -1.1769 -0.6899  0.0522
 3231TIP3   OH231183   5.910   0.567  16.042  0.5352  0.3248  0.0030
 3231TIP3    H131184   5.816   0.552  16.049  0.4426  0.8753 -0.0710
 3231TIP3    H231185   5.929   0.560  15.949  0.7529 -0.8477  0.1120
 3232TIP3   OH231186   5.965   4.003   2.377 -0.2222  0.3004 -0.1957
 3232TIP3    H131187   6.017   4.070   2.332 -0.4279  1.2132  0.8697
 3232TIP3    H231188   5.886   3.993   2.323  0.8019 -0.7286 -1.5493
 3233TIP3   OH231189   4.820   0.738   4.477  0.0501 -0.1418  0.1462
 3233TIP3    H131190   4.769   0.776   4.548  0.6409  3.1490 -0.9833
 3233TIP3    H231191   4.870   0.667   4.517 -0.2921  1.0106  2.7838
 3234TIP3   OH231192   0.226   0.340   2.195 -0.3989 -0.2977  0.2540
 3234TIP3    H131193   0.150   0.282   2.198 -2.0517  1.7159 -0.0573
 3234TIP3    H231194   0.232   0.366   2.103 -1.6801  2.3644  0.8197
 3235TIP3   OH231195   5.538   5.990  14.502  0.0573 -0.4302 -0.4445
 3235TIP3    H131196   5.629   5.968  14.521 -0.3310 -1.1676  0.6940
 3235TIP3    H231197   5.489   5.914  14.534 -1.2410  1.3539  2.1177
 3236TIP3   OH231198   5.432   2.793  17.289 -0.0566 -0.4263 -0.0153
 3236TIP3    H131199   5.353   2.787  17.236 -1.6471  0.1103  2.1628
 3236TIP3    H231200   5.422   2.725  17.356  1.3985 -0.4341  0.2441
 3237TIP3   OH231201   2.755   1.636   1.172 -0.7552  0.2098 -0.5408
 3237TIP3    H131202   2.847   1.614   1.191 -0.8759 -1.1264 -1.3995
 3237TIP3    H231203   2.716   1.554   1.144 -2.3621  0.6597  0.2518
 3238TIP3   OH231204   0.026   2.427  14.495  0.2106 -0.0983  0.0593
 3238TIP3    H131205  -0.044   2.404  14.433 -0.6179 -2.4379  1.6910
 3238TIP3    H231206   0.016   2.521  14.508 -0.4900  0.2098 -2.2377
 3239TIP3   OH231207   2.996   0.447  15.781  0.8582 -0.1505  0.8573
 3239TIP3    H131208   2.946   0.510  15.729  1.0584 -0.8850 -0.2762
 3239TIP3    H231209   3.087   0.466  15.759  0.8912 -1.2705 -0.0562
 3240TIP3   OH231210   3.496   0.130   5.118 -0.2013 -0.5508  0.4612
 3240TIP3    H131211   3.430   0.086   5.171 -0.0512 -2.0328 -0.5098
 3240TIP3    H231212   3.496   0.082   5.035 -0.5676  1.7945 -0.9918
 3241TIP3   OH231213   1.129   2.266   3.497  0.1920  0.2355 -0.3356
 3241TIP3    H131214   1.163   2.263   3.586 -0.7044  1.4311  0.0878
 3241TIP3    H231215   1.188   2.324   3.450  0.1338  0.3571 -0.2594
 3242TIP3   OH231216   4.372   3.068   4.341 -0.6278 -0.3525  0.3073
 3242TIP3    H131217   4.318   3.078   4.420 -0.4340  0.6823  0.3334
 3242TIP3    H231218   4.358   2.978   4.313 -0.9627 -0.6336  1.3356
 3243TIP3   OH231219   4.540   3.583  14.701  0.1456 -0.3132 -0.0659
 3243TIP3    H131220   4.534   3.513  14.766  0.2854 -1.5891 -1.3603
 3243TIP3    H231221   4.459   3.577  14.651 -1.0719  2.2133  1.3983
 3244TIP3   OH231222   2.244   2.240  15.142  0.4648 -0.3198  0.3708
 3244TIP3    H131223   2.316   2.246  15.080  1.6459 -0.4227  1.6954
 3244TIP3    H231224   2.256   2.156  15.186 -0.8161 -0.6087  0.2131
 3245TIP3   OH231225   4.594   2.145  11.682 -0.4192  0.2457 -0.6867
 3245TIP3    H131226   4.568   2.129  11.773  0.5148  1.3265 -0.2052
 3245TIP3    H231227   4.512   2.149  11.633 -0.9202 -0.6185  0.0553
 3246TIP3   OH231228   6.128   3.773  16.154 -0.1007 -0.1521  0.3555
 3246TIP3    H131229   6.118   3.857  16.110  1.8646 -0.4258 -0.7220
 3246TIP3    H231230   6.069   3.714  16.107  1.0297 -0.1380 -1.1367
 3247TIP3   OH231231   6.356   3.998   5.524  0.4441 -0.2073  0.7674
 3247TIP3    H131232   6.369   4.022   5.432 -1.1168 -1.5611  0.1233
 3247TIP3    H231233   6.377   3.905   5.527  1.0587 -0.0386  1.9279
 3248TIP3   OH231234   0.282   2.454   3.179 -0.2920 -0.1164 -0.5243
 3248TIP3    H131235   0.300   2.418   3.266  0.0649  0.7443 -0.2349
 3248TIP3    H231236   0.200   2.502   3.190  0.7859  1.7017 -0.1387
 3249TIP3   OH231237   2.820   2.064   1.327  0.0774  0.2156 -0.1357
 3249TIP3    H131238   2.904   2.101   1.300  0.6606 -0.4613  0.6692
 3249TIP3    H231239   2.824   1.972   1.300 -0.2735  0.1033  0.1774
 3250TIP3   OH231240   2.555   0.111   5.919  0.2373  0.2558 -0.1496
 3250TIP3    H131241   2.621   0.168   5.878  1.0608 -1.1375 -0.8240
 3250TIP3    H231242   2.579   0.023   5.892 -0.2732 -0.5598  1.9007
 3251TIP3   OH231243   2.532   5.852  11.078 -0.1443  0.3139 -0.3574
 3251TIP3    H131244   2.607   5.851  11.018 -1.0086  0.1374 -1.4627
 3251TIP3    H231245   2.456   5.838  11.021 -1.1049  1.4294  0.6054
 3252TIP3   OH231246   0.005   5.449  16.074  0.1403  0.1626  0.3212
 3252TIP3    H131247  -0.042   5.527  16.046 -0.8926 -1.3194 -2.4764
 3252TIP3    H231248  -0.058   5.402  16.129 -0.3892 -0.1188 -0.5050
 3253TIP3   OH231249   5.346   2.672   4.692  0.6148 -0.0660 -0.0673
 3253TIP3    H131250   5.335   2.600   4.753 -0.1323  0.3176  0.2735
 3253TIP3    H231251   5.281   2.737   4.720  1.6687  0.9830 -0.0041
 3254TIP3   OH231252   3.929   3.576  14.615 -0.0279  0.3857 -0.0749
 3254TIP3    H131253   3.847   3.596  14.572  0.4644  0.2977 -1.0722
 3254TIP3    H231254   3.952   3.488  14.585 -0.0455  0.0042  0.9619
 3255TIP3   OH231255   3.959   2.179  16.914 -0.0346  0.0643 -0.1589
 3255TIP3    H131256   3.972   2.218  17.000  1.4936 -1.0228  0.1490
 3255TIP3    H231257   3.950   2.253  16.855 -0.7894  0.8271  0.8686
 3256TIP3   OH231258   3.844   3.152  15.192 -0.2678 -0.5729 -0.0726
 3256TIP3    H131259   3.899   3.193  15.260 -0.6077 -0.3155  0.0518
 3256TIP3    H231260   3.830   3.222  15.128 -0.7237 -0.5358  0.0635
 3257TIP3   OH231261   4.478   6.052  15.209  0.4872  0.1356  0.5614
 3257TIP3    H131262   4.408   6.102  15.251  0.8317 -0.0172  1.3385
 3257TIP3    H231263   4.554   6.066  15.266  0.8466 -0.4476  0.2262
 3258TIP3   OH231264   0.390   0.221   1.725  0.1374 -0.3717 -0.4825
 3258TIP3    H131265   0.351   0.149   1.677 -2.1793  1.3189 -1.3421
 3258TIP3    H231266   0.483   0.199   1.731 -0.1362 -2.4222 -2.4628
 3259TIP3   OH231267   3.224   6.157   2.099  0.0131 -0.0905  0.0229
 3259TIP3    H131268   3.133   6.138   2.074  0.1985 -0.2110 -0.5641
 3259TIP3    H231269   3.223   6.154   2.195 -0.2970 -1.4959 -0.0010
 3260TIP3   OH231270   5.334   5.932  17.290  0.0893  0.1379  0.1202
 3260TIP3    H131271   5.427   5.940  17.307 -0.0424  0.1686  0.8623
 3260TIP3    H231272   5.299   5.884  17.366 -0.0924 -2.2508 -1.3572
 3261TIP3   OH231273   1.546   0.459   4.766  0.3605  0.5197 -0.5518
 3261TIP3    H131274   1.526   0.518   4.838 -0.3562 -0.8781  0.4527
 3261TIP3    H231275   1.490   0.488   4.694  0.9086  1.7760 -0.5070
 3262TIP3   OH231276   3.326   5.756  12.905  0.0917 -0.2061 -0.0743
 3262TIP3    H131277   3.349   5.711  12.987 -1.5988  0.6362  0.9130
 3262TIP3    H231278   3.265   5.697  12.862  0.1207 -0.1467 -0.1956
 3263TIP3   OH231279   3.746   3.348  16.849  0.1306  0.0459 -0.5659
 3263TIP3    H131280   3.813   3.299  16.801 -1.6035 -1.5092 -1.5363
 3263TIP3    H231281   3.794   3.419  16.891  2.5844 -1.6929 -0.1820
 3264TIP3   OH231282   5.076   2.638   1.506 -0.1999  0.4873  0.0687
 3264TIP3    H131283   5.062   2.565   1.445 -0.0618  0.2438  0.3295
 3264TIP3    H231284   5.167   2.664   1.492 -0.2506  0.6173 -0.0284
 3265TIP3   OH231285   5.046   5.352  11.741  0.4502  0.0671  0.0437
 3265TIP3    H131286   4.990   5.287  11.783  0.3695 -0.1451 -0.3899
 3265TIP3    H231287   5.096   5.390  11.813 -1.0544  1.0774  0.6172
 3266TIP3   OH231288   2.824   1.220  14.028 -0.2712  0.0183  0.2677
 3266TIP3    H131289   2.906   1.260  14.057 -0.4747 -0.0528  0.9468
 3266TIP3    H231290   2.826   1.229  13.932  0.5077  0.0514  0.2792
 3267TIP3   OH231291   5.076   6.082  11.687  0.0253  0.3552  0.1307
 3267TIP3    H131292   5.004   6.144  11.692 -0.1225  0.4772 -2.2632
 3267TIP3    H231293   5.047   6.016  11.623  1.6058 -0.1490 -0.1208
 3268TIP3   OH231294   1.457   0.043  15.189  0.1090  0.5648 -0.1864
 3268TIP3    H131295   1.406  -0.037  15.197  2.0850 -0.6467  1.0604
 3268TIP3    H231296   1.495   0.039  15.102  0.4490 -0.0301 -0.0166
 3269TIP3   OH231297   0.626   4.445   0.376  0.0975 -0.1108  0.5022
 3269TIP3    H131298   0.628   4.411   0.286 -1.8927 -0.2087  0.4449
 3269TIP3    H231299   0.712   4.484   0.389  1.1388 -1.8364 -0.7450
 3270TIP3   OH231300   2.808   6.593  14.972 -0.2625 -0.2625  0.2442
 3270TIP3    H131301   2.716   6.593  14.944  0.0258 -0.5108 -0.7615
 3270TIP3    H231302   2.824   6.683  15.002 -0.8470 -0.2329  0.4766
 3271TIP3   OH231303   4.754   4.965   0.111  0.1601 -0.4656 -0.0301
 3271TIP3    H131304   4.729   5.055   0.131  2.0931 -0.1357  1.1636
 3271TIP3    H231305   4.758   4.961   0.016  5.1138  2.3522 -0.2583
 3272TIP3   OH231306   4.664   6.134   0.019 -0.0670 -0.1146 -0.1196
 3272TIP3    H131307   4.635   6.105   0.106  1.2456  1.7132  1.0340
 3272TIP3    H231308   4.672   6.054  -0.032  1.0674 -1.5270  2.0942
 3273TIP3   OH231309   1.043   0.651  12.518  0.2944 -0.4301  0.1094
 3273TIP3    H131310   1.095   0.716  12.471  0.2352  0.0082  0.6411
 3273TIP3    H231311   0.952   0.677  12.501  0.2742 -0.2678  0.4829
 3274TIP3   OH231312   0.470   2.964   5.721 -0.0131  0.4576 -0.2662
 3274TIP3    H131313   0.560   2.979   5.695  0.7348 -1.5718  0.9097
 3274TIP3    H231314   0.457   2.870   5.710 -1.3556  0.3940  1.4000
 3275TIP3   OH231315   5.794   1.671  13.802  0.1110  0.4537  0.7890
 3275TIP3    H131316   5.834   1.754  13.827  0.4839  0.0691  1.5232
 3275TIP3    H231317   5.702   1.692  13.786  0.5149  1.2887 -0.5966
 3276TIP3   OH231318   3.159   5.531  14.000 -0.2124 -0.3904 -0.0354
 3276TIP3    H131319   3.209   5.453  14.025 -0.7750 -0.6168  0.3927
 3276TIP3    H231320   3.111   5.555  14.079 -2.0116 -1.0994 -0.8645
 3277TIP3   OH231321   1.766   1.842   3.743  0.2305 -0.4555 -0.0219
 3277TIP3    H131322   1.850   1.822   3.702  0.0314 -0.4563 -0.4246
 3277TIP3    H231323   1.704   1.780   3.705 -0.1149  0.0524 -0.2992
 3278TIP3   OH231324   4.854   5.227  14.877  0.1885 -0.5900  0.2199
 3278TIP3    H131325   4.764   5.225  14.912  0.5689  0.4738  1.3486
 3278TIP3    H231326   4.890   5.142  14.898 -0.2739 -0.7079  0.5508
 3279TIP3   OH231327   5.703   1.283   4.186 -0.7623 -0.0688 -0.3521
 3279TIP3    H131328   5.622   1.260   4.141  0.2463 -3.1438 -0.8777
 3279TIP3    H231329   5.691   1.249   4.275 -0.4932  0.5376 -0.0808
 3280TIP3   OH231330   2.565   3.982   3.758  0.1862  0.7124  0.4850
 3280TIP3    H131331   2.507   3.984   3.834 -1.6187 -0.8579 -0.7668
 3280TIP3    H231332   2.581   3.889   3.742 -0.5902  0.9054 -1.8151
 3281TIP3   OH231333   0.664   2.629   2.881  0.6019 -0.1949  0.5901
 3281TIP3    H131334   0.752   2.604   2.908  0.6508  1.3641  2.0155
 3281TIP3    H231335   0.611   2.550   2.896  1.5611 -0.8455  0.6109
 3282TIP3   OH231336   3.594   4.790  15.665 -0.0088 -0.5369 -0.0506
 3282TIP3    H131337   3.562   4.825  15.748 -0.9195 -1.5873  0.0712
 3282TIP3    H231338   3.664   4.730  15.690  0.1161 -0.4080 -0.0906
 3283TIP3   OH231339   2.145   5.309   3.737  0.6102  0.1771  0.0743
 3283TIP3    H131340   2.213   5.292   3.803 -0.3491 -0.2226  0.9806
 3283TIP3    H231341   2.102   5.224   3.726  1.1950  0.0680 -1.5937
 3284TIP3   OH231342   4.529   4.819   3.096 -0.2049 -0.5936 -0.6813
 3284TIP3    H131343   4.611   4.821   3.047 -0.5117 -0.9504 -1.2299
 3284TIP3    H231344   4.533   4.896   3.153  1.5394 -1.9210  1.0668
 3285TIP3   OH231345   4.658   1.589  12.974  0.3112  0.2316  1.0007
 3285TIP3    H131346   4.621   1.521  12.917  0.3513 -0.4622  1.7827
 3285TIP3    H231347   4.583   1.640  13.003  0.2110  0.1531  0.8791
 3286TIP3   OH231348   2.949   2.097  13.769  0.3071 -0.4787 -0.6886
 3286TIP3    H131349   2.894   2.054  13.703  0.8768  0.1345 -1.5802
 3286TIP3    H231350   3.021   2.036  13.784  1.4472  0.3701 -2.4075
 3287TIP3   OH231351   6.695   5.193   3.306  0.4475  0.3957 -0.3122
 3287TIP3    H131352   6.641   5.183   3.384  1.9367 -0.8335  0.6217
 3287TIP3    H231353   6.645   5.150   3.237 -0.5593  0.8412  0.1289
 3288TIP3   OH231354   0.301   1.000  16.070 -0.1053 -0.3334  0.7001
 3288TIP3    H131355   0.294   1.094  16.053 -0.9251 -0.1348  1.9050
 3288TIP3    H231356   0.301   0.959  15.984 -3.0070  0.6105  0.1138
 3289TIP3   OH231357   2.780   4.522   4.936  0.0784  0.0672 -0.1648
 3289TIP3    H131358   2.803   4.440   4.980  2.1368 -0.0950 -1.4621
 3289TIP3    H231359   2.772   4.585   5.007 -1.1504 -1.1289  0.8203
 3290TIP3   OH231360   4.979   1.502  16.230  0.2112 -0.3110 -0.0081
 3290TIP3    H131361   4.928   1.574  16.193  2.8682  1.5876 -0.2755
 3290TIP3    H231362   4.961   1.506  16.324 -1.3432 -0.7497 -0.2637
 3291TIP3   OH231363   2.912   6.224   5.852 -0.3734  0.3200 -0.3375
 3291TIP3    H131364   2.909   6.178   5.768  1.3682  0.5957 -0.5942
 3291TIP3    H231365   2.913   6.155   5.918  1.6060 -0.0618 -0.6994
 3292TIP3   OH231366   1.407   1.167   5.003  0.3228 -0.0505 -0.0405
 3292TIP3    H131367   1.492   1.125   5.016 -0.0454 -1.2843 -1.4449
 3292TIP3    H231368   1.403   1.188   4.910 -1.6041 -1.6317 -0.3781
 3293TIP3   OH231369   3.838   2.695  16.002 -0.1351 -0.2188  0.1340
 3293TIP3    H131370   3.922   2.725  15.967  0.2022  1.2203  2.0143
 3293TIP3    H231371   3.850   2.601  16.014  0.7841 -0.2353 -0.7409
 3294TIP3   OH231372   3.498   1.674   5.856 -0.4355 -0.4864  0.2539
 3294TIP3    H131373   3.479   1.703   5.946 -1.4276  0.4866 -0.2496
 3294TIP3    H231374   3.474   1.749   5.802 -0.5238 -1.3268 -0.8933
 3295TIP3   OH231375   1.231   2.247   5.298 -0.2893 -0.1169 -0.0244
 3295TIP3    H131376   1.154   2.196   5.273  0.6128 -1.1218 -0.8631
 3295TIP3    H231377   1.236   2.238   5.393 -1.2512  0.0427  0.0515
 3296TIP3   OH231378   1.407   0.090   0.408  0.1249  0.4594  0.2754
 3296TIP3    H131379   1.415   0.146   0.331  1.6353  0.0718  0.1217
 3296TIP3    H231380   1.493   0.094   0.449 -0.4506  0.0914  1.5566
 3297TIP3   OH231381   2.614   1.032   3.450 -0.4151  0.1131  0.0505
 3297TIP3    H131382   2.531   1.042   3.404 -0.3444  1.1994  0.1167
 3297TIP3    H231383   2.680   1.055   3.385 -0.3102  1.5773  0.6280
 3298TIP3   OH231384   3.742   0.514  16.160 -0.2167  0.0541  0.6163
 3298TIP3    H131385   3.798   0.469  16.096 -0.4335  1.5164 -0.6584
 3298TIP3    H231386   3.803   0.550  16.224  0.1007 -0.4655  0.6088
 3299TIP3   OH231387   4.081   2.683   2.320 -0.1498  0.3508 -0.2597
 3299TIP3    H131388   4.124   2.686   2.405 -0.8658 -0.6382  0.1470
 3299TIP3    H231389   4.121   2.609   2.275 -1.3096 -0.5233  0.0871
 3300TIP3   OH231390   5.351   4.861   6.214 -0.1098  0.4312 -0.0239
 3300TIP3    H131391   5.348   4.954   6.237  1.2371  0.8698 -1.4256
 3300TIP3    H231392   5.439   4.832   6.239 -0.5346 -0.4842  0.4486
 3301TIP3   OH231393   5.234   3.548   4.282 -0.3621 -0.0484  0.3951
 3301TIP3    H131394   5.291   3.613   4.322 -2.9435  1.5774  1.6191
 3301TIP3    H231395   5.286   3.513   4.209  1.2103  3.2471 -0.2250
 3302TIP3   OH231396   3.041   1.757   0.809  0.3291 -0.1587 -0.6388
 3302TIP3    H131397   2.998   1.678   0.777  0.2194 -0.2991 -0.1493
 3302TIP3    H231398   3.124   1.727   0.845 -0.4509 -0.3044  1.1203
 3303TIP3   OH231399   4.837   3.279   4.695  0.2082  0.2868 -0.5797
 3303TIP3    H131400   4.887   3.265   4.614  1.1066 -2.3053  0.2974
 3303TIP3    H231401   4.799   3.193   4.714  0.2748  0.7318  1.8939
 3304TIP3   OH231402   5.693   0.705   6.429 -0.0892  0.2250 -0.6985
 3304TIP3    H131403   5.775   0.723   6.383  0.5955  1.3906  0.8993
 3304TIP3    H231404   5.713   0.632   6.487  0.3249  1.4849  0.8196
 3305TIP3   OH231405   0.259   0.413   0.446 -0.4948  0.1520  0.0648
 3305TIP3    H131406   0.174   0.455   0.461 -0.3292  0.3418  0.4743
 3305TIP3    H231407   0.323   0.476   0.480 -0.2560 -0.5658  0.9514
 3306TIP3   OH231408   0.934   2.962  17.042  0.4291 -0.0889  0.3613
 3306TIP3    H131409   0.988   3.038  17.066 -0.1345 -0.4994  3.2348
 3306TIP3    H231410   0.997   2.892  17.025  0.8709  0.4260 -0.1964
 3307TIP3   OH231411   3.948   6.330   5.187  0.0174  0.0003  0.3044
 3307TIP3    H131412   3.865   6.310   5.231  1.3100  2.2649  4.3430
 3307TIP3    H231413   3.936   6.419   5.153  1.2149  1.1034  2.5576
 3308TIP3   OH231414   6.669   0.736   3.863  0.1687 -0.1191 -0.1431
 3308TIP3    H131415   6.623   0.705   3.785  0.4579 -0.3560 -0.2205
 3308TIP3    H231416   6.620   0.699   3.937  0.4190 -0.6256 -0.2311
 3309TIP3   OH231417   5.414   2.351  14.808  0.3386  0.5963 -0.0365
 3309TIP3    H131418   5.432   2.437  14.847  0.4906  1.2529 -1.4919
 3309TIP3    H231419   5.500   2.320  14.780  0.3804 -0.3602  1.0813
 3310TIP3   OH231420   4.653   0.831   1.299  0.0073 -0.0759 -0.3115
 3310TIP3    H131421   4.705   0.817   1.220  0.7782 -1.7784  0.4557
 3310TIP3    H231422   4.582   0.767   1.294 -1.7548  1.7958 -1.0288
 3311TIP3   OH231423   4.138   4.341  15.479  0.4178 -0.3134 -0.0899
 3311TIP3    H131424   4.127   4.255  15.439  0.6058 -0.0883 -0.6269
 3311TIP3    H231425   4.191   4.324  15.557 -1.3889 -1.0104  1.0712
 3312TIP3   OH231426   4.595   1.072   2.505  0.7317  0.6528  0.0187
 3312TIP3    H131427   4.512   1.116   2.523  0.2606  0.5147 -1.6851
 3312TIP3    H231428   4.660   1.124   2.553 -0.3617  0.4503  1.8328
 3313TIP3   OH231429   0.217   0.450   5.645  0.3039 -0.8129  0.0269
 3313TIP3    H131430   0.235   0.533   5.600 -1.9731 -2.2504 -4.1091
 3313TIP3    H231431   0.291   0.394   5.621  0.5511 -0.7369  0.6098
 3314TIP3   OH231432   2.470   4.602  15.018 -0.0399  0.2127 -0.1060
 3314TIP3    H131433   2.504   4.678  15.065 -2.8596  1.1642  0.5592
 3314TIP3    H231434   2.519   4.601  14.935  5.2173 -1.5909  2.5677
 3315TIP3   OH231435   0.381   4.187   0.444  0.1731  0.2384 -0.2967
 3315TIP3    H131436   0.320   4.194   0.370 -0.0072  0.1038 -0.1615
 3315TIP3    H231437   0.343   4.244   0.511  0.1753  0.1234 -0.1984
 3316TIP3   OH231438   0.147   3.066  11.859  0.1989 -0.1276  0.2331
 3316TIP3    H131439   0.231   3.092  11.822 -0.7839 -0.4482 -2.4939
 3316TIP3    H231440   0.112   3.146  11.898  1.0533  0.4197 -0.0967
 3317TIP3   OH231441   3.354   4.568  17.024 -0.2792  0.0525  0.4674
 3317TIP3    H131442   3.307   4.485  17.022 -0.1744 -0.0696  1.8652
 3317TIP3    H231443   3.285   4.634  17.027 -0.3807  0.1087 -1.8628
 3318TIP3   OH231444   6.050   0.025  12.448 -0.2856  0.4036 -0.1553
 3318TIP3    H131445   6.000   0.033  12.367 -0.7114  1.8608  0.2040
 3318TIP3    H231446   5.992   0.063  12.515  0.0714 -0.7166  0.8277
 3319TIP3   OH231447   6.578   2.402  13.601 -0.2371 -0.1848 -0.0656
 3319TIP3    H131448   6.609   2.367  13.517  1.7548  0.9424  0.1284
 3319TIP3    H231449   6.508   2.462  13.578  1.2925  1.2793 -1.1234
 3320TIP3   OH231450   0.865   0.203   3.200  0.3113 -0.3585  0.3544
 3320TIP3    H131451   0.828   0.275   3.149  0.7924  0.2695  0.8666
 3320TIP3    H231452   0.825   0.124   3.164  0.8860  0.0361 -1.2191
 3321TIP3   OH231453   1.626   5.248  17.322  0.0293 -0.2581 -0.3556
 3321TIP3    H131454   1.623   5.228  17.228 -2.2711 -0.5616 -0.2590
 3321TIP3    H231455   1.707   5.205  17.352  0.3988 -0.8316 -2.0406
 3322TIP3   OH231456   3.438   3.530   0.173  0.0182 -0.0445  0.5279
 3322TIP3    H131457   3.391   3.457   0.133 -2.1443  0.8970  1.2152
 3322TIP3    H231458   3.459   3.500   0.261  0.8516 -0.5076  0.1834
 3323TIP3   OH231459   0.513   1.852  15.184  0.1090 -0.0873 -0.3865
 3323TIP3    H131460   0.520   1.833  15.091 -0.6143  0.6355 -0.6010
 3323TIP3    H231461   0.456   1.928  15.189 -0.7767 -0.7735  0.7065
 3324TIP3   OH231462   2.525   1.936  12.229 -0.0129 -0.3657  0.8215
 3324TIP3    H131463   2.454   1.924  12.166  0.0103 -0.6869  0.8534
 3324TIP3    H231464   2.481   1.948  12.313 -0.1788  3.0047  0.3844
 3325TIP3   OH231465   0.125   2.318  17.445 -0.5619  0.6921 -0.0676
 3325TIP3    H131466   0.069   2.356  17.513 -0.4671  1.2278 -0.2863
 3325TIP3    H231467   0.077   2.333  17.363 -0.4995  0.3823 -0.1635
 3326TIP3   OH231468   4.124   2.915   1.617  0.1009 -0.1576 -0.1257
 3326TIP3    H131469   4.199   2.876   1.572 -0.1832 -0.1407 -0.6320
 3326TIP3    H231470   4.088   2.843   1.669  1.2113  0.1667  1.1269
 3327TIP3   OH231471   4.794   6.654  13.150 -0.0147 -0.3209  0.1629
 3327TIP3    H131472   4.882   6.681  13.124 -0.2550 -0.7993 -1.2440
 3327TIP3    H231473   4.794   6.559  13.139 -0.5040 -0.3984  0.7969
 3328TIP3   OH231474   1.548   1.491  11.431  0.3206 -0.1976 -0.3448
 3328TIP3    H131475   1.589   1.561  11.483  3.4237 -0.5725 -2.0880
 3328TIP3    H231476   1.486   1.537  11.374  0.3330  0.7798  0.4033
 3329TIP3   OH231477   4.600   2.805  13.390 -0.6013  0.1739  0.1907
 3329TIP3    H131478   4.609   2.744  13.317  1.7531 -0.7215  1.1516
 3329TIP3    H231479   4.539   2.872  13.358 -0.5648 -0.8190 -2.1251
 3330TIP3   OH231480   1.148   2.238  16.179 -0.5954 -1.0235 -0.5902
 3330TIP3    H131481   1.180   2.185  16.251 -1.0218 -0.8337 -0.2587
 3330TIP3    H231482   1.218   2.301  16.163 -1.3994  0.4080  1.1666
 3331TIP3   OH231483   2.880   1.274   5.940  0.1164 -0.0952 -0.1606
 3331TIP3    H131484   2.944   1.208   5.965  0.3175 -0.3820 -1.3889
 3331TIP3    H231485   2.923   1.358   5.959 -0.3626 -0.2551  1.9598
 3332TIP3   OH231486   0.005   2.995  16.343 -0.2646 -0.3345  0.3901
 3332TIP3    H131487   0.042   3.032  16.423 -1.3538 -0.5213  1.0080
 3332TIP3    H231488  -0.027   3.070  16.293  0.1661 -0.2397  0.2510
 3333TIP3   OH231489   3.257   4.068   0.333 -0.0191 -0.0604  0.2736
 3333TIP3    H131490   3.289   3.980   0.313 -0.6093 -0.7678  2.1890
 3333TIP3    H231491   3.285   4.121   0.259  0.3230 -1.8603 -0.9590
 3334TIP3   OH231492   3.244   3.936   0.661 -0.8383  0.1146 -0.4275
 3334TIP3    H131493   3.219   4.008   0.720 -2.0661  0.5106 -1.3718
 3334TIP3    H231494   3.209   3.962   0.576  3.5089  1.0706 -2.1688
 3335TIP3   OH231495   3.287   6.568   4.299 -0.2069  0.3268 -0.0900
 3335TIP3    H131496   3.232   6.584   4.376 -0.0082 -0.6495  0.2643
 3335TIP3    H231497   3.260   6.482   4.267  2.6751 -1.3540  1.5069
 3336TIP3   OH231498   0.459   1.269   5.757 -0.2104  0.7306  0.0638
 3336TIP3    H131499   0.414   1.314   5.828 -2.4328 -0.1915 -0.6592
 3336TIP3    H231500   0.406   1.287   5.679  1.9247  1.4018 -1.3544
 3337TIP3   OH231501   0.437   5.608   3.789  0.1592  0.1938 -0.1724
 3337TIP3    H131502   0.347   5.624   3.818  0.2199 -0.9392  0.7615
 3337TIP3    H231503   0.491   5.631   3.865  0.6015  0.2842 -0.5112
 3338TIP3   OH231504   2.691   3.420  16.895 -0.2751 -0.0852 -0.5043
 3338TIP3    H131505   2.727   3.449  16.979 -1.2072 -0.6061  0.0814
 3338TIP3    H231506   2.750   3.459  16.830  0.0767  0.8702  0.3537
 3339TIP3   OH231507   2.714   5.895  14.291 -1.1989 -0.0427  0.4683
 3339TIP3    H131508   2.752   5.873  14.206 -1.4092  0.5377  0.2137
 3339TIP3    H231509   2.666   5.976  14.274 -1.4021 -0.0311  1.1001
 3340TIP3   OH231510   6.540   2.723  16.656  0.0666  0.1364 -0.0259
 3340TIP3    H131511   6.486   2.802  16.665  0.7057  0.8965 -2.2338
 3340TIP3    H231512   6.601   2.727  16.730 -1.0226  0.7848  0.8580
 3341TIP3   OH231513   3.481   4.807  11.053  0.3590 -0.1621 -0.7837
 3341TIP3    H131514   3.405   4.860  11.029  0.0166 -0.1783  0.2267
 3341TIP3    H231515   3.549   4.833  10.990 -0.3381  0.1761 -1.4126
 3342TIP3   OH231516   4.860   3.661  17.282  0.1176  0.0822  0.1817
 3342TIP3    H131517   4.907   3.682  17.201  2.3075 -0.0965  1.3254
 3342TIP3    H231518   4.858   3.744  17.330  0.7288 -0.2736  0.8365
 3343TIP3   OH231519   0.010   6.451  11.471 -0.3678  0.1369 -0.2203
 3343TIP3    H131520  -0.025   6.539  11.477 -0.8752 -0.1288  1.3986
 3343TIP3    H231521   0.006   6.418  11.561  0.0333 -1.4449 -0.7470
 3344TIP3   OH231522   4.984   2.935   1.684  0.0936  0.0576 -0.9566
 3344TIP3    H131523   4.949   3.024   1.689  0.8872  0.4082 -1.4732
 3344TIP3    H231524   5.072   2.945   1.647  0.8708 -0.7618  0.5568
 3345TIP3   OH231525   6.192   5.065   3.074  0.5020 -0.5110  0.0302
 3345TIP3    H131526   6.101   5.095   3.068  0.6019 -0.3285 -0.5909
 3345TIP3    H231527   6.188   4.990   3.132  0.1844  0.4421  1.2903
 3346TIP3   OH231528   3.969   5.331  11.123  0.0209  0.8422  0.7241
 3346TIP3    H131529   3.987   5.415  11.080 -0.2465  0.7659  0.4546
 3346TIP3    H231530   3.874   5.326  11.126  0.0382  0.6523  0.9460
 3347TIP3   OH231531   6.530   0.406  14.876 -0.0453 -0.3080 -0.1310
 3347TIP3    H131532   6.570   0.326  14.844  2.1283  0.4406  0.5365
 3347TIP3    H231533   6.587   0.476  14.845 -1.0798  0.8652  0.5135
 3348TIP3   OH231534   3.898   4.985   6.370 -0.3565 -0.5180 -0.7550
 3348TIP3    H131535   3.979   4.933   6.368  0.7760  1.0251  1.2909
 3348TIP3    H231536   3.828   4.921   6.358  1.0745 -2.2221 -0.4332
 3349TIP3   OH231537   5.633   1.318  12.353  0.3393  0.3244 -0.0446
 3349TIP3    H131538   5.696   1.344  12.286  0.6570 -2.4919 -0.9815
 3349TIP3    H231539   5.681   1.324  12.435  0.9606  0.8027 -0.4347
 3350TIP3   OH231540   0.363   3.589   1.617 -0.4216 -0.2563  0.1751
 3350TIP3    H131541   0.380   3.498   1.593 -0.0386 -0.1058 -0.1297
 3350TIP3    H231542   0.336   3.630   1.535 -1.0276 -0.1961  0.4019
 3351TIP3   OH231543   3.202   0.194   4.682 -0.3872 -0.0357 -0.2447
 3351TIP3    H131544   3.136   0.235   4.627 -1.4275  0.3296  1.2086
 3351TIP3    H231545   3.284   0.240   4.662 -1.5003  2.8432  1.3183
 3352TIP3   OH231546   1.764   6.578   6.267 -0.0125  0.1662  0.1829
 3352TIP3    H131547   1.832   6.643   6.252  1.4237 -1.2706  0.1372
 3352TIP3    H231548   1.810   6.504   6.306 -1.5548 -0.8986  0.0931
 3353TIP3   OH231549   5.620   3.272   6.449  0.0104  0.2747 -0.4661
 3353TIP3    H131550   5.661   3.192   6.417  1.3659  0.7930 -0.1017
 3353TIP3    H231551   5.633   3.269   6.544  0.0525  0.8963 -0.4460
 3354TIP3   OH231552   4.439   4.496  13.930  0.1440  0.2763 -0.3226
 3354TIP3    H131553   4.400   4.410  13.915  0.9000 -0.0882 -0.2173
 3354TIP3    H231554   4.527   4.478  13.963  0.3185  1.0896 -0.3152
 3355TIP3   OH231555   3.880   6.233  13.392 -0.3691 -0.0617  0.5296
 3355TIP3    H131556   3.901   6.182  13.314 -0.4813 -0.1586  0.5629
 3355TIP3    H231557   3.807   6.186  13.432 -2.3907  1.6216 -0.9429
 3356TIP3   OH231558   0.343   5.787   1.720 -0.0419  0.3883 -0.2483
 3356TIP3    H131559   0.281   5.822   1.784  0.9483  4.4079 -1.2019
 3356TIP3    H231560   0.397   5.725   1.770 -1.8042  0.3680  1.7392
 3357TIP3   OH231561   5.307   3.741  12.584 -0.0520 -0.5180 -0.1918
 3357TIP3    H131562   5.391   3.697  12.589  0.9716  1.4180  1.4639
 3357TIP3    H231563   5.255   3.700  12.654 -0.3609 -1.4139 -0.9287
 3358TIP3   OH231564   2.522   0.977  14.968 -0.4770  0.1156  0.6932
 3358TIP3    H131565   2.518   0.965  14.873 -2.9415 -0.9851  0.8464
 3358TIP3    H231566   2.601   0.931  14.995 -1.0740 -1.7785 -0.5921
 3359TIP3   OH231567   0.803   5.306  16.368  0.1414  0.1119 -0.2515
 3359TIP3    H131568   0.781   5.332  16.279 -1.2973  1.1646  0.3823
 3359TIP3    H231569   0.719   5.290  16.411  0.8347 -1.6785  0.5800
 3360TIP3   OH231570   3.397   2.820  17.326 -0.0118 -0.0404  0.0054
 3360TIP3    H131571   3.452   2.813  17.249 -2.1032  1.7502 -1.7863
 3360TIP3    H231572   3.377   2.913  17.334  1.0257  0.0407  3.4575
 3361TIP3   OH231573   4.598   6.267  10.808 -0.2304 -0.0049  0.1970
 3361TIP3    H131574   4.604   6.254  10.903 -0.8539 -0.5004  0.1793
 3361TIP3    H231575   4.666   6.331  10.788 -1.2813  1.5022  1.2492
 3362TIP3   OH231576   6.391   5.094   2.032 -0.1144  0.6732 -0.3180
 3362TIP3    H131577   6.472   5.049   2.010 -1.6087 -1.3463 -2.0370
 3362TIP3    H231578   6.368   5.062   2.120  0.1729  0.0975 -0.4557
 3363TIP3   OH231579   2.436   5.851  16.778  0.0811  0.0998 -0.4084
 3363TIP3    H131580   2.425   5.906  16.856 -0.7751 -2.5505  1.4904
 3363TIP3    H231581   2.373   5.886  16.715 -1.2235  0.6642  1.1227
 3364TIP3   OH231582   2.396   6.723  15.206 -0.2279  0.0789  0.3943
 3364TIP3    H131583   2.477   6.700  15.160 -1.3241 -2.8884 -0.2409
 3364TIP3    H231584   2.345   6.773  15.142 -0.4397 -1.3185 -0.5611
 3365TIP3   OH231585   0.876   3.709  13.323 -0.3779  0.0023 -0.2056
 3365TIP3    H131586   0.783   3.721  13.305 -0.7210 -4.1085 -2.1505
 3365TIP3    H231587   0.880   3.682  13.415 -1.5734 -2.7096 -0.8674
 3366TIP3   OH231588   6.767   5.975   3.055 -1.2277  0.1517  0.2268
 3366TIP3    H131589   6.706   6.048   3.060 -0.7766  0.9150 -3.0413
 3366TIP3    H231590   6.714   5.898   3.073 -2.8044  0.9467 -0.7667
 3367TIP3   OH231591   4.428   1.257   1.887  0.1803 -0.0611  0.5089
 3367TIP3    H131592   4.459   1.261   1.977 -1.4272  1.2878  1.0448
 3367TIP3    H231593   4.385   1.341   1.872  0.2799 -0.3080 -1.4806
 3368TIP3   OH231594   3.487   4.347  13.752 -0.0143  0.1876  0.5954
 3368TIP3    H131595   3.515   4.273  13.698  0.5590  0.6607  0.2288
 3368TIP3    H231596   3.431   4.308  13.819  0.4021 -0.5951  0.4971
 3369TIP3   OH231597   4.133   5.056  11.919 -0.0196 -0.3849 -0.2295
 3369TIP3    H131598   4.180   4.975  11.900  0.5253 -0.4682  1.3039
 3369TIP3    H231599   4.150   5.073  12.012 -0.3504  1.3449 -0.4361
 3370TIP3   OH231600   6.155   3.403   5.789 -0.1024 -0.1597  0.8964
 3370TIP3    H131601   6.143   3.331   5.728 -0.7268  0.1090  0.7043
 3370TIP3    H231602   6.078   3.457   5.779  0.7386  0.9829  0.4522
 3371TIP3   OH231603   5.623   5.379   1.682  0.3129  0.2997  0.0609
 3371TIP3    H131604   5.650   5.382   1.773 -0.9817 -1.7369  0.5875
 3371TIP3    H231605   5.585   5.465   1.664  1.3519  1.0085  1.1503
 3372TIP3   OH231606   0.893   2.559  12.958 -0.3477 -0.0587  0.3520
 3372TIP3    H131607   0.829   2.517  13.017 -1.1091  0.9530  0.2613
 3372TIP3    H231608   0.918   2.489  12.897 -0.6996 -0.7051  0.9277
 3373TIP3   OH231609   5.143   3.632  15.550  0.5902  0.0218  0.0937
 3373TIP3    H131610   5.210   3.700  15.556  0.5589  0.0059  0.6448
 3373TIP3    H231611   5.139   3.594  15.638 -1.6864  1.5058  0.7029
 3374TIP3   OH231612   4.422   3.765  17.166 -0.2353  0.0806 -0.1641
 3374TIP3    H131613   4.429   3.843  17.220  0.6176 -0.6537  0.8453
 3374TIP3    H231614   4.453   3.694  17.223 -1.1986 -1.0220 -0.9690
 3375TIP3   OH231615   1.073   4.083   0.057 -0.8257 -0.3073 -0.2363
 3375TIP3    H131616   1.163   4.116   0.065 -1.5544  1.8753 -0.3841
 3375TIP3    H231617   1.046   4.067   0.147 -0.9604  1.0550 -0.0146
 3376TIP3   OH231618   4.480   1.282   5.563 -0.0867  0.7006 -0.1870
 3376TIP3    H131619   4.548   1.217   5.550 -0.3084  0.8479 -2.5592
 3376TIP3    H231620   4.402   1.244   5.523 -0.4475  2.0336 -0.8236
 3377TIP3   OH231621   4.382   2.288  13.083  0.0191  0.5090  0.6220
 3377TIP3    H131622   4.398   2.292  12.988  3.0587 -2.4305  0.8306
 3377TIP3    H231623   4.293   2.252  13.089  0.7675 -2.0156 -1.2981
 3378TIP3   OH231624   6.681   1.036   5.020  0.0940 -0.5449  0.0694
 3378TIP3    H131625   6.667   1.130   5.030 -1.0300 -0.7493  0.5081
 3378TIP3    H231626   6.769   1.021   5.055  0.1778  0.2947  0.2430
 3379TIP3   OH231627   1.857   5.900   1.947  0.1039 -0.2765  0.2928
 3379TIP3    H131628   1.845   5.819   1.897 -1.9350 -1.2043  2.1083
 3379TIP3    H231629   1.944   5.891   1.986  0.1525 -1.3212 -0.0237
 3380TIP3   OH231630   3.689   1.415   1.603  0.0023 -0.4293  0.5713
 3380TIP3    H131631   3.747   1.380   1.670  2.5467  2.1655 -0.0742
 3380TIP3    H231632   3.672   1.505   1.631 -0.3666  0.1278 -1.3118
 3381TIP3   OH231633   0.824   5.139   3.667  0.0718  0.0687  0.2607
 3381TIP3    H131634   0.732   5.161   3.651  0.1416 -1.1334 -2.2382
 3381TIP3    H231635   0.869   5.166   3.587  1.7599 -0.2366  1.0647
 3382TIP3   OH231636   4.497   2.274  14.978  0.1930  0.3889  0.2886
 3382TIP3    H131637   4.412   2.318  14.974  0.1918  0.4836  1.2383
 3382TIP3    H231638   4.478   2.186  15.010  0.5592  0.7479  1.5424
 3383TIP3   OH231639   0.661   2.800  15.894 -0.3033  0.0768 -0.1420
 3383TIP3    H131640   0.657   2.711  15.928  0.3715 -0.4275 -1.3318
 3383TIP3    H231641   0.584   2.808  15.839 -0.8023  0.5152  0.6105
 3384TIP3   OH231642   5.697   0.627   2.009 -0.1813  0.2475 -0.4581
 3384TIP3    H131643   5.748   0.553   1.977  0.8109  1.5196 -1.9622
 3384TIP3    H231644   5.611   0.616   1.969  0.0342  0.0572 -0.8703
 3385TIP3   OH231645   4.602   6.474  11.778 -0.0746 -0.4770 -0.5833
 3385TIP3    H131646   4.545   6.403  11.748  0.5359 -1.3650  0.2995
 3385TIP3    H231647   4.547   6.552  11.775 -1.3949 -1.3323  0.3902
 3386TIP3   OH231648   5.706   3.438   6.160  0.2984  0.0529  0.2992
 3386TIP3    H131649   5.621   3.482   6.154 -0.1469 -0.9570 -2.1510
 3386TIP3    H231650   5.685   3.345   6.150  1.7661 -0.0959 -2.2259
 3387TIP3   OH231651   0.161   0.590  12.939 -0.1415  0.4832 -0.8223
 3387TIP3    H131652   0.204   0.655  12.884  0.1889 -0.4500 -1.6959
 3387TIP3    H231653   0.214   0.511  12.928 -0.9104 -0.1184 -0.2954
 3388TIP3   OH231654   3.908   3.964   1.332  0.3870 -0.1739 -0.0776
 3388TIP3    H131655   3.851   4.014   1.390 -0.4656 -1.0578 -0.1295
 3388TIP3    H231656   3.957   4.030   1.283 -0.1495  0.5916  0.4056
 3389TIP3   OH231657   3.336   1.723   0.039  0.6478  0.8528  0.5472
 3389TIP3    H131658   3.338   1.662  -0.034 -0.2305  0.9124  0.4627
 3389TIP3    H231659   3.340   1.810  -0.002  0.2927  0.8829  0.5730
 3390TIP3   OH231660   3.555   2.528  15.026  0.0487 -0.1999  0.0729
 3390TIP3    H131661   3.578   2.436  15.018  0.9314 -0.1742  1.9171
 3390TIP3    H231662   3.632   2.576  14.996 -0.0037 -0.0634  0.1512
 3391TIP3   OH231663   0.550   5.539   1.714  0.1211 -0.3565  0.1103
 3391TIP3    H131664   0.635   5.514   1.749  0.1759 -0.3948 -0.0519
 3391TIP3    H231665   0.563   5.545   1.619 -0.5932 -2.5254 -0.1831
 3392TIP3   OH231666   2.314   0.642   6.683 -0.4028  0.1750  0.0175
 3392TIP3    H131667   2.243   0.664   6.743  0.4822 -0.0453  1.1884
 3392TIP3    H231668   2.301   0.549   6.664  0.5620 -0.3623  1.6973
 3393TIP3   OH231669   5.751   3.232   1.305 -0.3788 -0.2851 -0.1594
 3393TIP3    H131670   5.663   3.194   1.306 -1.2508  1.4709 -2.0822
 3393TIP3    H231671   5.762   3.265   1.216  1.6581  0.8456  0.4383
 3394TIP3   OH231672   4.936   3.616  13.298 -0.1874  0.0630 -0.5041
 3394TIP3    H131673   5.023   3.576  13.311 -0.2507  0.1457  0.2210
 3394TIP3    H231674   4.910   3.645  13.386 -1.4908 -1.0747 -0.4746
 3395TIP3   OH231675   4.987   5.280  13.112 -0.3302  0.1930  0.4966
 3395TIP3    H131676   4.995   5.372  13.139  0.0803  0.4441 -0.4581
 3395TIP3    H231677   4.924   5.243  13.174 -1.9223  1.5713 -0.2264
 3396TIP3   OH231678   0.184   3.960   0.557 -0.0757 -0.5641  0.0728
 3396TIP3    H131679   0.260   4.007   0.522  0.8842 -1.2909  1.0964
 3396TIP3    H231680   0.113   4.025   0.558  1.1175  0.7809  1.1788
 3397TIP3   OH231681   3.517   0.361  14.542  0.7603  0.3045  0.0478
 3397TIP3    H131682   3.463   0.325  14.471 -1.0615  0.6973  1.1648
 3397TIP3    H231683   3.516   0.293  14.609  0.2605  0.9777  0.7392
 3398TIP3   OH231684   3.150   1.041   2.001  0.2382  0.2541  0.0894
 3398TIP3    H131685   3.082   0.974   1.994 -0.0735  0.6793 -1.4332
 3398TIP3    H231686   3.105   1.123   1.980  1.0556  0.6530 -0.1600
 3399TIP3   OH231687   1.771   6.043  12.596  0.1433 -0.4998 -0.2948
 3399TIP3    H131688   1.750   5.993  12.517 -0.8972 -1.5339  0.5913
 3399TIP3    H231689   1.738   6.131  12.578 -2.2860 -1.3151 -0.1466
 3400TIP3   OH231690   5.804   2.406  12.272  0.4043 -0.1217  0.3888
 3400TIP3    H131691   5.822   2.415  12.366  1.6988  0.2411  0.1272
 3400TIP3    H231692   5.860   2.472  12.230 -0.8401  0.3615 -0.5891
 3401TIP3   OH231693   6.663   3.823  16.517  0.1362  0.0114  0.2602
 3401TIP3    H131694   6.618   3.799  16.598  0.1043 -2.9087 -0.4976
 3401TIP3    H231695   6.687   3.915  16.529 -1.0891  0.0794  2.9780
 3402TIP3   OH231696   4.060   2.151  10.628  0.2025  0.4619 -0.9411
 3402TIP3    H131697   4.059   2.059  10.601  0.6939  0.5122 -1.1424
 3402TIP3    H231698   4.139   2.158  10.682 -0.7023  0.3858  0.4295
 3403TIP3   OH231699   1.813   6.240  15.577  0.6088 -0.0010 -0.1870
 3403TIP3    H131700   1.826   6.252  15.483  0.4580 -0.4958 -0.2732
 3403TIP3    H231701   1.855   6.157  15.597  1.5241  0.5802  0.3770
 3404TIP3   OH231702   1.418   1.357  12.654 -0.2206 -0.0209 -0.5683
 3404TIP3    H131703   1.447   1.267  12.643  0.0725  0.0097 -0.0746
 3404TIP3    H231704   1.354   1.371  12.584 -0.7014 -0.7967 -0.2971
 3405TIP3   OH231705   6.725   4.296  13.603  0.2290  0.1331  0.3514
 3405TIP3    H131706   6.761   4.355  13.668  0.0956  0.8588 -0.2227
 3405TIP3    H231707   6.631   4.291  13.624  0.2645  0.0141  0.4839
 3406TIP3   OH231708   4.017   0.146  15.592 -1.1011  0.0134 -0.6303
 3406TIP3    H131709   4.051   0.215  15.536 -0.3864  1.3033  1.3124
 3406TIP3    H231710   3.935   0.119  15.550 -0.1835  0.2721 -2.7363
 3407TIP3   OH231711   2.739   1.353  15.782  0.3359 -0.3812  0.6504
 3407TIP3    H131712   2.822   1.378  15.822  0.1981 -0.1098  0.7741
 3407TIP3    H231713   2.728   1.261  15.805 -0.2509  0.0311  2.1886
 3408TIP3   OH231714   5.121   2.447  16.536 -0.6378  0.4833 -0.2905
 3408TIP3    H131715   5.084   2.509  16.598  0.3364  1.1803 -0.3817
 3408TIP3    H231716   5.207   2.425  16.571 -0.2847  0.4904 -1.1164
 3409TIP3   OH231717   6.431   1.186  15.572 -0.2087  0.4904 -0.2253
 3409TIP3    H131718   6.481   1.222  15.499  1.4620  0.2628  0.7380
 3409TIP3    H231719   6.360   1.249  15.586 -0.5412  0.5551 -1.9855
 3410TIP3   OH231720   1.312   1.120  14.580 -0.2934  0.0460  0.1371
 3410TIP3    H131721   1.393   1.081  14.613  0.3144  0.9920 -0.2073
 3410TIP3    H231722   1.271   1.049  14.529  0.5198 -0.3177 -0.0314
 3411TIP3   OH231723   5.681   5.858   0.958  0.3257  0.1088 -0.2538
 3411TIP3    H131724   5.757   5.799   0.960 -0.3167 -0.7918 -1.2137
 3411TIP3    H231725   5.605   5.799   0.962 -0.3341  1.0134  1.0844
 3412TIP3   OH231726   6.209   3.153   4.804  0.2365 -0.0274  0.4764
 3412TIP3    H131727   6.250   3.112   4.880 -0.0860  0.2584  0.8111
 3412TIP3    H231728   6.282   3.197   4.759  0.1959  1.2320  1.5525
 3413TIP3   OH231729   6.475   5.561   4.665  0.1143 -0.0547 -0.3137
 3413TIP3    H131730   6.493   5.482   4.613  1.4481 -1.0077  1.5005
 3413TIP3    H231731   6.395   5.540   4.714  0.8709 -0.6014  0.7173
 3414TIP3   OH231732   6.276   0.195   5.065 -0.0817 -0.1349  0.1222
 3414TIP3    H131733   6.286   0.103   5.039 -0.7074 -0.2315  0.2051
 3414TIP3    H231734   6.186   0.201   5.096  0.5142  0.0654  1.9386
 3415TIP3   OH231735   2.968   0.779  14.545 -0.1390 -0.4280 -0.4502
 3415TIP3    H131736   3.020   0.699  14.536 -0.9701 -1.2750  1.6092
 3415TIP3    H231737   3.022   0.836  14.600 -0.2248 -0.2189 -0.5837
 3416TIP3   OH231738   3.048   5.449  15.164 -0.9953  0.4244  0.5107
 3416TIP3    H131739   3.006   5.459  15.249  0.7236  0.4774  1.3972
 3416TIP3    H231740   3.116   5.384  15.178  0.2756  1.5016 -0.4343
 3417TIP3   OH231741   6.656   0.421   3.308 -0.5529  0.2250 -0.1498
 3417TIP3    H131742   6.600   0.486   3.351  2.1679  2.2105  0.6441
 3417TIP3    H231743   6.686   0.465   3.229  1.1198 -0.1330  0.2567
 3418TIP3   OH231744   0.588   4.026  13.432  0.3797 -0.4981  0.4907
 3418TIP3    H131745   0.588   3.963  13.359  2.1721 -0.4121  0.3892
 3418TIP3    H231746   0.592   3.971  13.510 -0.7729 -0.5604  0.5349
 3419TIP3   OH231747   2.206   0.470  17.232  0.2678 -0.3168 -0.5329
 3419TIP3    H131748   2.143   0.428  17.290  0.7560  1.3865  1.3366
 3419TIP3    H231749   2.234   0.401  17.172  0.3708 -2.3980  1.7934
 3420TIP3   OH231750   2.191   3.603  15.840  0.1947 -0.2038  0.1974
 3420TIP3    H131751   2.097   3.597  15.857  0.1892  0.4880  0.4563
 3420TIP3    H231752   2.231   3.540  15.899 -0.1046 -0.4712  0.1134
 3421TIP3   OH231753   4.174   0.219  16.984 -0.0089 -0.5356  0.2510
 3421TIP3    H131754   4.119   0.145  16.958 -0.7741  0.6042 -1.5108
 3421TIP3    H231755   4.263   0.194  16.959 -0.4069 -0.4578 -1.2885
 3422TIP3   OH231756   2.649   0.288   0.657  0.0768  0.1393  0.3612
 3422TIP3    H131757   2.676   0.378   0.677  1.6102 -0.0912 -0.4953
 3422TIP3    H231758   2.554   0.292   0.650  0.1839  1.8804 -0.5299
 3423TIP3   OH231759   1.707   3.499   5.884  0.2698  0.2479 -0.6018
 3423TIP3    H131760   1.706   3.514   5.979  0.0200  0.0261 -0.5648
 3423TIP3    H231761   1.773   3.559   5.850  0.3560  0.3330 -0.2864
 3424TIP3   OH231762   3.083   2.564  13.774 -0.4208 -0.1178  0.0773
 3424TIP3    H131763   3.011   2.510  13.806 -1.5781  0.6734 -1.0976
 3424TIP3    H231764   3.050   2.604  13.694  0.5501  1.9456  0.6168
 3425TIP3   OH231765   1.073   0.417  15.728  0.7962  0.2769 -0.2679
 3425TIP3    H131766   1.150   0.365  15.753  0.3155 -0.5609 -0.5019
 3425TIP3    H231767   1.058   0.394  15.636 -0.9490 -1.1754  0.3155
 3426TIP3   OH231768   3.921   6.210  17.026 -0.1365 -0.3607 -0.6481
 3426TIP3    H131769   3.904   6.210  16.931 -1.1376  0.9889 -0.4994
 3426TIP3    H231770   3.836   6.190  17.065  0.6898 -3.0846 -0.0186
 3427TIP3   OH231771   1.134   4.907   2.059  0.2402  0.4946  0.2293
 3427TIP3    H131772   1.212   4.943   2.016 -0.6352  0.7495 -1.1976
 3427TIP3    H231773   1.114   4.969   2.129  0.3125  1.3576 -0.4987
 3428TIP3   OH231774   1.958   3.552  13.448 -0.2136 -0.0184 -0.2346
 3428TIP3    H131775   1.903   3.523  13.375  0.7443  1.5027 -1.6114
 3428TIP3    H231776   2.001   3.472  13.478  0.5030 -0.4694 -2.3055
 3429TIP3   OH231777   5.890   1.305  11.032  0.2715  0.3304 -0.2787
 3429TIP3    H131778   5.825   1.236  11.020  0.6251  0.2699 -2.2450
 3429TIP3    H231779   5.974   1.259  11.029  0.4665  0.6278  0.4155
 3430TIP3   OH231780   1.438   5.484  14.274 -0.3374 -0.6264 -0.4571
 3430TIP3    H131781   1.481   5.399  14.281 -0.8780 -0.8655 -0.0334
 3430TIP3    H231782   1.506   5.542  14.239  0.4268 -0.9350  0.4759
 3431TIP3   OH231783   1.829   2.286   3.150  0.2330 -0.1982  0.6778
 3431TIP3    H131784   1.809   2.337   3.229  0.9157  0.0086  0.7176
 3431TIP3    H231785   1.793   2.199   3.169  3.0498 -1.0897  2.5371
 3432TIP3   OH231786   0.138   3.201  14.999  0.9270  0.0394 -0.7943
 3432TIP3    H131787   0.207   3.152  15.044  0.1937 -1.1121 -0.8759
 3432TIP3    H231788   0.098   3.254  15.068 -0.7794 -2.3684  0.2228
 3433TIP3   OH231789   1.088   3.682   4.511  0.0900 -0.1394 -0.3585
 3433TIP3    H131790   1.049   3.721   4.433 -0.3101  0.1464 -0.0093
 3433TIP3    H231791   1.036   3.714   4.584 -0.2701 -1.3363 -0.0659
 3434TIP3   OH231792   3.793   5.399   1.566 -0.7061 -0.2608  0.1193
 3434TIP3    H131793   3.824   5.483   1.532 -0.0792 -0.2454  0.7128
 3434TIP3    H231794   3.863   5.369   1.624 -1.7327 -0.2930  1.3923
 3435TIP3   OH231795   2.060   4.679  12.437  0.6470 -0.2787  0.1341
 3435TIP3    H131796   2.054   4.599  12.488  0.6108 -0.2437  0.1841
 3435TIP3    H231797   2.065   4.750  12.502  0.1781 -0.2015  0.0878
 3436TIP3   OH231798   2.722   6.469   0.933 -0.5086 -0.1616  0.3567
 3436TIP3    H131799   2.644   6.513   0.966  0.0316  1.9432 -0.9833
 3436TIP3    H231800   2.795   6.519   0.970  0.1775 -0.9599  0.1064
 3437TIP3   OH231801   0.423   6.237   6.246  0.5585 -0.4382 -0.3041
 3437TIP3    H131802   0.374   6.284   6.179 -0.3694 -0.8664  0.0553
 3437TIP3    H231803   0.393   6.275   6.329 -0.6614 -2.0278  0.0347
 3438TIP3   OH231804   5.544   0.261   2.777 -0.3275  0.0304  0.2864
 3438TIP3    H131805   5.534   0.355   2.761 -0.5299 -0.2162 -1.2331
 3438TIP3    H231806   5.572   0.226   2.693  1.8670 -0.9900  1.3818
 3439TIP3   OH231807   4.861   2.443   5.021  0.0062 -0.2901 -0.2507
 3439TIP3    H131808   4.868   2.350   5.043  0.8865  0.2457  1.9439
 3439TIP3    H231809   4.802   2.479   5.087  1.3062  1.0771  0.2184
 3440TIP3   OH231810   6.057   3.704   4.068 -0.1103 -0.0175  0.3993
 3440TIP3    H131811   6.052   3.630   4.129 -0.8118 -0.7069 -0.4719
 3440TIP3    H231812   6.012   3.674   3.989  2.4462  0.0795 -1.2506
 3441TIP3   OH231813   0.649   0.130  16.747 -0.2227 -0.2608  0.2487
 3441TIP3    H131814   0.621   0.152  16.658 -0.5658  2.1911  0.9053
 3441TIP3    H231815   0.738   0.095  16.736 -1.2464 -2.6597 -1.2663
 3442TIP3   OH231816   2.493   4.042   3.244 -0.3249 -0.2122 -0.8859
 3442TIP3    H131817   2.429   3.972   3.240 -0.2137 -0.3000 -1.1609
 3442TIP3    H231818   2.509   4.055   3.337  0.4572 -1.2912 -0.8554
 3443TIP3   OH231819   4.005   6.552  14.075 -0.5085 -0.9338  0.5562
 3443TIP3    H131820   3.928   6.607  14.090  0.4778  0.3533  1.1394
 3443TIP3    H231821   3.996   6.481  14.139 -1.1944 -0.7816  0.6371
 3444TIP3   OH231822   0.085   3.998  14.638  0.6953 -0.0685  0.5081
 3444TIP3    H131823   0.119   3.910  14.621  1.7105  0.6341 -1.3385
 3444TIP3    H231824   0.161   4.048  14.666  0.3458  0.4707  0.4968
 3445TIP3   OH231825   6.075   3.170  14.156 -0.3835  0.6345  0.0432
 3445TIP3    H131826   6.038   3.137  14.238  0.7283  2.1179  1.1897
 3445TIP3    H231827   6.020   3.245  14.134  0.8122  1.7820  0.8236
 3446TIP3   OH231828   1.567   2.435  13.708  0.2404 -0.3659 -0.0417
 3446TIP3    H131829   1.496   2.476  13.757  0.7665  1.4711 -0.7329
 3446TIP3    H231830   1.639   2.428  13.770  0.2634  0.1250 -0.0084
 3447TIP3   OH231831   4.384   1.672  13.000 -0.2336 -0.4696 -0.4710
 3447TIP3    H131832   4.299   1.636  13.025 -0.4627  0.2144 -0.2605
 3447TIP3    H231833   4.376   1.691  12.907 -0.9945  1.4344 -0.0581
 3448TIP3   OH231834   0.027   5.405   2.052  0.3495  0.2827  0.2379
 3448TIP3    H131835   0.122   5.395   2.055  0.2062 -1.1867  1.7043
 3448TIP3    H231836  -0.001   5.346   1.982  0.4625  0.0071  0.4223
 3449TIP3   OH231837   3.572   6.588   5.760  0.2602  0.0416  0.5787
 3449TIP3    H131838   3.533   6.663   5.715  0.3762 -0.4127 -0.2929
 3449TIP3    H231839   3.650   6.624   5.803  0.1671  0.4726  0.3913
 3450TIP3   OH231840   4.829   6.085  16.176  0.3303 -0.0048 -0.1418
 3450TIP3    H131841   4.868   6.016  16.122 -1.3995 -1.0393 -0.1461
 3450TIP3    H231842   4.737   6.059  16.185 -0.0817  1.6783  0.8843
 3451TIP3   OH231843   6.430   6.304   4.640 -0.3118 -0.3299 -0.6991
 3451TIP3    H131844   6.403   6.324   4.550 -0.2907 -0.4011 -0.7214
 3451TIP3    H231845   6.523   6.324   4.642 -0.7635  1.9534 -0.0455
 3452TIP3   OH231846   4.917   2.244  13.760 -0.3819 -0.4451 -0.1001
 3452TIP3    H131847   4.953   2.198  13.835  1.1487  0.4656 -0.2408
 3452TIP3    H231848   4.911   2.178  13.691 -0.2568 -0.9129  0.3342
 3453TIP3   OH231849   3.837   6.259  12.104 -0.6466 -0.2454  0.1833
 3453TIP3    H131850   3.767   6.270  12.169 -1.4653  0.6671 -0.8050
 3453TIP3    H231851   3.813   6.319  12.033  0.7612 -0.4645 -0.5143
 3454TIP3   OH231852   4.081   5.315  12.170 -0.4879 -0.9247  0.0200
 3454TIP3    H131853   3.996   5.303  12.127 -0.2997 -0.0059 -0.6423
 3454TIP3    H231854   4.125   5.382  12.118  0.0134 -0.2311  1.3009
 3455TIP3   OH231855   3.269   0.249  15.917  0.0223 -0.0832 -0.1901
 3455TIP3    H131856   3.284   0.159  15.888  1.7935  0.1897 -0.2137
 3455TIP3    H231857   3.326   0.259  15.993 -0.6062  0.8604  0.1743
 3456TIP3   OH231858   0.200   5.941   2.287  0.5150  0.0420 -0.3384
 3456TIP3    H131859   0.185   5.855   2.327  0.1919  0.0247 -0.4950
 3456TIP3    H231860   0.294   5.957   2.299  0.6134 -0.4188 -0.4803
 3457TIP3   OH231861   4.338   4.524   3.184  0.3965  0.3568  0.3960
 3457TIP3    H131862   4.401   4.515   3.112 -0.1138  0.8018 -0.1193
 3457TIP3    H231863   4.285   4.444   3.179 -0.5142  0.9853 -0.6105
 3458TIP3   OH231864   6.687   2.767   0.111  0.2276 -0.4771  0.4082
 3458TIP3    H131865   6.663   2.778   0.202 -1.5980  0.7327 -0.1668
 3458TIP3    H231866   6.732   2.848   0.087 -1.1219  0.1071 -0.2659
 3459TIP3   OH231867   0.147   6.212   2.103 -0.4292  0.4760  0.4527
 3459TIP3    H131868   0.052   6.202   2.105 -0.3859  0.0129  0.3177
 3459TIP3    H231869   0.177   6.144   2.042  0.1134 -0.3859  1.6496
 3460TIP3   OH231870   2.861   0.463   5.097  0.2227  0.1539  0.0226
 3460TIP3    H131871   2.871   0.419   5.181 -0.5643 -1.4528 -0.6618
 3460TIP3    H231872   2.777   0.431   5.063  0.3585  1.0213 -1.2181
 3461TIP3   OH231873   6.552   3.357   2.491  0.0379 -0.2650  0.1016
 3461TIP3    H131874   6.602   3.311   2.423  0.6442  1.0655 -0.3799
 3461TIP3    H231875   6.549   3.295   2.564  0.2277 -1.3367 -0.7622
 3462TIP3   OH231876   1.553   4.220  15.062 -0.2863  0.5042 -0.2155
 3462TIP3    H131877   1.645   4.196  15.069 -0.4156 -0.2890 -0.9706
 3462TIP3    H231878   1.517   4.205  15.150  0.1189 -0.0318 -0.1359
 3463TIP3   OH231879   4.885   6.410   4.494  0.0851 -0.1609  0.3341
 3463TIP3    H131880   4.793   6.433   4.481  0.5206  1.9996  0.7377
 3463TIP3    H231881   4.929   6.443   4.416  0.2916 -3.1568 -0.9382
 3464TIP3   OH231882   4.866   1.577  14.279 -0.0019 -0.3501  0.0344
 3464TIP3    H131883   4.806   1.586  14.206  1.4487 -1.4826 -1.3752
 3464TIP3    H231884   4.888   1.667  14.303  0.7276  0.0765 -2.0258
 3465TIP3   OH231885   2.906   5.438  16.621 -0.5059 -0.3914 -0.3542
 3465TIP3    H131886   2.832   5.446  16.681 -0.7910 -2.7250 -0.3100
 3465TIP3    H231887   2.944   5.352  16.640  0.6575 -0.3301 -2.1157
 3466TIP3   OH231888   5.405   4.504  15.322  0.5654 -0.3270  0.1419
 3466TIP3    H131889   5.470   4.570  15.348 -0.3306  0.1216  1.3318
 3466TIP3    H231890   5.332   4.516  15.384 -0.3201 -1.3392 -0.6622
 3467TIP3   OH231891   0.327   2.392   6.516  0.2261  0.1495 -0.5070
 3467TIP3    H131892   0.271   2.352   6.450 -0.3354 -0.2642  0.2112
 3467TIP3    H231893   0.409   2.344   6.511 -1.2185 -2.9058  2.0419
 3468TIP3   OH231894   2.549   5.071   2.944 -0.3088 -0.1700  0.2559
 3468TIP3    H131895   2.586   4.985   2.925 -0.4493 -0.3561  0.8212
 3468TIP3    H231896   2.513   5.063   3.032 -0.1741  0.5135  0.3785
 3469TIP3   OH231897   1.134   6.495   2.433  0.0807  0.6159  0.3316
 3469TIP3    H131898   1.112   6.511   2.342  0.0486  0.3795  0.2973
 3469TIP3    H231899   1.229   6.498   2.436  0.1153 -0.1059  0.1509
 3470TIP3   OH231900   1.670   6.272   5.226  0.4917  0.1592  0.2715
 3470TIP3    H131901   1.717   6.322   5.293  2.9854  0.7816 -1.8052
 3470TIP3    H231902   1.602   6.331   5.195 -0.1382  0.1684  1.5778
 3471TIP3   OH231903   1.429   0.914  13.234  0.5331  0.3623 -0.4263
 3471TIP3    H131904   1.347   0.909  13.185 -0.2930 -1.6933  1.0510
 3471TIP3    H231905   1.425   0.842  13.297  2.2658  1.8659  1.5726
 3472TIP3   OH231906   4.898   4.129  15.444 -0.3595  0.9803  0.0271
 3472TIP3    H131907   4.879   4.216  15.409  0.2195  1.0471 -0.1381
 3472TIP3    H231908   4.992   4.130  15.461  0.1979 -0.4502 -2.4322
 3473TIP3   OH231909   6.144   5.448  11.415  0.2889  0.8171  0.4783
 3473TIP3    H131910   6.083   5.441  11.488 -0.0982  1.5421  0.2315
 3473TIP3    H231911   6.123   5.374  11.358  1.4126 -0.4909  1.6834
 3474TIP3   OH231912   1.399   5.959   0.722 -0.0740  0.3062 -0.6215
 3474TIP3    H131913   1.462   5.974   0.651  0.8168  2.3620  0.5033
 3474TIP3    H231914   1.415   5.869   0.749  2.8188  0.8891 -0.0622
 3475TIP3   OH231915   0.421   4.070  13.115 -0.1821 -0.0735  0.1407
 3475TIP3    H131916   0.326   4.066  13.108 -0.1260 -2.8563 -0.3353
 3475TIP3    H231917   0.440   4.024  13.197  0.7697 -0.1391 -0.1075
 3476TIP3   OH231918   2.090   5.937   2.096  0.0386 -0.7374  0.4668
 3476TIP3    H131919   2.119   5.999   2.163 -1.6612 -0.1018  0.6581
 3476TIP3    H231920   2.171   5.909   2.054  1.0618 -0.2786  2.0134
 3477TIP3   OH231921   3.286   5.693   3.392  0.0547  0.6625 -0.6224
 3477TIP3    H131922   3.264   5.778   3.354  1.8498  0.5885 -1.9650
 3477TIP3    H231923   3.362   5.663   3.342  0.1622 -1.2327  0.5607
 3478TIP3   OH231924   6.052   3.917   4.946 -0.2148 -0.1415 -0.1197
 3478TIP3    H131925   6.032   4.004   4.980  0.7401 -0.1849  0.5840
 3478TIP3    H231926   6.101   3.934   4.865  2.2691  0.0649  1.3157
 3479TIP3   OH231927   4.853   5.789  16.886  0.1177 -0.2182 -0.3807
 3479TIP3    H131928   4.829   5.862  16.942 -2.5178 -1.4342  0.2106
 3479TIP3    H231929   4.892   5.830  16.808  0.7274  1.6451  0.8523
 3480TIP3   OH231930   5.589   6.461  16.721 -0.0162 -0.1038 -0.4637
 3480TIP3    H131931   5.555   6.517  16.791 -0.6917 -1.6558  0.5149
 3480TIP3    H231932   5.657   6.409  16.764 -0.6596 -1.3027 -0.8391
 3481TIP3   OH231933   6.686   6.128  14.734 -0.3095  0.6742  0.3411
 3481TIP3    H131934   6.647   6.062  14.676 -0.4363  0.9358  0.1260
 3481TIP3    H231935   6.617   6.192  14.748  0.2816  1.5929 -0.7335
 3482TIP3   OH231936   5.900   5.205   0.918 -0.4069  0.0377 -0.2680
 3482TIP3    H131937   5.902   5.165   0.831  3.8979 -1.9036  0.5018
 3482TIP3    H231938   5.978   5.260   0.922 -0.6702  0.3580  2.2769
 3483TIP3   OH231939   5.054   6.764   3.495 -0.7553  0.1443  0.0846
 3483TIP3    H131940   5.116   6.716   3.550  2.2284  0.4442 -2.7275
 3483TIP3    H231941   5.064   6.855   3.522  0.9703  0.3390 -1.1059
 3484TIP3   OH231942   0.665   3.014  14.041 -0.2201  0.0920 -0.1778
 3484TIP3    H131943   0.614   3.018  14.122  2.2139 -0.9301  1.5307
 3484TIP3    H231944   0.624   2.944  13.990 -4.3308  3.3033 -1.9197
 3485TIP3   OH231945   2.857   5.739   4.610  0.4216  0.5681 -0.2007
 3485TIP3    H131946   2.937   5.791   4.597  1.7408 -0.6203  2.3148
 3485TIP3    H231947   2.849   5.732   4.705 -1.7389 -0.8063 -0.4248
 3486TIP3   OH231948   6.126   5.558  15.358 -0.3801  0.0914  0.6962
 3486TIP3    H131949   6.181   5.633  15.336 -0.8136 -0.0162 -0.8531
 3486TIP3    H231950   6.157   5.488  15.300 -1.2949 -0.3445  0.7127
 3487TIP3   OH231951   0.938   6.708   4.743  0.1053 -0.2562 -0.0012
 3487TIP3    H131952   0.874   6.663   4.799 -0.1786 -0.1058 -0.2019
 3487TIP3    H231953   0.890   6.784   4.709  0.3941 -0.1415 -0.1483
 3488TIP3   OH231954   5.017   2.716   1.179  0.1495 -0.2552  0.2255
 3488TIP3    H131955   5.080   2.738   1.110  1.1568 -2.4979  0.3457
 3488TIP3    H231956   4.990   2.627   1.160  0.0983 -0.7844  2.4670
 3489TIP3   OH231957   2.898   5.130   2.341 -0.2890  0.4742  1.0192
 3489TIP3    H131958   2.993   5.119   2.336 -0.0752  1.6449  2.0569
 3489TIP3    H231959   2.863   5.055   2.292  1.1554  0.0243  0.6142
 3490TIP3   OH231960   3.348   5.726   4.578  0.4799  0.2941 -0.0023
 3490TIP3    H131961   3.324   5.768   4.661 -0.2245 -0.5270  0.2164
 3490TIP3    H231962   3.277   5.750   4.518  0.6198  0.2857 -0.1725
 3491TIP3   OH231963   0.868   2.437   2.199 -0.3159  0.0858 -0.4253
 3491TIP3    H131964   0.910   2.517   2.166 -0.3914 -0.2825 -1.4561
 3491TIP3    H231965   0.863   2.379   2.122 -1.0947 -0.5561  0.0929
 3492TIP3   OH231966   6.620   0.467   4.044  0.8935 -0.2768  0.6583
 3492TIP3    H131967   6.577   0.552   4.041  0.6813 -0.2658  2.7698
 3492TIP3    H231968   6.649   0.457   4.135  3.9378 -0.9965 -0.2522
 3493TIP3   OH231969   5.677   6.389   0.435 -0.2127  1.0056  0.4400
 3493TIP3    H131970   5.616   6.391   0.362  0.1266  0.1756  0.1189
 3493TIP3    H231971   5.642   6.322   0.494  0.7596 -0.0161 -0.1057
 3494TIP3   OH231972   1.195   6.023  14.538 -0.3928  0.4968  0.4032
 3494TIP3    H131973   1.202   6.011  14.633 -1.2674 -4.5571  0.1248
 3494TIP3    H231974   1.114   5.977  14.515  0.7523 -0.0905 -2.9376
 3495TIP3   OH231975   1.309   6.627  16.953  0.3227 -0.1437  0.0517
 3495TIP3    H131976   1.335   6.686  17.024  0.2578 -0.4971  0.3744
 3495TIP3    H231977   1.379   6.561  16.950 -0.1570 -0.6846  0.4422
 3496TIP3   OH231978   2.648   6.339   1.295  0.0224  0.2744  0.4477
 3496TIP3    H131979   2.614   6.370   1.379  2.5671  0.3089  1.5569
 3496TIP3    H231980   2.635   6.244   1.299 -0.1937  0.3111  0.6989
 3497TIP3   OH231981   1.139   5.012   3.873 -0.1566 -0.2401 -0.0818
 3497TIP3    H131982   1.083   5.034   3.947 -0.6860  2.1237 -1.1045
 3497TIP3    H231983   1.222   4.985   3.913 -0.3516  1.1997  1.3906
 3498TIP3   OH231984   1.386   4.611   0.832 -0.4076  0.5508 -0.4068
 3498TIP3    H131985   1.414   4.549   0.765 -0.7311  1.2121 -1.1680
 3498TIP3    H231986   1.345   4.556   0.899 -0.1957 -0.1091 -0.8077
 3499TIP3   OH231987   5.514   0.810   2.987 -0.0728 -0.8069  0.1635
 3499TIP3    H131988   5.459   0.827   2.910 -1.7132 -0.7981  1.3025
 3499TIP3    H231989   5.568   0.888   2.995 -0.4419 -0.4692 -0.5349
 3500TIP3   OH231990   5.705   1.827   0.083 -0.2773 -0.0012 -0.3778
 3500TIP3    H131991   5.695   1.784   0.168 -3.0479 -0.0401 -0.6508
 3500TIP3    H231992   5.799   1.846   0.078  0.4011 -2.2437  1.5681
 3501TIP3   OH231993   1.544   2.957   3.839 -0.0648 -0.1041  0.9773
 3501TIP3    H131994   1.487   2.885   3.866  0.0350 -0.3393  0.5651
 3501TIP3    H231995   1.563   2.939   3.747 -1.6079  1.4734  0.2993
 3502TIP3   OH231996   3.683   0.761  14.308  0.5014 -0.3773 -0.1312
 3502TIP3    H131997   3.731   0.725  14.383 -0.1126 -0.2392  0.3348
 3502TIP3    H231998   3.619   0.694  14.286  0.7432 -0.4603 -0.6045
 3503TIP3   OH231999   0.555   5.207   5.827 -0.5409 -0.6382 -0.4935
 3503TIP3    H132000   0.523   5.146   5.894 -0.1000 -1.3422 -0.9224
 3503TIP3    H232001   0.614   5.155   5.773 -0.6561  0.0085 -1.2546
 3504TIP3   OH232002   2.965   5.782   2.221  0.4228 -0.1179  0.9602
 3504TIP3    H132003   3.020   5.820   2.152 -1.7216  0.5096 -0.5310
 3504TIP3    H232004   2.903   5.851   2.242 -1.1466 -1.4817  0.9851
 3505TIP3   OH232005   6.369   1.977  12.124  0.1285 -0.8759 -0.1500
 3505TIP3    H132006   6.447   2.027  12.103  1.5659 -1.8779  2.3874
 3505TIP3    H232007   6.394   1.886  12.109 -0.0056 -1.3230  1.9881
 3506TIP3   OH232008   5.936   0.512  12.020  0.1617 -0.1224 -0.3976
 3506TIP3    H132009   6.001   0.468  11.966 -0.9422 -0.0386 -1.8348
 3506TIP3    H232010   5.988   0.562  12.084  1.4612 -1.8306 -0.0342
 3507TIP3   OH232011   0.138   4.245   0.299 -0.1365  0.2258 -0.3631
 3507TIP3    H132012   0.102   4.333   0.288  0.9215  0.7353  0.1078
 3507TIP3    H232013   0.084   4.206   0.368 -0.1748  0.7684 -0.0757
 3508TIP3   OH232014   2.172   5.889   0.929 -0.1505  0.8089  0.6909
 3508TIP3    H132015   2.267   5.879   0.935 -0.2831  0.1516  2.0778
 3508TIP3    H232016   2.154   5.893   0.835  1.3117  1.6877  0.4194
 3509TIP3   OH232017   5.372   4.535   4.042  0.3890  0.2404 -0.3402
 3509TIP3    H132018   5.368   4.630   4.057  0.4435  0.1507  0.3055
 3509TIP3    H232019   5.314   4.498   4.109 -0.3667 -0.1304 -1.1865
 3510TIP3   OH232020   5.250   6.410   5.089 -0.5690  0.3251  0.6587
 3510TIP3    H132021   5.217   6.398   5.000  0.9544  0.5785  0.0316
 3510TIP3    H232022   5.171   6.410   5.144 -1.4294 -1.5940 -0.4755
 3511TIP3   OH232023   3.947   0.804  15.249  0.9523  0.1754  0.1476
 3511TIP3    H132024   3.884   0.876  15.245 -0.0419 -0.6651  0.2694
 3511TIP3    H232025   3.995   0.810  15.166  0.8368  0.9129  0.1226
 3512TIP3   OH232026   0.228   4.783   2.601 -0.3576  0.2674 -0.5281
 3512TIP3    H132027   0.132   4.791   2.604 -0.3292  0.6672 -0.6831
 3512TIP3    H232028   0.259   4.841   2.670 -0.1622  1.3531 -1.5044
 3513TIP3   OH232029   0.468   4.696   1.652  0.1451 -0.7169  0.2877
 3513TIP3    H132030   0.413   4.690   1.574  1.0755 -1.6584 -0.3338
 3513TIP3    H232031   0.539   4.755   1.627  0.3956 -0.9480  0.4431
 3514TIP3   OH232032   1.232   6.576   5.783 -0.1098  0.6945  0.4153
 3514TIP3    H132033   1.220   6.653   5.727  0.2166  0.9891  0.7430
 3514TIP3    H232034   1.326   6.572   5.799 -0.2797  1.2127  1.7519
 3515TIP3   OH232035   5.019   6.441  17.045  0.4280  0.2834  0.0331
 3515TIP3    H132036   4.938   6.447  16.994 -0.9803  2.5316  2.3066
 3515TIP3    H232037   5.042   6.348  17.044 -0.8133 -0.0809 -2.6194
 3516TIP3   OH232038   0.254   3.289  16.448 -0.0398 -0.3325  0.0001
 3516TIP3    H132039   0.209   3.210  16.480 -0.2981  0.3368  1.3355
 3516TIP3    H232040   0.190   3.359  16.458  0.9014  0.4338  0.8604
 3517TIP3   OH232041   6.370   1.941   5.077 -0.4114  0.2183  0.1203
 3517TIP3    H132042   6.427   1.872   5.042 -0.8658 -0.1644  0.1135
 3517TIP3    H232043   6.283   1.918   5.044 -0.5741  0.7761  0.1550
 3518TIP3   OH232044   2.420   4.581  12.560 -0.2953 -0.3320  0.2423
 3518TIP3    H132045   2.389   4.671  12.549 -3.1922 -1.1460  0.8765
 3518TIP3    H232046   2.508   4.581  12.522 -0.7356  2.4239 -1.0126
 3519TIP3   OH232047   2.302   6.141  11.907 -0.8389  0.2105  0.0993
 3519TIP3    H132048   2.247   6.217  11.891  0.3180  0.9613 -0.4327
 3519TIP3    H232049   2.366   6.142  11.836  1.1341  0.5524  1.8067
 3520TIP3   OH232050   0.226   5.192  14.696 -0.1420  1.1221  0.0765
 3520TIP3    H132051   0.148   5.247  14.701 -2.8909 -2.3512 -0.8034
 3520TIP3    H232052   0.248   5.173  14.788 -0.8228  1.5155  0.3252
 3521TIP3   OH232053   2.186   3.055  12.181 -0.2770  0.0082  0.2077
 3521TIP3    H132054   2.129   3.065  12.257  0.7026 -0.5102  1.0377
 3521TIP3    H232055   2.251   2.990  12.208 -0.2669 -0.6495 -1.2904
 3522TIP3   OH232056   3.758   5.920  16.070  0.1075 -0.0053  0.0404
 3522TIP3    H132057   3.828   5.878  16.020  0.5248 -0.6655  1.1469
 3522TIP3    H232058   3.715   5.978  16.007  1.9240  0.7686 -0.5428
 3523TIP3   OH232059   6.627   6.632   5.946 -0.1788  0.1573 -0.2393
 3523TIP3    H132060   6.712   6.588   5.948  0.3311  1.1386  0.6228
 3523TIP3    H232061   6.639   6.703   5.884 -0.1872  0.6433  0.3120
 3524TIP3   OH232062   5.912   2.362   5.562 -0.2996 -0.4893 -0.1948
 3524TIP3    H132063   5.873   2.276   5.545 -2.6852  0.4341  0.1766
 3524TIP3    H232064   5.859   2.398   5.632  0.8190  1.1946 -0.1794
 3525TIP3   OH232065   6.017   6.253  16.141 -0.0374 -0.2357  0.1178
 3525TIP3    H132066   5.934   6.282  16.178 -0.2370  0.1703 -0.6283
 3525TIP3    H232067   6.080   6.263  16.213 -0.1082  1.9888 -0.0343
 3526TIP3   OH232068   2.859   5.503   1.620  0.3458  0.0467  0.0845
 3526TIP3    H132069   2.770   5.486   1.651  0.2400 -0.6851 -0.5657
 3526TIP3    H232070   2.902   5.417   1.623  0.8692  0.2971 -0.0990
 3527TIP3   OH232071   6.607   4.899   1.961  0.2632 -0.3850 -0.1308
 3527TIP3    H132072   6.582   4.862   1.877  1.1694 -0.0700 -0.5554
 3527TIP3    H232073   6.700   4.919   1.951  0.0497  0.9895  0.4500
 3528TIP3   OH232074   4.068   4.579   0.458  0.7923 -0.0962 -0.2097
 3528TIP3    H132075   4.152   4.596   0.499  0.1002  1.5713  0.6132
 3528TIP3    H232076   4.004   4.591   0.528 -0.1906 -0.6024 -0.9862
 3529TIP3   OH232077   1.493   1.860   0.810 -0.7831  0.0711 -0.3162
 3529TIP3    H132078   1.535   1.856   0.724 -2.2649  0.4500 -1.0925
 3529TIP3    H232079   1.399   1.863   0.791 -1.1438  0.1949  1.3198
 3530TIP3   OH232080   6.450   0.141   3.877 -0.0265  0.0771 -0.5362
 3530TIP3    H132081   6.487   0.055   3.860 -0.3088  0.1260 -1.4868
 3530TIP3    H232082   6.496   0.199   3.816  1.2635  0.8982  1.1416
 3531TIP3   OH232083   3.267   5.701  17.210 -0.4261 -0.4485 -0.2255
 3531TIP3    H132084   3.237   5.731  17.124 -0.9646  0.4701  0.2619
 3531TIP3    H232085   3.263   5.780  17.265 -0.6379 -1.1461  0.7775
 3532TIP3   OH232086   4.697   6.704  12.656  0.0854  0.0458 -0.1901
 3532TIP3    H132087   4.787   6.720  12.685  0.0054 -0.3853  0.3098
 3532TIP3    H232088   4.681   6.771  12.590  0.3088  0.9896  0.6914
 3533TIP3   OH232089   0.749   0.245  15.534 -0.0234 -0.0876 -0.9496
 3533TIP3    H132090   0.660   0.226  15.504 -1.1998 -0.4454  2.2908
 3533TIP3    H232091   0.803   0.177  15.495 -1.3760 -0.5520 -2.0918
 3534TIP3   OH232092   2.351   5.140   5.023 -0.7042 -0.0948  0.5074
 3534TIP3    H132093   2.312   5.157   4.937  0.2799 -0.5250 -0.0484
 3534TIP3    H232094   2.444   5.164   5.012 -0.0458 -2.3015  0.7483
 3535TIP3   OH232095   0.768   1.295   3.438 -0.5929  0.1254 -0.0252
 3535TIP3    H132096   0.735   1.379   3.471 -1.3296 -1.0752  2.5199
 3535TIP3    H232097   0.692   1.252   3.401 -0.4715  0.0772 -0.2189
 3536TIP3   OH232098   1.389   0.348   4.156  0.0089  0.1186 -0.3841
 3536TIP3    H132099   1.456   0.374   4.093  0.9398 -0.7959  0.2036
 3536TIP3    H232100   1.332   0.288   4.108  1.0502 -1.0333 -0.2290
 3537TIP3   OH232101   1.015   6.403  12.345  0.5529  0.0194 -0.7623
 3537TIP3    H132102   1.096   6.354  12.355  0.6507  0.3683  0.2138
 3537TIP3    H232103   0.979   6.373  12.261  0.9915 -1.1401 -0.5507
 3538TIP3   OH232104   3.986   1.528  12.047  0.5049  0.1853  0.0251
 3538TIP3    H132105   4.081   1.522  12.041  0.5958  0.1100  1.2881
 3538TIP3    H232106   3.954   1.444  12.014  0.9683 -0.4114  1.0285
 3539TIP3   OH232107   1.651   2.592  15.134 -0.6169 -0.0754  0.4359
 3539TIP3    H132108   1.586   2.527  15.106 -0.1446  0.2859 -1.6865
 3539TIP3    H232109   1.734   2.557  15.101 -0.2258  1.1216  0.1256
 3540TIP3   OH232110   0.944   3.877   4.040 -0.2507 -0.4341 -0.9049
 3540TIP3    H132111   0.856   3.849   4.069  0.3833 -2.3257 -0.6778
 3540TIP3    H232112   0.936   3.972   4.030 -1.2368  0.1068  3.1543
 3541TIP3   OH232113   5.022   4.811  14.586 -0.3761 -0.0782 -0.1253
 3541TIP3    H132114   5.117   4.813  14.600 -0.3229 -1.2117 -0.2189
 3541TIP3    H232115   5.009   4.741  14.522 -1.3060 -0.2043  0.1899
 3542TIP3   OH232116   3.799   4.377   5.926  0.2184  0.3816  0.0972
 3542TIP3    H132117   3.892   4.399   5.934  0.3840  0.0983 -0.8765
 3542TIP3    H232118   3.783   4.315   5.997  0.8030  0.3772  0.2297
 3543TIP3   OH232119   3.160   1.015   3.315 -0.2271 -0.1285  0.0341
 3543TIP3    H132120   3.137   0.949   3.381 -1.3699  1.8478  1.7080
 3543TIP3    H232121   3.254   1.028   3.326 -0.5974  1.1494  2.3318
 3544TIP3   OH232122   5.979   1.334  14.709 -0.1117  0.2772  0.3080
 3544TIP3    H132123   6.058   1.283  14.694  0.3517  1.1729 -0.4153
 3544TIP3    H232124   5.986   1.365  14.799  1.1319  1.6146 -0.2183
 3545TIP3   OH232125   6.129   6.749   5.148  0.2928 -0.1977 -0.0475
 3545TIP3    H132126   6.187   6.753   5.223 -2.7504 -2.0881  2.6700
 3545TIP3    H232127   6.044   6.780   5.181 -1.1765 -0.9742 -2.7308
 3546TIP3   OH232128   6.126   2.102  13.221 -0.4098  0.0991 -0.0773
 3546TIP3    H132129   6.038   2.064  13.222 -0.3952 -0.0005 -1.2564
 3546TIP3    H232130   6.148   2.109  13.128  0.6849  0.4666  0.1966
 3547TIP3   OH232131   0.106   3.895   2.184 -0.2721 -0.0944  0.0974
 3547TIP3    H132132   0.176   3.859   2.239  1.5059  0.2638 -1.8126
 3547TIP3    H232133   0.145   3.970   2.141 -1.5351 -0.4137 -1.7234
 3548TIP3   OH232134   4.044   1.404   1.136 -0.2159  0.0200 -0.3072
 3548TIP3    H132135   4.030   1.489   1.096 -0.5375  0.7634  1.3313
 3548TIP3    H232136   4.114   1.418   1.199 -0.8387 -0.7333  0.5787
 3549TIP3   OH232137   5.152   1.821   2.794 -0.4600 -0.2818  0.0139
 3549TIP3    H132138   5.157   1.908   2.832 -0.3762 -0.0878 -0.4343
 3549TIP3    H232139   5.063   1.791   2.814 -0.6523  0.1031 -0.2469
 3550TIP3   OH232140   0.253   6.363  14.289 -0.3060 -0.5865  0.0120
 3550TIP3    H132141   0.214   6.404  14.212 -1.4659 -0.7059  0.5160
 3550TIP3    H232142   0.206   6.280  14.299 -0.4347 -0.4055  1.0536
 3551TIP3   OH232143   0.796   4.888   2.332 -0.1829 -0.1032  0.0458
 3551TIP3    H132144   0.718   4.865   2.383 -0.6072  0.2031 -0.4500
 3551TIP3    H232145   0.869   4.848   2.379 -0.6478 -0.4296  0.4944
 3552TIP3   OH232146   0.852   1.619  14.849 -0.5707  0.1370 -0.0797
 3552TIP3    H132147   0.849   1.698  14.795 -0.5435  3.3922  4.1383
 3552TIP3    H232148   0.945   1.606  14.869 -0.6721 -0.3132  0.1251
 3553TIP3   OH232149   3.971   3.824  11.889 -0.0215 -0.2568 -0.0206
 3553TIP3    H132150   3.988   3.729  11.888  2.2328  0.0666 -1.9645
 3553TIP3    H232151   3.885   3.833  11.849 -0.6269 -1.4886  0.9128
 3554TIP3   OH232152   4.621   3.775  16.221 -0.2992 -0.2189 -0.3208
 3554TIP3    H132153   4.646   3.811  16.306 -1.1426  0.6035 -0.4000
 3554TIP3    H232154   4.572   3.846  16.178 -1.4147 -1.2225 -0.7761
 3555TIP3   OH232155   1.281   5.072   4.694  0.1370  0.0237  0.4268
 3555TIP3    H132156   1.208   5.024   4.656 -1.0004  2.8362 -1.2627
 3555TIP3    H232157   1.357   5.014   4.685 -1.2610 -1.6989 -0.7689
 3556TIP3   OH232158   6.734   2.134   6.268  0.4181 -0.5196  0.4428
 3556TIP3    H132159   6.686   2.097   6.342 -1.8068 -1.4772 -1.3712
 3556TIP3    H232160   6.685   2.213   6.245  1.3093 -0.0264  0.1908
 3557TIP3   OH232161   0.657   1.451   4.375  0.3738 -0.4968 -0.2205
 3557TIP3    H132162   0.650   1.546   4.380 -0.0872 -0.4284 -1.6433
 3557TIP3    H232163   0.681   1.424   4.463 -0.6044  0.8411  0.4990
 3558TIP3   OH232164   6.023   1.648   3.230 -0.1092 -0.0700  0.5100
 3558TIP3    H132165   6.029   1.708   3.156  2.1491 -1.1199 -0.2554
 3558TIP3    H232166   5.930   1.650   3.255 -0.6247  1.5547 -1.2623
 3559TIP3   OH232167   4.311   3.918   1.033  0.6579  0.0029 -0.2413
 3559TIP3    H132168   4.290   3.899   0.942 -0.6804 -0.6211  0.1706
 3559TIP3    H232169   4.282   4.008   1.047  0.8779  0.1042 -0.4219
 3560TIP3   OH232170   4.887   0.723  16.644  0.2774 -0.4267 -0.3403
 3560TIP3    H132171   4.951   0.679  16.699  0.0656 -0.6312 -0.2567
 3560TIP3    H232172   4.850   0.791  16.700  0.3776 -0.3494 -0.3688
 3561TIP3   OH232173   0.849   0.050   0.740 -0.0972 -0.2045  0.1703
 3561TIP3    H132174   0.877   0.080   0.827  0.6392 -1.8280  0.5411
 3561TIP3    H232175   0.911   0.091   0.680  0.3030 -0.2157  0.5668
 3562TIP3   OH232176   2.079   5.351  14.528 -0.1928  0.0549 -0.1339
 3562TIP3    H132177   2.161   5.399  14.536  0.0072 -0.0422 -1.3646
 3562TIP3    H232178   2.070   5.304  14.611  0.5223  0.7841  0.3683
 3563TIP3   OH232179   1.180   2.338   0.639 -0.4516 -0.1159  0.0910
 3563TIP3    H132180   1.126   2.337   0.718 -1.7858  1.2482 -0.7547
 3563TIP3    H232181   1.228   2.421   0.644 -0.2490 -0.2018 -0.3608
 3564TIP3   OH232182   1.009   2.053  12.882 -0.1089  0.0759  0.2646
 3564TIP3    H132183   0.978   1.966  12.856 -0.5123  0.1751  0.4026
 3564TIP3    H232184   1.104   2.050  12.867 -0.4300  0.4794 -2.2113
 3565TIP3   OH232185   0.896   3.522   2.680 -0.1170  0.1752  0.2662
 3565TIP3    H132186   0.990   3.514   2.695  0.1807  0.7307 -1.1928
 3565TIP3    H232187   0.865   3.432   2.670  0.3644  0.0282  0.0935
 3566TIP3   OH232188   2.050   4.415  12.617 -0.0675 -0.5823 -0.5391
 3566TIP3    H132189   2.108   4.339  12.611  2.4080  1.1931 -0.8637
 3566TIP3    H232190   2.078   4.460  12.697 -0.3184  0.8320 -1.2015
 3567TIP3   OH232191   2.438   4.709  16.800 -0.8997 -0.6498 -0.0508
 3567TIP3    H132192   2.458   4.779  16.738  0.2397 -0.2726  0.7021
 3567TIP3    H232193   2.414   4.755  16.881 -0.7675 -1.1191  0.2611
 3568TIP3   OH232194   0.755   4.167  15.070 -0.8366  0.8497  0.2694
 3568TIP3    H132195   0.780   4.131  15.155 -0.4619  0.9178  0.1923
 3568TIP3    H232196   0.754   4.091  15.011 -2.4588  0.5747  0.6188
 3569TIP3   OH232197   1.130   4.526   5.064 -0.5382  0.0623  0.0531
 3569TIP3    H132198   1.102   4.511   5.155 -0.5315  1.8894  0.3913
 3569TIP3    H232199   1.143   4.438   5.028 -2.9912 -0.7784  1.0361
 3570TIP3   OH232200   4.597   3.480  11.352 -0.6741  0.4133  0.3148
 3570TIP3    H132201   4.635   3.466  11.266  0.8427  1.9910  0.6807
 3570TIP3    H232202   4.592   3.575  11.362 -2.4372  0.2665  1.3080
 3571TIP3   OH232203   5.520   4.504   5.201  0.2106  0.1493 -0.2053
 3571TIP3    H132204   5.490   4.416   5.179  1.8583 -0.6528  0.6165
 3571TIP3    H232205   5.567   4.533   5.123  0.5840 -0.1317 -0.0851
 3572TIP3   OH232206   0.490   1.969  15.505  0.2307 -0.1977 -0.5013
 3572TIP3    H132207   0.414   1.961  15.447 -1.3863 -0.3220  1.4782
 3572TIP3    H232208   0.456   2.018  15.580  2.0570 -0.5208  0.5860
 3573TIP3   OH232209   2.526   4.664   5.835  0.0798  0.6191 -0.1740
 3573TIP3    H132210   2.605   4.624   5.800  0.3118  0.4829  0.4897
 3573TIP3    H232211   2.513   4.622   5.920 -0.4710  0.9360 -0.0933
 3574TIP3   OH232212   1.485   2.934   4.939 -0.0823  0.2019 -0.4364
 3574TIP3    H132213   1.492   3.012   4.994 -0.7361 -0.3047  0.3955
 3574TIP3    H232214   1.572   2.925   4.899  0.7007  0.0823  1.2196
 3575TIP3   OH232215   1.966   0.856   0.815  0.7250  0.0262 -0.1078
 3575TIP3    H132216   2.030   0.836   0.883 -0.0216  1.8779  1.2253
 3575TIP3    H232217   1.883   0.826   0.851  0.7243 -2.0150 -1.6681
 3576TIP3   OH232218   6.055   3.199   5.088  0.2372  0.3692  0.4364
 3576TIP3    H132219   6.033   3.270   5.028 -0.3638  0.4544  0.7418
 3576TIP3    H232220   5.992   3.130   5.068  2.7697 -1.4402 -2.0570
 3577TIP3   OH232221   4.591   3.170  13.396  0.5508 -0.1458 -0.2816
 3577TIP3    H132222   4.643   3.199  13.321  0.4348 -1.3708 -0.8798
 3577TIP3    H232223   4.515   3.126  13.357 -0.7053  1.1624  0.5728
 3578TIP3   OH232224   3.465   3.181   1.877  0.2881  0.2703 -0.3661
 3578TIP3    H132225   3.380   3.158   1.839 -0.0951 -0.0355  0.6447
 3578TIP3    H232226   3.493   3.102   1.923  0.3924  0.8616  0.6047
 3579TIP3   OH232227   3.717   1.186   3.649 -0.2913  0.2991  0.0370
 3579TIP3    H132228   3.700   1.280   3.639  0.4195  0.3991 -0.3517
 3579TIP3    H232229   3.769   1.180   3.729 -1.8990  0.0195  1.1080
 3580TIP3   OH232230   2.689   0.975  13.501 -0.5423 -0.1740  0.1730
 3580TIP3    H132231   2.696   0.908  13.568  0.3221 -0.2535  0.0181
 3580TIP3    H232232   2.711   0.929  13.419 -0.0630  0.2679  0.0510
 3581TIP3   OH232233   5.074   5.225   3.637  0.0071 -0.2371  0.4097
 3581TIP3    H132234   5.066   5.259   3.548  2.8382  1.8140  0.8366
 3581TIP3    H232235   4.993   5.254   3.680 -0.5115  0.4474 -0.9420
 3582TIP3   OH232236   3.550   0.238  11.131  0.2894  0.0085 -0.0062
 3582TIP3    H132237   3.596   0.176  11.074  0.3013  0.9708 -1.0740
 3582TIP3    H232238   3.504   0.297  11.071 -0.9686  0.1106  1.0106
 3583TIP3   OH232239   1.435   1.700   1.324  0.4470 -0.7423 -0.2012
 3583TIP3    H132240   1.478   1.706   1.239  0.8515 -0.2215  0.0323
 3583TIP3    H232241   1.445   1.787   1.362  0.8163 -1.1304  0.6303
 3584TIP3   OH232242   3.726   3.945   5.846  0.2645 -0.4201 -0.5519
 3584TIP3    H132243   3.785   3.969   5.774  1.1451 -0.9455 -0.0351
 3584TIP3    H232244   3.736   4.016   5.910  1.3407 -1.1063  0.0916
 3585TIP3   OH232245   3.250   1.506   4.847  0.6294 -0.3969  0.6908
 3585TIP3    H132246   3.260   1.423   4.893 -2.0103 -1.4856 -0.5036
 3585TIP3    H232247   3.190   1.557   4.901  1.0866  0.1558  0.6900
 3586TIP3   OH232248   4.756   2.709   5.473 -0.2502  0.1668  0.2003
 3586TIP3    H132249   4.697   2.757   5.529 -0.2070  0.8538 -0.3338
 3586TIP3    H232250   4.820   2.774   5.444 -0.4096 -0.1183 -0.8215
 3587TIP3   OH232251   2.915   4.659   3.551  0.0907 -0.3125  0.2684
 3587TIP3    H132252   2.976   4.679   3.480  1.6183  0.1047  1.6446
 3587TIP3    H232253   2.957   4.590   3.601 -0.7041 -0.2268  1.0797
 3588TIP3   OH232254   1.811   6.093  11.776  0.2068  0.0781 -0.1043
 3588TIP3    H132255   1.751   6.023  11.804  0.5181 -0.4493 -0.7327
 3588TIP3    H232256   1.828   6.075  11.684  0.0931  1.1432 -0.3426
 3589TIP3   OH232257   6.225   1.024   3.972  0.3593  0.7890 -0.2421
 3589TIP3    H132258   6.263   0.952   4.023 -1.8532  0.8494  1.6242
 3589TIP3    H232259   6.172   0.981   3.905  0.0070  0.6876  0.1021
 3590TIP3   OH232260   3.651   5.122  11.628  0.4172  0.2842 -0.1504
 3590TIP3    H132261   3.725   5.183  11.636  1.4239 -1.1341  2.7672
 3590TIP3    H232262   3.677   5.061  11.558  1.2565  0.7467 -0.2479
 3591TIP3   OH232263   5.881   3.498  17.121 -0.1694 -0.3071 -0.8724
 3591TIP3    H132264   5.851   3.519  17.209  0.6133 -2.3322 -0.0738
 3591TIP3    H232265   5.907   3.583  17.084 -2.5878  0.8932 -0.0266
 3592TIP3   OH232266   0.111   2.274  15.929  0.6254 -0.2567  0.7386
 3592TIP3    H132267   0.036   2.240  15.978  0.1736  0.6283  0.6869
 3592TIP3    H232268   0.176   2.293  15.996  0.4320 -0.1112  0.8867
 3593TIP3   OH232269   1.973   2.529   4.281 -0.2909  0.1760 -0.0417
 3593TIP3    H132270   1.878   2.532   4.298 -1.1053 -0.2993 -3.6918
 3593TIP3    H232271   1.980   2.531   4.186  3.5349  2.5061  0.0876
 3594TIP3   OH232272   6.759   3.941   3.414 -0.7094  0.5006 -0.3896
 3594TIP3    H132273   6.778   3.934   3.321  0.4915  0.6951 -0.1797
 3594TIP3    H232274   6.677   3.893   3.426  0.1112 -1.1701 -1.2398
 3595TIP3   OH232275   3.297   1.549  14.263 -0.0440 -0.3620 -0.1451
 3595TIP3    H132276   3.264   1.601  14.336 -0.8181 -0.1376 -0.6468
 3595TIP3    H232277   3.343   1.612  14.208 -0.3601 -0.3387 -0.3832
 3596TIP3   OH232278   1.310   4.349  14.559 -0.1597  0.0671 -0.6347
 3596TIP3    H132279   1.400   4.368  14.532 -0.1281 -1.0367 -1.3657
 3596TIP3    H232280   1.276   4.433  14.591  0.8676  0.6771 -1.1029
 3597TIP3   OH232281   4.798   5.805  14.043  0.2052 -0.0581  0.4237
 3597TIP3    H132282   4.708   5.774  14.049  0.6074 -1.0912  1.4583
 3597TIP3    H232283   4.792   5.900  14.057 -0.8464  0.1022 -0.9172
 3598TIP3   OH232284   5.179   5.197   2.268 -0.6883 -0.0268  0.5365
 3598TIP3    H132285   5.090   5.199   2.233 -0.0225  0.1293 -1.2775
 3598TIP3    H232286   5.210   5.108   2.251 -0.8415 -0.4151  2.1559
 3599TIP3   OH232287   4.132   5.429   1.431 -0.2871 -0.6140 -0.0301
 3599TIP3    H132288   4.118   5.516   1.393 -1.0588 -1.0922 -0.8869
 3599TIP3    H232289   4.170   5.447   1.517 -0.0725  0.5581 -0.3419
 3600TIP3   OH232290   0.002   6.697  17.113 -0.0810 -0.2012  0.1326
 3600TIP3    H132291  -0.013   6.665  17.202  0.4777  0.4067  0.4554
 3600TIP3    H232292  -0.032   6.787  17.114 -2.3817 -0.9944 -0.9825
 3601TIP3   OH232293   2.262   3.156  14.915 -1.1007  0.1934 -0.0028
 3601TIP3    H132294   2.268   3.170  14.821  1.1080 -0.6404 -0.0408
 3601TIP3    H232295   2.184   3.103  14.926 -0.9295 -0.4073 -1.4583
 3602TIP3   OH232296   0.515   1.176  15.691 -0.2704 -0.3573  0.1307
 3602TIP3    H132297   0.513   1.101  15.750 -1.3609  0.3083  0.9703
 3602TIP3    H232298   0.444   1.160  15.629 -2.0477  1.0348  1.7031
 3603TIP3   OH232299   0.412   5.871  12.415  0.2974  0.3666 -0.1511
 3603TIP3    H132300   0.441   5.788  12.455 -1.0714  0.4541  1.1093
 3603TIP3    H232301   0.448   5.869  12.327  2.0889 -0.5895  0.5590
 3604TIP3   OH232302   4.351   4.529   2.459 -0.1576 -0.1840 -0.0871
 3604TIP3    H132303   4.257   4.512   2.466 -0.1559  0.0706  0.5677
 3604TIP3    H232304   4.392   4.462   2.513 -0.0770  0.9345  1.2897
 3605TIP3   OH232305   6.460   2.871   3.863  0.4342  0.2537 -0.1214
 3605TIP3    H132306   6.513   2.923   3.803  1.3871  1.3326  1.5819
 3605TIP3    H232307   6.468   2.781   3.830  2.8523  0.4685 -0.2694
 3606TIP3   OH232308   0.397   3.513  13.711  0.8189 -0.7223  0.4460
 3606TIP3    H132309   0.476   3.468  13.740  1.5711  0.9482  1.1641
 3606TIP3    H232310   0.422   3.553  13.627  0.5175 -0.7436  0.3456
 3607TIP3   OH232311   2.610   2.135  10.951 -0.2092 -0.5056 -0.4334
 3607TIP3    H132312   2.571   2.186  10.881  1.9410  1.1842 -0.5124
 3607TIP3    H232313   2.700   2.119  10.922  0.9718  0.8652  2.1602
 3608TIP3   OH232314   4.554   4.532   2.257  0.1163 -0.6480  0.3016
 3608TIP3    H132315   4.596   4.610   2.221 -0.8380 -0.4890 -0.4882
 3608TIP3    H232316   4.512   4.563   2.338 -0.6663 -0.2314 -0.2597
 3609TIP3   OH232317   3.979   3.052  11.617  0.0399 -0.8953 -0.5093
 3609TIP3    H132318   3.982   3.137  11.661 -0.9121 -0.9955 -0.2343
 3609TIP3    H232319   4.041   2.997  11.665  2.0687  0.1218 -1.7910
 3610TIP3   OH232320   2.251   6.081   5.456  0.5246  0.1663 -0.6206
 3610TIP3    H132321   2.179   6.047   5.509  2.3924 -2.0890  0.6605
 3610TIP3    H232322   2.316   6.111   5.521  2.3314 -1.4631 -1.5910
 3611TIP3   OH232323   5.949   5.339  12.235  0.4564  0.5633 -0.6021
 3611TIP3    H132324   5.894   5.281  12.288 -0.4360  1.3343 -0.6724
 3611TIP3    H232325   5.992   5.280  12.173 -1.9738  0.1487 -2.0350
 3612TIP3   OH232326   2.860   2.728   0.337  0.0455 -0.1799 -0.6702
 3612TIP3    H132327   2.955   2.729   0.351 -0.0147 -0.7474 -0.1641
 3612TIP3    H232328   2.844   2.647   0.289 -0.0699  0.4364 -1.7017
 3613TIP3   OH232329   4.469   6.234   5.113  0.2322  0.3524  0.4822
 3613TIP3    H132330   4.394   6.256   5.168  0.6179 -0.4958  1.3795
 3613TIP3    H232331   4.453   6.145   5.084  0.0206  0.8063 -0.8296
 3614TIP3   OH232332   0.032   0.711  15.406  0.4230  0.4984 -0.0200
 3614TIP3    H132333   0.098   0.686  15.470 -0.0054 -1.6892 -0.3444
 3614TIP3    H232334   0.077   0.706  15.322 -0.1793 -1.3746 -0.2782
 3615TIP3   OH232335   6.521   3.774  14.118  0.7329 -0.4496 -0.4027
 3615TIP3    H132336   6.574   3.845  14.155  1.9062 -1.8129  0.6169
 3615TIP3    H232337   6.454   3.819  14.067  2.2027  1.3610 -0.8433
 3616TIP3   OH232338   0.906   3.977   3.180  0.2990  0.0386  0.4595
 3616TIP3    H132339   0.995   3.955   3.154 -0.1224  0.0362 -1.0869
 3616TIP3    H232340   0.869   3.895   3.212  0.3406 -0.3389 -0.4472
 3617TIP3   OH232341   4.394   3.598  15.189 -0.3218  0.4445 -0.1814
 3617TIP3    H132342   4.303   3.594  15.218 -0.2480  1.6517  0.2705
 3617TIP3    H232343   4.416   3.692  15.189  0.9439  0.1722 -0.1931
 3618TIP3   OH232344   0.566   6.590  16.414 -0.0132 -0.6573  0.1557
 3618TIP3    H132345   0.637   6.536  16.377  0.0248  0.3181 -1.2762
 3618TIP3    H232346   0.600   6.618  16.500  1.3544 -0.2223 -0.4916
 3619TIP3   OH232347   2.898   0.807   0.237  0.4287  0.4810  0.6882
 3619TIP3    H132348   2.966   0.755   0.279  0.9976 -0.3496 -1.1793
 3619TIP3    H232349   2.938   0.893   0.225  0.6317  0.4140  0.8783
 3620TIP3   OH232350   1.101   4.343   3.464  0.4754 -0.7778  0.5137
 3620TIP3    H132351   1.086   4.249   3.457 -1.1523 -0.4644 -0.9858
 3620TIP3    H232352   1.018   4.379   3.496  0.3881  0.3200 -0.8352
 3621TIP3   OH232353   1.097   0.279   4.528  0.3739 -0.1469 -0.1493
 3621TIP3    H132354   1.109   0.373   4.542 -0.2293  0.4039 -2.9010
 3621TIP3    H232355   1.180   0.250   4.491  0.0054 -0.3657 -0.8121
 3622TIP3   OH232356   1.976   3.686  11.680 -0.2445  0.0862 -0.4540
 3622TIP3    H132357   2.010   3.707  11.767 -0.0088  0.5914 -0.6638
 3622TIP3    H232358   2.047   3.636  11.639  0.1191  0.8432 -0.7667
 3623TIP3   OH232359   5.333   1.191   0.732  0.2590  0.1145  0.0728
 3623TIP3    H132360   5.401   1.211   0.668  1.2892  0.1857  1.1552
 3623TIP3    H232361   5.261   1.249   0.709  1.2102  1.2842 -0.0715
 3624TIP3   OH232362   4.373   3.906  12.182  0.2260  0.1862  0.4129
 3624TIP3    H132363   4.404   3.996  12.197 -2.1875  0.9338  1.5124
 3624TIP3    H232364   4.396   3.887  12.091 -0.4641  2.5074 -0.3222
 3625TIP3   OH232365   1.183   0.665  13.230 -0.1774  0.3942  0.0388
 3625TIP3    H132366   1.264   0.684  13.277  0.0944 -0.5091 -0.0373
 3625TIP3    H232367   1.118   0.655  13.299 -0.0055  0.1360  0.1691
 3626TIP3   OH232368   5.658   2.844  16.359 -0.1544  0.1904 -0.4318
 3626TIP3    H132369   5.748   2.831  16.329 -0.5243 -2.1561 -0.6842
 3626TIP3    H232370   5.606   2.848  16.279 -0.7242 -2.7066 -0.3183
 3627TIP3   OH232371   0.619   5.518  15.799  0.3618 -0.1091 -0.3363
 3627TIP3    H132372   0.560   5.530  15.873 -1.4403 -3.4232 -1.0557
 3627TIP3    H232373   0.697   5.476  15.837  1.4153  2.2237  0.2553
 3628TIP3   OH232374   0.546   6.159   1.814 -0.3544 -0.3135 -0.1842
 3628TIP3    H132375   0.541   6.080   1.761  1.3606 -0.3657 -0.3200
 3628TIP3    H232376   0.461   6.202   1.802  0.4511  0.5622 -4.3898
 3629TIP3   OH232377   0.331   3.572   5.387  0.7023  0.0964 -0.0059
 3629TIP3    H132378   0.359   3.594   5.476 -3.4743  0.3276  1.4693
 3629TIP3    H232379   0.309   3.479   5.392  1.4674 -0.1665 -1.1895
 3630TIP3   OH232380   2.426   1.657  14.765  0.2062 -0.0021  0.0578
 3630TIP3    H132381   2.348   1.681  14.715  0.4551  0.2926 -0.1875
 3630TIP3    H232382   2.405   1.682  14.855  0.9934  2.4681 -0.3963
 3631TIP3   OH232383   3.388   2.671   4.401 -0.5288  0.4302  0.2197
 3631TIP3    H132384   3.303   2.704   4.431 -1.0574  0.9272 -1.7287
 3631TIP3    H232385   3.377   2.657   4.307  1.4798  0.2889 -0.0324
 3632TIP3   OH232386   2.902   0.170   3.758 -0.3449  0.3652 -0.5626
 3632TIP3    H132387   2.870   0.260   3.747 -1.8063  0.2485  1.8703
 3632TIP3    H232388   2.904   0.134   3.670 -3.4702  1.6325 -1.2938
 3633TIP3   OH232389   2.899   5.641  13.554 -0.3299  0.6386 -0.0050
 3633TIP3    H132390   2.808   5.668  13.566 -0.2041  1.0800 -0.0440
 3633TIP3    H232391   2.943   5.666  13.635 -0.0500  1.2423 -0.3385
 3634TIP3   OH232392   2.144   0.795   0.260 -0.1242 -0.2407  0.1317
 3634TIP3    H132393   2.055   0.803   0.294 -0.2196 -1.0251  0.0782
 3634TIP3    H232394   2.142   0.719   0.203  0.4783 -0.0044 -0.2152
 3635TIP3   OH232395   1.281   1.061   0.884  0.1158 -0.5863  0.3957
 3635TIP3    H132396   1.224   1.073   0.808  0.0009  0.5698  0.6455
 3635TIP3    H232397   1.228   1.090   0.959  1.6498  2.5551  0.4167
 3636TIP3   OH232398   3.850   2.886  15.166 -0.0998  0.0606  0.0066
 3636TIP3    H132399   3.827   2.976  15.191 -0.7996 -0.0341 -0.2721
 3636TIP3    H232400   3.924   2.863  15.223 -1.0294  0.1966  1.2973
 3637TIP3   OH232401   2.980   4.071   6.628  0.0946 -0.6466  0.2225
 3637TIP3    H132402   3.054   4.119   6.593  0.5540 -2.0620 -0.8521
 3637TIP3    H232403   2.911   4.137   6.639 -0.1299 -0.0461 -3.4976
 3638TIP3   OH232404   3.265   0.562  12.753 -0.4103 -0.1901  0.1690
 3638TIP3    H132405   3.335   0.629  12.751 -0.6553  0.0492 -0.7060
 3638TIP3    H232406   3.254   0.543  12.846  0.8577 -0.2664  0.3302
 3639TIP3   OH232407   4.609   1.286  12.010 -0.1056  0.2964 -0.1774
 3639TIP3    H132408   4.597   1.326  12.096  0.3898  1.3465 -0.5772
 3639TIP3    H232409   4.654   1.203  12.028  2.2607  1.6034  0.4462
 3640TIP3   OH232410   6.636   2.551   2.616 -0.3427  0.6699  0.8917
 3640TIP3    H132411   6.682   2.624   2.574  0.4372  0.0770  0.6942
 3640TIP3    H232412   6.640   2.571   2.710 -0.4228  1.0411  0.8183
 3641TIP3   OH232413   2.775   4.641   1.637  0.3385  0.2040 -0.6895
 3641TIP3    H132414   2.763   4.588   1.558 -0.1047 -0.4312 -0.2017
 3641TIP3    H232415   2.763   4.731   1.607 -1.1731 -0.1094 -1.1005
 3642TIP3   OH232416   3.199   0.365   5.239  0.1642  0.6906 -0.6822
 3642TIP3    H132417   3.125   0.306   5.258  0.4744  0.5432  0.0917
 3642TIP3    H232418   3.193   0.381   5.144 -0.8437  0.6609 -0.6340
 3643TIP3   OH232419   0.488   0.899   6.509  0.4205  0.1306  0.0507
 3643TIP3    H132420   0.427   0.879   6.579 -0.8267  1.1104 -0.7190
 3643TIP3    H232421   0.536   0.817   6.494 -1.3998 -0.9552 -0.0271
 3644TIP3   OH232422   5.142   1.755  15.445 -0.0205  0.0824 -0.0431
 3644TIP3    H132423   5.064   1.774  15.393  0.1382  0.0940 -0.2798
 3644TIP3    H232424   5.143   1.822  15.513 -1.3066 -1.0934  1.1917
 3645TIP3   OH232425   3.098   2.365  15.802  0.2023 -0.1309 -0.1755
 3645TIP3    H132426   3.124   2.451  15.833  0.6560 -0.8734  1.6049
 3645TIP3    H232427   3.010   2.377  15.768  0.2025  0.9981  0.1881
 3646TIP3   OH232428   3.810   4.304   1.275  0.2897  0.0586  0.0080
 3646TIP3    H132429   3.896   4.264   1.290 -0.3298 -0.4675  2.6396
 3646TIP3    H232430   3.807   4.379   1.335 -1.9567 -1.3895  1.8706
 3647TIP3   OH232431   3.022   2.549   2.538  0.5112 -0.6283  0.4054
 3647TIP3    H132432   2.958   2.496   2.585 -4.3680  2.4256 -1.9304
 3647TIP3    H232433   3.037   2.502   2.456 -0.1641 -0.5679  0.2435
 3648TIP3   OH232434   4.122   1.926  12.186  0.2492  0.1890  0.2138
 3648TIP3    H132435   4.200   1.877  12.159 -0.1533  0.0782 -0.8174
 3648TIP3    H232436   4.151   2.017  12.192  0.1169  0.4137 -1.8175
 3649TIP3   OH232437   0.557   6.220  13.760  0.2129  0.3729 -0.0940
 3649TIP3    H132438   0.634   6.239  13.813 -0.1623  2.5020 -0.2324
 3649TIP3    H232439   0.486   6.265  13.804 -0.4960  0.4351 -1.2661
 3650TIP3   OH232440   1.823   1.082   6.470  0.1616  0.6030 -0.2183
 3650TIP3    H132441   1.896   1.027   6.441 -1.4231 -0.8334 -1.7618
 3650TIP3    H232442   1.842   1.100   6.562  1.2426 -1.8268  0.1270
 3651TIP3   OH232443   3.573   4.957   2.369 -0.3197 -0.3584  0.5232
 3651TIP3    H132444   3.490   4.912   2.353 -0.3210 -0.5783  1.0974
 3651TIP3    H232445   3.635   4.915   2.310 -0.6201 -0.1803  0.0774
 3652TIP3   OH232446   0.839   1.253   5.336  0.4461 -0.1661 -0.1959
 3652TIP3    H132447   0.793   1.289   5.260 -1.1232 -0.3077  0.6441
 3652TIP3    H232448   0.771   1.206   5.386  1.3183  0.3149  1.5340
 3653TIP3   OH232449   6.120   4.323  14.457  0.0355 -0.1085  1.1715
 3653TIP3    H132450   6.090   4.363  14.539  0.1212 -2.4503  2.4560
 3653TIP3    H232451   6.166   4.243  14.485  0.9025 -0.5002 -1.1319
 3654TIP3   OH232452   3.700   0.631  16.914 -0.5430 -0.1347 -0.1962
 3654TIP3    H132453   3.704   0.608  16.821  1.6496  1.9125 -0.7134
 3654TIP3    H232454   3.761   0.571  16.956 -0.2329  0.0605 -0.3655
 3655TIP3   OH232455   2.680   2.074   1.576  0.5447  0.2987 -0.6006
 3655TIP3    H132456   2.763   2.110   1.608 -0.1728  0.8886  0.7028
 3655TIP3    H232457   2.696   2.054   1.484  1.8369  1.3472 -0.6359
 3656TIP3   OH232458   4.741   3.652   5.372  0.7115  0.1085 -0.5178
 3656TIP3    H132459   4.657   3.692   5.395  0.7581 -0.7879  1.3775
 3656TIP3    H232460   4.793   3.658   5.452  2.3963  0.4436 -1.5926
 3657TIP3   OH232461   3.706   5.322   0.489 -0.0967 -0.4009 -0.1564
 3657TIP3    H132462   3.622   5.298   0.528 -1.0821 -0.9164 -2.3819
 3657TIP3    H232463   3.702   5.417   0.479 -0.0630 -0.3322  0.4606
 3658TIP3   OH232464   4.590   3.735  11.433 -0.5444 -0.5782  0.4682
 3658TIP3    H132465   4.570   3.822  11.467 -0.9596 -1.0059  1.3181
 3658TIP3    H232466   4.640   3.753  11.353  0.5135  0.4411  1.3111
 3659TIP3   OH232467   1.912   2.844  15.772  0.1962 -0.8732  0.4634
 3659TIP3    H132468   1.902   2.928  15.728  0.5235 -1.0222  0.0988
 3659TIP3    H232469   2.007   2.828  15.771  0.4663  0.0992  3.0382
 3660TIP3   OH232470   4.977   3.916   3.905 -0.3099 -0.1548  0.2377
 3660TIP3    H132471   4.952   3.928   3.996 -3.2978 -1.9849 -0.1822
 3660TIP3    H232472   4.994   4.004   3.872  0.2509  0.5821  2.3797
 3661TIP3   OH232473   5.470   0.942   1.984 -0.4982 -0.4213  0.4186
 3661TIP3    H132474   5.463   0.937   2.079 -0.2965  0.1284  0.4621
 3661TIP3    H232475   5.562   0.923   1.966 -0.5518 -0.5965  0.3271
 3662TIP3   OH232476   4.599   6.434  14.147 -0.1019  0.6871 -0.0373
 3662TIP3    H132477   4.579   6.379  14.071  2.5369 -1.1930  0.5281
 3662TIP3    H232478   4.685   6.470  14.128  0.0440  1.1995  1.5376
 3663TIP3   OH232479   1.030   0.523  14.396 -0.5746  0.2554 -0.1189
 3663TIP3    H132480   1.031   0.605  14.444  4.7516  0.8563 -0.6153
 3663TIP3    H232481   1.070   0.460  14.455  0.0494 -0.6412 -1.4424
 3664TIP3   OH232482   4.549   6.323  15.910  0.0563  0.3835 -0.2269
 3664TIP3    H132483   4.463   6.353  15.940  0.1839  3.1341 -2.2728
 3664TIP3    H232484   4.608   6.345  15.983 -0.6069  0.7938  0.2039
 3665TIP3   OH232485   6.061   4.215   1.304  0.6987 -0.2161 -0.5997
 3665TIP3    H132486   5.969   4.235   1.285  1.0867  0.1725 -2.2162
 3665TIP3    H232487   6.069   4.226   1.399 -0.9828 -0.5554 -0.3921
 3666TIP3   OH232488   1.860   6.619  11.931 -0.6401  0.3210  0.0072
 3666TIP3    H132489   1.955   6.631  11.923 -0.6356  2.4784  1.9933
 3666TIP3    H232490   1.850   6.564  12.008 -0.9581  1.8099  1.0900
 3667TIP3   OH232491   0.043   1.530   4.962  0.9591 -0.1725 -0.5437
 3667TIP3    H132492   0.017   1.533   4.869  1.5900 -0.5813 -0.7403
 3667TIP3    H232493   0.135   1.557   4.961  0.7675  0.5412  0.0568
 3668TIP3   OH232494   3.610   5.882   5.519  0.5966  0.1735  0.0699
 3668TIP3    H132495   3.673   5.905   5.451  1.9289  0.5275  1.3547
 3668TIP3    H232496   3.637   5.795   5.548 -0.9893 -0.7092 -0.9436
 3669TIP3   OH232497   0.424   1.502  11.260 -0.2422  0.3577 -0.7679
 3669TIP3    H132498   0.347   1.449  11.278  0.1587  0.6141  2.3686
 3669TIP3    H232499   0.493   1.438  11.242 -0.5176 -0.0437 -0.4234
 3670TIP3   OH232500   4.476   6.263  10.487 -0.4576  0.3433 -0.3764
 3670TIP3    H132501   4.534   6.228  10.555 -0.1163  2.4183  0.4724
 3670TIP3    H232502   4.407   6.197  10.479  1.0982 -1.4165 -0.2337
 3671TIP3   OH232503   3.416   5.127  14.057 -0.0126 -0.1084  0.0951
 3671TIP3    H132504   3.482   5.166  13.999 -0.9660  0.5305 -0.5843
 3671TIP3    H232505   3.416   5.034  14.034  0.6742 -0.1182  0.1236
 3672TIP3   OH232506   5.455   5.839   1.204 -0.6530  0.0673 -0.5003
 3672TIP3    H132507   5.416   5.830   1.117  1.1866  0.5633 -1.4341
 3672TIP3    H232508   5.497   5.926   1.202  0.0177 -0.2159  0.6162
 3673TIP3   OH232509   5.384   5.915  15.788 -0.4740  0.3022  0.0633
 3673TIP3    H132510   5.470   5.883  15.759  0.7211  0.5929  2.9228
 3673TIP3    H232511   5.377   6.003  15.752  0.4975  0.3169 -0.1175
 3674TIP3   OH232512   2.443   6.104   1.013  0.1316 -0.5969 -0.4686
 3674TIP3    H132513   2.434   6.122   0.920 -0.6045 -1.8232 -0.6505
 3674TIP3    H232514   2.414   6.185   1.056  0.3777 -0.0616 -1.2863
 3675TIP3   OH232515   3.155   4.248   1.997 -0.5364 -0.0042 -0.2968
 3675TIP3    H132516   3.184   4.169   2.043 -0.2219  0.4094  0.2309
 3675TIP3    H232517   3.196   4.242   1.911 -1.0490 -0.7397 -0.4923
 3676TIP3   OH232518   1.606   4.356  16.001  0.5304  0.2323 -0.0497
 3676TIP3    H132519   1.559   4.377  16.082  0.8685 -1.8590  0.7491
 3676TIP3    H232520   1.697   4.376  16.021  0.7407 -1.0867  0.4424
 3677TIP3   OH232521   0.223   4.717  11.007 -0.0280  0.8778 -0.0223
 3677TIP3    H132522   0.138   4.693  10.969 -0.6240  2.7008  0.0493
 3677TIP3    H232523   0.287   4.665  10.958 -1.0837  0.4739 -1.0179
 3678TIP3   OH232524   6.599   1.303   5.067 -0.2103  0.2585  0.0900
 3678TIP3    H132525   6.617   1.331   5.157  0.0834  2.0374 -0.4883
 3678TIP3    H232526   6.637   1.371   5.012 -0.9252 -0.4801 -1.3914
 3679TIP3   OH232527   1.166   5.173  16.710  0.2019  0.2398  0.1021
 3679TIP3    H132528   1.245   5.210  16.670 -0.4145  1.6087  0.0891
 3679TIP3    H232529   1.106   5.247  16.718 -0.2922 -0.3170  2.1434
 3680TIP3   OH232530   4.391   0.823  12.029 -0.5310 -0.4907  0.1143
 3680TIP3    H132531   4.466   0.877  12.055 -0.0164 -1.1317 -0.0090
 3680TIP3    H232532   4.320   0.886  12.014 -0.6290 -0.0024  2.2171
 3681TIP3   OH232533   0.372   3.320   5.085  0.0428  0.4290 -0.0931
 3681TIP3    H132534   0.317   3.303   5.161  0.1010 -1.0264 -0.3381
 3681TIP3    H232535   0.329   3.392   5.039 -0.2013  1.0667  1.0974
 3682TIP3   OH232536   1.442   6.370   6.646  0.0155  0.7789 -0.2517
 3682TIP3    H132537   1.451   6.464   6.665  2.1587  0.9995 -1.9729
 3682TIP3    H232538   1.480   6.360   6.559  0.4296 -1.8082  0.1596
 3683TIP3   OH232539   0.185   2.844  15.649 -0.1844  0.0512 -0.2296
 3683TIP3    H132540   0.200   2.765  15.701 -0.4366 -0.6693 -1.2104
 3683TIP3    H232541   0.145   2.812  15.568  0.7106  1.0574 -1.1088
 3684TIP3   OH232542   3.073   1.173   0.679  0.5649  0.4625  0.4784
 3684TIP3    H132543   3.030   1.208   0.601  1.1894  0.2354  0.0223
 3684TIP3    H232544   3.126   1.246   0.713  2.1936 -0.1173 -0.7104
 3685TIP3   OH232545   3.459   2.185   3.817  0.2872  0.2139  0.2895
 3685TIP3    H132546   3.469   2.277   3.842  4.3834 -0.5445  2.3251
 3685TIP3    H232547   3.464   2.137   3.900 -1.7582 -1.9247 -0.7105
 3686TIP3   OH232548   5.654   4.809   1.715 -0.4235 -0.2596  0.1005
 3686TIP3    H132549   5.614   4.877   1.661  0.7868  1.5066  1.3124
 3686TIP3    H232550   5.697   4.857   1.786 -0.5191 -2.3851  1.6878
 3687TIP3   OH232551   0.458   0.051  15.124  0.1204 -0.0795 -0.1912
 3687TIP3    H132552   0.427  -0.029  15.165 -2.3297  1.4899  1.2632
 3687TIP3    H232553   0.396   0.119  15.152  3.2352  2.8057  0.4180
 3688TIP3   OH232554   1.654   2.645  11.060  0.1514 -0.0155  0.6494
 3688TIP3    H132555   1.645   2.551  11.076  0.0251  0.1389  1.5410
 3688TIP3    H232556   1.563   2.677  11.054  0.1287 -0.3725 -2.5009
 3689TIP3   OH232557   2.536   0.358   1.497 -0.0723 -0.2358 -0.2449
 3689TIP3    H132558   2.443   0.379   1.483 -0.2659 -1.7710 -1.5057
 3689TIP3    H232559   2.576   0.441   1.521 -1.9003  0.3328  1.0461
 3690TIP3   OH232560   3.597   5.931  17.305  0.1215  0.7334 -0.5460
 3690TIP3    H132561   3.566   5.879  17.378 -1.0135  1.8098 -0.2235
 3690TIP3    H232562   3.586   5.874  17.229 -0.1547  0.1524 -0.0810
 3691TIP3   OH232563   6.630   3.896   4.767  0.3618 -0.3982 -0.1420
 3691TIP3    H132564   6.569   3.958   4.727 -0.0054  0.5082  1.6988
 3691TIP3    H232565   6.606   3.811   4.730 -2.3588 -0.1503  0.8181
 3692TIP3   OH232566   5.309   1.540  15.266  0.1453  0.1143 -0.1585
 3692TIP3    H132567   5.273   1.488  15.338 -0.5402 -0.8726 -1.1833
 3692TIP3    H232568   5.400   1.511  15.259 -0.4612 -1.6566 -1.2949
 3693TIP3   OH232569   6.151   3.852  11.933  0.0926  0.2773  0.0043
 3693TIP3    H132570   6.180   3.761  11.935 -1.1881 -0.2030  3.2172
 3693TIP3    H232571   6.229   3.902  11.959  0.6017  0.0634 -1.0591
 3694TIP3   OH232572   3.269   2.420  17.448 -0.1768  0.5015 -0.1403
 3694TIP3    H132573   3.218   2.462  17.379  1.4319  2.3820 -0.2516
 3694TIP3    H232574   3.310   2.345  17.404 -0.4029  0.7589 -0.8106
 3695TIP3   OH232575   1.825   5.600  14.523  0.1869 -0.7313  0.0704
 3695TIP3    H132576   1.866   5.614  14.438  1.3026 -0.5606  0.6188
 3695TIP3    H232577   1.771   5.678  14.537  1.9637  0.4750  0.6032
 3696TIP3   OH232578   0.175   1.844   1.756  0.0185 -0.3930  0.4020
 3696TIP3    H132579   0.134   1.801   1.831 -0.3103 -0.6631  0.0729
 3696TIP3    H232580   0.108   1.843   1.688 -0.0642  0.8290  0.4442
 3697TIP3   OH232581   2.638   4.286  11.029 -0.1985  0.0877 -0.2979
 3697TIP3    H132582   2.689   4.266  10.951  0.0934 -0.5726  0.0508
 3697TIP3    H232583   2.582   4.360  11.004 -1.1088 -0.9850 -1.5596
 3698TIP3   OH232584   1.766   4.446  16.896 -0.4594  0.3712  0.1034
 3698TIP3    H132585   1.823   4.521  16.878 -0.7467  0.5455 -0.0949
 3698TIP3    H232586   1.777   4.429  16.989 -2.7500  2.6587  0.9118
 3699TIP3   OH232587   5.944   5.384   2.076  0.2229  0.3890  0.0426
 3699TIP3    H132588   5.972   5.385   2.167  0.4582 -1.5106  0.0304
 3699TIP3    H232589   5.996   5.452   2.034  0.2832  1.1239  1.2713
 3700TIP3   OH232590   2.120   0.942   1.447  0.5036  0.1338 -0.0912
 3700TIP3    H132591   2.125   0.909   1.358  2.9912  1.1815 -0.4162
 3700TIP3    H232592   2.088   1.032   1.438 -0.6581 -0.2162  0.2629
 3701TIP3   OH232593   6.678   1.385   5.632  0.4358  0.4578 -0.2521
 3701TIP3    H132594   6.758   1.370   5.683  0.3419 -1.0567 -0.4903
 3701TIP3    H232595   6.635   1.458   5.675  0.1484 -1.0069  2.1286
 3702TIP3   OH232596   5.860   1.607   4.012  0.1149 -0.0354 -0.0448
 3702TIP3    H132597   5.832   1.675   3.950 -1.0531  0.8575  1.3793
 3702TIP3    H232598   5.951   1.628   4.031 -0.1049  0.8853  0.0376
 3703TIP3   OH232599   5.528   3.037  16.791 -0.0401 -0.0293 -0.0576
 3703TIP3    H132600   5.594   3.033  16.861 -0.0971 -1.7155 -0.0410
 3703TIP3    H232601   5.560   2.975  16.725 -1.6479 -0.9799  0.0035
 3704TIP3   OH232602   4.025   6.323   5.576 -0.1312  0.5278 -0.1435
 3704TIP3    H132603   4.037   6.234   5.609 -0.9272  0.3047 -0.4149
 3704TIP3    H232604   4.062   6.380   5.644 -0.3678  0.0225  0.4167
 3705TIP3   OH232605   1.454   2.667  14.511 -0.0029  0.1212  0.1912
 3705TIP3    H132606   1.419   2.579  14.525  1.2850 -0.3889  0.3687
 3705TIP3    H232607   1.535   2.668  14.562 -0.6766  1.8786  1.3242
 3706TIP3   OH232608   2.308   0.323   5.384 -0.1587 -0.3633 -0.3642
 3706TIP3    H132609   2.247   0.273   5.329 -0.2725 -1.3612  0.6263
 3706TIP3    H232610   2.280   0.305   5.474  0.4986  0.6108  0.0566
 3707TIP3   OH232611   6.295   2.845  15.486 -0.3436 -0.0621  0.2337
 3707TIP3    H132612   6.271   2.752  15.483  1.3287 -0.5065 -0.2187
 3707TIP3    H232613   6.282   2.876  15.396 -0.8794  0.1553  0.3796
 3708TIP3   OH232614   1.334   5.370   0.771 -0.6220 -0.8413 -0.2477
 3708TIP3    H132615   1.313   5.285   0.809 -0.2280 -0.6214  0.4804
 3708TIP3    H232616   1.262   5.427   0.799  1.0166  0.0270  2.6338
 3709TIP3   OH232617   0.811   3.262  16.550  0.2357 -0.0059 -0.3132
 3709TIP3    H132618   0.824   3.175  16.589 -1.8598  0.7750  2.4173
 3709TIP3    H232619   0.883   3.314  16.586  1.5315 -0.5400 -2.0011
 3710TIP3   OH232620   3.758   2.181  12.463  0.1285 -0.2529  0.1435
 3710TIP3    H132621   3.720   2.095  12.445 -0.0347  0.0232 -0.8972
 3710TIP3    H232622   3.820   2.195  12.391  1.0518 -0.0103  0.9509
 3711TIP3   OH232623   6.194   5.980  13.688 -0.1748 -0.1291  0.6359
 3711TIP3    H132624   6.191   5.899  13.638 -0.3788 -0.4790  1.2037
 3711TIP3    H232625   6.143   5.961  13.767 -0.2204  0.5496  0.7740
 3712TIP3   OH232626   3.981   0.815  13.052 -0.0534  0.0366  0.0175
 3712TIP3    H132627   4.023   0.736  13.084 -0.1551  0.8074  2.1728
 3712TIP3    H232628   3.929   0.785  12.977 -1.6564 -2.3821  1.9174
 3713TIP3   OH232629   4.260   0.659  16.343  0.3483  0.3959 -0.6350
 3713TIP3    H132630   4.321   0.730  16.325  1.3575 -0.9760 -3.1135
 3713TIP3    H232631   4.313   0.593  16.389  0.3973 -0.1838 -1.4893
 3714TIP3   OH232632   1.786   0.773   4.640 -0.1090 -0.1474  0.0479
 3714TIP3    H132633   1.872   0.772   4.683 -0.0809  0.1178  0.0013
 3714TIP3    H232634   1.724   0.759   4.711 -0.0969  0.8307  0.2677
 3715TIP3   OH232635   5.717   4.566  16.184  0.4196  0.0773  0.2612
 3715TIP3    H132636   5.649   4.543  16.120 -0.4459  0.8194  0.8966
 3715TIP3    H232637   5.673   4.564  16.268  0.7576  2.1182  0.5475
 3716TIP3   OH232638   3.763   4.317  10.506  0.3598  0.3226  0.1098
 3716TIP3    H132639   3.723   4.326  10.419 -0.6431  1.8476  0.6954
 3716TIP3    H232640   3.775   4.222  10.517  0.4161  0.0969 -1.6341
 3717TIP3   OH232641   5.651   1.996   5.149 -0.0507  0.0315  0.1660
 3717TIP3    H132642   5.695   1.970   5.230 -0.9477  2.9549  1.7198
 3717TIP3    H232643   5.722   2.034   5.096  0.0286  1.1139  1.0059
 3718TIP3   OH232644   2.217   0.552   1.716 -0.1493  0.0739  0.8351
 3718TIP3    H132645   2.282   0.546   1.785  0.9478 -0.1012 -0.1901
 3718TIP3    H232646   2.248   0.623   1.660 -0.4656 -0.4607 -0.0401
 3719TIP3   OH232647   4.958   2.821   4.922 -0.0036  0.2685 -0.5382
 3719TIP3    H132648   4.891   2.836   4.855  0.9873  0.8047 -1.4306
 3719TIP3    H232649   4.971   2.907   4.962 -0.2956  0.0320  0.0876
 3720TIP3   OH232650   3.762   3.201   0.681 -0.5303 -0.7675 -0.1347
 3720TIP3    H132651   3.828   3.144   0.721 -0.2403 -0.2591  0.1354
 3720TIP3    H232652   3.731   3.153   0.605 -0.1690 -1.2103 -0.0076
 3721TIP3   OH232653   2.303   4.278  17.172  0.0600 -0.2097  0.0518
 3721TIP3    H132654   2.324   4.293  17.264 -0.6286 -0.7828  0.3200
 3721TIP3    H232655   2.358   4.339  17.124  1.0931 -0.5329  0.7897
 3722TIP3   OH232656   4.747   6.167  14.646  0.1255  0.0455  0.2823
 3722TIP3    H132657   4.840   6.172  14.625 -0.3751 -2.0994 -3.3952
 3722TIP3    H232658   4.720   6.258  14.659  2.4818  0.8000  0.2766
 3723TIP3   OH232659   3.875   5.766  11.618 -0.3259  0.3127  0.0042
 3723TIP3    H132660   3.938   5.835  11.597  0.0462 -0.0799 -0.1997
 3723TIP3    H232661   3.881   5.756  11.713 -1.7962  1.8857  0.3086
 3724TIP3   OH232662   4.322   3.340   5.545  0.4690  0.1348  0.2106
 3724TIP3    H132663   4.236   3.341   5.586  0.5166  1.5137  0.3281
 3724TIP3    H232664   4.311   3.283   5.468 -0.3785 -0.1720  0.5482
 3725TIP3   OH232665   6.519   5.206  12.493 -0.1602  0.1653  0.5140
 3725TIP3    H132666   6.549   5.161  12.572 -0.0405  1.2558  1.1126
 3725TIP3    H232667   6.507   5.297  12.521 -1.8902  0.2165 -0.2630
 3726TIP3   OH232668   0.969   2.309  11.385 -0.0947 -0.2495 -0.2319
 3726TIP3    H132669   0.913   2.254  11.330  1.6727 -1.7562 -0.6252
 3726TIP3    H232670   0.976   2.391  11.336 -0.4013 -0.7399 -1.1338
 3727TIP3   OH232671   0.586   2.980  10.746 -0.0221 -0.3980  0.2304
 3727TIP3    H132672   0.676   2.999  10.721 -0.6735  0.7297 -1.4206
 3727TIP3    H232673   0.556   3.059  10.790 -0.4349 -0.4618  0.0712
 3728TIP3   OH232674   4.694   3.408  12.039 -0.4057 -0.0542 -0.3536
 3728TIP3    H132675   4.618   3.448  11.998 -0.4646 -0.5952 -0.7732
 3728TIP3    H232676   4.682   3.314  12.026  0.1538 -0.1610 -0.1145
 3729TIP3   OH232677   0.866   4.249   3.581  0.6218 -0.2829 -0.2056
 3729TIP3    H132678   0.848   4.196   3.503 -1.8892 -0.2619  0.2708
 3729TIP3    H232679   0.786   4.300   3.594  0.7357 -0.6604  2.6845
 3730TIP3   OH232680   4.978   3.324  14.466 -0.0193 -0.6322 -0.1736
 3730TIP3    H132681   5.006   3.235  14.488  1.7015  0.2151  1.2527
 3730TIP3    H232682   5.057   3.368  14.438 -0.2895  1.1585  1.6320
 3731TIP3   OH232683   6.646   4.116  16.515 -0.2379 -0.2165  0.1018
 3731TIP3    H132684   6.661   4.210  16.513 -0.9600 -0.0983 -1.3943
 3731TIP3    H232685   6.555   4.106  16.543  0.3704 -0.5792  2.0451
 3732TIP3   OH232686   6.487   2.841  14.039 -0.5854  0.2122 -0.6199
 3732TIP3    H132687   6.548   2.909  14.012 -0.0933  0.0478  0.0458
 3732TIP3    H232688   6.401   2.884  14.038 -0.3111  0.7697 -0.4416
 3733TIP3   OH232689   0.830   3.144   3.697 -0.9798 -0.0360 -0.3312
 3733TIP3    H132690   0.919   3.163   3.727 -1.5081  0.7212  0.8171
 3733TIP3    H232691   0.808   3.217   3.640 -1.0624  0.0581 -0.1793
 3734TIP3   OH232692   1.226   3.958   2.509 -0.3735 -0.1062 -0.3092
 3734TIP3    H132693   1.157   3.914   2.558 -0.3426 -0.4010 -0.5308
 3734TIP3    H232694   1.182   3.994   2.432 -0.2153 -0.6056 -0.6369
 3735TIP3   OH232695   0.396   2.584   1.430 -0.0557 -0.4644  0.1307
 3735TIP3    H132696   0.417   2.509   1.486  0.1078 -0.8677 -0.4694
 3735TIP3    H232697   0.479   2.610   1.392  0.5391  2.0523  2.7449
 3736TIP3   OH232698   2.872   3.059   1.810 -0.0114  0.6641 -0.0168
 3736TIP3    H132699   2.826   3.013   1.740  0.7928 -0.1685 -0.0232
 3736TIP3    H232700   2.865   3.151   1.788  2.0569  0.3633 -2.4047
 3737TIP3   OH232701   2.713   0.461   0.162  0.2156  0.7575  0.1659
 3737TIP3    H132702   2.659   0.506   0.227 -0.2399  0.8297 -0.2529
 3737TIP3    H232703   2.782   0.418   0.213  1.2881  2.7621  0.5205
 3738TIP3   OH232704   5.948   3.452  14.113 -0.2079 -0.4226  0.1612
 3738TIP3    H132705   5.994   3.439  14.196 -1.2994  3.3649  1.5217
 3738TIP3    H232706   5.868   3.400  14.121 -0.4188  0.0875  1.6176
 3739TIP3   OH232707   0.351   3.077  14.751  0.4940  0.7254  0.4919
 3739TIP3    H132708   0.425   3.083  14.812 -0.4380  0.2514  1.6946
 3739TIP3    H232709   0.328   3.168  14.733 -0.3151  0.8989  2.2320
 3740TIP3   OH232710   5.730   2.711   3.644 -0.0074 -0.1735 -0.3369
 3740TIP3    H132711   5.748   2.705   3.550 -2.0851 -0.1863 -0.7886
 3740TIP3    H232712   5.725   2.804   3.662  0.1736 -0.1754 -0.2682
 3741TIP3   OH232713   4.095   5.552   2.298  0.4886 -0.5020  0.1938
 3741TIP3    H132714   4.059   5.562   2.386  2.1176  0.7912  0.7681
 3741TIP3    H232715   4.065   5.631   2.251 -1.8438 -2.0029 -1.0336
 3742TIP3   OH232716   5.844   5.958  13.429 -0.3333 -0.4269  0.0487
 3742TIP3    H132717   5.829   6.020  13.500  0.0622 -2.5578  2.1072
 3742TIP3    H232718   5.916   5.997  13.379 -0.2796  0.8936  1.0821
 3743TIP3   OH232719   4.358   1.906   4.497  0.0209 -0.7337 -0.3795
 3743TIP3    H132720   4.306   1.968   4.547  0.4216  0.0125 -0.8757
 3743TIP3    H232721   4.356   1.939   4.408 -0.2599 -1.7717 -0.7764
 3744TIP3   OH232722   0.842   5.157   6.012 -0.1460 -0.1082  0.0302
 3744TIP3    H132723   0.905   5.221   5.980 -0.2699 -0.8484 -1.7736
 3744TIP3    H232724   0.803   5.198   6.089  2.5161  0.3701  1.2407
 3745TIP3   OH232725   3.268   3.081   4.123  0.1562  0.1995  0.2354
 3745TIP3    H132726   3.178   3.059   4.147 -1.1920  2.5350 -2.0593
 3745TIP3    H232727   3.284   3.165   4.167  0.2509  0.9828 -1.2223
 3746TIP3   OH232728   6.005   2.511   4.868 -0.4867 -0.9697 -0.2935
 3746TIP3    H132729   6.092   2.547   4.884 -0.5779  0.1742 -2.0345
 3746TIP3    H232730   6.014   2.417   4.881  1.5601 -1.1518 -2.3860
 3747TIP3   OH232731   3.769   4.535   2.363  1.4288  0.0406  0.1003
 3747TIP3    H132732   3.756   4.501   2.451  0.5320  0.8354  0.2870
 3747TIP3    H232733   3.861   4.518   2.344  1.3057 -1.3602  0.6540
 3748TIP3   OH232734   5.341   5.422   0.372 -0.4419  0.0741 -0.0153
 3748TIP3    H132735   5.425   5.378   0.358  0.5166  1.1830  1.8276
 3748TIP3    H232736   5.285   5.354   0.410  0.3244 -0.1332  0.7772
 3749TIP3   OH232737   1.311   5.428  14.033 -0.6581 -0.2497  0.5091
 3749TIP3    H132738   1.339   5.427  13.941 -2.0799  0.0403  0.0492
 3749TIP3    H232739   1.369   5.492  14.074 -1.6929  1.6269 -0.7937
 3750TIP3   OH232740   0.143   2.255  11.149 -0.3863  0.0583 -0.3495
 3750TIP3    H132741   0.221   2.218  11.107  0.6011  1.0185  0.5825
 3750TIP3    H232742   0.172   2.282  11.235 -1.7187  0.6222 -0.0486
 3751TIP3   OH232743   3.568   3.884   1.480 -0.7248  0.1872  0.1921
 3751TIP3    H132744   3.605   3.959   1.526 -1.3239  1.3407 -1.1369
 3751TIP3    H232745   3.636   3.817   1.486 -0.1583  0.8383  1.3799
 3752TIP3   OH232746   2.550   3.376  14.979  0.3896 -1.0396 -0.5840
 3752TIP3    H132747   2.506   3.387  14.894  0.1386 -1.2723 -0.4877
 3752TIP3    H232748   2.591   3.289  14.973 -0.8116 -1.6799  0.0450
 3753TIP3   OH232749   6.025   2.712  15.955 -0.5422  0.1108  0.0188
 3753TIP3    H132750   6.118   2.691  15.959 -0.4116  0.8017  1.1018
 3753TIP3    H232751   5.982   2.627  15.962  0.0031 -0.1959 -0.2762
 3754TIP3   OH232752   5.860   1.128   0.754  0.7803  0.0573 -0.2829
 3754TIP3    H132753   5.860   1.111   0.659 -0.0005  0.8417 -0.4390
 3754TIP3    H232754   5.928   1.194   0.767  2.3139 -1.5034  0.0198
 3755TIP3   OH232755   1.830   2.520  12.024  0.4302  0.0596 -0.2888
 3755TIP3    H132756   1.919   2.543  12.050  0.1955  0.5364  0.1158
 3755TIP3    H232757   1.781   2.603  12.030 -0.2856 -0.4076  0.5613
 3756TIP3   OH232758   6.356   3.048   2.038 -0.2903  0.7605 -0.2758
 3756TIP3    H132759   6.370   2.983   1.969 -2.1561  0.2056 -0.1860
 3756TIP3    H232760   6.264   3.071   2.031 -0.2303  1.5951  1.2834
 3757TIP3   OH232761   3.515   4.929  14.317 -0.0350 -0.0960 -0.5378
 3757TIP3    H132762   3.551   4.939  14.229 -0.2086 -1.0917 -0.7387
 3757TIP3    H232763   3.572   4.864  14.359 -0.3054 -0.0684 -0.1227
 3758TIP3   OH232764   5.505   6.662  13.808  0.0650 -0.6670 -0.0760
 3758TIP3    H132765   5.528   6.747  13.843 -0.1760 -1.6747  2.7771
 3758TIP3    H232766   5.529   6.600  13.877 -1.8957 -2.6892 -1.0734
 3759TIP3   OH232767   4.217   4.282   3.192 -0.4423  0.2370 -0.6075
 3759TIP3    H132768   4.262   4.217   3.137 -0.4290  0.8031 -1.2742
 3759TIP3    H232769   4.130   4.245   3.206  0.2248 -0.9222  0.7823
 3760TIP3   OH232770   2.122   0.627   5.543  0.0007 -0.5256 -0.3609
 3760TIP3    H132771   2.101   0.577   5.464 -2.1041  1.4540 -1.1611
 3760TIP3    H232772   2.188   0.690   5.515 -0.8866  0.3063 -0.6582
 3761TIP3   OH232773   4.850   2.158  12.052  0.0257 -0.4733  0.1667
 3761TIP3    H132774   4.834   2.106  11.973 -0.7565 -1.0116  0.6601
 3761TIP3    H232775   4.770   2.147  12.104 -1.4539  3.4991 -0.9199
 3762TIP3   OH232776   2.193   5.590  16.567 -0.3656 -0.6493  0.6938
 3762TIP3    H132777   2.194   5.663  16.629  2.8380 -0.4592  0.5928
 3762TIP3    H232778   2.211   5.513  16.621  1.9966 -0.5360  0.1767
 3763TIP3   OH232779   2.762   5.835   1.931  0.2633  0.0771  0.2512
 3763TIP3    H132780   2.705   5.778   1.879  0.3129 -0.8967  1.2147
 3763TIP3    H232781   2.710   5.913   1.947 -1.0770 -1.0164  1.5893
 3764TIP3   OH232782   2.457   5.191  15.078 -0.5562 -0.0501 -0.3140
 3764TIP3    H132783   2.457   5.107  15.125 -2.5395 -0.2087 -0.5366
 3764TIP3    H232784   2.539   5.233  15.105  0.0327 -1.6463  0.5293
 3765TIP3   OH232785   4.472   3.386   5.024 -0.3398 -0.1187  0.2702
 3765TIP3    H132786   4.415   3.409   5.098  0.3797 -0.1623  0.8435
 3765TIP3    H232787   4.428   3.312   4.983 -1.5734  0.8935 -0.3150
 3766TIP3   OH232788   1.149   5.612   4.712  0.5102  0.0803 -0.1680
 3766TIP3    H132789   1.216   5.544   4.708 -0.7245 -1.1429 -0.7018
 3766TIP3    H232790   1.072   5.573   4.671 -0.0872  2.0017 -0.9849
 3767TIP3   OH232791   5.478   3.506   3.252 -0.0049 -0.1805 -0.5090
 3767TIP3    H132792   5.482   3.448   3.176 -0.0050 -0.4213 -0.3275
 3767TIP3    H232793   5.546   3.571   3.236 -0.4996  0.2049 -1.0688
 3768TIP3   OH232794   0.569   0.385   5.322  0.1117  0.3554  0.1914
 3768TIP3    H132795   0.656   0.416   5.296  0.8478 -0.3326  1.7177
 3768TIP3    H232796   0.537   0.337   5.246  0.4747  1.7472 -0.8857
 3769TIP3   OH232797   0.708   3.771   1.378 -0.2154 -0.2184  0.0394
 3769TIP3    H132798   0.746   3.839   1.433 -3.5791 -0.6842  3.3711
 3769TIP3    H232799   0.744   3.689   1.414 -0.5024 -0.4183 -0.1268
 3770TIP3   OH232800   3.304   0.051  15.407 -0.6250 -0.1931  0.3401
 3770TIP3    H132801   3.213   0.081  15.412 -0.2574  0.7809  2.2089
 3770TIP3    H232802   3.302  -0.025  15.350 -2.7167 -0.5367  0.8117
 3771TIP3   OH232803   1.945   2.659  11.008  0.4934 -0.3550  0.3563
 3771TIP3    H132804   1.853   2.687  11.000  0.1189 -1.5068  0.4753
 3771TIP3    H232805   1.942   2.583  11.066  1.4694 -0.7027 -0.0310
 3772TIP3   OH232806   0.853   5.200   3.365 -0.5384  0.2809  0.7711
 3772TIP3    H132807   0.760   5.206   3.343 -0.3637  0.9737  0.1961
 3772TIP3    H232808   0.897   5.183   3.282 -0.1457 -0.1185  1.0509
 3773TIP3   OH232809   6.022   1.989   3.854  0.4074  0.6075  0.6832
 3773TIP3    H132810   6.115   2.012   3.854  0.7223 -0.5411 -0.2408
 3773TIP3    H232811   5.996   1.991   3.762  0.0779 -1.1097  0.7043
 3774TIP3   OH232812   2.452   4.052   1.694  0.4114  0.0741 -0.0692
 3774TIP3    H132813   2.394   3.986   1.730  0.0177  1.2297  1.5163
 3774TIP3    H232814   2.539   4.011   1.692  0.2449 -0.3551  1.2596
 3775TIP3   OH232815   6.665   0.362  14.352 -0.6771 -0.2276 -0.0840
 3775TIP3    H132816   6.597   0.412  14.306 -0.2506 -1.7145 -2.4910
 3775TIP3    H232817   6.673   0.281  14.302  1.4812 -0.9757  1.3398
 3776TIP3   OH232818   3.507   1.053   5.654 -0.1973 -1.1687  0.5227
 3776TIP3    H132819   3.519   0.966   5.616 -1.6833 -1.4494  0.6245
 3776TIP3    H232820   3.415   1.056   5.678 -0.7804  1.2696 -1.5329
 3777TIP3   OH232821   0.005   0.643   1.298 -0.3591  0.4574 -0.0544
 3777TIP3    H132822  -0.057   0.585   1.255  1.1381  0.5706 -2.5745
 3777TIP3    H232823   0.079   0.587   1.322  0.2212  0.9347 -0.6636
 3778TIP3   OH232824   1.885   4.519  11.139  0.4688 -0.9863  0.2491
 3778TIP3    H132825   1.951   4.482  11.197 -0.2510  1.1820  2.6296
 3778TIP3    H232826   1.802   4.480  11.168 -0.0845  1.1311  1.7353
 3779TIP3   OH232827   5.379   0.489   3.629 -0.8071  0.4452  0.6518
 3779TIP3    H132828   5.417   0.461   3.546 -2.7274 -0.6932  0.0721
 3779TIP3    H232829   5.453   0.522   3.681  0.8585 -1.3245 -0.4773
 3780TIP3   OH232830   6.005   5.008  15.353 -0.2576  0.1516  0.3050
 3780TIP3    H132831   6.045   5.018  15.267  0.0325  0.6903  0.5005
 3780TIP3    H232832   6.079   5.004  15.414 -0.4739  1.8883  0.7442
 3781TIP3   OH232833   3.590   2.330   2.002  0.3457 -0.2109  0.8809
 3781TIP3    H132834   3.644   2.255   1.977  0.9757  0.4698  0.1761
 3781TIP3    H232835   3.651   2.391   2.045  0.2308  0.7178 -0.2296
 3782TIP3   OH232836   1.532   6.768   3.718 -0.0309  0.5242  0.2540
 3782TIP3    H132837   1.553   6.757   3.625 -1.2249  0.4652 -0.0276
 3782TIP3    H232838   1.484   6.851   3.722  0.4562  0.7845  0.9084
 3783TIP3   OH232839   1.283   4.178  11.001 -0.3567  0.3897  0.3984
 3783TIP3    H132840   1.194   4.175  11.035 -0.1195 -2.0441  1.0184
 3783TIP3    H232841   1.338   4.183  11.080  0.0909 -1.4276  0.2545
 3784TIP3   OH232842   2.227   0.101  13.366  0.1903 -0.1430  1.0456
 3784TIP3    H132843   2.193   0.144  13.444  0.0006  0.2357  0.7584
 3784TIP3    H232844   2.155   0.103  13.304  1.7099  4.2856 -1.0681
 3785TIP3   OH232845   2.790   6.616   4.214  0.1451  0.0483 -0.0670
 3785TIP3    H132846   2.729   6.542   4.214 -0.2381  0.3431  1.0512
 3785TIP3    H232847   2.791   6.645   4.305  0.2371  1.4547 -0.5038
 3786TIP3   OH232848   5.227   6.576   4.240 -0.2366  0.1084 -0.0034
 3786TIP3    H132849   5.250   6.619   4.322 -1.1603 -0.4474  0.5604
 3786TIP3    H232850   5.290   6.611   4.177 -0.0498  1.1838  0.7445
 3787TIP3   OH232851   1.167   1.841  13.109  0.0917 -0.3976 -0.6558
 3787TIP3    H132852   1.143   1.933  13.115  0.1604 -0.4654  2.5852
 3787TIP3    H232853   1.241   1.839  13.049  3.7817  2.6340  3.1765
 3788TIP3   OH232854   3.880   1.369  12.446  0.0765  0.1775  0.0309
 3788TIP3    H132855   3.840   1.320  12.517  0.7599 -2.1457 -1.1023
 3788TIP3    H232856   3.841   1.333  12.366  1.1512  0.9641 -0.8935
 3789TIP3   OH232857   1.886   1.197  11.383  0.3367 -0.8004 -0.2583
 3789TIP3    H132858   1.960   1.250  11.413  1.2743 -1.7604 -0.8295
 3789TIP3    H232859   1.836   1.180  11.463 -0.0504  0.9924 -0.0708
 3790TIP3   OH232860   3.058   4.557  16.227  0.6687  0.7126 -0.5548
 3790TIP3    H132861   3.037   4.582  16.137  0.1809 -0.0857 -0.6755
 3790TIP3    H232862   3.146   4.519  16.221  1.4787  2.4389 -0.3445
 3791TIP3   OH232863   6.609   3.088  12.094  0.7091 -0.4840  0.2929
 3791TIP3    H132864   6.636   3.164  12.043  0.2096 -0.1735  0.4868
 3791TIP3    H232865   6.609   3.015  12.031  0.1297 -0.1145 -0.1422
 3792TIP3   OH232866   0.536   2.619   3.653 -0.0557  0.3271  0.1504
 3792TIP3    H132867   0.482   2.695   3.631 -0.5464  0.2059  0.9282
 3792TIP3    H232868   0.600   2.614   3.581 -0.2419  1.2542 -0.0899
 3793TIP3   OH232869   6.592   2.113   4.032 -0.2012  0.1216  0.4660
 3793TIP3    H132870   6.679   2.105   3.993 -0.4894 -2.3443  0.1961
 3793TIP3    H232871   6.605   2.172   4.107  2.0188 -1.2270  1.2310
 3794TIP3   OH232872   5.254   5.260  14.501 -0.3104  0.0595  0.1963
 3794TIP3    H132873   5.230   5.262  14.594 -1.0661 -0.7548  0.0389
 3794TIP3    H232874   5.349   5.270  14.500 -0.3715  0.8269  1.0075
 3795TIP3   OH232875   0.649   1.716   4.425  0.5773 -0.4010 -0.2991
 3795TIP3    H132876   0.695   1.797   4.404  1.1555 -0.8032 -0.6055
 3795TIP3    H232877   0.569   1.745   4.469  1.1614  0.3034  0.3239
 3796TIP3   OH232878   2.149   3.483   1.941 -0.0231  0.0282  0.2813
 3796TIP3    H132879   2.075   3.469   1.882  0.4072 -1.4419  0.0531
 3796TIP3    H232880   2.168   3.397   1.977 -0.5598  0.9352  2.9675
 3797TIP3   OH232881   2.938   0.229  11.753 -0.3972 -0.1435  0.4141
 3797TIP3    H132882   2.875   0.288  11.793 -0.0015  0.1913  0.5517
 3797TIP3    H232883   2.957   0.164  11.822  0.5163  0.6096  0.8995
 3798TIP3   OH232884   3.395   3.219  17.124 -0.1484  0.3427  0.4919
 3798TIP3    H132885   3.426   3.279  17.191  0.9019  0.0279  0.3144
 3798TIP3    H232886   3.473   3.198  17.072 -0.8019  0.0675 -0.4210
 3799TIP3   OH232887   1.091   0.525   4.636  1.0524 -0.0801 -0.1203
 3799TIP3    H132888   1.011   0.551   4.680  0.1542  0.2615 -1.8573
 3799TIP3    H232889   1.159   0.582   4.672  0.2915  0.4090  0.5521
 3800TIP3   OH232890   4.935   0.712  13.414 -0.0394 -0.0271 -0.0544
 3800TIP3    H132891   4.942   0.768  13.491  0.2971 -1.1298  0.7381
 3800TIP3    H232892   4.842   0.692  13.407 -0.4195  1.9531 -1.3384
 3801TIP3   OH232893   5.078   6.182   3.717 -0.2030 -0.1151  0.0284
 3801TIP3    H132894   5.167   6.145   3.714 -0.0318  0.2456  0.5221
 3801TIP3    H232895   5.027   6.116   3.763 -0.2540 -0.4350 -0.4701
 3802TIP3   OH232896   4.018   0.128   1.370  0.2394 -0.5377 -0.3528
 3802TIP3    H132897   4.070   0.071   1.313  0.2081 -0.8271 -0.0924
 3802TIP3    H232898   4.047   0.107   1.459  0.3507 -0.0285 -0.2611
 3803TIP3   OH232899   6.247   4.132  14.603 -0.6144  0.0864  0.0747
 3803TIP3    H132900   6.162   4.108  14.639  0.0879  0.3476  2.0083
 3803TIP3    H232901   6.310   4.104  14.669  0.9507 -1.2733 -1.8689
 3804TIP3   OH232902   3.849   5.353   5.208 -0.0081 -0.1774  0.1548
 3804TIP3    H132903   3.894   5.285   5.160 -0.9773 -0.8206  0.1275
 3804TIP3    H232904   3.756   5.329   5.204 -0.3043  0.7747  0.7181
 3805TIP3   OH232905   6.228   3.511  13.400  0.1530 -0.2100  0.1933
 3805TIP3    H132906   6.253   3.604  13.397 -1.0087  0.0938 -0.6297
 3805TIP3    H232907   6.306   3.464  13.372  0.3363  0.6098 -0.7015
 3806TIP3   OH232908   0.771   0.721   5.445  0.0189 -0.5693 -0.3558
 3806TIP3    H132909   0.784   0.811   5.415 -0.8360 -0.1641  0.4194
 3806TIP3    H232910   0.776   0.668   5.365  1.4844  0.0452 -0.6936
 3807TIP3   OH232911   3.906   5.939   0.213 -0.0409  1.3937 -0.8185
 3807TIP3    H132912   3.814   5.949   0.189 -1.0154 -0.0565  1.8552
 3807TIP3    H232913   3.937   6.028   0.228 -1.2705  1.8541 -0.9141
 3808TIP3   OH232914   4.110   1.837   6.733 -0.0853  0.0144  0.2972
 3808TIP3    H132915   4.025   1.873   6.706 -0.6556 -1.5471 -0.0622
 3808TIP3    H232916   4.152   1.810   6.651 -0.1059 -1.0523  0.6289
 3809TIP3   OH232917   4.223   0.794  15.557 -0.0908 -0.5101 -0.2021
 3809TIP3    H132918   4.272   0.720  15.522 -0.5488 -0.9440  0.0646
 3809TIP3    H232919   4.231   0.786  15.652 -0.0356 -0.1438 -0.1726
 3810TIP3   OH232920   3.123   1.457  12.741  0.2505 -0.1295 -0.6486
 3810TIP3    H132921   3.065   1.498  12.677  0.3160 -1.3404 -1.5350
 3810TIP3    H232922   3.180   1.400  12.688  1.6815  0.3816  0.2804
 3811TIP3   OH232923   0.619   4.390   3.584  0.2029 -0.4394 -0.4618
 3811TIP3    H132924   0.558   4.318   3.567 -0.1176 -0.1109 -0.6920
 3811TIP3    H232925   0.617   4.443   3.504  0.5502 -0.2497 -0.3472
 3812TIP3   OH232926   3.050   4.956   1.715 -0.0358  0.3723 -0.2348
 3812TIP3    H132927   3.052   5.051   1.726 -2.0639  0.5008 -0.4300
 3812TIP3    H232928   2.987   4.926   1.780  0.6468 -0.8595 -0.1205
 3813TIP3   OH232929   1.591   1.659  14.930  0.2389 -0.8459 -0.1611
 3813TIP3    H132930   1.498   1.643  14.920  0.3857 -1.1377 -1.1062
 3813TIP3    H232931   1.627   1.655  14.842  1.0766 -0.2470  0.1306
 3814TIP3   OH232932   4.558   0.095   6.530 -0.3969  0.3168  0.2969
 3814TIP3    H132933   4.508   0.149   6.468  0.8925 -0.8941 -1.9249
 3814TIP3    H232934   4.491   0.052   6.583 -1.5519  1.6628  0.0041
 3815TIP3   OH232935   2.347   0.340  12.335  0.0040 -0.1747 -0.2964
 3815TIP3    H132936   2.441   0.347  12.319 -0.0035 -0.9793 -0.7114
 3815TIP3    H232937   2.310   0.314  12.251 -0.6719  0.7089 -0.2960
 3816TIP3   OH232938   5.239   5.821  13.428 -0.2028 -0.2658 -0.1299
 3816TIP3    H132939   5.183   5.898  13.412 -2.4942 -1.7765  0.1637
 3816TIP3    H232940   5.189   5.767  13.489  0.5020 -2.7841 -1.6047
 3817TIP3   OH232941   4.813   4.698   4.022 -0.0018 -0.0879  0.4266
 3817TIP3    H132942   4.774   4.617   3.989  0.2149  0.2980 -0.8147
 3817TIP3    H232943   4.780   4.767   3.964  0.6174  0.5779  0.8381
 3818TIP3   OH232944   1.007   3.103  13.862  0.1422  0.1361  0.4364
 3818TIP3    H132945   0.999   3.172  13.796  0.3645 -1.3816 -1.2566
 3818TIP3    H232946   0.917   3.091  13.895  0.1077  1.2208  0.7891
 3819TIP3   OH232947   2.380   6.157   6.318 -0.0759  0.2417  0.4799
 3819TIP3    H132948   2.287   6.152   6.338  0.1772  1.2934  2.1379
 3819TIP3    H232949   2.424   6.143   6.402  1.3167 -0.9852 -0.3901
 3820TIP3   OH232950   4.677   5.636  12.248 -0.0470  0.1182  0.1830
 3820TIP3    H132951   4.676   5.615  12.155 -0.4939 -0.7876  0.3843
 3820TIP3    H232952   4.632   5.721  12.253 -0.4535 -0.0538 -0.3815
 3821TIP3   OH232953   6.189   2.455  17.109  0.0909  0.4704  0.0295
 3821TIP3    H132954   6.135   2.410  17.175 -0.7063 -0.1270 -1.0100
 3821TIP3    H232955   6.226   2.384  17.057 -1.2580  0.9651 -1.7022
 3822TIP3   OH232956   4.048   5.672   5.037  0.1286 -0.3097 -0.0459
 3822TIP3    H132957   3.979   5.656   4.973 -0.8589 -2.4296  1.4319
 3822TIP3    H232958   4.127   5.634   4.998 -0.0670 -0.0176 -0.7311
 3823TIP3   OH232959   1.727   1.246  17.382  0.3324  0.9814 -0.0369
 3823TIP3    H132960   1.661   1.293  17.431  0.8485  0.7310  0.9156
 3823TIP3    H232961   1.682   1.170  17.345  0.3359  0.1553  1.6025
 3824TIP3   OH232962   4.628   6.501  11.462 -0.2455  0.3404 -0.1078
 3824TIP3    H132963   4.702   6.471  11.409 -0.7290  1.2343 -1.3213
 3824TIP3    H232964   4.580   6.421  11.483  1.1789 -0.2899  0.9227
 3825TIP3   OH232965   4.703   5.250  12.176  0.4295 -0.1413  0.1070
 3825TIP3    H132966   4.701   5.274  12.084 -0.0961 -2.5525 -0.5677
 3825TIP3    H232967   4.640   5.179  12.184  2.0542 -1.4715  1.8808
 3826TIP3   OH232968   6.135   5.113   5.931  0.9937  0.3980 -0.6563
 3826TIP3    H132969   6.099   5.052   5.866  0.7501  0.0280 -0.1816
 3826TIP3    H232970   6.228   5.092   5.933  0.5572 -1.7794  1.3414
 3827TIP3   OH232971   1.553   1.265   2.736  0.7447  0.9920 -0.0665
 3827TIP3    H132972   1.477   1.276   2.680  1.2181  3.0130 -0.3907
 3827TIP3    H232973   1.603   1.194   2.696 -0.8079 -0.2206  0.0330
 3828TIP3   OH232974   5.362   2.394   1.157  0.7469  0.3102 -0.4576
 3828TIP3    H132975   5.334   2.449   1.231  0.8207 -0.0116 -0.1894
 3828TIP3    H232976   5.456   2.411   1.148  0.4161  1.7137 -1.6280
 3829TIP3   OH232977   5.554   5.158   4.768  0.4520 -0.2514  0.0770
 3829TIP3    H132978   5.468   5.174   4.805  0.2190 -0.8467 -0.2042
 3829TIP3    H232979   5.571   5.065   4.782  1.2552 -0.0473  0.5594
 3830TIP3   OH232980   1.153   1.497  14.272  0.5565 -0.7391 -0.3568
 3830TIP3    H132981   1.177   1.548  14.195 -2.5866 -0.3952 -1.2407
 3830TIP3    H232982   1.073   1.538  14.304  1.7596 -0.8566  3.1960
 3831TIP3   OH232983   2.181   1.921   1.871 -0.2845 -0.4366 -0.0974
 3831TIP3    H132984   2.222   1.966   1.797  0.5559  1.4193  1.4127
 3831TIP3    H232985   2.244   1.928   1.942 -1.5310 -1.1516  1.1452
 3832TIP3   OH232986   3.753   5.963   5.302  0.1592  0.3563  0.1352
 3832TIP3    H132987   3.766   6.028   5.372  0.8991 -1.3930  1.6953
 3832TIP3    H232988   3.840   5.926   5.287 -0.3146 -0.5503 -0.4406
 3833TIP3   OH232989   4.358   1.535  15.049  0.0224 -0.1024 -0.4910
 3833TIP3    H132990   4.274   1.526  15.094 -0.0490 -0.7699 -0.7418
 3833TIP3    H232991   4.385   1.625  15.065 -1.4073  0.5465 -1.5798
 3834TIP3   OH232992   6.213   0.821  10.626 -0.0813  0.0903  0.3358
 3834TIP3    H132993   6.252   0.733  10.632  0.5429  0.1289 -2.0746
 3834TIP3    H232994   6.188   0.842  10.716  0.1739 -2.3576  1.0642
 3835TIP3   OH232995   2.845   0.712   1.314 -0.0809 -0.0750  0.0049
 3835TIP3    H132996   2.912   0.697   1.381  0.5683 -2.5133 -1.0822
 3835TIP3    H232997   2.806   0.626   1.298 -1.6648  0.8079 -1.2903
 3836TIP3   OH232998   2.127   0.085   1.460 -0.3482  0.3007 -0.5273
 3836TIP3    H132999   2.135   0.021   1.389  2.0740  1.1184 -1.0703
 3836TIP3    H233000   2.135   0.033   1.540 -3.5394 -0.6915 -0.7302
 3837TIP3   OH233001   5.821   1.461   4.689 -0.5594 -0.5488  0.0415
 3837TIP3    H133002   5.887   1.483   4.754  0.9278  1.4911 -2.0009
 3837TIP3    H233003   5.829   1.366   4.679  1.6921 -0.4502  0.3077
 3838TIP3   OH233004   1.451   1.136   6.272  0.2778  0.8407 -0.1997
 3838TIP3    H133005   1.524   1.089   6.232 -1.4016 -0.1130 -2.3710
 3838TIP3    H233006   1.485   1.224   6.289  2.1640  0.1807 -0.3077
 3839TIP3   OH233007   3.098   1.752  12.124 -0.2558  0.8705 -0.5511
 3839TIP3    H133008   3.179   1.748  12.073 -0.7527  1.4306 -1.3852
 3839TIP3    H233009   3.075   1.844  12.126 -1.2757  0.6303 -0.9364
 3840TIP3   OH233010   5.842   0.551   0.125 -0.4556  0.2531 -0.1900
 3840TIP3    H133011   5.824   0.495   0.049 -1.3111  0.3322 -0.0552
 3840TIP3    H233012   5.867   0.490   0.194 -2.0417 -0.0484  0.1536
 3841TIP3   OH233013   2.301   3.279   3.346  0.2485 -0.1211  0.3817
 3841TIP3    H133014   2.271   3.229   3.270  0.9215  1.6821 -1.1338
 3841TIP3    H233015   2.226   3.281   3.404 -0.9495  0.1291 -1.1189
 3842TIP3   OH233016   3.911   3.742  12.199  0.3145 -0.3139  0.1702
 3842TIP3    H133017   3.891   3.775  12.112 -0.5087  1.5245  0.9909
 3842TIP3    H233018   4.005   3.725  12.198  0.2837 -0.4958 -1.1064
 3843TIP3   OH233019   3.421   5.713   3.115  0.6405 -0.5565  0.3687
 3843TIP3    H133020   3.456   5.782   3.172 -1.7196 -0.3787  1.7438
 3843TIP3    H233021   3.400   5.758   3.033 -2.3521  0.8887  1.7674
 3844TIP3   OH233022   1.501   5.611  16.383 -0.3925  1.0206 -0.4900
 3844TIP3    H133023   1.413   5.589  16.415 -0.2492 -1.3190 -1.5229
 3844TIP3    H233024   1.488   5.639  16.293 -0.0845  0.4049 -0.7353
 3845TIP3   OH233025   5.379   1.500   2.629  0.3317  0.6872  0.4316
 3845TIP3    H133026   5.463   1.512   2.675  3.2707 -0.1823 -4.0588
 3845TIP3    H233027   5.370   1.578   2.576 -0.8956  0.0748 -0.2888
 3846TIP3   OH233028   1.807   6.448  16.074 -0.1282  0.1402  0.1652
 3846TIP3    H133029   1.824   6.535  16.111 -1.3927  1.2756 -1.7634
 3846TIP3    H233030   1.886   6.398  16.093  0.6136  1.6939  1.3601
 3847TIP3   OH233031   4.891   0.480  11.523 -0.2969  0.9097 -0.3030
 3847TIP3    H133032   4.962   0.524  11.570  1.3658  1.5072 -3.1281
 3847TIP3    H233033   4.877   0.398  11.571  1.6811  1.1928  0.8451
 3848TIP3   OH233034   4.572   0.002  15.393 -0.1013  0.5085 -0.0032
 3848TIP3    H133035   4.580  -0.075  15.337 -0.3652  0.4636  0.0199
 3848TIP3    H233036   4.639  -0.010  15.459 -1.7702 -1.0088  1.5434
 3849TIP3   OH233037   0.114   1.344  16.567  0.1443 -0.0633  0.4479
 3849TIP3    H133038   0.097   1.428  16.608 -2.1754 -0.8543  1.2466
 3849TIP3    H233039   0.196   1.313  16.607 -0.1330  0.8333  1.7561
 3850TIP3   OH233040   2.338   3.429   2.952  0.4191 -0.5447 -0.4499
 3850TIP3    H133041   2.423   3.420   2.908  1.2703 -0.1905  1.0481
 3850TIP3    H233042   2.277   3.380   2.896  1.1687  0.8732 -2.6725
 3851TIP3   OH233043   5.556   2.377  11.731  0.0503  0.5070  0.1278
 3851TIP3    H133044   5.474   2.361  11.779  0.6637  0.5541  1.2376
 3851TIP3    H233045   5.607   2.434  11.789  0.9283  0.3716 -0.4863
 3852TIP3   OH233046   2.100   3.617  16.458  0.7812 -0.3684  0.0445
 3852TIP3    H133047   2.120   3.526  16.437  2.8866  0.0488 -0.0083
 3852TIP3    H233048   2.068   3.614  16.548 -2.6263 -1.4895 -1.0433
 3853TIP3   OH233049   4.996   2.259   3.102  0.2603  0.4561  0.2771
 3853TIP3    H133050   5.026   2.244   3.012 -0.7574 -0.2292  0.0328
 3853TIP3    H233051   5.047   2.199   3.155  0.3702  0.3599  0.0623
 3854TIP3   OH233052   6.726   5.962   2.197  0.1280 -0.4345  0.0976
 3854TIP3    H133053   6.725   5.957   2.101 -1.8726 -0.1278  0.0474
 3854TIP3    H233054   6.818   5.957   2.220  0.8877  1.7280 -1.9696
 3855TIP3   OH233055   1.155   6.441  11.799 -0.7172 -0.4778 -0.1019
 3855TIP3    H133056   1.242   6.423  11.762 -1.0199 -0.6255 -0.7745
 3855TIP3    H233057   1.172   6.482  11.883  0.0064  0.0480 -0.4958
 3856TIP3   OH233058   6.446   6.102  17.008 -0.0059  0.3855 -0.2968
 3856TIP3    H133059   6.402   6.034  16.958  0.5524  0.7924 -1.3660
 3856TIP3    H233060   6.491   6.055  17.078  0.0171 -0.3068 -0.7670
 3857TIP3   OH233061   1.954   0.827  13.778  0.0007 -0.6688 -0.1292
 3857TIP3    H133062   2.037   0.874  13.792 -0.6556  0.4026  0.2776
 3857TIP3    H233063   1.933   0.842  13.686 -1.2687  1.7142  0.4585
 3858TIP3   OH233064   4.649   2.008  15.554  0.2509  0.1236 -0.2039
 3858TIP3    H133065   4.704   2.035  15.627  0.6279  2.1677 -1.1781
 3858TIP3    H233066   4.582   1.951  15.593 -0.2572  2.0664  1.9369
 3859TIP3   OH233067   4.944   1.199  11.695 -0.0282 -0.1537  0.2563
 3859TIP3    H133068   4.992   1.140  11.753 -1.1023 -0.1732  1.1511
 3859TIP3    H233069   4.938   1.281  11.743 -1.6058 -0.4070  0.5501
 3860TIP3   OH233070   5.268   0.767   0.471  0.4170  0.3995 -0.5937
 3860TIP3    H133071   5.331   0.751   0.542  0.5904  1.4503 -0.4934
 3860TIP3    H233072   5.196   0.707   0.489 -0.0922  1.4788  1.1850
 3861TIP3   OH233073   5.891   2.410   6.038  0.3401 -0.3837 -0.0876
 3861TIP3    H133074   5.909   2.317   6.049 -0.3738 -0.4853  0.3193
 3861TIP3    H233075   5.977   2.451   6.033  0.6668 -1.1495 -1.0930
 3862TIP3   OH233076   3.180   3.420  17.207  0.6850 -0.0925  0.0744
 3862TIP3    H133077   3.121   3.492  17.229  0.8193 -0.3139  1.2435
 3862TIP3    H233078   3.129   3.362  17.152  0.5039  0.7770 -0.7009
 3863TIP3   OH233079   3.089   6.652  12.286  0.1089 -0.1506 -0.4536
 3863TIP3    H133080   3.000   6.637  12.254  0.6472 -2.1188 -1.1385
 3863TIP3    H233081   3.114   6.736  12.247 -1.3619  0.3312 -0.4112
 3864TIP3   OH233082   4.069   4.220   2.821 -0.3264 -0.6140  0.2724
 3864TIP3    H133083   4.156   4.206   2.859 -0.8766 -1.4729  1.2865
 3864TIP3    H233084   4.039   4.133   2.795 -0.8013 -0.3024 -0.2591
 3865TIP3   OH233085   6.141   4.687  11.452  0.1916 -0.2734 -0.8491
 3865TIP3    H133086   6.185   4.762  11.414 -0.5648  0.4049 -0.4242
 3865TIP3    H233087   6.049   4.699  11.428 -0.8613  1.5669  3.1591
 3866TIP3   OH233088   5.196   4.496   4.863  1.0945 -0.0964 -0.0090
 3866TIP3    H133089   5.251   4.418   4.859  1.9115  0.4755 -0.1891
 3866TIP3    H233090   5.143   4.493   4.784  2.0190  0.1677 -0.6565
 3867TIP3   OH233091   4.020   0.750   0.190 -0.0145  0.5384 -0.3029
 3867TIP3    H133092   4.020   0.668   0.240 -0.9958  1.2680  0.9348
 3867TIP3    H233093   4.084   0.805   0.234  0.8652  0.3617 -1.3164
 3868TIP3   OH233094   4.594   3.671  13.679  0.2459 -0.4325 -0.4550
 3868TIP3    H133095   4.537   3.622  13.621 -0.1660 -0.5855  0.0650
 3868TIP3    H233096   4.679   3.672  13.636  0.0484 -0.8939 -0.8555
 3869TIP3   OH233097   1.001   3.609  17.328 -0.5610  0.3132 -0.0803
 3869TIP3    H133098   1.060   3.674  17.367  1.4146 -0.8695 -0.9180
 3869TIP3    H233099   0.942   3.584  17.399 -0.5958  2.1318  0.5748
 3870TIP3   OH233100   0.695   3.720  10.685 -0.1850 -0.2490 -0.0223
 3870TIP3    H133101   0.761   3.724  10.616  0.0070  1.5425  0.2285
 3870TIP3    H233102   0.620   3.768  10.649  0.2199  1.4618  1.2784
 3871TIP3   OH233103   0.635   0.175  16.432  0.4590  0.5666  0.6385
 3871TIP3    H133104   0.571   0.220  16.377  1.2995  1.2319  0.1811
 3871TIP3    H233105   0.667   0.103  16.377 -0.1600 -0.0057  1.0090
 3872TIP3   OH233106   6.541   5.789   2.855 -0.1483 -0.4177 -0.5169
 3872TIP3    H133107   6.544   5.870   2.805 -0.5922 -1.2336 -1.9074
 3872TIP3    H233108   6.470   5.738   2.815  0.6464 -1.8229 -0.2106
 3873TIP3   OH233109   2.231   3.675  13.258  0.3798 -0.4564 -0.2276
 3873TIP3    H133110   2.253   3.596  13.210 -1.7225 -0.2454 -1.6706
 3873TIP3    H233111   2.139   3.663  13.284 -0.1592  1.6716 -0.9366
 3874TIP3   OH233112   4.654   3.864   0.108  0.1667 -0.2215 -0.1743
 3874TIP3    H133113   4.695   3.852   0.193  0.6838  0.2880 -0.3456
 3874TIP3    H233114   4.574   3.914   0.127  0.0030 -0.5699  0.0686
 3875TIP3   OH233115   6.519   0.827  13.831 -0.0521  0.2520  0.2078
 3875TIP3    H133116   6.584   0.765  13.865 -0.5304  0.4314  1.5221
 3875TIP3    H233117   6.496   0.881  13.907 -0.2773  1.4884 -0.7074
 3876TIP3   OH233118   1.762   1.575   3.151 -0.1834  0.1460 -0.3794
 3876TIP3    H133119   1.829   1.508   3.137 -1.5029 -1.0735 -1.1831
 3876TIP3    H233120   1.737   1.566   3.243 -1.1616 -1.3284 -0.7481
 3877TIP3   OH233121   4.259   5.526  15.685 -0.0158  0.0577  0.7649
 3877TIP3    H133122   4.307   5.449  15.717  1.8681  0.6737 -0.3731
 3877TIP3    H233123   4.322   5.570  15.627 -2.2399  0.5201 -1.4714
 3878TIP3   OH233124   1.635   6.467  13.967 -0.1056  0.2057  0.0896
 3878TIP3    H133125   1.635   6.517  14.049  1.2532 -1.1087  0.9664
 3878TIP3    H233126   1.713   6.497  13.921  0.4319 -0.6837  0.3864
 3879TIP3   OH233127   2.669   6.446  12.392 -0.0900  0.1550 -0.1465
 3879TIP3    H133128   2.764   6.448  12.402 -0.2760 -0.7362  2.7042
 3879TIP3    H233129   2.647   6.353  12.393 -1.1476  0.3658  2.1050
 3880TIP3   OH233130   6.349   0.523   3.180  0.4650 -0.5242 -0.6499
 3880TIP3    H133131   6.395   0.456   3.130  0.4508  0.0103 -1.3822
 3880TIP3    H233132   6.262   0.486   3.195  1.0214 -1.4393  0.5391
 3881TIP3   OH233133   2.211   4.363   6.279 -0.5016  0.5212 -0.3677
 3881TIP3    H133134   2.193   4.318   6.362  0.8345  1.4155  0.4559
 3881TIP3    H233135   2.144   4.332   6.219 -1.2891 -0.4201  0.9596
 3882TIP3   OH233136   1.940   5.975  13.333  0.0487 -0.3754 -0.1384
 3882TIP3    H133137   2.019   5.955  13.283  0.1402  0.9795 -0.5765
 3882TIP3    H233138   1.956   6.062  13.371  0.8145 -2.1105  4.0273
 3883TIP3   OH233139   2.575   4.996  10.486 -0.1170 -0.1602 -0.3776
 3883TIP3    H133140   2.529   4.917  10.512  0.6966 -0.6504 -0.3983
 3883TIP3    H233141   2.623   5.023  10.565  0.8713 -0.5956 -0.8129
 3884TIP3   OH233142   4.362   6.665   1.433 -0.2655 -0.0651 -0.0971
 3884TIP3    H133143   4.452   6.693   1.449 -1.2573  3.4790  0.1839
 3884TIP3    H233144   4.314   6.695   1.509 -1.9050 -0.9258 -0.7384
 3885TIP3   OH233145   3.548   1.947   0.451 -0.5407 -0.1826 -0.1899
 3885TIP3    H133146   3.637   1.930   0.419  1.2989  1.2483  3.5830
 3885TIP3    H233147   3.533   2.040   0.433 -0.3587  0.0958  1.0009
 3886TIP3   OH233148   1.247   0.146   0.625 -0.9022 -0.3953  0.7022
 3886TIP3    H133149   1.300   0.158   0.546 -0.6018  1.0892  1.0914
 3886TIP3    H233150   1.291   0.076   0.673 -0.8456 -1.0199 -0.2413
 3887TIP3   OH233151   5.790   0.344   3.020  0.0231  0.0283  0.0129
 3887TIP3    H133152   5.722   0.298   2.972 -0.1821  0.6442 -0.2961
 3887TIP3    H233153   5.818   0.282   3.088 -0.2526 -0.5404 -0.3869
 3888TIP3   OH233154   5.574   4.830  16.658 -0.2370  0.1196  0.1380
 3888TIP3    H133155   5.628   4.880  16.596  0.4941  0.4280  1.0041
 3888TIP3    H233156   5.633   4.763  16.692 -0.5759  0.0743  0.6412
 3889TIP3   OH233157   6.157   5.198   4.966  0.2937  0.4282  0.3106
 3889TIP3    H133158   6.177   5.127   5.028 -0.8407 -1.2181 -1.1151
 3889TIP3    H233159   6.065   5.219   4.983  0.0037  0.0393 -0.7017
 3890TIP3   OH233160   5.775   4.031   1.102  0.0488  0.6873 -0.2517
 3890TIP3    H133161   5.747   4.119   1.078 -0.9682  0.7735  1.1240
 3890TIP3    H233162   5.869   4.039   1.119  0.2222  1.2025 -1.3547
 3891TIP3   OH233163   4.954   4.623   3.548 -0.1667 -0.1072 -0.0118
 3891TIP3    H133164   4.870   4.668   3.546 -1.9223 -3.0719 -2.2808
 3891TIP3    H233165   4.961   4.581   3.462  3.3364 -0.5887  0.3591
 3892TIP3   OH233166   3.961   5.815  14.846 -0.6250  0.2861 -0.0375
 3892TIP3    H133167   3.959   5.737  14.901  2.1844  0.7055  0.8123
 3892TIP3    H233168   3.908   5.791  14.770  0.2452 -2.5333  0.1175
 3893TIP3   OH233169   2.694   4.066  14.899  0.1189 -0.2634 -0.0710
 3893TIP3    H133170   2.758   4.047  14.968  1.4542  0.6762 -0.9943
 3893TIP3    H233171   2.725   4.017  14.823 -0.3392  0.0974 -0.4977
 3894TIP3   OH233172   1.961   4.824   0.097 -0.7233 -0.2712 -0.5087
 3894TIP3    H133173   1.930   4.908   0.064 -0.0683 -0.1820 -0.9260
 3894TIP3    H233174   1.930   4.820   0.187  0.4586  1.0749  0.0008
 3895TIP3   OH233175   1.144   4.250   4.938 -0.6692 -0.0738  0.2963
 3895TIP3    H133176   1.135   4.158   4.962  2.5354 -0.6982 -0.4763
 3895TIP3    H233177   1.238   4.263   4.925 -0.9415  3.4343  0.7564
 3896TIP3   OH233178   4.193   6.662   4.195  0.1760 -0.2063 -0.6983
 3896TIP3    H133179   4.169   6.597   4.129 -1.3748 -0.5145  0.1118
 3896TIP3    H233180   4.280   6.634   4.225 -0.1440 -1.4974 -0.8891
 3897TIP3   OH233181   2.475   1.554   4.637 -0.3663  0.3694  0.2230
 3897TIP3    H133182   2.498   1.607   4.713  1.7752  0.6638 -0.5692
 3897TIP3    H233183   2.545   1.570   4.574 -1.2836 -1.0400 -1.2373
 3898TIP3   OH233184   5.440   5.974  14.956 -0.1874  0.2359 -0.6476
 3898TIP3    H133185   5.487   5.897  14.925 -0.3794  0.2867 -1.0641
 3898TIP3    H233186   5.418   5.953  15.047 -0.1993 -0.1796 -0.7445
 3899TIP3   OH233187   4.249   1.936   5.616 -0.0393 -0.1973 -0.3214
 3899TIP3    H133188   4.342   1.912   5.623 -0.8580 -3.4603  1.3922
 3899TIP3    H233189   4.206   1.857   5.583 -2.3018  1.0244 -0.4864
 3900TIP3   OH233190   1.327   5.500  11.931 -0.2114  0.3531  0.7958
 3900TIP3    H133191   1.292   5.415  11.903 -1.7046  0.4530  2.1941
 3900TIP3    H233192   1.256   5.562  11.913  0.1366  0.9798  1.5377
 3901TIP3   OH233193   2.631   6.177  12.415  0.5563  0.2654 -0.6434
 3901TIP3    H133194   2.587   6.105  12.460 -0.8867  2.1517  1.1329
 3901TIP3    H233195   2.635   6.149  12.323 -1.7124 -1.2631 -0.3584
 3902TIP3   OH233196   5.511   5.097   4.373  0.0720 -0.2426  0.7220
 3902TIP3    H133197   5.473   5.084   4.286 -1.4168 -0.0539  1.3066
 3902TIP3    H233198   5.436   5.117   4.429  1.2701  2.6120  1.4906
 3903TIP3   OH233199   0.145   4.048  15.690 -0.0967 -0.5933  0.1780
 3903TIP3    H133200   0.151   4.020  15.598 -0.7201 -0.6741  0.1551
 3903TIP3    H233201   0.051   4.054  15.706 -0.0497  2.1897 -0.0222
 3904TIP3   OH233202   0.594   0.801   2.989 -0.6764 -0.1184 -0.4284
 3904TIP3    H133203   0.508   0.843   2.986 -0.2060  0.9857  0.7907
 3904TIP3    H233204   0.607   0.778   3.081  0.7770  0.7123 -0.3961
 3905TIP3   OH233205   6.689   2.343   4.242  0.2091  0.0605  0.3004
 3905TIP3    H133206   6.704   2.437   4.253 -3.7889  1.0846 -1.1254
 3905TIP3    H233207   6.631   2.320   4.315  0.7937 -1.2423  0.3756
 3906TIP3   OH233208   0.129   5.203   0.107  0.1769 -0.1280 -0.2115
 3906TIP3    H133209   0.154   5.118   0.144 -1.1737 -0.5760 -0.2520
 3906TIP3    H233210   0.079   5.181   0.028 -0.1783  0.6997 -0.2302
 3907TIP3   OH233211   2.615   3.103  12.290 -0.1464 -0.1684 -0.3730
 3907TIP3    H133212   2.589   3.096  12.198  0.5645  0.2242 -0.6130
 3907TIP3    H233213   2.649   3.192  12.299  1.2682 -0.6952 -0.1388
 3908TIP3   OH233214   0.501   2.508  14.380  0.0798 -0.3040 -0.3063
 3908TIP3    H133215   0.548   2.589  14.362  1.3111 -1.0117 -0.3710
 3908TIP3    H233216   0.417   2.536  14.416  0.5152  0.9937 -0.2730
 3909TIP3   OH233217   5.788   1.610   0.571 -0.2109  0.5984  0.3600
 3909TIP3    H133218   5.694   1.591   0.571  0.2298 -1.8261  0.0394
 3909TIP3    H233219   5.793   1.703   0.595 -2.5596  0.2710  2.5582
 3910TIP3   OH233220   1.055   0.584  15.127 -0.4684 -0.5775  0.6025
 3910TIP3    H133221   1.017   0.670  15.149 -0.9550 -0.6599  0.1128
 3910TIP3    H233222   1.071   0.589  15.033 -1.5499 -1.4174  0.3562
 3911TIP3   OH233223   0.193   2.429  11.754  0.4923 -0.1517  0.0474
 3911TIP3    H133224   0.278   2.404  11.719 -0.5608 -1.7477 -1.5734
 3911TIP3    H233225   0.146   2.347  11.767 -1.5332  0.7214 -1.1607
 3912TIP3   OH233226   6.115   5.138  17.338 -0.2589  0.0444 -0.7909
 3912TIP3    H133227   6.042   5.168  17.284 -1.1418  1.0313  0.8372
 3912TIP3    H233228   6.090   5.164  17.427  0.5489 -2.5626  0.2848
 3913TIP3   OH233229   4.650   4.319  12.564 -0.1936 -0.1426 -0.1836
 3913TIP3    H133230   4.708   4.325  12.640 -0.4938 -1.3954  0.1628
 3913TIP3    H233231   4.675   4.393  12.509  2.2340 -1.0165 -0.3754
 3914TIP3   OH233232   1.285   4.944  16.436  0.0589  0.3642  0.2668
 3914TIP3    H133233   1.315   4.906  16.354  1.0578 -1.4805  1.4078
 3914TIP3    H233234   1.215   5.004  16.411 -0.6815 -1.2285 -1.7845
 3915TIP3   OH233235   1.751   3.761  11.105 -0.2034 -0.3468  0.0408
 3915TIP3    H133236   1.739   3.709  11.026  1.1082  1.0765 -1.1490
 3915TIP3    H233237   1.844   3.748  11.128 -0.5558 -0.7240  1.3661
 3916TIP3   OH233238   3.723   1.042  14.244  0.2307  0.4085 -0.7567
 3916TIP3    H133239   3.732   1.108  14.313  1.0558  0.6309 -1.0542
 3916TIP3    H233240   3.682   0.967  14.287 -1.7799  1.4862 -0.6654
 3917TIP3   OH233241   5.731   5.855  11.611  0.7115  0.4603 -0.0809
 3917TIP3    H133242   5.813   5.848  11.563  0.3569  0.1577 -0.6498
 3917TIP3    H233243   5.666   5.876  11.544  0.1139 -0.5463  0.1679
 3918TIP3   OH233244   4.615   1.475   2.797  0.3697  0.5478  0.6636
 3918TIP3    H133245   4.575   1.562   2.809  1.7657  1.1817  0.8965
 3918TIP3    H233246   4.709   1.492   2.797  0.6949 -0.5397 -2.5701
 3919TIP3   OH233247   2.816   2.202   0.755  0.2251 -0.2731 -0.3617
 3919TIP3    H133248   2.812   2.107   0.759  0.8631 -0.2796  0.2618
 3919TIP3    H233249   2.729   2.229   0.725  0.6200 -1.1386 -2.4793
 3920TIP3   OH233250   5.890   0.211   3.296 -0.1300 -0.0466  0.1150
 3920TIP3    H133251   5.912   0.242   3.383  0.5897 -1.6967  0.5633
 3920TIP3    H233252   5.921   0.121   3.294 -0.6275 -0.2235 -1.6660
 3921TIP3   OH233253   0.648   5.768   4.962 -0.6031 -0.0854 -0.1378
 3921TIP3    H133254   0.639   5.836   4.895 -1.6337 -0.4122 -0.3607
 3921TIP3    H233255   0.735   5.732   4.947 -0.2771  0.7837 -0.4002
 3922TIP3   OH233256   4.113   5.385   4.521 -0.5854 -0.6501  0.6425
 3922TIP3    H133257   4.043   5.332   4.483 -0.1677  0.0425 -1.2267
 3922TIP3    H233258   4.142   5.441   4.448  1.8985 -0.9044  1.3713
 3923TIP3   OH233259   5.241   3.862  11.417  0.1728  0.0128 -0.1638
 3923TIP3    H133260   5.330   3.833  11.398  0.2950  0.7867 -0.8536
 3923TIP3    H233261   5.215   3.812  11.494  1.0178 -0.5853 -0.2545
 3924TIP3   OH233262   2.923   0.006   3.268  0.2393 -0.4467 -0.1926
 3924TIP3    H133263   3.006   0.051   3.286  0.6581 -0.4592 -1.8850
 3924TIP3    H233264   2.948  -0.085   3.254 -0.0657 -0.4580 -0.6787
 3925TIP3   OH233265   6.156   4.211   2.434  0.2101 -0.1968 -0.3800
 3925TIP3    H133266   6.208   4.216   2.514 -0.4976 -1.4893  0.1995
 3925TIP3    H233267   6.218   4.228   2.363  0.6047  2.3308  0.4675
 3926TIP3   OH233268   6.332   3.339  10.716  0.6688  0.0029 -0.1427
 3926TIP3    H133269   6.249   3.293  10.705  0.4635  0.7704 -2.1951
 3926TIP3    H233270   6.397   3.269  10.725  0.1208 -0.6918 -1.2764
 3927TIP3   OH233271   5.588   2.466  17.343  0.1311 -0.5861  0.5550
 3927TIP3    H133272   5.629   2.547  17.313  2.0549 -0.0161  4.2036
 3927TIP3    H233273   5.627   2.398  17.288 -0.7791  0.7477 -1.9071
 3928TIP3   OH233274   2.645   6.275  16.702 -0.1207  0.0885 -0.3012
 3928TIP3    H133275   2.569   6.269  16.643  0.5029  3.7079 -1.7361
 3928TIP3    H233276   2.703   6.338  16.659  2.9389 -1.2184  1.6328
 3929TIP3   OH233277   2.492   3.824  17.347 -0.7757  0.5844  0.6695
 3929TIP3    H133278   2.524   3.829  17.437  2.6026 -1.8132 -0.1909
 3929TIP3    H233279   2.516   3.908  17.308  2.3945 -0.1006  0.8424
 3930TIP3   OH233280   5.597   6.068   3.490 -0.2898  0.2270  0.0544
 3930TIP3    H133281   5.524   6.027   3.442 -1.4275  1.9615  0.2267
 3930TIP3    H233282   5.649   5.994   3.522 -1.5960 -1.0468 -0.6567
 3931TIP3   OH233283   0.554   2.048   1.133  0.2451  0.3612 -0.2233
 3931TIP3    H133284   0.530   1.957   1.148  0.6662  0.3351  0.3457
 3931TIP3    H233285   0.557   2.087   1.221  1.0874  0.6556 -0.3715
 3932TIP3   OH233286   2.763   4.879   3.897  0.3048 -0.4769  0.2250
 3932TIP3    H133287   2.820   4.877   3.820  1.7171  0.7423  1.1960
 3932TIP3    H233288   2.788   4.958   3.944  0.7707 -2.0797  2.8834
 3933TIP3   OH233289   1.675   6.042  13.145  0.1603 -0.4176  0.0086
 3933TIP3    H133290   1.586   6.076  13.134  0.2197 -0.6143 -1.1449
 3933TIP3    H233291   1.670   5.984  13.221 -0.5460  0.0497  0.3282
 3934TIP3   OH233292   1.935   1.985   0.205  0.4920  0.3828 -0.2430
 3934TIP3    H133293   1.846   1.965   0.177  0.2225  0.7764  0.3151
 3934TIP3    H233294   1.987   1.912   0.172 -0.2901 -0.6764  0.7998
 3935TIP3   OH233295   1.795   3.246   3.553 -0.0047  0.2753 -0.6312
 3935TIP3    H133296   1.726   3.248   3.619 -1.7573 -0.1725 -2.3736
 3935TIP3    H233297   1.771   3.175   3.494  1.2189  0.9971 -2.0749
 3936TIP3   OH233298   5.025   3.070  13.586 -0.4237  0.7961  0.5460
 3936TIP3    H133299   5.015   2.989  13.636  0.0155  0.6904  0.4651
 3936TIP3    H233300   5.109   3.106  13.615 -0.0546  0.6183 -0.2901
 3937TIP3   OH233301   2.747   6.076  14.020  0.6439 -0.1607  0.5859
 3937TIP3    H133302   2.737   6.150  13.961 -0.0717  0.1240  1.0619
 3937TIP3    H233303   2.719   6.108  14.106  0.9655 -0.7850  0.9370
 3938TIP3   OH233304   6.025   4.036  14.717 -0.0633  0.0915  0.0453
 3938TIP3    H133305   5.973   3.957  14.703  0.8704 -1.0182  2.3867
 3938TIP3    H233306   5.971   4.091  14.773 -0.4681  0.9108 -1.1087
 3939TIP3   OH233307   2.239   0.766  15.922 -0.2011  0.1560 -0.6946
 3939TIP3    H133308   2.319   0.765  15.975  0.1026 -1.6993 -1.1051
 3939TIP3    H233309   2.270   0.750  15.833 -1.0701 -1.5158 -0.7307
 3940TIP3   OH233310   0.998   2.996  11.388 -0.2953  0.2457 -0.2495
 3940TIP3    H133311   0.994   3.070  11.329  0.7267  0.4249 -0.1143
 3940TIP3    H233312   1.090   2.970  11.388 -0.5388 -0.6719  0.1319
 3941TIP3   OH233313   4.524   2.835   6.608 -0.6272 -0.0463  0.0966
 3941TIP3    H133314   4.611   2.842   6.568  0.0204 -1.4615  1.1445
 3941TIP3    H233315   4.499   2.925   6.627  0.5989  0.3946 -0.2634
 3942TIP3   OH233316   4.515   3.836   4.192 -0.3240  0.2977  0.2332
 3942TIP3    H133317   4.579   3.907   4.180 -0.9319  0.7669 -0.3185
 3942TIP3    H233318   4.432   3.881   4.207 -0.4612 -0.3129  1.3342
 3943TIP3   OH233319   1.573   4.582   2.225 -0.2539 -0.2105 -0.3860
 3943TIP3    H133320   1.647   4.537   2.184  0.5364  1.2172 -0.6070
 3943TIP3    H233321   1.544   4.645   2.159 -0.7195  0.2571  0.2507
 3944TIP3   OH233322   2.025   4.795   0.687  0.4028  0.2600 -0.1604
 3944TIP3    H133323   2.021   4.812   0.781  0.7091 -0.6827  0.0349
 3944TIP3    H233324   2.096   4.732   0.677  1.4205  1.5086 -1.2136
 3945TIP3   OH233325   4.781   3.821  15.502 -0.4093 -0.5087 -0.1380
 3945TIP3    H133326   4.713   3.879  15.470  0.4073  1.2108  1.0422
 3945TIP3    H233327   4.850   3.826  15.436 -0.1511  0.2630  0.1810
 3946TIP3   OH233328   1.206   2.073   0.747 -0.3228  0.1404  0.1562
 3946TIP3    H133329   1.147   2.047   0.676  1.1259 -0.4331 -0.8867
 3946TIP3    H233330   1.229   2.164   0.728  1.8364 -0.6566 -1.4845
 3947TIP3   OH233331   4.761   0.878  15.026  0.6913  0.1729 -0.2026
 3947TIP3    H133332   4.803   0.793  15.033 -0.4522 -0.4082 -0.1380
 3947TIP3    H233333   4.667   0.859  15.032  0.3517  1.2976 -1.5410
 3948TIP3   OH233334   5.378   3.693  12.103 -0.1491  0.4688 -0.3915
 3948TIP3    H133335   5.348   3.665  12.189 -0.6102 -0.8016 -0.9467
 3948TIP3    H233336   5.453   3.749  12.121  0.6658 -0.9456  0.7862
 3949TIP3   OH233337   1.005   3.671  11.569 -0.6966  0.0370 -0.5138
 3949TIP3    H133338   1.093   3.680  11.533  0.9797 -1.1247  2.9244
 3949TIP3    H233339   0.988   3.577  11.570 -0.8004  0.0434  1.3041
 3950TIP3   OH233340   6.379   1.229   1.217  0.5711 -0.0281  0.2036
 3950TIP3    H133341   6.379   1.301   1.154 -0.1167 -0.0212  0.2024
 3950TIP3    H233342   6.452   1.248   1.276 -0.2225  1.2183  0.8240
 3951TIP3   OH233343   1.698   3.506  12.550 -0.2436 -0.2447 -0.1832
 3951TIP3    H133344   1.757   3.511  12.626 -0.0827  2.4952 -0.3892
 3951TIP3    H233345   1.686   3.412  12.536  3.1001 -0.9464  0.6276
 3952TIP3   OH233346   2.758   4.586   5.960  0.1332 -0.1094  0.2113
 3952TIP3    H133347   2.827   4.632   5.912  0.8967 -1.7827 -0.4091
 3952TIP3    H233348   2.804   4.541   6.031 -0.5625  0.0311  0.7606
 3953TIP3   OH233349   6.570   3.891   0.621  0.5743  0.4648 -0.7007
 3953TIP3    H133350   6.485   3.850   0.636  0.5690 -0.0486 -1.9304
 3953TIP3    H233351   6.568   3.971   0.673  1.1271 -1.6963  2.9977
 3954TIP3   OH233352   4.495   3.234  14.693  0.1314  0.7237 -0.0140
 3954TIP3    H133353   4.589   3.217  14.689  0.1361  0.3737  1.2878
 3954TIP3    H233354   4.470   3.247  14.602  1.1352 -0.8507 -0.5634
 3955TIP3   OH233355   4.267   1.817  15.085 -0.8185  0.0627  0.4125
 3955TIP3    H133356   4.312   1.899  15.065 -1.1272  0.1288 -0.0269
 3955TIP3    H233357   4.282   1.804  15.179 -0.3589  0.3677  0.3856
 3956TIP3   OH233358   2.825   6.628  14.079 -0.1346 -0.5139  0.1314
 3956TIP3    H133359   2.759   6.684  14.038  0.9367  0.1861 -0.7013
 3956TIP3    H233360   2.903   6.684  14.087  0.8094 -1.7126 -0.2297
 3957TIP3   OH233361   3.704   1.369   4.390 -0.2175 -0.5183 -0.3667
 3957TIP3    H133362   3.756   1.437   4.432  2.0642 -2.2033 -0.2558
 3957TIP3    H233363   3.626   1.414   4.359  0.0474  1.6305  1.8195
 3958TIP3   OH233364   0.116   3.641   5.724  0.0738 -0.6773 -0.0243
 3958TIP3    H133365   0.066   3.683   5.653  0.9313 -1.1705 -0.9455
 3958TIP3    H233366   0.141   3.714   5.781 -3.4790 -0.6182  1.6957
 3959TIP3   OH233367   0.742   5.073   5.669  1.2082  0.0794 -0.7079
 3959TIP3    H133368   0.674   5.008   5.689 -0.5646  0.8376 -3.6307
 3959TIP3    H233369   0.801   5.026   5.609  1.1537  0.4961 -1.0903
 3960TIP3   OH233370   5.417   1.786  16.611  0.3399 -0.8212 -0.3188
 3960TIP3    H133371   5.436   1.720  16.678 -0.6269 -1.0114 -0.2220
 3960TIP3    H233372   5.405   1.867  16.661 -0.8659 -1.0610 -0.2098
 3961TIP3   OH233373   5.378   3.002  15.859 -0.7295 -0.0187  0.3817
 3961TIP3    H133374   5.343   2.925  15.904 -0.5114 -0.2420  0.1732
 3961TIP3    H233375   5.362   2.985  15.766 -1.0368  0.3697  0.3622
 3962TIP3   OH233376   4.007   3.257   5.167  0.3398 -0.5651  0.0268
 3962TIP3    H133377   3.965   3.235   5.085  0.9098 -2.2446  0.1446
 3962TIP3    H233378   3.946   3.316   5.211 -1.0478 -1.5143 -0.5780
 3963TIP3   OH233379   2.694   1.009  14.103  0.7995  0.0611 -0.2871
 3963TIP3    H133380   2.716   0.999  14.196 -0.1643 -0.0270 -0.0554
 3963TIP3    H233381   2.730   1.094  14.078  3.8422 -1.2219 -0.6869
 3964TIP3   OH233382   4.057   4.143  12.832 -0.2885 -0.9695  0.3115
 3964TIP3    H133383   4.058   4.147  12.737 -3.2239 -0.1945  0.2282
 3964TIP3    H233384   4.149   4.128  12.856  1.0190  1.4380 -2.5048
 3965TIP3   OH233385   6.495   2.071  11.853  0.2657 -0.5143  0.5158
 3965TIP3    H133386   6.402   2.049  11.840  0.3828 -0.5410 -0.3205
 3965TIP3    H233387   6.532   2.072  11.765  1.4439 -2.1417  0.9420
 3966TIP3   OH233388   2.461   3.929  15.283 -0.2884 -0.4478 -0.2274
 3966TIP3    H133389   2.527   3.860  15.280 -1.1477 -1.2580 -1.4596
 3966TIP3    H233390   2.382   3.885  15.314 -1.2629 -0.4374 -2.4795
 3967TIP3   OH233391   5.685   5.618   4.078 -0.2140  0.4236 -0.1493
 3967TIP3    H133392   5.734   5.679   4.023 -3.8018  0.1479 -4.1799
 3967TIP3    H233393   5.720   5.532   4.055  0.6592  0.5089  0.7952
 3968TIP3   OH233394   2.239   2.514   4.823  0.9829  0.7885  0.6424
 3968TIP3    H133395   2.162   2.485   4.775  1.8950  0.9315 -0.9419
 3968TIP3    H233396   2.203   2.564   4.897 -0.4332  0.7630 -0.0034
 3969TIP3   OH233397   1.094   0.757   2.503 -0.1899  0.5195 -0.2435
 3969TIP3    H133398   1.185   0.779   2.485 -0.2283  1.3902  0.5019
 3969TIP3    H233399   1.089   0.662   2.494  0.9071  0.4103  0.1592
 3970TIP3   OH233400   5.820   6.541   4.614 -0.4063  0.5758  0.2283
 3970TIP3    H133401   5.802   6.628   4.649  0.4893  1.0913 -0.5504
 3970TIP3    H233402   5.867   6.557   4.532 -1.6659 -0.6112 -0.7856
 3971TIP3   OH233403   1.823   5.392  15.543  0.2752  0.0113  0.3893
 3971TIP3    H133404   1.888   5.433  15.601  0.5860 -0.8878  0.6958
 3971TIP3    H233405   1.873   5.370  15.464  0.8232 -2.2647  1.2853
 3972TIP3   OH233406   5.562   0.799  11.536  0.0489  0.1010 -0.1904
 3972TIP3    H133407   5.540   0.854  11.462  0.3480 -0.1369 -0.4590
 3972TIP3    H233408   5.498   0.728  11.534  0.1309  0.0286 -0.2977
 3973TIP3   OH233409   1.080   5.299   2.437  0.0783  0.2531 -0.2970
 3973TIP3    H133410   1.176   5.305   2.437  0.0313  1.7042  1.0974
 3973TIP3    H233411   1.053   5.346   2.516 -1.9333  2.3023 -2.0668
 3974TIP3   OH233412   4.084   2.236   1.457 -0.4695  0.1110  0.1802
 3974TIP3    H133413   4.078   2.256   1.550  1.9132 -0.9254  0.6276
 3974TIP3    H233414   4.130   2.311   1.419  0.1896 -0.2845  0.1835
 3975TIP3   OH233415   6.736   1.180  15.922 -0.2361 -0.4356  0.0294
 3975TIP3    H133416   6.691   1.265  15.921  0.0865 -0.2566 -1.1505
 3975TIP3    H233417   6.802   1.189  15.991 -0.2841  0.2299 -0.0018
 3976TIP3   OH233418   2.341   0.884   3.004 -0.1550 -0.6269  0.3083
 3976TIP3    H133419   2.429   0.849   2.988  0.2535 -0.1112  1.3125
 3976TIP3    H233420   2.297   0.877   2.919  1.8610  1.9787 -1.1198
 3977TIP3   OH233421   1.093   2.110  11.961 -0.7385  0.6583 -0.6563
 3977TIP3    H133422   1.151   2.185  11.955 -0.2742  0.3908  0.2807
 3977TIP3    H233423   1.016   2.143  12.008 -0.4978  0.5310 -0.1690
 3978TIP3   OH233424   4.828   1.084   3.423  0.3265  0.3530 -0.6255
 3978TIP3    H133425   4.780   1.155   3.465  0.3661  1.1813 -1.9177
 3978TIP3    H233426   4.920   1.106   3.438  0.3259  0.0944 -0.2536
 3979TIP3   OH233427   5.263   5.627  12.650  0.2868 -0.3177  0.1372
 3979TIP3    H133428   5.343   5.602  12.604  0.3563  0.7557 -0.3643
 3979TIP3    H233429   5.292   5.687  12.719  0.0071 -0.6476  0.5499
 3980TIP3   OH233430   3.353   4.677   1.681  0.2111 -0.1315 -0.5982
 3980TIP3    H133431   3.380   4.687   1.589 -0.0901  2.2706 -0.4831
 3980TIP3    H233432   3.261   4.652   1.676  0.1945 -0.0140 -0.9330
 3981TIP3   OH233433   3.604   3.829   2.176  1.1351  0.3664  0.1524
 3981TIP3    H133434   3.659   3.755   2.150  0.8798 -0.2894  1.3724
 3981TIP3    H233435   3.603   3.886   2.100  0.4436 -1.4247 -1.2584
 3982TIP3   OH233436   5.820   0.141  15.787  0.2183  0.1786 -0.5000
 3982TIP3    H133437   5.776   0.216  15.749 -0.1340  0.1827 -0.0927
 3982TIP3    H233438   5.886   0.178  15.845 -0.0980  0.1738 -0.1369
 3983TIP3   OH233439   1.573   3.328  14.157 -0.1280 -0.2665  0.0298
 3983TIP3    H133440   1.630   3.364  14.225 -0.6645  0.9066 -0.1158
 3983TIP3    H233441   1.507   3.396  14.142 -0.1547 -0.5914 -1.5069
 3984TIP3   OH233442   1.928   3.506   1.442  0.6051  0.0372 -0.4444
 3984TIP3    H133443   1.975   3.454   1.507  0.5088  0.7160  0.1784
 3984TIP3    H233444   1.939   3.597   1.470 -0.6865  0.2489 -0.5351
 3985TIP3   OH233445   2.251   2.812  17.275  0.4483  0.4552  0.6351
 3985TIP3    H133446   2.287   2.889  17.231 -0.6419 -0.6208 -2.4085
 3985TIP3    H233447   2.323   2.749  17.275  0.9064  0.9443  1.8539
 3986TIP3   OH233448   1.751   2.812   2.607  0.1368  0.0523 -0.4097
 3986TIP3    H133449   1.797   2.729   2.607 -1.0945 -0.6627 -1.2534
 3986TIP3    H233450   1.812   2.874   2.568  1.6150 -0.0833  1.5320
 3987TIP3   OH233451   3.673   2.897  16.289  0.1803  0.3465 -0.0631
 3987TIP3    H133452   3.687   2.828  16.354 -1.2600  0.0629 -0.0165
 3987TIP3    H233453   3.685   2.979  16.338 -0.7841  0.1368  0.5554
 3988TIP3   OH233454   2.429   5.607   6.668 -0.1940 -0.0201 -0.2298
 3988TIP3    H133455   2.388   5.590   6.583 -0.0235 -0.7323 -0.1783
 3988TIP3    H233456   2.461   5.522   6.696  4.0764  0.8856 -1.6600
 3989TIP3   OH233457   3.808   1.979   2.113  0.0870  0.4034 -0.3072
 3989TIP3    H133458   3.740   2.020   2.059 -0.1504 -0.1338 -0.4238
 3989TIP3    H233459   3.770   1.894   2.138 -0.2197  1.0163  1.4837
 3990TIP3   OH233460   4.152   4.363   4.597  0.3663  0.2356  0.1005
 3990TIP3    H133461   4.067   4.322   4.586 -0.9947  2.7022  0.5523
 3990TIP3    H233462   4.157   4.427   4.526  1.0138  1.3507  1.1028
 3991TIP3   OH233463   0.620   4.618   1.292  0.3731  0.1966 -0.8943
 3991TIP3    H133464   0.630   4.599   1.385 -0.3965 -1.2708 -1.0791
 3991TIP3    H233465   0.702   4.589   1.252  0.9993  1.4988 -0.6085
 3992TIP3   OH233466   5.694   4.245  16.362  0.0112 -0.0231  0.2601
 3992TIP3    H133467   5.682   4.215  16.453 -0.2837 -0.0382  0.2204
 3992TIP3    H233468   5.667   4.170  16.309  0.5530 -0.1464  0.1602
 3993TIP3   OH233469   3.174   1.800   3.668  0.3398  0.3487 -0.1873
 3993TIP3    H133470   3.193   1.888   3.634 -0.1555 -0.4354 -2.7436
 3993TIP3    H233471   3.079   1.791   3.658  0.4017 -0.5066 -0.0829
 3994TIP3   OH233472   4.155   2.875  14.250  0.5667 -0.0287  0.1142
 3994TIP3    H133473   4.096   2.912  14.185  0.5274  1.1100  0.7848
 3994TIP3    H233474   4.100   2.855  14.325  1.1421  2.0556  1.1646
 3995TIP3   OH233475   3.223   4.265   3.554  0.1364  0.4203 -0.4521
 3995TIP3    H133476   3.281   4.290   3.482  0.7545 -1.6815 -0.7608
 3995TIP3    H233477   3.149   4.222   3.511  1.2701 -2.3134  0.1325
 3996TIP3   OH233478   0.119   5.596  13.721 -0.2413  0.1485 -0.6631
 3996TIP3    H133479   0.109   5.556  13.634  2.3488  0.1701 -1.0615
 3996TIP3    H233480   0.196   5.553  13.758  0.8128  2.5701  0.1744
 3997TIP3   OH233481   0.657   6.310  17.364  0.3946 -0.5937 -0.3664
 3997TIP3    H133482   0.700   6.252  17.302  1.4069 -2.0414  1.5496
 3997TIP3    H233483   0.565   6.282  17.363  0.4598 -0.7863 -1.0219
 3998TIP3   OH233484   0.038   6.601  15.072  0.0264 -0.5407 -0.4882
 3998TIP3    H133485   0.086   6.684  15.071  0.4494 -0.7693 -2.7510
 3998TIP3    H233486  -0.053   6.625  15.055 -0.6676 -0.1979  2.9630
 3999TIP3   OH233487   6.065   0.496   6.709 -0.3573  0.0183 -0.2719
 3999TIP3    H133488   6.078   0.537   6.794 -0.7253  1.1540 -0.7328
 3999TIP3    H233489   6.005   0.424   6.725 -0.1862  0.0400  0.4745
 4000TIP3   OH233490   1.234   6.616  14.727  0.2464 -0.0045 -0.9444
 4000TIP3    H133491   1.190   6.653  14.650  0.3276  0.3453 -0.8225
 4000TIP3    H233492   1.228   6.684  14.793 -0.6966 -0.6842 -0.3066
 4001TIP3   OH233493   6.699   4.827  16.414  0.3809 -0.0128 -0.4010
 4001TIP3    H133494   6.747   4.745  16.430 -1.7774 -1.2047  0.4059
 4001TIP3    H233495   6.689   4.831  16.319  0.5805 -0.6569 -0.4544
 4002TIP3   OH233496   3.867   3.698   1.916  0.2370  0.0816  0.3587
 4002TIP3    H133497   3.806   3.714   1.844 -0.1740 -1.7353  0.2463
 4002TIP3    H233498   3.811   3.673   1.990  0.7089  0.9790  1.0308
 4003TIP3   OH233499   1.403   2.167   5.073 -0.4171  0.5021  0.5903
 4003TIP3    H133500   1.454   2.242   5.042 -0.8803  0.5536 -0.0804
 4003TIP3    H233501   1.341   2.204   5.136  0.7997  0.3366  1.9204
 4004TIP3   OH233502   4.727   6.428  14.709  0.4292  0.6011 -0.1440
 4004TIP3    H133503   4.673   6.478  14.648  1.7324  1.6355 -0.5009
 4004TIP3    H233504   4.802   6.485  14.727  1.7371 -1.0329 -0.1714
 4005TIP3   OH233505   2.875   4.587  14.483  0.1026 -0.3963  0.7073
 4005TIP3    H133506   2.821   4.665  14.469  1.1867  0.4071  0.8780
 4005TIP3    H233507   2.900   4.592  14.575  1.2906 -0.2033  0.3906
 4006TIP3   OH233508   4.534   0.818   4.703  0.2307  0.3912  0.5338
 4006TIP3    H133509   4.516   0.830   4.610  1.3604 -3.3643 -0.3812
 4006TIP3    H233510   4.449   0.798   4.742  0.0768 -0.8516 -0.3576
 4007TIP3   OH233511   5.103   1.965  13.056 -0.5111  0.1835  0.3883
 4007TIP3    H133512   5.181   1.991  13.106 -0.7960  3.8809 -0.7491
 4007TIP3    H233513   5.031   1.973  13.119 -0.4663  1.3512  0.3103
 4008TIP3   OH233514   2.269   3.177  14.090 -0.5258  0.5305 -0.1626
 4008TIP3    H133515   2.183   3.172  14.048 -0.0204 -1.8539 -1.0626
 4008TIP3    H233516   2.282   3.090  14.128  1.9898  0.3809 -1.1659
 4009TIP3   OH233517   6.435   2.334   4.739  0.4794  0.1508  0.3542
 4009TIP3    H133518   6.518   2.367   4.776 -0.0907  0.6562  1.2267
 4009TIP3    H233519   6.369   2.357   4.805 -0.1819 -1.3584  0.2655
 4010TIP3   OH233520   2.451   4.476  10.996  0.1929  0.2584  0.1924
 4010TIP3    H133521   2.356   4.483  10.998  0.1307 -0.4759  0.3244
 4010TIP3    H233522   2.483   4.550  11.047 -0.3598 -0.3212  1.4296
 4011TIP3   OH233523   1.071   3.247   2.849 -0.1957  0.1720 -0.4795
 4011TIP3    H133524   1.100   3.258   2.758  0.1449 -2.2493 -0.7379
 4011TIP3    H233525   1.138   3.192   2.888 -1.4595 -0.6483  0.6088
 4012TIP3   OH233526   1.167   6.333   0.723 -0.6630 -0.2769 -0.3248
 4012TIP3    H133527   1.240   6.290   0.767 -0.5721 -2.1355 -2.1301
 4012TIP3    H233528   1.090   6.309   0.775 -0.0593  2.0930  1.8696
 4013TIP3   OH233529   5.149   5.849   4.878 -0.2822 -0.4735  0.4394
 4013TIP3    H133530   5.195   5.799   4.945  0.9032 -0.5193 -0.3641
 4013TIP3    H233531   5.220   5.890   4.827 -0.9049 -3.0411 -2.8234
 4014TIP3   OH233532   5.419   3.408  14.075  0.5347  0.2479 -0.1908
 4014TIP3    H133533   5.479   3.462  14.023  2.5687 -0.4158  1.3406
 4014TIP3    H233534   5.465   3.394  14.158 -2.3243  0.7816  1.6028
 4015TIP3   OH233535   1.103   5.158   6.318  0.0074  0.2398 -0.5308
 4015TIP3    H133536   1.103   5.126   6.228 -0.0304  1.5239 -1.0133
 4015TIP3    H233537   1.066   5.246   6.312 -2.1801 -0.4783  1.0763
 4016TIP3   OH233538   3.769   6.357  15.103  0.0245  0.0116  0.2793
 4016TIP3    H133539   3.797   6.446  15.126  0.1206 -0.3299  1.5846
 4016TIP3    H233540   3.769   6.311  15.187  0.0043 -1.2269 -0.3935
 4017TIP3   OH233541   4.511   5.640  14.087  0.2992 -0.1395 -0.0115
 4017TIP3    H133542   4.578   5.588  14.132 -1.0573 -2.0842 -0.1454
 4017TIP3    H233543   4.437   5.581  14.076 -0.3923  1.0530 -2.4954
 4018TIP3   OH233544   1.197   4.602   2.261 -0.9747 -0.2953  0.4974
 4018TIP3    H133545   1.194   4.507   2.273  0.5773 -0.9097 -2.8174
 4018TIP3    H233546   1.284   4.627   2.290 -1.4460  0.2101  1.5444
 4019TIP3   OH233547   0.594   1.391   5.465 -0.4108  0.0487 -0.1194
 4019TIP3    H133548   0.642   1.394   5.547  1.5437  0.4632 -1.2155
 4019TIP3    H233549   0.562   1.301   5.458 -1.4757  0.2647  1.5192
 4020TIP3   OH233550   6.500   5.940   1.578  1.1091 -0.4356 -0.4468
 4020TIP3    H133551   6.588   5.903   1.590  1.0649 -0.9185 -1.5373
 4020TIP3    H233552   6.512   6.013   1.517  0.8466 -0.0491 -0.0497
 4021TIP3   OH233553   3.888   3.516  17.382 -0.5806 -0.1064 -0.2399
 4021TIP3    H133554   3.879   3.609  17.361  2.2595  0.0337 -1.2939
 4021TIP3    H233555   3.957   3.512  17.448 -1.0621 -1.4412  0.2216
 4022TIP3   OH233556   2.674   3.214   0.753  0.0441 -0.3330  0.7974
 4022TIP3    H133557   2.699   3.301   0.721 -1.6968 -0.0506  0.0976
 4022TIP3    H233558   2.699   3.155   0.681 -1.6840  0.0169 -0.1515
 4023TIP3   OH233559   2.686   2.921  14.828  0.2238  0.7963 -0.2750
 4023TIP3    H133560   2.655   2.865  14.900 -0.8396  2.0413  0.2830
 4023TIP3    H233561   2.768   2.881  14.800  1.4980  1.1235  2.6714
 4024TIP3   OH233562   0.184   0.238  14.806 -0.3054  0.7188  0.3704
 4024TIP3    H133563   0.201   0.157  14.758  0.3995  0.6391  0.7318
 4024TIP3    H233564   0.265   0.288  14.797 -1.0716  1.8342 -0.6865
 4025TIP3   OH233565   1.610   0.044   2.258  0.0121  0.0816  0.3969
 4025TIP3    H133566   1.673   0.090   2.202 -0.8055 -1.3214 -1.7892
 4025TIP3    H233567   1.664   0.003   2.326  1.0889  1.4640  0.4239
 4026TIP3   OH233568   2.574   0.803  15.478  0.2446 -0.0617 -0.3579
 4026TIP3    H133569   2.559   0.884  15.430 -0.5080  1.2341  1.9324
 4026TIP3    H233570   2.578   0.735  15.410  0.4944  1.8018 -2.3005
 4027TIP3   OH233571   3.908   0.438   1.169 -0.0967  0.0663 -0.0658
 4027TIP3    H133572   3.815   0.421   1.179 -0.3818  1.8017  0.4298
 4027TIP3    H233573   3.922   0.523   1.210  0.9232  1.8936 -3.7529
 4028TIP3   OH233574   5.199   3.652  16.869 -0.2815 -0.5086 -0.4192
 4028TIP3    H133575   5.271   3.706  16.899 -1.4891  1.6028 -1.1163
 4028TIP3    H233576   5.236   3.600  16.797  0.7405 -0.0707 -0.2186
 4029TIP3   OH233577   0.667   4.003   3.363 -0.2071  0.0183 -0.2844
 4029TIP3    H133578   0.733   3.934   3.357  1.4202  1.5348 -1.1536
 4029TIP3    H233579   0.708   4.078   3.320 -1.9183  1.5091  0.5524
 4030TIP3   OH233580   3.737   3.046  12.579 -0.6915 -0.5337  0.2379
 4030TIP3    H133581   3.827   3.079  12.577 -0.9587  0.5439  2.5997
 4030TIP3    H233582   3.721   3.016  12.490  2.1501 -1.2136 -0.1635
 4031TIP3   OH233583   5.828   4.145  14.888  0.4562 -0.6012 -0.1140
 4031TIP3    H133584   5.745   4.156  14.841  0.6818 -1.1052 -0.6536
 4031TIP3    H233585   5.852   4.234  14.916 -2.1818 -0.7932  3.5044
 4032TIP3   OH233586   4.265   0.133  13.019 -0.3185 -0.1089  0.2993
 4032TIP3    H133587   4.225   0.200  13.075 -1.6127 -1.3129  0.8633
 4032TIP3    H233588   4.309   0.074  13.079 -1.0296 -0.9616  0.0000
 4033TIP3   OH233589   0.199   0.914   2.099 -0.3852 -0.1635  0.5186
 4033TIP3    H133590   0.130   0.978   2.117 -1.0647 -0.7895  0.1675
 4033TIP3    H233591   0.269   0.936   2.161  0.0351  1.8830 -0.6167
 4034TIP3   OH233592   2.839   0.981  10.859  0.4747  0.3265 -0.3493
 4034TIP3    H133593   2.923   0.963  10.816  1.1132  0.1667  0.9319
 4034TIP3    H233594   2.856   1.057  10.914 -0.1267  0.0623  0.2146
 4035TIP3   OH233595   1.262   5.897   1.084  0.9164 -0.0320  0.0886
 4035TIP3    H133596   1.358   5.894   1.079  0.9063  0.6993 -0.8831
 4035TIP3    H233597   1.244   5.934   1.171  1.4666 -1.5906  0.8946
 4036TIP3   OH233598   3.402   4.845   1.940 -0.0722  0.1890  0.0161
 4036TIP3    H133599   3.328   4.823   1.883  0.2311  0.2566 -0.4101
 4036TIP3    H233600   3.480   4.817   1.891  0.1903  0.1203  0.4570
 4037TIP3   OH233601   5.538   4.747   3.674 -0.5912 -0.0246 -0.5448
 4037TIP3    H133602   5.503   4.750   3.585 -0.6584 -1.4757 -0.5927
 4037TIP3    H233603   5.502   4.667   3.712  0.2163  0.0549  0.4601
 4038TIP3   OH233604   2.643   0.003  14.468  0.3614  0.7020  0.6824
 4038TIP3    H133605   2.625   0.034  14.557  1.7555 -0.2980  1.3438
 4038TIP3    H233606   2.703  -0.071  14.480  0.4756  0.4718 -1.0878
 4039TIP3   OH233607   5.227   6.161  17.409 -0.5957  0.2276 -0.1730
 4039TIP3    H133608   5.253   6.089  17.352  0.4008  0.6316 -0.2467
 4039TIP3    H233609   5.148   6.129  17.454 -0.2935 -0.8113 -0.3634
 4040TIP3   OH233610   1.606   0.764   2.755 -0.2617  0.2782 -0.3988
 4040TIP3    H133611   1.621   0.738   2.846 -0.6820  1.1706 -0.0691
 4040TIP3    H233612   1.640   0.853   2.749  2.8890 -0.8691 -1.9899
 4041TIP3   OH233613   5.004   3.597  14.547 -0.3700 -0.3102 -0.1775
 4041TIP3    H133614   4.933   3.583  14.609 -0.3974 -2.5712 -0.6282
 4041TIP3    H233615   5.053   3.515  14.548  0.2259 -0.0411 -2.3560
 4042TIP3   OH233616   4.926   6.387   3.246  0.1331 -0.1661  0.1122
 4042TIP3    H133617   4.975   6.417   3.169  0.4571 -1.7080 -0.3073
 4042TIP3    H233618   4.848   6.443   3.247  0.0496 -0.2079 -1.4279
 4043TIP3   OH233619   4.635   2.557   4.872  0.0356  0.1942 -0.1307
 4043TIP3    H133620   4.674   2.530   4.955  1.7007 -1.9429 -1.4764
 4043TIP3    H233621   4.667   2.646   4.859 -0.8753  0.8564  1.8265
 4044TIP3   OH233622   6.209   6.074   0.703  0.4099 -0.3722 -0.0759
 4044TIP3    H133623   6.218   5.981   0.682  1.2949 -0.4493  0.5567
 4044TIP3    H233624   6.285   6.115   0.661  0.5830 -0.1021  0.4847
 4045TIP3   OH233625   5.641   5.113   5.786 -0.2019 -0.3086  0.0014
 4045TIP3    H133626   5.717   5.159   5.749  0.0815  0.4467  1.4540
 4045TIP3    H233627   5.566   5.169   5.763 -0.2620 -0.7623 -0.9416
 4046TIP3   OH233628   2.984   6.309   4.853 -0.4047  0.5483  0.0941
 4046TIP3    H133629   2.958   6.233   4.801 -0.5006  0.8720 -0.3374
 4046TIP3    H233630   2.922   6.312   4.926  0.8975 -1.0499  1.3486
 4047TIP3   OH233631   4.432   1.930   0.887 -0.3039  1.1725  0.3258
 4047TIP3    H133632   4.338   1.938   0.897 -0.2695  0.1946  1.7284
 4047TIP3    H233633   4.466   1.933   0.977  0.9139  0.6852 -0.0976
 4048TIP3   OH233634   1.311   2.949   2.667  0.1255  0.6738  0.2684
 4048TIP3    H133635   1.372   2.910   2.604 -1.6724 -1.3934 -0.3211
 4048TIP3    H233636   1.262   2.874   2.702 -1.4284  2.1538  1.4081
 4049TIP3   OH233637   3.371   3.742   5.070 -0.3873  0.1472 -0.2301
 4049TIP3    H133638   3.304   3.800   5.105 -0.6033  0.0184 -0.4241
 4049TIP3    H233639   3.324   3.686   5.008  0.2087  1.1930 -1.6881
 4050TIP3   OH233640   2.196   6.037  16.103  0.5200 -0.1451 -0.4067
 4050TIP3    H133641   2.143   5.978  16.048  1.1953 -0.7723 -0.3997
 4050TIP3    H233642   2.216   6.111  16.046  1.4413 -0.9181 -1.1210
 4051TIP3   OH233643   4.114   5.117  17.356 -0.7628  0.2461 -0.1421
 4051TIP3    H133644   4.168   5.135  17.432  0.2573 -0.2528 -0.7246
 4051TIP3    H233645   4.074   5.032  17.373  0.3160 -0.3725 -0.6087
 4052TIP3   OH233646   1.123   4.636  16.289  0.3102 -0.3218 -0.1605
 4052TIP3    H133647   1.078   4.602  16.367 -1.0411 -0.2257 -0.8785
 4052TIP3    H233648   1.057   4.689  16.244  1.0090 -0.5507 -1.4945
 4053TIP3   OH233649   6.170   4.189   1.612 -0.1461  0.2127 -0.0658
 4053TIP3    H133650   6.264   4.178   1.600 -0.0252 -0.8341  1.5381
 4053TIP3    H233651   6.157   4.284   1.613  1.0436  0.3915  0.5935
 4054TIP3   OH233652   4.096   0.799  15.027 -0.1987  0.1867 -0.1877
 4054TIP3    H133653   4.136   0.720  14.989 -0.2772 -0.8308  1.7366
 4054TIP3    H233654   4.170   0.849  15.061 -0.2719  0.1128  0.0829
 4055TIP3   OH233655   0.209   3.780  13.587  0.2020 -0.0985  0.0485
 4055TIP3    H133656   0.132   3.752  13.538 -0.9756  2.3509  0.3487
 4055TIP3    H233657   0.269   3.814  13.520 -0.2483  0.7247  0.0553
 4056TIP3   OH233658   0.914   3.440  13.162 -0.0867 -0.2616 -0.2138
 4056TIP3    H133659   0.896   3.507  13.095  0.6218 -0.0810 -0.2321
 4056TIP3    H233660   0.828   3.417  13.196 -0.2743  1.4585  0.5664
 4057TIP3   OH233661   1.404   0.840   2.026 -0.0536 -0.2384 -0.6100
 4057TIP3    H133662   1.486   0.850   2.075  0.1327  0.0672 -0.9727
 4057TIP3    H233663   1.406   0.911   1.962 -1.2358  0.6257  0.2579
 4058TIP3   OH233664   1.996   1.228   2.890  0.0115 -0.6580 -0.4273
 4058TIP3    H133665   2.074   1.232   2.944  0.4703 -1.3594 -1.0284
 4058TIP3    H233666   2.028   1.210   2.802 -0.6434  1.4261 -1.1598
 4059TIP3   OH233667   5.905   0.285   1.842 -0.3136  0.1942 -0.0811
 4059TIP3    H133668   5.815   0.307   1.864 -0.1191  0.3768  0.5528
 4059TIP3    H233669   5.930   0.218   1.905 -0.2645 -0.4525 -0.7715
 4060TIP3   OH233670   2.297   2.599  15.868 -0.1342 -0.2772 -0.1173
 4060TIP3    H133671   2.356   2.591  15.793  0.2111  1.2091 -0.0266
 4060TIP3    H233672   2.232   2.663  15.842 -1.5574 -1.6309 -0.0793
 4061TIP3   OH233673   2.586   0.630   6.626 -0.2553  0.0537  0.4761
 4061TIP3    H133674   2.504   0.653   6.671 -0.3604 -0.7308  0.6909
 4061TIP3    H233675   2.643   0.705   6.642 -1.3385  1.1819 -0.7350
 4062TIP3   OH233676   1.076   2.553   5.782  0.1100 -0.2856  0.0112
 4062TIP3    H133677   1.034   2.508   5.709 -0.7144  0.8030 -0.2083
 4062TIP3    H233678   1.032   2.519   5.860 -0.7452  0.3765 -0.1760
 4063TIP3   OH233679   3.807   6.086  16.812 -0.4714  0.7131  0.4313
 4063TIP3    H133680   3.723   6.130  16.824 -0.9410  0.5103 -1.6545
 4063TIP3    H233681   3.797   6.002  16.857 -1.5602  0.5296 -0.1133
 4064TIP3   OH233682   2.224   4.017  15.474  0.4089  0.8453 -0.0764
 4064TIP3    H133683   2.306   3.978  15.503  0.3739  1.0370  0.2893
 4064TIP3    H233684   2.159   3.983  15.536  0.1707  0.5074 -0.5067
 4065TIP3   OH233685   2.983   5.925  13.435  0.2219  0.0469  0.5687
 4065TIP3    H133686   2.900   5.879  13.426 -1.3534  2.8093 -0.3920
 4065TIP3    H233687   3.049   5.857  13.431 -1.9451 -2.2036  0.6407
 4066TIP3   OH233688   3.682   4.131   3.919 -0.1368  0.1960 -0.1340
 4066TIP3    H133689   3.696   4.138   4.013  1.3892  2.2786 -0.4581
 4066TIP3    H233690   3.590   4.104   3.910 -0.1349 -0.6663  1.9177
 4067TIP3   OH233691   2.050   3.881   3.342  0.0753 -0.7489  0.2298
 4067TIP3    H133692   2.137   3.850   3.369  1.1265  2.1262  0.5105
 4067TIP3    H233693   2.042   3.967   3.384 -2.5050 -0.5068 -0.6366
 4068TIP3   OH233694   5.582   0.396   1.020  0.4053 -0.3265  0.3123
 4068TIP3    H133695   5.667   0.356   0.999  0.6455  0.3510 -0.0606
 4068TIP3    H233696   5.605   0.483   1.055 -0.1381 -0.0703  0.0472
 4069TIP3   OH233697   1.002   3.236   1.559  0.4025  0.9502 -0.4525
 4069TIP3    H133698   1.008   3.297   1.486 -1.2092  0.5901 -0.9272
 4069TIP3    H233699   1.062   3.271   1.625  1.7548  1.3860 -1.8492
 4070TIP3   OH233700   3.395   4.272   4.801  0.2447 -0.6440 -0.4912
 4070TIP3    H133701   3.444   4.290   4.721  1.5471 -2.0196 -0.0424
 4070TIP3    H233702   3.329   4.208   4.774  1.2525 -1.7851 -0.3147
 4071TIP3   OH233703   2.561   4.879  11.797  0.0015 -0.0739  0.3484
 4071TIP3    H133704   2.480   4.904  11.842 -0.0458  0.9394 -0.2536
 4071TIP3    H233705   2.541   4.890  11.704  0.8837  0.4008  0.2009
 4072TIP3   OH233706   5.362   0.110   5.503 -0.0394 -0.1153 -0.0173
 4072TIP3    H133707   5.355   0.038   5.566 -0.9668  0.2711  0.3364
 4072TIP3    H233708   5.299   0.087   5.435  0.2168 -0.0151 -0.2884
 4073TIP3   OH233709   6.190   1.156  14.658  0.4911 -0.4479 -0.1456
 4073TIP3    H133710   6.274   1.148  14.703  0.1719  0.1316  0.5698
 4073TIP3    H233711   6.212   1.144  14.565  1.9450  2.8523 -0.3731
 4074TIP3   OH233712   6.178   1.333  13.526 -0.3959  0.2764 -0.4719
 4074TIP3    H133713   6.149   1.423  13.540  1.1496  0.5324  1.5176
 4074TIP3    H233714   6.133   1.283  13.594 -0.2934 -0.2362 -0.7808
 4075TIP3   OH233715   4.513   3.827   0.412  0.0606 -0.1154  0.2908
 4075TIP3    H133716   4.458   3.880   0.354  0.3798  0.3358  0.3972
 4075TIP3    H233717   4.577   3.888   0.448  1.1404 -0.7736 -0.4325
 4076TIP3   OH233718   5.083   2.469  11.579  0.5087 -0.6012 -0.2464
 4076TIP3    H133719   5.037   2.467  11.495 -1.1868  1.2818  0.5818
 4076TIP3    H233720   5.111   2.378  11.592 -2.4710 -1.7699 -1.0952
 4077TIP3   OH233721   6.281   5.917  12.966 -0.2615  0.1836 -0.1184
 4077TIP3    H133722   6.205   5.945  13.018 -0.3678 -1.3014  0.5943
 4077TIP3    H233723   6.291   5.984  12.899 -1.6270  0.8913  0.3532
 4078TIP3   OH233724   1.924   6.552  11.126 -0.3918  0.6834  0.3693
 4078TIP3    H133725   2.014   6.543  11.158  0.3635 -0.5079 -1.8542
 4078TIP3    H233726   1.928   6.629  11.069 -0.5005  0.0499 -0.5141
 4079TIP3   OH233727   2.759   3.714  17.150  0.5392 -0.2246  0.5884
 4079TIP3    H133728   2.664   3.698  17.154  0.6650 -0.7586  3.4255
 4079TIP3    H233729   2.796   3.631  17.121  0.1384  0.2359 -1.3740
 4080TIP3   OH233730   6.739   5.483  16.487  0.4506 -0.2962  0.2752
 4080TIP3    H133731   6.646   5.503  16.493  0.4343  1.5957 -3.2905
 4080TIP3    H233732   6.748   5.437  16.403  2.7931  0.1403  0.2283
 4081TIP3   OH233733   1.474   6.506  11.707  0.0665 -0.9443  0.1366
 4081TIP3    H133734   1.501   6.440  11.644  0.0838 -1.4979  0.7039
 4081TIP3    H233735   1.550   6.562  11.719  0.1736 -1.0475 -0.0729
 4082TIP3   OH233736   0.914   0.085  12.748 -0.3069 -0.2308  0.4339
 4082TIP3    H133737   0.833   0.131  12.729 -0.3927 -0.3137  0.6000
 4082TIP3    H233738   0.888   0.012  12.803 -0.0536  0.0531  0.9415
 4083TIP3   OH233739   0.227   0.290   0.755  0.1074  0.2381 -0.0621
 4083TIP3    H133740   0.156   0.317   0.697  0.6510  2.7455  0.3203
 4083TIP3    H233741   0.236   0.196   0.740 -3.2983 -0.2197 -0.1033
 4084TIP3   OH233742   6.019   3.235   5.610 -0.6628 -0.3572 -0.4713
 4084TIP3    H133743   6.065   3.160   5.573 -0.2228 -0.1879 -0.2768
 4084TIP3    H233744   5.955   3.197   5.670  0.6458 -0.5469  0.8691
 4085TIP3   OH233745   4.256   0.918   2.963  0.2651  0.0048  0.1167
 4085TIP3    H133746   4.246   0.902   3.057  0.6065  4.6873  1.1950
 4085TIP3    H233747   4.166   0.912   2.928  0.2999 -3.2011  0.2594
 4086TIP3   OH233748   6.706   2.439   1.250  0.2579  0.3116 -0.2177
 4086TIP3    H133749   6.784   2.420   1.300 -1.6220 -0.9695  2.4662
 4086TIP3    H233750   6.670   2.519   1.290  0.1416  0.8651 -1.3825
 4087TIP3   OH233751   2.745   5.135   4.016 -0.2973  0.5006  0.0595
 4087TIP3    H133752   2.815   5.179   3.969 -0.5349  1.5064  0.6367
 4087TIP3    H233753   2.693   5.205   4.055 -1.6911 -0.2083 -0.4418
 4088TIP3   OH233754   3.126   0.701   4.240  1.2375  0.0442 -0.3398
 4088TIP3    H133755   3.046   0.748   4.262  0.2682 -0.9906 -1.5371
 4088TIP3    H233756   3.126   0.697   4.144  1.8107 -1.4763 -0.3024
 4089TIP3   OH233757   1.065   5.708   0.282  0.5751  0.1566 -0.1337
 4089TIP3    H133758   1.149   5.672   0.253 -0.5624 -1.4685 -1.6239
 4089TIP3    H233759   1.000   5.669   0.223 -1.6176 -0.9580  2.7450
 4090TIP3   OH233760   0.846   3.422   5.535 -0.1813 -0.4721  0.2722
 4090TIP3    H133761   0.913   3.491   5.531  0.6944 -1.2514  1.1760
 4090TIP3    H233762   0.764   3.470   5.544  0.3882  0.4679  0.6532
 4091TIP3   OH233763   1.042   6.263   5.610  0.2292 -0.4651 -0.4051
 4091TIP3    H133764   1.088   6.300   5.685  1.3467  0.0063 -1.3002
 4091TIP3    H233765   1.111   6.237   5.549 -0.6450  1.5149 -2.3815
 4092TIP3   OH233766   5.679   0.932   6.047  0.6490 -0.4853  0.7308
 4092TIP3    H133767   5.588   0.929   6.078  0.5425 -0.3296  0.4331
 4092TIP3    H233768   5.729   0.962   6.123  0.8400 -3.1172  1.7746
 4093TIP3   OH233769   0.662   5.704  17.014 -0.5478  0.2138 -0.3674
 4093TIP3    H133770   0.609   5.763  16.961 -1.7788 -0.0129  0.5645
 4093TIP3    H233771   0.623   5.709  17.101  1.2235  0.3311  0.4616
 4094TIP3   OH233772   0.904   0.808   0.496 -0.1678  0.3982  0.2430
 4094TIP3    H133773   0.837   0.872   0.471 -2.6760 -1.3018  2.0595
 4094TIP3    H233774   0.930   0.767   0.414 -2.4920  0.1409 -0.4324
 4095TIP3   OH233775   5.679   2.840  16.641  0.1845  0.1266  0.3945
 4095TIP3    H133776   5.613   2.778  16.672  1.9050 -2.3151 -0.4938
 4095TIP3    H233777   5.664   2.845  16.546 -0.2690  1.5558  0.5194
 4096TIP3   OH233778   2.425   4.008  12.955  0.4387 -0.2030 -0.0794
 4096TIP3    H133779   2.354   4.044  13.008 -1.2600 -0.0626 -2.3000
 4096TIP3    H233780   2.492   3.983  13.018 -1.4270 -0.0040  2.1019
 4097TIP3   OH233781   4.778   4.375  12.816  0.1725  0.5804 -0.5216
 4097TIP3    H133782   4.689   4.383  12.850 -0.6568 -1.6642 -1.9497
 4097TIP3    H233783   4.832   4.417  12.882 -1.7187 -0.0931  1.6029
 4098TIP3   OH233784   4.445   2.728   5.868  0.3935 -0.2420  0.0920
 4098TIP3    H133785   4.485   2.641   5.863  1.4252 -0.3085  4.7924
 4098TIP3    H233786   4.494   2.772   5.938 -0.9080  3.7351 -1.2614
 4099TIP3   OH233787   1.278   6.513   1.573 -0.0692 -0.1480 -0.1023
 4099TIP3    H133788   1.371   6.524   1.555  0.1068  0.6394  1.1283
 4099TIP3    H233789   1.236   6.583   1.523  0.2633  1.0313  1.1834
 4100TIP3   OH233790   3.589   2.696   5.415  0.5186 -0.1208 -0.2102
 4100TIP3    H133791   3.590   2.601   5.399 -0.4881 -0.2974  0.6040
 4100TIP3    H233792   3.496   2.716   5.427  0.5055  1.3445 -2.3452
 4101TIP3   OH233793   1.841   1.225   2.567 -0.6195  0.1837  0.0626
 4101TIP3    H133794   1.924   1.184   2.545 -0.4549  0.4586  0.1682
 4101TIP3    H233795   1.785   1.207   2.491  0.0842  1.4985 -0.8151
 4102TIP3   OH233796   0.095   1.777  11.819  0.6570 -0.2856  0.5284
 4102TIP3    H133797   0.141   1.838  11.877 -1.1870  0.3963  1.3657
 4102TIP3    H233798   0.100   1.693  11.863  0.3895 -0.0417  1.0291
 4103TIP3   OH233799   4.111   2.487  12.059  0.1066  0.5421 -0.1075
 4103TIP3    H133800   4.153   2.434  12.126  0.7061  1.1997  0.0525
 4103TIP3    H233801   4.183   2.538  12.021 -0.1592 -0.1033 -1.5182
 4104TIP3   OH233802   3.743   1.873  17.138 -0.3216  0.1853 -0.0887
 4104TIP3    H133803   3.804   1.916  17.078 -1.1872 -0.2506 -1.3514
 4104TIP3    H233804   3.791   1.798  17.172  0.0081  0.1045 -0.7120
 4105TIP3   OH233805   4.559   4.539  13.676  0.3680 -0.3052  0.3544
 4105TIP3    H133806   4.498   4.531  13.750  0.4428  0.7660  0.5604
 4105TIP3    H233807   4.509   4.512  13.600 -1.1633  2.5652  0.1776
 4106TIP3   OH233808   5.066   5.663  15.807  0.1462 -0.8605 -0.2018
 4106TIP3    H133809   5.052   5.699  15.894  1.5819 -0.2170 -0.2154
 4106TIP3    H233810   5.136   5.599  15.818  2.0350  0.9316 -1.2490
 4107TIP3   OH233811   4.107   1.957   3.037  0.2405 -0.1145  0.1135
 4107TIP3    H133812   4.048   1.889   3.005 -0.3891  0.6279 -0.3358
 4107TIP3    H233813   4.051   2.014   3.090 -0.0629  1.9803 -2.2580
 4108TIP3   OH233814   0.393   0.076  11.968  0.1294  0.0940  0.2434
 4108TIP3    H133815   0.349   0.105  12.048  1.3215  0.4642  0.7971
 4108TIP3    H233816   0.476   0.038  11.999 -0.1384 -1.3352 -0.6926
 4109TIP3   OH233817   4.412   0.755   2.342 -0.5254 -0.1299 -0.1439
 4109TIP3    H133818   4.349   0.797   2.402  1.4790  0.6762  1.5278
 4109TIP3    H233819   4.400   0.661   2.358  0.9688  0.0588  2.7935
 4110TIP3   OH233820   3.050   1.119   2.623  0.0400 -0.5919 -0.1645
 4110TIP3    H133821   3.039   1.209   2.591  0.2432 -0.6709 -0.4605
 4110TIP3    H233822   3.133   1.121   2.670  1.2066 -1.1406 -2.0754
 4111TIP3   OH233823   2.433   6.641   0.788 -0.1312 -1.1282  0.2611
 4111TIP3    H133824   2.339   6.631   0.799 -0.6720  0.5265 -1.8922
 4111TIP3    H233825   2.443   6.668   0.696  2.4543 -1.3938  0.3866
 4112TIP3   OH233826   6.446   0.059  13.442 -0.2616  0.0089 -0.1392
 4112TIP3    H133827   6.473  -0.003  13.375  1.1078 -1.3571  1.6015
 4112TIP3    H233828   6.425   0.005  13.519 -1.8636  1.5080  0.5673
 4113TIP3   OH233829   4.218   0.874   0.396 -0.2505 -0.1629 -0.9533
 4113TIP3    H133830   4.303   0.869   0.353  0.2975 -0.7888  0.1421
 4113TIP3    H233831   4.234   0.927   0.474 -0.3402 -1.8749  0.3143
 4114TIP3   OH233832   4.024   0.836   5.031  0.4840  0.3914 -0.3738
 4114TIP3    H133833   4.015   0.744   5.007 -0.6489  0.7382 -1.3853
 4114TIP3    H233834   3.935   0.872   5.023  0.7017  1.3379  1.0482
 4115TIP3   OH233835   6.159   4.157  17.266  0.5185  0.2477 -0.0864
 4115TIP3    H133836   6.241   4.134  17.223  0.0320 -2.4794  0.2296
 4115TIP3    H233837   6.179   4.159  17.359  0.3653  0.2231 -0.0530
 4116TIP3   OH233838   5.604   4.474   4.204 -0.6044  0.3786 -0.0664
 4116TIP3    H133839   5.519   4.474   4.249 -0.6234 -1.7064  0.0073
 4116TIP3    H233840   5.583   4.460   4.112 -0.3343 -2.2213  0.1924
 4117TIP3   OH233841   4.574   5.985   0.248 -0.4411  0.0818 -0.2723
 4117TIP3    H133842   4.492   6.006   0.292 -0.9315 -0.5496 -0.8536
 4117TIP3    H233843   4.631   5.951   0.317 -0.3012  1.4677  0.3178
 4118TIP3   OH233844   4.896   1.020  12.370 -0.3349  0.7010  0.2471
 4118TIP3    H133845   4.915   0.979  12.285 -0.9938 -0.1001  0.4774
 4118TIP3    H233846   4.802   1.035  12.368 -0.4810 -0.0244  1.1308
 4119TIP3   OH233847   1.021   2.516   4.312 -0.4356  0.5063  0.1184
 4119TIP3    H133848   1.100   2.472   4.281  0.7210  0.7143  2.5210
 4119TIP3    H233849   0.961   2.512   4.238  1.0542 -1.5385 -1.0942
 4120TIP3   OH233850   4.326   1.540   1.834  0.0911  0.4005  0.2898
 4120TIP3    H133851   4.240   1.497   1.834 -0.2634  1.1062  0.0356
 4120TIP3    H233852   4.318   1.609   1.899 -0.3749  2.1136 -1.5028
 4121TIP3   OH233853   1.533   4.712   3.150  0.1054  0.4460 -0.3341
 4121TIP3    H133854   1.627   4.706   3.132  0.0622 -0.6532 -0.2385
 4121TIP3    H233855   1.513   4.806   3.141  1.1534  0.6562 -0.6060
 4122TIP3   OH233856   2.534   6.297   4.980 -0.4179  0.3165 -0.6499
 4122TIP3    H133857   2.530   6.343   5.064 -1.6449  0.5590 -0.8267
 4122TIP3    H233858   2.446   6.261   4.968  0.3926 -1.7457 -0.7090
 4123TIP3   OH233859   6.118   6.375   0.647 -0.1891 -0.0371  0.3965
 4123TIP3    H133860   6.090   6.443   0.586 -0.9511  0.8947  1.7470
 4123TIP3    H233861   6.040   6.353   0.697  0.6093 -0.1100  1.6691
 4124TIP3   OH233862   4.243   4.033  14.826 -0.3552 -0.4566 -0.4731
 4124TIP3    H133863   4.186   3.975  14.775 -0.5356 -0.5523 -0.1612
 4124TIP3    H233864   4.186   4.104  14.855 -0.8269 -1.6182  1.6152
 4125TIP3   OH233865   3.456   4.355  13.432 -0.2089 -0.1182  0.1011
 4125TIP3    H133866   3.519   4.415  13.471 -0.2085  1.1466 -1.7170
 4125TIP3    H233867   3.508   4.278  13.407  0.6265  0.8256 -1.1926
 4126TIP3   OH233868   4.393   4.071   1.666  0.6380  0.1109 -0.0710
 4126TIP3    H133869   4.456   4.118   1.611  0.1379  0.7452 -0.1120
 4126TIP3    H233870   4.387   4.124   1.746  1.3703 -0.8068  0.6266
 4127TIP3   OH233871   5.924   5.096  12.405  0.9044  0.1569 -0.1172
 4127TIP3    H133872   5.986   5.106  12.477  0.6568  1.9498 -0.1150
 4127TIP3    H233873   5.854   5.041  12.442  1.0508  0.5928  0.8373
 4128TIP3   OH233874   1.797   1.011  16.947  0.3979 -0.4686 -0.1161
 4128TIP3    H133875   1.870   1.031  16.888  0.4929  0.6715  0.3497
 4128TIP3    H233876   1.724   0.992  16.889 -0.3712  3.6600 -0.7902
 4129TIP3   OH233877   3.860   3.799   4.224  0.2718  0.0884  0.1691
 4129TIP3    H133878   3.766   3.803   4.209  0.4839  0.8288 -1.1445
 4129TIP3    H233879   3.882   3.706   4.219 -0.7795 -0.4474  3.4686
 4130TIP3   OH233880   4.400   1.191  12.448  0.1288  0.3635 -0.3458
 4130TIP3    H133881   4.312   1.204  12.414  0.1448  1.7952  0.0969
 4130TIP3    H233882   4.387   1.144  12.530  0.0472 -2.4671 -1.8644
 4131TIP3   OH233883   3.332   2.888  12.860  0.3405  0.4384  1.1240
 4131TIP3    H133884   3.259   2.930  12.816  2.5621  3.4135 -0.0288
 4131TIP3    H233885   3.352   2.811  12.805  0.4868  1.7972 -0.8349
 4132TIP3   OH233886   1.205   1.929   4.496 -0.0852  0.6648 -0.1941
 4132TIP3    H133887   1.119   1.891   4.516  0.5524 -1.8031 -1.7561
 4132TIP3    H233888   1.185   2.002   4.438 -1.1644  0.6761  0.1607
 4133TIP3   OH233889   1.764   2.592   1.062  0.3979  0.0831  0.3492
 4133TIP3    H133890   1.785   2.665   1.004  0.7792 -0.4961 -0.2608
 4133TIP3    H233891   1.685   2.620   1.109  1.5178  1.6029  1.4188
 4134TIP3   OH233892   6.643   0.698   5.336  0.1253  0.0382  0.4778
 4134TIP3    H133893   6.579   0.668   5.401 -0.1570  0.5571  0.4445
 4134TIP3    H233894   6.716   0.731   5.387  0.1423 -0.0680  0.5232
 4135TIP3   OH233895   4.609   0.459  11.577 -0.1137  0.2446 -0.3144
 4135TIP3    H133896   4.541   0.495  11.521  0.5078  0.0712 -1.2082
 4135TIP3    H233897   4.690   0.473  11.527  0.6695  1.4967  1.2157
 4136TIP3   OH233898   2.381   1.658   5.414  0.4059 -0.4600  0.6939
 4136TIP3    H133899   2.382   1.585   5.352 -0.7353 -0.4626  0.6566
 4136TIP3    H233900   2.474   1.674   5.434  0.9239  0.1865 -1.7696
 4137TIP3   OH233901   4.669   3.547  15.973 -0.6117  0.3160  0.3390
 4137TIP3    H133902   4.714   3.625  16.007 -0.8017  0.0748  1.1706
 4137TIP3    H233903   4.712   3.529  15.890 -0.0115  0.8249  0.5275
 4138TIP3   OH233904   0.054   3.618   3.142 -0.1472 -0.2398  0.5376
 4138TIP3    H133905   0.109   3.669   3.083 -0.6421 -1.3998 -1.0016
 4138TIP3    H233906  -0.005   3.682   3.181  1.0232  0.7355  0.7656
 4139TIP3   OH233907   1.917   2.212   6.389 -0.6505 -0.2444  0.4220
 4139TIP3    H133908   1.988   2.184   6.447 -0.2869 -1.9115 -0.7597
 4139TIP3    H233909   1.955   2.281   6.335 -0.2643 -0.3423  0.5680
 4140TIP3   OH233910   5.580   5.456   2.481 -0.0321  0.1202 -0.1862
 4140TIP3    H133911   5.574   5.369   2.521 -0.8621  0.5543  0.6710
 4140TIP3    H233912   5.493   5.471   2.444  0.1928  0.4729 -0.5807
 4141TIP3   OH233913   4.529   4.841   2.479 -0.2746  0.0446  0.4086
 4141TIP3    H133914   4.441   4.819   2.511 -0.2326 -1.2671 -0.3364
 4141TIP3    H233915   4.557   4.913   2.535 -1.6308  0.1588  0.9791
 4142TIP3   OH233916   0.322   1.645   5.926 -0.3277 -0.5887  0.5738
 4142TIP3    H133917   0.344   1.569   5.979  0.1035 -0.5775  0.4112
 4142TIP3    H233918   0.301   1.608   5.840  0.7788 -0.4569  0.2297
 4143TIP3   OH233919   0.883   3.851  12.563  0.2000 -0.1764 -0.6921
 4143TIP3    H133920   0.882   3.758  12.585  1.1111 -0.6183 -2.3171
 4143TIP3    H233921   0.792   3.879  12.572  0.2002 -0.7556  1.5495
 4144TIP3   OH233922   6.673   0.033   0.070  0.2488 -0.4205  0.4755
 4144TIP3    H133923   6.629   0.082   0.000 -3.2481  1.0652  3.3522
 4144TIP3    H233924   6.766   0.050   0.057 -0.2097 -0.1161 -3.5954
 4145TIP3   OH233925   2.087   3.343   1.581  0.6850  0.5336  0.4139
 4145TIP3    H133926   2.039   3.274   1.627  1.9877 -1.6416 -1.2887
 4145TIP3    H233927   2.179   3.319   1.592  1.1218  1.3083 -1.2362
 4146TIP3   OH233928   1.252   6.702   0.222  0.0471 -0.6434  0.6583
 4146TIP3    H133929   1.189   6.767   0.190  0.4329 -0.7745 -0.3969
 4146TIP3    H233930   1.295   6.746   0.296 -2.9085 -1.4249  3.0353
 4147TIP3   OH233931   5.263   0.967   4.230  0.4444  0.4067 -0.0830
 4147TIP3    H133932   5.236   0.907   4.299 -0.2509  0.5034 -0.2566
 4147TIP3    H233933   5.306   0.912   4.165 -0.5451  0.0216 -0.4304
 4148TIP3   OH233934   1.782   0.450   4.635 -0.0045  1.0206  0.1753
 4148TIP3    H133935   1.792   0.542   4.611 -0.9888  2.1516  3.5592
 4148TIP3    H233936   1.702   0.448   4.688 -2.4707 -2.5865 -3.0905
 4149TIP3   OH233937   3.925   1.825  12.428 -0.2282  0.6017 -0.0895
 4149TIP3    H133938   3.949   1.848  12.338  1.2387 -0.0856  0.0952
 4149TIP3    H233939   4.009   1.811  12.472 -0.9312  0.6092  1.3112
 4150TIP3   OH233940   5.768   3.700   6.664 -0.2061  0.1040  0.4185
 4150TIP3    H133941   5.783   3.794   6.658 -1.4074  0.2960 -0.0212
 4150TIP3    H233942   5.822   3.662   6.594 -1.4024  0.7136 -0.8951
 4151TIP3   OH233943   4.390   2.841  12.166  0.4014  0.1192  0.4239
 4151TIP3    H133944   4.331   2.815  12.237 -0.8739  1.1175 -0.2194
 4151TIP3    H233945   4.467   2.785  12.176 -1.4327 -2.6650  0.1263
 4152TIP3   OH233946   3.322   1.127   1.168  0.0248  0.0307 -0.4519
 4152TIP3    H133947   3.377   1.174   1.231 -0.4351 -0.9276  0.7071
 4152TIP3    H233948   3.375   1.051   1.141  0.7512  1.1279 -2.2861
 4153TIP3   OH233949   0.405   6.474  13.604 -0.3535 -0.2011 -0.1690
 4153TIP3    H133950   0.395   6.396  13.549  0.8258  0.0504 -0.7709
 4153TIP3    H233951   0.393   6.547  13.543 -0.2154  0.0903  0.1494
 4154TIP3   OH233952   4.221   4.317  14.948 -0.5369  0.5490 -0.5081
 4154TIP3    H133953   4.184   4.380  15.010  0.3119 -0.2375  0.8473
 4154TIP3    H233954   4.311   4.347  14.935 -0.9687  1.2459 -2.1414
 4155TIP3   OH233955   1.276   2.682  15.256 -0.2670 -0.8156  0.3144
 4155TIP3    H133956   1.366   2.706  15.237 -0.0819 -1.1349  0.7836
 4155TIP3    H233957   1.262   2.709  15.347 -1.8831  2.9425 -0.8271
 4156TIP3   OH233958   5.810   1.018  13.481 -0.3350 -0.2017  0.1187
 4156TIP3    H133959   5.814   1.004  13.387  2.6970 -1.2738  0.2852
 4156TIP3    H233960   5.893   0.982  13.514 -1.5314 -0.3999  3.2662
 4157TIP3   OH233961   3.466   2.769   2.254  0.3471  0.3334  0.2861
 4157TIP3    H133962   3.466   2.721   2.337 -0.3334 -0.1961 -0.0108
 4157TIP3    H233963   3.404   2.721   2.199  0.6377  0.8005 -0.4610
 4158TIP3   OH233964   4.980   5.591  13.129  0.0613  0.0913  0.6572
 4158TIP3    H133965   5.003   5.684  13.127  1.4755 -0.2122 -1.9994
 4158TIP3    H233966   5.064   5.545  13.133 -0.5489 -1.0716  0.4938
 4159TIP3   OH233967   3.900   4.645   0.956 -0.1617 -0.3117 -0.2315
 4159TIP3    H133968   3.849   4.665   1.034  0.7225  0.5483  0.1612
 4159TIP3    H233969   3.932   4.556   0.969  1.7393  0.5494  1.4366
 4160TIP3   OH233970   0.417   1.378   1.745  0.1331 -0.5709  0.0648
 4160TIP3    H133971   0.360   1.437   1.794  2.3796  0.9777  1.0012
 4160TIP3    H233972   0.438   1.426   1.665  0.5435 -0.8904 -0.0209
 4161TIP3   OH233973   5.002   1.370  12.724  0.6674  0.3971  0.0280
 4161TIP3    H133974   5.021   1.317  12.647  1.0467  1.7923 -0.8828
 4161TIP3    H233975   5.083   1.370  12.775  1.0653  1.0432 -0.5768
 4162TIP3   OH233976   0.226   5.889   2.707 -0.4324 -0.2427 -0.3261
 4162TIP3    H133977   0.196   5.826   2.641  2.4028 -2.3004  0.1116
 4162TIP3    H233978   0.249   5.835   2.783  1.3757  1.3685  0.3705
 4163TIP3   OH233979   5.272   3.168  16.197 -0.1309  0.3512 -0.4523
 4163TIP3    H133980   5.261   3.232  16.267  0.5372 -1.4738  1.4375
 4163TIP3    H233981   5.287   3.221  16.118  0.5909  2.5012  1.0313
 4164TIP3   OH233982   1.385   4.941  14.197  0.0050 -0.6088  0.0793
 4164TIP3    H133983   1.400   4.937  14.291  0.5557 -0.2220  0.0180
 4164TIP3    H233984   1.301   4.899  14.183 -1.5014  1.8337  1.0895
 4165TIP3   OH233985   5.721   3.581   0.894 -0.1439 -0.0927  0.0769
 4165TIP3    H133986   5.706   3.615   0.806 -0.3332 -0.7759 -0.1572
 4165TIP3    H233987   5.782   3.508   0.882  1.7104  1.2447  0.7661
 4166TIP3   OH233988   1.954   6.216  15.899  0.1126  0.2595 -0.1572
 4166TIP3    H133989   1.985   6.293  15.851 -0.3597 -0.1956 -1.2205
 4166TIP3    H233990   1.964   6.240  15.991  0.0711  1.5562 -0.4663
 4167TIP3   OH233991   2.090   5.150   0.361 -0.1026 -0.2186 -0.0551
 4167TIP3    H133992   2.096   5.203   0.441 -0.1588  1.8336 -1.3183
 4167TIP3    H233993   2.097   5.060   0.391 -0.7694  0.4486  2.3207
 4168TIP3   OH233994   2.541   4.520   0.073  0.1978  0.4801  0.0582
 4168TIP3    H133995   2.586   4.536  -0.010  0.0592  0.1764 -0.0716
 4168TIP3    H233996   2.565   4.431   0.097 -1.3183 -0.1322 -0.6155
 4169TIP3   OH233997   2.971   2.766  14.728  0.1463 -0.0086 -0.0814
 4169TIP3    H133998   3.036   2.788  14.661 -0.6402  1.2882 -0.4700
 4169TIP3    H233999   3.017   2.776  14.811  0.4790  0.8367 -0.3559
 4170TIP3   OH234000   2.995   5.137  11.428 -0.3036  0.4181  0.4610
 4170TIP3    H134001   3.057   5.151  11.500 -1.0321 -1.9402  1.6629
 4170TIP3    H234002   2.916   5.183  11.455  0.0447  1.1568  0.2303
 4171TIP3   OH234003   6.065   0.193   4.833  0.3962  0.2087 -0.0354
 4171TIP3    H134004   6.048   0.179   4.740 -1.0448  1.4405  0.0081
 4171TIP3    H234005   6.117   0.117   4.860 -0.5716 -1.0002 -1.4603
 4172TIP3   OH234006   1.989   0.620  11.796  0.2761  0.4330  0.0298
 4172TIP3    H134007   2.003   0.546  11.736 -1.1860 -0.1060  0.2960
 4172TIP3    H234008   1.920   0.671  11.754  0.0946  0.7138  0.6678
 4173TIP3   OH234009   5.955   6.649  11.609 -0.2074 -0.3059 -0.3362
 4173TIP3    H134010   6.050   6.660  11.624  0.3477 -2.1639 -2.1315
 4173TIP3    H234011   5.933   6.567  11.654 -0.8579 -0.1816 -0.4199
 4174TIP3   OH234012   1.870   4.908   2.167  0.3856 -0.4854 -0.1232
 4174TIP3    H134013   1.873   4.814   2.152 -1.8056 -0.9971  1.9116
 4174TIP3    H234014   1.932   4.924   2.238  1.6585 -0.1320 -1.2698
 4175TIP3   OH234015   2.882   0.999   6.549 -0.2913  0.2074 -0.1712
 4175TIP3    H134016   2.823   0.936   6.592  0.9347  0.1873  1.5356
 4175TIP3    H234017   2.958   0.947   6.524 -0.7705  0.3165 -2.0369
 4176TIP3   OH234018   0.486   4.162   3.530 -0.5789 -0.3615  0.4864
 4176TIP3    H134019   0.552   4.097   3.504 -1.1850 -1.0863  0.7096
 4176TIP3    H234020   0.420   4.157   3.461 -0.8805 -0.3612  0.7737
 4177TIP3   OH234021   6.499   6.419  17.442 -0.0111 -0.3269 -0.0062
 4177TIP3    H134022   6.417   6.464  17.420  0.9678  0.9033 -1.2997
 4177TIP3    H234023   6.471   6.333  17.473 -1.7903  0.0660 -0.3979
 4178TIP3   OH234024   0.262   4.572   0.340 -0.0683 -0.0203 -0.3689
 4178TIP3    H134025   0.305   4.487   0.350  2.5133  1.0902 -0.9418
 4178TIP3    H234026   0.304   4.610   0.263  1.6510  3.2057  1.9226
 4179TIP3   OH234027   3.522   6.770   1.347 -0.2419 -0.1456  0.4962
 4179TIP3    H134028   3.482   6.751   1.262 -0.9714  1.1428  0.5290
 4179TIP3    H234029   3.615   6.747   1.336 -0.0394  1.2460 -1.0954
 4180TIP3   OH234030   4.106   1.888   0.853  0.1033  0.1454  0.7171
 4180TIP3    H134031   4.116   1.950   0.925 -1.6844  0.0710  1.0794
 4180TIP3    H234032   4.041   1.929   0.796 -0.2416 -0.8630  0.3653
 4181TIP3   OH234033   4.746   4.663   1.064 -0.3042 -0.2869  0.3929
 4181TIP3    H134034   4.757   4.593   1.128  1.0712  1.2190  1.9177
 4181TIP3    H234035   4.831   4.671   1.022 -1.1977 -1.2579 -1.6945
 4182TIP3   OH234036   3.366   5.339   3.194  0.0363 -0.1121 -0.5918
 4182TIP3    H134037   3.395   5.382   3.275  3.0388 -0.3664 -1.4118
 4182TIP3    H234038   3.282   5.300   3.217 -0.6431  2.3362  1.4991
 4183TIP3   OH234039   1.216   1.813   0.731 -0.7371  0.0141  0.2231
 4183TIP3    H134040   1.133   1.767   0.738 -2.8347  3.1521 -1.3611
 4183TIP3    H234041   1.193   1.906   0.743  2.3934  1.1052 -1.0724
 4184TIP3   OH234042   5.363   6.402   3.384 -0.2002  0.1022 -0.2209
 4184TIP3    H134043   5.420   6.353   3.443 -0.5413  0.9363  0.8276
 4184TIP3    H234044   5.308   6.335   3.343 -0.1041 -0.4756  0.5648
 4185TIP3   OH234045   3.106   6.686   2.157 -0.2602 -0.2440  0.4249
 4185TIP3    H134046   3.143   6.689   2.245 -1.1783 -2.0069  0.9210
 4185TIP3    H234047   3.015   6.661   2.170 -0.6273  0.2485 -0.9946
 4186TIP3   OH234048   2.377   2.207   2.245  0.6279  0.1585 -0.0934
 4186TIP3    H134049   2.350   2.120   2.273  0.0817  0.6159  0.8562
 4186TIP3    H234050   2.320   2.227   2.170 -0.1155  0.2052  0.4795
 4187TIP3   OH234051   5.795   6.234  12.645 -0.8724  0.0676  0.9413
 4187TIP3    H134052   5.779   6.265  12.556 -1.1515 -1.5618  0.3850
 4187TIP3    H234053   5.708   6.217  12.681 -0.8249  1.8154  1.9731
 4188TIP3   OH234054   6.527   5.078   3.127 -0.0609 -0.8108  0.6905
 4188TIP3    H134055   6.438   5.059   3.157 -0.0356 -0.3075  1.1096
 4188TIP3    H234056   6.517   5.152   3.067  0.1649 -0.1747  1.4211
 4189TIP3   OH234057   0.221   6.460  12.404  0.3631 -0.5305 -0.2383
 4189TIP3    H134058   0.231   6.433  12.495  0.0437 -0.1931 -0.1045
 4189TIP3    H234059   0.155   6.529  12.406 -0.3847 -1.2111 -0.8425
 4190TIP3   OH234060   2.844   1.291  14.647 -0.9453  0.4108  0.2304
 4190TIP3    H134061   2.833   1.342  14.567 -0.4291 -2.1048 -1.5757
 4190TIP3    H234062   2.763   1.242  14.656  0.1169 -1.6134 -0.5721
 4191TIP3   OH234063   4.820   3.256  16.522  0.2396 -0.2111  1.0140
 4191TIP3    H134064   4.774   3.332  16.487 -1.5021 -1.4470  0.4559
 4191TIP3    H234065   4.901   3.291  16.558  1.2903  1.4543 -2.4820
 4192TIP3   OH234066   6.421   3.332   2.217 -0.1806  0.0623  0.0556
 4192TIP3    H134067   6.359   3.306   2.149 -0.0989 -1.1659  0.4258
 4192TIP3    H234068   6.367   3.346   2.295 -0.0464 -0.8625  0.3384
 4193TIP3   OH234069   4.017   3.927   4.052  0.0319  0.5299  0.8676
 4193TIP3    H134070   3.971   3.859   4.102  1.1587  1.3142  3.0933
 4193TIP3    H234071   3.968   4.007   4.069  0.1959  0.7371  0.3731
 4194TIP3   OH234072   1.532   0.801  12.663 -0.1097 -0.5833 -0.1733
 4194TIP3    H134073   1.610   0.841  12.702 -0.6405  1.2150 -0.8677
 4194TIP3    H234074   1.562   0.771  12.577 -0.1156 -0.1656 -0.3203
 4195TIP3   OH234075   2.737   3.620   6.474  0.7273 -0.1598 -0.1276
 4195TIP3    H134076   2.756   3.565   6.550  0.2466 -0.0315  0.0883
 4195TIP3    H234077   2.796   3.695   6.484  0.9599 -0.3414 -0.1073
 4196TIP3   OH234078   0.475   3.157  12.783 -0.7533 -0.5432 -0.9173
 4196TIP3    H134079   0.519   3.167  12.867  0.9174 -2.1265 -1.5196
 4196TIP3    H234080   0.547   3.139  12.721 -1.8375  1.3844 -2.8480
 4197TIP3   OH234081   2.064   2.654   4.532  0.3324  0.1608 -0.1444
 4197TIP3    H134082   2.027   2.615   4.452  1.4167 -0.9633 -0.1317
 4197TIP3    H234083   2.037   2.746   4.528  0.7128  0.2418 -2.0416
 4198TIP3   OH234084   4.755   0.120   3.519 -0.0022  0.3238  0.2805
 4198TIP3    H134085   4.712   0.206   3.526  0.7544  0.7357  0.0352
 4198TIP3    H234086   4.766   0.091   3.610  0.0542  0.6515  0.3807
 4199TIP3   OH234087   2.325   0.596   5.191  0.4017 -0.2554 -0.1932
 4199TIP3    H134088   2.289   0.508   5.190 -0.5086  0.1060 -1.4466
 4199TIP3    H234089   2.259   0.650   5.148  1.0142  1.0163  0.3928
 4200TIP3   OH234090   3.075   0.271   5.499  0.1524 -0.1654  0.0435
 4200TIP3    H134091   3.026   0.294   5.578  1.0524 -1.2893  0.9727
 4200TIP3    H234092   3.160   0.241   5.532  1.4795  1.6339 -1.4968
 4201TIP3   OH234093   0.124   5.113  11.504  0.2043  0.2379  0.1746
 4201TIP3    H134094   0.044   5.166  11.505  1.1522  1.7341  1.6369
 4201TIP3    H234095   0.181   5.156  11.441 -0.6605 -1.7981 -2.1742
 4202TIP3   OH234096   3.864   1.603   4.375  0.2650  0.3013  0.2498
 4202TIP3    H134097   3.893   1.684   4.419  0.5567  0.7454 -0.7309
 4202TIP3    H234098   3.888   1.616   4.284 -1.2812 -0.1553 -0.2469
 4203TIP3   OH234099   2.181   1.901   4.937 -0.1426 -0.3101  0.0343
 4203TIP3    H134100   2.201   1.868   5.025  0.0073 -3.6805 -1.1425
 4203TIP3    H234101   2.112   1.844   4.905  0.8640 -0.1855 -2.6008
 4204TIP3   OH234102   3.014   0.160   2.382 -0.2360  0.1788 -0.2051
 4204TIP3    H134103   2.978   0.227   2.440 -0.1881 -0.8206  1.0361
 4204TIP3    H234104   3.025   0.204   2.298 -0.5154  1.6263  0.4820
 4205TIP3   OH234105   5.948   2.226   6.321 -0.4985  0.2934 -0.0305
 4205TIP3    H134106   5.948   2.295   6.255 -2.4729 -0.1764 -0.6121
 4205TIP3    H234107   5.874   2.170   6.296  0.8892 -1.9132  0.5426
 4206TIP3   OH234108   3.983   6.051  15.808  0.0919 -0.0465 -0.2699
 4206TIP3    H134109   4.050   6.111  15.842 -0.1408 -0.2212  0.5124
 4206TIP3    H234110   3.991   5.973  15.864 -0.7041 -0.1012 -0.2333
 4207TIP3   OH234111   1.197   5.226  14.189  0.3677  0.2814  0.2774
 4207TIP3    H134112   1.235   5.293  14.132 -0.6064 -0.1105 -0.8761
 4207TIP3    H234113   1.241   5.238  14.273 -0.3979  2.9566  0.3874
 4208TIP3   OH234114   1.904   0.832  12.691  0.5747  0.4348 -0.2319
 4208TIP3    H134115   1.927   0.914  12.734 -2.2993  1.1212  0.2083
 4208TIP3    H234116   1.864   0.859  12.608 -0.5208 -0.4920 -0.0254
 4209TIP3   OH234117   1.991   6.634   5.992 -0.2159 -0.3218  0.7288
 4209TIP3    H134118   1.978   6.540   6.004 -0.0981 -0.1736  2.2927
 4209TIP3    H234119   2.086   6.645   5.984 -0.3498 -0.6232 -2.9105
 4210TIP3   OH234120   4.162   5.374   5.192  0.4812  0.1649 -0.4575
 4210TIP3    H134121   4.191   5.462   5.166 -0.0128  0.5452  0.2411
 4210TIP3    H234122   4.097   5.390   5.261  0.2130 -0.7441 -0.4905
 4211TIP3   OH234123   4.812   2.693  16.970  0.5171  0.1943 -0.4042
 4211TIP3    H134124   4.780   2.700  17.060 -0.4603 -2.5887 -0.4345
 4211TIP3    H234125   4.736   2.713  16.915  0.3992 -0.6421 -0.5584
 4212TIP3   OH234126   6.498   0.868   5.141 -0.0434  0.3338  0.2988
 4212TIP3    H134127   6.560   0.811   5.186  0.2352 -0.0197 -0.4952
 4212TIP3    H234128   6.553   0.922   5.084 -0.4131  0.4541  0.0511
 4213TIP3   OH234129   5.659   2.618   0.311  0.2625 -0.1601  0.0404
 4213TIP3    H134130   5.647   2.687   0.246 -1.9492  0.7657  1.3239
 4213TIP3    H234131   5.643   2.537   0.263  0.6678  0.3553 -0.9942
 4214TIP3   OH234132   6.157   2.134  11.999  0.2721  0.1672 -0.0916
 4214TIP3    H134133   6.228   2.198  12.003 -0.1364  0.8841 -2.4542
 4214TIP3    H234134   6.197   2.052  12.029  1.4932  0.9886  0.6186
 4215TIP3   OH234135   1.808   5.450  14.774  0.4102 -0.5459  0.4635
 4215TIP3    H134136   1.885   5.460  14.829 -0.5741  1.4839  1.5839
 4215TIP3    H234137   1.823   5.509  14.700 -1.1032  1.9872  2.0244
 4216TIP3   OH234138   6.194   0.853  12.742 -0.2121 -0.0242 -0.0506
 4216TIP3    H134139   6.169   0.765  12.771 -0.1201 -0.1474 -0.3407
 4216TIP3    H234140   6.289   0.848  12.732 -0.0905  0.3604  0.7764
 4217TIP3   OH234141   2.482   2.773  12.028 -0.4823  0.0380 -0.0767
 4217TIP3    H134142   2.405   2.797  11.976  0.2134  1.0994 -0.6526
 4217TIP3    H234143   2.553   2.824  11.989  0.8177 -1.9946 -0.4809
 4218TIP3   OH234144   6.775   6.344   0.253  0.0423  0.4495  0.4675
 4218TIP3    H134145   6.731   6.386   0.327 -0.0151  0.3033  0.5186
 4218TIP3    H234146   6.785   6.412   0.188  0.6015  0.7279  0.8343
 4219TIP3   OH234147   6.019   1.509  13.872 -0.8199 -0.6948 -0.3617
 4219TIP3    H134148   6.074   1.575  13.831 -0.6370 -0.5613  0.0890
 4219TIP3    H234149   5.930   1.539  13.857 -0.7678 -0.7808 -0.8788
 4220TIP3   OH234150   5.439   2.315   3.652 -0.0236 -0.1921 -0.1124
 4220TIP3    H134151   5.424   2.279   3.739 -0.1645 -2.2012 -0.9192
 4220TIP3    H234152   5.526   2.354   3.656  0.2382 -0.8491  0.7539
 4221TIP3   OH234153   5.631   3.966   6.118  0.1572  0.1397  0.0310
 4221TIP3    H134154   5.597   3.879   6.138  0.8064 -0.1632 -0.1399
 4221TIP3    H234155   5.560   4.011   6.073 -1.0841  0.5792  2.2686
 4222TIP3   OH234156   3.475   3.996  13.385 -0.1246 -0.0572 -0.0074
 4222TIP3    H134157   3.434   3.984  13.300 -0.7075  2.0295 -0.0649
 4222TIP3    H234158   3.568   4.011  13.365 -0.0104 -0.8942 -0.1513
 4223TIP3   OH234159   1.326   0.287  15.396 -0.0995  0.3125 -0.1940
 4223TIP3    H134160   1.328   0.232  15.318 -0.8851 -1.4344  0.9322
 4223TIP3    H234161   1.240   0.327  15.396  0.9412  2.7246 -1.7146
 4224TIP3   OH234162   6.182   0.678  14.626  0.7942  0.2331  0.6022
 4224TIP3    H134163   6.217   0.751  14.574 -0.6911 -0.1097 -0.9556
 4224TIP3    H234164   6.088   0.695  14.631  0.5803 -1.0093  1.1351
 4225TIP3   OH234165   3.213   1.632   2.560 -0.3058  0.6666 -0.6961
 4225TIP3    H134166   3.294   1.626   2.610 -0.0179 -1.5451 -1.2989
 4225TIP3    H234167   3.240   1.661   2.473 -0.0747 -0.4067 -0.9986
 4226TIP3   OH234168   4.222   5.098   1.032  0.0123  0.0259  0.3385
 4226TIP3    H134169   4.181   5.178   1.000  0.7377  0.4375  0.4153
 4226TIP3    H234170   4.163   5.028   1.006 -0.8275  0.6256  0.6138
 4227TIP3   OH234171   1.426   4.834  16.632 -0.0803  0.0876 -0.4251
 4227TIP3    H134172   1.341   4.865  16.600 -0.2890  0.1176  0.1483
 4227TIP3    H234173   1.485   4.908  16.617 -0.6492  0.9053  1.2369
 4228TIP3   OH234174   5.206   5.933   4.188  0.0896  0.6275  0.2484
 4228TIP3    H134175   5.299   5.943   4.208  0.1098  1.0086 -0.0171
 4228TIP3    H234176   5.164   6.003   4.238  0.0477  1.0424 -0.3515
 4229TIP3   OH234177   6.078   4.577  15.500  0.2487  0.3830  0.5343
 4229TIP3    H134178   6.096   4.617  15.415  0.1300  0.9421  0.7673
 4229TIP3    H234179   6.153   4.520  15.517 -0.0284 -0.2228 -0.2346
 4230TIP3   OH234180   3.835   4.896   4.499 -0.0129 -0.6784 -0.1823
 4230TIP3    H134181   3.744   4.894   4.527 -0.1419  0.1802 -0.5195
 4230TIP3    H234182   3.881   4.942   4.569  0.1519 -1.0387 -0.0514
 4231TIP3   OH234183   2.143   3.716   5.569  0.2934  0.0053 -0.1771
 4231TIP3    H134184   2.225   3.681   5.604  0.4219  0.4990  0.0321
 4231TIP3    H234185   2.169   3.760   5.488  0.1883 -0.1107 -0.2720
 4232TIP3   OH234186   4.830   1.710  16.893 -0.6415  0.0045 -0.0880
 4232TIP3    H134187   4.789   1.650  16.832 -0.5238  0.3408 -0.5045
 4232TIP3    H234188   4.818   1.670  16.979  1.2788 -1.6991 -0.5381
 4233TIP3   OH234189   1.641   2.365  16.707  0.3935  0.2535  0.2619
 4233TIP3    H134190   1.634   2.458  16.686  0.1394  0.0347 -0.6685
 4233TIP3    H234191   1.685   2.326  16.631 -2.0425 -0.8454 -0.6942
 4234TIP3   OH234192   1.629   0.994   4.542 -0.7248 -0.3371  0.5311
 4234TIP3    H134193   1.655   0.907   4.574 -1.4077  0.0732  2.3423
 4234TIP3    H234194   1.712   1.036   4.520 -0.1285 -0.5135  2.2679
 4235TIP3   OH234195   3.686   0.638   1.314  0.4672 -0.2449  0.1997
 4235TIP3    H134196   3.732   0.602   1.390 -0.0833 -0.9702  0.1985
 4235TIP3    H234197   3.643   0.563   1.274  0.3937  0.2023 -0.5843
 4236TIP3   OH234198   2.179   0.572  16.255 -0.2161  0.0541  0.5059
 4236TIP3    H134199   2.140   0.532  16.333  1.7365 -0.4593  1.2725
 4236TIP3    H234200   2.174   0.503  16.188 -0.3385 -0.1060  0.6792
 4237TIP3   OH234201   1.896   6.507   2.543  0.2709 -0.3131 -0.0354
 4237TIP3    H134202   1.809   6.523   2.506  0.6952  0.5748 -0.6932
 4237TIP3    H234203   1.920   6.420   2.510  0.1738 -0.0058 -0.9514
 4238TIP3   OH234204   3.407   1.798  14.466  0.1067 -0.1701 -0.0498
 4238TIP3    H134205   3.420   1.850  14.386  0.7900  0.4887  0.4780
 4238TIP3    H234206   3.318   1.762  14.457 -0.3190  0.9438 -0.5136
 4239TIP3   OH234207   1.393   6.141   5.728 -0.3530 -0.2719 -0.1254
 4239TIP3    H134208   1.444   6.203   5.675  1.0201 -2.3496 -1.3744
 4239TIP3    H234209   1.437   6.141   5.813 -0.0396  0.0756 -0.2839
 4240TIP3   OH234210   2.787   5.867   0.500 -0.0973  0.2477  0.0423
 4240TIP3    H134211   2.715   5.927   0.519 -1.5962 -1.0549 -1.2829
 4240TIP3    H234212   2.859   5.924   0.472 -1.3620  1.4563 -0.8680
 4241TIP3   OH234213   2.922   3.938   5.932  0.5661  0.4428  0.0619
 4241TIP3    H134214   2.888   4.025   5.909  0.0107  0.1970 -0.0803
 4241TIP3    H234215   2.844   3.883   5.937  0.8323  0.1354  1.0057
 4242TIP3   OH234216   6.213   6.169  15.371  0.6371 -0.2655 -0.5194
 4242TIP3    H134217   6.176   6.173  15.459 -0.5813 -1.6493 -0.9178
 4242TIP3    H234218   6.174   6.243  15.325  0.5529 -0.0731 -0.1437
 4243TIP3   OH234219   0.143   2.270  12.113 -0.3920 -0.6941  0.1603
 4243TIP3    H134220   0.214   2.235  12.058 -1.2948  0.5191 -1.8648
 4243TIP3    H234221   0.063   2.233  12.076 -0.9165 -1.7946  2.2343
 4244TIP3   OH234222   1.409   6.156  13.030  0.1206  0.0505 -0.0385
 4244TIP3    H134223   1.357   6.145  13.110  2.8339  2.4543  2.2919
 4244TIP3    H234224   1.369   6.229  12.985 -1.3953 -1.2829 -0.9435
 4245TIP3   OH234225   1.665   2.297  13.273  0.0995  0.2521  0.2947
 4245TIP3    H134226   1.643   2.327  13.185  2.6511  1.6229  0.0221
 4245TIP3    H234227   1.634   2.366  13.331 -0.2310  0.0759  0.3285
 4246TIP3   OH234228   6.661   4.528   1.617 -0.4950 -0.4731 -0.2199
 4246TIP3    H134229   6.567   4.509   1.626 -0.5683 -0.0793 -0.1166
 4246TIP3    H234230   6.695   4.457   1.564 -0.8869 -0.5303 -0.3985
 4247TIP3   OH234231   1.155   5.429   4.123  0.6200  0.0777  0.9433
 4247TIP3    H134232   1.168   5.378   4.043 -0.4787 -0.1858  0.9102
 4247TIP3    H234233   1.231   5.408   4.177  1.9019  1.0462 -0.4086
 4248TIP3   OH234234   3.824   5.296  14.801 -0.2477  0.2372 -0.7505
 4248TIP3    H134235   3.917   5.282  14.785  0.2802  0.2934  1.7404
 4248TIP3    H234236   3.823   5.366  14.868 -1.8082 -2.2494  2.0639
 4249TIP3   OH234237   6.477   5.444  13.446  0.2731  0.5505  0.3049
 4249TIP3    H134238   6.548   5.501  13.416 -0.4021  1.3470  0.1936
 4249TIP3    H234239   6.511   5.404  13.527  1.5668 -0.5546 -0.7435
 4250TIP3   OH234240   2.935   5.016   5.380  0.2699 -0.3246 -0.1614
 4250TIP3    H134241   3.002   4.954   5.408 -0.5463 -0.8096  0.7568
 4250TIP3    H234242   2.883   4.967   5.316  1.0488  0.2112 -1.2595
 4251TIP3   OH234243   6.115   0.393   2.254 -0.7732 -0.1328  0.0559
 4251TIP3    H134244   6.046   0.430   2.310 -0.9160  0.6163 -0.5997
 4251TIP3    H234245   6.153   0.323   2.306  0.2714  1.6380  1.8269
 4252TIP3   OH234246   2.810   4.362   5.709  0.1460  0.5412  0.5422
 4252TIP3    H134247   2.871   4.415   5.761  1.6568 -0.8063  0.2287
 4252TIP3    H234248   2.846   4.366   5.620 -1.6327  1.6936 -0.1908
 4253TIP3   OH234249   4.449   5.876   5.315  0.3080  0.5006  0.3981
 4253TIP3    H134250   4.390   5.900   5.244 -0.1432 -0.9204  0.2663
 4253TIP3    H234251   4.420   5.928   5.390 -1.4036 -0.4596  0.4408
 4254TIP3   OH234252   1.992   0.477  15.013 -0.1637  0.1500  0.0306
 4254TIP3    H134253   2.035   0.435  15.087  1.6859 -0.6261 -1.4161
 4254TIP3    H234254   1.936   0.544  15.053  1.4854  0.4105  2.0677
 4255TIP3   OH234255   5.533   6.136  12.036 -0.0744 -0.3752  0.1815
 4255TIP3    H134256   5.578   6.173  11.959  0.2206 -2.3387 -0.6610
 4255TIP3    H234257   5.568   6.185  12.110 -1.8428  2.9829 -1.0093
 4256TIP3   OH234258   4.965   3.428   2.851  0.3512  0.0345 -0.3066
 4256TIP3    H134259   4.990   3.520   2.858 -0.6971  0.2574  0.8739
 4256TIP3    H234260   4.922   3.422   2.766  0.1618  0.7163 -0.2704
 4257TIP3   OH234261   6.170   1.598   3.771  0.3601 -0.2826 -0.1074
 4257TIP3    H134262   6.160   1.625   3.679  2.6494 -1.8548 -0.9011
 4257TIP3    H234263   6.215   1.671   3.813  0.7315 -0.1992 -0.6384
 4258TIP3   OH234264   3.582   0.176  14.977  0.0454  0.3365 -0.5795
 4258TIP3    H134265   3.613   0.091  15.007 -0.9719 -0.2957 -1.2524
 4258TIP3    H234266   3.559   0.223  15.057 -2.2544 -1.1644 -0.2528
 4259TIP3   OH234267   1.725   1.792  13.284  0.8605  0.2024  0.0921
 4259TIP3    H134268   1.703   1.873  13.329  0.2023 -0.6143  1.2902
 4259TIP3    H234269   1.810   1.767  13.318  0.5271 -0.2218  0.6375
 4260TIP3   OH234270   6.319   5.069  15.799 -0.2534  0.8475 -0.2586
 4260TIP3    H134271   6.336   5.163  15.800  0.8814  0.6583  0.7185
 4260TIP3    H234272   6.406   5.029  15.800 -0.7275 -0.2168  0.0740
 4261TIP3   OH234273   5.316   5.983  16.637 -0.0781  0.1795  0.5916
 4261TIP3    H134274   5.281   6.072  16.631 -1.7196 -0.5416 -1.1985
 4261TIP3    H234275   5.304   5.946  16.550  1.7878 -1.4027  0.9314
 4262TIP3   OH234276   5.823   2.274   5.056  0.5504 -0.0934 -0.1745
 4262TIP3    H134277   5.870   2.253   4.975  2.4639  0.1065  0.8226
 4262TIP3    H234278   5.732   2.286   5.029  0.8552 -1.5348 -2.0451
 4263TIP3   OH234279   4.606   5.693   4.037  0.2555  0.7103 -0.5532
 4263TIP3    H134280   4.609   5.789   4.033  3.0221  0.7736  0.3912
 4263TIP3    H234281   4.655   5.672   4.117 -3.4931 -1.4469  1.4257
 4264TIP3   OH234282   1.425   4.955  10.546 -0.3559 -0.0104  0.9275
 4264TIP3    H134283   1.427   5.006  10.466  0.7093 -0.0927  0.8884
 4264TIP3    H234284   1.513   4.962  10.582 -0.7429 -0.1792  1.9664
 4265TIP3   OH234285   3.174   5.583  12.732 -0.5467 -0.6638  0.3294
 4265TIP3    H134286   3.166   5.618  12.643 -1.1195 -1.2910  0.1298
 4265TIP3    H234287   3.172   5.488  12.721  0.3441 -0.7636  0.9318
 4266TIP3   OH234288   0.855   6.109  14.200  0.7889 -0.1494  0.7829
 4266TIP3    H134289   0.853   6.085  14.293 -0.1126  0.3730  0.9197
 4266TIP3    H234290   0.867   6.204  14.201  0.6067 -0.1196  0.3780
 4267TIP3   OH234291   4.984   3.104   0.069  0.4749  0.0942 -0.4180
 4267TIP3    H134292   4.928   3.037   0.109 -0.1756  1.2679  0.7229
 4267TIP3    H234293   5.045   3.055   0.015  0.0543 -1.4332  0.4280
 4268TIP3   OH234294   1.726   6.486   0.973 -0.2194 -0.0684  0.4725
 4268TIP3    H134295   1.744   6.576   0.998  0.4847  0.4625 -1.6720
 4268TIP3    H234296   1.635   6.487   0.942 -0.0728  0.0159  0.0385
 4269TIP3   OH234297   3.752   3.652  15.112 -0.0628 -0.2432  0.0835
 4269TIP3    H134298   3.763   3.628  15.204 -0.6725  1.0853  0.5238
 4269TIP3    H234299   3.672   3.704  15.110  1.5912  2.5002 -0.6156
 4270TIP3   OH234300   5.624   1.791   2.350 -0.0886  0.5210 -0.5179
 4270TIP3    H134301   5.711   1.812   2.383  0.4867 -0.3889 -1.4007
 4270TIP3    H234302   5.639   1.757   2.262 -1.4896  1.9710 -1.3739
 4271TIP3   OH234303   1.799   4.201   1.045  0.0826 -0.9341 -0.1679
 4271TIP3    H134304   1.720   4.242   1.081  0.0537 -1.9747  1.0213
 4271TIP3    H234305   1.806   4.238   0.956 -0.2110  1.2041  0.6349
 4272TIP3   OH234306   3.842   0.220  16.264 -0.4292  0.2215 -0.8007
 4272TIP3    H134307   3.813   0.187  16.179 -1.1411 -0.8168 -0.1921
 4272TIP3    H234308   3.765   0.208  16.321  0.4992 -0.5520  0.3477
 4273TIP3   OH234309   2.950   5.684  10.892  0.2516 -0.2362 -0.0669
 4273TIP3    H134310   3.016   5.754  10.888  0.1518 -0.1697 -0.5907
 4273TIP3    H234311   2.940   5.666  10.985 -1.1333  1.7858  0.2282
 4274TIP3   OH234312   2.705   5.611   3.958 -0.0200  0.1586 -0.0503
 4274TIP3    H134313   2.762   5.670   3.909 -0.7785  0.2022 -0.9059
 4274TIP3    H234314   2.635   5.667   3.990 -0.2665 -0.1230 -0.0985
 4275TIP3   OH234315   1.557   0.346  14.270 -0.0957  0.0641 -0.3564
 4275TIP3    H134316   1.651   0.327  14.261  0.0452 -0.0139  1.1020
 4275TIP3    H234317   1.515   0.285  14.209  0.7579 -0.3023 -0.6013
 4276TIP3   OH234318   2.514   2.631   0.941  0.0822 -0.2758 -0.0016
 4276TIP3    H134319   2.519   2.535   0.943  0.7613 -0.2372  0.2912
 4276TIP3    H234320   2.554   2.654   0.857 -0.3163 -0.2532 -0.1912
 4277TIP3   OH234321   2.808   2.606  15.567 -0.1958  0.8192 -0.6298
 4277TIP3    H134322   2.900   2.630  15.555  0.7460 -2.1236 -0.2503
 4277TIP3    H234323   2.808   2.548  15.644 -2.2741  0.3378 -0.9237
 4278TIP3   OH234324   3.009   3.992   4.508 -0.6703  0.1437 -0.0765
 4278TIP3    H134325   2.978   3.905   4.535  0.1945  0.2340  1.3130
 4278TIP3    H234326   2.972   4.052   4.573  0.5583  0.5221  0.2893
 4279TIP3   OH234327   6.129   5.472  14.980  0.6031  0.0064  0.2000
 4279TIP3    H134328   6.075   5.552  14.979 -0.9566 -0.9978  0.1950
 4279TIP3    H234329   6.120   5.436  14.892 -1.3800 -1.8249  1.0642
 4280TIP3   OH234330   6.080   5.668  16.670 -0.6451 -0.0724 -0.1103
 4280TIP3    H134331   6.003   5.616  16.693 -0.8247 -1.3025 -3.0988
 4280TIP3    H234332   6.045   5.751  16.640 -0.6155  0.2188  0.6241
 4281TIP3   OH234333   1.628   6.487   2.665  0.1769 -0.6996 -0.0940
 4281TIP3    H134334   1.638   6.492   2.570  1.2355 -0.3928  0.0280
 4281TIP3    H234335   1.685   6.555   2.699  1.9142 -2.5251  0.8598
 4282TIP3   OH234336   5.177   3.429  17.081  0.8122  0.3263  0.2418
 4282TIP3    H134337   5.097   3.392  17.117  2.3185 -1.9150  1.5107
 4282TIP3    H234338   5.158   3.522  17.070 -2.5969 -0.4107 -1.4192
 4283TIP3   OH234339   5.605   4.711   1.388 -0.0862 -0.6602  0.2662
 4283TIP3    H134340   5.520   4.741   1.422 -0.0933 -0.4013  0.0256
 4283TIP3    H234341   5.634   4.782   1.331  0.5990 -0.4551  0.8517
 4284TIP3   OH234342   5.659   0.610  15.032  0.5923  0.5043  0.1867
 4284TIP3    H134343   5.575   0.575  15.061 -0.4501 -0.2355 -3.2325
 4284TIP3    H234344   5.719   0.536  15.037  0.8778  0.8173  1.8580
 4285TIP3   OH234345   5.312   5.347  11.492  0.0656  0.6692 -0.1832
 4285TIP3    H134346   5.305   5.421  11.551  0.8250  0.4531  0.1906
 4285TIP3    H234347   5.222   5.319  11.477 -0.1740  1.1798  0.2949
 4286TIP3   OH234348   0.915   4.479   0.363  0.0560 -0.5097 -0.5214
 4286TIP3    H134349   0.929   4.385   0.362 -1.8778 -0.8257 -1.1391
 4286TIP3    H234350   0.956   4.509   0.444  1.6298 -1.6890 -0.8322
 4287TIP3   OH234351   0.300   1.813  13.891  0.2332 -0.5646  0.2998
 4287TIP3    H134352   0.387   1.807  13.929  0.3329  2.8101  0.8463
 4287TIP3    H234353   0.248   1.861  13.956 -1.4969 -0.7255 -0.8924
 4288TIP3   OH234354   1.943   1.251   5.437 -0.2765  0.2052  0.5573
 4288TIP3    H134355   1.857   1.261   5.395 -1.9048 -3.8617  2.4521
 4288TIP3    H234356   1.982   1.174   5.395  1.9992  1.2414  0.6042
 4289TIP3   OH234357   5.284   2.466   4.852 -0.3254 -0.1498  0.4240
 4289TIP3    H134358   5.247   2.378   4.845 -0.3954 -0.1921  1.2022
 4289TIP3    H234359   5.225   2.512   4.912  0.1003  0.2142  0.5698
 4290TIP3   OH234360   4.064   2.903   5.618 -0.5408  0.1444 -0.1368
 4290TIP3    H134361   4.100   2.877   5.703  0.2106  0.0609 -0.4779
 4290TIP3    H234362   4.074   2.825   5.564 -0.2169  0.4785 -0.5576
 4291TIP3   OH234363   5.559   4.446   1.621  0.4235 -0.2448 -0.4633
 4291TIP3    H134364   5.652   4.439   1.644  0.8612  2.1338 -1.2998
 4291TIP3    H234365   5.524   4.512   1.681 -1.0800 -1.9602  0.6567
 4292TIP3   OH234366   1.508   1.156   1.039  0.1597 -0.4967 -0.9111
 4292TIP3    H134367   1.421   1.127   1.012  0.1732  0.3660 -1.9246
 4292TIP3    H234368   1.492   1.234   1.092  0.2548 -1.0773 -0.0001
 4293TIP3   OH234369   2.240   2.064   3.726  0.1815  0.6876  0.0963
 4293TIP3    H134370   2.293   1.984   3.732  0.3618  0.8375  0.5796
 4293TIP3    H234371   2.294   2.125   3.675  0.0330  0.4974 -0.2949
 4294TIP3   OH234372   3.498   2.133   6.387  0.1433 -0.2541  0.0213
 4294TIP3    H134373   3.432   2.182   6.337 -0.7984 -1.5869 -0.1021
 4294TIP3    H234374   3.474   2.148   6.479 -0.3144 -0.6961 -0.0218
 4295TIP3   OH234375   5.525   2.548   3.216 -0.4568 -0.2882 -0.4064
 4295TIP3    H134376   5.577   2.497   3.154 -1.6340 -1.2263 -0.6693
 4295TIP3    H234377   5.441   2.502   3.221 -0.9704  0.6880  0.6500
 4296TIP3   OH234378   5.136   1.727  16.457 -0.1177  0.1314 -0.4273
 4296TIP3    H134379   5.214   1.755  16.504 -0.0047 -0.8109 -0.0221
 4296TIP3    H234380   5.063   1.752  16.514  0.0852 -2.6491  1.2592
 4297TIP3   OH234381   5.516   4.083  11.562  0.1562 -0.0372  0.7622
 4297TIP3    H134382   5.429   4.119  11.577  0.4381  0.9492  0.1778
 4297TIP3    H234383   5.524   4.011  11.624 -0.8623  0.2070  1.1962
 4298TIP3   OH234384   4.821   2.492  13.658  0.0526 -0.0734 -0.4867
 4298TIP3    H134385   4.773   2.475  13.577 -0.5421 -1.0636  0.0388
 4298TIP3    H234386   4.825   2.406  13.701  0.3348  0.4399  0.5329
 4299TIP3   OH234387   4.331   5.953   3.145 -0.5269  0.1920  0.3333
 4299TIP3    H134388   4.424   5.943   3.125 -0.3954 -1.7958  1.6080
 4299TIP3    H234389   4.300   6.018   3.082  0.9151 -1.7525 -2.6490
 4300TIP3   OH234390   4.416   1.906   2.137  0.6121 -0.0561 -0.0180
 4300TIP3    H134391   4.376   1.946   2.215 -0.0326 -3.0194  1.3163
 4300TIP3    H234392   4.447   1.980   2.085  0.3152  2.0989  2.6498
 4301TIP3   OH234393   5.555   3.901   1.229  0.4945  0.4439 -0.1402
 4301TIP3    H134394   5.536   3.860   1.144  0.3604  0.0292  0.0865
 4301TIP3    H234395   5.638   3.947   1.215  0.6024  0.1708 -0.4279
 4302TIP3   OH234396   6.467   3.666   4.737  0.3255  0.1047  0.2471
 4302TIP3    H134397   6.494   3.575   4.731 -1.0918 -0.4141  1.0936
 4302TIP3    H234398   6.432   3.687   4.650  0.7377 -0.1358  0.0254
 4303TIP3   OH234399   0.632   1.813  14.904 -0.1443  0.1121  0.1956
 4303TIP3    H134400   0.619   1.901  14.867  0.6210  0.4946  0.7859
 4303TIP3    H234401   0.691   1.770  14.842  2.4580  1.3122  1.6756
 4304TIP3   OH234402   3.300   4.325  14.908 -0.2097 -0.2976  0.3775
 4304TIP3    H134403   3.302   4.388  14.980  2.7815  0.6338 -0.3972
 4304TIP3    H234404   3.284   4.378  14.830  0.6636 -0.6875 -0.0853
 4305TIP3   OH234405   6.294   1.991  10.553 -0.4660  0.4199  0.3185
 4305TIP3    H134406   6.214   1.939  10.564  0.5871 -2.6079 -3.8882
 4305TIP3    H234407   6.365   1.930  10.575  0.7433  1.4800 -0.5110
 4306TIP3   OH234408   5.322   4.792   1.232  0.0241  0.7902  0.2691
 4306TIP3    H134409   5.253   4.728   1.249  0.3690 -0.0989 -1.4742
 4306TIP3    H234410   5.290   4.843   1.158 -0.3335  2.8554  1.7470
 4307TIP3   OH234411   3.572   1.667  13.834 -0.0232 -0.2799 -0.7163
 4307TIP3    H134412   3.530   1.750  13.811  0.0003 -0.1780 -0.4025
 4307TIP3    H234413   3.664   1.679  13.811 -0.3538 -0.9231 -2.5171
 4308TIP3   OH234414   4.571   5.354   0.926  0.5215 -0.7181  0.6508
 4308TIP3    H134415   4.569   5.330   1.018  2.4633  0.0077  0.9292
 4308TIP3    H234416   4.583   5.271   0.880 -1.7378 -1.2477  0.8929
 4309TIP3   OH234417   1.774   3.410  11.488 -0.2724  0.3093  0.4455
 4309TIP3    H134418   1.754   3.492  11.441  1.8885  0.2268 -0.7677
 4309TIP3    H234419   1.736   3.342  11.433  0.3237  0.3611 -0.0534
 4310TIP3   OH234420   4.616   2.206   5.857 -0.1225  0.1879  0.9382
 4310TIP3    H134421   4.585   2.136   5.800  0.1600  0.9341 -0.1507
 4310TIP3    H234422   4.710   2.209   5.843  0.0490 -0.0321  1.9347
 4311TIP3   OH234423   2.463   3.923   6.894 -0.3179 -0.0538 -0.4765
 4311TIP3    H134424   2.554   3.936   6.867 -0.5473  0.2142 -1.1535
 4311TIP3    H234425   2.431   4.011   6.914 -1.2209  0.2509 -2.9080
 4312TIP3   OH234426   4.901   6.308  16.660 -0.2255  0.3939  0.1063
 4312TIP3    H134427   4.813   6.348  16.663  0.1319  1.1961  2.1147
 4312TIP3    H234428   4.912   6.270  16.747  2.0349  1.7787  0.5096
 4313TIP3   OH234429   3.170   2.360   4.954 -0.1167  0.3646 -0.4442
 4313TIP3    H134430   3.139   2.273   4.978 -2.1463  0.8112 -1.2266
 4313TIP3    H234431   3.186   2.355   4.860 -0.7588  0.9619 -0.5936
 4314TIP3   OH234432   6.107   0.286  14.717  0.6833  0.3866  0.4119
 4314TIP3    H134433   6.184   0.231  14.734  1.9816  1.9322 -0.1559
 4314TIP3    H234434   6.057   0.237  14.652  1.0533 -0.7554  0.9458
 4315TIP3   OH234435   0.053   0.826   4.708  0.0738  0.2569  0.4016
 4315TIP3    H134436   0.054   0.855   4.617  1.9865 -0.5857  0.0986
 4315TIP3    H234437   0.028   0.734   4.703 -2.6687  0.8726  1.0558
 4316TIP3   OH234438   2.743   1.107  16.519 -0.2453 -0.1017 -0.0883
 4316TIP3    H134439   2.701   1.032  16.476 -1.4605  1.3274 -1.5145
 4316TIP3    H234440   2.824   1.121  16.469  0.2063 -0.7029  0.4576
 4317TIP3   OH234441   1.619   0.291   2.019 -0.7306 -0.4238  0.3658
 4317TIP3    H134442   1.683   0.234   2.062  0.5836  0.5880 -0.1939
 4317TIP3    H234443   1.665   0.324   1.942 -2.0509  0.0807 -0.2224
 4318TIP3   OH234444   0.131   6.616   1.034 -0.2749 -0.0638 -0.0784
 4318TIP3    H134445   0.095   6.693   0.989 -1.8955  0.1339  1.4416
 4318TIP3    H234446   0.090   6.618   1.120  0.8519 -1.7928  0.5423
 4319TIP3   OH234447   1.289   5.382   6.151  0.2854  0.2032  0.1043
 4319TIP3    H134448   1.337   5.299   6.155  0.5688  0.3764  0.4114
 4319TIP3    H234449   1.295   5.417   6.240 -2.0721 -0.6731  0.6752
 4320TIP3   OH234450   4.676   6.222  14.290 -0.2080  0.1773 -0.4565
 4320TIP3    H134451   4.613   6.202  14.359 -1.6310 -0.6233 -1.9052
 4320TIP3    H234452   4.662   6.315  14.271 -1.7749 -0.2265 -1.4800
 4321TIP3   OH234453   5.394   1.123   1.348 -0.3127  0.2724 -0.1716
 4321TIP3    H134454   5.313   1.171   1.366 -0.3401 -0.3620  1.5914
 4321TIP3    H234455   5.388   1.102   1.255 -0.7609  2.7651 -0.7836
 4322TIP3   OH234456   1.219   5.968  17.362  0.0917 -0.2545 -0.3227
 4322TIP3    H134457   1.266   6.035  17.314  1.9435 -1.7509 -0.7063
 4322TIP3    H234458   1.230   5.991  17.454  0.5360  0.0885 -0.4601
 4323TIP3   OH234459   1.431   3.191   2.650  0.0150  0.1043  0.0076
 4323TIP3    H134460   1.414   3.254   2.720  0.1987  1.5413 -1.1797
 4323TIP3    H234461   1.391   3.110   2.680 -3.3536  1.6356  0.1182
 4324TIP3   OH234462   4.227   0.809  15.834  0.1310 -0.5106  0.3601
 4324TIP3    H134463   4.288   0.835  15.903  0.8504 -1.6478  0.1679
 4324TIP3    H234464   4.196   0.723  15.860  0.2438 -0.8600 -0.6280
 4325TIP3   OH234465   5.335   5.800   5.099 -0.1117  0.8896  0.1477
 4325TIP3    H134466   5.404   5.737   5.118 -1.2675 -0.8137 -0.9672
 4325TIP3    H234467   5.363   5.881   5.142  2.5373  0.2699 -0.2790
 4326TIP3   OH234468   6.578   4.941   5.643 -0.0559  0.5298 -0.2154
 4326TIP3    H134469   6.642   4.898   5.586  0.9212 -0.5294  1.5870
 4326TIP3    H234470   6.511   4.874   5.657 -0.2378  0.7456 -0.0660
 4327TIP3   OH234471   5.148   4.337   3.563  0.4520 -0.1949 -0.1291
 4327TIP3    H134472   5.056   4.323   3.584  0.1292  1.9573  0.1335
 4327TIP3    H234473   5.162   4.290   3.481 -0.5277 -1.5742  0.4513
 4328TIP3   OH234474   5.742   4.239   6.441  0.1081  0.2713  0.3676
 4328TIP3    H134475   5.784   4.158   6.413 -1.5871 -0.6208  0.3109
 4328TIP3    H234476   5.812   4.305   6.437  1.2953 -0.9907 -0.4268
 4329TIP3   OH234477   6.662   6.594   2.976  0.2923  0.4734  0.0436
 4329TIP3    H134478   6.688   6.560   2.891 -1.7243 -3.1728  0.6740
 4329TIP3    H234479   6.735   6.571   3.034  0.1541 -0.2803 -0.0741
 4330TIP3   OH234480   3.204   3.487   5.142  0.2708 -0.1947 -0.5541
 4330TIP3    H134481   3.230   3.483   5.050  1.6449  4.8965 -0.6770
 4330TIP3    H234482   3.287   3.496   5.190 -0.5417 -0.5281  0.9835
 4331TIP3   OH234483   0.870   1.358   2.255  0.3375 -0.2825  0.3695
 4331TIP3    H134484   0.909   1.437   2.217 -2.4862  0.8629 -0.4289
 4331TIP3    H234485   0.911   1.285   2.207 -0.7628  0.9763 -2.7689
 4332TIP3   OH234486   0.700   4.252  15.823  0.2001  0.0239  0.3147
 4332TIP3    H134487   0.714   4.215  15.736 -0.2931  1.6623 -0.5094
 4332TIP3    H234488   0.787   4.260  15.860  0.3293 -1.7802  0.4760
 4333TIP3   OH234489   2.831   0.342  16.150 -0.0630 -0.1754  0.0833
 4333TIP3    H134490   2.794   0.278  16.089 -0.2312  0.4252 -0.4621
 4333TIP3    H234491   2.925   0.328  16.146 -0.1162 -0.5779  0.1866
 4334TIP3   OH234492   2.942   0.295  16.962  0.0396 -0.4102  0.3148
 4334TIP3    H134493   2.859   0.340  16.950  0.6711  0.6564 -0.2473
 4334TIP3    H234494   2.963   0.309  17.055 -0.0862 -0.1051  0.2983
 4335TIP3   OH234495   6.058   0.388  16.620 -0.6905 -0.1711 -0.0041
 4335TIP3    H134496   6.139   0.339  16.628  0.5548  1.9408  1.2242
 4335TIP3    H234497   6.036   0.414  16.709 -3.7442 -2.1429 -0.0380
 4336TIP3   OH234498   4.503   0.372   4.223 -0.1003  0.6663  0.3470
 4336TIP3    H134499   4.559   0.333   4.155 -0.9441 -1.8236  0.9497
 4336TIP3    H234500   4.514   0.314   4.299 -1.9519  1.2697  1.1366
 4337TIP3   OH234501   2.906   3.927  17.091 -0.1328 -0.0531  0.2424
 4337TIP3    H134502   2.852   3.857  17.127 -0.3588 -0.3149 -0.5908
 4337TIP3    H234503   2.881   3.933  16.999  1.4257 -0.3516 -0.2372
 4338TIP3   OH234504   1.374   6.430   1.013 -0.0159 -0.4359  0.3120
 4338TIP3    H134505   1.279   6.436   1.022 -0.3384 -2.5181 -1.0343
 4338TIP3    H234506   1.390   6.338   0.992  2.3566 -0.2309  0.9716
 4339TIP3   OH234507   0.352   2.881   7.024 -0.0449 -0.0419 -0.5559
 4339TIP3    H134508   0.320   2.959   7.069  1.5335  1.2828 -1.5818
 4339TIP3    H234509   0.286   2.862   6.958  0.2484  1.4087 -1.3143
 4340TIP3   OH234510   4.602   6.468   5.170  0.1919  0.0822 -0.3884
 4340TIP3    H134511   4.602   6.373   5.172 -1.3456  0.0388  1.6453
 4340TIP3    H234512   4.519   6.491   5.128  0.4013  0.5206 -0.5703
 4341TIP3   OH234513   2.157   2.427   2.896  0.2120 -0.4734  0.4763
 4341TIP3    H134514   2.096   2.471   2.954  0.2902  0.6373 -0.2541
 4341TIP3    H234515   2.239   2.423   2.945 -0.4181 -2.0213  1.4832
 4342TIP3   OH234516   4.585   3.801  10.746  0.5323 -0.6021 -0.3057
 4342TIP3    H134517   4.510   3.754  10.709  0.7794  0.0473 -1.6933
 4342TIP3    H234518   4.574   3.891  10.714  0.6660  0.0380  1.3894
 4343TIP3   OH234519   3.834   1.841   0.382 -0.2338 -0.4295  0.1161
 4343TIP3    H134520   3.776   1.840   0.307  0.7341 -0.1078 -0.6568
 4343TIP3    H234521   3.922   1.839   0.345  0.2592 -1.7892  1.2804
 4344TIP3   OH234522   0.556   0.897   1.465  0.6078  0.8868  0.2695
 4344TIP3    H134523   0.493   0.826   1.454  0.1996  1.2219  0.4254
 4344TIP3    H234524   0.556   0.942   1.381  1.6370  0.0856 -0.1757
 4345TIP3   OH234525   3.874   1.238   2.856  0.1920 -0.6887 -0.2976
 4345TIP3    H134526   3.844   1.182   2.785 -1.2408 -1.3958  0.8302
 4345TIP3    H234527   3.827   1.208   2.933  1.4614  0.2748  0.9135
 4346TIP3   OH234528   0.728   2.832  16.570  0.0039  0.1685  0.4674
 4346TIP3    H134529   0.643   2.793  16.590 -0.2307  0.9819  1.0946
 4346TIP3    H234530   0.727   2.844  16.475 -0.1487 -0.7835  0.3353
 4347TIP3   OH234531   6.747   2.340   2.420  0.3119 -0.9113  0.4906
 4347TIP3    H134532   6.764   2.419   2.471  0.9473 -0.4406 -0.4270
 4347TIP3    H234533   6.681   2.292   2.471  0.6292 -0.2632  1.5306
 4348TIP3   OH234534   6.750   6.580  17.369  0.0543 -1.0369  0.6409
 4348TIP3    H134535   6.781   6.611  17.454 -1.5864  0.4838  0.7469
 4348TIP3    H234536   6.664   6.542  17.388  0.0805 -1.5432 -0.2149
 4349TIP3   OH234537   4.290   1.915  12.825 -0.7534 -0.2614 -0.3330
 4349TIP3    H134538   4.259   2.004  12.840 -0.2415  0.0338 -0.9629
 4349TIP3    H234539   4.385   1.924  12.812 -0.3787 -1.1387  1.5126
 4350TIP3   OH234540   2.510   4.572  12.240 -0.0200 -0.6965  0.3171
 4350TIP3    H134541   2.432   4.539  12.284  0.5000 -1.3214  0.7953
 4350TIP3    H234542   2.480   4.647  12.189 -0.9458 -0.9941  0.4162
 4351TIP3   OH234543   5.811   5.504  13.842 -0.2866  0.0571 -0.0925
 4351TIP3    H134544   5.767   5.464  13.767 -0.7736 -0.7925  0.6246
 4351TIP3    H234545   5.900   5.468  13.840 -0.3414 -0.0720 -0.1831
 4352TIP3   OH234546   1.424   0.680  13.384  0.2271 -0.1723  0.1212
 4352TIP3    H134547   1.489   0.610  13.397  0.6156 -0.0258 -0.9610
 4352TIP3    H234548   1.406   0.712  13.472  0.8407 -0.9267  0.5360
 4353TIP3   OH234549   0.356   4.118   1.720  0.3025 -0.3904 -0.5375
 4353TIP3    H134550   0.401   4.050   1.670  0.4297 -0.0910 -0.8335
 4353TIP3    H234551   0.405   4.198   1.701  0.3186 -0.2636  0.0253
 4354TIP3   OH234552   1.601   2.300  14.880 -0.0543  0.3036  0.6153
 4354TIP3    H134553   1.605   2.225  14.940  1.7276  0.2015  0.4346
 4354TIP3    H234554   1.683   2.347  14.895 -1.5343  2.8133  1.4089
 4355TIP3   OH234555   5.636   4.698  11.950 -0.4423 -0.8773 -0.3036
 4355TIP3    H134556   5.698   4.768  11.933 -0.5481 -0.0438  2.3202
 4355TIP3    H234557   5.560   4.719  11.895 -0.2339  0.7433 -0.0184
 4356TIP3   OH234558   0.166   5.659  13.244  0.0052  0.0771 -0.1664
 4356TIP3    H134559   0.098   5.643  13.178  0.7173 -0.3512 -0.8038
 4356TIP3    H234560   0.225   5.723  13.204 -0.7906  1.6015  0.9487
 4357TIP3   OH234561   3.721   1.413   3.924 -0.0868 -0.0420 -0.0676
 4357TIP3    H134562   3.709   1.462   3.843  0.0968  1.3437  0.7106
 4357TIP3    H234563   3.641   1.430   3.974 -0.4604 -1.3711 -0.1811
 4358TIP3   OH234564   2.342   3.780  16.021  0.6008 -0.1493 -0.3685
 4358TIP3    H134565   2.292   3.722  16.078 -1.3184  1.8615  0.1333
 4358TIP3    H234566   2.368   3.725  15.947 -0.2378 -1.8647  0.5515
 4359TIP3   OH234567   2.324   5.653   3.039  0.2324  0.6106  0.0190
 4359TIP3    H134568   2.407   5.698   3.023  1.0095 -1.0125 -0.8218
 4359TIP3    H234569   2.310   5.602   2.960 -0.3763 -0.9210  1.0731
 4360TIP3   OH234570   4.100   1.502  17.072  0.0447 -0.5686  0.5871
 4360TIP3    H134571   4.024   1.464  17.028 -0.6808 -0.3521  1.6284
 4360TIP3    H234572   4.140   1.558  17.006 -2.2640  1.4869  0.7842
 4361TIP3   OH234573   3.668   5.513   5.776  0.2860  0.1514 -0.1906
 4361TIP3    H134574   3.628   5.442   5.726  0.9017 -0.6031  0.3685
 4361TIP3    H234575   3.668   5.482   5.866  0.4692  0.9155  0.0811
 4362TIP3   OH234576   5.565   3.939   4.556 -0.1056  0.2515 -0.0655
 4362TIP3    H134577   5.499   3.869   4.555 -1.0637  1.1040  0.8246
 4362TIP3    H234578   5.613   3.925   4.638  1.4447 -0.8741 -1.1027
 4363TIP3   OH234579   3.077   1.508   0.569 -0.0795 -0.2498  0.6412
 4363TIP3    H134580   3.138   1.575   0.599 -1.6358  1.1640  0.8053
 4363TIP3    H234581   2.999   1.521   0.622 -0.7208 -1.6725  0.1024
 4364TIP3   OH234582   5.420   4.899   4.098  0.2043  0.8470 -0.0876
 4364TIP3    H134583   5.376   4.882   4.015  1.1359 -0.6379 -0.3219
 4364TIP3    H234584   5.498   4.948   4.074  0.3160  0.6851 -0.0549
 4365TIP3   OH234585   4.405   3.208   2.950  0.5760  0.3841  0.1664
 4365TIP3    H134586   4.336   3.271   2.974  1.7727  2.1257 -0.6889
 4365TIP3    H234587   4.362   3.147   2.890 -0.9991 -0.5970  2.1560
 4366TIP3   OH234588   4.120   6.730  14.739  0.1952 -0.1798 -0.6084
 4366TIP3    H134589   4.121   6.811  14.688 -3.2582  0.1537 -0.4110
 4366TIP3    H234590   4.120   6.661  14.673  0.9108  0.0609 -0.8653
 4367TIP3   OH234591   1.002   0.055  16.095  0.6594 -0.0067 -0.0902
 4367TIP3    H134592   1.042   0.138  16.124  0.8063 -0.4592  1.0864
 4367TIP3    H234593   1.024   0.049  16.002  0.5888  1.3034 -0.2132
 4368TIP3   OH234594   2.844   0.048  15.141 -0.1939 -0.0805  0.0281
 4368TIP3    H134595   2.837   0.069  15.234 -1.4680 -0.4115  0.0300
 4368TIP3    H234596   2.873   0.129  15.100 -1.2169  0.5598  0.5246
 4369TIP3   OH234597   0.119   5.666   0.791 -0.3030 -0.7590 -0.5740
 4369TIP3    H134598   0.153   5.581   0.820 -0.4341 -0.5660  0.1562
 4369TIP3    H234599   0.028   5.667   0.819 -0.1155 -0.0993  0.0488
 4370TIP3   OH234600   5.727   2.506   5.259 -0.1100  0.4426 -0.0624
 4370TIP3    H134601   5.648   2.509   5.205  0.6180  0.2537 -1.1687
 4370TIP3    H234602   5.751   2.413   5.261 -0.7812  0.2705  1.5943
 4371TIP3   OH234603   3.176   4.080  14.841 -0.1771 -0.2647  0.3911
 4371TIP3    H134604   3.210   4.152  14.894 -1.6070  0.0467  0.9247
 4371TIP3    H234605   3.201   4.102  14.752 -1.5271  1.4964  0.3939
 4372TIP3   OH234606   3.238   3.460   6.123 -0.1214  0.4354  0.4152
 4372TIP3    H134607   3.216   3.494   6.036 -0.6064 -0.7837  0.0381
 4372TIP3    H234608   3.154   3.431   6.159  0.0988  0.8135  1.2412
 4373TIP3   OH234609   0.500   0.100  11.695 -0.2430  0.3933  0.3779
 4373TIP3    H134610   0.575   0.121  11.751  0.0938 -2.7929  1.3236
 4373TIP3    H234611   0.426   0.092  11.754 -0.1644 -1.6731  0.2687
 4374TIP3   OH234612   5.952   4.636   5.564  0.3616  0.4132  0.3324
 4374TIP3    H134613   6.039   4.606   5.536  0.4475 -0.5440  1.5413
 4374TIP3    H234614   5.964   4.728   5.586  1.7013 -0.2860  2.8621
 4375TIP3   OH234615   1.376   6.035   6.060  0.4876 -0.2923  0.5315
 4375TIP3    H134616   1.467   6.012   6.077  0.0824 -2.1089  0.4448
 4375TIP3    H234617   1.349   6.085   6.137  1.8210  1.2277  0.0853
 4376TIP3   OH234618   2.132   4.906   1.266 -0.3594 -0.1964 -0.1981
 4376TIP3    H134619   2.099   4.838   1.325 -0.1607  1.2521  1.6929
 4376TIP3    H234620   2.094   4.987   1.300 -0.8893  0.6498 -2.5996
 4377TIP3   OH234621   5.944   5.706  15.918 -0.0316  0.1694 -0.1570
 4377TIP3    H134622   6.006   5.759  15.868 -0.9432 -0.1693 -1.7088
 4377TIP3    H234623   5.961   5.616  15.891  1.4674 -0.4235  2.4242
 4378TIP3   OH234624   3.849   3.328   1.003 -0.2479  0.0178 -0.1672
 4378TIP3    H134625   3.760   3.292   1.012 -0.5739  0.8681  0.0573
 4378TIP3    H234626   3.836   3.419   0.977  0.4663  1.2155  3.2186
 4379TIP3   OH234627   5.573   0.756   2.700 -0.2710 -0.3709  0.2886
 4379TIP3    H134628   5.596   0.693   2.767  0.8940  0.7181  0.9592
 4379TIP3    H234629   5.490   0.795   2.730 -1.4463 -2.1097 -0.5531
 4380TIP3   OH234630   0.376   0.662  11.535  0.2661  0.4928 -0.0448
 4380TIP3    H134631   0.458   0.614  11.546  0.1978  0.0006 -1.5353
 4380TIP3    H234632   0.308   0.596  11.546  0.1666  0.2496 -1.9378
 4381TIP3   OH234633   1.050   1.707  12.135 -0.0552  0.0510 -0.1057
 4381TIP3    H134634   0.990   1.746  12.198  1.2651 -0.4272  1.5282
 4381TIP3    H234635   1.127   1.684  12.187  1.8796  1.3342 -2.2234
 4382TIP3   OH234636   4.635   1.592  13.263 -0.0370  0.1182 -0.3830
 4382TIP3    H134637   4.664   1.617  13.175  3.1317  1.2464  0.8215
 4382TIP3    H234638   4.597   1.672  13.300  0.0131  0.0748 -0.2367
 4383TIP3   OH234639   4.717   5.297  12.933  0.3862  0.0512  0.0141
 4383TIP3    H134640   4.662   5.245  12.993 -0.1256  0.9212  0.3060
 4383TIP3    H234641   4.735   5.378  12.981  0.5580  0.4650 -0.7414
 4384TIP3   OH234642   1.662   3.769   3.183  0.0825  1.0127  0.7951
 4384TIP3    H134643   1.746   3.785   3.139 -0.2295  1.6359  0.4092
 4384TIP3    H234644   1.674   3.686   3.228 -0.2568 -0.7435 -2.1173
 4385TIP3   OH234645   2.933   3.958  15.014 -0.1120  0.0296 -0.2324
 4385TIP3    H134646   2.971   4.007  15.087  1.3470 -1.2851 -0.0403
 4385TIP3    H234647   3.009   3.922  14.967 -1.0625 -0.2387 -1.6188
 4386TIP3   OH234648   2.314   0.768   1.571  0.5365 -0.0490 -0.2381
 4386TIP3    H134649   2.397   0.814   1.557  1.3482 -1.7152 -1.0631
 4386TIP3    H234650   2.248   0.829   1.537  1.3902  1.2548  0.3279
 4387TIP3   OH234651   1.081   0.991   6.524 -0.1032  0.5168  0.2177
 4387TIP3    H134652   1.091   0.910   6.474  0.8705  0.0774  1.0733
 4387TIP3    H234653   1.088   1.061   6.459  1.1851 -0.0396 -0.2782
 4388TIP3   OH234654   2.816   6.605   4.515  0.2653 -0.5546  0.2316
 4388TIP3    H134655   2.854   6.663   4.581 -0.7763  0.0011  0.3613
 4388TIP3    H234656   2.739   6.567   4.557  0.5010 -1.4414 -0.1212
 4389TIP3   OH234657   3.647   4.506   2.070 -0.8708  0.0018 -0.1701
 4389TIP3    H134658   3.656   4.578   2.132 -0.2495  0.5596 -0.8957
 4389TIP3    H234659   3.718   4.446   2.093 -1.5293 -0.5122  0.5838
 4390TIP3   OH234660   6.584   5.449  14.323  0.2676  0.0699  0.1421
 4390TIP3    H134661   6.571   5.428  14.415  0.6383 -1.9431 -0.2226
 4390TIP3    H234662   6.496   5.467  14.290 -0.0063 -0.3692  0.6188
 4391TIP3   OH234663   3.110   2.404  13.378  0.0728  0.0271 -0.3154
 4391TIP3    H134664   3.147   2.337  13.436 -0.0664 -0.3488 -0.6554
 4391TIP3    H234665   3.054   2.456  13.435 -1.9601 -1.7725 -0.5027
 4392TIP3   OH234666   5.929   3.385  16.492 -0.5470  0.1062  0.1420
 4392TIP3    H134667   5.935   3.307  16.436 -4.8743 -0.1766 -0.2265
 4392TIP3    H234668   5.936   3.459  16.431 -0.0910 -0.0440  0.0022
 4393TIP3   OH234669   4.725   4.503  15.190 -0.4053 -0.4867 -0.1208
 4393TIP3    H134670   4.780   4.426  15.199  0.5816 -0.0719 -2.0900
 4393TIP3    H234671   4.637   4.469  15.173 -0.5203 -1.1367  1.5511
 4394TIP3   OH234672   6.586   0.234   5.984  0.0902  0.3377 -0.0300
 4394TIP3    H134673   6.668   0.188   5.964  0.9169  1.7212  0.0734
 4394TIP3    H234674   6.573   0.293   5.910  0.2488  1.5339  0.8645
 4395TIP3   OH234675   0.217   3.098   1.133  0.3393  0.2082  0.5327
 4395TIP3    H134676   0.293   3.154   1.117  1.2995 -1.3653 -0.8496
 4395TIP3    H234677   0.251   3.028   1.190 -0.5054  0.3368  1.2133
 4396TIP3   OH234678   6.022   0.117   2.103  0.1823  0.5736 -0.2498
 4396TIP3    H134679   6.017   0.206   2.139  1.7938  1.0036 -0.9845
 4396TIP3    H234680   5.986   0.061   2.172 -1.3348  1.8151  0.0252
 4397TIP3   OH234681   6.505   3.710  11.459 -0.0328 -0.5663  0.5447
 4397TIP3    H134682   6.421   3.664  11.452 -0.7400  0.8942 -2.2838
 4397TIP3    H234683   6.482   3.795  11.497  0.4570 -0.7503  1.2683
 4398TIP3   OH234684   6.409   3.692  14.729  0.1619  0.5468 -0.6439
 4398TIP3    H134685   6.342   3.751  14.695 -0.0444 -0.4106 -1.9710
 4398TIP3    H234686   6.468   3.677  14.655 -0.4626 -1.8407 -0.7493
 4399TIP3   OH234687   2.165   1.703  16.137  0.5627 -0.0029  0.2319
 4399TIP3    H134688   2.169   1.653  16.219  0.9179 -2.4739 -1.1992
 4399TIP3    H234689   2.198   1.643  16.071 -0.2151  1.7397 -1.8451
 4400TIP3   OH234690   2.592   1.450  13.585  0.3799 -0.3081 -0.3146
 4400TIP3    H134691   2.537   1.516  13.543  1.5257  0.1964 -1.0771
 4400TIP3    H234692   2.672   1.448  13.532  2.1960  0.8405  2.1824
 4401TIP3   OH234693   1.421   2.518   4.913  0.1498  0.0438 -0.0737
 4401TIP3    H134694   1.471   2.442   4.884 -1.3814 -0.7397 -0.7875
 4401TIP3    H234695   1.406   2.569   4.833 -1.1358 -0.3372 -0.1045
 4402TIP3   OH234696   3.724   2.986  13.467  0.1932  0.2241  0.0112
 4402TIP3    H134697   3.695   2.894  13.466 -1.4365  0.6585  1.8287
 4402TIP3    H234698   3.662   3.030  13.409  0.3379  0.3423 -0.0528
 4403TIP3   OH234699   3.769   2.741  15.497  0.0899  0.1166 -0.3236
 4403TIP3    H134700   3.710   2.784  15.435 -1.3709 -1.3630 -0.0391
 4403TIP3    H234701   3.856   2.771  15.472 -0.6136  0.9593 -1.9378
 4404TIP3   OH234702   2.507   4.031  16.308 -0.1778 -0.1638  0.1464
 4404TIP3    H134703   2.590   4.050  16.353 -0.5384 -2.7229  2.1729
 4404TIP3    H234704   2.532   3.969  16.239 -0.2147  0.3172 -0.3030
 4405TIP3   OH234705   6.217   1.459  15.193  0.5184  0.3239  0.5355
 4405TIP3    H134706   6.246   1.372  15.219 -0.8748 -0.0484  0.9666
 4405TIP3    H234707   6.272   1.519  15.243  1.3507 -0.3048  0.3965
 4406TIP3   OH234708   5.872   3.149   0.514  0.2452 -0.3273  0.1547
 4406TIP3    H134709   5.899   3.082   0.577 -1.2736 -1.0575  0.0925
 4406TIP3    H234710   5.888   3.110   0.428  1.7335  0.4269  0.0482
 4407TIP3   OH234711   5.881   3.256   1.595 -0.5211  0.3834 -0.3849
 4407TIP3    H134712   5.814   3.325   1.595  0.4763  1.4013  0.5528
 4407TIP3    H234713   5.929   3.270   1.513 -0.9917  0.1151 -0.7091
 4408TIP3   OH234714   4.681   3.445   3.702  0.1473 -0.9340 -0.2072
 4408TIP3    H134715   4.619   3.422   3.770 -1.0201  0.5320 -0.7231
 4408TIP3    H234716   4.627   3.483   3.632  1.4131 -1.4378 -1.5253
 4409TIP3   OH234717   1.965   2.929  14.164  0.1471 -0.4013 -0.1815
 4409TIP3    H134718   1.963   2.840  14.197 -0.5599  0.3706  1.9919
 4409TIP3    H234719   1.879   2.943  14.125  0.6035 -0.9576 -1.4376
 4410TIP3   OH234720   1.356   4.941  13.431  0.2247  0.1363 -0.5607
 4410TIP3    H134721   1.373   4.995  13.509 -1.7701  1.0048 -0.6531
 4410TIP3    H234722   1.400   4.987  13.360  0.2885  0.5151 -0.2827
 4411TIP3   OH234723   0.070   1.344   5.885  0.0530  0.3630  0.4398
 4411TIP3    H134724   0.074   1.398   5.964  0.5310 -0.1938  0.8047
 4411TIP3    H234725   0.056   1.255   5.918  0.5424  0.0898 -0.0858
 4412TIP3   OH234726   0.338   3.681  13.117  0.7301  0.3507 -0.1040
 4412TIP3    H134727   0.404   3.743  13.147  0.8532 -0.9427  2.5835
 4412TIP3    H234728   0.264   3.694  13.175 -0.6356  0.3413 -1.7551
 4413TIP3   OH234729   0.880   1.206   0.286  0.1493 -0.9407  0.4594
 4413TIP3    H134730   0.967   1.245   0.282  0.2489 -1.1112  0.9025
 4413TIP3    H234731   0.845   1.217   0.198 -0.4499  1.5555  0.9476
 4414TIP3   OH234732   0.603   6.089   0.228 -0.5145  0.9022 -0.6305
 4414TIP3    H134733   0.629   6.030   0.157 -0.2494 -0.3203  0.4449
 4414TIP3    H234734   0.680   6.143   0.244 -0.1365  0.3094 -0.4236
 4415TIP3   OH234735   6.248   1.316  11.807  0.0245  0.1576 -0.6633
 4415TIP3    H134736   6.315   1.329  11.739  0.3921 -1.9497 -0.7820
 4415TIP3    H234737   6.165   1.329  11.761  0.2562 -1.6179 -1.6933
 4416TIP3   OH234738   0.322   3.707   6.427 -0.4918  0.0239 -0.3128
 4416TIP3    H134739   0.345   3.789   6.470 -0.0168 -1.0863  1.7103
 4416TIP3    H234740   0.406   3.661   6.417 -0.6137  0.1839 -2.3804
 4417TIP3   OH234741   6.121   4.088   0.450 -0.2947  0.2674 -0.3733
 4417TIP3    H134742   6.193   4.116   0.393  0.2171  1.7731  0.9460
 4417TIP3    H234743   6.138   3.995   0.466  1.2856  0.5655 -0.2097
 4418TIP3   OH234744   2.968   2.214  15.323  0.1171 -0.2207  0.2818
 4418TIP3    H134745   2.955   2.152  15.394  0.2370 -0.8114 -0.2007
 4418TIP3    H234746   2.896   2.196  15.262  1.5348 -1.6119 -1.0651
 4419TIP3   OH234747   4.268   0.242   3.532  0.4439 -0.6199  0.2287
 4419TIP3    H134748   4.187   0.292   3.537  1.0908  0.4062  0.7418
 4419TIP3    H234749   4.334   0.299   3.571  1.3592 -1.5588  0.0969
 4420TIP3   OH234750   3.027   6.376  13.667 -0.0344 -0.0557  0.8727
 4420TIP3    H134751   2.996   6.400  13.755  0.9565  1.4502  0.8455
 4420TIP3    H234752   3.122   6.377  13.675  0.0591 -0.0253 -0.2003
 4421TIP3   OH234753   2.287   1.040  15.073  0.3613 -0.1321 -0.7429
 4421TIP3    H134754   2.287   0.984  15.150  1.5213 -0.3578 -0.8798
 4421TIP3    H234755   2.363   1.011  15.023 -0.2158  0.1918 -1.8397
 4422TIP3   OH234756   0.293   3.332   6.677  0.1941 -0.3741  0.0672
 4422TIP3    H134757   0.358   3.266   6.651 -1.2488 -1.9302  0.2426
 4422TIP3    H234758   0.323   3.363   6.763  0.3662 -1.5385  0.4389
 4423TIP3   OH234759   1.203   4.672  17.150 -0.3144 -0.4647  0.6228
 4423TIP3    H134760   1.166   4.761  17.154 -0.9009 -0.6497 -0.3286
 4423TIP3    H234761   1.276   4.680  17.088  0.6011 -0.3273  1.7029
 4424TIP3   OH234762   4.839   2.778  13.541 -0.7651 -0.2539  0.2446
 4424TIP3    H134763   4.766   2.777  13.478  1.0547  0.3169 -2.0086
 4424TIP3    H234764   4.835   2.692  13.583 -1.8728 -0.7983 -0.8991
 4425TIP3   OH234765   4.145   2.449   1.721 -0.0723  0.3461  0.3859
 4425TIP3    H134766   4.094   2.483   1.794 -0.9886  0.4134 -0.2607
 4425TIP3    H234767   4.117   2.503   1.646  0.8317  0.2710 -0.0153
 4426TIP3   OH234768   2.676   1.788   2.078  0.2663  0.1876  0.6840
 4426TIP3    H134769   2.701   1.874   2.111 -0.1101  0.7942 -0.5433
 4426TIP3    H234770   2.730   1.726   2.127  0.8314  1.1541  1.3003
 4427TIP3   OH234771   1.677   3.811   3.691 -0.6390 -0.6924 -0.3262
 4427TIP3    H134772   1.652   3.741   3.752 -2.8394 -1.6058 -2.1428
 4427TIP3    H234773   1.728   3.766   3.623  1.5353  0.2707  0.5549
 4428TIP3   OH234774   1.892   6.351  10.457  0.3568 -0.1464 -0.4443
 4428TIP3    H134775   1.924   6.432  10.497  0.6862  0.0684 -1.1270
 4428TIP3    H234776   1.803   6.371  10.430 -0.9472 -1.1354  2.6208
 4429TIP3   OH234777   2.770   1.945   3.080  0.4669  0.7343 -0.1980
 4429TIP3    H134778   2.713   1.956   3.004 -1.1015 -1.6055  0.5390
 4429TIP3    H234779   2.838   1.883   3.050 -0.1504 -0.1854  0.2596
 4430TIP3   OH234780   6.572   3.771  11.933 -0.1002 -0.6785  0.1202
 4430TIP3    H134781   6.624   3.787  12.012 -2.2779 -3.3968  2.2990
 4430TIP3    H234782   6.593   3.681  11.908 -0.9318 -0.5313 -1.2359
 4431TIP3   OH234783   4.691   5.264   5.314 -0.0505  0.2679 -0.1107
 4431TIP3    H134784   4.608   5.309   5.330 -0.4092 -1.1061  2.4139
 4431TIP3    H234785   4.740   5.323   5.256 -2.2080  1.7583 -0.5386
 4432TIP3   OH234786   2.252   0.317  16.061  0.2092 -0.2467  0.0784
 4432TIP3    H134787   2.335   0.329  16.013  0.6760 -0.8747  0.7066
 4432TIP3    H234788   2.192   0.379  16.020  1.0525  0.3883 -0.2433
 4433TIP3   OH234789   4.715   6.422  14.983  0.5473 -0.5196  0.6561
 4433TIP3    H134790   4.695   6.416  14.889 -0.8503 -1.5575  0.9959
 4433TIP3    H234791   4.693   6.336  15.018 -3.9904  1.2378  2.8190
 4434TIP3   OH234792   6.114   1.557  15.537  0.0308 -0.2802  0.2425
 4434TIP3    H134793   6.095   1.499  15.464  0.3454 -0.2496  0.1339
 4434TIP3    H234794   6.045   1.623  15.535  1.6054  1.4146 -1.7917
 4435TIP3   OH234795   2.983   2.632  13.527 -0.3503 -0.3563  0.4203
 4435TIP3    H134796   3.022   2.711  13.489 -0.1533 -0.9739 -0.6988
 4435TIP3    H234797   2.891   2.653  13.539 -0.1768  0.2497  0.7008
 4436TIP3   OH234798   0.786   2.158  13.434 -0.0355 -0.0441  0.0439
 4436TIP3    H134799   0.783   2.245  13.394  0.2304 -0.2669 -0.4796
 4436TIP3    H234800   0.722   2.107  13.385  0.0115 -0.2187  0.1638
 4437TIP3   OH234801   0.834   3.584   0.332 -0.1657 -0.5804  0.0685
 4437TIP3    H134802   0.764   3.547   0.385  0.8266 -3.7310 -0.6373
 4437TIP3    H234803   0.914   3.565   0.380  0.6916 -2.7939 -2.0130
 4438TIP3   OH234804   0.480   5.000  13.448  0.0704  0.1995 -0.6061
 4438TIP3    H134805   0.441   5.046  13.373 -1.8364 -0.3599 -0.0103
 4438TIP3    H234806   0.407   4.950  13.485  1.4678 -1.1593  0.3885
 4439TIP3   OH234807   3.734   5.133  14.205 -0.0150  0.4178 -0.0615
 4439TIP3    H134808   3.710   5.217  14.245  1.1181  1.1275 -0.7968
 4439TIP3    H234809   3.729   5.149  14.111 -0.0954 -0.4370 -0.2054
 4440TIP3   OH234810   1.520   5.154  11.799  0.1204 -0.3081  0.5768
 4440TIP3    H134811   1.599   5.207  11.794  0.1299 -0.1540  1.9349
 4440TIP3    H234812   1.516   5.124  11.890 -1.8788  0.4818  0.8051
 4441TIP3   OH234813   2.380   0.420   0.641 -0.0258  0.0968 -0.0056
 4441TIP3    H134814   2.413   0.499   0.684 -0.1578 -0.7792  1.7883
 4441TIP3    H234815   2.285   0.426   0.649 -0.2207  1.0176 -2.2649
 4442TIP3   OH234816   1.008   1.336  14.009 -0.1128 -0.2467 -0.1824
 4442TIP3    H134817   1.021   1.400  13.939 -1.4083  1.1561  0.7922
 4442TIP3    H234818   1.071   1.362  14.076 -0.1560 -0.4390 -0.0674
 4443TIP3   OH234819   2.176   3.522  11.327  0.1172  0.2557  0.0420
 4443TIP3    H134820   2.141   3.471  11.254  2.3826 -1.3730 -0.0131
 4443TIP3    H234821   2.154   3.471  11.405  1.7630 -0.5351  0.0445
 4444TIP3   OH234822   6.489   3.830   3.475  0.2234  0.2985  0.2410
 4444TIP3    H134823   6.463   3.878   3.554  0.4678 -1.3831  1.4170
 4444TIP3    H234824   6.414   3.838   3.416 -0.3513  0.8217  1.0155
 4445TIP3   OH234825   6.447   5.008   6.180  0.3502 -0.9604  0.0654
 4445TIP3    H134826   6.429   5.022   6.087 -0.7974  0.3738  0.4569
 4445TIP3    H234827   6.385   5.064   6.226  1.2503 -1.1830  1.6507
 4446TIP3   OH234828   2.577   0.301   5.569  0.0172 -0.1887  0.1129
 4446TIP3    H134829   2.549   0.262   5.486 -0.9030  0.2337  0.2119
 4446TIP3    H234830   2.512   0.270   5.633 -0.6883  1.4128  0.2111
 4447TIP3   OH234831   0.320   4.189  11.857  0.0692  0.2268  0.8384
 4447TIP3    H134832   0.370   4.269  11.846 -1.3809  1.0694  0.0001
 4447TIP3    H234833   0.314   4.151  11.769 -1.7179  0.7934  0.6599
 4448TIP3   OH234834   4.246   4.747  15.502 -0.1667 -0.1227  0.5268
 4448TIP3    H134835   4.191   4.821  15.480 -2.3560 -1.1360  2.2053
 4448TIP3    H234836   4.280   4.766  15.589  1.2920 -0.0325 -0.0227
 4449TIP3   OH234837   0.133   0.458  12.605 -0.3241  0.6640 -0.2841
 4449TIP3    H134838   0.215   0.435  12.648 -0.9902 -0.2957  0.5034
 4449TIP3    H234839   0.159   0.521  12.538  1.0931  0.1761 -0.2359
 4450TIP3   OH234840   2.900   0.363   1.374 -0.1687 -0.3536 -0.3730
 4450TIP3    H134841   2.864   0.401   1.454  0.6387 -0.8706  0.2532
 4450TIP3    H234842   2.995   0.370   1.384 -0.0522 -0.6124 -1.1902
 4451TIP3   OH234843   4.590   2.509   5.818  0.3286  0.3352  0.3290
 4451TIP3    H134844   4.651   2.465   5.758 -2.0716 -2.3066 -0.4293
 4451TIP3    H234845   4.617   2.480   5.905  1.3028  0.7947  0.1938
 4452TIP3   OH234846   0.137   1.957   6.234  0.7970 -0.0191  0.1748
 4452TIP3    H134847   0.074   2.028   6.242  0.4530 -0.4469  1.5721
 4452TIP3    H234848   0.152   1.948   6.140 -1.7311 -0.3373 -0.2651
 4453TIP3   OH234849   4.435   6.610  14.287  0.3042 -0.2804  0.0969
 4453TIP3    H134850   4.451   6.545  14.219 -0.3364 -0.3577  0.0211
 4453TIP3    H234851   4.500   6.678  14.270 -2.2305  1.6379 -3.0207
 4454TIP3   OH234852   2.484   2.289  14.890  0.2635 -0.1543  0.1903
 4454TIP3    H134853   2.461   2.244  14.809 -2.0784 -1.4517  1.4451
 4454TIP3    H234854   2.579   2.275  14.899  0.0325 -2.9262 -0.6710
 4455TIP3   OH234855   4.297   6.085   1.527 -0.0350 -0.0385  0.2087
 4455TIP3    H134856   4.365   6.106   1.463 -1.1043  1.1891 -0.5906
 4455TIP3    H234857   4.289   5.990   1.524  1.2235 -0.1480 -0.1034
 4456TIP3   OH234858   0.569   5.723  16.013 -0.0804  0.0535 -0.8570
 4456TIP3    H134859   0.475   5.735  16.023 -0.0014 -0.0737  0.1581
 4456TIP3    H234860   0.590   5.761  15.928 -0.5693  2.9419  0.2155
 4457TIP3   OH234861   4.302   2.504  14.471 -0.5301  0.1836  0.1544
 4457TIP3    H134862   4.354   2.430  14.439 -2.2191 -1.1071  0.2688
 4457TIP3    H234863   4.211   2.477  14.459 -1.2110  1.6475  1.5859
 4458TIP3   OH234864   1.093   1.641   3.865 -0.4849  0.2991 -0.3011
 4458TIP3    H134865   1.174   1.669   3.907 -0.0365 -2.2018  0.7128
 4458TIP3    H234866   1.024   1.691   3.908 -0.0006 -1.7498  3.2495
 4459TIP3   OH234867   6.073   3.014   2.035 -0.6380  0.0998 -0.2349
 4459TIP3    H134868   6.057   2.930   1.992 -1.1696  0.0966 -0.0355
 4459TIP3    H234869   6.052   3.079   1.968 -2.8397  0.1309  0.4254
 4460TIP3   OH234870   1.706   2.935   6.471  0.9517 -0.3191 -0.0345
 4460TIP3    H134871   1.707   2.872   6.399  2.5625 -2.1111  1.4264
 4460TIP3    H234872   1.621   2.922   6.513 -0.3932  1.4105 -2.0798
 4461TIP3   OH234873   0.666   5.841   3.638 -0.3424 -0.1584 -0.1592
 4461TIP3    H134874   0.617   5.829   3.719 -1.0423 -1.5329 -0.7651
 4461TIP3    H234875   0.699   5.754   3.617  2.1872  0.6610  0.0836
 4462TIP3   OH234876   2.452   0.826  11.502  0.5312 -0.4146  0.2938
 4462TIP3    H134877   2.519   0.761  11.480  0.5003  0.6152 -3.6299
 4462TIP3    H234878   2.372   0.775  11.514  0.9391 -1.2856 -0.5583
 4463TIP3   OH234879   5.006   1.766  14.086  0.0170  0.1052 -0.2201
 4463TIP3    H134880   5.038   1.700  14.148  1.1033  0.6018 -0.2191
 4463TIP3    H234881   4.949   1.822  14.139  0.5973  0.2714  0.2537
 4464TIP3   OH234882   2.920   4.811  14.057 -0.2443 -0.1323  0.7903
 4464TIP3    H134883   2.827   4.792  14.047 -0.5932  1.8399 -0.2852
 4464TIP3    H234884   2.964   4.740  14.010 -1.2581 -0.4160  0.2483
 4465TIP3   OH234885   5.653   4.062  15.716  0.3363 -0.0210  0.6231
 4465TIP3    H134886   5.584   4.069  15.782 -0.5784  0.0508 -0.3147
 4465TIP3    H234887   5.717   4.128  15.741  0.2187 -0.2836  1.6715
 4466TIP3   OH234888   4.384   1.266   2.529 -0.1481  0.2836 -0.0396
 4466TIP3    H134889   4.375   1.294   2.620 -0.8955 -0.4572  0.1254
 4466TIP3    H234890   4.299   1.227   2.508 -0.0304  0.5827 -1.1037
 4467TIP3   OH234891   3.326   4.420   5.913 -0.0192  0.1866  0.0289
 4467TIP3    H134892   3.238   4.457   5.919 -0.6598 -1.0406 -1.2113
 4467TIP3    H234893   3.312   4.326   5.901  1.4598 -0.0409 -0.0462
 4468TIP3   OH234894   3.782   4.540   1.413  0.0347 -0.1833 -0.6574
 4468TIP3    H134895   3.804   4.628   1.444  1.2545 -0.5319 -0.4943
 4468TIP3    H234896   3.688   4.544   1.394 -0.1981  0.7715  0.6011
 4469TIP3   OH234897   3.771   2.711   0.900 -0.1211  0.1122  0.0765
 4469TIP3    H134898   3.722   2.768   0.959 -0.7185  2.9091 -2.8516
 4469TIP3    H234899   3.711   2.639   0.879 -0.8760  0.5399  0.7589
 4470TIP3   OH234900   0.261   5.384  16.768  0.1435 -0.1476 -0.8949
 4470TIP3    H134901   0.210   5.442  16.824  1.3652  0.5697 -0.4945
 4470TIP3    H234902   0.256   5.299  16.811  0.9693  0.3699  0.2493
 4471TIP3   OH234903   3.805   4.354   3.187 -0.2022 -0.4851  0.0720
 4471TIP3    H134904   3.885   4.405   3.197  0.2321 -1.3676  1.3881
 4471TIP3    H234905   3.781   4.365   3.095  0.4822  1.1534  0.0449
 4472TIP3   OH234906   1.155   0.428  17.149  0.2813  0.5055  0.2250
 4472TIP3    H134907   1.113   0.365  17.090  0.5050  0.8316 -0.2947
 4472TIP3    H234908   1.248   0.419  17.131  0.4941 -0.4977  1.6582
 4473TIP3   OH234909   3.010   2.953  15.437  0.1981  0.3792 -0.2072
 4473TIP3    H134910   3.013   2.857  15.440 -1.4778  0.1337 -2.9494
 4473TIP3    H234911   3.065   2.976  15.363 -0.8754  1.3688 -0.7267
 4474TIP3   OH234912   5.870   3.731  15.424 -0.1734  0.1882  0.2501
 4474TIP3    H134913   5.832   3.763  15.506 -1.3281 -0.2206 -0.0981
 4474TIP3    H234914   5.811   3.764  15.356 -1.1143 -2.1156 -0.1724
 4475TIP3   OH234915   5.141   3.185  14.975  0.3081  0.0172  0.5109
 4475TIP3    H134916   5.066   3.126  14.970  1.0170 -0.8446 -0.6987
 4475TIP3    H234917   5.184   3.162  15.058  0.0549 -0.5363  0.4946
 4476TIP3   OH234918   3.016   4.304   2.445  0.0803  0.1963 -0.1335
 4476TIP3    H134919   2.984   4.395   2.444 -0.4714  0.0094 -0.4352
 4476TIP3    H234920   2.989   4.270   2.530 -0.0950  0.1914 -0.1891
 4477TIP3   OH234921   4.571   1.017   3.977 -0.2333  0.5235  0.6378
 4477TIP3    H134922   4.608   0.929   3.983 -0.6150  0.2410 -0.7964
 4477TIP3    H234923   4.499   1.009   3.914 -0.6636  1.7429  0.9391
 4478TIP3   OH234924   0.236   3.375   0.156 -0.0764 -0.0008 -0.2231
 4478TIP3    H134925   0.291   3.309   0.198 -2.1951 -0.6985  1.6430
 4478TIP3    H234926   0.254   3.456   0.204 -0.7022 -0.2501  0.4511
 4479TIP3   OH234927   0.389   6.421   5.586 -0.2072  0.0436  0.1487
 4479TIP3    H134928   0.435   6.353   5.537 -0.6176  0.1702 -0.4260
 4479TIP3    H234929   0.446   6.440   5.660 -0.0436 -0.8579  0.2619
 4480TIP3   OH234930   1.022   6.376  16.434  0.2222  0.3631  0.2672
 4480TIP3    H134931   1.031   6.427  16.515 -1.2227  0.0076  0.6862
 4480TIP3    H234932   1.019   6.442  16.365  1.4795  0.6739  0.4816
 4481TIP3   OH234933   0.578   3.277  14.856  0.4951  0.2589  0.6167
 4481TIP3    H134934   0.644   3.346  14.857  0.7763  0.0263  2.2191
 4481TIP3    H234935   0.624   3.200  14.824 -0.0809  0.9899 -2.1684
 4482TIP3   OH234936   4.137   0.188   2.565  0.8702 -0.5314 -0.2960
 4482TIP3    H134937   4.072   0.258   2.558  1.2341 -0.1258  0.3192
 4482TIP3    H234938   4.108   0.137   2.641  0.2078 -1.4780 -1.1574
 4483TIP3   OH234939   0.945   6.350   4.877 -0.3846 -0.5247  0.1296
 4483TIP3    H134940   0.951   6.443   4.899 -0.0649 -0.4643 -0.2248
 4483TIP3    H234941   0.872   6.318   4.931 -0.5836 -0.0414  0.1498
 4484TIP3   OH234942   6.543   5.560   5.740 -0.8244  0.4808  0.1955
 4484TIP3    H134943   6.544   5.655   5.743  1.1103  0.4817  1.7394
 4484TIP3    H234944   6.613   5.537   5.679 -2.9378 -0.0196 -2.2142
 4485TIP3   OH234945   5.893   4.487  15.666  0.2555 -0.1487  0.7863
 4485TIP3    H134946   5.952   4.537  15.610  1.4976  1.4847  3.3246
 4485TIP3    H234947   5.948   4.455  15.737 -1.4331 -0.8749  1.8420
 4486TIP3   OH234948   6.130   2.064   1.101 -0.3006 -0.1565  0.0736
 4486TIP3    H134949   6.075   2.120   1.047 -0.6186  0.0353  0.5874
 4486TIP3    H234950   6.068   2.017   1.157  0.0193 -0.3930  0.2332
 4487TIP3   OH234951   2.400   2.877  12.271 -0.8637 -0.8763  0.1602
 4487TIP3    H134952   2.492   2.902  12.277 -0.9845 -0.7095  1.7034
 4487TIP3    H234953   2.400   2.804  12.209  0.3444 -1.0557  0.3347
 4488TIP3   OH234954   3.177   5.736  16.929 -0.2894 -0.2999  0.4995
 4488TIP3    H134955   3.202   5.645  16.910 -1.0523 -0.9844  2.5139
 4488TIP3    H234956   3.127   5.763  16.852  0.3198 -1.4290 -0.3281
 4489TIP3   OH234957   6.457   6.199   1.323 -0.0622  0.5670 -1.0354
 4489TIP3    H134958   6.371   6.211   1.283 -1.0199 -0.7120  0.5161
 4489TIP3    H234959   6.514   6.172   1.251 -0.6725  2.4443 -2.2858
 4490TIP3   OH234960   5.973   0.553  15.475  0.5222  0.3584  0.2236
 4490TIP3    H134961   5.900   0.604  15.511  0.5591  0.6595 -0.1252
 4490TIP3    H234962   5.995   0.597  15.393 -0.2196 -0.9124 -0.6882
 4491TIP3   OH234963   1.918   6.103   5.981  0.9222 -0.0644  0.5148
 4491TIP3    H134964   1.899   6.029   6.038 -0.4196  1.7670  2.6003
 4491TIP3    H234965   1.881   6.078   5.896  1.5579 -2.2185  0.8135
 4492TIP3   OH234966   5.193   4.473  15.513 -0.2972 -0.0948 -0.2636
 4492TIP3    H134967   5.162   4.530  15.584  0.9576  2.5483 -1.6836
 4492TIP3    H234968   5.254   4.413  15.556 -0.2556  0.8289  1.0311
 4493TIP3   OH234969   6.751   3.579   1.190  0.3897  0.4196 -0.1789
 4493TIP3    H134970   6.762   3.611   1.101  0.0471  0.6756 -0.1311
 4493TIP3    H234971   6.770   3.486   1.185  1.6920  0.6676 -0.2724
 4494TIP3   OH234972   5.043   6.269  15.521 -0.2895 -0.4401 -0.9881
 4494TIP3    H134973   4.989   6.190  15.514 -3.1435  1.3962 -1.1994
 4494TIP3    H234974   5.021   6.306  15.607  1.5633 -0.1750 -0.5728
 4495TIP3   OH234975   2.253   3.416  13.903  0.2671 -0.1669  0.1103
 4495TIP3    H134976   2.158   3.414  13.887  0.2502  0.8700  0.0501
 4495TIP3    H234977   2.285   3.335  13.863 -0.4081  0.1633 -1.1708
 4496TIP3   OH234978   1.838   1.639  12.453  0.6476  0.2770 -0.4949
 4496TIP3    H134979   1.774   1.577  12.489  0.3939  0.9656  0.2692
 4496TIP3    H234980   1.901   1.584  12.406 -0.2789 -0.4488 -0.9265
 4497TIP3   OH234981   0.640   4.054   6.521 -0.2049 -0.2099 -0.7541
 4497TIP3    H134982   0.703   3.983   6.509  2.1474  1.8308 -1.1422
 4497TIP3    H234983   0.665   4.095   6.603 -2.5055 -0.6527  0.2705
 4498TIP3   OH234984   4.499   1.055  15.433 -0.7247 -0.0247  0.0792
 4498TIP3    H134985   4.590   1.080  15.420 -0.7250 -1.0877 -2.4452
 4498TIP3    H234986   4.500   1.004  15.515  0.5355  1.6198  1.1554
 4499TIP3   OH234987   6.511   0.641  17.013 -0.7199 -0.0008  0.2926
 4499TIP3    H134988   6.601   0.673  17.003 -1.2837  1.0544 -2.4659
 4499TIP3    H234989   6.469   0.705  17.070  0.0906 -0.1480  1.0823
 4500TIP3   OH234990   3.538   2.267  11.175 -0.1762 -0.8328  0.2728
 4500TIP3    H134991   3.487   2.206  11.123 -2.0510 -0.2730  1.3682
 4500TIP3    H234992   3.509   2.353  11.147  0.8143 -0.4657  0.3233
 4501TIP3   OH234993   2.206   6.093   4.852  0.1899  0.0315 -1.1926
 4501TIP3    H134994   2.209   6.038   4.931  0.1921  1.2634 -0.3140
 4501TIP3    H234995   2.114   6.115   4.842  0.4613  1.8388 -0.1120
 4502TIP3   OH234996   5.178   4.675   2.545  0.1674  0.7413 -0.1122
 4502TIP3    H134997   5.271   4.684   2.527 -0.1215  3.1118 -0.6948
 4502TIP3    H234998   5.153   4.592   2.502  1.2375  1.9739 -3.4466
 4503TIP3   OH234999   6.212   1.665  16.368 -0.3374  0.5470  0.2642
 4503TIP3    H135000   6.135   1.691  16.418 -1.8098  1.2131 -2.2247
 4503TIP3    H235001   6.223   1.572  16.388 -0.7886  0.8063  1.8566
 4504TIP3   OH235002   6.193   6.168   2.764  0.6062  0.0626 -0.1135
 4504TIP3    H135003   6.157   6.157   2.676 -0.7077 -1.8734  0.6065
 4504TIP3    H235004   6.196   6.263   2.777  1.7715  0.4387 -2.5813
 4505TIP3   OH235005   4.827   3.567  12.650  0.4750 -0.3951  0.2277
 4505TIP3    H135006   4.843   3.633  12.582  1.7806  1.2793  2.0497
 4505TIP3    H235007   4.895   3.583  12.715 -1.6460 -0.8824  2.7150
 4506TIP3   OH235008   1.876   3.482   3.170  0.1957 -0.5349  0.2702
 4506TIP3    H135009   1.791   3.496   3.210 -0.6500 -2.4476 -0.6990
 4506TIP3    H235010   1.901   3.393   3.198  1.0174 -0.7007 -0.9006
 4507TIP3   OH235011   0.344   5.357  12.670  0.7634  0.6279  0.3312
 4507TIP3    H135012   0.385   5.329  12.751  1.1884  0.8358  0.1911
 4507TIP3    H235013   0.359   5.285  12.609 -0.1179  0.1965  0.6212
 4508TIP3   OH235014   0.824   6.230  13.624 -0.0981 -0.4909 -0.0709
 4508TIP3    H135015   0.877   6.175  13.567  0.6323  0.8173 -0.6953
 4508TIP3    H235016   0.802   6.173  13.698 -0.4326 -1.9833 -1.2676
 4509TIP3   OH235017   4.489   1.799   5.530 -0.3586 -0.4169  0.1918
 4509TIP3    H135018   4.472   1.715   5.574  0.7711 -0.9872 -0.4048
 4509TIP3    H235019   4.501   1.775   5.438  2.7055 -0.0607  0.3775
 4510TIP3   OH235020   5.364   1.957   1.635 -0.2175  0.2782  0.5143
 4510TIP3    H135021   5.272   1.953   1.661  0.4771 -2.5938  3.1236
 4510TIP3    H235022   5.410   1.984   1.714  1.2909  1.3381 -0.6656
 4511TIP3   OH235023   1.834   3.817   1.867  0.0203  1.0801  0.3946
 4511TIP3    H135024   1.877   3.780   1.944 -0.7548  0.6368  0.6224
 4511TIP3    H235025   1.817   3.908   1.890 -0.5725  0.8431  0.9090
 4512TIP3   OH235026   0.911   3.746  17.134 -0.0743  0.0908 -0.5378
 4512TIP3    H135027   0.922   3.833  17.171 -0.2925 -0.3431  0.5811
 4512TIP3    H235028   0.935   3.686  17.205  4.9236 -0.8818 -2.5767
 4513TIP3   OH235029   1.218   4.132  16.483  0.0181  0.5712  0.0172
 4513TIP3    H135030   1.299   4.089  16.508 -0.8628 -0.3569  1.4354
 4513TIP3    H235031   1.231   4.159  16.392  0.8925 -2.0169 -0.6992
 4514TIP3   OH235032   3.504   4.709  14.556  1.0001  0.2769  0.2813
 4514TIP3    H135033   3.431   4.649  14.540  2.2153 -1.6405  1.5171
 4514TIP3    H235034   3.535   4.687  14.644  2.6493  1.4641  0.0535
 4515TIP3   OH235035   5.632   2.564   2.752  0.7150  0.3682  0.4265
 4515TIP3    H135036   5.558   2.622   2.736  0.0853 -0.5720 -0.1684
 4515TIP3    H235037   5.601   2.503   2.818  0.4700 -0.8644 -0.7870
 4516TIP3   OH235038   0.837   5.658   3.337  0.7086  0.4436 -0.3262
 4516TIP3    H135039   0.831   5.581   3.281 -1.1333  0.3673 -0.0956
 4516TIP3    H235040   0.912   5.642   3.394 -0.4445 -1.8592  0.6673
 4517TIP3   OH235041   6.143   4.797   4.355 -0.2974  0.6029 -0.5957
 4517TIP3    H135042   6.154   4.804   4.261 -0.8064 -1.7773 -0.8903
 4517TIP3    H235043   6.228   4.768   4.388  0.3015  2.7411 -0.0738
 4518TIP3   OH235044   3.079   2.234  11.698  0.4571  0.3626 -0.2337
 4518TIP3    H135045   3.100   2.262  11.788  1.0085  1.2794 -0.6283
 4518TIP3    H235046   3.128   2.295  11.643 -0.8509  0.5943 -1.1761
 4519TIP3   OH235047   4.338   2.873  11.065 -0.4518  0.5086 -0.1966
 4519TIP3    H135048   4.342   2.870  11.160 -0.4621  1.4252 -0.1525
 4519TIP3    H235049   4.317   2.784  11.038  2.6287 -0.5039  0.4752
 4520TIP3   OH235050   1.981   4.001  14.660 -0.2397 -0.1372 -0.3768
 4520TIP3    H135051   1.922   4.032  14.729 -0.8625 -0.0849 -0.9220
 4520TIP3    H235052   2.034   4.078  14.639 -0.3390 -0.0333 -0.2572
 4521TIP3   OH235053   1.803   2.762  11.449  0.0890  0.4225 -0.0884
 4521TIP3    H135054   1.742   2.691  11.430 -0.1563 -0.2371  2.6990
 4521TIP3    H235055   1.811   2.762  11.545  2.8223  1.8743 -0.2164
 4522TIP3   OH235056   2.163   1.902   3.239  0.4942  0.0315  0.1888
 4522TIP3    H135057   2.103   1.851   3.185  1.5385  0.4709 -1.4819
 4522TIP3    H235058   2.141   1.993   3.220  1.1114  0.1932  0.2274
 4523TIP3   OH235059   3.167   5.213   3.332 -0.0044  0.5288 -0.2682
 4523TIP3    H135060   3.126   5.260   3.404  1.0837 -0.4061  1.0414
 4523TIP3    H235061   3.099   5.154   3.300 -0.6317  1.2586 -0.3056
 4524TIP3   OH235062   3.730   6.526   4.856 -0.5459 -0.4578 -0.7841
 4524TIP3    H135063   3.746   6.432   4.849  2.9498 -0.1768  1.2750
 4524TIP3    H235064   3.778   6.553   4.934  0.7922  3.4554 -2.7147
 4525TIP3   OH235065   0.551   3.763   6.662  0.1123  0.2488 -0.1882
 4525TIP3    H135066   0.455   3.768   6.668  0.2330  3.0032  0.9902
 4525TIP3    H235067   0.579   3.735   6.748  0.3998  1.3563  0.0966
 4526TIP3   OH235068   5.614   1.984  15.471 -0.1431 -0.1733 -0.2656
 4526TIP3    H135069   5.595   2.038  15.394  0.2900 -0.1623 -0.3668
 4526TIP3    H235070   5.605   1.894  15.439 -0.9060 -0.1667 -0.0857
 4527TIP3   OH235071   5.660   4.917   4.864 -0.4213  0.0050  0.4703
 4527TIP3    H135072   5.599   4.881   4.928  1.1291 -1.4941  1.1839
 4527TIP3    H235073   5.724   4.847   4.850 -0.1850  0.6147 -2.0531
 4528TIP3   OH235074   1.601   6.027  12.036 -0.1526 -0.0008 -0.4957
 4528TIP3    H135075   1.526   6.086  12.024  0.4060  0.3903 -2.3950
 4528TIP3    H235076   1.664   6.079  12.086 -1.0103 -0.2559  0.9239
 4529TIP3   OH235077   3.004   0.503   6.983  0.8844  0.2831  0.1146
 4529TIP3    H135078   2.909   0.506   6.990  0.9051 -1.6275  2.3380
 4529TIP3    H235079   3.035   0.569   7.045  0.9728 -0.1568  0.5527
 4530TIP3   OH235080   1.775   5.889   0.619  0.1189 -0.0163  0.6663
 4530TIP3    H135081   1.739   5.931   0.697 -0.1511 -0.6167  0.8693
 4530TIP3    H235082   1.863   5.927   0.610 -0.9523  2.3842 -0.5372
 4531TIP3   OH235083   3.918   4.555   0.113 -0.0676 -0.4360 -0.4304
 4531TIP3    H135084   3.828   4.534   0.085  0.2384 -1.2356 -0.8659
 4531TIP3    H235085   3.934   4.496   0.187 -1.0990  2.1065  2.0008
 4532TIP3   OH235086   2.812   4.513  13.757  0.2990 -0.0801  0.0545
 4532TIP3    H135087   2.787   4.428  13.791 -0.5885  0.0993 -0.1092
 4532TIP3    H235088   2.804   4.504  13.662 -1.0724  0.5299  0.0779
 4533TIP3   OH235089   4.751   6.650   1.591  0.3381 -0.6192 -1.2417
 4533TIP3    H135090   4.717   6.631   1.504 -0.7124 -3.3850 -0.3556
 4533TIP3    H235091   4.822   6.588   1.604 -0.0188 -0.7776  0.1361
 4534TIP3   OH235092   1.230   2.206  14.925  0.7346 -0.0039 -0.4186
 4534TIP3    H135093   1.270   2.220  15.011  0.9170 -1.1563 -0.2974
 4534TIP3    H235094   1.212   2.294  14.892  0.7222  0.4574  0.7662
 4535TIP3   OH235095   2.006   5.565  15.650  0.3965  0.1015 -0.5527
 4535TIP3    H135096   2.089   5.592  15.610  0.4603  1.1636  0.2488
 4535TIP3    H235097   1.969   5.646  15.685 -0.1192 -0.6237  0.6635
 4536TIP3   OH235098   3.962   2.757   1.804  0.0963  0.0198  0.0185
 4536TIP3    H135099   3.889   2.810   1.836  0.3850  0.5695 -0.2254
 4536TIP3    H235100   3.929   2.716   1.724 -0.1603 -0.2453  0.2599
 4537TIP3   OH235101   0.417   2.809  16.443  0.0630 -0.3139 -0.4476
 4537TIP3    H135102   0.345   2.829  16.503 -2.2263 -1.6303 -2.5695
 4537TIP3    H235103   0.454   2.727  16.477 -0.4115 -0.4147 -0.1593
 4538TIP3   OH235104   2.189   0.191   0.848  0.1845 -0.2180 -0.0313
 4538TIP3    H135105   2.181   0.269   0.792 -1.0995  1.0582  1.8009
 4538TIP3    H235106   2.280   0.192   0.877  0.3301  0.2701 -0.4720
 4539TIP3   OH235107   3.741   6.580  15.608 -0.1461  0.2578  0.1217
 4539TIP3    H135108   3.732   6.675  15.602  0.4506  0.3761  1.0527
 4539TIP3    H235109   3.835   6.564  15.612 -0.2488 -0.3530  0.2735
 4540TIP3   OH235110   0.751   6.079   3.726  0.5843  0.8260  0.1430
 4540TIP3    H135111   0.841   6.083   3.694  0.1749  3.4837 -0.9039
 4540TIP3    H235112   0.723   5.990   3.707  2.8236  0.0746  0.0727
 4541TIP3   OH235113   1.069   2.697  16.983  0.0230 -0.4799 -0.1285
 4541TIP3    H135114   1.080   2.678  16.890 -0.3228 -0.6772 -0.1293
 4541TIP3    H235115   1.158   2.693  17.019  0.1560 -0.4143 -0.4449
 4542TIP3   OH235116   6.352   4.604   3.579 -0.2004  0.4504 -0.1682
 4542TIP3    H135117   6.415   4.668   3.546 -1.9640  2.1316 -0.5037
 4542TIP3    H235118   6.282   4.657   3.617 -0.6089 -1.3659  1.7748
 4543TIP3   OH235119   1.999   3.626   5.770 -0.7848  0.3417  0.6024
 4543TIP3    H135120   1.986   3.708   5.818  2.5668  1.0681  0.5268
 4543TIP3    H235121   2.043   3.653   5.689  2.0117 -1.5824  1.3569
 4544TIP3   OH235122   3.643   6.251   4.509 -0.7605  0.1132 -0.1241
 4544TIP3    H135123   3.673   6.161   4.526  0.4756  0.4372 -0.4866
 4544TIP3    H235124   3.653   6.295   4.594  1.9606  0.7812 -0.6859
 4545TIP3   OH235125   6.236   2.299  15.875 -0.0839  1.0119 -0.0514
 4545TIP3    H135126   6.165   2.354  15.842 -1.5577  0.1218  1.4624
 4545TIP3    H235127   6.240   2.320  15.969 -1.4308 -2.1207  0.8317
 4546TIP3   OH235128   3.724   4.041   4.763 -0.1224  0.1586 -0.0976
 4546TIP3    H135129   3.629   4.045   4.754  0.0087  2.4435 -1.3255
 4546TIP3    H235130   3.751   3.970   4.704 -0.9557  0.7919 -1.2947
 4547TIP3   OH235131   4.480   6.183  14.499  0.2300  0.2520 -0.2804
 4547TIP3    H135132   4.510   6.181  14.590  1.8444 -0.1449 -0.7794
 4547TIP3    H235133   4.399   6.133  14.498  1.4469 -1.8679  0.5372
 4548TIP3   OH235134   4.397   5.092   0.771  0.3721  0.7158  0.0161
 4548TIP3    H135135   4.381   5.001   0.799  0.1965  0.8783  0.4518
 4548TIP3    H235136   4.327   5.142   0.813  0.6107  1.0892 -0.0318
 4549TIP3   OH235137   6.531   4.509  11.563  0.6953  0.1372  0.0007
 4549TIP3    H135138   6.523   4.566  11.640 -0.3685 -0.7054  0.5411
 4549TIP3    H235139   6.452   4.527  11.512  0.4554 -0.6884  0.0732
 4550TIP3   OH235140   4.581   5.524  15.555 -0.1803 -0.3630  0.5981
 4550TIP3    H135141   4.566   5.443  15.507  0.0009 -0.8380  1.3403
 4550TIP3    H235142   4.660   5.508  15.607 -1.9283 -0.9169  3.2772
 4551TIP3   OH235143   0.310   1.960   5.203  0.8009 -0.5977  0.1207
 4551TIP3    H135144   0.397   1.931   5.176  0.2739 -1.6349 -0.5387
 4551TIP3    H235145   0.313   1.959   5.298  1.2460 -1.4875  0.1137
 4552TIP3   OH235146   2.934   1.864  16.633 -0.2306  0.5622 -0.0536
 4552TIP3    H135147   2.905   1.877  16.724 -1.1015 -1.8317  0.0991
 4552TIP3    H235148   2.871   1.913  16.581 -1.7400 -0.6643  0.5345
 4553TIP3   OH235149   3.158   1.874   4.966 -0.4615 -0.3927  0.1385
 4553TIP3    H135150   3.121   1.878   4.878 -1.6697  1.0831  0.6817
 4553TIP3    H235151   3.089   1.908   5.023  0.6154 -0.5096  1.5664
 4554TIP3   OH235152   0.980   2.244   6.019 -0.1470  0.0865 -0.5549
 4554TIP3    H135153   0.941   2.235   5.931 -0.8343 -0.3776 -0.2139
 4554TIP3    H235154   0.911   2.285   6.072  0.3557  0.5939 -0.2864
 4555TIP3   OH235155   4.052   0.571   4.731  0.0680 -0.6210 -0.1723
 4555TIP3    H135156   4.032   0.582   4.824 -1.3345 -0.7749 -0.4323
 4555TIP3    H235157   3.988   0.508   4.700  0.0930 -0.0826 -1.3845
 4556TIP3   OH235158   2.129   6.271  17.247  0.2802  0.0521 -0.0662
 4556TIP3    H135159   2.084   6.294  17.328 -0.3076 -0.4205 -0.2550
 4556TIP3    H235160   2.222   6.270  17.270  0.0647 -0.9306  0.8085
 4557TIP3   OH235161   2.769   4.291   5.090 -0.2945 -0.0617  0.1189
 4557TIP3    H135162   2.691   4.240   5.112 -0.5263 -0.8480 -2.2012
 4557TIP3    H235163   2.799   4.253   5.007  1.6946  1.2048  0.2052
 4558TIP3   OH235164   5.313   2.808  14.907  0.2849 -0.3212  0.1750
 4558TIP3    H135165   5.242   2.749  14.930  0.4662 -0.7027 -0.2261
 4558TIP3    H235166   5.283   2.854  14.828 -0.5170  1.3028  1.3806
 4559TIP3   OH235167   1.499   0.237  12.918 -0.1950  0.3515  0.4777
 4559TIP3    H135168   1.503   0.275  13.006  0.9871  2.2363 -0.3334
 4559TIP3    H235169   1.421   0.276  12.879 -0.5539 -0.2587  0.5704
 4560TIP3   OH235170   4.092   1.257  15.447  0.0615 -0.1551 -0.2252
 4560TIP3    H135171   4.090   1.271  15.542  1.1522  0.1453 -0.2319
 4560TIP3    H235172   4.127   1.169  15.436  0.0153 -0.1587 -0.3449
 4561TIP3   OH235173   3.720   4.125  16.096  0.2458  0.1756  0.3188
 4561TIP3    H135174   3.771   4.112  16.175  0.0247 -0.1560  0.4050
 4561TIP3    H235175   3.785   4.153  16.030  0.9045 -2.1789 -0.1196
 4562TIP3   OH235176   0.554   4.188  15.459 -0.2846 -0.8887  0.2168
 4562TIP3    H135177   0.556   4.142  15.375  0.6644 -0.6107  0.0822
 4562TIP3    H235178   0.635   4.161  15.503 -0.5339 -0.6402  0.8316
 4563TIP3   OH235179   1.296   5.854  12.411  0.2412 -0.0016 -0.4694
 4563TIP3    H135180   1.316   5.927  12.470 -0.4826  0.1469 -0.3956
 4563TIP3    H235181   1.372   5.796  12.417  0.7611  0.6734 -0.4160
 4564TIP3   OH235182   3.949   5.229  17.016 -0.0976 -0.1144 -0.2504
 4564TIP3    H135183   4.015   5.298  17.013 -1.2818  1.0909  0.3274
 4564TIP3    H235184   3.905   5.240  17.100 -0.4830 -1.4358 -0.2454
 4565TIP3   OH235185   4.238   4.289   0.511  0.2942 -0.6006 -0.0730
 4565TIP3    H135186   4.245   4.379   0.542  0.2754 -0.4315 -0.5498
 4565TIP3    H235187   4.153   4.259   0.542 -0.3719  0.0529 -1.1780
 4566TIP3   OH235188   2.397   0.074  12.735 -0.0929 -0.6919  0.4912
 4566TIP3    H135189   2.343  -0.001  12.758 -0.7894 -0.1732  0.5884
 4566TIP3    H235190   2.482   0.037  12.713  0.0085 -1.3861  1.9431
 4567TIP3   OH235191   4.867   4.376   2.683 -0.0246  0.2675  0.3725
 4567TIP3    H135192   4.813   4.298   2.669 -2.2172  1.7077  0.1888
 4567TIP3    H235193   4.842   4.435   2.612  0.1502  1.8352  1.5619
 4568TIP3   OH235194   1.750   1.083  11.611 -0.3141  0.1974  0.1925
 4568TIP3    H135195   1.775   0.996  11.581  1.0108  0.2261  1.1089
 4568TIP3    H235196   1.786   1.089  11.700  0.2237  1.9052 -0.1004
 4569TIP3   OH235197   4.717   4.730   1.621 -0.1080  0.3355  0.0621
 4569TIP3    H135198   4.747   4.674   1.692  0.8304  0.1400 -0.4685
 4569TIP3    H235199   4.715   4.672   1.544  0.3418  0.8918 -0.3780
 4570TIP3   OH235200   3.796   6.670   4.637  0.3025 -0.2900  0.4907
 4570TIP3    H135201   3.744   6.616   4.697  0.2185 -1.3707 -0.5200
 4570TIP3    H235202   3.865   6.707   4.692  0.0509 -1.0052  1.3120
 4571TIP3   OH235203   6.433   5.489  11.047 -0.1368 -0.1026 -0.8163
 4571TIP3    H135204   6.425   5.584  11.052  2.0845  0.0729  0.5209
 4571TIP3    H235205   6.344   5.457  11.059 -0.6113  1.7468  1.1691
 4572TIP3   OH235206   2.707   1.041   2.002 -0.3055  0.3971  0.1059
 4572TIP3    H135207   2.632   1.044   1.943  0.0445  1.9347 -0.3077
 4572TIP3    H235208   2.766   0.978   1.962 -1.4474 -0.9874  0.5452
 4573TIP3   OH235209   0.092   4.676   2.240 -0.1190  0.7799  0.7641
 4573TIP3    H135210   0.011   4.678   2.191  0.9127  1.2400 -1.0124
 4573TIP3    H235211   0.159   4.704   2.177  1.3150  1.0955  2.3472
 4574TIP3   OH235212   6.584   3.572  14.953 -0.4410  0.3389  0.0738
 4574TIP3    H135213   6.549   3.650  14.996  1.6377  1.5000 -0.2329
 4574TIP3    H235214   6.646   3.605  14.889 -0.0589 -1.5612 -0.6059
 4575TIP3   OH235215   0.013   5.531   4.678  0.4345 -0.3470  0.4107
 4575TIP3    H135216   0.081   5.510   4.742  0.3172  0.5496  0.8364
 4575TIP3    H235217  -0.058   5.471   4.698  0.8216 -0.8041  0.4266
 4576TIP3   OH235218   3.869   2.617  16.606  0.1948  0.2424 -0.3916
 4576TIP3    H135219   3.884   2.711  16.596  0.6935 -0.0412 -2.9137
 4576TIP3    H235220   3.774   2.608  16.603  0.0220  0.7903  1.8369
 4577TIP3   OH235221   1.263   5.832  13.966  0.3190 -0.0853 -0.3011
 4577TIP3    H135222   1.319   5.884  14.025  0.6759  0.0383 -0.7420
 4577TIP3    H235223   1.180   5.826  14.012  1.0220 -1.2310  0.9005
 4578TIP3   OH235224   0.612   4.537  11.509  0.1109  0.6814  0.6888
 4578TIP3    H135225   0.691   4.484  11.493 -1.4272 -1.7867  0.7516
 4578TIP3    H235226   0.641   4.604  11.571  2.2615  0.1324  0.3757
 4579TIP3   OH235227   1.650   2.989  13.132  0.5161  0.6031  0.0407
 4579TIP3    H135228   1.569   3.039  13.147 -0.0326  0.1346 -1.1949
 4579TIP3    H235229   1.673   3.009  13.041 -0.7137 -2.6788 -1.1677
 4580TIP3   OH235230   0.282   3.025  16.027  0.8406 -0.3786 -0.4454
 4580TIP3    H135231   0.350   3.079  15.987  0.6049 -0.4021 -0.8853
 4580TIP3    H235232   0.200   3.066  16.000  0.5056 -2.8023 -3.5957
 4581TIP3   OH235233   0.746   5.527   5.982 -0.0306 -0.0516 -0.2167
 4581TIP3    H135234   0.840   5.517   5.999  0.1866 -0.5195 -1.5304
 4581TIP3    H235235   0.708   5.549   6.067  1.3452  0.7334  0.2311
 4582TIP3   OH235236   1.123   1.778   2.717  0.2198 -0.9354 -0.0906
 4582TIP3    H135237   1.204   1.751   2.761  0.7067 -1.4818 -1.2606
 4582TIP3    H235238   1.139   1.869   2.692  0.8410 -1.2749 -1.0352
 4583TIP3   OH235239   5.488   4.565   5.463 -0.1720  0.2162  0.0996
 4583TIP3    H135240   5.484   4.529   5.374 -2.1051 -0.4613  0.4197
 4583TIP3    H235241   5.470   4.658   5.453  0.0852  0.2285 -0.2553
 4584TIP3   OH235242   6.274   2.001  17.224  0.6828 -0.6807  0.1527
 4584TIP3    H135243   6.359   1.993  17.181  1.2521 -0.2691  1.1593
 4584TIP3    H235244   6.268   1.925  17.281  0.0878 -1.0394 -0.3745
 4585TIP3   OH235245   5.359   3.245  15.613  0.1501  0.6457  0.0921
 4585TIP3    H135246   5.286   3.304  15.632  0.2290  0.5160  0.8178
 4585TIP3    H235247   5.320   3.157  15.614  0.5102  0.4809  1.5976
 4586TIP3   OH235248   5.615   6.359   4.536 -0.2107 -0.4275  0.1737
 4586TIP3    H135249   5.648   6.293   4.598 -2.9052 -0.6269  1.5487
 4586TIP3    H235250   5.660   6.439   4.562  0.5215 -1.0103  0.7863
 4587TIP3   OH235251   1.701   3.583  11.292  0.1592  0.2800 -0.1805
 4587TIP3    H135252   1.692   3.659  11.234 -2.0638 -0.6799 -1.2109
 4587TIP3    H235253   1.714   3.509  11.233  1.0758 -0.3190  0.7473
 4588TIP3   OH235254   1.878   0.421   6.738 -0.3607 -0.6140  0.6729
 4588TIP3    H135255   1.939   0.351   6.714 -1.9708 -1.2547 -1.9431
 4588TIP3    H235256   1.798   0.376   6.764 -1.4096  0.1471 -1.0155
 4589TIP3   OH235257   0.431   4.816  11.143  0.4212  0.0417 -0.2724
 4589TIP3    H135258   0.359   4.765  11.107  2.2620 -3.0148  0.0619
 4589TIP3    H235259   0.504   4.755  11.150  1.4035  1.2477  5.0588
 4590TIP3   OH235260   0.944   3.067  15.370  0.0860 -0.5857 -0.8894
 4590TIP3    H135261   0.979   2.989  15.326  0.2310  0.0813 -1.9787
 4590TIP3    H235262   1.018   3.126  15.377  0.2700 -0.9544  0.9958
 4591TIP3   OH235263   3.612   1.741  15.759 -0.7692 -0.0847  0.3101
 4591TIP3    H135264   3.532   1.701  15.725  0.5740 -2.4871 -0.1810
 4591TIP3    H235265   3.659   1.670  15.801  0.5897  1.5320  1.7016
 4592TIP3   OH235266   0.172   4.508   4.272  0.5553 -0.0978 -0.3582
 4592TIP3    H135267   0.132   4.508   4.185 -0.7240 -0.9046  0.1939
 4592TIP3    H235268   0.198   4.417   4.286  0.8269  0.0430  0.0722
 4593TIP3   OH235269   4.049   2.463   0.375  0.1699  0.2490  0.2883
 4593TIP3    H135270   3.989   2.391   0.398  0.9393  0.3611  2.8823
 4593TIP3    H235271   4.072   2.503   0.458 -0.5702  3.8786 -1.0674
 4594TIP3   OH235272   1.721   5.630   3.588 -0.1917 -0.2333  0.0119
 4594TIP3    H135273   1.800   5.578   3.605  0.5813  1.3193  1.3900
 4594TIP3    H235274   1.657   5.566   3.556  1.0583 -1.8363  0.5875
 4595TIP3   OH235275   5.131   3.508   0.425  0.0251 -0.1611 -0.0605
 4595TIP3    H135276   5.041   3.528   0.451  0.4421  0.3702  1.0424
 4595TIP3    H235277   5.123   3.430   0.370 -1.0381 -0.5512  0.6100
 4596TIP3   OH235278   0.795   1.402   4.596  0.0933  0.5525 -0.7080
 4596TIP3    H135279   0.841   1.469   4.545 -0.0463 -1.0427 -3.0838
 4596TIP3    H235280   0.862   1.339   4.619 -0.0525  0.7073  0.1835
 4597TIP3   OH235281   4.492   4.817  16.408  0.3176  0.1256 -0.3280
 4597TIP3    H135282   4.483   4.897  16.459  1.9045 -0.1381  0.4137
 4597TIP3    H235283   4.482   4.844  16.317 -1.5012  0.7685  0.0129
 4598TIP3   OH235284   1.937   6.127  17.116 -0.5953 -0.0046  0.2485
 4598TIP3    H135285   1.883   6.193  17.074 -0.4514  0.9033  1.4220
 4598TIP3    H235286   1.991   6.176  17.179 -0.1343 -1.1701  0.8053
 4599TIP3   OH235287   0.213   6.262  14.998  0.2000  0.1529 -0.2652
 4599TIP3    H135288   0.275   6.258  15.071 -1.1483  1.7443  1.0386
 4599TIP3    H235289   0.267   6.252  14.920  1.6525 -1.9770  0.9096
 4600TIP3   OH235290   4.111   1.214  15.744  0.0178  0.3829  0.0189
 4600TIP3    H135291   4.206   1.209  15.753  0.1963 -0.0453 -1.6119
 4600TIP3    H235292   4.084   1.287  15.799  1.0968 -0.4063  1.6485
 4601TIP3   OH235293   3.476   1.728   3.703 -0.2413 -0.4643  0.2511
 4601TIP3    H135294   3.547   1.666   3.717 -0.6217 -0.7980  0.7438
 4601TIP3    H235295   3.516   1.801   3.656  0.1118 -1.2717 -0.7329
 4602TIP3   OH235296   5.778   3.662  13.142 -0.3364 -0.1540 -0.3959
 4602TIP3    H135297   5.852   3.605  13.165  0.4290  0.6460 -0.7963
 4602TIP3    H235298   5.806   3.749  13.170 -1.1991  0.1401 -0.4192
 4603TIP3   OH235299   1.016   2.130   5.111 -0.2938  0.0749  0.5507
 4603TIP3    H135300   0.928   2.162   5.131 -1.3833 -0.7889 -2.3499
 4603TIP3    H235301   1.018   2.041   5.144  0.0404  0.5543  1.8791
 4604TIP3   OH235302   1.152   0.882   5.078 -1.0487 -0.0096 -0.0755
 4604TIP3    H135303   1.119   0.916   4.995  3.1325  1.2364 -1.4844
 4604TIP3    H235304   1.117   0.941   5.144 -0.0756  2.4685 -1.6502
 4605TIP3   OH235305   3.144   2.234  13.607  0.0543 -0.0535 -0.0854
 4605TIP3    H135306   3.190   2.278  13.679  0.8689 -1.5475  0.3470
 4605TIP3    H235307   3.071   2.189  13.650  1.3207 -2.0738  0.0881
 4606TIP3   OH235308   5.238   4.176  12.405  0.4612 -0.1380  0.0475
 4606TIP3    H135309   5.239   4.089  12.365  1.6819 -0.2312  0.2380
 4606TIP3    H235310   5.250   4.237  12.332 -0.9647 -0.0659 -0.1622
 4607TIP3   OH235311   6.048   3.425  11.604 -0.4096 -0.3074 -0.6115
 4607TIP3    H135312   6.109   3.350  11.598 -0.6271 -0.4811 -0.6657
 4607TIP3    H235313   5.962   3.385  11.610 -0.6644 -0.0583 -2.1962
 4608TIP3   OH235314   3.129   5.031  12.490 -0.3693  0.1060  0.2506
 4608TIP3    H135315   3.036   5.039  12.510 -1.0639 -0.1114 -2.4559
 4608TIP3    H235316   3.144   5.100  12.425  0.6858 -1.5537 -1.3336
 4609TIP3   OH235317   4.476   6.708  11.806  0.0690  0.1667 -0.1506
 4609TIP3    H135318   4.492   6.774  11.738  1.8438 -0.0837 -0.0355
 4609TIP3    H235319   4.497   6.753  11.888 -0.9661  0.1266  0.1513
 4610TIP3   OH235320   4.185   6.540   5.302  0.4844 -0.4193  0.6494
 4610TIP3    H135321   4.226   6.625   5.322 -0.2141 -0.1342  0.8850
 4610TIP3    H235322   4.093   6.551   5.326  0.1274 -0.8512 -0.4758
 4611TIP3   OH235323   2.635   6.179   0.320 -0.2623  0.4841  0.0568
 4611TIP3    H135324   2.576   6.243   0.361  0.8355  1.4519  0.1783
 4611TIP3    H235325   2.584   6.098   0.318 -2.1352  1.6089 -1.1885
 4612TIP3   OH235326   4.608   4.069   0.608  0.2026  0.2340  0.3284
 4612TIP3    H135327   4.666   4.143   0.591 -0.1065  0.7709  1.4921
 4612TIP3    H235328   4.521   4.109   0.621 -0.1497 -0.4171  0.0069
 4613TIP3   OH235329   5.131   1.012  11.794  0.1174 -0.6363  0.1643
 4613TIP3    H135330   5.210   0.996  11.845 -0.2864  0.6121  1.2528
 4613TIP3    H235331   5.069   0.946  11.824 -0.3863  0.5866  1.9581
 4614TIP3   OH235332   4.632   1.607   3.770  0.3285 -0.6631 -0.4880
 4614TIP3    H135333   4.601   1.526   3.810 -1.3948  0.9072  1.6817
 4614TIP3    H235334   4.605   1.601   3.679 -4.6683 -0.5165  0.6814
 4615TIP3   OH235335   2.493   1.697  11.232 -0.1559 -0.3837 -0.0413
 4615TIP3    H135336   2.487   1.793  11.228 -1.5306 -0.4601 -0.7454
 4615TIP3    H235337   2.539   1.679  11.313  0.5965  0.8882 -0.1597
 4616TIP3   OH235338   2.369   1.730   0.086  0.3854  0.2671  0.0332
 4616TIP3    H135339   2.310   1.805   0.091 -0.1312 -0.1218 -0.0727
 4616TIP3    H235340   2.337   1.679   0.011  2.8068  1.6396 -2.0535
 4617TIP3   OH235341   6.067   2.576  12.295  0.5247  0.2722 -0.3000
 4617TIP3    H135342   6.069   2.576  12.391  0.5827 -1.5158 -0.2792
 4617TIP3    H235343   6.158   2.565  12.269  0.2641 -1.6612 -0.4995
 4618TIP3   OH235344   0.277   1.630  13.665 -0.0691  0.1424  0.7090
 4618TIP3    H135345   0.250   1.682  13.741  1.4677  2.2663 -0.0830
 4618TIP3    H235346   0.370   1.613  13.681 -0.1088 -0.7711  0.0231
 4619TIP3   OH235347   0.887   6.555   0.620  0.1487 -0.3635 -0.3714
 4619TIP3    H135348   0.864   6.647   0.633 -1.4454 -0.7276 -0.3837
 4619TIP3    H235349   0.982   6.555   0.610  0.5072  1.0073  2.0441
 4620TIP3   OH235350   3.972   0.973   6.169  0.4228 -0.5451  0.5002
 4620TIP3    H135351   3.995   0.985   6.261  2.2761 -2.6084  0.3888
 4620TIP3    H235352   3.929   0.887   6.166  0.8402 -0.7415 -0.5904
 4621TIP3   OH235353   1.982   0.279  15.688  0.0309 -0.0110 -0.3887
 4621TIP3    H135354   1.898   0.235  15.702 -0.5186  0.5541 -1.7707
 4621TIP3    H235355   1.996   0.329  15.769 -1.4389  0.6389 -0.5019
 4622TIP3   OH235356   6.250   6.376   0.269  0.1109  0.3192 -0.1292
 4622TIP3    H135357   6.302   6.313   0.219  0.2954  0.3915 -0.0285
 4622TIP3    H235358   6.169   6.329   0.290  1.5833 -1.1445  2.9219
 4623TIP3   OH235359   4.406   1.557   5.681  0.4840  0.2356  0.2837
 4623TIP3    H135360   4.316   1.560   5.713  0.0728 -0.5228 -0.7628
 4623TIP3    H235361   4.428   1.464   5.679  0.9466  0.3503 -0.3917
 4624TIP3   OH235362   1.321   1.683   5.232 -0.6277  0.0257 -0.0049
 4624TIP3    H135363   1.370   1.764   5.215  0.3460  0.1466  2.8854
 4624TIP3    H235364   1.382   1.613   5.208 -0.5328  0.1541 -0.1440
 4625TIP3   OH235365   4.942   4.075   5.016 -0.2024 -0.5682 -0.0547
 4625TIP3    H135366   4.937   4.031   4.930 -1.3470 -0.1039 -0.2437
 4625TIP3    H235367   4.857   4.059   5.056  0.4388 -1.0695  1.1621
 4626TIP3   OH235368   0.921   0.327  13.706  0.1152 -0.4184 -0.1606
 4626TIP3    H135369   1.008   0.306  13.741  0.7541  1.1448 -0.7207
 4626TIP3    H235370   0.931   0.316  13.612  0.5594  2.4011 -0.5157
 4627TIP3   OH235371   1.173   1.186  14.900  0.1826 -1.0126  0.1860
 4627TIP3    H135372   1.160   1.092  14.885 -0.6368 -1.0450  1.0181
 4627TIP3    H235373   1.236   1.212  14.832 -1.0371 -1.7665 -1.3181
 4628TIP3   OH235374   2.227   2.363   3.885  0.1268  0.0526  0.1499
 4628TIP3    H135375   2.242   2.269   3.883 -0.8770 -0.1065 -1.4276
 4628TIP3    H235376   2.308   2.401   3.850  0.3621 -0.2393  0.3696
 4629TIP3   OH235377   4.550   5.302   1.376 -0.1864 -0.2419  0.6733
 4629TIP3    H135378   4.498   5.230   1.339  1.4077 -1.7426  1.2408
 4629TIP3    H235379   4.621   5.315   1.313 -0.2896  0.6438  0.7310
 4630TIP3   OH235380   1.101   3.074   2.509  0.6448  0.4716 -0.4139
 4630TIP3    H135381   1.153   3.022   2.571 -1.3705  0.3417  1.2928
 4630TIP3    H235382   1.102   3.163   2.545 -0.4835  0.4143 -0.1887
 4631TIP3   OH235383   1.970   0.005  14.618  0.3444 -0.0040  0.2863
 4631TIP3    H135384   1.964  -0.068  14.557 -0.2856  0.7197 -0.5514
 4631TIP3    H235385   1.979   0.082  14.562  1.1704  0.5524  1.1508
 4632TIP3   OH235386   6.142   5.835   2.624  0.0226 -0.1927 -0.3058
 4632TIP3    H135387   6.211   5.893   2.592 -1.2957  0.7492 -1.5778
 4632TIP3    H235388   6.103   5.882   2.697 -1.4893  0.9415 -1.7550
 4633TIP3   OH235389   0.379   4.303   4.216  0.2267  0.1772 -0.1343
 4633TIP3    H135390   0.426   4.324   4.135 -1.4249  0.2172 -1.1064
 4633TIP3    H235391   0.433   4.341   4.285  0.6393  1.9174 -1.3659
 4634TIP3   OH235392   5.526   2.288   5.044 -0.5799 -0.1261 -0.4703
 4634TIP3    H135393   5.511   2.237   4.965  0.5733 -0.5020 -0.4620
 4634TIP3    H235394   5.526   2.224   5.115 -2.4563  0.2991 -0.0171
 4635TIP3   OH235395   4.387   5.066  12.727 -0.2114 -0.1519 -0.0656
 4635TIP3    H135396   4.422   5.088  12.641 -0.4217 -0.6553 -0.2799
 4635TIP3    H235397   4.429   4.983  12.750 -0.1510 -0.0186  0.3203
 4636TIP3   OH235398   5.828   5.978  13.758  0.2638 -0.2324  0.0223
 4636TIP3    H135399   5.754   5.918  13.765 -0.3718  0.4762 -0.4597
 4636TIP3    H235400   5.804   6.037  13.687  1.8617 -0.7784 -1.0067
 4637TIP3   OH235401   1.446   2.636   1.460  0.3846 -0.0095  0.0067
 4637TIP3    H135402   1.351   2.636   1.461  0.3810  0.3047  0.4710
 4637TIP3    H235403   1.471   2.627   1.552  0.8165 -0.9870 -0.1918
 4638TIP3   OH235404   4.182   4.792  12.816 -0.2122 -0.4707  0.0286
 4638TIP3    H135405   4.265   4.753  12.789  0.8534  1.5654  0.1656
 4638TIP3    H235406   4.124   4.781  12.741  0.9676  0.2236 -1.0189
 4639TIP3   OH235407   3.329   0.041  13.994  0.1999 -0.2354  0.1327
 4639TIP3    H135408   3.322   0.019  13.902  1.1829  0.2968 -0.0852
 4639TIP3    H235409   3.239   0.058  14.022  0.0414  1.3261 -1.1685
 4640TIP3   OH235410   2.021   5.622   5.435 -0.6627  0.0187 -0.3309
 4640TIP3    H135411   1.944   5.565   5.442  0.9902 -2.1976  1.2187
 4640TIP3    H235412   2.023   5.670   5.518  0.3889 -1.0704  0.3120
 4641TIP3   OH235413   3.874   4.434  15.448  0.1989  0.2791  0.2514
 4641TIP3    H135414   3.823   4.353  15.453 -0.1982  0.4697 -0.5433
 4641TIP3    H235415   3.965   4.405  15.454  0.1455 -0.4162 -1.7080
 4642TIP3   OH235416   3.363   5.483   2.052 -0.3188  0.2141  0.3344
 4642TIP3    H135417   3.381   5.576   2.039 -1.4348  0.3428 -0.4962
 4642TIP3    H235418   3.322   5.456   1.969 -0.1813 -0.9638  0.6443
 4643TIP3   OH235419   4.753   2.145  17.343 -0.4853  0.0509 -0.1073
 4643TIP3    H135420   4.732   2.106  17.258 -1.4238 -0.2251  0.2431
 4643TIP3    H235421   4.671   2.139  17.393 -0.2994  1.3590  0.3761
 4644TIP3   OH235422   5.396   6.524  11.439 -0.4512 -0.8121 -0.0868
 4644TIP3    H135423   5.351   6.598  11.481  3.0892  0.6650  1.4950
 4644TIP3    H235424   5.389   6.542  11.345 -0.9489  0.6996  0.2093
 4645TIP3   OH235425   6.191   5.259   0.171 -0.5420 -0.2538  0.7320
 4645TIP3    H135426   6.207   5.348   0.142 -1.5932  0.3554  1.9202
 4645TIP3    H235427   6.278   5.225   0.193  0.0671 -0.1457 -1.3413
 4646TIP3   OH235428   3.505   4.849  12.334  0.0931  0.1371 -0.3197
 4646TIP3    H135429   3.554   4.918  12.287  2.6623 -1.5762 -0.3357
 4646TIP3    H235430   3.528   4.862  12.426  0.1048 -0.3066 -0.2584
 4647TIP3   OH235431   0.874   2.981  10.617 -0.3073 -0.0263  0.0087
 4647TIP3    H135432   0.957   3.002  10.659 -0.3866  0.2870  0.0104
 4647TIP3    H235433   0.841   3.065  10.584 -0.5963 -0.1558 -0.0404
 4648TIP3   OH235434   0.371   3.619  12.248 -0.2715  0.3223  0.3050
 4648TIP3    H135435   0.288   3.665  12.233 -0.2792  0.7350  1.4975
 4648TIP3    H235436   0.436   3.689  12.257  0.6375 -0.0189 -2.6949
 4649TIP3   OH235437   4.476   0.692   5.268 -0.1510  0.3548 -0.2602
 4649TIP3    H135438   4.496   0.717   5.358 -2.4123  0.5797  0.2368
 4649TIP3    H235439   4.553   0.719   5.218  1.3766 -0.2221  1.6346
 4650TIP3   OH235440   3.138   2.994   5.731  0.5715 -0.1319 -0.3274
 4650TIP3    H135441   3.209   3.054   5.754  0.0556  0.0796  0.8203
 4650TIP3    H235442   3.058   3.045   5.745  0.1837 -0.4245 -1.4246
 4651TIP3   OH235443   1.703   5.882   3.501 -0.5542 -0.3576 -0.0572
 4651TIP3    H135444   1.692   5.888   3.407 -2.2312 -0.0724  0.1197
 4651TIP3    H235445   1.712   5.788   3.519  1.3990 -0.3177 -0.6113
 4652TIP3   OH235446   4.663   1.014  13.552  0.4253  0.2964  0.2440
 4652TIP3    H135447   4.616   0.982  13.629 -1.9676  2.1777 -0.3115
 4652TIP3    H235448   4.594   1.041  13.492  2.2349  1.9402 -1.2112
 4653TIP3   OH235449   3.579   6.230  13.841 -0.4142 -0.2766 -0.6765
 4653TIP3    H135450   3.510   6.294  13.821  1.2010  1.1829 -1.8684
 4653TIP3    H235451   3.537   6.168  13.901 -1.5468  2.9655  2.2020
 4654TIP3   OH235452   6.201   6.476  15.066  0.5448 -0.0999  0.1315
 4654TIP3    H135453   6.202   6.403  15.004  0.9075 -0.4070  0.4871
 4654TIP3    H235454   6.134   6.453  15.130 -0.6936  0.7976 -0.8102
 4655TIP3   OH235455   0.729   1.792   5.370  0.1036 -0.7007 -0.3628
 4655TIP3    H135456   0.650   1.844   5.355  0.7565  0.6958  0.8402
 4655TIP3    H235457   0.711   1.743   5.450 -0.3844 -2.1484 -1.3174
 4656TIP3   OH235458   1.184   2.693   0.287 -0.0402 -0.4691  0.4060
 4656TIP3    H135459   1.123   2.681   0.360  0.5873 -0.9943  0.8621
 4656TIP3    H235460   1.128   2.702   0.210 -0.6908 -0.8722  0.8197
 4657TIP3   OH235461   0.826   5.564  15.569  0.8174 -0.3088 -0.6322
 4657TIP3    H135462   0.786   5.544  15.653 -0.4376  2.0727 -0.5680
 4657TIP3    H235463   0.921   5.559  15.585  0.5921 -0.4163  0.7563
 4658TIP3   OH235464   1.832   3.496  13.155 -0.1505  0.2867  0.5406
 4658TIP3    H135465   1.771   3.488  13.081  0.9597  0.1055 -0.3817
 4658TIP3    H235466   1.916   3.519  13.115  0.4249  0.4024  1.7708
 4659TIP3   OH235467   4.700   1.113   5.373 -0.4887 -0.0114  0.0130
 4659TIP3    H135468   4.643   1.128   5.297 -0.9738  0.6338  0.4956
 4659TIP3    H235469   4.784   1.089   5.335 -0.3100  1.7157 -0.7768
 4660TIP3   OH235470   2.230   1.567   4.481 -0.1765  0.1320 -0.1830
 4660TIP3    H135471   2.254   1.566   4.388  0.9493  1.9308  0.0470
 4660TIP3    H235472   2.314   1.567   4.527 -0.7210 -0.4073  0.8582
 4661TIP3   OH235473   0.878   0.429  16.959 -0.1290  0.5763 -0.0168
 4661TIP3    H135474   0.892   0.458  16.869  0.7327 -0.4711 -0.2360
 4661TIP3    H235475   0.928   0.348  16.966 -0.5710  0.3990  1.2708
 4662TIP3   OH235476   1.798   1.788   1.295  0.2045 -0.0783  0.3909
 4662TIP3    H135477   1.807   1.696   1.268  0.7144 -0.3656  1.4603
 4662TIP3    H235478   1.746   1.783   1.376  1.0588  0.4853  0.9833
 4663TIP3   OH235479   1.181   0.923  14.416 -0.0253  0.4687 -0.5470
 4663TIP3    H135480   1.117   0.933  14.345 -0.1748 -1.9062 -0.8208
 4663TIP3    H235481   1.188   0.828  14.428  2.0564  0.7475  0.7684
 4664TIP3   OH235482   2.177   4.525   2.045  0.0084 -0.3662  0.2880
 4664TIP3    H135483   2.217   4.600   2.000 -0.0665  1.2028  2.6511
 4664TIP3    H235484   2.251   4.477   2.083 -0.0920  0.3659  1.4520
 4665TIP3   OH235485   1.161   5.994   5.742 -0.2982  0.2807 -0.2181
 4665TIP3    H135486   1.124   6.019   5.827 -0.1162  0.2077 -0.1156
 4665TIP3    H235487   1.236   6.053   5.731 -0.7560  0.7877 -0.6689
 4666TIP3   OH235488   6.295   0.131  14.810  0.1743 -0.0021 -0.1410
 4666TIP3    H135489   6.370   0.103  14.758 -0.6390 -0.4465 -1.1073
 4666TIP3    H235490   6.245   0.051  14.826  0.7626 -0.0137  1.9719
 4667TIP3   OH235491   6.593   4.578  15.695 -0.3381  0.0079 -0.5411
 4667TIP3    H135492   6.682   4.582  15.660  0.3205  0.1045  1.0212
 4667TIP3    H235493   6.590   4.494  15.741 -1.1871 -0.1607 -0.9031
 4668TIP3   OH235494   1.899   3.949   5.670  0.1282 -0.3140 -0.1874
 4668TIP3    H135495   1.918   4.038   5.641  0.0631  1.2932  3.9471
 4668TIP3    H235496   1.983   3.915   5.702 -0.2336 -0.8700  0.2009
 4669TIP3   OH235497   0.315   1.539   4.721  0.5298  0.6461 -0.3072
 4669TIP3    H135498   0.403   1.531   4.758  0.8527  1.6615 -0.8376
 4669TIP3    H235499   0.278   1.616   4.763 -0.2323  0.0364  0.1501
 4670TIP3   OH235500   6.349   5.642   2.723 -0.2668 -0.2225 -0.2557
 4670TIP3    H135501   6.333   5.554   2.755 -0.3839 -0.7758 -1.7679
 4670TIP3    H235502   6.276   5.660   2.664 -0.0192  0.7306 -0.2965
 4671TIP3   OH235503   6.201   0.873   1.405  0.1062  0.1895 -0.3427
 4671TIP3    H135504   6.293   0.850   1.391 -0.0838 -0.7789 -0.0553
 4671TIP3    H235505   6.189   0.867   1.499 -0.7737 -1.8295 -0.5343
 4672TIP3   OH235506   3.297   0.104  13.659 -0.1943 -0.1754  0.9544
 4672TIP3    H135507   3.227   0.049  13.695 -1.1771  1.7666  2.2177
 4672TIP3    H235508   3.256   0.190  13.647  1.2895  0.3517 -0.8683
 4673TIP3   OH235509   4.043   4.722  17.384  0.8328  0.3215 -0.0329
 4673TIP3    H135510   4.126   4.736  17.431  0.7048  1.5643 -0.1383
 4673TIP3    H235511   3.976   4.726  17.452  0.7898  0.2726 -0.0712
 4674TIP3   OH235512   2.823   3.179   5.520  0.0621  0.4967  0.4617
 4674TIP3    H135513   2.812   3.087   5.545  1.2152  0.3048  0.3520
 4674TIP3    H235514   2.760   3.227   5.574 -1.8529 -0.5016 -0.7863
 4675TIP3   OH235515   5.399   5.802  12.794  0.1214 -0.1819 -0.6513
 4675TIP3    H135516   5.362   5.816  12.882  0.6447 -0.3286 -0.4006
 4675TIP3    H235517   5.480   5.853  12.795  0.3039 -0.4684 -0.9336
 4676TIP3   OH235518   1.043   3.479  17.082 -0.2243  0.4346 -0.7194
 4676TIP3    H135519   1.038   3.496  17.176 -0.8320  1.2905 -0.8944
 4676TIP3    H235520   0.952   3.478  17.053 -0.0018  3.1705 -1.7930
 4677TIP3   OH235521   5.092   1.962   1.725 -0.5241  0.0544  0.3772
 4677TIP3    H135522   5.044   2.029   1.677 -0.3643 -0.8177 -1.0691
 4677TIP3    H235523   5.039   1.945   1.803 -1.7279  0.2478 -0.3750
 4678TIP3   OH235524   4.619   1.822   4.467 -0.0094 -0.4222  1.0526
 4678TIP3    H135525   4.668   1.901   4.489  0.7981 -0.5576 -0.1952
 4678TIP3    H235526   4.529   1.842   4.494 -0.2443  1.7216 -1.0503
 4679TIP3   OH235527   6.184   0.411   0.911 -0.0193 -0.1461  0.1497
 4679TIP3    H135528   6.148   0.344   0.970 -0.0190 -2.0867 -1.9361
 4679TIP3    H235529   6.108   0.463   0.885 -0.4722 -0.9684 -0.2041
 4680TIP3   OH235530   0.134   4.238   3.961 -0.2497 -0.2143 -0.3187
 4680TIP3    H135531   0.051   4.274   3.992  0.2751  0.5305  0.2805
 4680TIP3    H235532   0.195   4.311   3.969  0.8281 -1.1875  0.7777
 4681TIP3   OH235533   2.494   5.156  12.311  0.0578  0.1585 -0.5115
 4681TIP3    H135534   2.415   5.185  12.265  0.0565  1.5591  0.3402
 4681TIP3    H235535   2.464   5.085  12.368 -0.6035  0.6906 -0.1833
 4682TIP3   OH235536   1.359   5.056   1.094 -0.3439  0.3106  0.1738
 4682TIP3    H135537   1.311   5.127   1.136 -1.4013  0.9768 -2.0029
 4682TIP3    H235538   1.363   5.081   1.002  4.7883  0.6428  0.1861
 4683TIP3   OH235539   6.292   5.652  17.055 -0.3076  0.4303  0.5586
 4683TIP3    H135540   6.350   5.632  17.128 -2.2737 -1.2760  1.7679
 4683TIP3    H235541   6.302   5.578  16.995 -0.5285  0.6091  0.2978
 4684TIP3   OH235542   6.236   5.422   2.931 -0.4937  0.3221 -0.0941
 4684TIP3    H135543   6.205   5.503   2.970  1.0485  0.7646  0.2895
 4684TIP3    H235544   6.188   5.353   2.977  1.4184  0.8093  2.8597
 4685TIP3   OH235545   4.931   1.455   3.683 -0.0297  0.1026 -0.3854
 4685TIP3    H135546   4.848   1.436   3.639 -0.7869  1.8847  0.1917
 4685TIP3    H235547   4.920   1.421   3.772  0.0952 -0.1940 -0.4818
 4686TIP3   OH235548   3.335   5.693  13.713 -0.0818 -0.3252  0.1767
 4686TIP3    H135549   3.339   5.621  13.776  0.3913 -1.1268 -0.7385
 4686TIP3    H235550   3.366   5.654  13.631 -1.4260  0.4838 -0.7437
 4687TIP3   OH235551   5.103   0.923   2.978  0.2940  0.3997 -0.1294
 4687TIP3    H135552   5.012   0.928   3.007  0.8581  1.2688  1.5912
 4687TIP3    H235553   5.122   1.010   2.942  0.3484  0.1084 -0.8222
 4688TIP3   OH235554   2.076   3.349   5.624  0.1231 -0.2859  0.6705
 4688TIP3    H135555   2.131   3.319   5.696 -0.2590  0.4184  1.2637
 4688TIP3    H235556   2.137   3.369   5.553  0.4225 -2.2521  0.2903
 4689TIP3   OH235557   5.802   6.181   2.582 -0.3763 -0.7660 -0.0332
 4689TIP3    H135558   5.776   6.196   2.673  1.3899 -0.5791  0.4803
 4689TIP3    H235559   5.881   6.128   2.588  0.1977 -0.1126 -1.4253
 4690TIP3   OH235560   5.524   0.284   1.755 -0.1697 -0.5049 -0.0031
 4690TIP3    H135561   5.460   0.235   1.807 -0.1184 -0.3745  0.1819
 4690TIP3    H235562   5.550   0.223   1.686 -0.2541 -0.6696  0.1104
 4691TIP3   OH235563   4.311   5.994  14.709 -0.0307 -0.5402 -0.4806
 4691TIP3    H135564   4.262   5.993  14.790  0.0015  2.1306 -0.3320
 4691TIP3    H235565   4.263   5.936  14.650 -1.4181 -0.6352  0.7044
 4692TIP3   OH235566   3.457   2.188   2.923 -0.1511  0.0539  0.1507
 4692TIP3    H135567   3.394   2.122   2.952  2.9135 -2.3729  1.9860
 4692TIP3    H235568   3.418   2.226   2.845 -3.1876 -2.2646  0.3365
 4693TIP3   OH235569   1.496   1.916  12.906 -0.5217  0.7317  0.2317
 4693TIP3    H135570   1.560   1.845  12.899 -0.2495  1.0346 -0.3978
 4693TIP3    H235571   1.507   1.949  12.995  0.9192  1.4441 -0.1778
 4694TIP3   OH235572   3.489   4.479  12.077  0.4574  0.0155 -0.4669
 4694TIP3    H135573   3.480   4.515  11.989  1.1809 -0.1865 -0.6282
 4694TIP3    H235574   3.508   4.386  12.063 -0.3892 -0.2233 -0.0758
 4695TIP3   OH235575   4.979   4.949  16.424  0.3307  0.0212  0.1510
 4695TIP3    H135576   4.894   4.905  16.425  0.6016 -0.4871  0.8083
 4695TIP3    H235577   5.041   4.882  16.450  0.9523  0.3727 -0.4021
 4696TIP3   OH235578   3.858   6.269   1.672  0.0351 -0.0588  0.7012
 4696TIP3    H135579   3.805   6.191   1.688  0.6362 -0.6631 -0.1610
 4696TIP3    H235580   3.946   6.244   1.699 -0.0209  0.8208  1.7893
 4697TIP3   OH235581   1.408   5.747  13.756  0.2379  0.0317 -0.0626
 4697TIP3    H135582   1.410   5.651  13.748 -2.1524  0.0067 -1.1726
 4697TIP3    H235583   1.334   5.764  13.814  1.1468  1.2299  0.7874
 4698TIP3   OH235584   2.939   1.929   3.938 -0.7954 -0.3361  0.4991
 4698TIP3    H135585   2.916   1.874   3.863 -1.0868 -0.7632  0.8933
 4698TIP3    H235586   3.021   1.971   3.913 -0.6707 -0.8001  0.1135
 4699TIP3   OH235587   4.331   2.879  13.315  0.2136 -0.3605  0.2796
 4699TIP3    H135588   4.383   2.852  13.240  1.3161  1.0575  0.4836
 4699TIP3    H235589   4.255   2.922  13.277 -1.0942 -2.7708 -0.0286
 4700TIP3   OH235590   6.369   4.274   2.291  0.1876 -0.6328 -0.3500
 4700TIP3    H135591   6.440   4.313   2.341 -1.0773  1.5982 -0.1659
 4700TIP3    H235592   6.385   4.301   2.201 -0.4534 -0.0447 -0.2944
 4701TIP3   OH235593   1.108   1.681   5.440  0.4797  0.0668  0.1668
 4701TIP3    H135594   1.136   1.766   5.474  0.8725 -0.3007  0.7750
 4701TIP3    H235595   1.147   1.676   5.352  0.0343  0.7238 -0.0746
 4702TIP3   OH235596   2.217   1.824  14.665  0.2195  1.4762  0.1994
 4702TIP3    H135597   2.130   1.852  14.693 -0.3271 -0.1365  0.1743
 4702TIP3    H235598   2.221   1.849  14.572 -0.9293  0.0192 -0.2856
 4703TIP3   OH235599   0.210   2.937  17.194 -0.4919 -0.0132  0.3340
 4703TIP3    H135600   0.122   2.972  17.209 -1.7899 -3.2893  1.4347
 4703TIP3    H235601   0.208   2.910  17.102 -0.0201  1.3718 -0.0971
 4704TIP3   OH235602   2.627   0.075   2.116 -0.2328  0.2663  0.1973
 4704TIP3    H135603   2.580   0.113   2.190  0.1655  0.5271  0.3198
 4704TIP3    H235604   2.602  -0.018   2.117 -1.6944  0.6155 -0.4693
 4705TIP3   OH235605   5.490   4.236   5.062 -0.1396  0.3835 -0.3322
 4705TIP3    H135606   5.528   4.204   4.980  0.0443  0.3816 -0.2466
 4705TIP3    H235607   5.395   4.236   5.046 -0.1120  0.2733 -0.5048
 4706TIP3   OH235608   5.860   3.874  12.881  0.1767  0.1076  0.1553
 4706TIP3    H135609   5.794   3.878  12.812 -0.6673 -0.9384  0.8802
 4706TIP3    H235610   5.890   3.784  12.881  0.9027  0.3396  0.5018
 4707TIP3   OH235611   4.725   4.459  13.969  0.0461  0.0363  0.0726
 4707TIP3    H135612   4.781   4.411  13.908 -1.4465 -1.3327 -0.2794
 4707TIP3    H235613   4.785   4.492  14.035  1.2249 -1.9821  0.0891
 4708TIP3   OH235614   2.179   0.817   4.944 -0.1706  0.1638 -0.1825
 4708TIP3    H135615   2.246   0.776   4.890  0.6620  0.4114  0.6345
 4708TIP3    H235616   2.228   0.872   5.005 -1.0725 -0.1499  0.8551
 4709TIP3   OH235617   5.330   1.187   3.757  0.4430 -0.0744  0.2406
 4709TIP3    H135618   5.314   1.106   3.709  1.5492 -0.2331  0.1019
 4709TIP3    H235619   5.318   1.256   3.692  0.1974 -0.1761  0.1776
 4710TIP3   OH235620   3.690   0.496   4.870 -0.0294  0.1175  0.3565
 4710TIP3    H135621   3.644   0.423   4.829  0.3262  0.3192 -0.4299
 4710TIP3    H235622   3.671   0.487   4.963 -1.3593 -0.0046  0.0934
 4711TIP3   OH235623   0.382   1.369  17.328  0.0232 -0.3799 -0.0516
 4711TIP3    H135624   0.416   1.372  17.238  0.5878 -0.1373  0.1644
 4711TIP3    H235625   0.363   1.276  17.343  0.4475 -0.5013 -0.2399
 4712TIP3   OH235626   6.310   4.442   5.071  0.1347  0.3276  0.2244
 4712TIP3    H135627   6.378   4.377   5.089  0.5380  0.8775  0.7065
 4712TIP3    H235628   6.256   4.443   5.150  0.3200  0.8118  0.3463
 4713TIP3   OH235629   0.396   5.148   3.877  0.2366 -0.3607  0.3118
 4713TIP3    H135630   0.430   5.225   3.831  0.4685 -1.3443 -1.2401
 4713TIP3    H235631   0.332   5.110   3.817  0.4699 -1.6425  0.8277
 4714TIP3   OH235632   0.774   0.479   0.235  0.3518  0.5281 -0.2702
 4714TIP3    H135633   0.757   0.534   0.159 -2.0169 -0.8565 -0.8667
 4714TIP3    H235634   0.722   0.518   0.305  1.8679  1.3192  0.4463
 4715TIP3   OH235635   0.475   5.471   1.180  0.4137  0.2382 -0.0906
 4715TIP3    H135636   0.493   5.378   1.163  0.3613  0.0555  0.7947
 4715TIP3    H235637   0.481   5.513   1.094  0.7185 -0.5377 -0.4578
 4716TIP3   OH235638   0.613   1.715  16.534 -0.3116 -0.1554  0.1005
 4716TIP3    H135639   0.529   1.701  16.578 -1.2385 -0.7675 -1.7734
 4716TIP3    H235640   0.592   1.718  16.441  1.8102 -0.8183 -0.4705
 4717TIP3   OH235641   5.791   2.754  13.701  0.4730 -0.1158  0.3493
 4717TIP3    H135642   5.781   2.726  13.792 -2.2328 -0.5989 -0.0276
 4717TIP3    H235643   5.808   2.848  13.707  0.1832 -0.1200  1.3412
 4718TIP3   OH235644   3.435   2.353   4.611 -0.0048 -0.0031  0.4478
 4718TIP3    H135645   3.506   2.291   4.594 -1.2042 -1.1707 -0.4299
 4718TIP3    H235646   3.424   2.400   4.529  0.1118  0.5889  0.7596
 4719TIP3   OH235647   1.469   4.770   2.058 -0.0160 -0.3790 -0.4578
 4719TIP3    H135648   1.416   4.850   2.055  0.9115  0.2606 -0.3078
 4719TIP3    H235649   1.469   4.738   1.968 -0.3470 -0.1788 -0.5303
 4720TIP3   OH235650   5.958   2.841   4.432  0.0149 -0.0017  0.3182
 4720TIP3    H135651   5.996   2.754   4.422 -2.2934 -1.2130  1.2543
 4720TIP3    H235652   6.021   2.889   4.486  2.1700 -0.4413 -1.6491
 4721TIP3   OH235653   6.439   1.975  15.317  0.1762  0.5568  0.2365
 4721TIP3    H135654   6.470   2.038  15.382  0.3852  0.4881  0.2075
 4721TIP3    H235655   6.443   1.891  15.362  1.5205  0.3363 -0.2447
 4722TIP3   OH235656   4.344   3.755   2.060  0.4020  0.3972  0.1424
 4722TIP3    H135657   4.412   3.748   1.993  0.0373  1.1268 -0.3113
 4722TIP3    H235658   4.262   3.741   2.012  0.1194  1.2251  0.3788
 4723TIP3   OH235659   3.200   3.108   0.138  1.1952  0.1198 -0.3218
 4723TIP3    H135660   3.262   3.155   0.193  2.1016  0.3571 -1.4886
 4723TIP3    H235661   3.251   3.083   0.061  0.1291 -0.7284 -0.7836
 4724TIP3   OH235662   5.454   6.046   6.191  0.3217  0.3675  0.2650
 4724TIP3    H135663   5.493   6.049   6.104 -0.2423  0.4062  0.0100
 4724TIP3    H235664   5.509   5.984   6.240 -1.2820 -2.3624 -1.1113
 4725TIP3   OH235665   2.721   3.039   6.184  0.0889  0.0525 -0.4764
 4725TIP3    H135666   2.755   3.118   6.142 -1.9533  1.2952  0.1052
 4725TIP3    H235667   2.638   3.066   6.223 -0.7398 -2.4262 -0.3673
 4726TIP3   OH235668   1.043   5.939  12.473 -0.5363  0.5290  0.2890
 4726TIP3    H135669   1.097   5.960  12.550  1.0254  1.2536 -0.9555
 4726TIP3    H235670   1.100   5.886  12.418 -2.4888 -2.2585  0.7189
 4727TIP3   OH235671   2.725   5.484  15.857 -0.2093 -0.3501  0.4133
 4727TIP3    H135672   2.768   5.428  15.921  0.0101  2.0503  2.5315
 4727TIP3    H235673   2.648   5.434  15.828  0.4830 -2.0756  1.4426
 4728TIP3   OH235674   0.245   2.533   6.742 -0.0595 -0.5278  0.4289
 4728TIP3    H135675   0.153   2.519   6.762 -0.1874 -0.6356 -0.2127
 4728TIP3    H235676   0.261   2.480   6.664 -0.2322  1.8107 -1.2990
 4729TIP3   OH235677   0.087   3.288   4.113  0.0289 -0.0936 -0.2590
 4729TIP3    H135678   0.015   3.350   4.123  0.5198  0.2298  1.8899
 4729TIP3    H235679   0.047   3.208   4.080 -1.3487  0.0618  0.9489
 4730TIP3   OH235680   3.312   6.129   4.004  0.2091  0.6128 -0.0442
 4730TIP3    H135681   3.331   6.093   4.092 -0.2933  0.2772 -0.0675
 4730TIP3    H235682   3.218   6.148   4.006 -0.1488 -0.8988 -1.0282
 4731TIP3   OH235683   1.119   3.845   3.602  0.1296  0.5254 -0.4619
 4731TIP3    H135684   1.189   3.899   3.639  1.1182 -0.1862 -1.2386
 4731TIP3    H235685   1.098   3.782   3.670  1.8624 -0.7096 -0.9934
 4732TIP3   OH235686   5.335   1.652  17.372 -0.5022  0.5765 -0.1233
 4732TIP3    H135687   5.312   1.570  17.415 -0.4531  0.0971 -0.9744
 4732TIP3    H235688   5.266   1.713  17.398 -1.1841 -0.0592 -0.3963
 4733TIP3   OH235689   4.755   3.486  14.189 -0.5624  0.3396 -0.7336
 4733TIP3    H135690   4.755   3.408  14.134 -0.6678  0.3961 -0.8143
 4733TIP3    H235691   4.832   3.535  14.161 -2.1864  1.8377 -2.9404
 4734TIP3   OH235692   5.849   0.318  15.462  0.2587 -0.1970  0.4851
 4734TIP3    H135693   5.904   0.395  15.473 -0.0062 -0.0957  1.1608
 4734TIP3    H235694   5.800   0.311  15.545  0.4743 -1.2406  0.5431
 4735TIP3   OH235695   3.973   6.574  16.211  0.3106 -0.3079  0.1664
 4735TIP3    H135696   3.908   6.597  16.145  0.9340  1.1296  0.0218
 4735TIP3    H235697   3.943   6.618  16.290  1.7168  1.4189 -0.2056
 4736TIP3   OH235698   1.792   0.872  11.466  0.3685  0.1328  0.1448
 4736TIP3    H135699   1.825   0.815  11.396 -0.7120  0.2111 -0.4395
 4736TIP3    H235700   1.770   0.811  11.537 -0.5399 -0.1811 -0.3832
 4737TIP3   OH235701   5.883   1.178  12.215  0.0838 -0.0980  0.4921
 4737TIP3    H135702   5.827   1.140  12.148  0.2460 -0.4932  0.5806
 4737TIP3    H235703   5.876   1.273  12.201  0.3715 -0.1855 -0.2922
 4738TIP3   OH235704   2.594   3.019   2.005 -0.1947 -0.2930 -0.1593
 4738TIP3    H135705   2.599   3.115   2.010 -0.1797 -0.3184  0.4697
 4738TIP3    H235706   2.571   3.001   1.914 -0.0839  0.3038 -0.3138
 4739TIP3   OH235707   1.195   6.497  13.238  0.0231  0.2261  0.4274
 4739TIP3    H135708   1.273   6.451  13.267 -0.4489  0.5166  2.2836
 4739TIP3    H235709   1.151   6.523  13.319  0.7596  4.8327 -0.3517
 4740TIP3   OH235710   0.694   3.169  12.605 -0.0741  0.1930  0.1002
 4740TIP3    H135711   0.657   3.099  12.551 -1.9673  1.4335 -0.3094
 4740TIP3    H235712   0.671   3.249  12.558  0.5722  1.1814  1.4250
 4741TIP3   OH235713   2.884   3.280  13.905  0.0889 -0.5093  0.1565
 4741TIP3    H135714   2.794   3.254  13.883  0.2231 -0.2697 -0.7153
 4741TIP3    H235715   2.939   3.218  13.858  0.3968  0.8001 -1.2850
 4742TIP3   OH235716   3.791   1.227  15.982 -0.2550  0.3058 -0.3949
 4742TIP3    H135717   3.811   1.139  15.951  0.6126  0.0732  0.7404
 4742TIP3    H235718   3.724   1.260  15.921  0.6422 -0.4738 -1.8579
 4743TIP3   OH235719   0.973   3.167  13.100  0.1816 -0.2789 -0.0326
 4743TIP3    H135720   0.918   3.243  13.119 -1.4110 -1.3388 -0.1275
 4743TIP3    H235721   0.965   3.155  13.005 -0.4644 -1.1497  0.1081
 4744TIP3   OH235722   1.627   1.503  14.194  0.1150 -0.3061 -0.5471
 4744TIP3    H135723   1.654   1.421  14.234 -0.9559 -0.3742  0.0739
 4744TIP3    H235724   1.592   1.478  14.108  1.2637 -0.2995 -1.0349
 4745TIP3   OH235725   3.220   6.233   5.913 -0.4421  0.4514  0.0708
 4745TIP3    H135726   3.255   6.269   5.994 -1.5706  0.8873  0.3819
 4745TIP3    H235727   3.139   6.282   5.897 -0.2985  0.3000 -1.2667
 4746TIP3   OH235728   4.773   2.755   1.934  0.4791 -0.1805  0.4342
 4746TIP3    H135729   4.723   2.705   1.998  0.3267  0.0163  0.4702
 4746TIP3    H235730   4.786   2.694   1.861  0.6435 -0.4008  0.6478
 4747TIP3   OH235731   3.641   2.521  12.840  0.3699  0.3050 -0.2292
 4747TIP3    H135732   3.675   2.431  12.836 -0.7983 -0.2865  1.8076
 4747TIP3    H235733   3.690   2.567  12.772  2.3890 -1.4138 -0.0624
 4748TIP3   OH235734   3.802   6.165  13.104  0.5610  0.3624 -0.2989
 4748TIP3    H135735   3.733   6.120  13.054  0.3429  0.0194  0.2991
 4748TIP3    H235736   3.770   6.164  13.194  0.7177  1.4210 -0.2230
 4749TIP3   OH235737   3.227   3.900   1.029 -0.1637 -0.3239 -0.5130
 4749TIP3    H135738   3.156   3.880   0.968 -0.7039 -0.4156  0.1391
 4749TIP3    H235739   3.208   3.847   1.107  0.4333 -0.0942 -0.2016
 4750TIP3   OH235740   2.964   6.054  15.540 -0.3741  0.6937  0.2015
 4750TIP3    H135741   3.055   6.038  15.517 -0.0570  2.0232  0.4620
 4750TIP3    H235742   2.949   6.002  15.619 -0.4079 -1.0192 -0.9015
 4751TIP3   OH235743   0.261   1.179  15.005 -0.0831 -0.5494  0.5549
 4751TIP3    H135744   0.188   1.206  14.950  0.6918 -0.4690 -0.4759
 4751TIP3    H235745   0.247   1.225  15.087  0.3853  1.9061 -0.6362
 4752TIP3   OH235746   0.795   1.845  11.631 -0.3929  0.5559 -0.5458
 4752TIP3    H135747   0.852   1.917  11.657  0.8888  0.7343 -3.4406
 4752TIP3    H235748   0.837   1.767  11.669 -0.4814  1.0630  0.6407
 4753TIP3   OH235749   2.701   0.653  10.541  0.2053  0.2486  0.7353
 4753TIP3    H135750   2.674   0.707  10.615 -0.7115  0.7410  0.0526
 4753TIP3    H235751   2.626   0.652  10.482  0.5504 -0.9916  0.2810
 4754TIP3   OH235752   2.101   1.245  14.409 -0.0950  0.0398 -0.7767
 4754TIP3    H135753   2.056   1.277  14.486  2.2964  0.3868  0.5900
 4754TIP3    H235754   2.166   1.313  14.389 -0.7878  0.0828 -3.2965
 4755TIP3   OH235755   2.668   5.316   4.208 -0.3140 -0.4866 -0.3327
 4755TIP3    H135756   2.601   5.318   4.276  0.2030  1.6303  0.1784
 4755TIP3    H235757   2.750   5.298   4.254 -0.0060  0.6506 -0.4106
 4756TIP3   OH235758   5.780   0.096   6.540  0.0610  0.5024 -0.0912
 4756TIP3    H135759   5.868   0.074   6.570 -0.0146  0.0923 -0.1616
 4756TIP3    H235760   5.746   0.156   6.606 -0.8607 -1.9203  1.8023
 4757TIP3   OH235761   0.227   2.199   6.040 -0.3358 -0.1061 -0.2376
 4757TIP3    H135762   0.287   2.228   5.971 -2.2630  1.0628 -1.5319
 4757TIP3    H235763   0.140   2.201   5.998 -1.4583 -0.3454  1.9350
 4758TIP3   OH235764   2.351   0.569  13.881 -0.8518 -0.0138  0.4425
 4758TIP3    H135765   2.360   0.486  13.928 -0.3495  0.2796  0.8724
 4758TIP3    H235766   2.281   0.553  13.818 -1.7760 -0.3205  1.5006
 4759TIP3   OH235767   2.607   2.537   4.078 -0.2341 -0.4755 -0.0908
 4759TIP3    H135768   2.665   2.533   4.155  0.5780  2.0047 -0.4820
 4759TIP3    H235769   2.665   2.520   4.004 -0.3670  0.1638 -0.3491
 4760TIP3   OH235770   2.480   4.170  12.302 -0.5151  0.6066  0.6963
 4760TIP3    H135771   2.393   4.182  12.339 -0.7766 -2.0291  1.1625
 4760TIP3    H235772   2.464   4.153  12.209 -0.4769  0.5121  0.7062
 4761TIP3   OH235773   4.324   2.122   3.266 -0.3741 -0.2266 -0.0407
 4761TIP3    H135774   4.323   2.218   3.262  0.8720 -0.2175 -0.9928
 4761TIP3    H235775   4.369   2.096   3.186 -0.7603 -1.6164  0.1785
 4762TIP3   OH235776   0.965   6.577  16.256  0.4173 -0.0507 -0.3008
 4762TIP3    H135777   0.974   6.671  16.271 -1.6575  0.2413 -0.5368
 4762TIP3    H235778   0.992   6.564  16.165  0.2922  0.4035 -0.4037
 4763TIP3   OH235779   4.323   2.799   4.147 -0.5627  0.1428  0.4428
 4763TIP3    H135780   4.335   2.756   4.232 -3.0727  0.6283  1.1126
 4763TIP3    H235781   4.400   2.855   4.137  0.4504 -0.9679  1.7317
 4764TIP3   OH235782   5.613   3.103  12.688  0.0763  0.0740 -0.0302
 4764TIP3    H135783   5.688   3.047  12.709  0.1327 -0.4899 -1.6542
 4764TIP3    H235784   5.652   3.185  12.656 -0.0200  0.6256  1.1852
 4765TIP3   OH235785   2.239   5.918   3.172  0.3567 -0.4096 -0.0866
 4765TIP3    H135786   2.275   5.859   3.106 -0.4161 -0.6439 -0.3048
 4765TIP3    H235787   2.215   5.997   3.123  1.5281  0.1724  0.2263
 4766TIP3   OH235788   5.826   5.081   3.532 -0.2393  1.1308  0.0609
 4766TIP3    H135789   5.849   5.167   3.496 -0.9016  1.3819  0.2296
 4766TIP3    H235790   5.764   5.100   3.602 -2.2356  0.3841 -1.4253
 4767TIP3   OH235791   3.998   1.924   5.415  0.1219  0.6920  0.5859
 4767TIP3    H135792   4.008   1.832   5.389  1.1314  0.2802  2.2355
 4767TIP3    H235793   3.978   1.970   5.334  1.9701 -0.6473 -0.7252
 4768TIP3   OH235794   2.253   1.038   3.814  0.2929  0.4682  0.6506
 4768TIP3    H135795   2.168   1.077   3.835  0.1940 -0.6502  2.5997
 4768TIP3    H235796   2.238   0.993   3.731 -0.7874  0.9935  0.5373
 4769TIP3   OH235797   4.065   1.200   4.429 -0.9481  0.3553  0.2737
 4769TIP3    H135798   4.078   1.115   4.386 -0.7795  0.3856  0.2640
 4769TIP3    H235799   4.065   1.263   4.358 -1.1733  0.3542  0.2722
 4770TIP3   OH235800   6.232   6.206  13.491 -0.3224  0.1992 -0.3797
 4770TIP3    H135801   6.325   6.208  13.468 -0.5978  0.6028 -1.5600
 4770TIP3    H235802   6.225   6.140  13.559  0.7686 -0.1346 -0.5747
 4771TIP3   OH235803   3.735   4.441  16.015 -0.3150 -0.2431 -0.2760
 4771TIP3    H135804   3.782   4.368  15.974  0.9649 -0.7303  1.8730
 4771TIP3    H235805   3.792   4.516  16.003 -0.9210  0.0882 -1.1628
 4772TIP3   OH235806   4.675   1.887   5.707 -0.1443  0.1595 -0.1181
 4772TIP3    H135807   4.615   1.852   5.641  0.6812  0.6659 -1.1738
 4772TIP3    H235808   4.739   1.817   5.720  1.4452  1.1169 -2.1511
 4773TIP3   OH235809   6.624   3.814   3.183  0.0026 -0.0923  0.5082
 4773TIP3    H135810   6.623   3.907   3.205  0.8129  0.1587 -0.4493
 4773TIP3    H235811   6.649   3.811   3.091  0.7883 -1.2875  0.7363
 4774TIP3   OH235812   1.442   1.053  15.045  0.1197 -0.3723 -0.6812
 4774TIP3    H135813   1.508   1.118  15.071 -0.0074 -0.7351  0.6210
 4774TIP3    H235814   1.482   1.007  14.972  0.9570 -0.0057 -0.4737
 4775TIP3   OH235815   2.668   5.744  15.906 -0.2084 -0.2152 -0.7570
 4775TIP3    H135816   2.748   5.730  15.956 -0.5902  0.5252  0.1167
 4775TIP3    H235817   2.647   5.659  15.869 -0.3162 -1.0026  1.0006
 4776TIP3   OH235818   6.350   6.129   1.735 -0.2921 -0.0127 -0.7963
 4776TIP3    H135819   6.425   6.184   1.710  0.7686  0.3411  2.5539
 4776TIP3    H235820   6.378   6.040   1.714 -1.0615  0.4066 -4.0944
 4777TIP3   OH235821   2.703   2.627  12.811 -0.2167 -0.1613  0.2010
 4777TIP3    H135822   2.783   2.588  12.844 -0.4091  1.0127  2.2334
 4777TIP3    H235823   2.657   2.556  12.767  1.4629 -1.0768 -0.1446
 4778TIP3   OH235824   1.649   3.754   5.265  0.3004 -0.1897 -0.2094
 4778TIP3    H135825   1.738   3.717   5.265  0.1693 -0.5348 -1.3042
 4778TIP3    H235826   1.599   3.695   5.321  0.8121  0.1493  0.6201
 4779TIP3   OH235827   6.753   5.930   3.971  0.0530 -0.2316 -0.2109
 4779TIP3    H135828   6.834   5.978   3.958  0.7840 -0.6541  2.3158
 4779TIP3    H235829   6.738   5.932   4.066 -2.4418 -0.8930 -0.5091
 4780TIP3   OH235830   6.197   1.619   2.851  0.6810 -0.1425  0.4066
 4780TIP3    H135831   6.272   1.639   2.906  0.8167 -0.5328  0.3699
 4780TIP3    H235832   6.221   1.538   2.805 -0.6241 -1.5546  2.0619
 4781TIP3   OH235833   1.763   1.514   4.519  0.3603 -0.1081 -0.8552
 4781TIP3    H135834   1.851   1.476   4.523 -0.6243 -2.4933 -0.4801
 4781TIP3    H235835   1.730   1.489   4.433 -0.2612  0.0206 -0.6588
 4782TIP3   OH235836   2.740   0.161  10.626  0.8458  0.4627  0.1139
 4782TIP3    H135837   2.829   0.169  10.591  1.1103 -0.4373  0.5638
 4782TIP3    H235838   2.724   0.067  10.630 -0.6600  0.6108 -1.2768
 4783TIP3   OH235839   0.597   5.638  16.383  0.0722  0.2700  0.0608
 4783TIP3    H135840   0.653   5.631  16.306  0.0459 -2.1033  0.1769
 4783TIP3    H235841   0.514   5.597  16.356  0.3524 -1.3964  1.5462
 4784TIP3   OH235842   6.332   2.069   2.026 -0.1221  0.3503 -0.1378
 4784TIP3    H135843   6.408   2.125   2.009  1.1440 -1.1091  0.4590
 4784TIP3    H235844   6.352   1.987   1.981 -1.2476 -0.1390  0.2249
 4785TIP3   OH235845   2.835   1.240   6.658  0.6622  0.5484  0.1900
 4785TIP3    H135846   2.901   1.234   6.726  0.9478 -0.5425 -0.1658
 4785TIP3    H235847   2.839   1.155   6.613 -2.1907 -0.3046  1.2904
 4786TIP3   OH235848   4.028   2.809  15.383  0.5578 -0.1941 -0.4477
 4786TIP3    H135849   4.108   2.812  15.331  1.5128  0.1374  0.9737
 4786TIP3    H235850   4.050   2.856  15.464 -0.6512 -1.2533  0.5477
 4787TIP3   OH235851   5.462   3.405   3.811 -0.0721  0.4286  0.1309
 4787TIP3    H135852   5.505   3.489   3.823  0.4450  0.1923 -0.0182
 4787TIP3    H235853   5.517   3.359   3.747  0.8359 -0.8477  1.7570
 4788TIP3   OH235854   0.028   4.962  12.019 -0.5537  0.3523  0.2101
 4788TIP3    H135855  -0.067   4.955  12.009 -0.5441  1.2052 -0.6092
 4788TIP3    H235856   0.063   4.926  11.937 -0.1526 -0.1928  0.6123
 4789TIP3   OH235857   2.915   2.676  17.145  0.0943  0.1451  0.1480
 4789TIP3    H135858   2.895   2.584  17.161  0.5666 -0.2958 -1.6281
 4789TIP3    H235859   2.838   2.710  17.099 -0.8106  1.1228  2.2454
 4790TIP3   OH235860   2.051   0.319   2.103 -0.1983 -0.1985  0.0602
 4790TIP3    H135861   2.042   0.299   2.010  0.0351 -0.4274  0.0873
 4790TIP3    H235862   1.979   0.272   2.145 -1.1330  0.9883 -0.1542
 4791TIP3   OH235863   5.724   3.926   0.562 -0.6521 -0.1520 -0.4691
 4791TIP3    H135864   5.803   3.894   0.605  0.1355  3.4104  1.1704
 4791TIP3    H235865   5.657   3.862   0.583  1.3947 -2.4050 -0.4367
 4792TIP3   OH235866   6.250   6.361   2.313 -0.1161  0.0868 -0.4635
 4792TIP3    H135867   6.236   6.422   2.241  0.1925 -0.6359 -1.1471
 4792TIP3    H235868   6.291   6.413   2.382 -0.4542  0.7925 -0.7941
 4793TIP3   OH235869   0.211   1.080   6.280 -0.2944  0.3971 -0.0938
 4793TIP3    H135870   0.273   1.142   6.318 -0.3374  1.4934 -1.6885
 4793TIP3    H235871   0.127   1.102   6.320 -0.2008  1.0093 -0.2274
 4794TIP3   OH235872   1.603   5.719  15.718  0.0951 -0.4604 -0.1629
 4794TIP3    H135873   1.691   5.744  15.746 -0.4879 -0.4057  1.7154
 4794TIP3    H235874   1.558   5.803  15.704 -0.1143 -0.4707  0.4193
 4795TIP3   OH235875   4.830   0.567   6.051  0.4068  0.2031 -0.4435
 4795TIP3    H135876   4.838   0.531   6.139 -0.2808  1.0182 -0.0340
 4795TIP3    H235877   4.804   0.493   5.996  1.8619 -0.5495 -0.1824
 4796TIP3   OH235878   6.316   3.771  16.707  0.0523  0.4050 -0.0019
 4796TIP3    H135879   6.393   3.715  16.703  0.4522  0.9649 -0.2652
 4796TIP3    H235880   6.293   3.774  16.800  0.7782  0.8102  0.1679
 4797TIP3   OH235881   6.685   0.710   0.534 -0.1060  0.3437  0.1741
 4797TIP3    H135882   6.690   0.730   0.628 -2.4877  1.2826  0.1716
 4797TIP3    H235883   6.734   0.780   0.492 -0.0231  0.5858  0.6641
 4798TIP3   OH235884   5.964   3.116  15.489 -0.0949 -0.2636 -0.5235
 4798TIP3    H135885   5.953   3.210  15.478 -1.2444 -0.5716 -2.5753
 4798TIP3    H235886   5.904   3.093  15.561  0.6653  0.6356  0.4115
 4799TIP3   OH235887   1.877   0.107   6.182  0.6398  0.1613 -0.2023
 4799TIP3    H135888   1.842   0.098   6.271 -0.3622 -1.3746 -0.7116
 4799TIP3    H235889   1.968   0.134   6.195  0.1922  1.0931  1.2447
 4800TIP3   OH235890   5.048   0.886  15.579  0.2952 -0.1548 -0.4251
 4800TIP3    H135891   5.093   0.878  15.663  0.7415 -2.2506 -0.8012
 4800TIP3    H235892   4.997   0.806  15.571 -0.1616  0.2467 -1.9122
 4801TIP3   OH235893   4.688   1.560  12.633  0.1024  0.0968  0.2855
 4801TIP3    H135894   4.603   1.587  12.667  1.3035  2.4112  1.7019
 4801TIP3    H235895   4.704   1.475  12.674 -2.4124 -1.5258 -1.7896
 4802TIP3   OH235896   4.209   3.306  15.774 -0.0870 -0.2960 -0.0553
 4802TIP3    H135897   4.175   3.244  15.838  0.6043  0.7859  1.4212
 4802TIP3    H235898   4.162   3.388  15.793  1.4913  0.5455  0.3540
 4803TIP3   OH235899   0.031   4.595  12.087 -0.1760 -0.2502  0.3366
 4803TIP3    H135900   0.023   4.551  12.002 -0.3924  0.1580  0.1434
 4803TIP3    H235901   0.124   4.612  12.097 -0.3308  1.3645 -0.6760
 4804TIP3   OH235902   1.361   3.785  12.058 -0.0756  0.8312 -0.1125
 4804TIP3    H135903   1.358   3.699  12.101 -0.4239  0.5526 -0.6885
 4804TIP3    H235904   1.408   3.841  12.121 -2.2185  0.9262  1.5027
 4805TIP3   OH235905   6.363   5.133  12.068  0.3797 -0.0943 -0.3972
 4805TIP3    H135906   6.293   5.104  12.126 -0.2260  1.8073 -0.0994
 4805TIP3    H235907   6.319   5.183  12.000  1.3319 -0.0581 -1.0085
 4806TIP3   OH235908   3.557   3.159  11.800 -0.2160 -0.6953 -0.1262
 4806TIP3    H135909   3.577   3.180  11.891 -3.4088  0.7952  0.3785
 4806TIP3    H235910   3.623   3.207  11.749 -1.2281  2.5505  1.3450
 4807TIP3   OH235911   2.694   4.444   1.413 -0.2032  0.4516 -0.3347
 4807TIP3    H135912   2.683   4.386   1.337  1.6942  0.2196 -0.4651
 4807TIP3    H235913   2.706   4.385   1.487 -0.6181  0.6941 -0.0637
 4808TIP3   OH235914   2.445   5.886  11.613  0.0842 -0.4866 -0.3220
 4808TIP3    H135915   2.447   5.953  11.545  0.4441 -0.7581 -0.5850
 4808TIP3    H235916   2.450   5.803  11.565  1.0868 -0.6715  0.0606
 4809TIP3   OH235917   0.424   3.707   4.601 -0.2495 -0.3783  0.0246
 4809TIP3    H135918   0.491   3.744   4.659 -0.2312 -0.3212 -0.0329
 4809TIP3    H235919   0.472   3.682   4.522 -0.2526 -0.5713  0.0821
 4810TIP3   OH235920   1.180   1.148   5.392 -0.3408  0.2832  0.0772
 4810TIP3    H135921   1.146   1.174   5.306  1.0376 -0.8848 -0.8794
 4810TIP3    H235922   1.171   1.052   5.393 -0.4736  0.2918  1.3142
 4811TIP3   OH235923   2.393   0.305   4.675 -0.2237 -0.1098  0.3357
 4811TIP3    H135924   2.457   0.376   4.673 -0.7862  0.4019  0.4995
 4811TIP3    H235925   2.419   0.252   4.750 -1.9070  1.9152  2.4927
 4812TIP3   OH235926   3.943   4.887  13.963  0.3018  0.0582  0.7375
 4812TIP3    H135927   4.010   4.819  13.965  1.4135  0.9866 -1.5418
 4812TIP3    H235928   3.924   4.905  14.055  1.1291 -2.1877  1.3964
 4813TIP3   OH235929   0.565   2.423  14.021 -0.0303 -0.7335 -0.8338
 4813TIP3    H135930   0.536   2.360  14.087 -0.4008  1.1517  0.8825
 4813TIP3    H235931   0.659   2.433  14.037 -0.3902  0.8932  0.5297
 4814TIP3   OH235932   6.711   2.014   5.380 -0.2468  0.0945 -0.2028
 4814TIP3    H135933   6.616   2.015   5.392 -0.4092 -1.7098 -0.9400
 4814TIP3    H235934   6.745   1.992   5.467 -0.2445  3.2964  0.7534
 4815TIP3   OH235935   2.273   5.418   5.029  0.5829 -0.3224 -0.0174
 4815TIP3    H135936   2.231   5.483   4.973 -0.7324 -0.8640  0.3088
 4815TIP3    H235937   2.252   5.334   4.989  3.5625 -0.5699 -1.3289
 4816TIP3   OH235938   3.062   5.469  13.376 -0.2312  0.4065 -0.3303
 4816TIP3    H135939   3.073   5.415  13.454  0.3280  1.5087  0.3685
 4816TIP3    H235940   3.053   5.558  13.409 -2.6384  0.6233 -1.3553
 4817TIP3   OH235941   6.578   5.715   1.272  0.0693 -0.3204 -0.8728
 4817TIP3    H135942   6.541   5.675   1.193 -0.0143  1.3820 -1.7477
 4817TIP3    H235943   6.655   5.762   1.242  0.2561  0.0503  0.1318
 4818TIP3   OH235944   5.495   5.928   4.176  0.4813  0.2829  0.0917
 4818TIP3    H135945   5.556   5.964   4.111  1.9340 -0.8212  0.7819
 4818TIP3    H235946   5.455   5.853   4.133  0.9705 -0.0653  0.2266
 4819TIP3   OH235947   5.664   5.056  13.581 -0.0857 -0.4820 -0.1610
 4819TIP3    H135948   5.751   5.082  13.549  0.0988  0.0761  0.7730
 4819TIP3    H235949   5.665   5.077  13.674 -2.1957  2.2518 -0.5970
 4820TIP3   OH235950   4.722   2.184  15.946 -0.1962  0.5173 -0.0165
 4820TIP3    H135951   4.748   2.120  15.879 -0.8430  0.1089  0.1080
 4820TIP3    H235952   4.769   2.264  15.922 -1.0086  0.6185 -1.4375
 4821TIP3   OH235953   3.537   3.622  17.243 -0.3500  0.5417 -0.3218
 4821TIP3    H135954   3.571   3.671  17.169 -0.2593 -1.4662 -1.6770
 4821TIP3    H235955   3.452   3.662  17.261  1.4277  3.9995  1.5147
 4822TIP3   OH235956   3.828   0.198   3.346  0.3260  0.3091  0.2077
 4822TIP3    H135957   3.734   0.198   3.365 -0.2177 -0.9539 -2.1509
 4822TIP3    H235958   3.853   0.106   3.351  0.8023  0.2849 -1.8522
 4823TIP3   OH235959   6.502   2.922   2.517 -0.3169  0.1651 -0.4292
 4823TIP3    H135960   6.503   2.899   2.424  0.0081  0.0575 -0.3985
 4823TIP3    H235961   6.537   3.010   2.521 -2.1370  0.9488 -0.6152
 4824TIP3   OH235962   2.709   5.876  12.830 -0.2321  0.3670  0.0027
 4824TIP3    H135963   2.691   5.782  12.830  0.8105  0.1517 -0.6078
 4824TIP3    H235964   2.778   5.888  12.894 -0.5885  0.7803  0.3213
 4825TIP3   OH235965   0.359   3.398   5.670  0.2964 -0.4059 -0.5856
 4825TIP3    H135966   0.283   3.367   5.718 -1.8547  0.3217 -3.2690
 4825TIP3    H235967   0.420   3.427   5.738 -1.4143 -1.8191  1.7066
 4826TIP3   OH235968   2.216   5.260   0.962  0.0608 -0.2183  0.4198
 4826TIP3    H135969   2.252   5.184   0.916  1.6806 -0.3351  1.7767
 4826TIP3    H235970   2.266   5.334   0.928 -0.5634  0.0661  0.1016
 4827TIP3   OH235971   3.745   2.529  13.295 -0.6745 -0.1053 -0.1933
 4827TIP3    H135972   3.689   2.525  13.217  0.0356  1.3483 -0.8227
 4827TIP3    H235973   3.832   2.548  13.261  0.0616 -1.4382  0.8428
 4828TIP3   OH235974   5.900   2.977   0.284  0.6494  0.1348  0.5875
 4828TIP3    H135975   5.805   2.990   0.273  0.5681 -0.9158 -0.0963
 4828TIP3    H235976   5.908   2.887   0.317  1.5194 -0.9245 -2.2209
 4829TIP3   OH235977   1.214   6.593  17.415  0.7286 -0.2796  0.1119
 4829TIP3    H135978   1.225   6.499  17.431 -0.9123 -0.6724 -0.8472
 4829TIP3    H235979   1.229   6.633  17.500  1.9124 -1.3493  0.4523
 4830TIP3   OH235980   1.460   0.251  17.042 -0.4621 -0.0292  0.0353
 4830TIP3    H135981   1.479   0.207  17.125 -1.5059  1.0527  0.8887
 4830TIP3    H235982   1.534   0.311  17.029  0.3895 -1.1810 -0.5443
 4831TIP3   OH235983   4.397   3.488   2.633 -0.1858  0.4823 -0.6608
 4831TIP3    H135984   4.338   3.466   2.560 -0.2031 -0.4119 -0.3917
 4831TIP3    H235985   4.339   3.495   2.709 -0.3117  2.4471 -0.8864
 4832TIP3   OH235986   0.467   2.921   2.652 -0.1729  1.0474 -0.1847
 4832TIP3    H135987   0.407   2.956   2.718  1.9755  1.0790  1.8808
 4832TIP3    H235988   0.546   2.900   2.701  2.1049  2.4276 -3.0110
 4833TIP3   OH235989   4.656   2.253  13.194  0.4868  0.2939  0.1994
 4833TIP3    H135990   4.719   2.275  13.125 -0.8171 -2.0077 -1.8686
 4833TIP3    H235991   4.571   2.260  13.152 -0.4502  0.1038  1.9806
 4834TIP3   OH235992   0.187   4.649   3.358  0.1692 -0.1038 -0.7002
 4834TIP3    H135993   0.107   4.675   3.312 -0.3002  0.4897  0.4274
 4834TIP3    H235994   0.173   4.677   3.448  1.3524 -0.6582 -0.3305
 4835TIP3   OH235995   0.041   0.669  16.855 -0.2176  0.1684  0.2770
 4835TIP3    H135996   0.124   0.701  16.889 -0.4989  1.1445  0.0848
 4835TIP3    H235997   0.011   0.739  16.796  1.4757 -2.4308 -4.1306
 4836TIP3   OH235998   1.292   2.506   2.261  0.2393 -0.1912 -0.1974
 4836TIP3    H135999   1.197   2.507   2.274  0.0193 -1.8353 -1.4007
 4836TIP3    H236000   1.319   2.418   2.288  1.1878 -0.2662 -1.2956
 4837TIP3   OH236001   4.458   1.506  11.277  0.0551  0.3334 -0.1362
 4837TIP3    H136002   4.408   1.494  11.196 -0.3546 -0.8309  0.2698
 4837TIP3    H236003   4.547   1.525  11.247  0.0433 -0.6684 -0.8812
 4838TIP3   OH236004   2.373   1.726   0.978 -0.0497  0.4648  0.3064
 4838TIP3    H136005   2.317   1.776   1.037  1.3829  0.1661  2.0054
 4838TIP3    H236006   2.332   1.639   0.974 -0.3274  0.5790  0.6266
 4839TIP3   OH236007   6.695   4.418   5.671  0.2888 -0.5717  0.3436
 4839TIP3    H136008   6.634   4.490   5.687  1.3623  0.1938  1.1866
 4839TIP3    H236009   6.676   4.355   5.741 -2.5080 -2.4795 -1.9499
 4840TIP3   OH236010   4.242   6.528   2.891 -0.0199 -0.0059  0.1964
 4840TIP3    H136011   4.324   6.534   2.940  0.3317 -1.3166 -0.1933
 4840TIP3    H236012   4.244   6.442   2.850 -1.2575  0.2337 -0.4399
 4841TIP3   OH236013   4.163   5.744   3.574  0.1122  0.3012 -0.7702
 4841TIP3    H136014   4.168   5.755   3.479  2.8380  0.8615 -0.6414
 4841TIP3    H236015   4.193   5.654   3.589  1.7139  0.8838 -0.3513
 4842TIP3   OH236016   4.387   3.314  16.398  0.4106 -0.7409 -0.1068
 4842TIP3    H136017   4.443   3.364  16.338 -0.1608  0.9689  0.7281
 4842TIP3    H236018   4.446   3.288  16.469  0.5799 -0.7664 -0.2544
 4843TIP3   OH236019   3.655   0.402   1.209  0.4445 -0.2390 -0.4408
 4843TIP3    H136020   3.607   0.365   1.134  0.0988  0.3483 -0.5133
 4843TIP3    H236021   3.611   0.366   1.285  1.0266 -1.1305 -0.5154
 4844TIP3   OH236022   5.014   4.474   6.354  0.3026  0.2724  0.2305
 4844TIP3    H136023   4.973   4.411   6.295  0.9678 -0.1526  0.2152
 4844TIP3    H236024   5.005   4.558   6.309 -2.2822  0.5559  1.0946
 4845TIP3   OH236025   2.335   0.893   4.375 -0.2214 -0.1225 -0.5692
 4845TIP3    H136026   2.404   0.888   4.442 -1.7595 -0.2188  1.0676
 4845TIP3    H236027   2.265   0.838   4.409 -0.9397 -0.4589 -2.4631
 4846TIP3   OH236028   1.848   5.307   2.092  0.2751 -0.9552  0.1967
 4846TIP3    H136029   1.835   5.401   2.108 -1.1305 -1.1536  0.3227
 4846TIP3    H236030   1.938   5.291   2.120  0.1785  0.1362  1.2619
 4847TIP3   OH236031   0.502   4.427   2.207 -0.1446 -0.3362  0.2874
 4847TIP3    H136032   0.429   4.462   2.258 -0.4866 -0.0571 -0.3771
 4847TIP3    H236033   0.528   4.500   2.150  1.2589 -0.1186  1.1458
 4848TIP3   OH236034   4.869   5.381   1.445 -0.1050  0.9273 -0.2158
 4848TIP3    H136035   4.805   5.391   1.375  1.1791  0.1143 -1.5532
 4848TIP3    H236036   4.949   5.420   1.411  1.3159 -1.8450 -0.3585
 4849TIP3   OH236037   1.963   0.661   4.837 -0.2535 -0.2566 -0.0814
 4849TIP3    H136038   2.028   0.699   4.896  1.3088  0.1674 -1.9664
 4849TIP3    H236039   1.925   0.589   4.887  1.6134 -0.4820  1.1268
 4850TIP3   OH236040   2.857   6.101  14.835  0.0528 -0.2491 -0.5583
 4850TIP3    H136041   2.825   6.167  14.897 -0.0989 -0.1658 -0.7262
 4850TIP3    H236042   2.892   6.031  14.891  2.8860  1.2074 -0.3248
 4851TIP3   OH236043   5.672   3.353  16.837  0.0943 -0.3373  0.0447
 4851TIP3    H136044   5.659   3.309  16.922  0.7320  0.8283  0.7679
 4851TIP3    H236045   5.693   3.281  16.777 -0.5726 -1.2147  0.8216
 4852TIP3   OH236046   6.358   1.535  13.830 -0.7550  0.9491  0.9051
 4852TIP3    H136047   6.354   1.604  13.896  1.8634  0.1492  2.0694
 4852TIP3    H236048   6.381   1.580  13.749 -3.2216  1.8572  0.6505
 4853TIP3   OH236049   0.311   3.713   2.257 -0.3520  0.0946  0.1660
 4853TIP3    H136050   0.336   3.621   2.263 -0.6506  0.0780  1.4790
 4853TIP3    H236051   0.374   3.751   2.197 -0.5693 -1.0801 -0.8377
 4854TIP3   OH236052   1.493   1.405   1.164 -0.8857 -0.1497  0.2270
 4854TIP3    H136053   1.449   1.484   1.195 -1.9938 -1.3285  1.8335
 4854TIP3    H236054   1.578   1.435   1.132 -1.0358  1.6122  1.3835
 4855TIP3   OH236055   4.463   4.969  17.445 -0.4006  0.8631  0.5608
 4855TIP3    H136056   4.451   5.059  17.475  0.1414  1.7075 -1.5700
 4855TIP3    H236057   4.555   4.963  17.422 -0.4527 -0.2219  0.5842
 4856TIP3   OH236058   0.152   6.371   0.855  0.4520 -0.3143 -0.0248
 4856TIP3    H136059   0.197   6.363   0.771  2.3761  1.0592  0.7982
 4856TIP3    H236060   0.121   6.462   0.856 -0.1236 -0.5160  0.4899
 4857TIP3   OH236061   0.360   1.528   3.803  0.3327  0.5868 -0.1253
 4857TIP3    H136062   0.441   1.533   3.853  1.0152  1.3308 -1.2713
 4857TIP3    H236063   0.388   1.530   3.711 -0.9112 -0.3190 -0.5507
 4858TIP3   OH236064   4.954   6.028  12.058  0.0434  0.0683 -0.2601
 4858TIP3    H136065   4.947   6.037  12.153 -0.1439 -0.0631 -0.2626
 4858TIP3    H236066   5.046   6.043  12.039  0.2455 -0.7664  0.0319
 4859TIP3   OH236067   1.104   4.346   4.409  0.2284 -0.2068  0.0935
 4859TIP3    H136068   1.023   4.294   4.405  1.2973 -2.1752  1.7179
 4859TIP3    H236069   1.110   4.373   4.500  0.3768  1.7566 -0.4675
 4860TIP3   OH236070   5.528   5.383   1.229  0.1251 -0.2162  0.1538
 4860TIP3    H136071   5.466   5.311   1.236  0.4186 -0.6147 -1.0865
 4860TIP3    H236072   5.588   5.357   1.160  0.8596  0.7696  0.3903
 4861TIP3   OH236073   4.286   6.347   1.919 -0.2882 -0.1114 -0.2702
 4861TIP3    H136074   4.259   6.303   1.999  0.2250  0.2742  0.1215
 4861TIP3    H236075   4.377   6.374   1.935  0.1496 -0.8844 -1.3395
 4862TIP3   OH236076   1.553   0.584  14.430 -0.3932  0.2865  0.6513
 4862TIP3    H136077   1.531   0.501  14.388 -0.0569 -0.2376  1.4930
 4862TIP3    H236078   1.471   0.616  14.466 -0.5840  0.4864  0.0599
 4863TIP3   OH236079   2.975   5.923  16.390  0.5074  0.2760 -0.7529
 4863TIP3    H136080   2.899   5.975  16.417 -0.0426 -0.5842 -0.5785
 4863TIP3    H236081   2.947   5.832  16.405  1.8260 -0.0317 -0.0235
 4864TIP3   OH236082   3.815   6.383  14.840 -0.1258  0.5149  0.5374
 4864TIP3    H136083   3.816   6.288  14.832  0.8880  0.5059  0.6999
 4864TIP3    H236084   3.815   6.399  14.934 -1.7589  0.6829  0.5334
 4865TIP3   OH236085   0.746   2.323  17.399  0.5311 -1.0646  0.7218
 4865TIP3    H136086   0.840   2.318  17.417  0.9289  0.6323 -0.5414
 4865TIP3    H236087   0.718   2.403  17.443  0.2956 -0.0961 -1.0897
 4866TIP3   OH236088   1.813   5.591   0.801 -0.2592 -0.1001  0.2490
 4866TIP3    H136089   1.819   5.539   0.720  1.1989 -1.5538  1.2407
 4866TIP3    H236090   1.725   5.572   0.834  0.1473 -1.7837  0.4502
 4867TIP3   OH236091   2.330   4.281  17.445  0.5900 -0.4087 -0.2740
 4867TIP3    H136092   2.416   4.238  17.450  0.5042 -0.5740 -0.2391
 4867TIP3    H236093   2.275   4.234  17.507 -0.3041 -2.0958 -2.2187
 4868TIP3   OH236094   4.996   0.175  12.502  0.9683 -0.4087  0.3384
 4868TIP3    H136095   5.026   0.211  12.419 -0.6858  2.3186  0.8175
 4868TIP3    H236096   5.003   0.247  12.565 -2.4721 -0.7745  1.3870
 4869TIP3   OH236097   4.349   1.555  14.180  0.2243  0.0828  0.1592
 4869TIP3    H136098   4.349   1.562  14.275  0.7378 -0.3246  0.1924
 4869TIP3    H236099   4.383   1.640  14.150 -1.0056  0.6399  0.2904
 4870TIP3   OH236100   1.900   3.606  12.725  0.1789  0.1987 -0.3924
 4870TIP3    H136101   1.933   3.589  12.814 -0.7495 -0.7236 -0.2060
 4870TIP3    H236102   1.856   3.691  12.732  0.5532  0.3721 -0.1002
 4871TIP3   OH236103   3.852   2.642   5.774 -0.1644  0.1843 -0.1587
 4871TIP3    H136104   3.825   2.728   5.804 -0.3209  0.9343 -2.2662
 4871TIP3    H236105   3.832   2.583   5.847 -0.0260  1.9141  1.3244
 4872TIP3   OH236106   0.320   2.420   5.646  0.3000  0.4282 -0.0034
 4872TIP3    H136107   0.240   2.371   5.629 -0.5062  2.1380 -1.4590
 4872TIP3    H236108   0.366   2.422   5.562  1.8099 -0.3844  0.7714
 4873TIP3   OH236109   2.578   0.279   1.950 -0.0780  0.2852 -0.6780
 4873TIP3    H136110   2.483   0.269   1.963 -0.2213 -1.2494 -2.4843
 4873TIP3    H236111   2.617   0.229   2.021 -0.5709  1.5379  0.5227
 4874TIP3   OH236112   3.225   0.218  12.544 -0.0844  0.2615  0.3751
 4874TIP3    H136113   3.171   0.279  12.594 -0.1008  0.2309  0.3947
 4874TIP3    H236114   3.249   0.150  12.607 -1.1388 -0.4439  0.0526
 4875TIP3   OH236115   0.916   0.289   2.611 -0.1242 -1.2804  0.4242
 4875TIP3    H136116   0.948   0.371   2.574  0.5149 -1.6874  0.0565
 4875TIP3    H236117   0.838   0.313   2.660 -1.2189 -0.7751 -1.4998
 4876TIP3   OH236118   1.134   4.415  12.883  0.2122 -0.1334  0.4321
 4876TIP3    H136119   1.171   4.503  12.882 -2.2434  0.9694  0.2572
 4876TIP3    H236120   1.044   4.426  12.914 -0.9503 -2.2190 -1.8097
 4877TIP3   OH236121   6.231   4.448  12.711  0.1283  0.6695 -0.1579
 4877TIP3    H136122   6.214   4.543  12.711  1.5541  1.0670  3.0810
 4877TIP3    H236123   6.196   4.418  12.794 -1.6578 -2.0476 -1.7555
 4878TIP3   OH236124   4.673   6.652   4.071  0.2763  0.0164  0.0464
 4878TIP3    H136125   4.642   6.569   4.108 -2.2128  0.9683  0.3023
 4878TIP3    H236126   4.758   6.631   4.033  0.0871 -2.4514  0.8043
 4879TIP3   OH236127   3.498   0.897   6.735 -0.0502  0.7364  0.8187
 4879TIP3    H136128   3.434   0.881   6.665  1.3085  0.8271 -0.5049
 4879TIP3    H236129   3.445   0.913   6.813 -1.6214  0.2922 -0.1095
 4880TIP3   OH236130   1.448   6.097   3.618  0.0475  0.0912 -0.1548
 4880TIP3    H136131   1.531   6.072   3.578  0.7776  1.4556  0.4317
 4880TIP3    H236132   1.391   6.117   3.544  1.1227  1.7982 -0.5896
 4881TIP3   OH236133   4.630   4.961  12.358 -0.0469  0.2544 -0.3123
 4881TIP3    H136134   4.724   4.961  12.379  0.2214 -0.2357 -1.4349
 4881TIP3    H236135   4.597   5.043  12.396  0.4038 -0.4833  1.8293
 4882TIP3   OH236136   1.722   3.423  14.349  0.1384  0.7298  0.7313
 4882TIP3    H136137   1.798   3.376  14.383  0.2162  2.7017  3.5360
 4882TIP3    H236138   1.757   3.506  14.317 -0.4739  0.3865 -0.9791
 4883TIP3   OH236139   2.021   4.283  10.902 -0.0602  0.0602 -0.1292
 4883TIP3    H136140   2.077   4.350  10.863 -1.0786 -0.2351 -2.2311
 4883TIP3    H236141   2.026   4.209  10.842  1.3875 -2.0173  2.3580
 4884TIP3   OH236142   1.648   2.364   1.622 -0.3172 -0.1632  0.7656
 4884TIP3    H136143   1.613   2.360   1.533 -2.1350 -0.0280  1.4288
 4884TIP3    H236144   1.741   2.344   1.612 -0.6958 -1.2404 -1.0207
 4885TIP3   OH236145   4.753   3.197  14.051  0.3803  0.2570 -0.4287
 4885TIP3    H136146   4.727   3.116  14.007 -0.3521  0.1107  0.2659
 4885TIP3    H236147   4.819   3.170  14.114 -0.0363  0.1589 -0.0306
 4886TIP3   OH236148   4.764   2.544   0.387  0.5307  0.1328  0.1929
 4886TIP3    H136149   4.791   2.545   0.479  0.6160 -2.7666  0.2620
 4886TIP3    H236150   4.703   2.618   0.380 -1.8239 -1.2670  3.3715
 4887TIP3   OH236151   6.451   3.393   4.928  0.5529  0.0420 -0.2030
 4887TIP3    H136152   6.414   3.374   5.015  1.1721  0.3503  0.1323
 4887TIP3    H236153   6.542   3.417   4.945  0.9531 -0.8114 -1.0310
 4888TIP3   OH236154   1.765   4.031   3.434 -0.0553  0.0389  0.6232
 4888TIP3    H136155   1.751   4.037   3.528  0.3808  0.4613  0.6644
 4888TIP3    H236156   1.680   4.052   3.396  0.1988  1.6838  0.8891
 4889TIP3   OH236157   4.322   1.739   0.241  0.3109 -0.1182  0.6069
 4889TIP3    H136158   4.370   1.821   0.243 -0.5727  0.4056  2.3004
 4889TIP3    H236159   4.389   1.671   0.237  1.2028  0.6075  2.3735
 4890TIP3   OH236160   1.578   5.703  15.175 -0.3578 -0.3460  0.1013
 4890TIP3    H136161   1.625   5.675  15.254  0.3687 -1.3999 -0.6858
 4890TIP3    H236162   1.639   5.686  15.103 -1.7664 -1.3867 -0.9047
 4891TIP3   OH236163   4.239   0.993  15.129  0.2709 -0.1184  0.4144
 4891TIP3    H136164   4.222   1.015  15.221  0.0899  0.4880  0.2357
 4891TIP3    H236165   4.232   1.076  15.082  2.3495 -0.0553  0.1342
 4892TIP3   OH236166   6.700   5.592  13.073 -0.0210 -0.1804 -0.0845
 4892TIP3    H136167   6.752   5.514  13.056 -1.8357 -1.6259  0.6084
 4892TIP3    H236168   6.699   5.639  12.990  1.9019 -0.3587 -0.2522
 4893TIP3   OH236169   2.361   5.409  12.748  1.1190 -0.5313  0.0805
 4893TIP3    H136170   2.300   5.478  12.773 -1.3528 -1.6180 -2.3960
 4893TIP3    H236171   2.422   5.451  12.688 -0.6718 -0.5076 -1.8076
 4894TIP3   OH236172   4.484   5.118   1.143  0.0330 -0.0934 -0.0423
 4894TIP3    H136173   4.506   5.028   1.164 -1.9090 -0.2443  1.7122
 4894TIP3    H236174   4.401   5.113   1.096 -0.5616  0.7714  0.8507
 4895TIP3   OH236175   2.439   2.676   4.771  0.0102  0.9054 -0.5867
 4895TIP3    H136176   2.502   2.652   4.703  2.4870  1.6318  1.2905
 4895TIP3    H236177   2.387   2.598   4.785 -0.2265  0.5877 -2.9147
 4896TIP3   OH236178   3.646   1.191   5.048 -0.9069 -0.2085  0.5346
 4896TIP3    H136179   3.593   1.216   4.973 -0.0858  0.2460  0.0901
 4896TIP3    H236180   3.611   1.106   5.075  0.3101 -1.6190 -1.9003
 4897TIP3   OH236181   4.618   2.936   2.196 -0.7289 -0.2076 -0.4811
 4897TIP3    H136182   4.593   2.911   2.286 -0.2969 -0.9671 -0.5622
 4897TIP3    H236183   4.651   2.855   2.158 -2.4121 -0.2919 -1.8603
 4898TIP3   OH236184   1.816   3.181  13.814 -0.1831  0.5168 -0.1487
 4898TIP3    H136185   1.795   3.228  13.733 -0.7215  1.2608  0.4090
 4898TIP3    H236186   1.731   3.164  13.854  0.0121 -0.7525 -0.2166
 4899TIP3   OH236187   3.033   4.372  13.322 -0.4852  0.3121 -0.4486
 4899TIP3    H136188   3.096   4.390  13.392  1.2309  1.1480 -2.1133
 4899TIP3    H236189   2.961   4.432  13.338 -1.0255 -0.7801  1.5998
 4900TIP3   OH236190   3.971   0.392   0.043  0.0361  0.6772 -0.3460
 4900TIP3    H136191   3.905   0.419   0.107  0.2301  0.2974  0.0269
 4900TIP3    H236192   4.005   0.473   0.006 -0.3718  0.8851 -0.2624
 4901TIP3   OH236193   1.755   6.513   0.448 -0.6859 -0.1527  0.6080
 4901TIP3    H136194   1.786   6.451   0.382 -0.0784  0.7174  0.0451
 4901TIP3    H236195   1.675   6.550   0.410 -1.5269 -1.1751  1.3179
 4902TIP3   OH236196   6.176   1.072   1.063  0.2446 -0.3283 -0.1789
 4902TIP3    H136197   6.135   1.118   0.990  1.8236 -0.5364 -1.2648
 4902TIP3    H236198   6.220   1.140   1.113 -1.7272 -0.0443  1.2534
 4903TIP3   OH236199   0.116   4.207  14.395 -0.1610 -0.1651  0.3274
 4903TIP3    H136200   0.073   4.168  14.472 -2.5425  0.6402 -0.4883
 4903TIP3    H236201   0.165   4.136  14.356 -0.5706 -1.1172  1.4777
 4904TIP3   OH236202   1.776   0.547   2.191 -0.8553  0.4480 -0.2986
 4904TIP3    H136203   1.847   0.581   2.137  0.1898 -0.5533  0.3774
 4904TIP3    H236204   1.697   0.556   2.138 -0.1004  0.8862 -1.3654
 4905TIP3   OH236205   1.248   0.958  13.814  0.1267  0.5566  0.1563
 4905TIP3    H136206   1.294   0.998  13.888  1.7702 -0.4209 -0.2868
 4905TIP3    H236207   1.237   1.030  13.752  0.8262  0.8790  0.3919
 4906TIP3   OH236208   4.288   2.289  16.790 -0.7007  0.1917  0.0932
 4906TIP3    H136209   4.373   2.330  16.803 -1.2090  0.7827  1.7905
 4906TIP3    H236210   4.230   2.361  16.765 -1.0009  0.0243  0.3006
 4907TIP3   OH236211   6.714   2.549  16.532 -0.1229  0.1308 -0.0049
 4907TIP3    H136212   6.790   2.605  16.518  0.0582 -0.4828 -1.7287
 4907TIP3    H236213   6.644   2.608  16.560  1.0227  0.6741  1.8429
 4908TIP3   OH236214   6.524   4.202   3.486 -0.0343 -0.9077 -0.3002
 4908TIP3    H136215   6.618   4.188   3.501  0.0002  0.2914  0.7642
 4908TIP3    H236216   6.520   4.284   3.438 -0.5326 -1.0472 -0.4927
 4909TIP3   OH236217   6.353   3.276   5.939  0.6033 -0.9040  0.0172
 4909TIP3    H136218   6.421   3.342   5.952  0.7131 -0.8235 -0.9133
 4909TIP3    H236219   6.286   3.321   5.887  1.3064 -1.9051 -1.8319
 4910TIP3   OH236220   0.515   2.366  16.822 -0.1510  0.1669 -0.3400
 4910TIP3    H136221   0.581   2.309  16.781  0.7589  0.1378  1.0986
 4910TIP3    H236222   0.518   2.343  16.915 -1.5648  0.8153 -0.1055
 4911TIP3   OH236223   6.706   2.704  11.671 -0.1696 -0.1592 -0.0662
 4911TIP3    H136224   6.630   2.710  11.612  0.1813  1.3174 -0.4167
 4911TIP3    H236225   6.698   2.618  11.711  0.1476 -1.6940 -3.0289
 4912TIP3   OH236226   4.874   2.601   4.295  0.3678  0.1187  0.2672
 4912TIP3    H136227   4.958   2.594   4.250  0.6228  1.2947  0.5421
 4912TIP3    H236228   4.817   2.648   4.235  0.6530  1.5207  1.0587
 4913TIP3   OH236229   0.024   0.517   3.092 -0.2647 -0.5921 -0.1300
 4913TIP3    H136230   0.115   0.532   3.067  0.1121  0.9710  1.8984
 4913TIP3    H236231   0.004   0.429   3.060  2.4978 -1.6677  0.8333
 4914TIP3   OH236232   3.759   1.773   3.862 -0.4042 -0.1271 -0.0763
 4914TIP3    H136233   3.680   1.799   3.909  0.2016  1.7146  0.0002
 4914TIP3    H236234   3.831   1.808   3.914  0.3443  0.6471 -1.5616
 4915TIP3   OH236235   5.847   5.025   0.722 -0.4995 -0.0182  0.5914
 4915TIP3    H136236   5.878   4.972   0.648  1.2084  1.5905  0.0719
 4915TIP3    H236237   5.752   5.020   0.717 -0.4399 -0.0734 -1.6496
 4916TIP3   OH236238   5.900   5.224   5.494  0.5714 -0.1676 -0.4249
 4916TIP3    H136239   5.995   5.236   5.490  0.5565  0.7296  1.1328
 4916TIP3    H236240   5.874   5.269   5.574 -1.1728 -0.4397 -0.8103
 4917TIP3   OH236241   3.202   1.138  13.139  0.5838  0.1910  0.0833
 4917TIP3    H136242   3.127   1.197  13.130  2.0968  2.2505  0.2572
 4917TIP3    H236243   3.235   1.126  13.050 -0.2240 -1.1463 -0.0593
 4918TIP3   OH236244   2.539   3.063  11.656 -0.8499  0.0855 -0.2768
 4918TIP3    H136245   2.539   3.052  11.561  0.2436  0.8016 -0.3720
 4918TIP3    H236246   2.481   3.138  11.672 -0.9773  0.0098 -0.3739
 4919TIP3   OH236247   6.484   4.671  13.689 -0.8242 -0.0836  0.0762
 4919TIP3    H136248   6.476   4.676  13.784 -0.3939  0.3917  0.0901
 4919TIP3    H236249   6.416   4.729  13.655  0.1733  1.1507  0.1322
 4920TIP3   OH236250   0.547   2.563   2.647  0.5832 -0.2711 -0.1914
 4920TIP3    H136251   0.595   2.538   2.568  1.8420  0.1103  0.4286
 4920TIP3    H236252   0.614   2.590   2.708 -0.3061 -1.3649  1.3317
 4921TIP3   OH236253   3.364   2.229  15.472  0.0558  0.1034 -0.4984
 4921TIP3    H136254   3.394   2.265  15.555  1.8488  0.2075 -1.1552
 4921TIP3    H236255   3.328   2.304  15.425 -3.4247 -0.3656  1.1181
 4922TIP3   OH236256   2.219   5.922  15.138  0.0442 -0.2082  0.2486
 4922TIP3    H136257   2.294   5.939  15.082 -0.3186 -0.5254 -0.3398
 4922TIP3    H236258   2.187   5.836  15.111 -0.7116  0.0526  0.2834
 4923TIP3   OH236259   0.020   6.455   1.782  0.1508  1.1728 -0.0085
 4923TIP3    H136260  -0.040   6.526   1.803  0.1579  1.2158 -0.1327
 4923TIP3    H236261   0.093   6.467   1.843  0.2849  1.4421 -0.2195
 4924TIP3   OH236262   6.359   1.655  14.691  0.7661  0.5982 -0.0968
 4924TIP3    H136263   6.427   1.599  14.727 -0.5486 -1.8946 -1.2784
 4924TIP3    H236264   6.395   1.688  14.609  0.6971 -0.4326 -0.5453
 4925TIP3   OH236265   3.174   4.690  12.862 -0.2593  0.2027 -0.0694
 4925TIP3    H136266   3.132   4.635  12.929  0.6072 -2.5569 -1.6556
 4925TIP3    H236267   3.117   4.767  12.855 -1.7054 -0.5958  2.0504
 4926TIP3   OH236268   5.491   6.178   0.112  0.1941 -0.3778  0.6494
 4926TIP3    H136269   5.409   6.130   0.100 -0.3861  0.9384 -1.0638
 4926TIP3    H236270   5.466   6.270   0.108  1.6020  0.0730  1.4156
 4927TIP3   OH236271   3.424   0.275  10.888  0.0459 -0.2597 -0.5356
 4927TIP3    H136272   3.507   0.228  10.876 -0.3018 -0.6646 -1.4591
 4927TIP3    H236273   3.361   0.206  10.912 -0.1798 -0.0664 -0.5698
 4928TIP3   OH236274   4.728   4.494  17.179  0.3871  0.1113  0.4275
 4928TIP3    H136275   4.706   4.428  17.244 -0.5329 -1.1466 -1.0867
 4928TIP3    H236276   4.653   4.554  17.178 -0.0502 -0.4337 -0.1433
 4929TIP3   OH236277   4.053   4.870   2.389 -0.5017 -0.2390  1.0960
 4929TIP3    H136278   4.078   4.837   2.475 -1.9147 -0.6415  1.3845
 4929TIP3    H236279   4.109   4.823   2.328  2.1929  1.7325  1.8732
 4930TIP3   OH236280   2.345   5.813  13.435 -0.2529  0.1033 -0.1456
 4930TIP3    H136281   2.309   5.738  13.483  1.1350 -0.0590  0.7356
 4930TIP3    H236282   2.422   5.777  13.390 -1.3154  0.3478 -2.2510
 4931TIP3   OH236283   6.199   4.030  14.236 -0.4505  0.0195  0.1414
 4931TIP3    H136284   6.214   3.947  14.190 -0.7045  0.5938 -1.0190
 4931TIP3    H236285   6.285   4.071  14.239 -0.7178  0.7672 -1.4376
 4932TIP3   OH236286   4.453   5.613  11.319 -0.3873  0.2845  0.0849
 4932TIP3    H136287   4.361   5.635  11.303  0.0367  1.0970 -1.3102
 4932TIP3    H236288   4.503   5.681  11.274  0.9170 -0.5512  0.2127
 4933TIP3   OH236289   4.562   2.562  15.154  0.2855  0.5281  0.1379
 4933TIP3    H136290   4.472   2.537  15.176  0.0925  0.6370 -0.5116
 4933TIP3    H236291   4.612   2.481  15.159 -0.1619  0.1542 -1.0741
 4934TIP3   OH236292   1.809   0.143  11.622 -0.4257  0.2047 -0.3972
 4934TIP3    H136293   1.834   0.235  11.632 -1.0132  0.4158 -0.8316
 4934TIP3    H236294   1.877   0.107  11.564  0.0937  0.2295  0.1829
 4935TIP3   OH236295   3.707   4.418  14.701 -0.6564 -0.3053  0.0254
 4935TIP3    H136296   3.770   4.363  14.653 -0.7683 -0.5113  0.1105
 4935TIP3    H236297   3.664   4.357  14.761  0.1332  0.1387  1.0497
 4936TIP3   OH236298   6.585   0.999   1.504 -0.1285  0.3517  0.2222
 4936TIP3    H136299   6.508   0.966   1.551  0.2881 -0.3515  0.4416
 4936TIP3    H236300   6.656   0.992   1.568  0.3450 -0.1326 -0.3405
 4937TIP3   OH236301   1.898   2.227   1.306  0.3986  0.5659  0.5285
 4937TIP3    H136302   1.916   2.190   1.393  0.4796 -0.6448  0.0105
 4937TIP3    H236303   1.970   2.289   1.293  1.1087 -0.1628  0.8163
 4938TIP3   OH236304   0.010   6.354  11.740  0.2851 -0.2348  0.4980
 4938TIP3    H136305  -0.031   6.372  11.825 -2.1020 -2.4205 -0.0695
 4938TIP3    H236306   0.096   6.319  11.763 -0.8297 -2.1043  2.1689
 4939TIP3   OH236307   0.564   6.236   4.625  0.4886 -0.0510 -0.4904
 4939TIP3    H136308   0.558   6.327   4.655  1.6290 -0.3525  0.7182
 4939TIP3    H236309   0.649   6.230   4.582  0.5001 -0.5964 -0.4034
 4940TIP3   OH236310   2.879   4.824  15.783  0.4795 -0.1907 -0.0978
 4940TIP3    H136311   2.972   4.844  15.771  0.7079 -1.6993 -1.1728
 4940TIP3    H236312   2.843   4.826  15.694 -0.3275 -0.4850  0.2194
 4941TIP3   OH236313   6.140   4.516   2.660 -0.2056  0.6233 -0.2379
 4941TIP3    H136314   6.194   4.436   2.662 -0.3032  0.5499 -0.4341
 4941TIP3    H236315   6.203   4.587   2.663  0.0384  0.5617 -2.1774
 4942TIP3   OH236316   1.192   3.264  16.390 -0.1219  0.3599 -0.2636
 4942TIP3    H136317   1.114   3.290  16.341 -0.5030 -1.5628 -0.7403
 4942TIP3    H236318   1.164   3.266  16.482  0.0964  2.2835 -0.1941
 4943TIP3   OH236319   5.426   5.110   6.243 -0.1264 -0.2007 -0.4877
 4943TIP3    H136320   5.401   5.163   6.167  1.6273  0.5604 -0.5805
 4943TIP3    H236321   5.493   5.162   6.287  0.8133 -1.8427  0.0849
 4944TIP3   OH236322   0.253   0.252   0.209  0.1771 -0.7198 -0.2249
 4944TIP3    H136323   0.329   0.297   0.171  1.1009 -1.6352  0.4606
 4944TIP3    H236324   0.250   0.282   0.300 -0.1046 -0.9080 -0.1704
 4945TIP3   OH236325   4.740   1.737  17.307 -0.1578 -0.6874 -0.4173
 4945TIP3    H136326   4.817   1.794  17.299 -0.9098  0.6313  1.0101
 4945TIP3    H236327   4.745   1.678  17.232  4.0456 -2.9310  1.2924
 4946TIP3   OH236328   2.468   3.324  15.987 -0.3404  0.4470 -0.3908
 4946TIP3    H136329   2.544   3.274  16.018 -2.0370 -1.0862  1.5370
 4946TIP3    H236330   2.467   3.309  15.892  1.3535 -0.0535 -0.3677
 4947TIP3   OH236331   5.257   6.016   5.912 -0.1078 -0.3410  0.5771
 4947TIP3    H136332   5.271   6.029   5.818 -0.5946  2.4249  0.8053
 4947TIP3    H236333   5.254   5.921   5.923 -2.6773 -0.7921 -2.6068
 4948TIP3   OH236334   3.040   0.962   0.850  0.5785  0.4553 -0.3391
 4948TIP3    H136335   3.063   0.992   0.938  1.5299 -2.1532  0.3959
 4948TIP3    H236336   3.059   1.037   0.793  0.2787  2.0838  1.5935
 4949TIP3   OH236337   2.227   6.535   5.209  0.2789  0.1634  0.3332
 4949TIP3    H136338   2.164   6.597   5.245  0.3521 -0.4733  1.5971
 4949TIP3    H236339   2.229   6.555   5.115  0.7863  2.5258  0.7681
 4950TIP3   OH236340   4.533   4.861   5.243 -0.1816 -0.2288 -0.1991
 4950TIP3    H136341   4.568   4.936   5.292  1.1595 -1.5890  1.0247
 4950TIP3    H236342   4.447   4.845   5.281  0.0632 -0.1006  0.4233
 4951TIP3   OH236343   3.639   3.852  17.107  0.5941  0.3445  0.4797
 4951TIP3    H136344   3.600   3.926  17.154 -1.8210  0.1127 -1.0068
 4951TIP3    H236345   3.656   3.885  17.019 -3.7384 -1.5702 -1.3320
 4952TIP3   OH236346   0.323   5.474   2.387  0.1656  0.4575  0.4467
 4952TIP3    H136347   0.231   5.470   2.362  0.3990 -1.1901 -0.2934
 4952TIP3    H236348   0.338   5.567   2.407 -2.1233  0.4800  2.5802
 4953TIP3   OH236349   3.178   3.515   3.240 -0.3227  0.2526  0.2305
 4953TIP3    H136350   3.125   3.592   3.220 -2.5007 -1.2698 -0.2658
 4953TIP3    H236351   3.117   3.455   3.284  1.5797 -0.7627  1.6407
 4954TIP3   OH236352   5.788   0.323   5.256  0.5138  0.4553  0.1152
 4954TIP3    H136353   5.723   0.392   5.268 -0.7710 -0.4645 -1.1865
 4954TIP3    H236354   5.744   0.242   5.284  2.1651  0.1683  2.1115
 4955TIP3   OH236355   4.079   2.037  13.805 -0.0899 -0.5101  0.1507
 4955TIP3    H136356   4.107   2.116  13.760  1.4565 -1.2148 -0.1846
 4955TIP3    H236357   4.124   1.966  13.760 -0.4981 -1.4761  1.2050
 4956TIP3   OH236358   5.010   2.169  12.833  0.3951 -0.2349 -0.4731
 4956TIP3    H136359   4.999   2.101  12.899 -1.6960  0.1804 -0.3177
 4956TIP3    H236360   5.093   2.211  12.856 -0.1650 -0.2270  1.8147
 4957TIP3   OH236361   5.651   2.737   0.031  0.7408  0.1078 -0.0986
 4957TIP3    H136362   5.560   2.724   0.003  0.4175  1.5402  0.1744
 4957TIP3    H236363   5.701   2.736  -0.050  0.5716 -1.2615 -0.2028
 4958TIP3   OH236364   3.505   4.534   2.458 -0.0553  0.6338 -0.8401
 4958TIP3    H136365   3.497   4.449   2.415  0.8012  0.8472 -1.4491
 4958TIP3    H236366   3.557   4.587   2.397  1.0707  0.9956  0.3776
 4959TIP3   OH236367   4.982   0.485   5.351 -0.7192 -0.1780  0.0494
 4959TIP3    H136368   5.050   0.495   5.284  1.0956 -2.7087  1.3467
 4959TIP3    H236369   4.990   0.564   5.404  0.9626 -0.2025 -0.0964
 4960TIP3   OH236370   3.280   1.327   3.612 -0.8356 -0.6755 -0.9272
 4960TIP3    H136371   3.277   1.395   3.679  0.4707 -1.3656 -0.1084
 4960TIP3    H236372   3.200   1.339   3.561 -1.5978  0.2300  0.4160
 4961TIP3   OH236373   1.959   0.919   2.585  0.2562  0.0948  0.1165
 4961TIP3    H136374   2.010   0.838   2.587  1.6886  0.9548 -0.4117
 4961TIP3    H236375   1.937   0.931   2.493  0.8066  0.7454  0.0626
 4962TIP3   OH236376   0.756   0.490  17.190  0.3656 -0.0007 -0.2870
 4962TIP3    H136377   0.776   0.453  17.104  0.6103  0.8860 -0.6208
 4962TIP3    H236378   0.841   0.504  17.231  0.2452 -0.5061  0.1366
 4963TIP3   OH236379   2.414   1.044   0.073  0.5213 -0.1920  0.0328
 4963TIP3    H136380   2.499   1.071   0.105  1.0549 -0.0550 -1.4283
 4963TIP3    H236381   2.352   1.106   0.112  1.0151 -0.6114  1.5116
 4964TIP3   OH236382   5.218   3.773  11.693  0.3488 -0.3558 -0.2024
 4964TIP3    H136383   5.167   3.692  11.695  0.3588 -0.4126 -1.5262
 4964TIP3    H236384   5.207   3.810  11.781 -0.8706 -1.0498 -0.0361
 4965TIP3   OH236385   5.118   1.458  13.972 -0.1591  0.2759 -0.4097
 4965TIP3    H136386   5.148   1.378  14.015  0.4145  1.3568  1.2945
 4965TIP3    H236387   5.139   1.528  14.034 -1.0488  1.7086 -1.6595
 4966TIP3   OH236388   4.906   0.745  16.946  0.0882 -0.5267 -0.6858
 4966TIP3    H136389   4.939   0.811  17.007  0.8040  0.3748 -2.0022
 4966TIP3    H236390   4.950   0.664  16.972  0.8213 -0.0330 -0.3591
 4967TIP3   OH236391   4.336   1.484   6.188 -0.9668 -0.1707  0.4827
 4967TIP3    H136392   4.302   1.528   6.266 -1.8751  1.2477 -0.6550
 4967TIP3    H236393   4.262   1.432   6.156 -0.6827 -0.5376  0.4140
 4968TIP3   OH236394   1.436   2.259   5.916 -0.2051 -0.6206 -0.2373
 4968TIP3    H136395   1.393   2.182   5.877  0.2132 -0.2843 -1.4167
 4968TIP3    H236396   1.386   2.277   5.995 -1.8327 -0.6584 -1.1992
 4969TIP3   OH236397   4.804   4.688  15.582  0.6639  0.4041 -0.1101
 4969TIP3    H136398   4.897   4.681  15.606  0.1777  1.5166  2.3015
 4969TIP3    H236399   4.803   4.756  15.514  1.3852  2.3832  1.7465
 4970TIP3   OH236400   4.252   4.469   0.218  0.2456  0.2037 -0.1862
 4970TIP3    H136401   4.221   4.465   0.127  0.8139 -1.3438 -0.3387
 4970TIP3    H236402   4.175   4.499   0.268  0.2920  2.4175 -1.2894
 4971TIP3   OH236403   1.401   1.758  14.099  0.9309  0.0131  0.6713
 4971TIP3    H136404   1.394   1.816  14.175 -2.1229 -1.2240  1.4897
 4971TIP3    H236405   1.454   1.684  14.130 -0.1754 -0.4142  1.6122
 4972TIP3   OH236406   2.785   2.587  13.290 -0.3902  0.1570 -0.2609
 4972TIP3    H136407   2.708   2.604  13.345 -0.9304 -1.0646 -0.5995
 4972TIP3    H236408   2.781   2.493  13.272  0.5355  0.2886 -1.2603
 4973TIP3   OH236409   0.427   6.306  13.008  0.0056 -0.1668 -0.2923
 4973TIP3    H136410   0.480   6.370  12.961 -0.3920 -1.0927 -2.1175
 4973TIP3    H236411   0.336   6.332  12.991 -0.1543 -0.9534 -0.7357
 4974TIP3   OH236412   4.233   5.214   3.735  0.1178  0.4606  0.0375
 4974TIP3    H136413   4.246   5.228   3.829  0.5339 -0.7270  0.1787
 4974TIP3    H236414   4.139   5.195   3.726  0.1731  0.0252  0.3081
 4975TIP3   OH236415   3.228   3.098   4.487 -0.2695 -0.0553 -0.2286
 4975TIP3    H136416   3.247   3.159   4.416  0.4278  1.1175  0.9247
 4975TIP3    H236417   3.135   3.112   4.507  0.0600  1.2302  0.5330
 4976TIP3   OH236418   3.932   4.131  10.328 -0.7190 -0.0661 -1.1831
 4976TIP3    H136419   3.963   4.047  10.295  0.1652 -0.0366 -0.4687
 4976TIP3    H236420   3.862   4.109  10.389 -0.7261 -0.2549 -1.2602
 4977TIP3   OH236421   5.752   5.827   1.736  0.2071 -0.1394  0.5150
 4977TIP3    H136422   5.785   5.783   1.814  0.0198  0.4904  0.9698
 4977TIP3    H236423   5.748   5.920   1.762  0.7398  0.1652 -0.4557
 4978TIP3   OH236424   0.886   1.282  16.661 -0.3023  0.0667 -0.4242
 4978TIP3    H136425   0.907   1.363  16.708  0.1324  0.6211 -1.5453
 4978TIP3    H236426   0.951   1.278  16.591 -0.6607 -0.9784 -0.7091
 4979TIP3   OH236427   3.393   0.695  16.532 -0.0390  0.0197 -0.2733
 4979TIP3    H136428   3.430   0.606  16.529 -0.8296 -0.3394  0.2307
 4979TIP3    H236429   3.302   0.682  16.559 -0.0795  1.0145  0.1015
 4980TIP3   OH236430   6.349   6.340   3.339 -0.2637 -0.1293 -0.3880
 4980TIP3    H136431   6.284   6.395   3.296 -2.0503 -0.9744  1.0939
 4980TIP3    H236432   6.428   6.394   3.344 -0.5075  0.6129 -3.0343
 4981TIP3   OH236433   0.936   4.914  14.952  0.1563 -0.6177 -0.1930
 4981TIP3    H136434   0.985   4.914  15.034  0.8957  2.0212 -0.5461
 4981TIP3    H236435   0.933   4.822  14.926  3.4220 -1.1235  0.7728
 4982TIP3   OH236436   3.038   1.366  14.106 -0.2116 -0.0278 -0.3164
 4982TIP3    H136437   3.126   1.379  14.141 -0.6424  0.5841  0.6070
 4982TIP3    H236438   2.984   1.430  14.154 -1.4350 -1.4684  0.3255
 4983TIP3   OH236439   0.635   1.732   0.041  0.2197  0.6408  0.2851
 4983TIP3    H136440   0.729   1.749   0.037  0.4981 -0.7906  0.2276
 4983TIP3    H236441   0.615   1.726   0.135 -0.0802  2.1896  0.3460
 4984TIP3   OH236442   5.547   6.347   5.824 -0.0788 -0.0894  0.2400
 4984TIP3    H136443   5.571   6.258   5.850  2.2189  0.2261 -0.5909
 4984TIP3    H236444   5.624   6.400   5.845  0.3744  0.8919 -3.2399
 4985TIP3   OH236445   5.107   4.275  14.071  0.3831 -0.2831  0.5220
 4985TIP3    H136446   5.113   4.371  14.062 -1.1145 -0.2766 -0.8684
 4985TIP3    H236447   5.124   4.242  13.983 -0.6736 -1.1896  0.6353
 4986TIP3   OH236448   3.066   1.436   1.424  0.2982  0.7289 -0.3448
 4986TIP3    H136449   3.080   1.420   1.517 -1.3015  1.2871  0.0244
 4986TIP3    H236450   3.023   1.357   1.391  1.0198  0.4590 -0.6725
 4987TIP3   OH236451   3.667   6.279   3.314 -0.6391 -0.4801 -0.3836
 4987TIP3    H136452   3.588   6.242   3.355 -1.1860  0.2921 -0.7086
 4987TIP3    H236453   3.634   6.323   3.236  0.1229 -0.1339 -0.5154
 4988TIP3   OH236454   6.603   4.672  12.556 -0.5431 -0.0655 -0.1865
 4988TIP3    H136455   6.581   4.665  12.464 -0.1369 -1.0514 -0.2187
 4988TIP3    H236456   6.683   4.725  12.558  0.4559 -1.5044 -0.5664
 4989TIP3   OH236457   3.160   3.770   6.118  0.0812 -0.4659 -0.0192
 4989TIP3    H136458   3.154   3.865   6.111 -1.8923 -0.3904  1.8610
 4989TIP3    H236459   3.124   3.738   6.035 -1.5499  0.4380  0.3049
 4990TIP3   OH236460   3.937   2.640   6.220 -0.0982 -0.0123  0.1612
 4990TIP3    H136461   3.964   2.664   6.309 -1.2864  0.8130  0.3245
 4990TIP3    H236462   3.961   2.715   6.167 -0.8974  0.2012  0.0908
 4991TIP3   OH236463   5.234   1.300   0.990  0.1202  0.4633 -0.5109
 4991TIP3    H136464   5.150   1.256   0.999  1.0911 -1.1005  2.4964
 4991TIP3    H236465   5.265   1.277   0.903 -0.6161 -2.8052 -0.0523
 4992TIP3   OH236466   2.034   2.855  11.363 -0.3281 -0.5327  0.0914
 4992TIP3    H136467   1.944   2.822  11.368 -0.4994 -0.2947 -1.0679
 4992TIP3    H236468   2.062   2.861  11.454 -1.8601  0.4007  0.5427
 4993TIP3   OH236469   3.268   2.684  13.217  0.0682 -0.1194 -0.2129
 4993TIP3    H136470   3.278   2.591  13.195 -0.5872 -0.2659  0.0793
 4993TIP3    H236471   3.174   2.695  13.231  0.2981  0.2710  1.1737
 4994TIP3   OH236472   4.663   0.594   2.455 -0.1211  0.5633 -0.0273
 4994TIP3    H136473   4.697   0.574   2.543 -0.3286 -1.2701 -0.3114
 4994TIP3    H236474   4.666   0.689   2.449 -0.5380  0.7654  2.1474
 4995TIP3   OH236475   1.428   0.206  13.309 -0.4121  0.1797  0.5976
 4995TIP3    H136476   1.420   0.138  13.242  2.9563 -0.5761  0.7645
 4995TIP3    H236477   1.412   0.161  13.391  2.1529 -0.6467  0.7375
 4996TIP3   OH236478   1.822   2.651  12.383  0.6633 -0.2627 -0.1700
 4996TIP3    H136479   1.842   2.638  12.476  0.5087  1.0134  0.0518
 4996TIP3    H236480   1.903   2.683  12.345  0.7600 -0.8991 -0.5120
 4997TIP3   OH236481   0.741   0.424   1.720  0.2415 -0.1849  0.3121
 4997TIP3    H136482   0.816   0.474   1.753  1.5502 -0.5165 -1.9267
 4997TIP3    H236483   0.684   0.491   1.680 -0.6122  0.0428  1.8355
 4998TIP3   OH236484   2.612   4.591   0.745  0.4933 -0.0815  0.5010
 4998TIP3    H136485   2.688   4.536   0.763  1.5984  0.8595 -1.0171
 4998TIP3    H236486   2.649   4.670   0.705 -1.3066  0.2342 -0.6460
 4999TIP3   OH236487   6.645   2.914   4.975 -0.6904 -0.2106 -0.4481
 4999TIP3    H136488   6.738   2.892   4.968 -0.6173 -0.4119  0.9238
 4999TIP3    H236489   6.631   2.981   4.908  0.5930  0.3178 -0.2216
 5000TIP3   OH236490   6.563   6.162  15.804  0.2872  0.0163 -0.5099
 5000TIP3    H136491   6.655   6.186  15.818 -0.1092  0.3286  2.0032
 5000TIP3    H236492   6.521   6.244  15.779  0.6018 -0.0230 -1.1769
 5001TIP3   OH236493   5.698   0.328   2.054 -0.1311 -0.1683  0.3241
 5001TIP3    H136494   5.751   0.342   2.133  1.0625  1.5994 -0.7044
 5001TIP3    H236495   5.610   0.312   2.087  0.1781  1.3000  2.0324
 5002TIP3   OH236496   2.007   1.941  13.202 -0.1783 -0.3138 -0.3479
 5002TIP3    H136497   1.986   1.883  13.276  0.8668  1.1179  1.1474
 5002TIP3    H236498   1.996   2.029  13.237 -0.3881  0.4281 -2.1639
 5003TIP3   OH236499   2.765   4.078  16.423 -0.3166 -0.1132  0.0011
 5003TIP3    H136500   2.777   4.061  16.517 -0.5426 -2.8880 -0.3691
 5003TIP3    H236501   2.811   4.006  16.380 -0.2514  1.0856 -2.0390
 5004TIP3   OH236502   6.334   0.723  13.101 -0.2292  0.0702 -0.1815
 5004TIP3    H136503   6.359   0.802  13.149  0.8202  0.3098 -1.0908
 5004TIP3    H236504   6.414   0.671  13.096 -0.4659 -0.2318 -1.1120
 5005TIP3   OH236505   3.751   3.200   1.753  0.1403 -0.0147 -0.3169
 5005TIP3    H136506   3.755   3.131   1.819 -0.1403  0.9387  0.7381
 5005TIP3    H236507   3.760   3.281   1.803 -0.7986  0.7687 -1.3737
 5006TIP3   OH236508   5.650   0.499   2.576  0.3560  0.7302 -0.4239
 5006TIP3    H136509   5.720   0.486   2.640  2.5453  1.6850 -2.4586
 5006TIP3    H236510   5.630   0.593   2.583  1.0199  0.9686 -1.4458
 5007TIP3   OH236511   6.361   3.247   3.053 -0.2233 -0.4685 -0.0190
 5007TIP3    H136512   6.446   3.233   3.096 -0.1309 -1.3365 -0.4785
 5007TIP3    H236513   6.379   3.233   2.960 -0.2028  2.3210 -0.5344
 5008TIP3   OH236514   3.994   0.079   5.240  0.0229 -0.1811  0.1442
 5008TIP3    H136515   3.975   0.016   5.309 -0.5194  1.5533  1.6652
 5008TIP3    H236516   3.908   0.108   5.209  0.2117  1.3183  0.9433
 5009TIP3   OH236517   5.411   5.691   4.078  0.2872 -0.3451  0.3742
 5009TIP3    H136518   5.495   5.648   4.060  0.4584 -0.1634  0.7272
 5009TIP3    H236519   5.363   5.630   4.133 -0.3579 -1.0305 -0.9021
 5010TIP3   OH236520   3.690   0.229   0.164  0.6116  0.3686  0.1848
 5010TIP3    H136521   3.621   0.294   0.180 -1.7912 -1.9290 -0.1193
 5010TIP3    H236522   3.716   0.243   0.073  2.5466  2.9283  1.0175
 5011TIP3   OH236523   3.041   4.083   1.655  0.0263  0.0711  0.5142
 5011TIP3    H136524   3.101   4.036   1.597 -0.4201  0.6848 -0.4803
 5011TIP3    H236525   2.996   4.015   1.704  0.1017 -0.5012 -0.1910
 5012TIP3   OH236526   4.507   4.785  11.616 -0.1473  0.3524  0.1204
 5012TIP3    H136527   4.432   4.748  11.569 -0.3710  0.9567 -0.0031
 5012TIP3    H236528   4.572   4.714  11.617  0.0567  0.4824 -1.5078
 5013TIP3   OH236529   1.443   2.280  12.872  0.9717  0.0675 -0.4057
 5013TIP3    H136530   1.520   2.323  12.909  1.1517 -0.6957  0.1145
 5013TIP3    H236531   1.370   2.339  12.892  1.1806  0.0308  0.5139
 5014TIP3   OH236532   1.329   2.232   0.252 -0.2439 -0.1841 -0.0414
 5014TIP3    H136533   1.411   2.224   0.301  0.3315  0.6140 -0.8401
 5014TIP3    H236534   1.291   2.314   0.283 -1.0996 -0.8814  0.8198
 5015TIP3   OH236535   0.189   5.081  12.899 -0.4777 -0.9422 -0.1260
 5015TIP3    H136536   0.272   5.125  12.912 -0.0900 -1.7968  0.3344
 5015TIP3    H236537   0.139   5.141  12.843  0.4049 -0.3854 -0.3362
 5016TIP3   OH236538   0.087   0.377  13.182 -0.0874 -0.4107  0.2020
 5016TIP3    H136539   0.155   0.343  13.124 -0.7745  1.1638 -1.6352
 5016TIP3    H236540   0.012   0.319  13.167 -0.4108  0.2500 -0.9132
 5017TIP3   OH236541   3.536   0.756  12.450  0.2384 -0.1201 -0.0374
 5017TIP3    H136542   3.561   0.707  12.528  1.0154 -0.9851 -0.8117
 5017TIP3    H236543   3.442   0.740  12.439 -0.0390  0.6023  1.1121
 5018TIP3   OH236544   0.872   0.286   1.224 -0.1825 -0.2165  0.7865
 5018TIP3    H136545   0.914   0.318   1.143 -0.2750  2.3671  1.6705
 5018TIP3    H236546   0.933   0.312   1.293 -2.2754  1.9427  1.9371
 5019TIP3   OH236547   4.124   6.518  13.179  0.5598 -0.1076 -0.0621
 5019TIP3    H136548   4.107   6.467  13.100  3.3984 -1.4630  0.0727
 5019TIP3    H236549   4.199   6.573  13.157  0.6158  0.4044  1.3207
 5020TIP3   OH236550   2.656   5.919   6.142  0.3894 -0.0434 -0.0800
 5020TIP3    H136551   2.627   5.859   6.210 -0.5302  0.8216  0.3116
 5020TIP3    H236552   2.576   5.944   6.096  0.9001 -0.0172 -0.9898
 5021TIP3   OH236553   4.086   6.448  11.652  0.2243 -0.1846  0.2870
 5021TIP3    H136554   4.008   6.392  11.644 -1.5819  1.9947  1.4910
 5021TIP3    H236555   4.062   6.530  11.609  2.1200  0.3488  0.1397
 5022TIP3   OH236556   3.594   0.969  15.492  0.2305 -0.2263  0.2543
 5022TIP3    H136557   3.542   0.890  15.505 -0.4026  0.3484  1.4106
 5022TIP3    H236558   3.540   1.025  15.438  0.9848 -0.8400 -1.1910
 5023TIP3   OH236559   0.196   5.057   6.200 -0.4290  0.2770 -0.6729
 5023TIP3    H136560   0.274   5.057   6.255 -0.6860 -0.8767 -0.2874
 5023TIP3    H236561   0.176   4.965   6.186 -1.2606  0.5584 -1.4410
 5024TIP3   OH236562   5.292   6.067   3.573 -0.4645  0.0252 -0.1239
 5024TIP3    H136563   5.238   6.036   3.501 -0.1121 -1.8415  0.3512
 5024TIP3    H236564   5.314   5.987   3.622 -0.0442  1.1366  1.5898
 5025TIP3   OH236565   6.557   4.661  13.309 -0.2805 -0.6881  0.5740
 5025TIP3    H136566   6.576   4.754  13.316 -1.4918  0.0202 -3.2353
 5025TIP3    H236567   6.643   4.619  13.315  0.5346  0.8630  0.2776
 5026TIP3   OH236568   3.708   6.559  16.077  0.6119  0.2851 -0.3671
 5026TIP3    H136569   3.693   6.634  16.020 -2.3028  0.3402  0.3014
 5026TIP3    H236570   3.735   6.489  16.019  1.4743  1.3109 -1.2503
 5027TIP3   OH236571   2.469   2.727   1.849  0.1374 -0.0263 -0.0080
 5027TIP3    H136572   2.488   2.740   1.756 -1.5196  0.9293 -0.2548
 5027TIP3    H236573   2.376   2.704   1.851  0.6385 -2.3164  1.2568
 5028TIP3   OH236574   1.658   1.018   5.091 -0.6577 -0.3366  0.2600
 5028TIP3    H136575   1.663   0.950   5.158  1.2203 -0.7859 -0.2898
 5028TIP3    H236576   1.716   1.087   5.122 -1.2726  0.3170  0.0005
 5029TIP3   OH236577   3.491   2.538  10.748 -0.1255  0.7419  0.4662
 5029TIP3    H136578   3.440   2.613  10.719  0.4888  0.3363 -1.8042
 5029TIP3    H236579   3.427   2.482  10.793 -1.6939  0.4214 -1.9688
 5030TIP3   OH236580   1.695   1.163  15.546 -0.0374  0.8030  1.0323
 5030TIP3    H136581   1.616   1.134  15.591 -0.8500  1.0996 -0.1461
 5030TIP3    H236582   1.739   1.082  15.519 -1.5387  0.5630 -0.9566
 5031TIP3   OH236583   4.331   1.688  11.795  0.2022  0.5260  0.7031
 5031TIP3    H136584   4.258   1.747  11.773 -0.5514 -0.7762 -0.4507
 5031TIP3    H236585   4.364   1.659  11.711  0.4241 -0.8501  1.2426
 5032TIP3   OH236586   2.890   1.756  14.552  0.2655  0.4796  0.0417
 5032TIP3    H136587   2.952   1.725  14.618  0.1044 -1.1412 -0.5276
 5032TIP3    H236588   2.812   1.780  14.601  0.6040  0.5520  0.5496
 5033TIP3   OH236589   4.358   0.098  13.465 -0.0325 -0.2859 -0.8302
 5033TIP3    H136590   4.314   0.019  13.495  0.6110 -1.0635 -1.8666
 5033TIP3    H236591   4.441   0.098  13.512 -0.3291  0.1621 -0.2998
 5034TIP3   OH236592   3.319   2.575  14.885 -0.5195 -0.8772 -0.2545
 5034TIP3    H136593   3.404   2.554  14.925 -0.3256  0.1949 -0.0654
 5034TIP3    H236594   3.340   2.608  14.798 -0.5281  1.3607  0.5174
 5035TIP3   OH236595   0.068   5.506  16.922  0.0361 -0.3730 -0.0586
 5035TIP3    H136596   0.095   5.597  16.913 -0.8238  0.0340  1.3012
 5035TIP3    H236597  -0.023   5.505  16.894  0.0096 -0.7978  0.0358
 5036TIP3   OH236598   1.792   2.950  13.407 -0.7188 -0.0985 -0.1652
 5036TIP3    H136599   1.738   2.960  13.329  0.7552  1.0730 -1.0974
 5036TIP3    H236600   1.730   2.954  13.480 -1.8239  2.3101 -1.1215
 5037TIP3   OH236601   3.936   1.600   1.820  0.1526  0.3205  0.1660
 5037TIP3    H136602   3.847   1.621   1.848 -1.4597 -1.5703 -2.9809
 5037TIP3    H236603   3.935   1.505   1.806  3.7749 -0.4154  3.2890
 5038TIP3   OH236604   0.182   4.739   2.931 -0.1660  0.4400  0.5278
 5038TIP3    H136605   0.246   4.789   2.881 -1.7788  0.2103 -2.0054
 5038TIP3    H236606   0.232   4.671   2.975  1.5539  1.6730  0.5536
 5039TIP3   OH236607   3.966   2.205   2.597  0.3417  0.1728  0.1469
 5039TIP3    H136608   3.910   2.247   2.662  0.5678 -1.1529  1.2215
 5039TIP3    H236609   4.028   2.152   2.647 -1.2080 -3.1070 -1.1103
 5040TIP3   OH236610   5.050   6.321  12.398  0.2645  0.6048  0.1683
 5040TIP3    H136611   5.094   6.305  12.482  0.6273 -0.6597 -0.2299
 5040TIP3    H236612   5.097   6.395  12.360 -0.5490  1.8488  1.4991
 5041TIP3   OH236613   4.247   3.606  14.609 -0.1392 -0.1027 -0.3953
 5041TIP3    H136614   4.151   3.602  14.617 -0.4519  1.5879 -2.4661
 5041TIP3    H236615   4.273   3.676  14.669 -0.2434 -0.1599 -0.2814
 5042TIP3   OH236616   6.269   0.320  11.608 -0.2967  0.1891  0.3302
 5042TIP3    H136617   6.280   0.309  11.514 -1.1342  1.3871  0.0702
 5042TIP3    H236618   6.349   0.364  11.637 -0.9801  1.8609 -0.2256
 5043TIP3   OH236619   2.562   6.484  12.995 -0.3717 -0.1480  0.3260
 5043TIP3    H136620   2.475   6.498  12.959  0.2463  2.3092 -0.4496
 5043TIP3    H236621   2.554   6.507  13.088 -0.3020  1.6204 -0.0592
 5044TIP3   OH236622   2.702   2.095   5.360  0.1468  0.3889  0.4509
 5044TIP3    H136623   2.639   2.152   5.405 -0.2476 -1.0683  1.8569
 5044TIP3    H236624   2.648   2.029   5.317  0.6491 -0.6084  1.2951
 5045TIP3   OH236625   5.230   4.787  11.237  0.6725  0.8742  0.2544
 5045TIP3    H136626   5.135   4.799  11.244  0.7342  0.3360  2.6747
 5045TIP3    H236627   5.249   4.808  11.145 -2.0590 -0.9881 -0.8784
 5046TIP3   OH236628   3.981   0.417   4.401  0.5956 -0.0585  0.5709
 5046TIP3    H136629   3.961   0.323   4.402  0.9190 -0.1427 -0.3481
 5046TIP3    H236630   4.061   0.425   4.453  0.4816 -0.2622  0.7817
 5047TIP3   OH236631   4.785   2.453  11.509  0.1607 -0.0177  0.1209
 5047TIP3    H136632   4.808   2.540  11.475  1.1237 -0.9659 -1.8067
 5047TIP3    H236633   4.693   2.442  11.485  0.2462  0.1690 -0.3013
 5048TIP3   OH236634   6.624   4.673   2.101 -0.0438  0.0404 -0.5653
 5048TIP3    H136635   6.617   4.756   2.053  1.9692 -0.5892 -2.1116
 5048TIP3    H236636   6.544   4.626   2.078 -0.1413  0.6463 -1.5695
 5049TIP3   OH236637   3.190   1.712   4.572 -0.0598  0.3879 -0.0536
 5049TIP3    H136638   3.230   1.787   4.616  1.0844 -0.3387  0.2086
 5049TIP3    H236639   3.259   1.646   4.571 -0.3916  0.0280 -2.0826
 5050TIP3   OH236640   4.267   4.764   3.677  0.4139  0.5840 -0.0456
 5050TIP3    H136641   4.187   4.752   3.627  0.2341 -0.5549  0.4725
 5050TIP3    H236642   4.312   4.836   3.634 -0.2756  0.3857 -1.1390
 5051TIP3   OH236643   6.139   1.660   4.617  0.4063  0.5421 -0.2895
 5051TIP3    H136644   6.150   1.586   4.558 -1.2241  1.1533 -1.4620
 5051TIP3    H236645   6.129   1.621   4.704 -0.6387 -0.6364 -0.9096
 5052TIP3   OH236646   4.260   5.004  13.036  0.0128  0.4063  0.4198
 5052TIP3    H136647   4.177   5.047  13.058 -0.3071  0.7809 -1.3468
 5052TIP3    H236648   4.238   4.946  12.963  1.1842  0.0373  0.3398
 5053TIP3   OH236649   4.749   5.362   1.181 -0.2085 -0.0641 -0.4726
 5053TIP3    H136650   4.779   5.429   1.120  0.2241 -0.9216 -1.2246
 5053TIP3    H236651   4.782   5.280   1.144 -1.6472 -0.8116 -0.1471
 5054TIP3   OH236652   5.959   1.670  16.973 -0.1945 -0.4428 -0.1182
 5054TIP3    H136653   5.879   1.637  17.012 -2.1479  0.9942 -2.6462
 5054TIP3    H236654   5.946   1.765  16.967  1.0257 -0.3340 -1.9013
 5055TIP3   OH236655   6.622   6.078   0.023  0.2571  0.2755  0.3163
 5055TIP3    H136656   6.622   5.984   0.008  0.2097  0.2475  0.4862
 5055TIP3    H236657   6.715   6.102   0.029  0.3374  0.5374 -1.5160
 5056TIP3   OH236658   5.657   0.012   0.845  0.7240  0.2188 -0.3009
 5056TIP3    H136659   5.696  -0.074   0.862  0.5968 -0.0205 -1.1919
 5056TIP3    H236660   5.628   0.042   0.931 -0.3813 -1.1914 -0.1495
 5057TIP3   OH236661   6.639   5.148   5.088  0.8429  0.0297 -0.8148
 5057TIP3    H136662   6.582   5.193   5.025 -0.3168 -0.3475 -0.0582
 5057TIP3    H236663   6.702   5.215   5.115  0.3001  0.6751 -1.1152
 5058TIP3   OH236664   0.332   0.173   5.827  0.0706 -0.0137  0.3459
 5058TIP3    H136665   0.404   0.229   5.799 -0.3154  1.2241  1.7403
 5058TIP3    H236666   0.374   0.089   5.846  0.9792  0.3715  0.1059
 5059TIP3   OH236667   0.118   5.459  17.179 -0.0186  0.6385 -0.3865
 5059TIP3    H136668   0.206   5.423  17.171  1.0287  2.8234  0.4640
 5059TIP3    H236669   0.101   5.500  17.095  0.4971  1.6577 -0.0093
 5060TIP3   OH236670   0.087   4.647   5.125 -0.8013  0.2708 -0.2252
 5060TIP3    H136671   0.085   4.618   5.216  0.0194  1.3071  0.1378
 5060TIP3    H236672   0.163   4.603   5.087 -1.4995 -0.6507 -0.6012
 5061TIP3   OH236673   2.824   1.698   5.734 -0.3153 -0.6045 -0.5545
 5061TIP3    H136674   2.914   1.669   5.717 -0.3960 -1.7346  0.7930
 5061TIP3    H236675   2.833   1.793   5.748  0.4542 -0.4843 -1.6758
 5062TIP3   OH236676   4.120   4.336  12.055  0.1842  0.1172  0.0017
 5062TIP3    H136677   4.141   4.410  11.998  1.4457  1.0967  1.6673
 5062TIP3    H236678   4.202   4.317  12.100 -0.1235 -2.2786 -0.3117
 5063TIP3   OH236679   1.627   1.534  11.775 -0.0957  0.3501 -0.5016
 5063TIP3    H136680   1.700   1.473  11.761 -1.1882 -0.5316 -3.0854
 5063TIP3    H236681   1.632   1.594  11.700 -1.0972  1.2500  0.1253
 5064TIP3   OH236682   4.894   0.224   5.880  0.2055  0.4010 -1.0062
 5064TIP3    H136683   4.986   0.206   5.862 -0.1737 -2.4165 -0.6129
 5064TIP3    H236684   4.888   0.230   5.976 -0.1206 -0.4530 -0.9561
 5065TIP3   OH236685   3.598   3.486   4.537 -0.2414 -0.1995  0.3658
 5065TIP3    H136686   3.521   3.462   4.590 -0.2051 -0.7691  0.1668
 5065TIP3    H236687   3.579   3.449   4.451 -1.0953  2.1735 -0.5497
 5066TIP3   OH236688   3.407   6.209  11.706 -0.0121  0.5310  0.3928
 5066TIP3    H136689   3.425   6.245  11.792 -0.5855  0.9688  0.3372
 5066TIP3    H236690   3.483   6.234  11.653  2.2294 -2.9226  1.6388
 5067TIP3   OH236691   6.343   4.257  13.404 -0.3811 -0.3174  0.1748
 5067TIP3    H136692   6.413   4.254  13.338 -0.8314 -0.1433 -0.3203
 5067TIP3    H236693   6.346   4.170  13.445  0.4770 -0.1267  0.5430
 5068TIP3   OH236694   0.674   5.687   2.557 -0.0458  0.1029  0.0195
 5068TIP3    H136695   0.725   5.625   2.504 -1.9713 -0.0019 -1.8576
 5068TIP3    H236696   0.624   5.632   2.617  0.1675  0.0362  0.1386
 5069TIP3   OH236697   0.756   4.235   0.727  0.5611  0.1650  0.1837
 5069TIP3    H136698   0.837   4.200   0.766 -0.1196 -0.5835  0.9730
 5069TIP3    H236699   0.747   4.187   0.644  0.3669 -0.5445  0.6065
 5070TIP3   OH236700   6.322   5.536   1.257 -0.3171 -0.3860  0.0965
 5070TIP3    H136701   6.283   5.496   1.335 -1.0606 -0.2071 -0.1678
 5070TIP3    H236702   6.262   5.607   1.234 -0.4984 -0.8735 -1.0431
 5071TIP3   OH236703   0.568   2.097   1.806 -0.0566  0.6365  0.3737
 5071TIP3    H136704   0.530   2.180   1.833 -1.5334  0.0794  0.0685
 5071TIP3    H236705   0.534   2.033   1.869 -1.3132 -0.2137 -1.1272
 5072TIP3   OH236706   4.024   4.529   3.279 -0.7464 -0.0300 -0.4792
 5072TIP3    H136707   4.093   4.559   3.339 -0.4919 -1.3044 -0.1177
 5072TIP3    H236708   3.951   4.588   3.296 -0.2395  0.4299  0.1719
 5073TIP3   OH236709   6.480   4.324   0.429  0.1899  0.1879 -0.3883
 5073TIP3    H136710   6.507   4.324   0.521 -1.3530 -1.0628  0.1177
 5073TIP3    H236711   6.520   4.402   0.392 -0.0200  1.3264  1.6328
 5074TIP3   OH236712   6.409   2.919  16.150 -0.0141  0.7768 -0.4598
 5074TIP3    H136713   6.490   2.924  16.101 -0.5234  0.9158 -1.2982
 5074TIP3    H236714   6.374   3.008  16.148 -0.5394  0.5694 -0.7157
 5075TIP3   OH236715   6.383   4.465   2.912  0.3791  0.4892  0.6288
 5075TIP3    H136716   6.455   4.471   2.975 -0.0138 -0.2030  1.1604
 5075TIP3    H236717   6.311   4.512   2.953 -0.0785 -0.5069  1.0005
 5076TIP3   OH236718   3.898   0.803   0.785 -0.5800  0.3515  0.4304
 5076TIP3    H136719   3.823   0.754   0.818 -0.0102 -1.5059 -0.8248
 5076TIP3    H236720   3.883   0.809   0.690  2.0884 -2.6867 -0.3897
 5077TIP3   OH236721   4.442   3.600  11.670  0.2292 -0.0993  0.6026
 5077TIP3    H136722   4.400   3.545  11.604 -0.2820 -0.9468  1.6139
 5077TIP3    H236723   4.507   3.651  11.620 -0.6126 -0.2056 -0.6546
 5078TIP3   OH236724   3.134   6.617  16.833  0.3735  0.3204 -0.4521
 5078TIP3    H136725   3.191   6.646  16.904 -0.1073 -1.4008  0.7177
 5078TIP3    H236726   3.048   6.609  16.874 -0.1167  0.1808 -1.4779
 5079TIP3   OH236727   6.254   6.030  10.850 -1.0280  0.0836 -0.5583
 5079TIP3    H136728   6.168   6.001  10.819 -1.5064  0.9316 -0.0541
 5079TIP3    H236729   6.310   5.953  10.839 -1.6779 -0.2693 -1.5541
 5080TIP3   OH236730   2.468   1.438   5.661 -0.6112 -0.3320  0.7869
 5080TIP3    H136731   2.531   1.490   5.611 -2.2370  1.4357  0.4403
 5080TIP3    H236732   2.521   1.386   5.721  1.2837 -0.8986 -1.2593
 5081TIP3   OH236733   5.583   3.874  10.739  0.9154 -0.3734 -0.3368
 5081TIP3    H136734   5.578   3.958  10.785 -0.2103 -0.4787 -0.2507
 5081TIP3    H236735   5.674   3.870  10.708  1.5010  0.0053  1.2560
 5082TIP3   OH236736   0.912   4.785   3.976  0.3656 -0.0330  0.0495
 5082TIP3    H136737   0.911   4.802   3.882  0.1314  1.1760  0.2483
 5082TIP3    H236738   1.002   4.759   3.995  0.5145  0.1054 -0.4434
 5083TIP3   OH236739   4.012   2.556   2.031  0.3283  0.5250 -0.4433
 5083TIP3    H136740   3.925   2.544   2.069  0.6866  0.8124  0.4941
 5083TIP3    H236741   4.004   2.636   1.979  0.1026  0.6826 -0.1679
 5084TIP3   OH236742   2.198   1.477   5.592 -0.6028  0.6025  0.0523
 5084TIP3    H136743   2.193   1.507   5.501  0.3651  1.5829  0.2974
 5084TIP3    H236744   2.289   1.449   5.602 -0.9375 -0.3359  0.4751
 5085TIP3   OH236745   6.559   6.472  10.937 -0.2887  0.2213 -0.0751
 5085TIP3    H136746   6.619   6.429  10.876 -1.6003 -0.2567 -1.0513
 5085TIP3    H236747   6.498   6.403  10.963  0.4035  0.3288  2.0472
 5086TIP3   OH236748   1.194   1.030  12.764  0.1978 -0.1622  0.1071
 5086TIP3    H136749   1.115   1.084  12.768 -0.1765 -0.6733 -0.3213
 5086TIP3    H236750   1.198   1.001  12.673  0.1943 -1.1524  0.4130
 5087TIP3   OH236751   3.650   1.825  12.136 -0.1575  0.1004  0.5554
 5087TIP3    H136752   3.744   1.837  12.125 -0.1653 -1.3624 -2.2832
 5087TIP3    H236753   3.611   1.897  12.087 -0.5533  0.8840  1.9874
 5088TIP3   OH236754   1.178   4.619   6.485 -0.0185 -0.4466  0.8392
 5088TIP3    H136755   1.115   4.569   6.432 -1.5581  0.8793  1.3438
 5088TIP3    H236756   1.228   4.552   6.532 -0.3454 -1.5666 -0.3433
 5089TIP3   OH236757   1.973   2.510   5.524  0.1450  0.3622  0.3731
 5089TIP3    H136758   2.011   2.598   5.520  0.2185  0.3908  1.4481
 5089TIP3    H236759   1.879   2.525   5.535  0.1731  0.3170  0.6971
 5090TIP3   OH236760   5.861   0.820   1.021  0.6074 -0.3718  0.0018
 5090TIP3    H136761   5.946   0.833   0.979  0.1272  0.1337 -0.8350
 5090TIP3    H236762   5.797   0.842   0.953 -0.1949  1.0672  1.1841
 5091TIP3   OH236763   4.487   3.109  15.529  0.4807 -0.0264  0.6457
 5091TIP3    H136764   4.433   3.115  15.450 -1.7644  1.0630  2.1227
 5091TIP3    H236765   4.436   3.054  15.588  0.6799  1.4544  2.2905
 5092TIP3   OH236766   3.480   2.522  17.225  0.4025 -0.5937 -0.2517
 5092TIP3    H136767   3.525   2.606  17.217  1.1967 -0.9066  0.6554
 5092TIP3    H236768   3.390   2.540  17.198  0.5532  0.5554 -0.0395
 5093TIP3   OH236769   6.356   4.976  16.726  0.3808  0.1408  0.7719
 5093TIP3    H136770   6.312   4.920  16.791 -0.6597  0.2788  0.2179
 5093TIP3    H236771   6.416   4.917  16.681  1.4492  0.1380  2.1334
 5094TIP3   OH236772   6.397   3.992  17.334  0.3772  0.3830  0.3114
 5094TIP3    H136773   6.438   3.947  17.408  0.7264  0.3771  0.1196
 5094TIP3    H236774   6.427   4.083  17.342  0.2542  0.4256  0.2898
 5095TIP3   OH236775   2.490   1.256  16.403  0.2836  0.5826  0.5187
 5095TIP3    H136776   2.577   1.240  16.367  0.3430  1.1508  0.3908
 5095TIP3    H236777   2.430   1.219  16.338  0.3786  1.9593 -0.3909
 5096TIP3   OH236778   0.225   0.107  17.068  0.5345 -0.6084 -0.5932
 5096TIP3    H136779   0.279   0.186  17.066 -1.0552  0.5031 -1.9967
 5096TIP3    H236780   0.162   0.123  17.137 -0.6957  0.0235 -1.8227
 5097TIP3   OH236781   5.604   4.063  16.154 -0.3408  0.1112  0.2372
 5097TIP3    H136782   5.617   4.110  16.072  1.3046  0.7655  0.8264
 5097TIP3    H236783   5.561   3.982  16.129 -1.6783  1.1636 -1.0158
 5098TIP3   OH236784   1.898   0.718  16.027  0.1421 -0.2154  0.0819
 5098TIP3    H136785   1.826   0.709  16.089  1.0223  0.0541  1.1841
 5098TIP3    H236786   1.966   0.765  16.076  2.0086 -2.5602 -0.0870
 5099TIP3   OH236787   6.414   1.972  12.818 -0.0273 -0.2240 -0.2661
 5099TIP3    H136788   6.468   1.977  12.739  1.3460 -2.7685  0.3746
 5099TIP3    H236789   6.368   1.888  12.810  1.4105 -1.3812  2.2756
 5100TIP3   OH236790   1.818   2.739  12.868 -0.5263 -0.1210 -0.1993
 5100TIP3    H136791   1.830   2.706  12.779  1.1072  0.1843 -0.1178
 5100TIP3    H236792   1.890   2.701  12.918 -1.3361 -0.1841  0.9894
 5101TIP3   OH236793   2.062   0.206   1.854  0.3293  0.4797 -0.0778
 5101TIP3    H136794   2.041   0.121   1.816 -1.8400  1.0893 -0.3755
 5101TIP3    H236795   2.148   0.228   1.818  0.0722 -0.7057 -1.5148
 5102TIP3   OH236796   5.303   0.805   3.781 -0.2709 -0.1395  0.6850
 5102TIP3    H136797   5.269   0.756   3.706 -0.7121  0.4813  0.4739
 5102TIP3    H236798   5.327   0.890   3.745 -1.7564  0.6606  1.4766
 5103TIP3   OH236799   3.099   6.480  11.550  0.3821  0.3081 -0.1905
 5103TIP3    H136800   3.180   6.429  11.542 -0.3636 -1.1804  1.1769
 5103TIP3    H236801   3.060   6.475  11.462  1.1836  0.0172 -0.5471
 5104TIP3   OH236802   4.019   1.286  13.180 -0.0201  0.5708 -0.8670
 5104TIP3    H136803   3.934   1.262  13.216 -0.6897  2.0683 -1.3665
 5104TIP3    H236804   4.064   1.329  13.252 -0.5093  1.6125 -1.1627
 5105TIP3   OH236805   3.070   2.711   6.335  0.0764  0.5002  0.2100
 5105TIP3    H136806   3.052   2.664   6.417  3.2966  0.5585  1.0723
 5105TIP3    H236807   3.122   2.650   6.283 -1.9108  0.4642 -1.9088
 5106TIP3   OH236808   0.643   3.895   0.703 -0.1617 -0.2749 -0.1016
 5106TIP3    H136809   0.674   3.952   0.774 -0.1326 -2.1977  1.5187
 5106TIP3    H236810   0.643   3.951   0.625  1.0808  1.5606  1.1451
 5107TIP3   OH236811   3.890   2.502   6.582 -0.1310 -0.0690  0.2167
 5107TIP3    H136812   3.862   2.591   6.602 -1.7363 -0.8196  1.6399
 5107TIP3    H236813   3.976   2.493   6.623  0.3143  0.9960 -0.4675
 5108TIP3   OH236814   1.380   0.713  14.579  0.3582  0.4269  0.7426
 5108TIP3    H136815   1.422   0.789  14.618 -0.0915  0.4496  1.1952
 5108TIP3    H236816   1.319   0.681  14.646  0.3350 -0.1628  0.4535
 5109TIP3   OH236817   0.231   1.271  15.647 -0.0567 -0.5715 -0.1256
 5109TIP3    H136818   0.280   1.311  15.576 -0.7717 -1.1023 -0.9331
 5109TIP3    H236819   0.145   1.250  15.610 -0.5178 -0.6796  0.9423
 5110TIP3   OH236820   1.775   2.265   5.952 -0.4977  0.0521 -0.1759
 5110TIP3    H136821   1.818   2.272   5.866 -0.2176 -1.2487 -0.1706
 5110TIP3    H236822   1.844   2.236   6.011 -0.8946  0.0826  0.3078
 5111TIP3   OH236823   5.941   3.777  17.078 -0.5331  0.1343 -0.4714
 5111TIP3    H136824   5.871   3.834  17.046  0.4029  0.3479 -2.2784
 5111TIP3    H236825   5.987   3.830  17.143 -2.8375 -0.5128  1.8364
 5112TIP3   OH236826   5.042   1.382   4.365 -0.0526 -0.0877  0.0652
 5112TIP3    H136827   5.130   1.345   4.368 -0.5039 -1.1857  0.5898
 5112TIP3    H236828   5.053   1.474   4.386  1.1859  0.2505 -1.8114
 5113TIP3   OH236829   0.655   5.351   2.304 -0.6685 -0.2449  0.0229
 5113TIP3    H136830   0.674   5.294   2.379  3.1028 -2.9106 -2.5504
 5113TIP3    H236831   0.631   5.290   2.234 -1.7969  1.9310 -1.5981
 5114TIP3   OH236832   2.473   2.406   2.935 -0.3484 -0.2808 -0.3979
 5114TIP3    H136833   2.490   2.463   2.860  1.7918 -0.7310 -0.3249
 5114TIP3    H236834   2.527   2.442   3.005 -0.9317 -0.9222  0.4047
 5115TIP3   OH236835   1.626   4.345   1.236 -0.3689  0.2422 -0.4529
 5115TIP3    H136836   1.553   4.290   1.267 -0.6674  0.8797 -0.0029
 5115TIP3    H236837   1.595   4.435   1.250  0.7702  0.5270  0.3782
 5116TIP3   OH236838   4.288   3.024   3.202  0.1173 -0.2311 -0.3174
 5116TIP3    H136839   4.232   3.027   3.125 -2.4919 -0.0865  1.4295
 5116TIP3    H236840   4.248   2.958   3.259  0.3695  1.4305  1.9648
 5117TIP3   OH236841   3.096   5.386   3.517  0.2896  0.1592 -0.2397
 5117TIP3    H136842   3.029   5.454   3.514 -1.0807 -1.1451 -0.8676
 5117TIP3    H236843   3.157   5.415   3.585 -1.0582  1.2745  0.5476
 5118TIP3   OH236844   0.057   0.265   1.120  0.0680 -0.2491  0.1277
 5118TIP3    H136845   0.021   0.217   1.195  1.0148 -1.1232  0.0522
 5118TIP3    H236846   0.145   0.290   1.148  1.3030 -2.4834 -1.3864
 5119TIP3   OH236847   3.722   0.109  14.282  0.2888 -0.2856  0.4572
 5119TIP3    H136848   3.655   0.074  14.223  0.3083  2.2557 -1.1904
 5119TIP3    H236849   3.675   0.131  14.362 -0.7992  1.0194 -0.5053
 5120TIP3   OH236850   3.047   0.549   1.917 -0.2695 -0.0114  0.0103
 5120TIP3    H136851   3.086   0.482   1.861 -3.7494  0.0006 -2.7713
 5120TIP3    H236852   3.122   0.601   1.948  2.0765 -1.3096 -2.9615
 5121TIP3   OH236853   1.910   0.908  17.450 -0.4524 -0.5739  0.2579
 5121TIP3    H136854   1.854   0.850  17.502 -1.1754 -0.6257 -0.5519
 5121TIP3    H236855   1.863   0.918  17.367  0.7493 -0.6146 -0.4440
 5122TIP3   OH236856   5.663   0.769  13.221 -0.0194  0.4759 -0.2500
 5122TIP3    H136857   5.568   0.772  13.207  0.2048 -1.3079 -2.7848
 5122TIP3    H236858   5.674   0.710  13.296 -0.8848 -2.5049 -2.2948
 5123TIP3   OH236859   3.884   6.474   2.874  0.0554  0.0364  0.4464
 5123TIP3    H136860   3.906   6.383   2.857  1.2466 -0.2704  3.0874
 5123TIP3    H236861   3.854   6.508   2.790  1.4114 -2.2470 -1.0640
 5124TIP3   OH236862   4.159   5.309  11.303 -0.4230 -0.3252 -0.4155
 5124TIP3    H136863   4.214   5.334  11.229  0.5996 -1.1531  0.0412
 5124TIP3    H236864   4.069   5.320  11.271 -0.0327  1.8459 -0.9094
 5125TIP3   OH236865   6.762   4.448  13.314 -0.2502 -0.6303 -0.2198
 5125TIP3    H136866   6.702   4.376  13.332 -0.0501 -0.9688 -0.8872
 5125TIP3    H236867   6.832   4.409  13.263  0.4088 -0.1823  0.3225
 5126TIP3   OH236868   0.625   5.296  12.552 -0.3111 -0.2310 -0.4387
 5126TIP3    H136869   0.656   5.217  12.595 -0.2922 -0.6033 -1.1185
 5126TIP3    H236870   0.675   5.301  12.470 -1.2545 -0.2650 -1.0422
 5127TIP3   OH236871   5.716   5.023   2.219 -0.6789 -0.5349  0.7222
 5127TIP3    H136872   5.795   4.980   2.249 -1.1352 -0.6603  1.7827
 5127TIP3    H236873   5.733   5.117   2.230  0.5796 -0.2902 -2.2305
 5128TIP3   OH236874   1.713   5.632   1.257  0.1632 -0.6124 -0.4547
 5128TIP3    H136875   1.711   5.591   1.170  2.3832 -1.7779 -0.0557
 5128TIP3    H236876   1.756   5.716   1.243 -2.5937  0.7991 -0.9605
 5129TIP3   OH236877   4.168   3.283   1.458  0.1936 -0.0592 -0.0523
 5129TIP3    H136878   4.115   3.239   1.525  2.6255 -1.3571  1.1479
 5129TIP3    H236879   4.220   3.212   1.419  1.1347  1.1660 -1.0890
 5130TIP3   OH236880   3.986   6.350  14.274  0.2091  0.3547 -1.1929
 5130TIP3    H136881   4.056   6.286  14.289  1.4889  1.8239 -0.6080
 5130TIP3    H236882   3.939   6.353  14.357 -0.4386 -0.4782 -1.5182
 5131TIP3   OH236883   0.521   5.569  11.826  0.1951  0.0587 -0.0788
 5131TIP3    H136884   0.484   5.481  11.822  0.1638  0.0422  0.4557
 5131TIP3    H236885   0.531   5.596  11.735 -1.9574  0.4018 -0.2726
 5132TIP3   OH236886   0.360   2.761   1.054  0.5282  0.0137 -0.1075
 5132TIP3    H136887   0.328   2.795   1.138 -1.1058 -1.5626 -0.0316
 5132TIP3    H236888   0.313   2.812   0.988  1.4772  0.9462 -0.0835
 5133TIP3   OH236889   5.296   5.505   1.633  0.7202  0.6801  0.6390
 5133TIP3    H136890   5.338   5.502   1.547  0.9455 -0.3312  0.7705
 5133TIP3    H236891   5.249   5.588   1.634  0.2045  0.4328 -0.7053
 5134TIP3   OH236892   3.412   2.443  11.801  0.1055 -0.0731  0.4637
 5134TIP3    H136893   3.386   2.444  11.893  0.2845  0.7889  0.5138
 5134TIP3    H236894   3.508   2.447  11.803  0.1320 -0.5102  0.2421
 5135TIP3   OH236895   2.327   2.697   2.724  0.2676  0.3033  0.2380
 5135TIP3    H136896   2.374   2.772   2.760 -0.9276  0.2885  1.9803
 5135TIP3    H236897   2.394   2.630   2.713  1.1692  1.2742 -0.3525
 5136TIP3   OH236898   2.123   4.163   5.823 -0.1462 -0.2825  0.0321
 5136TIP3    H136899   2.050   4.158   5.761 -1.4754 -0.5263  1.5442
 5136TIP3    H236900   2.196   4.197   5.772 -1.3028 -0.0924 -1.5590
 5137TIP3   OH236901   6.742   5.877   1.702 -0.5856 -0.6452 -0.2764
 5137TIP3    H136902   6.802   5.814   1.742  0.3115 -0.2817 -1.0207
 5137TIP3    H236903   6.775   5.889   1.613 -2.1085 -0.8777 -0.8994
 5138TIP3   OH236904   6.303   2.025  14.618 -0.2656  0.3339 -0.3704
 5138TIP3    H136905   6.219   2.046  14.578 -0.5243 -0.6783 -0.3945
 5138TIP3    H236906   6.288   1.942  14.664  0.8961 -0.2715 -1.0298
 5139TIP3   OH236907   4.731   0.529  16.567 -0.0420  0.4076 -0.1955
 5139TIP3    H136908   4.772   0.604  16.610  1.5108 -0.9821  0.8482
 5139TIP3    H236909   4.721   0.464  16.636 -2.3454 -0.0174 -0.8343
 5140TIP3   OH236910   1.853   2.063  16.093  0.7442  0.1738 -0.5728
 5140TIP3    H136911   1.914   2.122  16.136 -0.4322  0.7166  0.3986
 5140TIP3    H236912   1.808   2.118  16.029 -0.0306  0.2348  0.0145
 5141TIP3   OH236913   1.005   3.852   4.312  0.0347  0.7341 -0.1354
 5141TIP3    H136914   0.930   3.891   4.356  0.0414  2.3476 -1.4700
 5141TIP3    H236915   0.998   3.881   4.222  1.2146 -0.6979 -0.7314
 5142TIP3   OH236916   5.452   0.913   5.889 -0.0573 -0.2066  0.2591
 5142TIP3    H136917   5.537   0.955   5.874 -0.6082  0.5625 -0.8679
 5142TIP3    H236918   5.473   0.820   5.897  0.9378  0.0161  0.4160
 5143TIP3   OH236919   3.386   0.353  17.398  0.0220  0.2825 -0.3378
 5143TIP3    H136920   3.423   0.442  17.399  2.1795 -0.5429 -0.7051
 5143TIP3    H236921   3.320   0.354  17.468 -0.8944  2.4927 -1.1553
 5144TIP3   OH236922   4.988   4.209   5.680 -0.2888 -0.2595  0.0084
 5144TIP3    H136923   4.911   4.231   5.627 -0.0304  2.5847  0.6378
 5144TIP3    H236924   5.046   4.162   5.621 -1.9050 -1.2903 -0.8475
 5145TIP3   OH236925   1.903   0.065   0.846  0.1931  0.8880 -0.1915
 5145TIP3    H136926   1.995   0.089   0.858  0.6725 -1.5286  1.6524
 5145TIP3    H236927   1.901   0.015   0.764  0.9766 -0.8776  0.8230
 5146TIP3   OH236928   4.027   1.718   1.071 -0.7576 -0.3238  0.1076
 5146TIP3    H136929   3.935   1.732   1.091 -0.8472 -1.9464  1.0007
 5146TIP3    H236930   4.042   1.768   0.990 -2.8972 -1.4830 -1.0981
 5147TIP3   OH236931   6.334   0.832  11.608  0.1628  0.3514  0.1589
 5147TIP3    H136932   6.286   0.756  11.577  0.3342 -0.1265  1.0302
 5147TIP3    H236933   6.372   0.871  11.529  2.0225 -1.7989 -0.0984
 5148TIP3   OH236934   5.140   3.448  16.110  0.1492 -0.2177 -0.0679
 5148TIP3    H136935   5.127   3.510  16.181  0.3874 -2.1156  1.7504
 5148TIP3    H236936   5.056   3.402  16.101  0.4091 -0.6580 -0.3241
 5149TIP3   OH236937   3.785   6.183  15.691  0.2589  0.1765  0.4143
 5149TIP3    H136938   3.866   6.148  15.727 -1.5928 -2.1658  2.7858
 5149TIP3    H236939   3.771   6.265  15.738  0.4900 -0.2180  1.1921
 5150TIP3   OH236940   1.228   0.863  13.052  0.1289 -0.4382 -0.2455
 5150TIP3    H136941   1.190   0.795  13.106  1.1132 -0.6506  0.2030
 5150TIP3    H236942   1.237   0.823  12.965 -1.7393  0.0063 -0.6889
 5151TIP3   OH236943   3.739   5.492  12.147 -0.7288  0.3445  0.2625
 5151TIP3    H136944   3.739   5.574  12.196 -1.5027  0.9192 -0.6460
 5151TIP3    H236945   3.809   5.503  12.082  0.2492 -0.3840  1.1760
 5152TIP3   OH236946   4.148   2.096   2.781 -0.1618  0.3049 -0.1734
 5152TIP3    H136947   4.137   2.006   2.749 -0.0961  0.3790 -0.4082
 5152TIP3    H236948   4.160   2.086   2.875 -3.6992  0.3169  0.3931
 5153TIP3   OH236949   4.007   3.171   5.605 -0.1603 -0.0123  0.6188
 5153TIP3    H136950   4.007   3.080   5.635  1.9943  0.2749  1.6326
 5153TIP3    H236951   4.024   3.165   5.511 -2.5428 -0.7099  0.1550
 5154TIP3   OH236952   2.858   4.742  16.361 -0.1335  0.0617  0.3576
 5154TIP3    H136953   2.851   4.706  16.450  1.9984  2.5156  1.6394
 5154TIP3    H236954   2.914   4.679  16.315  1.9670  0.6159  1.9791
 5155TIP3   OH236955   1.892   5.240   3.318 -0.5752 -0.4693  0.2254
 5155TIP3    H136956   1.961   5.188   3.360  0.6071  1.8411  1.3643
 5155TIP3    H236957   1.932   5.270   3.236 -0.7971 -0.3969  0.1446
 5156TIP3   OH236958   3.116   2.243   3.436 -0.1152 -0.0938 -0.2933
 5156TIP3    H136959   3.079   2.283   3.358 -1.2057 -0.6689 -0.0859
 5156TIP3    H236960   3.195   2.198   3.404  1.0677  2.0312 -0.5466
 5157TIP3   OH236961   5.117   4.907  16.185  0.0805 -0.0454 -0.2626
 5157TIP3    H136962   5.141   4.819  16.214 -0.7818 -0.4641 -0.7638
 5157TIP3    H236963   5.067   4.943  16.258 -0.1274 -0.2261 -0.3124
 5158TIP3   OH236964   1.674   2.726  15.875  0.3100  0.1533  0.0276
 5158TIP3    H136965   1.647   2.769  15.956  1.2819  0.8167  0.0121
 5158TIP3    H236966   1.755   2.770  15.850  0.8865 -1.1410 -0.4516
 5159TIP3   OH236967   3.281   4.733   4.252 -0.1197 -0.3275 -0.4566
 5159TIP3    H136968   3.266   4.816   4.207  0.0706 -0.2837 -0.4387
 5159TIP3    H236969   3.363   4.700   4.216  1.6290  1.1125  1.8849
 5160TIP3   OH236970   4.815   2.177   5.126 -0.1780 -0.1028  0.0534
 5160TIP3    H136971   4.892   2.137   5.085  0.8777  0.8043  1.0812
 5160TIP3    H236972   4.814   2.141   5.215 -0.5509  0.4159  0.2646
 5161TIP3   OH236973   6.261   1.949  15.572  0.0227  0.4646 -0.0511
 5161TIP3    H136974   6.198   1.959  15.500 -1.6422  2.6768  1.5720
 5161TIP3    H236975   6.266   2.036  15.612  2.7095 -0.1138  1.0885
 5162TIP3   OH236976   2.577   1.366  16.025 -0.3748  0.3875  0.3600
 5162TIP3    H136977   2.648   1.355  16.089 -0.0740 -2.5181 -0.3274
 5162TIP3    H236978   2.623   1.383  15.943 -0.6065  0.7023  0.2949
 5163TIP3   OH236979   5.860   3.825   3.901 -0.0237  0.0019 -0.0577
 5163TIP3    H136980   5.901   3.859   3.981  0.1155 -0.2056 -0.0420
 5163TIP3    H236981   5.875   3.893   3.835 -0.4405  0.3327  0.1809
 5164TIP3   OH236982   2.402   5.510   3.273 -0.5579  0.5243  0.2950
 5164TIP3    H136983   2.359   5.424   3.270 -0.5810  0.5243  0.6570
 5164TIP3    H236984   2.354   5.562   3.208 -1.7946  0.8352  1.4272
 5165TIP3   OH236985   4.113   2.977   1.923  0.0309 -0.4212  0.2979
 5165TIP3    H136986   4.097   2.911   1.856 -1.8325  0.1620  0.1316
 5165TIP3    H236987   4.085   2.936   2.005  0.6076 -0.4821  0.4718
 5166TIP3   OH236988   5.628   4.104  10.900  0.0305 -0.2012 -0.0704
 5166TIP3    H136989   5.649   4.078  10.989  2.6725  1.2310 -0.1864
 5166TIP3    H236990   5.532   4.105  10.897 -0.2088  2.0169  3.4726
 5167TIP3   OH236991   5.039   1.248   3.510  0.1184 -0.1110 -0.3689
 5167TIP3    H136992   4.995   1.299   3.577  0.3734 -0.7569  0.3033
 5167TIP3    H236993   5.130   1.276   3.513  0.0977 -0.0179 -0.5685
 5168TIP3   OH236994   5.775   3.740   4.677 -0.5078 -0.8558  0.1374
 5168TIP3    H136995   5.789   3.830   4.649  1.2534 -1.0415  0.3348
 5168TIP3    H236996   5.815   3.734   4.764 -0.6109 -1.8243  0.1363
 5169TIP3   OH236997   6.388   4.929   4.665  1.1870 -0.0558 -0.8836
 5169TIP3    H136998   6.302   4.953   4.700  1.8456  0.3177  0.5912
 5169TIP3    H236999   6.376   4.840   4.633  0.4617 -0.3597  0.1611
 5170TIP3   OH237000   6.367   6.118   2.989  0.3368 -0.1876 -0.6504
 5170TIP3    H137001   6.298   6.122   2.923  0.9572  1.4746 -1.2389
 5170TIP3    H237002   6.438   6.170   2.952  1.1221 -0.1393  0.8685
 5171TIP3   OH237003   2.900   2.246   5.793 -0.2321 -0.0460  0.0159
 5171TIP3    H137004   2.919   2.241   5.887 -1.5461 -1.2362  0.2553
 5171TIP3    H237005   2.848   2.326   5.785  1.3075  0.9978 -0.0074
 5172TIP3   OH237006   5.008   0.688  14.724  0.2987 -0.5356 -0.5317
 5172TIP3    H137007   4.961   0.731  14.653  0.0646  0.7692  0.3919
 5172TIP3    H237008   5.097   0.676  14.690  0.7286  1.8556 -0.3946
 5173TIP3   OH237009   5.240   5.510  13.154  0.2855  0.0927  0.2602
 5173TIP3    H137010   5.235   5.444  13.223  0.7344  0.5947  0.7836
 5173TIP3    H237011   5.310   5.569  13.182 -0.9940  1.5742  0.5117
 5174TIP3   OH237012   1.336   4.621  15.583 -0.2569 -0.3197 -0.3889
 5174TIP3    H137013   1.334   4.712  15.555 -0.1166  0.4303  1.8576
 5174TIP3    H237014   1.285   4.618  15.664 -1.3384 -2.5089 -1.0594
 5175TIP3   OH237015   1.060   0.494  12.882 -0.4182 -0.3082 -0.1555
 5175TIP3    H137016   1.015   0.577  12.864  1.1790  1.1259  1.9751
 5175TIP3    H237017   1.001   0.447  12.941 -1.1566 -0.5539 -1.0616
 5176TIP3   OH237018   5.489   3.175  11.896 -0.0774  0.4505  0.2993
 5176TIP3    H137019   5.584   3.177  11.894 -0.0148  2.8821 -2.9748
 5176TIP3    H237020   5.466   3.212  11.982  1.9905  1.9114  0.3007
 5177TIP3   OH237021   6.049   0.529   0.548  0.6604 -0.5213 -0.1923
 5177TIP3    H137022   5.986   0.580   0.599 -0.3806 -1.8423 -0.1039
 5177TIP3    H237023   5.999   0.497   0.473  1.1543 -1.7758 -0.0081
 5178TIP3   OH237024   0.851   4.143  17.401 -0.4141 -0.2175 -0.4985
 5178TIP3    H137025   0.795   4.116  17.473 -1.4921 -1.8563 -1.8776
 5178TIP3    H237026   0.940   4.130  17.434 -0.6503  3.2370  2.0317
 5179TIP3   OH237027   3.607   4.578   4.939 -0.1606  0.7079 -0.1125
 5179TIP3    H137028   3.530   4.584   4.883  0.9700 -0.7979 -1.9623
 5179TIP3    H237029   3.656   4.659   4.921 -0.5729  0.9605 -0.1025
 5180TIP3   OH237030   6.225   6.412  14.360 -0.6330  0.1811 -0.4633
 5180TIP3    H137031   6.145   6.359  14.362 -0.8685  0.5532  0.2189
 5180TIP3    H237032   6.215   6.469  14.284  0.2971 -1.7656 -2.1393
 5181TIP3   OH237033   1.474   0.939   0.039 -0.0869  0.4414  0.1375
 5181TIP3    H137034   1.481   1.018  -0.015  3.8269  1.5072  1.8000
 5181TIP3    H237035   1.458   0.972   0.127 -2.5409 -1.0111  0.3091
 5182TIP3   OH237036   2.398   5.776  14.448  0.4349  0.6056 -0.1079
 5182TIP3    H137037   2.414   5.862  14.410 -1.0526  1.1731  0.4665
 5182TIP3    H237038   2.305   5.760  14.431  0.9242 -1.4049 -1.1918
 5183TIP3   OH237039   3.252   5.752   1.478  0.5285  0.3243 -0.1056
 5183TIP3    H137040   3.328   5.801   1.510 -0.6291  2.3016 -0.2071
 5183TIP3    H237041   3.218   5.707   1.555  1.5052 -0.2037  0.0353
 5184TIP3   OH237042   4.447   1.134   3.703  0.0142  0.1999  0.0814
 5184TIP3    H137043   4.365   1.150   3.749  1.1352 -0.7448  2.5950
 5184TIP3    H237044   4.508   1.199   3.738  0.4424  0.7563 -1.5923
 5185TIP3   OH237045   2.887   6.759  11.885 -0.7420 -0.3655 -0.2138
 5185TIP3    H137046   2.889   6.712  11.968  0.3769 -1.3745 -0.7797
 5185TIP3    H237047   2.961   6.724  11.836 -0.9951  0.6737 -1.3949
 5186TIP3   OH237048   3.594   1.309   5.582  0.3362  0.3023 -0.0290
 5186TIP3    H137049   3.551   1.362   5.648  0.4308  0.2738  0.0556
 5186TIP3    H237050   3.535   1.235   5.567 -0.0792  0.7320 -0.5748
 5187TIP3   OH237051   0.243   0.284  14.181 -0.2756 -0.8377 -0.2510
 5187TIP3    H137052   0.150   0.300  14.167  0.3848  3.0154 -1.3017
 5187TIP3    H237053   0.252   0.278  14.276 -1.5445 -1.0697 -0.1263
 5188TIP3   OH237054   2.716   0.648   3.746 -0.3369  0.3363  0.0885
 5188TIP3    H137055   2.642   0.676   3.693  0.0572 -0.3461 -0.8408
 5188TIP3    H237056   2.747   0.729   3.788  0.9199  1.4567 -2.7188
 5189TIP3   OH237057   0.949   1.013   5.530 -0.8725 -0.2862 -0.1270
 5189TIP3    H137058   0.898   0.951   5.582  0.0548 -0.6443  0.3942
 5189TIP3    H237059   0.962   1.088   5.588  1.1602 -1.1595  0.6773
 5190TIP3   OH237060   4.998   3.416  14.942 -0.8755 -0.8615 -0.7485
 5190TIP3    H137061   4.909   3.387  14.962 -0.6608 -0.8005  0.3265
 5190TIP3    H237062   5.054   3.351  14.983 -0.3810  0.9931  1.7400
 5191TIP3   OH237063   0.662   1.546  14.512 -0.0519 -0.1744  0.6701
 5191TIP3    H137064   0.729   1.594  14.561 -0.9177  0.6603  1.0795
 5191TIP3    H237065   0.654   1.463  14.558 -0.6111  0.4654  1.7669
 5192TIP3   OH237066   0.138   6.625  16.146  0.0922 -0.2030 -0.6443
 5192TIP3    H137067   0.054   6.642  16.103 -1.2601  0.5831  2.0536
 5192TIP3    H237068   0.192   6.701  16.124 -0.9947  0.7892 -0.0146
 5193TIP3   OH237069   4.870   0.282   6.145  0.2241  0.1318  0.2444
 5193TIP3    H137070   4.778   0.284   6.173 -0.1436 -0.0421 -0.9083
 5193TIP3    H237071   4.918   0.320   6.219 -0.6849 -0.5001  1.1922
 5194TIP3   OH237072   1.207   1.934  14.987  0.3825 -0.0013 -0.1815
 5194TIP3    H137073   1.115   1.940  14.962 -0.2590  0.3960  2.0029
 5194TIP3    H237074   1.248   2.011  14.947  0.2715 -1.2066 -2.8129
 5195TIP3   OH237075   4.453   1.114  17.121 -0.2554 -0.7522 -0.3425
 5195TIP3    H137076   4.377   1.161  17.156  0.5158  1.0952 -0.9947
 5195TIP3    H237077   4.426   1.089  17.032 -0.1784 -0.2441 -0.5135
 5196TIP3   OH237078   2.954   1.672   2.620  0.5942  0.2673 -0.5139
 5196TIP3    H137079   2.939   1.577   2.616 -0.7251  0.2870  2.0019
 5196TIP3    H237080   3.049   1.681   2.609  0.5137 -1.0540 -3.3126
 5197TIP3   OH237081   4.231   0.454   4.530 -0.4618 -0.8581  0.1435
 5197TIP3    H137082   4.269   0.385   4.584 -0.1692 -1.4370 -0.7794
 5197TIP3    H237083   4.165   0.495   4.586  0.1971 -1.0912  1.1155
 5198TIP3   OH237084   0.368   5.823  15.449 -0.0913 -0.3163  0.0923
 5198TIP3    H137085   0.346   5.751  15.391  0.1056 -1.3967  1.3252
 5198TIP3    H237086   0.306   5.892  15.427 -0.1802 -0.7891 -1.2096
 5199TIP3   OH237087   5.896   1.725  13.037 -0.5658 -0.6503  0.1756
 5199TIP3    H137088   5.810   1.691  13.064 -1.4508  0.5848 -0.9483
 5199TIP3    H237089   5.891   1.819  13.056  1.3926 -0.8555  2.1460
 5200TIP3   OH237090   5.280   2.739  16.379  0.5765 -0.2867  0.1184
 5200TIP3    H137091   5.298   2.723  16.286 -2.7620  1.3118 -0.9550
 5200TIP3    H237092   5.185   2.734  16.387  0.7666 -2.1117  3.9027
 5201TIP3   OH237093   2.865   6.694   0.998 -0.1578 -0.5119  0.9142
 5201TIP3    H137094   2.835   6.745   0.923  1.1639 -1.3371 -0.2297
 5201TIP3    H237095   2.852   6.751   1.073  1.0873  1.4572 -0.2826
 5202TIP3   OH237096   6.541   5.402   5.400  0.9085  0.1674  0.4765
 5202TIP3    H137097   6.593   5.466   5.449  3.4138 -0.8581 -0.6997
 5202TIP3    H237098   6.576   5.317   5.426 -0.7200 -0.6349  0.1919
 5203TIP3   OH237099   3.587   3.207   0.924 -0.5788 -0.0163 -0.1110
 5203TIP3    H137100   3.615   3.267   0.855  1.7566 -0.1602  0.6018
 5203TIP3    H237101   3.606   3.120   0.889 -0.3300 -0.1334  0.3001
 5204TIP3   OH237102   1.659   2.366  15.612 -0.0700  0.0328 -0.8013
 5204TIP3    H137103   1.574   2.402  15.585  0.0329  0.3673 -0.6866
 5204TIP3    H237104   1.683   2.419  15.688 -1.5078 -2.4118  1.5232
 5205TIP3   OH237105   2.639   1.617  16.657 -0.2096 -0.4695  0.1847
 5205TIP3    H137106   2.728   1.603  16.689  0.5856 -0.4852 -1.8757
 5205TIP3    H237107   2.604   1.529  16.643 -0.5926 -0.4642  1.0616
 5206TIP3   OH237108   6.063   1.379  11.630 -0.7719  0.6131  0.4355
 5206TIP3    H137109   6.057   1.370  11.535 -0.6311 -1.1124  0.5689
 5206TIP3    H237110   6.054   1.474  11.645  0.7044  1.1053 -1.3832
 5207TIP3   OH237111   0.921   3.163   1.051  0.1075 -0.4857 -0.1958
 5207TIP3    H137112   0.989   3.176   1.117  1.0785 -0.9050 -1.0779
 5207TIP3    H237113   0.874   3.085   1.080  1.8634 -1.9404 -1.0343
 5208TIP3   OH237114   6.347   1.845   4.418 -0.2945  0.0478 -0.1935
 5208TIP3    H137115   6.437   1.874   4.403  0.0306 -0.5059  0.6178
 5208TIP3    H237116   6.294   1.898   4.358  0.6071  0.1257 -0.9296
 5209TIP3   OH237117   2.429   4.645   3.116 -0.1966  0.0828 -0.1052
 5209TIP3    H137118   2.485   4.686   3.182  0.9064 -0.5143 -0.6473
 5209TIP3    H237119   2.430   4.706   3.042 -0.5157  0.2154 -0.0022
 5210TIP3   OH237120   4.585   1.228  15.049  0.0276  0.2053 -0.1141
 5210TIP3    H137121   4.620   1.241  14.960  0.9179  0.2468  0.2295
 5210TIP3    H237122   4.534   1.148  15.043  1.1268 -0.4983 -0.3767
 5211TIP3   OH237123   2.968   3.887  13.634 -0.4178  0.7901  0.4712
 5211TIP3    H137124   2.948   3.979  13.647 -1.1478  0.8006 -0.5307
 5211TIP3    H237125   2.967   3.848  13.721 -0.5271  1.6451  0.8535
 5212TIP3   OH237126   5.007   0.398  16.544 -0.1855 -0.0630  0.0535
 5212TIP3    H137127   5.051   0.463  16.599 -0.4729  0.5768 -0.4463
 5212TIP3    H237128   4.917   0.395  16.578 -0.2095 -0.0946 -0.0109
 5213TIP3   OH237129   5.748   6.042   4.019 -0.0935 -0.6290 -0.2457
 5213TIP3    H137130   5.772   5.952   3.997 -1.1186 -1.0164  0.1368
 5213TIP3    H237131   5.675   6.062   3.961 -0.3173 -0.2947  0.1497
 5214TIP3   OH237132   3.737   5.749   4.346  0.3050  0.0749  0.4323
 5214TIP3    H137133   3.670   5.693   4.306  0.3066  0.3914 -0.0195
 5214TIP3    H237134   3.800   5.687   4.384  0.0535 -0.2274  0.3627
 5215TIP3   OH237135   5.625   1.384  16.848 -0.5431  0.3713 -0.4074
 5215TIP3    H137136   5.591   1.471  16.827 -1.3274  0.1341 -0.1380
 5215TIP3    H237137   5.549   1.326  16.843  0.3191 -0.7300 -2.8509
 5216TIP3   OH237138   6.418   6.177  15.065 -0.1284 -0.1237 -0.0110
 5216TIP3    H137139   6.491   6.229  15.099  0.2204 -0.4352 -0.2682
 5216TIP3    H237140   6.403   6.212  14.977 -0.9529  0.6055  0.4123
 5217TIP3   OH237141   3.679   1.957   6.220  0.4385  0.6332  0.0439
 5217TIP3    H137142   3.652   2.014   6.292 -1.8232 -0.7258  0.3617
 5217TIP3    H237143   3.708   1.877   6.262 -2.1516 -0.6895 -0.4603
 5218TIP3   OH237144   2.043   1.026  16.179 -0.1878 -0.2192 -0.3096
 5218TIP3    H137145   2.015   1.112  16.147  0.1051  0.4641  1.2317
 5218TIP3    H237146   1.962   0.983  16.206 -0.3975 -0.6672 -1.5584
 5219TIP3   OH237147   6.612   0.471   4.358 -0.6134  1.3495 -0.2974
 5219TIP3    H137148   6.659   0.466   4.441  0.9189  0.5157 -1.1788
 5219TIP3    H237149   6.531   0.421   4.373  1.1654 -1.7429 -0.2429
 5220TIP3   OH237150   3.112   3.599   5.887 -0.0945 -0.3763 -0.3391
 5220TIP3    H137151   3.132   3.611   5.794 -3.2311 -0.2467 -1.0876
 5220TIP3    H237152   3.037   3.539   5.888 -0.1833 -0.3121  2.1200
 5221TIP3   OH237153   2.693   1.240  13.035 -0.0918  0.5324  0.0362
 5221TIP3    H137154   2.607   1.266  13.069 -0.8043 -0.3389 -1.0097
 5221TIP3    H237155   2.737   1.199  13.109 -1.6184 -1.3581 -0.0265
 5222TIP3   OH237156   5.009   0.736   2.499 -0.1534  0.1505 -0.0983
 5222TIP3    H137157   4.932   0.788   2.477  0.4647  1.2100  0.2006
 5222TIP3    H237158   5.057   0.789   2.562  0.2155 -1.0375  0.6556
 5223TIP3   OH237159   4.054   2.693  11.500 -0.2384  0.0334 -0.1899
 5223TIP3    H137160   4.099   2.742  11.569  0.9941  1.6435 -2.0079
 5223TIP3    H237161   3.977   2.745  11.479  0.8101  1.0461 -1.7875
 5224TIP3   OH237162   5.292   3.858  14.899 -0.5013 -0.4072 -0.4816
 5224TIP3    H137163   5.232   3.787  14.874 -0.2579 -0.0151 -2.2805
 5224TIP3    H237164   5.360   3.814  14.950 -1.7406 -1.0154  0.7272
 5225TIP3   OH237165   2.143   4.942  10.689  0.3871  0.9120  0.1449
 5225TIP3    H137166   2.225   4.895  10.675 -0.9148 -1.3667 -0.3227
 5225TIP3    H237167   2.104   4.901  10.766 -1.5399  0.0135 -1.2076
 5226TIP3   OH237168   3.864   4.200  12.041 -0.0145 -0.1940  0.1077
 5226TIP3    H137169   3.843   4.147  12.118  0.3754 -2.1765 -1.0901
 5226TIP3    H237170   3.945   4.247  12.065  1.1691 -2.2325  0.2922
 5227TIP3   OH237171   0.796   2.867   1.169  0.8097 -0.0617  0.1879
 5227TIP3    H137172   0.779   2.827   1.084  1.5502  0.2229 -0.1113
 5227TIP3    H237173   0.890   2.853   1.183  0.8430  0.5307  0.6129
 5228TIP3   OH237174   5.965   0.717   6.380 -0.3692 -0.1738  0.2234
 5228TIP3    H137175   6.043   0.722   6.435  0.2018  0.5208 -0.6173
 5228TIP3    H237176   5.995   0.672   6.300 -0.6246  0.7859 -0.4244
 5229TIP3   OH237177   1.599   6.515   4.783 -0.2090 -0.1603 -1.0428
 5229TIP3    H137178   1.643   6.430   4.776 -0.0995 -0.0790 -1.3454
 5229TIP3    H237179   1.517   6.504   4.734 -0.5061 -0.2941 -0.5261
 5230TIP3   OH237180   1.486   0.178   6.233 -0.1973 -0.4739 -0.0228
 5230TIP3    H137181   1.460   0.108   6.293 -0.1881 -0.5136 -0.0649
 5230TIP3    H237182   1.551   0.229   6.282 -0.6706 -0.1207  0.2386
 5231TIP3   OH237183   0.640   4.980   3.970 -0.1075  0.0815 -0.0001
 5231TIP3    H137184   0.679   4.951   3.888  0.9458  2.1347 -0.2879
 5231TIP3    H237185   0.590   5.058   3.947 -0.0752  0.4995  1.2535
 5232TIP3   OH237186   0.341   6.183  14.764 -0.2669 -1.4068  0.0315
 5232TIP3    H137187   0.418   6.226  14.726  0.5655 -1.5285  1.5206
 5232TIP3    H237188   0.373   6.098  14.794 -1.5187 -2.4205 -1.3482
 5233TIP3   OH237189   1.655   2.754   0.788 -0.3782 -0.1741 -0.1714
 5233TIP3    H137190   1.711   2.812   0.841  0.3691 -0.2993 -0.7994
 5233TIP3    H237191   1.566   2.770   0.820 -0.0133  0.2164  0.6816
 5234TIP3   OH237192   5.957   0.323   3.553 -0.2520  0.1375  0.4174
 5234TIP3    H137193   6.031   0.280   3.597  0.9055  1.0737 -0.5524
 5234TIP3    H237194   5.880   0.296   3.604  0.8635  0.0477  2.1462
 5235TIP3   OH237195   6.107   3.198   1.396 -0.1628 -0.5141  0.0140
 5235TIP3    H137196   6.122   3.288   1.368 -0.3081 -0.3825  0.3564
 5235TIP3    H237197   6.194   3.162   1.411 -0.0710 -0.6348 -0.7413
 5236TIP3   OH237198   5.372   3.856   3.235 -0.6306 -0.0173  0.0407
 5236TIP3    H137199   5.393   3.936   3.284  1.0484  0.2608 -1.0361
 5236TIP3    H237200   5.309   3.810   3.290 -0.1433  1.1165  1.6220
 5237TIP3   OH237201   4.710   3.538  15.700  0.4450  0.1878  0.2151
 5237TIP3    H137202   4.783   3.481  15.678 -0.9072 -1.7627  0.4867
 5237TIP3    H237203   4.632   3.483  15.689 -0.7682  1.1359  3.0649
 5238TIP3   OH237204   1.969   1.894  14.118  0.2858  0.2608  0.8609
 5238TIP3    H137205   2.055   1.860  14.095  0.3351  0.7978  0.1979
 5238TIP3    H237206   1.917   1.817  14.140  0.6662 -0.1547  0.3340
 5239TIP3   OH237207   4.756   2.881  15.933  0.9908 -0.3333  0.2371
 5239TIP3    H137208   4.683   2.936  15.905  1.8373  0.8011  0.1879
 5239TIP3    H237209   4.716   2.795  15.952 -0.6972  0.7707  2.1093
 5240TIP3   OH237210   0.430   4.579  16.571  0.2509  0.3120  0.0134
 5240TIP3    H137211   0.409   4.664  16.533  1.8596  0.1131 -1.4506
 5240TIP3    H237212   0.515   4.591  16.613  0.0915 -0.3553  0.5518
 5241TIP3   OH237213   5.273   5.707   3.073  0.1051  0.2693 -0.5175
 5241TIP3    H137214   5.197   5.649   3.080 -0.0607  0.4902 -0.4691
 5241TIP3    H237215   5.261   5.771   3.144  0.6496 -0.0578 -0.1291
 5242TIP3   OH237216   3.734   3.281   4.694 -0.0267  0.1757  0.5040
 5242TIP3    H137217   3.734   3.325   4.608 -0.3451  0.8791  0.8513
 5242TIP3    H237218   3.766   3.193   4.676  0.8853  0.6342 -0.1794
 5243TIP3   OH237219   1.626   2.660  16.678  0.5114 -0.3752  0.5465
 5243TIP3    H137220   1.712   2.695  16.698  1.5825 -0.0727 -3.6120
 5243TIP3    H237221   1.572   2.737  16.661  0.2397 -0.6158  0.3037
 5244TIP3   OH237222   3.811   0.433  14.181  0.3169  0.2900 -0.0625
 5244TIP3    H137223   3.880   0.369  14.200 -0.3069 -0.8335 -1.4455
 5244TIP3    H237224   3.770   0.401  14.101 -0.0427  2.4190 -0.7851
 5245TIP3   OH237225   4.489   2.048  12.681  0.1250  0.0847  0.0095
 5245TIP3    H137226   4.581   2.031  12.662 -0.2496 -0.2150 -1.7369
 5245TIP3    H237227   4.462   2.114  12.617 -1.5104 -1.8027 -1.4233
 5246TIP3   OH237228   6.717   3.244  14.159 -0.0643  0.5266 -0.1624
 5246TIP3    H137229   6.766   3.162  14.165 -0.7633  0.1908  1.6201
 5246TIP3    H237230   6.724   3.269  14.067  1.9272 -0.4137 -0.3269
 5247TIP3   OH237231   4.627   0.170  16.078 -0.3961  0.0566 -0.2200
 5247TIP3    H137232   4.562   0.239  16.064  0.5160  0.6946 -1.5022
 5247TIP3    H237233   4.676   0.166  15.996  1.4804 -0.0989  0.8538
 5248TIP3   OH237234   4.543   2.695   0.403  0.1529  0.2074  0.1180
 5248TIP3    H137235   4.485   2.648   0.463  0.5816  0.6422  0.8897
 5248TIP3    H237236   4.486   2.731   0.336 -0.3574 -0.1174  0.3767
 5249TIP3   OH237237   2.938   2.411   1.975 -0.1087 -0.1095  0.1803
 5249TIP3    H137238   2.856   2.379   2.014 -0.0503 -0.2024  0.2243
 5249TIP3    H237239   2.924   2.505   1.966 -0.5236 -0.2266 -0.5213
 5250TIP3   OH237240   3.750   5.659   5.539 -0.3004  0.1593  0.1298
 5250TIP3    H137241   3.842   5.649   5.514 -0.4714  0.4105 -0.5992
 5250TIP3    H237242   3.737   5.594   5.608  0.5596  0.4679  0.6081
 5251TIP3   OH237243   0.749   1.149  13.057 -0.0963  0.0759  0.0349
 5251TIP3    H137244   0.826   1.112  13.102 -0.5088  1.0447  1.6346
 5251TIP3    H237245   0.676   1.126  13.115 -1.2432 -1.8734 -2.0448
 5252TIP3   OH237246   5.259   4.966  17.054  0.2202 -0.1904 -0.3524
 5252TIP3    H137247   5.271   4.871  17.052 -2.6393 -0.6257 -0.4965
 5252TIP3    H237248   5.288   4.995  16.967 -1.3119 -1.3226 -1.2838
 5253TIP3   OH237249   6.520   4.893   3.895 -0.1760  0.0506 -0.1985
 5253TIP3    H137250   6.458   4.929   3.959  0.1499 -1.1266  0.8273
 5253TIP3    H237251   6.466   4.839   3.837  0.0289 -2.8078  2.0250
 5254TIP3   OH237252   3.616   2.827  12.039 -0.3542 -0.4005  0.0542
 5254TIP3    H137253   3.537   2.774  12.053 -0.2741 -0.4227  0.4310
 5254TIP3    H237254   3.621   2.884  12.116  0.8309 -1.4527  0.8078
 5255TIP3   OH237255   1.809   6.506   3.346 -0.0278  0.1314 -0.2714
 5255TIP3    H137256   1.888   6.481   3.395 -0.2512 -2.1077 -0.9197
 5255TIP3    H237257   1.828   6.479   3.256 -0.4812  2.1457 -1.0093
 5256TIP3   OH237258   4.603   6.056   3.425  0.0146 -0.1105  0.1042
 5256TIP3    H137259   4.663   6.019   3.490  1.3515  0.7292 -0.6010
 5256TIP3    H237260   4.518   6.019   3.447  0.5262 -0.2568  2.0057
 5257TIP3   OH237261   4.257   2.279   4.034 -0.1832 -0.5302  0.2538
 5257TIP3    H137262   4.181   2.297   4.089  0.7081 -0.8884  1.6803
 5257TIP3    H237263   4.258   2.184   4.025  0.6841 -0.6354  1.2018
 5258TIP3   OH237264   2.306   3.255   3.939 -0.9239  0.4669 -0.3285
 5258TIP3    H137265   2.278   3.336   3.983 -2.5346  0.4406 -1.2254
 5258TIP3    H237266   2.249   3.249   3.862  0.1581 -0.7760 -1.0659
 5259TIP3   OH237267   0.887   2.085   4.845  0.3798  0.5861  0.0529
 5259TIP3    H137268   0.945   2.092   4.921 -1.0028  0.9116  1.1362
 5259TIP3    H237269   0.806   2.130   4.873 -0.5000 -0.1108 -1.2710
 5260TIP3   OH237270   2.613   6.269   4.436 -0.4705  0.4067  0.4717
 5260TIP3    H137271   2.654   6.220   4.507 -0.9901 -0.0196  0.4883
 5260TIP3    H237272   2.541   6.213   4.407 -1.8695  1.6870  1.3163
 5261TIP3   OH237273   3.412   2.977   5.227 -0.3557 -0.3504  0.4639
 5261TIP3    H137274   3.467   2.993   5.151  0.6308 -0.7329  1.0774
 5261TIP3    H237275   3.401   3.063   5.268  0.7256 -0.4232  0.9496
 5262TIP3   OH237276   1.019   0.310   5.886  0.2892 -0.2801 -0.3846
 5262TIP3    H137277   0.959   0.338   5.817 -1.1269  0.8586  1.2143
 5262TIP3    H237278   0.961   0.283   5.958  1.7005 -0.9581  0.5345
 5263TIP3   OH237279   4.885   3.085  17.146 -0.1411  0.3982  0.1977
 5263TIP3    H137280   4.793   3.063  17.163 -0.2247  1.1712  0.8341
 5263TIP3    H237281   4.882   3.174  17.110  0.2043 -0.4233 -1.9982
 5264TIP3   OH237282   1.013   5.504   3.854  0.0191  0.5617  0.2041
 5264TIP3    H137283   1.004   5.579   3.912  2.3122  0.9602  0.1402
 5264TIP3    H237284   1.071   5.444   3.900 -1.0881 -0.8359 -0.1218
 5265TIP3   OH237285   1.645   0.045   1.584 -0.3057  0.1268 -0.3581
 5265TIP3    H137286   1.631   0.036   1.679 -2.5802 -0.3650 -0.6822
 5265TIP3    H237287   1.719   0.105   1.577  0.3102 -0.2812  1.7234
 5266TIP3   OH237288   3.177   1.919  14.190 -0.3010 -0.4101 -0.5780
 5266TIP3    H137289   3.251   1.910  14.131  0.9811  0.6404  0.7777
 5266TIP3    H237290   3.198   1.996  14.244 -2.2719 -0.2067  0.0115
 5267TIP3   OH237291   1.086   2.436  15.781  0.0731 -0.3301  0.0804
 5267TIP3    H137292   1.174   2.399  15.791  0.7571  0.8248 -1.2406
 5267TIP3    H237293   1.063   2.419  15.690 -1.7239 -1.8878  0.7754
 5268TIP3   OH237294   2.212   3.807  14.055 -0.0611 -0.3087 -0.2720
 5268TIP3    H137295   2.256   3.748  14.116 -0.8983 -0.1095  0.5509
 5268TIP3    H237296   2.272   3.815  13.982  1.4607  0.2323  0.9705
 5269TIP3   OH237297   5.982   1.731   2.962 -0.1680  0.1170 -0.1933
 5269TIP3    H137298   5.901   1.754   2.916 -0.6564 -0.7071  0.2138
 5269TIP3    H237299   6.040   1.697   2.893 -0.4299  0.0478 -0.3814
 5270TIP3   OH237300   4.900   6.095  16.462  0.3028  0.0565  0.5168
 5270TIP3    H137301   4.930   6.178  16.498  2.9399 -0.4141 -0.3965
 5270TIP3    H237302   4.888   6.112  16.369  1.4778 -0.6827  0.2033
 5271TIP3   OH237303   0.496   5.988   1.616 -0.9819 -0.3951  0.1857
 5271TIP3    H137304   0.494   6.032   1.531 -0.3570 -2.4981 -1.0026
 5271TIP3    H237305   0.426   5.923   1.612  0.0259 -1.5655  0.6295
 5272TIP3   OH237306   5.228   4.826  14.949  0.1657 -0.1125  0.0948
 5272TIP3    H137307   5.201   4.889  15.016  0.2589 -0.1533  0.1711
 5272TIP3    H237308   5.186   4.745  14.974 -1.0838  0.2459 -0.7684
 5273TIP3   OH237309   1.048   2.952  16.366 -0.3829 -0.0181  0.1153
 5273TIP3    H137310   1.129   2.909  16.393  0.5130  1.8301  0.5829
 5273TIP3    H237311   1.036   2.926  16.275 -0.2047 -1.6561  0.5347
 5274TIP3   OH237312   6.656   1.681  12.431 -0.3501  0.2775 -0.4158
 5274TIP3    H137313   6.628   1.600  12.389 -1.5983 -0.1583  1.1503
 5274TIP3    H237314   6.734   1.656  12.482 -0.8873 -0.0202  0.2754
 5275TIP3   OH237315   5.630   1.095  16.053 -0.1192 -0.4318 -0.0119
 5275TIP3    H137316   5.667   1.181  16.036  2.5056 -1.7184 -1.4302
 5275TIP3    H237317   5.640   1.083  16.148  0.3994  0.4581  0.0545
 5276TIP3   OH237318   1.467   0.375  14.634  0.0505  0.0371 -0.1662
 5276TIP3    H137319   1.544   0.426  14.657  0.3524 -0.9760  1.1487
 5276TIP3    H237320   1.498   0.311  14.571 -0.1774  0.9350 -1.2372
 5277TIP3   OH237321   2.343   0.641  14.821  0.1936  0.6164  0.0020
 5277TIP3    H137322   2.265   0.670  14.775 -1.6282 -0.3838  2.2609
 5277TIP3    H237323   2.322   0.650  14.913  2.3178 -0.8029  0.7164
 5278TIP3   OH237324   3.031   3.093   3.156 -0.6477 -0.0447  0.1941
 5278TIP3    H137325   3.032   3.176   3.108 -1.6221 -0.4227 -0.5183
 5278TIP3    H237326   3.123   3.070   3.165 -0.4209 -0.2726 -2.0917
 5279TIP3   OH237327   4.430   5.803  11.132  0.5397  1.0541  0.0386
 5279TIP3    H137328   4.401   5.893  11.145 -2.1952  0.1944  0.5051
 5279TIP3    H237329   4.383   5.773  11.054  0.9767 -0.1303  0.2019
 5280TIP3   OH237330   4.217   6.005   2.611 -1.0561  0.4694  0.2055
 5280TIP3    H137331   4.273   6.001   2.689 -0.4359  0.2618 -0.2399
 5280TIP3    H237332   4.243   5.929   2.559  1.0407  2.3980 -1.8438
 5281TIP3   OH237333   3.349   5.578  11.898  0.0637 -0.2044 -0.6876
 5281TIP3    H137334   3.402   5.650  11.931 -0.7211  1.1689 -2.2525
 5281TIP3    H237335   3.268   5.583  11.949 -0.7497  1.2921 -2.0074
 5282TIP3   OH237336   0.288   2.635  14.685  0.1786 -0.0847 -0.3055
 5282TIP3    H137337   0.375   2.599  14.702 -0.0267  0.5936  2.6787
 5282TIP3    H237338   0.304   2.721  14.646  0.8748  0.1644  0.5159
 5283TIP3   OH237339   3.672   4.253  14.322  0.0742 -0.1965 -0.4187
 5283TIP3    H137340   3.611   4.182  14.343 -0.1299  0.0674 -0.1263
 5283TIP3    H237341   3.730   4.215  14.256 -1.3081 -0.0141 -1.8190
 5284TIP3   OH237342   3.233   0.415   0.424  0.0853  0.5269  0.1564
 5284TIP3    H137343   3.174   0.353   0.468 -2.1751  2.1993 -0.3519
 5284TIP3    H237344   3.313   0.411   0.475 -0.9515 -0.7547  1.8266
 5285TIP3   OH237345   2.352   6.110   5.213 -0.2471 -0.6125 -0.2265
 5285TIP3    H137346   2.344   6.031   5.159 -0.0983 -0.4927 -0.4267
 5285TIP3    H237347   2.318   6.084   5.298 -0.3808 -0.8379 -0.3461
 5286TIP3   OH237348   5.248   5.166   2.540 -0.2794  0.3160 -0.4765
 5286TIP3    H137349   5.196   5.165   2.459 -0.8446 -0.9155 -0.1234
 5286TIP3    H237350   5.195   5.115   2.602 -0.6286  2.5751  1.1721
 5287TIP3   OH237351   3.796   5.746   3.075 -0.4615 -0.8389 -0.5154
 5287TIP3    H137352   3.803   5.763   2.981 -0.7848 -0.7771 -0.5298
 5287TIP3    H237353   3.739   5.669   3.081  2.1637 -2.9109 -0.5367
 5288TIP3   OH237354   2.029   1.182  15.405  0.2818 -0.2921 -0.0344
 5288TIP3    H137355   2.054   1.273  15.390  1.4807 -0.7189 -0.7078
 5288TIP3    H237356   1.945   1.172  15.360  0.1471  0.4724  0.0367
 5289TIP3   OH237357   3.622   2.256  15.020  0.0722  0.2758 -0.1004
 5289TIP3    H137358   3.565   2.181  15.038 -1.6071  1.4208 -0.4497
 5289TIP3    H237359   3.704   2.216  14.991 -1.1246 -1.4333 -1.3493
 5290TIP3   OH237360   3.293   6.718  17.032  0.2845  0.1274  0.4022
 5290TIP3    H137361   3.273   6.704  17.124  1.4829 -0.7193  0.5738
 5290TIP3    H237362   3.355   6.791  17.031  3.1539 -2.0894  0.7208
 5291TIP3   OH237363   5.134   5.068  15.788 -0.2026  0.1652 -0.1796
 5291TIP3    H137364   5.062   5.116  15.745 -0.7597  0.2212  0.7876
 5291TIP3    H237365   5.143   4.988  15.737 -1.7107 -0.3617  0.3199
 5292TIP3   OH237366   0.294   4.479  16.763 -0.1581  0.4582  0.5831
 5292TIP3    H137367   0.251   4.399  16.732 -0.0047  0.0804  1.3207
 5292TIP3    H237368   0.343   4.511  16.687  0.6518 -0.7444  0.5664
 5293TIP3   OH237369   5.287   4.142  17.385 -0.5848 -0.4421  1.0359
 5293TIP3    H137370   5.334   4.075  17.335  1.3493 -1.1008  3.5068
 5293TIP3    H237371   5.204   4.101  17.409 -2.0545  0.2734 -2.3310
 5294TIP3   OH237372   3.709   6.259   2.465  0.3184 -0.3395 -0.0833
 5294TIP3    H137373   3.678   6.314   2.394 -0.9992 -1.1550 -0.1688
 5294TIP3    H237374   3.792   6.224   2.434  1.8598  2.5110  0.4682
 5295TIP3   OH237375   0.182   3.746  14.528 -0.2532 -0.0779  0.1346
 5295TIP3    H137376   0.135   3.733  14.446 -1.5651 -0.9045  0.9812
 5295TIP3    H237377   0.208   3.657  14.555  1.1254  0.2841  0.0840
 5296TIP3   OH237378   6.082   4.229   4.393  0.6125  0.1707  0.5209
 5296TIP3    H137379   5.991   4.249   4.415 -1.1490 -3.4760 -2.3595
 5296TIP3    H237380   6.088   4.133   4.401  3.6225  0.0938 -1.2710
 5297TIP3   OH237381   3.288   6.598  16.450  0.2697 -0.4449  0.3333
 5297TIP3    H137382   3.363   6.546  16.478 -1.1530 -2.0734  1.2843
 5297TIP3    H237383   3.263   6.562  16.365  0.8130  0.3934 -0.1951
 5298TIP3   OH237384   4.677   0.344   1.454 -0.3027  0.0222  0.3345
 5298TIP3    H137385   4.656   0.436   1.472 -2.5333 -0.4463  0.3927
 5298TIP3    H237386   4.703   0.309   1.539 -0.0616  0.4497  0.4406
 5299TIP3   OH237387   5.687   0.964   3.468 -0.0262  0.0357 -0.1755
 5299TIP3    H137388   5.748   0.933   3.401  1.0450  1.0983  0.2637
 5299TIP3    H237389   5.627   1.021   3.421 -0.4376 -0.6780 -0.5364
 5300TIP3   OH237390   3.104   5.306   5.834  0.3708 -0.7404  0.2677
 5300TIP3    H137391   3.195   5.332   5.840  0.2435  0.4933 -2.0277
 5300TIP3    H237392   3.059   5.359   5.900  1.0993 -0.2087  0.3395
 5301TIP3   OH237393   0.983   2.975   1.502  0.2817 -0.4478  0.0553
 5301TIP3    H137394   1.067   2.971   1.457  0.1535  0.0473 -0.2424
 5301TIP3    H237395   0.980   3.063   1.540  0.0775 -0.6098  0.4227
 5302TIP3   OH237396   4.766   3.490  11.610  0.3509  0.3433 -0.3444
 5302TIP3    H137397   4.706   3.504  11.536  0.1254 -0.3483 -0.2948
 5302TIP3    H237398   4.781   3.578  11.645 -0.3321  0.5655 -0.5942
 5303TIP3   OH237399   6.211   5.467  15.737  0.4003  0.1463 -0.0984
 5303TIP3    H137400   6.206   5.552  15.693 -2.2933  1.2616  2.0696
 5303TIP3    H237401   6.156   5.409  15.684  1.1314  0.1167 -0.8324
 5304TIP3   OH237402   1.062   5.072   5.168  0.2057 -0.0672 -0.4467
 5304TIP3    H137403   0.985   5.128   5.181 -0.0359 -0.3990 -0.4167
 5304TIP3    H237404   1.106   5.109   5.092 -0.1238 -0.0266 -0.6222
 5305TIP3   OH237405   1.390   5.348   1.936  0.2427  0.2391 -0.4309
 5305TIP3    H137406   1.464   5.298   1.900 -0.0263  1.3322 -2.7019
 5305TIP3    H237407   1.330   5.357   1.862 -1.7932  0.1222  1.1291
 5306TIP3   OH237408   3.530   2.199   0.368 -0.1739 -0.3748  0.2544
 5306TIP3    H137409   3.443   2.238   0.371 -0.2055 -0.3104 -1.0011
 5306TIP3    H237410   3.588   2.268   0.400 -0.0732  1.2814 -3.0476
 5307TIP3   OH237411   6.497   5.374  11.760 -0.2584 -0.9058 -0.2352
 5307TIP3    H137412   6.463   5.447  11.708 -0.2030 -1.3519 -0.9174
 5307TIP3    H237413   6.525   5.310  11.695  1.0853 -0.9181  0.3271
 5308TIP3   OH237414   0.665   3.657  12.412  0.4789 -0.5319 -0.2479
 5308TIP3    H137415   0.630   3.735  12.455 -1.0160 -2.0949  1.6234
 5308TIP3    H237416   0.629   3.660  12.323 -0.1949  0.5057  0.0456
 5309TIP3   OH237417   2.494   1.882  11.573  0.0625 -0.5489 -0.5816
 5309TIP3    H137418   2.436   1.880  11.649  2.6210 -0.4464  1.5225
 5309TIP3    H237419   2.495   1.792  11.542 -0.8111 -0.6553 -0.3432
 5310TIP3   OH237420   1.149   3.255   4.421  0.1326  0.2259  0.1341
 5310TIP3    H137421   1.101   3.252   4.338  0.0222 -2.1351  0.2095
 5310TIP3    H237422   1.111   3.185   4.473  2.8429 -1.0280  0.6174
 5311TIP3   OH237423   0.439   6.013  12.771  0.1123 -0.0087  0.2757
 5311TIP3    H137424   0.439   5.999  12.865  0.8860  0.0619  0.2953
 5311TIP3    H237425   0.527   6.045  12.752 -0.7843  2.4668 -0.0937
 5312TIP3   OH237426   1.203   0.357  11.140 -0.4028 -0.3153 -0.6845
 5312TIP3    H137427   1.123   0.306  11.153 -0.2620 -0.2407  0.5734
 5312TIP3    H237428   1.172   0.445  11.120 -0.6366 -0.6776 -2.0241
 5313TIP3   OH237429   5.284   5.851   3.302 -0.3172 -0.4555 -0.2107
 5313TIP3    H137430   5.201   5.829   3.344 -0.3578  0.0118 -0.0483
 5313TIP3    H237431   5.351   5.822   3.364 -0.2905 -2.5086 -1.1043
 5314TIP3   OH237432   4.280   4.169  11.256 -0.0191 -0.0571  0.5229
 5314TIP3    H137433   4.205   4.181  11.314  1.3969  0.1518  2.3809
 5314TIP3    H237434   4.245   4.121  11.181 -2.2198  0.9526  0.8418
 5315TIP3   OH237435   1.174   4.731   4.065 -0.0798  0.1271  0.0735
 5315TIP3    H137436   1.186   4.666   4.135  1.3610 -1.1585 -1.2685
 5315TIP3    H237437   1.262   4.765   4.049 -0.8121  2.4467  0.7173
 5316TIP3   OH237438   5.724   1.579  17.127 -0.7984  0.8565 -0.1203
 5316TIP3    H137439   5.661   1.612  17.192 -1.7505  0.0059 -0.5879
 5316TIP3    H237440   5.697   1.489  17.111  0.3911  0.5549 -0.5386
 5317TIP3   OH237441   3.969   3.217   4.412  0.5501 -0.0723  0.3480
 5317TIP3    H137442   4.054   3.235   4.373  0.7693  1.2495  1.3654
 5317TIP3    H237443   3.953   3.291   4.471 -1.9581  0.4820 -0.8809
 5318TIP3   OH237444   2.211   5.915  16.612  0.4166 -0.2407 -0.4757
 5318TIP3    H137445   2.171   5.998  16.637 -2.1686 -1.8990  1.3493
 5318TIP3    H237446   2.195   5.908  16.518 -0.3453  0.8019 -0.4425
 5319TIP3   OH237447   6.625   3.126  11.763 -0.3675 -0.7323 -0.3165
 5319TIP3    H137448   6.681   3.199  11.791  1.6770 -0.9760 -3.3244
 5319TIP3    H237449   6.539   3.165  11.751  0.3252  0.8626 -0.3743
 5320TIP3   OH237450   3.275   0.688   5.758  0.4709 -0.1065 -0.4211
 5320TIP3    H137451   3.281   0.751   5.829  0.5422 -0.7888  0.1933
 5320TIP3    H237452   3.181   0.678   5.742  0.3274 -1.4262  0.9602
 5321TIP3   OH237453   6.131   1.841  12.275  0.8978  0.2860 -0.1206
 5321TIP3    H137454   6.170   1.866  12.191 -0.0336  1.1598 -0.3183
 5321TIP3    H237455   6.108   1.749  12.265 -0.0835  0.6312 -1.1860
 5322TIP3   OH237456   1.575   5.062  13.821 -0.1790 -0.6909 -0.6797
 5322TIP3    H137457   1.481   5.067  13.837  0.2487 -0.2344  2.2571
 5322TIP3    H237458   1.587   5.099  13.733 -2.6444 -0.1559 -0.8570
 5323TIP3   OH237459   5.020   3.846  16.520  0.2910  0.0425 -0.1391
 5323TIP3    H137460   5.103   3.799  16.508  0.4571  0.6726 -1.6506
 5323TIP3    H237461   5.026   3.920  16.461 -0.7370  0.9599  0.8603
 5324TIP3   OH237462   0.127   3.911   6.565  0.1852  0.0236 -0.6836
 5324TIP3    H137463   0.173   3.870   6.638  0.0726  1.6138  0.3438
 5324TIP3    H237464   0.195   3.952   6.512  0.0758  1.8541  0.5014
 5325TIP3   OH237465   3.771   0.256   6.558  0.5126 -0.2048 -0.3010
 5325TIP3    H137466   3.704   0.323   6.571  1.3183  0.5558  0.0484
 5325TIP3    H237467   3.722   0.174   6.548 -0.4748  0.3936 -0.4626
 5326TIP3   OH237468   5.731   5.951  16.252 -0.7153 -0.2209 -0.5018
 5326TIP3    H137469   5.796   6.017  16.276 -1.0049  0.1247 -0.6718
 5326TIP3    H237470   5.783   5.874  16.231 -0.4225 -0.5689  1.2729
 5327TIP3   OH237471   3.762   5.572   6.397  0.1415  0.2142 -0.3339
 5327TIP3    H137472   3.687   5.611   6.442  1.6089  2.8719  0.0541
 5327TIP3    H237473   3.809   5.525   6.466 -0.4903 -0.4172 -0.3216
 5328TIP3   OH237474   2.907   1.170   4.892  0.4135 -0.7739  0.8199
 5328TIP3    H137475   2.841   1.217   4.841  1.0750  0.3000  0.9191
 5328TIP3    H237476   2.964   1.239   4.926  3.1243 -1.7668 -1.3558
 5329TIP3   OH237477   6.234   1.006   2.789 -0.3736  0.1712 -0.2850
 5329TIP3    H137478   6.322   1.041   2.778 -0.1815  0.3330  1.5539
 5329TIP3    H237479   6.223   0.947   2.714  1.2092  0.3143 -0.6758
 5330TIP3   OH237480   1.677   3.576  10.921  0.0366 -0.0610 -0.1463
 5330TIP3    H137481   1.684   3.488  10.956  1.5751  0.4667  1.0134
 5330TIP3    H237482   1.697   3.566  10.828 -5.3755 -1.6663 -1.4859
 5331TIP3   OH237483   4.810   4.719  17.331  0.2574  0.3954 -0.4278
 5331TIP3    H137484   4.902   4.731  17.350  0.8148  1.4166 -3.2697
 5331TIP3    H237485   4.801   4.625  17.315  0.6043  0.1812  0.5492
 5332TIP3   OH237486   6.395   3.774  13.455  0.2805 -0.0354 -0.4660
 5332TIP3    H137487   6.456   3.705  13.481  0.7084  1.0363  1.5045
 5332TIP3    H237488   6.435   3.855  13.485 -1.1524  0.8982 -0.9707
 5333TIP3   OH237489   4.301   3.907  16.328 -0.2902  0.1735 -0.7552
 5333TIP3    H137490   4.249   3.918  16.248  0.6095 -0.2216 -1.4244
 5333TIP3    H237491   4.241   3.928  16.399 -0.4488  3.1215 -1.6123
 5334TIP3   OH237492   0.025   1.204   3.468  0.5069 -0.0870 -0.2548
 5334TIP3    H137493   0.081   1.141   3.514  0.3848 -0.9839 -1.2999
 5334TIP3    H237494  -0.015   1.154   3.397 -0.9016  0.7723 -0.1037
 5335TIP3   OH237495   5.946   4.136  14.002 -0.0033 -0.0565 -0.1617
 5335TIP3    H137496   5.966   4.159  14.093  0.0990 -2.3733  0.4588
 5335TIP3    H237497   6.018   4.173  13.952  0.1509  0.9039  0.7312
 5336TIP3   OH237498   2.010   3.419  16.763  0.5059 -0.6129 -0.0160
 5336TIP3    H137499   1.995   3.513  16.776 -0.4188 -0.8229  0.5011
 5336TIP3    H237500   1.972   3.400  16.677  1.1377 -0.4224 -0.3416
 5337TIP3   OH237501   5.113   1.924  16.245  1.1612  0.0538 -0.4017
 5337TIP3    H137502   5.144   1.983  16.313 -0.9794  1.3760 -0.4674
 5337TIP3    H237503   5.073   1.851  16.293 -2.1891  1.9368  0.0228
 5338TIP3   OH237504   6.360   1.167   6.683 -0.0166  0.4209 -0.1816
 5338TIP3    H137505   6.414   1.090   6.669  0.5856  0.6273  0.9279
 5338TIP3    H237506   6.313   1.178   6.600 -1.1312 -1.9051  0.0503
 5339TIP3   OH237507   5.547   0.524   2.879  0.2971  0.0605 -0.6023
 5339TIP3    H137508   5.593   0.553   2.958  0.9675  1.0391 -1.3216
 5339TIP3    H237509   5.468   0.482   2.912 -0.2961  1.9562  0.5741
 5340TIP3   OH237510   2.462   1.196  12.512 -0.3362 -0.3729 -0.5321
 5340TIP3    H137511   2.504   1.261  12.456 -0.6134 -1.2919 -1.8604
 5340TIP3    H237512   2.489   1.111  12.476 -0.9549 -0.9942  0.4029
 5341TIP3   OH237513   3.153   0.474  11.894 -0.3246  0.3156  0.3446
 5341TIP3    H137514   3.208   0.523  11.834  0.1925  0.2339  0.7424
 5341TIP3    H237515   3.214   0.421  11.945 -0.7670  0.2577  0.8266
 5342TIP3   OH237516   5.996   0.384   0.303 -0.8154  0.3765  0.0154
 5342TIP3    H137517   6.078   0.432   0.294 -0.6657 -0.1606 -1.9450
 5342TIP3    H237518   6.020   0.292   0.295 -1.5273  0.1843 -0.0214
 5343TIP3   OH237519   3.537   5.221   0.822  0.2836 -0.0033 -0.0977
 5343TIP3    H137520   3.597   5.258   0.887 -0.5437  0.8875  0.1902
 5343TIP3    H237521   3.518   5.294   0.763  0.2760 -0.5520 -0.7897
 5344TIP3   OH237522   3.759   5.693  11.922 -0.0045  0.2925  0.0471
 5344TIP3    H137523   3.727   5.617  11.873 -0.8875  1.6633 -1.5916
 5344TIP3    H237524   3.682   5.748  11.935  0.8887  1.6386 -0.1548
 5345TIP3   OH237525   2.210   3.852   2.991 -0.1674 -0.1690  0.0559
 5345TIP3    H137526   2.212   3.909   3.068  1.4438 -2.1166  1.5727
 5345TIP3    H237527   2.155   3.778   3.018 -1.4578  0.1542 -1.5358
 5346TIP3   OH237528   4.604   2.752  17.219  0.4399  0.0307  0.2736
 5346TIP3    H137529   4.545   2.819  17.254 -0.6578 -0.5105 -0.4706
 5346TIP3    H237530   4.555   2.670  17.228  0.5164 -0.2578 -1.5559
 5347TIP3   OH237531   6.373   6.284   0.622 -0.2561  0.3976 -0.0092
 5347TIP3    H137532   6.405   6.356   0.567 -0.0399 -0.4701 -1.0580
 5347TIP3    H237533   6.278   6.294   0.620 -0.1953  1.8744  1.5893
 5348TIP3   OH237534   6.351   0.722  14.835  0.1382 -0.0417  0.0213
 5348TIP3    H137535   6.422   0.752  14.779  1.3202 -0.3387  1.3178
 5348TIP3    H237536   6.299   0.665  14.779  0.5211  0.7133 -1.1376
 5349TIP3   OH237537   4.428   6.628  12.696 -0.2589  0.7257  0.2406
 5349TIP3    H137538   4.356   6.688  12.680 -0.9534  0.9823  3.4786
 5349TIP3    H237539   4.507   6.676  12.672 -0.9682  1.8394  0.1105
 5350TIP3   OH237540   5.279   6.392   0.084 -0.1052  0.0573  0.1930
 5350TIP3    H137541   5.243   6.330   0.021 -2.6211  0.3978  1.1687
 5350TIP3    H237542   5.220   6.467   0.080  0.2690  0.5069  2.1935
 5351TIP3   OH237543   3.125   2.455   5.936  0.3923  0.1800  0.1510
 5351TIP3    H137544   3.041   2.424   5.972  1.1422 -1.8101  0.3388
 5351TIP3    H237545   3.172   2.491   6.011 -0.2027  1.1348  0.0796
 5352TIP3   OH237546   6.653   5.698  14.918 -0.5036  0.9461  0.4034
 5352TIP3    H137547   6.695   5.762  14.976 -0.3559  0.9143  0.3312
 5352TIP3    H237548   6.723   5.665  14.863 -1.1231  3.3407 -2.0527
 5353TIP3   OH237549   6.042   0.272   5.199  0.3331 -0.5412 -0.1596
 5353TIP3    H137550   5.949   0.271   5.219  0.4697 -2.8067  0.6657
 5353TIP3    H237551   6.073   0.356   5.234 -1.3623  0.2446 -0.4373
 5354TIP3   OH237552   2.116   5.180   1.207 -0.1669  0.0166 -0.1057
 5354TIP3    H137553   2.144   5.207   1.120  0.3457 -0.9941 -0.2599
 5354TIP3    H237554   2.023   5.159   1.197 -0.7453  2.1701  0.1373
 5355TIP3   OH237555   0.228   2.601   2.806  0.2068 -0.2379  0.8797
 5355TIP3    H137556   0.216   2.659   2.731 -0.4421 -0.5561  0.7343
 5355TIP3    H237557   0.240   2.514   2.767 -2.9588 -0.9174  1.1635
 5356TIP3   OH237558   6.169   1.153  14.151 -0.1163  0.5371 -0.3547
 5356TIP3    H137559   6.159   1.081  14.089  0.0034  0.2462 -0.0386
 5356TIP3    H237560   6.237   1.209  14.113 -0.2881  0.5437 -0.6550
 5357TIP3   OH237561   5.347   5.617   0.183 -0.3388 -0.6260  0.0495
 5357TIP3    H137562   5.357   5.573   0.267  0.1834  0.6264  0.6712
 5357TIP3    H237563   5.362   5.549   0.118  1.1334 -1.2311  0.9694
 5358TIP3   OH237564   3.077   1.371   4.693 -0.9884  0.0138  0.4493
 5358TIP3    H137565   3.128   1.294   4.666 -2.0300 -1.3042  2.0565
 5358TIP3    H237566   3.143   1.436   4.717 -0.0790 -0.7146  0.0115
 5359TIP3   OH237567   4.388   4.477  15.844 -0.2276 -0.0012  0.2175
 5359TIP3    H137568   4.478   4.508  15.833 -0.7133  1.7797  0.9897
 5359TIP3    H237569   4.333   4.553  15.825 -1.5492 -0.8020  0.6781
 5360TIP3   OH237570   1.365   3.141  12.899 -0.9372 -0.4466  0.1070
 5360TIP3    H137571   1.327   3.170  12.816 -1.0986  0.6633  0.5557
 5360TIP3    H237572   1.383   3.222  12.947  0.2092 -1.0297  0.6947
 5361TIP3   OH237573   2.847   3.014  11.024 -0.4910  0.1444 -0.2961
 5361TIP3    H137574   2.775   3.068  10.992 -0.9125 -0.1664  0.1061
 5361TIP3    H237575   2.903   3.000  10.948 -2.5451 -2.3697 -1.5253
 5362TIP3   OH237576   2.682   3.006   0.562  0.6977  0.0978 -0.0637
 5362TIP3    H137577   2.591   3.031   0.578  1.1310  0.6822  1.6775
 5362TIP3    H237578   2.683   2.978   0.470 -1.0874  0.7097 -0.3132
 5363TIP3   OH237579   0.562   5.048  14.905  0.0250 -0.7727 -0.4495
 5363TIP3    H137580   0.483   5.086  14.943 -0.2199 -1.6887 -0.0163
 5363TIP3    H237581   0.531   4.980  14.845  0.4707 -1.3661 -0.0302
 5364TIP3   OH237582   4.154   1.129   2.575  0.3410  0.0300 -0.1750
 5364TIP3    H137583   4.090   1.077   2.526  0.9163  0.8918 -1.9153
 5364TIP3    H237584   4.200   1.065   2.629  0.9286 -1.3097 -2.1407
 5365TIP3   OH237585   0.025   1.361  16.834  0.4176 -0.3845 -0.3300
 5365TIP3    H137586  -0.021   1.303  16.773  1.8875 -2.8869  0.8085
 5365TIP3    H237587  -0.044   1.417  16.870 -1.4013 -2.5108 -0.3004
 5366TIP3   OH237588   0.652   4.053   0.488 -0.2652  0.1209 -0.1117
 5366TIP3    H137589   0.581   4.112   0.466 -0.0605  0.7700  0.9032
 5366TIP3    H237590   0.654   3.989   0.416  0.9801  2.6332 -2.4654
 5367TIP3   OH237591   3.466   5.993   6.139  1.1096  0.0221 -0.0517
 5367TIP3    H137592   3.412   5.971   6.063  0.6432 -0.1667  0.3278
 5367TIP3    H237593   3.405   6.035   6.200  1.2927 -0.5659  0.5519
 5368TIP3   OH237594   5.243   0.394  15.866 -0.2329  0.3264  0.5750
 5368TIP3    H137595   5.277   0.321  15.918  0.8402  0.3555 -0.0483
 5368TIP3    H237596   5.225   0.463  15.930 -1.0761 -0.4028  1.1474
 5369TIP3   OH237597   2.036   2.237   5.081 -0.1329  0.0343  0.0820
 5369TIP3    H137598   2.010   2.306   5.143 -0.8870 -1.0414  1.0073
 5369TIP3    H237599   1.973   2.245   5.009 -1.3401 -0.7529  0.9982
 5370TIP3   OH237600   2.126   4.873  12.010  0.3039  0.0401  0.4083
 5370TIP3    H137601   2.095   4.784  11.990  0.5652  0.2427 -1.0294
 5370TIP3    H237602   2.140   4.873  12.105 -0.0749 -1.3317  0.4867
 5371TIP3   OH237603   5.809   0.803  12.978  0.7854  0.3949 -0.4672
 5371TIP3    H137604   5.771   0.716  12.963  1.3198 -0.1268  1.0895
 5371TIP3    H237605   5.900   0.786  13.001  0.4539  1.2131  1.6243
 5372TIP3   OH237606   0.032   3.225   1.454  0.1728 -0.4034  0.6883
 5372TIP3    H137607   0.096   3.239   1.524 -0.7612  0.7611  1.3643
 5372TIP3    H237608  -0.051   3.209   1.501  0.1123 -3.0452 -0.1401
 5373TIP3   OH237609   1.213   5.371  16.362 -0.3221 -0.2207 -0.3195
 5373TIP3    H137610   1.293   5.350  16.314  0.0193  0.3286 -0.0042
 5373TIP3    H237611   1.152   5.403  16.296 -0.8986 -2.2312 -0.8347
 5374TIP3   OH237612   5.110   4.989  13.492 -0.1139 -0.4733  0.5663
 5374TIP3    H137613   5.094   4.996  13.398  1.5274  0.1418  0.3022
 5374TIP3    H237614   5.115   5.080  13.522  1.5947 -0.6197  0.8086
 5375TIP3   OH237615   4.035   5.868  11.083  0.1031 -0.4649 -0.1961
 5375TIP3    H137616   3.980   5.797  11.052  0.3090 -0.9379  0.4978
 5375TIP3    H237617   3.993   5.947  11.048 -1.2541 -0.7765  0.6268
 5376TIP3   OH237618   6.595   5.369   1.450 -0.3703  0.6913  0.1538
 5376TIP3    H137619   6.643   5.319   1.516 -1.5383  0.6265  1.0016
 5376TIP3    H237620   6.605   5.460   1.476 -0.5306  0.6934  0.2088
 5377TIP3   OH237621   2.114   5.378   5.315  0.2464 -0.3310 -0.0255
 5377TIP3    H137622   2.071   5.456   5.350 -0.8403 -1.4377  1.2249
 5377TIP3    H237623   2.165   5.343   5.388  0.4355 -0.9804 -0.4534
 5378TIP3   OH237624   3.221   0.127   6.079  0.2819 -0.1592 -0.0731
 5378TIP3    H137625   3.253   0.055   6.025  2.3690 -0.0210  0.8899
 5378TIP3    H237626   3.246   0.206   6.031 -1.4615 -0.0233 -0.8262
 5379TIP3   OH237627   6.647   4.568  16.047 -0.6830  0.1877  0.2719
 5379TIP3    H137628   6.722   4.529  16.002 -0.1576 -0.0473  1.3154
 5379TIP3    H237629   6.573   4.515  16.021  0.0210 -1.5893  1.6731
 5380TIP3   OH237630   6.372   2.780   6.347  0.0379 -0.6892  0.1268
 5380TIP3    H137631   6.285   2.767   6.384 -0.1474 -0.9215 -0.3801
 5380TIP3    H237632   6.400   2.866   6.380  0.1526 -1.1720  1.3220
 5381TIP3   OH237633   3.755   0.217   4.291  0.0706  0.1056  0.3260
 5381TIP3    H137634   3.842   0.178   4.280 -0.7359 -2.0723  1.0206
 5381TIP3    H237635   3.741   0.269   4.212  0.9706 -1.6737 -1.0795
 5382TIP3   OH237636   4.659   4.031  11.883 -0.4321  0.0032 -0.4346
 5382TIP3    H137637   4.571   4.050  11.916 -0.4590  1.5427 -1.2959
 5382TIP3    H237638   4.686   3.953  11.931 -1.1198  1.1453  1.9699
 5383TIP3   OH237639   4.851   0.355  14.171  0.2735  0.1119  0.0683
 5383TIP3    H137640   4.802   0.315  14.099  2.1367 -0.0399 -1.1780
 5383TIP3    H237641   4.911   0.415  14.128 -1.8885  3.8401  1.8286
 5384TIP3   OH237642   5.193   5.846  16.866 -0.6789 -0.0732 -0.6064
 5384TIP3    H137643   5.249   5.903  16.814 -0.1429 -0.3168 -0.2973
 5384TIP3    H237644   5.179   5.769  16.811 -0.4374 -0.1569 -0.5515
 5385TIP3   OH237645   3.120   4.898   5.180  0.0170  0.7939 -0.0108
 5385TIP3    H137646   3.050   4.927   5.122 -0.5253 -0.8434 -0.2107
 5385TIP3    H237647   3.185   4.968   5.175 -1.0049  1.7175 -0.8547
 5386TIP3   OH237648   0.617   5.523   3.466  0.4563  0.3109  0.4803
 5386TIP3    H137649   0.526   5.541   3.490 -0.0888 -0.0067 -1.2172
 5386TIP3    H237650   0.628   5.565   3.381  1.3541 -1.1708 -0.1691
 5387TIP3   OH237651   1.479   2.086  11.337 -0.3249  0.0718 -0.3922
 5387TIP3    H137652   1.415   2.015  11.333 -1.1993  0.8940 -2.0912
 5387TIP3    H237653   1.560   2.048  11.302  0.0296 -0.8258  1.2929
 5388TIP3   OH237654   0.436   1.246  11.701 -0.0012  0.0654 -0.0677
 5388TIP3    H137655   0.498   1.224  11.631  0.0394 -1.6053  0.4535
 5388TIP3    H237656   0.390   1.164  11.719 -0.2656  0.5439  1.6097
 5389TIP3   OH237657   2.511   5.856   6.805 -0.0409 -0.2297  0.1156
 5389TIP3    H137658   2.559   5.877   6.724 -0.3311  0.0993  0.0285
 5389TIP3    H237659   2.479   5.766   6.791  2.1254 -1.2047  0.9308
 5390TIP3   OH237660   1.080   3.252   6.369  0.0901 -0.0451 -0.2407
 5390TIP3    H137661   1.083   3.200   6.289  1.9341  0.7423 -0.7336
 5390TIP3    H237662   0.987   3.272   6.381 -0.0959  2.3906 -3.9583
 5391TIP3   OH237663   5.128   3.373   2.019 -0.0810  0.5643 -0.4219
 5391TIP3    H137664   5.051   3.341   2.066 -0.7987 -0.3679 -2.1651
 5391TIP3    H237665   5.181   3.294   2.005  1.2229  1.1865  0.7222
 5392TIP3   OH237666   4.464   3.353  15.756  0.1181 -0.4708 -0.2676
 5392TIP3    H137667   4.412   3.335  15.678  0.7260  0.5160 -0.9404
 5392TIP3    H237668   4.401   3.352  15.828 -0.7529  0.1891 -0.9869
 5393TIP3   OH237669   2.535   0.741   3.525  0.0835  0.0654  0.7605
 5393TIP3    H137670   2.580   0.821   3.499 -1.0656  0.6938  0.6542
 5393TIP3    H237671   2.486   0.714   3.448 -3.2766  1.8989  1.9932
 5394TIP3   OH237672   2.094   1.293   0.764 -0.1935 -0.2041  0.1694
 5394TIP3    H137673   2.049   1.309   0.680 -1.1203  0.3178  0.7398
 5394TIP3    H237674   2.108   1.199   0.766 -0.3884 -0.2532 -0.4698
 5395TIP3   OH237675   1.678   5.107  14.576 -0.5173 -0.4457 -0.3146
 5395TIP3    H137676   1.736   5.183  14.580  0.8708 -1.5213  1.1728
 5395TIP3    H237677   1.610   5.125  14.640  0.1452 -0.7036  0.4715
 5396TIP3   OH237678   6.197   5.807   4.502  0.2313 -0.4425  0.2658
 5396TIP3    H137679   6.157   5.763   4.427 -1.7828  0.8231  0.5254
 5396TIP3    H237680   6.165   5.897   4.497  1.6310  0.1803  1.5705
 5397TIP3   OH237681   1.351   6.142  15.856  0.5296 -0.2304  0.2979
 5397TIP3    H137682   1.344   6.236  15.840  0.0981  0.1581  2.5039
 5397TIP3    H237683   1.348   6.133  15.951  1.6138 -2.4163  0.1905
 5398TIP3   OH237684   3.946   5.810   0.495  0.0433 -0.5742 -0.3365
 5398TIP3    H137685   3.850   5.812   0.493  0.0160  2.1191 -0.1948
 5398TIP3    H237686   3.972   5.849   0.411  0.9490  0.1967  0.2735
 5399TIP3   OH237687   4.889   3.260  12.504 -0.1968 -0.4749 -0.5584
 5399TIP3    H137688   4.810   3.227  12.460 -1.3462 -1.4437  1.9906
 5399TIP3    H237689   4.936   3.181  12.530  0.4858  0.0559 -0.1444
 5400TIP3   OH237690   4.027   4.978   1.460  0.0977 -0.2243 -1.0156
 5400TIP3    H137691   4.005   5.009   1.548 -0.9234  1.6773 -1.8954
 5400TIP3    H237692   4.099   5.034   1.432 -0.5316  0.1483 -1.9295
 5401TIP3   OH237693   4.071   5.632   1.985  0.3537  0.0055  0.2233
 5401TIP3    H137694   4.130   5.693   1.941 -0.6189 -0.7902 -2.3787
 5401TIP3    H237695   3.985   5.673   1.977 -0.0592 -0.8935 -0.0562
 5402TIP3   OH237696   2.158   1.112   2.057 -0.7573 -0.1738 -0.1883
 5402TIP3    H137697   2.197   1.038   2.103 -0.0253 -0.1617 -0.7785
 5402TIP3    H237698   2.107   1.157   2.125  0.9770  0.3261  0.8490
 5403TIP3   OH237699   2.059   5.533  16.329 -0.3561  0.0330  0.1947
 5403TIP3    H137700   1.986   5.593  16.341  0.4174  1.2798 -0.9022
 5403TIP3    H237701   2.114   5.545  16.407 -2.3196 -2.5710  2.1523
 5404TIP3   OH237702   6.512   1.826   2.593  0.1764 -0.0834 -0.0267
 5404TIP3    H137703   6.534   1.763   2.525  0.0777  0.1790 -0.3012
 5404TIP3    H237704   6.470   1.774   2.662 -2.3271  0.0433 -1.3543
 5405TIP3   OH237705   4.194   6.202  16.002  0.0950 -0.0644 -0.0126
 5405TIP3    H137706   4.258   6.131  16.001  1.1340  0.7638  2.0291
 5405TIP3    H237707   4.174   6.216  16.094  0.1649  2.4789 -0.2955
 5406TIP3   OH237708   6.692   5.505   3.033 -1.2588  0.0691 -0.2301
 5406TIP3    H137709   6.714   5.582   3.085 -0.1151 -1.4302  1.6253
 5406TIP3    H237710   6.646   5.447   3.093  1.5627 -2.4390 -0.2564
 5407TIP3   OH237711   3.955   5.329  10.581 -0.2722  0.3642 -0.5960
 5407TIP3    H137712   3.923   5.402  10.635 -1.2970 -0.0468 -0.6224
 5407TIP3    H237713   4.042   5.311  10.615 -0.2888  1.1392 -0.1145
 5408TIP3   OH237714   2.777   6.624   6.038 -0.0849 -0.3736 -0.5107
 5408TIP3    H137715   2.773   6.531   6.015  1.2759 -0.6324  0.1948
 5408TIP3    H237716   2.690   6.645   6.071 -0.7346 -1.1078 -1.6746
 5409TIP3   OH237717   1.675   6.713  11.753  0.5754  0.0417  0.3267
 5409TIP3    H137718   1.750   6.678  11.802 -0.8742 -2.1060  1.2058
 5409TIP3    H237719   1.713   6.767  11.685  2.8135  1.0771  2.2582
 5410TIP3   OH237720   1.523   5.024  12.845 -0.4738  0.1382  0.0164
 5410TIP3    H137721   1.586   5.078  12.797 -0.0564  0.6085  1.0514
 5410TIP3    H237722   1.438   5.044  12.806 -0.1980  0.8237 -0.2475
 5411TIP3   OH237723   4.515   6.577  17.397  0.4168  0.2867  0.2055
 5411TIP3    H137724   4.563   6.537  17.470  0.1152 -0.2382  0.1218
 5411TIP3    H237725   4.576   6.573  17.323 -0.0902 -1.2567 -0.1514
 5412TIP3   OH237726   5.324   0.553   4.369  0.0276  0.2237 -0.3179
 5412TIP3    H137727   5.351   0.465   4.344 -0.8639 -0.3310  0.5725
 5412TIP3    H237728   5.264   0.581   4.299 -1.9704 -1.0668  0.7940
 5413TIP3   OH237729   5.623   1.279   0.657 -0.4297  0.0616  0.4378
 5413TIP3    H137730   5.639   1.198   0.608 -0.2042 -0.5955  1.5730
 5413TIP3    H237731   5.700   1.289   0.713  0.1410  1.7563 -0.5725
 5414TIP3   OH237732   2.707   1.812  15.849  0.7409  0.0755  0.3224
 5414TIP3    H137733   2.616   1.823  15.876 -0.1218 -0.6649 -2.0192
 5414TIP3    H237734   2.740   1.741  15.904 -0.4102 -0.3053  0.5431
 5415TIP3   OH237735   4.329   0.117  16.684  0.0208  0.1450  0.0953
 5415TIP3    H137736   4.291   0.058  16.619 -1.1364 -1.6831  2.2878
 5415TIP3    H237737   4.291   0.089  16.767  0.5136  3.1433  1.4483
 5416TIP3   OH237738   0.778   2.206   5.235 -0.3522 -0.3072  0.2042
 5416TIP3    H137739   0.742   2.200   5.323 -3.2792 -0.6890 -0.9072
 5416TIP3    H237740   0.739   2.285   5.199  0.3115 -0.4872 -0.9552
 5417TIP3   OH237741   4.887   0.952  14.607  0.4523 -0.1394  0.2808
 5417TIP3    H137742   4.926   1.022  14.555 -1.0972  2.4183  2.3070
 5417TIP3    H237743   4.833   0.903  14.544 -2.0213  3.3138 -0.5929
 5418TIP3   OH237744   6.734   2.977   1.290 -0.2399 -0.0649 -0.3127
 5418TIP3    H137745   6.818   3.018   1.309 -0.2666  0.1619 -0.6887
 5418TIP3    H237746   6.676   3.010   1.359 -0.2437  0.4790 -0.5726
 5419TIP3   OH237747   4.763   2.828   4.732  0.0614  0.4090  0.0076
 5419TIP3    H137748   4.828   2.888   4.695 -2.1333  1.5010 -2.3430
 5419TIP3    H237749   4.778   2.745   4.686  0.0964  0.5001 -0.1430
 5420TIP3   OH237750   6.472   0.604   3.722 -0.0559 -0.9741 -0.0661
 5420TIP3    H137751   6.461   0.663   3.647  2.0944  0.8820  0.9879
 5420TIP3    H237752   6.383   0.577   3.744 -1.1507  1.7862 -0.6991
 5421TIP3   OH237753   6.183   4.492   4.408  0.3954  0.0154 -0.4605
 5421TIP3    H137754   6.134   4.509   4.327  0.1301 -0.7084 -0.4635
 5421TIP3    H237755   6.156   4.403   4.433  1.6748 -0.3852 -0.4339
 5422TIP3   OH237756   2.368   2.249   0.335 -0.0269  0.7617 -0.0480
 5422TIP3    H137757   2.371   2.156   0.311 -1.0310  0.3549  1.2786
 5422TIP3    H237758   2.460   2.278   0.329  0.1945 -0.1018 -1.1947
 5423TIP3   OH237759   5.151   0.974   0.567  0.4837 -0.5332  0.5675
 5423TIP3    H137760   5.157   0.963   0.662  3.6741 -0.7014  0.4418
 5423TIP3    H237761   5.191   0.895   0.531  0.7473  0.2212 -0.8740
 5424TIP3   OH237762   0.777   4.687  11.866  0.0954 -0.4711 -0.3403
 5424TIP3    H137763   0.820   4.683  11.952  3.8566  0.4310 -1.9555
 5424TIP3    H237764   0.739   4.775  11.863 -1.5986 -1.1090  0.9616
 5425TIP3   OH237765   1.564   4.362   3.369 -0.6841  0.0340  0.1376
 5425TIP3    H137766   1.557   4.327   3.458 -0.7023  0.9318  0.5003
 5425TIP3    H237767   1.535   4.453   3.377  0.9296  0.6332 -0.4624
 5426TIP3   OH237768   3.246   5.950   5.977  0.6371 -0.2618  0.2444
 5426TIP3    H137769   3.163   5.914   6.009  0.3253  0.5432  0.3759
 5426TIP3    H237770   3.220   6.022   5.919  1.2416  0.0096  0.3036
 5427TIP3   OH237771   2.520   0.859  12.438 -0.1620  0.2928 -1.0889
 5427TIP3    H137772   2.500   0.868  12.344 -1.9465 -2.9893 -1.1659
 5427TIP3    H237773   2.616   0.855  12.442 -0.0785 -1.4482 -3.0855
 5428TIP3   OH237774   6.576   3.611   2.407 -0.2692  0.1300 -0.1875
 5428TIP3    H137775   6.627   3.669   2.463 -2.5379  0.7736  1.3278
 5428TIP3    H237776   6.573   3.528   2.456  0.2641 -0.2803 -0.8292
 5429TIP3   OH237777   2.641   4.708  17.256  0.0518 -0.4896  0.3462
 5429TIP3    H137778   2.713   4.771  17.267 -0.0224 -0.1988 -0.6762
 5429TIP3    H237779   2.684   4.624  17.243  0.2732 -0.1210 -1.4993
 5430TIP3   OH237780   1.849   2.476   0.451  0.0594  0.1129 -0.1585
 5430TIP3    H137781   1.827   2.514   0.366  0.2835 -0.2550 -0.3857
 5430TIP3    H237782   1.766   2.472   0.499 -0.0761  0.2643 -0.3816
 5431TIP3   OH237783   0.172   2.530   3.858 -0.0263 -0.2409  0.3322
 5431TIP3    H137784   0.218   2.538   3.942 -1.4861 -1.5342  1.3164
 5431TIP3    H237785   0.241   2.510   3.795  0.8488 -1.7133  1.6793
 5432TIP3   OH237786   2.582   1.927  11.894  0.3416 -0.1810  0.2666
 5432TIP3    H137787   2.596   1.833  11.885 -2.9321 -0.9963  1.9735
 5432TIP3    H237788   2.505   1.945  11.841 -0.5557  0.9744  1.8640
 5433TIP3   OH237789   2.860   2.948   1.301 -0.2316  0.8106 -0.6058
 5433TIP3    H137790   2.813   2.904   1.230 -0.6325  1.5673 -0.8208
 5433TIP3    H237791   2.803   3.021   1.326  0.7809  1.7094 -0.8226
 5434TIP3   OH237792   0.120   2.412  15.239  0.0643 -0.8782 -0.4532
 5434TIP3    H137793   0.185   2.475  15.209 -0.6855 -1.7195 -4.3979
 5434TIP3    H237794   0.170   2.345  15.285  1.2967  0.7951  0.7399
 5435TIP3   OH237795   4.751   3.798  11.997  0.2873 -0.2065 -0.2420
 5435TIP3    H137796   4.789   3.711  11.982 -1.0796 -0.7929 -0.5007
 5435TIP3    H237797   4.813   3.841  12.056  1.9808 -0.6197 -1.6258
 5436TIP3   OH237798   5.768   6.195   1.351  0.2519  0.0992  0.1081
 5436TIP3    H137799   5.728   6.278   1.374 -0.6676 -0.6025  1.1186
 5436TIP3    H237800   5.719   6.164   1.275  0.1400  0.1441  0.1630
 5437TIP3   OH237801   4.882   2.616  14.256 -0.0962  0.1629 -0.4964
 5437TIP3    H137802   4.792   2.586  14.267 -0.0217  0.1478  0.0917
 5437TIP3    H237803   4.909   2.643  14.343  0.5550 -0.0631 -0.6250
 5438TIP3   OH237804   2.154   0.817  16.380 -0.3452  0.0621  0.6241
 5438TIP3    H137805   2.136   0.740  16.325  1.9364  1.8048 -2.9857
 5438TIP3    H237806   2.092   0.883  16.349  0.2602  0.7701  0.9082
 5439TIP3   OH237807   4.414   4.430  13.461 -0.4801 -0.4304  0.1083
 5439TIP3    H137808   4.392   4.396  13.375 -1.6648 -0.6349  0.4650
 5439TIP3    H237809   4.342   4.401  13.517  0.4663 -0.6412  1.2533
 5440TIP3   OH237810   1.709   3.368   1.309  0.7881  0.2697 -0.0598
 5440TIP3    H137811   1.771   3.411   1.368 -1.6103  0.2354  2.6988
 5440TIP3    H237812   1.764   3.309   1.256  3.3977  2.2529  0.2084
 5441TIP3   OH237813   0.564   4.712  14.933  0.1968 -0.1336 -0.3872
 5441TIP3    H137814   0.649   4.671  14.952 -0.4365 -1.4060 -0.2077
 5441TIP3    H237815   0.526   4.728  15.019  0.0293 -0.0471 -0.4782
 5442TIP3   OH237816   5.819   4.766   2.721 -0.1505  0.1128 -0.2473
 5442TIP3    H137817   5.809   4.711   2.799 -1.5312 -0.1525 -0.5836
 5442TIP3    H237818   5.832   4.703   2.650  0.0087  0.2994 -0.3822
 5443TIP3   OH237819   1.645   5.381   4.313  0.7354  0.3400 -0.5293
 5443TIP3    H137820   1.698   5.306   4.286 -0.7834 -1.6065  1.4271
 5443TIP3    H237821   1.559   5.366   4.272  0.3356  0.8471  0.0979
 5444TIP3   OH237822   1.205   0.578   0.748  0.1795  0.1546 -0.6485
 5444TIP3    H137823   1.253   0.495   0.754  0.3261  0.3317  1.0938
 5444TIP3    H237824   1.124   0.555   0.703  0.5901 -0.7546 -0.9499
 5445TIP3   OH237825   0.551   2.735  13.971  0.7502  0.2494  0.1121
 5445TIP3    H137826   0.631   2.714  13.924 -0.6413 -0.3501 -2.1040
 5445TIP3    H237827   0.485   2.676  13.935 -0.8924  1.2634  1.3092
 5446TIP3   OH237828   3.212   5.581  15.479 -0.1554  0.2056 -0.0305
 5446TIP3    H137829   3.146   5.643  15.510 -0.3340 -0.1949  0.4031
 5446TIP3    H237830   3.231   5.526  15.555  1.4463  0.9691  0.1598
 5447TIP3   OH237831   4.563   4.626   0.526 -0.8688  0.1003 -0.0993
 5447TIP3    H137832   4.586   4.629   0.433 -1.4909  0.3247 -0.2545
 5447TIP3    H237833   4.507   4.703   0.539 -2.2598 -0.8884  0.0406
 5448TIP3   OH237834   2.316   6.074  13.560  0.5280  0.3445 -0.0391
 5448TIP3    H137835   2.298   5.985  13.530  0.1671 -0.0674  1.3182
 5448TIP3    H237836   2.366   6.061  13.641 -0.2088  1.3666  0.5868
 5449TIP3   OH237837   5.903   0.131  15.143 -0.5660  0.3059 -0.0600
 5449TIP3    H137838   5.977   0.091  15.189 -1.4022 -0.0839  1.0024
 5449TIP3    H237839   5.914   0.104  15.052  0.7190  0.4521  0.0357
 5450TIP3   OH237840   3.712   0.227  10.496 -0.2778 -0.8026  0.2240
 5450TIP3    H137841   3.628   0.217  10.451 -1.6546 -0.4208  2.5793
 5450TIP3    H237842   3.702   0.180  10.578  1.6106 -0.2486  0.8315
 5451TIP3   OH237843   6.629   6.441  14.767 -0.2965  0.1260 -0.1419
 5451TIP3    H137844   6.722   6.455  14.786 -0.7554  0.3066  2.3512
 5451TIP3    H237845   6.588   6.435  14.853 -2.6305  0.1770 -1.1796
 5452TIP3   OH237846   2.188   4.444  10.751 -0.3299 -1.0317  0.6969
 5452TIP3    H137847   2.139   4.448  10.669 -0.3215 -1.7553  0.6534
 5452TIP3    H237848   2.279   4.428  10.724 -0.4858 -2.3113  0.8788
 5453TIP3   OH237849   1.778   3.003  12.181 -0.0876 -1.0932 -0.0956
 5453TIP3    H137850   1.724   3.081  12.175 -0.2892 -1.3363 -1.9410
 5453TIP3    H237851   1.763   2.970  12.270 -1.1066  0.1570  0.2169
 5454TIP3   OH237852   2.476   6.640   5.723  0.3198  0.0659 -0.3565
 5454TIP3    H137853   2.408   6.613   5.661  0.5400  1.3951 -1.1991
 5454TIP3    H237854   2.433   6.637   5.809 -0.5153 -0.0484 -0.7699
 5455TIP3   OH237855   2.173   2.434   0.282 -0.4354  0.8332 -0.2283
 5455TIP3    H137856   2.234   2.364   0.304  0.4095  1.6570  0.1354
 5455TIP3    H237857   2.154   2.421   0.189 -0.3865  0.0640 -0.1394
 5456TIP3   OH237858   0.834   2.424  13.348  0.0030  0.4786  0.7619
 5456TIP3    H137859   0.753   2.429  13.296 -0.6542 -1.2782  1.5562
 5456TIP3    H237860   0.892   2.488  13.307 -1.8806  2.0116  0.3536
 5457TIP3   OH237861   1.672   3.301   6.703  0.2201 -0.4747  0.0150
 5457TIP3    H137862   1.587   3.336   6.679 -0.5586 -1.0434  1.7812
 5457TIP3    H237863   1.698   3.352   6.780  0.1294 -2.1969  1.2200
 5458TIP3   OH237864   4.776   5.286  13.992 -0.2386 -0.3382  0.6281
 5458TIP3    H137865   4.728   5.352  14.041 -0.5273  2.2171 -2.7624
 5458TIP3    H237866   4.866   5.320  13.986  0.0904 -1.2042  0.4347
 5459TIP3   OH237867   6.365   6.276  10.918 -0.1073 -0.6412 -0.4421
 5459TIP3    H137868   6.310   6.337  10.869  0.2894 -0.7111 -0.9805
 5459TIP3    H237869   6.327   6.190  10.901 -1.1232 -0.4910  0.9238
 5460TIP3   OH237870   1.568   1.722   5.606 -0.1139  0.3372  0.1631
 5460TIP3    H137871   1.519   1.801   5.581 -0.1125  0.5763  0.9017
 5460TIP3    H237872   1.500   1.657   5.622 -0.1840  0.5989  0.9484
 5461TIP3   OH237873   3.329   1.052   5.284 -0.3827  0.1631 -0.3028
 5461TIP3    H137874   3.279   0.992   5.339  0.7066  0.4703  1.0643
 5461TIP3    H237875   3.309   1.139   5.319 -0.4218  0.4530 -1.0202
 5462TIP3   OH237876   3.624   2.906   0.744 -0.1952  0.5327  0.1385
 5462TIP3    H137877   3.701   2.915   0.801 -0.5183  0.0114  0.6611
 5462TIP3    H237878   3.661   2.884   0.658  0.2181 -0.3088  0.5229
 5463TIP3   OH237879   6.674   3.966  12.712  0.4814 -0.2227 -0.1453
 5463TIP3    H137880   6.767   3.981  12.729  0.5654 -0.5341 -0.3265
 5463TIP3    H237881   6.659   3.875  12.737  0.0888 -0.0037  0.4476
 5464TIP3   OH237882   0.907   5.677   4.439 -0.0401 -0.2930  0.5659
 5464TIP3    H137883   0.964   5.743   4.400 -1.4643  0.4033 -0.3858
 5464TIP3    H237884   0.927   5.597   4.391 -0.1941  0.0524 -0.0819
 5465TIP3   OH237885   0.957   4.375  12.496 -0.1831 -0.0105  0.3736
 5465TIP3    H137886   0.971   4.294  12.447  0.0911  0.9402 -1.1911
 5465TIP3    H237887   1.009   4.441  12.450 -2.7441  1.7204 -0.2638
 5466TIP3   OH237888   6.319   1.219   5.044 -0.2878  0.4968 -0.7418
 5466TIP3    H137889   6.303   1.125   5.036  2.8006 -0.5575  2.4071
 5466TIP3    H237890   6.406   1.231   5.006  0.2324  1.5968  0.7014
 5467TIP3   OH237891   0.021   1.653   6.016 -0.2888 -0.5555  0.1371
 5467TIP3    H137892   0.095   1.712   6.001  1.1290 -2.3954 -0.4142
 5467TIP3    H237893   0.032   1.624   6.107 -0.5014 -0.6025  0.1476
 5468TIP3   OH237894   4.080   4.456   3.633  0.0668  0.5637  0.2105
 5468TIP3    H137895   4.115   4.477   3.719 -0.4166 -1.0663  0.8448
 5468TIP3    H237896   4.158   4.440   3.579  0.3927 -1.1603  1.1114
 5469TIP3   OH237897   6.482   0.194  14.513  0.6528  1.0865  0.3255
 5469TIP3    H137898   6.466   0.130  14.583  1.0435 -0.4493 -0.9454
 5469TIP3    H237899   6.577   0.203  14.510  0.5982  1.8853  0.5928
 5470TIP3   OH237900   5.507   1.436   5.693 -0.1200 -0.5519 -0.5541
 5470TIP3    H137901   5.592   1.461   5.658  0.6593 -2.0797  0.1454
 5470TIP3    H237902   5.449   1.432   5.617  0.4547  0.3725 -1.0527
 5471TIP3   OH237903   5.114   5.884  12.675  0.1079  0.0007  0.2287
 5471TIP3    H137904   5.157   5.825  12.613  0.5692 -0.6595  1.1542
 5471TIP3    H237905   5.020   5.876  12.655  0.2953  0.4133 -0.8974
 5472TIP3   OH237906   1.465   5.518  15.605  0.1514 -0.0065  0.6533
 5472TIP3    H137907   1.381   5.556  15.578 -0.8334 -0.7470  2.4611
 5472TIP3    H237908   1.507   5.586  15.657  0.5600  0.2676 -0.0264
 5473TIP3   OH237909   3.799   4.479  10.925 -0.0467 -0.2550 -0.2749
 5473TIP3    H137910   3.720   4.476  10.979 -0.9686 -0.5798 -1.6019
 5473TIP3    H237911   3.860   4.419  10.969  0.3268  1.6315  1.9908
 5474TIP3   OH237912   1.347   1.715   4.421 -0.0876  0.0125  0.0364
 5474TIP3    H137913   1.306   1.756   4.497  3.4496  0.8437  1.7103
 5474TIP3    H237914   1.363   1.787   4.360  0.7743  0.0961  0.3509
 5475TIP3   OH237915   3.066   2.346   0.156 -0.1280 -0.5118 -0.1083
 5475TIP3    H137916   3.131   2.385   0.098 -1.5687  0.4349 -1.1588
 5475TIP3    H237917   3.036   2.268   0.109 -0.3016 -0.5145  0.0085
 5476TIP3   OH237918   5.691   5.836  11.261 -0.0862  0.6595 -0.2681
 5476TIP3    H137919   5.630   5.854  11.332 -0.0197  1.0699 -0.3154
 5476TIP3    H237920   5.636   5.837  11.182 -0.2907 -0.4960 -0.1663
 5477TIP3   OH237921   0.542   2.535  15.890 -0.4307 -0.2492  0.3632
 5477TIP3    H137922   0.463   2.525  15.941 -0.1752 -1.4073  0.5724
 5477TIP3    H237923   0.512   2.567  15.805 -1.1740 -1.0225  0.3169
 5478TIP3   OH237924   4.520   4.109   3.735 -0.2350 -0.0949 -0.0391
 5478TIP3    H137925   4.509   4.018   3.761  0.0964 -0.2381 -0.3800
 5478TIP3    H237926   4.438   4.152   3.759 -0.6547 -0.6326 -0.5058
 5479TIP3   OH237927   3.714   2.653   1.971  0.1219 -0.1706  0.0448
 5479TIP3    H137928   3.721   2.600   2.050 -0.0297 -0.1270  0.0893
 5479TIP3    H237929   3.673   2.734   2.001 -0.2708 -0.2974 -0.1384
 5480TIP3   OH237930   3.295   4.438   5.027 -0.2675 -0.1463 -0.3928
 5480TIP3    H137931   3.255   4.513   4.983  1.0975  0.6031 -0.4333
 5480TIP3    H237932   3.347   4.396   4.959  0.4123 -0.0503  0.0554
 5481TIP3   OH237933   4.625   5.595   4.513  0.1325  0.4673 -0.5387
 5481TIP3    H137934   4.552   5.540   4.540 -0.7470  1.5738 -0.5858
 5481TIP3    H237935   4.679   5.603   4.592  0.9022 -1.3594 -0.8286
 5482TIP3   OH237936   4.871   2.707  14.551 -0.3680 -0.3003  0.1013
 5482TIP3    H137937   4.787   2.660  14.551  0.0934 -1.1787  1.2573
 5482TIP3    H237938   4.849   2.796  14.578 -0.7832 -0.8576  1.6756
 5483TIP3   OH237939   6.582   5.553   2.005 -0.9958  0.2694 -0.1719
 5483TIP3    H137940   6.658   5.498   2.023 -3.4157 -3.3591  0.2171
 5483TIP3    H237941   6.553   5.526   1.918 -1.5624  1.9756 -0.5466
 5484TIP3   OH237942   0.829   1.891   1.410  0.0666 -0.2857  1.2524
 5484TIP3    H137943   0.832   1.920   1.501  0.5162  0.8538  0.8976
 5484TIP3    H237944   0.888   1.816   1.407  0.5046  0.0242  1.7900
 5485TIP3   OH237945   4.556   3.990  16.749 -0.3824 -0.4108 -0.2236
 5485TIP3    H137946   4.508   4.056  16.699 -0.7387  2.1826  3.1502
 5485TIP3    H237947   4.647   4.003  16.724 -0.3203  2.1516  0.9265
 5486TIP3   OH237948   1.679   5.993  11.522  0.2365 -0.2684 -0.0937
 5486TIP3    H137949   1.609   5.945  11.567 -1.1075  0.0564 -1.7386
 5486TIP3    H237950   1.638   6.025  11.442  0.7964  4.2783  1.1971
 5487TIP3   OH237951   0.807   6.270   0.142 -0.2760  0.6333 -0.2769
 5487TIP3    H137952   0.755   6.281   0.062 -0.3074 -0.1626 -0.3711
 5487TIP3    H237953   0.813   6.358   0.178 -2.3876  0.6477  0.1770
 5488TIP3   OH237954   1.930   5.087  15.762 -0.4502 -0.0797 -0.0723
 5488TIP3    H137955   1.869   5.154  15.792 -0.6647 -0.4942  0.4452
 5488TIP3    H237956   1.979   5.062  15.840 -0.1302 -0.2794 -0.3321
 5489TIP3   OH237957   0.023   6.328  10.881 -0.0172  0.2298  0.1555
 5489TIP3    H137958   0.099   6.271  10.867  0.7249  1.0183  0.8274
 5489TIP3    H237959   0.001   6.317  10.974 -0.9550 -0.2589 -0.1161
 5490TIP3   OH237960   2.082   4.556   0.151 -0.0274 -0.4689  0.7723
 5490TIP3    H137961   2.177   4.572   0.154 -0.3071  1.2995  2.8582
 5490TIP3    H237962   2.045   4.639   0.119 -0.8500 -1.5249 -1.1665
 5491TIP3   OH237963   5.626   3.771   2.018  0.5809 -0.3432 -0.2805
 5491TIP3    H137964   5.657   3.701   1.961  1.9768  1.1285 -1.4428
 5491TIP3    H237965   5.621   3.848   1.960  0.4769  0.8355  1.2394
 5492TIP3   OH237966   3.023   6.599   5.179  0.2150 -0.1461  0.1010
 5492TIP3    H137967   3.032   6.506   5.160  1.9583 -0.3443  1.6359
 5492TIP3    H237968   3.098   6.640   5.137 -0.5491  0.5943 -0.5793
 5493TIP3   OH237969   2.136   5.160  14.732  1.2401 -0.0216 -0.1604
 5493TIP3    H137970   2.231   5.149  14.736  1.2325 -0.3922 -0.8989
 5493TIP3    H237971   2.101   5.072  14.743  0.8750  0.3519  2.3918
 5494TIP3   OH237972   4.360   3.301   3.347  0.2513 -0.0114  0.2552
 5494TIP3    H137973   4.362   3.211   3.316  0.5394  0.3103 -0.6886
 5494TIP3    H237974   4.282   3.306   3.402 -1.2077 -0.1986 -1.7110
 5495TIP3   OH237975   2.542   1.982   2.910 -0.0903  0.2816 -0.1163
 5495TIP3    H137976   2.449   2.001   2.897  0.2471  2.3705  0.1820
 5495TIP3    H237977   2.560   1.910   2.850 -2.1911 -1.1143  0.8271
 5496TIP3   OH237978   2.265   4.556   1.476  0.6589 -0.3702 -0.1842
 5496TIP3    H137979   2.352   4.595   1.463  0.9215 -1.1940 -1.0217
 5496TIP3    H237980   2.232   4.542   1.387 -0.0936 -0.5832  0.1266
 5497TIP3   OH237981   5.720   5.510  16.310  0.0780  0.1340  0.3657
 5497TIP3    H137982   5.762   5.580  16.361  0.1400 -0.2698  0.8822
 5497TIP3    H237983   5.652   5.555  16.259 -0.5941  0.4431  1.4884
 5498TIP3   OH237984   3.813   1.565  14.682  0.1279 -0.1180  0.3357
 5498TIP3    H137985   3.762   1.573  14.763  0.3329 -0.4322  0.4976
 5498TIP3    H237986   3.770   1.624  14.621  1.1753  1.7302  1.2746
 5499TIP3   OH237987   0.200   5.910  16.282  0.0240  0.4259 -0.2582
 5499TIP3    H137988   0.154   5.844  16.335  0.9345 -0.2169 -0.2486
 5499TIP3    H237989   0.132   5.974  16.261 -1.0459 -0.8029 -0.7509
 5500TIP3   OH237990   6.617   0.257  15.104  0.2068 -0.0250 -0.4789
 5500TIP3    H137991   6.617   0.220  15.016  0.2721 -0.2047 -0.4026
 5500TIP3    H237992   6.676   0.201  15.154 -1.2014 -1.0065  0.1427
 5501TIP3   OH237993   3.564   3.038  13.237  0.5296  0.0613  0.2809
 5501TIP3    H137994   3.535   2.963  13.184 -1.0194  0.2178  0.8480
 5501TIP3    H237995   3.627   3.084  13.181  0.7087 -1.0710 -0.4893
 5502TIP3   OH237996   3.729   5.036   3.998 -0.0583  0.1033  0.2401
 5502TIP3    H137997   3.751   5.078   3.916 -0.2216 -1.3763 -0.5964
 5502TIP3    H237998   3.676   5.101   4.045  1.3837  1.5876 -0.0873
 5503TIP3   OH237999   3.521   3.273  12.950  0.4452  0.4692 -0.1053
 5503TIP3    H138000   3.435   3.249  12.983  0.5295 -0.0611 -0.2648
 5503TIP3    H238001   3.504   3.326  12.872  0.2423  1.7442  0.7688
 5504TIP3   OH238002   3.721   5.512  17.034  0.2280 -0.3693  0.4114
 5504TIP3    H138003   3.736   5.488  16.942  2.8129 -3.1279  1.3694
 5504TIP3    H238004   3.808   5.534  17.066 -0.9068  2.5038  1.8224
 5505TIP3   OH238005   5.422   2.118  15.236 -0.4817  0.0823 -0.1650
 5505TIP3    H138006   5.459   2.181  15.175  0.4339 -0.9537 -0.7241
 5505TIP3    H238007   5.380   2.052  15.181 -0.7695 -0.1974  0.3777
 5506TIP3   OH238008   1.598   5.985   1.772  0.2674  0.2182 -0.1735
 5506TIP3    H138009   1.629   5.968   1.862  2.4392  0.9036 -0.7348
 5506TIP3    H238010   1.609   6.079   1.760  2.7488 -0.2128 -2.0510
 5507TIP3   OH238011   3.241   4.369   1.409  0.5899  0.5572 -0.2363
 5507TIP3    H138012   3.184   4.397   1.337  1.1046  1.9811 -0.1205
 5507TIP3    H238013   3.326   4.352   1.367  0.2026 -1.2694 -0.3609
 5508TIP3   OH238014   3.957   0.765   4.396  0.5540 -0.5895 -0.5427
 5508TIP3    H138015   3.975   0.822   4.471 -0.6107 -1.2872  0.2992
 5508TIP3    H238016   3.905   0.694   4.432 -0.8402 -0.4672 -2.1705
 5509TIP3   OH238017   3.940   2.798   3.952 -0.3208  0.6984  0.0929
 5509TIP3    H138018   3.870   2.736   3.975 -1.6394  2.3473  0.7536
 5509TIP3    H238019   3.910   2.838   3.870  0.6983  0.2172 -0.5292
 5510TIP3   OH238020   3.345   0.419   3.664 -0.0854 -0.0503  0.3536
 5510TIP3    H138021   3.418   0.418   3.726 -0.3576 -0.7131  0.6799
 5510TIP3    H238022   3.310   0.330   3.667 -0.6635  0.1544 -0.0850
 5511TIP3   OH238023   2.170   0.162  11.949 -0.0417  0.1402 -0.6411
 5511TIP3    H138024   2.165   0.088  11.889 -3.0266 -0.0194 -0.3492
 5511TIP3    H238025   2.184   0.123  12.035 -0.0602  0.0357 -0.6861
 5512TIP3   OH238026   3.780   4.702  11.215 -0.2172  0.1189 -0.2468
 5512TIP3    H138027   3.849   4.738  11.158  0.4079 -1.6267 -0.6556
 5512TIP3    H238028   3.758   4.618  11.175  1.6727 -2.1987  3.1211
 5513TIP3   OH238029   2.692   5.962  16.188  0.3691 -0.6363  0.1663
 5513TIP3    H138030   2.682   5.955  16.283 -1.5190 -0.3066  0.0327
 5513TIP3    H238031   2.769   5.909  16.168 -0.4049 -2.4293  1.6650
 5514TIP3   OH238032   5.015   3.036  11.940  0.1934 -0.2889 -0.2480
 5514TIP3    H138033   5.015   3.127  11.969  1.5568 -0.0139 -1.0176
 5514TIP3    H238034   5.104   3.021  11.908 -0.4040 -1.4698 -1.4562
 5515TIP3   OH238035   3.184   3.639   3.983  0.1919 -0.3553  0.7783
 5515TIP3    H138036   3.139   3.657   3.901 -1.2321 -0.1313  1.5640
 5515TIP3    H238037   3.176   3.721   4.033  1.6722 -0.2485  0.8659
 5516TIP3   OH238038   4.893   4.053   4.471  0.3696 -0.2091  0.5482
 5516TIP3    H138039   4.828   3.985   4.489  0.1414 -0.1236  0.0736
 5516TIP3    H238040   4.850   4.135   4.492 -0.8926  0.1474 -2.7340
 5517TIP3   OH238041   3.464   0.494   1.638 -0.4706  0.5160  0.6739
 5517TIP3    H138042   3.534   0.484   1.574  1.2194 -0.8874  2.6266
 5517TIP3    H238043   3.498   0.559   1.700 -1.4100  0.7026  1.0061
 5518TIP3   OH238044   3.272   3.911  16.123  0.2408 -0.1021  0.6219
 5518TIP3    H138045   3.283   3.842  16.187 -2.7678 -1.8290 -0.5356
 5518TIP3    H238046   3.254   3.990  16.175  1.9042 -0.5075  1.9038
 5519TIP3   OH238047   4.970   3.775  15.307 -0.1078  0.4200 -0.0870
 5519TIP3    H138048   5.058   3.793  15.275  0.0081  0.8667  0.4719
 5519TIP3    H238049   4.977   3.690  15.350  0.1760  0.7056  0.4336
 5520TIP3   OH238050   3.061   6.053   4.353  0.0322  0.1266 -0.3883
 5520TIP3    H138051   3.029   6.108   4.282 -2.1831 -1.2334 -0.5446
 5520TIP3    H238052   2.985   6.040   4.410  0.5031 -2.4744 -0.2188
 5521TIP3   OH238053   5.899   5.802   5.022 -0.2824 -0.2042  0.5891
 5521TIP3    H138054   5.819   5.756   4.995 -0.4206  0.2254  0.2614
 5521TIP3    H238055   5.884   5.893   4.999  0.3140 -0.1224  0.4985
 5522TIP3   OH238056   0.698   6.024  12.875 -0.5081 -0.8253 -0.6438
 5522TIP3    H138057   0.755   6.098  12.855  0.2683 -1.2330  0.0385
 5522TIP3    H238058   0.636   6.059  12.939 -1.3647 -0.2491 -1.7412
 5523TIP3   OH238059   1.659   1.337  13.134 -0.2949 -0.2711 -0.0825
 5523TIP3    H138060   1.609   1.344  13.216 -0.3345 -0.0235 -0.1261
 5523TIP3    H238061   1.592   1.324  13.066 -0.2827 -0.1960 -0.1090
 5524TIP3   OH238062   4.409   4.348  15.214  0.0815 -0.7050 -0.1391
 5524TIP3    H138063   4.353   4.416  15.251 -2.4294 -1.9298 -1.4202
 5524TIP3    H238064   4.423   4.286  15.286 -1.5179 -1.1295 -0.1666
 5525TIP3   OH238065   0.726   0.779  12.589 -0.1358 -0.1021  0.0468
 5525TIP3    H138066   0.767   0.851  12.635 -0.4280 -0.9301  1.6778
 5525TIP3    H238067   0.711   0.712  12.656  0.0730 -1.6634 -1.3805
 5526TIP3   OH238068   0.905   4.473  14.569 -0.0671 -0.3010  0.0992
 5526TIP3    H138069   0.929   4.425  14.489  0.8621  1.7619 -0.9368
 5526TIP3    H238070   0.964   4.439  14.636 -0.3306 -1.5077 -0.2420
 5527TIP3   OH238071   6.518   5.477  17.204  0.5837 -0.5236 -0.4582
 5527TIP3    H138072   6.489   5.410  17.265 -0.7856 -0.9503 -1.5081
 5527TIP3    H238073   6.508   5.437  17.118  1.9624  0.2358 -1.0133
 5528TIP3   OH238074   5.500   2.041  13.143 -0.5495  0.4250  0.0712
 5528TIP3    H138075   5.502   1.989  13.062  0.2615 -0.2120  0.4863
 5528TIP3    H238076   5.407   2.048  13.164 -0.9482  2.2407 -1.9297
 5529TIP3   OH238077   1.037   5.580  11.470  0.5750  0.1055  0.2341
 5529TIP3    H138078   1.038   5.538  11.384  1.3168 -0.3402  0.4509
 5529TIP3    H238079   0.962   5.541  11.515  1.5340 -1.3732  0.6099
 5530TIP3   OH238080   1.337   1.523   5.649  0.1769  0.1961  0.1527
 5530TIP3    H138081   1.403   1.457   5.670  0.8227  1.0569  0.9798
 5530TIP3    H238082   1.265   1.475   5.610  1.5767 -0.7055 -1.4237
 5531TIP3   OH238083   5.267   1.255  11.338 -0.0787  0.0925 -0.5265
 5531TIP3    H138084   5.349   1.218  11.370 -0.3548  1.4492  1.9377
 5531TIP3    H238085   5.252   1.211  11.254  2.3262 -1.3372 -0.2825
 5532TIP3   OH238086   3.384   2.556  15.237  0.2401 -1.1420  0.3882
 5532TIP3    H138087   3.460   2.560  15.179  1.8652 -1.6616  2.3724
 5532TIP3    H238088   3.349   2.468  15.225  1.3165 -1.6845  1.0363
 5533TIP3   OH238089   0.098   1.196  16.168  0.7798 -0.1380 -0.1904
 5533TIP3    H138090   0.073   1.288  16.179 -0.4685 -0.5043  0.2034
 5533TIP3    H238091   0.090   1.158  16.256 -0.0591 -0.9231 -0.5857
 5534TIP3   OH238092   4.912   3.273  12.805 -0.2398 -0.2603  0.6579
 5534TIP3    H138093   4.875   3.333  12.740  1.7861  2.7556  2.0424
 5534TIP3    H238094   4.964   3.211  12.753  0.0437  1.0683 -0.7099
 5535TIP3   OH238095   5.439   5.967  11.781 -0.2631 -0.0520 -0.3542
 5535TIP3    H138096   5.521   6.014  11.799 -0.1927 -0.5415  0.6538
 5535TIP3    H238097   5.442   5.891  11.839 -1.6219  0.1413 -0.0035
 5536TIP3   OH238098   5.901   6.541   3.772  0.4164 -0.3539 -0.3579
 5536TIP3    H138099   5.849   6.593   3.711  0.2099  0.5113  0.5399
 5536TIP3    H238100   5.988   6.537   3.732  0.7516  1.6308  0.0536
 5537TIP3   OH238101   4.907   1.174  17.261 -0.1364  0.1478 -0.2871
 5537TIP3    H138102   4.984   1.195  17.209 -0.6302 -0.5879 -1.3562
 5537TIP3    H238103   4.834   1.212  17.212 -0.9697 -3.1443 -1.8886
 5538TIP3   OH238104   0.232   1.524   1.862  0.1123  0.1174 -0.6543
 5538TIP3    H138105   0.193   1.589   1.803  2.5852  1.6860 -0.6997
 5538TIP3    H238106   0.193   1.542   1.947 -1.2590 -0.2022 -1.1825
 5539TIP3   OH238107   0.554   5.859   3.374  0.7410 -0.3816 -0.0289
 5539TIP3    H138108   0.478   5.917   3.379  1.2762  0.2484  3.3426
 5539TIP3    H238109   0.573   5.837   3.465  0.8151 -5.6806 -1.0191
 5540TIP3   OH238110   0.787   4.549  13.402 -0.6089 -0.0909  0.1976
 5540TIP3    H138111   0.695   4.571  13.386 -0.7747 -0.2759  0.8351
 5540TIP3    H238112   0.783   4.462  13.443 -0.0589 -0.6979 -0.9928
 5541TIP3   OH238113   1.594   5.671   0.550 -0.3487  0.1189  0.0365
 5541TIP3    H138114   1.654   5.733   0.590 -0.8197  1.0853 -0.6948
 5541TIP3    H238115   1.612   5.587   0.593  1.9594  0.2271 -0.6223
 5542TIP3   OH238116   3.780   6.576   2.638  0.1865  0.4152  0.0496
 5542TIP3    H138117   3.772   6.662   2.596  1.3916  1.1423  1.1963
 5542TIP3    H238118   3.768   6.513   2.567  0.1141  1.5422 -0.9805
 5543TIP3   OH238119   5.729   5.516  15.585 -0.0404  0.1325 -0.2690
 5543TIP3    H138120   5.638   5.489  15.596 -0.0670 -0.6601 -2.0409
 5543TIP3    H238121   5.756   5.475  15.502  1.9408  0.3065  0.2375
 5544TIP3   OH238122   6.028   4.556   4.193 -0.3083  0.7014 -0.7151
 5544TIP3    H138123   6.089   4.612   4.145  1.1025  0.0453  0.2296
 5544TIP3    H238124   6.017   4.479   4.137 -0.3364  0.8496 -0.9170
 5545TIP3   OH238125   2.640   5.576   3.144 -0.4840 -0.2899 -0.1893
 5545TIP3    H138126   2.667   5.497   3.097 -1.0790 -0.4851 -0.2141
 5545TIP3    H238127   2.558   5.552   3.187 -0.2876  0.0936  0.4081
 5546TIP3   OH238128   3.342   3.309  15.751 -0.6472 -0.0043  0.3893
 5546TIP3    H138129   3.424   3.285  15.708 -0.2956  1.9148 -0.1280
 5546TIP3    H238130   3.283   3.236  15.734  0.3804 -0.5682 -0.8717
 5547TIP3   OH238131   4.311   2.990  11.363 -0.7363 -0.0375  0.4029
 5547TIP3    H138132   4.353   2.947  11.437  0.4371 -0.5818 -0.5449
 5547TIP3    H238133   4.245   3.047  11.403  2.1766  2.4334  2.1879
 5548TIP3   OH238134   1.306   0.721  11.282  0.1765 -0.3780  0.5695
 5548TIP3    H138135   1.243   0.673  11.229  0.6025 -0.3153 -0.0033
 5548TIP3    H238136   1.252   0.775  11.339 -0.2962 -1.0142  0.7337
 5549TIP3   OH238137   6.288   1.051   5.571  0.3005 -0.0340  0.2392
 5549TIP3    H138138   6.352   1.083   5.634  1.7105  0.7738 -1.5285
 5549TIP3    H238139   6.311   1.095   5.489 -1.8251 -0.6025 -0.7216
 5550TIP3   OH238140   6.775   2.976   2.002 -0.3679  0.1461  0.0409
 5550TIP3    H138141   6.818   3.042   2.057  1.2713 -0.6473 -0.2196
 5550TIP3    H238142   6.838   2.960   1.931 -1.2460 -0.8470 -0.5445
 5551TIP3   OH238143   4.871   0.101   1.878 -0.0464  0.0937  0.3598
 5551TIP3    H138144   4.882   0.006   1.881  1.0404  0.1992  0.0737
 5551TIP3    H238145   4.918   0.132   1.955  1.3656  0.5362 -0.6471
 5552TIP3   OH238146   2.111   6.600   1.016 -0.8587  0.2073  0.4988
 5552TIP3    H138147   2.118   6.637   0.928 -0.8898  1.0994  0.8618
 5552TIP3    H238148   2.114   6.505   1.002 -2.6244  0.2617 -0.6295
 5553TIP3   OH238149   4.907   2.585  16.094 -0.2154 -0.2058  0.4686
 5553TIP3    H138150   4.889   2.498  16.058  1.1507 -0.6115  0.6831
 5553TIP3    H238151   4.931   2.638  16.018 -0.2861 -0.2386  0.4224
 5554TIP3   OH238152   0.039   3.097  15.302 -0.2027 -0.0312  1.1258
 5554TIP3    H138153   0.054   3.016  15.254 -0.3457 -1.1436  2.8509
 5554TIP3    H238154   0.079   3.082  15.388 -0.2073  1.7429  1.4815
 5555TIP3   OH238155   6.495   1.252   2.046 -0.0009  0.5850  0.3760
 5555TIP3    H138156   6.583   1.255   2.007  0.2116  0.3575  0.8310
 5555TIP3    H238157   6.436   1.253   1.971  0.4013  0.3566  0.0485
 5556TIP3   OH238158   4.052   2.291  16.371  0.1800  0.5268  0.2101
 5556TIP3    H138159   4.013   2.214  16.329  0.7709  0.1489  0.3513
 5556TIP3    H238160   4.003   2.365  16.334  0.5439  0.1916 -0.9872
 5557TIP3   OH238161   4.731   4.028   2.020 -0.2918  0.0809  0.1879
 5557TIP3    H138162   4.715   4.013   1.927 -2.9866 -0.2688  0.6149
 5557TIP3    H238163   4.746   4.122   2.027  1.4467 -0.0878 -0.7235
 5558TIP3   OH238164   4.697   6.010   1.015 -0.2541  0.4446  0.3292
 5558TIP3    H138165   4.635   5.996   1.086 -1.5115 -1.8382 -1.0872
 5558TIP3    H238166   4.721   5.921   0.988 -0.0042  1.2355 -2.2302
 5559TIP3   OH238167   2.251   6.482  11.701 -0.5696 -0.0252 -0.5227
 5559TIP3    H138168   2.163   6.444  11.702 -0.9479  0.7811 -1.9200
 5559TIP3    H238169   2.297   6.434  11.632  0.2896 -0.8090  0.5491
 5560TIP3   OH238170   0.956   3.340  15.546  0.1225 -0.1156  0.1040
 5560TIP3    H138171   0.923   3.428  15.566  2.6810  1.0191 -0.2491
 5560TIP3    H238172   0.907   3.282  15.605 -2.4110  1.3567 -0.4195
 5561TIP3   OH238173   0.983   5.503  17.355  0.4632 -0.6315 -0.1880
 5561TIP3    H138174   1.074   5.480  17.338 -0.1962 -3.2751 -0.5990
 5561TIP3    H238175   0.944   5.514  17.269  0.2442 -0.0342 -0.0223
 5562TIP3   OH238176   3.382   6.123  12.400  0.2273 -0.0168  0.0406
 5562TIP3    H138177   3.391   6.194  12.463 -0.7434  2.4246 -2.3927
 5562TIP3    H238178   3.310   6.071  12.433 -0.3196  1.2482  0.9160
 5563TIP3   OH238179   6.616   4.416   2.356 -0.3931  0.1615  0.4426
 5563TIP3    H138180   6.668   4.396   2.434  0.5778 -1.2019 -0.4990
 5563TIP3    H238181   6.670   4.387   2.283 -0.8696  2.2524 -0.8419
 5564TIP3   OH238182   2.489   5.759   4.269  0.3794 -0.6633 -0.3963
 5564TIP3    H138183   2.464   5.800   4.352  0.3799 -0.7060 -0.3750
 5564TIP3    H238184   2.556   5.695   4.293  2.3573  1.1765 -0.7448
 5565TIP3   OH238185   1.001   0.082   4.121 -0.0310  0.9786 -0.1664
 5565TIP3    H138186   0.943   0.081   4.197 -0.2754 -0.6591 -0.3293
 5565TIP3    H238187   0.966   0.014   4.063  0.9098  1.3046 -1.1568
 5566TIP3   OH238188   1.292   0.053   5.009 -0.4181 -0.2304  0.1945
 5566TIP3    H138189   1.337   0.126   4.967 -1.1807 -0.7477 -1.6017
 5566TIP3    H238190   1.211   0.091   5.043 -0.0959  0.0605  0.6474
 5567TIP3   OH238191   0.654   2.242  11.004 -0.5094 -0.7881  0.0832
 5567TIP3    H138192   0.618   2.155  10.985 -1.1288 -0.1625 -1.8859
 5567TIP3    H238193   0.695   2.269  10.922  1.0466  0.1641  1.1296
 5568TIP3   OH238194   5.136   0.564  16.728 -1.1236  0.2189  0.0002
 5568TIP3    H138195   5.176   0.647  16.753 -1.5323  0.4209 -0.0025
 5568TIP3    H238196   5.134   0.513  16.810  0.5775 -0.4245 -0.3123
 5569TIP3   OH238197   5.965   2.110  12.227  0.0782  0.0715  0.2162
 5569TIP3    H138198   6.044   2.153  12.193 -0.2051 -0.7992 -1.6943
 5569TIP3    H238199   5.981   2.017  12.214 -1.7879 -0.0727 -1.5615
 5570TIP3   OH238200   1.330   0.944  17.196  0.0450 -0.0909  0.1315
 5570TIP3    H138201   1.246   0.974  17.162  0.9004 -0.5817 -2.5873
 5570TIP3    H238202   1.375   1.025  17.223 -1.3971  0.1372  2.1154
 5571TIP3   OH238203   1.631   5.244  12.704 -0.4144 -0.3571 -0.6586
 5571TIP3    H138204   1.561   5.259  12.640 -2.0749  2.0532  1.5258
 5571TIP3    H238205   1.695   5.313  12.686 -1.4201  1.0447  0.8366
 5572TIP3   OH238206   2.151   1.207   1.256 -0.0510  0.6908  0.6100
 5572TIP3    H138207   2.149   1.295   1.218 -0.0174  0.1629 -0.6686
 5572TIP3    H238208   2.232   1.205   1.307  1.1331  0.7176 -1.1522
 5573TIP3   OH238209   6.756   4.075   3.132  0.8667  0.2082  0.7565
 5573TIP3    H138210   6.833   4.020   3.121  1.6915  1.6036 -0.6703
 5573TIP3    H238211   6.790   4.162   3.151 -0.3999  0.5659  1.5435
 5574TIP3   OH238212   5.211   4.233  15.202  0.1504 -0.0932  0.2592
 5574TIP3    H138213   5.124   4.273  15.212  0.2916  0.2553  0.1239
 5574TIP3    H238214   5.200   4.170  15.130  0.0492  0.0686  0.1322
 5575TIP3   OH238215   5.657   5.729   5.773  0.6337 -0.1782 -0.3954
 5575TIP3    H138216   5.719   5.725   5.701 -2.0314 -1.5618 -2.7845
 5575TIP3    H238217   5.658   5.641   5.811  1.0690  0.1803  0.4596
 5576TIP3   OH238218   0.940   4.229   0.970 -0.3773  0.4689  0.0864
 5576TIP3    H138219   1.024   4.272   0.952  0.3106  0.2048  2.2960
 5576TIP3    H238220   0.893   4.290   1.027 -1.2588  0.1757 -0.3137
 5577TIP3   OH238221   4.368   6.485  14.645 -0.2883 -0.2287 -0.4684
 5577TIP3    H138222   4.359   6.496  14.740 -0.3468  3.1346 -0.7396
 5577TIP3    H238223   4.463   6.490  14.629 -0.2058 -1.6786 -0.5585
 5578TIP3   OH238224   3.846   0.083   6.160 -0.1750  0.1815  0.1585
 5578TIP3    H138225   3.755   0.077   6.190 -0.7715  0.2040 -1.5163
 5578TIP3    H238226   3.885  -0.001   6.182 -0.5877  0.1815  0.9083
 5579TIP3   OH238227   0.808   2.465  15.758 -0.2362 -0.3531  0.2329
 5579TIP3    H138228   0.758   2.515  15.823 -0.4451 -0.6914  0.3368
 5579TIP3    H238229   0.882   2.429  15.807 -0.2942 -0.4560  0.2478
 5580TIP3   OH238230   0.255   4.262   1.457 -0.4272  0.0788 -0.6783
 5580TIP3    H138231   0.319   4.296   1.519 -2.3059  0.7572  0.9962
 5580TIP3    H238232   0.224   4.339   1.409 -0.7194 -0.1024 -0.7848
 5581TIP3   OH238233   5.160   0.623  16.040  0.2205 -0.1221  0.1981
 5581TIP3    H138234   5.238   0.610  16.094 -0.3628  1.5173  1.5068
 5581TIP3    H238235   5.089   0.635  16.103 -1.1273 -1.5335 -0.9652
 5582TIP3   OH238236   2.164   4.769  16.691  0.0697  0.3550  0.3323
 5582TIP3    H138237   2.243   4.718  16.707 -1.0442 -2.0735 -1.2357
 5582TIP3    H238238   2.187   4.829  16.620  0.3071 -1.0198 -0.8032
 5583TIP3   OH238239   4.978   3.126   2.827  0.3551  0.2465 -0.2543
 5583TIP3    H138240   5.002   3.211   2.790 -2.2281  0.6174 -1.3169
 5583TIP3    H238241   4.883   3.132   2.839  0.4910 -1.4486  2.4811
 5584TIP3   OH238242   0.936   4.371  14.309 -0.4306 -0.1881  0.2770
 5584TIP3    H138243   0.934   4.369  14.213  0.8387 -0.1981  0.2230
 5584TIP3    H238244   1.016   4.322  14.331  0.0743  1.0369  1.2738
 5585TIP3   OH238245   3.391   5.150   4.180 -0.4301  0.2324  0.8062
 5585TIP3    H138246   3.387   5.243   4.159  1.0252  0.2782  0.6669
 5585TIP3    H238247   3.475   5.138   4.223  0.4447 -1.3882 -1.1610
 5586TIP3   OH238248   2.711   5.789   0.914 -0.0055 -0.5384  0.2846
 5586TIP3    H138249   2.770   5.856   0.948 -1.0001  0.8696 -0.6513
 5586TIP3    H238250   2.751   5.760   0.832 -0.3879  0.1273 -0.1470
 5587TIP3   OH238251   2.454   5.581  16.476 -0.0058  0.2771  0.3570
 5587TIP3    H138252   2.363   5.605  16.458  0.7129  1.4515 -2.0307
 5587TIP3    H238253   2.501   5.598  16.395  2.6011  0.8613  1.8460
 5588TIP3   OH238254   1.395   2.456  15.175  0.1104  0.3481 -0.4013
 5588TIP3    H138255   1.329   2.508  15.221  1.5548  1.8570  0.0781
 5588TIP3    H238256   1.351   2.374  15.154 -2.4682  1.9287 -1.6658
 5589TIP3   OH238257   2.125   3.393   3.792 -0.3424 -0.4957 -0.9408
 5589TIP3    H138258   2.086   3.480   3.792  0.3168 -0.1883 -0.9282
 5589TIP3    H238259   2.118   3.363   3.701 -0.9609 -0.6122 -0.8548
 5590TIP3   OH238260   2.228   2.129   4.750 -0.1737 -0.2985 -0.0745
 5590TIP3    H138261   2.227   2.101   4.842  0.5168  0.4107  0.1603
 5590TIP3    H238262   2.257   2.052   4.701  1.0398 -0.2219  0.4831
 5591TIP3   OH238263   1.417   3.765   4.395  0.3189 -0.2239 -0.7236
 5591TIP3    H138264   1.348   3.831   4.387 -0.5154 -1.1294 -1.2880
 5591TIP3    H238265   1.370   3.685   4.418  1.1658 -0.9022 -1.3073
 5592TIP3   OH238266   3.664   0.928  13.929 -0.0114  0.4103  0.0886
 5592TIP3    H138267   3.701   0.948  13.843 -0.4652 -1.0575 -0.4707
 5592TIP3    H238268   3.697   0.998  13.985  0.5579  1.2233 -1.1978
 5593TIP3   OH238269   0.241   6.085   0.705 -0.2214  0.0447 -0.4301
 5593TIP3    H138270   0.258   5.997   0.673 -1.6038 -0.9725  1.4872
 5593TIP3    H238271   0.295   6.093   0.784  1.1072  1.5414 -1.4165
 5594TIP3   OH238272   1.488   4.845   0.529 -0.0652  0.7536  0.2096
 5594TIP3    H138273   1.443   4.918   0.486  0.2219 -0.3716 -2.1659
 5594TIP3    H238274   1.567   4.884   0.566 -0.8475  1.9599  0.6916
 5595TIP3   OH238275   6.299   3.717   4.495  0.2039  0.5013 -0.1903
 5595TIP3    H138276   6.259   3.646   4.446 -0.0223 -1.5562  2.7415
 5595TIP3    H238277   6.371   3.748   4.439  0.9036 -2.6558 -1.2094
 5596TIP3   OH238278   5.051   5.587  14.847  0.6895 -0.3640  0.7107
 5596TIP3    H138279   5.117   5.601  14.915  1.9590 -1.3498 -0.2501
 5596TIP3    H238280   5.091   5.621  14.767 -0.6837  0.5688  0.3797
 5597TIP3   OH238281   6.764   0.200   4.975  0.9659 -0.4943  0.1053
 5597TIP3    H138282   6.842   0.151   5.000  0.2146 -1.0578  1.4785
 5597TIP3    H238283   6.703   0.135   4.942  0.9507 -0.1014 -0.6643
 5598TIP3   OH238284   1.887   3.728  15.968  0.0240 -0.1403  0.0755
 5598TIP3    H138285   1.889   3.765  15.880  1.2224  0.6709  0.4329
 5598TIP3    H238286   1.836   3.791  16.020 -0.4360 -0.4745  0.0404
 5599TIP3   OH238287   6.479   4.775  16.603  0.1383 -0.6350  0.3934
 5599TIP3    H138288   6.563   4.794  16.561 -1.3857  0.7361 -2.2831
 5599TIP3    H238289   6.435   4.715  16.543 -1.5471  0.1950  0.7412
 5600TIP3   OH238290   3.351   1.336  16.645 -0.3947  0.2713 -0.7586
 5600TIP3    H138291   3.389   1.333  16.733 -4.4364 -4.0495  1.2480
 5600TIP3    H238292   3.411   1.285  16.591 -0.2077 -1.1499  0.7426
 5601TIP3   OH238293   5.733   0.314  12.880 -0.5023  1.1312  0.1270
 5601TIP3    H138294   5.820   0.282  12.906 -0.6931  2.1784  2.2569
 5601TIP3    H238295   5.680   0.234  12.874  0.0978  0.6526  0.9227
 5602TIP3   OH238296   4.944   1.813  15.282 -0.4267  0.1497  0.1064
 5602TIP3    H138297   4.922   1.774  15.197  1.1621 -0.3436 -0.1035
 5602TIP3    H238298   4.860   1.818  15.328 -0.9471 -2.0892 -0.4623
 5603TIP3   OH238299   3.365   1.955   1.389 -0.2268  0.2261 -0.1574
 5603TIP3    H138300   3.348   1.956   1.295  0.1023  0.7594 -0.2163
 5603TIP3    H238301   3.419   2.033   1.405  1.6653 -1.0715  0.1013
 5604TIP3   OH238302   5.771   3.291   0.736  0.0879  0.1710 -0.2452
 5604TIP3    H138303   5.724   3.212   0.764 -0.9011  1.1093  0.8766
 5604TIP3    H238304   5.797   3.273   0.646 -0.3527 -1.3241 -0.0991
 5605TIP3   OH238305   3.143   4.941   3.847 -0.1536  0.3661 -0.4437
 5605TIP3    H138306   3.094   4.866   3.880 -0.7776  1.5112  1.3600
 5605TIP3    H238307   3.083   4.985   3.787  0.1537 -0.4458 -1.3719
 5606TIP3   OH238308   6.599   2.428  14.332 -0.3120 -0.0875 -0.3185
 5606TIP3    H138309   6.581   2.521  14.316 -1.5664  0.0998  1.8082
 5606TIP3    H238310   6.524   2.397  14.383 -1.3849 -3.0693 -3.3705
 5607TIP3   OH238311   5.521   0.451   3.409 -0.2322  0.2010  0.3616
 5607TIP3    H138312   5.583   0.492   3.348 -1.6583  1.5518 -0.2422
 5607TIP3    H238313   5.496   0.370   3.366  1.3097 -0.5202  0.7536
 5608TIP3   OH238314   1.451   3.180   6.299  0.0393 -0.0100  0.1798
 5608TIP3    H138315   1.528   3.236   6.292 -1.2864  1.9268  0.2707
 5608TIP3    H238316   1.416   3.197   6.386 -0.9714 -0.1961 -0.1761
 5609TIP3   OH238317   3.753   1.715   1.172 -0.1884 -0.5320 -0.1153
 5609TIP3    H138318   3.669   1.672   1.154 -0.8049 -0.2374  1.8075
 5609TIP3    H238319   3.790   1.664   1.244  0.1667  0.7648  0.6347
 5610TIP3   OH238320   0.890   5.150  16.050 -0.1256  0.1238 -0.3806
 5610TIP3    H138321   0.953   5.159  16.122  1.2186 -0.7386 -1.3814
 5610TIP3    H238322   0.933   5.193  15.976 -1.8999  1.8458 -0.4761
 5611TIP3   OH238323   2.974   6.443  13.932 -0.4412  0.0064  0.1197
 5611TIP3    H138324   2.922   6.517  13.962  0.1823  1.3228 -1.8194
 5611TIP3    H238325   2.975   6.383  14.006 -2.0954  1.3176  1.2953
 5612TIP3   OH238326   6.159   3.799  12.653  0.0663 -0.0580 -0.1416
 5612TIP3    H138327   6.090   3.734  12.667  0.0298  0.3613  1.9199
 5612TIP3    H238328   6.211   3.797  12.733  0.1344  2.3592 -0.0586
 5613TIP3   OH238329   0.099   3.436   3.356 -0.1029  0.2106 -0.5658
 5613TIP3    H138330   0.104   3.478   3.442 -2.9231 -1.0785  0.3585
 5613TIP3    H238331   0.045   3.496   3.304 -1.2431 -0.5757 -0.3233
 5614TIP3   OH238332   5.784   0.845   5.538 -0.0441  0.2307  0.4155
 5614TIP3    H138333   5.864   0.859   5.589  0.3921  2.9606 -0.8426
 5614TIP3    H238334   5.815   0.832   5.449 -0.9566  1.0262 -0.0377
 5615TIP3   OH238335   3.198   2.753   0.849 -0.2728 -0.0500 -0.0769
 5615TIP3    H138336   3.281   2.796   0.871  0.1236 -1.7341  2.0713
 5615TIP3    H238337   3.143   2.766   0.926 -1.2988 -0.6098 -0.6961
 5616TIP3   OH238338   0.419   5.543   4.814  0.0059  0.7291 -0.2907
 5616TIP3    H138339   0.485   5.476   4.798 -1.3808 -0.8122  0.1425
 5616TIP3    H238340   0.454   5.595   4.886  0.3323 -0.6739  0.6023
 5617TIP3   OH238341   2.470   4.147   2.563 -0.4448 -0.3722  0.6232
 5617TIP3    H138342   2.545   4.132   2.621 -0.3982  0.7749  0.8637
 5617TIP3    H238343   2.398   4.098   2.603  0.0827 -1.2251  0.5572
 5618TIP3   OH238344   0.930   4.072   2.609 -0.3862 -0.3044 -0.1343
 5618TIP3    H138345   0.994   4.089   2.677 -0.3803  0.5582 -0.3472
 5618TIP3    H238346   0.934   3.977   2.595 -1.0692 -0.6500  1.7338
 5619TIP3   OH238347   5.652   3.424   5.527 -0.6477 -0.1908 -0.4282
 5619TIP3    H138348   5.592   3.417   5.453 -1.1969 -1.7971  0.1372
 5619TIP3    H238349   5.739   3.409   5.488 -1.1369 -4.0076 -0.4350
 5620TIP3   OH238350   3.286   6.147   3.544  0.1485  0.3763 -0.7229
 5620TIP3    H138351   3.330   6.188   3.469  2.2289 -0.5226 -0.0392
 5620TIP3    H238352   3.312   6.055   3.540  1.8671  0.6198  2.1145
 5621TIP3   OH238353   1.580   6.206   4.835 -0.1573 -0.6017  0.0701
 5621TIP3    H138354   1.650   6.250   4.883  0.0308  0.1617 -0.8922
 5621TIP3    H238355   1.504   6.213   4.894 -0.1687  1.1327 -0.0785
 5622TIP3   OH238356   1.028   2.031  11.631 -0.5305 -0.1236 -0.1745
 5622TIP3    H138357   1.068   2.118  11.630 -0.0850 -0.3263 -0.2716
 5622TIP3    H238358   1.093   1.975  11.672 -0.8039 -0.4195 -0.1400
 5623TIP3   OH238359   0.801   1.301   2.960  0.2428 -0.2096  0.1306
 5623TIP3    H138360   0.747   1.247   3.018 -2.4550  0.3577 -1.6484
 5623TIP3    H238361   0.846   1.237   2.904 -1.1822 -0.6990 -0.4960
 5624TIP3   OH238362   3.689   2.104   0.783 -0.2839 -0.2576  0.1791
 5624TIP3    H138363   3.716   2.079   0.871  0.1683 -1.8836 -0.3866
 5624TIP3    H238364   3.631   2.033   0.754  3.2174 -2.3685 -2.5397
 5625TIP3   OH238365   5.692   0.805   3.685  0.0339  0.6308 -0.6956
 5625TIP3    H138366   5.675   0.868   3.615 -1.3906  1.5185  0.3913
 5625TIP3    H238367   5.630   0.829   3.754  0.9408 -0.6291  0.6064
 5626TIP3   OH238368   5.537   1.112   3.055 -0.0802  0.0546  0.2229
 5626TIP3    H138369   5.618   1.157   3.076 -0.0177 -0.2951  0.7450
 5626TIP3    H238370   5.494   1.168   2.990  0.2416  0.5961  0.4730
 5627TIP3   OH238371   5.870   3.659   6.166 -0.0056 -0.0011 -0.3007
 5627TIP3    H138372   5.810   3.586   6.150 -1.7875  1.5377 -1.0209
 5627TIP3    H238373   5.889   3.655   6.260 -2.1729  0.1151  0.1795
 5628TIP3   OH238374   3.144   4.202   4.986 -0.4758  0.1477 -0.1986
 5628TIP3    H138375   3.180   4.289   4.998 -2.4540  0.9822  0.0582
 5628TIP3    H238376   3.056   4.217   4.951 -0.5346 -1.7764 -1.0242
 5629TIP3   OH238377   2.369   2.136   4.150 -0.2576 -0.3555  0.2597
 5629TIP3    H138378   2.407   2.066   4.203 -0.6160  0.0008  1.0030
 5629TIP3    H238379   2.321   2.091   4.081  0.1144 -0.8307  0.3093
 5630TIP3   OH238380   0.342   1.180  16.704  0.1157 -0.1245  0.3272
 5630TIP3    H138381   0.396   1.234  16.646  0.6128 -0.6741  0.2729
 5630TIP3    H238382   0.405   1.140  16.764 -0.3991  0.4781  1.2872
 5631TIP3   OH238383   2.816   1.040   4.447 -0.6334 -0.5626  0.5671
 5631TIP3    H138384   2.846   1.099   4.379 -2.0867 -0.6604 -0.1929
 5631TIP3    H238385   2.743   1.085   4.489 -0.3865 -0.9182  1.4196
 5632TIP3   OH238386   2.089   1.601   1.430  0.2677 -0.1371  0.0194
 5632TIP3    H138387   2.173   1.614   1.387 -0.2321 -0.9800 -1.2613
 5632TIP3    H238388   2.111   1.568   1.517  1.3199  2.3258  0.7662
 5633TIP3   OH238389   3.720   5.480   2.795  0.1373  0.4792 -0.1727
 5633TIP3    H138390   3.667   5.447   2.868 -0.2604  2.0855  0.3151
 5633TIP3    H238391   3.739   5.403   2.742  0.3130 -0.7290  1.5432
 5634TIP3   OH238392   4.736   3.464  14.470  0.4150  0.1273  0.0989
 5634TIP3    H138393   4.829   3.444  14.484  0.6768  0.2798 -1.2747
 5634TIP3    H238394   4.729   3.480  14.376 -1.3051 -1.4613 -0.1105
 5635TIP3   OH238395   0.288   0.922   0.088  0.1601  0.4629  0.0387
 5635TIP3    H138396   0.265   0.841   0.134  1.7869  0.1790  0.3899
 5635TIP3    H238397   0.292   0.988   0.157 -0.5755  0.7406 -0.1686
 5636TIP3   OH238398   0.358   4.761  13.764 -0.4339  0.0773 -0.5533
 5636TIP3    H138399   0.449   4.787  13.776 -0.3031 -1.1448  1.5973
 5636TIP3    H238400   0.339   4.781  13.672  1.4822  1.8278 -0.6387
 5637TIP3   OH238401   3.110   4.243  12.080 -0.5652  0.0670  0.1526
 5637TIP3    H138402   3.088   4.222  11.989  0.2490  0.5070 -0.1603
 5637TIP3    H238403   3.030   4.226  12.129 -2.8901  4.8780 -1.3627
 5638TIP3   OH238404   6.512   1.695  12.011  0.4316  0.0965 -0.6022
 5638TIP3    H138405   6.593   1.655  12.041 -0.1269 -1.2798 -0.8432
 5638TIP3    H238406   6.535   1.737  11.929  0.3650 -2.7762 -2.2333
 5639TIP3   OH238407   1.764   0.101   4.853  0.0285  0.4885 -0.6628
 5639TIP3    H138408   1.790   0.158   4.781 -0.3727 -1.0337 -2.0854
 5639TIP3    H238409   1.685   0.057   4.822  1.0104 -1.7814 -0.2164
 5640TIP3   OH238410   3.801   3.519   2.822 -0.0729 -0.3385  0.2233
 5640TIP3    H138411   3.725   3.483   2.869  0.1343  1.0356  1.6842
 5640TIP3    H238412   3.766   3.547   2.737 -1.1523  0.0612  0.7854
 5641TIP3   OH238413   3.558   5.645  14.147  0.0997 -0.0983 -0.5631
 5641TIP3    H138414   3.502   5.702  14.094  0.1409 -0.9818 -1.5973
 5641TIP3    H238415   3.501   5.573  14.174  0.9337 -1.6147 -2.5852
 5642TIP3   OH238416   5.535   5.230   0.852  0.5812  0.2527 -0.0130
 5642TIP3    H138417   5.472   5.295   0.820  1.1596  0.7470 -0.1778
 5642TIP3    H238418   5.541   5.166   0.781 -0.3402 -0.2435  0.3412
 5643TIP3   OH238419   0.765   1.208  13.351  0.4424  0.3346  0.0276
 5643TIP3    H138420   0.688   1.227  13.297  0.7847 -0.2205 -0.6732
 5643TIP3    H238421   0.729   1.180  13.435 -0.1105  0.5076 -0.1505
 5644TIP3   OH238422   4.206   0.615  16.860  0.1555  0.1034  0.3356
 5644TIP3    H138423   4.260   0.633  16.783  0.7618  0.5344  0.8538
 5644TIP3    H238424   4.159   0.534  16.838  0.4025  0.1561 -0.4361
 5645TIP3   OH238425   1.588   1.798  15.864  0.5095  0.5943  0.0775
 5645TIP3    H138426   1.557   1.737  15.796  0.4621  3.1341 -2.3992
 5645TIP3    H238427   1.667   1.758  15.898 -0.3530 -1.5702 -0.2691
 5646TIP3   OH238428   2.504   3.904   0.148 -0.3238  0.3997 -0.2571
 5646TIP3    H138429   2.507   3.827   0.205 -0.5199  0.1053 -0.6343
 5646TIP3    H238430   2.580   3.956   0.173 -0.0282 -0.0587 -0.1888
 5647TIP3   OH238431   0.849   3.058   3.300  0.0867  0.5535 -0.0883
 5647TIP3    H138432   0.781   3.017   3.354 -1.6677  2.8272 -0.4146
 5647TIP3    H238433   0.820   3.045   3.210  1.4814 -0.6670 -0.4015
 5648TIP3   OH238434   0.732   6.737   5.652  0.1853  0.5214 -0.0045
 5648TIP3    H138435   0.682   6.796   5.596 -0.9395 -0.2947  0.1207
 5648TIP3    H238436   0.666   6.688   5.701  1.1241 -0.0174  0.7551
 5649TIP3   OH238437   5.178   1.960   2.263  0.4716  0.1220  0.2848
 5649TIP3    H138438   5.221   1.971   2.178  0.4206 -0.2965  0.2022
 5649TIP3    H238439   5.177   2.047   2.301  0.9414  0.2256  0.0663
 5650TIP3   OH238440   2.858   4.141  15.847  0.2836  0.2250  0.1262
 5650TIP3    H138441   2.897   4.068  15.895 -0.7869 -2.2012 -2.4130
 5650TIP3    H238442   2.772   4.153  15.889 -0.2227 -1.1564 -0.4663
 5651TIP3   OH238443   1.382   5.138  17.455  0.0904  0.5534 -0.2631
 5651TIP3    H138444   1.435   5.059  17.465  0.7933  1.1214  0.5890
 5651TIP3    H238445   1.429   5.191  17.391 -0.7053  0.0379 -1.3180
 5652TIP3   OH238446   4.702   0.394  15.086 -0.5122 -0.5141  0.4204
 5652TIP3    H138447   4.778   0.438  15.124 -0.7580  0.2056  0.0923
 5652TIP3    H238448   4.709   0.304  15.116  0.4604 -0.4486  0.4153
 5653TIP3   OH238449   2.606   2.176  13.814 -0.3757  0.0633 -0.0558
 5653TIP3    H138450   2.646   2.116  13.877 -1.5965  0.1021  0.7962
 5653TIP3    H238451   2.561   2.119  13.752 -0.9011  0.0657  0.3160
 5654TIP3   OH238452   0.018   6.497   2.697 -0.1189  0.4922 -0.0541
 5654TIP3    H138453   0.028   6.439   2.622  0.1177 -0.3803  0.6334
 5654TIP3    H238454   0.103   6.540   2.705 -0.0060  0.2692 -0.0350
 5655TIP3   OH238455   5.208   3.580  14.809 -0.2760  0.1691 -0.5837
 5655TIP3    H138456   5.115   3.569  14.832 -0.0044  0.9972  1.0698
 5655TIP3    H238457   5.221   3.523  14.733 -2.1153 -0.0159 -0.8086
 5656TIP3   OH238458   2.535   4.870  16.548  0.0141 -0.1949  0.3319
 5656TIP3    H138459   2.485   4.871  16.466  3.3659  0.3786 -1.9017
 5656TIP3    H238460   2.567   4.960  16.557  2.5426 -1.0299  0.2912
 5657TIP3   OH238461   1.609   2.931  16.440 -0.5197  0.1718  0.1114
 5657TIP3    H138462   1.622   2.983  16.362 -0.7971 -1.1723 -0.8646
 5657TIP3    H238463   1.615   2.840  16.410 -2.3124 -0.4107  1.3140
 5658TIP3   OH238464   6.638   2.487  15.242  0.3149 -0.0156 -0.3060
 5658TIP3    H138465   6.647   2.548  15.169 -0.8445 -0.5419 -0.9152
 5658TIP3    H238466   6.722   2.441  15.245  0.5514  0.3538 -1.0008
 5659TIP3   OH238467   4.109   3.061   6.241 -0.3308 -0.0709 -0.8998
 5659TIP3    H138468   4.030   3.068   6.295 -0.1965  1.9186 -0.8663
 5659TIP3    H238469   4.180   3.045   6.303 -0.5843 -0.9415 -0.8318
 5660TIP3   OH238470   3.938   1.421   6.334  0.1028 -0.8300  0.1805
 5660TIP3    H138471   3.845   1.406   6.319 -0.0464  0.3876 -0.2409
 5660TIP3    H238472   3.944   1.447   6.426  0.3002 -2.8114  0.7689
 5661TIP3   OH238473   3.899   3.891  12.721  0.0668  0.0846 -0.1472
 5661TIP3    H138474   3.853   3.860  12.643  1.3782  0.3818 -1.0824
 5661TIP3    H238475   3.932   3.978  12.696  0.8098  0.0358  0.6197
 5662TIP3   OH238476   1.795   4.895   4.587 -0.3482 -0.3494  0.1757
 5662TIP3    H138477   1.824   4.822   4.532 -1.2280  0.3171 -1.2365
 5662TIP3    H238478   1.866   4.959   4.582 -0.8098  0.0990 -0.9832
 5663TIP3   OH238479   2.807   5.758   0.190 -0.7728  0.2703 -1.1937
 5663TIP3    H138480   2.842   5.751   0.279 -0.4237 -0.2047 -1.3620
 5663TIP3    H238481   2.875   5.718   0.135 -2.0915 -1.7939 -1.4114
 5664TIP3   OH238482   0.774   2.645  13.837  0.1746 -0.2459 -0.2623
 5664TIP3    H138483   0.831   2.569  13.841  0.6635  0.1650  0.9767
 5664TIP3    H238484   0.832   2.718  13.818  0.1477  0.2162  1.2654
 5665TIP3   OH238485   4.498   4.186  13.103 -0.1791 -0.7527 -0.2209
 5665TIP3    H138486   4.480   4.116  13.166  1.8943 -2.7258 -1.6730
 5665TIP3    H238487   4.583   4.220  13.130 -0.7482  0.6173 -0.0956
 5666TIP3   OH238488   5.763   2.042  10.910  0.0060  0.5976  0.2825
 5666TIP3    H138489   5.703   2.116  10.923 -0.4188  0.3458 -0.1931
 5666TIP3    H238490   5.707   1.971  10.878  0.7938  0.8991 -1.9231
 5667TIP3   OH238491   2.232   4.337  13.974  0.5191  0.6049  0.4673
 5667TIP3    H138492   2.251   4.244  13.990 -0.1935  0.2647 -0.5577
 5667TIP3    H238493   2.193   4.338  13.887 -2.0578  1.5291  1.5645
 5668TIP3   OH238494   5.125   4.469  16.938 -0.2574  0.0031 -0.3074
 5668TIP3    H138495   5.165   4.434  17.018 -1.9640 -2.5203 -0.4447
 5668TIP3    H238496   5.104   4.392  16.886  1.2624  1.5827 -3.5130
 5669TIP3   OH238497   5.890   1.660  13.388  0.5732 -0.0051  0.5894
 5669TIP3    H138498   5.835   1.687  13.313  0.1605 -0.5986  0.6692
 5669TIP3    H238499   5.835   1.598  13.436  1.5905 -1.1886  0.2675
 5670TIP3   OH238500   0.733   5.856   1.778  0.3575  0.3017 -0.0644
 5670TIP3    H138501   0.735   5.867   1.873  1.6272  0.3263 -0.0785
 5670TIP3    H238502   0.645   5.883   1.753 -0.5950 -1.2886  1.2830
 5671TIP3   OH238503   1.827   1.034  12.186  0.2777  0.3050  0.1987
 5671TIP3    H138504   1.823   1.124  12.218  1.0136 -0.3650  2.3330
 5671TIP3    H238505   1.775   1.035  12.105 -1.3852  2.2133  1.1963
 5672TIP3   OH238506   2.094   1.047   1.788  0.0172 -0.8965 -0.8450
 5672TIP3    H138507   2.113   1.082   1.874  1.9616 -0.0279 -1.5745
 5672TIP3    H238508   2.177   1.010   1.758 -0.6056 -1.1495 -2.3492
 5673TIP3   OH238509   3.467   6.739   3.669 -0.0562 -0.3457  0.5223
 5673TIP3    H138510   3.481   6.645   3.657  0.7217 -0.2756  0.8279
 5673TIP3    H238511   3.502   6.757   3.756  2.4100  0.7314 -0.6066
 5674TIP3   OH238512   1.837   4.009  17.266  0.1279  0.3375 -0.3365
 5674TIP3    H138513   1.918   3.980  17.307 -0.5956  1.2644  1.8828
 5674TIP3    H238514   1.807   4.082  17.320 -0.8209  1.7984 -2.6733
 5675TIP3   OH238515   4.356   6.280   3.688 -0.1782  0.2242  0.1202
 5675TIP3    H138516   4.437   6.260   3.735 -0.9711 -1.9081  0.6753
 5675TIP3    H238517   4.355   6.376   3.682  1.8428  0.3520  1.0341
 5676TIP3   OH238518   2.608   4.216   1.985 -0.3837  0.5070 -0.0811
 5676TIP3    H138519   2.670   4.264   1.930 -1.3826  1.8731 -0.0609
 5676TIP3    H238520   2.522   4.240   1.951 -0.9752  0.2094  1.1413
 5677TIP3   OH238521   3.332   3.842   0.187  0.2652  0.5485 -0.0400
 5677TIP3    H138522   3.357   3.752   0.170  0.5514  0.5261  0.4787
 5677TIP3    H238523   3.245   3.837   0.225  0.9076  0.3581  1.4908
 5678TIP3   OH238524   6.608   5.113  12.246  0.4170 -0.4771  0.0058
 5678TIP3    H138525   6.526   5.127  12.198 -0.0932 -1.0814  0.6758
 5678TIP3    H238526   6.584   5.127  12.338  1.2627  0.1782  0.1436
 5679TIP3   OH238527   0.624   0.629   0.380 -0.1299  0.0549  0.0128
 5679TIP3    H138528   0.645   0.708   0.331 -0.3123  0.1061  0.0171
 5679TIP3    H238529   0.570   0.660   0.453 -0.0874 -0.0561  0.0922
 5680TIP3   OH238530   1.550   6.283   1.311  0.2750 -0.3539 -0.0614
 5680TIP3    H138531   1.529   6.201   1.357 -0.5092 -0.3652 -0.4270
 5680TIP3    H238532   1.583   6.254   1.226 -0.5894 -0.2935 -0.4319
 5681TIP3   OH238533   0.742   0.046   1.253 -0.0246 -0.2859  0.2119
 5681TIP3    H138534   0.646   0.049   1.256 -0.0442  0.9972 -1.0773
 5681TIP3    H238535   0.769   0.137   1.258  1.0646 -0.5237 -1.0104
 5682TIP3   OH238536   2.664   0.899   0.372 -0.6343  0.3367  0.1337
 5682TIP3    H138537   2.720   0.919   0.447 -0.7598  2.3496 -0.2694
 5682TIP3    H238538   2.725   0.868   0.304 -0.3443  0.0024  0.5390
 5683TIP3   OH238539   4.864   5.497  11.450 -0.1015 -0.9547  0.4117
 5683TIP3    H138540   4.789   5.511  11.508  1.1482  1.4012  1.6165
 5683TIP3    H238541   4.829   5.512  11.362 -1.2136 -0.6275  0.8919
 5684TIP3   OH238542   4.588   4.329  16.200 -0.2763  0.0996  0.2129
 5684TIP3    H138543   4.679   4.347  16.223 -0.2962 -0.5435  0.8466
 5684TIP3    H238544   4.556   4.411  16.161  0.0093  0.9981  1.7766
 5685TIP3   OH238545   5.281   2.939   4.791  0.2076 -0.0357 -0.4164
 5685TIP3    H138546   5.195   2.974   4.767 -0.4876 -0.3338  1.4887
 5685TIP3    H238547   5.327   3.013   4.830 -1.0673 -0.8729  3.1135
 5686TIP3   OH238548   2.571   6.011  14.738 -0.6267  0.3979 -0.1787
 5686TIP3    H138549   2.573   5.921  14.705 -0.4712  1.1669 -2.4430
 5686TIP3    H238550   2.660   6.029  14.767 -0.3863  0.1744 -0.7705
 5687TIP3   OH238551   0.736   2.769   4.314  0.4004 -0.2866 -0.0579
 5687TIP3    H138552   0.803   2.832   4.289 -0.1328 -0.2040 -1.3338
 5687TIP3    H238553   0.760   2.688   4.270 -0.5119 -0.1620 -0.8228
 5688TIP3   OH238554   1.463   5.384   1.580  0.0362  0.3625  0.1603
 5688TIP3    H138555   1.458   5.476   1.554  0.6800  0.5514  0.6786
 5688TIP3    H238556   1.372   5.355   1.583 -0.2616  1.3395  1.2304
 5689TIP3   OH238557   1.443   5.757   1.689  0.4585  0.3216 -0.0032
 5689TIP3    H138558   1.505   5.810   1.739  0.2626 -1.4567  2.2821
 5689TIP3    H238559   1.357   5.778   1.727  0.0116  0.4791 -1.0545
 5690TIP3   OH238560   4.482   6.046  13.702  0.3953 -0.4237 -0.2267
 5690TIP3    H138561   4.397   6.091  13.703  1.5939  1.9856  0.6435
 5690TIP3    H238562   4.476   5.981  13.771  0.1315  1.6327  1.8092
 5691TIP3   OH238563   0.551   5.324  13.275 -0.0139  0.0790 -0.5043
 5691TIP3    H138564   0.621   5.263  13.299  0.6819  0.8191 -0.5963
 5691TIP3    H238565   0.592   5.383  13.211 -0.0437  1.8942  1.0753
 5692TIP3   OH238566   0.132   3.494  16.036 -0.8705 -0.2865  0.3908
 5692TIP3    H138567   0.211   3.545  16.020  0.1191 -0.7201  3.2227
 5692TIP3    H238568   0.117   3.446  15.955  2.6540 -1.2919  0.1680
 5693TIP3   OH238569   3.305   2.446  11.557 -0.3201 -0.0460 -0.1432
 5693TIP3    H138570   3.307   2.535  11.521  0.3819  0.2879  0.7082
 5693TIP3    H238571   3.340   2.454  11.645 -1.7508 -0.9094  0.5525
 5694TIP3   OH238572   6.519   5.214  16.710 -0.8647 -0.7462 -0.1041
 5694TIP3    H138573   6.472   5.132  16.719 -0.0680 -1.1283  0.6600
 5694TIP3    H238574   6.568   5.224  16.791 -0.4388  0.1612 -0.4498
 5695TIP3   OH238575   2.010   3.654   3.798  0.0542  0.0948  0.0704
 5695TIP3    H138576   2.077   3.705   3.751  0.3145 -0.7003 -0.4355
 5695TIP3    H238577   1.993   3.705   3.877  1.5394  0.1301  0.4039
 5696TIP3   OH238578   1.597   1.346   3.296 -0.2493 -0.2421 -0.4636
 5696TIP3    H138579   1.574   1.356   3.204  1.9080 -2.0867 -1.3100
 5696TIP3    H238580   1.598   1.251   3.310  1.3011 -0.0807  0.8985
 5697TIP3   OH238581   2.214   1.164   4.586 -0.4905  0.1241  0.1449
 5697TIP3    H138582   2.251   1.188   4.501 -0.0731 -0.0198  0.2837
 5697TIP3    H238583   2.290   1.156   4.644 -0.5570 -1.7695  0.0375
 5698TIP3   OH238584   1.559   0.916  15.925 -0.0099 -0.3999 -0.5020
 5698TIP3    H138585   1.536   0.965  15.846  0.5810  0.6570 -0.0466
 5698TIP3    H238586   1.604   0.838  15.894 -1.6974 -1.1136 -1.2855
 5699TIP3   OH238587   4.232   2.408  15.512 -0.3278 -0.1009 -0.4836
 5699TIP3    H138588   4.138   2.388  15.518 -0.3561 -0.9275 -2.6834
 5699TIP3    H238589   4.275   2.325  15.533 -0.1212  0.1135 -0.0767
 5700TIP3   OH238590   0.926   0.101   1.955 -0.4528 -0.1624  0.0393
 5700TIP3    H138591   0.956   0.044   1.884  0.0897 -0.1678  0.2648
 5700TIP3    H238592   0.877   0.043   2.013  0.5024 -0.5220  0.5179
 5701TIP3   OH238593   6.170   2.456   6.011  0.0730  0.0225  0.1843
 5701TIP3    H138594   6.237   2.487   6.072  1.3413 -2.6548  0.2721
 5701TIP3    H238595   6.218   2.406   5.946 -1.7157 -0.8440 -0.5308
 5702TIP3   OH238596   1.258   4.194  12.329 -0.6384 -0.0570  0.1253
 5702TIP3    H138597   1.211   4.122  12.371 -1.0761  0.1276 -0.0442
 5702TIP3    H238598   1.286   4.251  12.401  0.4976 -0.8495  0.3444
 5703TIP3   OH238599   2.950   6.748  13.101  0.2749  0.1251 -0.3365
 5703TIP3    H138600   2.913   6.752  13.012  0.7783 -0.3562 -0.5702
 5703TIP3    H238601   2.954   6.655  13.121 -0.2184  0.2464  0.3621
 5704TIP3   OH238602   3.044   3.329   3.002  0.0446  0.3216 -0.0097
 5704TIP3    H138603   3.026   3.286   2.919  2.4535  0.6655 -0.7888
 5704TIP3    H238604   3.069   3.419   2.978 -0.2700  0.7470  1.1818
 5705TIP3   OH238605   5.576   3.325  17.296  0.5247  0.0410 -0.1805
 5705TIP3    H138606   5.575   3.267  17.220  2.3097  1.0457 -1.0572
 5705TIP3    H238607   5.544   3.409  17.262  2.1265  0.7273 -0.0939
 5706TIP3   OH238608   0.061   3.655   5.338 -0.6798  0.1923 -0.2764
 5706TIP3    H138609   0.059   3.569   5.380 -1.5523  0.5538  0.4488
 5706TIP3    H238610   0.140   3.696   5.372 -1.2735  0.4047  0.8932
 5707TIP3   OH238611   6.549   1.313  12.670  0.4290  0.1482  0.3735
 5707TIP3    H138612   6.487   1.302  12.598 -0.4830  0.4120  1.1048
 5707TIP3    H238613   6.635   1.306  12.629 -0.0658 -1.7138 -0.4466
 5708TIP3   OH238614   6.040   1.371   2.968 -0.0245  0.3955  0.1545
 5708TIP3    H138615   6.049   1.456   3.012  0.2846  1.5658 -2.0371
 5708TIP3    H238616   5.951   1.370   2.934 -1.3371 -1.7992  3.1575
 5709TIP3   OH238617   3.346   3.716  15.531  0.5244  0.2945  0.4382
 5709TIP3    H138618   3.357   3.811  15.538 -0.3487  0.3946  0.6352
 5709TIP3    H238619   3.278   3.695  15.596  2.3238 -0.8128  2.0939
 5710TIP3   OH238620   0.963   5.417  13.119 -0.4522  0.3527  0.1298
 5710TIP3    H138621   0.905   5.460  13.056 -1.3846 -2.2783 -0.9506
 5710TIP3    H238622   0.908   5.351  13.161  1.4238 -1.3396  0.0433
 5711TIP3   OH238623   5.805   1.158   0.476  0.1544 -0.1213 -0.0801
 5711TIP3    H138624   5.854   1.225   0.428 -0.8741 -0.0857 -1.1115
 5711TIP3    H238625   5.779   1.094   0.410  0.2321 -1.0141  0.7293
 5712TIP3   OH238626   4.771   6.716  15.614  0.3987  0.4790  0.2129
 5712TIP3    H138627   4.702   6.701  15.679  0.9688 -1.6260  0.3956
 5712TIP3    H238628   4.851   6.727  15.666  0.2910  2.9161  0.0007
 5713TIP3   OH238629   3.760   0.972  13.638 -0.6136  0.1094  0.1073
 5713TIP3    H138630   3.770   1.065  13.659 -0.3840  0.0775  0.1389
 5713TIP3    H238631   3.849   0.937  13.641 -0.5299  0.1527 -1.1219
 5714TIP3   OH238632   0.720   4.996  14.089 -0.2117  0.0630 -0.5109
 5714TIP3    H138633   0.699   5.089  14.101  0.3942  0.1348  0.0337
 5714TIP3    H238634   0.716   4.959  14.177  1.3296 -0.0448 -0.4597
 5715TIP3   OH238635   1.454   3.180  16.313 -0.4815  0.2043 -0.0835
 5715TIP3    H138636   1.456   3.231  16.232  0.3670  1.1228  0.4921
 5715TIP3    H238637   1.361   3.175  16.336 -0.6737  0.4384 -0.8066
 5716TIP3   OH238638   3.859   4.198  14.912  0.0668 -0.3280  0.0344
 5716TIP3    H138639   3.924   4.233  14.851  0.7583  0.1954  1.0503
 5716TIP3    H238640   3.814   4.130  14.862 -0.7151  1.3711 -1.6973
 5717TIP3   OH238641   6.492   3.864   0.364 -0.7973  0.0248  0.1861
 5717TIP3    H138642   6.542   3.876   0.445 -2.0681 -0.1713  1.0318
 5717TIP3    H238643   6.468   3.771   0.364 -0.0763 -0.1846 -0.8798
 5718TIP3   OH238644   6.030   5.699  13.740  0.4513  0.0440 -0.3659
 5718TIP3    H138645   5.963   5.695  13.672  0.1445  1.0647 -0.1416
 5718TIP3    H238646   6.111   5.719  13.693  0.8655 -2.3412 -0.7788
 5719TIP3   OH238647   0.447   2.672  15.683 -0.2539  0.0009 -0.1591
 5719TIP3    H138648   0.414   2.758  15.657  3.3688  1.4113 -0.6358
 5719TIP3    H238649   0.508   2.648  15.613  0.9694 -1.6152  1.3708
 5720TIP3   OH238650   5.234   3.240   0.790 -0.3084 -0.2619 -0.2291
 5720TIP3    H138651   5.318   3.252   0.835 -0.6563 -0.2458  0.4279
 5720TIP3    H238652   5.200   3.329   0.779  0.7589 -0.0770 -2.4755
 5721TIP3   OH238653   2.977   6.590  16.243 -0.1681  0.4859 -0.2119
 5721TIP3    H138654   2.991   6.508  16.290  1.0558  0.6138 -0.3270
 5721TIP3    H238655   2.968   6.656  16.312 -3.1278  0.0308 -0.0411
 5722TIP3   OH238656   1.483   4.542   5.391  0.5234 -0.4673 -0.1554
 5722TIP3    H138657   1.521   4.517   5.306 -0.9293 -0.8899 -0.7241
 5722TIP3    H238658   1.405   4.487   5.398 -1.0007  1.6140  0.0853
 5723TIP3   OH238659   0.908   4.503   3.282  0.0818  0.3414 -0.7995
 5723TIP3    H138660   0.979   4.566   3.297  0.9114 -0.9347  1.0867
 5723TIP3    H238661   0.832   4.543   3.325  0.2970  0.6086 -0.6591
 5724TIP3   OH238662   5.710   4.083  17.217  0.7332 -0.2911  0.3732
 5724TIP3    H138663   5.760   4.073  17.298  2.0855  1.2516 -0.2108
 5724TIP3    H238664   5.618   4.078  17.244  1.0765  2.1689  2.3496
 5725TIP3   OH238665   0.644   6.549  14.117  0.1574 -0.8750  0.6240
 5725TIP3    H138666   0.641   6.636  14.075 -0.3368 -1.1752  0.0270
 5725TIP3    H238667   0.720   6.554  14.175  2.1778 -1.1015 -1.7979
 5726TIP3   OH238668   5.680   1.922   2.006 -0.2264  0.1714 -0.6801
 5726TIP3    H138669   5.766   1.901   2.042 -0.1861  0.9583 -0.2857
 5726TIP3    H238670   5.697   1.989   1.939 -0.6223  1.2329  0.2353
 5727TIP3   OH238671   4.038   1.617  13.509  0.0941  0.2935 -0.0495
 5727TIP3    H138672   4.015   1.630  13.417  1.0260 -0.0603 -0.3348
 5727TIP3    H238673   3.954   1.599  13.552 -0.3417  0.4246 -0.8304
 5728TIP3   OH238674   5.419   3.966  16.520 -0.0065  0.3329  0.2968
 5728TIP3    H138675   5.423   4.060  16.499  1.0812  0.6437  1.7130
 5728TIP3    H238676   5.418   3.923  16.435 -1.2952  1.6407 -0.3938
 5729TIP3   OH238677   2.007   2.163  14.014 -0.3393 -0.0183 -0.0218
 5729TIP3    H138678   1.953   2.176  13.936 -1.6115  1.3276  1.0165
 5729TIP3    H238679   1.979   2.078  14.049 -0.5910 -0.0912 -0.3950
 5730TIP3   OH238680   6.272   5.947   0.302  0.1445 -0.1522  0.4846
 5730TIP3    H138681   6.359   5.922   0.330 -0.4338 -0.0470  2.5005
 5730TIP3    H238682   6.275   6.042   0.292  0.8515 -0.3579 -1.7793
 5731TIP3   OH238683   0.203   2.363   6.259  0.4967  0.1985  0.2915
 5731TIP3    H138684   0.223   2.289   6.202 -1.3708 -0.3374  0.2387
 5731TIP3    H238685   0.229   2.440   6.208  1.3586 -0.3745 -0.1502
 5732TIP3   OH238686   3.798   1.039   1.213 -0.0158 -0.1931  0.0447
 5732TIP3    H138687   3.853   1.081   1.279 -0.8128 -0.1788  0.7217
 5732TIP3    H238688   3.783   1.108   1.148  2.2288 -0.7130 -1.1222
 5733TIP3   OH238689   3.930   1.553  16.294  0.0181  0.7228 -0.5539
 5733TIP3    H138690   3.840   1.578  16.314 -0.6850 -2.5116  0.9363
 5733TIP3    H238691   3.972   1.547  16.380  1.5966  1.8570 -1.2148
 5734TIP3   OH238692   1.650   6.029  17.082  0.3435  0.0278 -0.1164
 5734TIP3    H138693   1.731   6.080  17.070  0.7905 -0.6792 -0.1388
 5734TIP3    H238694   1.679   5.938  17.083 -0.6317 -0.3371 -1.7148
 5735TIP3   OH238695   6.704   2.139   1.566  0.4449  1.0170 -0.0079
 5735TIP3    H138696   6.685   2.207   1.631  0.5376  0.2804  0.8140
 5735TIP3    H238697   6.795   2.154   1.541  1.6601 -0.8406  2.7881
 5736TIP3   OH238698   0.043   0.584   0.308 -0.7517  0.0536  0.5415
 5736TIP3    H138699   0.008   0.633   0.234  1.0865  2.1677  0.9612
 5736TIP3    H238700  -0.024   0.593   0.377 -1.8907 -0.8530 -0.4117
 5737TIP3   OH238701   4.098   2.488  16.747  0.0609  0.5353  0.7925
 5737TIP3    H138702   4.005   2.495  16.722 -0.0659 -0.3701  0.9720
 5737TIP3    H238703   4.143   2.547  16.687 -0.5188  0.2488  0.0633
 5738TIP3   OH238704   5.914   1.002  12.399 -0.7781 -0.0951  0.2498
 5738TIP3    H138705   5.896   1.080  12.347 -1.6415 -1.6895 -2.0218
 5738TIP3    H238706   5.832   0.982  12.443 -0.4873  0.3956  1.0268
 5739TIP3   OH238707   5.988   2.933  16.937 -0.0458  0.2741 -0.7939
 5739TIP3    H138708   6.017   3.000  16.875  0.6574 -0.7732 -1.6326
 5739TIP3    H238709   6.057   2.867  16.936 -0.8727 -0.6361 -0.2406
 5740TIP3   OH238710   1.932   6.244   2.484  0.2244 -0.2888  0.1015
 5740TIP3    H138711   1.960   6.187   2.555 -0.2459 -1.2716 -0.4844
 5740TIP3    H238712   1.840   6.221   2.468 -0.4219  1.6068  0.7749
 5741TIP3   OH238713   0.633   4.226  14.612  0.0823  0.4188  0.5078
 5741TIP3    H138714   0.660   4.138  14.639 -0.0446  0.1438 -0.2623
 5741TIP3    H238715   0.714   4.268  14.582  0.2091  0.7008  1.2044
 5742TIP3   OH238716   6.321   4.375  16.931  0.6916 -0.0908 -0.6243
 5742TIP3    H138717   6.229   4.350  16.925  0.5523  0.2142  0.1175
 5742TIP3    H238718   6.336   4.432  16.856 -0.0416  0.8334 -0.0837
 5743TIP3   OH238719   6.726   0.101  14.309 -0.0048  0.3117 -0.7328
 5743TIP3    H138720   6.653   0.041  14.327  1.1307 -0.7079  0.6673
 5743TIP3    H238721   6.793   0.046  14.268  1.0679  0.5708  0.5958
 5744TIP3   OH238722   0.320   1.085  17.056  0.0157  0.3987  0.4240
 5744TIP3    H138723   0.399   1.038  17.081  0.3681  0.9820  0.4106
 5744TIP3    H238724   0.285   1.120  17.138  0.2655  0.9031  0.3172
 5745TIP3   OH238725   0.938   5.389  12.111 -0.3244 -0.3823  0.0054
 5745TIP3    H138726   0.880   5.445  12.058  0.0208  0.6444  0.6841
 5745TIP3    H238727   1.005   5.359  12.050 -0.7311 -0.3761 -0.4525
 5746TIP3   OH238728   3.704   4.856  13.477 -0.4204 -0.4014  0.1372
 5746TIP3    H138729   3.695   4.942  13.435  0.0836  0.1025  1.0278
 5746TIP3    H238730   3.714   4.876  13.570 -2.0509 -1.5211  0.5915
 5747TIP3   OH238731   3.046   4.733   2.959  0.1371  0.1578 -0.0813
 5747TIP3    H138732   3.083   4.811   2.917 -0.2098 -0.3676 -1.4082
 5747TIP3    H238733   3.120   4.673   2.969 -0.0653 -0.3354 -1.4252
 5748TIP3   OH238734   0.121   6.501  14.830  0.0443 -0.0708 -0.1054
 5748TIP3    H138735   0.117   6.577  14.889 -0.9523 -0.7369  0.7083
 5748TIP3    H238736   0.175   6.438  14.877 -1.9807 -1.1882  0.8325
 5749TIP3   OH238737   2.789   4.451  16.881  0.1369 -0.0977  0.2978
 5749TIP3    H138738   2.790   4.369  16.931  2.8995  1.0347  2.3395
 5749TIP3    H238739   2.831   4.429  16.798  1.2825 -0.6777  1.0103
 5750TIP3   OH238740   6.075   0.925   5.927 -0.2248 -0.4507  0.3630
 5750TIP3    H138741   6.028   1.000   5.964  0.3899 -1.2566  2.9627
 5750TIP3    H238742   6.167   0.941   5.949  0.2424 -0.8349 -1.1784
 5751TIP3   OH238743   4.662   1.040  13.919 -0.6915 -0.1023  0.0253
 5751TIP3    H138744   4.632   1.095  13.991 -0.6649  1.1739 -0.9146
 5751TIP3    H238745   4.756   1.056  13.913 -1.0048  1.3570 -1.5494
 5752TIP3   OH238746   5.000   1.048   1.476  0.1221  0.5104  0.1403
 5752TIP3    H138747   4.960   1.025   1.392  2.4307 -2.5824 -0.2898
 5752TIP3    H238748   5.048   1.129   1.458  0.7758 -0.2133 -1.6929
 5753TIP3   OH238749   3.069   0.999  14.016  0.7875 -0.1768 -0.0182
 5753TIP3    H138750   3.056   0.906  14.034  1.3542 -0.1289  0.7045
 5753TIP3    H238751   3.003   1.044  14.068  0.0278 -0.1985 -0.9426
 5754TIP3   OH238752   3.172   1.872  15.790  0.1546 -0.7098  0.2147
 5754TIP3    H138753   3.222   1.884  15.709  0.4992 -1.9719  0.2200
 5754TIP3    H238754   3.195   1.948  15.844 -0.3425  0.3250 -0.9797
 5755TIP3   OH238755   2.116   1.284   4.073  0.3639 -0.5617 -0.1783
 5755TIP3    H138756   2.134   1.353   4.137  0.9130 -0.8439 -0.0161
 5755TIP3    H238757   2.198   1.276   4.023 -0.2528  0.0703 -1.3308
 5756TIP3   OH238758   6.354   2.172  13.688 -0.2323  0.2819 -0.4451
 5756TIP3    H138759   6.296   2.142  13.618 -2.6543  2.2483  0.5406
 5756TIP3    H238760   6.394   2.252  13.654 -1.1980  1.0868  0.2311
 5757TIP3   OH238761   1.824   5.184   4.198 -0.3032  0.8455  0.1576
 5757TIP3    H138762   1.882   5.110   4.219 -0.5393  0.3379 -0.8986
 5757TIP3    H238763   1.884   5.257   4.182  0.0024  0.5527 -0.0562
 5758TIP3   OH238764   2.592   2.939  16.803 -0.0830  0.2256  0.0594
 5758TIP3    H138765   2.638   2.911  16.723  0.1603  0.7486  0.0094
 5758TIP3    H238766   2.640   3.016  16.832 -0.2972  0.1569  0.6019
 5759TIP3   OH238767   6.441   2.936  17.262  0.1966 -0.1956 -0.2506
 5759TIP3    H138768   6.457   2.994  17.336 -0.7538  0.5983 -0.6311
 5759TIP3    H238769   6.346   2.939  17.250  0.4763  1.4961 -2.8802
 5760TIP3   OH238770   4.259   4.371   1.665 -0.2365  0.2490  0.0138
 5760TIP3    H138771   4.168   4.389   1.641 -0.2589 -1.9543 -1.8936
 5760TIP3    H238772   4.275   4.283   1.631  2.1449 -0.0533  1.7146
 5761TIP3   OH238773   1.135   3.634   0.241 -0.5887 -0.0888 -0.3449
 5761TIP3    H138774   1.156   3.683   0.161  1.7086 -2.6925 -1.4993
 5761TIP3    H238775   1.084   3.559   0.212 -0.1752 -0.8054  0.6952
 5762TIP3   OH238776   5.194   4.167  15.462  0.0989  0.5023  0.1168
 5762TIP3    H138777   5.251   4.179  15.538  0.8166  0.7425 -0.4502
 5762TIP3    H238778   5.247   4.195  15.388 -0.1702 -0.8539 -0.6232
 5763TIP3   OH238779   0.131   6.010  15.488 -0.4282 -0.6044 -0.5677
 5763TIP3    H138780   0.058   6.010  15.426 -1.4768 -1.5227  0.6159
 5763TIP3    H238781   0.149   6.103  15.504 -1.4891 -0.3675 -0.6931
 5764TIP3   OH238782   0.441   6.030   2.314  0.1685 -0.1140 -0.6187
 5764TIP3    H138783   0.535   6.042   2.330 -0.4827  4.0076  1.3085
 5764TIP3    H238784   0.415   6.107   2.264 -2.1399 -1.5005 -1.7095
 5765TIP3   OH238785   4.426   4.809   5.914  0.4360 -0.1764  0.0345
 5765TIP3    H138786   4.507   4.758   5.918  0.2937 -0.3950  0.1237
 5765TIP3    H238787   4.356   4.743   5.917  0.2401  0.0553  0.7274
 5766TIP3   OH238788   5.757   5.492   1.316  0.5189 -0.7160 -0.1428
 5766TIP3    H138789   5.688   5.428   1.295  0.2441 -0.0664 -1.3420
 5766TIP3    H238790   5.710   5.566   1.354  0.6285 -0.5675 -0.2908
 5767TIP3   OH238791   2.885   3.898   1.799  0.6830 -0.1175  0.1312
 5767TIP3    H138792   2.939   3.820   1.813  0.9243  0.1573  0.7961
 5767TIP3    H238793   2.842   3.913   1.883 -1.1109 -0.8160 -0.6314
 5768TIP3   OH238794   0.320   4.296   5.551 -0.4160  0.6805 -0.0690
 5768TIP3    H138795   0.409   4.276   5.580 -0.3211  0.5535 -0.4349
 5768TIP3    H238796   0.288   4.360   5.614 -0.2565  0.3332  0.3679
 5769TIP3   OH238797   0.719   5.047   5.330  0.0574  0.5509 -0.2093
 5769TIP3    H138798   0.685   5.129   5.368 -0.1624  0.7010 -0.7213
 5769TIP3    H238799   0.725   5.065   5.237  1.5281  0.5154 -0.1453
 5770TIP3   OH238800   3.744   6.510  13.751 -0.1705 -0.0564 -0.2227
 5770TIP3    H138801   3.657   6.548  13.763  0.5563  1.4373  0.7152
 5770TIP3    H238802   3.758   6.513  13.656 -1.2894 -0.7175 -0.4286
 5771TIP3   OH238803   4.793   2.123   0.299 -0.1873 -0.0667 -0.8232
 5771TIP3    H138804   4.791   2.203   0.353 -0.1975 -0.7520  0.2209
 5771TIP3    H238805   4.826   2.055   0.358  2.4766 -0.3241 -2.4221
 5772TIP3   OH238806   1.265   2.619  13.455 -0.4453 -0.5282  0.0236
 5772TIP3    H138807   1.283   2.704  13.416  0.4970 -0.6364  0.1955
 5772TIP3    H238808   1.314   2.619  13.537 -2.7365 -0.1227  1.5110
 5773TIP3   OH238809   1.468   0.341  11.071  0.2185  0.1482 -0.7682
 5773TIP3    H138810   1.382   0.349  11.113  0.2633 -0.2634 -0.5906
 5773TIP3    H238811   1.518   0.415  11.104  0.9014 -1.2234  1.4709
 5774TIP3   OH238812   1.212   2.243   3.059 -0.1162  0.0179 -0.3716
 5774TIP3    H138813   1.154   2.195   3.119 -0.0317  1.6757  1.1123
 5774TIP3    H238814   1.152   2.292   3.002 -0.1814 -0.9269 -1.1484
 5775TIP3   OH238815   5.669   6.675   4.076  0.0894 -0.2643 -0.2112
 5775TIP3    H138816   5.729   6.655   4.148  0.7560 -0.6322 -0.8397
 5775TIP3    H238817   5.629   6.591   4.053  0.0513 -0.1950 -0.4085
 5776TIP3   OH238818   2.286   0.672   0.525  1.0409  0.2395 -0.2449
 5776TIP3    H138819   2.236   0.625   0.459  0.4102  0.7893 -0.1669
 5776TIP3    H238820   2.252   0.762   0.522  1.0888  0.3055  0.7304
 5777TIP3   OH238821   2.457   4.417   5.216  0.1568  0.4891  0.0771
 5777TIP3    H138822   2.433   4.443   5.127  0.9692  0.6259 -0.1115
 5777TIP3    H238823   2.377   4.379   5.252  0.0210 -0.3017 -0.9858
 5778TIP3   OH238824   3.238   4.378  15.229 -0.8199 -0.3228  0.3177
 5778TIP3    H138825   3.169   4.388  15.164  0.4809  0.7619 -0.9797
 5778TIP3    H238826   3.306   4.440  15.202 -0.3145  0.3779  2.8760
 5779TIP3   OH238827   0.938   3.256   2.069  0.7112  0.8758 -0.5978
 5779TIP3    H138828   0.930   3.218   1.982  0.9258 -1.9706  0.4952
 5779TIP3    H238829   1.010   3.208   2.109 -0.3977  0.9520  1.6617
 5780TIP3   OH238830   2.657   6.640   6.421  0.1653 -0.1121 -0.3005
 5780TIP3    H138831   2.710   6.703   6.470 -0.2498  0.2715 -0.3383
 5780TIP3    H238832   2.570   6.679   6.419  0.0481 -0.3990 -0.8554
 5781TIP3   OH238833   1.795   0.370   1.302  0.5627 -0.1493  0.0295
 5781TIP3    H138834   1.783   0.456   1.342  1.0018 -0.2828  0.4560
 5781TIP3    H238835   1.833   0.317   1.372 -0.3766 -0.8880 -0.0004
 5782TIP3   OH238836   3.396   2.111   3.336 -0.2323  0.2173 -0.0724
 5782TIP3    H138837   3.463   2.046   3.317 -0.5017  0.2443 -1.2129
 5782TIP3    H238838   3.339   2.110   3.259  0.2389  2.3853 -0.5300
 5783TIP3   OH238839   4.717   0.789   5.162 -0.0401 -0.2299  0.3479
 5783TIP3    H138840   4.663   0.857   5.120  1.0574  0.6333  0.2592
 5783TIP3    H238841   4.773   0.838   5.223 -0.4912 -1.2928  1.6371
 5784TIP3   OH238842   0.377   2.343   5.391  0.8115 -0.0435  0.1189
 5784TIP3    H138843   0.374   2.397   5.312  1.3892 -0.7230 -0.3751
 5784TIP3    H238844   0.338   2.260   5.366 -0.1743  0.1555  0.9121
 5785TIP3   OH238845   5.612   0.070   1.108  0.9363  0.7368  0.3888
 5785TIP3    H138846   5.687   0.017   1.134  0.6617  1.0760  2.0158
 5785TIP3    H238847   5.643   0.160   1.114  0.7742  0.8438 -0.2657
 5786TIP3   OH238848   2.218   2.617  14.413  0.4002  0.5670  0.3214
 5786TIP3    H138849   2.251   2.618  14.502  0.9351  0.0605  0.1351
 5786TIP3    H238850   2.293   2.641  14.358  0.3303 -0.0520 -0.0604
 5787TIP3   OH238851   2.538   5.350   2.968  0.4579  0.0441  0.2224
 5787TIP3    H138852   2.547   5.268   2.920  1.8528  0.2197  0.1467
 5787TIP3    H238853   2.444   5.359   2.983 -0.0795 -0.0126 -2.5088
 5788TIP3   OH238854   3.978   3.726  10.574 -0.4705 -0.0806 -0.4284
 5788TIP3    H138855   3.905   3.778  10.541  0.2674  0.1699 -1.7422
 5788TIP3    H238856   3.940   3.641  10.594 -1.2652  0.2837 -0.3593
 5789TIP3   OH238857   3.425   5.097  10.985 -0.2948  0.3782 -0.1612
 5789TIP3    H138858   3.360   5.032  10.958  0.2772 -0.6259  0.7815
 5789TIP3    H238859   3.494   5.090  10.918 -0.0666 -0.2697  0.1290
 5790TIP3   OH238860   3.963   3.628   4.778  0.9980  0.1639 -0.1240
 5790TIP3    H138861   3.984   3.721   4.774 -0.9482  0.8333  2.6037
 5790TIP3    H238862   3.994   3.601   4.865 -1.7533 -0.7457  0.6704
 5791TIP3   OH238863   5.970   6.133  15.042  0.6027  0.2071  0.2701
 5791TIP3    H138864   5.890   6.092  15.076  1.2550 -0.1557  1.4347
 5791TIP3    H238865   5.956   6.139  14.948 -0.5791 -0.3314  0.3897
 5792TIP3   OH238866   0.808   0.724   3.861 -0.0232 -0.3513  0.2763
 5792TIP3    H138867   0.841   0.693   3.776  0.5527  0.6261  0.1217
 5792TIP3    H238868   0.713   0.727   3.849  0.0865  0.4011 -0.5796
 5793TIP3   OH238869   1.454   1.350   5.973 -0.3210 -0.1343 -0.0566
 5793TIP3    H138870   1.434   1.267   5.929 -0.2416 -0.2179  0.0652
 5793TIP3    H238871   1.548   1.361   5.959 -0.2249 -0.3408  0.3997
 5794TIP3   OH238872   2.820   1.199  12.176  0.0907  0.4346 -0.3179
 5794TIP3    H138873   2.894   1.159  12.223 -0.8399  0.6022  1.3598
 5794TIP3    H238874   2.784   1.262  12.238 -0.8485  1.0876 -1.4988
 5795TIP3   OH238875   4.419   0.787  16.151  0.5493  1.1605  0.1305
 5795TIP3    H138876   4.453   0.817  16.067  2.0739  0.5469  0.5045
 5795TIP3    H238877   4.497   0.769  16.204 -0.3475 -0.2375  1.0448
 5796TIP3   OH238878   5.511   5.127  11.517  0.4990 -0.4100  0.7194
 5796TIP3    H138879   5.433   5.179  11.496  0.4658 -0.6998  0.1031
 5796TIP3    H238880   5.542   5.163  11.600  0.7174  0.8687  0.1047
 5797TIP3   OH238881   3.928   3.129   3.345  0.1659  0.5502  0.0545
 5797TIP3    H138882   3.935   3.174   3.261 -1.1443 -0.9838 -0.9457
 5797TIP3    H238883   3.871   3.185   3.397 -1.6901  0.0010 -1.2718
 5798TIP3   OH238884   4.751   3.576  16.973 -0.3059  0.2806  0.1701
 5798TIP3    H138885   4.746   3.594  16.879 -2.0434  0.4111  0.2498
 5798TIP3    H238886   4.814   3.640  17.006 -0.0308  0.5493 -0.8357
 5799TIP3   OH238887   1.708   1.941  11.779  0.1451  0.0365  1.0061
 5799TIP3    H138888   1.628   1.907  11.821 -0.0087  1.3163  1.8124
 5799TIP3    H238889   1.681   2.024  11.740  0.1242 -1.3717 -2.3157
 5800TIP3   OH238890   2.822   3.739   0.512  0.4406 -0.0840 -0.5062
 5800TIP3    H138891   2.829   3.824   0.469  0.1525  1.0148  1.5301
 5800TIP3    H238892   2.759   3.752   0.583  3.2791 -0.8623  2.3684
 5801TIP3   OH238893   3.149   2.017  12.977 -0.2160 -0.0309 -0.5297
 5801TIP3    H138894   3.172   1.987  12.889  3.1358 -2.0464  0.8229
 5801TIP3    H238895   3.112   2.105  12.964 -2.0549 -1.1535 -4.0412
 5802TIP3   OH238896   6.564   3.136   3.200  0.3210 -0.2783  0.6896
 5802TIP3    H138897   6.561   3.050   3.243 -2.0779 -0.6379 -0.0608
 5802TIP3    H238898   6.584   3.197   3.272  1.5779 -1.3583  1.3191
 5803TIP3   OH238899   2.431   3.080   0.453 -0.1417  0.4938  0.0284
 5803TIP3    H138900   2.363   3.103   0.516 -0.2859  0.2937 -0.0525
 5803TIP3    H238901   2.413   3.135   0.377  0.4026  1.1828  0.3920
 5804TIP3   OH238902   1.895   0.198   1.517 -0.0007  0.0455 -0.3140
 5804TIP3    H138903   1.964   0.139   1.486  1.1893  0.7132  0.9870
 5804TIP3    H238904   1.938   0.253   1.583 -1.6521  0.8458  0.1348
 5805TIP3   OH238905   1.457   2.801  11.667 -0.1084 -0.3271  0.4622
 5805TIP3    H138906   1.362   2.808  11.680  0.2047  0.9637  2.4712
 5805TIP3    H238907   1.487   2.752  11.744  1.0124  0.6942  0.6990
 5806TIP3   OH238908   4.702   4.328   0.174  0.4993  0.0584  0.2160
 5806TIP3    H138909   4.614   4.323   0.211  0.0178  1.1737 -0.7284
 5806TIP3    H238910   4.753   4.266   0.226 -0.0159  1.8253  3.0516
 5807TIP3   OH238911   4.442   2.513  17.246  0.1703  0.5495  0.1504
 5807TIP3    H138912   4.360   2.562  17.247  0.2379  0.6756  1.1475
 5807TIP3    H238913   4.423   2.434  17.195 -0.1585  1.2508 -0.8233
 5808TIP3   OH238914   6.763   2.830   0.535 -0.3577  0.4650  0.1586
 5808TIP3    H138915   6.811   2.885   0.597 -1.3736 -0.3852  1.7799
 5808TIP3    H238916   6.751   2.886   0.458  1.7693  1.2298  0.3262
 5809TIP3   OH238917   1.707   4.659  16.169  0.0518  0.0809  0.1118
 5809TIP3    H138918   1.679   4.575  16.205 -1.4294  0.5610  0.1446
 5809TIP3    H238919   1.801   4.649  16.155 -0.5008 -2.6366 -2.6947
 5810TIP3   OH238920   1.866   2.069   0.650 -0.5747  0.3150  0.1346
 5810TIP3    H138921   1.829   2.114   0.727  0.1042  1.1749 -0.0211
 5810TIP3    H238922   1.958   2.057   0.672 -0.0893  1.6811 -1.0228
 5811TIP3   OH238923   5.254   1.104  13.095  0.2033 -0.2100 -0.1923
 5811TIP3    H138924   5.171   1.150  13.076  0.5262 -0.5234 -2.6686
 5811TIP3    H238925   5.234   1.012  13.082  1.1271 -0.2232 -1.8130
 5812TIP3   OH238926   1.073   4.068   3.407  0.0682  0.0693 -0.1512
 5812TIP3    H138927   1.044   3.981   3.436 -0.6182  0.4921  0.4691
 5812TIP3    H238928   1.129   4.050   3.332 -3.1413 -0.7598 -2.6104
 5813TIP3   OH238929   2.348   1.963  15.323  0.2582 -0.0784  0.4175
 5813TIP3    H138930   2.337   1.977  15.417  0.3872  0.6669  0.3315
 5813TIP3    H238931   2.297   1.884  15.304 -0.4353  0.2257  0.9689
 5814TIP3   OH238932   1.183   0.705   2.140 -0.5958 -0.0292 -0.3012
 5814TIP3    H138933   1.239   0.645   2.190 -1.8069 -2.6474 -1.8898
 5814TIP3    H238934   1.244   0.752   2.082  0.1554 -2.0179 -1.2070
 5815TIP3   OH238935   4.676   2.310  15.200 -0.2598 -0.5784 -0.4989
 5815TIP3    H138936   4.594   2.265  15.178 -0.6496  0.1430 -0.5605
 5815TIP3    H238937   4.745   2.255  15.163 -0.7860 -0.5022 -1.6199
 5816TIP3   OH238938   4.413   0.734   7.087 -0.6986 -0.6867  0.0875
 5816TIP3    H138939   4.472   0.666   7.121 -0.9739 -0.5885  0.7685
 5816TIP3    H238940   4.349   0.686   7.036 -1.0381 -0.9730  0.7726
 5817TIP3   OH238941   2.216   3.851  12.773  0.0990 -0.3338  0.4261
 5817TIP3    H138942   2.155   3.923  12.785  0.6830  0.1326  0.6422
 5817TIP3    H238943   2.292   3.890  12.729 -0.5984 -1.3215 -1.7827
 5818TIP3   OH238944   5.676   4.871  12.397  0.0272  0.2271  0.3018
 5818TIP3    H138945   5.587   4.872  12.360  0.4611 -0.3447 -0.7844
 5818TIP3    H238946   5.684   4.783  12.435  0.2733  0.1257  0.0176
 5819TIP3   OH238947   1.721   1.945  14.382  0.1546  0.7340 -0.0959
 5819TIP3    H138948   1.686   1.856  14.392 -0.4140  0.8185 -1.1284
 5819TIP3    H238949   1.668   1.998  14.441  0.1234  0.4687  0.1154
 5820TIP3   OH238950   3.449   1.967  14.244  0.1283  0.3213  0.0888
 5820TIP3    H138951   3.520   1.945  14.183 -0.4452  0.9545 -0.8417
 5820TIP3    H238952   3.450   2.063  14.247 -0.9704  0.3645 -0.3118
 5821TIP3   OH238953   5.297   1.815  14.032 -0.1491  0.2566 -0.5089
 5821TIP3    H138954   5.213   1.820  14.077  0.4914 -1.7376  1.0813
 5821TIP3    H238955   5.277   1.777  13.947 -0.8314 -0.7986  0.0976
 5822TIP3   OH238956   6.388   1.447   3.043  0.0003  0.5883  0.2546
 5822TIP3    H138957   6.348   1.392   3.110  1.1886  0.1174  0.6193
 5822TIP3    H238958   6.369   1.537   3.070 -1.8212  0.3964 -0.2567
 5823TIP3   OH238959   4.144   0.072   1.605 -0.0164  0.0443 -0.8712
 5823TIP3    H138960   4.152  -0.006   1.660 -0.0474 -0.2510 -1.2778
 5823TIP3    H238961   4.204   0.135   1.645 -0.8013  0.1921  0.0953
 5824TIP3   OH238962   5.546   6.681   3.727 -0.3405  0.0633 -0.3680
 5824TIP3    H138963   5.610   6.647   3.665 -0.0924  0.8929 -0.5788
 5824TIP3    H238964   5.498   6.748   3.679 -1.4378 -0.6055 -0.2369
 5825TIP3   OH238965   2.571   5.738   6.352  0.1755 -0.2617 -0.1357
 5825TIP3    H138966   2.477   5.723   6.358 -0.1666  1.4543 -0.5093
 5825TIP3    H238967   2.591   5.794   6.427  0.5365  0.8479 -1.0242
 5826TIP3   OH238968   6.484   1.671   3.318 -0.3353  0.4764 -0.0311
 5826TIP3    H138969   6.398   1.639   3.345  0.0533 -0.2846  0.3245
 5826TIP3    H238970   6.491   1.759   3.357 -0.9487  0.5458 -0.0712
 5827TIP3   OH238971   1.087   0.187  16.741 -0.3818  0.3722  0.4519
 5827TIP3    H138972   1.021   0.125  16.710  0.2809 -1.2078  1.9953
 5827TIP3    H238973   1.064   0.270  16.701 -1.1281 -0.9295 -2.0169
 5828TIP3   OH238974   2.046   4.998   5.480  0.2070  0.2568 -0.8355
 5828TIP3    H138975   2.117   5.039   5.431 -1.6200  1.0256 -3.0442
 5828TIP3    H238976   2.003   4.940   5.416 -0.1819 -1.4869  0.8945
 5829TIP3   OH238977   1.006   3.340   6.699 -0.3055 -0.1662 -0.0546
 5829TIP3    H138978   1.026   3.403   6.629  0.8162 -1.2722 -0.7753
 5829TIP3    H238979   0.939   3.283   6.661 -1.6768  0.8145  0.7663
 5830TIP3   OH238980   0.069   4.110   1.614  0.1432 -0.7190  0.1118
 5830TIP3    H138981   0.060   4.145   1.525 -1.3489  0.3831  0.6574
 5830TIP3    H238982   0.153   4.144   1.644 -0.8770  1.8599  0.3205
 5831TIP3   OH238983   0.568   3.174  15.470  0.0237  0.1196 -0.7508
 5831TIP3    H138984   0.638   3.182  15.405  0.5890 -2.7842 -0.6674
 5831TIP3    H238985   0.610   3.129  15.544 -1.3507  0.5596  0.3304
 5832TIP3   OH238986   4.710   5.009  15.505 -0.6198  0.4154 -0.2873
 5832TIP3    H138987   4.689   4.944  15.439 -1.5033 -1.3093  1.5818
 5832TIP3    H238988   4.626   5.050  15.526 -0.3843  0.7889 -0.0592
 5833TIP3   OH238989   0.563   2.683  10.906  0.3945  0.5613 -0.3530
 5833TIP3    H138990   0.656   2.683  10.884  0.4142 -0.4363 -0.3290
 5833TIP3    H238991   0.518   2.699  10.823  0.5161 -1.6879 -0.9155
 5834TIP3   OH238992   3.887   0.095  12.997  0.1046 -0.2867 -0.2400
 5834TIP3    H138993   3.824   0.160  12.965 -0.9307 -0.9958  0.3090
 5834TIP3    H238994   3.904   0.120  13.087  0.8250  0.0398 -0.4523
 5835TIP3   OH238995   5.594   0.264  12.102 -0.1203  0.1231 -0.2060
 5835TIP3    H138996   5.638   0.298  12.024 -0.2432  0.7329 -0.0106
 5835TIP3    H238997   5.623   0.321  12.173 -1.5306  0.7983 -0.1380
 5836TIP3   OH238998   6.406   5.321  16.979  0.1644 -0.0523  0.0288
 5836TIP3    H138999   6.321   5.324  16.935  1.8431 -0.3184 -3.5816
 5836TIP3    H239000   6.400   5.245  17.036 -0.9823 -2.2963 -2.8166
 5837TIP3   OH239001   5.335   3.681  11.141 -0.6840  0.2588  0.2968
 5837TIP3    H139002   5.362   3.748  11.204 -0.4704 -0.2531  0.7579
 5837TIP3    H239003   5.408   3.620  11.137 -0.7369  0.2283 -0.3804
 5838TIP3   OH239004   0.803   3.118   6.261  0.4393 -0.0721 -0.2478
 5838TIP3    H139005   0.818   3.203   6.301 -0.0003 -0.1751  0.1575
 5838TIP3    H239006   0.721   3.087   6.301  1.2575 -1.2492  0.5832
 5839TIP3   OH239007   4.565   0.428   5.268  0.1419 -0.2890  0.2334
 5839TIP3    H139008   4.534   0.518   5.281 -0.1657 -0.5312  1.2406
 5839TIP3    H239009   4.557   0.387   5.354 -1.0607 -1.7097 -0.5131
 5840TIP3   OH239010   6.346   5.747  11.363  0.2313  0.2495 -0.1054
 5840TIP3    H139011   6.420   5.689  11.345  1.5933  1.4364  1.3481
 5840TIP3    H239012   6.306   5.762  11.278  0.6368 -1.7353 -0.6950
 5841TIP3   OH239013   1.270   2.392   4.284 -0.5478  0.4117  0.1763
 5841TIP3    H139014   1.302   2.467   4.335  2.5373 -0.9070  0.4218
 5841TIP3    H239015   1.277   2.318   4.344  2.3103 -1.0327 -1.6943
 5842TIP3   OH239016   3.268   5.340  12.410  0.4371 -0.2906 -0.2089
 5842TIP3    H139017   3.179   5.364  12.384  0.6890  0.1059 -0.7058
 5842TIP3    H239018   3.310   5.311  12.329  1.1775  0.8068 -0.2321
 5843TIP3   OH239019   2.775   3.078  15.367  0.0575 -0.2236 -0.3759
 5843TIP3    H139020   2.810   3.131  15.296  0.2608 -1.0070 -0.8635
 5843TIP3    H239021   2.840   3.010  15.382 -0.8697 -1.2253 -0.7668
 5844TIP3   OH239022   1.445   3.382   3.815 -0.1394  0.1835  0.8789
 5844TIP3    H139023   1.432   3.424   3.730  2.0089  1.5337  1.1491
 5844TIP3    H239024   1.512   3.316   3.799  1.3865  1.4511  1.7454
 5845TIP3   OH239025   0.330   3.452   2.829 -0.0190 -0.1225 -0.3975
 5845TIP3    H139026   0.273   3.422   2.900  1.0581 -0.7590  0.2168
 5845TIP3    H239027   0.417   3.419   2.852  0.8323  1.6979 -0.7631
 5846TIP3   OH239028   2.762   6.468   2.303  0.3167  0.8286 -0.1730
 5846TIP3    H139029   2.797   6.406   2.367 -0.0794  1.7915  1.0100
 5846TIP3    H239030   2.816   6.546   2.312  0.7209  0.7278 -1.5516
 5847TIP3   OH239031   0.585   3.306  14.541 -0.2441 -0.2014  0.4336
 5847TIP3    H139032   0.668   3.337  14.506 -0.5137 -0.3144 -0.3146
 5847TIP3    H239033   0.605   3.220  14.578 -0.5345 -1.4560 -2.1066
 5848TIP3   OH239034   4.311   1.452   3.278  0.1736  0.2891 -0.1006
 5848TIP3    H139035   4.397   1.487   3.254 -0.4144  0.8025 -1.5084
 5848TIP3    H239036   4.249   1.500   3.224 -1.0381  0.0887  1.0673
 5849TIP3   OH239037   3.348   5.976   4.245  0.1528 -0.2580 -0.7133
 5849TIP3    H139038   3.288   5.910   4.279 -2.3159  1.0444 -2.2352
 5849TIP3    H239039   3.360   6.037   4.318 -0.0176 -0.7614 -0.2600
 5850TIP3   OH239040   3.133   6.434  15.026  0.2367  0.3980 -0.1405
 5850TIP3    H139041   3.069   6.398  14.964  0.2874  0.4040 -0.1967
 5850TIP3    H239042   3.175   6.505  14.978 -1.5029  2.1163  0.7601
 5851TIP3   OH239043   3.723   0.557   3.991 -0.1933  0.4423 -0.0389
 5851TIP3    H139044   3.743   0.476   4.037  0.0187 -0.8315 -2.1996
 5851TIP3    H239045   3.630   0.573   4.008 -0.5383 -0.9295 -0.4969
 5852TIP3   OH239046   4.356   5.741   0.242  0.1637 -0.2715  0.0331
 5852TIP3    H139047   4.326   5.651   0.229  1.4561 -0.9689  1.6053
 5852TIP3    H239048   4.368   5.775   0.153 -3.3448 -0.5384 -0.6964
 5853TIP3   OH239049   5.392   1.142   5.408  0.3674 -0.6570 -0.3767
 5853TIP3    H139050   5.439   1.199   5.347  2.1222 -1.3938  0.2067
 5853TIP3    H239051   5.333   1.092   5.353 -1.7966  2.1588 -0.8280
 5854TIP3   OH239052   5.407   2.728  12.756  0.2753  0.1045  0.2913
 5854TIP3    H139053   5.320   2.728  12.797  0.2680 -1.8427  0.3395
 5854TIP3    H239054   5.452   2.654  12.796  1.2404 -0.1633 -1.2378
 5855TIP3   OH239055   0.292   3.733   6.764 -0.5327 -0.0206 -0.3949
 5855TIP3    H139056   0.270   3.755   6.855 -0.2032  0.1145 -0.3458
 5855TIP3    H239057   0.266   3.642   6.754 -3.0328  0.6940 -0.9538
 5856TIP3   OH239058   1.952   1.454   5.721  0.4065  0.3792  0.7277
 5856TIP3    H139059   1.996   1.427   5.801  0.8297  3.3589  1.6234
 5856TIP3    H239060   2.021   1.457   5.655  0.4297 -0.2662  0.7195
 5857TIP3   OH239061   1.241   2.143  13.157  0.4065 -0.0499 -0.1614
 5857TIP3    H139062   1.150   2.166  13.139  0.6186  0.8800 -0.1074
 5857TIP3    H239063   1.271   2.210  13.219  1.1641 -0.2578 -0.2930
 5858TIP3   OH239064   1.083   5.396   0.916 -0.1838  0.0014 -0.4782
 5858TIP3    H139065   1.029   5.456   0.968 -0.1408  0.1581 -0.6106
 5858TIP3    H239066   1.058   5.309   0.945  0.7726  0.1010  0.7591
 5859TIP3   OH239067   4.297   0.091   5.638 -0.3352 -0.0620  0.1566
 5859TIP3    H139068   4.204   0.068   5.640 -0.2565 -0.3903  0.0734
 5859TIP3    H239069   4.343   0.007   5.643 -0.0220  0.1814  1.6423
 5860TIP3   OH239070   5.099   3.912   2.021  0.2381 -0.2633  0.8755
 5860TIP3    H139071   5.117   3.993   2.067  0.8494 -0.0224  0.2433
 5860TIP3    H239072   5.121   3.843   2.083 -0.7269  0.0473  1.5755
 5861TIP3   OH239073   4.073   6.253   2.795  0.1062  0.3080 -0.1132
 5861TIP3    H139074   4.156   6.210   2.815 -0.0464 -0.6603 -1.4327
 5861TIP3    H239075   4.011   6.181   2.780 -0.5842  1.0027 -0.6927
 5862TIP3   OH239076   6.770   2.453   6.726  0.7272  0.2945  0.6198
 5862TIP3    H139077   6.743   2.397   6.654 -0.1233  0.7143  0.5977
 5862TIP3    H239078   6.706   2.436   6.795 -0.1210  1.8893  0.2860
 5863TIP3   OH239079   6.513   0.565   5.526 -0.2768 -0.5072  0.4401
 5863TIP3    H139080   6.485   0.476   5.504 -0.4266 -0.2441 -0.5023
 5863TIP3    H239081   6.436   0.606   5.565 -0.0492 -0.9470  1.3709
 5864TIP3   OH239082   2.132   2.389   5.710 -0.3511 -0.5373 -0.0471
 5864TIP3    H139083   2.066   2.432   5.656  0.4738  1.4941  0.4515
 5864TIP3    H239084   2.216   2.418   5.674  0.2235 -0.1441  1.4989
 5865TIP3   OH239085   6.097   0.762   2.086 -0.1942 -0.1629  0.5097
 5865TIP3    H139086   6.056   0.826   2.029  0.0499 -0.4331  0.0154
 5865TIP3    H239087   6.162   0.812   2.136 -0.6757  0.1452  0.8300
 5866TIP3   OH239088   1.081   4.415  17.078  0.3130 -0.0813 -0.2272
 5866TIP3    H139089   1.032   4.496  17.089  0.9239  0.3352 -0.5360
 5866TIP3    H239090   1.167   4.442  17.048  0.9563 -0.7506  0.9152
 5867TIP3   OH239091   0.957   1.418   1.216 -0.4401  0.3729  0.0508
 5867TIP3    H139092   0.996   1.436   1.130 -1.2094 -1.9381 -0.8781
 5867TIP3    H239093   0.876   1.371   1.195  0.3432 -2.0928  2.0322
 5868TIP3   OH239094   2.370   4.804   0.748  0.4642 -0.5396 -0.4437
 5868TIP3    H139095   2.318   4.741   0.798 -1.2602 -0.4435 -1.9805
 5868TIP3    H239096   2.428   4.749   0.695  0.6166 -0.7286 -0.0862
 5869TIP3   OH239097   5.756   2.652   5.500  0.6108  0.4413  0.2468
 5869TIP3    H139098   5.791   2.614   5.419 -1.3856 -0.8823 -0.0632
 5869TIP3    H239099   5.692   2.588   5.530 -0.4699  2.0692  1.5503
 5870TIP3   OH239100   0.501   2.490  14.749 -0.0277 -0.2109 -0.1065
 5870TIP3    H139101   0.557   2.453  14.817 -2.7561 -2.2523  1.2774
 5870TIP3    H239102   0.467   2.414  14.702 -1.1662  0.9505 -1.2483
 5871TIP3   OH239103   5.880   1.282   2.341  0.2044  0.0313 -0.0080
 5871TIP3    H139104   5.805   1.340   2.358  0.1409 -0.3403  0.9958
 5871TIP3    H239105   5.840   1.199   2.314  0.2700  0.0353 -0.1178
 5872TIP3   OH239106   4.533   0.716  14.501 -0.2167 -0.2792 -0.3514
 5872TIP3    H139107   4.507   0.808  14.507  0.3857 -0.1237  0.1410
 5872TIP3    H239108   4.578   0.700  14.584 -0.9290 -1.2204 -0.1415
 5873TIP3   OH239109   3.719   3.271  11.613  0.2129 -0.0333 -0.3423
 5873TIP3    H139110   3.700   3.247  11.522  0.9939 -0.2685 -0.4513
 5873TIP3    H239111   3.751   3.361  11.608 -0.1440  0.0984 -0.2509
 5874TIP3   OH239112   5.225   2.873  16.874 -0.1223  0.5668 -0.5750
 5874TIP3    H139113   5.135   2.872  16.907 -1.0901 -1.3310 -3.0209
 5874TIP3    H239114   5.234   2.791  16.826  2.4202  1.4517 -1.7655
 5875TIP3   OH239115   4.225   0.555  16.018 -0.2841 -0.9872 -0.6979
 5875TIP3    H139116   4.248   0.560  16.111  1.0053  1.3157 -1.0671
 5875TIP3    H239117   4.136   0.591  16.014  0.4217  0.9125 -0.5278
 5876TIP3   OH239118   3.406   0.061  13.212  0.0417  0.2409  0.3931
 5876TIP3    H139119   3.343   0.075  13.283 -1.9525 -2.2409 -0.7120
 5876TIP3    H239120   3.446  -0.024  13.232  0.4860  0.1633 -0.7396
 5877TIP3   OH239121   2.157   4.374  14.681 -1.3036 -0.1776 -0.4703
 5877TIP3    H139122   2.129   4.361  14.590 -2.9592  1.2849 -0.2094
 5877TIP3    H239123   2.076   4.390  14.729 -0.2598  1.5917  0.8114
 5878TIP3   OH239124   1.972   1.997  13.665 -0.3283  0.2176 -0.6775
 5878TIP3    H139125   1.916   2.024  13.593 -0.4688 -0.1709 -0.7165
 5878TIP3    H239126   1.938   1.912  13.692 -0.1359  0.2543 -0.3016
 5879TIP3   OH239127   6.459   6.222  12.694  0.0676  0.1400 -0.1583
 5879TIP3    H139128   6.446   6.188  12.605 -0.1513  1.1444 -0.5256
 5879TIP3    H239129   6.383   6.190  12.743 -0.5823  0.7591 -0.7137
 5880TIP3   OH239130   3.376   2.995  11.967 -0.1004 -0.1402 -0.2260
 5880TIP3    H139131   3.382   3.088  11.990  0.4014 -0.3834  0.6717
 5880TIP3    H239132   3.282   2.975  11.974 -0.2339  0.3437 -0.6178
 5881TIP3   OH239133   5.150   3.081  17.218 -0.7062 -0.5532  0.0907
 5881TIP3    H139134   5.156   3.015  17.287  0.1636 -0.8367 -0.2349
 5881TIP3    H239135   5.060   3.075  17.186 -1.1476 -0.3430  1.2559
 5882TIP3   OH239136   6.320   1.269   6.408 -0.6051  0.0475 -0.3064
 5882TIP3    H139137   6.360   1.182   6.396 -1.0880 -0.1152 -0.7710
 5882TIP3    H239138   6.379   1.328   6.361  0.0104  0.0552  0.4458
 5883TIP3   OH239139   5.442   3.233   1.237  0.0174  1.1294  0.0517
 5883TIP3    H139140   5.419   3.210   1.327  1.2886  1.7158  0.5654
 5883TIP3    H239141   5.450   3.329   1.238 -0.0054  1.1439 -0.6930
 5884TIP3   OH239142   4.696   5.061   0.931 -0.1337  0.3158 -0.1597
 5884TIP3    H139143   4.700   4.983   0.875  0.4238  0.1519  0.1045
 5884TIP3    H239144   4.623   5.044   0.990  0.8314 -0.6239  0.7999
 5885TIP3   OH239145   5.235   0.979  15.092  0.1993 -0.8819 -0.8972
 5885TIP3    H139146   5.323   0.942  15.080  0.7001 -0.4034  0.9932
 5885TIP3    H239147   5.194   0.922  15.157  0.0476  0.3513  0.1270
 5886TIP3   OH239148   3.756   5.440  11.354 -0.5671  0.0171  0.0987
 5886TIP3    H139149   3.684   5.434  11.416 -1.1546 -1.1543 -0.6676
 5886TIP3    H239150   3.717   5.420  11.269  0.4465  0.4416 -0.4881
 5887TIP3   OH239151   2.282   3.036  13.332 -0.5617  0.1029  0.3981
 5887TIP3    H139152   2.294   3.125  13.299 -0.9933  0.3076  0.7720
 5887TIP3    H239153   2.370   2.999  13.335 -0.1395  1.1032  1.8531
 5888TIP3   OH239154   2.863   2.965   2.546  0.0596  0.0005 -0.2905
 5888TIP3    H139155   2.937   2.908   2.570  0.2623  0.0789 -0.7311
 5888TIP3    H239156   2.879   3.046   2.593  0.3773  0.1004 -0.5711
 5889TIP3   OH239157   5.329   0.105  15.329  0.1849 -0.5535 -0.4804
 5889TIP3    H139158   5.364   0.065  15.250  3.5687 -0.0879  0.6409
 5889TIP3    H239159   5.305   0.032  15.385  1.6415 -0.9575 -0.3682
 5890TIP3   OH239160   2.301   4.761  13.398  0.6221  0.4091  0.5662
 5890TIP3    H139161   2.339   4.724  13.318 -0.3010 -0.8078  0.6665
 5890TIP3    H239162   2.223   4.709  13.414 -0.5034  2.1536  0.9848
 5891TIP3   OH239163   4.896   3.771   1.809 -0.3197  0.1227 -0.0821
 5891TIP3    H139164   4.907   3.811   1.723 -1.8767  1.7934  0.4202
 5891TIP3    H239165   4.974   3.797   1.858  0.0998  0.0085 -0.6793
 5892TIP3   OH239166   3.307   4.205  11.066  0.3246  0.7367 -0.2147
 5892TIP3    H139167   3.298   4.294  11.101  0.1099 -0.0535  1.8669
 5892TIP3    H239168   3.384   4.170  11.110  1.0917  0.2279 -1.8793
 5893TIP3   OH239169   6.398   0.651  13.503 -0.6349 -0.2860 -0.1996
 5893TIP3    H139170   6.333   0.581  13.498  0.0183 -1.0319  1.3097
 5893TIP3    H239171   6.478   0.612  13.467 -0.0884 -0.5627  1.2674
 5894TIP3   OH239172   0.354   5.232  12.404 -0.3035 -0.3490  0.1929
 5894TIP3    H139173   0.388   5.143  12.411 -0.1367 -0.3792 -0.8038
 5894TIP3    H239174   0.427   5.282  12.367 -0.0161  0.4580  1.7481
 5895TIP3   OH239175   5.499   5.659   5.266 -0.2286  0.2448 -0.3960
 5895TIP3    H139176   5.433   5.622   5.326  0.8587  1.2071  1.4971
 5895TIP3    H239177   5.573   5.599   5.273 -0.8773 -0.9369 -2.6623
 5896TIP3   OH239178   0.018   0.709  11.808  0.3616  0.2653 -0.3378
 5896TIP3    H139179  -0.070   0.744  11.792  0.4583  0.5538 -0.2451
 5896TIP3    H239180   0.056   0.700  11.721 -0.5637 -2.0157 -0.5757
 5897TIP3   OH239181   0.753   1.397  14.194 -0.3049  0.1755 -0.1237
 5897TIP3    H139182   0.779   1.307  14.214  0.1115 -0.4010 -2.7759
 5897TIP3    H239183   0.812   1.424  14.124 -0.7394  2.3610  0.2779
 5898TIP3   OH239184   3.192   0.974  13.694  0.0532 -0.0574 -0.4160
 5898TIP3    H139185   3.196   1.061  13.734  0.9441 -0.2677 -0.0364
 5898TIP3    H239186   3.283   0.951  13.678 -0.0625 -1.6097  0.9723
 5899TIP3   OH239187   5.150   6.358   3.909 -0.6106  0.4272  0.4456
 5899TIP3    H139188   5.226   6.402   3.872 -1.7391  0.8548 -1.4909
 5899TIP3    H239189   5.130   6.287   3.847 -1.4641 -0.0180  1.2003
 5900TIP3   OH239190   0.207   4.600  16.314 -0.4683  0.3409 -0.9021
 5900TIP3    H139191   0.128   4.554  16.286 -2.0171  2.2282  0.1057
 5900TIP3    H239192   0.208   4.589  16.409  2.0759 -1.9655 -1.0856
 5901TIP3   OH239193   5.161   4.804   0.107 -0.3705  0.0361  0.1298
 5901TIP3    H139194   5.248   4.841   0.094 -0.8104  1.5868  1.3743
 5901TIP3    H239195   5.104   4.853   0.048 -0.4846 -0.7487 -0.4371
 5902TIP3   OH239196   2.657   6.341  15.898 -0.0386 -0.1443 -0.3105
 5902TIP3    H139197   2.607   6.399  15.955 -1.0710 -2.3399  1.1954
 5902TIP3    H239198   2.702   6.282  15.959  0.2981 -1.4486 -1.7583
 5903TIP3   OH239199   2.716   0.620  16.184  0.1889  0.5872  0.3667
 5903TIP3    H139200   2.737   0.528  16.192 -0.3480  0.3123 -1.2041
 5903TIP3    H239201   2.754   0.660  16.263  1.5365 -0.7462  0.4203
 5904TIP3   OH239202   4.834   2.096   5.730  0.0543 -0.1918  0.1438
 5904TIP3    H139203   4.773   2.031   5.695  1.5243 -0.4526 -2.1230
 5904TIP3    H239204   4.908   2.045   5.762 -0.0574  0.2311  1.1040
 5905TIP3   OH239205   3.735   3.066  11.129 -0.2814  0.4496  0.0993
 5905TIP3    H139206   3.778   2.980  11.131 -2.3778 -0.7032 -0.7792
 5905TIP3    H239207   3.776   3.111  11.055  0.3899 -0.0385  0.1618
 5906TIP3   OH239208   5.929   5.344   0.249 -0.1689 -0.0311 -0.0413
 5906TIP3    H139209   5.975   5.420   0.287 -0.7989 -0.7612  2.3677
 5906TIP3    H239210   5.906   5.290   0.325  0.5673 -2.8506 -1.6763
 5907TIP3   OH239211   6.740   2.604   0.769  0.3902  0.5159  0.0121
 5907TIP3    H139212   6.716   2.626   0.679  0.1800 -0.9840 -0.3090
 5907TIP3    H239213   6.670   2.641   0.822  0.4345  1.2740 -0.4267
 5908TIP3   OH239214   3.303   5.795  11.632  0.0304  0.7320 -0.2332
 5908TIP3    H139215   3.266   5.755  11.710  0.6542 -0.0338 -0.3224
 5908TIP3    H239216   3.397   5.781  11.639  0.1921  1.5276 -0.6396
 5909TIP3   OH239217   3.128   0.341   0.905  0.0546 -0.7364 -0.0680
 5909TIP3    H139218   3.126   0.304   0.817  0.4028 -0.4876 -0.1834
 5909TIP3    H239219   3.219   0.368   0.918 -0.1101 -0.2744  0.1625
 5910TIP3   OH239220   4.023   4.660  12.173  0.3264 -0.1311 -0.3813
 5910TIP3    H139221   4.066   4.659  12.087 -0.4217 -1.9215 -0.7725
 5910TIP3    H239222   3.990   4.750  12.181  3.8327  1.3015 -0.1476
 5911TIP3   OH239223   0.479   3.602  14.608 -0.4096 -0.2172  0.2637
 5911TIP3    H139224   0.509   3.511  14.608  0.9820  0.2275  0.9362
 5911TIP3    H239225   0.460   3.620  14.516 -1.7644 -1.4930  0.2355
 5912TIP3   OH239226   1.768   5.296   3.747 -0.0043  0.2638  0.0939
 5912TIP3    H139227   1.836   5.231   3.728 -2.1009 -1.9793 -0.2334
 5912TIP3    H239228   1.722   5.309   3.664 -2.0427 -0.8781  0.9655
 5913TIP3   OH239229   4.008   4.569  13.773  0.0239  0.5542 -0.0029
 5913TIP3    H139230   4.061   4.649  13.773 -1.4238  1.6689  2.7708
 5913TIP3    H239231   3.983   4.557  13.865 -3.5030 -0.5262 -0.9344
 5914TIP3   OH239232   1.262   0.809   5.648  0.1368  0.1045  0.0775
 5914TIP3    H139233   1.208   0.815   5.570 -0.5544 -0.3418  0.5136
 5914TIP3    H239234   1.203   0.777   5.716  0.2665  2.1438  1.2337
 5915TIP3   OH239235   2.308   0.290  13.190 -0.4204 -0.6170 -0.2508
 5915TIP3    H139236   2.336   0.216  13.244  2.4479 -0.1513 -0.9412
 5915TIP3    H239237   2.233   0.257  13.141  0.0100 -2.6516  0.3850
 5916TIP3   OH239238   4.933   1.126  13.933 -0.2368  0.2798 -0.1916
 5916TIP3    H139239   4.994   1.167  13.994  0.5971 -0.1232 -0.7473
 5916TIP3    H239240   4.929   1.187  13.859  2.2452 -1.2867 -1.7587
 5917TIP3   OH239241   1.189   2.478  14.917  0.3351 -0.0749  0.1664
 5917TIP3    H139242   1.263   2.537  14.907 -0.1793  0.2385 -2.4268
 5917TIP3    H239243   1.140   2.513  14.992 -0.3337  3.3098 -1.6563
 5918TIP3   OH239244   4.271   3.087   6.021  0.0594  0.5535 -0.6877
 5918TIP3    H139245   4.226   3.072   6.104  2.2481  0.2522  0.5100
 5918TIP3    H239246   4.228   3.028   5.959 -2.7984  2.0407 -0.2932
 5919TIP3   OH239247   4.829   3.005   5.786 -0.0704 -0.8111 -0.2517
 5919TIP3    H139248   4.902   3.065   5.768 -1.2309  0.4144 -1.0596
 5919TIP3    H239249   4.869   2.933   5.835  1.8099 -0.5417 -1.2927
 5920TIP3   OH239250   5.336   5.429   0.751  0.2278 -0.6047 -0.3194
 5920TIP3    H139251   5.383   5.484   0.688 -0.4111 -0.5464 -0.7530
 5920TIP3    H239252   5.293   5.363   0.698 -0.1467 -0.6811  0.0772
 5921TIP3   OH239253   1.032   1.237   3.331  0.0105  0.5382 -0.1407
 5921TIP3    H139254   0.958   1.255   3.390  0.3108 -0.4768  0.5791
 5921TIP3    H239255   1.023   1.144   3.309  0.7950  0.5258 -0.4322
 5922TIP3   OH239256   1.799   6.761   5.873 -0.0678 -0.1549  0.3473
 5922TIP3    H139257   1.876   6.749   5.929 -0.3130  0.1115  0.7428
 5922TIP3    H239258   1.746   6.682   5.887  0.3134 -0.5306 -0.2303
 5923TIP3   OH239259   3.482   4.361   1.284 -0.6811 -0.1327  0.4132
 5923TIP3    H139260   3.544   4.290   1.269  0.3503  0.4917  1.5996
 5923TIP3    H239261   3.460   4.392   1.196  1.2798  0.1296 -0.0243
 5924TIP3   OH239262   1.085   6.201   4.689  0.1289 -0.3313 -0.5690
 5924TIP3    H139263   1.071   6.230   4.599 -0.1723  0.4931 -0.2674
 5924TIP3    H239264   1.069   6.279   4.742  0.4093 -0.7803  0.1925
 5925TIP3   OH239265   5.264   6.749   3.061  1.0810  0.1832  0.0792
 5925TIP3    H139266   5.261   6.728   3.155  0.3945 -0.8574 -0.1536
 5925TIP3    H239267   5.291   6.667   3.019 -0.9618 -0.0837 -0.8172
 5926TIP3   OH239268   0.376   0.815   4.024  0.2633  0.2452 -0.2317
 5926TIP3    H139269   0.379   0.909   4.042  0.6438  0.1060  0.4467
 5926TIP3    H239270   0.283   0.794   4.024  0.2152  0.4353  0.5934
 5927TIP3   OH239271   2.348   0.362   6.125 -0.4883  0.6626 -0.0717
 5927TIP3    H139272   2.425   0.305   6.118 -0.1016  1.0945  0.6006
 5927TIP3    H239273   2.355   0.402   6.211 -0.4315  2.1734 -0.7448
 5928TIP3   OH239274   2.875   2.634   1.401  0.2509 -0.1556  0.2869
 5928TIP3    H139275   2.849   2.546   1.373  0.5900 -0.4852  0.9858
 5928TIP3    H239276   2.795   2.672   1.437 -0.0184  0.0153 -0.4671
 5929TIP3   OH239277   0.570   2.016  13.311  0.3262  0.0877  0.0280
 5929TIP3    H139278   0.584   2.008  13.216  2.8565 -0.5442  0.3972
 5929TIP3    H239279   0.505   1.949  13.331  0.4398 -0.3889 -1.1277
 5930TIP3   OH239280   0.636   5.311  11.266 -0.9016 -0.1019 -0.1383
 5930TIP3    H139281   0.614   5.402  11.249 -0.1650 -0.0695 -0.9778
 5930TIP3    H239282   0.553   5.264  11.257 -1.2247  0.4354 -0.0054
 5931TIP3   OH239283   5.210   6.253  12.613  0.7946  0.1123 -0.4049
 5931TIP3    H139284   5.241   6.174  12.656  0.2963  0.6742  1.0519
 5931TIP3    H239285   5.167   6.303  12.682 -1.0946  0.5247 -1.8036
 5932TIP3   OH239286   3.084   3.506   2.338  0.0827  0.0987 -0.6896
 5932TIP3    H139287   3.025   3.581   2.347 -1.4295 -1.1248  0.0137
 5932TIP3    H239288   3.044   3.437   2.391  0.9209 -1.5129 -2.0642
 5933TIP3   OH239289   3.191   2.239   2.844 -0.1464 -0.4477 -0.5126
 5933TIP3    H139290   3.110   2.189   2.837 -1.3414  1.1866  0.7938
 5933TIP3    H239291   3.162   2.330   2.850  1.7076  0.0817  1.5543
 5934TIP3   OH239292   4.855   0.918   6.083  0.2509  0.9378  1.2077
 5934TIP3    H139293   4.914   0.994   6.081  1.7861 -0.1811 -1.2774
 5934TIP3    H239294   4.841   0.897   5.990 -3.5694  0.6706  1.6681
 5935TIP3   OH239295   4.289   6.347  15.547 -0.0964  0.5959  0.2471
 5935TIP3    H139296   4.342   6.411  15.596  1.1505  0.2818 -0.6456
 5935TIP3    H239297   4.333   6.339  15.462 -1.1348 -0.2830 -0.2309
 5936TIP3   OH239298   5.744   2.845  13.186  0.0427 -0.3927 -0.5379
 5936TIP3    H139299   5.776   2.933  13.203 -1.4934  0.0070  0.5217
 5936TIP3    H239300   5.676   2.857  13.120 -2.5696 -0.2216  1.9952
 5937TIP3   OH239301   6.207   5.075  15.189 -0.1858 -0.2421  0.3432
 5937TIP3    H139302   6.234   5.163  15.163 -0.9277  0.2402  1.1477
 5937TIP3    H239303   6.283   5.039  15.236  0.5636 -0.5124 -1.0396
 5938TIP3   OH239304   1.294   3.182  12.622  0.3835 -0.1370 -0.2186
 5938TIP3    H139305   1.313   3.092  12.594  0.8129 -0.2367  0.3769
 5938TIP3    H239306   1.228   3.213  12.559  0.5984 -0.6927 -0.7297
 5939TIP3   OH239307   6.765   1.763  13.059  0.2204 -0.1690 -0.2678
 5939TIP3    H139308   6.823   1.690  13.077 -0.8430 -0.6754  1.3007
 5939TIP3    H239309   6.677   1.726  13.063 -0.2841  0.6128 -2.3982
 5940TIP3   OH239310   6.479   6.664   0.707  0.2419 -0.3039  0.7885
 5940TIP3    H139311   6.520   6.750   0.696  0.7840 -0.4994  1.2391
 5940TIP3    H239312   6.386   6.680   0.690  0.2318  0.5177  1.5112
 5941TIP3   OH239313   2.128   4.208   1.300 -0.0189 -0.1791  0.0409
 5941TIP3    H139314   2.160   4.284   1.252 -0.3390 -0.4919 -0.6938
 5941TIP3    H239315   2.199   4.144   1.294 -0.0817 -0.2389 -0.0601
 5942TIP3   OH239316   6.357   0.968   1.636  0.0397  0.5443 -0.2613
 5942TIP3    H139317   6.275   1.017   1.640  0.1956  1.1606 -2.8057
 5942TIP3    H239318   6.404   0.994   1.715 -1.5727  1.3380  0.4903
 5943TIP3   OH239319   1.748   3.832  16.215 -0.0911 -0.0484  0.4262
 5943TIP3    H139320   1.801   3.873  16.284  0.4981 -0.3604  0.1703
 5943TIP3    H239321   1.664   3.813  16.257  0.8671 -1.8990  1.6037
 5944TIP3   OH239322   4.426   3.900  13.685 -0.3000  0.1492  0.1160
 5944TIP3    H139323   4.457   3.818  13.647  0.5025  0.6568 -0.3267
 5944TIP3    H239324   4.331   3.887  13.695 -0.6771  0.2527 -2.6962
 5945TIP3   OH239325   2.222   6.548  13.360  0.3663  0.3421 -0.4659
 5945TIP3    H139326   2.273   6.510  13.431  0.8190  0.6422 -0.6231
 5945TIP3    H239327   2.268   6.630  13.339 -1.7246  2.0822  1.2603
 5946TIP3   OH239328   3.147   3.757  13.943 -0.2375 -0.1659 -0.0121
 5946TIP3    H139329   3.054   3.779  13.951 -0.6302 -1.8537  0.6123
 5946TIP3    H239330   3.149   3.685  13.879  0.7491  0.4039 -0.6535
 5947TIP3   OH239331   1.461   1.617  15.691  0.4284  0.4433  0.7016
 5947TIP3    H139332   1.370   1.592  15.678  0.5228  1.1115 -1.7269
 5947TIP3    H239333   1.509   1.568  15.625  1.2943  2.9145 -0.6261
 5948TIP3   OH239334   5.109   4.702   5.836 -0.2195  0.9923  0.0474
 5948TIP3    H139335   5.018   4.698   5.806  0.0061 -0.4292 -0.5159
 5948TIP3    H239336   5.116   4.635   5.904  1.1362 -1.2713 -2.1446
 5949TIP3   OH239337   2.892   5.993   6.022 -0.1546  0.6029  0.5305
 5949TIP3    H139338   2.935   5.961   6.102 -1.4504  0.4055  1.1984
 5949TIP3    H239339   2.799   5.972   6.036 -0.4720  0.9977 -0.8334
 5950TIP3   OH239340   2.552   0.631   1.614  1.0162  0.0219 -0.2888
 5950TIP3    H139341   2.461   0.658   1.600  0.9268 -0.1576 -0.0530
 5950TIP3    H239342   2.599   0.713   1.632  1.2133  0.3239 -2.0040
 5951TIP3   OH239343   3.896   6.085   2.332  0.1828 -0.4292 -0.1362
 5951TIP3    H139344   3.927   6.112   2.245 -0.8065 -0.5056 -0.5194
 5951TIP3    H239345   3.872   5.993   2.321  0.4493 -0.5623  0.3361
 5952TIP3   OH239346   4.518   1.536   2.511  0.1873  0.4022  0.3755
 5952TIP3    H139347   4.565   1.540   2.594  0.8030  0.7653  0.0155
 5952TIP3    H239348   4.481   1.447   2.509  0.7788  0.1424  0.7050
 5953TIP3   OH239349   3.538   5.034  13.727 -0.1121 -0.4788  0.1664
 5953TIP3    H139350   3.574   4.968  13.785  0.3371  0.2453  0.7291
 5953TIP3    H239351   3.615   5.081  13.693 -0.3434 -1.0022 -1.1697
 5954TIP3   OH239352   4.787   2.149  12.422  0.3312  0.3171 -0.4367
 5954TIP3    H139353   4.712   2.110  12.377 -0.3647  0.6648  0.3932
 5954TIP3    H239354   4.793   2.101  12.504 -0.3122  1.6851  0.4453
 5955TIP3   OH239355   2.786   1.878   1.051 -0.3029  0.1241  0.4607
 5955TIP3    H139356   2.787   1.788   1.084 -0.8812 -0.1096 -0.1301
 5955TIP3    H239357   2.781   1.869   0.956 -3.0633  0.7346  0.4633
 5956TIP3   OH239358   2.177   5.471  10.530 -0.2186  0.5814 -0.4621
 5956TIP3    H139359   2.120   5.465  10.454  1.4895 -2.0228 -1.6833
 5956TIP3    H239360   2.174   5.384  10.569  1.2046  1.0246  0.7247
 5957TIP3   OH239361   3.957   5.560  16.798 -0.3372 -0.1547  0.0591
 5957TIP3    H139362   4.036   5.614  16.788 -0.2268 -0.2075  0.6254
 5957TIP3    H239363   3.935   5.533  16.709 -0.7889  1.3906 -0.3393
 5958TIP3   OH239364   6.046   3.459  13.849  0.2245  0.3577  0.1396
 5958TIP3    H139365   5.993   3.520  13.798 -1.2384  0.0377  1.2451
 5958TIP3    H239366   5.996   3.443  13.929  2.5110  0.9420  1.7893
 5959TIP3   OH239367   1.551   0.334   3.900  0.5521 -0.3587 -0.1961
 5959TIP3    H139368   1.629   0.281   3.884  0.8964  0.4215 -1.1671
 5959TIP3    H239369   1.486   0.300   3.838  0.7126  0.2023 -0.6839
 5960TIP3   OH239370   6.503   0.514   0.492 -0.0757  0.2134 -0.6128
 5960TIP3    H139371   6.565   0.587   0.494  0.9573 -0.6520 -0.0949
 5960TIP3    H239372   6.424   0.549   0.532  0.6421  0.8405  0.3052
 5961TIP3   OH239373   5.012   5.646   1.720  0.4277  0.5077 -0.2148
 5961TIP3    H139374   5.079   5.587   1.756 -0.0768 -0.5938 -1.0301
 5961TIP3    H239375   5.060   5.700   1.657  0.6393  0.0119 -0.4885
 5962TIP3   OH239376   0.867   5.896   2.474 -0.1674  0.0141  0.3370
 5962TIP3    H139377   0.784   5.850   2.481 -1.4130  2.3257  2.0304
 5962TIP3    H239378   0.932   5.835   2.509 -1.6019 -0.8382  1.5945
 5963TIP3   OH239379   1.994   3.475   1.153  0.7431  0.0774 -0.0787
 5963TIP3    H139380   1.968   3.485   1.244 -1.0794 -0.6383 -0.4811
 5963TIP3    H239381   1.989   3.564   1.117 -3.2246 -0.1756 -0.5851
 5964TIP3   OH239382   1.082   6.149  15.038  0.2987  0.1283 -0.1933
 5964TIP3    H139383   1.170   6.180  15.059  1.8197 -2.5725 -1.9520
 5964TIP3    H239384   1.069   6.074  15.095 -0.0478 -0.6171 -1.2217
 5965TIP3   OH239385   1.292   4.929  11.080 -0.1500 -0.5353  0.8305
 5965TIP3    H139386   1.366   4.984  11.056  0.2870  0.0773  3.3319
 5965TIP3    H239387   1.226   4.948  11.014  0.2711  2.4043  1.1134
 5966TIP3   OH239388   0.768   3.240  15.723  0.3108 -0.4587 -0.1442
 5966TIP3    H139389   0.819   3.240  15.804 -0.7895 -2.3486  0.6216
 5966TIP3    H239390   0.750   3.147  15.706 -0.3351 -0.0467 -2.0293
 5967TIP3   OH239391   4.299   4.390   3.478 -0.1794 -0.1088  0.4993
 5967TIP3    H139392   4.270   4.400   3.388  0.9818  0.4599  0.1783
 5967TIP3    H239393   4.393   4.373   3.472 -0.0027  0.3761  1.6102
 5968TIP3   OH239394   2.696   5.266  11.461  0.8359 -0.1060  0.0119
 5968TIP3    H139395   2.613   5.220  11.476  0.9795 -0.3899 -0.0631
 5968TIP3    H239396   2.685   5.307  11.375  1.1369 -0.9552 -0.4448
 5969TIP3   OH239397   4.046   3.631  11.593  0.2351 -0.3469  0.5584
 5969TIP3    H139398   4.099   3.612  11.671 -1.5960  1.8968  2.5019
 5969TIP3    H239399   4.101   3.690  11.541  0.2257  0.9209  1.9117
 5970TIP3   OH239400   3.832   0.874   0.022  0.1104  0.6969 -0.4349
 5970TIP3    H139401   3.885   0.819   0.080 -0.2836  0.1091 -0.6172
 5970TIP3    H239402   3.785   0.933   0.080 -0.2468  0.1425 -0.1578
 5971TIP3   OH239403   5.684   6.113  15.635  0.7096  0.6072 -0.4472
 5971TIP3    H139404   5.655   6.195  15.593 -0.3559  0.3541 -0.2527
 5971TIP3    H239405   5.655   6.045  15.575  0.5282  0.3201 -0.0390
 5972TIP3   OH239406   1.986   5.232   2.429 -0.5824  0.2655  0.1162
 5972TIP3    H139407   1.966   5.310   2.480 -0.7831  0.0297  0.3991
 5972TIP3    H239408   2.059   5.258   2.373  0.2611  0.2620  1.1858
 5973TIP3   OH239409   6.626   4.769  12.875 -0.1825  0.1405  0.2346
 5973TIP3    H139410   6.580   4.700  12.827 -0.9234 -1.5288  3.1433
 5973TIP3    H239411   6.718   4.745  12.870 -0.4052 -0.9573  0.9531
 5974TIP3   OH239412   1.801   1.602  16.244 -0.5244  0.0073  0.1390
 5974TIP3    H139413   1.773   1.522  16.199 -1.5174  1.0687 -1.2054
 5974TIP3    H239414   1.895   1.590  16.257  0.0737  0.0173 -3.1811
 5975TIP3   OH239415   0.614   5.436  16.944 -0.3467  0.6251  0.0506
 5975TIP3    H139416   0.701   5.396  16.947 -0.7759 -0.4138 -0.7831
 5975TIP3    H239417   0.630   5.528  16.967  0.8292  0.2588  0.8393
 5976TIP3   OH239418   3.300   1.474   5.492 -0.0475  0.0110 -0.3656
 5976TIP3    H139419   3.337   1.470   5.579 -0.0220 -1.8980 -0.4261
 5976TIP3    H239420   3.330   1.557   5.456  2.2956 -0.4356  0.4177
 5977TIP3   OH239421   4.333   2.087  14.214 -0.0466  1.0499 -0.7492
 5977TIP3    H139422   4.243   2.067  14.190 -0.0695  2.0983 -1.6071
 5977TIP3    H239423   4.353   2.169  14.168  1.5796  0.4688 -1.1783
 5978TIP3   OH239424   6.305   4.670  10.746 -0.3764  0.3282  0.3635
 5978TIP3    H139425   6.347   4.637  10.666  1.4991  0.4146  1.2512
 5978TIP3    H239426   6.366   4.647  10.816 -1.0566  1.9269  1.5510
 5979TIP3   OH239427   3.034   4.198  13.099 -0.2883 -0.0051  0.5497
 5979TIP3    H139428   3.044   4.252  13.178 -0.0127 -1.9727  1.9221
 5979TIP3    H239429   3.098   4.128  13.109 -0.0504 -0.1499 -1.5973
 5980TIP3   OH239430   2.918   1.642   0.310 -0.1637  0.1142 -0.4527
 5980TIP3    H139431   2.980   1.654   0.382 -0.7115 -0.8877  0.2076
 5980TIP3    H239432   2.973   1.633   0.232  0.4318  1.3989 -0.2057
 5981TIP3   OH239433   2.806   2.035  14.703 -0.0061 -0.4779 -0.7643
 5981TIP3    H139434   2.758   1.952  14.711 -0.5979 -0.2683 -1.9231
 5981TIP3    H239435   2.895   2.014  14.731  0.0062 -1.6548 -1.6245
 5982TIP3   OH239436   6.536   0.777   2.059  0.1030  0.5508 -0.1439
 5982TIP3    H139437   6.449   0.750   2.030 -0.0079  0.2149  0.4856
 5982TIP3    H239438   6.588   0.697   2.055  0.2824  0.6684 -0.1456
 5983TIP3   OH239439   0.547   2.609  16.591  0.0650 -0.0982 -0.1952
 5983TIP3    H139440   0.496   2.534  16.560  0.4475  0.5388 -2.6102
 5983TIP3    H239441   0.636   2.576  16.601  0.3284  0.0807 -1.7057
 5984TIP3   OH239442   4.580   5.845  11.473 -0.4275  0.1535  0.2725
 5984TIP3    H139443   4.629   5.894  11.539  0.0339 -0.2202  0.2113
 5984TIP3    H239444   4.515   5.796  11.523  1.9963 -2.7117  0.8821
 5985TIP3   OH239445   5.048   2.978   0.388  0.5592 -0.0921 -0.6102
 5985TIP3    H139446   5.048   2.883   0.373  0.1030 -0.0434 -0.9116
 5985TIP3    H239447   5.108   2.990   0.462  0.2198 -0.6706 -0.2298
 5986TIP3   OH239448   0.851   4.340   2.609  0.2509 -0.3071 -0.4690
 5986TIP3    H139449   0.823   4.368   2.696 -0.1603  0.0737 -0.7202
 5986TIP3    H239450   0.874   4.247   2.620  0.1889 -0.2654  0.0388
 5987TIP3   OH239451   5.551   5.604   2.830 -0.5231 -0.9111  0.5660
 5987TIP3    H139452   5.632   5.554   2.837  0.2798 -0.1187 -1.8853
 5987TIP3    H239453   5.502   5.560   2.760 -1.5525 -0.5189  1.0203
 5988TIP3   OH239454   5.332   1.925  11.840  0.0467 -0.2711 -0.0241
 5988TIP3    H139455   5.309   1.884  11.756 -2.7943  5.1717 -2.4104
 5988TIP3    H239456   5.427   1.932  11.838  0.1066 -0.8925 -2.5064
 5989TIP3   OH239457   6.695   0.206  11.380 -0.4801  0.3009  0.2591
 5989TIP3    H139458   6.611   0.248  11.394  0.1863  1.8864 -0.2577
 5989TIP3    H239459   6.705   0.202  11.285  0.3479  0.8720  0.3044
 5990TIP3   OH239460   6.108   3.620   6.042  0.0727  0.4285 -0.0058
 5990TIP3    H139461   6.030   3.610   6.096  1.1985 -0.9244  1.4686
 5990TIP3    H239462   6.076   3.612   5.952 -1.3477 -1.4756  0.5884
 5991TIP3   OH239463   6.547   1.898  17.193  0.0074  0.0589 -0.1348
 5991TIP3    H139464   6.624   1.898  17.249  0.6102  0.3740 -0.9502
 5991TIP3    H239465   6.562   1.969  17.130 -0.8374 -0.0229 -0.4476
 5992TIP3   OH239466   5.052   4.524  16.008 -0.6045  0.3410  0.3882
 5992TIP3    H139467   5.001   4.488  15.937  1.2666  1.5061 -1.6817
 5992TIP3    H239468   5.103   4.450  16.042  0.4795  0.2486 -1.3388
 5993TIP3   OH239469   0.359   5.574  16.579  0.2453 -0.1862 -0.6358
 5993TIP3    H139470   0.426   5.539  16.520  0.6262  0.9190 -0.8700
 5993TIP3    H239471   0.341   5.502  16.639 -0.1581 -1.3514 -2.0847
 5994TIP3   OH239472   5.166   0.828  14.044  0.3304 -0.1152 -0.0967
 5994TIP3    H139473   5.261   0.833  14.047  0.4417 -1.9378  1.4965
 5994TIP3    H239474   5.140   0.803  14.133 -1.6272  0.2086 -0.5190
 5995TIP3   OH239475   0.713   3.233   5.750 -0.2050 -0.3026  0.8254
 5995TIP3    H139476   0.807   3.251   5.748 -0.2128 -0.3226  0.0033
 5995TIP3    H239477   0.704   3.146   5.710 -0.5901 -0.2172  0.7174
 5996TIP3   OH239478   3.657   2.310   6.228 -0.2264  0.2089 -0.2840
 5996TIP3    H139479   3.657   2.215   6.219 -0.2684  0.0817  1.0128
 5996TIP3    H239480   3.566   2.336   6.214 -0.0176  0.2155 -1.9046
 5997TIP3   OH239481   5.191   4.201   2.324 -0.2576  0.1402 -0.5174
 5997TIP3    H139482   5.236   4.279   2.289 -0.1612  0.3005 -0.0425
 5997TIP3    H239483   5.109   4.197   2.276 -0.7243  1.1274  0.1636
 5998TIP3   OH239484   3.228   1.691  12.859  0.3624  0.3602  0.1585
 5998TIP3    H139485   3.199   1.761  12.800 -1.4192  0.3863  0.9975
 5998TIP3    H239486   3.173   1.616  12.836  0.4535  0.0292  0.9994
 5999TIP3   OH239487   0.381   4.007   6.513 -0.5086  0.6270 -0.2515
 5999TIP3    H139488   0.346   4.096   6.507  1.2572  1.6156  2.4414
 5999TIP3    H239489   0.475   4.017   6.496 -0.2233 -0.6663  0.4556
 6000TIP3   OH239490   1.941   6.088   4.367  0.1091 -0.2176  0.2598
 6000TIP3    H139491   1.896   6.064   4.286  0.5774 -2.1082  0.5084
 6000TIP3    H239492   1.876   6.072   4.436 -0.0696  0.7476  0.3264
 6001TIP3   OH239493   3.857   6.658  16.468  0.0853  0.2964  0.0552
 6001TIP3    H139494   3.783   6.700  16.425  2.2143  2.2793 -1.9334
 6001TIP3    H239495   3.903   6.730  16.511  1.9563 -0.4988 -0.5272
 6002TIP3   OH239496   2.785   1.840  17.064  0.3884 -0.5689  0.3964
 6002TIP3    H139497   2.737   1.776  17.117 -1.9319  0.6815 -0.0732
 6002TIP3    H239498   2.734   1.847  16.983  1.3287  0.9088 -0.1091
 6003TIP3   OH239499   5.723   3.271   1.028  0.2998 -0.1705 -0.0240
 6003TIP3    H139500   5.701   3.341   0.967  1.2191 -0.5238 -0.7833
 6003TIP3    H239501   5.795   3.224   0.986 -1.0864 -2.3418 -0.1496
 6004TIP3   OH239502   2.487   1.075  11.616 -0.7931  0.1905 -0.4974
 6004TIP3    H139503   2.468   1.059  11.709  0.6580  0.8279 -0.0738
 6004TIP3    H239504   2.499   0.988  11.579 -1.9032 -0.1000 -0.2183
 6005TIP3   OH239505   6.760   5.218  11.201  0.5148 -0.0915 -0.1870
 6005TIP3    H139506   6.733   5.299  11.157 -0.9678 -0.7606 -0.5962
 6005TIP3    H239507   6.832   5.244  11.258  0.9308  1.2532 -1.2838
 6006TIP3   OH239508   6.438   4.455   0.136 -0.0514  0.1218 -0.0791
 6006TIP3    H139509   6.481   4.506   0.205  0.3102  1.2889 -1.1282
 6006TIP3    H239510   6.480   4.484   0.055 -0.6187 -1.0586 -0.8196
 6007TIP3   OH239511   1.323   1.634  14.860  0.5861 -0.0477 -0.1706
 6007TIP3    H139512   1.261   1.705  14.839  1.1398  0.2351 -0.8618
 6007TIP3    H239513   1.282   1.589  14.935 -0.8812 -0.3918 -1.1235
 6008TIP3   OH239514   1.667   4.180  13.224  0.4135  0.5355 -0.0691
 6008TIP3    H139515   1.600   4.247  13.221  1.1941  1.3170 -2.2666
 6008TIP3    H239516   1.620   4.098  13.207 -0.3530  0.6530  1.3327
 6009TIP3   OH239517   3.399   6.295  15.659 -0.0815  0.6271  0.3847
 6009TIP3    H139518   3.325   6.352  15.637  0.2991  0.6563 -0.9396
 6009TIP3    H239519   3.440   6.277  15.575  0.3618 -0.8562  0.8872
 6010TIP3   OH239520   1.495   3.850   2.448 -0.0404  0.4411  0.0723
 6010TIP3    H139521   1.554   3.776   2.435  1.6028  1.5693  0.7422
 6010TIP3    H239522   1.464   3.873   2.361  1.3119  0.4246 -0.4331
 6011TIP3   OH239523   0.373   2.108  15.709 -0.3334  0.0299 -0.2157
 6011TIP3    H139524   0.414   2.191  15.687 -1.5168  1.0207  1.1135
 6011TIP3    H239525   0.296   2.132  15.760  0.6317 -1.9212  2.4077
 6012TIP3   OH239526   4.173   6.677  14.371  0.1779  0.0774  0.3467
 6012TIP3    H139527   4.268   6.667  14.379  0.1591  0.0817  0.5635
 6012TIP3    H239528   4.136   6.598  14.411  0.1206 -0.5421 -0.8693
 6013TIP3   OH239529   5.008   0.979  16.072 -0.0016 -0.0955  0.7782
 6013TIP3    H139530   5.071   0.934  16.128 -0.4446 -1.2209  0.3963
 6013TIP3    H239531   5.033   0.953  15.983 -0.7331 -0.2067  0.5978
 6014TIP3   OH239532   1.166   2.915  12.116 -0.2743 -0.3999  0.3305
 6014TIP3    H139533   1.199   2.879  12.198 -1.3820  0.6863  1.3037
 6014TIP3    H239534   1.244   2.944  12.069  0.5569 -2.9648 -0.0091
 6015TIP3   OH239535   3.414   2.535   0.743  0.1072 -0.6781  0.0778
 6015TIP3    H139536   3.360   2.604   0.782  1.2288 -0.2083  0.8407
 6015TIP3    H239537   3.405   2.461   0.802 -0.0922 -0.7698 -0.0656
 6016TIP3   OH239538   6.742   4.258  14.706 -0.1121 -0.0523 -0.2274
 6016TIP3    H139539   6.794   4.182  14.681 -0.7978 -0.0526 -1.7980
 6016TIP3    H239540   6.769   4.278  14.795  3.3562  0.5946 -1.2590
 6017TIP3   OH239541   6.703   2.397   6.986  0.1664  0.0553 -0.4219
 6017TIP3    H139542   6.617   2.355   6.985  0.7449 -1.1953 -0.2395
 6017TIP3    H239543   6.763   2.327   7.011  1.2234  0.9429 -0.4002
 6018TIP3   OH239544   3.425   1.827   6.373 -0.5109 -0.2867 -0.6606
 6018TIP3    H139545   3.439   1.922   6.376 -0.5472 -0.2313 -1.9778
 6018TIP3    H239546   3.486   1.793   6.439 -1.0297  0.6891  0.3769
 6019TIP3   OH239547   2.262   5.074  14.156  0.4358  0.1910 -0.1757
 6019TIP3    H139548   2.328   5.006  14.145  0.5237  0.0579  1.0306
 6019TIP3    H239549   2.225   5.058  14.243 -0.4156  0.9340 -0.3819
 6020TIP3   OH239550   1.736   2.508   2.439  0.0491  0.1578  0.1776
 6020TIP3    H139551   1.775   2.421   2.436 -0.3440 -0.0291  0.4089
 6020TIP3    H239552   1.684   2.508   2.519  2.3552  1.6048  1.7699
 6021TIP3   OH239553   0.287   0.217   3.705  0.1436  0.8967  0.0579
 6021TIP3    H139554   0.347   0.238   3.777 -1.0797  0.7888  1.1379
 6021TIP3    H239555   0.200   0.241   3.738 -0.3998  1.3397 -1.5850
 6022TIP3   OH239556   0.430   5.514  11.250  0.5513  0.2980 -0.3206
 6022TIP3    H139557   0.385   5.455  11.190 -1.3542  1.6104 -0.2994
 6022TIP3    H239558   0.484   5.569  11.193 -0.6927  1.0635 -0.8152
 6023TIP3   OH239559   5.842   5.289  16.409 -0.0498 -0.1396  0.9115
 6023TIP3    H139560   5.859   5.297  16.503 -0.3903 -2.4584  1.2413
 6023TIP3    H239561   5.770   5.350  16.392 -1.1917 -0.9330  2.5583
 6024TIP3   OH239562   6.520   0.712  11.749  0.2284 -0.4054 -0.4613
 6024TIP3    H139563   6.474   0.631  11.771  0.6001 -1.1676 -2.2816
 6024TIP3    H239564   6.452   0.770  11.713 -0.1548  0.3772  1.4189
 6025TIP3   OH239565   5.447   3.565  17.217  0.2026  0.5267  0.0995
 6025TIP3    H139566   5.357   3.571  17.185  0.2049  0.0273 -0.0022
 6025TIP3    H239567   5.458   3.645  17.269 -0.1627  0.7933 -0.2216
 6026TIP3   OH239568   0.846   3.551  12.925  0.0387 -0.2833  0.0631
 6026TIP3    H139569   0.812   3.512  12.844 -0.4249  0.8265 -0.3068
 6026TIP3    H239570   0.940   3.555  12.912 -0.0851  0.5038 -0.7367
 6027TIP3   OH239571   4.873   1.773   2.920 -0.5858  0.5118  0.2485
 6027TIP3    H139572   4.855   1.854   2.968 -0.4028 -0.5031  2.0957
 6027TIP3    H239573   4.919   1.717   2.983  0.3709 -0.5932 -1.3583
 6028TIP3   OH239574   1.073   2.779  12.849 -0.4480  0.1141 -0.1699
 6028TIP3    H139575   1.022   2.698  12.843 -0.6391  0.2206 -0.0033
 6028TIP3    H239576   1.076   2.798  12.943  0.5742 -0.3169 -0.0920
 6029TIP3   OH239577   1.696   2.460  15.875 -0.0796 -0.2769 -0.1840
 6029TIP3    H139578   1.767   2.500  15.924 -0.9367 -0.2980  1.1314
 6029TIP3    H239579   1.654   2.534  15.830  0.1496 -0.1191 -0.1424
 6030TIP3   OH239580   1.336   4.180   0.078  0.2028  0.1534  0.5159
 6030TIP3    H139581   1.410   4.122   0.092  0.7361  0.4021 -1.0265
 6030TIP3    H239582   1.361   4.262   0.122  1.6981  0.8453 -1.4725
 6031TIP3   OH239583   6.027   3.713  14.052  0.0984  0.2343  0.1778
 6031TIP3    H139584   5.949   3.758  14.020  0.5727 -0.2245 -1.6980
 6031TIP3    H239585   5.995   3.626  14.079  0.1912 -0.6740 -2.3864
 6032TIP3   OH239586   5.435   5.576  13.526 -0.5024 -0.4080 -0.3773
 6032TIP3    H139587   5.497   5.517  13.569  0.7198 -0.7467 -2.4372
 6032TIP3    H239588   5.369   5.595  13.592  1.0209 -1.2201  1.4495
 6033TIP3   OH239589   5.500   3.352  15.367  0.0229 -0.2259 -0.2415
 6033TIP3    H139590   5.592   3.326  15.359 -0.0502 -1.1311  1.4325
 6033TIP3    H239591   5.466   3.298  15.439 -2.2136 -0.9343 -1.7304
 6034TIP3   OH239592   2.160   5.838   2.730 -0.0347 -0.2697 -0.0636
 6034TIP3    H139593   2.071   5.843   2.695  0.4355 -0.0534 -1.2553
 6034TIP3    H239594   2.177   5.744   2.738 -0.0317 -0.3278 -0.7191
 6035TIP3   OH239595   6.768   4.653   0.518 -0.1798 -0.9483  0.3482
 6035TIP3    H139596   6.858   4.672   0.543 -0.3921 -0.0867  0.4942
 6035TIP3    H239597   6.721   4.646   0.601 -0.6217  0.5842  0.2638
 6036TIP3   OH239598   2.286   5.910  11.280 -0.1980  0.4868 -0.4664
 6036TIP3    H139599   2.194   5.904  11.255  0.1340 -1.7960 -1.3218
 6036TIP3    H239600   2.333   5.857  11.215  1.5493  0.3049  0.8647
 6037TIP3   OH239601   3.731   6.155   5.477 -0.3226  0.4732  0.0228
 6037TIP3    H139602   3.656   6.168   5.535 -0.3324  0.0838  0.1007
 6037TIP3    H239603   3.777   6.239   5.477 -0.5420  0.5932  0.2834
 6038TIP3   OH239604   1.946   2.594   1.585  0.0069 -0.4505 -0.0730
 6038TIP3    H139605   1.944   2.605   1.680 -2.3209  1.5547 -0.2611
 6038TIP3    H239606   1.972   2.502   1.572 -1.4049 -1.3198  2.5607
 6039TIP3   OH239607   0.486   6.707   5.773  0.0561  0.1388 -0.3998
 6039TIP3    H139608   0.494   6.722   5.867  1.2254  1.5031 -0.6754
 6039TIP3    H239609   0.454   6.617   5.766  0.0721 -0.0377  1.2908
 6040TIP3   OH239610   5.127   4.748   6.504  0.4239  0.0988 -0.2601
 6040TIP3    H139611   5.133   4.840   6.477 -1.4971  0.5211  0.5538
 6040TIP3    H239612   5.194   4.739   6.572  1.4489  0.5523 -1.1860
 6041TIP3   OH239613   1.228   2.940  13.637 -0.1922  0.7357 -0.0609
 6041TIP3    H139614   1.140   2.971  13.616  0.8034  2.0143 -2.7278
 6041TIP3    H239615   1.264   3.008  13.694 -0.6498  0.5420  0.4779
 6042TIP3   OH239616   3.910   0.680   3.573 -0.5488 -0.3307  0.0116
 6042TIP3    H139617   3.904   0.773   3.594  0.4677 -0.1964 -0.2173
 6042TIP3    H239618   3.891   0.675   3.480 -0.8312 -0.3806  0.0720
 6043TIP3   OH239619   5.375   5.737   3.567  0.2004 -0.2642  0.2321
 6043TIP3    H139620   5.435   5.687   3.510  0.4108  0.3333 -0.0846
 6043TIP3    H239621   5.407   5.721   3.655 -0.3326 -1.4758  0.2203
 6044TIP3   OH239622   1.134   6.594   4.287  0.4429 -0.3640  0.0271
 6044TIP3    H139623   1.193   6.669   4.285  1.3905 -1.1025 -0.2440
 6044TIP3    H239624   1.081   6.607   4.366  1.0964  0.2124  0.3745
 6045TIP3   OH239625   6.274   3.872   6.376 -0.2814  0.2057  0.5032
 6045TIP3    H139626   6.336   3.857   6.306  0.0213  0.9524  0.5988
 6045TIP3    H239627   6.271   3.968   6.386 -1.3583  0.1867  0.5731
 6046TIP3   OH239628   4.737   5.469   0.035  0.0721  0.6098  0.2248
 6046TIP3    H139629   4.805   5.525  -0.001  0.1596 -0.9453 -2.2212
 6046TIP3    H239630   4.678   5.451  -0.038 -1.0632 -0.8754  1.4279
 6047TIP3   OH239631   5.104   2.650   5.874 -0.1573  0.3679  0.4754
 6047TIP3    H139632   5.123   2.570   5.824  0.1403  1.3178 -1.0229
 6047TIP3    H239633   5.147   2.636   5.958 -0.7088 -1.3317  0.5135
 6048TIP3   OH239634   2.627   5.721  16.627  0.4919 -0.7022 -0.7734
 6048TIP3    H139635   2.553   5.673  16.590 -0.8074 -0.7188  1.6614
 6048TIP3    H239636   2.588   5.792  16.678  1.9970 -1.4671  1.6533
 6049TIP3   OH239637   2.192   1.611   4.771  0.2959 -0.1952  0.4427
 6049TIP3    H139638   2.190   1.622   4.676  0.4520 -0.5182  0.3987
 6049TIP3    H239639   2.202   1.699   4.806 -2.1018  0.2037  0.2593
 6050TIP3   OH239640   3.438   0.043   5.909  0.0007  0.3426 -0.2622
 6050TIP3    H139641   3.385   0.010   5.836  2.3357 -0.7368 -1.5821
 6050TIP3    H239642   3.470   0.128   5.879 -1.0809  1.0796  0.6085
 6051TIP3   OH239643   0.215   2.414   0.333 -0.5784 -0.0528  0.0126
 6051TIP3    H139644   0.136   2.462   0.355  0.0740  1.6219 -1.0691
 6051TIP3    H239645   0.263   2.473   0.274  0.0709 -2.2353 -1.7661
 6052TIP3   OH239646   2.393   6.383   6.175 -0.1982 -0.3219 -0.5027
 6052TIP3    H139647   2.361   6.334   6.251 -0.1648 -0.3154 -0.4839
 6052TIP3    H239648   2.454   6.323   6.132  1.1446  0.2888  0.4690
 6053TIP3   OH239649   5.821   2.781  12.030 -0.4930  0.3620  0.1231
 6053TIP3    H139650   5.842   2.873  12.019  0.5866  0.1818  0.5035
 6053TIP3    H239651   5.747   2.765  11.971  2.0515  0.4765 -3.4018
 6054TIP3   OH239652   6.756   2.723   1.620 -0.4029 -0.5832  0.3313
 6054TIP3    H139653   6.775   2.641   1.575 -1.0908 -0.4206 -0.2799
 6054TIP3    H239654   6.836   2.743   1.668 -0.2895 -1.7026  0.6435
 6055TIP3   OH239655   3.097   2.666  15.511 -0.3988  0.3862  0.0056
 6055TIP3    H139656   3.153   2.665  15.588 -0.4515  0.7733  0.0502
 6055TIP3    H239657   3.115   2.583  15.466 -1.7088 -0.7116  1.3913
 6056TIP3   OH239658   1.885   0.356   2.562 -0.1500  0.0268  0.3330
 6056TIP3    H139659   1.850   0.442   2.584  0.2558  0.0736  0.7996
 6056TIP3    H239660   1.976   0.359   2.589  0.2036 -0.1226 -0.8118
 6057TIP3   OH239661   6.750   5.037   0.472  0.1368 -0.4010 -0.2757
 6057TIP3    H139662   6.702   4.968   0.517 -0.7509  0.6786  0.5003
 6057TIP3    H239663   6.832   5.046   0.521  0.3312 -0.9995 -0.4832
 6058TIP3   OH239664   5.888   0.638   2.219  0.1298 -0.0458  0.1356
 6058TIP3    H139665   5.822   0.638   2.149  0.0383 -0.0494  0.2224
 6058TIP3    H239666   5.952   0.703   2.191  0.3375 -0.3829 -0.1845
 6059TIP3   OH239667   3.132   6.090   0.930  0.0473  0.4933  0.0031
 6059TIP3    H139668   3.219   6.050   0.937 -0.4126 -0.4519  0.6686
 6059TIP3    H239669   3.115   6.127   1.017 -1.4539 -2.1010  0.9518
 6060TIP3   OH239670   5.444   2.050  10.870 -0.2502 -0.9406  0.1611
 6060TIP3    H139671   5.384   2.106  10.821  0.6607 -0.4319 -0.3999
 6060TIP3    H239672   5.474   1.985  10.806  0.4447 -0.6736  0.2052
 6061TIP3   OH239673   0.458   4.007   2.400  0.7303 -0.0845  0.4168
 6061TIP3    H139674   0.523   4.001   2.331  0.4353 -1.2240  0.2178
 6061TIP3    H239675   0.475   4.092   2.442 -0.4071  1.6159 -2.3378
 6062TIP3   OH239676   4.391   1.172  15.769 -0.4763  0.3629  0.5081
 6062TIP3    H139677   4.468   1.229  15.767  0.1220 -0.4211 -1.0730
 6062TIP3    H239678   4.417   1.095  15.719 -2.2280 -0.0160  0.0971
 6063TIP3   OH239679   6.308   0.865   4.212 -0.0606 -0.6016  0.0824
 6063TIP3    H139680   6.275   0.819   4.289 -0.9721 -0.4066 -0.1792
 6063TIP3    H239681   6.342   0.948   4.245 -1.5904  0.0359  0.1514
 6064TIP3   OH239682   6.363   1.401   3.842  0.1498  0.2542  0.6279
 6064TIP3    H139683   6.422   1.413   3.768  0.3664 -0.7850  0.6158
 6064TIP3    H239684   6.282   1.446   3.817 -0.2583 -1.2127 -0.8391
 6065TIP3   OH239685   2.333   2.506   5.605  0.1153 -0.0979  0.1713
 6065TIP3    H139686   2.382   2.561   5.667 -0.8286  0.1376  0.7433
 6065TIP3    H239687   2.365   2.531   5.519  0.3428  0.7104  0.4843
 6066TIP3   OH239688   3.246   0.526  12.194 -0.0628  0.0157 -0.0289
 6066TIP3    H139689   3.288   0.472  12.128 -1.7809 -1.6875  0.1905
 6066TIP3    H239690   3.291   0.503  12.276 -0.1332 -0.3486 -0.0919
 6067TIP3   OH239691   4.007   3.083  11.973  0.0399  0.3240 -0.1973
 6067TIP3    H139692   4.024   3.009  11.915  0.8199 -0.4884  1.0292
 6067TIP3    H239693   4.065   3.153  11.942  0.3964 -0.0795 -0.4378
 6068TIP3   OH239694   1.402   0.545  17.337 -0.2245 -0.2059  0.2708
 6068TIP3    H139695   1.446   0.627  17.315  0.1918  0.5341  3.4012
 6068TIP3    H239696   1.472   0.480  17.344 -0.2988 -0.3175  0.0258
 6069TIP3   OH239697   0.286   1.943  14.473 -0.0484 -0.4450 -0.2552
 6069TIP3    H139698   0.361   1.988  14.510  0.7031 -2.2802  0.5366
 6069TIP3    H239699   0.247   2.007  14.413  0.1373  1.7416  1.8188
 6070TIP3   OH239700   1.556   5.215   4.845 -0.7401 -0.0611  0.2994
 6070TIP3    H139701   1.578   5.158   4.918 -1.0246 -1.4793 -0.6775
 6070TIP3    H239702   1.625   5.281   4.844  0.2838 -1.1002  0.7174
 6071TIP3   OH239703   2.259   5.575  13.508  0.0711  0.1411 -0.5071
 6071TIP3    H139704   2.175   5.529  13.518  0.0436  0.3063  0.0515
 6071TIP3    H239705   2.323   5.514  13.545  0.0165  0.5923  0.3773
 6072TIP3   OH239706   3.555   4.752  12.999  0.2444 -0.6566 -0.3015
 6072TIP3    H139707   3.516   4.802  12.928  0.0555 -0.6341 -0.1824
 6072TIP3    H239708   3.527   4.662  12.983 -0.0275 -0.6081 -0.0995
 6073TIP3   OH239709   0.455   4.784   3.573  0.1286 -0.6739 -0.5160
 6073TIP3    H139710   0.406   4.771   3.492 -2.3041  1.7964  0.4223
 6073TIP3    H239711   0.406   4.734   3.639  0.7662 -0.7851 -0.1105
 6074TIP3   OH239712   1.326   2.768   3.788  0.2317 -0.8125 -0.1003
 6074TIP3    H139713   1.354   2.796   3.701 -0.3691  0.0043 -0.0418
 6074TIP3    H239714   1.251   2.711   3.772  1.0856 -1.9484 -0.1866
 6075TIP3   OH239715   2.479   1.211  14.661  0.0307 -0.3099 -0.5441
 6075TIP3    H139716   2.386   1.198  14.680  0.3390 -2.3147 -0.1589
 6075TIP3    H239717   2.495   1.302  14.683 -1.8253  0.0725 -0.5704
 6076TIP3   OH239718   3.403   5.067   5.632  0.1520 -0.0478 -0.4898
 6076TIP3    H139719   3.399   5.087   5.726  0.4706 -0.6491 -0.3404
 6076TIP3    H239720   3.416   5.152   5.590  1.1001  0.1114  0.0962
 6077TIP3   OH239721   0.289   2.391   1.791  0.3043 -0.3755  0.0803
 6077TIP3    H139722   0.208   2.429   1.824  0.1894  0.2475 -0.8587
 6077TIP3    H239723   0.291   2.303   1.826  0.3987  0.3562  2.0334
 6078TIP3   OH239724   6.222   5.552  16.003  0.6581 -0.8489 -0.2362
 6078TIP3    H139725   6.228   5.491  15.930  0.6671 -0.7097 -0.3544
 6078TIP3    H239726   6.205   5.637  15.961 -0.9414 -1.0135 -0.0033
 6079TIP3   OH239727   0.544   0.761   4.791  0.3378  0.2250  0.7021
 6079TIP3    H139728   0.449   0.766   4.794  0.3447  0.5074  0.4913
 6079TIP3    H239729   0.572   0.772   4.882  0.0788 -2.0889  1.1227
 6080TIP3   OH239730   0.957   5.538  13.987  0.8873  0.1907  0.2184
 6080TIP3    H139731   1.040   5.529  14.033  0.2203 -0.9493  1.2621
 6080TIP3    H239732   0.891   5.522  14.054 -0.2039  1.3844 -0.5231
 6081TIP3   OH239733   0.942   6.517   0.104 -0.7530 -0.0360  0.7157
 6081TIP3    H139734   0.937   6.591   0.165 -0.1402  0.0734  0.6364
 6081TIP3    H239735   0.899   6.549   0.024 -0.9017  0.0756  0.8406
 6082TIP3   OH239736   1.678   4.211  17.372  0.5710 -0.3764  0.2958
 6082TIP3    H139737   1.632   4.265  17.308 -0.4990 -1.1032  0.4260
 6082TIP3    H239738   1.662   4.254  17.456 -0.7614 -1.1653  0.4754
 6083TIP3   OH239739   4.653   6.751   1.331  0.4595 -0.0001 -0.9007
 6083TIP3    H139740   4.733   6.801   1.346  0.2853  0.2382 -0.7641
 6083TIP3    H239741   4.585   6.817   1.317  0.2132 -0.1911 -0.6320
 6084TIP3   OH239742   3.093   1.760   2.161 -0.1982 -0.0325 -0.1273
 6084TIP3    H139743   3.050   1.804   2.235  0.5872  0.4035  0.0834
 6084TIP3    H239744   3.185   1.785   2.169  0.0201 -0.5886 -0.8281
 6085TIP3   OH239745   2.699   1.657   4.469  0.2122  0.2729 -0.0416
 6085TIP3    H139746   2.785   1.700   4.471  0.1967  0.4499 -1.6338
 6085TIP3    H239747   2.708   1.590   4.401 -0.2742 -1.1697  1.2701
 6086TIP3   OH239748   4.622   4.732   2.036 -0.1428 -0.0755  0.0926
 6086TIP3    H139749   4.681   4.807   2.030 -1.3020  1.0035  1.4628
 6086TIP3    H239750   4.536   4.769   2.017 -0.4816 -1.5055 -1.3181
 6087TIP3   OH239751   2.006   1.465  16.884  0.5662 -0.9639 -0.4297
 6087TIP3    H139752   2.077   1.400  16.885 -1.8621 -3.8803  1.8115
 6087TIP3    H239753   1.956   1.444  16.805 -0.0420 -1.7210  0.1332
 6088TIP3   OH239754   5.454   1.564   0.317 -0.4054  0.1112 -0.3461
 6088TIP3    H139755   5.492   1.477   0.310  0.8176  0.6855 -1.1039
 6088TIP3    H239756   5.371   1.557   0.271  0.3363 -0.2991 -1.6746
 6089TIP3   OH239757   2.475   3.613  15.854 -0.0346  0.2220  0.5324
 6089TIP3    H139758   2.481   3.664  15.773 -1.7792 -2.0990 -1.1975
 6089TIP3    H239759   2.493   3.523  15.828  2.8820 -0.2337  3.4574
 6090TIP3   OH239760   6.076   1.695   2.579  0.2733  0.0561  0.3511
 6090TIP3    H139761   6.041   1.608   2.597  1.4220 -0.3911  0.5514
 6090TIP3    H239762   6.131   1.715   2.655  0.9229  0.4580 -0.2157
 6091TIP3   OH239763   5.009   6.628   3.972  0.1493  0.5715  0.2284
 6091TIP3    H139764   5.090   6.608   4.018 -0.5569 -1.0889  0.8297
 6091TIP3    H239765   5.001   6.723   3.978  0.7480  0.5495  2.4686
 6092TIP3   OH239766   3.262   4.987  14.437  0.3565  0.2559  0.0787
 6092TIP3    H139767   3.338   4.978  14.380 -1.7823  0.0606 -2.9794
 6092TIP3    H239768   3.228   4.898  14.446 -0.5129  0.5626 -0.1053
 6093TIP3   OH239769   2.678   0.872  11.849  0.0865  0.3562 -0.0509
 6093TIP3    H139770   2.693   0.915  11.933 -0.0953  3.2389 -1.3522
 6093TIP3    H239771   2.723   0.928  11.785 -0.3889 -1.3097 -1.9610
 6094TIP3   OH239772   5.314   2.845   3.716  0.0564 -0.3326 -0.1323
 6094TIP3    H139773   5.256   2.836   3.791  2.0085 -4.1581  1.1937
 6094TIP3    H239774   5.283   2.780   3.653  0.7216  0.1386 -0.9657
 6095TIP3   OH239775   5.131   4.733  13.890  0.8647 -0.1284 -0.0866
 6095TIP3    H139776   5.157   4.754  13.800  0.7613  0.6622  0.0597
 6095TIP3    H239777   5.173   4.801  13.943  0.3392 -0.1733  0.3883
 6096TIP3   OH239778   1.819   0.309  14.236  0.5884  0.5776  0.0214
 6096TIP3    H139779   1.857   0.227  14.204 -1.1579 -0.7708  1.2092
 6096TIP3    H239780   1.868   0.377  14.190  1.6888 -1.1224 -1.4900
 6097TIP3   OH239781   0.444   5.178   1.170 -0.1302 -0.6030  0.3291
 6097TIP3    H139782   0.474   5.116   1.236  1.6679  0.2421  0.3770
 6097TIP3    H239783   0.445   5.128   1.088  0.0496 -0.9874  0.5636
 6098TIP3   OH239784   4.008   0.740   4.017  0.2974 -0.0077  0.2676
 6098TIP3    H139785   4.050   0.723   4.102 -0.0821  1.7104  0.8420
 6098TIP3    H239786   4.073   0.712   3.953  1.3850  0.4238  1.1413
 6099TIP3   OH239787   3.250   5.961  11.861 -0.4994  0.0069 -0.2083
 6099TIP3    H139788   3.237   6.030  11.796  1.1983  0.6122  0.0495
 6099TIP3    H239789   3.287   6.006  11.936 -0.7795 -0.9717  0.5338
 6100TIP3   OH239790   5.969   5.523   4.960  0.4478  0.0680 -0.1353
 6100TIP3    H139791   5.923   5.481   4.887  0.9941 -0.2744 -0.2846
 6100TIP3    H239792   5.951   5.616   4.949  0.7672  0.0507 -0.8811
 6101TIP3   OH239793   2.513   6.186   0.046 -0.7917  0.1785 -0.1827
 6101TIP3    H139794   2.586   6.142   0.004 -0.5136  0.1520  0.3238
 6101TIP3    H239795   2.549   6.221   0.128 -1.3278  0.2108  0.0450
 6102TIP3   OH239796   4.501   2.419  11.721 -0.3061  0.4446  0.1350
 6102TIP3    H139797   4.468   2.335  11.754  0.2427 -0.1366 -0.7552
 6102TIP3    H239798   4.591   2.401  11.694  1.0770  2.1554  3.1243
 6103TIP3   OH239799   4.969   3.551   4.044 -0.5829  0.8732 -0.8163
 6103TIP3    H139800   5.022   3.504   3.979 -1.8043  1.3853 -2.2525
 6103TIP3    H239801   4.879   3.527   4.023 -1.1009  2.1783 -0.2216
 6104TIP3   OH239802   2.075   1.782   0.132  0.2050  0.0758 -0.9048
 6104TIP3    H139803   2.107   1.793   0.221 -0.7113  3.5323 -0.8401
 6104TIP3    H239804   2.044   1.692   0.128  1.3656 -0.5391  1.8689
 6105TIP3   OH239805   1.107   1.896  14.515  0.3756  0.3091  0.1694
 6105TIP3    H139806   1.087   1.812  14.558 -1.7109  0.7664  0.1944
 6105TIP3    H239807   1.118   1.958  14.587 -0.4136  0.5288  0.1001
 6106TIP3   OH239808   6.169   4.553   0.957  0.4000 -0.0578 -0.0285
 6106TIP3    H139809   6.113   4.494   0.907  0.8449 -0.0883 -0.4956
 6106TIP3    H239810   6.165   4.636   0.910  1.3317 -0.2648 -0.5002
 6107TIP3   OH239811   2.991   2.906   2.847  0.1369 -0.3761 -0.3771
 6107TIP3    H139812   3.025   2.870   2.765  1.8021  1.8196 -0.7441
 6107TIP3    H239813   3.069   2.919   2.902 -0.7383 -0.0705  0.8373
 6108TIP3   OH239814   4.557   1.052  14.492  0.1953 -0.2577 -0.0677
 6108TIP3    H139815   4.553   1.147  14.496  1.6105 -0.1821 -0.1476
 6108TIP3    H239816   4.545   1.024  14.583 -0.8287 -0.0506 -0.1239
 6109TIP3   OH239817   3.389   4.250   4.090 -0.6073  0.1608  0.3608
 6109TIP3    H139818   3.427   4.328   4.131 -1.4311  1.0404 -0.4962
 6109TIP3    H239819   3.307   4.236   4.138 -0.0342 -0.7463  1.1148
 6110TIP3   OH239820   1.142   5.828   5.333 -0.1431  0.1301 -0.1716
 6110TIP3    H139821   1.129   5.737   5.359  0.5615  0.4136  1.3118
 6110TIP3    H239822   1.054   5.860   5.312 -0.7671 -0.2236  1.7031
 6111TIP3   OH239823   0.062   6.666  11.975 -0.1378  0.5036 -0.2427
 6111TIP3    H139824   0.019   6.731  12.031 -0.4436 -0.4178  0.6124
 6111TIP3    H239825  -0.009   6.628  11.924 -0.3582 -0.9630  1.1119
 6112TIP3   OH239826   5.110   5.270   5.824 -0.4172  0.1719  0.6305
 6112TIP3    H139827   5.115   5.280   5.728 -0.8344  1.1319  0.6923
 6112TIP3    H239828   5.024   5.307   5.847  0.4085  1.6142  1.5577
 6113TIP3   OH239829   1.505   2.648  11.916  0.0414 -0.6224 -0.6456
 6113TIP3    H139830   1.597   2.628  11.935 -0.0293 -0.4505 -0.1371
 6113TIP3    H239831   1.487   2.728  11.964 -0.4279 -0.7532 -0.6041
 6114TIP3   OH239832   3.685   1.952  12.809 -0.1149 -0.2863 -0.8762
 6114TIP3    H139833   3.769   1.940  12.853 -0.6909 -1.5496 -0.0811
 6114TIP3    H239834   3.628   1.989  12.876 -1.1161 -2.6203 -0.3403
 6115TIP3   OH239835   0.434   1.786   3.389 -0.1586  0.1154  0.3087
 6115TIP3    H139836   0.493   1.790   3.465 -1.0102  0.4738  0.9697
 6115TIP3    H239837   0.492   1.773   3.314  0.5729 -2.6601  1.2225
 6116TIP3   OH239838   2.347   2.815  11.463  0.1442  0.0898  0.0741
 6116TIP3    H139839   2.285   2.834  11.393  1.6587  0.7247 -1.1378
 6116TIP3    H239840   2.331   2.884  11.528 -0.3788  0.2566 -0.2243
 6117TIP3   OH239841   6.705   3.775   4.437 -0.0020  0.3351 -0.4085
 6117TIP3    H139842   6.694   3.853   4.383  0.7909  1.2537  0.7095
 6117TIP3    H239843   6.646   3.711   4.398 -0.6292  1.4674 -1.4011
 6118TIP3   OH239844   0.598   4.483   5.232 -0.5042  0.5168 -0.4731
 6118TIP3    H139845   0.556   4.521   5.309  0.3259 -1.7231  1.1913
 6118TIP3    H239846   0.530   4.430   5.191 -0.4625  0.3041 -0.2665
 6119TIP3   OH239847   0.886   1.755   3.107 -0.2261 -0.2832 -0.0973
 6119TIP3    H139848   0.964   1.803   3.079  0.4868 -1.6314 -0.4912
 6119TIP3    H239849   0.875   1.777   3.199  0.1612  0.5133 -0.2356
 6120TIP3   OH239850   1.246   4.008  15.119  0.2875 -0.4218  0.5750
 6120TIP3    H139851   1.290   3.969  15.043 -0.1785 -1.8602  1.0101
 6120TIP3    H239852   1.166   3.957  15.129 -0.3544  0.6760  1.1883
 6121TIP3   OH239853   3.908   2.226  14.990 -0.8255  0.6555  0.2382
 6121TIP3    H139854   3.903   2.170  15.068 -2.8360 -0.6634 -0.7364
 6121TIP3    H239855   3.948   2.307  15.021  1.7967 -1.0760  1.8454
 6122TIP3   OH239856   1.723   5.946  15.527  0.1990  0.2012  0.0143
 6122TIP3    H139857   1.817   5.956  15.512  0.5859 -1.0990  1.3195
 6122TIP3    H239858   1.683   5.965  15.443  1.7737 -1.0684 -1.0722
 6123TIP3   OH239859   4.463   0.516   5.785  0.8246  0.6723 -0.0631
 6123TIP3    H139860   4.444   0.592   5.840  0.8347  1.1543 -0.7066
 6123TIP3    H239861   4.377   0.484   5.758  0.6434 -1.2994  2.4546
 6124TIP3   OH239862   1.808   1.450  16.633 -0.2820  0.4226  0.6490
 6124TIP3    H139863   1.736   1.495  16.589 -0.3495 -0.5553 -0.3078
 6124TIP3    H239864   1.873   1.436  16.564  1.0215  1.6292  1.5805
 6125TIP3   OH239865   1.156   5.987  11.150 -0.0106  0.2905 -0.0833
 6125TIP3    H139866   1.097   5.936  11.206  0.3145 -0.8933 -0.7764
 6125TIP3    H239867   1.098   6.022  11.081 -0.5160  2.2449  1.2526
 6126TIP3   OH239868   2.114   6.678  14.227 -0.3764 -0.0362  0.1630
 6126TIP3    H139869   2.177   6.608  14.210  0.9333  0.5023  2.3867
 6126TIP3    H239870   2.077   6.656  14.313 -0.2012  1.7851  0.7428
 6127TIP3   OH239871   1.285   5.557  16.580  0.0378  0.3613 -0.7388
 6127TIP3    H139872   1.265   5.618  16.651 -0.4685  1.6388 -1.9189
 6127TIP3    H239873   1.201   5.543  16.536  0.2873 -0.6389 -0.9196
 6128TIP3   OH239874   0.050   0.841  12.501  0.1632 -0.9749 -0.1206
 6128TIP3    H139875  -0.036   0.809  12.474 -0.2192 -1.5233  1.6394
 6128TIP3    H239876   0.091   0.869  12.420 -2.3657  1.0154 -0.8465
 6129TIP3   OH239877   2.578   2.669   6.595 -0.0411 -0.3798  0.2886
 6129TIP3    H139878   2.636   2.745   6.589 -0.3915 -0.1537 -0.2915
 6129TIP3    H239879   2.533   2.681   6.679  1.7698 -1.3171  1.4659
 6130TIP3   OH239880   4.549   1.200   1.055  0.2625 -0.1718  0.0076
 6130TIP3    H139881   4.536   1.289   1.088  1.0312  0.1260 -0.4596
 6130TIP3    H239882   4.554   1.210   0.960 -0.9373 -0.8900 -0.1467
 6131TIP3   OH239883   3.323   5.846   2.887 -0.1868  0.1723 -0.3538
 6131TIP3    H139884   3.245   5.808   2.847 -0.0912 -1.5126  0.9709
 6131TIP3    H239885   3.299   5.938   2.903 -0.8945  0.3920 -2.4244
 6132TIP3   OH239886   1.395   2.884  13.374  0.0349  0.7067 -0.3393
 6132TIP3    H139887   1.413   2.971  13.339  0.6018  0.8061  0.1921
 6132TIP3    H239888   1.346   2.900  13.454  1.9192  0.6452  0.8820
 6133TIP3   OH239889   1.199   0.183   6.036  0.2350 -0.7395  0.1063
 6133TIP3    H139890   1.270   0.202   5.974  0.8527  1.3556  1.3791
 6133TIP3    H239891   1.123   0.228   6.000  0.8957  1.5837  1.4003
 6134TIP3   OH239892   2.401   6.372  13.507  0.8038  0.6373 -0.0486
 6134TIP3    H139893   2.320   6.323  13.492 -0.0494  1.6745  0.9475
 6134TIP3    H239894   2.464   6.306  13.535  0.4785 -0.2665 -1.3442
 6135TIP3   OH239895   1.209   6.304  16.177 -0.1512 -0.2063 -0.3224
 6135TIP3    H139896   1.126   6.267  16.207 -0.4618  0.8483  0.1655
 6135TIP3    H239897   1.253   6.332  16.258  0.0517  0.5190 -0.6840
 6136TIP3   OH239898   2.002   3.925   2.377 -0.6589  0.0819 -0.0307
 6136TIP3    H139899   2.026   4.004   2.427  0.5579  0.1127 -0.6255
 6136TIP3    H239900   1.917   3.946   2.338 -0.5786  0.9142  0.2199
 6137TIP3   OH239901   2.880   0.297  15.032 -0.0037 -0.7427  0.2047
 6137TIP3    H139902   2.918   0.311  14.946  0.3053 -0.7626  0.3336
 6137TIP3    H239903   2.891   0.381  15.077 -0.3697 -0.6626  0.1491
 6138TIP3   OH239904   0.184   6.275  15.417 -0.2030  0.2187 -0.2435
 6138TIP3    H139905   0.252   6.277  15.349 -0.3640 -0.1598 -0.4154
 6138TIP3    H239906   0.225   6.318  15.492  0.4872 -0.6371 -0.1121
 6139TIP3   OH239907   1.993   1.360  14.658  0.4084 -0.1854  0.2203
 6139TIP3    H139908   1.923   1.321  14.710  1.8528 -1.6087  1.2037
 6139TIP3    H239909   1.997   1.451  14.688 -0.9428 -0.0876  0.1845
 6140TIP3   OH239910   6.683   1.974  12.321  0.0487  0.2177 -0.4959
 6140TIP3    H139911   6.685   2.018  12.405 -3.0351 -0.3895  0.0102
 6140TIP3    H239912   6.684   1.881  12.342  2.1321 -0.0356 -1.3594
 6141TIP3   OH239913   4.347   6.570  15.748 -0.6053  0.1401 -0.3611
 6141TIP3    H139914   4.315   6.549  15.835  0.1027  0.0968 -0.1076
 6141TIP3    H239915   4.296   6.647  15.722  0.4271  1.2960  0.8473
 6142TIP3   OH239916   5.747   0.583  12.818 -0.1055 -0.5278  0.0436
 6142TIP3    H139917   5.720   0.496  12.849 -1.7649 -0.1005 -0.1136
 6142TIP3    H239918   5.673   0.613  12.765 -0.0903  1.5050  1.0867
 6143TIP3   OH239919   2.159   5.137   0.070  1.0296 -0.1551 -0.0349
 6143TIP3    H139920   2.166   5.115   0.163  0.6647  0.1833  0.0770
 6143TIP3    H239921   2.231   5.199   0.055 -0.6023  2.0648  0.7293
 6144TIP3   OH239922   4.568   5.959  10.728 -0.1782  0.0399 -0.8746
 6144TIP3    H139923   4.614   5.943  10.646  0.0119 -1.1675 -0.5496
 6144TIP3    H239924   4.636   5.987  10.789  0.0494 -1.1717 -0.5544
 6145TIP3   OH239925   0.928   2.119  16.872 -0.0367 -0.2020  0.4554
 6145TIP3    H139926   0.924   2.025  16.892  2.5539 -0.6478 -0.8027
 6145TIP3    H239927   0.931   2.161  16.958 -2.7607 -1.0781  1.0935
 6146TIP3   OH239928   0.643   4.845  11.561 -0.3150 -0.1219 -0.0219
 6146TIP3    H139929   0.559   4.856  11.518 -0.3748 -1.0183 -0.1503
 6146TIP3    H239930   0.637   4.898  11.641 -0.6182  0.6331 -0.5350
 6147TIP3   OH239931   6.210   3.793   5.140 -0.0452  0.6308  0.1991
 6147TIP3    H139932   6.294   3.773   5.099  0.0665  1.8432 -0.2097
 6147TIP3    H239933   6.154   3.822   5.068 -0.0791  2.0498  0.7639
 6148TIP3   OH239934   4.581   0.323   5.949 -0.0790  0.2245 -0.8061
 6148TIP3    H139935   4.537   0.402   5.918  2.2081  2.5423  1.2785
 6148TIP3    H239936   4.626   0.288   5.872 -0.5288  1.4228 -1.6376
 6149TIP3   OH239937   6.040   2.810   5.215 -0.3679  0.0990 -0.2170
 6149TIP3    H139938   5.987   2.770   5.146 -1.1939  1.0482 -0.1649
 6149TIP3    H239939   5.979   2.867   5.261  0.3745  0.1061  0.7795
 6150TIP3   OH239940   2.078   1.798  15.334 -0.2759 -0.1130 -0.2303
 6150TIP3    H139941   1.995   1.807  15.381  0.6067 -1.1458  1.6533
 6150TIP3    H239942   2.085   1.705  15.315  0.9783 -0.2524  0.7392
 6151TIP3   OH239943   1.218   3.541  16.443  0.1185  0.4098 -0.8382
 6151TIP3    H139944   1.258   3.500  16.520 -0.7156 -0.2044 -0.7230
 6151TIP3    H239945   1.264   3.503  16.368  0.9829  1.0599 -0.6701
 6152TIP3   OH239946   5.315   0.138   1.841  0.3935  0.8156 -0.8014
 6152TIP3    H139947   5.253   0.200   1.803  0.0666  1.6180  0.9698
 6152TIP3    H239948   5.260   0.074   1.886  0.8188  1.1859  0.2626
 6153TIP3   OH239949   0.802   1.017  17.240  0.1398 -0.5149  0.1417
 6153TIP3    H139950   0.760   0.964  17.309  0.3427  0.9853  1.4639
 6153TIP3    H239951   0.735   1.025  17.173 -1.4671  1.0926  1.8241
 6154TIP3   OH239952   4.930   6.207   6.764  0.3734 -0.0105  0.1705
 6154TIP3    H139953   4.936   6.237   6.673  0.5990  0.1613  0.2397
 6154TIP3    H239954   4.899   6.284   6.813 -1.1786 -0.5097  0.0249
 6155TIP3   OH239955   0.093   1.213   3.073 -0.1045  0.3867 -0.6690
 6155TIP3    H139956   0.156   1.265   3.023 -1.2745  1.7859 -0.7423
 6155TIP3    H239957   0.008   1.238   3.038 -0.7363 -1.5229 -0.6223
 6156TIP3   OH239958   3.703   3.510  11.259  0.2787  0.2692 -0.2307
 6156TIP3    H139959   3.754   3.482  11.335 -0.9882 -0.6098  0.3249
 6156TIP3    H239960   3.645   3.578  11.292  1.6822  1.9608 -1.0671
 6157TIP3   OH239961   2.669   5.114  16.561  0.2790 -0.5502  0.0026
 6157TIP3    H139962   2.716   5.128  16.643 -0.4932 -0.9613  0.5340
 6157TIP3    H239963   2.661   5.201  16.522  0.3721 -0.3055  0.5212
 6158TIP3   OH239964   4.274   2.199  14.648 -0.0367 -0.2888 -0.0845
 6158TIP3    H139965   4.328   2.159  14.715  1.1336  0.9068 -0.2855
 6158TIP3    H239966   4.331   2.208  14.572 -0.5154  0.9374 -0.3266
 6159TIP3   OH239967   0.558   3.397  16.671 -0.0204 -0.8275 -0.0347
 6159TIP3    H139968   0.552   3.319  16.616 -1.0834 -0.1601 -0.8939
 6159TIP3    H239969   0.642   3.437  16.648  0.0533 -1.1619 -0.3396
 6160TIP3   OH239970   5.016   6.728  15.446 -0.1102  0.8163  0.2444
 6160TIP3    H139971   5.023   6.709  15.540 -0.2333  1.0099  0.2928
 6160TIP3    H239972   5.084   6.673  15.406 -0.5728  0.1500  0.3614
 6161TIP3   OH239973   3.048   0.486   3.921  0.4677 -0.8627  0.0855
 6161TIP3    H139974   2.996   0.461   3.844  1.8422 -2.3623 -0.4169
 6161TIP3    H239975   3.062   0.580   3.910 -1.0271 -0.6676 -0.4305
 6162TIP3   OH239976   1.522   5.289  16.379  0.1117  0.3918 -0.2093
 6162TIP3    H139977   1.492   5.290  16.289  0.4811 -0.9864 -0.3572
 6162TIP3    H239978   1.610   5.326  16.376  0.5462 -0.6428 -0.5871
 6163TIP3   OH239979   4.373   6.300   4.302 -0.5560 -0.0155 -0.3175
 6163TIP3    H139980   4.377   6.239   4.376 -3.1750 -0.3466 -0.3487
 6163TIP3    H239981   4.287   6.341   4.310  1.2377  4.2072  0.0390
 6164TIP3   OH239982   3.439   4.085  11.274 -0.2459 -0.3966 -0.4678
 6164TIP3    H139983   3.530   4.068  11.250 -0.0479  0.7859 -0.6314
 6164TIP3    H239984   3.444   4.152  11.341 -0.9607 -1.2251  0.4384
 6165TIP3   OH239985   5.017   6.278   1.186  0.0134 -0.5012 -0.0521
 6165TIP3    H139986   4.955   6.277   1.113  1.2408  0.2853 -1.1499
 6165TIP3    H239987   5.093   6.230   1.153  0.2449 -0.9134  1.0439
 6166TIP3   OH239988   3.852   3.016   6.340 -0.2033 -0.4149 -0.1714
 6166TIP3    H139989   3.810   3.078   6.399 -1.0376 -1.5162  0.4388
 6166TIP3    H239990   3.783   2.991   6.279 -0.4210 -2.0443  0.6769
 6167TIP3   OH239991   4.156   0.060   2.325 -0.1277 -0.0975 -0.0007
 6167TIP3    H139992   4.212  -0.010   2.359 -0.5479 -1.0193 -1.1012
 6167TIP3    H239993   4.136   0.115   2.401  2.0819  0.1566  0.4650
 6168TIP3   OH239994   2.203   1.710  14.113 -0.5788 -0.0696 -0.6436
 6168TIP3    H139995   2.196   1.707  14.018  1.6392  0.5891 -0.8809
 6168TIP3    H239996   2.276   1.651  14.133 -0.9731 -0.1484  0.6679
 6169TIP3   OH239997   2.886   0.853   3.843  0.1824  0.7902  0.2513
 6169TIP3    H139998   2.964   0.802   3.864 -0.4039  0.2210  1.0877
 6169TIP3    H239999   2.867   0.902   3.923 -1.7625 -0.9847  0.9743
 6170TIP3   OH240000   0.574   5.245  14.093  0.0278  0.1250 -1.0899
 6170TIP3    H140001   0.653   5.288  14.128 -0.2293  1.2599 -1.8459
 6170TIP3    H240002   0.508   5.259  14.161  0.7469 -1.9448  0.1401
 6171TIP3   OH240003   6.298   3.467  16.774 -0.0875  0.2465 -0.1302
 6171TIP3    H140004   6.231   3.501  16.834  0.4302  0.1865  0.4954
 6171TIP3    H240005   6.293   3.524  16.698 -1.0976  0.0177 -0.2466
 6172TIP3   OH240006   2.714   2.394   3.851  0.0860  0.5895  0.6324
 6172TIP3    H140007   2.718   2.317   3.908  0.5895  0.7022  0.7530
 6172TIP3    H240008   2.740   2.361   3.764 -1.9676  0.1310  0.1432
 6173TIP3   OH240009   5.563   0.732   4.978  0.1140  0.1727  0.6977
 6173TIP3    H140010   5.635   0.795   4.976  0.8764 -0.6944  0.1795
 6173TIP3    H240011   5.584   0.675   5.052  1.4219 -1.7113 -1.0224
 6174TIP3   OH240012   3.673   6.372  12.622 -0.1792  0.0390  0.4529
 6174TIP3    H140013   3.766   6.386  12.637 -0.1710 -0.1476  0.5827
 6174TIP3    H240014   3.630   6.414  12.697 -0.2446  0.8401 -0.0247
 6175TIP3   OH240015   1.051   4.802   2.418 -0.7080 -0.8504  0.1515
 6175TIP3    H140016   1.141   4.799   2.386  0.2836  0.5306  2.5419
 6175TIP3    H240017   1.036   4.716   2.456  0.4506 -0.4335  1.6631
 6176TIP3   OH240018   2.363   2.908   2.209  0.3639 -0.4876 -0.1596
 6176TIP3    H140019   2.314   2.929   2.130 -0.7452  0.5275  0.7694
 6176TIP3    H240020   2.452   2.939   2.191  0.0765 -0.1144 -0.9511
 6177TIP3   OH240021   4.917   2.306   3.970  0.2725 -0.6079  0.2140
 6177TIP3    H140022   4.864   2.227   3.978 -0.5655 -0.0350  0.4056
 6177TIP3    H240023   4.921   2.323   3.876 -0.3323 -0.3520  0.2342
 6178TIP3   OH240024   2.779   1.324  16.210  0.1785  0.3601  0.3635
 6178TIP3    H140025   2.856   1.372  16.241  0.5814  0.6080 -0.9743
 6178TIP3    H240026   2.803   1.232  16.217  0.2075  0.4009  0.8837
 6179TIP3   OH240027   5.391   2.574  13.269 -0.3279  0.6826 -0.0185
 6179TIP3    H140028   5.316   2.551  13.325 -0.6114  1.6990  0.0468
 6179TIP3    H240029   5.386   2.670  13.261 -0.0315  0.6043 -1.4211
 6180TIP3   OH240030   3.985   0.131   4.481 -0.3415  0.6034  0.4950
 6180TIP3    H140031   3.995   0.068   4.410 -2.9585 -0.8181  1.2593
 6180TIP3    H240032   4.000   0.079   4.561  0.4485  1.6818  1.0758
 6181TIP3   OH240033   2.768   4.280  14.618  0.2235  0.1596  0.3716
 6181TIP3    H140034   2.821   4.209  14.582 -1.5022 -0.8545 -0.2282
 6181TIP3    H240035   2.792   4.283  14.711  0.0549 -1.4359  0.4774
 6182TIP3   OH240036   0.039   3.939  15.440  0.2205  0.0947 -0.6391
 6182TIP3    H140037   0.069   3.899  15.359  0.5600 -1.0700  0.0387
 6182TIP3    H240038  -0.036   3.885  15.468 -0.7991  1.3280 -0.8920
 6183TIP3   OH240039   2.518   6.584  11.873  0.1500  0.0820 -0.2922
 6183TIP3    H140040   2.491   6.530  11.798  0.0087  0.1000 -0.2541
 6183TIP3    H240041   2.607   6.555  11.892 -0.5872 -1.5197  0.9568
 6184TIP3   OH240042   4.547   4.404  10.473 -0.0880 -0.2025 -0.1247
 6184TIP3    H140043   4.616   4.402  10.539  1.6458  0.5662 -1.8442
 6184TIP3    H240044   4.517   4.495  10.473  1.2681  0.2872 -1.6699
 6185TIP3   OH240045   2.633   1.646  12.608 -0.1645  0.0945  0.4681
 6185TIP3    H140046   2.606   1.632  12.517  0.6721  1.9330 -0.1031
 6185TIP3    H240047   2.577   1.716  12.639  0.6438  0.5896  0.8368
 6186TIP3   OH240048   6.062   0.622   4.776 -0.1928  0.3632 -0.2793
 6186TIP3    H140049   5.988   0.682   4.760 -1.1249 -0.8224 -0.5269
 6186TIP3    H240050   6.031   0.563   4.845  0.9621  0.5575  0.4291
 6187TIP3   OH240051   5.484   5.179  13.200 -0.0340 -0.5865  0.8867
 6187TIP3    H140052   5.396   5.196  13.166 -0.1603 -0.5950  1.2076
 6187TIP3    H240053   5.483   5.215  13.288  0.3571 -0.3828  0.8079
 6188TIP3   OH240054   3.124   3.125  15.704  0.6401 -0.3960  0.2222
 6188TIP3    H140055   3.074   3.193  15.659  1.3952  0.2761  0.3688
 6188TIP3    H240056   3.162   3.073  15.633  0.5679 -0.2834  0.0989
 6189TIP3   OH240057   5.410   5.019   1.021  0.5991  0.0010  0.1856
 6189TIP3    H140058   5.369   5.075   1.087  1.7481 -0.5331  1.3881
 6189TIP3    H240059   5.419   5.076   0.944  0.9106  1.1992  1.0803
 6190TIP3   OH240060   0.274   4.277  13.685  0.2341  0.1939 -0.0105
 6190TIP3    H140061   0.215   4.221  13.735  1.9522 -0.6626  1.1401
 6190TIP3    H240062   0.228   4.361  13.680 -0.0645  0.3324  3.0447
 6191TIP3   OH240063   3.109   3.615  13.010 -0.2023  0.3657  0.4735
 6191TIP3    H140064   3.026   3.658  13.028 -0.3325 -0.2111  1.3153
 6191TIP3    H240065   3.135   3.648  12.924 -1.2954  0.5514  0.1958
 6192TIP3   OH240066   3.571   4.563  11.099  0.3339  0.7299  0.4028
 6192TIP3    H140067   3.564   4.659  11.096 -1.1457  0.7525  2.5765
 6192TIP3    H240068   3.481   4.532  11.087  0.6063 -0.3301  1.0202
 6193TIP3   OH240069   2.212   3.006   5.737 -0.1171 -0.6376  0.1233
 6193TIP3    H140070   2.249   3.095   5.731 -0.5330 -0.5301 -1.3956
 6193TIP3    H240071   2.144   3.004   5.669 -2.1238 -1.2071  2.0196
 6194TIP3   OH240072   4.801   1.517   6.061  0.0475  0.0032 -0.3964
 6194TIP3    H140073   4.890   1.547   6.081  0.3841 -1.4450  0.4418
 6194TIP3    H240074   4.754   1.523   6.144 -0.8336  1.2891 -0.9542
 6195TIP3   OH240075   4.253   2.321  11.446 -0.1436 -0.0618 -0.1932
 6195TIP3    H140076   4.179   2.272  11.482  0.5542 -0.4190  0.8086
 6195TIP3    H240077   4.242   2.314  11.351 -1.4447 -0.0100 -0.0620
 6196TIP3   OH240078   4.120   2.475  13.927 -0.4887  0.1455 -0.1186
 6196TIP3    H140079   4.170   2.541  13.976 -2.2926  2.9527 -1.7436
 6196TIP3    H240080   4.185   2.424  13.880  0.9811  0.9380  0.9802
 6197TIP3   OH240081   2.766   1.069  11.457  0.0330  0.2525 -0.3497
 6197TIP3    H140082   2.804   0.982  11.441  0.0904  0.0613  0.7149
 6197TIP3    H240083   2.675   1.051  11.480  0.0393  0.4699 -0.1489
 6198TIP3   OH240084   5.752   0.891   2.046  0.6114 -0.2973  0.4811
 6198TIP3    H140085   5.735   0.803   2.014 -0.4910  0.8312 -2.3445
 6198TIP3    H240086   5.817   0.926   1.985  0.4957  1.0940  1.1218
 6199TIP3   OH240087   2.282   0.543   5.933  0.2272 -0.0337 -0.8414
 6199TIP3    H140088   2.315   0.489   6.005  1.3741 -0.1730 -1.4571
 6199TIP3    H240089   2.343   0.527   5.861 -1.0746 -0.1448 -1.9631
 6200TIP3   OH240090   1.375   6.251  11.525 -0.1269 -0.7629  0.3779
 6200TIP3    H140091   1.399   6.229  11.615 -0.8344  0.5030  0.9045
 6200TIP3    H240092   1.283   6.226  11.518 -0.9456  1.7663  0.9818
 6201TIP3   OH240093   5.251   5.215  13.048  0.3331  0.4922 -0.6526
 6201TIP3    H140094   5.222   5.142  12.993  1.1298 -1.3453  1.2310
 6201TIP3    H240095   5.169   5.257  13.077 -0.1994 -0.3677 -0.8669
 6202TIP3   OH240096   0.402   2.223  15.172  0.1798  0.2504 -0.3411
 6202TIP3    H140097   0.415   2.130  15.154  1.7865  0.3067  0.3686
 6202TIP3    H240098   0.395   2.229  15.267  2.2635  1.0488 -0.1869
 6203TIP3   OH240099   1.894   3.414   2.837 -0.4136  0.2724  0.4217
 6203TIP3    H140100   1.825   3.478   2.854 -1.6902 -0.7540 -0.6138
 6203TIP3    H240101   1.873   3.341   2.895  1.2871  0.9270  1.9206
 6204TIP3   OH240102   6.085   2.055   5.427  0.4237  0.0573  0.3251
 6204TIP3    H140103   6.046   1.999   5.360  1.6401  0.2634 -0.5832
 6204TIP3    H240104   6.062   2.144   5.400  2.7939  0.3041 -1.1459
 6205TIP3   OH240105   1.175   5.736   5.641  0.1567 -0.2342 -0.3473
 6205TIP3    H140106   1.233   5.726   5.566 -0.9166  0.5603 -1.3201
 6205TIP3    H240107   1.184   5.828   5.666  1.0604 -0.6565  0.9903
 6206TIP3   OH240108   4.539   3.521   0.845 -0.1725 -0.0534 -0.0087
 6206TIP3    H140109   4.525   3.504   0.751 -0.3116  1.4085 -0.2794
 6206TIP3    H240110   4.453   3.508   0.884  0.1916 -2.0931  0.1700
 6207TIP3   OH240111   3.163   2.769  12.092 -0.0994  0.5322  0.0682
 6207TIP3    H140112   3.107   2.733  12.161  0.6514  0.9150  0.8940
 6207TIP3    H240113   3.216   2.835  12.137  0.7395  0.4447 -0.7815
 6208TIP3   OH240114   1.579   6.774   6.455 -0.4077 -0.1131  0.3966
 6208TIP3    H140115   1.604   6.698   6.403 -2.5525  0.8117 -2.2651
 6208TIP3    H240116   1.533   6.738   6.531  2.0086 -1.4996  1.2896
 6209TIP3   OH240117   1.225   5.901  11.704 -0.0433 -0.2597  0.2563
 6209TIP3    H140118   1.143   5.946  11.724  1.2547  1.9495  0.9020
 6209TIP3    H240119   1.249   5.931  11.617  0.9700  0.5754  0.7994
 6210TIP3   OH240120   1.203   2.836   2.095  0.2052 -0.3993  0.2301
 6210TIP3    H140121   1.265   2.817   2.166  1.1669 -1.7257 -0.9059
 6210TIP3    H240122   1.259   2.860   2.021 -0.6401 -1.4460 -0.7701
 6211TIP3   OH240123   0.666   4.160   1.274 -0.2573  0.2982  0.4546
 6211TIP3    H140124   0.571   4.156   1.286 -0.3829  1.0048 -0.2061
 6211TIP3    H240125   0.678   4.180   1.181  0.5321  0.3534  0.5589
 6212TIP3   OH240126   6.287   2.848  11.912 -0.0006  0.7606 -0.1990
 6212TIP3    H140127   6.279   2.900  11.992 -1.3707  1.5487 -0.8094
 6212TIP3    H240128   6.372   2.873  11.876  0.2247  1.0856  0.5337
 6213TIP3   OH240129   0.727   2.586  14.625 -0.0444 -0.0697  0.3177
 6213TIP3    H140130   0.636   2.565  14.648 -0.8663  0.4620 -2.0983
 6213TIP3    H240131   0.776   2.574  14.706 -1.9691 -2.0667  1.2934
 6214TIP3   OH240132   5.315   4.096  14.777 -0.1398  0.0346  0.3701
 6214TIP3    H140133   5.230   4.092  14.733  1.8367 -1.6993 -3.8079
 6214TIP3    H240134   5.320   4.014  14.826 -1.6400  1.1430  2.5082
 6215TIP3   OH240135   4.148   1.455  16.498 -0.1577 -0.2810  0.4339
 6215TIP3    H140136   4.202   1.383  16.465 -0.3665  0.1339 -0.8461
 6215TIP3    H240137   4.205   1.501  16.560  1.1090  0.3631 -1.1554
 6216TIP3   OH240138   6.638   5.198  15.527  0.1705  0.0685 -0.1377
 6216TIP3    H140139   6.626   5.240  15.612  0.1102  1.7354 -0.9220
 6216TIP3    H240140   6.572   5.240  15.471  1.2781  0.1931 -1.3932
 6217TIP3   OH240141   0.944   1.898   5.228 -0.3980 -0.0072  0.1825
 6217TIP3    H140142   0.943   1.843   5.149 -1.0073  0.6671 -0.2830
 6217TIP3    H240143   0.855   1.893   5.263 -1.1462  2.4906 -1.1461
 6218TIP3   OH240144   1.897   1.602  12.766 -0.1550 -0.7622 -0.2868
 6218TIP3    H140145   1.809   1.587  12.732  0.6105 -0.2400 -2.7635
 6218TIP3    H240146   1.910   1.696  12.757  0.6882 -0.8501 -0.0593
 6219TIP3   OH240147   3.956   2.597  13.716  0.1156 -0.1867 -0.1637
 6219TIP3    H140148   3.998   2.557  13.793 -0.1870  1.4970  0.9333
 6219TIP3    H240149   3.911   2.525  13.673  1.5706 -1.4626  0.3586
 6220TIP3   OH240150   5.514   2.324   6.024 -0.8976 -0.0838  0.0673
 6220TIP3    H140151   5.541   2.234   6.045  0.6584 -0.3615 -2.6012
 6220TIP3    H240152   5.575   2.379   6.073 -0.0516 -0.5873 -0.3853
 6221TIP3   OH240153   6.324   2.537  13.641 -0.8101 -0.8125  0.0618
 6221TIP3    H140154   6.235   2.556  13.672 -1.1281 -1.0946 -0.6458
 6221TIP3    H240155   6.380   2.595  13.692 -1.6637  1.4861 -1.4559
 6222TIP3   OH240156   3.452   0.425   0.579 -0.3396  0.0423  0.5888
 6222TIP3    H140157   3.417   0.489   0.641 -0.3510  1.3071 -0.6643
 6222TIP3    H240158   3.536   0.399   0.616 -1.4675 -1.2234  2.4246
 6223TIP3   OH240159   4.142   6.262  11.275  0.1765 -0.4246  0.4381
 6223TIP3    H140160   4.096   6.233  11.354 -0.4333 -2.7624 -0.6746
 6223TIP3    H240161   4.073   6.295  11.218  0.2897 -0.8947  0.0198
 6224TIP3   OH240162   1.027   2.009  17.238  0.6475 -0.6451 -0.0788
 6224TIP3    H140163   0.993   1.919  17.232  0.7365 -0.6273 -0.8973
 6224TIP3    H240164   1.117   2.003  17.205  0.2859 -0.0533 -1.1982
 6225TIP3   OH240165   3.583   4.166  11.964  0.4279  0.5693  0.3499
 6225TIP3    H140166   3.673   4.134  11.969  0.3010  0.1757  0.1272
 6225TIP3    H240167   3.551   4.138  11.878 -0.2323 -0.1734  0.8142
 6226TIP3   OH240168   5.973   0.039  11.408 -0.2257 -0.8135  0.0587
 6226TIP3    H140169   6.029   0.009  11.479  1.0825  0.9315 -0.1785
 6226TIP3    H240170   5.888   0.058  11.450  0.1832 -0.8926  0.9399
 6227TIP3   OH240171   5.122   4.051   2.765  0.1605  0.1957 -0.7159
 6227TIP3    H140172   5.136   4.145   2.778 -1.8744  0.2387  1.9897
 6227TIP3    H240173   5.178   4.010   2.830 -0.4691 -0.3722 -0.5311
 6228TIP3   OH240174   3.093   6.498  16.594  0.0819 -0.8339 -0.1846
 6228TIP3    H140175   3.172   6.501  16.540  0.3989  1.0208  0.3395
 6228TIP3    H240176   3.119   6.535  16.678 -1.5578  0.7716 -0.3260
 6229TIP3   OH240177   4.099   0.616   3.780  0.1682  0.2882 -0.0782
 6229TIP3    H140178   4.022   0.623   3.722 -1.2414  1.7323  1.8554
 6229TIP3    H240179   4.085   0.535   3.828  0.1804  0.2473 -0.1425
 6230TIP3   OH240180   2.106   4.578  12.041 -0.3040  0.5866  0.1522
 6230TIP3    H140181   2.072   4.489  12.034  1.1695  0.0406 -0.5115
 6230TIP3    H240182   2.167   4.575  12.115  1.0603  0.5667 -0.9401
 6231TIP3   OH240183   5.868   4.123   1.567  0.1383 -0.5329  0.9159
 6231TIP3    H140184   5.954   4.124   1.609  0.6744 -1.5207 -0.1193
 6231TIP3    H240185   5.833   4.036   1.586 -0.3992 -0.3309  0.8657
 6232TIP3   OH240186   4.592   0.707   6.137 -0.0954 -0.2264 -0.4102
 6232TIP3    H140187   4.599   0.723   6.231 -1.4024  1.3720 -0.5515
 6232TIP3    H240188   4.674   0.663   6.114  0.9559  0.8290  1.1683
 6233TIP3   OH240189   6.482   0.630   3.413 -0.3460  0.1463  0.0004
 6233TIP3    H140190   6.456   0.650   3.322  0.7562 -1.0915 -0.6166
 6233TIP3    H240191   6.561   0.683   3.427  0.0661 -0.4159 -0.1349
 6234TIP3   OH240192   1.078   6.379   5.866  0.5423 -0.0881 -0.7085
 6234TIP3    H140193   1.134   6.343   5.934  0.1644  1.2932  0.3848
 6234TIP3    H240194   1.136   6.436   5.815  0.9630 -1.5788 -1.9545
 6235TIP3   OH240195   2.680   6.344  11.396  0.5698 -0.5743  0.3655
 6235TIP3    H140196   2.632   6.298  11.326  1.0143 -0.4007 -0.0580
 6235TIP3    H240197   2.755   6.288  11.413  0.6451 -0.4416  0.4642
 6236TIP3   OH240198   3.914   5.221   5.864 -0.0230  0.1789 -0.0511
 6236TIP3    H140199   3.822   5.215   5.890  0.0602  0.0198  0.2074
 6236TIP3    H240200   3.962   5.186   5.939  0.1864 -1.0511 -0.7333
 6237TIP3   OH240201   1.691   1.837   0.592 -0.0646 -0.4014  0.0832
 6237TIP3    H140202   1.735   1.894   0.655  0.4419 -1.7446  0.9858
 6237TIP3    H240203   1.752   1.765   0.578 -0.9544 -1.0644 -0.5247
 6238TIP3   OH240204   6.724   3.530   4.699 -0.1146 -0.1119  0.0441
 6238TIP3    H140205   6.681   3.526   4.614  0.2950  2.2835 -0.3579
 6238TIP3    H240206   6.812   3.564   4.679  0.2640 -0.2943  1.3386
 6239TIP3   OH240207   4.685   3.146   0.714 -0.0493  0.4265 -0.2672
 6239TIP3    H140208   4.767   3.179   0.677  0.3968 -3.0408 -2.9864
 6239TIP3    H240209   4.707   3.125   0.805  0.4842  4.1232  0.6186
 6240TIP3   OH240210   0.602   3.362   0.873 -0.1907 -0.7019  0.3587
 6240TIP3    H140211   0.525   3.419   0.883  0.2783  0.3437 -1.4287
 6240TIP3    H240212   0.572   3.293   0.813 -0.1842 -1.2255  0.9493
 6241TIP3   OH240213   4.255   1.070   0.619  0.0603 -0.3681 -0.1684
 6241TIP3    H140214   4.341   1.111   0.632  0.0644 -0.4768  0.1614
 6241TIP3    H240215   4.194   1.143   0.617  0.2815 -0.1916 -1.6000
 6242TIP3   OH240216   5.874   0.094  11.757 -0.2278 -0.6302  0.4193
 6242TIP3    H140217   5.948   0.089  11.817 -0.8200 -2.3547  1.0629
 6242TIP3    H240218   5.862   0.005  11.725  0.9269  0.4396 -3.4312
 6243TIP3   OH240219   4.103   4.407   2.636 -0.2534 -0.1644  0.1074
 6243TIP3    H140220   4.087   4.344   2.707  0.1321  0.3596  0.6657
 6243TIP3    H240221   4.086   4.492   2.675  1.1793  0.2238 -0.0572
 6244TIP3   OH240222   5.130   4.029  17.061 -0.3387  0.4621  0.9122
 6244TIP3    H140223   5.060   4.000  17.001  0.3722 -0.0777  0.3196
 6244TIP3    H240224   5.118   3.975  17.139 -0.2285 -0.0556  0.5796
 6245TIP3   OH240225   1.006   5.609  12.827 -0.2427 -0.1628  0.6422
 6245TIP3    H140226   1.064   5.587  12.755  2.2007  0.9478  2.1713
 6245TIP3    H240227   0.960   5.527  12.846  0.2138 -0.8691 -1.1042
 6246TIP3   OH240228   0.560   0.675  16.672 -0.8017 -0.1655  0.3747
 6246TIP3    H140229   0.560   0.580  16.659 -2.1273  0.0344 -1.5541
 6246TIP3    H240230   0.608   0.709  16.596  0.0493  0.7050  1.2807
 6247TIP3   OH240231   2.114   4.510  16.470  0.1990 -0.3883 -0.0114
 6247TIP3    H140232   2.057   4.580  16.503 -1.0489 -0.7495 -1.3244
 6247TIP3    H240233   2.199   4.552  16.457 -0.1687  0.5401  0.5060
 6248TIP3   OH240234   4.676   3.398   6.419  0.1819  0.0352  0.3000
 6248TIP3    H140235   4.647   3.308   6.423 -2.1308  0.7311  0.3334
 6248TIP3    H240236   4.767   3.393   6.388 -0.5614 -2.1608 -1.7666
 6249TIP3   OH240237   2.957   1.272  17.348  0.1967 -0.2970 -0.0084
 6249TIP3    H140238   3.012   1.283  17.271  0.0703  4.8843  0.3254
 6249TIP3    H240239   2.870   1.301  17.321  0.2254  2.0261  1.9684
 6250TIP3   OH240240   5.692   3.121   5.477  0.2992  0.2907  0.0508
 6250TIP3    H140241   5.601   3.141   5.458  0.1572  0.3181  0.7388
 6250TIP3    H240242   5.739   3.203   5.461  0.1373  0.3974  0.1202
 6251TIP3   OH240243   6.243   6.732   4.294  0.1239 -0.4296  0.1544
 6251TIP3    H140244   6.241   6.828   4.297  0.1963 -0.3625 -1.1754
 6251TIP3    H240245   6.281   6.712   4.208 -1.4398 -1.6388 -0.2919
 6252TIP3   OH240246   0.757   6.478   3.004  0.4931  0.0575  0.0804
 6252TIP3    H140247   0.800   6.547   2.953  1.8187 -0.9210 -0.1822
 6252TIP3    H240248   0.776   6.397   2.956 -0.3112 -0.5958  0.8351
 6253TIP3   OH240249   0.832   4.364   2.877  0.1455  0.7748 -0.4266
 6253TIP3    H140250   0.802   4.274   2.890 -0.1156  0.9252  0.0101
 6253TIP3    H240251   0.925   4.362   2.900  0.7204  0.1247 -2.5655
 6254TIP3   OH240252   1.844   6.223   3.051  0.1913 -0.1391 -0.2838
 6254TIP3    H140253   1.778   6.230   2.983 -0.1671 -1.3396 -0.0929
 6254TIP3    H240254   1.855   6.312   3.085  0.4728  0.4911 -1.9712
 6255TIP3   OH240255   0.089   5.587  12.023 -0.0152 -0.1497 -0.0636
 6255TIP3    H140256   0.119   5.678  12.020 -0.7565  0.1083  0.0709
 6255TIP3    H240257  -0.006   5.594  12.032 -0.1564 -0.9466 -0.8204
 6256TIP3   OH240258   4.529   0.952  14.760 -0.6441 -0.0523  0.2892
 6256TIP3    H140259   4.589   0.878  14.766  0.4675  0.9265  1.8125
 6256TIP3    H240260   4.444   0.915  14.784  0.2357 -0.4956  3.1120
 6257TIP3   OH240261   5.387   2.495   6.325  0.6027  0.0435  0.3757
 6257TIP3    H140262   5.365   2.588   6.330  0.0763 -0.0711  0.2651
 6257TIP3    H240263   5.324   2.452   6.383  0.6010 -0.2824  0.1362
 6258TIP3   OH240264   1.113   4.527  11.936  0.3238  0.4226 -0.2287
 6258TIP3    H140265   1.051   4.533  12.008  1.6411  1.7499  0.8627
 6258TIP3    H240266   1.097   4.606  11.884  1.2082  0.8927  0.1878
 6259TIP3   OH240267   6.416   2.189  14.351 -0.2473  0.0582 -0.7092
 6259TIP3    H140268   6.409   2.143  14.434 -0.3061 -0.8706 -1.2120
 6259TIP3    H240269   6.500   2.160  14.314 -0.5588 -0.1070 -1.3018
 6260TIP3   OH240270   5.082   1.418  10.965  0.7600  0.0914  0.0533
 6260TIP3    H140271   5.071   1.336  10.916 -2.6460 -0.0623  0.8387
 6260TIP3    H240272   5.012   1.417  11.030  0.2949  3.8284 -0.1861
 6261TIP3   OH240273   6.576   4.815  17.093 -0.4218  0.3980 -0.6788
 6261TIP3    H140274   6.499   4.870  17.106  0.8499  2.1294 -0.2368
 6261TIP3    H240275   6.632   4.865  17.033  0.9912 -0.1602  0.1355
 6262TIP3   OH240276   5.280   6.228  16.381 -0.2251  0.1989  0.5904
 6262TIP3    H140277   5.219   6.268  16.443 -0.3751  2.2076 -0.7352
 6262TIP3    H240278   5.249   6.257  16.295  0.9495 -1.0981 -0.3098
 6263TIP3   OH240279   5.831   0.784  14.341 -0.1971 -1.0298  0.4264
 6263TIP3    H140280   5.803   0.834  14.265 -0.2872 -1.3983  0.2180
 6263TIP3    H240281   5.823   0.845  14.414  0.1934 -0.5795  0.0945
 6264TIP3   OH240282   5.807   4.753   0.300 -0.6423 -0.0674 -0.3456
 6264TIP3    H140283   5.889   4.787   0.262 -0.7433  0.8354  0.2095
 6264TIP3    H240284   5.762   4.711   0.227 -0.3280  0.6746 -0.9799
 6265TIP3   OH240285   3.225   3.070   1.187 -0.3165 -0.0225  0.0466
 6265TIP3    H140286   3.225   3.113   1.101  1.1096  1.9048  0.9273
 6265TIP3    H240287   3.317   3.046   1.201 -0.3686  0.5218  1.4053
 6266TIP3   OH240288   2.794   1.480   4.279  0.0370  0.1242  0.2588
 6266TIP3    H140289   2.763   1.390   4.272  0.5895 -0.1416  1.1376
 6266TIP3    H240290   2.890   1.473   4.278  0.0933  0.7913 -0.6831
 6267TIP3   OH240291   0.082   4.574  11.613 -0.9283  0.2391  0.9581
 6267TIP3    H140292   0.101   4.573  11.520 -0.4922  0.3238  1.0465
 6267TIP3    H240293  -0.013   4.564  11.618 -0.8875 -0.4302  0.5265
 6268TIP3   OH240294   5.492   2.893   2.288  1.0057 -0.6709 -0.3012
 6268TIP3    H140295   5.440   2.939   2.354 -1.0277 -1.1905 -1.4685
 6268TIP3    H240296   5.558   2.846   2.339 -0.4979 -1.0935  1.3855
 6269TIP3   OH240297   4.974   4.096   5.955 -0.3527  0.1677  0.1979
 6269TIP3    H140298   4.964   4.161   5.886 -2.1255 -0.5910 -0.3160
 6269TIP3    H240299   4.916   4.025   5.930  0.3161 -0.9179  1.5731
 6270TIP3   OH240300   4.323   6.469  13.461  0.0879  0.0588 -0.5906
 6270TIP3    H140301   4.279   6.490  13.379 -2.5381  2.2720  1.2273
 6270TIP3    H240302   4.287   6.383  13.486  0.7992 -0.5629 -1.6194
 6271TIP3   OH240303   3.080   4.706   3.999 -0.3049 -0.0849 -0.2654
 6271TIP3    H140304   3.171   4.704   3.971  0.0842  1.5796  0.7161
 6271TIP3    H240305   3.059   4.615   4.020  1.6611 -0.3026  1.0623
 6272TIP3   OH240306   5.943   4.785   1.320 -0.3735 -0.0485  0.1564
 6272TIP3    H140307   5.939   4.837   1.400 -2.0287  1.4931 -0.8722
 6272TIP3    H240308   5.877   4.823   1.262  1.5971 -0.3268 -2.4494
 6273TIP3   OH240309   2.099   2.723   2.594  0.5163 -0.1344 -0.0524
 6273TIP3    H140310   2.178   2.727   2.649  0.3015 -1.5565  0.4122
 6273TIP3    H240311   2.099   2.806   2.546  0.3973  1.4869  2.5131
 6274TIP3   OH240312   0.773   2.158   5.812  0.2823  0.3876 -0.3444
 6274TIP3    H140313   0.773   2.102   5.735  0.8337  0.5185 -0.4402
 6274TIP3    H240314   0.732   2.105   5.880 -2.1803  0.9997 -1.2372
 6275TIP3   OH240315   5.907   1.280   2.031 -0.2214  0.0065 -0.4210
 6275TIP3    H140316   5.993   1.323   2.035 -0.7134  0.9551  0.7056
 6275TIP3    H240317   5.890   1.254   2.122 -1.4776  0.5532 -0.4896
 6276TIP3   OH240318   2.989   3.057  13.753  0.4068  0.2573 -0.3508
 6276TIP3    H140319   3.070   3.013  13.727 -0.2031  0.4455 -2.8841
 6276TIP3    H240320   2.938   3.062  13.672 -0.8671  2.8408  0.5211
 6277TIP3   OH240321   6.291   0.289  15.019 -0.1933  0.1336  0.4103
 6277TIP3    H140322   6.206   0.329  15.004 -0.1014  0.3537  0.4699
 6277TIP3    H240323   6.310   0.242  14.938  0.0691  0.8961  0.0196
 6278TIP3   OH240324   2.659   5.413   5.411 -0.0673  0.9445  0.4436
 6278TIP3    H140325   2.583   5.355   5.408  0.4114  0.2980  0.4551
 6278TIP3    H240326   2.659   5.450   5.499 -1.2231  2.1460 -0.0292
 6279TIP3   OH240327   0.869   4.628   0.713  0.2725 -0.0766  0.1532
 6279TIP3    H140328   0.944   4.572   0.689  1.1834  0.9002  0.6276
 6279TIP3    H240329   0.859   4.687   0.638  0.1444 -0.0388  0.2013
 6280TIP3   OH240330   3.837   1.214  15.353  0.8094  0.2785  0.0324
 6280TIP3    H140331   3.908   1.264  15.392  0.7379  1.9651 -1.8595
 6280TIP3    H240332   3.879   1.137  15.316  1.2793  0.0736  0.9780
 6281TIP3   OH240333   0.355   1.708   0.743  0.2646 -0.2423  0.0637
 6281TIP3    H140334   0.321   1.795   0.764 -1.3094 -0.6834 -0.4624
 6281TIP3    H240335   0.344   1.700   0.648  0.5606 -0.9468  0.0822
 6282TIP3   OH240336   2.359   1.350  15.210  0.5262  0.1850  0.0714
 6282TIP3    H140337   2.312   1.289  15.267 -0.3732 -0.0203 -0.8590
 6282TIP3    H240338   2.437   1.374  15.259 -1.2052  1.6155  2.3111
 6283TIP3   OH240339   3.610   0.212  17.151  0.2256 -0.9260 -0.6291
 6283TIP3    H140340   3.671   0.156  17.199  2.4258  0.7048 -1.3743
 6283TIP3    H240341   3.581   0.276  17.216 -1.8057 -2.4345  0.0617
 6284TIP3   OH240342   3.940   1.442  16.724  0.4532 -0.0528 -0.6005
 6284TIP3    H140343   3.960   1.530  16.692 -1.4402  0.8447  0.5537
 6284TIP3    H240344   3.894   1.400  16.651  1.7299 -0.2741 -1.3095
 6285TIP3   OH240345   3.884   0.443   2.314 -0.2579 -0.2671 -0.3682
 6285TIP3    H140346   3.904   0.406   2.228 -1.1124 -0.2968 -0.5624
 6285TIP3    H240347   3.815   0.507   2.298 -0.6944 -0.5437  0.3375
 6286TIP3   OH240348   3.490   3.866  14.722  0.3290 -0.0598  0.7034
 6286TIP3    H140349   3.484   3.780  14.764 -0.9989  0.1521  0.9775
 6286TIP3    H240350   3.453   3.927  14.786  0.7768  0.6595  0.2977
 6287TIP3   OH240351   4.047   6.776  13.645  0.3393  0.5711 -0.0914
 6287TIP3    H140352   4.139   6.758  13.666 -0.0966  0.0865  1.5918
 6287TIP3    H240353   4.037   6.748  13.554  1.3545 -1.4502  0.3460
 6288TIP3   OH240354   0.111   5.746   4.984  0.0310  0.1369 -0.1444
 6288TIP3    H140355   0.077   5.809   5.047 -0.7897 -0.0703 -0.3775
 6288TIP3    H240356   0.206   5.761   4.985 -0.2401  2.3009 -1.1860
 6289TIP3   OH240357   0.484   1.770   1.187  0.3526  0.1646  0.2102
 6289TIP3    H140358   0.393   1.743   1.170 -0.0607  2.2499 -1.3388
 6289TIP3    H240359   0.529   1.689   1.210 -0.9271 -1.7627 -3.3434
 6290TIP3   OH240360   4.005   0.076  12.517  0.5992 -0.1476  0.4546
 6290TIP3    H140361   4.025  -0.017  12.507 -0.6154 -0.3795 -0.0989
 6290TIP3    H240362   4.016   0.113  12.429 -0.7724 -0.1877  0.2364
 6291TIP3   OH240363   3.190   1.716  12.511 -0.5236 -0.5172 -0.3944
 6291TIP3    H140364   3.181   1.779  12.440 -0.5926  1.0740  0.9834
 6291TIP3    H240365   3.100   1.700  12.540 -0.3482  0.6286  0.8330
 6292TIP3   OH240366   2.095   6.030  16.899 -0.0302  0.1442 -0.2186
 6292TIP3    H140367   2.091   5.937  16.876  2.9902 -0.2433  0.3382
 6292TIP3    H240368   2.047   6.036  16.981  0.6956 -1.1993  0.3431
 6293TIP3   OH240369   6.709   3.823   4.177 -0.3564 -0.1499  0.0587
 6293TIP3    H140370   6.699   3.884   4.104 -0.6041 -2.1198 -1.6432
 6293TIP3    H240371   6.794   3.845   4.215 -0.4818  1.2966 -0.4386
 6294TIP3   OH240372   1.838   5.618   4.017 -0.1428 -0.2261  0.2247
 6294TIP3    H140373   1.834   5.671   4.097 -1.8715  0.8996 -0.5374
 6294TIP3    H240374   1.890   5.671   3.956 -1.3075  0.3475 -0.3174
 6295TIP3   OH240375   4.710   3.225  12.256 -0.3768 -0.2100 -0.5723
 6295TIP3    H140376   4.783   3.242  12.196 -0.6858 -0.0558 -0.9090
 6295TIP3    H240377   4.697   3.309  12.301  0.1575 -0.4510  0.0577
 6296TIP3   OH240378   1.444   3.722   2.991 -0.1232 -0.1617  0.1387
 6296TIP3    H140379   1.380   3.730   3.062  1.1018  0.4935  1.2294
 6296TIP3    H240380   1.506   3.794   3.007  1.5012 -1.4235 -0.1785
 6297TIP3   OH240381   3.722   3.715   4.635 -0.0101 -0.7900 -0.2689
 6297TIP3    H140382   3.668   3.644   4.601  0.1545 -0.1741 -1.9217
 6297TIP3    H240383   3.804   3.674   4.659  0.5916 -1.0341 -2.4770
 6298TIP3   OH240384   0.451   5.128   2.138  0.6171  0.0485  0.1841
 6298TIP3    H140385   0.364   5.089   2.138  0.3944  0.4924 -1.3385
 6298TIP3    H240386   0.509   5.059   2.106  0.2421  0.8326 -2.3840
 6299TIP3   OH240387   6.000   1.728  11.030 -0.1702 -0.4448  0.1856
 6299TIP3    H140388   5.910   1.697  11.019 -0.5666  0.4361  0.8530
 6299TIP3    H240389   5.995   1.823  11.019  0.5635 -0.3044  0.9513
 6300TIP3   OH240390   2.499   3.661   3.060 -0.4715  0.5844  0.4570
 6300TIP3    H140391   2.408   3.640   3.044 -0.7040 -0.4306  2.8116
 6300TIP3    H240392   2.547   3.582   3.036 -0.2291  0.9848 -0.4145
 6301TIP3   OH240393   3.072   3.005  12.712 -0.0561 -0.0742  0.5854
 6301TIP3    H140394   2.995   2.954  12.734 -1.3428  1.8425  0.7371
 6301TIP3    H240395   3.050   3.048  12.629  0.3786  1.3358  1.1663
 6302TIP3   OH240396   3.085   2.829   1.214  0.1561  0.2804 -0.2414
 6302TIP3    H140397   3.014   2.862   1.269  0.8911  1.4312  0.0586
 6302TIP3    H240398   3.119   2.907   1.170  1.7323 -0.1031  0.2186
 6303TIP3   OH240399   2.559   5.436   1.676  0.1864 -0.4202  0.0855
 6303TIP3    H140400   2.558   5.373   1.748 -0.8848 -1.1689 -0.5525
 6303TIP3    H240401   2.502   5.397   1.610  0.6992  0.5249 -0.9360
 6304TIP3   OH240402   3.283   0.513  14.764 -0.4830 -0.0184 -0.3216
 6304TIP3    H140403   3.287   0.465  14.847 -0.5379 -0.5305 -0.6097
 6304TIP3    H240404   3.193   0.501  14.734 -0.8991  1.4141  0.2626
 6305TIP3   OH240405   1.201   3.398   5.373 -0.0944 -0.6597 -0.4274
 6305TIP3    H140406   1.211   3.306   5.397 -0.8613 -0.6592 -0.0740
 6305TIP3    H240407   1.184   3.397   5.279  1.8928 -0.7317 -0.8309
 6306TIP3   OH240408   4.493   1.081  14.135 -0.2196 -0.1823  0.1832
 6306TIP3    H140409   4.474   1.024  14.209  0.6261 -0.6300  0.0755
 6306TIP3    H240410   4.421   1.144  14.133 -0.0594  0.0795  1.6103
 6307TIP3   OH240411   1.111   3.952  12.233  0.3944 -0.0012 -0.6016
 6307TIP3    H140412   1.072   3.924  12.150 -2.4172  0.1330  0.5627
 6307TIP3    H240413   1.196   3.908  12.235  0.7294  0.2698 -3.6583
 6308TIP3   OH240414   0.332   6.342   0.311 -1.1222  0.3916  0.0253
 6308TIP3    H140415   0.370   6.396   0.241  1.5906 -2.3055 -0.7506
 6308TIP3    H240416   0.271   6.284   0.265 -0.3010 -0.5192  0.0755
 6309TIP3   OH240417   1.711   4.940  11.188 -0.0601  0.0894 -0.2086
 6309TIP3    H140418   1.783   4.878  11.179  0.7641  0.9859  0.0771
 6309TIP3    H240419   1.733   5.011  11.128  0.8918  1.8420  2.0744
 6310TIP3   OH240420   2.654   5.220   0.891  0.5228 -0.0157 -0.3966
 6310TIP3    H140421   2.611   5.224   0.805  0.8727 -2.3674 -0.7637
 6310TIP3    H240422   2.582   5.224   0.954  0.0270 -0.7388 -0.9011
 6311TIP3   OH240423   0.185   0.166  11.621 -0.8330 -0.2250  0.0636
 6311TIP3    H140424   0.167   0.077  11.651 -1.1213 -0.1938 -0.0171
 6311TIP3    H240425   0.245   0.155  11.546  0.7532 -0.2593  1.2809
 6312TIP3   OH240426   5.719   0.359  17.405 -0.6308 -0.1562 -0.0620
 6312TIP3    H140427   5.694   0.370  17.313 -3.1698 -2.5105  0.2223
 6312TIP3    H240428   5.724   0.264  17.417  0.9406  0.1259  1.9507
 6313TIP3   OH240429   0.786   2.794  13.100 -0.2266 -0.4124  0.7019
 6313TIP3    H140430   0.795   2.718  13.044 -0.8608 -0.9957  1.3681
 6313TIP3    H240431   0.874   2.829  13.108 -0.1277 -0.3062 -0.6579
 6314TIP3   OH240432   6.560   2.834  12.994 -0.4529  0.4920  0.8680
 6314TIP3    H140433   6.593   2.919  12.964 -0.0979  0.0913  0.0790
 6314TIP3    H240434   6.631   2.773  12.977 -0.7007  0.0333  1.4394
 6315TIP3   OH240435   5.129   4.554  14.083 -0.3756 -0.0726  0.1962
 6315TIP3    H140436   5.140   4.615  14.010  0.8258 -0.9461 -0.3900
 6315TIP3    H240437   5.047   4.582  14.125  0.7781  2.7709  0.8043
 6316TIP3   OH240438   5.297   1.239   2.414 -0.5014  0.0086 -0.5035
 6316TIP3    H140439   5.291   1.289   2.333 -0.1327  0.5014 -0.2343
 6316TIP3    H240440   5.385   1.202   2.414 -0.4497  0.1287 -0.2618
 6317TIP3   OH240441   0.020   5.800   5.998 -0.1665 -0.1377 -0.1638
 6317TIP3    H140442  -0.055   5.766   6.047  1.2149 -1.4100  1.1687
 6317TIP3    H240443   0.061   5.863   6.057  1.0904 -1.1388  0.0772
 6318TIP3   OH240444   4.274   0.062   5.294 -0.3915  0.3434 -0.0640
 6318TIP3    H140445   4.312   0.079   5.207  0.9819  1.7836  0.7656
 6318TIP3    H240446   4.184   0.094   5.288 -0.0064  1.3648 -0.6817
 6319TIP3   OH240447   0.458   4.516  14.502 -0.5653 -0.1606 -0.2326
 6319TIP3    H140448   0.488   4.425  14.507  0.7291  0.1078 -2.1781
 6319TIP3    H240449   0.434   4.529  14.411 -0.2285  1.6109 -0.1045
 6320TIP3   OH240450   4.001   2.071  15.600 -0.7071  0.4583 -0.0077
 6320TIP3    H140451   3.957   1.989  15.578  0.3161 -0.5920  1.6692
 6320TIP3    H240452   3.941   2.114  15.661  0.5124 -1.0453  2.3986
 6321TIP3   OH240453   3.539   3.887   5.640  0.4641  0.4821 -0.2519
 6321TIP3    H140454   3.619   3.902   5.590 -0.1651  2.5957 -0.7018
 6321TIP3    H240455   3.569   3.870   5.729  1.4509 -0.3170 -0.7094
 6322TIP3   OH240456   4.959   4.839  11.890  0.2723  0.1040  0.2013
 6322TIP3    H140457   4.911   4.816  11.810  0.0908 -0.3370  0.4325
 6322TIP3    H240458   4.892   4.872  11.950  0.2655 -0.4021  0.4828
 6323TIP3   OH240459   1.800   2.767   3.025 -0.2373  0.2159 -0.3130
 6323TIP3    H140460   1.774   2.831   3.092 -0.4424  0.1572 -0.3361
 6323TIP3    H240461   1.718   2.742   2.983 -0.5701 -2.2338  1.6022
 6324TIP3   OH240462   0.355   4.667   4.377  0.4275  0.0024 -0.0573
 6324TIP3    H140463   0.317   4.608   4.312  0.8186 -0.7047  0.3511
 6324TIP3    H240464   0.303   4.653   4.456 -1.3410  2.2762 -0.6851
 6325TIP3   OH240465   5.547   6.583   0.588  0.1323  0.2724  0.7760
 6325TIP3    H140466   5.627   6.636   0.598  1.3039 -1.3891  0.5112
 6325TIP3    H240467   5.577   6.501   0.549 -1.6449 -0.5873  1.1328
 6326TIP3   OH240468   3.393   5.411   2.302  0.3830 -0.1896 -0.2223
 6326TIP3    H140469   3.377   5.415   2.208 -1.7709 -0.8015  0.0506
 6326TIP3    H240470   3.449   5.334   2.313  1.1550  0.2332 -1.0291
 6327TIP3   OH240471   2.335   0.269  17.103  0.8643 -0.1948  0.4016
 6327TIP3    H140472   2.395   0.215  17.052  1.4200  0.1770  0.6483
 6327TIP3    H240473   2.314   0.216  17.179  1.3971 -0.0790  0.6361
 6328TIP3   OH240474   6.218   2.275  15.208 -0.5863  0.0039  0.0265
 6328TIP3    H140475   6.140   2.267  15.153 -0.1566  0.1659 -0.6188
 6328TIP3    H240476   6.283   2.316  15.151 -0.0852  0.0364  0.6149
 6329TIP3   OH240477   1.449   2.934   5.850  0.1246 -0.5153  0.0505
 6329TIP3    H140478   1.461   2.945   5.945  1.3805  1.5144 -0.2738
 6329TIP3    H240479   1.394   3.009   5.825  2.7688  1.1293 -1.2803
 6330TIP3   OH240480   4.453   6.244   5.533 -0.3171 -0.1764 -0.6288
 6330TIP3    H140481   4.539   6.254   5.491  0.1180  0.1218  0.3236
 6330TIP3    H240482   4.391   6.255   5.461  0.4542 -1.6122 -1.5681
 6331TIP3   OH240483   2.058   3.399  17.043 -0.5567  0.5969 -0.4883
 6331TIP3    H140484   2.013   3.378  16.961 -1.7162  0.0330  0.2691
 6331TIP3    H240485   1.996   3.374  17.111  0.7977  0.0540  0.5931
 6332TIP3   OH240486   3.690   0.248  13.434 -0.6066  0.0762  0.4082
 6332TIP3    H140487   3.613   0.298  13.461 -2.1472 -1.9606  0.0524
 6332TIP3    H240488   3.684   0.167  13.485 -0.6314 -1.5675 -2.0607
 6333TIP3   OH240489   6.404   2.589   3.139  0.1247 -0.4792 -0.3596
 6333TIP3    H140490   6.322   2.633   3.163  0.4524 -0.5624  0.9805
 6333TIP3    H240491   6.378   2.524   3.074 -0.4817  1.1935 -1.8786
 6334TIP3   OH240492   6.555   5.304   5.876 -0.1971 -0.1688  0.4337
 6334TIP3    H140493   6.556   5.388   5.831 -2.0792 -0.5903 -0.5043
 6334TIP3    H240494   6.565   5.326   5.969  0.4784  0.9727  0.1058
 6335TIP3   OH240495   2.080   5.752  16.928  0.3050 -0.1543 -0.2999
 6335TIP3    H140496   2.154   5.692  16.917  0.7284  0.4961 -1.1757
 6335TIP3    H240497   2.003   5.699  16.911  0.5847 -0.7649  0.2916
 6336TIP3   OH240498   0.701   5.682  16.653  0.2775 -0.3404  0.1802
 6336TIP3    H140499   0.626   5.711  16.706  0.8860  1.9046 -0.0885
 6336TIP3    H240500   0.666   5.676  16.564  0.3658  0.5699  0.0776
 6337TIP3   OH240501   0.571   5.264  12.209  0.3986  0.1524  0.2375
 6337TIP3    H140502   0.584   5.352  12.173  1.7544 -0.4972 -0.9657
 6337TIP3    H240503   0.553   5.209  12.132 -0.1854 -0.6819  0.9453
 6338TIP3   OH240504   4.651   1.536  16.245 -0.0325  0.4978  0.3103
 6338TIP3    H140505   4.654   1.476  16.171  2.3653 -0.1619  0.8705
 6338TIP3    H240506   4.576   1.593  16.227  1.5932  1.6737 -3.6183
 6339TIP3   OH240507   3.892   0.359   4.689  0.3789 -0.5297  0.0784
 6339TIP3    H140508   3.906   0.301   4.614 -0.0543 -0.3882 -0.1119
 6339TIP3    H240509   3.802   0.340   4.717  1.0501 -1.7413  1.5472
 6340TIP3   OH240510   1.584   6.047   1.471 -0.1328 -0.0379  0.4652
 6340TIP3    H140511   1.619   5.959   1.461 -0.5864 -0.2475  0.6995
 6340TIP3    H240512   1.578   6.060   1.565 -1.3625 -0.2880  0.4384
 6341TIP3   OH240513   2.590   3.275   1.919 -0.4916 -0.4155  0.1592
 6341TIP3    H140514   2.629   3.267   1.831 -1.4627  0.8322 -0.4136
 6341TIP3    H240515   2.546   3.360   1.918  0.1843  0.0018  2.1570
 6342TIP3   OH240516   3.627   0.574   6.759  0.3422 -0.4680 -0.2217
 6342TIP3    H140517   3.556   0.636   6.745 -0.0038 -0.9538 -0.6803
 6342TIP3    H240518   3.594   0.491   6.723  0.4044 -1.1704  1.2550
 6343TIP3   OH240519   1.566   1.250   3.007  0.0111 -0.6250  0.0856
 6343TIP3    H140520   1.579   1.234   2.913 -1.2149  0.2621 -0.2556
 6343TIP3    H240521   1.495   1.190   3.032 -0.0308 -0.4766  0.3258
 6344TIP3   OH240522   3.265   0.885  15.278  0.8880 -0.1875 -0.3894
 6344TIP3    H140523   3.269   0.797  15.315  1.8023 -0.0583 -0.1632
 6344TIP3    H240524   3.230   0.939  15.348 -2.4562 -0.7995 -1.3957
 6345TIP3   OH240525   4.677   4.789  13.602 -0.3719  0.2984  0.2692
 6345TIP3    H140526   4.619   4.865  13.605 -0.4928  0.1741  1.5760
 6345TIP3    H240527   4.617   4.714  13.602 -0.2349  0.1876  0.3985
 6346TIP3   OH240528   0.459   1.190   1.960 -0.1045  0.6584 -0.1423
 6346TIP3    H140529   0.473   1.234   1.876  0.8487  0.5035 -0.0677
 6346TIP3    H240530   0.442   1.099   1.936  0.2117  0.6051 -0.1631
 6347TIP3   OH240531   4.884   0.860  17.227  0.0400  0.0435  0.0866
 6347TIP3    H140532   4.810   0.908  17.189 -0.4295 -0.5825  0.1833
 6347TIP3    H240533   4.888   0.890  17.318  0.9192  1.2542 -0.3240
 6348TIP3   OH240534   3.887   4.333   2.063 -0.6915  0.2993 -0.3482
 6348TIP3    H140535   3.859   4.280   2.138 -0.2479  2.5555  1.5247
 6348TIP3    H240536   3.975   4.301   2.043 -0.2921  0.5221  0.9669
 6349TIP3   OH240537   4.287   3.240  13.436 -0.3122 -0.5105 -0.5170
 6349TIP3    H140538   4.300   3.254  13.342 -0.7812  2.0957 -0.2628
 6349TIP3    H240539   4.213   3.180  13.441 -0.7345 -0.1433 -1.8139
 6350TIP3   OH240540   1.879   3.104  11.380 -0.3828 -0.6398  0.4750
 6350TIP3    H140541   1.923   3.172  11.329  1.0727 -0.4243  1.9201
 6350TIP3    H240542   1.786   3.122  11.368 -0.0665  0.0602 -1.1759
 6351TIP3   OH240543   0.040   1.956   4.729 -0.0527 -0.8372 -0.2053
 6351TIP3    H140544   0.054   2.024   4.796 -1.4363  2.9769 -3.4050
 6351TIP3    H240545  -0.053   1.965   4.706 -0.1459 -3.5328 -1.2094
 6352TIP3   OH240546   5.515   6.350  15.541 -0.7348  0.1228  0.1301
 6352TIP3    H140547   5.472   6.354  15.455  3.1568 -0.6441 -2.1179
 6352TIP3    H240548   5.539   6.440  15.560 -2.2583  0.3997  0.8569
 6353TIP3   OH240549   0.254   0.539  14.695  0.1226 -0.6735 -0.0388
 6353TIP3    H140550   0.164   0.508  14.698  0.4197 -1.5474  1.7705
 6353TIP3    H240551   0.306   0.460  14.677  0.5112 -0.0952 -1.5682
 6354TIP3   OH240552   3.874   3.249  10.540 -0.6176 -0.3808 -0.3768
 6354TIP3    H140553   3.826   3.261  10.459 -1.4707 -0.4702  0.1063
 6354TIP3    H240554   3.901   3.337  10.566 -1.5629 -0.1898 -0.0249
 6355TIP3   OH240555   5.724   5.817  16.902  0.3738 -0.5123 -0.6418
 6355TIP3    H140556   5.755   5.851  16.985 -1.5215 -1.2432  0.4228
 6355TIP3    H240557   5.696   5.895  16.853  0.7426 -0.1469 -0.2782
 6356TIP3   OH240558   0.906   2.663   3.585 -0.5020  0.1165 -0.2521
 6356TIP3    H140559   0.859   2.746   3.589 -1.1428 -0.3030  1.6191
 6356TIP3    H240560   0.849   2.605   3.534 -1.3789  0.0142  0.8280
 6357TIP3   OH240561   6.344   4.318   2.657 -0.0840  0.2451 -0.3635
 6357TIP3    H140562   6.371   4.329   2.748  0.8660 -0.4859 -0.5462
 6357TIP3    H240563   6.377   4.232   2.632  1.1949  1.1496 -1.9368
 6358TIP3   OH240564   5.309   1.876  11.556  0.1297  0.1475 -0.6002
 6358TIP3    H140565   5.400   1.902  11.572  0.3607 -0.4821 -0.8759
 6358TIP3    H240566   5.292   1.902  11.466  0.6726 -1.4752 -1.2101
 6359TIP3   OH240567   3.282   3.099   0.914 -0.6710  0.4099  0.1532
 6359TIP3    H140568   3.313   3.115   0.825 -0.2938  0.7980  0.3493
 6359TIP3    H240569   3.323   3.017   0.940  1.5826  1.7032  1.0040
 6360TIP3   OH240570   2.593   2.561  16.801  0.2856  0.3083 -0.3086
 6360TIP3    H140571   2.506   2.574  16.765 -0.0596  0.0155  0.4064
 6360TIP3    H240572   2.647   2.536  16.725  0.1112  1.9661 -1.0243
 6361TIP3   OH240573   4.270   4.573   0.612 -0.0118 -0.2674 -0.6033
 6361TIP3    H140574   4.319   4.549   0.691 -1.7668  0.8821  0.9292
 6361TIP3    H240575   4.302   4.660   0.590 -1.3741  0.5837  0.5343
 6362TIP3   OH240576   1.917   1.787   6.072  0.0962 -0.3354 -0.3288
 6362TIP3    H140577   1.920   1.694   6.094  1.1797 -0.6847 -1.7870
 6362TIP3    H240578   1.851   1.794   6.003 -0.2420  0.0461  0.0274
 6363TIP3   OH240579   0.906   2.847  14.515  0.8505 -0.1035 -0.0022
 6363TIP3    H140580   0.937   2.768  14.559 -0.1615  0.1554  1.2224
 6363TIP3    H240581   0.917   2.827  14.422  3.3640 -0.5222  0.3100
 6364TIP3   OH240582   3.103   3.329   0.875  0.1307  0.2427 -0.1113
 6364TIP3    H140583   3.153   3.260   0.919 -0.7955 -0.6662 -0.4342
 6364TIP3    H240584   3.014   3.296   0.874 -0.0737  0.7836 -1.6024
 6365TIP3   OH240585   1.272   2.787  15.515 -0.1656 -0.2451  0.2856
 6365TIP3    H140586   1.341   2.850  15.498 -0.4151 -0.1303 -0.3021
 6365TIP3    H240587   1.289   2.757  15.605 -0.0130  0.6042  0.5466
 6366TIP3   OH240588   1.802   5.811   2.361 -0.4490  0.1076 -0.0766
 6366TIP3    H140589   1.880   5.838   2.313  0.0622 -0.6553  0.3154
 6366TIP3    H240590   1.732   5.865   2.325  0.5539  2.0852  0.7648
 6367TIP3   OH240591   6.584   3.473   4.459 -0.5985  0.6720 -0.5322
 6367TIP3    H140592   6.631   3.395   4.431 -2.1049 -0.8793  0.9959
 6367TIP3    H240593   6.502   3.471   4.410 -0.6883  1.2398 -0.4107
 6368TIP3   OH240594   6.063   4.038  12.825  0.1893  0.6120 -0.2882
 6368TIP3    H140595   6.042   4.117  12.875  0.5708  1.4763 -1.4357
 6368TIP3    H240596   5.991   3.977  12.845  0.5242  0.7616  1.5663
 6369TIP3   OH240597   5.919   6.486   1.107  0.3180  0.4241 -0.0851
 6369TIP3    H140598   5.934   6.534   1.188  1.2391  1.4252 -0.8158
 6369TIP3    H240599   5.992   6.425   1.100 -0.4517 -0.5793  0.4672
 6370TIP3   OH240600   5.021   1.903   0.097  1.1642  0.1892  0.1371
 6370TIP3    H140601   5.115   1.918   0.096  1.0623  1.0628 -1.8643
 6370TIP3    H240602   4.984   1.986   0.127  0.9710  0.9391 -1.9766
 6371TIP3   OH240603   2.757   0.968  14.374 -0.1065  0.3028 -0.0874
 6371TIP3    H140604   2.843   0.997  14.405 -0.5698  1.5458  0.0955
 6371TIP3    H240605   2.731   0.900  14.436  1.6299 -1.6093 -1.3533
 6372TIP3   OH240606   4.301   5.696  15.190  0.2775  0.0195  0.5611
 6372TIP3    H140607   4.293   5.751  15.267  1.1680  0.1403  0.5787
 6372TIP3    H240608   4.332   5.611  15.224  0.1627 -0.0871  0.3988
 6373TIP3   OH240609   0.139   2.504  12.792 -0.4487 -0.3926  0.5391
 6373TIP3    H140610   0.209   2.469  12.736 -0.1122 -0.1573  0.8095
 6373TIP3    H240611   0.153   2.463  12.877  0.1355  0.6067  0.9476
 6374TIP3   OH240612   4.064   0.991   4.234 -0.0735  0.3922 -0.4702
 6374TIP3    H140613   4.038   0.913   4.284  0.0750  0.3191 -0.5061
 6374TIP3    H240614   4.153   0.972   4.205 -0.9998 -0.6786 -2.9047
 6375TIP3   OH240615   1.595   3.146   4.497  0.9849 -0.0835 -0.0166
 6375TIP3    H140616   1.625   3.057   4.478  0.0261 -0.3140 -0.5028
 6375TIP3    H240617   1.534   3.167   4.426  0.2802  0.5060  0.7444
 6376TIP3   OH240618   2.411   6.335  17.272 -0.0236  0.9836 -0.4097
 6376TIP3    H140619   2.431   6.301  17.184 -0.6627  1.9697 -0.9557
 6376TIP3    H240620   2.453   6.273  17.331  1.4469  0.9297 -1.4295
 6377TIP3   OH240621   5.736   4.630  12.524 -0.3460 -0.1275  0.3831
 6377TIP3    H140622   5.771   4.680  12.598 -1.1727 -0.1109  0.7740
 6377TIP3    H240623   5.812   4.585  12.488  0.6496  2.1487 -0.5971
 6378TIP3   OH240624   6.291   5.030  16.108  0.3515 -0.4428  0.0051
 6378TIP3    H140625   6.230   5.090  16.066  0.0303 -0.3842  0.5414
 6378TIP3    H240626   6.287   4.951  16.054  0.2593 -0.2274 -0.3086
 6379TIP3   OH240627   0.681   3.085  16.215  0.3090  0.1253  0.5705
 6379TIP3    H140628   0.732   3.164  16.234  1.8566 -0.9291  0.9616
 6379TIP3    H240629   0.590   3.116  16.211  0.8647  1.9069  0.7597
 6380TIP3   OH240630   3.439   1.422   5.746 -0.1058 -0.3768  0.0652
 6380TIP3    H140631   3.472   1.511   5.764  2.3928 -1.3964  1.0031
 6380TIP3    H240632   3.383   1.402   5.822  0.6098 -0.1690  0.6646
 6381TIP3   OH240633   3.021   0.338   6.139 -0.1384  0.0779  0.5143
 6381TIP3    H140634   3.096   0.280   6.125 -0.5903 -0.2636 -0.5992
 6381TIP3    H240635   2.948   0.278   6.157 -1.0724  0.0781 -2.6357
 6382TIP3   OH240636   0.877   5.146   3.099  0.3776 -0.1476  0.0975
 6382TIP3    H140637   0.944   5.175   3.037  0.6105 -0.6816  0.0911
 6382TIP3    H240638   0.794   5.168   3.057  0.4837 -1.8416 -1.1242
 6383TIP3   OH240639   4.784   3.733  13.081 -0.1905  0.1553 -0.2139
 6383TIP3    H140640   4.837   3.681  13.141 -0.9602  0.5583  0.8453
 6383TIP3    H240641   4.847   3.774  13.021  0.5421 -0.6596 -0.0045
 6384TIP3   OH240642   6.681   4.033  15.822  0.1261 -0.5391  0.2362
 6384TIP3    H140643   6.694   3.961  15.884  1.9330  0.5009  1.1238
 6384TIP3    H240644   6.628   3.994  15.752  1.3625 -2.8587  0.4806
 6385TIP3   OH240645   6.154   0.432  12.533  1.0288  0.1686  0.5996
 6385TIP3    H140646   6.148   0.383  12.451  1.8608  0.8723  0.1070
 6385TIP3    H240647   6.199   0.513  12.509  1.4155  0.3132  1.7866
 6386TIP3   OH240648   3.360   2.120   5.551  0.6286 -0.4331  0.3343
 6386TIP3    H140649   3.295   2.145   5.617  2.0673  0.7689  1.3402
 6386TIP3    H240650   3.312   2.124   5.468 -1.3411 -2.4060  1.2658
 6387TIP3   OH240651   5.075   2.373  12.110 -0.1758 -0.2116  0.5476
 6387TIP3    H140652   5.035   2.362  12.023 -1.4732  1.0060  0.9504
 6387TIP3    H240653   5.007   2.345  12.171  1.3451 -2.7589  1.1969
 6388TIP3   OH240654   4.113   0.014   3.510  0.0319  0.0312 -0.3105
 6388TIP3    H140655   4.050   0.081   3.538  1.6373  2.4356 -2.0876
 6388TIP3    H240656   4.197   0.059   3.509  1.6300 -2.6988  0.5899
 6389TIP3   OH240657   0.402   4.025  17.283  0.0008 -0.1613 -0.4314
 6389TIP3    H140658   0.372   4.077  17.357  1.4907  0.3295 -0.1260
 6389TIP3    H240659   0.415   3.937  17.319  0.6265  0.0530 -0.1109
 6390TIP3   OH240660   6.022   2.928  10.718  0.5236  0.0380 -0.1606
 6390TIP3    H140661   5.941   2.933  10.768 -0.1821  0.1381 -1.2842
 6390TIP3    H240662   6.006   2.862  10.652  1.8863 -0.9965  0.4824
 6391TIP3   OH240663   1.441   2.768  14.043  0.0985  0.3970 -0.1138
 6391TIP3    H140664   1.382   2.837  14.013  0.9899  1.1430 -0.1702
 6391TIP3    H240665   1.390   2.721  14.110 -0.5012  1.1257 -0.0413
 6392TIP3   OH240666   6.067   6.325   4.832 -0.5090 -0.9402  0.1413
 6392TIP3    H140667   6.113   6.362   4.907 -0.5351  0.8578 -0.6822
 6392TIP3    H240668   6.131   6.327   4.761 -1.1694 -0.4314 -0.4635
 6393TIP3   OH240669   2.248   3.365   1.174  0.0839 -0.2037  0.3328
 6393TIP3    H140670   2.156   3.392   1.163 -0.4692 -1.7478  0.9519
 6393TIP3    H240671   2.288   3.438   1.222 -0.9040  0.3308  0.3816
 6394TIP3   OH240672   0.462   2.720  12.053 -0.5515 -0.0903 -0.5484
 6394TIP3    H140673   0.400   2.650  12.077 -0.2599 -0.4871 -0.9342
 6394TIP3    H240674   0.521   2.725  12.128  1.2497 -2.3303 -1.6895
 6395TIP3   OH240675   2.230   5.863   4.466 -0.0363  0.6560 -0.0786
 6395TIP3    H140676   2.172   5.830   4.397  0.3110  2.3527 -1.2538
 6395TIP3    H240677   2.207   5.956   4.474  0.9964  0.8412  1.0126
 6396TIP3   OH240678   6.213   4.474   3.816  0.7394 -0.3893 -0.1820
 6396TIP3    H140679   6.198   4.568   3.807 -3.0023 -0.9885 -2.9290
 6396TIP3    H240680   6.244   4.446   3.730  1.9241 -1.7182  0.6243
 6397TIP3   OH240681   0.830   4.036  14.636 -0.5642  0.1267  0.5419
 6397TIP3    H140682   0.830   4.026  14.541  0.3981 -2.0273  0.7131
 6397TIP3    H240683   0.918   4.069  14.656 -0.1907 -0.9407  0.7620
 6398TIP3   OH240684   2.474   5.179  14.457  0.4507 -0.4697 -0.5903
 6398TIP3    H140685   2.409   5.246  14.435 -0.2211 -0.7766  0.3826
 6398TIP3    H240686   2.543   5.227  14.504  1.2844 -0.0274 -2.2159
 6399TIP3   OH240687   1.526   5.143   0.569 -0.1068 -0.0239 -0.8190
 6399TIP3    H140688   1.496   5.231   0.590 -0.9357 -0.1250 -1.5205
 6399TIP3    H240689   1.553   5.148   0.478 -0.1923 -0.5047 -0.8727
 6400TIP3   OH240690   5.036   4.040   4.216 -0.1858 -0.2031 -0.2693
 6400TIP3    H140691   4.983   4.049   4.295  0.9992 -1.5735  0.7305
 6400TIP3    H240692   5.095   4.116   4.218  0.5011 -0.7466  0.7151
 6401TIP3   OH240693   5.466   0.242  16.872 -0.4230 -0.3744 -0.0514
 6401TIP3    H140694   5.550   0.201  16.894  0.8162  1.7824 -0.4985
 6401TIP3    H240695   5.417   0.242  16.954 -0.0971 -1.8392  0.1745
 6402TIP3   OH240696   0.383   5.010  15.273  0.5509 -0.0683 -0.4034
 6402TIP3    H140697   0.382   5.103  15.251 -1.0834 -0.0066 -0.1565
 6402TIP3    H240698   0.476   4.990  15.284  1.0640  1.1384 -2.0754
 6403TIP3   OH240699   0.937   0.838  16.675  0.0920  0.1603  0.2040
 6403TIP3    H140700   0.932   0.808  16.766  0.8231 -2.5928 -0.5779
 6403TIP3    H240701   0.869   0.904  16.668 -0.5295 -0.1410  2.5408
 6404TIP3   OH240702   0.133   6.617   0.120 -0.4981 -0.9692 -0.2473
 6404TIP3    H140703   0.224   6.586   0.119 -0.2462 -0.2277 -1.1921
 6404TIP3    H240704   0.116   6.636   0.213  0.0698 -1.7747  0.0352
 6405TIP3   OH240705   5.565   6.611  13.550 -0.4980 -0.2346  0.4966
 6405TIP3    H140706   5.530   6.619  13.638 -0.7686 -2.3337  0.6352
 6405TIP3    H240707   5.490   6.625  13.492 -1.2362 -2.7541  0.7447
 6406TIP3   OH240708   5.858   1.808   0.822  0.2883 -0.1386 -0.6598
 6406TIP3    H140709   5.811   1.891   0.833 -2.6440 -1.8649  0.9878
 6406TIP3    H240710   5.896   1.790   0.907 -0.5588 -1.2690 -0.5012
 6407TIP3   OH240711   1.293   2.153  16.397 -0.2314 -0.0321 -0.1008
 6407TIP3    H140712   1.309   2.228  16.455  1.0661 -1.6484  1.7576
 6407TIP3    H240713   1.237   2.094  16.448  0.8016 -1.4244 -0.5027
 6408TIP3   OH240714   1.678   0.190   4.485  0.6697 -0.0963  0.4760
 6408TIP3    H140715   1.703   0.217   4.396  1.2041  1.1409  0.9732
 6408TIP3    H240716   1.693   0.268   4.538  1.4426 -1.1420  1.8563
 6409TIP3   OH240717   0.423   2.581  11.307  0.1994 -0.2795  0.4486
 6409TIP3    H140718   0.386   2.495  11.328 -2.8291  0.6584 -0.5299
 6409TIP3    H240719   0.459   2.570  11.219  1.9326 -1.0651  1.2023
 6410TIP3   OH240720   1.225   6.651   6.062  0.9126 -0.3154  0.3629
 6410TIP3    H140721   1.193   6.741   6.065 -3.4908 -1.5136 -1.8975
 6410TIP3    H240722   1.237   6.632   5.969  2.3551 -1.9095  0.8205
 6411TIP3   OH240723   1.521   2.782   6.642  0.3411  0.3734  0.0047
 6411TIP3    H140724   1.598   2.751   6.689  1.0225 -0.6578 -1.7170
 6411TIP3    H240725   1.492   2.859   6.692  1.1609 -0.4996  1.9204
 6412TIP3   OH240726   1.992   2.473   3.997 -0.1725 -0.0672 -0.7102
 6412TIP3    H140727   2.081   2.439   3.984  0.0905  0.6407 -0.8118
 6412TIP3    H240728   1.957   2.480   3.909 -1.1274 -2.3562 -0.5855
 6413TIP3   OH240729   4.923   5.152  15.650  0.1984  0.1168  0.5615
 6413TIP3    H140730   4.875   5.093  15.593  0.8640  0.4263 -0.3548
 6413TIP3    H240731   4.937   5.230  15.596  0.1078  0.7524  1.4459
 6414TIP3   OH240732   0.938   1.333  11.706  0.5884  0.3269  0.4661
 6414TIP3    H140733   0.975   1.287  11.631  3.5941  1.4013  1.1613
 6414TIP3    H240734   0.896   1.264  11.758 -0.9840 -0.5326 -1.7740
 6415TIP3   OH240735   4.135   2.437   6.105 -0.0469 -0.6095  0.8984
 6415TIP3    H140736   4.077   2.485   6.165  1.4679  1.3017  0.9276
 6415TIP3    H240737   4.195   2.390   6.162  0.0793 -0.4714  0.8800
 6416TIP3   OH240738   0.898   6.471   3.250  0.1316  0.4180  0.0766
 6416TIP3    H140739   0.987   6.487   3.219  0.4788  1.1164  1.3513
 6416TIP3    H240740   0.847   6.455   3.171  1.4314 -0.2444 -0.6622
 6417TIP3   OH240741   6.404   0.582   5.135  0.5718  0.5703  0.2226
 6417TIP3    H140742   6.375   0.602   5.046 -1.3158  0.7955  0.8402
 6417TIP3    H240743   6.497   0.559   5.126 -0.0308 -1.4012 -2.0908
 6418TIP3   OH240744   3.389   4.932   4.440  0.0575 -0.4377  0.1561
 6418TIP3    H140745   3.297   4.907   4.450  0.0419 -0.7133 -0.6140
 6418TIP3    H240746   3.388   5.028   4.445 -0.3309 -0.4153 -0.2831
 6419TIP3   OH240747   1.794   2.706  13.560 -0.0452 -0.4795 -0.4260
 6419TIP3    H140748   1.848   2.778  13.527 -0.8974  0.5301  0.3055
 6419TIP3    H240749   1.732   2.689  13.489 -1.4165  1.2042  0.3056
 6420TIP3   OH240750   4.106   0.352   3.179 -0.1379 -0.2418 -0.4371
 6420TIP3    H140751   4.169   0.301   3.127  0.7251  0.4373 -0.0831
 6420TIP3    H240752   4.160   0.397   3.243 -0.8564  1.3253 -0.8992
 6421TIP3   OH240753   5.607   4.042   1.787  0.0412 -0.1022  0.3050
 6421TIP3    H140754   5.635   3.984   1.716 -1.5930  2.1104 -2.3683
 6421TIP3    H240755   5.515   4.018   1.802 -0.4604  1.3177 -0.3908
 6422TIP3   OH240756   1.411   6.240  14.776 -0.4730 -0.1002  0.0751
 6422TIP3    H140757   1.320   6.268  14.785 -1.2977 -2.5690  0.1123
 6422TIP3    H240758   1.427   6.240  14.681 -0.8714 -0.6401  0.0033
 6423TIP3   OH240759   5.470   1.766   4.532 -0.2060 -0.8967 -0.3785
 6423TIP3    H140760   5.550   1.718   4.514  0.8056  0.5566  0.0405
 6423TIP3    H240761   5.500   1.852   4.563 -1.9201 -0.3317 -0.1734
 6424TIP3   OH240762   1.519   2.607  12.404 -0.0825 -0.3453  0.2159
 6424TIP3    H140763   1.592   2.561  12.364 -0.2110  0.1411 -0.6203
 6424TIP3    H240764   1.521   2.582  12.496  0.5628 -1.0661  0.0111
 6425TIP3   OH240765   5.888   3.504  13.516  0.0997  0.4239 -0.3333
 6425TIP3    H140766   5.974   3.491  13.476  0.6451 -0.7282  1.1152
 6425TIP3    H240767   5.858   3.416  13.537 -0.5978  0.9340  0.8885
 6426TIP3   OH240768   3.779   3.160  14.070 -0.1830  0.0641  0.0943
 6426TIP3    H140769   3.735   3.091  14.120  1.0946 -1.0015 -0.2118
 6426TIP3    H240770   3.800   3.227  14.135 -1.6631  0.3145  0.3545
 6427TIP3   OH240771   4.411   0.640  14.281  0.1178  0.0245  0.2998
 6427TIP3    H140772   4.431   0.635  14.375  1.8972 -1.9595 -0.1314
 6427TIP3    H240773   4.338   0.580  14.269  1.2156 -1.3102  0.1242
 6428TIP3   OH240774   2.157   0.556  13.681 -0.6813 -0.0085 -0.1245
 6428TIP3    H140775   2.201   0.499  13.618  0.0833 -0.1935  0.5607
 6428TIP3    H240776   2.153   0.641  13.637  0.6633  0.0977 -0.0900
 6429TIP3   OH240777   4.108   3.373   1.013 -0.2979 -0.4332  0.0143
 6429TIP3    H140778   4.013   3.376   1.007 -0.2720 -0.3114 -0.3753
 6429TIP3    H240779   4.130   3.281   0.999 -0.3123 -0.3378 -0.6600
 6430TIP3   OH240780   6.681   5.311   4.043  0.0473 -0.3146  0.1043
 6430TIP3    H140781   6.763   5.314   3.993 -0.0272 -1.5356 -0.1187
 6430TIP3    H240782   6.619   5.364   3.992  0.0795 -1.2171 -0.9045
 6431TIP3   OH240783   2.420   5.768   4.628 -0.2058 -0.2940  0.2149
 6431TIP3    H140784   2.454   5.835   4.687 -0.1784  1.2252 -1.4468
 6431TIP3    H240785   2.337   5.803   4.596 -0.3777 -1.2244 -0.4159
 6432TIP3   OH240786   0.486   1.449   0.766 -0.0263  0.3538  0.5044
 6432TIP3    H140787   0.419   1.517   0.768  0.5885  0.9572  1.6600
 6432TIP3    H240788   0.498   1.430   0.673 -0.0884  1.9414  0.1466
 6433TIP3   OH240789   3.935   6.242  14.574 -0.2003 -0.2942  0.5210
 6433TIP3    H140790   3.936   6.184  14.650  1.3214  0.6670  1.2710
 6433TIP3    H240791   3.854   6.219  14.528 -0.6240 -1.6260  1.8445
 6434TIP3   OH240792   1.014   2.083  16.509 -0.5383  0.2679  0.3913
 6434TIP3    H140793   1.019   2.000  16.557 -0.4119 -1.6876 -2.7101
 6434TIP3    H240794   0.988   2.058  16.421 -1.3420  3.6843 -0.4887
 6435TIP3   OH240795   5.337   2.231  14.292 -0.7038  0.5045  0.2239
 6435TIP3    H140796   5.361   2.260  14.204 -0.4610  3.1162  1.0605
 6435TIP3    H240797   5.413   2.255  14.346 -2.0348  1.7704  1.6113
 6436TIP3   OH240798   1.558   4.476  12.740 -0.0767  0.1231 -0.1886
 6436TIP3    H140799   1.536   4.550  12.797  2.0277 -0.9204  2.1668
 6436TIP3    H240800   1.642   4.500  12.701 -1.4034  0.7462 -2.9125
 6437TIP3   OH240801   5.797   6.227  12.028 -0.2032 -0.0345 -0.4165
 6437TIP3    H140802   5.858   6.203  12.098  0.7166  0.1478 -1.1236
 6437TIP3    H240803   5.804   6.156  11.965  0.2241  0.5776 -1.0787
 6438TIP3   OH240804   5.474   3.653   2.891  0.2279 -0.3044 -0.0348
 6438TIP3    H140805   5.539   3.701   2.941 -1.1076  0.9776  0.5565
 6438TIP3    H240806   5.391   3.697   2.911 -0.5358 -0.4839 -2.4410
 6439TIP3   OH240807   0.533   2.944   0.540  0.5768 -0.6491  0.4006
 6439TIP3    H140808   0.444   2.909   0.533  0.8155 -1.5000  1.3950
 6439TIP3    H240809   0.589   2.874   0.506  1.0079 -1.0092  1.7627
 6440TIP3   OH240810   3.586   5.236  14.937  0.1709 -0.3327 -0.0553
 6440TIP3    H140811   3.505   5.253  14.890  0.3896 -0.1471 -0.3706
 6440TIP3    H240812   3.654   5.279  14.885  0.2124  1.4810  1.3851
 6441TIP3   OH240813   2.422   5.303   1.445  0.4694 -0.5119 -0.0615
 6441TIP3    H140814   2.370   5.227   1.475  0.3937 -0.1547  0.7472
 6441TIP3    H240815   2.366   5.346   1.381  0.4965 -1.1122 -0.5060
 6442TIP3   OH240816   1.760   0.770  14.762 -0.1420 -1.1261  0.5524
 6442TIP3    H140817   1.842   0.735  14.727  0.0950 -0.1464  0.1131
 6442TIP3    H240818   1.764   0.864  14.745 -1.0713 -0.9718  1.1121
 6443TIP3   OH240819   6.520   1.777  15.844  0.0073 -0.3686 -0.6265
 6443TIP3    H140820   6.453   1.732  15.793  0.4474 -1.4064 -0.3148
 6443TIP3    H240821   6.533   1.722  15.921 -0.0513  0.7387  0.2056
 6444TIP3   OH240822   4.681   1.554   6.311 -0.5157 -0.1704 -0.0384
 6444TIP3    H140823   4.691   1.486   6.378  0.4056 -0.4450 -0.4423
 6444TIP3    H240824   4.620   1.617   6.350  1.1942  0.5109  1.7526
 6445TIP3   OH240825   0.915   1.918   2.319  0.2640  0.1655 -0.0653
 6445TIP3    H140826   0.860   1.840   2.328 -3.3814  2.5996  1.0582
 6445TIP3    H240827   0.917   1.935   2.225 -1.5945  0.3610 -0.1061
 6446TIP3   OH240828   0.456   2.102   2.723 -0.1254  0.1111  0.4932
 6446TIP3    H140829   0.469   2.045   2.798  0.5232 -0.9561 -0.3914
 6446TIP3    H240830   0.490   2.052   2.649  0.3175  1.5831 -0.3435
 6447TIP3   OH240831   0.870   5.018  16.626 -0.2680  0.6591 -0.1751
 6447TIP3    H140832   0.937   4.959  16.660 -0.1160 -0.1641 -1.8569
 6447TIP3    H240833   0.910   5.059  16.549 -1.7604 -0.0290 -1.3542
 6448TIP3   OH240834   4.283   5.631   5.308  0.3487  0.1117  0.5637
 6448TIP3    H140835   4.307   5.701   5.247  0.5072  0.1289  0.6438
 6448TIP3    H240836   4.367   5.597   5.340  0.2665  0.3871  1.0956
 6449TIP3   OH240837   2.587   0.969  10.978  0.6820  0.3334 -0.2422
 6449TIP3    H140838   2.581   0.920  11.059  3.7587 -0.3239 -0.2915
 6449TIP3    H240839   2.681   0.980  10.963  0.1886  2.4504 -2.5233
 6450TIP3   OH240840   2.356   4.528   5.527  0.1684 -0.3842 -0.2758
 6450TIP3    H140841   2.288   4.595   5.516  0.1605 -0.5101 -1.1158
 6450TIP3    H240842   2.430   4.574   5.567  0.3306  0.2506 -1.2751
 6451TIP3   OH240843   3.151   0.737  11.384  0.0387 -0.4998 -0.1070
 6451TIP3    H140844   3.195   0.668  11.433  2.0774 -0.0777 -1.2037
 6451TIP3    H240845   3.131   0.697  11.299 -1.0061 -0.4460  0.1069
 6452TIP3   OH240846   5.507   6.056  15.369  0.3960  0.2247 -0.1232
 6452TIP3    H140847   5.468   6.119  15.309 -0.8727 -0.8322 -0.4549
 6452TIP3    H240848   5.511   5.975  15.319 -0.5045 -0.6272  1.1418
 6453TIP3   OH240849   3.982   4.132  13.570  0.3388 -0.5612  0.3381
 6453TIP3    H140850   3.962   4.172  13.655  0.2067 -0.8591  0.4482
 6453TIP3    H240851   4.075   4.150  13.557  0.0975  0.5036 -0.0068
 6454TIP3   OH240852   0.267   3.685  16.460  0.4382  0.7003 -0.5098
 6454TIP3    H140853   0.222   3.661  16.379  0.5694 -0.2721 -0.3116
 6454TIP3    H240854   0.225   3.630  16.527 -1.5335  3.3608  0.6227
 6455TIP3   OH240855   0.531   4.599  12.708  0.0848  0.5985 -0.2043
 6455TIP3    H140856   0.474   4.660  12.662 -1.6139 -1.0064 -0.3448
 6455TIP3    H240857   0.533   4.631  12.798 -1.3463  0.4873 -0.1172
 6456TIP3   OH240858   5.774   2.695   3.075  0.0230  0.0246  0.0439
 6456TIP3    H140859   5.734   2.611   3.051 -0.7892  0.4896 -0.2882
 6456TIP3    H240860   5.758   2.702   3.170 -1.2100  0.4452 -0.1677
 6457TIP3   OH240861   3.645   2.174   3.571 -0.3527  0.5620  0.3648
 6457TIP3    H140862   3.648   2.097   3.514  1.2876  1.2906 -0.6073
 6457TIP3    H240863   3.609   2.141   3.653 -3.9532 -0.3023 -1.3524
 6458TIP3   OH240864   0.390   1.348   0.423 -0.3437  0.1388  0.3392
 6458TIP3    H140865   0.474   1.375   0.384  0.2695  0.2735  1.6613
 6458TIP3    H240866   0.352   1.430   0.455 -1.1313  0.1132 -0.4878
 6459TIP3   OH240867   5.455   0.636  15.937  0.4803 -1.0986  0.3058
 6459TIP3    H140868   5.438   0.730  15.940  0.7349 -1.0512  0.3307
 6459TIP3    H240869   5.434   0.610  15.848 -0.6386 -1.2246  0.6001
 6460TIP3   OH240870   6.247   5.595   2.114 -0.2457  0.2962 -0.1878
 6460TIP3    H140871   6.300   5.646   2.052 -1.1265  0.4496 -0.8437
 6460TIP3    H240872   6.168   5.648   2.127 -1.0446 -0.7472 -0.6543
 6461TIP3   OH240873   5.882   6.547   6.448  0.2057  0.3962 -0.0887
 6461TIP3    H140874   5.829   6.503   6.381  0.8335 -1.5239  0.6211
 6461TIP3    H240875   5.936   6.610   6.398 -1.8175  1.5589 -0.9457
 6462TIP3   OH240876   6.068   5.493  13.460  0.4245 -0.5467 -0.0877
 6462TIP3    H140877   6.108   5.423  13.512  1.4378 -0.7116 -1.0498
 6462TIP3    H240878   5.983   5.507  13.500  0.6610 -1.5596  0.8122
 6463TIP3   OH240879   2.090   3.882  13.755  0.5380  0.1225 -0.0372
 6463TIP3    H140880   2.036   3.839  13.822  0.3500  0.9247  0.3319
 6463TIP3    H240881   2.065   3.838  13.673 -1.1642  0.9127  0.0228
 6464TIP3   OH240882   2.073   3.401  11.541  0.0736  0.7301 -0.1891
 6464TIP3    H140883   2.100   3.344  11.613 -3.1441 -0.7065  0.0704
 6464TIP3    H240884   1.980   3.418  11.557 -0.3661  1.7145 -3.1118
 6465TIP3   OH240885   2.491   5.936  13.081 -0.2236  0.2270  0.3811
 6465TIP3    H140886   2.541   6.017  13.089 -0.4955  0.6292 -1.4759
 6465TIP3    H240887   2.524   5.895  13.001 -2.1238  0.0134 -0.3538
 6466TIP3   OH240888   6.524   6.473   4.169 -0.2637  0.1444 -0.0010
 6466TIP3    H140889   6.444   6.491   4.120 -0.2301 -0.9991 -0.5051
 6466TIP3    H240890   6.501   6.492   4.260 -0.7280  1.0003 -0.2858
 6467TIP3   OH240891   4.634   6.126  13.066 -0.3366 -0.0530  0.4588
 6467TIP3    H140892   4.557   6.128  13.010  0.7696 -1.1727 -1.1983
 6467TIP3    H240893   4.658   6.033  13.071  0.3633  0.1586  1.7365
 6468TIP3   OH240894   4.505   5.041  16.559  0.2980 -0.8020 -0.0312
 6468TIP3    H140895   4.500   5.131  16.590 -1.3706 -0.4816 -1.1224
 6468TIP3    H240896   4.596   5.016  16.574  0.6989  0.9235  0.6501
 6469TIP3   OH240897   2.266   3.676  13.777 -0.1770 -0.1603 -0.7703
 6469TIP3    H140898   2.189   3.732  13.769 -0.6682 -0.8344 -0.8395
 6469TIP3    H240899   2.231   3.591  13.804  0.8079  0.3378  2.4563
 6470TIP3   OH240900   3.698   2.071  13.858  0.1287 -0.2229 -0.0201
 6470TIP3    H140901   3.742   1.988  13.879 -1.6820 -1.2263 -0.0563
 6470TIP3    H240902   3.649   2.092  13.937 -0.0496  0.3982 -0.2944
 6471TIP3   OH240903   4.789   6.199   2.291 -0.3015  0.5599  0.1575
 6471TIP3    H140904   4.867   6.210   2.346 -0.4777  1.5510  0.2267
 6471TIP3    H240905   4.750   6.286   2.286 -2.5812 -0.2458  1.8484
 6472TIP3   OH240906   1.122   0.154   2.727 -0.9897  0.5853 -0.0995
 6472TIP3    H140907   1.133   0.141   2.821 -1.2554 -1.2536 -0.2905
 6472TIP3    H240908   1.039   0.201   2.719 -0.4793  1.6621  0.6003
 6473TIP3   OH240909   4.686   2.846   0.615  0.3365  0.0592 -0.0067
 6473TIP3    H140910   4.660   2.822   0.526  0.5562  1.0946 -0.3626
 6473TIP3    H240911   4.609   2.888   0.652  0.6607  0.8189 -0.1752
 6474TIP3   OH240912   1.132   4.629   1.529 -0.1547  0.0335 -0.6999
 6474TIP3    H140913   1.225   4.644   1.509 -0.8784  1.7497 -3.1925
 6474TIP3    H240914   1.121   4.663   1.618  1.4024  0.6367 -0.6962
 6475TIP3   OH240915   1.306   3.905   1.819  0.1889  0.5718 -0.2946
 6475TIP3    H140916   1.376   3.840   1.820 -1.3643 -1.2043 -0.7197
 6475TIP3    H240917   1.284   3.916   1.727 -1.0409 -0.0234 -0.1009
 6476TIP3   OH240918   0.589   1.797   0.933 -0.3100  0.0415 -0.2294
 6476TIP3    H140919   0.525   1.764   0.871 -1.2238  0.0270  0.6987
 6476TIP3    H240920   0.542   1.802   1.016  0.6937  0.7044  0.3194
 6477TIP3   OH240921   1.827   3.330  14.899 -0.1074  0.2037 -0.0808
 6477TIP3    H140922   1.800   3.357  14.987  0.0797 -0.1292  0.0816
 6477TIP3    H240923   1.747   3.335  14.847 -0.8956 -2.2990  0.7617
 6478TIP3   OH240924   1.747   3.135  16.262  0.3192 -0.6435  0.3457
 6478TIP3    H140925   1.741   3.118  16.168  2.6799 -0.2675  0.0732
 6478TIP3    H240926   1.668   3.186  16.283 -0.8251 -1.7075 -1.1596
 6479TIP3   OH240927   2.947   5.492  14.767 -0.8403  0.2775  0.4121
 6479TIP3    H140928   2.925   5.435  14.841 -1.8250  0.8548  0.5750
 6479TIP3    H240929   2.950   5.433  14.691 -3.1231  0.1501  0.3493
 6480TIP3   OH240930   3.554   1.116   3.966  0.2981  0.4569 -0.5660
 6480TIP3    H140931   3.635   1.161   3.990 -0.0477  2.1835 -2.3708
 6480TIP3    H240932   3.484   1.172   3.999 -0.2266 -1.2409  1.3669
 6481TIP3   OH240933   6.006   6.524  12.200  0.1703  0.3643 -0.2088
 6481TIP3    H140934   6.050   6.441  12.177 -0.6680 -0.3184  0.5878
 6481TIP3    H240935   6.074   6.574  12.246  0.5435 -0.0967 -0.2401
 6482TIP3   OH240936   2.919   4.957  16.226 -0.0957 -0.3348  0.1385
 6482TIP3    H140937   2.827   4.974  16.203  0.3026  1.5304 -0.2571
 6482TIP3    H240938   2.916   4.879  16.281 -1.7788 -1.0749 -0.9205
 6483TIP3   OH240939   4.215   6.677   0.395  0.2013 -0.4943  0.1275
 6483TIP3    H140940   4.303   6.712   0.406  0.5832 -0.0638 -3.1982
 6483TIP3    H240941   4.160   6.754   0.381  0.0491 -0.9049 -1.7476
 6484TIP3   OH240942   2.678   2.585   4.564  0.6489  0.0928 -0.1893
 6484TIP3    H140943   2.618   2.511   4.559  0.3767  0.2937  0.0846
 6484TIP3    H240944   2.703   2.603   4.474 -1.2237  1.2698 -0.5237
 6485TIP3   OH240945   4.127   1.047  14.286 -0.3826  0.4061 -0.1395
 6485TIP3    H140946   4.199   1.052  14.348 -0.1093  0.1193 -0.4320
 6485TIP3    H240947   4.162   0.997  14.212 -0.9911 -0.0523 -0.1263
 6486TIP3   OH240948   0.586   0.050  14.346 -0.0987  0.1867  0.3879
 6486TIP3    H140949   0.524   0.031  14.275 -0.1691  3.1467 -0.4670
 6486TIP3    H240950   0.553  -0.002  14.420 -2.1407 -0.2576 -0.7401
 6487TIP3   OH240951   0.687   1.053  15.143 -0.1524 -0.0967  0.5599
 6487TIP3    H140952   0.620   1.024  15.081 -1.0791  1.1056  0.9546
 6487TIP3    H240953   0.722   1.134  15.103  0.5134 -0.2865  0.7432
 6488TIP3   OH240954   5.399   5.348   2.767  0.1490  0.0491 -0.3891
 6488TIP3    H140955   5.314   5.364   2.726  0.2788 -0.3375 -0.8121
 6488TIP3    H240956   5.448   5.297   2.703  0.8898  0.7011 -0.3557
 6489TIP3   OH240957   5.625   0.906  15.611 -0.9686  0.0696 -0.4123
 6489TIP3    H140958   5.675   0.923  15.531 -0.5656  1.7187  0.1499
 6489TIP3    H240959   5.597   0.992  15.641 -3.1078 -0.7083 -0.0100
 6490TIP3   OH240960   0.350   6.478  16.908  0.3587  1.0116 -0.1862
 6490TIP3    H140961   0.362   6.472  17.002 -1.0846 -1.9361 -0.0957
 6490TIP3    H240962   0.413   6.416  16.871 -0.6024  0.4737 -0.9852
 6491TIP3   OH240963   5.093   5.543   1.311 -0.0550 -0.3158 -0.3608
 6491TIP3    H140964   5.186   5.548   1.335 -0.5148 -0.5508  1.6523
 6491TIP3    H240965   5.059   5.630   1.332 -0.3926 -0.3776 -0.6432
 6492TIP3   OH240966   2.373   0.333   3.514  0.3151  0.2594 -0.3736
 6492TIP3    H140967   2.425   0.318   3.594  1.3336 -1.7442 -1.3223
 6492TIP3    H240968   2.285   0.306   3.538  0.4016  0.5931  0.3497
 6493TIP3   OH240969   1.495   5.868  14.729  0.0594 -0.5863  0.6467
 6493TIP3    H140970   1.482   5.773  14.727 -0.2023 -0.6135  2.1416
 6493TIP3    H240971   1.421   5.901  14.779 -1.4434  0.7693 -2.2964
 6494TIP3   OH240972   2.345   3.500   4.920 -0.5219  0.4737 -0.1250
 6494TIP3    H140973   2.258   3.491   4.880 -2.0123 -1.7989  3.1407
 6494TIP3    H240974   2.388   3.417   4.902 -1.8707 -1.3568  3.8357
 6495TIP3   OH240975   5.446   2.005  17.368  0.0993  0.3559  0.5138
 6495TIP3    H140976   5.528   2.017  17.320 -0.2737 -0.3754 -0.3373
 6495TIP3    H240977   5.380   1.990  17.300 -0.9294  1.8208  1.1240
 6496TIP3   OH240978   1.448   3.221   0.646 -0.7579 -0.5054  0.4665
 6496TIP3    H140979   1.503   3.190   0.573  1.0369  0.5642  1.2878
 6496TIP3    H240980   1.364   3.241   0.606 -0.2743 -1.3272 -1.0368
 6497TIP3   OH240981   3.357   6.319  16.520 -0.1184  0.1702 -0.0700
 6497TIP3    H140982   3.272   6.279  16.499 -0.6382  1.4029 -0.4490
 6497TIP3    H240983   3.394   6.341  16.435 -0.0132  0.8043  0.1353
 6498TIP3   OH240984   0.286   3.294   5.968 -0.5205 -0.1677  0.5767
 6498TIP3    H140985   0.200   3.260   5.992 -0.7534  1.8875  3.1224
 6498TIP3    H240986   0.300   3.368   6.027  1.4818  1.8147 -2.1157
 6499TIP3   OH240987   1.392   3.368   1.073  0.2602  0.0353  0.4383
 6499TIP3    H140988   1.384   3.276   1.047  2.2728  0.0758 -0.5338
 6499TIP3    H240989   1.396   3.366   1.169  0.8554 -0.9571  0.4023
 6500TIP3   OH240990   0.269   0.400   1.891 -0.1519  0.7950  0.1386
 6500TIP3    H140991   0.240   0.479   1.847  0.0222  0.3804 -0.7387
 6500TIP3    H240992   0.319   0.352   1.825  0.4906  0.3629  0.9133
 6501TIP3   OH240993   1.440   3.649  11.810  0.4635 -0.0854 -0.8380
 6501TIP3    H140994   1.402   3.677  11.893 -2.4369  1.7187 -2.5846
 6501TIP3    H240995   1.534   3.666  11.819  0.1494  0.7114  1.7841
 6502TIP3   OH240996   1.239   6.147   0.472  0.0984  0.1357  0.1359
 6502TIP3    H140997   1.275   6.214   0.531  0.6868  1.3715 -1.5265
 6502TIP3    H240998   1.172   6.193   0.421  1.5054 -0.0649 -2.0510
 6503TIP3   OH240999   0.715   2.417   5.686  0.0715 -0.1112  0.3770
 6503TIP3    H141000   0.699   2.367   5.606 -1.9656  0.6697  0.2354
 6503TIP3    H241001   0.740   2.352   5.751  1.0218 -0.8450 -0.6837
 6504TIP3   OH241002   3.227   0.430   3.287 -0.0763  0.2033  0.2699
 6504TIP3    H141003   3.276   0.503   3.325 -1.0895  0.5248  1.0008
 6504TIP3    H241004   3.171   0.471   3.221 -1.4603  0.2830  1.4432
 6505TIP3   OH241005   4.894   4.124  15.720  0.2037  0.6896  0.0763
 6505TIP3    H141006   4.883   4.089  15.632 -0.3170 -1.4908  0.9396
 6505TIP3    H241007   4.989   4.120  15.736  0.2065  0.1952 -0.0492
 6506TIP3   OH241008   4.789   5.605   0.326  0.3319  0.1490 -0.0785
 6506TIP3    H141009   4.852   5.665   0.367  1.3074 -1.7778  1.3916
 6506TIP3    H241010   4.839   5.558   0.260 -0.4418  0.9012 -1.2548
 6507TIP3   OH241011   3.826   6.407   0.937 -0.2028 -0.0816  0.3202
 6507TIP3    H141012   3.863   6.427   1.023  2.1279 -1.3185 -0.3122
 6507TIP3    H241013   3.819   6.492   0.894 -2.8457  0.7680  2.1682
 6508TIP3   OH241014   4.633   1.259  17.301 -0.1243  0.2085  0.0647
 6508TIP3    H141015   4.616   1.265  17.395  0.8939 -0.8818  0.3420
 6508TIP3    H241016   4.581   1.184  17.272 -0.9540  0.9517 -0.3752
 6509TIP3   OH241017   5.677   4.283   1.918 -0.2132  0.2937  0.3817
 6509TIP3    H141018   5.693   4.192   1.894  0.2827  0.5172 -0.1714
 6509TIP3    H241019   5.735   4.333   1.861  1.3997  0.8460  2.4020
 6510TIP3   OH241020   6.053   6.281   3.872  0.2961  0.4854  0.2753
 6510TIP3    H141021   6.067   6.202   3.819 -1.4534  1.2765 -1.4887
 6510TIP3    H241022   5.990   6.254   3.939 -1.1225  0.5831 -0.9665
 6511TIP3   OH241023   2.295   6.305  14.061  0.1561 -0.4315  0.2022
 6511TIP3    H141024   2.321   6.216  14.088  1.1680 -0.6602 -1.3923
 6511TIP3    H241025   2.356   6.363  14.106  0.4644 -0.6451  0.0576
 6512TIP3   OH241026   3.127   2.782  10.904 -0.4526 -0.1380 -0.5818
 6512TIP3    H141027   3.053   2.831  10.867 -0.2132  0.8995  0.2465
 6512TIP3    H241028   3.090   2.698  10.929 -1.1550  0.0462 -0.9670
 6513TIP3   OH241029   2.816   1.952   5.773 -0.2952 -0.1651 -0.3574
 6513TIP3    H141030   2.789   2.043   5.757  0.9326  0.0088 -1.7017
 6513TIP3    H241031   2.898   1.960   5.823 -0.2948 -0.5318 -0.2977
 6514TIP3   OH241032   0.373   1.774   4.144  0.2632  0.2070 -0.0426
 6514TIP3    H141033   0.339   1.813   4.063  0.9247 -1.0388 -0.9615
 6514TIP3    H241034   0.464   1.754   4.124  0.3904 -0.2660  0.9646
 6515TIP3   OH241035   2.933   3.148  17.276  0.0382  0.4730 -0.1488
 6515TIP3    H141036   2.928   3.173  17.368 -1.5894 -0.7172  0.1280
 6515TIP3    H241037   2.929   3.052  17.276  0.8285  0.4088 -1.4274
 6516TIP3   OH241038   4.251   1.631   2.765  0.2438  0.2619 -0.2084
 6516TIP3    H141039   4.199   1.631   2.846  1.5062  0.1927  0.6309
 6516TIP3    H241040   4.280   1.540   2.756  1.7729  0.6604  0.3928
 6517TIP3   OH241041   0.117   5.875  15.730  0.0557  0.1924  0.2883
 6517TIP3    H141042   0.150   5.936  15.665 -1.0537 -0.6891 -1.1382
 6517TIP3    H241043   0.178   5.801  15.726 -1.3791 -0.9652 -1.5897
 6518TIP3   OH241044   3.005   5.414  12.347  0.4811 -0.2764  0.2742
 6518TIP3    H141045   2.974   5.504  12.350  0.5438 -0.2706  3.2815
 6518TIP3    H241046   2.930   5.365  12.311 -0.4224  0.6793  0.7893
 6519TIP3   OH241047   2.296   3.865   2.429 -0.1024 -0.2520 -0.3792
 6519TIP3    H141048   2.209   3.903   2.437 -0.6390 -0.7968 -2.8475
 6519TIP3    H241049   2.294   3.789   2.488 -1.5528 -0.6562 -0.9070
 6520TIP3   OH241050   0.747   6.493  12.578  0.3560 -0.0567 -0.0044
 6520TIP3    H141051   0.783   6.568  12.530  1.2574 -1.6785 -2.0235
 6520TIP3    H241052   0.804   6.484  12.654  0.1465  1.3683  0.3429
 6521TIP3   OH241053   3.068   4.020  17.432  0.1542 -0.1667 -0.8893
 6521TIP3    H141054   3.157   4.007  17.399  0.5666  2.7377 -1.1933
 6521TIP3    H241055   3.076   4.093  17.494 -1.5660 -1.7808  1.3946
 6522TIP3   OH241056   4.278   4.755   0.050 -0.5068  0.9323 -0.2622
 6522TIP3    H141057   4.344   4.686   0.037 -3.2804 -2.5690  2.2105
 6522TIP3    H241058   4.321   4.835   0.020  3.5945 -1.5547 -1.9030
 6523TIP3   OH241059   6.542   1.594  13.033 -0.0700  0.7425 -0.0302
 6523TIP3    H141060   6.553   1.604  12.939 -1.3752 -0.2426 -0.3270
 6523TIP3    H241061   6.456   1.552  13.043  0.5038 -0.1579  1.5390
 6524TIP3   OH241062   5.667   2.616  13.396  0.6137 -0.7853  0.2074
 6524TIP3    H141063   5.603   2.598  13.327  0.4382  1.3336 -0.2568
 6524TIP3    H241064   5.727   2.543  13.393  0.6935 -0.6945 -2.3199
 6525TIP3   OH241065   0.253   1.143   0.280  0.0026  0.3275 -0.0932
 6525TIP3    H141066   0.168   1.176   0.252 -0.8077  0.3038  2.1800
 6525TIP3    H241067   0.286   1.210   0.340  2.5164  1.2795 -2.3302
 6526TIP3   OH241068   4.547   1.831  13.343 -0.6234  1.2992  0.0349
 6526TIP3    H141069   4.549   1.866  13.253 -0.5782  0.7631 -0.1727
 6526TIP3    H241070   4.484   1.886  13.388 -2.3336  0.1747 -0.8988
 6527TIP3   OH241071   3.172   0.221   3.033  0.0374 -0.1858 -0.3573
 6527TIP3    H141072   3.126   0.206   3.115  1.1405  0.4427  0.4099
 6527TIP3    H241073   3.251   0.168   3.039  0.0594 -0.2452 -1.0743
 6528TIP3   OH241074   5.197   1.509  15.612  0.5876 -0.3231  0.1989
 6528TIP3    H141075   5.179   1.583  15.555 -2.0563  0.7004  2.1265
 6528TIP3    H241076   5.112   1.465  15.620  0.5318  0.1554  3.9100
 6529TIP3   OH241077   1.260   2.125   1.056 -0.0197  0.1465 -0.1253
 6529TIP3    H141078   1.276   2.043   1.103 -1.6668  0.1538  0.5036
 6529TIP3    H241079   1.216   2.099   0.976 -0.5295  0.3974  0.0651
 6530TIP3   OH241080   5.045   0.859   0.243 -0.1254  0.3697 -0.0877
 6530TIP3    H141081   5.046   0.815   0.328  0.2174  0.1402 -0.2067
 6530TIP3    H241082   5.104   0.807   0.189  0.6377  1.2267 -0.1031
 6531TIP3   OH241083   3.688   1.322  17.366  0.7680  0.1950 -0.0829
 6531TIP3    H141084   3.713   1.293  17.278 -1.2300 -0.3023 -0.5498
 6531TIP3    H241085   3.611   1.268  17.387  0.9520  0.6109  1.7943
 6532TIP3   OH241086   6.072   2.701  12.822 -0.0068 -0.0763  0.3391
 6532TIP3    H141087   6.036   2.670  12.905  0.4248 -1.4758  0.0227
 6532TIP3    H241088   6.166   2.709  12.839  0.1025 -0.5130 -0.0587
 6533TIP3   OH241089   0.404   3.894   3.440  0.1497  0.0748 -0.2033
 6533TIP3    H141090   0.385   3.805   3.412 -0.0717  0.4893 -1.3950
 6533TIP3    H241091   0.485   3.916   3.394  1.0514 -0.0369  1.2678
 6534TIP3   OH241092   1.975   6.755  15.080  0.0727  0.1459  0.3483
 6534TIP3    H141093   2.052   6.807  15.103  0.0744  0.2612  0.0896
 6534TIP3    H241094   1.900   6.809  15.107  0.0750  0.2737  0.1061
 6535TIP3   OH241095   3.188   5.603   6.385  0.5404  0.4187 -0.2888
 6535TIP3    H141096   3.098   5.588   6.358  1.1763 -2.0755 -1.2694
 6535TIP3    H241097   3.190   5.695   6.414 -2.6722  0.0707  1.4369
 6536TIP3   OH241098   3.110   3.606  15.309  0.1754  0.0446  0.1035
 6536TIP3    H141099   3.056   3.618  15.388  0.3836 -1.1181  0.4414
 6536TIP3    H241100   3.196   3.581  15.343  0.1605 -0.8516 -0.4923
 6537TIP3   OH241101   3.150   1.261   5.406  0.4060  0.0120 -0.3341
 6537TIP3    H141102   3.093   1.297   5.338 -0.1100 -1.3398 -0.6696
 6537TIP3    H241103   3.213   1.330   5.426  0.1559  0.6561 -1.7246
 6538TIP3   OH241104   5.324   0.004   6.433  0.1727  0.4554 -0.5739
 6538TIP3    H141105   5.280   0.086   6.455  1.7849  1.1551  0.2362
 6538TIP3    H241106   5.274  -0.064   6.478 -0.8141  1.0513 -0.7426
 6539TIP3   OH241107   5.458   1.595   3.335 -0.6771 -0.2585 -0.0454
 6539TIP3    H141108   5.433   1.687   3.341  0.6383  0.2502 -1.7079
 6539TIP3    H241109   5.378   1.550   3.308 -1.8426  0.0347  2.5550
 6540TIP3   OH241110   2.289   5.538  11.945 -0.9697  0.8830  0.6955
 6540TIP3    H141111   2.366   5.571  11.900 -1.0843 -0.6577 -0.7356
 6540TIP3    H241112   2.323   5.496  12.023 -0.1071 -1.1184 -0.6632
 6541TIP3   OH241113   1.763   0.791  11.790 -0.3433 -0.1495 -0.0954
 6541TIP3    H141114   1.694   0.757  11.847  0.0208  1.2184  1.2348
 6541TIP3    H241115   1.825   0.833  11.850  2.8781 -3.1839 -0.9413
 6542TIP3   OH241116   1.892   3.452  12.312  0.1431  0.0777 -0.2245
 6542TIP3    H141117   1.931   3.478  12.396 -1.0469  1.5473 -0.0641
 6542TIP3    H241118   1.830   3.383  12.335  1.1090 -0.7875 -0.1747
 6543TIP3   OH241119   4.827   4.287  12.199  0.1166  0.6389 -0.2203
 6543TIP3    H141120   4.764   4.252  12.262  0.7588 -1.0873 -0.4992
 6543TIP3    H241121   4.848   4.375  12.233  0.5093 -0.2524  2.0203
 6544TIP3   OH241122   3.107   2.548  12.767  0.2945  0.1197  0.6347
 6544TIP3    H141123   3.145   2.465  12.797  0.3383 -1.4529 -3.2039
 6544TIP3    H241124   3.182   2.605  12.751  0.4838 -0.1613  0.5223
 6545TIP3   OH241125   3.790   1.195  13.973 -0.2161 -0.1123  0.4306
 6545TIP3    H141126   3.872   1.156  13.942 -0.8930 -0.7294 -0.6595
 6545TIP3    H241127   3.814   1.240  14.054  1.2797  0.1000 -0.0968
 6546TIP3   OH241128   0.734   5.142  15.110 -0.3040  0.2667 -0.4540
 6546TIP3    H141129   0.744   5.075  15.178 -0.8745 -0.0704 -0.6916
 6546TIP3    H241130   0.717   5.092  15.030  0.6746  0.6427 -0.9213
 6547TIP3   OH241131   0.397   1.616   3.107  0.7493  0.1434 -0.2679
 6547TIP3    H141132   0.469   1.662   3.149  0.2771  0.6024  0.0567
 6547TIP3    H241133   0.325   1.622   3.170  0.6940 -1.0893 -0.2031
 6548TIP3   OH241134   5.577   0.629   5.893 -0.8189 -0.1377 -0.0177
 6548TIP3    H141135   5.537   0.592   5.814 -0.0395 -2.7972  0.7110
 6548TIP3    H241136   5.668   0.646   5.868 -0.9955  0.6248 -0.1481
 6549TIP3   OH241137   0.126   5.256  16.533  0.1118 -0.2277  0.2831
 6549TIP3    H141138   0.047   5.305  16.554  0.9417  1.2927  0.0284
 6549TIP3    H241139   0.183   5.269  16.609  0.9818  0.6065 -0.4891
 6550TIP3   OH241140   0.116   6.384  14.035  0.3202  0.1809  0.3578
 6550TIP3    H141141   0.182   6.390  13.965 -1.1563 -3.6744 -1.6629
 6550TIP3    H241142   0.036   6.418  13.995 -0.1037 -0.2317  0.8527
 6551TIP3   OH241143   1.621   5.895   3.997  0.0704  0.4833 -0.3379
 6551TIP3    H141144   1.603   5.879   3.904  2.0994 -0.2226 -0.6710
 6551TIP3    H241145   1.552   5.848   4.043  1.0847 -2.3842 -1.4862
 6552TIP3   OH241146   3.429   2.144   0.096 -0.7576  0.2952 -0.0813
 6552TIP3    H141147   3.400   2.106   0.179 -0.7304  0.1607 -0.1320
 6552TIP3    H241148   3.355   2.132   0.037 -0.8240  0.5072 -0.0399
 6553TIP3   OH241149   5.343   1.413  10.891  0.1864  0.4309  0.2839
 6553TIP3    H141150   5.252   1.401  10.917  0.1797 -0.0230  0.0604
 6553TIP3    H241151   5.346   1.383  10.800  0.6763 -0.0936  0.4679
 6554TIP3   OH241152   1.343   3.877  14.808  0.4248  0.6633  0.1221
 6554TIP3    H141153   1.367   3.855  14.898 -0.9272 -0.5405  0.2468
 6554TIP3    H241154   1.393   3.955  14.787  0.4822  1.1925  2.0625
 6555TIP3   OH241155   3.233   1.233  13.782 -0.4306  0.6217 -0.2244
 6555TIP3    H141156   3.320   1.272  13.783 -0.8665  1.6496 -0.1544
 6555TIP3    H241157   3.180   1.293  13.835 -0.4485 -1.7934  2.7652
 6556TIP3   OH241158   0.230   4.167   4.755 -0.2179 -0.0202  0.6479
 6556TIP3    H141159   0.288   4.242   4.739 -0.6526  0.7080  2.2225
 6556TIP3    H241160   0.289   4.092   4.757  1.0060  0.8653  3.6042
 6557TIP3   OH241161   2.384   3.685  16.477  0.5104 -0.0785  0.5961
 6557TIP3    H141162   2.393   3.599  16.517 -1.6495 -1.0300 -0.7637
 6557TIP3    H241163   2.292   3.690  16.450  0.9332  2.0109 -0.7831
 6558TIP3   OH241164   2.396   2.471   4.557  0.0085 -0.1134 -0.1973
 6558TIP3    H141165   2.331   2.438   4.496  0.6160  0.4582 -1.1774
 6558TIP3    H241166   2.346   2.491   4.637 -0.9195 -0.1998 -0.7446
 6559TIP3   OH241167   4.215   4.791   5.123  0.0270  0.4887  0.5281
 6559TIP3    H141168   4.231   4.829   5.209  0.1678 -1.0712  1.2202
 6559TIP3    H241169   4.122   4.768   5.124 -0.0825  0.8800  0.0678
 6560TIP3   OH241170   3.928   4.265  17.389 -0.3337 -1.1017 -0.1494
 6560TIP3    H141171   3.979   4.223  17.458 -0.5989  0.4503  1.0357
 6560TIP3    H241172   3.851   4.208  17.378 -1.4817 -0.2381  2.5210
 6561TIP3   OH241173   0.457   2.344  11.671 -0.1056 -0.0945 -0.0976
 6561TIP3    H141174   0.481   2.279  11.605 -0.3404 -0.7669  0.4699
 6561TIP3    H241175   0.480   2.428  11.631 -0.8993 -0.4354 -1.3313
 6562TIP3   OH241176   2.578   5.803   3.575 -0.7347 -0.2969  0.3982
 6562TIP3    H141177   2.629   5.759   3.506 -1.0237  0.0307 -0.0280
 6562TIP3    H241178   2.507   5.847   3.528  0.9458  2.7776  0.4600
 6563TIP3   OH241179   0.852   0.763   5.093  0.5760  0.2733 -0.0631
 6563TIP3    H141180   0.869   0.846   5.137  0.7070  0.0611  0.2907
 6563TIP3    H241181   0.926   0.751   5.033  0.1547  0.7969 -0.7019
 6564TIP3   OH241182   3.584   6.325   0.862  0.0333  0.7173 -0.3215
 6564TIP3    H141183   3.677   6.341   0.876  0.1105 -0.0314  0.0869
 6564TIP3    H241184   3.540   6.377   0.929  0.2177  0.2112  0.1993
 6565TIP3   OH241185   4.494   5.367  16.135  0.0546 -0.1860 -0.4835
 6565TIP3    H141186   4.455   5.280  16.148 -0.9229  0.3975  0.5909
 6565TIP3    H241187   4.564   5.372  16.199  0.6317 -0.4681 -1.0779
 6566TIP3   OH241188   4.139   0.547   3.395  0.2943 -0.0287 -0.3684
 6566TIP3    H141189   4.201   0.608   3.435  0.3379 -0.6460  0.5405
 6566TIP3    H241190   4.098   0.503   3.469  1.9834 -2.8273 -0.9465
 6567TIP3   OH241191   4.596   0.325   4.867 -0.4624  0.5855  0.1205
 6567TIP3    H141192   4.608   0.401   4.811 -0.4005  0.9112  0.5756
 6567TIP3    H241193   4.589   0.360   4.955  2.2702 -0.0992  0.6859
 6568TIP3   OH241194   0.167   5.949   6.212 -0.2376  0.0864 -0.4105
 6568TIP3    H141195   0.127   5.912   6.291 -0.1812  0.1374 -0.3579
 6568TIP3    H241196   0.261   5.936   6.225 -0.2102  0.3584 -0.3366
 6569TIP3   OH241197   0.290   0.018   2.896 -0.3074 -0.2100  0.5880
 6569TIP3    H141198   0.361  -0.018   2.949  0.0051 -0.3577  0.0807
 6569TIP3    H241199   0.236  -0.058   2.873 -1.4874  0.0937  2.2062
 6570TIP3   OH241200   6.521   5.482   3.904  0.3953  0.6054 -0.5342
 6570TIP3    H141201   6.524   5.555   3.966  0.3027 -0.1863  0.4263
 6570TIP3    H241202   6.468   5.515   3.831 -1.2508  0.8813  0.7222
 6571TIP3   OH241203   0.590   2.879   7.166 -0.0929 -0.2468  0.1852
 6571TIP3    H141204   0.623   2.865   7.077 -0.0850  0.5761  0.0446
 6571TIP3    H241205   0.496   2.859   7.160  0.2871 -2.2914  0.5148
 6572TIP3   OH241206   2.477   0.264  15.922  0.4688  0.2927 -0.2349
 6572TIP3    H141207   2.439   0.222  15.845  0.6059  0.6837 -0.5109
 6572TIP3    H241208   2.555   0.309  15.891  0.8378 -0.0102  0.2313
 6573TIP3   OH241209   5.374   2.552   2.147  0.4125  0.2615 -0.1451
 6573TIP3    H141210   5.427   2.505   2.083  1.2100 -1.6058  1.7632
 6573TIP3    H241211   5.433   2.568   2.220 -0.6223  1.7901  0.4089
 6574TIP3   OH241212   5.458   5.661  16.629  1.0300 -0.5491 -0.4638
 6574TIP3    H141213   5.499   5.632  16.710  1.3013  0.5708 -0.1820
 6574TIP3    H241214   5.365   5.670  16.650  0.7721 -2.0840 -0.8179
 6575TIP3   OH241215   2.602   2.861   5.849  0.1362 -0.2207 -0.3090
 6575TIP3    H141216   2.693   2.846   5.876  0.7696 -0.5409 -2.4423
 6575TIP3    H241217   2.589   2.955   5.859  1.5010  0.2135 -2.1555
 6576TIP3   OH241218   4.676   2.054  13.691 -0.1141 -0.4573 -0.4028
 6576TIP3    H141219   4.675   2.142  13.653 -0.2197 -0.7452 -1.0699
 6576TIP3    H241220   4.747   2.009  13.645  0.2214 -0.5957  0.2349
 6577TIP3   OH241221   1.311   0.832  11.887 -0.3004 -0.7234  0.4324
 6577TIP3    H141222   1.348   0.900  11.943  1.0166  0.9099 -2.2260
 6577TIP3    H241223   1.371   0.826  11.813 -2.3292 -2.1785 -1.2113
 6578TIP3   OH241224   0.002   3.490  13.252  0.2153  0.0018  0.5361
 6578TIP3    H141225  -0.006   3.418  13.315  1.8519  0.4409  1.2905
 6578TIP3    H241226   0.069   3.460  13.190  0.1919  0.4872  0.2731
 6579TIP3   OH241227   3.400   0.048  16.166  0.8106 -0.2946 -0.1352
 6579TIP3    H141228   3.424   0.106  16.094 -1.2578 -0.9214 -1.4340
 6579TIP3    H241229   3.362   0.106  16.232  0.3061  0.0129 -0.6899
 6580TIP3   OH241230   6.025   2.618   0.664 -0.0115  0.4039 -0.3623
 6580TIP3    H141231   5.975   2.539   0.644  0.3193  0.0614  0.1349
 6580TIP3    H241232   5.976   2.661   0.734 -0.0963  0.5444 -0.5082
 6581TIP3   OH241233   4.942   0.839  13.884 -0.2386  0.2123  0.2598
 6581TIP3    H141234   5.006   0.806  13.947  1.8322 -0.4832 -2.0331
 6581TIP3    H241235   4.923   0.928  13.914  0.7726 -0.0438  1.7725
 6582TIP3   OH241236   0.460   0.420  11.726 -0.2935 -0.5609  0.1595
 6582TIP3    H141237   0.391   0.368  11.683  0.9431 -0.8726 -1.5760
 6582TIP3    H241238   0.525   0.434  11.657  1.2755 -0.0718  1.6741
 6583TIP3   OH241239   4.389   1.625  13.729  0.0857 -0.0212  0.5062
 6583TIP3    H141240   4.321   1.569  13.766 -0.0510  0.4945  1.0482
 6583TIP3    H241241   4.446   1.565  13.682 -0.5135 -0.5137  0.3883
 6584TIP3   OH241242   1.686   3.899   0.129  0.3324 -0.4243 -0.4488
 6584TIP3    H141243   1.678   3.889   0.034 -0.2283  0.0672 -0.4538
 6584TIP3    H241244   1.660   3.989   0.146 -1.9889 -1.1783  0.4295
 6585TIP3   OH241245   4.036   0.329  15.391  0.1886 -0.2937 -0.3005
 6585TIP3    H141246   3.960   0.364  15.345 -0.4474 -1.4328 -0.1673
 6585TIP3    H241247   4.109   0.384  15.363 -0.1268 -1.0138 -2.8450
 6586TIP3   OH241248   2.332   4.697   6.099 -0.3720  0.1790  0.2787
 6586TIP3    H141249   2.247   4.690   6.142 -0.9120 -0.0004 -0.7877
 6586TIP3    H241250   2.376   4.770   6.144 -0.4812 -0.6421  1.8120
 6587TIP3   OH241251   6.382   3.086   0.349  0.2124 -0.3405 -0.1851
 6587TIP3    H141252   6.432   3.026   0.404  0.5369 -0.5133 -0.6557
 6587TIP3    H241253   6.441   3.160   0.336 -0.5366  0.5317  1.1690
 6588TIP3   OH241254   1.962   1.228  13.123 -0.2772  0.2203  0.2353
 6588TIP3    H141255   1.945   1.318  13.149 -3.1700 -0.3368  0.5406
 6588TIP3    H241256   1.886   1.179  13.154  1.5211 -2.4941  0.7148
 6589TIP3   OH241257   2.862   6.153   0.471 -0.1502 -0.0534 -0.4753
 6589TIP3    H141258   2.917   6.223   0.437 -1.4297  0.3448 -1.8336
 6589TIP3    H241259   2.785   6.153   0.414 -1.5703 -0.5822  1.3371
 6590TIP3   OH241260   5.071   2.967  16.187  0.5221  0.9486  0.7375
 6590TIP3    H141261   5.015   2.992  16.261 -0.0917  1.1684  0.1971
 6590TIP3    H241262   5.133   3.040  16.179  0.9981  0.6342  1.4310
 6591TIP3   OH241263   3.254   3.488  13.831 -0.6840  0.0902  0.0654
 6591TIP3    H141264   3.300   3.517  13.752  0.4239  1.3429  1.1148
 6591TIP3    H241265   3.163   3.478  13.804 -0.4257  1.0477 -1.2438
 6592TIP3   OH241266   0.939   4.154  12.689 -0.0129 -0.2930  0.0372
 6592TIP3    H141267   0.930   4.108  12.606 -2.6762  1.1867 -0.6281
 6592TIP3    H241268   0.952   4.246  12.664  1.7093 -0.1339  1.3175
 6593TIP3   OH241269   4.591   4.090  13.512  0.3041 -0.0555 -0.3336
 6593TIP3    H141270   4.632   4.163  13.557  2.7822  0.0145 -2.4890
 6593TIP3    H241271   4.575   4.025  13.580 -1.8908  2.3345  1.6306
 6594TIP3   OH241272   5.745   4.086  11.409  0.3521  0.2855  0.1797
 6594TIP3    H141273   5.812   4.023  11.438 -0.0834  0.0552  0.7020
 6594TIP3    H241274   5.673   4.073  11.470 -0.7121 -0.3895 -1.1735
 6595TIP3   OH241275   1.724   1.034   2.756  0.2355  0.0006  0.3760
 6595TIP3    H141276   1.756   1.123   2.744  1.8123 -0.3361  1.6579
 6595TIP3    H241277   1.795   0.978   2.722 -0.8328 -0.7703 -0.6418
 6596TIP3   OH241278   2.023   2.191  16.517  0.3785 -0.0395  0.1557
 6596TIP3    H141279   2.004   2.146  16.598  0.1904 -1.7417 -0.7932
 6596TIP3    H241280   2.119   2.191  16.511  0.3784 -1.9523 -0.6566
 6597TIP3   OH241281   4.690   5.771   5.302  0.5369 -0.1447  0.4648
 6597TIP3    H141282   4.735   5.825   5.367  1.1219 -0.1554  0.0785
 6597TIP3    H241283   4.598   5.796   5.310  0.7388  0.5750  0.6097
 6598TIP3   OH241284   0.982   1.395   3.969 -0.1393  0.4588  0.1371
 6598TIP3    H141285   0.984   1.335   3.894  1.1686 -0.3797  0.8034
 6598TIP3    H241286   1.032   1.471   3.940  0.8425 -0.1006  0.3211
 6599TIP3   OH241287   6.563   3.529  13.098  0.0149 -0.4320 -0.6061
 6599TIP3    H141288   6.643   3.551  13.145  0.5707 -0.5417 -1.4746
 6599TIP3    H241289   6.517   3.467  13.155  0.0374  0.4191  0.3651
 6600TIP3   OH241290   0.771   4.268  11.539 -0.6577  0.1787 -0.1426
 6600TIP3    H141291   0.694   4.237  11.491  0.1971  0.8966 -2.0936
 6600TIP3    H241292   0.814   4.328  11.479  1.4662 -0.2320  0.8668
 6601TIP3   OH241293   5.106   2.051  10.957  0.0255  0.1469  0.4289
 6601TIP3    H141294   5.165   2.068  10.883 -0.2405 -0.5796  0.0291
 6601TIP3    H241295   5.069   2.136  10.979  3.5938  1.2565  2.8020
 6602TIP3   OH241296   3.179   0.875   5.439 -0.2253 -0.5469  0.1188
 6602TIP3    H141297   3.096   0.919   5.454 -0.1320 -0.2893 -0.1069
 6602TIP3    H241298   3.227   0.885   5.521 -1.2475 -2.5700  1.0273
 6603TIP3   OH241299   6.284   0.974  12.222  0.0637  0.3398  0.4094
 6603TIP3    H141300   6.221   0.927  12.167 -1.5790  3.6944 -0.9013
 6603TIP3    H241301   6.347   1.011  12.161 -0.4161  2.1841  0.9410
 6604TIP3   OH241302   2.205   0.208  14.780  0.1446  0.0350  0.8948
 6604TIP3    H141303   2.220   0.293  14.740  1.6252 -0.0147  1.2732
 6604TIP3    H241304   2.155   0.159  14.714  0.9184  0.5701 -0.1257
 6605TIP3   OH241305   0.519   3.553   2.605 -0.3176 -0.0262  0.0406
 6605TIP3    H141306   0.451   3.519   2.663 -0.2007 -0.8202 -0.2748
 6605TIP3    H241307   0.485   3.636   2.574 -1.1090 -0.3710 -0.0383
 6606TIP3   OH241308   6.314   3.739   0.600  0.1628 -0.5390  0.5510
 6606TIP3    H141309   6.306   3.656   0.553  0.7014 -0.7435  0.8234
 6606TIP3    H241310   6.237   3.741   0.657 -1.3699  0.4144 -1.3994
 6607TIP3   OH241311   4.255   3.612  17.446  0.0057  0.0903  0.5503
 6607TIP3    H141312   4.247   3.635  17.538 -1.3514  0.1251  0.4432
 6607TIP3    H241313   4.228   3.691  17.399 -0.6889 -0.3841  0.1397
 6608TIP3   OH241314   1.422   6.095  16.103 -0.4932  0.0485 -0.2091
 6608TIP3    H141315   1.413   6.107  16.198 -0.4903 -1.3308 -0.0094
 6608TIP3    H241316   1.506   6.137  16.082 -0.5801  0.5240  0.3635
 6609TIP3   OH241317   6.005   1.081  14.363  0.3252 -0.2274  0.2250
 6609TIP3    H141318   5.931   1.142  14.369 -0.3947 -1.1041  0.4864
 6609TIP3    H241319   6.061   1.118  14.295  0.4951  1.3441  1.1653
 6610TIP3   OH241320   5.145   1.800  17.007 -0.1755  0.0943 -0.1919
 6610TIP3    H141321   5.139   1.709  17.036 -0.5674  0.5312  1.1768
 6610TIP3    H241322   5.055   1.832  17.010  0.1250  0.9078  0.6905
 6611TIP3   OH241323   4.640   0.674  16.847 -0.1977 -0.5211  0.6007
 6611TIP3    H141324   4.627   0.615  16.921  0.3768 -2.0374 -0.4612
 6611TIP3    H241325   4.720   0.722  16.869  0.3919 -1.4953  0.6381
 6612TIP3   OH241326   3.970   6.298   1.366 -0.3837 -0.1482  0.3690
 6612TIP3    H141327   3.962   6.313   1.460 -1.3985  0.1514  0.2380
 6612TIP3    H241328   3.890   6.253   1.342  0.3898 -1.2799 -0.1598
 6613TIP3   OH241329   0.256   5.351   2.737 -0.0505 -0.1017 -0.4089
 6613TIP3    H141330   0.184   5.295   2.768 -0.0308 -0.0131 -0.2036
 6613TIP3    H241331   0.216   5.437   2.727  0.1349  0.0528  0.1474
 6614TIP3   OH241332   5.393   2.075   5.234 -0.2280 -0.4366  0.0891
 6614TIP3    H141333   5.439   2.140   5.287 -0.6433  0.4841 -0.6557
 6614TIP3    H241334   5.462   2.025   5.191  0.0835 -0.0062  0.0912
 6615TIP3   OH241335   6.407   3.595  14.288  0.4356  0.0498  0.5507
 6615TIP3    H141336   6.414   3.503  14.263 -3.5125  0.0661 -1.4257
 6615TIP3    H241337   6.446   3.643  14.214  0.6751  0.0007  0.6433
 6616TIP3   OH241338   4.978   4.995   5.895 -0.3016 -0.0387 -0.4295
 6616TIP3    H141339   5.005   5.084   5.916 -0.5213  0.1838 -1.0646
 6616TIP3    H241340   4.938   4.962   5.976  1.4474 -0.2421  0.4067
 6617TIP3   OH241341   6.436   4.704   6.734 -0.5886 -0.0689  0.1602
 6617TIP3    H141342   6.380   4.641   6.780 -0.2974 -0.6360 -0.2596
 6617TIP3    H241343   6.454   4.663   6.649  0.2421  0.2292  0.1854
 6618TIP3   OH241344   3.899   2.451  11.411  0.2075 -0.0155  0.1696
 6618TIP3    H141345   3.889   2.539  11.445  0.0976  0.4223 -0.9565
 6618TIP3    H241346   3.895   2.461  11.316  3.2502 -0.8153 -0.1568
 6619TIP3   OH241347   4.834   3.812  10.645  0.0787 -0.2421  0.3014
 6619TIP3    H141348   4.812   3.874  10.576 -2.5351 -1.4551 -0.0763
 6619TIP3    H241349   4.751   3.770  10.668  1.5266 -2.9068  1.1947
 6620TIP3   OH241350   4.596   3.575  15.429  0.4307  0.2448 -0.0975
 6620TIP3    H141351   4.660   3.505  15.413  1.3967  1.3178 -1.2085
 6620TIP3    H241352   4.641   3.634  15.490 -0.5523 -0.2867  1.1966
 6621TIP3   OH241353   6.306   3.661  11.242  0.1275 -0.0521  0.2492
 6621TIP3    H141354   6.269   3.677  11.329  1.6570 -2.1566  1.3917
 6621TIP3    H241355   6.231   3.648  11.185 -0.9070 -0.2486  1.6153
 6622TIP3   OH241356   4.167   5.389  11.608 -0.1711 -0.0443  0.3365
 6622TIP3    H141357   4.158   5.377  11.514  0.7116  0.4391  0.1849
 6622TIP3    H241358   4.227   5.319  11.635 -0.7486 -0.4406  0.6122
 6623TIP3   OH241359   0.058   1.606  15.782  0.4650 -0.1757  0.1073
 6623TIP3    H141360   0.091   1.534  15.835  2.8906 -0.0129 -1.0214
 6623TIP3    H241361  -0.034   1.586  15.767  1.2192 -3.5081 -0.8347
 6624TIP3   OH241362   1.683   6.379  11.447 -0.7363 -0.2882  0.0297
 6624TIP3    H141363   1.731   6.401  11.368  0.7701 -0.0618  0.9706
 6624TIP3    H241364   1.693   6.284  11.456 -1.1268 -0.3508 -0.1847
 6625TIP3   OH241365   4.876   3.258  11.756  0.1565 -0.2269 -0.0992
 6625TIP3    H141366   4.840   3.299  11.677 -2.0312 -1.4458  0.1736
 6625TIP3    H241367   4.800   3.245  11.812  1.0359 -2.8880  0.6060
 6626TIP3   OH241368   1.783   3.655  14.181  0.0434 -0.6113  0.3780
 6626TIP3    H141369   1.824   3.741  14.188  0.3189 -0.3636 -2.8600
 6626TIP3    H241370   1.857   3.594  14.179  0.4417 -0.2919 -3.7109
 6627TIP3   OH241371   5.476   4.010  13.679  0.1068  0.2142  0.0285
 6627TIP3    H141372   5.471   4.042  13.589  1.1093  0.2747 -0.0257
 6627TIP3    H241373   5.455   4.086  13.733  0.4729  0.4406 -0.1417
 6628TIP3   OH241374   1.995   0.217   4.721 -0.0439 -0.6676 -0.5516
 6628TIP3    H141375   1.999   0.149   4.653 -1.9971 -0.5351 -0.8514
 6628TIP3    H241376   1.954   0.292   4.678  0.3904  0.0723  0.2917
 6629TIP3   OH241377   6.367   4.277  12.532 -0.0693  0.6865  0.4788
 6629TIP3    H141378   6.314   4.264  12.454  0.9889  1.9060 -0.4817
 6629TIP3    H241379   6.323   4.346  12.580  0.0536  0.9310  0.2389
 6630TIP3   OH241380   2.952   3.704   3.104  0.4242 -0.0227 -0.2752
 6630TIP3    H141381   2.859   3.707   3.128  0.2921 -1.9276 -0.3396
 6630TIP3    H241382   2.952   3.704   3.008  0.4430 -0.5036 -0.2796
 6631TIP3   OH241383   0.062   6.687  15.325 -0.1305 -0.4245 -0.3738
 6631TIP3    H141384   0.093   6.751  15.260 -0.7589  0.4703  0.1713
 6631TIP3    H241385   0.074   6.602  15.283  0.9573  0.0301 -1.0311
 6632TIP3   OH241386   5.858   4.791  15.437 -0.0329 -0.3885 -0.0577
 6632TIP3    H141387   5.930   4.737  15.468 -0.6084 -0.8720  0.4621
 6632TIP3    H241388   5.898   4.875  15.417  0.7590 -0.7965 -0.2438
 6633TIP3   OH241389   0.077   5.437  14.794 -0.1743 -0.2058 -0.5475
 6633TIP3    H141390   0.072   5.442  14.889  2.0210 -1.5851 -0.2977
 6633TIP3    H241391   0.127   5.514  14.768 -0.4667 -0.0198 -0.5677
 6634TIP3   OH241392   4.226   1.028  14.567 -0.0955  0.1574 -0.0352
 6634TIP3    H141393   4.306   0.995  14.608  0.1732  0.2126 -0.4983
 6634TIP3    H241394   4.157   0.972  14.601  0.2367 -0.3372 -0.1555
 6635TIP3   OH241395   1.885   1.211  14.232 -0.2964  0.3473  0.1840
 6635TIP3    H141396   1.817   1.220  14.299 -0.4270 -1.3333  0.3350
 6635TIP3    H241397   1.964   1.188  14.281 -0.8201 -2.9126 -0.2252
 6636TIP3   OH241398   5.631   4.032   2.515 -0.4626 -0.2659 -0.1749
 6636TIP3    H141399   5.590   4.030   2.429  0.7262 -0.6386 -0.7492
 6636TIP3    H241400   5.654   3.941   2.533  1.3588  0.0935 -0.5025
 6637TIP3   OH241401   2.297   2.519   2.516  0.9048 -0.4403  0.3505
 6637TIP3    H141402   2.325   2.553   2.431 -0.4607 -1.2452 -0.4560
 6637TIP3    H241403   2.236   2.584   2.549 -0.2067 -1.1220 -0.2960
 6638TIP3   OH241404   1.042   5.504  15.351 -0.0434 -0.3428 -0.2819
 6638TIP3    H141405   1.089   5.533  15.429  0.8900 -1.7296 -0.2973
 6638TIP3    H241406   1.079   5.418  15.331 -2.0377 -1.1692 -0.7480
 6639TIP3   OH241407   2.836   1.581   2.289 -0.1569 -0.2540 -0.2677
 6639TIP3    H141408   2.849   1.673   2.312 -0.0985 -0.4339  0.4491
 6639TIP3    H241409   2.744   1.564   2.309  0.1246 -0.6596  0.7700
 6640TIP3   OH241410   0.396   6.494  11.666  0.1297  0.1571 -0.3322
 6640TIP3    H141411   0.468   6.528  11.720  0.4464  2.0974 -1.8236
 6640TIP3    H241412   0.438   6.429  11.609  0.1313 -0.6585  0.5748
 6641TIP3   OH241413   0.629   3.912  12.530 -0.1176  0.4425 -0.0114
 6641TIP3    H141414   0.621   4.006  12.511 -1.4741  0.2987 -0.2124
 6641TIP3    H241415   0.564   3.896  12.598  0.9701 -0.1237  0.9337
 6642TIP3   OH241416   0.694   0.966   5.702 -0.0364  0.2443 -0.1766
 6642TIP3    H141417   0.607   0.953   5.739  0.1856 -0.1896  0.2000
 6642TIP3    H241418   0.746   0.893   5.737  0.2361 -0.0444 -1.1543
 6643TIP3   OH241419   5.389   5.191  11.925  0.5754 -0.0275 -0.2798
 6643TIP3    H141420   5.322   5.173  11.991  0.0429  0.5096 -0.6576
 6643TIP3    H241421   5.347   5.167  11.842  0.6423  0.8274 -0.5711
 6644TIP3   OH241422   3.250   1.880  13.932 -0.2737  0.3214  0.2310
 6644TIP3    H141423   3.339   1.899  13.903 -0.3708  1.5325  0.6595
 6644TIP3    H241424   3.201   1.863  13.852  0.6056 -1.7070  0.0652
 6645TIP3   OH241425   3.327   5.095  16.163  0.1673 -0.3081 -0.1732
 6645TIP3    H141426   3.263   5.160  16.192  0.5857  0.4736 -0.9566
 6645TIP3    H241427   3.279   5.038  16.104  0.3056  0.5834 -1.1572
 6646TIP3   OH241428   2.965   3.578   4.788  0.2843 -0.7064 -0.2062
 6646TIP3    H141429   2.959   3.499   4.734  3.2840 -1.1354 -0.0635
 6646TIP3    H241430   2.946   3.547   4.877 -1.5996 -0.6069 -0.5409
 6647TIP3   OH241431   1.689   1.142   5.716  0.2141  0.7748  0.0943
 6647TIP3    H141432   1.781   1.119   5.707 -0.0297  0.2834 -1.6488
 6647TIP3    H241433   1.686   1.236   5.698  0.3903  0.8233  0.3155
 6648TIP3   OH241434   1.359   5.305  17.181  0.0154 -0.3072  0.5581
 6648TIP3    H141435   1.392   5.347  17.102  0.4114 -0.3571  0.6934
 6648TIP3    H241436   1.340   5.215  17.155  0.2196 -0.3449  0.5394
 6649TIP3   OH241437   2.039   1.510   0.196  0.1362  0.6163 -0.1933
 6649TIP3    H141438   1.944   1.505   0.210  0.4520  0.5379  2.3173
 6649TIP3    H241439   2.065   1.420   0.174 -0.2556  0.4750 -0.0793
 6650TIP3   OH241440   0.990   6.208  12.133  0.4102 -0.6388 -0.5475
 6650TIP3    H141441   0.931   6.173  12.199  0.1194 -0.7386 -0.8542
 6650TIP3    H241442   1.023   6.130  12.087  3.6377 -0.8986  1.9376
 6651TIP3   OH241443   1.961   5.499   3.690 -0.1493  0.1606 -0.6315
 6651TIP3    H141444   1.892   5.448   3.732 -1.2554  0.8880 -1.5337
 6651TIP3    H241445   2.041   5.448   3.707 -0.6981 -0.1614  1.3459
 6652TIP3   OH241446   5.259   5.738  16.018  0.1213  0.7194 -0.2864
 6652TIP3    H141447   5.268   5.829  15.988 -0.4492  0.8562 -0.0506
 6652TIP3    H241448   5.194   5.742  16.088  0.3401  0.1753 -0.0456
 6653TIP3   OH241449   3.122   3.877   4.135 -0.4378 -0.1772 -0.0412
 6653TIP3    H141450   3.203   3.900   4.180 -1.2508 -0.2888  1.5520
 6653TIP3    H241451   3.095   3.958   4.092 -0.3845  0.3424  0.8779
 6654TIP3   OH241452   1.853   0.681  14.086  0.0519 -0.4446  0.1795
 6654TIP3    H141453   1.890   0.651  14.169  0.1147 -1.5781 -0.2410
 6654TIP3    H241454   1.888   0.769  14.075  0.4237 -0.4636  1.1246
 6655TIP3   OH241455   5.309   3.130  13.276  0.7039  0.0492  0.3015
 6655TIP3    H141456   5.216   3.145  13.264  0.7369  0.4178  0.4796
 6655TIP3    H241457   5.325   3.155  13.368  1.2034  1.1763 -0.0760
 6656TIP3   OH241458   2.182   3.126   3.151  0.2269 -0.0123 -0.5717
 6656TIP3    H141459   2.141   3.047   3.186  1.7888 -0.6147 -0.0219
 6656TIP3    H241460   2.237   3.095   3.079  3.1583  0.0699  1.4825
 6657TIP3   OH241461   0.282   5.809   1.060 -0.1208  0.6244  0.0223
 6657TIP3    H141462   0.283   5.754   1.138  1.2736 -0.3462 -0.6302
 6657TIP3    H241463   0.364   5.858   1.066  2.4030 -2.7306 -2.9608
 6658TIP3   OH241464   1.986   4.287  11.721 -0.1446 -0.0114  0.7054
 6658TIP3    H141465   2.022   4.268  11.635 -0.3789  0.4567  0.5002
 6658TIP3    H241466   1.961   4.380  11.717 -0.1712  0.0109  1.2691
 6659TIP3   OH241467   5.081   4.721  15.337  0.3664  0.0272  0.1848
 6659TIP3    H141468   5.007   4.773  15.368 -0.6747 -0.8659 -0.7413
 6659TIP3    H241469   5.138   4.713  15.413 -1.4263 -0.9326  1.4909
 6660TIP3   OH241470   1.418   1.805  11.044  0.0351 -0.3506  0.0391
 6660TIP3    H141471   1.400   1.748  11.119 -1.8915  0.9498  0.6435
 6660TIP3    H241472   1.368   1.767  10.972 -0.9167  0.3093  0.3363
 6661TIP3   OH241473   5.149   2.778   0.955  0.6474 -0.1158  0.3279
 6661TIP3    H141474   5.219   2.819   0.904  0.6958  0.1683  0.6278
 6661TIP3    H241475   5.074   2.776   0.895  1.4045 -2.1119 -0.6799
 6662TIP3   OH241476   3.699   5.604   0.407 -0.2528 -0.5960 -0.2453
 6662TIP3    H141477   3.691   5.620   0.501  0.7105 -0.2737 -0.2056
 6662TIP3    H241478   3.684   5.690   0.367  0.5031 -0.4951 -0.3136
 6663TIP3   OH241479   1.052   2.445  15.468  0.6333 -0.1329  0.3924
 6663TIP3    H141480   1.009   2.530  15.457  0.5780 -0.1403  0.5439
 6663TIP3    H241481   1.000   2.384  15.415  1.4940  0.1835 -0.8728
 6664TIP3   OH241482   2.024   0.450  15.911  0.3049  0.0911 -0.9187
 6664TIP3    H141483   1.998   0.542  15.908 -0.9342 -0.1712  0.2960
 6664TIP3    H241484   1.942   0.403  15.926  1.1414 -1.0356  0.4370
 6665TIP3   OH241485   2.334   0.521  13.345  0.1723  0.0397 -0.4801
 6665TIP3    H141486   2.341   0.461  13.271 -0.5013 -0.3540 -0.2317
 6665TIP3    H241487   2.360   0.468  13.421  1.5162  0.6253 -0.4991
 6666TIP3   OH241488   1.437   5.393  12.432 -0.6292  0.3527  0.3427
 6666TIP3    H141489   1.507   5.425  12.488 -1.1842  0.5097  0.9541
 6666TIP3    H241490   1.466   5.414  12.343  0.2816  0.0496  0.5525
 6667TIP3   OH241491   3.549   2.318  16.729 -0.3749  0.1233  0.0700
 6667TIP3    H141492   3.503   2.402  16.739 -0.6172  0.0422 -0.3375
 6667TIP3    H241493   3.537   2.295  16.637  1.2680  0.5402 -0.2647
 6668TIP3   OH241494   6.286   5.044   6.438  0.1436  1.0274  0.1147
 6668TIP3    H141495   6.362   5.056   6.495 -0.5837 -1.4819  1.7582
 6668TIP3    H241496   6.212   5.033   6.498 -1.1984  1.3470 -1.4050
 6669TIP3   OH241497   2.329   0.695  16.830 -0.4284  0.0337 -0.1810
 6669TIP3    H141498   2.340   0.734  16.917 -1.4618 -0.4569  0.1800
 6669TIP3    H241499   2.416   0.702  16.790 -0.2110  1.3242  0.4407
 6670TIP3   OH241500   3.765   1.116  12.851  0.0819 -0.1425 -0.3306
 6670TIP3    H141501   3.854   1.083  12.856  0.5632  0.7552 -2.1431
 6670TIP3    H241502   3.711   1.039  12.834  0.5525 -0.6386  0.4217
 6671TIP3   OH241503   6.120   1.907   4.793 -0.0407 -0.1059 -0.5217
 6671TIP3    H141504   6.197   1.961   4.775 -0.8806  1.4114  0.2450
 6671TIP3    H241505   6.107   1.857   4.712  0.6814  0.9743 -1.3376
 6672TIP3   OH241506   1.194   0.545   4.316 -0.1140  0.3410 -0.6605
 6672TIP3    H141507   1.255   0.486   4.270 -0.9925  1.0493 -2.8574
 6672TIP3    H241508   1.194   0.624   4.263 -0.6197  1.5309  1.0502
 6673TIP3   OH241509   2.055   5.430  11.768 -0.2194  0.2834  0.3013
 6673TIP3    H141510   2.005   5.502  11.730  2.8564  1.9203 -1.0061
 6673TIP3    H241511   2.130   5.472  11.811  1.3485 -2.0810  0.0771
 6674TIP3   OH241512   3.928   2.364  11.899 -0.1035  1.3175 -0.1402
 6674TIP3    H141513   3.978   2.367  11.817  1.3446  0.1091  0.6416
 6674TIP3    H241514   3.990   2.394  11.966 -0.4909  0.0546  0.8250
 6675TIP3   OH241515   4.165   3.651  16.930  0.9733  0.0630 -0.5391
 6675TIP3    H141516   4.182   3.714  16.860  0.5587  1.1352  0.2735
 6675TIP3    H241517   4.247   3.647  16.979  0.8752  0.3323 -0.3426
 6676TIP3   OH241518   3.693   1.578  12.336  0.6556  0.5895  0.0237
 6676TIP3    H141519   3.682   1.491  12.296 -0.0114  0.7271 -0.1067
 6676TIP3    H241520   3.780   1.575  12.375  0.6726 -0.1149 -0.0465
 6677TIP3   OH241521   0.531   0.079   4.673  0.3046 -0.5651  0.0539
 6677TIP3    H141522   0.576   0.014   4.620 -0.3953 -0.8697 -0.1839
 6677TIP3    H241523   0.512   0.034   4.756 -1.1121 -1.0394 -0.4926
 6678TIP3   OH241524   5.550   3.798  17.415  0.1901 -0.7908  0.9141
 6678TIP3    H141525   5.633   3.846  17.422 -0.8816  1.6965 -1.4529
 6678TIP3    H241526   5.492   3.843  17.477 -0.3270 -0.1977  0.0122
 6679TIP3   OH241527   3.374   0.146   0.507 -0.7178 -0.5384  0.6962
 6679TIP3    H141528   3.410   0.220   0.557 -0.3332 -1.0146  1.1284
 6679TIP3    H241529   3.392   0.069   0.561  0.6438 -1.2050 -0.6270
 6680TIP3   OH241530   3.704   2.889   5.582  0.0250  0.3366 -0.3336
 6680TIP3    H141531   3.676   2.830   5.512 -0.4873  1.0474 -0.7451
 6680TIP3    H241532   3.781   2.847   5.620  0.4153  0.0283 -1.4359
 6681TIP3   OH241533   4.810   4.823   0.365  0.0552  0.1386  0.3777
 6681TIP3    H141534   4.757   4.750   0.334 -1.1329  1.1110  0.0105
 6681TIP3    H241535   4.805   4.888   0.294  0.2290  0.9804  1.1187
 6682TIP3   OH241536   5.117   5.067   1.613  1.1224 -0.0908 -0.4365
 6682TIP3    H141537   5.033   5.021   1.607 -0.0526  2.1247 -2.2942
 6682TIP3    H241538   5.096   5.152   1.652  2.5807  0.3393 -0.5064
 6683TIP3   OH241539   6.099   2.491   4.270 -0.0699  0.0422  0.4397
 6683TIP3    H141540   6.146   2.568   4.238 -0.3727 -0.0499 -0.2349
 6683TIP3    H241541   6.094   2.504   4.365  0.0785  0.7406  0.3560
 6684TIP3   OH241542   2.383   4.564  13.933 -0.1852  0.2210 -0.1447
 6684TIP3    H141543   2.338   4.491  13.974  0.5387 -0.1452  0.0186
 6684TIP3    H241544   2.449   4.524  13.877  1.1604  0.7320  1.0098
 6685TIP3   OH241545   0.968   1.934  11.380  0.1674  0.0713  0.2492
 6685TIP3    H141546   0.921   2.015  11.359  0.4993  0.2753  0.2921
 6685TIP3    H241547   1.029   1.959  11.449 -1.8230 -0.8556  2.4966
 6686TIP3   OH241548   5.641   0.012   3.236  0.4320  0.1975  0.3570
 6686TIP3    H141549   5.639   0.008   3.140 -1.6314  1.0514  0.3097
 6686TIP3    H241550   5.669   0.101   3.256 -0.5344  0.4732  0.5091
 6687TIP3   OH241551   6.585   3.096  12.911  0.0853  0.1133  0.3145
 6687TIP3    H141552   6.638   3.176  12.912  1.5016 -0.7960  0.7412
 6687TIP3    H241553   6.527   3.105  12.986  0.9163  0.3103  0.9515
 6688TIP3   OH241554   2.165   0.506  12.954  0.8974 -0.5189 -0.2595
 6688TIP3    H141555   2.173   0.419  12.917  1.4319 -0.8428  0.5776
 6688TIP3    H241556   2.254   0.540  12.957  0.7918 -0.2586  0.1245
 6689TIP3   OH241557   0.001   0.531  16.504 -0.2309  0.2975  0.8311
 6689TIP3    H141558   0.063   0.591  16.463  0.7884 -0.5772  1.0309
 6689TIP3    H241559   0.051   0.492  16.576 -0.4253 -1.7465 -0.0940
 6690TIP3   OH241560   3.422   1.513   1.459  0.2047 -0.2190  0.0504
 6690TIP3    H141561   3.435   1.455   1.384  0.6416  1.0601 -0.9026
 6690TIP3    H241562   3.504   1.506   1.509 -0.6609 -2.2442  1.3027
 6691TIP3   OH241563   0.463   3.118  16.542 -0.2803  0.9336  0.6436
 6691TIP3    H141564   0.368   3.121  16.549 -0.1585  1.8305  2.3716
 6691TIP3    H241565   0.480   3.134  16.449 -1.8390 -1.2955 -0.1073
 6692TIP3   OH241566   4.354   4.224  13.976  0.5157  0.5126  0.2020
 6692TIP3    H141567   4.439   4.186  13.954  0.0520 -0.2819 -0.2677
 6692TIP3    H241568   4.291   4.155  13.956 -0.0876  0.2134  2.8136
 6693TIP3   OH241569   6.137   1.315   0.101  0.0989 -0.0760  0.1800
 6693TIP3    H141570   6.111   1.407   0.099 -0.0789 -0.1313 -1.2146
 6693TIP3    H241571   6.214   1.313   0.158  0.8480  1.1556 -0.7338
 6694TIP3   OH241572   5.884   6.126   4.238 -0.5009 -0.9407  0.1048
 6694TIP3    H141573   5.840   6.100   4.157  1.5963 -1.4877 -0.9231
 6694TIP3    H241574   5.911   6.216   4.223  1.0424 -1.4559 -0.3744
 6695TIP3   OH241575   0.598   6.481   0.621 -0.3552  0.0827 -0.2991
 6695TIP3    H141576   0.563   6.437   0.544 -2.5964  1.9974 -0.4972
 6695TIP3    H241577   0.675   6.527   0.590 -2.2285  2.3265 -1.9831
 6696TIP3   OH241578   6.747   1.497   0.827 -0.4293  0.4575  0.3128
 6696TIP3    H141579   6.666   1.448   0.815 -0.0660 -0.6182  1.9649
 6696TIP3    H241580   6.801   1.475   0.751 -1.4812  0.8057 -0.5511
 6697TIP3   OH241581   4.368   6.430  13.815 -0.3274 -0.3077 -0.0297
 6697TIP3    H141582   4.329   6.427  13.903  0.1043 -1.4895  0.1460
 6697TIP3    H241583   4.303   6.389  13.759 -0.4960  0.2222 -0.2266
 6698TIP3   OH241584   0.638   6.654  17.114 -0.4856  0.3353 -0.3002
 6698TIP3    H141585   0.620   6.569  17.075 -1.4909  0.5202 -0.2753
 6698TIP3    H241586   0.565   6.709  17.084 -0.7906  0.7167  1.1014
 6699TIP3   OH241587   3.569   5.254  16.689 -0.2310  0.0237 -0.1351
 6699TIP3    H141588   3.525   5.291  16.766 -0.3942 -0.2067 -0.1134
 6699TIP3    H241589   3.502   5.257  16.620  0.0201  0.5275 -0.3544
 6700TIP3   OH241590   6.302   2.870   5.209 -0.3309  0.3980 -0.3400
 6700TIP3    H141591   6.213   2.838   5.222  1.4001 -3.8679  4.2421
 6700TIP3    H241592   6.318   2.927   5.284  0.5250  2.2203 -1.8306
 6701TIP3   OH241593   3.887   1.814  15.593  0.4127  0.1277  0.4850
 6701TIP3    H141594   3.932   1.808  15.676 -0.5156 -1.9307  0.9067
 6701TIP3    H241595   3.794   1.809  15.616 -0.0695  2.8241 -0.4620
 6702TIP3   OH241596   4.407   5.766  12.489 -0.0628 -0.5387  0.5862
 6702TIP3    H141597   4.336   5.829  12.498  1.5399  1.2130  1.6555
 6702TIP3    H241598   4.398   5.732  12.400 -1.1200  1.0054  0.0607
 6703TIP3   OH241599   6.180   6.081  17.116  0.1905  0.1227 -0.1197
 6703TIP3    H141600   6.146   6.039  17.195 -0.5595  0.0267 -0.4846
 6703TIP3    H241601   6.273   6.094  17.134  0.0761 -0.1125  0.6834
 6704TIP3   OH241602   2.717   6.035   3.826  0.7230  0.5381 -0.2376
 6704TIP3    H141603   2.719   6.041   3.921  0.0759  2.1791 -0.2953
 6704TIP3    H241604   2.675   5.951   3.807  0.7081  0.2823  0.9121
 6705TIP3   OH241605   1.771   3.861  12.736  0.0545  0.0921  0.5999
 6705TIP3    H141606   1.806   3.903  12.815 -0.1672 -0.3617  0.9413
 6705TIP3    H241607   1.677   3.855  12.751 -0.0736  0.5828  0.0242
 6706TIP3   OH241608   2.937   2.390   0.368  0.1975 -0.0544  0.1109
 6706TIP3    H141609   3.005   2.385   0.435  0.5216 -1.5039 -0.2792
 6706TIP3    H241610   2.985   2.401   0.286 -0.1259  0.4015 -0.0193
 6707TIP3   OH241611   2.876   4.279  14.218 -0.2652 -0.2715  0.2160
 6707TIP3    H141612   2.909   4.368  14.203 -0.4281 -0.3314 -0.5208
 6707TIP3    H241613   2.781   4.289  14.226 -0.2369 -0.3183  0.6619
 6708TIP3   OH241614   0.600   2.501  12.848 -0.0211  0.1430 -0.4452
 6708TIP3    H141615   0.634   2.441  12.915 -0.7073  0.7889  0.5244
 6708TIP3    H241616   0.660   2.493  12.775  1.1095 -0.1485  0.4836
 6709TIP3   OH241617   6.507   1.102   4.215  0.3633  0.7440  0.1769
 6709TIP3    H141618   6.429   1.153   4.194  0.3888  0.7066 -0.0076
 6709TIP3    H241619   6.559   1.160   4.271  1.2143  1.6170 -1.4357
 6710TIP3   OH241620   0.977   4.230  15.879  0.1631  0.5379 -0.4808
 6710TIP3    H141621   1.002   4.232  15.786 -0.2601 -0.6047 -0.6313
 6710TIP3    H241622   0.961   4.137  15.898 -1.5118  0.9408  0.2697
 6711TIP3   OH241623   4.930   5.166  16.222  0.2684  0.1331  0.1601
 6711TIP3    H141624   5.017   5.177  16.261  1.3817 -2.9142 -1.1188
 6711TIP3    H241625   4.943   5.180  16.129  0.2998 -3.3943 -0.5316
 6712TIP3   OH241626   5.080   3.776   0.181 -0.0079 -1.1323  0.3204
 6712TIP3    H141627   5.159   3.726   0.199  1.2054 -0.4765 -2.5754
 6712TIP3    H241628   5.075   3.779   0.085 -0.0411  4.0161  0.1962
 6713TIP3   OH241629   6.460   6.461   0.422 -0.0435 -0.0697  0.4949
 6713TIP3    H141630   6.396   6.419   0.366  2.3214 -1.3020 -1.4606
 6713TIP3    H241631   6.485   6.541   0.375 -1.1765  1.2089  1.9746
 6714TIP3   OH241632   0.875   5.286   5.200 -0.0932 -0.7354 -0.0465
 6714TIP3    H141633   0.785   5.306   5.175  0.4395  1.1160 -0.6560
 6714TIP3    H241634   0.888   5.332   5.283 -0.1380 -2.2508  0.8414
 6715TIP3   OH241635   2.055   0.601   6.142  0.2555  0.1924  0.1598
 6715TIP3    H141636   2.129   0.595   6.082  0.6294  1.0411  0.5096
 6715TIP3    H241637   2.075   0.538   6.211  0.1209 -0.3519 -0.2917
 6716TIP3   OH241638   2.711   3.819   2.899  0.2957 -0.6576 -0.1116
 6716TIP3    H141639   2.735   3.874   2.973  0.6503 -0.2613 -0.5178
 6716TIP3    H241640   2.658   3.749   2.937 -0.9329  0.4424  0.2876
 6717TIP3   OH241641   6.529   1.478   1.229  0.0603  0.8389 -0.2464
 6717TIP3    H141642   6.574   1.410   1.279 -1.2236 -0.0027 -0.1833
 6717TIP3    H241643   6.596   1.512   1.169  0.5885 -0.9312 -0.7179
 6718TIP3   OH241644   0.512   5.906  12.172  1.1032  0.3085  0.6110
 6718TIP3    H141645   0.470   5.827  12.138  2.0669  0.7761 -1.8755
 6718TIP3    H241646   0.476   5.977  12.120  1.0462  1.4159  2.0926
 6719TIP3   OH241647   1.829   3.852  15.721  0.0862  0.2363  0.0709
 6719TIP3    H141648   1.739   3.847  15.688  0.1893 -0.0660 -0.1730
 6719TIP3    H241649   1.833   3.936  15.767 -0.9666 -0.7074  2.0326
 6720TIP3   OH241650   1.602   0.864   4.161 -0.5235 -0.2512  0.3369
 6720TIP3    H141651   1.684   0.817   4.146 -0.1304 -0.2340  2.1124
 6720TIP3    H241652   1.629   0.942   4.210 -1.5969 -0.3210  1.0829
 6721TIP3   OH241653   0.766   5.510   1.303 -0.5108  0.0879  0.4412
 6721TIP3    H141654   0.677   5.544   1.318 -1.4237 -0.9395 -2.0777
 6721TIP3    H241655   0.775   5.440   1.367 -1.1268  0.8232  1.3676
 6722TIP3   OH241656   1.124   3.786  16.159 -0.4377  0.1552 -0.0796
 6722TIP3    H141657   1.043   3.815  16.116 -0.9613 -1.2549 -0.0956
 6722TIP3    H241658   1.136   3.848  16.231 -1.6595  0.2737  0.0483
 6723TIP3   OH241659   0.130   3.744  13.853 -0.3545  0.1255 -0.1600
 6723TIP3    H141660   0.149   3.734  13.760  0.5494 -2.1394  0.2084
 6723TIP3    H241661   0.072   3.670  13.874 -0.0674  0.2609  1.1922
 6724TIP3   OH241662   3.657   3.393  12.230 -0.1516 -0.3623  0.1482
 6724TIP3    H141663   3.651   3.441  12.313 -1.7086  2.1444 -1.2893
 6724TIP3    H241664   3.742   3.350  12.233  0.3964  0.7373  2.4780
 6725TIP3   OH241665   5.031   0.394  16.255  0.1511  0.6022  0.0443
 6725TIP3    H141666   5.019   0.369  16.347 -1.1859  1.4048  0.1075
 6725TIP3    H241667   5.000   0.485  16.250 -0.7471  0.2495 -1.4047
 6726TIP3   OH241668   0.153   4.615  13.897 -0.2864 -0.7820  0.6363
 6726TIP3    H141669   0.088   4.596  13.829 -0.1217 -1.8681  0.7660
 6726TIP3    H241670   0.217   4.671  13.854  0.8448 -2.9690 -0.7187
 6727TIP3   OH241671   1.465   6.275   2.491  0.2324  0.0947 -0.0717
 6727TIP3    H141672   1.440   6.355   2.444  1.0188  0.4338  0.0707
 6727TIP3    H241673   1.405   6.271   2.565 -0.1351  0.2921 -0.3560
 6728TIP3   OH241674   2.381   2.699   3.451 -0.8356  0.1529 -0.8455
 6728TIP3    H141675   2.364   2.758   3.525 -1.3554  0.2636 -1.0449
 6728TIP3    H241676   2.459   2.651   3.476  1.3320  2.8749 -1.8625
 6729TIP3   OH241677   4.796   2.599  16.691 -0.4336 -0.1385 -0.0913
 6729TIP3    H141678   4.713   2.632  16.723 -0.6685  0.9539 -1.7415
 6729TIP3    H241679   4.773   2.524  16.636 -0.2616 -0.2061 -0.0743
 6730TIP3   OH241680   2.291   5.577  13.792 -0.4157  0.2320 -0.5646
 6730TIP3    H141681   2.352   5.588  13.719  1.8489  2.0905  1.4423
 6730TIP3    H241682   2.338   5.611  13.868 -3.0762 -0.5594  1.5956
 6731TIP3   OH241683   2.965   5.687   6.173 -0.3303 -0.2239 -0.3605
 6731TIP3    H141684   3.005   5.774   6.176  0.7333 -0.6586 -1.3324
 6731TIP3    H241685   2.939   5.671   6.264  1.9013  0.0253  0.4047
 6732TIP3   OH241686   2.996   0.540  16.814  0.3523 -0.2824  0.2404
 6732TIP3    H141687   2.955   0.455  16.796 -1.3567  0.8127 -1.5118
 6732TIP3    H241688   3.087   0.519  16.835  0.1039 -2.5183 -0.6365
 6733TIP3   OH241689   4.740   2.446  15.580  0.2869 -0.3837  0.4404
 6733TIP3    H141690   4.671   2.428  15.516 -1.5502 -0.3438  2.3114
 6733TIP3    H241691   4.821   2.441  15.530 -1.0033 -1.2639 -1.6806
 6734TIP3   OH241692   1.057   1.012  17.120 -0.1450 -0.3170 -0.3269
 6734TIP3    H141693   0.988   1.009  17.186  0.9675  1.5728  1.0029
 6734TIP3    H241694   1.026   1.074  17.054 -0.4463 -0.8030 -0.6530
 6735TIP3   OH241695   4.268   1.572  15.722 -0.1112  0.5089  0.0264
 6735TIP3    H141696   4.328   1.577  15.648 -0.3039  0.8357 -0.1095
 6735TIP3    H241697   4.325   1.568  15.799  0.0871  0.4693 -0.1216
 6736TIP3   OH241698   1.292   5.699  13.213 -0.1970  0.0546 -0.0604
 6736TIP3    H141699   1.303   5.670  13.304  1.2347  0.2374 -0.1483
 6736TIP3    H241700   1.215   5.756  13.215 -0.7113 -0.6570  0.8628
 6737TIP3   OH241701   0.525   0.506  15.216  0.1123  0.1386  0.4565
 6737TIP3    H141702   0.540   0.592  15.175 -0.7926 -0.6985 -1.7954
 6737TIP3    H241703   0.591   0.501  15.285  1.0359  2.1176 -0.1865
 6738TIP3   OH241704   5.693   2.143  12.391 -0.2758 -0.0330  0.7244
 6738TIP3    H141705   5.610   2.124  12.434 -0.8153  2.9788  1.2435
 6738TIP3    H241706   5.757   2.144  12.461 -0.5365  1.4248  0.9755
 6739TIP3   OH241707   2.974   4.874  11.416 -0.7712  0.1563  0.1514
 6739TIP3    H141708   2.960   4.968  11.429 -0.9737 -0.1036  2.3622
 6739TIP3    H241709   3.020   4.867  11.333 -1.3943  2.1531 -0.4111
 6740TIP3   OH241710   5.780   1.786   4.266  0.2436 -0.7626 -0.3296
 6740TIP3    H141711   5.789   1.710   4.207 -1.6087 -0.0009 -1.7207
 6740TIP3    H241712   5.779   1.748   4.354  2.2086 -2.0370 -0.7747
 6741TIP3   OH241713   1.321   6.040  13.718 -0.0179 -0.9422  0.3028
 6741TIP3    H141714   1.315   6.101  13.791 -0.4037 -1.9766  1.1695
 6741TIP3    H241715   1.330   5.954  13.759  0.5035 -1.4812 -0.8815
 6742TIP3   OH241716   2.983   0.185  11.273  0.4584 -0.3610  0.2192
 6742TIP3    H141717   2.969   0.123  11.344  1.1779  0.2942  0.9601
 6742TIP3    H241718   2.904   0.240  11.274 -0.6898 -1.8952 -1.1581
 6743TIP3   OH241719   4.567   0.351  12.001 -0.0360 -0.1943  0.4995
 6743TIP3    H141720   4.630   0.337  11.931  0.3249  1.1548  0.5171
 6743TIP3    H241721   4.529   0.437  11.982 -1.9406 -0.9806  0.4477
 6744TIP3   OH241722   4.954   2.671  12.073  0.3568  0.3564  0.6997
 6744TIP3    H141723   4.958   2.581  12.105  0.1311  0.3389  0.6826
 6744TIP3    H241724   4.943   2.663  11.979  1.4229  0.4122  0.5590
 6745TIP3   OH241725   3.139   3.969  15.882  0.0189 -0.3899  0.0862
 6745TIP3    H141726   3.143   4.062  15.904  0.3414 -0.6867  1.3587
 6745TIP3    H241727   3.168   3.924  15.961  1.6473 -1.5250 -1.0881
 6746TIP3   OH241728   1.181   4.455  15.420 -0.0833  0.1538  0.0973
 6746TIP3    H141729   1.142   4.525  15.369  1.1045  0.5002 -0.3678
 6746TIP3    H241730   1.227   4.500  15.492  0.5780 -0.1384 -0.1336
 6747TIP3   OH241731   2.566   2.357  15.218  0.0749 -0.1458 -0.7586
 6747TIP3    H141732   2.653   2.394  15.206  0.6158 -1.0255  0.2554
 6747TIP3    H241733   2.568   2.275  15.168 -0.1520 -0.1853 -0.7035
 6748TIP3   OH241734   0.181   3.684  12.868 -0.1869  0.2335 -0.3892
 6748TIP3    H141735   0.256   3.675  12.809 -1.1718 -0.0184 -1.6526
 6748TIP3    H241736   0.220   3.693  12.955  1.2927 -0.3582 -0.9504
 6749TIP3   OH241737   4.724   6.367  13.598 -0.0408 -0.0656  0.0758
 6749TIP3    H141738   4.674   6.415  13.664 -0.8936  1.3262 -1.5158
 6749TIP3    H241739   4.681   6.388  13.515  2.2251 -0.0930 -1.1787
 6750TIP3   OH241740   2.396   1.993  11.043  0.0735  0.4089  0.0057
 6750TIP3    H141741   2.373   2.052  11.115  1.3104 -0.5353  1.2256
 6750TIP3    H241742   2.465   2.038  10.995  0.7694  0.1363  0.7257
 6751TIP3   OH241743   3.629   0.214   3.612  0.0776  0.8127 -0.3688
 6751TIP3    H141744   3.590   0.256   3.689 -3.9568  1.9782 -2.7747
 6751TIP3    H241745   3.602   0.122   3.618  0.1934  0.7891 -0.1867
 6752TIP3   OH241746   5.348   5.528   6.051  0.0117 -0.6641  0.4516
 6752TIP3    H141747   5.394   5.549   6.132  1.4875  0.4599 -0.6196
 6752TIP3    H241748   5.264   5.572   6.058  0.6514  0.5207  0.8392
 6753TIP3   OH241749   2.746   6.531  17.219  0.0213  0.1175 -0.4086
 6753TIP3    H141750   2.803   6.489  17.284  2.0115  1.4473 -1.2049
 6753TIP3    H241751   2.670   6.560  17.270  0.7900 -0.2775  1.0337
 6754TIP3   OH241752   3.976   1.555   3.829  0.2528 -0.4584  0.0064
 6754TIP3    H141753   3.909   1.489   3.849  0.4516 -0.7754 -0.3650
 6754TIP3    H241754   3.964   1.573   3.736 -0.5879  0.9201  0.3595
 6755TIP3   OH241755   0.077   4.375   4.860 -0.0615 -0.0712  0.3422
 6755TIP3    H141756   0.059   4.360   4.953  0.2287 -0.5636  0.3220
 6755TIP3    H241757   0.161   4.333   4.844 -0.1136 -0.0002 -0.1467
 6756TIP3   OH241758   6.184   4.796   6.329 -0.6060  0.4052 -0.5640
 6756TIP3    H141759   6.147   4.772   6.414 -0.9982 -0.3552 -0.9401
 6756TIP3    H241760   6.214   4.886   6.340 -0.4880  0.2478  0.4338
 6757TIP3   OH241761   3.224   5.922   3.286 -0.4270 -0.0866  0.0089
 6757TIP3    H141762   3.145   5.945   3.336  0.5254  0.7566  1.1937
 6757TIP3    H241763   3.220   5.976   3.207 -0.8733  0.1957  0.2224
 6758TIP3   OH241764   0.371   6.189  15.210 -0.3203 -0.0505  0.0073
 6758TIP3    H141765   0.345   6.102  15.182  0.6235 -0.4169  0.2449
 6758TIP3    H241766   0.462   6.180  15.237 -0.7774  0.5455  1.9680
 6759TIP3   OH241767   3.261   0.420   6.253  0.1731  0.0842  0.4834
 6759TIP3    H141768   3.276   0.390   6.343 -0.2365  1.5588  1.0747
 6759TIP3    H241769   3.165   0.424   6.245  0.1453 -1.8142 -0.6616
 6760TIP3   OH241770   0.354   3.290  14.403 -0.3379 -0.2697 -0.6171
 6760TIP3    H141771   0.402   3.344  14.341 -0.8619 -0.5001 -1.2240
 6760TIP3    H241772   0.411   3.287  14.480  0.0473  0.4999 -0.8593
 6761TIP3   OH241773   6.649   0.675  16.227  0.1101 -0.2658  0.4434
 6761TIP3    H141774   6.677   0.589  16.196  0.1811 -0.2844  0.5605
 6761TIP3    H241775   6.619   0.660  16.316  1.3583  0.0619  0.9358
 6762TIP3   OH241776   1.993   5.140  16.472 -0.4648  0.7050  0.0794
 6762TIP3    H141777   1.912   5.100  16.503  0.4890  0.4957  2.5742
 6762TIP3    H241778   2.060   5.074  16.489  0.2105  0.6269 -2.5090
 6763TIP3   OH241779   5.453   0.419   0.556 -0.6326  0.0737  0.5826
 6763TIP3    H141780   5.475   0.510   0.579  0.0313  0.2459 -0.6824
 6763TIP3    H241781   5.366   0.406   0.593 -0.6262  1.1374  1.0207
 6764TIP3   OH241782   2.158   1.578   5.104  0.0485  0.2240 -0.0522
 6764TIP3    H141783   2.219   1.521   5.058  1.2883 -0.7561  2.5795
 6764TIP3    H241784   2.074   1.533   5.100  0.2290 -0.0430 -0.9325
 6765TIP3   OH241785   4.417   3.190  12.236  0.0691  0.0295 -0.0283
 6765TIP3    H141786   4.380   3.113  12.192  0.1000  0.6184 -1.1369
 6765TIP3    H241787   4.506   3.198  12.201  0.4968 -0.1426  1.0107
 6766TIP3   OH241788   5.751   3.801  15.689  0.1034  0.1043 -0.1384
 6766TIP3    H141789   5.688   3.752  15.741  0.8693  0.3039  1.0082
 6766TIP3    H241790   5.715   3.890  15.686 -0.2225 -0.0324 -0.4483
 6767TIP3   OH241791   2.460   5.855   1.527 -0.2539  0.5268 -0.3786
 6767TIP3    H141792   2.449   5.783   1.590 -0.5565  1.1371  0.2774
 6767TIP3    H241793   2.459   5.812   1.441  1.5393 -0.4959  0.0590
 6768TIP3   OH241794   3.153   1.615   4.235  0.1192  0.3234 -0.1742
 6768TIP3    H141795   3.228   1.562   4.206 -0.3909 -0.3954 -0.2139
 6768TIP3    H241796   3.181   1.705   4.222  0.8833  0.0580 -0.4346
 6769TIP3   OH241797   5.682   6.583  14.501 -0.2509 -0.1870 -0.6720
 6769TIP3    H141798   5.612   6.643  14.476  1.1806  2.3247  0.8365
 6769TIP3    H241799   5.650   6.541  14.581 -0.0905  0.9777  0.0308
 6770TIP3   OH241800   6.645   4.202  13.286 -0.1217 -0.4034 -0.1289
 6770TIP3    H141801   6.641   4.169  13.196  1.0020  5.0162 -2.6281
 6770TIP3    H241802   6.727   4.167  13.321  1.1906 -0.0829 -2.6100
 6771TIP3   OH241803   1.323   5.498  11.192  0.2106 -0.0698 -0.0537
 6771TIP3    H141804   1.232   5.477  11.172  0.2117  0.8353 -1.0911
 6771TIP3    H241805   1.327   5.594  11.191  1.6113 -0.0870 -2.2142
 6772TIP3   OH241806   6.577   0.145   0.712  0.1211 -0.0179 -0.2880
 6772TIP3    H141807   6.497   0.170   0.665  1.4593  0.9148 -2.2266
 6772TIP3    H241808   6.634   0.221   0.703  1.3218 -0.7606  0.8336
 6773TIP3   OH241809   6.068   0.226   0.629  0.6381 -0.1259 -0.0486
 6773TIP3    H141810   6.062   0.321   0.621  2.7180 -0.0366 -1.2494
 6773TIP3    H241811   5.991   0.193   0.582  0.3932  0.9429 -0.4147
 6774TIP3   OH241812   6.425   0.870  12.418 -0.4533  0.0477  0.3618
 6774TIP3    H141813   6.504   0.846  12.371 -1.1879 -1.2149 -0.2733
 6774TIP3    H241814   6.371   0.916  12.352 -0.1355  1.1959  0.8754
 6775TIP3   OH241815   5.249   5.386  15.288  0.5079  0.0052  0.7086
 6775TIP3    H141816   5.310   5.312  15.286 -1.1389 -1.4426 -2.1445
 6775TIP3    H241817   5.204   5.377  15.372  0.0015 -2.6361  0.2551
 6776TIP3   OH241818   4.843   6.696   0.825 -0.1438  0.1801 -0.2354
 6776TIP3    H141819   4.927   6.692   0.872 -0.7212  2.2039  1.0811
 6776TIP3    H241820   4.829   6.789   0.808 -1.8966 -0.1704 -0.8705
 6777TIP3   OH241821   4.402   6.644  12.305  0.0223 -0.2374 -0.4238
 6777TIP3    H141822   4.388   6.720  12.361  0.3888 -0.1193 -0.4862
 6777TIP3    H241823   4.496   6.628  12.310 -0.0782 -0.7872 -0.2880
 6778TIP3   OH241824   5.448   6.271   4.930 -0.7859 -0.0192 -0.1950
 6778TIP3    H141825   5.422   6.311   5.013  2.4354  1.5954  0.2047
 6778TIP3    H241826   5.376   6.291   4.871 -2.0417  1.0475  1.5709
 6779TIP3   OH241827   3.215   1.455   2.053  0.1817 -0.0692  0.1765
 6779TIP3    H141828   3.165   1.503   2.119  0.1882 -0.1142  0.2142
 6779TIP3    H241829   3.297   1.504   2.045  0.4536 -0.4253  0.6731
 6780TIP3   OH241830   5.372   3.233  12.163 -0.1227  0.6675  0.1834
 6780TIP3    H141831   5.348   3.209  12.253 -0.5964 -0.0673 -0.1314
 6780TIP3    H241832   5.294   3.274  12.128  0.2966  1.6268  0.3249
 6781TIP3   OH241833   1.842   2.216  13.815 -0.0816  0.4852  0.0178
 6781TIP3    H141834   1.884   2.300  13.835  1.2179 -0.1305 -0.0263
 6781TIP3    H241835   1.852   2.207  13.720 -1.8819  1.1224 -0.2731
 6782TIP3   OH241836   4.167   6.755  17.348  0.5403 -0.3674 -0.0361
 6782TIP3    H141837   4.173   6.740  17.253 -0.4870  3.2748 -0.8525
 6782TIP3    H241838   4.253   6.787  17.372  0.3534  0.2167 -0.1187
 6783TIP3   OH241839   4.393   6.381   2.217 -0.0652  0.4443  0.6188
 6783TIP3    H141840   4.484   6.405   2.200 -0.7440  2.7622 -0.0754
 6783TIP3    H241841   4.376   6.413   2.305  0.0124 -0.8129  1.1121
 6784TIP3   OH241842   4.742   1.902   1.591  0.7666 -0.0476  0.1727
 6784TIP3    H141843   4.810   1.969   1.605 -1.1749  1.9572  0.6127
 6784TIP3    H241844   4.697   1.896   1.675 -0.4471 -0.3202 -0.4712
 6785TIP3   OH241845   5.610   4.824   5.819 -0.6203 -0.2894  0.3240
 6785TIP3    H141846   5.529   4.817   5.868 -1.0449  0.4152 -0.2453
 6785TIP3    H241847   5.627   4.919   5.815 -0.2895 -0.3727 -0.3812
 6786TIP3   OH241848   2.588   5.094  14.091 -0.3561 -0.1246 -0.6133
 6786TIP3    H141849   2.543   5.041  14.157  0.9381 -2.3941 -1.4311
 6786TIP3    H241850   2.662   5.133  14.137 -0.5798 -0.0834 -0.2888
 6787TIP3   OH241851   5.918   2.218  13.825  0.2902  0.2297  0.4890
 6787TIP3    H141852   5.948   2.208  13.735  0.5552  2.2635  0.3059
 6787TIP3    H241853   5.995   2.198  13.878  0.6581  0.7545  0.1744
 6788TIP3   OH241854   2.909   5.029  10.478  0.1047 -0.4652 -0.0527
 6788TIP3    H141855   2.862   4.972  10.418 -1.2539  0.4899  0.0530
 6788TIP3    H241856   2.972   5.076  10.422  0.3216 -1.1126 -0.3558
 6789TIP3   OH241857   4.245   2.651  14.121 -0.1842 -0.0943  0.2308
 6789TIP3    H141858   4.201   2.708  14.184 -0.1867 -2.0286  2.1054
 6789TIP3    H241859   4.312   2.705  14.082 -0.1501  1.1964  1.9599
 6790TIP3   OH241860   5.757   5.534   3.556  0.2521  0.1867 -0.4607
 6790TIP3    H141861   5.733   5.479   3.632  2.4715 -0.1698  0.0680
 6790TIP3    H241862   5.767   5.622   3.592  0.7636  0.1216 -0.4314
 6791TIP3   OH241863   5.853   0.795  12.229  0.7133  0.7454 -0.2429
 6791TIP3    H141864   5.843   0.821  12.137 -0.3584 -0.5911 -0.5366
 6791TIP3    H241865   5.922   0.852  12.263  0.8502  1.5314 -1.7661
 6792TIP3   OH241866   4.091   1.895   0.216 -0.4822 -0.4111 -0.1003
 6792TIP3    H141867   4.109   1.975   0.165 -0.4913 -1.0203 -1.0911
 6792TIP3    H241868   4.170   1.842   0.207 -0.0249 -0.0579  1.5027
 6793TIP3   OH241869   5.586   2.102   0.165  0.1002 -0.0354 -0.3910
 6793TIP3    H141870   5.679   2.080   0.163 -0.2858 -1.7076 -1.3188
 6793TIP3    H241871   5.541   2.022   0.138 -1.5845  0.9481 -0.6489
 6794TIP3   OH241872   6.360   0.442   4.440  0.0624  0.3982 -0.0262
 6794TIP3    H141873   6.353   0.402   4.526  1.4474  1.8629  0.8110
 6794TIP3    H241874   6.296   0.395   4.386  0.2013 -1.5336  1.4031
 6795TIP3   OH241875   0.821   0.576   5.667 -0.1451  0.0605  0.0768
 6795TIP3    H141876   0.819   0.481   5.667  1.5606 -0.0223 -0.6039
 6795TIP3    H241877   0.800   0.600   5.577 -0.1455  0.3099  0.1424
 6796TIP3   OH241878   6.694   5.432  11.058 -0.1653 -0.6553 -0.2224
 6796TIP3    H141879   6.605   5.466  11.062  0.3156  0.6643 -0.1982
 6796TIP3    H241880   6.728   5.463  10.973  0.6097 -0.2473  0.2222
 6797TIP3   OH241881   5.398   0.253  15.541  0.1677 -0.2746  0.6912
 6797TIP3    H141882   5.390   0.212  15.455  0.5749  1.7941 -0.4065
 6797TIP3    H241883   5.413   0.180  15.601  1.0531 -1.6988 -1.1428
 6798TIP3   OH241884   3.672   0.203  12.076 -0.0233  0.2751  0.5830
 6798TIP3    H141885   3.646   0.268  12.141  0.5103  1.1345 -0.0436
 6798TIP3    H241886   3.755   0.236  12.040  0.0573 -0.5495 -0.0228
 6799TIP3   OH241887   6.192   4.796   2.744  0.0737 -0.5215  0.2145
 6799TIP3    H141888   6.257   4.806   2.814 -0.2902  0.0829  0.4797
 6799TIP3    H241889   6.114   4.842   2.776 -0.2033 -0.4965 -0.4593
 6800TIP3   OH241890   1.061   4.373   3.047  0.5751  0.1446  0.1694
 6800TIP3    H141891   1.017   4.428   3.112 -0.6765 -1.5296  0.7874
 6800TIP3    H241892   1.130   4.329   3.096  1.4246  0.9346 -0.2776
 6801TIP3   OH241893   2.253   5.200  17.080  0.0330 -0.0875 -0.0751
 6801TIP3    H141894   2.338   5.241  17.095 -0.2239  0.5082 -0.2313
 6801TIP3    H241895   2.268   5.138  17.009  0.3640 -0.0725 -0.0167
 6802TIP3   OH241896   4.227   4.638  13.091  0.4678  0.6705  0.5690
 6802TIP3    H141897   4.274   4.658  13.010  2.7127  0.1654  1.6776
 6802TIP3    H241898   4.247   4.546  13.109 -2.7882 -0.2991 -0.0018
 6803TIP3   OH241899   0.779   0.124  17.080 -0.4724  0.2501 -0.1941
 6803TIP3    H141900   0.868   0.142  17.048  0.0278 -0.9260  0.4827
 6803TIP3    H241901   0.761   0.034  17.052 -1.2410  0.2934  0.1526
 6804TIP3   OH241902   5.553   1.822  13.509 -0.1891 -0.1435 -0.0677
 6804TIP3    H141903   5.520   1.732  13.515 -2.5649  0.5973 -1.0066
 6804TIP3    H241904   5.549   1.855  13.598 -1.1385 -0.4000 -0.0021
 6805TIP3   OH241905   1.647   2.460   2.699  0.2013 -0.4272 -0.1235
 6805TIP3    H141906   1.729   2.486   2.741  1.4038 -0.7789 -2.0963
 6805TIP3    H241907   1.635   2.368   2.726  0.1709 -0.2227  0.5777
 6806TIP3   OH241908   6.522   2.557  12.949 -0.0517  0.2744 -0.1549
 6806TIP3    H141909   6.615   2.560  12.972 -0.4301 -1.7651  2.0489
 6806TIP3    H241910   6.511   2.472  12.906 -0.9089  0.4882 -0.3714
 6807TIP3   OH241911   0.936   1.793   4.452  0.0693 -0.4466  0.2730
 6807TIP3    H141912   0.861   1.822   4.504 -0.7697  0.4808 -1.3642
 6807TIP3    H241913   0.910   1.810   4.361  1.2819 -2.4268 -0.5099
 6808TIP3   OH241914   0.094   6.049   1.200 -0.1195  0.1222  0.3193
 6808TIP3    H141915   0.025   6.010   1.145 -1.7064  2.8825  0.1428
 6808TIP3    H241916   0.161   6.077   1.137 -0.0517 -0.2728  0.2135
 6809TIP3   OH241917   2.370   3.805   3.315 -0.1020 -0.5026  0.1585
 6809TIP3    H141918   2.388   3.730   3.260 -1.9109 -1.0354  0.2276
 6809TIP3    H241919   2.437   3.802   3.383  1.0145 -0.9121 -0.9292
 6810TIP3   OH241920   6.603   2.385  14.828 -0.2557 -0.1558 -0.3448
 6810TIP3    H141921   6.579   2.362  14.918 -0.1186 -0.3038 -0.3468
 6810TIP3    H241922   6.687   2.428  14.835 -0.0195 -0.5912 -0.4500
 6811TIP3   OH241923   6.345   4.188   4.770 -0.2604 -0.2165 -0.5177
 6811TIP3    H141924   6.367   4.240   4.693  0.7309  1.3412  0.7463
 6811TIP3    H241925   6.272   4.235   4.811 -1.0538 -1.2536 -0.6924
 6812TIP3   OH241926   6.132   0.295   3.035 -0.2755 -0.4019 -0.0410
 6812TIP3    H141927   6.190   0.346   2.978 -0.2425  2.2565  2.1968
 6812TIP3    H241928   6.069   0.254   2.975  0.3710  1.3988 -2.0525
 6813TIP3   OH241929   4.069   1.132   1.868 -0.3181 -0.4207 -0.1826
 6813TIP3    H141930   4.074   1.176   1.953 -0.0517  0.1297 -0.4758
 6813TIP3    H241931   4.158   1.105   1.849 -0.0211  1.0928 -1.1205
 6814TIP3   OH241932   1.205   1.299   5.796  0.3254 -0.0111  0.1921
 6814TIP3    H141933   1.275   1.241   5.826  1.1206  0.5186 -0.5753
 6814TIP3    H241934   1.174   1.343   5.875 -0.2168 -1.3718  0.7697
 6815TIP3   OH241935   5.891   0.835  11.955  0.0679  0.5290  0.1256
 6815TIP3    H141936   5.950   0.772  11.915 -1.8152 -2.0978  1.2374
 6815TIP3    H241937   5.842   0.872  11.881 -0.4192 -1.0573 -0.3669
 6816TIP3   OH241938   4.664   6.343   3.499  0.4115 -0.2350 -0.2476
 6816TIP3    H141939   4.617   6.260   3.490  1.3976 -0.9441  0.8334
 6816TIP3    H241940   4.756   6.321   3.484  1.0161  0.1437  2.4448
 6817TIP3   OH241941   3.715   6.552  16.916  0.0541 -0.1026  0.5284
 6817TIP3    H141942   3.695   6.499  16.992 -0.3910 -3.5637 -1.7757
 6817TIP3    H241943   3.630   6.573  16.878  0.3155  0.2582  0.1234
 6818TIP3   OH241944   4.632   2.538   3.179  0.1314  0.5326 -0.2438
 6818TIP3    H141945   4.540   2.547   3.155  0.3424 -1.2138 -1.9309
 6818TIP3    H241946   4.661   2.628   3.194 -1.8034  1.1252  0.2707
 6819TIP3   OH241947   0.131   0.606  14.063  0.1810  0.6968 -0.3307
 6819TIP3    H141948   0.214   0.574  14.028  0.0723 -0.9035  0.7585
 6819TIP3    H241949   0.155   0.660  14.138  0.2760  1.2874 -0.7809
 6820TIP3   OH241950   5.317   4.796   5.599  0.0227 -0.3650 -0.3337
 6820TIP3    H141951   5.402   4.811   5.641  0.9477 -0.8406 -1.9498
 6820TIP3    H241952   5.260   4.863   5.636  1.6041  1.2278 -0.6376
 6821TIP3   OH241953   0.856   5.630   0.510 -0.3344 -0.2974 -0.2362
 6821TIP3    H141954   0.942   5.603   0.542 -1.1146 -0.8105  1.5133
 6821TIP3    H241955   0.819   5.551   0.471 -0.3281 -0.2759 -0.2860
 6822TIP3   OH241956   3.522   1.150   2.590  0.3316  0.1173 -0.4212
 6822TIP3    H141957   3.568   1.117   2.513  0.7922  0.5890 -0.3528
 6822TIP3    H241958   3.488   1.236   2.562  0.7009  0.3939 -0.0294
 6823TIP3   OH241959   5.046   0.508  12.339 -0.4791 -0.3425  0.5500
 6823TIP3    H141960   5.041   0.423  12.295 -0.1948  0.3400 -0.8411
 6823TIP3    H241961   4.991   0.498  12.417 -1.0383 -1.5638  0.0196
 6824TIP3   OH241962   1.927   0.822   1.603 -0.1759 -0.0849  0.5524
 6824TIP3    H141963   2.015   0.858   1.593 -0.5320  0.7109  0.2220
 6824TIP3    H241964   1.876   0.863   1.533  0.0144 -3.3189 -1.7169
 6825TIP3   OH241965   3.177   5.226  15.487  0.1231  0.0602  0.3615
 6825TIP3    H141966   3.102   5.220  15.547  0.1134  0.6133  0.4122
 6825TIP3    H241967   3.170   5.148  15.432 -2.3009  1.5598 -1.6826
 6826TIP3   OH241968   0.988   6.492  13.043 -0.1130 -0.3557 -0.8250
 6826TIP3    H141969   0.927   6.549  13.091  0.5108 -0.1987 -0.1927
 6826TIP3    H241970   1.060   6.479  13.104 -0.9704 -3.2082 -0.2709
 6827TIP3   OH241971   5.173   6.538  12.974  0.3950 -0.1150  0.6021
 6827TIP3    H141972   5.149   6.627  12.999  0.0249 -0.0816  0.1353
 6827TIP3    H241973   5.173   6.489  13.056  0.1687  0.2136  0.7999
 6828TIP3   OH241974   1.773   3.532  17.394 -0.5964 -0.2313  0.3767
 6828TIP3    H141975   1.767   3.461  17.330 -0.7773  0.2099 -0.1042
 6828TIP3    H241976   1.858   3.572  17.377 -1.5907  1.3495 -1.1709
 6829TIP3   OH241977   2.442   4.009   2.137  0.2077  0.4415  0.3490
 6829TIP3    H141978   2.515   4.052   2.092 -1.2538  2.5303 -0.1698
 6829TIP3    H241979   2.446   4.042   2.227  0.4073 -0.1394  0.5587
 6830TIP3   OH241980   4.949   2.387  15.409  0.1327 -0.6468  1.1801
 6830TIP3    H141981   4.956   2.448  15.336  1.0187 -0.1297  1.6784
 6830TIP3    H241982   4.960   2.300  15.369  2.3215 -0.2869  0.8762
 6831TIP3   OH241983   3.576   1.658   4.308 -0.4309  0.2707  0.0546
 6831TIP3    H141984   3.524   1.696   4.378  0.9670  2.8893 -0.2021
 6831TIP3    H241985   3.662   1.644   4.346  0.1038  0.9259 -0.8436
 6832TIP3   OH241986   4.443   4.704  11.999  0.3802 -0.2757  0.5441
 6832TIP3    H141987   4.417   4.767  11.932  0.0721 -0.9637  0.0026
 6832TIP3    H241988   4.513   4.653  11.958 -0.7456 -1.6149  0.1988
 6833TIP3   OH241989   2.248   2.232  10.910  0.5836  0.0563  0.3152
 6833TIP3    H141990   2.342   2.234  10.897  0.7516 -0.5664  1.3367
 6833TIP3    H241991   2.214   2.188  10.831  1.0234  1.2475 -0.5670
 6834TIP3   OH241992   6.583   3.302   3.963 -0.3414  0.0014 -0.3627
 6834TIP3    H141993   6.588   3.395   3.985  0.0749 -0.2979  0.9463
 6834TIP3    H241994   6.500   3.273   4.001 -1.0131  0.0457 -1.7291
 6835TIP3   OH241995   4.526   5.060  12.974 -0.1549  0.1309 -0.4743
 6835TIP3    H141996   4.446   5.021  13.011 -1.4567  1.3518 -1.8537
 6835TIP3    H241997   4.494   5.123  12.909  1.8297  2.5580  0.7159
 6836TIP3   OH241998   3.523   6.303  14.958 -0.6645 -0.1900 -0.4376
 6836TIP3    H141999   3.560   6.358  14.888 -1.2483  0.9347  0.1060
 6836TIP3    H242000   3.591   6.302  15.026 -0.9501  0.5126 -0.1295
 6837TIP3   OH242001   0.385   2.026  13.701 -0.0395  0.3473 -1.0987
 6837TIP3    H142002   0.471   1.995  13.732  0.5828 -0.1702 -3.1778
 6837TIP3    H242003   0.330   1.947  13.701 -0.4909  0.6398  0.0401
 6838TIP3   OH242004   5.571   6.070   5.888  0.2524 -0.3065  0.6358
 6838TIP3    H142005   5.500   6.031   5.837  1.2929 -0.9960 -0.3356
 6838TIP3    H242006   5.611   5.995   5.933  1.5327 -0.2304 -0.3250
 6839TIP3   OH242007   0.925   5.055   4.052  0.5697 -0.3121 -0.2451
 6839TIP3    H142008   0.861   5.122   4.077  0.2816  0.0511 -1.8108
 6839TIP3    H242009   0.871   4.982   4.020  0.9139 -0.3108 -0.8431
 6840TIP3   OH242010   2.536   1.620  15.227 -0.3612 -0.0920 -0.9571
 6840TIP3    H142011   2.616   1.670  15.244 -1.7092  2.0889 -0.6100
 6840TIP3    H242012   2.556   1.531  15.255  1.4132  0.7534  0.6478
 6841TIP3   OH242013   2.807   5.705  14.816  0.2160 -0.4743  0.7416
 6841TIP3    H142014   2.890   5.673  14.782 -0.7096 -0.9887 -1.1464
 6841TIP3    H242015   2.761   5.740  14.740 -2.3688 -2.5905  1.1696
 6842TIP3   OH242016   1.179   1.305   0.199 -0.1837 -0.1075  0.2635
 6842TIP3    H142017   1.163   1.394   0.228  0.1374 -0.3328  1.1705
 6842TIP3    H242018   1.213   1.260   0.276 -0.1899 -0.9749 -0.2209
 6843TIP3   OH242019   1.239   5.903  14.808  0.4694 -0.0527 -0.8577
 6843TIP3    H142020   1.192   5.958  14.871  0.6178 -0.7077 -0.1462
 6843TIP3    H242021   1.177   5.833  14.787  1.5382 -1.7830  1.2431
 6844TIP3   OH242022   0.961   5.817  15.989  0.1638 -0.1160 -0.3117
 6844TIP3    H142023   0.937   5.737  16.036 -0.6009 -0.6125 -1.5005
 6844TIP3    H242024   1.056   5.819  15.989  0.1797 -0.1223  1.2035
 6845TIP3   OH242025   6.429   3.732   4.994 -0.2106  0.5021  0.6132
 6845TIP3    H142026   6.500   3.688   5.041  0.6601  0.2251 -0.9100
 6845TIP3    H242027   6.425   3.687   4.910 -2.6312  0.1041  0.8725
 6846TIP3   OH242028   2.212   4.598  12.799 -0.1666 -0.0074  0.2052
 6846TIP3    H142029   2.300   4.590  12.834 -0.1832  1.5057  0.6604
 6846TIP3    H242030   2.211   4.682  12.753 -1.5303  0.2922  0.7190
 6847TIP3   OH242031   2.514   4.667   1.421 -0.7544  0.1113 -0.6106
 6847TIP3    H142032   2.544   4.758   1.420  1.2440 -0.4100  1.9869
 6847TIP3    H242033   2.587   4.617   1.385 -1.6902 -0.5457 -1.6616
 6848TIP3   OH242034   3.280   3.818  14.905 -0.5015  0.4428 -0.1321
 6848TIP3    H142035   3.255   3.907  14.878 -1.7885  0.3875  0.8067
 6848TIP3    H242036   3.205   3.764  14.879  0.0584 -0.2985 -0.2282
 6849TIP3   OH242037   4.547   3.514  16.218  0.1060  0.3404  0.3908
 6849TIP3    H142038   4.583   3.602  16.227  1.0619  0.0042  0.0014
 6849TIP3    H242039   4.588   3.479  16.140 -1.4899  0.1128 -0.3924
 6850TIP3   OH242040   1.467   5.827   5.586 -0.4871 -0.0903 -0.0860
 6850TIP3    H142041   1.477   5.915   5.622  0.5093 -0.0870 -0.3486
 6850TIP3    H242042   1.474   5.838   5.491 -0.4863 -0.4370 -0.1306
 6851TIP3   OH242043   3.143   0.086   1.052  0.5418 -0.5797  0.3398
 6851TIP3    H142044   3.163   0.179   1.049  0.5909 -0.5839  0.5264
 6851TIP3    H242045   3.067   0.079   1.110  0.6302 -0.6702  0.4462
 6852TIP3   OH242046   6.446   2.241   2.512 -0.5166  0.1948  0.1134
 6852TIP3    H142047   6.503   2.199   2.577  0.3103  0.4564 -0.4301
 6852TIP3    H242048   6.452   2.184   2.435  1.0952  1.5540 -0.8455
 6853TIP3   OH242049   1.908   4.363  16.552  0.1445 -0.3580  0.4619
 6853TIP3    H142050   1.957   4.330  16.627  1.1903  0.7298  0.2934
 6853TIP3    H242051   1.973   4.414  16.502 -0.5565 -0.9165 -1.0902
 6854TIP3   OH242052   5.926   0.259  11.225 -0.5021 -0.0426  0.2809
 6854TIP3    H142053   5.938   0.352  11.242  0.3418 -0.3212  1.3339
 6854TIP3    H242054   5.871   0.228  11.298  2.3013 -1.0608  2.1188
 6855TIP3   OH242055   3.205   1.069  17.432  0.2969 -0.4425  0.2694
 6855TIP3    H142056   3.235   1.025  17.353  1.0094  0.0545  0.2468
 6855TIP3    H242057   3.132   1.124  17.404  1.3168  0.6645 -0.3017
 6856TIP3   OH242058   1.589   5.574   1.006  0.4308 -0.5939  0.1374
 6856TIP3    H142059   1.652   5.502   0.998  0.9853 -0.4109  2.3214
 6856TIP3    H242060   1.520   5.539   1.063  1.3940  0.9798  2.3966
 6857TIP3   OH242061   5.167   0.567   3.292  0.1192 -0.3069 -0.6798
 6857TIP3    H142062   5.113   0.491   3.271  0.5858 -1.1245  0.9046
 6857TIP3    H242063   5.247   0.556   3.240  0.3011 -1.0568 -0.2432
 6858TIP3   OH242064   6.140   5.161   2.151  0.0924 -0.4963 -0.2071
 6858TIP3    H142065   6.061   5.189   2.104  0.0700  0.6045  0.4762
 6858TIP3    H242066   6.197   5.126   2.082 -0.5402 -0.2848 -0.8543
 6859TIP3   OH242067   0.216   0.140  16.475 -1.1303 -0.2587 -0.4107
 6859TIP3    H142068   0.223   0.235  16.464 -2.1324  0.0015  0.9387
 6859TIP3    H242069   0.292   0.105  16.429  1.9569  1.4805  2.8752
 6860TIP3   OH242070   2.921   1.000  15.226  0.2357 -0.1969 -0.0203
 6860TIP3    H142071   2.856   1.058  15.266 -1.4874 -2.4947  0.7531
 6860TIP3    H242072   2.928   0.926  15.286  1.9985 -1.0444 -1.1746
 6861TIP3   OH242073   2.576   0.023   4.618 -0.3163 -0.1217  0.4123
 6861TIP3    H142074   2.573   0.078   4.696 -1.7608 -0.7538  0.8465
 6861TIP3    H242075   2.606   0.082   4.548  0.3905  0.6102  1.3068
 6862TIP3   OH242076   0.793   4.001   5.130 -0.2011  0.8769  0.2456
 6862TIP3    H142077   0.823   4.091   5.140  2.1759  0.0643  1.2072
 6862TIP3    H242078   0.773   3.973   5.220 -0.0355  0.1960  0.0749
 6863TIP3   OH242079   5.710   1.850   3.974 -0.4838  0.4290  0.2973
 6863TIP3    H142080   5.684   1.929   3.927 -1.4283  0.2120  0.4287
 6863TIP3    H242081   5.724   1.879   4.065  2.7183  1.1325 -0.2859
 6864TIP3   OH242082   4.742   3.272   5.341  0.6886  0.6946  0.3529
 6864TIP3    H142083   4.775   3.312   5.422  0.3181  0.6992  0.5054
 6864TIP3    H242084   4.763   3.336   5.273  1.3544  0.5137  0.3836
 6865TIP3   OH242085   5.635   0.068   2.955  0.1705 -0.3787  0.3927
 6865TIP3    H142086   5.700   0.049   2.887  0.7782  1.5447  0.3676
 6865TIP3    H242087   5.569   0.121   2.911  1.3200  2.1730  1.5140
 6866TIP3   OH242088   0.351   1.876   0.340  0.2356  0.1229 -0.2242
 6866TIP3    H142089   0.273   1.901   0.290 -0.4710 -0.2400  0.6752
 6866TIP3    H242090   0.380   1.957   0.382 -0.5530 -0.0298  0.6403
 6867TIP3   OH242091   3.945   4.707  13.136  0.0219 -0.0473  0.3658
 6867TIP3    H142092   3.908   4.741  13.055 -1.5555 -1.1804  0.5541
 6867TIP3    H242093   4.038   4.697  13.118  0.0242  1.4689 -0.6579
 6868TIP3   OH242094   2.031   4.107   4.876  0.0770  0.0247  0.5133
 6868TIP3    H142095   1.942   4.072   4.883 -0.1643  0.3037 -0.8625
 6868TIP3    H242096   2.021   4.187   4.824  0.9501  0.8481  1.5799
 6869TIP3   OH242097   2.164   3.491   0.145 -0.3521  0.4855 -0.0256
 6869TIP3    H142098   2.154   3.472   0.051  1.7132 -1.7973  0.1162
 6869TIP3    H242099   2.152   3.406   0.188  0.2435  1.1973  1.6323
 6870TIP3   OH242100   4.878   4.944   1.629  0.1279 -0.2861  0.0717
 6870TIP3    H142101   4.824   5.022   1.621  1.9646  0.9640 -0.6449
 6870TIP3    H242102   4.817   4.875   1.656 -1.6827  1.1820 -0.1267
 6871TIP3   OH242103   1.953   1.879  12.948  0.1718  0.1207 -0.2464
 6871TIP3    H142104   1.991   1.900  13.033  3.8427 -0.0139 -1.6675
 6871TIP3    H242105   1.961   1.961  12.898  0.4951 -0.5048 -1.2388
 6872TIP3   OH242106   1.421   5.283  15.816 -0.1829 -0.3617  0.4737
 6872TIP3    H142107   1.480   5.336  15.762 -0.7329 -1.0433 -0.8463
 6872TIP3    H242108   1.437   5.193  15.787 -0.4887 -0.7532  1.4801
 6873TIP3   OH242109   4.792   5.451   5.128  0.7646 -0.4008  0.1537
 6873TIP3    H142110   4.763   5.534   5.092  1.2319 -0.0155  0.6563
 6873TIP3    H242111   4.860   5.421   5.067 -0.2910 -1.0493 -0.7314
 6874TIP3   OH242112   4.236   3.703  13.141 -0.2644  0.1991 -0.5037
 6874TIP3    H142113   4.151   3.685  13.100 -0.3354  0.6718 -0.5641
 6874TIP3    H242114   4.284   3.754  13.076 -0.6126  1.5151  0.2384
 6875TIP3   OH242115   1.140   2.412  11.881  0.8743 -0.3089  0.1856
 6875TIP3    H142116   1.066   2.395  11.940  0.7857  1.4264  0.6253
 6875TIP3    H242117   1.101   2.460  11.808  1.0558 -2.0885 -1.1429
 6876TIP3   OH242118   4.203   6.334  12.006  0.6707  0.2084 -0.3853
 6876TIP3    H142119   4.254   6.339  11.925  2.1967 -0.7016  0.4936
 6876TIP3    H242120   4.143   6.409  12.000  0.8662  0.2661 -2.2622
 6877TIP3   OH242121   0.972   4.076   4.616  0.5260  0.2105  0.1737
 6877TIP3    H142122   0.920   4.029   4.682 -0.2077  1.3878  0.4514
 6877TIP3    H242123   0.909   4.105   4.551  1.0605  0.3096 -0.3158
 6878TIP3   OH242124   6.410   5.322  15.861  1.0294 -0.2674 -0.9196
 6878TIP3    H142125   6.350   5.375  15.809 -0.3164 -0.8173  0.0167
 6878TIP3    H242126   6.497   5.351  15.834  0.3592  2.5189 -0.3369
 6879TIP3   OH242127   4.254   1.469  11.970 -0.5898 -0.6675  0.0564
 6879TIP3    H142128   4.319   1.448  12.037 -2.2860 -1.2707  1.6064
 6879TIP3    H242129   4.291   1.543  11.922  0.9915 -0.6704  1.1954
 6880TIP3   OH242130   1.508   0.037   4.678 -0.2711 -0.0851  0.1251
 6880TIP3    H142131   1.570   0.053   4.607  0.3449 -1.0840  0.4176
 6880TIP3    H242132   1.445  -0.025   4.641 -0.1425 -0.3460  0.3373
 6881TIP3   OH242133   4.099   2.903   3.350  0.0366 -0.5012  0.5560
 6881TIP3    H142134   4.044   2.980   3.348  0.4717 -0.1914  0.1378
 6881TIP3    H242135   4.063   2.849   3.420  0.7621  0.8478  2.0308
 6882TIP3   OH242136   3.755   6.291   0.344  0.6426 -0.0780  0.1874
 6882TIP3    H142137   3.685   6.318   0.404  1.6099  0.2408  1.2028
 6882TIP3    H242138   3.796   6.216   0.387 -0.5744 -1.8314 -1.5420
 6883TIP3   OH242139   6.548   6.701   0.296  0.3725  0.3694  0.0800
 6883TIP3    H142140   6.571   6.730   0.208  0.5637  0.2952  0.1057
 6883TIP3    H242141   6.489   6.769   0.329  0.9901  0.8415  0.2210
 6884TIP3   OH242142   5.217   5.680  15.374  0.2709  0.0075  0.5208
 6884TIP3    H142143   5.160   5.621  15.325 -0.4679  0.9958  0.1611
 6884TIP3    H242144   5.250   5.628  15.447 -0.2931 -0.8635  0.1608
 6885TIP3   OH242145   0.391   2.204  14.624 -0.4085  0.0830  0.0691
 6885TIP3    H142146   0.349   2.194  14.709 -0.7554 -2.3146 -0.2875
 6885TIP3    H242147   0.318   2.214  14.562 -0.1259  3.2671  0.1055
 6886TIP3   OH242148   5.811   3.891  13.677 -0.0044  0.0080  0.0120
 6886TIP3    H142149   5.896   3.935  13.679  0.2561 -0.2554 -2.1991
 6886TIP3    H242150   5.747   3.962  13.678  0.3529  0.3691 -1.1325
 6887TIP3   OH242151   2.183   5.494  15.255  0.6611  0.3824  0.2771
 6887TIP3    H142152   2.174   5.407  15.216  0.9039  0.8632 -0.8712
 6887TIP3    H242153   2.266   5.528  15.220  0.1993  1.3721  0.1162
 6888TIP3   OH242154   5.046   6.412   0.525 -0.0043 -0.4830  0.3699
 6888TIP3    H142155   5.128   6.389   0.570 -0.2140 -0.0679  0.9650
 6888TIP3    H242156   5.075   6.456   0.445  0.3556 -0.5064  0.4859
 6889TIP3   OH242157   1.935   4.087   2.769 -0.2008 -0.2207 -0.0007
 6889TIP3    H142158   1.851   4.052   2.800 -0.2207  0.5449  0.8574
 6889TIP3    H242159   1.911   4.154   2.705 -0.3444  1.2453  1.5243
 6890TIP3   OH242160   5.414   6.322   1.684  0.4643  0.1580  0.0025
 6890TIP3    H142161   5.325   6.355   1.696  0.3286 -0.4686  0.7879
 6890TIP3    H242162   5.445   6.303   1.773  1.5729  0.8593 -0.2259
 6891TIP3   OH242163   5.030   3.081   3.252  0.0144 -0.0054  0.3375
 6891TIP3    H142164   5.098   3.141   3.220  0.6487 -1.3087 -0.8612
 6891TIP3    H242165   4.947   3.127   3.234  0.5139  1.0244  0.5846
 6892TIP3   OH242166   4.182   4.893   1.873 -0.3042 -0.8131  0.1711
 6892TIP3    H142167   4.182   4.811   1.825  0.5787 -0.2736 -0.7884
 6892TIP3    H242168   4.107   4.886   1.933 -0.2889 -2.2652  0.0514
 6893TIP3   OH242169   5.719   6.271   3.220 -0.1361 -0.0735  0.4946
 6893TIP3    H142170   5.796   6.250   3.168 -0.4373 -0.9653  0.4049
 6893TIP3    H242171   5.670   6.189   3.226 -1.7432  0.7600 -0.5373
 6894TIP3   OH242172   3.194   5.480   2.483  0.0892 -0.2259 -0.0536
 6894TIP3    H142173   3.113   5.430   2.487 -0.8963  1.3431  0.7797
 6894TIP3    H242174   3.250   5.431   2.423 -1.3508 -1.5168 -0.3993
 6895TIP3   OH242175   0.575   4.923   0.211 -0.2840 -0.7239 -0.9729
 6895TIP3    H142176   0.603   4.834   0.235 -1.0008 -0.3875  1.3785
 6895TIP3    H242177   0.656   4.968   0.189  0.1497 -1.7819 -1.6599
 6896TIP3   OH242178   0.349   6.042  10.717  0.2225  0.4475  0.4826
 6896TIP3    H142179   0.398   5.981  10.773 -0.4301  0.9884  1.6876
 6896TIP3    H242180   0.315   5.988  10.646  1.6481 -0.1354  0.2151
 6897TIP3   OH242181   0.309   0.497  15.391 -0.5442 -0.3053 -0.3793
 6897TIP3    H142182   0.343   0.525  15.476 -1.3756 -0.6210  0.0637
 6897TIP3    H242183   0.387   0.478  15.339 -0.0335 -0.1670  0.3287
 6898TIP3   OH242184   0.147   5.091   0.788 -0.2629  0.4631 -0.0448
 6898TIP3    H142185   0.165   5.139   0.869 -0.4951 -0.9837  0.9039
 6898TIP3    H242186   0.053   5.097   0.776 -0.5996 -1.3362  1.1844
 6899TIP3   OH242187   6.010   4.450   4.698  0.4450  0.2781 -0.6091
 6899TIP3    H142188   5.926   4.443   4.653  0.2845 -0.7489 -0.1739
 6899TIP3    H242189   6.071   4.483   4.632 -0.0389 -0.1086 -1.2455
 6900TIP3   OH242190   1.476   2.150  14.318  0.3045 -0.3463  0.4427
 6900TIP3    H142191   1.430   2.074  14.282  1.4976 -0.7676 -0.2395
 6900TIP3    H242192   1.548   2.165  14.257  0.3859  1.0229  0.8530
 6901TIP3   OH242193   2.015   1.686  11.658  0.2298  0.5789  0.3945
 6901TIP3    H142194   2.005   1.760  11.718 -0.7894  0.5592  0.2736
 6901TIP3    H242195   2.001   1.609  11.714  0.1235  0.5254  0.2945
 6902TIP3   OH242196   6.585   3.035  12.619  0.1383 -0.0600  0.5516
 6902TIP3    H142197   6.541   3.065  12.699  0.6156 -0.0129  0.8000
 6902TIP3    H242198   6.677   3.027  12.644  0.3800  0.4814 -0.1504
 6903TIP3   OH242199   4.862   0.614  14.952  0.1207  0.6335 -0.0368
 6903TIP3    H142200   4.917   0.666  14.894 -0.5183  1.0589 -0.2722
 6903TIP3    H242201   4.870   0.524  14.918  1.4700  0.5116  0.5625
 6904TIP3   OH242202   2.006   3.791   2.778  0.4587 -0.3275  0.1461
 6904TIP3    H142203   1.986   3.881   2.806  2.1464 -0.1694  0.9567
 6904TIP3    H242204   2.017   3.742   2.859  0.5929 -1.0294 -0.2883
 6905TIP3   OH242205   3.677   0.433   3.448 -0.1488 -0.1782  0.1091
 6905TIP3    H142206   3.650   0.511   3.496 -1.1384 -1.0835  1.0837
 6905TIP3    H242207   3.684   0.364   3.514  2.1187 -0.6103 -0.5195
 6906TIP3   OH242208   3.584   6.090   3.607 -0.5852  0.4118  0.0734
 6906TIP3    H142209   3.541   6.007   3.588  1.2489 -0.3045 -1.3319
 6906TIP3    H242210   3.527   6.133   3.670 -1.1488 -2.3005  1.5641
 6907TIP3   OH242211   0.077   5.480  13.477 -0.0315 -0.0139  0.2837
 6907TIP3    H142212   0.059   5.389  13.453 -1.2971  0.5106 -0.8815
 6907TIP3    H242213   0.165   5.497  13.442 -0.2895 -0.4218 -0.5838
 6908TIP3   OH242214   3.767   0.745   5.892 -0.3577 -0.0723 -0.1480
 6908TIP3    H142215   3.704   0.674   5.880  1.2090 -1.2664 -1.9855
 6908TIP3    H242216   3.804   0.729   5.979  0.8056 -2.3604 -0.9546
 6909TIP3   OH242217   0.254   0.637   3.000 -0.2925  0.4735 -0.1494
 6909TIP3    H142218   0.198   0.692   2.946  0.9328 -0.1171 -2.1144
 6909TIP3    H242219   0.306   0.698   3.052  0.4693  1.1691 -1.6890
 6910TIP3   OH242220   4.067   2.861   4.202  0.0184 -0.5978 -0.5122
 6910TIP3    H142221   4.046   2.815   4.120 -2.2107 -3.0627  1.2735
 6910TIP3    H242222   4.161   2.850   4.212 -0.0914 -2.8832 -1.3171
 6911TIP3   OH242223   0.099   4.693   6.516  0.0582  0.0795 -0.2444
 6911TIP3    H142224   0.115   4.685   6.609 -1.5426  3.1814  0.4444
 6911TIP3    H242225   0.173   4.745   6.483 -0.4398  0.8141 -0.2339
 6912TIP3   OH242226   5.466   6.739   2.694  0.5158 -0.0090 -0.2499
 6912TIP3    H142227   5.501   6.747   2.783  0.8649  0.5689 -0.4297
 6912TIP3    H242228   5.456   6.645   2.681 -2.6858 -0.0634  1.5840
 6913TIP3   OH242229   1.823   0.077   2.022 -0.4333 -0.3389  0.4679
 6913TIP3    H142230   1.879   0.062   2.098 -0.5849  0.8936  0.8489
 6913TIP3    H242231   1.882   0.110   1.955 -0.1131 -2.4214 -0.3397
 6914TIP3   OH242232   3.297   5.149   4.937 -0.1627  0.5389  0.5375
 6914TIP3    H142233   3.342   5.203   4.873  1.0727 -2.3267 -1.1780
 6914TIP3    H242234   3.204   5.161   4.917  0.1040  1.4030 -0.2601
 6915TIP3   OH242235   2.355   3.720   2.686  0.3229  1.1091 -0.6219
 6915TIP3    H142236   2.291   3.650   2.695  1.1546 -0.3620 -4.3063
 6915TIP3    H242237   2.427   3.695   2.744  0.2824 -0.7196 -1.3010
 6916TIP3   OH242238   4.525   0.346  14.051 -0.0501 -0.1681  0.2448
 6916TIP3    H142239   4.594   0.321  13.990 -0.3768 -1.6668  0.4584
 6916TIP3    H242240   4.454   0.284  14.035 -1.1102  0.9174  0.4884
 6917TIP3   OH242241   0.999   1.524   4.437  0.0876  0.2922 -0.8683
 6917TIP3    H142242   1.048   1.515   4.355 -1.5661  0.2422 -1.8991
 6917TIP3    H242243   0.976   1.616   4.441  0.1857  0.3017 -0.4221
 6918TIP3   OH242244   6.686   3.228   6.221 -0.0465 -0.6013  0.1448
 6918TIP3    H142245   6.777   3.251   6.200 -0.1037 -0.6884 -0.2010
 6918TIP3    H242246   6.683   3.231   6.317 -0.0375  0.8020  0.1338
 6919TIP3   OH242247   2.650   3.370  14.091  0.3661 -0.0502 -0.1472
 6919TIP3    H142248   2.695   3.289  14.066 -2.5840 -1.4704 -1.3277
 6919TIP3    H242249   2.584   3.342  14.154  0.6185  1.8363  1.0450
 6920TIP3   OH242250   5.944   0.827   5.322  0.5768 -0.3329 -0.4821
 6920TIP3    H142251   6.027   0.872   5.304  0.6777 -1.0468 -1.9391
 6920TIP3    H242252   5.920   0.786   5.239 -1.7764  0.6853 -0.3922
 6921TIP3   OH242253   4.809   2.434  11.976 -0.3703  1.0899 -0.5206
 6921TIP3    H142254   4.742   2.429  12.044  1.5439 -0.0001  1.4128
 6921TIP3    H242255   4.824   2.343  11.950  1.5405  1.1034  0.3791
 6922TIP3   OH242256   0.888   3.703   3.009 -0.1609  0.0712 -0.1770
 6922TIP3    H142257   0.875   3.628   2.950  0.6009  0.6822 -1.1469
 6922TIP3    H242258   0.824   3.767   2.981  0.1552  0.3368 -0.2982
 6923TIP3   OH242259   5.771   5.907   0.489  0.1032  0.5389 -0.2361
 6923TIP3    H142260   5.865   5.890   0.484  0.0833  0.6000 -0.8894
 6923TIP3    H242261   5.745   5.924   0.398 -0.5648  0.3664 -0.0810
 6924TIP3   OH242262   3.138   1.232   1.680 -0.0541 -0.1248 -0.7591
 6924TIP3    H142263   3.067   1.276   1.728 -0.0584  0.0435 -0.9189
 6924TIP3    H242264   3.217   1.251   1.731  0.1263  1.0418 -1.4434
 6925TIP3   OH242265   6.664   2.715   2.274  0.6011  0.2219  0.3462
 6925TIP3    H142266   6.757   2.735   2.269  0.2500  1.7442 -0.9270
 6925TIP3    H242267   6.621   2.789   2.230 -1.1526 -0.9077  0.0695
 6926TIP3   OH242268   1.825   6.732   1.105 -0.0344  0.3596  0.0448
 6926TIP3    H142269   1.906   6.682   1.103  0.6601  1.3770  1.2206
 6926TIP3    H242270   1.849   6.819   1.075 -0.7860  0.5592 -0.0055
 6927TIP3   OH242271   5.159   6.726   1.981  0.1565  0.1575 -0.0054
 6927TIP3    H142272   5.108   6.646   1.991 -1.9171  1.1899 -1.4456
 6927TIP3    H242273   5.131   6.782   2.053 -1.4953  1.0270 -1.2394
 6928TIP3   OH242274   1.503   5.390   2.683 -0.0904 -0.2953  0.1500
 6928TIP3    H142275   1.438   5.459   2.677  1.4021  1.0548 -1.7800
 6928TIP3    H242276   1.470   5.321   2.625 -0.5921 -0.3453  0.4891
 6929TIP3   OH242277   2.957   3.721   4.557  0.5123 -0.0386 -0.4561
 6929TIP3    H142278   2.912   3.663   4.494  0.3782 -0.5131  0.0680
 6929TIP3    H242279   2.974   3.665   4.632 -0.9251  0.9584  0.6646
 6930TIP3   OH242280   1.549   1.913  16.196  0.1650  0.3728  0.2872
 6930TIP3    H142281   1.642   1.889  16.197 -0.3224 -1.8777 -0.7213
 6930TIP3    H242282   1.505   1.836  16.232 -1.3768  0.9638 -0.2707
 6931TIP3   OH242283   2.193   3.815   2.168 -0.2740  0.1190  0.1603
 6931TIP3    H142284   2.239   3.838   2.248 -2.3801  0.3558  1.3900
 6931TIP3    H242285   2.228   3.874   2.101 -0.0531  1.4885  1.4413
 6932TIP3   OH242286   6.100   6.541  14.154  0.2581 -0.0980  0.4097
 6932TIP3    H142287   6.170   6.604  14.134  0.0224  0.0323 -0.0469
 6932TIP3    H242288   6.044   6.544  14.076  0.1684 -0.7734  0.4474
 6933TIP3   OH242289   6.407   6.485   2.527  0.5613 -0.3422  0.3390
 6933TIP3    H142290   6.467   6.411   2.531 -0.1569 -0.8988  0.9778
 6933TIP3    H242291   6.402   6.518   2.617 -0.7369 -0.8417  0.4766
 6934TIP3   OH242292   1.987   0.598   3.537  0.4546 -0.6551  0.3409
 6934TIP3    H142293   2.046   0.602   3.612 -0.9710 -0.7564  1.5276
 6934TIP3    H242294   1.906   0.638   3.568 -0.4485 -1.4461 -0.8956
 6935TIP3   OH242295   3.391   2.475  13.580  0.2608  0.5129 -0.8397
 6935TIP3    H142296   3.382   2.388  13.540  0.1068 -1.0800  2.3905
 6935TIP3    H242297   3.302   2.511  13.579 -0.8910 -1.7564  2.5172
 6936TIP3   OH242298   5.077   5.936   6.261  0.6743 -0.0046 -0.6478
 6936TIP3    H142299   5.114   5.964   6.345 -0.3862  1.9132 -0.7615
 6936TIP3    H242300   4.982   5.941   6.274  0.4894 -0.3159 -1.7806
 6937TIP3   OH242301   3.310   6.602   1.817 -0.2624 -0.0372 -0.4833
 6937TIP3    H142302   3.375   6.656   1.771  0.6430 -0.0432  0.7337
 6937TIP3    H242303   3.227   6.647   1.801  0.4797  1.8263  0.5903
 6938TIP3   OH242304   6.398   0.825  17.181  0.0833  0.0954 -0.1918
 6938TIP3    H142305   6.315   0.788  17.213  0.0462 -0.5117 -0.9537
 6938TIP3    H242306   6.374   0.912  17.147 -0.2559 -0.1075 -0.4751
 6939TIP3   OH242307   3.115   6.210  12.778  0.0034 -0.1818 -0.1073
 6939TIP3    H142308   3.120   6.116  12.795  0.0225 -0.0976  0.3891
 6939TIP3    H242309   3.171   6.225  12.702  0.0591 -0.5627 -0.1397
 6940TIP3   OH242310   5.403   4.001   6.809 -0.2607  0.3144 -0.0554
 6940TIP3    H142311   5.489   4.027   6.775  0.1124  0.6874  1.1057
 6940TIP3    H242312   5.340   4.037   6.747  0.4231 -0.0747 -0.9916
 6941TIP3   OH242313   1.117   4.411  11.263  0.3222 -0.1786  0.6111
 6941TIP3    H142314   1.065   4.366  11.196  1.1573  0.0601 -0.2175
 6941TIP3    H242315   1.150   4.341  11.319  0.1667 -0.4475  0.3723
 6942TIP3   OH242316   3.377   5.606   5.529 -0.3982 -0.1975 -0.2805
 6942TIP3    H142317   3.441   5.669   5.563  0.8746 -1.1930 -0.7503
 6942TIP3    H242318   3.296   5.656   5.522 -0.5443  0.3507  3.2682
 6943TIP3   OH242319   5.109   4.453  16.325  0.7032  0.0019  0.4050
 6943TIP3    H142320   5.166   4.445  16.248  1.3949 -0.1439  0.9131
 6943TIP3    H242321   5.170   4.451  16.399 -0.0369 -1.0514  1.0108
 6944TIP3   OH242322   2.304   1.626   2.056  0.1547  0.4195 -0.0055
 6944TIP3    H142323   2.342   1.714   2.054 -0.0069  0.5464  1.4102
 6944TIP3    H242324   2.252   1.624   2.136  0.4169 -1.0732  0.1569
 6945TIP3   OH242325   5.063   5.198   5.299  0.2112  0.0617  0.1086
 6945TIP3    H142326   5.058   5.293   5.308  3.7240  0.3633  0.0987
 6945TIP3    H242327   4.991   5.165   5.353 -1.7854  2.6632 -0.7183
 6946TIP3   OH242328   4.041   5.570  16.383 -0.0438 -0.4519 -0.1270
 6946TIP3    H142329   3.967   5.557  16.442 -1.4387  0.7150 -1.5054
 6946TIP3    H242330   4.105   5.504  16.410 -2.5716 -3.2916 -0.4235
 6947TIP3   OH242331   3.168   4.857  11.203  0.7559 -0.0084 -0.3493
 6947TIP3    H142332   3.258   4.846  11.233  1.2864 -0.0387 -1.8444
 6947TIP3    H242333   3.177   4.903  11.119 -0.5798 -0.4459 -0.7529
 6948TIP3   OH242334   6.578   1.497   1.752  0.2057 -0.7590 -0.0591
 6948TIP3    H142335   6.532   1.565   1.703  0.4852 -1.0016 -0.6654
 6948TIP3    H242336   6.538   1.499   1.839 -0.4480 -0.4702 -0.3605
 6949TIP3   OH242337   6.458   1.478  16.320  0.5013 -0.8998  0.4510
 6949TIP3    H142338   6.376   1.515  16.289  0.9965  0.9255  1.2478
 6949TIP3    H242339   6.459   1.389  16.283 -0.8396 -0.2413 -1.2866
 6950TIP3   OH242340   0.416   2.956  15.740  0.1412 -0.3078  0.3681
 6950TIP3    H142341   0.407   3.047  15.769  0.0992  0.0237 -0.6322
 6950TIP3    H242342   0.332   2.935  15.699  0.5372 -0.4214 -0.3974
 6951TIP3   OH242343   3.086   4.675  13.201  0.2997 -0.1032  0.1846
 6951TIP3    H142344   3.038   4.606  13.155  0.2432  0.0400  0.0259
 6951TIP3    H242345   3.035   4.755  13.184  0.0069 -0.1277  0.9067
 6952TIP3   OH242346   4.687   2.985  13.873  0.0326  0.2454 -0.1497
 6952TIP3    H142347   4.733   2.901  13.874 -0.5986 -0.1580  2.5366
 6952TIP3    H242348   4.709   3.023  13.788  0.8147 -2.3516 -1.2165
 6953TIP3   OH242349   5.930   6.179  13.937 -0.1208  0.8741  0.0198
 6953TIP3    H142350   5.897   6.110  13.879 -2.4453  0.3949  1.7400
 6953TIP3    H242351   6.013   6.146  13.970 -0.2535 -0.2203 -0.7010
 6954TIP3   OH242352   1.454   6.580   1.240 -0.2778 -0.1340  0.0374
 6954TIP3    H142353   1.489   6.528   1.168  0.6862 -0.4816  0.7390
 6954TIP3    H242354   1.359   6.572   1.232 -0.1947  0.1359 -1.4032
 6955TIP3   OH242355   2.210   6.155   2.751  0.0103  0.2910 -0.3737
 6955TIP3    H142356   2.205   6.164   2.846 -1.6980  0.3833 -0.4370
 6955TIP3    H242357   2.246   6.068   2.737 -1.0352 -0.2843  0.3925
 6956TIP3   OH242358   6.614   6.610   3.450 -0.0653 -0.0062  0.6208
 6956TIP3    H142359   6.594   6.594   3.358 -0.5403  1.1006  0.5168
 6956TIP3    H242360   6.645   6.525   3.483 -0.1084 -0.4697 -0.4911
 6957TIP3   OH242361   3.446   1.180  15.404 -0.2399 -0.0257  1.2136
 6957TIP3    H142362   3.514   1.227  15.356 -0.3935  0.6851  1.6721
 6957TIP3    H242363   3.370   1.238  15.401 -0.5567 -0.4193  1.4586
 6958TIP3   OH242364   0.685   2.182  12.334 -0.0135 -0.3909 -0.2911
 6958TIP3    H142365   0.590   2.173  12.320 -0.3146  0.1678  1.1809
 6958TIP3    H242366   0.724   2.131  12.263 -1.4091 -0.5138 -1.0199
 6959TIP3   OH242367   1.382   4.362  12.132  0.1575  0.0874  0.0430
 6959TIP3    H142368   1.306   4.319  12.172 -0.2988  1.2167  0.4173
 6959TIP3    H242369   1.456   4.335  12.186 -0.1633 -0.0059  0.4414
 6960TIP3   OH242370   5.164   0.531   1.284 -0.4223 -0.7710  0.4509
 6960TIP3    H142371   5.242   0.559   1.331  0.0202  2.0428 -1.6604
 6960TIP3    H242372   5.198   0.481   1.209 -0.5307  0.6162 -0.5754
 6961TIP3   OH242373   5.506   2.529  12.111 -0.3761  0.3572 -0.0478
 6961TIP3    H142374   5.548   2.561  12.031  0.8519  0.1513  0.5034
 6961TIP3    H242375   5.518   2.599  12.175 -1.2749  0.4826  0.0048
 6962TIP3   OH242376   5.862   2.778   5.744  0.1463 -0.2263 -0.0383
 6962TIP3    H142377   5.796   2.720   5.706  0.3416 -0.7315  0.3691
 6962TIP3    H242378   5.916   2.720   5.797 -0.1245  0.4506  1.0143
 6963TIP3   OH242379   3.306   0.005   2.654  0.4233 -0.4425  0.0127
 6963TIP3    H142380   3.264   0.091   2.660 -0.2295 -0.7113 -0.5306
 6963TIP3    H242381   3.389   0.015   2.700  0.8247  0.7704 -0.9442
 6964TIP3   OH242382   3.994   2.425   4.140  0.1637 -0.2488 -0.6921
 6964TIP3    H142383   3.921   2.480   4.167 -0.3783 -0.5113 -1.5810
 6964TIP3    H242384   4.072   2.480   4.151  0.0403 -0.4728  1.7657
 6965TIP3   OH242385   2.086   0.437   5.760  0.0917  0.4935  0.2398
 6965TIP3    H142386   2.101   0.492   5.837 -0.5709  0.9524  0.0477
 6965TIP3    H242387   2.093   0.497   5.685  0.3972  0.1153 -0.0442
 6966TIP3   OH242388   4.460   1.618  14.438 -0.4022  0.1886  0.3530
 6966TIP3    H142389   4.381   1.591  14.484 -1.2904 -0.5005 -1.4573
 6966TIP3    H242390   4.523   1.548  14.455 -0.9723 -0.4420 -0.0802
 6967TIP3   OH242391   6.725   3.379   5.488  0.2515  0.3850 -0.1633
 6967TIP3    H142392   6.717   3.285   5.471 -0.3558  0.7001 -1.7978
 6967TIP3    H242393   6.653   3.399   5.548 -0.8253  0.1217 -1.3319
 6968TIP3   OH242394   0.273   2.898  16.891  0.0958 -0.1554 -0.0390
 6968TIP3    H142395   0.214   2.929  16.823 -1.1896  0.4052  1.2607
 6968TIP3    H242396   0.360   2.921  16.860 -0.4797  0.4286 -1.2976
 6969TIP3   OH242397   0.949   3.567   0.968  0.6468  0.4084 -0.0138
 6969TIP3    H142398   0.917   3.570   0.878 -0.3070 -0.5397  0.2726
 6969TIP3    H242399   0.952   3.658   0.996 -1.0212  0.5897 -0.3432
 6970TIP3   OH242400   2.930   3.945   1.270  0.2333  0.5228 -0.1802
 6970TIP3    H142401   2.944   4.030   1.314  2.0600 -0.9867  2.4624
 6970TIP3    H242402   2.835   3.933   1.271  0.0827  1.3326  2.0622
 6971TIP3   OH242403   0.783   0.932   1.634  0.5958  0.0262 -0.0845
 6971TIP3    H142404   0.714   0.890   1.582  1.4124  0.8316 -1.8645
 6971TIP3    H242405   0.735   0.975   1.706 -0.2577 -5.2734  3.0967
 6972TIP3   OH242406   4.040   2.148   5.565  0.1094 -0.0443 -0.1455
 6972TIP3    H142407   4.020   2.078   5.503  0.1445 -0.5233  0.3706
 6972TIP3    H242408   4.116   2.116   5.613  1.5449  1.3072 -1.3914
 6973TIP3   OH242409   2.058   3.322  13.580 -0.2790 -0.1264 -0.3527
 6973TIP3    H142410   2.137   3.281  13.615 -0.5873 -0.0701  0.4363
 6973TIP3    H242411   2.018   3.366  13.655 -1.8793 -1.4590 -0.3445
 6974TIP3   OH242412   2.090   1.047  17.200  0.4073 -0.0567  0.3646
 6974TIP3    H142413   2.043   1.130  17.195  1.5186  0.5613 -0.1555
 6974TIP3    H242414   2.023   0.981  17.183 -0.2339  0.8024 -0.5426
 6975TIP3   OH242415   1.770   2.321   5.439  0.2428  0.4576 -0.2633
 6975TIP3    H142416   1.714   2.377   5.492  0.8084 -1.4130  2.5357
 6975TIP3    H242417   1.722   2.309   5.357 -1.5487  2.0541  0.4762
 6976TIP3   OH242418   5.886   6.376   4.111  0.1816 -0.5449  0.0965
 6976TIP3    H142419   5.848   6.449   4.160 -0.5381  0.3524 -1.7033
 6976TIP3    H242420   5.836   6.372   4.030  2.6553 -0.5432 -1.5592
 6977TIP3   OH242421   0.463   3.163   0.706 -0.3879  0.0529  0.5170
 6977TIP3    H142422   0.416   3.100   0.760 -0.1295 -0.7542 -0.1764
 6977TIP3    H242423   0.496   3.112   0.632  3.0728  0.1813  1.7953
 6978TIP3   OH242424   4.408   2.284   6.034  0.1981  0.3922 -0.3978
 6978TIP3    H142425   4.434   2.302   6.125  0.0024 -0.2329 -0.2151
 6978TIP3    H242426   4.490   2.271   5.988  0.2700 -1.4776  0.1557
 6979TIP3   OH242427   6.236   4.198   0.072  0.1200  0.2333  0.2191
 6979TIP3    H142428   6.281   4.275   0.037  0.4098 -0.9484 -2.2422
 6979TIP3    H242429   6.295   4.163   0.139 -0.1520  2.2414  1.5867
 6980TIP3   OH242430   1.490   0.106   5.960  0.5941  0.5030 -0.0355
 6980TIP3    H142431   1.484   0.011   5.968  0.0095  0.6525  1.7068
 6980TIP3    H242432   1.483   0.139   6.050  1.3590  2.1766 -0.5312
 6981TIP3   OH242433   6.330   6.271   5.090  0.3792  0.1814  0.4905
 6981TIP3    H142434   6.394   6.321   5.040 -0.0659 -0.1815 -0.4703
 6981TIP3    H242435   6.362   6.181   5.087 -0.1204  0.0130  0.0917
 6982TIP3   OH242436   0.352   2.404  15.666  0.5836 -0.4205 -0.0754
 6982TIP3    H142437   0.275   2.418  15.720  0.8253 -0.5394  0.3052
 6982TIP3    H242438   0.371   2.490  15.628  0.6171 -0.2545  0.3092
 6983TIP3   OH242439   5.582   2.052   6.023 -0.6469  0.1603 -0.4720
 6983TIP3    H142440   5.659   1.999   6.043 -1.5151 -0.9236  0.0654
 6983TIP3    H242441   5.513   2.017   6.079 -1.6113  0.9319 -1.1455
 6984TIP3   OH242442   5.013   5.585   1.045 -0.0341 -0.0647  0.0556
 6984TIP3    H142443   5.037   5.575   1.137  1.4855  0.7982 -0.2210
 6984TIP3    H242444   5.045   5.505   1.003 -0.2624 -0.2236  0.1806
 6985TIP3   OH242445   3.354   0.303  16.712 -0.5891  0.0172  0.5470
 6985TIP3    H142446   3.395   0.240  16.771 -2.9363 -0.3197  1.9593
 6985TIP3    H242447   3.302   0.249  16.652  1.1106  0.4080 -1.4160
 6986TIP3   OH242448   3.855   0.037  16.849  0.0241 -0.1880  0.3917
 6986TIP3    H142449   3.829  -0.053  16.870  0.5486 -0.2172  0.9613
 6986TIP3    H242450   3.872   0.077  16.935  0.0185  0.3839  0.1292
 6987TIP3   OH242451   2.409   4.195   4.246 -0.2203  0.0907 -0.7476
 6987TIP3    H142452   2.432   4.168   4.335 -1.0239  0.8491 -0.2908
 6987TIP3    H242453   2.313   4.192   4.244 -0.2002 -0.3452 -1.7370
 6988TIP3   OH242454   2.636   4.860  13.240 -0.2367  0.4106 -0.0531
 6988TIP3    H142455   2.621   4.846  13.333  1.7902  1.1224  0.4426
 6988TIP3    H242456   2.726   4.894  13.235 -0.4890  0.9289 -2.2157
 6989TIP3   OH242457   0.617   2.797  11.376 -0.4636  0.0839  0.4061
 6989TIP3    H142458   0.696   2.784  11.428 -2.0305  2.8797  3.8955
 6989TIP3    H242459   0.561   2.723  11.396 -0.7122  0.7142  2.1807
 6990TIP3   OH242460   3.858   1.793   0.663 -0.0638  0.3640  0.5901
 6990TIP3    H142461   3.857   1.797   0.568 -1.3007 -0.5992  0.5313
 6990TIP3    H242462   3.787   1.733   0.685 -0.6173  1.5231  2.1664
 6991TIP3   OH242463   2.304   4.612  16.168 -0.5759 -0.7708  0.3919
 6991TIP3    H142464   2.250   4.558  16.110 -1.2711 -0.4694  0.7524
 6991TIP3    H242465   2.341   4.549  16.230 -1.6103 -0.8147  0.9887
 6992TIP3   OH242466   4.086   5.690   1.360 -0.0582  0.2490  0.3341
 6992TIP3    H142467   4.160   5.745   1.387  0.3158  0.2017 -0.5743
 6992TIP3    H242468   4.022   5.700   1.430  1.0341 -0.1509  1.4274
 6993TIP3   OH242469   5.537   6.289  10.886  0.7402  0.7066 -0.1218
 6993TIP3    H142470   5.587   6.262  10.809  0.9578  0.2276  0.1801
 6993TIP3    H242471   5.448   6.301  10.854  0.9159  0.9352 -0.5336
 6994TIP3   OH242472   1.149   5.891  10.796  0.0961 -0.2433 -0.1723
 6994TIP3    H142473   1.115   5.885  10.886 -1.6811 -2.0594 -0.9141
 6994TIP3    H242474   1.080   5.936  10.747 -0.0028 -1.3577 -1.0933
 6995TIP3   OH242475   4.508   3.996   5.669  0.1688 -0.3707 -0.3806
 6995TIP3    H142476   4.602   3.986   5.654  0.6945  1.4806  1.2255
 6995TIP3    H242477   4.494   3.965   5.758 -0.6815 -0.3134 -0.4843
 6996TIP3   OH242478   3.744   3.107  13.051  0.5588 -0.1189  0.4684
 6996TIP3    H142479   3.695   3.189  13.060 -1.0135 -1.0046  0.1781
 6996TIP3    H242480   3.705   3.063  12.976  1.6960 -0.9420  0.3310
 6997TIP3   OH242481   4.842   4.013  16.673  0.4600 -0.1377  0.2317
 6997TIP3    H142482   4.855   4.106  16.656 -0.0287 -0.2874 -1.1685
 6997TIP3    H242483   4.895   3.969  16.607 -0.6859 -0.8033 -0.2928
 6998TIP3   OH242484   6.282   5.100  13.748 -0.8514 -0.0345 -0.0609
 6998TIP3    H142485   6.283   5.013  13.707 -0.4749  0.6337 -1.5119
 6998TIP3    H242486   6.235   5.086  13.831 -2.7595 -1.1783 -1.2508
 6999TIP3   OH242487   1.123   3.824  12.685  0.3043 -1.2459  1.0613
 6999TIP3    H142488   1.049   3.829  12.623  2.1730  0.0624 -1.2306
 6999TIP3    H242489   1.087   3.857  12.767 -1.5523 -0.1295 -0.1134
 7000TIP3   OH242490   1.409   3.316  12.407 -0.4729  0.6217 -0.1587
 7000TIP3    H142491   1.400   3.291  12.499  0.4040  1.0442  0.0623
 7000TIP3    H242492   1.338   3.270  12.362 -0.8265  0.2943  0.7042
 7001TIP3   OH242493   0.323   4.550   5.030  0.6500 -0.0935 -0.2128
 7001TIP3    H142494   0.367   4.490   5.090 -0.1748 -1.5327 -0.9801
 7001TIP3    H242495   0.312   4.500   4.949 -1.8749  0.3395 -0.2429
 7002TIP3   OH242496   1.444   0.440  12.503  0.1017  0.1423 -0.4642
 7002TIP3    H142497   1.372   0.462  12.563  1.4315  2.1334  0.5014
 7002TIP3    H242498   1.520   0.432  12.560  0.9099 -0.6508 -1.6260
 7003TIP3   OH242499   1.496   5.798  13.489  0.8333 -0.0529 -0.3374
 7003TIP3    H142500   1.578   5.844  13.469  0.9377  0.5266  1.2632
 7003TIP3    H242501   1.493   5.797  13.584 -1.4944  0.7546 -0.3551
 7004TIP3   OH242502   2.158   0.402   2.650  0.2678 -0.1248  0.0780
 7004TIP3    H142503   2.132   0.391   2.741  1.1334 -1.1323  0.2294
 7004TIP3    H242504   2.200   0.319   2.627 -1.0071 -0.3471 -1.6080
 7005TIP3   OH242505   0.432   0.329  14.717 -0.0572 -0.0788  0.6423
 7005TIP3    H142506   0.499   0.306  14.652  0.5225  1.4683  0.6605
 7005TIP3    H242507   0.480   0.379  14.784 -0.9406 -0.3390  1.4855
 7006TIP3   OH242508   3.512   1.592   1.089 -0.0660  0.6712 -0.3337
 7006TIP3    H142509   3.517   1.545   1.006  0.6887  1.0848 -0.5252
 7006TIP3    H242510   3.456   1.668   1.070  2.6779  2.5677 -1.3715
 7007TIP3   OH242511   4.217   2.764   4.514  0.3714  0.1077  0.0256
 7007TIP3    H142512   4.157   2.833   4.543 -2.0904 -0.9434 -2.2094
 7007TIP3    H242513   4.238   2.717   4.595 -1.0728  1.0640  1.0232
 7008TIP3   OH242514   4.749   2.378   3.373  0.4295 -0.1163 -0.2329
 7008TIP3    H142515   4.671   2.367   3.427  0.6734  1.4822  0.4962
 7008TIP3    H242516   4.719   2.429   3.297  0.5267 -0.5822 -0.5947
 7009TIP3   OH242517   2.087   1.958  15.068  0.1727  0.2176  0.1741
 7009TIP3    H142518   2.177   1.955  15.037  0.1220 -2.5379  0.0154
 7009TIP3    H242519   2.091   1.925  15.158 -0.7318 -0.6703 -0.0866
 7010TIP3   OH242520   2.214   3.475   4.093 -0.2947 -0.3563  0.3852
 7010TIP3    H142521   2.153   3.458   4.165 -1.4584 -3.2245 -1.1147
 7010TIP3    H242522   2.163   3.525   4.030  0.4536  1.3896  1.1171
 7011TIP3   OH242523   3.953   0.007   4.241  0.1387 -0.3653 -0.3882
 7011TIP3    H142524   4.034  -0.036   4.213  0.0119 -0.8565 -0.0279
 7011TIP3    H242525   3.885  -0.032   4.185 -0.1844 -1.6851  0.8504
 7012TIP3   OH242526   2.338   6.333  15.039  0.0215  0.0882  0.0866
 7012TIP3    H142527   2.349   6.252  14.989  0.4015  0.4676 -0.4545
 7012TIP3    H242528   2.266   6.378  14.996 -1.8162 -1.0244  1.8239
 7013TIP3   OH242529   1.907   1.810  15.992  0.1916  0.3730 -0.6564
 7013TIP3    H142530   1.975   1.763  16.040  0.4910  1.0154 -0.4324
 7013TIP3    H242531   1.920   1.902  16.017 -1.6671  0.3704  0.5317
 7014TIP3   OH242532   2.503   0.159  15.667  0.5593  0.2630  0.3567
 7014TIP3    H142533   2.412   0.137  15.645  0.9096 -0.9788  0.1140
 7014TIP3    H242534   2.525   0.230  15.607  0.7336 -1.5021 -1.7534
 7015TIP3   OH242535   2.457   2.778  13.588  1.1933 -0.6255  0.1466
 7015TIP3    H142536   2.514   2.707  13.561  0.0872 -1.0747 -1.0628
 7015TIP3    H242537   2.424   2.815  13.507  1.4396  1.0490  0.7598
 7016TIP3   OH242538   3.577   1.392   0.898 -0.2116  0.2731  0.5837
 7016TIP3    H142539   3.504   1.331   0.911  0.2941 -0.4751 -0.0504
 7016TIP3    H242540   3.624   1.358   0.823  0.8297  0.7302  1.0142
 7017TIP3   OH242541   3.429   6.524   5.046  0.2975  0.5922 -0.5734
 7017TIP3    H142542   3.348   6.481   5.072  0.4738  0.1882 -0.6831
 7017TIP3    H242543   3.449   6.488   4.959 -0.3224  1.9753 -1.3258
 7018TIP3   OH242544   4.030   3.486   3.392 -0.1587 -0.0270  0.4600
 7018TIP3    H142545   4.031   3.424   3.465 -1.5895 -0.0973  0.4424
 7018TIP3    H242546   4.007   3.570   3.432 -1.3730 -0.1466  0.0669
 7019TIP3   OH242547   5.829   5.548   6.237  0.0158  0.1222 -0.1337
 7019TIP3    H142548   5.835   5.502   6.321 -0.7725  2.4187  1.2716
 7019TIP3    H242549   5.810   5.639   6.260  0.8916  1.0880 -2.7842
 7020TIP3   OH242550   1.954   2.243  15.181  0.0115  0.2195 -0.0786
 7020TIP3    H142551   1.912   2.168  15.223  0.7915  0.4890  1.2242
 7020TIP3    H242552   2.036   2.208  15.146  0.6738  0.5717  1.0777
 7021TIP3   OH242553   5.570   4.760  14.531 -0.3661  0.1995  0.4622
 7021TIP3    H142554   5.543   4.675  14.567  0.2993 -0.5398 -0.7330
 7021TIP3    H242555   5.564   4.820  14.606  0.6707 -1.2105  1.7591
 7022TIP3   OH242556   5.658   6.309  13.096 -0.3378  0.0002  0.1482
 7022TIP3    H142557   5.584   6.255  13.068 -0.2901 -0.2556  0.4976
 7022TIP3    H242558   5.619   6.386  13.137 -0.4082  0.1199 -0.1447
 7023TIP3   OH242559   0.539   5.235  17.218  0.4788  0.3763  0.8184
 7023TIP3    H142560   0.594   5.231  17.140 -0.5473  0.6046  0.0776
 7023TIP3    H242561   0.506   5.145  17.228  2.3065 -0.2107  2.2696
 7024TIP3   OH242562   5.453   5.628  13.258  0.3245  0.1714  0.5334
 7024TIP3    H142563   5.542   5.663  13.257  1.6079 -2.7899  0.0693
 7024TIP3    H242564   5.429   5.627  13.350  0.4503  1.6713  0.6018
 7025TIP3   OH242565   4.232   1.518   2.230 -0.0260  0.5329  0.1400
 7025TIP3    H142566   4.202   1.582   2.165 -2.5184  0.3840  1.0234
 7025TIP3    H242567   4.266   1.572   2.302  0.8241  0.7554 -0.4223
 7026TIP3   OH242568   1.393   4.403   4.898 -0.1757 -0.3788 -0.6163
 7026TIP3    H142569   1.386   4.441   4.810 -0.6797  0.0839 -0.3815
 7026TIP3    H242570   1.482   4.426   4.927 -0.5591  0.8826 -0.3703
 7027TIP3   OH242571   6.539   6.020   3.625  0.1027 -0.1657 -0.0910
 7027TIP3    H142572   6.627   6.053   3.643 -0.3936  1.5044 -0.5860
 7027TIP3    H242573   6.540   6.000   3.531  0.5381 -2.0854  0.2882
 7028TIP3   OH242574   3.487   3.232  13.386  0.3683  0.2081  0.0209
 7028TIP3    H142575   3.563   3.236  13.445  0.9297  2.2984 -0.7369
 7028TIP3    H242576   3.513   3.172  13.317  2.5201  2.8091 -1.6365
 7029TIP3   OH242577   0.413   4.294   3.787 -0.2731  0.3084 -0.4556
 7029TIP3    H142578   0.429   4.229   3.719 -0.4352 -0.7580  0.4843
 7029TIP3    H242579   0.494   4.297   3.837 -0.2001  0.9796 -0.6043
 7030TIP3   OH242580   6.059   3.599   5.234 -0.3315 -0.0601 -0.5120
 7030TIP3    H142581   6.090   3.680   5.193 -0.5688  0.8778  1.0829
 7030TIP3    H242582   6.112   3.591   5.314 -2.1334 -0.0153  0.7282
 7031TIP3   OH242583   3.410   1.637  16.185 -0.0847 -0.1386 -0.0632
 7031TIP3    H142584   3.403   1.684  16.268 -1.7622 -0.5147  0.0442
 7031TIP3    H242585   3.447   1.552  16.208  1.4028  0.4914 -0.0249
 7032TIP3   OH242586   4.325   3.018   2.126 -0.1292 -0.0247  0.3620
 7032TIP3    H142587   4.298   2.968   2.048 -1.8228 -1.5205  1.7986
 7032TIP3    H242588   4.374   2.955   2.179 -1.4120  0.0655  1.7427
 7033TIP3   OH242589   0.749   3.857  13.751  0.0130  0.1210  0.2118
 7033TIP3    H142590   0.672   3.863  13.694  0.3174 -0.7478 -0.3073
 7033TIP3    H242591   0.733   3.922  13.819 -0.7770  0.5540 -0.3703
 7034TIP3   OH242592   2.768   1.816   5.008  0.3962 -0.3209 -0.9983
 7034TIP3    H142593   2.706   1.887   4.990  1.8886  1.2680 -0.1890
 7034TIP3    H242594   2.820   1.848   5.081  2.2534 -1.5145 -1.7291
 7035TIP3   OH242595   3.938   2.492  12.733 -0.3417 -0.5469  0.1478
 7035TIP3    H142596   3.874   2.430  12.696  0.7463 -1.8011  0.2793
 7035TIP3    H242597   3.976   2.445  12.808  0.7765  0.1246  0.0221
 7036TIP3   OH242598   4.759   0.312  12.275  0.3053  0.1425  0.1908
 7036TIP3    H142599   4.758   0.372  12.201 -0.5321 -1.2316 -0.9667
 7036TIP3    H242600   4.851   0.288  12.286  0.4548  0.4906 -0.2918
 7037TIP3   OH242601   2.893   4.363  12.259  0.2282 -0.1020 -0.4879
 7037TIP3    H142602   2.827   4.419  12.218  0.3661 -0.5630 -1.3662
 7037TIP3    H242603   2.943   4.422  12.314 -0.7600  0.2982  0.0007
 7038TIP3   OH242604   5.092   0.290   3.217 -0.7963 -0.6853 -0.9074
 7038TIP3    H142605   5.037   0.212   3.206 -0.4966 -1.1766  0.8342
 7038TIP3    H242606   5.156   0.283   3.146 -1.4472 -1.4361 -1.4438
 7039TIP3   OH242607   1.216   3.915  13.027 -0.1026 -0.3525  0.1464
 7039TIP3    H142608   1.197   3.825  13.003  1.5218 -0.5340 -0.5270
 7039TIP3    H242609   1.142   3.965  12.991 -0.2320 -1.2305 -0.8577
 7040TIP3   OH242610   3.675   6.009  14.769 -0.2756  0.3065  0.0584
 7040TIP3    H142611   3.600   6.031  14.715  0.1341  1.8094  0.0574
 7040TIP3    H242612   3.638   5.982  14.853 -0.8388 -0.2240 -0.3529
 7041TIP3   OH242613   1.459   4.614  13.392 -0.2120 -0.2062  0.0190
 7041TIP3    H142614   1.481   4.668  13.468 -0.7782  0.5669 -0.3572
 7041TIP3    H242615   1.457   4.525  13.426  1.6020 -0.1248  0.4777
 7042TIP3   OH242616   2.744   6.392   6.325  0.4345 -0.1811  0.2918
 7042TIP3    H142617   2.733   6.482   6.357 -0.0422 -0.0851 -0.1416
 7042TIP3    H242618   2.770   6.402   6.234  0.8084 -0.4808  0.3610
 7043TIP3   OH242619   5.631   3.190  15.589 -0.3403  0.0949 -0.6472
 7043TIP3    H142620   5.661   3.106  15.624 -0.7005 -0.0987 -0.7997
 7043TIP3    H242621   5.537   3.190  15.603 -0.0504  1.6681  1.9091
 7044TIP3   OH242622   2.575   1.466  14.479  0.4082 -0.1293 -0.4717
 7044TIP3    H142623   2.588   1.405  14.406 -1.5650 -2.0411  0.6513
 7044TIP3    H242624   2.486   1.498  14.469  0.9916  1.6803 -0.3159
 7045TIP3   OH242625   2.442   3.519   0.861 -0.0244 -0.1899  0.0664
 7045TIP3    H142626   2.452   3.480   0.774  2.7781 -0.2218  0.2912
 7045TIP3    H242627   2.421   3.445   0.918 -1.5808 -0.2156 -0.5104
 7046TIP3   OH242628   2.991   4.628  15.966  0.7111 -0.1450 -0.0696
 7046TIP3    H142629   2.962   4.538  15.952  1.6706 -0.2570 -1.4501
 7046TIP3    H242630   2.950   4.678  15.896  1.4897  0.2056 -0.2782
 7047TIP3   OH242631   4.433   6.529  13.180 -0.0479 -0.4550  0.1598
 7047TIP3    H142632   4.458   6.523  13.088  0.4285  1.1717  0.1497
 7047TIP3    H242633   4.404   6.441  13.203 -0.2967 -0.8622 -1.5748
 7048TIP3   OH242634   1.825   4.771   3.654  0.0536  0.0837  0.5413
 7048TIP3    H142635   1.841   4.848   3.707  1.2599  0.1653  0.0873
 7048TIP3    H242636   1.887   4.706   3.687 -0.0398 -0.2589  0.0551
 7049TIP3   OH242637   4.950   5.164   4.149  0.2711 -0.3159 -0.1976
 7049TIP3    H142638   4.948   5.082   4.101  0.2528 -0.0109 -0.7267
 7049TIP3    H242639   4.975   5.230   4.084 -1.1633  0.3330 -0.1452
 7050TIP3   OH242640   2.505   0.357   2.791 -0.3526  0.6651  0.4985
 7050TIP3    H142641   2.481   0.294   2.723 -0.7736 -2.6406  3.4097
 7050TIP3    H242642   2.440   0.427   2.783 -2.6283 -1.3843 -0.3287
 7051TIP3   OH242643   2.661   1.848  15.561 -0.5236 -0.0939  0.2236
 7051TIP3    H142644   2.582   1.794  15.558 -0.7755  0.2309  0.9044
 7051TIP3    H242645   2.680   1.858  15.654  0.6828 -0.6864  0.0653
 7052TIP3   OH242646   6.729   2.137  11.956 -0.4053 -0.0428 -0.5956
 7052TIP3    H142647   6.778   2.158  11.876 -1.1116  0.9460 -0.7901
 7052TIP3    H242648   6.637   2.140  11.929 -0.7052  1.2490  0.4348
 7053TIP3   OH242649   0.834   6.415   5.991  0.4111  0.0368 -0.1349
 7053TIP3    H142650   0.895   6.389   5.922  2.1136  0.1131  1.2683
 7053TIP3    H242651   0.775   6.341   6.001  2.8196 -1.8693  1.2037
 7054TIP3   OH242652   5.685   2.603  12.827 -0.2854 -0.6863  0.3115
 7054TIP3    H142653   5.627   2.544  12.779 -0.5224 -1.3865  1.4435
 7054TIP3    H242654   5.657   2.596  12.918 -0.6369  1.5266  0.4273
 7055TIP3   OH242655   3.619   2.670  14.055 -0.5731  0.2034  0.2352
 7055TIP3    H142656   3.615   2.626  13.971 -0.1390  0.1447  0.2442
 7055TIP3    H242657   3.712   2.670  14.078 -0.6872  0.2218  0.7093
 7056TIP3   OH242658   6.238   6.304  12.976  0.0367  0.1843  0.5293
 7056TIP3    H142659   6.162   6.300  12.917 -0.4116  3.1137  0.7769
 7056TIP3    H242660   6.201   6.296  13.064 -0.4113  3.5159  0.7909
 7057TIP3   OH242661   0.912   6.170  14.817 -0.1302  0.6081 -0.2272
 7057TIP3    H142662   0.984   6.168  14.880  1.0246 -0.2094 -1.5433
 7057TIP3    H242663   0.887   6.263  14.812  0.3880  0.8059  0.7130
 7058TIP3   OH242664   1.494   3.487   6.170  0.9254  0.2946 -0.0751
 7058TIP3    H142665   1.472   3.555   6.235 -2.1455 -0.4983 -0.1211
 7058TIP3    H242666   1.545   3.423   6.219 -0.6519  0.0993  1.4278
 7059TIP3   OH242667   1.630   3.009  14.602 -0.2218  0.3062  0.3611
 7059TIP3    H142668   1.723   3.004  14.625 -0.2062 -1.7080  0.0273
 7059TIP3    H242669   1.628   2.997  14.507 -0.8442 -0.1755  0.4290
 7060TIP3   OH242670   2.039   0.246   5.268 -0.0252  0.0709  0.0648
 7060TIP3    H142671   1.963   0.191   5.287 -0.5328  0.2746 -1.2918
 7060TIP3    H242672   2.035   0.316   5.332  0.2997 -1.1300  1.4492
 7061TIP3   OH242673   4.776   5.981   0.473 -0.5478 -0.1185 -0.3684
 7061TIP3    H142674   4.727   5.952   0.550  0.5432 -1.5850 -0.1827
 7061TIP3    H242675   4.868   5.965   0.494 -0.1896 -0.1879 -1.8206
 7062TIP3   OH242676   0.550   4.980  17.260 -0.4439 -0.2278  0.3713
 7062TIP3    H142677   0.591   4.911  17.208 -1.5751  0.9152 -2.2355
 7062TIP3    H242678   0.494   4.934  17.323 -1.6890 -1.7677 -1.7386
 7063TIP3   OH242679   4.407   0.607  15.470  0.5111 -0.5310  0.4420
 7063TIP3    H142680   4.486   0.660  15.477  0.1604  0.1981 -0.7282
 7063TIP3    H242681   4.430   0.523  15.509  1.7964 -0.2680  0.2870
 7064TIP3   OH242682   3.243   0.713  12.501 -0.6612  0.1051  0.0101
 7064TIP3    H142683   3.225   0.632  12.550  2.6575 -1.4025 -0.9018
 7064TIP3    H242684   3.205   0.698  12.415 -1.4717  0.2285  0.3436
 7065TIP3   OH242685   2.066   6.053   5.696  0.1759  0.1119  0.1532
 7065TIP3    H142686   2.143   6.055   5.753 -0.5915 -0.1662  1.2255
 7065TIP3    H242687   2.024   5.969   5.715  0.4872 -0.4820 -1.6441
 7066TIP3   OH242688   4.631   4.375   3.042 -0.0483 -0.3130  0.8899
 7066TIP3    H142689   4.629   4.448   2.980  1.3185 -0.2472  0.8940
 7066TIP3    H242690   4.605   4.299   2.989 -0.1715 -0.0431  0.5564
 7067TIP3   OH242691   6.002   3.430   4.172 -0.1611 -0.2132  0.3382
 7067TIP3    H142692   5.922   3.430   4.224 -0.8374 -1.0297 -0.6521
 7067TIP3    H242693   6.003   3.344   4.129 -0.1061  0.7402 -1.6651
 7068TIP3   OH242694   1.561   4.481  14.461  0.1240  0.3873 -0.5261
 7068TIP3    H142695   1.619   4.456  14.389  0.5402  2.6490 -1.0586
 7068TIP3    H242696   1.617   4.477  14.539  0.2198 -0.1231 -0.6173
 7069TIP3   OH242697   3.947   0.674  15.956 -0.3153  0.2406  0.3876
 7069TIP3    H142698   3.919   0.586  15.980 -0.8487  0.2505 -0.1854
 7069TIP3    H242699   3.872   0.729  15.977  0.1998  0.6529  1.2400
 7070TIP3   OH242700   3.087   4.330   5.634  0.6892  0.1842 -0.1565
 7070TIP3    H142701   3.137   4.388   5.691 -0.2071  2.0391 -1.1670
 7070TIP3    H242702   3.073   4.251   5.687  2.3598  0.6661  1.0921
 7071TIP3   OH242703   1.076   1.715  12.815  0.0074  1.1256  0.4892
 7071TIP3    H142704   1.145   1.733  12.751  1.0586  0.3063  1.3499
 7071TIP3    H242705   0.994   1.725  12.766  0.7745  0.4251 -1.0064
 7072TIP3   OH242706   5.013   3.289   4.443 -0.6336 -0.1454  0.7100
 7072TIP3    H142707   5.089   3.259   4.492  0.0755 -2.7055 -1.6825
 7072TIP3    H242708   5.050   3.338   4.369 -1.2451 -1.3223 -0.4152
 7073TIP3   OH242709   3.042   3.366  12.904 -0.3193  0.6315  0.1528
 7073TIP3    H142710   3.018   3.455  12.932 -2.1304  0.6891 -1.4069
 7073TIP3    H242711   3.109   3.379  12.838  0.9575  0.6913  1.4127
 7074TIP3   OH242712   3.094   4.379  14.499 -0.1243 -0.1683 -0.5766
 7074TIP3    H142713   3.099   4.452  14.438 -0.6030 -1.3490 -2.0801
 7074TIP3    H242714   3.000   4.362  14.510 -0.0336 -0.2578  0.1681
 7075TIP3   OH242715   0.794   5.444   1.792  0.2661 -0.1114 -0.4314
 7075TIP3    H142716   0.862   5.417   1.730  0.4551 -0.7049  0.0255
 7075TIP3    H242717   0.832   5.430   1.878  0.4285  1.8319 -0.1489
 7076TIP3   OH242718   0.559   2.527  12.253  0.3778 -0.0065  0.2447
 7076TIP3    H142719   0.649   2.513  12.283  0.3578  0.9662  0.8275
 7076TIP3    H242720   0.505   2.500  12.327  0.3284  2.4487  1.1965
 7077TIP3   OH242721   3.981   5.559  17.084  0.1227  0.6124 -0.3362
 7077TIP3    H142722   4.009   5.550  16.992 -0.1505  0.4782 -0.4033
 7077TIP3    H242723   4.060   5.540  17.134  0.6523  2.0278 -0.5608
 7078TIP3   OH242724   0.608   2.584  11.608 -0.9833  0.0157 -0.1060
 7078TIP3    H142725   0.664   2.632  11.669 -0.2501 -2.1002  1.0218
 7078TIP3    H242726   0.520   2.618  11.624 -0.5576  0.6688  0.9523
 7079TIP3   OH242727   2.387   6.305   0.787 -0.1747 -0.1306  0.0458
 7079TIP3    H142728   2.327   6.363   0.834 -0.2653  0.2312 -0.5059
 7079TIP3    H242729   2.449   6.364   0.744 -1.6170 -0.2568 -2.4062
 7080TIP3   OH242730   0.916   5.417   2.026  0.1092  0.3366 -0.9831
 7080TIP3    H142731   0.907   5.493   2.084 -0.1987 -0.6247  0.2754
 7080TIP3    H242732   0.991   5.369   2.061 -0.3479 -0.4890 -1.1116
 7081TIP3   OH242733   0.519   6.619   2.958  0.3053 -0.3495 -0.1067
 7081TIP3    H142734   0.579   6.549   2.982  1.9825  0.7054 -1.0325
 7081TIP3    H242735   0.574   6.685   2.915 -1.4049  0.9850 -0.3821
 7082TIP3   OH242736   2.826   4.690   4.299 -0.7237  0.0481 -0.0191
 7082TIP3    H142737   2.817   4.711   4.392  1.2825 -0.8602  0.4419
 7082TIP3    H242738   2.888   4.755   4.266  0.5140 -1.1203 -0.0923
 7083TIP3   OH242739   3.974   6.147  11.465  0.0066  0.7610 -0.2017
 7083TIP3    H142740   3.995   6.070  11.517 -1.8224  0.8838  0.7980
 7083TIP3    H242741   3.905   6.117  11.405 -0.9565  1.6616  0.4225
 7084TIP3   OH242742   5.997   1.468  16.530  0.4728 -0.1691  0.3130
 7084TIP3    H142743   5.953   1.412  16.594  1.4331 -0.2414  0.9187
 7084TIP3    H242744   6.069   1.415  16.496  1.5336  0.7571  1.0589
 7085TIP3   OH242745   3.745   0.170   5.219 -0.3677 -0.2057 -0.0724
 7085TIP3    H142746   3.665   0.154   5.170 -0.6278  1.7146 -0.3511
 7085TIP3    H242747   3.716   0.211   5.300  0.3625  2.3760 -1.0099
 7086TIP3   OH242748   4.795   2.430   2.227 -0.5678 -0.1241  0.1974
 7086TIP3    H142749   4.886   2.401   2.233  0.2157  1.1332 -3.2172
 7086TIP3    H242750   4.744   2.351   2.247  1.3364 -1.7755 -1.0204
 7087TIP3   OH242751   5.447   3.984  17.232  0.2838  0.6345  0.0126
 7087TIP3    H142752   5.474   3.917  17.295  0.6914  0.8655  0.0866
 7087TIP3    H242753   5.415   3.934  17.156 -0.4072  0.3565  0.4822
 7088TIP3   OH242754   3.645   0.373   5.415  0.2181  0.3290 -0.3342
 7088TIP3    H142755   3.550   0.373   5.426  0.0725  1.0764 -1.3592
 7088TIP3    H242756   3.672   0.460   5.444  0.8025 -0.3957  1.3788
 7089TIP3   OH242757   2.445   5.251   1.854  0.4889  0.3866  0.0605
 7089TIP3    H142758   2.365   5.205   1.828  0.7261  1.3735 -2.7590
 7089TIP3    H242759   2.436   5.265   1.948 -1.5312 -1.6039  0.2324
 7090TIP3   OH242760   6.740   3.136   5.324  0.1410  0.2182 -0.2247
 7090TIP3    H142761   6.651   3.158   5.296  0.6970  0.8021 -1.6287
 7090TIP3    H242762   6.731   3.051   5.368 -1.0180 -0.0779 -0.9794
 7091TIP3   OH242763   6.615   5.025   0.050  1.0191 -0.8791 -0.9680
 7091TIP3    H142764   6.635   4.955  -0.013  0.0728 -0.4726 -1.7445
 7091TIP3    H242765   6.604   5.103  -0.004  0.2034 -0.5144 -0.2989
 7092TIP3   OH242766   4.176   0.607  17.132 -0.3790 -0.6157  0.1664
 7092TIP3    H142767   4.203   0.657  17.055 -0.5962 -0.5207  0.1498
 7092TIP3    H242768   4.209   0.519  17.116 -0.7772 -0.6964 -0.2280
 7093TIP3   OH242769   3.659   3.191  16.030  0.1361 -0.0620 -0.0288
 7093TIP3    H142770   3.658   3.120  15.965  3.2785  0.7472 -1.1179
 7093TIP3    H242771   3.661   3.271  15.978 -1.0989  0.8027  1.1755
 7094TIP3   OH242772   4.673   4.583  11.929 -0.0164  0.1309 -0.2933
 7094TIP3    H142773   4.625   4.501  11.943 -1.4987  0.8976 -0.6181
 7094TIP3    H242774   4.691   4.584  11.835 -2.0986  1.1979 -0.7596
 7095TIP3   OH242775   4.396   1.918  13.562 -0.4257  0.1338 -0.3424
 7095TIP3    H142776   4.377   2.007  13.591 -1.3291 -0.5638  1.3218
 7095TIP3    H242777   4.326   1.865  13.600  0.2351 -1.3356 -1.0975
 7096TIP3   OH242778   5.534   3.994  12.904 -0.1028  0.2006 -0.3146
 7096TIP3    H142779   5.541   4.040  12.820  0.0388 -0.0095 -0.4171
 7096TIP3    H242780   5.610   4.024  12.953  0.3988 -0.4910 -0.6591
 7097TIP3   OH242781   0.936   5.903  17.331  0.1415 -0.2509 -0.0340
 7097TIP3    H142782   0.907   5.972  17.271 -0.7755 -2.5273 -2.4320
 7097TIP3    H242783   1.027   5.925  17.350 -0.0000  1.4065 -1.0484
 7098TIP3   OH242784   5.441   5.342  14.005 -0.4696 -0.1163 -0.1234
 7098TIP3    H142785   5.388   5.363  14.082  0.0303 -0.2538  0.2649
 7098TIP3    H242786   5.476   5.255  14.023  0.2335  0.1501 -0.1834
 7099TIP3   OH242787   1.305   4.386   6.339  0.3525  0.5545 -0.2971
 7099TIP3    H142788   1.321   4.292   6.327  0.8146  0.4746  0.8503
 7099TIP3    H242789   1.209   4.394   6.338  0.2687 -0.1096  0.7226
 7100TIP3   OH242790   3.801   1.479   4.842 -0.5950  0.0767 -0.4285
 7100TIP3    H142791   3.878   1.530   4.819 -0.9792  0.2524 -1.4044
 7100TIP3    H242792   3.833   1.389   4.852  0.0337  0.4290  1.0103
 7101TIP3   OH242793   0.847   2.157   2.644 -0.2818  0.9095 -0.1294
 7101TIP3    H142794   0.826   2.166   2.551  1.6620  0.6158 -0.6315
 7101TIP3    H242795   0.850   2.247   2.676  0.9776  1.1398 -0.8358
 7102TIP3   OH242796   0.338   5.600  11.580  0.5590 -0.2929 -1.1367
 7102TIP3    H142797   0.326   5.689  11.613  0.5682 -0.6245 -0.2228
 7102TIP3    H242798   0.430   5.580  11.597  0.2517 -0.9413 -0.1566
 7103TIP3   OH242799   3.898   3.763   0.735 -0.1679 -0.1399 -0.5829
 7103TIP3    H142800   3.928   3.829   0.797  0.5597 -0.6284 -0.4025
 7103TIP3    H242801   3.877   3.687   0.788 -1.6122  0.1256 -0.7238
 7104TIP3   OH242802   5.336   1.363  11.653  0.0290 -0.2038  0.6326
 7104TIP3    H142803   5.379   1.414  11.721 -0.8534 -0.1873  1.2014
 7104TIP3    H242804   5.323   1.276  11.692 -2.0002  0.2792  1.1619
 7105TIP3   OH242805   3.910   1.953   5.778  0.2813 -0.6110  0.1009
 7105TIP3    H142806   3.925   1.961   5.873 -1.1651 -0.0508  0.3131
 7105TIP3    H242807   3.970   2.016   5.739 -0.9610  1.1113  0.8525
 7106TIP3   OH242808   1.425   5.891   0.219  0.6771 -0.3004  0.0817
 7106TIP3    H142809   1.377   5.953   0.165  0.4566 -0.4720  0.0801
 7106TIP3    H242810   1.473   5.837   0.156  0.0128 -0.8368  0.0309
 7107TIP3   OH242811   3.418   6.172   2.634 -0.6284  0.5398 -0.0519
 7107TIP3    H142812   3.469   6.247   2.664  0.0814 -0.1082  0.4142
 7107TIP3    H242813   3.482   6.101   2.628 -1.5161 -0.3806  0.8408
 7108TIP3   OH242814   1.270   3.917   3.836 -0.0410  0.4849 -0.1641
 7108TIP3    H142815   1.274   4.010   3.858  0.9930  0.2279  0.8687
 7108TIP3    H242816   1.258   3.873   3.920  0.1811 -0.3495 -0.5577
 7109TIP3   OH242817   0.772   2.915   0.734 -0.0792  0.0791  0.4650
 7109TIP3    H142818   0.795   2.993   0.784 -0.5626  0.9675 -0.6381
 7109TIP3    H242819   0.740   2.949   0.650  0.1316 -1.3248 -0.2193
 7110TIP3   OH242820   6.431   1.939  12.551 -0.3191  0.3798  0.2101
 7110TIP3    H142821   6.340   1.963  12.534 -0.5040 -1.4870 -1.9857
 7110TIP3    H242822   6.482   2.013  12.517 -0.9439  2.1629  2.8662
 7111TIP3   OH242823   5.063   2.008   1.151 -0.0734 -0.0040  0.2830
 7111TIP3    H142824   5.033   1.989   1.062 -0.8855  1.0040  0.3202
 7111TIP3    H242825   4.983   2.007   1.204  0.5997 -2.4062  1.3774
 7112TIP3   OH242826   1.148   3.530  12.570  0.2696  0.4295 -0.1366
 7112TIP3    H142827   1.106   3.545  12.654 -0.6898 -0.7104 -0.3938
 7112TIP3    H242828   1.107   3.593  12.510  1.3658  1.6429  0.3502
 7113TIP3   OH242829   0.068   1.148   4.030 -0.0575  0.5144  0.2350
 7113TIP3    H142830   0.010   1.096   4.086 -0.7906 -0.3914 -1.2855
 7113TIP3    H242831   0.063   1.237   4.065 -1.3320  0.1827  0.9537
 7114TIP3   OH242832   2.761   0.799  12.291  0.3133 -0.5488  0.2923
 7114TIP3    H142833   2.765   0.766  12.381 -0.0415 -0.0464  0.4941
 7114TIP3    H242834   2.749   0.720  12.238  0.5067 -0.8467  0.6838
 7115TIP3   OH242835   5.425   3.541  14.955 -0.0864  0.4223 -0.4775
 7115TIP3    H142836   5.361   3.593  14.907 -0.5605 -0.3019 -0.6577
 7115TIP3    H242837   5.377   3.506  15.030  0.5840  1.3365  0.3997
 7116TIP3   OH242838   3.316   4.804  14.075  0.2033  0.2032  0.1736
 7116TIP3    H142839   3.404   4.783  14.043 -0.5409 -0.0993 -1.8005
 7116TIP3    H242840   3.294   4.733  14.134  0.9735 -0.1489  0.0482
 7117TIP3   OH242841   1.481   3.058  12.267  0.1421  0.3726  0.0627
 7117TIP3    H142842   1.388   3.077  12.281  0.1336  0.3166  0.0809
 7117TIP3    H242843   1.508   3.013  12.347  0.8867  2.9234  1.3848
 7118TIP3   OH242844   3.821   3.320  12.770 -0.4292  0.4790  0.0739
 7118TIP3    H142845   3.844   3.412  12.762 -0.4681  0.4770 -0.0599
 7118TIP3    H242846   3.734   3.320  12.812 -0.6126  0.5163 -0.3045
 7119TIP3   OH242847   5.756   6.399  13.940  0.0309  0.4498 -0.2897
 7119TIP3    H142848   5.808   6.469  13.901  1.2781  0.5005  1.3246
 7119TIP3    H242849   5.814   6.323  13.939 -0.3356  0.1542  0.3569
 7120TIP3   OH242850   2.369   1.443   3.656 -0.2762 -0.0166 -0.1221
 7120TIP3    H142851   2.397   1.454   3.747 -0.1906 -0.0662 -0.1414
 7120TIP3    H242852   2.424   1.371   3.624 -0.2477  0.0557 -0.2363
 7121TIP3   OH242853   3.063   3.791   3.788 -0.4141  0.0598 -0.2663
 7121TIP3    H142854   2.969   3.807   3.786 -0.6502 -0.8076  1.5217
 7121TIP3    H242855   3.100   3.871   3.826 -0.3792  0.5307 -1.2746
 7122TIP3   OH242856   2.845   1.480  13.465  0.1319 -0.0631 -0.3930
 7122TIP3    H142857   2.891   1.514  13.542 -1.0763 -0.2245  0.4223
 7122TIP3    H242858   2.879   1.391  13.455  0.6344  0.1172 -0.3373
 7123TIP3   OH242859   2.837   5.138  12.250  0.4214 -0.1720 -0.1585
 7123TIP3    H142860   2.887   5.057  12.245 -0.9651 -1.0895  0.1497
 7123TIP3    H242861   2.821   5.151  12.344 -0.0135  0.0261 -0.2564
 7124TIP3   OH242862   0.369   0.952   1.872 -0.2947  0.5025 -0.4197
 7124TIP3    H142863   0.358   0.876   1.815 -0.8568  0.3782 -0.1541
 7124TIP3    H242864   0.306   0.939   1.943  0.9076  0.2693  0.6526
 7125TIP3   OH242865   6.097   5.687   1.277  0.4023 -0.1721 -0.0102
 7125TIP3    H142866   6.063   5.680   1.366 -0.9841 -0.5055 -0.5448
 7125TIP3    H242867   6.141   5.773   1.275 -1.0229  0.6011  0.5235
 7126TIP3   OH242868   1.147   2.520   6.653 -0.4389 -0.5414 -0.3690
 7126TIP3    H142869   1.227   2.473   6.679  0.1064  0.8609  0.5970
 7126TIP3    H242870   1.084   2.451   6.634  0.6917 -1.6753 -0.1680
 7127TIP3   OH242871   5.648   5.861  14.048 -0.1608  0.2027 -0.5402
 7127TIP3    H142872   5.575   5.894  13.996  0.1166  1.1496 -0.3563
 7127TIP3    H242873   5.644   5.766  14.039 -2.4346  0.1075  0.7975
 7128TIP3   OH242874   4.436   3.203  11.212  0.0731  0.4402 -0.4084
 7128TIP3    H142875   4.391   3.122  11.236  0.4871  0.2867 -0.1309
 7128TIP3    H242876   4.525   3.191  11.246  0.6010  0.3330 -1.7738
 7129TIP3   OH242877   0.356   5.216   2.387  0.1752 -0.2064  0.4008
 7129TIP3    H142878   0.419   5.204   2.316  0.0885 -0.5509  0.3763
 7129TIP3    H242879   0.353   5.310   2.402  2.2748 -0.3003  1.8252
 7130TIP3   OH242880   3.326   6.299  17.048  0.6890 -0.2456  0.0766
 7130TIP3    H142881   3.397   6.335  16.996 -0.2597 -0.4093 -1.3865
 7130TIP3    H242882   3.325   6.353  17.127  0.2794  2.0198 -1.3893
 7131TIP3   OH242883   2.082   5.641   1.000 -0.1322 -0.3090  0.5163
 7131TIP3    H142884   1.994   5.629   0.962 -0.2673  1.1980  0.2817
 7131TIP3    H242885   2.102   5.733   0.984  1.9346 -0.8489 -0.3451
 7132TIP3   OH242886   3.552   4.769  16.865 -0.6022 -0.2053 -0.0890
 7132TIP3    H142887   3.587   4.817  16.790 -1.4943  1.3398  0.4431
 7132TIP3    H242888   3.563   4.677  16.842  0.4924  0.2431 -1.4606
 7133TIP3   OH242889   0.865   6.488  14.791 -0.2862  0.1209  0.1549
 7133TIP3    H142890   0.912   6.506  14.872  1.3496  1.2608 -0.9882
 7133TIP3    H242891   0.785   6.540  14.796  0.0323  0.5442  0.8253
 7134TIP3   OH242892   1.498   4.875  17.409  0.1565 -0.4553  0.8341
 7134TIP3    H142893   1.575   4.875  17.466 -0.2993  0.8761  1.4718
 7134TIP3    H242894   1.526   4.826  17.332  1.7396  0.2303  0.9351
 7135TIP3   OH242895   1.247   4.636  11.377  0.3996 -0.0517 -0.4830
 7135TIP3    H142896   1.247   4.654  11.471  1.9908  1.8976 -0.7829
 7135TIP3    H242897   1.164   4.592  11.361 -0.1144 -0.0088  1.7518
 7136TIP3   OH242898   0.702   3.732  15.485 -0.2559 -0.2268 -0.3252
 7136TIP3    H142899   0.760   3.666  15.522  0.6150 -0.1918 -1.5673
 7136TIP3    H242900   0.718   3.811  15.536 -0.3669 -0.6242  0.3384
 7137TIP3   OH242901   5.451   5.959   0.473 -0.8014 -0.1577 -0.0402
 7137TIP3    H142902   5.419   6.037   0.429  1.1408 -1.0881 -3.5589
 7137TIP3    H242903   5.545   5.975   0.486 -0.3053 -1.8751 -1.0640
 7138TIP3   OH242904   3.195   6.323   3.721  0.4366 -0.2881 -0.0447
 7138TIP3    H142905   3.221   6.247   3.669 -0.1274  1.0659 -2.4777
 7138TIP3    H242906   3.129   6.368   3.666 -1.7878  0.1681  2.7714
 7139TIP3   OH242907   1.978   3.830  13.507 -0.7439  0.4399 -0.4755
 7139TIP3    H142908   1.958   3.874  13.424  1.7472 -0.4568 -1.6283
 7139TIP3    H242909   1.966   3.737  13.488 -1.0784  0.2855  0.4702
 7140TIP3   OH242910   4.565   3.284  16.675 -0.8740  0.3046  0.1232
 7140TIP3    H142911   4.519   3.367  16.688 -0.2638  0.8152 -0.8110
 7140TIP3    H242912   4.641   3.307  16.621 -0.6504 -0.8486 -0.0844
 7141TIP3   OH242913   5.451   2.452   4.532  0.2444  0.8332 -0.2251
 7141TIP3    H142914   5.392   2.441   4.458  1.2018  0.9921 -1.0345
 7141TIP3    H242915   5.417   2.528   4.579 -0.7794  0.3051 -0.0866
 7142TIP3   OH242916   0.926   1.406  14.585 -0.4948 -0.3311  0.2251
 7142TIP3    H142917   0.993   1.363  14.532  0.8439  1.9512 -0.0147
 7142TIP3    H242918   0.911   1.345  14.658  0.7668 -1.5368 -0.4676
 7143TIP3   OH242919   0.189   2.506  16.301 -0.5211  0.1150 -0.2305
 7143TIP3    H142920   0.243   2.520  16.379 -0.9410  0.9583 -0.0711
 7143TIP3    H242921   0.130   2.582  16.299 -0.9401 -0.2165 -1.0190
 7144TIP3   OH242922   6.772   4.583  15.093 -0.2006 -0.2715  0.1064
 7144TIP3    H142923   6.718   4.505  15.090  0.5747 -0.8450  0.7788
 7144TIP3    H242924   6.862   4.551  15.081  0.0749  0.5813 -0.2153
 7145TIP3   OH242925   2.779   1.118  15.632  0.5343  0.8162  0.0912
 7145TIP3    H142926   2.773   1.079  15.544  1.4022 -1.5880  1.0168
 7145TIP3    H242927   2.860   1.082  15.669  0.8607  2.7866  1.4459
 7146TIP3   OH242928   5.627   5.699   4.337  0.1806 -0.3010 -0.3788
 7146TIP3    H142929   5.615   5.780   4.286  1.2494  0.1786  0.1177
 7146TIP3    H242930   5.689   5.647   4.285  2.5465  0.8675  1.1350
 7147TIP3   OH242931   3.676   2.056  14.501 -0.3295  0.8206 -0.2256
 7147TIP3    H142932   3.589   2.043  14.539 -0.3214 -0.0509 -0.4737
 7147TIP3    H242933   3.732   2.078  14.575 -0.5626  0.3722  0.0904
 7148TIP3   OH242934   1.341   1.705  17.249 -0.0783 -0.4151  0.0672
 7148TIP3    H142935   1.292   1.750  17.179 -0.4217 -0.0205  0.5592
 7148TIP3    H242936   1.431   1.735  17.237 -0.0237 -0.7929 -0.5579
 7149TIP3   OH242937   1.275   5.372  15.344  0.3113 -0.5589  0.2317
 7149TIP3    H142938   1.324   5.437  15.294  0.5637 -0.4335  0.6343
 7149TIP3    H242939   1.341   5.329  15.398 -0.0648 -0.1881  0.9969
 7150TIP3   OH242940   3.938   0.039  11.849  0.2333 -0.3044  0.3582
 7150TIP3    H142941   3.857   0.023  11.800  0.3786 -1.0576  0.3436
 7150TIP3    H242942   3.950   0.134  11.845 -0.5698 -0.1966  0.2414
 7151TIP3   OH242943   3.181   6.085  11.259  0.1647  0.3009 -0.0785
 7151TIP3    H142944   3.222   6.016  11.207  0.2423 -0.6565  1.2010
 7151TIP3    H242945   3.102   6.108  11.211 -0.6128 -1.6904  0.1535
 7152TIP3   OH242946   5.876   3.166   4.733 -0.0630  0.2222 -0.4662
 7152TIP3    H142947   5.895   3.201   4.821  0.3765  1.5579 -1.0601
 7152TIP3    H242948   5.900   3.074   4.738 -0.1768  0.2401  0.8579
 7153TIP3   OH242949   0.061   4.954  17.150  0.2876  0.1017  0.5857
 7153TIP3    H142950   0.114   4.910  17.083 -0.3786 -0.0255  0.1415
 7153TIP3    H242951   0.059   4.893  17.223 -0.2916 -0.4400  0.1252
 7154TIP3   OH242952   1.910   1.980   6.798  0.4257 -0.0982  0.0230
 7154TIP3    H142953   1.967   1.912   6.834  1.9322  0.9643 -0.3001
 7154TIP3    H242954   1.967   2.034   6.744 -1.2382 -0.0775 -1.8616
 7155TIP3   OH242955   3.030   2.290  14.486 -0.1562 -0.1524  0.0682
 7155TIP3    H142956   3.060   2.371  14.526 -1.6771  0.3782  0.2004
 7155TIP3    H242957   3.110   2.241  14.467  0.8606  1.7221 -0.7644
 7156TIP3   OH242958   2.852   0.476  11.326 -0.0093  1.0638 -0.1161
 7156TIP3    H142959   2.912   0.416  11.370  1.2266  0.6348 -2.2342
 7156TIP3    H242960   2.906   0.551  11.303 -1.0329  2.0433  0.5535
 7157TIP3   OH242961   5.736   3.035   0.824  0.3927 -0.9267  0.0757
 7157TIP3    H142962   5.705   3.000   0.907  1.5239  0.7781  1.2776
 7157TIP3    H242963   5.781   2.961   0.782  0.0371 -1.7402  1.0949
 7158TIP3   OH242964   3.945   1.884  16.889 -0.1215  0.0163  0.8048
 7158TIP3    H142965   3.977   1.974  16.879  0.5056 -0.3607 -0.9840
 7158TIP3    H242966   3.859   1.885  16.846  0.0826 -0.3175  0.3757
 7159TIP3   OH242967   2.999   4.435   0.307 -0.4597 -0.6758  0.1956
 7159TIP3    H142968   2.984   4.493   0.233 -1.4577 -0.2140  0.7373
 7159TIP3    H242969   3.077   4.470   0.350  1.1035 -1.8790 -1.4882
 7160TIP3   OH242970   6.704   6.422   4.441  0.5087  0.1532 -0.0400
 7160TIP3    H142971   6.666   6.355   4.384 -0.5472 -0.1517  0.9668
 7160TIP3    H242972   6.798   6.402   4.443  0.2780 -1.0277 -0.1201
 7161TIP3   OH242973   1.551   2.412  14.632 -0.4703 -0.5602  0.1052
 7161TIP3    H142974   1.635   2.409  14.586  0.0244  0.4192  0.8922
 7161TIP3    H242975   1.571   2.383  14.721 -0.9078 -0.1321  0.3535
 7162TIP3   OH242976   0.382   2.415  12.703  0.2491 -0.2494  0.2274
 7162TIP3    H142977   0.470   2.436  12.734  1.3856 -0.1413 -2.8166
 7162TIP3    H242978   0.388   2.324  12.673 -0.5197 -0.0683 -0.5095
 7163TIP3   OH242979   4.367   3.517   4.766 -0.1559 -0.0910  0.0378
 7163TIP3    H142980   4.327   3.604   4.774  1.5974  0.6558  1.1460
 7163TIP3    H242981   4.395   3.495   4.854  2.2352 -0.3934 -0.7360
 7164TIP3   OH242982   1.720   4.969   3.885  0.0027 -0.1502  0.0039
 7164TIP3    H142983   1.694   4.960   3.976  2.2637 -0.6979  0.6588
 7164TIP3    H242984   1.801   5.020   3.888 -0.3592  0.6047 -1.7876
 7165TIP3   OH242985   0.185   3.505  16.647  0.4982  0.2269 -0.6821
 7165TIP3    H142986   0.249   3.434  16.640  2.3638  1.9140 -1.5170
 7165TIP3    H242987   0.204   3.546  16.732 -1.0100 -0.5931  0.1070
 7166TIP3   OH242988   5.080   3.348  17.403  0.1726  0.2468  0.4548
 7166TIP3    H142989   5.108   3.311  17.319 -0.1820  2.9292 -0.9717
 7166TIP3    H242990   5.009   3.290  17.432 -0.9125  0.2017 -2.0234
 7167TIP3   OH242991   0.509   4.996  16.017 -0.3326  0.7341 -0.3110
 7167TIP3    H142992   0.448   5.057  16.059  0.0153  2.2511 -1.9320
 7167TIP3    H242993   0.546   5.045  15.944  2.2772 -0.3943  0.1448
 7168TIP3   OH242994   6.719   6.148   6.587 -0.3564  0.0274  0.1845
 7168TIP3    H142995   6.630   6.116   6.575  0.5535 -2.1900 -1.2118
 7168TIP3    H242996   6.764   6.078   6.635  0.4670  1.4873  1.6714
 7169TIP3   OH242997   5.378   1.076   0.135  0.1894  0.5813  0.4037
 7169TIP3    H142998   5.295   1.043   0.100  0.9713 -2.2553  0.9732
 7169TIP3    H242999   5.410   1.136   0.067 -2.0350  1.3638 -0.0418
 7170TIP3   OH243000   3.090   6.354   1.767  0.5051 -0.2363  0.2734
 7170TIP3    H143001   3.175   6.366   1.810  1.0168  2.0081 -1.1611
 7170TIP3    H243002   3.035   6.422   1.805 -0.1385 -0.6089  0.0116
 7171TIP3   OH243003   4.474   2.962  11.918 -0.2908 -0.5575  0.1535
 7171TIP3    H143004   4.429   2.928  11.995  0.1705  0.5577  0.9450
 7171TIP3    H243005   4.481   2.887  11.859  0.5871 -1.8318  1.7758
 7172TIP3   OH243006   2.027   5.592  13.303  0.6096  0.3806 -0.1038
 7172TIP3    H143007   1.966   5.551  13.242  2.1506 -0.5401 -1.1203
 7172TIP3    H243008   2.024   5.538  13.381 -0.4292  0.8131  0.1734
 7173TIP3   OH243009   5.708   0.565   3.179  1.0153  0.2334 -0.0428
 7173TIP3    H143010   5.741   0.491   3.127 -1.6011 -1.0703 -0.0286
 7173TIP3    H243011   5.767   0.637   3.158  2.8176 -1.4654 -1.2002
 7174TIP3   OH243012   4.809   3.261   3.903 -0.9583  0.6236 -0.1399
 7174TIP3    H143013   4.828   3.326   3.836  0.8144  0.2882 -0.0131
 7174TIP3    H243014   4.766   3.309   3.973  1.3706  1.9400  0.4664
 7175TIP3   OH243015   6.150   4.901   1.033  0.5276  0.0877 -0.0646
 7175TIP3    H143016   6.068   4.925   1.074  0.6177  0.3113 -0.0125
 7175TIP3    H243017   6.126   4.838   0.965 -0.0108  2.0633 -1.8138
 7176TIP3   OH243018   5.107   3.314  12.199 -0.3907 -0.0614 -0.1721
 7176TIP3    H143019   5.048   3.367  12.252 -2.2072 -0.3518 -1.7630
 7176TIP3    H243020   5.093   3.346  12.109  0.3418 -1.5236 -0.8465
 7177TIP3   OH243021   3.576   3.344  14.003  0.2279  0.2865  0.3745
 7177TIP3    H143022   3.498   3.289  14.011 -1.0981  2.0834  0.4568
 7177TIP3    H243023   3.650   3.284  14.016 -1.1233 -1.4897  0.1517
 7178TIP3   OH243024   6.043   0.386  11.769  0.1105 -0.1974  0.2697
 7178TIP3    H143025   6.005   0.428  11.692 -1.3971 -1.6097  0.1891
 7178TIP3    H243026   6.118   0.337  11.734 -0.9051 -1.3093 -0.4750
 7179TIP3   OH243027   5.520   0.575  16.331  0.1732  0.4074  0.0822
 7179TIP3    H143028   5.573   0.576  16.411  0.8373 -1.6739 -0.2836
 7179TIP3    H243029   5.582   0.551  16.262 -1.0423 -1.2352 -0.4954
 7180TIP3   OH243030   2.736   2.961   1.606 -0.3398 -0.0771 -0.8681
 7180TIP3    H143031   2.744   3.022   1.532 -1.6982  0.0176 -0.9523
 7180TIP3    H243032   2.728   2.875   1.565  0.3561 -0.1863 -0.7829
 7181TIP3   OH243033   3.925   0.406  15.991  0.0759  0.4381 -0.2427
 7181TIP3    H143034   3.883   0.336  15.940 -1.0811 -1.0637  2.5517
 7181TIP3    H243035   4.016   0.376  16.002  0.6712  1.3295 -2.2206
 7182TIP3   OH243036   6.472   6.047   0.939 -0.3233  0.0948 -0.3147
 7182TIP3    H143037   6.551   6.101   0.938 -0.7732  0.7650 -1.7117
 7182TIP3    H243038   6.501   5.962   0.971  0.6070  0.8487  0.9441
 7183TIP3   OH243039   4.870   0.132   4.894  0.4238  0.2132 -0.2625
 7183TIP3    H143040   4.848   0.215   4.936 -3.6107 -1.1940  0.8300
 7183TIP3    H243041   4.890   0.073   4.967  0.6687 -0.4274 -0.8429
 7184TIP3   OH243042   6.340   4.066  13.813 -0.1674  0.2715 -0.3648
 7184TIP3    H143043   6.311   3.992  13.865  1.0523  0.5606  0.7986
 7184TIP3    H243044   6.320   4.143  13.867 -1.7308  0.8569 -1.6959
 7185TIP3   OH243045   1.841   6.487  13.060  0.0908  0.2327 -0.4340
 7185TIP3    H143046   1.881   6.401  13.067  0.2186  0.4104  2.0214
 7185TIP3    H243047   1.845   6.522  13.149 -1.4362  2.1122 -1.0394
 7186TIP3   OH243048   4.737   1.185   2.711  0.0050 -1.2347  0.6181
 7186TIP3    H143049   4.801   1.244   2.671 -2.6581  1.6732  0.2438
 7186TIP3    H243050   4.734   1.211   2.803 -0.9237 -1.0212  0.5366
 7187TIP3   OH243051   2.895   2.856   5.869  0.3801  0.5446 -0.1172
 7187TIP3    H143052   2.897   2.946   5.837 -0.8481  0.1323 -1.4553
 7187TIP3    H243053   2.951   2.857   5.947 -1.1090  2.9166  1.0530
 7188TIP3   OH243054   4.357   2.475   1.097  0.4297 -0.2289  0.1403
 7188TIP3    H143055   4.387   2.544   1.038  0.6958  1.5648  2.2432
 7188TIP3    H243056   4.261   2.475   1.088 -0.0161  3.2535  2.8470
 7189TIP3   OH243057   0.745   6.185   5.001 -0.4738 -0.2658  0.0204
 7189TIP3    H143058   0.651   6.204   5.000 -0.1062  1.7268 -0.8256
 7189TIP3    H243059   0.757   6.129   5.077 -2.3446 -0.5811  0.1337
 7190TIP3   OH243060   3.555   1.793   4.055  0.2339  0.1808  0.6184
 7190TIP3    H143061   3.531   1.880   4.088  0.0602 -0.0365  1.0708
 7190TIP3    H243062   3.587   1.746   4.132 -0.2656 -0.3646  0.4986
 7191TIP3   OH243063   6.625   5.699   0.836 -0.4493 -0.1164 -0.8091
 7191TIP3    H143064   6.539   5.721   0.871 -0.4984 -0.2660 -0.8378
 7191TIP3    H243065   6.655   5.780   0.794  0.2557  0.5534  0.8738
 7192TIP3   OH243066   2.470   5.968  15.601 -0.1253  0.0698  0.2819
 7192TIP3    H143067   2.532   5.995  15.533 -0.2525  0.3810  0.2871
 7192TIP3    H243068   2.506   6.005  15.682  0.0765 -0.3797  0.4028
 7193TIP3   OH243069   5.316   0.343  16.646 -0.3469 -0.2596 -0.4349
 7193TIP3    H143070   5.264   0.406  16.697  0.8634  0.4356 -0.0057
 7193TIP3    H243071   5.384   0.314  16.706  0.5114 -0.1902 -1.3516
 7194TIP3   OH243072   6.564   2.759  17.077 -0.4011 -0.0627  0.4850
 7194TIP3    H143073   6.494   2.722  17.024 -0.2077  1.0015 -0.5579
 7194TIP3    H243074   6.523   2.830  17.125 -0.7114 -1.3816  2.2789
 7195TIP3   OH243075   4.306   3.732  13.471 -0.0608  0.7466 -0.4539
 7195TIP3    H143076   4.212   3.730  13.451  0.1783  1.1931 -1.7022
 7195TIP3    H243077   4.333   3.820  13.447  1.3502 -0.3683 -3.4577
 7196TIP3   OH243078   5.106   4.585  16.693 -0.4439 -0.3737 -0.1899
 7196TIP3    H143079   5.047   4.517  16.660 -1.2056  0.5596 -0.8411
 7196TIP3    H243080   5.110   4.570  16.787  0.7778 -2.3443 -0.5105
 7197TIP3   OH243081   4.332   3.413  17.293 -0.2167 -0.0221  0.0939
 7197TIP3    H143082   4.285   3.480  17.341  0.8252  0.3299  0.6554
 7197TIP3    H243083   4.285   3.405  17.210  0.0923  1.9724 -0.3242
 7198TIP3   OH243084   0.662   6.318  12.177 -0.2121 -0.1763  0.5994
 7198TIP3    H143085   0.716   6.394  12.160  0.7743 -1.0520 -0.3357
 7198TIP3    H243086   0.572   6.348  12.164  0.2194  0.5928 -0.6800
 7199TIP3   OH243087   1.377   1.876  14.357 -0.6293  0.2205  0.2898
 7199TIP3    H143088   1.303   1.891  14.415  0.3764 -0.0013  1.6730
 7199TIP3    H243089   1.426   1.805  14.399  0.8079  0.9217 -0.1582
 7200TIP3   OH243090   1.328   1.499   1.472 -0.1257 -0.2772  0.5112
 7200TIP3    H143091   1.369   1.563   1.413 -2.9163  0.8884 -0.3355
 7200TIP3    H243092   1.398   1.437   1.493  2.2473  1.9895 -0.1179
 7201TIP3   OH243093   5.048   3.835  14.442  0.9537  0.0183  0.2879
 7201TIP3    H143094   4.975   3.891  14.470 -1.7294 -1.7058 -2.6380
 7201TIP3    H243095   5.028   3.749  14.479  1.2491 -0.5677 -0.8752
 7202TIP3   OH243096   4.219   1.270  17.201 -0.4438  0.0805 -0.3206
 7202TIP3    H143097   4.219   1.267  17.297 -0.9369 -3.2744 -0.2985
 7202TIP3    H243098   4.175   1.352  17.180 -0.0339  1.0812  2.3031
 7203TIP3   OH243099   3.674   5.441   1.837  0.2308  0.2781 -0.4494
 7203TIP3    H143100   3.767   5.420   1.841  0.0680 -0.2237  1.8189
 7203TIP3    H243101   3.671   5.535   1.820  1.2532  0.7742  1.7838
 7204TIP3   OH243102   4.675   4.149   5.942 -0.0041 -0.1364 -0.2819
 7204TIP3    H143103   4.634   4.068   5.911  0.0977 -0.6859  0.9767
 7204TIP3    H243104   4.718   4.124   6.024 -1.1659  1.4952  0.8815
 7205TIP3   OH243105   1.264   5.512   3.401  0.4004 -0.2336 -0.1638
 7205TIP3    H143106   1.187   5.513   3.457  2.5215 -1.0652  3.0361
 7205TIP3    H243107   1.280   5.420   3.382  1.3520 -0.1915  0.3659
 7206TIP3   OH243108   5.270   5.751   2.472  0.2552  0.6453  0.2888
 7206TIP3    H143109   5.204   5.684   2.455  1.2778  0.0626 -1.6421
 7206TIP3    H243110   5.275   5.755   2.568 -0.3765 -1.5116  0.4775
 7207TIP3   OH243111   4.019   1.376   3.044  0.1691  0.6303 -0.2230
 7207TIP3    H143112   3.993   1.337   2.961 -0.3847  1.1794 -0.3147
 7207TIP3    H243113   4.028   1.301   3.103 -0.5885  0.3269 -0.4703
 7208TIP3   OH243114   3.685   2.153  16.936 -0.7781 -0.4363 -0.2867
 7208TIP3    H143115   3.664   2.225  16.877 -1.2462  0.7673  1.2597
 7208TIP3    H243116   3.779   2.160  16.949 -1.0378  1.1094  1.2370
 7209TIP3   OH243117   5.419   4.712  11.808  0.3427  0.1105  0.6090
 7209TIP3    H143118   5.370   4.793  11.823 -0.6221 -0.1891 -0.7262
 7209TIP3    H243119   5.437   4.713  11.714  1.2780 -0.7126  0.7682
 7210TIP3   OH243120   4.322   5.922   5.912 -0.3303  0.4323  0.0425
 7210TIP3    H143121   4.256   5.902   5.845  1.5271  0.9118 -2.0308
 7210TIP3    H243122   4.278   5.903   5.995 -3.0953  0.8344 -1.2319
 7211TIP3   OH243123   3.191   6.677   3.868  0.1459  0.1382 -0.1332
 7211TIP3    H143124   3.229   6.603   3.915 -0.3773 -1.0051 -1.4342
 7211TIP3    H243125   3.260   6.704   3.808 -0.5461 -1.0839 -1.5586
 7212TIP3   OH243126   2.388   1.233  17.290 -0.5940 -0.2133  0.3703
 7212TIP3    H143127   2.324   1.189  17.346 -0.4081 -0.0730  0.7006
 7212TIP3    H243128   2.345   1.313  17.261  0.0056  0.7740  1.9977
 7213TIP3   OH243129   1.959   1.368   3.663  0.4349  0.4746  0.1013
 7213TIP3    H143130   1.900   1.314   3.610 -0.3164 -0.1951  1.5623
 7213TIP3    H243131   2.025   1.399   3.601 -0.6766  0.1190 -1.3099
 7214TIP3   OH243132   5.577   1.178  15.738  0.1559 -0.2227  0.2512
 7214TIP3    H143133   5.546   1.256  15.692  0.4842 -0.0420  0.3337
 7214TIP3    H243134   5.556   1.194  15.830 -0.0921 -0.3833  0.2210
 7215TIP3   OH243135   4.878   3.883  14.795 -0.2185  0.1052 -0.0163
 7215TIP3    H143136   4.786   3.854  14.791 -0.1994 -0.0440  0.5083
 7215TIP3    H243137   4.924   3.808  14.832 -0.1327  0.7242  1.1835
 7216TIP3   OH243138   5.188   0.667  11.190 -0.9416 -0.2925 -0.4487
 7216TIP3    H143139   5.281   0.671  11.167 -0.2121  0.1734  2.1861
 7216TIP3    H243140   5.155   0.754  11.172 -0.3605  0.1061  0.3387
 7217TIP3   OH243141   2.282   6.146   3.523 -0.5168 -0.4717  0.0043
 7217TIP3    H143142   2.349   6.186   3.579 -1.0461  0.3921  0.0494
 7217TIP3    H243143   2.327   6.074   3.479  0.7684  0.7538 -0.7947
 7218TIP3   OH243144   4.767   3.662  16.709  0.2010  0.0713 -0.1808
 7218TIP3    H143145   4.712   3.737  16.687 -0.4616 -0.8356 -1.6658
 7218TIP3    H243146   4.847   3.676  16.659  0.2154 -0.0550 -0.1914
 7219TIP3   OH243147   3.115   1.957  11.731  0.7219  0.1617  0.0834
 7219TIP3    H143148   3.085   2.048  11.726  1.6011  0.4266 -0.7960
 7219TIP3    H243149   3.036   1.907  11.753  0.2621  1.1468  0.7623
 7220TIP3   OH243150   3.524   0.267   2.606 -0.3361  0.8224 -0.5989
 7220TIP3    H143151   3.618   0.267   2.619 -0.2963  1.5911 -0.8406
 7220TIP3    H243152   3.487   0.297   2.689 -0.4801 -1.2107  0.1096
 7221TIP3   OH243153   3.665   1.529  14.317  0.1080 -0.3050 -0.2947
 7221TIP3    H143154   3.623   1.582  14.250  0.4016  0.2006 -0.0808
 7221TIP3    H243155   3.677   1.589  14.391  0.6109 -0.6211 -0.1194
 7222TIP3   OH243156   5.659   1.145   4.419 -0.1277 -0.4059  0.1312
 7222TIP3    H143157   5.584   1.092   4.446 -0.5145  0.7556  1.4893
 7222TIP3    H243158   5.733   1.105   4.465 -0.3033 -0.1978  0.6047
 7223TIP3   OH243159   1.473   2.101   4.512 -0.4038 -0.4309 -0.3457
 7223TIP3    H143160   1.565   2.074   4.505 -0.6636 -1.6816  0.6802
 7223TIP3    H243161   1.477   2.192   4.542  0.4891 -0.2418 -0.9931
 7224TIP3   OH243162   3.579   2.716  14.422 -0.5170  0.1528 -0.3139
 7224TIP3    H143163   3.644   2.646  14.430  0.3144  1.1300  3.1591
 7224TIP3    H243164   3.615   2.774  14.355  0.1515 -1.2956 -1.2732
 7225TIP3   OH243165   6.706   6.191  14.147 -0.0796  1.1555 -0.1902
 7225TIP3    H143166   6.731   6.215  14.058 -0.7318  0.5908 -0.5319
 7225TIP3    H243167   6.785   6.152  14.185 -0.6481 -1.5681 -1.5933
 7226TIP3   OH243168   1.290   6.031   4.879  0.3806  0.0368  0.0113
 7226TIP3    H143169   1.198   6.040   4.854  0.6794  0.9797 -0.8236
 7226TIP3    H243170   1.314   6.118   4.912  0.7543 -0.4350  1.0109
 7227TIP3   OH243171   1.865   1.606   0.616 -0.0656 -0.5448  0.7099
 7227TIP3    H143172   1.905   1.521   0.595 -0.4764 -0.5840  0.0585
 7227TIP3    H243173   1.782   1.584   0.658 -0.6839 -0.4830 -0.4438
 7228TIP3   OH243174   1.406   0.813  13.628  0.1522  0.1159 -0.0493
 7228TIP3    H143175   1.439   0.739  13.679 -0.0740  0.2633  0.3046
 7228TIP3    H243176   1.339   0.854  13.683 -0.4259 -0.0065 -0.6483
 7229TIP3   OH243177   6.370   2.334  12.701  0.4915 -0.1343 -0.4883
 7229TIP3    H143178   6.424   2.351  12.624 -0.0846  0.7313 -0.7249
 7229TIP3    H243179   6.432   2.313  12.771  1.1453  0.8035 -0.7649
 7230TIP3   OH243180   0.631   5.376   4.682  0.5348 -0.3537  0.1778
 7230TIP3    H143181   0.569   5.326   4.628  1.2169  0.0770 -1.0523
 7230TIP3    H243182   0.691   5.416   4.619  2.6983 -1.5465  1.3678
 7231TIP3   OH243183   0.229   2.153   3.617 -0.0420  0.1407 -0.6942
 7231TIP3    H143184   0.290   2.088   3.650 -0.2151 -0.0547 -0.7562
 7231TIP3    H243185   0.240   2.228   3.676 -1.2178 -0.6394  0.5875
 7232TIP3   OH243186   1.249   6.243  11.209  0.3419 -0.6195  0.1139
 7232TIP3    H143187   1.210   6.167  11.166  1.3357 -1.1229  0.0874
 7232TIP3    H243188   1.173   6.296  11.236 -0.3426 -1.1793 -0.6337
 7233TIP3   OH243189   5.787   4.005   1.961 -0.5653 -0.1435 -0.2224
 7233TIP3    H143190   5.869   4.031   1.919 -0.8344  1.5146  0.1974
 7233TIP3    H243191   5.726   3.991   1.889 -0.3533  0.2259 -0.4752
 7234TIP3   OH243192   5.493   2.622   3.795  0.7804  0.2971 -0.0355
 7234TIP3    H143193   5.460   2.626   3.705 -1.2678  1.0813  0.6788
 7234TIP3    H243194   5.544   2.702   3.807 -1.0762  1.5031  0.2087
 7235TIP3   OH243195   5.892   6.596   1.451 -0.0014  0.2231  0.0468
 7235TIP3    H143196   5.889   6.543   1.531 -0.1915  0.2865  0.0843
 7235TIP3    H243197   5.979   6.582   1.416 -0.8865 -2.2862 -1.4168
 7236TIP3   OH243198   2.632   0.308  12.886 -0.3531 -0.1977  0.1103
 7236TIP3    H143199   2.715   0.275  12.852  0.6990  0.1206  2.2371
 7236TIP3    H243200   2.655   0.388  12.933 -1.7162 -0.5247  1.4141
 7237TIP3   OH243201   3.382   3.113  12.625  0.1707 -0.3490 -0.1518
 7237TIP3    H143202   3.413   3.151  12.542 -0.7102  1.1055  0.1574
 7237TIP3    H243203   3.306   3.166  12.648 -0.2887 -1.4921  1.0028
 7238TIP3   OH243204   5.815   3.115  16.112 -0.1067  0.5361 -0.8438
 7238TIP3    H143205   5.727   3.077  16.113  0.2433 -0.3263  0.8420
 7238TIP3    H243206   5.844   3.106  16.022 -1.0911 -0.7502 -1.0606
 7239TIP3   OH243207   6.096   2.338  11.427  0.0876  0.2066 -0.6570
 7239TIP3    H143208   6.060   2.380  11.349  0.9325  1.6962 -0.2814
 7239TIP3    H243209   6.189   2.325  11.408  0.2097  0.1825 -0.0667
 7240TIP3   OH243210   0.983   1.138   4.149 -0.2489  0.3143  0.1709
 7240TIP3    H143211   0.966   1.233   4.150  1.4023  0.6792 -1.0634
 7240TIP3    H243212   0.945   1.108   4.067  1.5955  0.4603 -0.7875
 7241TIP3   OH243213   6.424   6.230  14.215 -0.8675  0.3416 -0.0000
 7241TIP3    H143214   6.510   6.218  14.175 -1.3394  0.1719 -1.0083
 7241TIP3    H243215   6.364   6.242  14.140 -1.3652  2.9389  0.7076
 7242TIP3   OH243216   1.431   2.605   0.272  0.4107  0.0180  0.7426
 7242TIP3    H143217   1.342   2.636   0.288  1.0365  3.3537 -1.2356
 7242TIP3    H243218   1.485   2.659   0.330  1.2613 -1.2136  1.1294
 7243TIP3   OH243219   2.913   4.745  11.651 -0.3043  0.0088  0.1749
 7243TIP3    H143220   2.968   4.669  11.631  0.3376  0.4243  0.3212
 7243TIP3    H243221   2.928   4.804  11.577  0.1435  0.4962  0.6485
 7244TIP3   OH243222   4.954   3.684   2.378  0.3439 -0.2218 -0.2695
 7244TIP3    H143223   4.903   3.686   2.296  0.2077  2.2220 -0.2005
 7244TIP3    H243224   4.989   3.772   2.386 -0.3325 -0.1284  2.7428
 7245TIP3   OH243225   1.069   0.293   0.755 -0.4411 -0.0156 -0.8677
 7245TIP3    H143226   1.147   0.249   0.723 -1.4854 -2.7274 -0.0244
 7245TIP3    H243227   1.021   0.318   0.676  0.8816  1.0416 -1.3807
 7246TIP3   OH243228   6.550   0.458   2.353 -0.8200 -0.0863 -0.2798
 7246TIP3    H143229   6.614   0.527   2.339 -1.1943  0.1108 -1.0695
 7246TIP3    H243230   6.601   0.382   2.381 -0.4238  0.5494  0.7814
 7247TIP3   OH243231   0.487   3.855   2.103  0.3377  0.0056 -0.0497
 7247TIP3    H143232   0.551   3.910   2.147 -0.7821  1.1147  0.2487
 7247TIP3    H243233   0.478   3.893   2.016  0.2857 -0.3273 -0.1942
 7248TIP3   OH243234   4.670   4.246  11.323 -0.0464  0.2211  0.2120
 7248TIP3    H143235   4.733   4.319  11.329 -1.1433  1.2546 -0.4479
 7248TIP3    H243236   4.722   4.173  11.291  1.1717  0.5922  1.2548
 7249TIP3   OH243237   6.479   4.348  15.397  0.0505 -0.4093  0.7374
 7249TIP3    H143238   6.389   4.374  15.379  0.1088 -0.0197  1.0125
 7249TIP3    H243239   6.472   4.255  15.421 -0.2920 -0.3534  0.8699
 7250TIP3   OH243240   0.482   6.582  12.561 -0.1619 -0.4313  0.3612
 7250TIP3    H143241   0.419   6.528  12.609  0.2250 -1.0881  0.1551
 7250TIP3    H243242   0.566   6.541  12.578  0.1980  0.3667  0.5366
 7251TIP3   OH243243   1.342   5.461   5.544  0.0751 -0.3134 -0.0431
 7251TIP3    H143244   1.281   5.517   5.496 -0.5066  0.9626  2.0403
 7251TIP3    H243245   1.303   5.374   5.542 -1.9051  0.4688  1.2210
 7252TIP3   OH243246   0.845   5.189  13.200 -0.0840  0.5168 -0.2241
 7252TIP3    H143247   0.924   5.177  13.252  0.2018  1.4694 -0.4059
 7252TIP3    H243248   0.811   5.101  13.185  0.0001  0.2018  1.3032
 7253TIP3   OH243249   4.318   1.592  17.268  0.1405 -0.1301  0.9730
 7253TIP3    H143250   4.301   1.539  17.346 -0.4502 -0.1570  0.8325
 7253TIP3    H243251   4.246   1.570  17.208 -0.5344  1.3742  1.1882
 7254TIP3   OH243252   3.773   4.360   5.659 -0.2812  0.2236 -0.3918
 7254TIP3    H143253   3.777   4.389   5.750  2.1978  0.0907 -0.3863
 7254TIP3    H243254   3.687   4.389   5.628 -1.8824 -1.1052  2.3847
 7255TIP3   OH243255   5.729   5.695  13.222  0.3770 -0.5637 -0.2510
 7255TIP3    H143256   5.692   5.672  13.137  0.4778 -1.9983  0.0604
 7255TIP3    H243257   5.821   5.715  13.204  0.1736  0.0647 -0.6054
 7256TIP3   OH243258   6.327   1.705  15.659 -0.1923  0.1864  0.6960
 7256TIP3    H143259   6.307   1.794  15.631 -0.7596  0.5464  2.1621
 7256TIP3    H243260   6.278   1.649  15.598 -1.5074  0.9328  1.0319
 7257TIP3   OH243261   2.331   6.586  10.898  0.1207  0.1602  0.3721
 7257TIP3    H143262   2.331   6.509  10.956  1.4445 -0.5939 -0.5693
 7257TIP3    H243263   2.257   6.639  10.928 -0.6441 -1.3389  1.2428
 7258TIP3   OH243264   6.414   0.673   4.542  0.3071  0.1409  0.4032
 7258TIP3    H143265   6.396   0.582   4.520 -0.7922  0.0214  1.6971
 7258TIP3    H243266   6.468   0.705   4.469 -0.3077 -1.1862 -0.6780
 7259TIP3   OH243267   1.166   1.887   3.318 -0.2090  0.1767 -0.4909
 7259TIP3    H143268   1.249   1.862   3.361 -2.1375 -2.6618  2.0452
 7259TIP3    H243269   1.177   1.860   3.227  1.0290 -2.0383  0.2315
 7260TIP3   OH243270   1.752   0.642   1.726 -0.1319  0.2275 -0.1459
 7260TIP3    H143271   1.678   0.688   1.686 -1.0993 -0.1093  1.1870
 7260TIP3    H243272   1.828   0.699   1.709 -1.0335  1.5750  0.1791
 7261TIP3   OH243273   0.782   3.741   6.515  0.4140 -0.7637  0.0852
 7261TIP3    H143274   0.859   3.769   6.564  0.0792  1.7523 -0.6687
 7261TIP3    H243275   0.708   3.760   6.572  0.2786 -3.5075  0.9541
 7262TIP3   OH243276   6.680   0.081   5.417  0.6757  0.5849  0.1370
 7262TIP3    H143277   6.631   0.076   5.335 -0.1571 -1.8258  0.7231
 7262TIP3    H243278   6.700   0.174   5.427 -4.0492  1.8989 -0.0275
 7263TIP3   OH243279   2.740   5.647   3.413  0.6276 -0.0286  0.8447
 7263TIP3    H143280   2.730   5.633   3.319  2.6878 -3.6167  0.9677
 7263TIP3    H243281   2.835   5.643   3.429  0.3707  0.8534  3.0575
 7264TIP3   OH243282   1.240   4.843   0.022  0.0404  0.2607  0.2323
 7264TIP3    H143283   1.335   4.852   0.023  0.1816 -1.0337  1.3664
 7264TIP3    H243284   1.209   4.914  -0.035  1.8231 -0.5557 -1.9055
 7265TIP3   OH243285   1.738   1.532   3.938  0.1750  0.2856 -0.4801
 7265TIP3    H143286   1.691   1.561   3.860 -1.8248 -1.8395 -0.1597
 7265TIP3    H243287   1.706   1.444   3.954  0.0209  0.8482  3.1110
 7266TIP3   OH243288   0.267   4.984   0.550 -0.2622 -0.1294 -0.5184
 7266TIP3    H143289   0.340   5.031   0.509  0.9666  0.1503  1.8253
 7266TIP3    H243290   0.270   5.011   0.642 -1.5894 -2.2782  0.2223
 7267TIP3   OH243291   1.241   6.188   3.956  0.1117  0.3104  0.4136
 7267TIP3    H143292   1.259   6.255   3.890  1.6073  1.1943  1.6656
 7267TIP3    H243293   1.177   6.130   3.913 -0.7164  2.1090 -0.9690
 7268TIP3   OH243294   6.038   5.416  14.734  0.2537 -0.0538  0.3583
 7268TIP3    H143295   5.961   5.466  14.707  0.3303 -0.5206 -0.7796
 7268TIP3    H243296   6.076   5.384  14.652 -1.3358 -4.3176  1.0274
 7269TIP3   OH243297   6.079   3.507   1.713 -0.2105  0.5654  0.1152
 7269TIP3    H143298   6.099   3.600   1.717 -1.6374  0.8721  0.8646
 7269TIP3    H243299   5.989   3.503   1.678 -0.4576 -0.4771  0.8261
 7270TIP3   OH243300   4.439   1.779   6.586  0.0837  0.2110  0.3165
 7270TIP3    H143301   4.520   1.818   6.554 -0.2565  0.6065 -0.0643
 7270TIP3    H243302   4.369   1.827   6.542 -0.3354 -1.8650 -1.4312
 7271TIP3   OH243303   6.752   3.314  11.929 -0.1407  0.9441  0.3306
 7271TIP3    H143304   6.673   3.367  11.937 -0.5248  0.2874  1.1047
 7271TIP3    H243305   6.811   3.349  11.997  0.2404  1.4230 -0.2338
 7272TIP3   OH243306   4.241   5.956   4.288  0.6636  0.4533  0.5053
 7272TIP3    H143307   4.200   6.032   4.330  0.9290  0.8523  0.0515
 7272TIP3    H243308   4.335   5.975   4.292  0.6515  1.0519 -1.2903
 7273TIP3   OH243309   2.010   0.307  16.868 -0.0268 -0.5776 -0.1746
 7273TIP3    H143310   1.923   0.311  16.907 -0.4008  0.2830 -1.0896
 7273TIP3    H243311   2.023   0.392  16.827  2.5704  0.6300  2.6950
 7274TIP3   OH243312   1.842   5.409  16.605  0.0737  0.4716  0.4594
 7274TIP3    H143313   1.889   5.343  16.552 -0.8307 -0.4743  0.8077
 7274TIP3    H243314   1.817   5.476  16.541 -0.5064 -0.3745 -0.2325
 7275TIP3   OH243315   5.459   3.648   2.216 -0.1069 -0.3295 -0.1372
 7275TIP3    H143316   5.500   3.698   2.147 -0.5510  0.5273  0.2068
 7275TIP3    H243317   5.531   3.613   2.268  0.2006  0.3819 -0.0821
 7276TIP3   OH243318   4.051   1.645   4.796 -0.1762 -0.6444  0.2974
 7276TIP3    H143319   4.097   1.572   4.755 -1.4866 -1.0636 -0.5143
 7276TIP3    H243320   4.056   1.627   4.890  0.7317 -1.0156  0.1876
 7277TIP3   OH243321   5.336   0.206  11.978 -0.5811 -0.2773 -0.0546
 7277TIP3    H143322   5.413   0.221  12.033  0.0770  0.0158 -1.0384
 7277TIP3    H243323   5.264   0.249  12.025  0.5386  2.7812 -0.8972
 7278TIP3   OH243324   2.141   5.275   2.107  0.0799 -0.8147 -0.4461
 7278TIP3    H143325   2.179   5.362   2.103 -0.0409 -0.5825  1.8968
 7278TIP3    H243326   2.216   5.217   2.119  0.0545 -0.8639 -0.5280
 7279TIP3   OH243327   2.853   6.583  12.142 -0.0887 -0.2187 -0.0875
 7279TIP3    H143328   2.760   6.606  12.140 -0.8564 -2.5003  2.4748
 7279TIP3    H243329   2.859   6.506  12.087  0.1593 -0.3757  0.1587
 7280TIP3   OH243330   5.779   5.488  13.382 -0.0262 -0.2923  0.2605
 7280TIP3    H143331   5.758   5.517  13.293 -0.9036 -1.8986 -0.0863
 7280TIP3    H243332   5.762   5.565  13.437 -2.9037 -0.2793 -0.5286
 7281TIP3   OH243333   3.658   4.191   4.457 -0.2749  0.2725  0.0611
 7281TIP3    H143334   3.606   4.261   4.497 -1.2042 -0.5520  0.3480
 7281TIP3    H243335   3.620   4.110   4.492  1.5680 -0.3608  0.6882
 7282TIP3   OH243336   0.328   1.658  10.776  0.2940  0.0787 -0.3742
 7282TIP3    H143337   0.352   1.570  10.745 -1.9297 -0.2446 -1.3480
 7282TIP3    H243338   0.350   1.658  10.869 -1.3557 -2.1850  0.0865
 7283TIP3   OH243339   6.292   2.316   6.601  0.2221 -0.0511 -0.4286
 7283TIP3    H143340   6.362   2.263   6.640 -0.3632 -0.8521 -0.4344
 7283TIP3    H243341   6.219   2.308   6.663  0.0431  0.5332 -0.5658
 7284TIP3   OH243342   2.409   2.380   6.250  0.0377  0.1462  0.4389
 7284TIP3    H143343   2.334   2.428   6.216  0.5038 -0.4557 -1.5936
 7284TIP3    H243344   2.477   2.446   6.261  0.4607  0.1169 -1.6709
 7285TIP3   OH243345   5.054   2.622   2.921 -0.0930  0.2735 -0.6757
 7285TIP3    H143346   5.126   2.568   2.889 -0.6907  0.5346 -2.6162
 7285TIP3    H243347   5.067   2.707   2.878 -0.5102  0.9419  0.4507
 7286TIP3   OH243348   6.599   6.653   1.802 -0.9630  0.2064 -0.1906
 7286TIP3    H143349   6.602   6.744   1.771  1.1367 -0.0077 -0.7768
 7286TIP3    H243350   6.507   6.638   1.822 -1.3419  2.5373  0.1457
 7287TIP3   OH243351   2.594   2.485  14.694 -0.6142  0.7720  0.3044
 7287TIP3    H143352   2.555   2.460  14.778  0.8122  2.4782  1.5571
 7287TIP3    H243353   2.688   2.468  14.706 -0.4039  0.9797 -0.9625
 7288TIP3   OH243354   1.513   3.946  13.456  0.1857  0.0749 -0.3826
 7288TIP3    H143355   1.433   3.984  13.420 -1.0759 -0.5456  1.6264
 7288TIP3    H243356   1.521   3.861  13.413 -0.2617  0.1127 -0.5432
 7289TIP3   OH243357   5.099   3.878  16.217  0.3835 -0.2032  0.4491
 7289TIP3    H143358   5.062   3.957  16.257 -1.5989  0.6686 -2.7303
 7289TIP3    H243359   5.172   3.910  16.165  1.2990 -0.9157  1.2691
 7290TIP3   OH243360   2.485   6.227  11.680 -0.0069  0.0920  0.0047
 7290TIP3    H143361   2.502   6.309  11.634  1.8512 -0.8534 -1.0987
 7290TIP3    H243362   2.455   6.166  11.613 -0.9000 -0.2937  0.7244
 7291TIP3   OH243363   4.159   1.045   5.170 -0.3427  0.3783  0.4297
 7291TIP3    H143364   4.117   0.978   5.116 -1.0578  0.3150  1.0509
 7291TIP3    H243365   4.091   1.073   5.231  0.3161  0.7750  0.9975
 7292TIP3   OH243366   0.856   6.481  11.837 -0.8468  0.1741 -0.1046
 7292TIP3    H143367   0.816   6.469  11.752 -0.0254  1.7419 -0.7568
 7292TIP3    H243368   0.949   6.464  11.823 -0.9990 -2.1699  1.1049
 7293TIP3   OH243369   1.595   1.816  12.550  0.0245  0.0921  0.3025
 7293TIP3    H143370   1.629   1.896  12.510  0.2235 -1.1700 -2.2745
 7293TIP3    H243371   1.664   1.751  12.535 -0.5034 -0.7949  1.5682
 7294TIP3   OH243372   3.512   5.638  14.541 -0.4255  0.0323 -0.0325
 7294TIP3    H143373   3.561   5.708  14.498 -1.5862  0.7788 -0.2126
 7294TIP3    H243374   3.523   5.655  14.634  1.0801 -0.8559 -0.0241
 7295TIP3   OH243375   5.476   1.045  16.854 -0.0836 -0.3584  0.1967
 7295TIP3    H143376   5.464   0.997  16.936  0.1910 -1.2335 -0.2624
 7295TIP3    H243377   5.559   1.013  16.819 -0.8201 -0.9847 -1.0732
 7296TIP3   OH243378   0.755   0.266   5.687 -0.1834  0.6569  0.3320
 7296TIP3    H143379   0.706   0.213   5.624  0.1762 -0.4335  0.9281
 7296TIP3    H243380   0.765   0.208   5.764  1.4954  1.0478  0.4483
 7297TIP3   OH243381   6.506   4.117   3.074 -0.0840 -0.1203  0.2076
 7297TIP3    H143382   6.597   4.086   3.078  0.0734  0.1809 -0.8408
 7297TIP3    H243383   6.457   4.041   3.043  0.1333  0.2899 -1.2337
 7298TIP3   OH243384   2.692   3.642  14.258  0.1340  0.5790  0.3216
 7298TIP3    H143385   2.706   3.584  14.184  0.1291 -0.8886  1.4331
 7298TIP3    H243386   2.694   3.730  14.220  0.3885 -0.1166 -1.3616
 7299TIP3   OH243387   3.908   5.879  16.497 -0.4060  0.5749 -0.2320
 7299TIP3    H143388   3.931   5.949  16.558  2.2384 -2.3115  2.4905
 7299TIP3    H243389   3.839   5.830  16.542 -1.9362  1.0886 -1.9116
 7300TIP3   OH243390   0.489   4.662  16.960  0.1121  0.3448 -0.2047
 7300TIP3    H143391   0.545   4.650  16.884  0.5253 -0.2382  0.1792
 7300TIP3    H243392   0.438   4.581  16.965  1.1115 -0.2554  0.9468
 7301TIP3   OH243393   6.107   4.198   5.456 -0.4768 -0.5127  0.1019
 7301TIP3    H143394   6.027   4.153   5.484  0.7574 -2.6489  0.4140
 7301TIP3    H243395   6.153   4.134   5.403  0.9090  0.7948 -0.3487
 7302TIP3   OH243396   2.052   2.721   1.321 -0.2150 -0.6891 -0.5131
 7302TIP3    H143397   2.037   2.813   1.340 -1.8405 -0.8817 -0.7262
 7302TIP3    H243398   2.001   2.673   1.386 -1.2184 -1.3929 -1.7662
 7303TIP3   OH243399   2.699   3.889   5.081 -0.6503  0.1055 -0.8176
 7303TIP3    H143400   2.643   3.818   5.050  1.1419 -1.8234  0.1493
 7303TIP3    H243401   2.787   3.862   5.057  0.2821  1.0176  1.3866
 7304TIP3   OH243402   5.989   6.015  12.583  0.1353  0.0938 -0.0611
 7304TIP3    H143403   5.937   6.090  12.613  0.3403  0.5589 -0.8410
 7304TIP3    H243404   5.933   5.939  12.598 -0.4807  0.5127 -0.1994
 7305TIP3   OH243405   6.568   0.384  13.551  0.4099  0.1670  0.0512
 7305TIP3    H143406   6.506   0.443  13.594  0.3855  0.4154 -0.3231
 7305TIP3    H243407   6.590   0.428  13.469  1.0350  0.0514  0.1509
 7306TIP3   OH243408   4.113   5.259  14.722 -0.3865 -0.4334 -0.1106
 7306TIP3    H143409   4.082   5.293  14.639  0.5116 -0.9532 -0.6783
 7306TIP3    H243410   4.193   5.309  14.740  0.5121 -1.6489 -0.5646
 7307TIP3   OH243411   5.206   1.831   5.448 -0.5577  0.0609 -0.3086
 7307TIP3    H143412   5.224   1.829   5.354 -0.8622  0.9179 -0.3955
 7307TIP3    H243413   5.291   1.845   5.488 -0.5144  0.3792 -0.5037
 7308TIP3   OH243414   5.174   0.619  15.123  0.3624 -0.5489 -0.0892
 7308TIP3    H143415   5.138   0.694  15.171 -1.9987 -2.7020  1.7824
 7308TIP3    H243416   5.243   0.585  15.180  2.6766  1.0941 -1.7434
 7309TIP3   OH243417   3.365   0.761  14.893 -0.5581 -0.6385  0.0350
 7309TIP3    H143418   3.310   0.686  14.870  1.7628 -2.9883  1.5493
 7309TIP3    H243419   3.399   0.793  14.809 -3.5119  0.4406 -0.8563
 7310TIP3   OH243420   2.743   1.730  10.502  0.1503 -0.2909  0.1597
 7310TIP3    H143421   2.783   1.747  10.587 -0.4223  0.8321  0.2334
 7310TIP3    H243422   2.650   1.720  10.521 -0.1019  0.7943 -0.4090
 7311TIP3   OH243423   0.737   2.826  16.881  0.2564 -0.6348  0.8069
 7311TIP3    H143424   0.813   2.855  16.933  1.1297 -0.7537 -0.3541
 7311TIP3    H243425   0.765   2.744  16.841 -0.4486 -0.6259  0.2775
 7312TIP3   OH243426   1.243   5.997  15.366 -0.5262  0.0017 -0.2222
 7312TIP3    H143427   1.234   6.016  15.273  0.6934  0.9931 -0.1782
 7312TIP3    H243428   1.288   5.913  15.369 -0.5890 -0.0439 -0.5428
 7313TIP3   OH243429   0.346   3.392  14.959 -0.2176  0.1873  0.0771
 7313TIP3    H143430   0.274   3.329  14.960 -1.2157  0.7534 -5.2450
 7313TIP3    H243431   0.414   3.350  14.906  0.0305  2.5728 -1.6585
 7314TIP3   OH243432   0.620   5.380   5.174 -0.1276 -0.1483  0.0659
 7314TIP3    H143433   0.534   5.340   5.163 -0.9324  1.3926  0.5770
 7314TIP3    H243434   0.661   5.371   5.087 -0.2107 -2.1268  0.1821
 7315TIP3   OH243435   2.865   5.380  17.003  0.6273  0.6589  0.5083
 7315TIP3    H143436   2.829   5.376  17.092 -1.0033  0.6597 -0.1150
 7315TIP3    H243437   2.953   5.344  17.011  1.0423  1.9395  2.3682
 7316TIP3   OH243438   1.740   1.811  16.891  0.3157  0.4660 -0.2271
 7316TIP3    H143439   1.723   1.805  16.797 -1.4639 -0.0788  0.0896
 7316TIP3    H243440   1.776   1.899  16.903 -2.9801  2.0875 -1.0082
 7317TIP3   OH243441   1.019   3.566  15.286 -0.5451  0.1013 -0.0974
 7317TIP3    H143442   1.026   3.515  15.367 -1.1641  0.9178  0.4882
 7317TIP3    H243443   0.940   3.533  15.244 -1.3790  1.0817  0.6627
 7318TIP3   OH243444   5.668   6.441   1.271  0.1691  0.0443 -0.0976
 7318TIP3    H143445   5.607   6.506   1.306 -0.2704 -0.3851 -0.0577
 7318TIP3    H243446   5.730   6.492   1.218  0.6885  0.6744  1.0801
 7319TIP3   OH243447   0.341   4.287  11.418 -0.5678  0.3896  0.3030
 7319TIP3    H143448   0.336   4.356  11.351 -0.5518 -0.1845 -0.2971
 7319TIP3    H243449   0.294   4.324  11.493  1.1468  1.8534  0.7162
 7320TIP3   OH243450   0.630   3.693  15.891 -0.5191  0.4195 -0.2325
 7320TIP3    H143451   0.608   3.780  15.859  2.3945  1.3631  0.0019
 7320TIP3    H243452   0.666   3.647  15.815  2.9395  1.3892  0.6154
 7321TIP3   OH243453   0.527   6.068  13.303 -0.5111  0.4073  0.6436
 7321TIP3    H143454   0.556   6.058  13.394  0.4410 -0.6259  0.2493
 7321TIP3    H243455   0.432   6.059  13.307 -0.3812 -0.8892  1.3834
 7322TIP3   OH243456   2.349   0.476   4.885  0.2573 -0.0633 -0.2819
 7322TIP3    H143457   2.271   0.432   4.918 -0.1702  0.8137 -0.0794
 7322TIP3    H243458   2.319   0.522   4.807  0.8928 -0.8107 -0.9827
 7323TIP3   OH243459   6.688   0.141  11.660 -0.2506 -0.0783 -0.5230
 7323TIP3    H143460   6.706   0.157  11.568  1.7522 -0.4713 -0.2637
 7323TIP3    H243461   6.763   0.179  11.706 -0.7774 -0.6346  0.8817
 7324TIP3   OH243462   3.959   4.576  12.416 -0.1478  0.1366  0.2374
 7324TIP3    H143463   3.904   4.498  12.423 -0.8693  0.5916 -0.2843
 7324TIP3    H243464   3.959   4.598  12.323  2.5631 -1.0030 -0.1493
 7325TIP3   OH243465   3.595   5.615  15.477  0.2829 -0.2324 -0.4452
 7325TIP3    H143466   3.570   5.523  15.476  0.1372 -0.3219  2.4107
 7325TIP3    H243467   3.690   5.614  15.465  0.3137 -0.7824 -0.1932
 7326TIP3   OH243468   2.852   6.264  15.057  0.0344 -0.1384  0.6815
 7326TIP3    H143469   2.813   6.330  15.114  0.3092 -0.2529  1.0120
 7326TIP3    H243470   2.891   6.201  15.118  0.4687 -0.1800  0.3668
 7327TIP3   OH243471   3.534   5.357   4.899 -0.1539  0.0771 -0.3127
 7327TIP3    H143472   3.579   5.442   4.895  0.7419 -0.2628  1.5737
 7327TIP3    H243473   3.559   5.314   4.818 -2.2395  2.3213 -2.3199
 7328TIP3   OH243474   3.217   6.469   5.433 -0.1938 -0.7665  0.0020
 7328TIP3    H143475   3.236   6.453   5.526  1.0666  1.9959  0.3471
 7328TIP3    H243476   3.133   6.426   5.418 -0.1402 -1.8181  2.2670
 7329TIP3   OH243477   6.262   2.470  14.419  0.1477 -0.2144 -0.2773
 7329TIP3    H143478   6.281   2.417  14.342 -2.0713 -1.8084  0.1471
 7329TIP3    H243479   6.344   2.472  14.468  0.0964 -4.7342  0.4489
 7330TIP3   OH243480   1.679   3.721  15.108  0.6953 -0.0714 -0.3763
 7330TIP3    H143481   1.598   3.766  15.085  1.1822  2.5231  2.2361
 7330TIP3    H243482   1.726   3.711  15.025 -1.2830  0.5205 -1.6264
 7331TIP3   OH243483   0.960   4.939   1.458  0.0655 -0.3758  0.5396
 7331TIP3    H143484   0.956   4.926   1.553 -0.9258  3.4187  1.1888
 7331TIP3    H243485   1.048   4.974   1.443  0.3127 -1.2119 -0.0342
 7332TIP3   OH243486   5.473   3.512   1.227  0.0686  0.1430  0.1858
 7332TIP3    H143487   5.422   3.546   1.154 -1.1724 -0.5416  0.7013
 7332TIP3    H243488   5.523   3.588   1.258  0.8546  0.3782 -1.5248
 7333TIP3   OH243489   4.347   0.500  13.722  0.6648  0.0179  0.4436
 7333TIP3    H143490   4.263   0.463  13.749  1.9145 -0.4634  4.4191
 7333TIP3    H243491   4.405   0.424  13.717  1.1754  0.4756 -1.0439
 7334TIP3   OH243492   6.533   2.732   0.915  0.5768 -0.0543 -0.2830
 7334TIP3    H143493   6.556   2.806   0.971  0.8176 -0.3829  0.0616
 7334TIP3    H243494   6.443   2.749   0.887  0.0780 -0.4181  1.0614
 7335TIP3   OH243495   4.313   0.516   2.392  0.2738 -0.2328 -0.2748
 7335TIP3    H143496   4.288   0.484   2.305  1.6523 -0.3446 -0.6434
 7335TIP3    H243497   4.339   0.438   2.440  0.6035 -0.0405 -0.1360
 7336TIP3   OH243498   0.531   2.926   2.112 -0.6787 -0.0103  0.0515
 7336TIP3    H143499   0.575   2.983   2.175  0.6917 -0.5425 -0.3886
 7336TIP3    H243500   0.582   2.846   2.112 -1.8077 -0.7577 -0.3132
 7337TIP3   OH243501   3.513   0.580  16.009  0.5991  0.1511  0.0043
 7337TIP3    H143502   3.443   0.576  16.075  1.2526  0.3907  0.7197
 7337TIP3    H243503   3.593   0.563  16.057  1.1827  1.1492 -0.5861
 7338TIP3   OH243504   2.131   1.294  15.864 -0.1440  0.3049  0.0288
 7338TIP3    H143505   2.133   1.290  15.768 -1.2011  1.1656 -0.0452
 7338TIP3    H243506   2.223   1.291  15.889  0.1156 -1.0663 -0.9461
 7339TIP3   OH243507   6.002   5.475   1.144 -0.0386 -1.0115  0.1041
 7339TIP3    H143508   5.917   5.468   1.188 -0.7203 -1.4328 -1.2497
 7339TIP3    H243509   6.047   5.545   1.192 -0.7869 -1.3689  1.3954
 7340TIP3   OH243510   3.673   0.437   4.488  0.3370  0.1348 -0.3446
 7340TIP3    H143511   3.752   0.421   4.437  1.6404  0.5116  1.4846
 7340TIP3    H243512   3.618   0.490   4.430  0.8882 -1.0929 -2.0771
 7341TIP3   OH243513   3.539   0.285  15.994 -0.6669  0.2729  0.2302
 7341TIP3    H143514   3.626   0.246  16.008  0.1021  1.4468 -0.9861
 7341TIP3    H243515   3.548   0.374  16.028 -1.4324  0.3793  0.1696
 7342TIP3   OH243516   6.061   3.258  13.060 -0.5820  0.1656 -0.1670
 7342TIP3    H143517   6.060   3.284  12.968 -0.3314  1.0498  0.0649
 7342TIP3    H243518   6.119   3.183  13.064 -0.9120 -0.1310 -0.7909
 7343TIP3   OH243519   1.021   6.339   1.321  0.0996 -0.7706 -0.1873
 7343TIP3    H143520   1.033   6.357   1.228 -0.6708 -1.3499 -0.4038
 7343TIP3    H243521   1.064   6.255   1.335 -0.7126 -1.2053 -0.2546
 7344TIP3   OH243522   5.212   4.895  11.884 -0.1171 -0.0716  0.0577
 7344TIP3    H143523   5.117   4.882  11.883 -0.1424 -0.2707  1.6237
 7344TIP3    H243524   5.227   4.973  11.831 -0.9773 -0.9473 -1.5456
 7345TIP3   OH243525   4.411   4.955   3.486  0.1554  0.5498 -0.1498
 7345TIP3    H143526   4.495   4.986   3.452  1.3231 -0.0262  2.0499
 7345TIP3    H243527   4.396   4.872   3.441  0.1785  1.1868 -1.3776
 7346TIP3   OH243528   4.567   1.479   1.721  0.3076 -0.2127  0.2312
 7346TIP3    H143529   4.484   1.486   1.767 -0.0384  0.0203 -0.4215
 7346TIP3    H243530   4.631   1.517   1.782 -0.1446  0.1211  0.5043
 7347TIP3   OH243531   1.162   1.144   2.797 -0.1008 -0.2572  0.5886
 7347TIP3    H143532   1.168   1.147   2.893  1.0950 -2.5162  0.6426
 7347TIP3    H243533   1.085   1.091   2.780 -0.2269  0.0237  0.2791
 7348TIP3   OH243534   4.356   5.529   0.585 -0.4624  0.0707 -0.2660
 7348TIP3    H143535   4.261   5.542   0.590 -0.2247  2.2940 -0.4974
 7348TIP3    H243536   4.376   5.529   0.492 -0.2136 -0.3408 -0.2168
 7349TIP3   OH243537   5.651   0.167  13.160  1.0349  0.2123 -0.4082
 7349TIP3    H143538   5.570   0.192  13.116 -0.0660 -1.5410  0.5041
 7349TIP3    H243539   5.670   0.079  13.128  1.5553 -0.1221  0.7500
 7350TIP3   OH243540   6.726   5.998   5.467 -0.6789  0.0663 -0.2512
 7350TIP3    H143541   6.819   6.021   5.474  0.1125 -2.0459 -2.3866
 7350TIP3    H243542   6.711   5.985   5.373 -2.2493 -2.7682  0.2591
 7351TIP3   OH243543   5.975   5.979  10.750 -0.2468 -0.2045 -0.1177
 7351TIP3    H143544   6.033   5.908  10.724  0.8593  1.0137 -1.1663
 7351TIP3    H243545   5.992   6.049  10.686  0.2761  1.7737  2.0319
 7352TIP3   OH243546   2.935   2.949  15.121 -0.0697 -0.7450  0.1714
 7352TIP3    H143547   2.975   2.917  15.040  1.3866  2.0511 -0.3673
 7352TIP3    H243548   2.908   2.870  15.167  2.1995 -2.6469 -1.4654
 7353TIP3   OH243549   4.953   6.620  12.353  0.5477  0.0772  0.0159
 7353TIP3    H143550   4.953   6.627  12.449  1.6736 -0.6928  0.0968
 7353TIP3    H243551   5.037   6.658  12.327 -0.0583  0.9390 -0.7426
 7354TIP3   OH243552   1.119   4.157   2.802  0.0843 -0.5497 -0.4431
 7354TIP3    H143553   1.162   4.242   2.811  1.4453 -1.3301  0.8801
 7354TIP3    H243554   1.180   4.094   2.841 -1.5613 -1.9499  0.0300
 7355TIP3   OH243555   4.438   1.838  15.662  0.6622  0.3115  0.4412
 7355TIP3    H143556   4.504   1.783  15.704  2.5895  2.4463  0.4668
 7355TIP3    H243557   4.360   1.828  15.715  0.9354 -2.2810  0.4511
 7356TIP3   OH243558   4.851   0.068   4.304 -0.5524  0.5675 -0.3651
 7356TIP3    H143559   4.837   0.072   4.210  0.6366  0.3560 -0.5616
 7356TIP3    H243560   4.928   0.123   4.320  0.6184 -1.1381  0.1782
 7357TIP3   OH243561   0.623   1.117   5.453 -0.3176 -0.1479  0.5937
 7357TIP3    H143562   0.559   1.067   5.402 -0.2644 -2.3358  2.4940
 7357TIP3    H243563   0.662   1.053   5.512  2.7864  1.3731  0.3737
 7358TIP3   OH243564   0.493   3.883  11.421 -0.6791 -0.4110 -0.1538
 7358TIP3    H143565   0.546   3.822  11.472  0.7140  0.8892  0.0572
 7358TIP3    H243566   0.426   3.829  11.379 -0.7661 -1.7673  1.6218
 7359TIP3   OH243567   5.430   1.215   6.134  0.4768  0.8166 -1.2610
 7359TIP3    H143568   5.440   1.163   6.054  1.1730 -1.4846  0.1936
 7359TIP3    H243569   5.397   1.299   6.104  0.1678 -0.1331 -3.9021
 7360TIP3   OH243570   4.647   3.900   4.505  0.1603  0.1182 -0.6970
 7360TIP3    H143571   4.586   3.857   4.445 -0.9973  0.2640  0.3459
 7360TIP3    H243572   4.634   3.855   4.589 -0.4629  1.8940  0.2084
 7361TIP3   OH243573   2.214   1.133   3.027 -0.0366  0.8238  0.3676
 7361TIP3    H143574   2.265   1.053   3.036 -1.2726  0.0761  1.0044
 7361TIP3    H243575   2.274   1.203   3.052  0.9916  0.0960  0.0322
 7362TIP3   OH243576   4.065   2.521   5.649 -0.0160 -0.6274 -0.0965
 7362TIP3    H143577   4.138   2.508   5.711  0.2204  0.5552 -0.1035
 7362TIP3    H243578   3.990   2.543   5.705  0.7836  3.1156 -0.2306
 7363TIP3   OH243579   4.234   6.497   0.007  0.5504 -0.0759  0.2393
 7363TIP3    H143580   4.311   6.541  -0.030 -0.0101 -0.4134 -1.4231
 7363TIP3    H243581   4.167   6.565   0.011 -0.8957 -0.8969 -4.0251
 7364TIP3   OH243582   4.349   6.670   2.511 -0.4089  0.5217  0.3862
 7364TIP3    H143583   4.326   6.577   2.513  1.1896  0.0880  1.8900
 7364TIP3    H243584   4.287   6.711   2.571 -1.7464  0.6377 -1.0198
 7365TIP3   OH243585   3.022   6.603  15.493 -0.3994 -0.1611 -0.5045
 7365TIP3    H143586   2.937   6.602  15.537 -0.1709 -0.0938 -0.0550
 7365TIP3    H243587   3.001   6.602  15.400 -0.8822 -2.3750 -0.4386
 7366TIP3   OH243588   4.998   1.253   3.238 -0.4960 -0.2662  0.3189
 7366TIP3    H143589   4.913   1.281   3.204 -1.2644 -1.2101  1.3593
 7366TIP3    H243590   4.986   1.253   3.333 -0.2180 -2.9544  0.4261
 7367TIP3   OH243591   1.891   3.538   5.312  0.2130  0.0879 -0.0916
 7367TIP3    H143592   1.873   3.531   5.405  1.4234 -1.9862  0.0515
 7367TIP3    H243593   1.949   3.614   5.304 -1.0105  1.1286  0.6272
 7368TIP3   OH243594   5.572   0.838   4.034 -0.0651 -0.3685 -0.0864
 7368TIP3    H143595   5.617   0.755   4.019  1.2498  0.3617 -0.2912
 7368TIP3    H243596   5.480   0.813   4.046 -0.0771 -1.6599 -2.2967
 7369TIP3   OH243597   4.207   4.276  11.624  0.1998 -0.2586  0.0058
 7369TIP3    H143598   4.223   4.206  11.687 -0.2908  0.1171  0.5639
 7369TIP3    H243599   4.156   4.235  11.555  0.7847 -0.6879 -0.1802
 7370TIP3   OH243600   0.129   2.954   1.722  0.1089  0.0411 -0.7479
 7370TIP3    H143601   0.209   2.938   1.773 -0.1708  2.0088  0.4239
 7370TIP3    H243602   0.147   3.036   1.676 -0.2823 -0.8596 -2.5632
 7371TIP3   OH243603   3.468   2.840  11.045  0.0768  0.1473 -0.2236
 7371TIP3    H143604   3.533   2.838  10.975  0.2671 -0.6041 -0.0374
 7371TIP3    H243605   3.484   2.760  11.094  0.1361  0.8064  0.8628
 7372TIP3   OH243606   0.119   1.482  12.755 -0.4403  0.5928  0.1951
 7372TIP3    H143607   0.160   1.423  12.819  1.9995  1.5157 -0.3842
 7372TIP3    H243608   0.096   1.424  12.682 -1.2675 -0.1408  1.0149
 7373TIP3   OH243609   3.169   1.817  16.486 -0.0904 -0.3874 -0.2746
 7373TIP3    H143610   3.203   1.728  16.478 -1.3861 -0.9196 -0.1326
 7373TIP3    H243611   3.105   1.812  16.558 -2.7670 -0.2125 -2.4783
 7374TIP3   OH243612   3.039   0.287  14.005  0.1451 -0.1177  0.4263
 7374TIP3    H143613   3.024   0.275  14.099 -1.4562 -0.1223  0.1828
 7374TIP3    H243614   3.002   0.373  13.986  0.0071 -0.3357 -0.3032
 7375TIP3   OH243615   2.371   1.222  15.972 -0.3355 -0.2731  0.6028
 7375TIP3    H143616   2.447   1.238  16.028  0.8107  0.4963 -1.0987
 7375TIP3    H243617   2.391   1.140  15.927 -0.1530  0.2737 -0.3580
 7376TIP3   OH243618   2.386   4.520   4.933  0.2160  0.0698 -0.0368
 7376TIP3    H143619   2.291   4.531   4.922  0.0676 -0.5609  0.5073
 7376TIP3    H243620   2.397   4.425   4.943  0.8807  0.1605  0.1048
 7377TIP3   OH243621   0.411   2.156  12.265  0.0742 -0.2829 -0.0524
 7377TIP3    H143622   0.403   2.061  12.269 -0.5747 -0.1931  1.8090
 7377TIP3    H243623   0.397   2.177  12.173  2.5265 -2.1264 -0.9823
 7378TIP3   OH243624   3.494   0.663   2.693 -0.3506  0.5409  0.3324
 7378TIP3    H143625   3.539   0.622   2.619 -0.6052  1.2265 -0.2050
 7378TIP3    H243626   3.532   0.620   2.770  0.2208  0.1247 -0.1709
 7379TIP3   OH243627   2.241   0.602   4.218  0.8364  0.3982 -0.0420
 7379TIP3    H143628   2.175   0.580   4.284  0.3572 -0.0072 -0.6548
 7379TIP3    H243629   2.193   0.651   4.152  0.9994 -0.5239 -0.8528
 7380TIP3   OH243630   3.760   3.562   0.929 -0.7095 -0.2569  0.5956
 7380TIP3    H143631   3.684   3.525   0.885 -0.4628  0.9938 -0.9580
 7380TIP3    H243632   3.725   3.636   0.979 -0.7424 -0.6919  1.2318
 7381TIP3   OH243633   1.090   4.720  14.190  0.2277  0.0363 -0.3136
 7381TIP3    H143634   1.080   4.813  14.169  1.1793 -0.0359 -1.1713
 7381TIP3    H243635   1.165   4.717  14.249 -0.9329 -0.0194  1.2039
 7382TIP3   OH243636   3.525   1.578  15.121  0.0124  0.1638 -0.5886
 7382TIP3    H143637   3.436   1.568  15.086 -0.5718 -0.0727  0.8875
 7382TIP3    H243638   3.523   1.533  15.205  0.6390  2.6988  0.9081
 7383TIP3   OH243639   1.841   5.504  15.952  0.0218 -0.1606 -0.8387
 7383TIP3    H143640   1.832   5.552  15.870 -0.6270 -1.2390 -1.4141
 7383TIP3    H243641   1.933   5.514  15.975  0.1997  0.2009 -1.6586
 7384TIP3   OH243642   0.336   5.906  16.981 -0.1688  0.0784  0.1117
 7384TIP3    H143643   0.353   5.998  17.001  3.4096 -0.1795 -0.9845
 7384TIP3    H243644   0.343   5.862  17.065 -0.7209  0.6699  0.4738
 7385TIP3   OH243645   5.761   4.100  14.546  0.1328  0.2083  0.1380
 7385TIP3    H143646   5.821   4.049  14.491 -1.3472 -0.3361 -1.0433
 7385TIP3    H243647   5.675   4.087  14.507 -0.8021  0.8888  1.8396
 7386TIP3   OH243648   1.057   3.417   5.845  0.4372  0.1292  0.4324
 7386TIP3    H143649   0.991   3.418   5.776  0.7285 -0.5631  0.1218
 7386TIP3    H243650   1.016   3.370   5.917 -1.1704  3.8220  2.1612
 7387TIP3   OH243651   2.450   5.191  10.942 -0.1595 -0.3667  0.3431
 7387TIP3    H143652   2.378   5.243  10.906  0.3628  0.6605  0.7669
 7387TIP3    H243653   2.413   5.103  10.952 -0.5404 -0.5644 -2.0585
 7388TIP3   OH243654   1.060   0.394  15.449  0.3270  0.2532  0.3119
 7388TIP3    H143655   1.057   0.381  15.354  1.0114  0.4584  0.2634
 7388TIP3    H243656   0.988   0.455  15.467  0.0984  0.0962 -0.0496
 7389TIP3   OH243657   4.003   0.976  15.744 -0.5670 -0.3143  0.1202
 7389TIP3    H143658   4.034   1.065  15.728 -0.3577 -0.4709 -0.3462
 7389TIP3    H243659   4.081   0.927  15.767 -0.8223 -0.1607  1.3525
 7390TIP3   OH243660   1.039   0.293   4.819  0.4056  0.0160  0.4360
 7390TIP3    H143661   1.065   0.349   4.746 -1.7885 -0.0441 -0.4481
 7390TIP3    H243662   1.015   0.209   4.778 -1.1516  0.0797  1.1625
 7391TIP3   OH243663   0.363   2.996  14.332  0.1801 -0.3150 -0.0108
 7391TIP3    H143664   0.303   3.025  14.264 -0.1030 -0.3051  0.2376
 7391TIP3    H243665   0.409   3.076  14.359  1.1443 -0.5230 -1.0044
 7392TIP3   OH243666   0.100   5.706   2.526 -0.1573  0.2512 -0.0469
 7392TIP3    H143667   0.086   5.663   2.611 -0.1945  0.1444 -0.1069
 7392TIP3    H243668   0.042   5.660   2.466  0.5693 -0.3020 -0.3385
 7393TIP3   OH243669   6.171   0.967   3.043 -0.6749  0.6161  0.5768
 7393TIP3    H143670   6.237   0.898   3.051 -0.7948  0.2809 -0.9700
 7393TIP3    H243671   6.164   0.982   2.949 -2.8119  0.6485  0.6979
 7394TIP3   OH243672   3.001   3.144   3.720  0.8058 -0.1349  0.0846
 7394TIP3    H143673   3.096   3.147   3.734  0.8744 -0.2015 -0.3503
 7394TIP3    H243674   2.988   3.071   3.660  0.7836  1.5400 -2.0866
 7395TIP3   OH243675   0.004   4.396  16.279 -0.1884  0.3126 -0.2157
 7395TIP3    H143676  -0.062   4.418  16.212 -0.3010 -0.0772 -0.2354
 7395TIP3    H243677  -0.046   4.385  16.359  0.1195  2.3943  0.3208
 7396TIP3   OH243678   1.289   2.956  13.081  0.1436 -0.5884 -0.8368
 7396TIP3    H143679   1.329   3.008  13.150 -1.1203 -0.7782  0.0776
 7396TIP3    H243680   1.292   3.011  13.003 -1.4815  1.0242  0.1857
 7397TIP3   OH243681   0.804   6.059  15.948 -0.7365 -0.0124  0.0719
 7397TIP3    H143682   0.843   5.984  15.992 -0.3895  0.3766  0.4299
 7397TIP3    H243683   0.765   6.022  15.868 -3.4353 -1.1477  1.7690
 7398TIP3   OH243684   5.155   6.373   1.834  0.3026  0.0917  0.0698
 7398TIP3    H143685   5.143   6.289   1.879 -0.8859  0.4691  0.5070
 7398TIP3    H243686   5.199   6.429   1.898 -0.1544  0.2119  0.2845
 7399TIP3   OH243687   4.037   2.426  14.454  0.4536  0.6838  0.3822
 7399TIP3    H143688   4.021   2.388  14.368  0.1824  0.0194  0.7210
 7399TIP3    H243689   3.950   2.450  14.486 -0.2074 -3.5237  2.5025
 7400TIP3   OH243690   4.863   0.366  13.731 -0.1633 -0.5032  0.3984
 7400TIP3    H143691   4.914   0.444  13.752  0.4407 -0.5706 -0.7474
 7400TIP3    H243692   4.908   0.327  13.657 -1.1382 -1.2932  0.1979
 7401TIP3   OH243693   2.314   2.485  15.316 -0.0199 -0.2782  0.7789
 7401TIP3    H143694   2.351   2.573  15.325 -1.4413  0.1948  2.6590
 7401TIP3    H243695   2.387   2.432  15.284  1.1805  1.3451  0.6611
 7402TIP3   OH243696   5.666   6.484  12.040  0.2266 -0.1252  0.5224
 7402TIP3    H143697   5.732   6.417  12.057  0.1329 -0.1738  0.7098
 7402TIP3    H243698   5.643   6.473  11.948 -0.4113 -0.9207  0.7625
 7403TIP3   OH243699   4.509   0.216  11.667 -0.2834 -0.2123 -0.8325
 7403TIP3    H143700   4.548   0.300  11.644 -0.3957 -0.2269 -1.0774
 7403TIP3    H243701   4.459   0.233  11.747  0.2505 -0.2020 -0.4920
 7404TIP3   OH243702   2.570   1.173  17.101  0.6705  0.2647 -0.1563
 7404TIP3    H143703   2.545   1.097  17.048  0.1900  1.4226 -1.6410
 7404TIP3    H243704   2.506   1.174  17.173 -0.5499  0.3823 -1.2187
 7405TIP3   OH243705   6.683   0.224   2.254 -0.4070 -0.0363 -0.5930
 7405TIP3    H143706   6.713   0.240   2.165  0.2337  0.8883 -0.2257
 7405TIP3    H243707   6.619   0.153   2.246 -1.2319  0.8231 -1.9389
 7406TIP3   OH243708   6.029   5.907  11.250 -0.3135 -0.2414  0.1991
 7406TIP3    H143709   6.108   5.961  11.258 -0.9892  0.8534 -0.3407
 7406TIP3    H243710   5.995   5.901  11.339  0.4972 -0.9193  0.4775
 7407TIP3   OH243711   2.162   4.165  12.588 -0.3004  0.0946 -0.1320
 7407TIP3    H143712   2.253   4.137  12.591 -0.2200  0.4402  1.9458
 7407TIP3    H243713   2.124   4.135  12.670 -1.7441  1.0025 -0.4229
 7408TIP3   OH243714   1.568   6.658   5.024  0.4594 -0.6734  0.3181
 7408TIP3    H143715   1.498   6.721   5.007 -1.1635 -2.2430  0.8643
 7408TIP3    H243716   1.580   6.612   4.940  1.5002  0.1814 -0.0246
 7409TIP3   OH243717   4.193   6.081   3.756 -0.0424  0.4537  0.1484
 7409TIP3    H143718   4.222   6.169   3.734  0.9431 -0.0750 -0.7425
 7409TIP3    H243719   4.098   6.083   3.745 -0.0899  1.5412  0.6618
 7410TIP3   OH243720   0.306   4.808  12.453  0.0831 -0.7737 -0.1811
 7410TIP3    H143721   0.391   4.852  12.458 -0.0358 -0.4858 -0.5678
 7410TIP3    H243722   0.264   4.847  12.376 -0.5172 -0.7039  0.1782
 7411TIP3   OH243723   2.947   0.180  12.426 -0.1894  0.5638 -0.1816
 7411TIP3    H143724   3.025   0.173  12.480  0.9816 -0.4844 -1.8921
 7411TIP3    H243725   2.978   0.166  12.336 -1.9810  2.5187 -1.2030
 7412TIP3   OH243726   5.399   2.731  13.507 -0.3523  0.4894 -0.2720
 7412TIP3    H143727   5.450   2.680  13.570  0.4398 -0.5347 -1.6738
 7412TIP3    H243728   5.457   2.805  13.484 -0.1039  0.1655 -0.7173
 7413TIP3   OH243729   5.985   6.666   6.085  0.1602  0.2138 -0.3209
 7413TIP3    H143730   6.027   6.716   6.015  0.5883 -0.2819 -0.4198
 7413TIP3    H243731   6.049   6.665   6.156 -0.1900  0.5321  0.0031
 7414TIP3   OH243732   2.284   0.896   2.193  0.1299  0.0537 -0.2861
 7414TIP3    H143733   2.357   0.837   2.175 -0.4185 -0.7767  0.1666
 7414TIP3    H243734   2.266   0.884   2.287 -1.0256 -0.2608 -0.5334
 7415TIP3   OH243735   5.259   4.508  11.120  0.0880  1.1380  0.4552
 7415TIP3    H143736   5.211   4.509  11.038 -0.8170  0.6034  0.9576
 7415TIP3    H243737   5.324   4.577  11.111 -0.1953  1.2853 -0.5858
 7416TIP3   OH243738   0.571   5.259   3.616  0.5463  0.2055  0.1205
 7416TIP3    H143739   0.553   5.337   3.564  1.8228 -0.3950 -1.3289
 7416TIP3    H243740   0.497   5.201   3.599  0.3134  0.5336  0.0200
 7417TIP3   OH243741   5.948   5.481  12.740 -0.0675  0.4056  0.1053
 7417TIP3    H143742   5.857   5.450  12.737 -0.0922  0.5429 -0.7379
 7417TIP3    H243743   5.942   5.567  12.783 -0.4701  0.8453 -0.8106
 7418TIP3   OH243744   3.321   6.185  14.797  0.0894  0.3741  0.1921
 7418TIP3    H143745   3.278   6.124  14.857  0.3237 -0.0868 -0.0994
 7418TIP3    H243746   3.391   6.225  14.848  0.8554 -0.6600  0.0064
 7419TIP3   OH243747   5.689   0.578  13.435  0.2452 -0.1299 -0.1116
 7419TIP3    H143748   5.740   0.525  13.497 -1.0501  0.2723  1.3721
 7419TIP3    H243749   5.665   0.517  13.366  1.3797 -0.7098 -0.0208
 7420TIP3   OH243750   1.201   3.441   3.914 -0.4035  0.5478 -0.3289
 7420TIP3    H143751   1.290   3.437   3.879  0.7784 -1.2631  2.5558
 7420TIP3    H243752   1.188   3.534   3.935  2.1247  0.4924  2.0552
 7421TIP3   OH243753   3.947   0.572   4.986  0.4371  0.3126 -0.3078
 7421TIP3    H143754   3.859   0.549   4.958 -0.1297 -0.0486  1.6085
 7421TIP3    H243755   3.995   0.489   4.989  0.2757  0.2349  0.4244
 7422TIP3   OH243756   6.272   6.616   1.595 -0.3725  0.1592 -0.0267
 7422TIP3    H143757   6.202   6.681   1.593 -2.0980 -1.6037 -1.4310
 7422TIP3    H243758   6.227   6.532   1.585  1.9417 -1.0863 -0.7705
 7423TIP3   OH243759   3.509   4.100  14.470  0.2811 -0.0380  0.3633
 7423TIP3    H143760   3.552   4.079  14.552  1.5697  1.0009 -0.0176
 7423TIP3    H243761   3.417   4.115  14.494  0.1799 -1.8361  1.2490
 7424TIP3   OH243762   6.075   3.526   2.209  0.2875 -0.4298 -0.0996
 7424TIP3    H143763   5.991   3.536   2.164 -0.2925 -0.1102  1.0134
 7424TIP3    H243764   6.051   3.508   2.300  1.3809  2.2136  0.8173
 7425TIP3   OH243765   2.658   0.796  13.277 -0.1288  0.1067 -0.2693
 7425TIP3    H143766   2.568   0.817  13.252  0.1948 -0.9078 -2.5488
 7425TIP3    H243767   2.650   0.716  13.329 -0.5875  0.4557  0.2084
 7426TIP3   OH243768   6.353   2.575   6.166  0.3732  0.1691  0.0569
 7426TIP3    H143769   6.354   2.668   6.191 -0.7538  0.1183  0.3834
 7426TIP3    H243770   6.312   2.531   6.241  1.8656 -0.7665  0.3667
 7427TIP3   OH243771   4.966   0.998  14.871  0.4565 -0.0070 -0.4114
 7427TIP3    H143772   4.963   0.963  14.782 -2.1489 -0.8449 -0.0948
 7427TIP3    H243773   4.902   0.945  14.919  2.5422 -0.3006  2.2687
 7428TIP3   OH243774   6.399   4.427  14.769 -0.3333 -0.3797 -0.2742
 7428TIP3    H143775   6.374   4.339  14.742  1.4312 -0.8850 -0.4026
 7428TIP3    H243776   6.439   4.466  14.691 -1.2620  0.6123 -0.2690
 7429TIP3   OH243777   2.669   4.923   4.239  0.3929 -0.2744  0.2067
 7429TIP3    H143778   2.693   4.831   4.232  1.5067  0.0501 -0.3749
 7429TIP3    H243779   2.726   4.968   4.177 -0.6720  0.7190 -0.0861
 7430TIP3   OH243780   0.202   6.251   4.760  0.0992  0.6385  0.7838
 7430TIP3    H143781   0.224   6.261   4.668  0.2747  0.5614  0.8179
 7430TIP3    H243782   0.285   6.258   4.806  0.3718 -1.6437  0.7627
 7431TIP3   OH243783   5.149   6.130   4.385  0.1486 -0.1600  0.0701
 7431TIP3    H143784   5.222   6.154   4.443 -0.4424  1.7293  0.0729
 7431TIP3    H243785   5.133   6.207   4.332  0.5347 -1.7539 -2.5589
 7432TIP3   OH243786   3.592   4.043   3.383  0.5487 -0.0958 -0.2233
 7432TIP3    H143787   3.626   4.131   3.395  3.2060 -0.6431 -2.6248
 7432TIP3    H243788   3.501   4.048   3.413  1.1863  2.8618  1.6649
 7433TIP3   OH243789   5.889   2.981   1.407  0.4050 -0.2758 -0.0929
 7433TIP3    H143790   5.940   3.062   1.402 -0.6114  0.4915  1.2713
 7433TIP3    H243791   5.828   2.986   1.334  0.9458 -0.2402 -0.5434
 7434TIP3   OH243792   1.495   4.099  16.581 -0.6194 -0.5565  0.4118
 7434TIP3    H143793   1.454   4.082  16.666 -0.9394 -0.8609  0.1966
 7434TIP3    H243794   1.578   4.141  16.603 -0.0457 -1.9110  0.9420
 7435TIP3   OH243795   4.062   0.319   4.999 -0.0736 -0.2852 -0.6698
 7435TIP3    H143796   4.065   0.230   4.963  0.2029 -1.1783  1.4364
 7435TIP3    H243797   4.150   0.333   5.035 -0.2607  0.6749 -0.5622
 7436TIP3   OH243798   2.254   4.695   5.236 -0.5478  0.5733 -0.1160
 7436TIP3    H143799   2.241   4.685   5.330  0.4401 -1.0536 -0.1012
 7436TIP3    H243800   2.340   4.736   5.228  0.5311 -1.5427 -0.2621
 7437TIP3   OH243801   4.322   1.476  11.028 -0.5009 -0.7980  0.4264
 7437TIP3    H143802   4.234   1.446  11.008 -0.3428 -0.5052 -0.7914
 7437TIP3    H243803   4.341   1.541  10.961  0.7294 -1.0159  0.5380
 7438TIP3   OH243804   3.010   6.772   5.456  0.0535 -0.1495  0.0250
 7438TIP3    H143805   3.003   6.756   5.550 -1.7977 -1.8991 -0.3290
 7438TIP3    H243806   2.981   6.690   5.416 -1.9418  1.4345 -2.0681
 7439TIP3   OH243807   6.770   0.979   1.699  0.4919 -0.3824  0.4317
 7439TIP3    H143808   6.815   1.058   1.727  1.0344 -0.7670  0.6710
 7439TIP3    H243809   6.789   0.915   1.767  1.1045 -1.0793 -0.3745
 7440TIP3   OH243810   5.173   2.312  13.679  0.1971  0.3674  0.2829
 7440TIP3    H143811   5.195   2.372  13.750  0.3763  3.1701 -1.9635
 7440TIP3    H243812   5.083   2.285  13.697 -0.0147  1.5876  1.2191
 7441TIP3   OH243813   3.523   1.196  13.929 -0.0407 -0.5246 -0.3487
 7441TIP3    H143814   3.615   1.188  13.954  0.0572  0.9448 -0.1583
 7441TIP3    H243815   3.486   1.109  13.945  0.8749 -0.6381  1.3625
 7442TIP3   OH243816   0.185   4.470   5.728 -0.0747  0.1069 -0.0790
 7442TIP3    H143817   0.097   4.431   5.726  0.9647 -2.4610  0.5583
 7442TIP3    H243818   0.198   4.494   5.820 -0.1263  0.5415 -0.1847
 7443TIP3   OH243819   0.179   3.763  12.144  0.6303  0.2420 -0.2344
 7443TIP3    H143820   0.086   3.785  12.156  0.7424  0.0828  1.1123
 7443TIP3    H243821   0.220   3.846  12.122  0.0740  0.1983 -1.5075
 7444TIP3   OH243822   5.111   4.977   3.720  0.1383  0.3052 -0.3502
 7444TIP3    H143823   5.118   4.918   3.645 -2.2077  0.5308 -0.8370
 7444TIP3    H243824   5.091   5.063   3.682 -2.3641  0.1783  0.4780
 7445TIP3   OH243825   3.523   0.431  16.528  0.3148 -0.4236 -0.2044
 7445TIP3    H143826   3.448   0.391  16.571  0.3519  0.6156  0.8647
 7445TIP3    H243827   3.562   0.360  16.477  0.8454 -2.0207  2.2673
 7446TIP3   OH243828   5.391   1.323   2.152  0.4161 -0.3269  0.3450
 7446TIP3    H143829   5.394   1.267   2.074 -3.8585 -1.0546  0.4387
 7446TIP3    H243830   5.373   1.410   2.118 -2.4612 -0.8112  0.3698
 7447TIP3   OH243831   0.139   4.385  10.893  0.1616 -0.3739 -0.0575
 7447TIP3    H143832   0.094   4.469  10.899 -1.4089 -1.1279 -0.6479
 7447TIP3    H243833   0.183   4.386  10.808 -0.0196 -0.2211 -0.1492
 7448TIP3   OH243834   4.754   4.180   2.524  0.1563 -0.4698 -0.1819
 7448TIP3    H143835   4.801   4.099   2.544  1.3054  0.0710 -0.6090
 7448TIP3    H243836   4.671   4.151   2.488 -1.1215 -1.4983  3.1630
 7449TIP3   OH243837   4.951   5.590  14.035 -0.4983 -0.3512 -0.6669
 7449TIP3    H143838   4.894   5.662  14.007 -0.4364 -0.2164 -0.4484
 7449TIP3    H243839   4.984   5.617  14.121  0.4019 -0.1365 -1.0624
 7450TIP3   OH243840   1.560   6.392  11.995  0.1919 -0.0950 -0.2863
 7450TIP3    H143841   1.472   6.415  12.026  0.0973 -0.2989 -0.4022
 7450TIP3    H243842   1.574   6.448  11.919  0.8204  1.1352  0.6861
 7451TIP3   OH243843   0.152   0.635   1.773  0.0518  0.4295  0.1788
 7451TIP3    H143844   0.097   0.696   1.822 -1.6146  0.8414 -2.0755
 7451TIP3    H243845   0.136   0.656   1.681  1.4926 -1.6564 -0.6292
 7452TIP3   OH243846   5.284   3.182  17.006  0.6574  0.0397  0.1915
 7452TIP3    H143847   5.261   3.119  17.074 -1.3721  1.1940  0.6596
 7452TIP3    H243848   5.259   3.267  17.042  2.6354  1.0846 -0.7135
 7453TIP3   OH243849   4.993   1.314  15.582 -0.1114  0.2371  0.2217
 7453TIP3    H143850   4.905   1.283  15.562 -0.6064  1.5482  0.2717
 7453TIP3    H243851   5.049   1.238  15.567 -1.1430 -0.3870 -0.6260
 7454TIP3   OH243852   1.317   1.519   3.780 -0.0512  0.6475  0.0299
 7454TIP3    H143853   1.237   1.572   3.783 -0.4588  0.0092  1.2530
 7454TIP3    H243854   1.285   1.430   3.764  0.5150  0.5431 -0.5529
 7455TIP3   OH243855   0.346   1.095   4.045  0.4823 -0.1222 -0.1227
 7455TIP3    H143856   0.250   1.095   4.038  0.5681 -0.8388 -1.4416
 7455TIP3    H243857   0.368   1.187   4.060 -0.2989  0.3688 -1.7935
 7456TIP3   OH243858   4.555   0.858  15.655 -0.1730  0.7565 -0.0973
 7456TIP3    H143859   4.639   0.838  15.615 -0.4946  1.7269 -1.3357
 7456TIP3    H243860   4.543   0.790  15.721  1.6280  0.6825  0.2019
 7457TIP3   OH243861   0.443   3.122  17.197 -0.6410  0.0784  0.2533
 7457TIP3    H143862   0.365   3.067  17.186 -0.7231  0.3804 -0.9085
 7457TIP3    H243863   0.516   3.066  17.170 -0.5296  0.0097  0.6907
 7458TIP3   OH243864   0.583   6.248  14.635 -0.4973  0.2282 -0.0178
 7458TIP3    H143865   0.602   6.297  14.555  0.9789  1.0553  0.7998
 7458TIP3    H243866   0.624   6.163  14.622 -0.4089  0.2982 -0.2034
 7459TIP3   OH243867   4.484   0.378  15.583 -0.1849 -0.1837 -0.3859
 7459TIP3    H143868   4.481   0.296  15.533  0.3816  0.6938 -1.9106
 7459TIP3    H243869   4.577   0.395  15.594 -0.2939  0.5661 -0.6064
 7460TIP3   OH243870   1.727   1.970   1.091  0.1761 -0.3846 -0.4046
 7460TIP3    H143871   1.800   2.015   1.048  0.0009  0.4537  0.1508
 7460TIP3    H243872   1.769   1.919   1.161  0.3226 -0.6870 -0.7090
 7461TIP3   OH243873   6.501   0.175  17.377 -0.4161  0.0680 -0.2319
 7461TIP3    H143874   6.418   0.151  17.418  0.3108 -2.0036  0.1410
 7461TIP3    H243875   6.486   0.263  17.343 -3.4730 -1.0242 -2.1045
 7462TIP3   OH243876   0.195   5.022  10.827 -0.1436  0.7740 -0.1444
 7462TIP3    H143877   0.235   4.985  10.748 -2.3027  2.8327 -2.3908
 7462TIP3    H243878   0.111   4.976  10.834  1.0436 -1.2557  2.6456
 7463TIP3   OH243879   4.422   3.158  15.227  0.2370  0.6122  0.3353
 7463TIP3    H143880   4.462   3.072  15.219 -0.5929  0.2222  0.3392
 7463TIP3    H243881   4.395   3.180  15.137 -2.0559 -0.3628  0.7359
 7464TIP3   OH243882   0.454   2.896  15.339  0.3716 -0.3309 -0.2269
 7464TIP3    H143883   0.408   2.968  15.384 -0.1657 -0.5482 -0.4193
 7464TIP3    H243884   0.539   2.892  15.383  0.5409  0.6363 -0.4297
 7465TIP3   OH243885   4.161   5.372  16.523 -0.1065 -0.7052  0.0525
 7465TIP3    H143886   4.216   5.295  16.513 -1.3147 -1.4118 -1.6025
 7465TIP3    H243887   4.074   5.344  16.493 -0.8116  1.0166  0.3564
 7466TIP3   OH243888   6.286   4.747   1.606  0.1312  0.1540  0.7452
 7466TIP3    H143889   6.207   4.798   1.590 -1.4446 -2.4272 -0.2672
 7466TIP3    H243890   6.339   4.757   1.527  0.3924  1.0625  1.0171
 7467TIP3   OH243891   2.740   4.745  12.898  0.2755  0.3992  1.0443
 7467TIP3    H143892   2.735   4.690  12.976  0.8267 -0.0305  0.7860
 7467TIP3    H243893   2.662   4.800  12.902  0.0985  0.1090  1.6925
 7468TIP3   OH243894   2.519   4.207  14.472  0.1916  0.5434  0.3796
 7468TIP3    H143895   2.576   4.244  14.540 -0.6198 -0.4804  1.6764
 7468TIP3    H243896   2.442   4.177  14.520 -0.6029  0.1677 -1.0779
 7469TIP3   OH243897   5.696   6.045   0.249  0.4969  0.0617 -1.0605
 7469TIP3    H143898   5.670   5.977   0.187  2.0821  0.2964 -2.0286
 7469TIP3    H243899   5.635   6.117   0.233 -2.1111 -1.5432  0.9271
 7470TIP3   OH243900   3.917   4.644  15.958  0.0438  0.1466  0.3313
 7470TIP3    H143901   4.006   4.678  15.972  0.3511 -0.5824  0.1838
 7470TIP3    H243902   3.904   4.651  15.863  0.0459  0.0034  0.3209
 7471TIP3   OH243903   4.463   0.024   2.972  1.0654 -0.5923 -0.5657
 7471TIP3    H143904   4.452  -0.040   2.902 -0.0848  0.0245 -0.9682
 7471TIP3    H243905   4.479  -0.029   3.051 -1.8388 -1.5544 -0.4864
 7472TIP3   OH243906   3.337   5.764  14.024 -0.0329 -0.2331 -0.2558
 7472TIP3    H143907   3.272   5.709  13.980  0.4778 -0.7957 -0.3263
 7472TIP3    H243908   3.287   5.837  14.059 -0.3912  0.5117 -2.2019
 7473TIP3   OH243909   6.319   4.158  16.349 -0.1885  0.1662  0.6389
 7473TIP3    H143910   6.378   4.114  16.287  1.7301  1.9244  1.0989
 7473TIP3    H243911   6.258   4.090  16.377 -0.6197 -0.9131 -2.5066
 7474TIP3   OH243912   2.486   6.431   1.538  0.2683  0.2548 -0.1053
 7474TIP3    H143913   2.534   6.473   1.609 -0.3144  1.0142 -0.1464
 7474TIP3    H243914   2.450   6.504   1.487 -0.7212 -0.2898 -0.2061
 7475TIP3   OH243915   3.742   0.862   4.996 -0.9130 -0.1480 -0.2942
 7475TIP3    H143916   3.660   0.892   5.035 -0.2600  0.5695  0.5610
 7475TIP3    H243917   3.733   0.884   4.903 -0.3879  3.0417  0.2842
 7476TIP3   OH243918   5.731   5.054  12.640 -0.6374  0.2139 -0.3770
 7476TIP3    H143919   5.711   4.967  12.606 -1.5557  1.0783 -2.1861
 7476TIP3    H243920   5.674   5.064  12.717 -1.5666 -0.2566 -0.9893
 7477TIP3   OH243921   3.933   6.482  11.287 -0.2236 -0.3347  0.4533
 7477TIP3    H143922   3.948   6.545  11.217  1.7952 -2.0367 -0.7940
 7477TIP3    H243923   3.860   6.428  11.256 -0.9416  0.4051  0.8219
 7478TIP3   OH243924   4.081   0.768  12.642 -0.1122  0.0856  0.3794
 7478TIP3    H143925   3.996   0.750  12.682  0.4869  0.1132  1.7252
 7478TIP3    H243926   4.060   0.816  12.562 -1.4169 -1.1098 -0.0268
 7479TIP3   OH243927   4.101   0.683   0.907  0.1010 -0.2287  0.2135
 7479TIP3    H143928   4.042   0.737   0.854 -0.5350 -0.1411  1.0029
 7479TIP3    H243929   4.094   0.720   0.995  1.2742 -0.2683  0.3381
 7480TIP3   OH243930   1.918   3.762   0.113 -0.2003 -0.4225  0.0193
 7480TIP3    H143931   1.840   3.809   0.141  1.2259  1.3996  1.1768
 7480TIP3    H243932   1.940   3.704   0.185  0.7920  0.8144  0.7711
 7481TIP3   OH243933   5.440   2.723   6.087  0.6626  0.1484  0.4329
 7481TIP3    H143934   5.420   2.793   6.025  0.0234  1.1852  1.7366
 7481TIP3    H243935   5.377   2.654   6.066  0.5364  0.4343 -0.1537
 7482TIP3   OH243936   5.590   4.394  11.196  0.2895  0.1073  0.4926
 7482TIP3    H143937   5.556   4.406  11.107  0.1187  1.5825  0.7389
 7482TIP3    H243938   5.679   4.360  11.183  0.5714  1.0837 -0.2831
 7483TIP3   OH243939   0.421   0.536  15.636 -0.8954 -0.0627 -0.3593
 7483TIP3    H143940   0.332   0.565  15.653 -1.2572 -0.8426 -0.8799
 7483TIP3    H243941   0.470   0.562  15.714 -1.0513  2.4880 -1.0259
 7484TIP3   OH243942   6.603   6.021  13.422 -0.1505  0.1889 -0.3250
 7484TIP3    H143943   6.694   5.990  13.426 -0.1854  0.1883  2.4422
 7484TIP3    H243944   6.551   5.946  13.450 -0.9501  0.4601 -1.0428
 7485TIP3   OH243945   3.733   1.568   6.042  0.7783  0.1525 -0.2823
 7485TIP3    H143946   3.730   1.523   6.127 -0.3515  0.2208 -0.2662
 7485TIP3    H243947   3.653   1.621   6.041  0.8195  0.2008 -1.3622
 7486TIP3   OH243948   3.840   2.354   3.631 -0.2745  0.0741  0.5431
 7486TIP3    H143949   3.799   2.273   3.603  2.0491 -1.3811  1.0444
 7486TIP3    H243950   3.826   2.358   3.725 -0.8002  0.5082  0.4472
 7487TIP3   OH243951   6.233   1.118  13.102 -0.0838 -0.3918 -0.0476
 7487TIP3    H143952   6.256   1.034  13.060  0.1322  0.4629 -1.7277
 7487TIP3    H243953   6.146   1.138  13.069 -0.4442 -0.3094  0.9443
 7488TIP3   OH243954   4.580   3.567   4.276  0.4502  0.2370  0.2926
 7488TIP3    H143955   4.580   3.654   4.236 -0.8956  0.2519  0.2690
 7488TIP3    H243956   4.533   3.579   4.359  0.2432 -0.4603  0.2810
 7489TIP3   OH243957   3.065   0.588  12.975  0.0514 -0.1029 -0.3779
 7489TIP3    H143958   3.037   0.640  13.050  1.6437  0.9518 -0.4528
 7489TIP3    H243959   3.080   0.652  12.905 -0.5302 -0.9661 -1.3210
 7490TIP3   OH243960   3.383   5.952   1.996  0.5155  0.1716 -0.6454
 7490TIP3    H143961   3.343   6.024   2.045  1.1291 -0.3163  0.6084
 7490TIP3    H243962   3.335   5.950   1.913 -1.3923  0.2127  0.4101
 7491TIP3   OH243963   4.876   4.839   1.359 -0.2235 -0.3883 -0.3437
 7491TIP3    H143964   4.803   4.781   1.378 -0.1885  0.1857  1.7964
 7491TIP3    H243965   4.919   4.853   1.444  0.3932  1.9089 -0.9516
 7492TIP3   OH243966   2.807   6.722   1.796  0.1867 -0.3767 -0.1454
 7492TIP3    H143967   2.796   6.816   1.803  2.2208 -0.2641  3.0985
 7492TIP3    H243968   2.725   6.686   1.830  0.3969  0.2553  1.0688
 7493TIP3   OH243969   3.421   3.586   5.595 -0.0008  0.2002  0.0281
 7493TIP3    H143970   3.505   3.632   5.599 -0.6179  1.3761  0.1191
 7493TIP3    H243971   3.443   3.494   5.603  1.3319  0.4489 -0.5576
 7494TIP3   OH243972   2.451   5.808  11.903  0.2409  0.1954  0.4211
 7494TIP3    H143973   2.450   5.850  11.817 -1.0799 -2.2557 -0.8746
 7494TIP3    H243974   2.363   5.771  11.913  0.8524 -0.9261  2.1295
 7495TIP3   OH243975   5.019   5.412  14.434 -0.1450  0.4359 -0.1458
 7495TIP3    H143976   4.935   5.368  14.446  0.1510  0.0530  0.5541
 7495TIP3    H243977   5.083   5.351  14.469  0.6694 -0.2239 -2.5829
 7496TIP3   OH243978   3.055   6.270  11.871  0.1132 -0.3687 -0.4051
 7496TIP3    H143979   3.029   6.225  11.952  2.2393 -3.2479 -1.1423
 7496TIP3    H243980   3.109   6.343  11.900 -0.3275 -0.4883  0.7776
 7497TIP3   OH243981   3.318   3.584   2.069  0.1107  0.0596  0.2326
 7497TIP3    H143982   3.316   3.562   2.162 -0.4489 -0.6446  0.0657
 7497TIP3    H243983   3.368   3.514   2.028  1.0671  0.8071  0.1038
 7498TIP3   OH243984   5.504   2.513   5.566  0.1699 -0.2585  0.5833
 7498TIP3    H143985   5.458   2.461   5.632  0.7619 -1.7309 -0.1045
 7498TIP3    H243986   5.442   2.519   5.493  0.8169 -1.7610 -0.1230
 7499TIP3   OH243987   4.146   5.010  14.577  0.4731 -0.0226  0.1728
 7499TIP3    H143988   4.143   5.092  14.627  0.2563 -0.5430  1.0350
 7499TIP3    H243989   4.071   5.015  14.518  1.0708  0.8613 -0.5365
 7500TIP3   OH243990   0.676   3.987  14.872  0.2539 -0.0591 -0.3290
 7500TIP3    H143991   0.733   3.998  14.797 -0.2806  0.1414 -0.7148
 7500TIP3    H243992   0.626   3.907  14.853 -0.7247  0.6262 -0.7679
 7501TIP3   OH243993   2.966   2.464   1.666  0.0770 -0.1463 -0.5722
 7501TIP3    H143994   2.921   2.543   1.696 -0.9953 -0.8811 -0.1920
 7501TIP3    H243995   2.952   2.400   1.735  1.7950 -0.3941 -0.4101
 7502TIP3   OH243996   2.191   1.057   0.322  0.2283  0.7997  0.0359
 7502TIP3    H143997   2.190   0.961   0.316  0.5959  0.8056 -0.1066
 7502TIP3    H243998   2.106   1.083   0.284 -0.1316  0.5048  0.6267
 7503TIP3   OH243999   1.326   5.765  11.040  0.2463  0.4119  0.5304
 7503TIP3    H144000   1.337   5.859  11.056 -1.0553  0.6540  0.1449
 7503TIP3    H244001   1.281   5.760  10.956  2.4035 -0.6633 -0.6480
 7504TIP3   OH244002   3.980   1.554   0.745  0.0376 -0.0729  0.0978
 7504TIP3    H144003   4.074   1.538   0.755 -0.1112 -0.4027  1.1118
 7504TIP3    H244004   3.973   1.648   0.728  0.5655 -0.0992 -0.2915
 7505TIP3   OH244005   3.324   2.743  10.719 -0.0537  0.0404  0.6126
 7505TIP3    H144006   3.260   2.764  10.787 -2.0113 -0.0102 -1.1361
 7505TIP3    H244007   3.294   2.790  10.642  0.7765 -1.7194 -0.8556
 7506TIP3   OH244008   0.553   2.834   0.208 -0.3127 -0.1557  0.8444
 7506TIP3    H144009   0.574   2.834   0.114 -2.4632 -1.6928  0.2780
 7506TIP3    H244010   0.534   2.926   0.228  0.1235  0.1859 -0.2385
 7507TIP3   OH244011   3.910   4.764  10.988  0.1491  0.2832  0.8051
 7507TIP3    H144012   3.903   4.680  10.943  1.2218  0.6361 -0.0669
 7507TIP3    H244013   3.836   4.815  10.955  0.0431  0.0089  0.6145
 7508TIP3   OH244014   0.889   6.377   3.722  0.1577  0.0400  0.3316
 7508TIP3    H144015   0.940   6.417   3.792 -1.7482  0.3429  1.6204
 7508TIP3    H244016   0.887   6.284   3.744  0.1359  0.0296  0.2880
 7509TIP3   OH244017   2.874   2.276   4.170  0.0954  0.0050  0.3874
 7509TIP3    H144018   2.833   2.200   4.129  0.0631  0.0701  0.2985
 7509TIP3    H244019   2.964   2.250   4.187  1.0130  0.9665 -2.4458
 7510TIP3   OH244020   2.353   2.631  14.666 -0.1798 -0.1236  0.0091
 7510TIP3    H144021   2.446   2.608  14.675 -0.2518 -0.1524  0.7745
 7510TIP3    H244022   2.308   2.574  14.729 -0.7196 -0.1212 -0.3680
 7511TIP3   OH244023   4.159   3.078  11.079 -0.3424  0.4402 -1.4627
 7511TIP3    H144024   4.234   3.020  11.071 -0.2904 -0.0997  1.7147
 7511TIP3    H244025   4.084   3.019  11.088 -0.4679  0.8226  0.3278
 7512TIP3   OH244026   5.030   4.550  13.128  0.0721 -0.6544 -0.8059
 7512TIP3    H144027   5.019   4.575  13.220  0.0121 -0.7925 -0.7767
 7512TIP3    H244028   4.953   4.586  13.084  1.4310  1.9082 -1.3111
 7513TIP3   OH244029   6.301   1.371  17.225  0.0201 -0.3899  0.8674
 7513TIP3    H144030   6.394   1.396  17.222 -0.1124  0.1754  1.2783
 7513TIP3    H244031   6.298   1.299  17.289  0.4170 -1.5758 -0.3861
 7514TIP3   OH244032   1.682   4.291  11.747 -0.1660 -0.1556  1.0487
 7514TIP3    H144033   1.732   4.327  11.820  0.2782 -0.3124  0.8220
 7514TIP3    H244034   1.736   4.308  11.670 -1.0213  0.8032  0.6340
 7515TIP3   OH244035   1.895   0.064  14.117  0.8526  0.0492  0.1488
 7515TIP3    H144036   1.960   0.002  14.149  1.2402  0.1854 -0.3591
 7515TIP3    H244037   1.902   0.059  14.021 -0.3649 -0.4427  0.0697
 7516TIP3   OH244038   2.983   3.716   5.068 -0.1359  0.6345  0.2040
 7516TIP3    H144039   3.048   3.739   5.135  1.6943 -1.1947 -0.8672
 7516TIP3    H244040   2.917   3.666   5.116  2.2199 -2.5341  0.4358
 7517TIP3   OH244041   3.021   6.499  14.372  0.0619 -0.1182  0.2249
 7517TIP3    H144042   3.101   6.499  14.425  0.3767 -0.1690 -0.2489
 7517TIP3    H244043   2.959   6.553  14.422 -0.2871 -1.6743  1.5882
 7518TIP3   OH244044   3.994   5.157   3.033  0.5552  0.3991 -0.3847
 7518TIP3    H144045   3.899   5.155   3.044  0.7100 -0.7514  1.0678
 7518TIP3    H244046   4.025   5.212   3.105  1.0141  0.5141 -0.6683
 7519TIP3   OH244047   4.598   6.710  10.871 -0.4175  0.3471 -0.1872
 7519TIP3    H144048   4.573   6.718  10.963 -0.7858  0.3108 -0.2836
 7519TIP3    H244049   4.557   6.786  10.829 -1.1603 -0.2204 -0.5143
 7520TIP3   OH244050   4.247   2.159   0.150 -0.0952 -0.4050 -0.0539
 7520TIP3    H144051   4.269   2.248   0.178 -0.7070 -0.0652 -0.6305
 7520TIP3    H244052   4.239   2.165   0.055  1.1744 -1.3744 -0.2428
 7521TIP3   OH244053   0.547   2.665   5.377 -0.1261  0.4853 -0.5683
 7521TIP3    H144054   0.597   2.739   5.343 -0.0018 -0.0173 -1.5112
 7521TIP3    H244055   0.463   2.703   5.404  1.1190  1.5713  2.1642
 7522TIP3   OH244056   5.301   0.337  14.426  0.1224  0.1121  0.3038
 7522TIP3    H144057   5.261   0.270  14.371  1.9775 -0.7380 -0.1054
 7522TIP3    H244058   5.230   0.398  14.446 -1.6501 -1.9411  0.6730
 7523TIP3   OH244059   2.609   3.512  13.858  0.2829  0.3965 -0.1330
 7523TIP3    H144060   2.571   3.446  13.799 -0.3646  1.4865 -0.9650
 7523TIP3    H244061   2.630   3.463  13.937  0.6456 -0.9975 -1.0486
 7524TIP3   OH244062   0.708   0.329   2.892 -0.3045 -0.1785  0.3514
 7524TIP3    H144063   0.705   0.375   2.976  1.1270  0.0899  0.2866
 7524TIP3    H244064   0.717   0.398   2.827 -0.9164 -0.4145  0.0098
 7525TIP3   OH244065   2.685   4.231  17.017  0.4294 -0.0681  0.5211
 7525TIP3    H144066   2.655   4.214  17.106 -0.1067 -0.8293  0.2134
 7525TIP3    H244067   2.608   4.267  16.972  0.2322 -1.1219 -0.0226
 7526TIP3   OH244068   6.602   1.874   1.928  0.0048 -0.0825 -0.1360
 7526TIP3    H144069   6.689   1.843   1.953 -0.3350 -1.8262 -0.9296
 7526TIP3    H244070   6.547   1.854   2.004 -0.1625 -1.2959 -0.5509
 7527TIP3   OH244071   2.089   2.855  13.416  0.3626  0.9901  0.1335
 7527TIP3    H144072   2.164   2.906  13.384  0.7292  0.3010 -0.1272
 7527TIP3    H244073   2.014   2.913  13.405  0.2791  0.4407 -2.9808
 7528TIP3   OH244074   5.258   2.921  14.655 -0.0360 -0.2749  0.3076
 7528TIP3    H144075   5.247   3.015  14.671 -2.3612 -0.6263  1.1968
 7528TIP3    H244076   5.225   2.908  14.566 -1.3333 -0.4731  0.8054
 7529TIP3   OH244077   3.485   2.403   4.872  0.9351 -0.0524 -0.5053
 7529TIP3    H144078   3.459   2.405   4.780 -1.0177 -0.3985  0.0016
 7529TIP3    H244079   3.421   2.345   4.914  2.0639 -0.2649  0.9928
 7530TIP3   OH244080   4.671   1.820   0.252  0.4986  0.2496 -0.6790
 7530TIP3    H144081   4.677   1.746   0.192 -0.2737 -2.5283  2.3705
 7530TIP3    H244082   4.748   1.812   0.308 -0.2630  0.9829  0.5106
 7531TIP3   OH244083   0.810   2.165   0.424 -0.0704  0.4197  0.5815
 7531TIP3    H144084   0.764   2.183   0.342 -0.7875  3.1772  1.5007
 7531TIP3    H244085   0.898   2.201   0.411  0.3387 -0.5425  0.5349
 7532TIP3   OH244086   1.839   0.593  14.523 -0.0843 -0.2340  0.0660
 7532TIP3    H144087   1.867   0.676  14.484 -0.5771  0.2620  0.7453
 7532TIP3    H244088   1.746   0.586  14.500  0.1148 -0.9475 -0.5759
 7533TIP3   OH244089   3.919   5.050  14.435 -0.2994  0.2248 -0.6669
 7533TIP3    H144090   3.869   5.051  14.353  0.2024  0.3954 -0.9720
 7533TIP3    H244091   3.853   5.033  14.502 -0.5738 -0.9616 -1.2069
 7534TIP3   OH244092   3.045   1.050   0.200  0.1673 -0.3981  0.2873
 7534TIP3    H144093   3.126   1.035   0.150  0.3346 -1.4211  0.8575
 7534TIP3    H244094   3.034   1.146   0.198  1.4324 -0.2340  0.2600
 7535TIP3   OH244095   6.246   3.868  16.955 -0.5609  0.6974 -0.3077
 7535TIP3    H144096   6.159   3.901  16.933 -0.0104  1.3941 -1.5742
 7535TIP3    H244097   6.290   3.942  16.997 -0.1169  0.8246 -0.9759
 7536TIP3   OH244098   3.386   4.218   0.146  0.2706  0.7325 -0.4837
 7536TIP3    H144099   3.362   4.310   0.139  0.2420  0.9390  1.5901
 7536TIP3    H244100   3.481   4.217   0.131  0.4201  1.2523  0.3478
 7537TIP3   OH244101   2.322   4.263   3.622  0.1195  0.1024 -0.1047
 7537TIP3    H144102   2.370   4.320   3.682  0.7336 -0.0905 -0.4048
 7537TIP3    H244103   2.231   4.270   3.650  0.4360 -0.2412  1.0476
 7538TIP3   OH244104   0.189   2.262  16.191  0.2918  0.7040  0.1512
 7538TIP3    H144105   0.135   2.204  16.245  0.6226 -0.0603 -0.3188
 7538TIP3    H244106   0.176   2.349  16.228 -0.4964  0.3813  0.6487
 7539TIP3   OH244107   0.445   5.987   6.176  0.0286  0.9733 -0.2836
 7539TIP3    H144108   0.451   6.078   6.205  2.4136  0.8307 -0.1119
 7539TIP3    H244109   0.533   5.951   6.192 -0.9887 -1.5177  0.1397
 7540TIP3   OH244110   2.295   2.686   4.271 -0.4207 -0.4085  1.1905
 7540TIP3    H144111   2.243   2.622   4.222 -1.0548  1.1769 -0.3132
 7540TIP3    H244112   2.320   2.640   4.351 -2.0480 -2.0530  0.8256
 7541TIP3   OH244113   5.599   4.397   4.624 -0.3137 -0.3997  0.3202
 7541TIP3    H144114   5.533   4.450   4.579  0.0973 -0.2428 -0.0990
 7541TIP3    H244115   5.653   4.459   4.672  1.2795 -0.2130 -1.5798
 7542TIP3   OH244116   6.423   5.106   2.584  0.0225 -0.2736 -1.1827
 7542TIP3    H144117   6.442   5.022   2.627 -2.2998 -0.1848  0.2139
 7542TIP3    H244118   6.339   5.092   2.540 -0.0775  1.1187 -1.4837
 7543TIP3   OH244119   6.220   3.844   3.362 -0.0405 -0.1244 -0.6589
 7543TIP3    H144120   6.163   3.908   3.320 -1.7917 -1.6911 -0.8201
 7543TIP3    H244121   6.202   3.762   3.315  0.5628 -1.1816  0.8676
 7544TIP3   OH244122   3.188   0.640   0.855  0.4343 -0.5145 -0.4938
 7544TIP3    H144123   3.133   0.562   0.850 -0.5367  0.0505  0.6988
 7544TIP3    H244124   3.133   0.711   0.822  0.7871 -0.0966 -0.2066
 7545TIP3   OH244125   3.411   5.806  17.466 -0.1438 -0.1749 -0.1303
 7545TIP3    H144126   3.335   5.843  17.512 -0.1408 -0.5136  0.1500
 7545TIP3    H244127   3.428   5.723  17.510  0.1444 -0.2895 -0.4516
 7546TIP3   OH244128   2.659   3.158  13.839  0.0694 -0.2117 -0.4128
 7546TIP3    H144129   2.625   3.070  13.823  1.2412 -0.4085 -2.0718
 7546TIP3    H244130   2.615   3.213  13.773 -0.1509  0.3221  0.1687
 7547TIP3   OH244131   4.437   5.778   1.717 -0.0137 -0.3501  0.2015
 7547TIP3    H144132   4.442   5.844   1.786  0.5348 -0.6481  0.4550
 7547TIP3    H244133   4.512   5.720   1.733 -1.1397 -1.7363  0.7229
 7548TIP3   OH244134   4.561   5.527   5.339 -0.4197  0.1424  0.3429
 7548TIP3    H144135   4.564   5.563   5.250  1.6943 -0.0583  0.2965
 7548TIP3    H244136   4.610   5.590   5.392  1.1171 -1.3299  0.7411
 7549TIP3   OH244137   4.179   1.520   5.265  1.0140 -0.5388 -0.2526
 7549TIP3    H144138   4.182   1.518   5.360  1.1740 -0.9714 -0.2630
 7549TIP3    H244139   4.128   1.442   5.241 -0.7865  0.6297 -0.4595
 7550TIP3   OH244140   1.614   2.965  13.592 -0.0920 -0.1039  0.8224
 7550TIP3    H144141   1.555   3.027  13.635 -0.8065 -1.0295  1.2267
 7550TIP3    H244142   1.592   2.880  13.631  0.2842 -0.7413 -0.2954
 7551TIP3   OH244143   3.030   0.111  16.717 -0.0287  0.3346 -0.0587
 7551TIP3    H144144   3.053   0.173  16.649 -1.6227  0.9663 -0.0722
 7551TIP3    H244145   3.020   0.164  16.796 -0.3021 -0.0689  0.1824
 7552TIP3   OH244146   4.848   5.870  13.250  0.1499  0.1502  0.6389
 7552TIP3    H144147   4.843   5.931  13.323 -0.4702 -0.2645  0.9532
 7552TIP3    H244148   4.804   5.791  13.281  1.3675 -0.6502  0.4176
 7553TIP3   OH244149   5.006   5.005  14.957 -0.4302 -0.5244  0.2693
 7553TIP3    H144150   4.967   4.992  14.870  0.1855 -2.2225  0.2053
 7553TIP3    H244151   4.945   4.962  15.017 -0.0540 -0.7680  0.4823
 7554TIP3   OH244152   3.991   2.804   6.453 -0.0669 -0.1492 -0.0686
 7554TIP3    H144153   3.962   2.803   6.544  1.9609  1.3937  0.6702
 7554TIP3    H244154   3.948   2.880   6.414  0.7944  0.5105  0.2496
 7555TIP3   OH244155   4.787   3.238  14.673  0.3800  0.1457  0.6423
 7555TIP3    H144156   4.829   3.295  14.738  0.6493  0.8227 -0.1200
 7555TIP3    H244157   4.783   3.290  14.593  0.2272 -0.7506  0.0478
 7556TIP3   OH244158   1.865   4.284   5.111 -0.2594 -0.0643  0.3108
 7556TIP3    H144159   1.955   4.296   5.082 -0.3629  1.9169  0.6598
 7556TIP3    H244160   1.812   4.312   5.036 -0.5399  1.3307  0.9994
 7557TIP3   OH244161   3.625   0.759  12.055 -1.1905 -0.0970  0.4446
 7557TIP3    H144162   3.690   0.828  12.045  0.2461 -0.9843  2.8530
 7557TIP3    H244163   3.542   0.800  12.033 -0.0974  1.7291 -0.4317
 7558TIP3   OH244164   1.408   5.884  15.062  0.1946 -0.3855 -0.0370
 7558TIP3    H144165   1.486   5.830  15.070  0.4645 -0.1025 -0.6753
 7558TIP3    H244166   1.340   5.824  15.029  0.8189 -0.0999 -1.9960
 7559TIP3   OH244167   5.226   4.358  13.707 -0.2552 -0.4210 -0.1790
 7559TIP3    H144168   5.305   4.352  13.761 -0.0880 -1.7922 -0.5450
 7559TIP3    H244169   5.247   4.425  13.642 -0.1722  0.6988  0.9454
 7560TIP3   OH244170   1.055   5.870   4.302  0.1775  0.4504 -0.5683
 7560TIP3    H144171   1.121   5.902   4.363  0.9102  0.2565 -1.2462
 7560TIP3    H244172   1.020   5.950   4.261  0.3767  0.5208 -0.6015
 7561TIP3   OH244173   5.991   2.874  17.272  0.5013  0.0272 -0.1394
 7561TIP3    H144174   6.013   2.918  17.190  0.3694 -0.2675 -0.3348
 7561TIP3    H244175   5.946   2.941  17.324  1.7792  0.6130  0.2427
 7562TIP3   OH244176   5.444   5.080  14.139 -0.3533  0.4187  0.0427
 7562TIP3    H144177   5.410   4.994  14.115  0.5814  0.3169 -1.0218
 7562TIP3    H244178   5.384   5.112  14.207 -0.7119 -1.0674  0.4654
 7563TIP3   OH244179   3.200   4.830  16.023 -0.2396 -0.3590  0.3682
 7563TIP3    H144180   3.115   4.796  15.996 -0.5657  0.4237  0.3898
 7563TIP3    H244181   3.246   4.754  16.059 -1.2521 -0.6082  1.1521
 7564TIP3   OH244182   6.581   2.323   5.459  0.5001  0.3558  0.0971
 7564TIP3    H144183   6.503   2.375   5.438 -1.1211 -2.0984 -0.3753
 7564TIP3    H244184   6.620   2.303   5.374 -0.4247 -1.3343  0.0239
 7565TIP3   OH244185   6.716   1.865  14.612 -0.8011 -1.2421  0.2937
 7565TIP3    H144186   6.682   1.954  14.603 -1.0526 -1.4459 -1.1123
 7565TIP3    H244187   6.806   1.876  14.642 -0.2369 -0.4014 -1.5632
 7566TIP3   OH244188   1.804   6.014   4.147  0.4592  0.6268 -0.8555
 7566TIP3    H144189   1.725   6.064   4.169  0.4867  0.6283 -0.7615
 7566TIP3    H244190   1.774   5.952   4.080  0.1996  0.1091 -0.2717
 7567TIP3   OH244191   4.382   5.294  15.744  0.2741 -0.2452  0.1155
 7567TIP3    H144192   4.315   5.288  15.812  0.3167 -0.3985  0.1425
 7567TIP3    H244193   4.361   5.224  15.682 -0.1714  0.3210 -0.3936
 7568TIP3   OH244194   0.407   4.135   4.527  0.0592 -0.4121  0.0996
 7568TIP3    H144195   0.330   4.080   4.546  0.4287 -1.1562 -0.4947
 7568TIP3    H244196   0.399   4.156   4.434  0.0463  0.3626  0.2716
 7569TIP3   OH244197   2.528   5.992  13.741  0.1611 -0.0233  0.0517
 7569TIP3    H144198   2.580   6.067  13.768  0.6896 -0.4848  0.3332
 7569TIP3    H244199   2.590   5.935  13.695  0.5627 -1.8005  2.6096
 7570TIP3   OH244200   6.190   1.293   2.723 -0.8251  0.0900 -0.0976
 7570TIP3    H144201   6.182   1.331   2.810  0.0948 -0.3509  0.1896
 7570TIP3    H244202   6.158   1.203   2.733  1.3596 -0.6892  0.3407
 7571TIP3   OH244203   4.635   4.135  14.611  0.2840  0.3709  0.3345
 7571TIP3    H144204   4.724   4.170  14.596 -1.2417  5.0170  0.4905
 7571TIP3    H244205   4.624   4.068  14.543  3.6911 -0.0185 -0.0114
 7572TIP3   OH244206   3.984   6.473  16.875 -0.8055  0.3631  0.1423
 7572TIP3    H144207   3.909   6.511  16.922 -1.0391 -0.0585  0.1106
 7572TIP3    H244208   3.947   6.440  16.793 -0.0690  2.9134 -1.3310
 7573TIP3   OH244209   6.193   1.549   4.070 -0.2311  0.4466  0.7169
 7573TIP3    H144210   6.237   1.577   4.149 -0.9734 -0.6962  1.5700
 7573TIP3    H244211   6.251   1.483   4.032 -0.9907 -0.8264  1.6720
 7574TIP3   OH244212   5.262   0.711   3.530  0.1832  0.2413 -0.3006
 7574TIP3    H144213   5.272   0.678   3.441  0.4361  0.8757 -0.5151
 7574TIP3    H244214   5.299   0.642   3.586  2.0927  0.7637 -0.8298
 7575TIP3   OH244215   1.023   3.315  11.699  0.0655  0.1119  0.5954
 7575TIP3    H144216   1.101   3.365  11.724  0.9734 -0.4604 -0.9509
 7575TIP3    H244217   1.046   3.224  11.716 -0.9195  0.0388  1.6997
 7576TIP3   OH244218   0.883   1.835   3.380  0.1295  0.0539  0.2963
 7576TIP3    H144219   0.974   1.837   3.409  0.6612  0.9555 -1.3217
 7576TIP3    H244220   0.833   1.867   3.455  1.1131 -0.6018  1.2561
 7577TIP3   OH244221   3.731   2.942   2.274  0.2085  0.2907  0.0330
 7577TIP3    H144222   3.685   2.866   2.311 -0.6349 -0.1231 -1.7507
 7577TIP3    H244223   3.816   2.907   2.246  0.7917  0.5737  1.3978
 7578TIP3   OH244224   0.721   1.077   3.147  0.0177 -0.3555  0.1094
 7578TIP3    H144225   0.636   1.066   3.191 -0.4857 -5.1157 -1.4908
 7578TIP3    H244226   0.784   1.036   3.206  0.5902 -0.2454 -0.4160
 7579TIP3   OH244227   4.661   1.360  16.041 -0.0095 -0.0597  0.1819
 7579TIP3    H144228   4.747   1.321  16.024  0.2010  0.5719 -0.2570
 7579TIP3    H244229   4.616   1.354  15.956 -0.7284 -1.1526  0.6117
 7580TIP3   OH244230   1.646   5.942  12.363 -0.4568  0.5148  0.4655
 7580TIP3    H144231   1.622   5.880  12.432 -1.4144  0.4353  0.0775
 7580TIP3    H244232   1.685   5.887  12.294  1.5535  0.7142  1.3563
 7581TIP3   OH244233   0.326   1.022  11.819 -0.4152 -0.1057  0.0531
 7581TIP3    H144234   0.287   0.992  11.737 -2.5538 -0.9250  1.2783
 7581TIP3    H244235   0.254   1.021  11.882  1.3652 -0.6494  2.2411
 7582TIP3   OH244236   4.060   4.643   4.115 -0.5224 -0.0284 -0.7935
 7582TIP3    H144237   3.985   4.700   4.130 -0.3675  0.0741 -0.4020
 7582TIP3    H244238   4.114   4.691   4.052 -0.2762  0.3735 -0.2874
 7583TIP3   OH244239   1.874   5.720   0.085 -0.0766 -0.0474  0.1887
 7583TIP3    H144240   1.949   5.661   0.077  0.4391  0.7289 -0.8259
 7583TIP3    H244241   1.836   5.698   0.171  2.4133  0.8161  1.6138
 7584TIP3   OH244242   4.415   4.913   0.319 -0.3272 -0.4031  0.4956
 7584TIP3    H144243   4.450   4.878   0.237  1.5792  0.7948  0.7241
 7584TIP3    H244244   4.394   5.004   0.299 -0.9906 -0.4261  1.0429
 7585TIP3   OH244245   0.923   2.510  14.842  0.7033 -0.0835  0.1678
 7585TIP3    H144246   0.979   2.439  14.873 -1.3149 -0.5035  3.3851
 7585TIP3    H244247   0.927   2.575  14.912 -0.7333  1.0586 -0.7575
 7586TIP3   OH244248   1.040   1.440   6.579 -0.4175  0.4172  0.3980
 7586TIP3    H144249   1.114   1.412   6.633 -0.8581  0.4617  1.0309
 7586TIP3    H244250   0.969   1.382   6.605 -0.8941  1.0582  0.5424
 7587TIP3   OH244251   1.219   2.654   4.424 -0.1438 -0.4800  0.1421
 7587TIP3    H144252   1.208   2.750   4.424  0.1125 -0.3815  3.1548
 7587TIP3    H244253   1.130   2.621   4.407 -0.6695  0.3126  1.2202
 7588TIP3   OH244254   1.865   0.753   4.341  0.5849 -0.4575  0.1257
 7588TIP3    H144255   1.948   0.712   4.366  0.8760  0.5266  0.8587
 7588TIP3    H244256   1.824   0.776   4.425  1.5329  2.8550 -0.1898
 7589TIP3   OH244257   2.517   5.494   2.717 -0.0707  0.2148 -0.6189
 7589TIP3    H144258   2.560   5.579   2.712 -1.2761  0.8223 -1.0575
 7589TIP3    H244259   2.539   5.461   2.805  0.0191  1.1856 -0.2633
 7590TIP3   OH244260   6.164   4.275  13.902 -0.7273 -0.0232 -0.2223
 7590TIP3    H144261   6.195   4.352  13.950  2.3162 -0.4471 -1.2491
 7590TIP3    H244262   6.173   4.301  13.810  1.4679 -1.8766 -0.6180
 7591TIP3   OH244263   2.886   1.428  16.627 -0.0354 -0.1628 -0.3384
 7591TIP3    H144264   2.923   1.419  16.715 -1.1308  2.5300  0.5128
 7591TIP3    H244265   2.849   1.342  16.608  0.9636 -1.0600  1.4749
 7592TIP3   OH244266   1.594   4.754  12.122  0.2736 -0.3455  0.4270
 7592TIP3    H144267   1.685   4.759  12.148  0.2141  0.8298  0.4833
 7592TIP3    H244268   1.548   4.720  12.199  0.5505 -0.0848  0.7114
 7593TIP3   OH244269   3.941   1.888   4.042  0.0120  0.3117  0.1314
 7593TIP3    H144270   3.990   1.864   4.121  1.1014 -0.8323 -0.8376
 7593TIP3    H244271   4.006   1.930   3.985 -0.3270 -0.4125 -0.8251
 7594TIP3   OH244272   5.046   0.613  13.753  0.5146  0.0631 -0.2199
 7594TIP3    H144273   5.126   0.653  13.717 -0.4810  2.9639  0.5320
 7594TIP3    H244274   5.001   0.685  13.797 -3.2546 -1.0698 -1.8100
 7595TIP3   OH244275   5.439   3.822  16.279  0.1346  0.1230  0.3738
 7595TIP3    H144276   5.521   3.788  16.243 -0.9779 -0.6897 -1.5568
 7595TIP3    H244277   5.385   3.839  16.202 -1.1633  1.6091  1.5476
 7596TIP3   OH244278   5.645   4.578   4.960 -0.1046  0.2559 -0.8364
 7596TIP3    H144279   5.701   4.655   4.963 -0.1927  0.3025  0.0962
 7596TIP3    H244280   5.702   4.507   4.929  1.0057 -0.0868  1.7257
 7597TIP3   OH244281   6.485   1.412   4.111 -0.4744 -0.5021 -0.3572
 7597TIP3    H144282   6.406   1.371   4.147 -1.4856  1.0328 -0.7664
 7597TIP3    H244283   6.480   1.394   4.017 -0.6212  0.0559 -0.4571
 7598TIP3   OH244284   0.763   4.028  17.150 -0.5692 -0.4533  0.1150
 7598TIP3    H144285   0.810   4.052  17.229 -1.4555  0.4493  0.3904
 7598TIP3    H244286   0.769   4.106  17.094 -1.2273 -0.5353 -0.0774
 7599TIP3   OH244287   3.948   2.523   0.807 -0.6021  0.6180 -1.0316
 7599TIP3    H144288   3.962   2.575   0.886  2.4859 -0.1909 -0.9162
 7599TIP3    H244289   3.879   2.461   0.832 -2.6718  3.0319 -0.4253
 7600TIP3   OH244290   1.885   3.747  13.871  0.3802 -0.4603  0.4733
 7600TIP3    H144291   1.816   3.807  13.845  0.4361 -1.0950 -1.2589
 7600TIP3    H244292   1.893   3.759  13.966  1.9306  3.8764  0.0294
 7601TIP3   OH244293   3.360   1.387  11.918 -0.1649  0.3527 -0.3961
 7601TIP3    H144294   3.433   1.433  11.960 -0.1307 -1.1310  1.3087
 7601TIP3    H244295   3.357   1.423  11.829  2.0334  1.1226 -0.2265
 7602TIP3   OH244296   5.121   6.066   1.580  0.4823  0.3625  0.1489
 7602TIP3    H144297   5.145   6.028   1.496 -0.5214  1.1626 -0.5389
 7602TIP3    H244298   5.077   6.148   1.557  0.0574  0.5259  1.4501
 7603TIP3   OH244299   4.362   0.160  12.397  0.0712  0.3932  0.0671
 7603TIP3    H144300   4.333   0.193  12.312 -1.0115 -0.9756 -0.1291
 7603TIP3    H244301   4.454   0.135  12.384 -0.5261 -1.3174 -1.1980
 7604TIP3   OH244302   5.677   2.925   3.319 -0.2100  0.7805  0.2991
 7604TIP3    H144303   5.629   2.959   3.243  0.6465  1.1888 -0.0719
 7604TIP3    H244304   5.680   2.999   3.380 -1.4009  0.2819  1.0023
 7605TIP3   OH244305   5.176   0.331  11.532  0.1003 -0.6196 -0.3774
 7605TIP3    H144306   5.251   0.281  11.499 -0.7749 -2.4422  0.2912
 7605TIP3    H244307   5.116   0.265  11.566 -1.5744  0.8412 -0.3770
 7606TIP3   OH244308   2.079   1.592   4.174  0.4477 -0.2486 -0.0812
 7606TIP3    H144309   1.994   1.634   4.159  1.0451  0.8930 -0.3777
 7606TIP3    H244310   2.140   1.665   4.186  1.4796 -1.0475 -0.3541
 7607TIP3   OH244311   4.800   0.688   3.487  0.5482 -0.0022 -0.5065
 7607TIP3    H144312   4.771   0.761   3.542 -0.3782 -0.3639 -0.4984
 7607TIP3    H244313   4.869   0.725   3.432  1.7794  0.2778  1.1484
 7608TIP3   OH244314   5.347   4.114  10.883 -0.2424  0.1423  0.2154
 7608TIP3    H144315   5.312   4.184  10.827  1.2669  1.6132  1.0032
 7608TIP3    H244316   5.315   4.033  10.844 -0.8184  1.2036 -1.6285
 7609TIP3   OH244317   0.329   5.190  14.978 -0.4215  0.1002  0.3222
 7609TIP3    H144318   0.393   5.245  15.023  0.6574 -0.7596 -0.1136
 7609TIP3    H244319   0.248   5.202  15.028  0.4913 -0.1049  1.9244
 7610TIP3   OH244320   0.207   1.723   3.543  0.2075 -0.3526  0.4515
 7610TIP3    H144321   0.175   1.810   3.521  0.4864  0.1228  1.8034
 7610TIP3    H244322   0.291   1.716   3.498  0.3007  0.1846  0.5346
 7611TIP3   OH244323   5.658   6.504   1.759  0.0411 -0.5299  0.0886
 7611TIP3    H144324   5.580   6.559   1.748  0.6782  0.3794 -0.0786
 7611TIP3    H244325   5.636   6.444   1.830  0.5010  2.3001  2.8786
 7612TIP3   OH244326   1.386   4.049   0.401  0.2454  0.3301  0.2182
 7612TIP3    H144327   1.335   3.969   0.387  0.0326  0.9117 -3.2626
 7612TIP3    H244328   1.473   4.019   0.427 -0.8008 -0.7788  2.8778
 7613TIP3   OH244329   3.525   4.220   1.888 -0.2396  0.6633  0.1756
 7613TIP3    H144330   3.512   4.306   1.847 -1.0788  1.1217  1.3541
 7613TIP3    H244331   3.499   4.157   1.821  0.8354  1.2976 -0.8727
 7614TIP3   OH244332   3.926   4.169   4.584 -0.1317 -0.2309  0.0949
 7614TIP3    H144333   3.841   4.210   4.570 -0.3318 -0.9006 -0.7136
 7614TIP3    H244334   3.908   4.075   4.584  0.8514 -0.4776 -2.0531
 7615TIP3   OH244335   4.880   2.683  15.594  0.4760 -0.2423 -0.1523
 7615TIP3    H144336   4.940   2.684  15.520  0.2884  0.5759 -0.3065
 7615TIP3    H244337   4.816   2.615  15.573  0.5721 -0.1920 -0.6207
 7616TIP3   OH244338   3.292   5.044  11.444  0.2417  0.7629 -0.7542
 7616TIP3    H144339   3.245   5.103  11.503 -1.2623  0.1947 -1.3414
 7616TIP3    H244340   3.320   4.971  11.500  0.8077  1.2986 -0.3215
 7617TIP3   OH244341   2.462   3.550  13.568 -0.3175  0.0305 -0.2032
 7617TIP3    H144342   2.381   3.559  13.518 -1.6238 -1.5771  1.5130
 7617TIP3    H244343   2.448   3.602  13.647  1.1298  1.3005 -0.7139
 7618TIP3   OH244344   6.749   6.762  16.784 -0.2983  0.0569  0.5686
 7618TIP3    H144345   6.775   6.687  16.837  1.4526  0.5073  0.4062
 7618TIP3    H244346   6.726   6.726  16.699  2.3049 -0.1966 -0.1052
 7619TIP3   OH244347   1.765   5.638   4.299 -0.5902  0.7913  0.0986
 7619TIP3    H144348   1.842   5.624   4.354  0.4404 -0.6284 -1.6073
 7619TIP3    H244349   1.720   5.553   4.299 -0.1346  0.4933 -1.7899
 7620TIP3   OH244350   4.171   4.526  16.288  0.2319  0.5299 -0.4775
 7620TIP3    H144351   4.079   4.522  16.314  0.2119 -0.1944 -0.6289
 7620TIP3    H244352   4.215   4.570  16.361 -0.1475  0.3887 -0.1593
 7621TIP3   OH244353   3.384   2.732   1.848 -0.1384 -0.0489 -1.0468
 7621TIP3    H144354   3.299   2.769   1.870  0.6290  0.2215  1.7917
 7621TIP3    H244355   3.441   2.808   1.835  0.6731 -0.1207  1.5873
 7622TIP3   OH244356   2.072   2.777   5.496  0.6177 -0.5628  0.2335
 7622TIP3    H144357   2.148   2.805   5.445 -0.0395  0.4141 -0.2415
 7622TIP3    H244358   2.020   2.857   5.507  0.2336 -0.9763  1.5532
 7623TIP3   OH244359   1.353   1.373  13.952  0.3964 -0.2004 -0.1435
 7623TIP3    H144360   1.408   1.320  14.011  0.2811 -0.7784 -0.5440
 7623TIP3    H244361   1.392   1.362  13.866 -0.3432 -0.6279 -0.4389
 7624TIP3   OH244362   0.931   2.755  13.526 -0.4882 -0.2833  0.1381
 7624TIP3    H144363   0.901   2.667  13.501 -1.0372 -0.3879  1.1174
 7624TIP3    H244364   0.963   2.744  13.616  1.2945  0.1082 -0.4102
 7625TIP3   OH244365   2.497   2.638   5.778  0.6503  0.1975 -0.3399
 7625TIP3    H144366   2.454   2.626   5.862  1.4245 -0.0118  0.0374
 7625TIP3    H244367   2.524   2.730   5.777 -0.1447  0.4330 -0.7460
 7626TIP3   OH244368   4.712   1.637   4.299  0.8191 -0.2751 -0.2294
 7626TIP3    H144369   4.802   1.663   4.280  0.5890  1.2584  0.5975
 7626TIP3    H244370   4.684   1.697   4.369 -0.0278 -2.3198  1.2842
 7627TIP3   OH244371   4.894   3.849   3.201 -0.0161 -1.0423  0.6067
 7627TIP3    H144372   4.803   3.866   3.224  0.3186  1.6854  0.2386
 7627TIP3    H244373   4.928   3.796   3.274 -1.1325  0.3980  2.2560
 7628TIP3   OH244374   0.002   3.566   0.924 -0.2965  0.4594 -0.0220
 7628TIP3    H144375   0.033   3.629   0.859 -0.0584  0.1429 -0.2200
 7628TIP3    H244376  -0.089   3.548   0.898 -0.3331  0.6428 -0.0236
 7629TIP3   OH244377   0.618   2.162   2.117  0.0647  0.5203  0.2216
 7629TIP3    H144378   0.594   2.215   2.041 -0.7109  2.1253  1.5217
 7629TIP3    H244379   0.536   2.150   2.165  0.4560 -0.8467  0.6033
 7630TIP3   OH244380   0.235   1.474   5.726 -0.2246 -0.2234 -0.0742
 7630TIP3    H144381   0.170   1.424   5.776 -0.4143  0.0249 -0.0708
 7630TIP3    H244382   0.235   1.433   5.640  0.9344 -1.3960  0.4453
 7631TIP3   OH244383   2.568   0.456   3.325 -0.2662 -0.3769 -0.7009
 7631TIP3    H144384   2.496   0.420   3.376 -1.0019  0.6180 -0.9988
 7631TIP3    H244385   2.551   0.428   3.235  0.9279 -1.9734 -0.4669
 7632TIP3   OH244386   0.843   6.376  15.651  0.3886 -0.0829  0.4828
 7632TIP3    H144387   0.778   6.395  15.719  0.3492 -0.5193  0.5687
 7632TIP3    H244388   0.895   6.456  15.644 -0.1830  0.2821  0.3870
 7633TIP3   OH244389   4.982   6.350  15.841 -0.4756  0.2136  0.1180
 7633TIP3    H144390   4.980   6.256  15.857  1.4684  0.2707  0.9851
 7633TIP3    H244391   4.917   6.386  15.901 -0.1676 -0.4573  0.8628
 7634TIP3   OH244392   3.845   0.724  12.827 -0.0383  0.1586 -0.4657
 7634TIP3    H144393   3.763   0.772  12.819  0.2577  1.1129  1.6842
 7634TIP3    H244394   3.820   0.632  12.827 -0.9394  0.3866 -1.2249
 7635TIP3   OH244395   6.624   4.496  11.287  0.2634 -0.6956 -0.1341
 7635TIP3    H144396   6.551   4.484  11.227 -0.0892 -2.3424  0.5809
 7635TIP3    H244397   6.590   4.471  11.373  1.8043 -2.0886  0.1130
 7636TIP3   OH244398   5.954   5.655   1.501  0.0391  0.4443 -0.4705
 7636TIP3    H144399   5.930   5.617   1.586 -0.3560 -0.6504 -1.0432
 7636TIP3    H244400   5.876   5.644   1.448  0.7842 -0.3540 -1.4468
 7637TIP3   OH244401   1.940   3.493  15.835 -0.8488 -0.1185  0.0603
 7637TIP3    H144402   1.890   3.537  15.903  0.4432  1.8565 -0.2093
 7637TIP3    H244403   1.886   3.500  15.757 -1.3498 -0.4443  0.3705
 7638TIP3   OH244404   2.614   4.538   2.196  0.4617  0.1287 -0.0744
 7638TIP3    H144405   2.678   4.519   2.127 -0.9968  0.3441 -1.5567
 7638TIP3    H244406   2.610   4.634   2.199 -0.0659  0.1161 -0.2791
 7639TIP3   OH244407   0.827   0.554   2.742  0.5800  0.1622  0.6466
 7639TIP3    H144408   0.763   0.596   2.685  0.4754  0.1947  0.7891
 7639TIP3    H244409   0.857   0.623   2.800  2.4285  0.7277 -0.8806
 7640TIP3   OH244410   1.002   2.665   0.068  0.2066 -0.4341  0.5444
 7640TIP3    H144411   0.916   2.687   0.104  0.2167 -0.4755  0.5929
 7640TIP3    H244412   0.991   2.674  -0.027  1.2486  3.7064  0.6245
 7641TIP3   OH244413   1.674   1.634  17.360  0.0800 -0.2175 -0.0323
 7641TIP3    H144414   1.618   1.607  17.287 -1.3545  2.7152 -0.1332
 7641TIP3    H244415   1.761   1.643  17.321 -0.6983  1.4842 -1.4981
 7642TIP3   OH244416   2.139   5.499  12.304  0.0113 -0.4215 -0.3246
 7642TIP3    H144417   2.151   5.428  12.368 -2.4871 -0.0340  0.7116
 7642TIP3    H244418   2.227   5.520  12.275  1.2378 -1.1273  2.4939
 7643TIP3   OH244419   5.827   6.197   1.643 -0.3716  0.5661 -1.0541
 7643TIP3    H144420   5.801   6.193   1.551 -0.6025 -0.4420 -0.9633
 7643TIP3    H244421   5.903   6.140   1.650 -1.9990 -1.6570 -0.1408
 7644TIP3   OH244422   1.082   3.984   2.274  0.5209  0.2826  0.1084
 7644TIP3    H144423   1.075   3.984   2.179  1.9519 -1.1763 -0.0302
 7644TIP3    H244424   0.997   3.951   2.304  0.4941 -0.4296 -0.7253
 7645TIP3   OH244425   2.697   4.240   1.606 -0.1599 -0.0204 -0.1623
 7645TIP3    H144426   2.708   4.255   1.700 -0.9564 -0.0991 -0.0579
 7645TIP3    H244427   2.603   4.227   1.594 -0.1654  0.7942 -1.0856
 7646TIP3   OH244428   2.090   3.091  17.092 -0.2905 -0.2169 -0.1566
 7646TIP3    H144429   2.182   3.067  17.079 -0.4976 -0.9962 -0.2051
 7646TIP3    H244430   2.092   3.185  17.109  0.6166 -0.3967  0.8448
 7647TIP3   OH244431   5.720   5.629   4.884  0.8069 -0.3256  0.0823
 7647TIP3    H144432   5.631   5.617   4.917  0.6819 -1.7336 -0.7069
 7647TIP3    H244433   5.707   5.661   4.795  1.0820 -0.7403 -0.1071
 7648TIP3   OH244434   3.297   1.287   3.182  0.3443 -0.2132 -0.2017
 7648TIP3    H144435   3.229   1.275   3.116 -1.2372 -0.3272  1.3778
 7648TIP3    H244436   3.338   1.201   3.191 -1.3000 -0.9240  0.8958
 7649TIP3   OH244437   4.028   0.819  11.281 -0.1944 -0.1075 -0.3462
 7649TIP3    H144438   4.080   0.744  11.253 -0.7018 -0.4243 -0.4555
 7649TIP3    H244439   4.062   0.842  11.367  1.5491  1.0279 -1.2919
 7650TIP3   OH244440   0.791   6.722   3.726  0.0550 -1.1120 -0.0412
 7650TIP3    H144441   0.786   6.699   3.634 -0.4101  0.5901 -0.4867
 7650TIP3    H244442   0.700   6.715   3.757  0.0832 -0.9460  0.0824
 7651TIP3   OH244443   0.984   2.630   0.468 -0.4196  0.9535  0.5781
 7651TIP3    H144444   0.896   2.660   0.444 -0.9474  1.6611  3.1587
 7651TIP3    H244445   0.994   2.547   0.422 -2.8872  0.3089  1.0675
 7652TIP3   OH244446   3.901   1.633  12.769 -0.0244 -0.6493 -0.2764
 7652TIP3    H144447   3.842   1.571  12.811 -0.1093 -0.6178 -0.3488
 7652TIP3    H244448   3.846   1.710  12.752 -0.0208 -0.7054 -0.5509
 7653TIP3   OH244449   5.824   6.739   1.236  0.4505  0.1206  0.2572
 7653TIP3    H144450   5.842   6.671   1.301  0.1081 -0.6958 -0.4827
 7653TIP3    H244451   5.869   6.817   1.269  0.5348 -0.3583  1.3085
 7654TIP3   OH244452   6.763   4.578   4.723 -0.4052 -0.2087  0.1320
 7654TIP3    H144453   6.684   4.623   4.754 -0.6742  0.2280 -1.1139
 7654TIP3    H244454   6.773   4.503   4.782 -0.9043  0.5467  1.2095
 7655TIP3   OH244455   3.839   0.836  15.575  0.1837 -0.2336  0.1978
 7655TIP3    H144456   3.768   0.897  15.554  0.7835  0.5654  0.4398
 7655TIP3    H244457   3.890   0.881  15.643 -1.4000 -2.5322  3.1184
 7656TIP3   OH244458   0.890   0.614  15.478 -0.1936 -0.1426  0.2312
 7656TIP3    H144459   0.810   0.576  15.443 -0.8421  1.4063 -0.0437
 7656TIP3    H244460   0.903   0.694  15.428  0.7878  0.3288  1.1968
 7657TIP3   OH244461   5.818   0.181  14.628  0.3864  0.1396  0.2159
 7657TIP3    H144462   5.870   0.131  14.565 -0.7857 -0.8564  0.0025
 7657TIP3    H244463   5.772   0.246  14.575  1.1732  0.8600  0.3763
 7658TIP3   OH244464   3.883   1.832  13.876 -0.4635 -0.3939 -0.0199
 7658TIP3    H144465   3.940   1.883  13.818 -1.3992 -0.3846 -0.9620
 7658TIP3    H244466   3.941   1.801  13.945  0.5859  0.0159 -0.6883
 7659TIP3   OH244467   4.761   4.304   4.556 -0.7420 -0.6804 -0.2903
 7659TIP3    H144468   4.827   4.329   4.621 -0.0835 -1.3627 -0.6759
 7659TIP3    H244469   4.682   4.288   4.608  0.0663 -2.3323  0.5407
 7660TIP3   OH244470   0.217   1.693   1.191 -0.3491 -0.4749 -0.0886
 7660TIP3    H144471   0.201   1.673   1.283 -0.6882  1.2937  0.2794
 7660TIP3    H244472   0.142   1.656   1.145  0.3913 -2.4029  0.1532
 7661TIP3   OH244473   4.567   3.081  15.802 -0.1623 -0.3294 -0.3023
 7661TIP3    H144474   4.552   3.135  15.725  1.6850  0.0405 -0.4434
 7661TIP3    H244475   4.590   3.143  15.871 -1.7383 -0.6610  0.5835
 7662TIP3   OH244476   5.403   5.889  13.908  1.0369  0.0655  0.0573
 7662TIP3    H144477   5.393   5.833  13.984  1.4650  0.8287  0.6918
 7662TIP3    H244478   5.347   5.965  13.926 -0.0113 -0.4174 -1.0619
 7663TIP3   OH244479   5.320   1.386   6.467  0.2708 -0.4347 -0.5248
 7663TIP3    H144480   5.336   1.328   6.541 -0.6210 -0.5031 -0.3726
 7663TIP3    H244481   5.407   1.412   6.438  0.6336 -0.3284  0.6062
 7664TIP3   OH244482   3.445   4.775   2.218  0.0634  0.5903  0.1527
 7664TIP3    H144483   3.377   4.712   2.197  0.2992 -0.1769  1.5921
 7664TIP3    H244484   3.479   4.803   2.133 -0.1700 -1.0753 -0.5270
 7665TIP3   OH244485   5.923   3.241   2.595 -0.1019 -0.1271  0.1992
 7665TIP3    H144486   5.998   3.289   2.560  0.3096  0.3765  1.7050
 7665TIP3    H244487   5.866   3.227   2.519  1.8633 -1.2434 -1.1625
 7666TIP3   OH244488   5.500   0.987  13.656 -0.1799 -0.2517 -0.3869
 7666TIP3    H144489   5.593   0.986  13.677 -0.2332  0.9608 -0.0354
 7666TIP3    H244490   5.491   1.057  13.591 -0.8983 -0.1005 -0.1314
 7667TIP3   OH244491   3.896   6.293   6.695 -0.1411 -0.1042  0.7580
 7667TIP3    H144492   3.922   6.385   6.703  3.6092 -1.0053  0.4995
 7667TIP3    H244493   3.938   6.262   6.616 -4.5029 -1.2675 -1.4384
 7668TIP3   OH244494   4.315   6.330   3.983 -0.1882  0.3166 -0.0566
 7668TIP3    H144495   4.356   6.385   4.050 -0.8442  0.1232  0.5156
 7668TIP3    H244496   4.314   6.385   3.904 -0.7500  1.0957  0.4787
 7669TIP3   OH244497   2.118   4.127   2.514 -0.3206  0.2091  0.1657
 7669TIP3    H144498   2.110   4.222   2.517  0.2807  0.2329  1.2144
 7669TIP3    H244499   2.118   4.099   2.605 -1.0000 -0.8515 -0.1324
 7670TIP3   OH244500   3.791   5.506  14.998  0.9253 -0.0407 -0.3257
 7670TIP3    H144501   3.812   5.537  15.086 -0.1143  0.0206 -0.0812
 7670TIP3    H244502   3.867   5.529  14.945  1.3661  0.3422  0.4545
 7671TIP3   OH244503   0.387   2.396   3.653  0.0346 -0.0530 -0.1658
 7671TIP3    H144504   0.460   2.358   3.701 -0.8156  0.2066  1.4150
 7671TIP3    H244505   0.420   2.480   3.619  0.8733 -0.5924 -0.7107
 7672TIP3   OH244506   6.154   5.356   3.651 -0.2393  0.1502  0.3883
 7672TIP3    H144507   6.210   5.278   3.650  1.6696  1.4265 -0.8005
 7672TIP3    H244508   6.115   5.357   3.738  1.0734 -1.2040  1.0345
 7673TIP3   OH244509   6.775   5.437   3.515 -0.6841  0.2752  0.1523
 7673TIP3    H144510   6.709   5.374   3.542 -0.7819  0.7654  1.0803
 7673TIP3    H244511   6.726   5.515   3.492 -0.4736  0.4558  0.3062
 7674TIP3   OH244512   0.405   2.360  16.585  0.6068 -0.0587 -0.3091
 7674TIP3    H144513   0.439   2.367  16.675 -0.1176  0.2339 -0.0541
 7674TIP3    H244514   0.450   2.284  16.549  0.8336 -0.2392  0.3351
 7675TIP3   OH244515   6.628   6.225   4.237 -0.2501  0.1553  0.1459
 7675TIP3    H144516   6.597   6.298   4.183  1.1843 -0.2964 -1.3744
 7675TIP3    H244517   6.710   6.198   4.196 -0.3352 -1.8086  1.1474
 7676TIP3   OH244518   0.280   1.320   5.496  0.1591 -0.0031 -0.1518
 7676TIP3    H144519   0.346   1.384   5.468  0.1696 -0.5558 -1.4651
 7676TIP3    H244520   0.222   1.311   5.420 -0.6775 -0.4972  0.5268
 7677TIP3   OH244521   0.502   4.294  16.592  0.6472  0.3372  0.1396
 7677TIP3    H144522   0.509   4.386  16.564  1.6800  0.1033 -0.4177
 7677TIP3    H244523   0.593   4.262  16.592  0.4346 -0.3208  1.5855
 7678TIP3   OH244524   6.287   1.297  12.119 -0.1379  0.2819 -0.0251
 7678TIP3    H144525   6.305   1.319  12.028 -0.7275  0.1164 -0.1881
 7678TIP3    H244526   6.242   1.373  12.154  0.4482  0.5088  0.2488
 7679TIP3   OH244527   3.229   1.480   5.198  0.2982 -0.1806  0.2670
 7679TIP3    H144528   3.273   1.432   5.269 -0.8575 -0.8598  0.5464
 7679TIP3    H244529   3.298   1.496   5.134  1.2408 -0.0720  1.2743
 7680TIP3   OH244530   6.129   1.805   1.524 -0.0682 -0.1600  0.1653
 7680TIP3    H144531   6.155   1.898   1.528  1.0032 -0.4887  1.6894
 7680TIP3    H244532   6.034   1.807   1.532 -0.0494  0.8065  0.3631
 7681TIP3   OH244533   2.401   2.976  17.130 -0.3446 -0.2739 -0.2920
 7681TIP3    H144534   2.473   3.037  17.147  0.6698 -1.4872 -0.0497
 7681TIP3    H244535   2.410   2.953  17.037  1.0633 -2.1652  0.2349
 7682TIP3   OH244536   1.269   2.434   3.307  0.4198 -0.6313 -0.0020
 7682TIP3    H144537   1.221   2.517   3.304  0.1495 -0.7152  1.3500
 7682TIP3    H244538   1.239   2.387   3.229  0.3861  0.4327 -0.6494
 7683TIP3   OH244539   2.516   0.879   4.576 -0.1368  0.3461 -0.5495
 7683TIP3    H144540   2.559   0.964   4.581  0.3796  0.1112 -0.9552
 7683TIP3    H244541   2.556   0.828   4.646  1.6044 -0.4704 -2.0690
 7684TIP3   OH244542   3.466   6.299   1.654 -0.0831 -0.3439  0.1304
 7684TIP3    H144543   3.458   6.219   1.602  0.6316 -0.4704  0.2089
 7684TIP3    H244544   3.421   6.278   1.736 -0.4433 -0.4476 -0.0904
 7685TIP3   OH244545   0.268   2.289  13.189 -0.1007 -0.6692 -0.1485
 7685TIP3    H144546   0.314   2.367  13.159  0.3760 -0.8090  0.2007
 7685TIP3    H244547   0.218   2.318  13.265 -0.3998 -0.5748 -0.3779
 7686TIP3   OH244548   6.546   1.076   0.340  0.3272 -0.1256 -0.1012
 7686TIP3    H144549   6.620   1.049   0.285  0.5635 -0.4459  0.3688
 7686TIP3    H244550   6.571   1.049   0.429 -1.5910 -2.8645 -0.2740
 7687TIP3   OH244551   0.119   5.789  11.042 -0.2424 -0.4381 -0.4324
 7687TIP3    H144552   0.026   5.779  11.062 -0.3652 -0.4952 -1.0054
 7687TIP3    H244553   0.128   5.881  11.017  0.4978  0.4851  2.8395
 7688TIP3   OH244554   4.924   1.737  14.991 -0.3104  0.2980  0.0604
 7688TIP3    H144555   4.983   1.662  14.988 -0.5292  0.1554 -1.3189
 7688TIP3    H244556   4.924   1.772  14.902 -2.1367  0.4061  0.0624
 7689TIP3   OH244557   1.972   6.756   2.803 -0.7302 -0.7121 -0.3898
 7689TIP3    H144558   1.900   6.730   2.860 -1.4804  1.2273 -0.3614
 7689TIP3    H244559   1.984   6.849   2.822  2.3463 -1.1165  0.2096
 7690TIP3   OH244560   3.911   4.073   3.734  0.1139 -0.4462 -0.0226
 7690TIP3    H144561   3.838   4.113   3.781  1.6026  0.6650  1.4390
 7690TIP3    H244562   3.905   4.109   3.645 -0.9504 -0.1727  0.1485
 7691TIP3   OH244563   6.416   0.835   1.161 -0.0630  0.1684  0.6470
 7691TIP3    H144564   6.504   0.845   1.198 -0.0889 -2.2335  1.5308
 7691TIP3    H244565   6.385   0.925   1.151  1.6089  1.0496  2.4668
 7692TIP3   OH244566   0.934   6.045   0.242  0.3647 -0.0524  0.3735
 7692TIP3    H144567   1.000   6.006   0.184  1.0071 -1.0615  1.7200
 7692TIP3    H244568   0.903   6.122   0.195  2.2265  0.2328 -0.4759
 7693TIP3   OH244569   4.364   6.392   5.776 -0.3506 -0.3796  0.5133
 7693TIP3    H144570   4.387   6.344   5.855  0.8418  0.3805  0.6506
 7693TIP3    H244571   4.390   6.335   5.703  1.4017  0.1522  0.6704
 7694TIP3   OH244572   6.159   5.065   4.277  0.0560 -0.1186  0.2565
 7694TIP3    H144573   6.231   5.049   4.216  0.6023 -1.4490  1.2155
 7694TIP3    H244574   6.159   4.989   4.335  0.1543  1.5435  2.5264
 7695TIP3   OH244575   0.735   2.408   4.841 -0.3800 -0.1493 -0.0422
 7695TIP3    H144576   0.716   2.406   4.747  1.0528  1.0787 -0.4031
 7695TIP3    H244577   0.763   2.498   4.858 -1.2565 -0.1700  1.7146
 7696TIP3   OH244578   2.699   5.261  13.154 -0.0646 -0.0051  0.2472
 7696TIP3    H144579   2.626   5.209  13.189 -0.7049  0.3419 -0.5277
 7696TIP3    H244580   2.746   5.291  13.231 -0.9645  0.0714  0.7852
 7697TIP3   OH244581   6.040   4.048  12.555 -0.1172 -0.1616  0.3594
 7697TIP3    H144582   6.051   3.971  12.499 -0.6029 -0.9894  1.3669
 7697TIP3    H244583   6.047   4.014  12.644 -1.4705  0.7574  0.8525
 7698TIP3   OH244584   3.327   5.611  14.951 -0.0567  0.4993 -0.1074
 7698TIP3    H144585   3.329   5.594  15.045 -0.7445 -2.6780 -0.5782
 7698TIP3    H244586   3.310   5.526  14.911 -1.3899  2.0105 -3.0655
 7699TIP3   OH244587   0.341   5.696  17.242  0.8894  0.2008 -0.3007
 7699TIP3    H144588   0.293   5.614  17.257  0.8120  0.6449  2.4072
 7699TIP3    H244589   0.433   5.672  17.256  0.9389  0.4072 -0.2751
 7700TIP3   OH244590   1.674   1.518   2.364  0.6719 -0.2519  0.6900
 7700TIP3    H144591   1.672   1.560   2.278 -1.4979  0.4635  1.0320
 7700TIP3    H244592   1.756   1.469   2.365  1.2920  0.6565 -1.3327
 7701TIP3   OH244593   1.342   6.142  15.090 -0.5532  0.2046  0.1719
 7701TIP3    H144594   1.359   6.051  15.062 -0.4197 -0.0928  1.2029
 7701TIP3    H244595   1.425   6.170  15.130 -0.6258  0.7552 -0.0575
 7702TIP3   OH244596   4.396   2.224   1.200  0.3080 -0.3069 -0.3427
 7702TIP3    H144597   4.348   2.306   1.187 -1.5494 -0.4244  3.9650
 7702TIP3    H244598   4.486   2.252   1.216  0.0964  0.6995 -0.8537
 7703TIP3   OH244599   2.300   4.029  16.804  0.3082 -0.0627  0.3640
 7703TIP3    H144600   2.286   4.119  16.774 -1.7361 -0.7548 -0.9711
 7703TIP3    H244601   2.290   3.976  16.725  0.1169 -1.5621  1.3600
 7704TIP3   OH244602   3.027   6.394   2.941 -0.4762  0.0989 -0.3049
 7704TIP3    H144603   3.121   6.389   2.926 -0.3436  0.2093  0.4541
 7704TIP3    H244604   2.991   6.318   2.896  0.2987 -1.5922  1.7774
 7705TIP3   OH244605   3.308   3.228  15.412 -0.0467 -0.0684  0.1070
 7705TIP3    H144606   3.305   3.322  15.398 -1.7675 -0.1690 -0.3692
 7705TIP3    H244607   3.261   3.190  15.338  0.3910 -1.2946  0.4239
 7706TIP3   OH244608   5.720   0.713   0.335 -0.5891 -0.2826  0.2844
 7706TIP3    H144609   5.788   0.670   0.285 -0.7546 -1.4390  1.0107
 7706TIP3    H244610   5.734   0.684   0.425 -1.0598  0.7460  0.7148
 7707TIP3   OH244611   4.004   3.966   5.368  0.2686 -0.2975  0.4261
 7707TIP3    H144612   4.078   3.909   5.389 -0.0676 -0.6284  0.7271
 7707TIP3    H244613   3.955   3.973   5.450  1.2025  1.7813  0.8744
 7708TIP3   OH244614   2.658   2.189   4.604  0.0787  0.1079  0.2069
 7708TIP3    H144615   2.613   2.237   4.535 -1.8678  1.5795  2.3562
 7708TIP3    H244616   2.632   2.097   4.591  0.3914  0.2224 -1.4207
 7709TIP3   OH244617   1.495   6.308  15.408  0.1717 -0.5470 -0.1631
 7709TIP3    H144618   1.569   6.276  15.357  1.0833  1.0098  0.1039
 7709TIP3    H244619   1.479   6.238  15.472  1.7431 -0.7339  0.0899
 7710TIP3   OH244620   0.946   0.403   3.375 -0.1157 -0.1529  0.3390
 7710TIP3    H144621   0.930   0.332   3.313 -0.4292 -0.8280  1.1701
 7710TIP3    H244622   0.901   0.376   3.455 -0.1070  0.9107  0.7237
 7711TIP3   OH244623   0.211   0.198  13.021 -0.1168  0.1760  0.3149
 7711TIP3    H144624   0.251   0.111  13.028 -1.5400 -0.4333  1.3679
 7711TIP3    H244625   0.142   0.187  12.955 -1.0669  0.1706  1.2804
 7712TIP3   OH244626   1.908   0.922   2.959  0.2907 -0.1208  0.2326
 7712TIP3    H144627   1.868   1.004   2.929 -1.0183 -0.4774  0.9220
 7712TIP3    H244628   1.926   0.937   3.052 -0.6735 -0.8482  0.5554
 7713TIP3   OH244629   3.710   0.577  11.876  0.0975  0.2021 -0.1280
 7713TIP3    H144630   3.670   0.612  11.956  0.5853 -0.5462  0.4530
 7713TIP3    H244631   3.765   0.505  11.906 -0.7517 -0.9686 -1.2701
 7714TIP3   OH244632   1.980   3.362   5.905 -0.2835 -0.4838 -0.2656
 7714TIP3    H144633   1.996   3.445   5.860  0.2953 -1.1395 -1.2984
 7714TIP3    H244634   1.923   3.385   5.978 -0.6302  0.7291 -0.8957
 7715TIP3   OH244635   4.607   5.073  13.399 -0.4375  0.5360 -0.3298
 7715TIP3    H144636   4.552   5.151  13.405 -1.7288 -0.2596 -1.2219
 7715TIP3    H244637   4.591   5.026  13.481  0.3252  1.1954  0.1970
 7716TIP3   OH244638   4.456   4.150   0.867  0.6602  0.8965  0.2441
 7716TIP3    H144639   4.430   4.215   0.932 -0.6791  0.3359  0.3101
 7716TIP3    H244640   4.376   4.134   0.816  0.7719 -1.0979  0.5955
 7717TIP3   OH244641   4.278   5.696  14.903  0.3944 -0.0842 -0.1139
 7717TIP3    H144642   4.272   5.696  14.999 -0.8683 -0.8197 -0.1627
 7717TIP3    H244643   4.282   5.788  14.879  1.0196  0.1047  0.6540
 7718TIP3   OH244644   4.606   2.502  14.826 -0.0507 -0.1460 -0.5124
 7718TIP3    H144645   4.700   2.490  14.809 -0.2609 -0.1204 -1.7787
 7718TIP3    H244646   4.585   2.436  14.892  0.8979  0.0060 -0.0365
 7719TIP3   OH244647   2.219   0.095  15.654  0.0852 -0.2130  0.4029
 7719TIP3    H144648   2.148   0.154  15.627 -0.4634 -0.6855  0.7992
 7719TIP3    H244649   2.207   0.017  15.600 -0.7576 -0.9907  1.6462
 7720TIP3   OH244650   3.585   3.043   3.303  0.0237 -0.3972 -0.0887
 7720TIP3    H144651   3.649   3.031   3.234  0.5702 -1.0268  0.5088
 7720TIP3    H244652   3.611   3.123   3.347  0.2215 -0.4906 -0.0362
 7721TIP3   OH244653   3.982   5.740  17.287  0.1537  0.1027 -0.0077
 7721TIP3    H144654   4.054   5.790  17.249  0.6202 -1.4120 -1.1984
 7721TIP3    H244655   3.965   5.670  17.225 -1.0025 -0.7749  1.2283
 7722TIP3   OH244656   4.594   2.095  12.938  0.1706 -0.3554  0.1223
 7722TIP3    H144657   4.550   2.026  12.987 -0.7628 -0.3980 -0.7433
 7722TIP3    H244658   4.581   2.071  12.846  2.2358 -0.5021 -0.1840
 7723TIP3   OH244659   5.831   3.142   4.248  0.0119  0.4421  0.0009
 7723TIP3    H144660   5.788   3.086   4.313 -0.4053  0.3057 -0.3850
 7723TIP3    H244661   5.917   3.104   4.236  0.5250  1.1162  1.3016
 7724TIP3   OH244662   1.969   5.557   4.484 -0.0830 -0.3576  0.1215
 7724TIP3    H144663   2.032   5.486   4.494 -0.4605 -0.9370 -1.3091
 7724TIP3    H244664   1.900   5.538   4.548 -0.1705 -1.2744 -0.2296
 7725TIP3   OH244665   5.978   1.236   3.975  0.4665  0.9770  0.1932
 7725TIP3    H144666   5.986   1.146   3.943 -2.5784  0.9395 -0.7359
 7725TIP3    H244667   6.000   1.290   3.898  0.3068  0.9992  0.1634
 7726TIP3   OH244668   2.412   0.673   5.482 -0.0002 -0.5486  1.0488
 7726TIP3    H144669   2.415   0.623   5.564 -1.8020 -0.2426  1.3506
 7726TIP3    H244670   2.404   0.607   5.414  0.2617 -0.7556  1.2153
 7727TIP3   OH244671   2.405   2.471  11.828  0.2378  0.4033  0.1236
 7727TIP3    H144672   2.453   2.533  11.772  1.0904 -0.5620 -0.2522
 7727TIP3    H244673   2.412   2.387  11.782  1.6608 -0.5958  2.0363
 7728TIP3   OH244674   0.519   6.553  14.541 -0.1472  0.1862 -0.0147
 7728TIP3    H144675   0.529   6.500  14.462 -2.3825 -2.2598  1.1830
 7728TIP3    H244676   0.426   6.576  14.544  0.0164  0.7904  1.5331
 7729TIP3   OH244677   0.006   0.415  17.060 -0.4776  0.6162 -1.3725
 7729TIP3    H144678  -0.031   0.375  16.981  2.7953 -0.5894 -2.4780
 7729TIP3    H244679   0.099   0.428  17.039 -0.1630  3.5172  1.0910
 7730TIP3   OH244680   3.771   1.057   0.780  0.0603 -0.9335 -0.1955
 7730TIP3    H144681   3.779   1.093   0.868 -1.9313 -2.1664  0.5435
 7730TIP3    H244682   3.754   1.133   0.724  0.9656 -0.1879  0.5214
 7731TIP3   OH244683   2.491   4.733  15.725 -0.5585  0.3703 -0.0538
 7731TIP3    H144684   2.562   4.759  15.666  0.9865 -3.1713  0.0149
 7731TIP3    H244685   2.412   4.743  15.672  0.0330  3.0614 -0.6025
 7732TIP3   OH244686   5.713   3.729  12.162 -0.5423  0.5854 -0.4220
 7732TIP3    H144687   5.679   3.657  12.109  0.5463 -0.6017  0.4450
 7732TIP3    H244688   5.766   3.780  12.101 -0.9854  0.4358 -0.9462
 7733TIP3   OH244689   1.969   3.279   0.176  0.2912 -0.0874 -0.1673
 7733TIP3    H144690   1.976   3.188   0.205  2.6304 -0.5144 -1.8632
 7733TIP3    H244691   1.875   3.297   0.177 -0.3390 -2.8876 -0.8752
 7734TIP3   OH244692   0.146   3.059  12.446 -0.4359 -0.3811  0.4368
 7734TIP3    H144693   0.104   3.032  12.364  1.1624  1.2130 -1.0034
 7734TIP3    H244694   0.231   3.014  12.445 -1.0703 -1.7043  2.1195
 7735TIP3   OH244695   4.030   3.617   5.911 -0.1663 -0.0603 -0.1418
 7735TIP3    H144696   4.075   3.618   5.995  0.7174  1.5451 -0.5848
 7735TIP3    H244697   4.036   3.527   5.881 -0.2377 -0.5929  1.3711
 7736TIP3   OH244698   4.581   2.583  12.936 -0.0334 -0.6193  0.0420
 7736TIP3    H144699   4.644   2.517  12.908  1.5507 -0.1075  2.1270
 7736TIP3    H244700   4.513   2.581  12.869  1.5152 -2.1422 -1.6051
 7737TIP3   OH244701   0.842   0.431   3.655  0.5693  0.0361 -0.2028
 7737TIP3    H144702   0.807   0.343   3.643  0.4758 -0.1537  1.2257
 7737TIP3    H244703   0.827   0.450   3.748 -0.5223  2.0456 -0.7359
 7738TIP3   OH244704   3.103   4.123  15.299  0.0725  0.5223 -0.4261
 7738TIP3    H144705   3.119   4.195  15.238 -1.0548 -0.2850 -1.7489
 7738TIP3    H244706   3.103   4.164  15.386 -2.8781  2.5996 -1.2466
 7739TIP3   OH244707   1.122   6.424   5.361 -0.3594  0.4391 -0.4583
 7739TIP3    H144708   1.130   6.440   5.267  0.6392  0.0745 -0.4449
 7739TIP3    H244709   1.028   6.431   5.379 -0.6570 -0.3827 -1.6353
 7740TIP3   OH244710   3.752   3.924  14.398  0.7899 -0.4751  0.4483
 7740TIP3    H144711   3.782   3.869  14.326  0.8014 -1.0771  0.9025
 7740TIP3    H244712   3.671   3.964  14.366  1.5403  0.3919 -0.4205
 7741TIP3   OH244713   5.359   5.231   4.018  0.1707 -1.0455  0.4170
 7741TIP3    H144714   5.359   5.261   3.927 -0.6196  0.4071  0.8681
 7741TIP3    H244715   5.428   5.165   4.021  1.0707 -0.2209 -0.9440
 7742TIP3   OH244716   1.365   6.182   0.878 -0.1655 -0.4576  0.3317
 7742TIP3    H144717   1.388   6.108   0.821  1.0656  0.1675 -0.0147
 7742TIP3    H244718   1.288   6.152   0.925 -0.5491 -1.4227 -0.8441
 7743TIP3   OH244719   3.828   0.696   3.010  0.0905  0.3486  0.3196
 7743TIP3    H144720   3.834   0.645   3.091 -1.0792 -0.7614 -0.2554
 7743TIP3    H244721   3.879   0.646   2.947  1.2307  1.3582  0.4246
 7744TIP3   OH244722   1.394   6.240  10.417 -0.4657  0.0994 -0.2178
 7744TIP3    H144723   1.455   6.308  10.388 -0.2965  1.0030  2.0062
 7744TIP3    H244724   1.310   6.265  10.379  0.4389 -1.1821 -3.3531
 7745TIP3   OH244725   5.007   2.650  16.357 -0.3393 -0.0265 -0.0553
 7745TIP3    H144726   5.020   2.574  16.415 -0.2892 -0.0038 -0.0386
 7745TIP3    H244727   4.978   2.611  16.274 -2.9175  0.0572  0.7147
 7746TIP3   OH244728   4.764   3.796   5.145 -0.8070  0.3302  0.0655
 7746TIP3    H144729   4.854   3.803   5.176 -0.5712 -1.0697 -0.2686
 7746TIP3    H244730   4.713   3.775   5.223 -0.7216  0.2838  0.1084
 7747TIP3   OH244731   5.153   1.752  11.080 -0.6598 -0.3750  0.4827
 7747TIP3    H144732   5.133   1.828  11.026  0.0067  0.5150  1.4424
 7747TIP3    H244733   5.070   1.705  11.088 -0.8732 -0.2903 -0.9137
 7748TIP3   OH244734   1.537   0.829   1.661  0.1575  0.1262  0.1768
 7748TIP3    H144735   1.565   0.843   1.571  3.4219 -2.3490  0.6191
 7748TIP3    H244736   1.452   0.784   1.652 -0.8349  2.1698 -1.4929
 7749TIP3   OH244737   0.819   5.124   2.134  0.4447 -0.0148  0.7442
 7749TIP3    H144738   0.874   5.057   2.174  0.9342  0.3927  0.7662
 7749TIP3    H244739   0.881   5.189   2.100  0.1129 -0.7354 -1.4210
 7750TIP3   OH244740   3.124   5.029  14.970  0.0500  0.2279 -0.4216
 7750TIP3    H144741   3.131   4.943  14.929 -0.2663  0.0116 -0.0314
 7750TIP3    H244742   3.201   5.077  14.940 -0.3259  0.1752 -1.5026
 7751TIP3   OH244743   0.858   3.263  11.417 -0.0738 -0.0030 -0.5054
 7751TIP3    H144744   0.894   3.221  11.338 -0.2152 -0.5008 -0.3101
 7751TIP3    H244745   0.924   3.328  11.441  0.0683  0.0113 -0.9170
 7752TIP3   OH244746   3.674   1.041  17.001 -0.1414  0.6645 -0.1099
 7752TIP3    H144747   3.648   0.966  17.054  0.2420  0.3392 -0.3789
 7752TIP3    H244748   3.663   1.116  17.060 -0.7308  0.4264  0.0898
 7753TIP3   OH244749   3.566   2.177   1.672  0.8509 -0.1093 -0.3396
 7753TIP3    H144750   3.591   2.253   1.619  0.2714  0.4891  0.2253
 7753TIP3    H244751   3.471   2.175   1.668  0.8045 -0.1328  0.5536
 7754TIP3   OH244752   6.077   0.014  11.969  0.1398 -0.3371 -0.0937
 7754TIP3    H144753   6.125  -0.065  11.943 -0.9208 -0.2379 -2.6385
 7754TIP3    H244754   5.991  -0.017  11.996 -0.5553 -0.0310 -1.8720
 7755TIP3   OH244755   0.061   2.260   1.039  0.1411  0.2405  0.3117
 7755TIP3    H144756   0.122   2.327   1.069 -0.2656  0.5753  0.4024
 7755TIP3    H244757   0.040   2.285   0.949  1.9875 -1.2113 -0.5877
 7756TIP3   OH244758   4.636   0.924  17.094 -0.0696 -0.3308 -0.1656
 7756TIP3    H144759   4.581   0.858  17.051 -2.0211  0.7924  0.4871
 7756TIP3    H244760   4.581   1.002  17.098  0.6776  0.1621  2.6336
 7757TIP3   OH244761   5.567   2.590  13.666 -1.0411 -0.4282 -0.2301
 7757TIP3    H144762   5.592   2.563  13.578 -1.6568  0.0194 -0.5503
 7757TIP3    H244763   5.617   2.670  13.682  1.3497 -2.0598  1.0042
 7758TIP3   OH244764   0.811   2.453  16.055 -0.0959  0.3207  0.2449
 7758TIP3    H144765   0.750   2.513  16.099  0.2155  1.5974 -0.9746
 7758TIP3    H244766   0.822   2.380  16.116 -1.5369  0.8690  1.2064
 7759TIP3   OH244767   6.239   6.699   1.082  0.0009 -0.4721  0.2126
 7759TIP3    H144768   6.209   6.629   1.024  0.1592 -1.0286  0.7923
 7759TIP3    H244769   6.334   6.690   1.083 -0.0331 -0.8298  1.0018
 7760TIP3   OH244770   0.446   2.162   6.292 -0.2281 -0.2237  0.4288
 7760TIP3    H144771   0.510   2.094   6.310  0.0388 -0.9429 -2.7020
 7760TIP3    H244772   0.362   2.124   6.319 -0.0533 -1.7991 -1.0558
 7761TIP3   OH244773   3.646   2.349  15.942 -0.2230 -0.1289 -0.1430
 7761TIP3    H144774   3.727   2.379  15.983 -0.8027  1.0078  0.2091
 7761TIP3    H244775   3.587   2.424  15.947 -1.4355 -1.0505 -0.0426
 7762TIP3   OH244776   0.902   6.507   4.506  0.4867 -0.1505  0.0810
 7762TIP3    H144777   0.882   6.498   4.599 -0.1934  0.3250 -0.0117
 7762TIP3    H244778   0.843   6.576   4.476  1.4378  0.4353 -0.4781
 7763TIP3   OH244779   1.010   4.744  16.839 -0.0023  0.4451 -0.1804
 7763TIP3    H144780   1.034   4.797  16.763  1.0202  1.5735  0.8850
 7763TIP3    H244781   1.094   4.723  16.881 -0.5496 -0.1109  0.6638
 7764TIP3   OH244782   0.558   3.432   2.336 -0.2825  0.4898 -0.0917
 7764TIP3    H144783   0.469   3.433   2.301 -0.2967 -1.2430 -0.2192
 7764TIP3    H244784   0.614   3.440   2.260 -0.3148  1.3792 -0.0311
 7765TIP3   OH244785   1.643   6.211   3.248  0.1900 -0.5585  0.6873
 7765TIP3    H144786   1.727   6.177   3.216  0.5267  0.6352  0.2582
 7765TIP3    H244787   1.653   6.212   3.343  0.8058 -0.0814  0.6241
 7766TIP3   OH244788   1.282   6.382  12.950 -0.5168 -0.1441 -0.3930
 7766TIP3    H144789   1.201   6.369  12.901 -0.0450  1.4074 -1.6531
 7766TIP3    H244790   1.295   6.477  12.950 -0.1241 -0.1143  2.1841
 7767TIP3   OH244791   5.508   4.490  15.997 -0.2476 -0.0873 -0.0662
 7767TIP3    H144792   5.414   4.484  15.983 -0.1966  0.1191 -0.5256
 7767TIP3    H244793   5.543   4.409  15.958 -0.1340  0.3506 -0.9044
 7768TIP3   OH244794   4.192   3.642   6.141  0.6058 -0.3804 -0.5370
 7768TIP3    H144795   4.235   3.567   6.180  2.0585  1.1966  1.0892
 7768TIP3    H244796   4.184   3.705   6.213  0.0106  1.2601 -1.9627
 7769TIP3   OH244797   5.987   6.772  16.528 -0.4290  0.1114  0.2349
 7769TIP3    H144798   5.957   6.710  16.461 -0.8371  1.2536 -0.6622
 7769TIP3    H244799   5.908   6.794  16.578 -1.0998  2.6797 -1.7704
 7770TIP3   OH244800   1.916   5.972   6.501  0.1113 -0.5828  0.0316
 7770TIP3    H144801   1.827   5.938   6.495 -0.2996 -0.0856  2.1754
 7770TIP3    H244802   1.905   6.066   6.515  1.0385 -0.3037 -0.9785
 7771TIP3   OH244803   2.287   3.420  13.179  0.4704  0.2653 -0.1848
 7771TIP3    H144804   2.363   3.369  13.207  0.7958  0.2821 -1.0354
 7771TIP3    H244805   2.240   3.363  13.118  1.4079  1.3582 -1.9729
 7772TIP3   OH244806   1.870   4.726  11.959 -0.5948 -0.1892  0.2760
 7772TIP3    H144807   1.858   4.711  12.053  0.6613 -0.6074  0.3957
 7772TIP3    H244808   1.843   4.817  11.945 -0.9079 -0.1631  1.0150
 7773TIP3   OH244809   5.050   3.055   5.039  0.6448  0.3341  0.8769
 7773TIP3    H144810   5.118   3.121   5.033  1.6027 -0.5638  1.4609
 7773TIP3    H244811   4.986   3.092   5.100  0.9852  0.8691  0.9157
 7774TIP3   OH244812   1.596   3.681  13.419  0.2637  0.7344  0.6952
 7774TIP3    H144813   1.628   3.658  13.506  1.6143  0.8413  0.2392
 7774TIP3    H244814   1.555   3.601  13.387  1.0051  0.2756  0.8792
 7775TIP3   OH244815   6.133   2.672  16.991 -0.6181 -0.7176 -0.3621
 7775TIP3    H144816   6.159   2.590  17.034  1.1125  0.9610  2.1028
 7775TIP3    H244817   6.206   2.693  16.933  0.2115  0.2819  0.9675
 7776TIP3   OH244818   5.995   1.204  15.097 -0.1243  0.4275  0.5762
 7776TIP3    H144819   5.974   1.133  15.037  2.1763 -0.8828  1.1959
 7776TIP3    H244820   5.988   1.283  15.044 -0.7984 -0.4354 -0.6731
 7777TIP3   OH244821   1.661   2.099  17.084  0.0838  0.4805  0.0466
 7777TIP3    H144822   1.636   2.085  16.993 -2.2928 -1.3162  0.8814
 7777TIP3    H244823   1.608   2.173  17.113 -0.7343 -0.2855  0.5280
 7778TIP3   OH244824   1.493   1.820  16.505 -0.1546 -0.5595 -0.2011
 7778TIP3    H144825   1.522   1.909  16.486  0.5040 -0.6804  0.1773
 7778TIP3    H244826   1.398   1.824  16.502 -0.1180 -0.2401 -1.9245
 7779TIP3   OH244827   5.604   0.345  17.131 -0.0264  0.2639 -0.1902
 7779TIP3    H144828   5.632   0.426  17.089  0.0079  0.0224 -0.6468
 7779TIP3    H244829   5.509   0.343  17.117  0.1138 -0.3212 -1.1898
 7780TIP3   OH244830   1.638   0.903   3.101 -0.2247 -0.0288 -0.3925
 7780TIP3    H144831   1.577   0.831   3.086 -0.2182 -0.2591  0.5926
 7780TIP3    H244832   1.626   0.961   3.026  0.4310 -1.4964 -1.6789
 7781TIP3   OH244833   3.422   3.108  16.715  0.1517 -0.0286 -0.1681
 7781TIP3    H144834   3.442   3.116  16.808 -0.9239  0.1039  0.0627
 7781TIP3    H244835   3.504   3.131  16.671  1.7008 -3.1132  0.7475
 7782TIP3   OH244836   1.702   5.664  15.431 -0.2330 -0.1272  0.0910
 7782TIP3    H144837   1.721   5.717  15.509  2.2522 -0.6660 -0.0643
 7782TIP3    H244838   1.699   5.574  15.463  0.1937 -0.2964 -0.3350
 7783TIP3   OH244839   2.832   4.740  12.639  0.1509 -0.2357 -0.1676
 7783TIP3    H144840   2.912   4.688  12.631  1.0331  0.8657  0.9550
 7783TIP3    H244841   2.820   4.748  12.734  1.1114  3.0847 -0.2220
 7784TIP3   OH244842   1.474   4.452  17.387 -0.0665  0.0829 -0.1852
 7784TIP3    H144843   1.430   4.429  17.469  2.3011 -1.0748  0.8841
 7784TIP3    H244844   1.538   4.519  17.413  1.5013 -1.1084 -0.8010
 7785TIP3   OH244845   4.103   4.162   5.653  0.8659  0.1025 -0.5765
 7785TIP3    H144846   4.149   4.227   5.706 -0.2129  0.0566  0.4552
 7785TIP3    H244847   4.099   4.200   5.566  1.0049  1.0399 -0.1836
 7786TIP3   OH244848   5.891   5.900  15.669  0.3574  0.0024 -0.2955
 7786TIP3    H144849   5.801   5.914  15.639  0.1210  0.1718  0.4699
 7786TIP3    H244850   5.914   5.814  15.634  0.1090  0.2112 -0.9873
 7787TIP3   OH244851   1.869   1.510   2.640 -0.2573  0.6509 -0.6896
 7787TIP3    H144852   1.930   1.518   2.567 -0.6305  1.3879 -0.9207
 7787TIP3    H244853   1.828   1.424   2.627  0.3747  0.3586 -0.7976
 7788TIP3   OH244854   6.610   5.093  14.482  0.1243 -0.3206  0.3086
 7788TIP3    H144855   6.647   5.102  14.394 -1.0007  1.5365 -0.0525
 7788TIP3    H244856   6.685   5.100  14.541  0.9663 -2.1240 -0.4729
 7789TIP3   OH244857   5.924   5.138   1.492 -0.5739 -0.1684  0.1032
 7789TIP3    H144858   5.843   5.135   1.441 -0.1411  0.4958 -0.6553
 7789TIP3    H244859   5.924   5.057   1.542 -2.3661  0.4107  1.1522
 7790TIP3   OH244860   3.017   4.139   3.425  0.5221 -0.4002  0.1608
 7790TIP3    H144861   3.012   4.047   3.450 -0.3034 -0.1513  0.9446
 7790TIP3    H244862   2.927   4.171   3.432  0.4454 -0.0125 -2.0101
 7791TIP3   OH244863   3.160   0.610  11.153 -0.1582 -0.0411 -0.1757
 7791TIP3    H144864   3.228   0.556  11.193 -0.7488 -1.3668 -0.8884
 7791TIP3    H244865   3.198   0.639  11.070 -0.0290  0.2117 -0.0288
 7792TIP3   OH244866   1.985   2.850  17.300  0.1024  0.0793 -0.5429
 7792TIP3    H144867   2.073   2.814  17.292 -0.2954 -0.7461 -1.3980
 7792TIP3    H244868   1.992   2.938  17.262  1.1252  1.0762  1.7645
 7793TIP3   OH244869   2.335   3.699   3.591  0.2278  0.4574 -0.6532
 7793TIP3    H144870   2.424   3.730   3.606 -0.4602  3.8661 -2.6367
 7793TIP3    H244871   2.280   3.758   3.643 -0.9815 -0.1037 -1.2542
 7794TIP3   OH244872   4.937   4.541   3.026  0.4753 -0.0896 -0.1420
 7794TIP3    H144873   4.959   4.450   3.005  1.7182  0.0578  0.3918
 7794TIP3    H244874   4.860   4.560   2.973  1.2573 -0.8976 -1.6359
 7795TIP3   OH244875   1.770   2.060   4.588 -0.6250 -0.0607 -0.4432
 7795TIP3    H144876   1.829   2.130   4.558 -0.1101 -0.5068 -0.4836
 7795TIP3    H244877   1.787   2.054   4.682 -1.6879  0.8146 -0.1641
 7796TIP3   OH244878   6.699   6.038  12.546 -0.9873  0.3674  0.1299
 7796TIP3    H144879   6.713   5.944  12.541 -0.8326  0.4157 -0.3830
 7796TIP3    H244880   6.618   6.052  12.497  1.3667  1.0431 -4.0135
 7797TIP3   OH244881   1.379   1.099  11.950 -0.4034  0.5235 -0.1102
 7797TIP3    H144882   1.289   1.123  11.971 -0.1647  1.4856 -0.1141
 7797TIP3    H244883   1.398   1.149  11.870  0.5811  1.4322  0.6685
 7798TIP3   OH244884   6.342   3.422  14.737  0.0118  0.1294 -0.4353
 7798TIP3    H144885   6.375   3.503  14.697 -0.3999  1.5554  1.9102
 7798TIP3    H244886   6.411   3.395  14.797 -0.5567 -0.3251  0.0217
 7799TIP3   OH244887   3.956   3.231  13.202  0.2841 -0.5404  0.0183
 7799TIP3    H144888   3.920   3.196  13.120  3.0272 -0.9039 -1.1304
 7799TIP3    H244889   3.986   3.154  13.250  1.4785 -0.1423 -0.0650
 7800TIP3   OH244890   1.462   5.053   1.490  0.2310 -0.4939 -0.2391
 7800TIP3    H144891   1.551   5.082   1.470  0.6300 -1.5916 -0.1291
 7800TIP3    H244892   1.445   4.983   1.428 -1.5837  1.4201 -2.0217
 7801TIP3   OH244893   2.226   6.114  15.535 -0.6037  0.1149  0.4348
 7801TIP3    H144894   2.293   6.072  15.588 -2.1769 -0.5645  1.9871
 7801TIP3    H244895   2.265   6.122  15.448  0.7265 -2.1678  0.7480
 7802TIP3   OH244896   3.870   4.012   5.616  0.5221  0.1066 -0.4306
 7802TIP3    H144897   3.936   4.080   5.631 -1.2156  1.3672  2.2813
 7802TIP3    H244898   3.798   4.058   5.572 -1.4553  0.7523  3.0560
 7803TIP3   OH244899   0.732   2.064  13.096  0.3103  0.0553 -0.5179
 7803TIP3    H144900   0.698   2.100  13.014 -1.1805  0.0553  0.0738
 7803TIP3    H244901   0.791   1.994  13.069 -0.7366 -0.4389 -1.5977
 7804TIP3   OH244902   2.272   5.671   0.020  0.0164  0.4401 -0.2078
 7804TIP3    H144903   2.297   5.745  -0.035 -0.8745  0.8500 -0.0818
 7804TIP3    H244904   2.271   5.706   0.109 -2.3892  0.8620 -0.3419
 7805TIP3   OH244905   5.527   1.774  13.794  0.6724  0.5858  0.2228
 7805TIP3    H144906   5.501   1.701  13.850 -1.1124  1.2419  0.3309
 7805TIP3    H244907   5.445   1.821  13.777  1.2633  0.7826 -2.4261
 7806TIP3   OH244908   2.640   3.438   3.189  0.1399  0.0045  0.2238
 7806TIP3    H144909   2.559   3.441   3.239 -0.3311  2.5241 -0.5194
 7806TIP3    H244910   2.691   3.369   3.230 -1.4178 -0.0477  2.2516
 7807TIP3   OH244911   2.320   2.334  12.147  0.2434  0.1632 -0.1619
 7807TIP3    H144912   2.391   2.397  12.135  0.3015 -0.2733 -3.0290
 7807TIP3    H244913   2.346   2.282  12.223  2.2541  0.9825 -0.2183
 7808TIP3   OH244914   3.454   5.362  16.951 -0.0181  0.3768  0.4041
 7808TIP3    H144915   3.474   5.387  17.041 -0.8593  1.3441  0.3459
 7808TIP3    H244916   3.435   5.268  16.956  1.4054  0.0987  0.9569
 7809TIP3   OH244917   1.620   0.205  16.170  0.0108  0.2686 -0.2867
 7809TIP3    H144918   1.670   0.210  16.252  0.0212 -1.0244 -0.1939
 7809TIP3    H244919   1.561   0.280  16.173 -0.6290 -0.2570  1.3362
 7810TIP3   OH244920   6.653   5.944  12.995  0.0869 -0.4128 -0.6114
 7810TIP3    H144921   6.673   6.037  13.002  0.4944 -0.5191 -0.3295
 7810TIP3    H244922   6.598   5.926  13.072  0.9009 -0.6299 -0.0636
 7811TIP3   OH244923   0.012   0.101  15.888 -0.4667 -0.2976  0.5890
 7811TIP3    H144924  -0.038   0.128  15.811  0.3863  0.1580  0.1754
 7811TIP3    H244925  -0.014   0.162  15.957  2.0636  2.2984 -0.5504
 7812TIP3   OH244926   2.078   0.974  15.843  0.0989  0.5069 -0.3581
 7812TIP3    H144927   2.133   0.910  15.889 -2.4506 -0.8078  1.1285
 7812TIP3    H244928   2.092   1.055  15.891  0.3362  0.0685  0.3375
 7813TIP3   OH244929   2.033   6.304  11.702 -0.5037  0.4318 -0.1176
 7813TIP3    H144930   1.987   6.242  11.759  1.9901  0.1168  1.6738
 7813TIP3    H244931   2.077   6.248  11.638 -0.8731  0.6018 -0.5275
 7814TIP3   OH244932   4.217   6.736  12.096 -0.4814  0.6483 -0.4478
 7814TIP3    H144933   4.265   6.687  12.163  3.0036  0.6828 -2.6856
 7814TIP3    H244934   4.174   6.669  12.043  1.4789  0.1685 -1.4921
 7815TIP3   OH244935   6.141   5.660   4.763  0.0273 -0.4964 -0.3702
 7815TIP3    H144936   6.151   5.718   4.688 -2.8108  0.8685  0.1986
 7815TIP3    H244937   6.135   5.573   4.726  2.4008 -0.2997 -1.3892
 7816TIP3   OH244938   4.779   3.458   1.962  0.3328  0.1998  0.2964
 7816TIP3    H144939   4.698   3.418   1.931 -0.0205  1.4976 -0.5402
 7816TIP3    H244940   4.845   3.434   1.897  0.3151  0.2804  0.2491
 7817TIP3   OH244941   3.355   5.044   2.918  0.0422  0.5344 -0.4474
 7817TIP3    H144942   3.366   5.097   2.840  0.8918  0.2528 -0.5392
 7817TIP3    H244943   3.263   5.018   2.918  0.2031 -0.0937 -1.7599
 7818TIP3   OH244944   5.891   3.771   1.027 -0.2114 -0.4584  0.5662
 7818TIP3    H144945   5.835   3.849   1.029  0.5779  0.1718 -0.6116
 7818TIP3    H244946   5.838   3.704   0.986  0.5625  0.7726 -2.7383
 7819TIP3   OH244947   6.008   1.476  12.913  0.4025  0.1238 -0.0558
 7819TIP3    H144948   5.987   1.566  12.940  0.3654  0.3926 -0.9412
 7819TIP3    H244949   5.924   1.431  12.914  0.5304 -0.1189  1.1315
 7820TIP3   OH244950   4.364   0.714   0.853  0.2871 -0.5342  0.1215
 7820TIP3    H144951   4.376   0.764   0.933  1.2085 -1.8892  0.8692
 7820TIP3    H244952   4.270   0.696   0.850  0.0351  0.7043  0.1443
 7821TIP3   OH244953   3.599   6.013   0.991 -0.1348 -0.3153 -0.2816
 7821TIP3    H144954   3.593   6.086   0.929  1.0044  1.2440  1.3317
 7821TIP3    H244955   3.683   5.971   0.970  0.0295 -0.0770 -0.1103
 7822TIP3   OH244956   5.106   6.255   5.689 -0.8727 -0.3821  0.5604
 7822TIP3    H144957   5.197   6.281   5.701 -0.5064 -1.3701  0.0254
 7822TIP3    H244958   5.110   6.163   5.663 -2.0210 -0.4211  0.4487
 7823TIP3   OH244959   6.240   5.535   5.085  0.1873  0.6549  0.1053
 7823TIP3    H144960   6.283   5.619   5.073 -0.0695  0.9754  1.3088
 7823TIP3    H244961   6.167   5.536   5.022  0.2402  1.2911  0.0527
 7824TIP3   OH244962   4.345   3.814   3.355 -0.4273 -0.1291  0.4528
 7824TIP3    H144963   4.397   3.844   3.430 -0.3407 -2.0173  1.2031
 7824TIP3    H244964   4.321   3.894   3.309  0.1837  1.0282  2.0558
 7825TIP3   OH244965   0.147   6.443   5.440 -0.3990 -0.1421  0.7353
 7825TIP3    H144966   0.228   6.435   5.490 -0.6149  0.6339  1.2286
 7825TIP3    H244967   0.146   6.534   5.411 -0.2819 -0.5850 -0.6889
 7826TIP3   OH244968   5.155   4.615  12.680  0.2205 -0.6151 -1.4886
 7826TIP3    H144969   5.171   4.645  12.769 -0.8022  1.5648 -1.9796
 7826TIP3    H244970   5.220   4.546  12.666  2.2573  0.8667  0.0171
 7827TIP3   OH244971   6.468   3.718   5.468 -0.8987 -0.4037  0.0636
 7827TIP3    H144972   6.437   3.649   5.410 -0.8483 -0.4344  0.0734
 7827TIP3    H244973   6.403   3.723   5.538 -1.2586  0.0124 -0.2894
 7828TIP3   OH244974   4.255   5.172   5.611 -0.7908 -0.0192 -0.3974
 7828TIP3    H144975   4.208   5.237   5.663  0.2851  0.2940  0.2051
 7828TIP3    H244976   4.289   5.221   5.536 -0.2599  0.0620 -0.1121
 7829TIP3   OH244977   3.945   6.016   2.800 -0.0969 -0.0624  0.6253
 7829TIP3    H144978   4.020   5.961   2.776  0.5972  0.6781  1.0456
 7829TIP3    H244979   3.868   5.964   2.775  0.5553 -0.4030 -0.7656
 7830TIP3   OH244980   1.412   3.896   5.115  0.5537  0.0454  0.5009
 7830TIP3    H144981   1.404   3.852   5.030 -1.1378 -0.6497  0.9580
 7830TIP3    H244982   1.460   3.833   5.170  2.8231  1.0472 -0.2516
 7831TIP3   OH244983   0.158   3.900  17.102  0.3509 -0.4501 -0.2944
 7831TIP3    H144984   0.130   3.835  17.167  2.2980 -0.3739  0.7002
 7831TIP3    H244985   0.157   3.983  17.150 -3.3110  0.6306 -1.8704
 7832TIP3   OH244986   2.366   5.587   5.785 -0.6393 -0.1581  0.5105
 7832TIP3    H144987   2.313   5.531   5.729  0.0574 -1.0577  0.7129
 7832TIP3    H244988   2.363   5.673   5.744 -0.0674 -0.8092 -0.9826
 7833TIP3   OH244989   1.123   5.504  13.634  0.4537  0.1499  0.2156
 7833TIP3    H144990   1.133   5.585  13.684 -1.4976 -1.3029  3.2479
 7833TIP3    H244991   1.090   5.533  13.549  1.3962  2.6006  0.5938
 7834TIP3   OH244992   5.646   3.605  16.696  0.4480 -0.0658  0.8420
 7834TIP3    H144993   5.730   3.641  16.724  0.5721 -0.2483  0.7086
 7834TIP3    H244994   5.648   3.514  16.724  0.2169 -0.0214  1.0028
 7835TIP3   OH244995   4.588   4.086  14.180 -0.3499  0.3159 -0.0289
 7835TIP3    H144996   4.533   4.154  14.220 -1.1042 -0.1220 -0.3107
 7835TIP3    H244997   4.551   4.074  14.093 -1.3250 -1.6913  0.6186
 7836TIP3   OH244998   4.583   1.951   3.703 -0.2330 -0.1046 -0.2543
 7836TIP3    H144999   4.633   2.032   3.694 -0.1977  0.1814  1.9823
 7836TIP3    H245000   4.500   1.970   3.659 -0.7945  1.7157  1.4111
 7837TIP3   OH245001   3.962   4.269  13.821  0.3628 -0.3148 -0.4523
 7837TIP3    H145002   3.939   4.356  13.853 -1.0411 -0.0224 -2.1404
 7837TIP3    H245003   3.900   4.210  13.864  0.3280 -0.2815 -0.4571
 7838TIP3   OH245004   4.141   1.364   4.950 -0.3847  0.2438  0.7067
 7838TIP3    H145005   4.057   1.365   4.997 -0.8843  0.4798 -0.1596
 7838TIP3    H245006   4.130   1.298   4.882  0.7350 -0.9029  1.5862
 7839TIP3   OH245007   6.547   6.139   0.465  0.2756  0.1025  0.1595
 7839TIP3    H145008   6.632   6.165   0.500  0.0519  1.8955 -0.5296
 7839TIP3    H245009   6.484   6.196   0.509 -0.2071  1.0528 -1.6512
 7840TIP3   OH245010   6.658   3.147   2.358  0.1929 -0.6101 -0.1684
 7840TIP3    H145011   6.609   3.104   2.288  0.3467  1.0276 -1.3619
 7840TIP3    H245012   6.737   3.093   2.369  1.2304  0.1582 -2.8167
 7841TIP3   OH245013   1.643   2.550  16.968  0.2478 -0.1197  0.3953
 7841TIP3    H145014   1.615   2.463  16.940 -0.8947  0.7445 -1.3313
 7841TIP3    H245015   1.739   2.547  16.963  0.1878 -0.9451 -0.7496
 7842TIP3   OH245016   3.243   4.048  12.872  0.2326  0.0935  0.2242
 7842TIP3    H145017   3.178   4.053  12.802 -0.6294 -0.5860  0.9476
 7842TIP3    H245018   3.191   4.032  12.952  1.3405 -1.6858  0.6531
 7843TIP3   OH245019   6.641   5.313  13.996 -0.0340 -0.1263  0.0629
 7843TIP3    H145020   6.700   5.284  13.927  0.1800  0.7752 -0.1508
 7843TIP3    H245021   6.633   5.407  13.983  0.4205  0.1614  1.5700
 7844TIP3   OH245022   1.417   1.611   2.421 -0.4464 -0.7278  0.0792
 7844TIP3    H145023   1.488   1.559   2.382 -0.1881 -0.3508  0.0402
 7844TIP3    H245024   1.437   1.613   2.514  0.8086  1.1838 -0.1836
 7845TIP3   OH245025   4.671   1.329   5.895  0.0268  0.4807 -0.0469
 7845TIP3    H145026   4.575   1.321   5.901 -0.3128  3.5074  0.1864
 7845TIP3    H245027   4.692   1.398   5.958  2.2346  0.7407 -1.0120
 7846TIP3   OH245028   3.289   0.596  15.379 -0.4658  0.0792  0.0320
 7846TIP3    H145029   3.325   0.508  15.388 -0.8071 -0.2525 -1.6439
 7846TIP3    H245030   3.229   0.590  15.305  0.5245  2.0493 -0.9930
 7847TIP3   OH245031   3.556   5.317  15.687 -0.1458  0.1651  0.0174
 7847TIP3    H145032   3.598   5.236  15.655 -2.9087 -0.8063 -1.4538
 7847TIP3    H245033   3.503   5.346  15.613  0.3593  3.1098  0.7145
 7848TIP3   OH245034   3.422   4.208   5.429  0.0573  0.0295 -0.5050
 7848TIP3    H145035   3.399   4.117   5.443  0.1865  0.0871  0.0779
 7848TIP3    H245036   3.338   4.252   5.415 -0.1338  0.0742  0.6754
 7849TIP3   OH245037   3.036   3.631   0.010  0.5627 -0.3489  0.1845
 7849TIP3    H145038   3.002   3.707   0.057  1.0312 -0.5869  0.9176
 7849TIP3    H245039   2.974   3.561   0.029  0.5209 -0.3378  0.0921
 7850TIP3   OH245040   1.810   2.406  15.013 -0.5360  0.1717 -0.8258
 7850TIP3    H145041   1.857   2.358  15.081  0.3821  0.6240 -1.1188
 7850TIP3    H245042   1.878   2.434  14.952 -1.2180  0.6636 -1.3825
 7851TIP3   OH245043   6.612   5.265   0.564  0.3730  0.1267  0.4178
 7851TIP3    H145044   6.658   5.197   0.514 -0.2454 -0.6645  0.8878
 7851TIP3    H245045   6.626   5.345   0.514 -0.5584 -0.6951 -1.2857
 7852TIP3   OH245046   5.314   2.125   1.175 -0.8486 -0.0056  0.4878
 7852TIP3    H145047   5.223   2.097   1.182 -0.7459  0.0873  3.0906
 7852TIP3    H245048   5.309   2.221   1.175 -0.7555  0.0015  0.1731
 7853TIP3   OH245049   2.332   0.592  11.131  0.1664  0.1320 -0.0960
 7853TIP3    H145050   2.289   0.618  11.049 -0.0241  1.3478  0.3593
 7853TIP3    H245051   2.361   0.675  11.169 -2.0888 -0.0952  2.3782
 7854TIP3   OH245052   6.218   5.695  13.550 -0.2417 -1.2911  0.5098
 7854TIP3    H145053   6.313   5.693  13.544 -0.3078 -1.3918 -0.7849
 7854TIP3    H245054   6.189   5.614  13.506 -0.9419 -0.7646 -0.0322
 7855TIP3   OH245055   6.628   3.560   6.299 -0.1378  0.3756 -0.1772
 7855TIP3    H145056   6.617   3.601   6.385 -1.3950 -0.9017  0.3113
 7855TIP3    H245057   6.702   3.500   6.311 -1.4274 -1.1314  0.5893
 7856TIP3   OH245058   1.444   1.090   6.557  0.1284 -0.7124 -0.3017
 7856TIP3    H145059   1.466   1.003   6.591  0.3833 -0.8026 -0.6878
 7856TIP3    H245060   1.438   1.078   6.463 -0.5035 -0.4482 -0.2977
 7857TIP3   OH245061   4.602   0.063  16.659 -0.0395 -0.0583  0.2541
 7857TIP3    H145062   4.585  -0.003  16.592 -0.5159 -0.4861  0.7774
 7857TIP3    H245063   4.514   0.092  16.685  0.0603 -0.9658  1.7153
 7858TIP3   OH245064   3.333   1.919  16.723  0.2823 -0.0266  0.3863
 7858TIP3    H145065   3.245   1.887  16.702  0.4596 -0.2875  0.0092
 7858TIP3    H245066   3.331   2.012  16.701  0.9288 -0.5736 -2.5453
 7859TIP3   OH245067   4.560   3.289   5.656  0.2876 -0.7946  0.2043
 7859TIP3    H145068   4.620   3.357   5.688  1.4408 -2.1575  1.0438
 7859TIP3    H245069   4.477   3.335   5.643  1.3650  1.0620 -0.5564
 7860TIP3   OH245070   0.459   2.204  13.505  0.0116  0.0239 -0.2335
 7860TIP3    H145071   0.483   2.142  13.436 -0.8786 -1.0644  0.3847
 7860TIP3    H245072   0.420   2.149  13.573 -1.1760  1.3263  0.1797
 7861TIP3   OH245073   6.010   5.339  13.082  0.4274  0.3438  0.3148
 7861TIP3    H145074   5.973   5.305  13.164  2.2243 -1.2691  0.5255
 7861TIP3    H245075   5.952   5.305  13.014 -1.3889  2.1162  0.8564
 7862TIP3   OH245076   6.058   3.301  17.033 -0.2141 -0.3960  0.9551
 7862TIP3    H145077   6.045   3.325  16.942  0.8739 -1.1497  0.5856
 7862TIP3    H245078   5.985   3.343  17.079 -0.8937 -0.1801 -0.2752
 7863TIP3   OH245079   2.688   0.393  15.481  0.5570 -0.6900  0.2114
 7863TIP3    H145080   2.614   0.367  15.426 -0.3642  0.3081  0.9242
 7863TIP3    H245081   2.739   0.453  15.425 -0.0337 -0.1647  0.2223
 7864TIP3   OH245082   1.587   1.740   4.242 -0.2204  0.0280 -0.0244
 7864TIP3    H145083   1.530   1.815   4.226 -1.9786 -1.4482 -1.0867
 7864TIP3    H245084   1.597   1.737   4.337 -1.8053  0.4215  0.1757
 7865TIP3   OH245085   2.324   5.555  13.240 -0.0576 -0.9636  0.1651
 7865TIP3    H145086   2.314   5.549  13.335  0.2310  0.4761  0.3108
 7865TIP3    H245087   2.253   5.501  13.205 -0.3194 -1.3121  1.1954
 7866TIP3   OH245088   6.455   0.453  11.812 -0.1395 -0.6447 -0.1386
 7866TIP3    H145089   6.380   0.395  11.824  0.0110 -0.7865  0.1412
 7866TIP3    H245090   6.518   0.425  11.879  0.0865 -0.4057 -0.2476
 7867TIP3   OH245091   0.903   4.635  17.183 -0.2292  0.5485 -0.0191
 7867TIP3    H145092   0.891   4.582  17.262  2.7228  0.0458  0.1859
 7867TIP3    H245093   0.967   4.702  17.209  1.5521 -0.2114 -2.2066
 7868TIP3   OH245094   0.959   4.843  16.174 -0.0948 -0.2797  0.1103
 7868TIP3    H145095   0.907   4.918  16.204  0.3883 -0.2415  0.8996
 7868TIP3    H245096   0.912   4.809  16.098  0.0968  1.3042 -0.7501
 7869TIP3   OH245097   0.152   0.563  12.314 -0.1434 -0.3081  0.0837
 7869TIP3    H145098   0.156   0.602  12.227 -0.0350 -0.3896  0.0530
 7869TIP3    H245099   0.061   0.534  12.322 -0.1336 -0.3730 -0.0333
 7870TIP3   OH245100   3.149   2.708  11.816  0.6080  0.1102 -0.1861
 7870TIP3    H145101   3.220   2.644  11.809 -0.1524 -1.1968  2.5211
 7870TIP3    H245102   3.159   2.745  11.903  0.3464  2.9772 -1.2703
 7871TIP3   OH245103   4.139   1.696   3.281 -0.0708  0.1366  0.2788
 7871TIP3    H145104   4.193   1.758   3.330 -0.0858  0.6158 -0.3074
 7871TIP3    H245105   4.102   1.638   3.348  1.2443 -0.2675  0.6866
 7872TIP3   OH245106   3.819   2.870  10.883  0.0330  0.2784  0.5015
 7872TIP3    H145107   3.844   2.865  10.791  1.7510  0.1434  0.9355
 7872TIP3    H245108   3.724   2.876  10.882  0.0005 -0.0059 -1.2681
 7873TIP3   OH245109   6.439   0.662   4.037  0.0032  0.1677 -0.2373
 7873TIP3    H145110   6.362   0.607   4.021 -0.1655 -0.0670  1.2055
 7873TIP3    H245111   6.405   0.735   4.089  0.7786 -0.0278  0.5651
 7874TIP3   OH245112   0.292   1.370  13.562  0.5661  0.2178 -0.1513
 7874TIP3    H145113   0.260   1.459  13.546 -0.6630 -0.1763  0.0153
 7874TIP3    H245114   0.386   1.376  13.550  0.8670  2.1347  2.3953
 7875TIP3   OH245115   2.595   3.740   3.541 -0.1222 -0.0410  0.1740
 7875TIP3    H145116   2.648   3.737   3.462 -1.5169  0.8279 -0.8317
 7875TIP3    H245117   2.655   3.712   3.611  2.2757  2.6864 -0.5763
 7876TIP3   OH245118   1.014   6.675   2.607 -0.3374 -0.2300  0.3008
 7876TIP3    H145119   0.978   6.751   2.560 -1.9694 -0.1236  1.6446
 7876TIP3    H245120   1.046   6.618   2.537 -0.7618  0.8505 -0.8356
 7877TIP3   OH245121   3.008   5.033  15.990  0.5448  0.6428  0.0565
 7877TIP3    H145122   2.950   4.995  16.056  0.1179  0.0012 -0.6790
 7877TIP3    H245123   3.084   4.975  15.988 -0.3072 -0.4911 -1.3907
 7878TIP3   OH245124   2.151   6.462   0.459 -0.1575 -0.1030 -0.0655
 7878TIP3    H145125   2.078   6.401   0.454 -0.2038 -0.0736  0.2030
 7878TIP3    H245126   2.151   6.508   0.375 -1.8540  1.5188  0.7566
 7879TIP3   OH245127   2.761   1.799  13.394 -0.2081 -0.3293 -0.0418
 7879TIP3    H145128   2.828   1.803  13.326 -0.4688  0.9200 -0.2501
 7879TIP3    H245129   2.731   1.708  13.393  0.1144 -0.4377 -1.2786
 7880TIP3   OH245130   1.053   0.331  16.350  0.4833 -0.1739  0.1257
 7880TIP3    H145131   1.069   0.425  16.343  0.4579 -0.2113 -0.4907
 7880TIP3    H245132   1.133   0.295  16.387  0.7631 -0.0045 -0.3166
 7881TIP3   OH245133   4.477   0.715   0.531 -0.7080 -0.3909  0.3268
 7881TIP3    H145134   4.433   0.725   0.616  1.4001  0.6431  1.3758
 7881TIP3    H245135   4.532   0.638   0.542  0.6889  0.5833  0.4747
 7882TIP3   OH245136   1.029   5.145  16.413 -0.0891  0.3454 -0.2919
 7882TIP3    H145137   1.103   5.204  16.405 -0.0249  0.0738 -2.2355
 7882TIP3    H245138   0.953   5.197  16.388 -0.7842  0.9113  2.6478
 7883TIP3   OH245139   6.181   4.653   1.841  0.0827 -0.0145 -0.0976
 7883TIP3    H145140   6.136   4.737   1.851 -3.3102 -1.4822 -1.4146
 7883TIP3    H245141   6.212   4.652   1.751  0.7411  0.0588  0.1211
 7884TIP3   OH245142   0.907   1.251  14.812  0.4680 -0.0789 -0.3343
 7884TIP3    H145143   0.987   1.213  14.848 -0.0798 -0.5195  0.4460
 7884TIP3    H245144   0.845   1.178  14.811 -0.2950  0.5530  0.2361
 7885TIP3   OH245145   2.653   1.150   6.864  0.2799 -0.0206  1.0537
 7885TIP3    H145146   2.566   1.163   6.827  0.3053  0.1015  1.0365
 7885TIP3    H245147   2.712   1.198   6.806  0.3011  0.3088  1.3418
 7886TIP3   OH245148   3.430   5.133   4.666  0.0654 -0.5596 -0.3881
 7886TIP3    H145149   3.483   5.054   4.658  0.7021 -0.1558 -0.2944
 7886TIP3    H245150   3.489   5.204   4.639  1.1115  0.4630  3.7891
 7887TIP3   OH245151   0.945   1.716   4.986  0.0704 -0.2995  0.2981
 7887TIP3    H145152   1.022   1.689   4.936 -1.1494  0.2854 -2.0254
 7887TIP3    H245153   0.875   1.657   4.959 -1.3692  1.8737 -1.0495
 7888TIP3   OH245154   4.917   1.350  12.042 -0.5675  0.1752  0.1473
 7888TIP3    H145155   4.837   1.321  12.087 -1.0706 -0.0840 -0.8915
 7888TIP3    H245156   4.967   1.270  12.028 -1.3362 -0.0613 -1.5077
 7889TIP3   OH245157   5.324   0.007   1.003  0.3423 -1.1211 -0.4710
 7889TIP3    H145158   5.375  -0.065   0.965  0.2526 -0.5905 -1.6316
 7889TIP3    H245159   5.389   0.061   1.048  0.8527 -0.4364 -1.9634
 7890TIP3   OH245160   5.559   3.047  16.133  0.0699 -0.3488  0.5668
 7890TIP3    H145161   5.501   3.080  16.201  0.8298  1.0988  0.5735
 7890TIP3    H245162   5.502   3.001  16.072 -0.7853 -0.6264  1.5529
 7891TIP3   OH245163   3.364   4.974   6.097  0.3640  0.4695  0.3068
 7891TIP3    H145164   3.271   4.953   6.104  0.7819 -1.6326  0.2557
 7891TIP3    H245165   3.408   4.893   6.124  2.1505  0.8477 -1.3015
 7892TIP3   OH245166   1.880   2.668  15.547 -0.4861 -0.3647 -0.4087
 7892TIP3    H145167   1.885   2.724  15.624  1.9984 -2.2988  0.9851
 7892TIP3    H245168   1.910   2.724  15.475  0.9806  0.4172  0.7574
 7893TIP3   OH245169   5.012   6.709  12.630  0.4270 -0.2303 -0.0199
 7893TIP3    H145170   5.105   6.692  12.644  0.7118  1.5019  0.4026
 7893TIP3    H245171   5.005   6.805  12.628 -1.3121 -0.3331 -0.2700
 7894TIP3   OH245172   6.361   2.599  11.386 -0.1333  0.0664  0.0189
 7894TIP3    H145173   6.354   2.549  11.305  0.9285  0.6895 -0.4768
 7894TIP3    H245174   6.414   2.675  11.363 -0.5630  0.7167  1.0882
 7895TIP3   OH245175   5.596   5.096   3.989  0.3520  0.1010  0.0706
 7895TIP3    H145176   5.687   5.069   3.992  0.5795  0.8400  0.0394
 7895TIP3    H245177   5.572   5.090   3.896 -0.3395 -2.3080  0.3361
 7896TIP3   OH245178   2.384   0.770   3.270 -0.1035  0.2291  0.0980
 7896TIP3    H145179   2.368   0.841   3.208 -1.2776  0.4909  0.6735
 7896TIP3    H245180   2.326   0.699   3.242  2.4676 -1.3325 -1.6797
 7897TIP3   OH245181   3.443   6.704   0.657 -0.0131 -0.1535 -0.2947
 7897TIP3    H145182   3.370   6.642   0.651 -1.4812  1.5265 -0.8250
 7897TIP3    H245183   3.451   6.723   0.750 -0.3037 -0.3017 -0.2388
 7898TIP3   OH245184   0.160   0.140   4.166 -0.1903 -0.0684  0.3364
 7898TIP3    H145185   0.079   0.112   4.207 -0.1974 -0.3258  0.1486
 7898TIP3    H245186   0.210   0.059   4.153 -0.6836 -0.1593 -1.2461
 7899TIP3   OH245187   5.762   0.221   4.346  0.0916  0.5656 -0.1820
 7899TIP3    H145188   5.767   0.306   4.301 -0.8235  0.6608 -0.1157
 7899TIP3    H245189   5.837   0.222   4.405 -0.8319  2.0579  1.0440
 7900TIP3   OH245190   3.487   6.000  15.949  0.0160  0.0082  0.3066
 7900TIP3    H145191   3.409   6.048  15.922  1.0353  1.2306 -0.5489
 7900TIP3    H245192   3.452   5.923  15.995 -1.7010 -0.0218 -0.9454
 7901TIP3   OH245193   1.103   2.332  13.718  0.0553  0.0151  0.2674
 7901TIP3    H145194   1.102   2.332  13.814 -0.4620  0.1094  0.2598
 7901TIP3    H245195   1.118   2.240  13.694 -0.9495 -0.1953  0.4241
 7902TIP3   OH245196   1.752   5.681  12.229  0.8198 -0.1437 -0.6948
 7902TIP3    H145197   1.828   5.674  12.171  1.8906 -2.3361  0.8180
 7902TIP3    H245198   1.786   5.657  12.315 -1.2249  0.6186  0.3767
 7903TIP3   OH245199   0.126   4.439   0.899 -0.2420  0.1188  0.1331
 7903TIP3    H145200   0.039   4.478   0.906 -0.0498  0.5355  0.2334
 7903TIP3    H245201   0.114   4.364   0.841 -0.7581 -0.1021  0.5179
 7904TIP3   OH245202   0.231   0.518  17.285 -0.0511  0.6296 -0.7777
 7904TIP3    H145203   0.175   0.469  17.344  0.2720  0.2914 -0.7504
 7904TIP3    H245204   0.180   0.595  17.262  0.8492  2.2693  2.1521
 7905TIP3   OH245205   6.255   3.862  13.970 -0.3662 -0.1086 -0.4459
 7905TIP3    H145206   6.295   3.782  13.935 -1.5803 -1.3317  0.8353
 7905TIP3    H245207   6.161   3.845  13.967 -0.6139  0.9743  0.5149
 7906TIP3   OH245208   0.800   1.494  13.728 -0.0901  0.1020 -0.8382
 7906TIP3    H145209   0.892   1.467  13.732  0.3434  1.6003  1.0686
 7906TIP3    H245210   0.754   1.433  13.785 -0.0273  0.1939 -0.6883
 7907TIP3   OH245211   6.620   1.828   4.991  0.2514 -0.6641 -0.6677
 7907TIP3    H145212   6.685   1.888   5.026 -1.0105  0.6873 -0.5668
 7907TIP3    H245213   6.625   1.752   5.049 -0.2184  0.5935  1.1118
 7908TIP3   OH245214   2.271   5.260   5.823  0.1227 -0.3094 -0.8271
 7908TIP3    H145215   2.355   5.230   5.857  0.3857  2.6381  1.5411
 7908TIP3    H245216   2.234   5.313   5.894 -3.0515 -0.2213 -2.3709
 7909TIP3   OH245217   1.503   2.970   6.148 -0.2812 -0.2301 -0.1396
 7909TIP3    H145218   1.470   3.041   6.203 -0.7544  1.2311 -2.1847
 7909TIP3    H245219   1.538   2.906   6.210 -1.4177  0.9689  1.8669
 7910TIP3   OH245220   1.931   6.541  11.580  0.5515 -0.0854 -0.5126
 7910TIP3    H145221   1.848   6.521  11.536 -0.7755  1.3714  1.1261
 7910TIP3    H245222   1.959   6.458  11.618 -0.2130 -0.5876 -1.0115
 7911TIP3   OH245223   0.279   0.532  13.318  0.3083 -0.0302  0.3492
 7911TIP3    H145224   0.254   0.624  13.329  0.6010 -0.0856  1.5428
 7911TIP3    H245225   0.226   0.503  13.243  0.6414  1.2528 -0.4187
 7912TIP3   OH245226   1.085   0.840  11.396 -0.0196 -0.1572 -1.0767
 7912TIP3    H145227   1.046   0.908  11.341  0.0462 -0.9709 -2.1461
 7912TIP3    H245228   1.027   0.836  11.472 -0.4474  0.5689 -1.3476
 7913TIP3   OH245229   3.983   6.200  13.656 -0.2211 -0.1436  0.4123
 7913TIP3    H145230   3.972   6.289  13.689  0.4271 -0.1764  0.7183
 7913TIP3    H245231   3.894   6.163  13.659 -0.3550  0.2099  1.0895
 7914TIP3   OH245232   1.401   5.521  12.844 -0.4380 -0.0893 -0.0235
 7914TIP3    H145233   1.353   5.447  12.883 -0.5317 -0.2808 -0.4901
 7914TIP3    H245234   1.371   5.523  12.753  0.1033  0.0763 -0.2001
 7915TIP3   OH245235   3.015   1.338   3.510  0.7467 -0.6099  0.2840
 7915TIP3    H145236   2.968   1.322   3.592  0.8017  1.2243  0.7140
 7915TIP3    H245237   2.989   1.266   3.453 -2.2727  0.0934  0.6262
 7916TIP3   OH245238   0.597   5.817  15.740 -0.3925 -0.3182 -0.6836
 7916TIP3    H145239   0.692   5.806  15.731 -0.2032  0.9596 -0.4055
 7916TIP3    H245240   0.575   5.890  15.682 -1.3608 -1.1658 -1.4167
 7917TIP3   OH245241   3.853   3.722  14.858 -0.4209 -0.2788 -0.0847
 7917TIP3    H145242   3.855   3.654  14.791  0.3689  0.3943 -0.7764
 7917TIP3    H245243   3.791   3.690  14.924 -0.5077 -1.3773 -0.6821
 7918TIP3   OH245244   4.058   3.843  11.361 -0.7619  0.2076 -0.7868
 7918TIP3    H145245   3.966   3.868  11.351 -0.7066  0.3915 -0.8345
 7918TIP3    H245246   4.063   3.755  11.325 -1.1406 -0.2155  0.1663
 7919TIP3   OH245247   1.343   4.687  14.361  0.1617  0.1573 -0.1422
 7919TIP3    H145248   1.402   4.612  14.372  0.9600  0.9207  0.9739
 7919TIP3    H245249   1.365   4.746  14.433 -1.8242  0.5926  0.1621
 7920TIP3   OH245250   2.431   0.618   6.267 -0.3460 -0.6434  0.1000
 7920TIP3    H145251   2.455   0.693   6.211  1.3079 -0.9183  0.3858
 7920TIP3    H245252   2.387   0.657   6.342  1.2706  0.1790  0.6724
 7921TIP3   OH245253   1.714   5.898  14.560  0.1276 -0.6697  0.4490
 7921TIP3    H145254   1.626   5.891  14.598 -0.0298 -2.4375 -0.1596
 7921TIP3    H245255   1.699   5.930  14.471  0.4636  2.9857  1.5235
 7922TIP3   OH245256   2.352   5.943  17.467  0.0384 -0.2261 -0.3249
 7922TIP3    H145257   2.388   5.946  17.378 -0.8317  1.6116 -0.6545
 7922TIP3    H245258   2.405   6.006  17.516 -0.5577  0.0031  0.0291
 7923TIP3   OH245259   3.897   2.104   3.157  0.7089 -0.2216  0.1169
 7923TIP3    H145260   3.858   2.021   3.182  1.2107 -0.4478  0.1588
 7923TIP3    H245261   3.823   2.161   3.136  0.3728 -0.7875 -0.2454
 7924TIP3   OH245262   0.760   0.716  14.267  0.0444 -0.3222  0.0709
 7924TIP3    H145263   0.705   0.668  14.206  1.0191 -1.4753  0.0622
 7924TIP3    H245264   0.791   0.650  14.329  2.1783  0.0834 -0.4828
 7925TIP3   OH245265   3.529   4.439  14.464  0.2110  0.0871 -0.2442
 7925TIP3    H145266   3.574   4.452  14.547  0.2963  1.0294 -0.4283
 7925TIP3    H245267   3.566   4.357  14.429  0.6075  0.0064  0.3514
 7926TIP3   OH245268   0.463   1.893  12.331 -0.6639  0.3368 -0.2810
 7926TIP3    H145269   0.471   1.875  12.237  2.1171 -0.7388  0.0590
 7926TIP3    H245270   0.461   1.807  12.372  3.0109  0.6128  0.8214
 7927TIP3   OH245271   6.658   6.331   3.802 -0.2869  0.2984  0.4743
 7927TIP3    H145272   6.626   6.392   3.735  0.1929  0.3140  0.2589
 7927TIP3    H245273   6.720   6.275   3.757 -2.6416 -2.1252  0.0096
 7928TIP3   OH245274   5.422   3.758   4.340 -0.1491 -0.0211 -0.1267
 7928TIP3    H145275   5.426   3.842   4.293 -1.6229 -0.0202 -0.3110
 7928TIP3    H245276   5.514   3.734   4.354  0.3296  0.4316 -2.1894
 7929TIP3   OH245277   2.831   1.206   4.185  0.2853 -0.3172  0.0993
 7929TIP3    H145278   2.890   1.223   4.111 -1.0374 -0.8718 -1.1278
 7929TIP3    H245279   2.778   1.131   4.156 -2.1130  1.1399  0.4769
 7930TIP3   OH245280   4.961   1.589   3.131  0.1576  0.0320  0.8163
 7930TIP3    H145281   4.895   1.652   3.158  1.4327  1.4814  0.7350
 7930TIP3    H245282   5.040   1.615   3.179  1.1282 -0.5001 -0.4332
 7931TIP3   OH245283   4.479   6.640  16.893 -0.4051 -0.2471  0.5309
 7931TIP3    H145284   4.467   6.651  16.987  0.9253  1.4784  0.5458
 7931TIP3    H245285   4.543   6.707  16.869 -1.0394 -0.3608 -1.6846
 7932TIP3   OH245286   2.564   2.651  11.439  0.2267  0.6744  0.6613
 7932TIP3    H145287   2.575   2.644  11.534  0.7974 -0.7227  0.5039
 7932TIP3    H245288   2.493   2.715  11.429 -0.3465  0.2985  2.0488
 7933TIP3   OH245289   5.087   1.116  12.061  0.2765  0.1869 -0.2449
 7933TIP3    H145290   5.068   1.044  12.122  0.1077  0.1428 -0.3494
 7933TIP3    H245291   5.101   1.073  11.977  0.4376  0.2554 -0.2546
 7934TIP3   OH245292   0.187   5.697   5.581 -0.1438  0.2147 -0.0136
 7934TIP3    H145293   0.154   5.768   5.637  0.3022  0.9407 -0.6515
 7934TIP3    H245294   0.217   5.741   5.501 -0.0727 -0.7223 -0.5174
 7935TIP3   OH245295   3.370   6.515  14.254 -0.1355  0.2858 -0.5583
 7935TIP3    H145296   3.326   6.484  14.174 -0.1348  1.4256 -1.0187
 7935TIP3    H245297   3.454   6.468  14.255 -0.6462 -0.6515 -0.5643
 7936TIP3   OH245298   1.156   2.332   3.777 -0.2114  0.1336  0.5978
 7936TIP3    H145299   1.071   2.293   3.761 -0.5053 -0.0594  2.4131
 7936TIP3    H245300   1.137   2.415   3.822  0.5411 -0.4494  2.0693
 7937TIP3   OH245301   6.493   6.198   6.174  0.6469 -0.6733  0.0074
 7937TIP3    H145302   6.582   6.166   6.190  1.1105  1.2211  1.6243
 7937TIP3    H245303   6.438   6.142   6.230  1.1501 -0.2304  0.9733
 7938TIP3   OH245304   2.791   3.070  11.759  0.3626 -0.1491  0.1023
 7938TIP3    H145305   2.843   3.081  11.679  0.6700 -1.3278  0.1232
 7938TIP3    H245306   2.701   3.059  11.728  0.4021 -0.0416 -0.0526
 7939TIP3   OH245307   1.907   1.272  14.995  0.2803 -0.1832  0.0368
 7939TIP3    H145308   1.962   1.202  14.961  0.6643  0.3040 -0.3582
 7939TIP3    H245309   1.844   1.289  14.925  1.6236  1.4302 -0.8440
 7940TIP3   OH245310   4.078   6.515   2.067  0.1680 -0.0670  0.0008
 7940TIP3    H145311   4.163   6.531   2.109  0.3236  0.7005 -0.5706
 7940TIP3    H245312   4.071   6.420   2.062  1.0056 -0.1374  0.0477
 7941TIP3   OH245313   1.731   3.063  11.083 -0.3980  0.1458 -0.3868
 7941TIP3    H145314   1.787   3.128  11.125 -0.5860 -0.2009  0.4131
 7941TIP3    H245315   1.767   2.979  11.110  0.6205 -0.1367 -2.4224
 7942TIP3   OH245316   2.371   2.856  11.796  0.0810 -0.0250 -0.9801
 7942TIP3    H145317   2.405   2.913  11.727  0.1267  1.6394  0.3541
 7942TIP3    H245318   2.292   2.901  11.827  0.2003 -0.5949  0.2090
 7943TIP3   OH245319   2.896   6.577   3.853  0.1163  0.0013 -0.1962
 7943TIP3    H145320   2.982   6.616   3.834  0.0510 -0.9749 -2.8147
 7943TIP3    H245321   2.842   6.652   3.878  1.7132  0.6250  1.6606
 7944TIP3   OH245322   4.872   0.043  10.930  0.6930  0.1455 -0.3705
 7944TIP3    H145323   4.808  -0.026  10.912 -0.0481  0.5080  0.7487
 7944TIP3    H245324   4.915   0.016  11.010  0.8322  0.6720 -0.2626
 7945TIP3   OH245325   2.686   3.413  13.075  0.0697  0.4030 -0.2842
 7945TIP3    H145326   2.760   3.454  13.120  0.6481 -0.1763 -0.6797
 7945TIP3    H245327   2.682   3.459  12.991  0.2506  0.1526 -0.4310
 7946TIP3   OH245328   6.232   6.307  11.198 -0.4657 -0.2312 -0.5687
 7946TIP3    H145329   6.319   6.345  11.192 -1.1092  1.0361 -3.2498
 7946TIP3    H245330   6.177   6.363  11.144 -3.1850 -0.4698  1.7182
 7947TIP3   OH245331   5.328   6.194  11.723  0.0725 -0.4746  0.4399
 7947TIP3    H145332   5.359   6.105  11.734  1.6061  0.1260  1.2911
 7947TIP3    H245333   5.232   6.188  11.727  0.0919 -2.2003 -0.7067
 7948TIP3   OH245334   4.566   1.894  14.369  0.3405  0.4417 -0.5761
 7948TIP3    H145335   4.523   1.813  14.397  0.0394  0.1749 -1.7180
 7948TIP3    H245336   4.503   1.936  14.310  0.1396  1.9718  0.6783
 7949TIP3   OH245337   0.412   4.629   0.100 -0.1601 -0.6064 -0.0735
 7949TIP3    H145338   0.485   4.678   0.063 -1.7918  0.9392 -1.4326
 7949TIP3    H245339   0.340   4.643   0.039 -1.5210 -2.3679  1.0145
 7950TIP3   OH245340   1.053   4.047   1.149  0.3315  0.1378  0.2751
 7950TIP3    H145341   1.142   4.057   1.117  0.3069  1.6029  0.6178
 7950TIP3    H245342   0.998   4.081   1.078  0.0021 -1.0170 -0.0537
 7951TIP3   OH245343   0.585   4.782   6.062 -0.4601  0.4935 -0.2458
 7951TIP3    H145344   0.538   4.805   6.142 -0.9890  0.8296 -0.6465
 7951TIP3    H245345   0.592   4.687   6.064 -2.8779  0.2245 -1.1021
 7952TIP3   OH245346   1.921   2.826  15.306  0.4686 -0.1588 -0.1951
 7952TIP3    H145347   1.837   2.872  15.313 -0.7949 -2.4404  0.5717
 7952TIP3    H245348   1.917   2.783  15.220  1.4399  0.7240 -0.7063
 7953TIP3   OH245349   0.997   3.787  14.458  0.1223 -0.4738  0.3652
 7953TIP3    H145350   0.932   3.838  14.409  0.4298 -1.3509 -1.0127
 7953TIP3    H245351   1.054   3.853  14.498  0.6752  0.3240 -1.6091
 7954TIP3   OH245352   3.182   2.970   4.951  0.2869 -0.1206 -0.1388
 7954TIP3    H145353   3.213   2.909   5.017  2.0103 -0.5023 -1.2379
 7954TIP3    H245354   3.163   2.916   4.874  0.8250  0.5868 -0.7895
 7955TIP3   OH245355   1.027   5.717  14.824 -0.3354 -0.4206  0.1773
 7955TIP3    H145356   0.983   5.759  14.750 -1.3110 -0.1459  0.8847
 7955TIP3    H245357   0.956   5.694  14.884  0.2517 -2.3134  0.2061
 7956TIP3   OH245358   3.435   3.333   6.476 -0.0438 -0.1936 -0.2255
 7956TIP3    H145359   3.515   3.382   6.490  0.2666 -0.5185 -0.8271
 7956TIP3    H245360   3.372   3.399   6.445  0.4263 -0.1885 -1.2245
 7957TIP3   OH245361   1.545   1.240   0.422 -0.9313 -0.6840  0.0603
 7957TIP3    H145362   1.488   1.312   0.449 -0.8044 -0.2340 -0.8562
 7957TIP3    H245363   1.599   1.222   0.499 -0.7787  0.3862  0.2115
 7958TIP3   OH245364   6.401   4.479   1.733 -0.3230  0.7477  0.0006
 7958TIP3    H145365   6.448   4.447   1.810  0.2054 -0.8191 -0.9270
 7958TIP3    H245366   6.333   4.536   1.768 -0.6510 -0.6127  1.6911
 7959TIP3   OH245367   3.006   6.050   2.542 -0.1271 -0.1360 -0.3073
 7959TIP3    H145368   2.922   6.063   2.587 -1.0504 -3.8810 -0.5819
 7959TIP3    H245369   2.982   6.039   2.450  0.3186 -2.9606 -0.1761
 7960TIP3   OH245370   5.071   3.124  12.971 -0.0034 -0.5522  0.1539
 7960TIP3    H145371   5.028   3.094  13.051 -0.4242  0.5919  0.3734
 7960TIP3    H245372   5.018   3.198  12.941  2.0404  1.2548  0.7144
 7961TIP3   OH245373   1.106   4.663   2.764  0.3931  0.2387 -0.5962
 7961TIP3    H145374   1.156   4.694   2.688 -0.6395  0.1724 -1.3296
 7961TIP3    H245375   1.125   4.569   2.768 -0.3303  0.0369 -1.4233
 7962TIP3   OH245376   6.509   3.905   5.271 -0.0102 -0.0522  0.8843
 7962TIP3    H145377   6.596   3.890   5.235 -0.1920 -0.3447  0.5629
 7962TIP3    H245378   6.506   3.851   5.350 -0.1270 -0.5473  0.5460
 7963TIP3   OH245379   5.242   2.079  13.247  0.1586  0.3243 -0.3228
 7963TIP3    H145380   5.169   2.139  13.260  0.1104  0.2740 -0.3630
 7963TIP3    H245381   5.245   2.027  13.328  1.4676  1.7347  0.5975
 7964TIP3   OH245382   2.110   5.560   4.841  0.0481  0.0659  0.3130
 7964TIP3    H145383   2.105   5.505   4.763  2.7676  0.3068 -0.1283
 7964TIP3    H245384   2.066   5.641   4.816  0.4796 -0.0365 -0.8337
 7965TIP3   OH245385   0.435   3.649   3.787 -0.2978 -0.1855 -0.5628
 7965TIP3    H145386   0.377   3.596   3.732 -1.7768 -1.2193  1.8719
 7965TIP3    H245387   0.382   3.673   3.862  1.3748  1.9680  0.0354
 7966TIP3   OH245388   5.225   3.584  13.844 -0.8419 -0.1497 -0.1496
 7966TIP3    H145389   5.278   3.504  13.844  0.1513  0.4837  0.9765
 7966TIP3    H245390   5.251   3.630  13.764 -1.3667 -0.8865 -0.7689
 7967TIP3   OH245391   0.617   1.562  12.257 -0.3809  0.1093  0.1678
 7967TIP3    H145392   0.568   1.586  12.335 -0.1485 -0.3995  0.4724
 7967TIP3    H245393   0.694   1.515  12.290 -1.2566 -1.8606 -0.4258
 7968TIP3   OH245394   0.782   6.013  11.854 -0.4411 -0.1299  0.4840
 7968TIP3    H145395   0.713   6.079  11.864  0.3489  0.7142  0.5358
 7968TIP3    H245396   0.758   5.965  11.774 -0.6751  0.6822  0.0541
 7969TIP3   OH245397   1.335   0.822   0.733  0.0087  0.3586 -0.3857
 7969TIP3    H145398   1.298   0.743   0.773  2.3384 -0.1113  1.0344
 7969TIP3    H245399   1.323   0.891   0.799 -1.1309  0.9756 -1.2152
 7970TIP3   OH245400   1.475   1.052  15.689  0.0275 -0.2743  0.2064
 7970TIP3    H145401   1.396   1.005  15.662 -0.4880 -1.9148  3.8667
 7970TIP3    H245402   1.442   1.132  15.730  0.5418  0.6660 -1.1750
 7971TIP3   OH245403   5.826   1.219  15.507 -0.1000  0.4175  0.4037
 7971TIP3    H145404   5.740   1.192  15.475  0.5156 -2.3542  0.7990
 7971TIP3    H245405   5.812   1.244  15.598 -0.2278 -2.2447  1.1929
 7972TIP3   OH245406   4.240   1.707   4.171 -0.2352  0.0340  0.1953
 7972TIP3    H145407   4.324   1.753   4.167 -0.4919  0.5084  0.2805
 7972TIP3    H245408   4.231   1.684   4.264 -1.2198  1.8931  0.5931
 7973TIP3   OH245409   1.773   5.712   5.023 -0.2192 -0.2546  0.2280
 7973TIP3    H145410   1.841   5.657   5.061  0.0326  0.0405  0.2124
 7973TIP3    H245411   1.819   5.770   4.962 -0.3035  0.7103  1.0415
 7974TIP3   OH245412   6.239   3.451  15.688 -0.1114  0.1211 -0.3340
 7974TIP3    H145413   6.159   3.492  15.654  0.2090 -0.3758 -1.7261
 7974TIP3    H245414   6.235   3.360  15.659  1.6665  0.4362 -1.7271
 7975TIP3   OH245415   5.825   5.517  17.389  0.2729 -0.7156 -0.1152
 7975TIP3    H145416   5.915   5.518  17.357  0.5487  0.8134  0.5925
 7975TIP3    H245417   5.828   5.568  17.471 -1.1235 -1.1188  0.2147
 7976TIP3   OH245418   2.563   0.744  16.637  0.4393 -0.0480 -0.2491
 7976TIP3    H145419   2.509   0.737  16.558 -0.6222  1.1957  0.3356
 7976TIP3    H245420   2.612   0.661  16.640 -0.9579 -0.9419 -1.1509
 7977TIP3   OH245421   0.263   4.893   1.237  0.6543 -0.6981  0.3421
 7977TIP3    H145422   0.209   4.969   1.215  2.1247  0.4916  0.7185
 7977TIP3    H245423   0.249   4.832   1.164 -0.5229 -0.0697  0.0170
 7978TIP3   OH245424   5.426   5.778  14.647 -0.0740  0.3820 -0.3333
 7978TIP3    H145425   5.474   5.724  14.709 -0.8474 -0.8926 -0.7917
 7978TIP3    H245426   5.334   5.771  14.674 -0.3554  0.2871 -1.2590
 7979TIP3   OH245427   1.016   3.958   0.364 -0.2634  0.1732 -0.5665
 7979TIP3    H145428   1.004   3.874   0.320 -0.9148 -0.2646  0.4142
 7979TIP3    H245429   1.071   3.938   0.439 -1.7696  0.2689  0.6184
 7980TIP3   OH245430   4.748   1.038   5.800 -0.0304 -0.0030 -0.0492
 7980TIP3    H145431   4.838   1.008   5.787  0.0755 -0.6881  1.8289
 7980TIP3    H245432   4.756   1.131   5.822  0.3749 -0.3281  1.2848
 7981TIP3   OH245433   1.668   1.515   5.344  0.1261  0.2320  0.2451
 7981TIP3    H145434   1.621   1.531   5.426  0.5229  2.3251  0.1071
 7981TIP3    H245435   1.599   1.493   5.281 -0.2763 -0.3857  0.8892
 7982TIP3   OH245436   6.387   4.590   4.774 -0.4335 -0.0053 -0.0169
 7982TIP3    H145437   6.361   4.577   4.683  0.2128  0.0530 -0.2127
 7982TIP3    H245438   6.437   4.512   4.797  0.0432  0.3167  0.0500
 7983TIP3   OH245439   3.757   3.729   1.380 -0.0369  0.2943 -0.4455
 7983TIP3    H145440   3.812   3.807   1.373  1.3024 -0.4227  1.1522
 7983TIP3    H245441   3.819   3.657   1.390 -1.1573 -0.3862  2.9973
 7984TIP3   OH245442   5.716   4.903  11.526  0.0193  0.0116 -0.1219
 7984TIP3    H145443   5.652   4.966  11.493 -2.0627 -1.1996  1.4074
 7984TIP3    H245444   5.767   4.952  11.591  0.9302  1.0636 -1.5582
 7985TIP3   OH245445   3.472   4.615   3.600  0.6763  0.1163 -0.0042
 7985TIP3    H145446   3.446   4.673   3.672  0.3708  0.2994 -0.2595
 7985TIP3    H245447   3.567   4.608   3.608  0.7889  1.1470 -0.3402
 7986TIP3   OH245448   5.920   0.197   1.385 -0.1541 -0.0965  0.1030
 7986TIP3    H145449   5.969   0.139   1.443  1.7029  0.0706 -1.2077
 7986TIP3    H245450   5.876   0.258   1.444  2.4467  0.6960  1.3873
 7987TIP3   OH245451   3.443   6.761  12.891  0.0422  0.0170 -0.6583
 7987TIP3    H145452   3.439   6.838  12.948  1.3237 -1.4920  1.6075
 7987TIP3    H245453   3.516   6.779  12.832 -1.2042  1.5317 -1.8251
 7988TIP3   OH245454   1.052   0.642   5.898  0.3565 -0.8381 -0.1039
 7988TIP3    H145455   1.095   0.564   5.862 -1.8504 -1.0101 -2.6551
 7988TIP3    H245456   0.966   0.611   5.927  1.0209 -0.1087  2.9963
 7989TIP3   OH245457   2.584   0.958  14.691  0.2343 -0.2532  0.1810
 7989TIP3    H145458   2.561   1.051  14.680 -0.8221 -0.5558 -0.2791
 7989TIP3    H245459   2.677   0.959  14.714  0.0551  0.9601  0.9279
 7990TIP3   OH245460   2.889   5.996  15.789 -0.8228 -0.0370  0.3446
 7990TIP3    H145461   2.794   5.984  15.789 -0.8241 -0.0457 -0.1153
 7990TIP3    H245462   2.918   5.955  15.870 -1.1206 -0.7639  0.0928
 7991TIP3   OH245463   6.576   0.171  12.381  0.1395 -0.2548 -0.2388
 7991TIP3    H145464   6.482   0.164  12.363 -0.3761  3.2281  0.4208
 7991TIP3    H245465   6.590   0.116  12.458 -1.2315 -1.1471 -0.5923
 7992TIP3   OH245466   0.583   5.284   5.437  0.6712  0.0694  0.4653
 7992TIP3    H145467   0.581   5.338   5.359  0.0337  0.4415  0.7323
 7992TIP3    H245468   0.496   5.293   5.475  0.1587 -2.0672 -0.1043
 7993TIP3   OH245469   6.161   0.748   4.416  0.3834  0.3599 -0.3518
 7993TIP3    H145470   6.111   0.667   4.416 -1.1558  1.2632 -0.4293
 7993TIP3    H245471   6.234   0.732   4.476 -0.1518 -0.9121 -0.0177
 7994TIP3   OH245472   0.034   0.015   3.456  0.5008  0.0308  0.4334
 7994TIP3    H145473  -0.015   0.081   3.505 -0.6810 -0.8278  0.4553
 7994TIP3    H245474  -0.028  -0.057   3.445  1.1764 -0.3314 -1.1863
 7995TIP3   OH245475   1.030   5.222   5.548 -0.5018 -0.4404 -0.0780
 7995TIP3    H145476   1.122   5.200   5.535 -0.4764  0.5708 -2.0508
 7995TIP3    H245477   0.983   5.171   5.482 -1.3725 -0.9298  0.8947
 7996TIP3   OH245478   5.416   3.271  16.678  0.0496  0.5582  0.0907
 7996TIP3    H145479   5.495   3.223  16.702  0.7255  1.2003 -0.7721
 7996TIP3    H245480   5.421   3.278  16.582 -0.6898  1.2149  0.0906
 7997TIP3   OH245481   2.697   6.046  15.437 -0.2261 -0.2463 -0.7165
 7997TIP3    H145482   2.684   6.123  15.382  0.4241  1.5407  1.4831
 7997TIP3    H245483   2.786   6.055  15.470  0.0088 -2.1993 -0.7146
 7998TIP3   OH245484   4.803   5.915   5.517  0.3749  0.6147  0.8809
 7998TIP3    H145485   4.755   5.840   5.551  1.7986 -0.8158 -0.1399
 7998TIP3    H245486   4.767   5.990   5.565 -3.5279 -0.1665 -0.4270
 7999TIP3   OH245487   6.056   0.288  15.930  0.1973 -0.4121  0.8820
 7999TIP3    H145488   6.021   0.361  15.981  0.7540 -0.9245  2.0455
 7999TIP3    H245489   6.149   0.286  15.951  0.6336 -0.0981 -0.8799
 8000TIP3   OH245490   6.424   5.331  14.866 -0.0015 -0.0769  0.0186
 8000TIP3    H145491   6.331   5.351  14.855  0.3007  1.0940 -0.6128
 8000TIP3    H245492   6.447   5.365  14.952  0.2020  1.1798 -0.5075
 8001TIP3   OH245493   5.921   1.130   3.300 -0.3990 -0.1593  0.1466
 8001TIP3    H145494   5.974   1.060   3.339 -2.4643 -0.6896  2.2239
 8001TIP3    H245495   5.953   1.210   3.340  1.3444  0.0598 -1.5392
 8002TIP3   OH245496   6.075   0.466  14.914 -0.1502  0.2030  0.4251
 8002TIP3    H145497   5.980   0.473  14.919 -0.1665 -0.4601  1.4524
 8002TIP3    H245498   6.091   0.408  14.840 -0.5038  0.9637 -0.2587
 8003TIP3   OH245499   5.821   5.610  15.163  0.1067 -0.4298 -0.8016
 8003TIP3    H145500   5.841   5.655  15.081 -0.3253  1.9632  0.3250
 8003TIP3    H245501   5.831   5.677  15.231 -4.1740 -0.9357  0.6355
 8004TIP3   OH245502   3.856   6.665   3.320  0.4446 -0.9207 -0.3844
 8004TIP3    H145503   3.902   6.602   3.375  2.4405 -0.3849 -1.3507
 8004TIP3    H245504   3.892   6.651   3.232 -0.2912  0.4367 -0.9371
 8005TIP3   OH245505   4.343   6.289  13.069 -0.5122  0.1196  0.2749
 8005TIP3    H145506   4.398   6.316  12.996 -0.1419 -0.5732  0.2874
 8005TIP3    H245507   4.256   6.325  13.049 -0.8291 -1.4083 -1.3319
 8006TIP3   OH245508   6.042   4.605  16.886  0.0655 -0.3378 -0.1494
 8006TIP3    H145509   6.084   4.519  16.878  0.2032 -0.1202 -2.3449
 8006TIP3    H245510   5.967   4.590  16.944 -1.4112 -2.5791 -2.4518
 8007TIP3   OH245511   1.582   2.835  16.108  0.0854 -0.1294  0.7361
 8007TIP3    H145512   1.494   2.851  16.140  0.5753 -0.4359  2.3114
 8007TIP3    H245513   1.617   2.767  16.166 -0.1026 -3.2162 -2.4180
 8008TIP3   OH245514   2.183   5.620   1.728 -0.1940  0.3035 -0.1733
 8008TIP3    H145515   2.221   5.684   1.788  0.7581 -1.1863  0.8703
 8008TIP3    H245516   2.243   5.617   1.654  1.6513 -1.7447  1.2843
 8009TIP3   OH245517   0.830   4.026  13.253 -1.1695  0.2146 -0.3263
 8009TIP3    H145518   0.807   4.015  13.161 -0.5038 -0.9955 -0.3603
 8009TIP3    H245519   0.802   3.945  13.295  0.5959 -0.1939  0.1115
 8010TIP3   OH245520   3.182   3.394   4.572  0.4874  0.3844 -0.3426
 8010TIP3    H145521   3.269   3.357   4.589 -0.1536 -0.0520  2.4529
 8010TIP3    H245522   3.129   3.320   4.544  0.7911  0.4947 -1.2373
 8011TIP3   OH245523   3.292   2.214  17.259  0.0452  0.3065  0.6417
 8011TIP3    H145524   3.283   2.119  17.265 -2.9566  0.5060  0.8167
 8011TIP3    H245525   3.368   2.228  17.204  0.2379 -2.2069  0.1749
 8012TIP3   OH245526   0.008   3.285  13.855 -0.6162 -0.1374  0.5160
 8012TIP3    H145527   0.084   3.309  13.802 -0.3651 -1.0747  0.4341
 8012TIP3    H245528  -0.036   3.368  13.873  0.4022  0.4146  0.5313
 8013TIP3   OH245529   3.800   2.468   1.500  0.2300  0.0200 -0.3331
 8013TIP3    H145530   3.734   2.470   1.569 -0.9001 -1.1157 -1.3437
 8013TIP3    H245531   3.838   2.380   1.506  0.0924 -0.1021 -1.1810
 8014TIP3   OH245532   5.828   3.380   2.330 -0.2638 -0.5117  0.4899
 8014TIP3    H145533   5.841   3.292   2.293  0.5653 -0.3289  0.3299
 8014TIP3    H245534   5.796   3.432   2.256  2.7138  0.2012 -0.4413
 8015TIP3   OH245535   2.050   3.644  14.732  0.9497  0.6354  0.3997
 8015TIP3    H145536   1.992   3.599  14.672 -0.5556  2.8984  0.0463
 8015TIP3    H245537   2.120   3.581  14.750 -1.4450 -2.1644  0.6952
 8016TIP3   OH245538   2.984   0.727  11.885  0.0778  0.7677  0.1558
 8016TIP3    H145539   3.052   0.660  11.895 -0.4100  0.4933  2.1702
 8016TIP3    H245540   2.921   0.688  11.825  0.5211  0.0277  0.1537
 8017TIP3   OH245541   6.199   4.430  16.122  0.1590  0.3918 -0.1068
 8017TIP3    H145542   6.141   4.406  16.195  1.2701 -2.9729 -0.1353
 8017TIP3    H245543   6.245   4.508  16.153 -0.9570  0.3311  1.8785
 8018TIP3   OH245544   4.950   4.350  12.627  0.2100  0.3591  0.1580
 8018TIP3    H145545   4.901   4.343  12.709 -1.2716 -0.6591 -0.7601
 8018TIP3    H245546   5.025   4.291  12.638 -1.4784 -1.9855 -0.1953
 8019TIP3   OH245547   3.419   0.302   4.535 -0.4731 -0.0071 -0.4264
 8019TIP3    H145548   3.457   0.242   4.471  1.3007  1.6130 -0.9881
 8019TIP3    H245549   3.488   0.367   4.552 -1.8327  1.1382  1.1304
 8020TIP3   OH245550   1.609   2.924  12.840 -0.1213  0.1520  0.6930
 8020TIP3    H145551   1.551   2.864  12.886  0.3501 -1.5948 -0.9012
 8020TIP3    H245552   1.696   2.884  12.846 -0.3524 -1.5172 -3.6012
 8021TIP3   OH245553   1.542   4.607  11.887  0.4524  0.7124  0.3567
 8021TIP3    H145554   1.556   4.674  11.820 -1.7072  1.1367  0.2406
 8021TIP3    H245555   1.539   4.656  11.969 -0.5482  0.7249  0.3323
 8022TIP3   OH245556   4.517   3.882  14.550 -0.0471 -0.5415  0.0975
 8022TIP3    H145557   4.447   3.910  14.491  0.6511  1.3945  0.1349
 8022TIP3    H245558   4.476   3.814  14.604 -2.0458  0.8339  0.4353
 8023TIP3   OH245559   2.712   4.659   0.245 -0.8999 -0.0355 -0.1262
 8023TIP3    H145560   2.666   4.575   0.256 -4.3725  1.7124 -0.0714
 8023TIP3    H245561   2.669   4.700   0.170  0.0730  2.0865  0.4032
 8024TIP3   OH245562   1.779   0.240   3.440  0.7068 -0.6313 -0.6645
 8024TIP3    H145563   1.756   0.155   3.478 -1.2723 -0.3878 -1.2102
 8024TIP3    H245564   1.759   0.230   3.346 -1.1294  0.8788 -0.5073
 8025TIP3   OH245565   4.025   5.378  13.420  0.1640  0.1609  0.1635
 8025TIP3    H145566   3.981   5.294  13.434 -0.3712  0.3293 -0.4426
 8025TIP3    H245567   4.040   5.381  13.325 -1.0502  1.3387 -0.0218
 8026TIP3   OH245568   2.783   1.505   2.988  0.3151  0.4482 -0.4737
 8026TIP3    H145569   2.806   1.429   3.040 -0.6524  0.0542 -0.5895
 8026TIP3    H245570   2.725   1.556   3.044 -1.9390 -0.7207 -1.6113
 8027TIP3   OH245571   4.354   6.073   6.450  0.3258  0.3877  0.6098
 8027TIP3    H145572   4.273   6.046   6.405  1.5764 -1.0138 -0.9437
 8027TIP3    H245573   4.419   6.077   6.380  1.9711 -0.1075  2.0515
 8028TIP3   OH245574   5.862   4.895   4.313 -0.3570 -0.1035  0.1149
 8028TIP3    H145575   5.803   4.821   4.329  1.5530 -1.7322 -0.0077
 8028TIP3    H245576   5.950   4.858   4.322  0.7737  2.7777  3.0276
 8029TIP3   OH245577   4.251   0.880  14.101 -0.4888  0.0465 -0.0488
 8029TIP3    H145578   4.256   0.856  14.008 -0.0793  0.0668 -0.0346
 8029TIP3    H245579   4.298   0.809  14.146  0.3685  0.6472  0.0337
 8030TIP3   OH245580   4.902   4.015   2.997  0.2090  0.1815  1.4313
 8030TIP3    H145581   4.869   3.970   2.919 -0.0139  3.1982 -0.3888
 8030TIP3    H245582   4.906   3.947   3.065 -1.2335 -2.2126 -0.7161
 8031TIP3   OH245583   6.492   3.401  13.978 -0.3393 -0.0548 -0.1668
 8031TIP3    H145584   6.476   3.404  14.072 -1.2743  1.8590 -0.3471
 8031TIP3    H245585   6.417   3.355  13.942 -0.2744 -0.2602 -0.0416
 8032TIP3   OH245586   5.988   1.652  15.219 -0.0832 -0.1798 -0.9087
 8032TIP3    H145587   6.014   1.561  15.235 -1.0250 -0.1320  1.1800
 8032TIP3    H245588   6.069   1.702  15.233 -0.3290 -0.3909  1.7534
 8033TIP3   OH245589   5.894   0.755  16.309  0.3084  0.2950  0.5697
 8033TIP3    H145590   5.936   0.674  16.280  0.3758  0.4419  0.2466
 8033TIP3    H245591   5.887   0.746  16.404  3.3272  1.2723  1.0091
 8034TIP3   OH245592   3.513   3.360  17.338  0.0716  1.0763  0.3534
 8034TIP3    H145593   3.438   3.368  17.397  0.0614  2.0178  0.2249
 8034TIP3    H245594   3.546   3.449  17.328  0.4158  0.8560 -0.6216
 8035TIP3   OH245595   2.823   3.554   4.388  0.7442 -0.1431  0.4037
 8035TIP3    H145596   2.848   3.624   4.328  0.6621  0.1865  0.7519
 8035TIP3    H245597   2.806   3.479   4.332  4.4220 -1.0160  0.2069
 8036TIP3   OH245598   5.124   5.839  11.842 -0.0923  0.2292  0.2403
 8036TIP3    H145599   5.120   5.924  11.799  0.3166 -1.4595 -3.5083
 8036TIP3    H245600   5.211   5.837  11.883 -0.1346  1.5748  0.4396
 8037TIP3   OH245601   4.199   5.870   3.963  0.4387  0.3813 -0.3221
 8037TIP3    H145602   4.251   5.912   4.032 -0.2840  1.7716 -0.5782
 8037TIP3    H245603   4.191   5.938   3.896 -0.5849 -0.2548 -0.8581
 8038TIP3   OH245604   3.292   2.965  12.266  0.5446 -0.3663 -0.2358
 8038TIP3    H145605   3.273   2.882  12.310  1.0579  0.4474  1.6076
 8038TIP3    H245606   3.386   2.977  12.276  0.4382  0.5618 -0.2141
 8039TIP3   OH245607   2.724   6.478   5.721 -0.4097  0.2557  0.0666
 8039TIP3    H145608   2.650   6.538   5.709 -0.8582  0.2750  2.5147
 8039TIP3    H245609   2.711   6.441   5.808  2.3334  0.0331  0.4579
 8040TIP3   OH245610   1.007   6.359  11.282  0.3979 -0.4353  0.0977
 8040TIP3    H145611   1.017   6.391  11.371 -0.7495 -0.6245  0.3080
 8040TIP3    H245612   1.016   6.438  11.227 -1.5969  0.1649  0.5620
 8041TIP3   OH245613   2.588   5.565  14.480  0.6458  0.2840 -0.2153
 8041TIP3    H145614   2.661   5.617  14.514  0.3567  1.3622 -1.1912
 8041TIP3    H245615   2.516   5.627  14.470  0.3250 -0.2587 -1.5106
 8042TIP3   OH245616   2.324   3.746   5.928 -0.4691 -0.1668  0.7524
 8042TIP3    H145617   2.243   3.794   5.911 -0.1698  0.9351  2.1561
 8042TIP3    H245618   2.393   3.808   5.904 -0.0339 -0.8840  0.1132
 8043TIP3   OH245619   3.434   5.654   6.225  0.0273 -0.2207 -0.0097
 8043TIP3    H145620   3.405   5.624   6.139 -0.6687 -2.4052  0.9362
 8043TIP3    H245621   3.354   5.653   6.278  0.6100  0.3142  0.8849
 8044TIP3   OH245622   1.058   1.339   5.549  0.4240 -0.0793 -0.0024
 8044TIP3    H145623   1.101   1.268   5.502 -0.7418 -1.5702  1.0599
 8044TIP3    H245624   1.078   1.323   5.641  2.7185  2.8216  0.1439
 8045TIP3   OH245625   5.617   5.103  14.373 -0.4724  0.0923  0.6527
 8045TIP3    H145626   5.694   5.072  14.325  0.8560  2.4090  1.1356
 8045TIP3    H245627   5.581   5.024  14.413  1.5866 -1.0971  0.3218
 8046TIP3   OH245628   4.143   4.450   3.912 -0.0142 -0.6999 -0.1183
 8046TIP3    H145629   4.139   4.370   3.964 -1.8290 -0.6336 -0.1002
 8046TIP3    H245630   4.117   4.519   3.973  2.6334  0.1341  0.1886
 8047TIP3   OH245631   0.568   5.959   4.745  0.3466  0.6963  1.2198
 8047TIP3    H145632   0.476   5.941   4.762 -0.4281 -0.6080 -3.1114
 8047TIP3    H245633   0.572   6.054   4.729  0.0504  0.9386  2.4669
 8048TIP3   OH245634   5.385   0.945  15.992  0.0650 -0.2819 -0.2460
 8048TIP3    H145635   5.295   0.976  15.995 -0.1048 -0.8256  1.7099
 8048TIP3    H245636   5.438   1.023  16.012 -0.1504 -0.4661  1.1402
 8049TIP3   OH245637   2.649   3.042  12.655  0.3478 -0.5682 -0.7469
 8049TIP3    H145638   2.721   2.980  12.667  0.8274 -0.0419 -0.8238
 8049TIP3    H245639   2.691   3.128  12.663 -0.2749 -0.2556 -0.8040
 8050TIP3   OH245640   3.538   0.650   5.313 -0.1083 -0.1703  0.2478
 8050TIP3    H145641   3.478   0.710   5.267  2.0869  3.1340  1.2746
 8050TIP3    H245642   3.618   0.653   5.261  0.5843 -0.8987  1.2529
 8051TIP3   OH245643   2.949   3.099  15.924 -0.5087  0.4956 -0.2843
 8051TIP3    H145644   3.024   3.103  15.864 -0.5058  0.2477 -0.2996
 8051TIP3    H245645   2.913   3.188  15.924 -2.2214 -0.0826 -2.8669
 8052TIP3   OH245646   4.495   2.907   4.785  0.4922 -0.7352  0.4799
 8052TIP3    H145647   4.581   2.924   4.746  0.7129 -0.9357  0.8734
 8052TIP3    H245648   4.514   2.882   4.876 -0.0655  0.9255  1.1105
 8053TIP3   OH245649   1.258   6.382  14.164  0.5893 -0.1008  0.3150
 8053TIP3    H145650   1.237   6.342  14.248 -1.1185  2.0419  1.0153
 8053TIP3    H245651   1.237   6.475  14.175  0.5835  0.3225 -2.3943
 8054TIP3   OH245652   3.663   0.290   2.961  0.6665  0.3561 -0.4559
 8054TIP3    H145653   3.754   0.290   2.990  0.4956 -0.4899  0.1191
 8054TIP3    H245654   3.611   0.304   3.040  0.1936 -2.1681 -0.2203
 8055TIP3   OH245655   1.652   3.648   4.800 -0.1384 -0.9019 -0.2122
 8055TIP3    H145656   1.672   3.712   4.868 -0.1450 -0.9005 -0.2114
 8055TIP3    H245657   1.631   3.701   4.723  0.7029 -0.9058 -0.4553
 8056TIP3   OH245658   2.577   2.149  15.653  0.1190 -0.3202 -0.8057
 8056TIP3    H145659   2.641   2.130  15.722 -0.5460 -2.9192 -0.8035
 8056TIP3    H245660   2.600   2.089  15.582 -1.0359  0.1864 -1.6412
 8057TIP3   OH245661   4.497   6.396  12.566 -0.8306  0.0192  0.2723
 8057TIP3    H145662   4.468   6.470  12.618 -0.6282  0.5314 -0.3213
 8057TIP3    H245663   4.427   6.383  12.502 -0.7713 -0.1689  0.2462
 8058TIP3   OH245664   5.767   2.477   2.084  0.4397 -0.8905 -0.5838
 8058TIP3    H145665   5.817   2.542   2.133 -0.6516 -0.1252 -0.4428
 8058TIP3    H245666   5.824   2.451   2.012  0.1157  1.8547 -1.9567
 8059TIP3   OH245667   6.672   0.207   2.819 -0.4999  0.4458  0.3948
 8059TIP3    H145668   6.726   0.229   2.743 -2.1713  0.4603 -0.8483
 8059TIP3    H245669   6.647   0.116   2.806  0.7104 -0.1390  1.9281
 8060TIP3   OH245670   4.104   3.744  14.994 -0.0275 -0.0331  0.9253
 8060TIP3    H145671   4.018   3.730  14.954  0.0608  1.3966  0.1611
 8060TIP3    H245672   4.166   3.711  14.930  0.0094 -1.2000  1.5401
 8061TIP3   OH245673   3.645   0.053  15.601  0.2987  0.2263  0.5548
 8061TIP3    H145674   3.655   0.098  15.517 -0.9574  0.5369  0.5461
 8061TIP3    H245675   3.566   0.092  15.640 -0.1851 -1.1709  1.0477
 8062TIP3   OH245676   4.135   4.328  16.891  0.4252  0.0863 -0.7098
 8062TIP3    H145677   4.175   4.403  16.934  1.0065 -0.4509 -0.2929
 8062TIP3    H245678   4.165   4.252  16.942 -1.9707 -0.2804  0.2842
 8063TIP3   OH245679   3.270   6.506   1.506 -0.3751 -0.3708  0.2212
 8063TIP3    H145680   3.312   6.437   1.559 -3.1686 -1.5915  1.0744
 8063TIP3    H245681   3.299   6.588   1.546  1.3545 -1.1054  0.5566
 8064TIP3   OH245682   1.082   0.120  12.540 -0.5206  0.1080  0.5547
 8064TIP3    H145683   1.048   0.199  12.500  0.0736  0.2550  0.3311
 8064TIP3    H245684   1.021   0.101  12.611 -0.5684  0.8678  0.7273
 8065TIP3   OH245685   0.176   4.005  16.856 -0.3843 -0.1674  0.2439
 8065TIP3    H145686   0.205   3.968  16.940 -1.1591 -1.0699  0.1274
 8065TIP3    H245687   0.116   3.939  16.821 -2.4480  1.5557  0.3775
 8066TIP3   OH245688   3.144   4.908  15.702  0.7530 -0.0125 -0.0156
 8066TIP3    H145689   3.158   4.882  15.611  0.7125  0.3774 -0.1390
 8066TIP3    H245690   3.225   4.885  15.747  0.8485 -0.0279 -0.1949
 8067TIP3   OH245691   6.157   5.394  14.472  0.0715 -0.5441  0.2862
 8067TIP3    H145692   6.125   5.373  14.384 -1.6248 -1.1101  1.0147
 8067TIP3    H245693   6.238   5.343  14.481 -0.0939 -0.9951 -0.6877
 8068TIP3   OH245694   2.498   6.188   3.727  0.1944 -0.4329  0.2535
 8068TIP3    H145695   2.528   6.278   3.716 -1.0574 -0.1537 -1.2268
 8068TIP3    H245696   2.579   6.136   3.722  0.7553  0.4834 -0.7720
 8069TIP3   OH245697   0.376   1.376  12.919 -0.7004  0.3399 -0.0524
 8069TIP3    H145698   0.422   1.305  12.875  0.6089  0.7121  0.6727
 8069TIP3    H245699   0.332   1.334  12.993  1.2260  0.4298  1.2228
 8070TIP3   OH245700   1.688   0.211  15.767 -0.7963 -0.2302  0.1110
 8070TIP3    H145701   1.600   0.210  15.728 -0.2452  1.2527 -1.2993
 8070TIP3    H245702   1.702   0.121  15.796 -2.0380 -0.9699 -1.3795
 8071TIP3   OH245703   2.027   1.504  12.305 -0.2419 -0.5386 -0.5815
 8071TIP3    H145704   2.108   1.493  12.355 -0.7641  0.7910  0.6341
 8071TIP3    H245705   2.011   1.418  12.267  2.5020 -0.4730 -2.1039
 8072TIP3   OH245706   2.709   2.559  15.063  0.1243 -0.4642 -0.4053
 8072TIP3    H145707   2.619   2.527  15.057 -0.0609 -0.1302  0.4875
 8072TIP3    H245708   2.703   2.652  15.043  0.0761 -0.1797  0.8441
 8073TIP3   OH245709   1.713   2.894   1.098 -0.2895  0.0310  0.1154
 8073TIP3    H145710   1.623   2.926   1.102  0.3552  2.0158 -0.0198
 8073TIP3    H245711   1.733   2.864   1.186 -1.0702 -0.4216  0.1438
 8074TIP3   OH245712   2.140   3.345   2.289 -0.0957 -0.2140 -0.5197
 8074TIP3    H145713   2.204   3.352   2.217  0.3526  0.3283 -0.0804
 8074TIP3    H245714   2.189   3.304   2.360 -1.0970 -2.6632 -1.1453
 8075TIP3   OH245715   0.105   2.226   5.349 -0.5053  0.2584  0.1786
 8075TIP3    H145716   0.075   2.274   5.272  1.1754 -1.1857 -1.4747
 8075TIP3    H245717   0.060   2.142   5.344  0.8694 -0.4786 -0.2124
 8076TIP3   OH245718   6.284   3.386   1.216 -0.6203  0.2518 -0.2464
 8076TIP3    H145719   6.270   3.403   1.309 -2.3955 -1.0605 -0.2081
 8076TIP3    H245720   6.230   3.451   1.171 -0.3367  0.4263 -0.3326
 8077TIP3   OH245721   3.590   6.196   5.962 -0.0054 -0.8260  0.1770
 8077TIP3    H145722   3.531   6.121   5.968  1.4100 -2.1054 -1.0201
 8077TIP3    H245723   3.630   6.189   5.875  2.1421 -0.2279  1.0347
 8078TIP3   OH245724   3.236   6.120   5.152 -0.0784 -0.7977  0.2077
 8078TIP3    H145725   3.276   6.204   5.128  0.0835 -0.7955  0.4722
 8078TIP3    H245726   3.142   6.133   5.142 -0.0190 -0.7730 -0.3354
 8079TIP3   OH245727   6.288   2.456  14.142  0.0875  0.9697 -0.3255
 8079TIP3    H145728   6.310   2.393  14.073  1.0514  1.8942 -0.9000
 8079TIP3    H245729   6.199   2.485  14.121 -0.8278 -0.9592  0.5781
 8080TIP3   OH245730   2.370   1.496   2.570  0.4039 -0.4992 -0.3718
 8080TIP3    H145731   2.409   1.413   2.599 -0.1255 -0.2484  1.1271
 8080TIP3    H245732   2.321   1.473   2.490  0.8184 -1.4813 -0.3535
 8081TIP3   OH245733   2.912   5.284   4.357 -0.4444  0.3423  1.1326
 8081TIP3    H145734   2.967   5.230   4.299  0.5307 -0.2584  2.5478
 8081TIP3    H245735   2.971   5.353   4.387 -0.4864 -0.1909  2.5137
 8082TIP3   OH245736   4.658   0.704  14.744  0.1019  0.1041  0.2256
 8082TIP3    H145737   4.608   0.639  14.794 -1.2917 -0.7933 -2.1811
 8082TIP3    H245738   4.750   0.678  14.757 -0.2487 -0.5198  1.6880
 8083TIP3   OH245739   6.307   0.194  16.014 -0.6026 -0.2735  0.1912
 8083TIP3    H145740   6.305   0.209  16.108  2.2326 -0.3371  0.3436
 8083TIP3    H245741   6.378   0.249  15.982 -2.8031  1.4337 -2.3203
 8084TIP3   OH245742   5.307   3.640   0.024 -0.0908 -0.1140 -0.1210
 8084TIP3    H145743   5.327   3.555   0.062  0.0466 -0.5972 -1.2423
 8084TIP3    H245744   5.388   3.690   0.034  0.6971 -0.9862 -1.7383
 8085TIP3   OH245745   4.956   3.261   2.545  0.3792  0.1264 -0.1102
 8085TIP3    H145746   4.927   3.344   2.581 -1.0683 -0.4762  0.1581
 8085TIP3    H245747   5.045   3.279   2.513  0.5651  1.4390  1.0422
 8086TIP3   OH245748   0.981   1.872  16.671  0.3345  0.0791 -0.2076
 8086TIP3    H145749   0.965   1.863  16.765 -0.1128 -1.1869 -0.3797
 8086TIP3    H245750   1.052   1.811  16.652 -0.7848 -1.0497 -0.9741
 8087TIP3   OH245751   0.627   0.919  13.178 -0.3660 -0.5891 -0.0474
 8087TIP3    H145752   0.701   0.884  13.127 -1.3029  0.6261 -2.4279
 8087TIP3    H245753   0.554   0.860  13.158 -0.2720 -1.3378  1.6771
 8088TIP3   OH245754   0.712   4.659  14.599 -0.2834  0.4153 -0.0402
 8088TIP3    H145755   0.766   4.587  14.566 -1.9463 -0.5236 -0.8200
 8088TIP3    H245756   0.773   4.732  14.608  1.1300 -0.6141 -0.8051
 8089TIP3   OH245757   3.815   6.487  13.475  0.1412 -0.0930 -0.6296
 8089TIP3    H145758   3.842   6.401  13.442  1.9844  0.1594  0.0914
 8089TIP3    H245759   3.876   6.549  13.435  0.8341  0.5057  1.2561
 8090TIP3   OH245760   6.188   4.707  12.783 -0.1496 -0.2479 -0.0506
 8090TIP3    H145761   6.241   4.782  12.754 -0.4884 -0.5506 -1.5410
 8090TIP3    H245762   6.203   4.703  12.877  1.0136  0.8109 -0.1514
 8091TIP3   OH245763   6.105   5.183  16.596 -0.4841 -0.1098  0.3819
 8091TIP3    H145764   6.111   5.243  16.522  1.4338 -0.6858  0.0265
 8091TIP3    H245765   6.081   5.099  16.557 -2.2015  0.1463  0.7741
 8092TIP3   OH245766   2.589   4.680   3.850  0.0745 -0.5841  0.0512
 8092TIP3    H145767   2.551   4.685   3.938 -1.2927 -0.6243 -0.5148
 8092TIP3    H245768   2.633   4.765   3.839  0.5644 -0.7116  0.8931
 8093TIP3   OH245769   2.579   6.731   3.286 -0.2274  0.3771  0.2200
 8093TIP3    H145770   2.601   6.715   3.378 -1.3964  0.1460  0.4815
 8093TIP3    H245771   2.654   6.699   3.237  0.8575  1.4412  1.1353
 8094TIP3   OH245772   2.871   2.702  15.239 -0.1570  0.1640 -0.0519
 8094TIP3    H145773   2.832   2.638  15.180  0.8512  0.4307 -1.0583
 8094TIP3    H245774   2.910   2.650  15.309 -0.2234 -0.2515 -0.3193
 8095TIP3   OH245775   4.868   6.366   5.798 -0.2885  0.3554 -0.5092
 8095TIP3    H145776   4.869   6.304   5.871  0.6346 -0.0680 -0.8646
 8095TIP3    H245777   4.939   6.337   5.741  0.3407  1.8958 -0.5543
 8096TIP3   OH245778   3.602   5.549  12.938  0.0145 -0.2271  0.2408
 8096TIP3    H145779   3.638   5.623  12.889 -0.2680 -0.4051 -0.2405
 8096TIP3    H245780   3.678   5.504  12.974  0.1722  0.6549  1.0785
 8097TIP3   OH245781   2.523   6.528  15.010  0.5998 -0.3453  0.0276
 8097TIP3    H145782   2.587   6.489  15.070  0.6604 -0.7744 -0.3058
 8097TIP3    H245783   2.456   6.461  14.999 -0.9205  0.7912  1.8419
 8098TIP3   OH245784   2.620   3.887   4.165  0.1757 -0.2837  0.3193
 8098TIP3    H145785   2.571   3.852   4.240  1.1633 -1.4654  0.4391
 8098TIP3    H245786   2.552   3.925   4.109 -1.0029 -2.4053  0.1850
 8099TIP3   OH245787   6.591   3.663  17.033  0.2169  0.5115 -0.4678
 8099TIP3    H145788   6.556   3.617  17.109  0.6885  0.6800 -0.1403
 8099TIP3    H245789   6.555   3.751  17.040  0.0581  0.4565 -0.5814
 8100TIP3   OH245790   2.146   1.680   0.696 -0.1071  0.5872  0.2282
 8100TIP3    H145791   2.104   1.669   0.610 -1.6240  0.0103  0.9980
 8100TIP3    H245792   2.171   1.592   0.722 -1.6617  0.4255  1.3115
 8101TIP3   OH245793   1.667   3.195  15.530 -0.3585 -0.3892  0.3478
 8101TIP3    H145794   1.709   3.228  15.609  2.0984  1.6463 -1.5975
 8101TIP3    H245795   1.642   3.273  15.481  0.5327 -1.4271 -1.9633
 8102TIP3   OH245796   0.557   0.326  14.237  0.0271 -0.3817  0.5183
 8102TIP3    H145797   0.625   0.276  14.283  0.8781  3.1816  3.6619
 8102TIP3    H245798   0.476   0.278  14.255  1.0607 -2.0496  0.9851
 8103TIP3   OH245799   2.847   4.804   5.755  0.9684 -0.2222  0.0204
 8103TIP3    H145800   2.906   4.872   5.723 -0.2709  0.7522 -0.2339
 8103TIP3    H245801   2.853   4.735   5.689  2.0543 -0.2946  0.1654
 8104TIP3   OH245802   2.678   4.050  11.749  0.0965  0.3144  0.0558
 8104TIP3    H145803   2.643   3.972  11.791  0.6907 -0.6081 -1.1176
 8104TIP3    H245804   2.694   4.111  11.821 -1.3978 -0.2205  0.8823
 8105TIP3   OH245805   6.427   4.373   4.218 -0.2378  0.4360 -0.5249
 8105TIP3    H145806   6.376   4.450   4.192  0.9039  0.7975 -1.8518
 8105TIP3    H245807   6.486   4.405   4.286  0.2385  0.7652 -1.0780
 8106TIP3   OH245808   4.849   1.853  14.321  0.5442  0.6004  0.0588
 8106TIP3    H145809   4.754   1.857  14.334  0.2964  0.3750 -1.4323
 8106TIP3    H245810   4.877   1.945  14.318  0.4555  0.6577  1.0126
 8107TIP3   OH245811   1.081   2.011   5.473  0.2206 -0.3911 -0.5478
 8107TIP3    H145812   1.042   2.000   5.386 -1.8134 -1.9496  0.4573
 8107TIP3    H245813   1.007   2.037   5.528  1.1231 -1.0258  1.0067
 8108TIP3   OH245814   0.557   2.406   0.342 -0.4772 -0.1635  0.2010
 8108TIP3    H145815   0.541   2.483   0.396  1.5684 -0.2127  0.9861
 8108TIP3    H245816   0.556   2.333   0.404 -0.2995 -0.4990 -0.1881
 8109TIP3   OH245817   6.414   6.668   6.122 -0.2247  0.0593 -0.3944
 8109TIP3    H145818   6.391   6.589   6.171 -2.5989 -0.9339 -2.8719
 8109TIP3    H245819   6.504   6.653   6.093 -0.3490 -1.3904 -0.1149
 8110TIP3   OH245820   4.919   0.327   4.607  0.2927 -0.3282 -0.4473
 8110TIP3    H145821   4.835   0.374   4.605 -1.0947 -2.6789 -2.3481
 8110TIP3    H245822   4.905   0.257   4.671  2.7991  2.2684  3.4357
 8111TIP3   OH245823   5.261   3.118  11.798  0.4878 -0.4015  0.0652
 8111TIP3    H145824   5.353   3.144  11.805  0.3908 -0.1727  0.5123
 8111TIP3    H245825   5.259   3.058  11.723  1.0320 -0.5561  0.1671
 8112TIP3   OH245826   3.782   2.582   4.237 -0.2929  0.8020  0.2159
 8112TIP3    H145827   3.790   2.655   4.297  0.5603  1.0262 -0.1635
 8112TIP3    H245828   3.735   2.617   4.162 -0.6902  0.7155  0.4189
 8113TIP3   OH245829   1.892   6.207  13.467 -0.1860 -0.1419  0.1393
 8113TIP3    H145830   1.953   6.252  13.525 -0.4220  1.3804 -0.7482
 8113TIP3    H245831   1.805   6.238  13.495 -0.4559 -1.0326  0.3292
 8114TIP3   OH245832   1.720   2.056   1.902 -0.1692  0.0654 -0.0057
 8114TIP3    H145833   1.772   1.976   1.893 -1.2240 -0.7898  1.1601
 8114TIP3    H245834   1.650   2.047   1.838 -0.7608 -0.3637  0.6790
 8115TIP3   OH245835   5.985   3.878   6.026 -0.6929 -0.3133  0.1652
 8115TIP3    H145836   6.078   3.857   6.027 -1.0127 -1.9081 -0.5688
 8115TIP3    H245837   5.944   3.811   6.081 -1.5086 -0.2333 -0.3222
 8116TIP3   OH245838   3.532   0.582   5.888  0.2975  0.2399  0.4080
 8116TIP3    H145839   3.455   0.611   5.839  2.0770 -0.1431 -2.8850
 8116TIP3    H245840   3.497   0.523   5.955 -2.3102  0.5260 -0.5946
 8117TIP3   OH245841   6.622   2.428   4.959  0.6070  0.0006 -0.3568
 8117TIP3    H145842   6.547   2.487   4.963  1.1156  0.7069 -1.1965
 8117TIP3    H245843   6.595   2.353   5.013 -0.6920  0.2502 -0.6162
 8118TIP3   OH245844   5.798   6.738   0.044  0.1129  0.0870  0.0575
 8118TIP3    H145845   5.793   6.784  -0.039  0.2234 -3.5397 -2.1729
 8118TIP3    H245846   5.707   6.715   0.064  0.0572  1.1711  1.1207
 8119TIP3   OH245847   2.789   2.201  15.098  0.8161 -0.0550  0.2122
 8119TIP3    H145848   2.794   2.253  15.018 -1.0803  2.1167  1.3943
 8119TIP3    H245849   2.752   2.117  15.071  1.3274  0.1914 -1.3302
 8120TIP3   OH245850   3.750   2.805  13.783 -0.0954 -0.0736  0.2076
 8120TIP3    H145851   3.832   2.771  13.746 -1.1993  1.0000 -3.6788
 8120TIP3    H245852   3.685   2.737  13.763 -1.0718  1.3315 -1.6236
 8121TIP3   OH245853   1.381   5.518   1.204  0.3710  0.1701  0.3469
 8121TIP3    H145854   1.293   5.544   1.175 -0.0565 -1.1509  0.4217
 8121TIP3    H245855   1.392   5.565   1.287 -1.5535 -1.9567  1.9464
 8122TIP3   OH245856   6.541   6.278   1.590 -0.0250 -0.1561  0.1587
 8122TIP3    H145857   6.495   6.260   1.508  0.2553  0.6096 -0.1779
 8122TIP3    H245858   6.598   6.352   1.569  1.4343 -1.1414  0.5371
 8123TIP3   OH245859   4.567   1.501  17.178  0.4001  0.1326 -0.4234
 8123TIP3    H145860   4.493   1.557  17.203  0.1115 -0.3562 -0.1619
 8123TIP3    H245861   4.569   1.432  17.245  0.9627  0.0196 -0.5482
 8124TIP3   OH245862   1.723   4.346   1.498 -0.5750  0.5966  0.2601
 8124TIP3    H145863   1.692   4.336   1.408  0.8878 -0.0796 -0.2000
 8124TIP3    H245864   1.713   4.259   1.536  1.6910  0.0496 -0.2470
 8125TIP3   OH245865   5.754   1.588  15.376 -0.6941  0.1165 -0.4467
 8125TIP3    H145866   5.787   1.675  15.353 -2.2105  0.3149 -2.1614
 8125TIP3    H245867   5.825   1.528  15.355  1.0844  0.9912  2.4661
 8126TIP3   OH245868   3.936   6.094  14.805 -0.4080 -0.1229 -0.3494
 8126TIP3    H145869   4.005   6.028  14.809  0.4421  0.7806  0.9642
 8126TIP3    H245870   3.854   6.045  14.807  0.1949 -1.1775 -0.9150
 8127TIP3   OH245871   4.120   5.174  12.797  0.1613  0.4769  0.0566
 8127TIP3    H145872   4.204   5.155  12.755 -0.9246  0.8686 -2.4965
 8127TIP3    H245873   4.059   5.185  12.724 -2.5018 -1.4448  1.8136
 8128TIP3   OH245874   2.685   4.397   5.385 -0.3847  0.0904  0.0353
 8128TIP3    H145875   2.751   4.458   5.350 -1.5159  0.7470 -1.0359
 8128TIP3    H245876   2.617   4.394   5.317 -0.6138 -1.9751  0.3072
 8129TIP3   OH245877   1.885   2.378   4.881 -0.4926  0.1772 -0.6413
 8129TIP3    H145878   1.931   2.352   4.801 -1.0066  0.2808 -0.9825
 8129TIP3    H245879   1.881   2.474   4.876  0.9842  0.3187  0.3765
 8130TIP3   OH245880   1.816   3.149   4.856 -0.1448 -0.2077 -0.2944
 8130TIP3    H145881   1.767   3.229   4.875 -0.4090 -0.7951  1.6740
 8130TIP3    H245882   1.892   3.180   4.806 -1.5134  0.9349 -1.8050
 8131TIP3   OH245883   0.660   0.626   3.568 -0.3393 -0.0245  0.2116
 8131TIP3    H145884   0.737   0.570   3.577  0.4645  0.4572 -2.8316
 8131TIP3    H245885   0.587   0.564   3.559  0.0480 -0.5253  0.4589
 8132TIP3   OH245886   0.023   6.295  15.925 -0.4780  0.5823  0.2273
 8132TIP3    H145887   0.118   6.284  15.925 -0.4820  0.4033  1.5488
 8132TIP3    H245888   0.010   6.390  15.934 -0.4427  0.6947 -0.7634
 8133TIP3   OH245889   2.934   0.671   6.338  0.0915  0.1497  0.2155
 8133TIP3    H145890   2.963   0.723   6.412 -2.7070  0.6063  1.1263
 8133TIP3    H245891   2.927   0.582   6.372  2.9761 -0.5744 -0.8020
 8134TIP3   OH245892   0.753   2.775  15.556  0.4985  0.0879  0.0339
 8134TIP3    H145893   0.848   2.759  15.554  0.5355  0.3409 -1.9879
 8134TIP3    H245894   0.713   2.689  15.545  0.5662  0.2207 -1.5073
 8135TIP3   OH245895   5.862   1.299  17.093  1.0382 -0.6922 -0.9105
 8135TIP3    H145896   5.813   1.312  17.012  0.1248  1.0555 -0.1300
 8135TIP3    H245897   5.949   1.336  17.075  0.7871 -0.1638 -1.0487
 8136TIP3   OH245898   2.276   1.464   0.858 -0.0551  0.4577 -0.4564
 8136TIP3    H145899   2.352   1.443   0.804  0.2282 -2.4670  0.8975
 8136TIP3    H245900   2.204   1.413   0.820 -0.4037  0.1980  0.5154
 8137TIP3   OH245901   6.184   6.009   4.758 -0.2368 -0.3439 -0.0644
 8137TIP3    H145902   6.267   6.052   4.779  0.1496 -0.9483 -0.3132
 8137TIP3    H245903   6.173   6.023   4.663  0.2940 -1.4533 -0.3028
 8138TIP3   OH245904   0.798   0.783   1.323  0.0528  0.0421  0.1263
 8138TIP3    H145905   0.749   0.865   1.314 -0.2118  0.0559  1.5090
 8138TIP3    H245906   0.791   0.741   1.238  1.5522  2.1995 -1.1662
 8139TIP3   OH245907   4.567   0.254   2.623  0.0563  0.0299  0.2901
 8139TIP3    H145908   4.493   0.296   2.667  1.8364  2.4548  1.1706
 8139TIP3    H245909   4.559   0.279   2.531 -0.1087  0.4614  0.4220
 8140TIP3   OH245910   2.383   3.874   4.716 -0.0486  0.2249 -0.4180
 8140TIP3    H145911   2.434   3.796   4.741 -1.3647  0.3141  3.0692
 8140TIP3    H245912   2.295   3.856   4.748 -0.6491  2.6936 -0.5437
 8141TIP3   OH245913   3.300   3.896  10.519  0.3689  0.8127  0.4250
 8141TIP3    H145914   3.305   3.816  10.467 -1.1979  0.4017  0.8474
 8141TIP3    H245915   3.389   3.931  10.518  0.7380 -0.0815 -1.0903
 8142TIP3   OH245916   3.389   4.817  12.062  0.6721 -0.3281  0.3004
 8142TIP3    H145917   3.362   4.812  12.154  0.2514 -1.6993  0.1264
 8142TIP3    H245918   3.313   4.788  12.012  0.7148  0.9215 -0.5315
 8143TIP3   OH245919   6.634   0.028   4.817  0.2133 -0.4986 -0.0825
 8143TIP3    H145920   6.539   0.037   4.828  0.5653  3.1109  1.5279
 8143TIP3    H245921   6.644  -0.036   4.747 -3.4004 -0.9824 -0.3455
 8144TIP3   OH245922   2.430   1.945  16.490 -1.0955 -0.2842  0.6025
 8144TIP3    H145923   2.478   1.891  16.427  1.4902  3.0886 -0.5924
 8144TIP3    H245924   2.365   1.991  16.439 -1.4133 -0.1779  1.0947
 8145TIP3   OH245925   4.372   3.280   1.166 -0.6408  0.2391 -0.4359
 8145TIP3    H145926   4.328   3.215   1.112  0.0046  0.6879 -1.5250
 8145TIP3    H245927   4.315   3.357   1.165 -0.7003  0.1971 -0.3452
 8146TIP3   OH245928   1.018   3.564   6.452 -0.1669 -0.5142  0.6301
 8146TIP3    H145929   1.070   3.623   6.397 -2.5021  1.9900  0.8545
 8146TIP3    H245930   0.933   3.608   6.460 -1.4306 -3.0206  2.5063
 8147TIP3   OH245931   5.095   0.559  11.697  0.1406  0.7697 -0.1787
 8147TIP3    H145932   5.132   0.600  11.775 -0.2984  1.4237 -0.3009
 8147TIP3    H245933   5.155   0.487  11.677  1.9186  2.3649 -0.9170
 8148TIP3   OH245934   4.687   4.582   1.405 -0.7619  0.3344  1.1146
 8148TIP3    H145935   4.599   4.545   1.408  0.0040 -1.7515 -0.1863
 8148TIP3    H245936   4.731   4.534   1.335  1.4028  1.3528  1.6970
 8149TIP3   OH245937   3.681   2.880   2.844 -0.0838 -0.0453 -0.0475
 8149TIP3    H145938   3.762   2.859   2.799  1.1307  0.7574  1.6497
 8149TIP3    H245939   3.638   2.944   2.788 -0.7455 -2.1686 -2.1105
 8150TIP3   OH245940   1.287   2.899   4.745 -0.3553 -0.0493  0.5922
 8150TIP3    H145941   1.271   2.807   4.724  1.3039 -0.4112  0.7232
 8150TIP3    H245942   1.337   2.896   4.827  1.5553  0.8122 -0.4760
 8151TIP3   OH245943   2.809   3.455   0.053  0.2676  0.2416  0.1564
 8151TIP3    H145944   2.825   3.501   0.135 -3.0933  0.2980  0.9463
 8151TIP3    H245945   2.828   3.363   0.072  0.2356  0.3624  0.7713
 8152TIP3   OH245946   4.400   6.061   4.039 -0.9180 -0.3263 -0.3565
 8152TIP3    H145947   4.388   6.151   4.008 -0.7959 -0.4939 -0.9023
 8152TIP3    H245948   4.448   6.018   3.969 -1.2252 -0.8987 -0.2205
 8153TIP3   OH245949   5.030   3.124   3.905 -0.2986  0.5949 -0.2378
 8153TIP3    H145950   5.099   3.182   3.874 -0.6639  0.6591 -0.9548
 8153TIP3    H245951   4.949   3.175   3.895 -0.4791  0.4371  0.3642
 8154TIP3   OH245952   1.521   3.035   2.975  0.3916  0.2402 -0.3718
 8154TIP3    H145953   1.587   2.994   3.031  1.3223  2.0464 -0.0668
 8154TIP3    H245954   1.569   3.059   2.896 -0.7378 -1.5816 -1.6765
 8155TIP3   OH245955   6.618   1.251   1.351 -0.5977 -0.1934  0.3272
 8155TIP3    H145956   6.622   1.169   1.400 -1.5695 -0.4913 -0.0470
 8155TIP3    H245957   6.672   1.235   1.274 -0.5959 -0.4080  0.3712
 8156TIP3   OH245958   6.402   1.160   4.758  0.0981  0.0280 -0.0255
 8156TIP3    H145959   6.476   1.208   4.793  0.9867 -1.2547 -0.0803
 8156TIP3    H245960   6.423   1.068   4.774 -1.5163 -0.3632  0.0252
 8157TIP3   OH245961   6.477   4.625  16.829 -0.0533 -0.0801  0.0002
 8157TIP3    H145962   6.545   4.625  16.896 -0.0610  1.2296  0.0391
 8157TIP3    H245963   6.511   4.682  16.760 -0.5862 -0.4040 -0.5369
 8158TIP3   OH245964   1.956   0.363   0.980 -0.6995 -0.0443 -0.0647
 8158TIP3    H145965   1.991   0.280   1.010 -0.5761 -0.6328 -1.7398
 8158TIP3    H245966   1.861   0.352   0.983 -0.6819 -0.5979 -1.1548
 8159TIP3   OH245967   1.777   4.075   1.917  0.3269  0.3132 -0.0953
 8159TIP3    H145968   1.688   4.046   1.937  0.8980 -1.5995 -0.1021
 8159TIP3    H245969   1.812   4.103   2.002 -0.4253  1.5901 -0.1817
 8160TIP3   OH245970   4.646   0.802   4.249  0.0542  0.3653  0.2771
 8160TIP3    H145971   4.612   0.870   4.307 -0.8213  0.4535 -0.3118
 8160TIP3    H245972   4.710   0.755   4.301  0.6204  1.5944  0.7186
 8161TIP3   OH245973   2.996   5.506   5.124  0.2654 -0.1984 -0.6906
 8161TIP3    H145974   2.900   5.499   5.129  0.1690  1.4020  0.6945
 8161TIP3    H245975   3.028   5.432   5.176 -0.2728  0.1264  0.1330
 8162TIP3   OH245976   6.628   1.735   0.708  0.2974 -0.0424  0.5980
 8162TIP3    H145977   6.685   1.810   0.689 -1.5257  1.1851 -0.2916
 8162TIP3    H245978   6.685   1.674   0.755  2.4418  0.9289 -0.5704
 8163TIP3   OH245979   4.984   6.505   1.618  0.2526 -0.4223  0.0600
 8163TIP3    H145980   5.061   6.558   1.601 -0.4883  0.6446 -0.0237
 8163TIP3    H245981   5.014   6.441   1.683  0.8789  0.7883  1.0101
 8164TIP3   OH245982   6.581   0.969  16.455 -0.4066 -0.4689 -0.3044
 8164TIP3    H145983   6.585   0.878  16.483  2.1721  0.1358  1.7743
 8164TIP3    H245984   6.673   0.998  16.457 -1.1624  2.2159 -0.7242
 8165TIP3   OH245985   5.569   3.970  12.000  0.3162  0.5641  0.3467
 8165TIP3    H145986   5.559   3.919  11.919  0.4272  0.4179  0.4237
 8165TIP3    H245987   5.517   4.049  11.985 -0.2997  0.1825  0.4333
 8166TIP3   OH245988   3.480   3.438  16.722 -0.8440 -0.5085  0.0757
 8166TIP3    H145989   3.546   3.398  16.778 -0.0853 -0.1866 -0.5702
 8166TIP3    H245990   3.415   3.474  16.783  1.4674  2.5339  0.9574
 8167TIP3   OH245991   0.560   0.805   3.792 -0.4084 -0.3690 -0.4469
 8167TIP3    H145992   0.500   0.829   3.863  0.4129  3.1263 -0.7570
 8167TIP3    H245993   0.506   0.807   3.713 -0.2806  1.2370 -0.5313
 8168TIP3   OH245994   6.542   2.285  17.177 -0.1841  0.1909 -0.3088
 8168TIP3    H145995   6.482   2.257  17.108  0.6140 -2.4834 -0.0497
 8168TIP3    H245996   6.595   2.353  17.137 -1.4711  0.5577 -1.4700
 8169TIP3   OH245997   2.827   3.240   5.243  0.4660  0.4353  0.0199
 8169TIP3    H145998   2.891   3.175   5.215  1.8003  0.9220  1.7843
 8169TIP3    H245999   2.815   3.224   5.336 -1.4437  0.8532 -0.0991
 8170TIP3   OH246000   1.471   1.224   5.317 -0.1091 -0.2495  0.3720
 8170TIP3    H146001   1.476   1.201   5.410  1.4712 -1.2996  0.0655
 8170TIP3    H246002   1.383   1.198   5.291 -0.0484 -1.4048  1.2289
 8171TIP3   OH246003   2.700   5.316  12.416 -0.7853 -0.3604 -0.5573
 8171TIP3    H146004   2.742   5.365  12.346 -0.1645 -0.0148  0.0404
 8171TIP3    H246005   2.631   5.266  12.373 -0.7038  0.1878 -1.3391
 8172TIP3   OH246006   5.266   4.967   2.115 -0.1091 -0.2421  0.4584
 8172TIP3    H146007   5.220   5.010   2.043  0.4259  0.0672  0.2922
 8172TIP3    H246008   5.228   4.879   2.119  0.8552 -0.7732 -1.1639
 8173TIP3   OH246009   3.117   5.839  12.164 -0.1087 -0.6730  0.0825
 8173TIP3    H146010   3.076   5.814  12.247 -1.4937 -1.6614 -0.8520
 8173TIP3    H246011   3.137   5.756  12.121  0.0574 -0.1735 -0.8352
 8174TIP3   OH246012   2.971   5.589  14.197  1.0538  0.3088 -0.2444
 8174TIP3    H146013   2.912   5.552  14.263  0.7314  0.8494 -0.2279
 8174TIP3    H246014   3.010   5.665  14.240 -0.4624  1.7189 -1.2427
 8175TIP3   OH246015   5.782   5.666  14.316 -0.2684  0.0536  0.5616
 8175TIP3    H146016   5.829   5.599  14.268  0.8959 -0.1924  1.9596
 8175TIP3    H246017   5.795   5.746  14.265 -1.4241 -0.6794 -0.9606
 8176TIP3   OH246018   4.437   1.715   3.928  0.0915  0.2374  0.4598
 8176TIP3    H146019   4.506   1.679   3.872 -1.3643 -0.0940 -1.2018
 8176TIP3    H246020   4.471   1.704   4.017  3.0073  1.9043 -0.3287
 8177TIP3   OH246021   4.938   4.804   0.685 -0.1437 -0.1293 -0.0849
 8177TIP3    H146022   4.892   4.888   0.681 -0.3911 -0.2694 -0.2311
 8177TIP3    H246023   5.028   4.827   0.708 -0.5558  0.0541  1.4704
 8178TIP3   OH246024   0.636   6.425   4.326  0.1687  0.0708 -0.7910
 8178TIP3    H146025   0.695   6.374   4.271 -0.2805  1.0635 -2.2615
 8178TIP3    H246026   0.557   6.372   4.334  1.3181 -1.4396  1.5108
 8179TIP3   OH246027   5.465   6.253  14.882  0.5151  0.9904  0.4326
 8179TIP3    H146028   5.485   6.166  14.915  0.6846  0.8842  0.0619
 8179TIP3    H246029   5.391   6.284  14.935  0.0138  0.3484  0.1205
 8180TIP3   OH246030   2.433   3.469  16.232  0.4029 -0.0830  0.2910
 8180TIP3    H146031   2.411   3.393  16.287 -0.2432 -0.2937 -0.2481
 8180TIP3    H246032   2.449   3.432  16.145 -2.2271  0.5897 -0.5713
 8181TIP3   OH246033   0.614   0.601  14.787 -0.5130  0.2304  0.0975
 8181TIP3    H146034   0.624   0.606  14.692 -1.6411  0.0128 -0.0408
 8181TIP3    H246035   0.647   0.686  14.819 -0.1014  0.2901 -0.4749
 8182TIP3   OH246036   2.425   1.224  13.603 -0.3608  0.3036 -0.1779
 8182TIP3    H146037   2.488   1.293  13.623  0.1790  0.0864 -1.0404
 8182TIP3    H246038   2.454   1.149  13.654 -0.6784  0.5788  0.4103
 8183TIP3   OH246039   1.742   0.106  15.160  0.0903  0.1375  0.1480
 8183TIP3    H146040   1.682   0.033  15.179  0.3887 -0.3599 -0.7517
 8183TIP3    H246041   1.736   0.162  15.237 -0.8354 -0.3746  0.4745
 8184TIP3   OH246042   6.614   1.175  13.446  0.2500 -0.2634  0.2949
 8184TIP3    H146043   6.699   1.152  13.483 -0.4813 -0.4285  1.9661
 8184TIP3    H246044   6.574   1.233  13.511 -1.1037 -0.5678 -0.2239
 8185TIP3   OH246045   2.552   3.765  13.364 -0.5515 -0.0108 -0.0365
 8185TIP3    H146046   2.475   3.712  13.383 -0.4431 -0.1287  0.0785
 8185TIP3    H246047   2.625   3.703  13.364 -0.3026  0.2603  0.9870
 8186TIP3   OH246048   2.953   3.103  12.493  0.5137 -0.3061  0.1240
 8186TIP3    H146049   3.023   3.154  12.452  0.7445 -0.0172  0.8604
 8186TIP3    H246050   2.900   3.168  12.539  1.7879 -0.8479  2.5219
 8187TIP3   OH246051   5.413   0.602   1.819  0.2584  0.0164  0.1176
 8187TIP3    H146052   5.348   0.671   1.833  0.1936  0.0170 -0.1868
 8187TIP3    H246053   5.449   0.620   1.732  0.2256 -0.3457  0.0284
 8188TIP3   OH246054   0.030   5.256  12.715  0.6870 -0.3771  0.4641
 8188TIP3    H146055   0.050   5.241  12.623  0.6956 -1.2572  0.5971
 8188TIP3    H246056  -0.050   5.308  12.714  0.4405 -0.7495 -0.0441
 8189TIP3   OH246057   1.410   0.402  16.387  0.3436  0.1606  0.2492
 8189TIP3    H146058   1.506   0.398  16.380  0.2712 -1.0563 -0.2884
 8189TIP3    H246059   1.387   0.486  16.348  1.2264  0.7206  0.8857
 8190TIP3   OH246060   1.808   2.895   5.261 -0.5068  0.2422 -0.0098
 8190TIP3    H146061   1.840   2.984   5.241  1.2200  0.0638  1.6666
 8190TIP3    H246062   1.731   2.909   5.315  1.2794  0.8387  2.5538
 8191TIP3   OH246063   5.240   0.775   5.742  0.0709  0.0271 -0.3077
 8191TIP3    H146064   5.299   0.837   5.785  0.9357 -2.8610  3.2349
 8191TIP3    H246065   5.297   0.725   5.684 -0.1833  0.9954 -1.4337
 8192TIP3   OH246066   1.032   0.819  15.607  0.0522  0.2065  0.3759
 8192TIP3    H146067   0.968   0.889  15.593  0.4642  0.3790 -0.8447
 8192TIP3    H246068   0.981   0.744  15.637 -0.7925  0.2164 -0.9490
 8193TIP3   OH246069   2.963   2.695   0.694 -0.5313 -0.4211  0.2852
 8193TIP3    H146070   2.974   2.601   0.708  0.6348 -0.0279  2.5792
 8193TIP3    H246071   3.039   2.735   0.738 -1.7258  1.6582  0.5942
 8194TIP3   OH246072   5.156   3.241   6.130 -0.1355  0.1595  0.7249
 8194TIP3    H146073   5.231   3.281   6.173  2.0091 -2.8334  0.1241
 8194TIP3    H246074   5.123   3.177   6.193 -0.6489 -0.2394  0.0767
 8195TIP3   OH246075   4.546   1.351  16.923 -0.2940  0.3568  0.4945
 8195TIP3    H146076   4.555   1.292  16.998  0.8417 -1.2748 -0.8573
 8195TIP3    H246077   4.465   1.399  16.940  1.2001  2.0629  4.0858
 8196TIP3   OH246078   4.372   6.769   1.990  0.2698 -0.2221 -0.2707
 8196TIP3    H146079   4.453   6.748   1.944  0.9869 -1.6007  1.5297
 8196TIP3    H246080   4.303   6.737   1.932  1.0787 -0.6475 -1.0262
 8197TIP3   OH246081   5.463   0.580   5.662  0.6195 -0.5405  0.0033
 8197TIP3    H146082   5.435   0.505   5.608 -0.6946 -0.9231  1.1392
 8197TIP3    H246083   5.468   0.653   5.601  1.5804 -1.4678 -1.0719
 8198TIP3   OH246084   4.709   5.621   1.607 -0.1283  1.0087  0.4064
 8198TIP3    H146085   4.744   5.699   1.564 -1.3578  1.1283 -0.4428
 8198TIP3    H246086   4.785   5.579   1.646  0.9643  1.2819 -1.2950
 8199TIP3   OH246087   1.046   2.854   0.972 -0.2308  0.1348  0.0768
 8199TIP3    H146088   1.089   2.936   0.948  1.1297 -0.1050  1.5832
 8199TIP3    H246089   1.018   2.817   0.888 -0.8378  2.0735 -0.6549
 8200TIP3   OH246090   5.495   1.357   1.503 -0.1313 -0.3894 -0.4127
 8200TIP3    H146091   5.546   1.422   1.455  0.2826 -0.7103 -0.4218
 8200TIP3    H246092   5.462   1.298   1.435 -1.6465  0.5566 -0.5509
 8201TIP3   OH246093   0.551   3.379   5.886  0.0887  0.6795 -0.6806
 8201TIP3    H146094   0.602   3.304   5.857  0.1880 -0.4061  2.0095
 8201TIP3    H246095   0.472   3.341   5.925 -0.5742  2.0644 -0.6086
 8202TIP3   OH246096   1.639   0.872  16.736  1.1081  0.4340 -0.2421
 8202TIP3    H146097   1.690   0.796  16.763  3.0079  1.9573  0.6877
 8202TIP3    H246098   1.573   0.882  16.805  0.9857 -0.2113 -0.2571
 8203TIP3   OH246099   1.062   4.627  13.489 -0.0570  0.3160  0.1367
 8203TIP3    H146100   1.080   4.691  13.420 -0.9748  2.3833  1.7000
 8203TIP3    H246101   0.978   4.587  13.464  0.7761 -0.7588 -1.1189
 8204TIP3   OH246102   3.931   5.782   2.262  0.1206  0.3775 -0.5767
 8204TIP3    H146103   3.901   5.776   2.171 -0.8222  2.1152 -0.4357
 8204TIP3    H246104   3.852   5.767   2.314  0.0560  2.0158 -0.1339
 8205TIP3   OH246105   4.836   6.361  13.048  0.1686  0.0200 -0.0613
 8205TIP3    H146106   4.772   6.290  13.043  0.3033 -0.0733 -0.5131
 8205TIP3    H246107   4.918   6.319  13.074  0.0011  0.1720  0.7348
 8206TIP3   OH246108   4.971   3.390   4.907  0.0885  0.4927 -0.2916
 8206TIP3    H146109   4.910   3.366   4.977  0.3827 -0.6577 -0.4001
 8206TIP3    H246110   4.964   3.318   4.845  0.5938  1.0007 -0.9438
 8207TIP3   OH246111   6.094   1.012   2.368 -0.1419  0.0370 -0.6621
 8207TIP3    H146112   6.039   1.032   2.444  0.1898 -0.4921 -0.2749
 8207TIP3    H246113   6.174   1.063   2.383  0.1983 -0.5818 -0.3017
 8208TIP3   OH246114   2.399   4.960   2.083  0.1087  0.3917 -0.0720
 8208TIP3    H146115   2.316   4.913   2.097  0.9977 -0.8879  1.1598
 8208TIP3    H246116   2.429   4.932   1.997 -0.6459  0.7499 -0.4618
 8209TIP3   OH246117   4.249   3.697   0.328 -0.4308  0.0857  0.2965
 8209TIP3    H146118   4.335   3.682   0.368 -0.1623 -1.0367 -0.6512
 8209TIP3    H246119   4.191   3.714   0.402  0.4341  0.0365  1.0135
 8210TIP3   OH246120   3.248   1.364  12.222 -0.4573  0.2565  0.7477
 8210TIP3    H146121   3.333   1.323  12.205 -0.0444  0.3185  2.4761
 8210TIP3    H246122   3.224   1.404  12.138  0.9891 -0.1463  0.0950
 8211TIP3   OH246123   4.485   0.883   0.320 -0.3942  0.0113 -0.1377
 8211TIP3    H146124   4.506   0.827   0.395  1.9216  0.9833 -0.0005
 8211TIP3    H246125   4.554   0.866   0.256 -0.5201  1.5363 -0.7325
 8212TIP3   OH246126   5.332   6.432  12.342 -0.2870 -0.4698  0.0152
 8212TIP3    H146127   5.336   6.459  12.250  0.4180 -0.8360 -0.0712
 8212TIP3    H246128   5.375   6.504  12.389  0.3827 -0.7953 -0.0745
 8213TIP3   OH246129   0.560   6.250   1.154 -0.1572  0.2539  0.0012
 8213TIP3    H146130   0.650   6.244   1.121  0.8441  2.0645  2.1633
 8213TIP3    H246131   0.521   6.321   1.103 -0.7615 -1.1713 -1.6246
 8214TIP3   OH246132   4.793   4.908   5.664  0.2510 -0.2494 -0.5113
 8214TIP3    H146133   4.824   4.916   5.754  0.4339  0.6260 -0.6387
 8214TIP3    H246134   4.815   4.992   5.624  2.7763 -1.5915 -2.1913
 8215TIP3   OH246135   6.611   5.789  15.738  0.0833  0.4983  0.0365
 8215TIP3    H146136   6.575   5.787  15.649  0.6320  0.9294 -0.1998
 8215TIP3    H246137   6.703   5.814  15.726  0.4999 -0.6832  0.6254
 8216TIP3   OH246138   4.676   4.137  12.351 -0.2384  0.7731 -0.3103
 8216TIP3    H146139   4.666   4.044  12.369 -3.4682  0.9913 -0.4431
 8216TIP3    H246140   4.675   4.179  12.437 -1.3150  0.8164 -0.3280
 8217TIP3   OH246141   3.124   5.506  16.380 -0.1111  0.3933  0.0925
 8217TIP3    H146142   3.040   5.461  16.379 -0.1012  0.3754 -0.0228
 8217TIP3    H246143   3.103   5.599  16.383 -0.1634  0.4060  4.2617
 8218TIP3   OH246144   6.607   5.532  12.269 -0.1353 -0.2393  0.0263
 8218TIP3    H146145   6.606   5.504  12.178 -0.6704 -1.2623  0.3272
 8218TIP3    H246146   6.665   5.470  12.313  0.2116  0.3148  0.3709
 8219TIP3   OH246147   4.518   4.910   3.977 -1.0373 -0.4836  0.4956
 8219TIP3    H146148   4.444   4.962   4.009 -0.7894 -1.1272  2.2149
 8219TIP3    H246149   4.552   4.867   4.055  2.2258  1.0807  0.0962
 8220TIP3   OH246150   4.311   6.239  16.633  0.1475  0.5405  0.1187
 8220TIP3    H146151   4.398   6.224  16.596 -0.9259 -1.2468 -1.9133
 8220TIP3    H246152   4.328   6.262  16.725  2.7319  0.4329 -0.2451
 8221TIP3   OH246153   4.509   0.869  15.140  0.5721  0.6007 -0.2846
 8221TIP3    H146154   4.517   0.940  15.203 -1.0105  0.9258 -0.4138
 8221TIP3    H246155   4.427   0.887  15.094  0.0466 -1.3781 -0.2080
 8222TIP3   OH246156   0.703   2.160   2.991 -0.4166 -0.0858 -0.7239
 8222TIP3    H146157   0.635   2.095   2.973 -1.6683  0.5406  1.3290
 8222TIP3    H246158   0.746   2.128   3.071  0.1490  0.6834 -0.7081
 8223TIP3   OH246159   2.041   3.046   0.463 -0.0109  0.2086  0.0576
 8223TIP3    H146160   2.019   3.033   0.371  0.5331  0.0825 -0.0542
 8223TIP3    H246161   1.956   3.063   0.505 -0.1538  1.4175 -0.6480
 8224TIP3   OH246162   3.819   5.580  14.201 -0.1217  0.7004  0.3728
 8224TIP3    H146163   3.743   5.588  14.144  0.8963 -0.4632 -1.2574
 8224TIP3    H246164   3.800   5.504  14.257  0.6375 -0.9547 -1.4857
 8225TIP3   OH246165   5.313   6.505   5.880  0.1154 -0.2474 -0.0976
 8225TIP3    H146166   5.361   6.586   5.897 -0.2433  1.4291 -5.2800
 8225TIP3    H246167   5.381   6.438   5.875  0.9540  0.5756 -0.0053
 8226TIP3   OH246168   3.032   4.631  11.094 -0.2624  0.2414 -0.5203
 8226TIP3    H146169   3.001   4.674  11.014  0.6277  0.4409 -0.7677
 8226TIP3    H246170   3.063   4.703  11.149 -2.1383  0.2471  0.6062
 8227TIP3   OH246171   5.999   0.856   0.717  0.3970 -0.6983 -0.0077
 8227TIP3    H146172   6.074   0.818   0.763  0.9857 -1.3270 -1.4144
 8227TIP3    H246173   6.010   0.950   0.727  0.9859 -0.7998  0.3899
 8228TIP3   OH246174   5.694   5.004   0.260  0.2444  0.2459  0.3515
 8228TIP3    H146175   5.780   5.040   0.237  0.4374  0.1388  0.8907
 8228TIP3    H246176   5.709   4.911   0.274  0.0965  0.2776  0.7319
 8229TIP3   OH246177   3.482   2.838  16.708  0.2946  0.1500 -0.1718
 8229TIP3    H146178   3.434   2.918  16.689 -0.5979 -0.8779 -2.6065
 8229TIP3    H246179   3.431   2.795  16.777  0.2073  1.1591  0.4037
 8230TIP3   OH246180   3.733   1.803  10.952 -0.0344  0.3447 -0.3393
 8230TIP3    H146181   3.670   1.791  10.881  0.8486  0.5173 -1.1809
 8230TIP3    H246182   3.788   1.725  10.949 -0.5054 -0.0462  0.7222
 8231TIP3   OH246183   5.042   2.203  16.006 -0.1716  0.1900 -0.0291
 8231TIP3    H146184   5.074   2.203  16.096 -0.0245 -0.3916 -0.0783
 8231TIP3    H246185   5.069   2.288  15.971  1.8818 -0.5061 -0.2704
 8232TIP3   OH246186   1.313   6.565   6.308 -0.2699 -1.2786 -0.1209
 8232TIP3    H146187   1.265   6.626   6.363  1.3828  0.7615 -0.7943
 8232TIP3    H246188   1.282   6.583   6.219 -0.0591 -1.7093 -0.2870
 8233TIP3   OH246189   5.349   5.359   5.312 -0.4019 -0.8059  0.1892
 8233TIP3    H146190   5.305   5.408   5.242 -1.0972 -1.8622 -0.1382
 8233TIP3    H246191   5.317   5.269   5.302  1.2968 -1.4700  0.4039
 8234TIP3   OH246192   4.937   6.380  12.155  0.6112 -0.4222 -0.1060
 8234TIP3    H146193   4.974   6.334  12.230  2.7592 -0.2072 -0.9850
 8234TIP3    H246194   4.949   6.473  12.176  1.7763 -0.3632 -0.9420
 8235TIP3   OH246195   6.690   3.924   2.647 -0.3084  0.5418 -0.5423
 8235TIP3    H146196   6.757   3.959   2.705 -0.4144  0.8325 -0.5908
 8235TIP3    H246197   6.700   3.829   2.653  0.7933  0.5885 -1.3459
 8236TIP3   OH246198   5.921   3.744   5.506  1.1009 -0.0415 -0.6276
 8236TIP3    H146199   5.830   3.723   5.485  1.3048 -2.8266  0.8427
 8236TIP3    H246200   5.972   3.702   5.437  1.3369 -0.5935 -0.1302
 8237TIP3   OH246201   0.920   6.659   1.769  0.5018 -0.3994 -0.0732
 8237TIP3    H146202   0.922   6.607   1.688  2.0301 -1.2432  0.4671
 8237TIP3    H246203   0.914   6.594   1.839  0.0280  0.2853  0.5341
 8238TIP3   OH246204   3.272   3.897   5.803  0.1105  0.3149  0.4039
 8238TIP3    H146205   3.325   3.828   5.764 -2.3553 -1.0733 -0.7212
 8238TIP3    H246206   3.278   3.882   5.898 -0.4236 -1.5470  0.1825
 8239TIP3   OH246207   5.193   6.036  14.856  0.3052 -0.5671 -0.2309
 8239TIP3    H146208   5.178   6.131  14.862  0.4270 -0.5711  0.1516
 8239TIP3    H246209   5.276   6.022  14.902  0.2607 -0.8677 -0.2427
 8240TIP3   OH246210   4.785   6.170   5.976 -0.4838 -0.0308 -0.1217
 8240TIP3    H146211   4.707   6.118   5.959 -0.7840  0.4704 -0.2914
 8240TIP3    H246212   4.779   6.192   6.069  1.0909 -2.6614  0.7324
 8241TIP3   OH246213   0.767   1.935   4.249  0.0563  0.2345  0.0849
 8241TIP3    H146214   0.698   1.935   4.182  1.2706  1.7231 -1.2385
 8241TIP3    H246215   0.754   2.018   4.296  0.6368  0.2970  0.1380
 8242TIP3   OH246216   5.139   3.321   1.580 -0.1073 -0.2395 -0.2867
 8242TIP3    H146217   5.047   3.335   1.599 -0.8391 -1.5365 -2.4681
 8242TIP3    H246218   5.181   3.405   1.598 -1.6175  0.2667  1.1129
 8243TIP3   OH246219   2.783   1.830   3.725  0.5348 -0.2558  0.1495
 8243TIP3    H146220   2.813   1.902   3.669  0.9748 -1.4279 -1.1852
 8243TIP3    H246221   2.772   1.756   3.665  1.1287 -1.6005  1.6169
 8244TIP3   OH246222   3.646   6.237   5.207 -0.0504  0.0260  0.4870
 8244TIP3    H146223   3.609   6.291   5.277  0.1114 -0.0965  0.6682
 8244TIP3    H246224   3.661   6.152   5.247  1.3095  0.3382  0.6892
 8245TIP3   OH246225   6.281   3.316   4.459  0.0207  0.2457  0.2127
 8245TIP3    H146226   6.208   3.276   4.506  0.8819 -1.7813 -0.0451
 8245TIP3    H246227   6.353   3.314   4.522 -0.3361  3.2315  0.8470
 8246TIP3   OH246228   5.020   2.035  16.798 -0.4904  0.0193  0.1139
 8246TIP3    H146229   5.033   1.948  16.759  0.7871  0.4588 -0.5089
 8246TIP3    H246230   5.004   2.092  16.723 -2.2684  0.1818  0.5961
 8247TIP3   OH246231   1.971   4.396  14.458  0.2494  0.0613  0.5982
 8247TIP3    H146232   2.010   4.482  14.444  0.1093 -0.0011 -0.2781
 8247TIP3    H246233   1.969   4.356  14.370  1.3032 -1.2586  1.1390
 8248TIP3   OH246234   6.546   3.167  14.593  0.1344  0.3390 -0.0339
 8248TIP3    H146235   6.590   3.246  14.626 -0.4802  0.4045  0.6431
 8248TIP3    H246236   6.617   3.105  14.576  0.5154  0.5758  0.6859
 8249TIP3   OH246237   0.823   4.519   5.995  0.6924  0.3017 -0.1383
 8249TIP3    H146238   0.814   4.526   6.090  1.3993 -0.4360 -0.0069
 8249TIP3    H246239   0.906   4.563   5.975  1.2057 -0.6911 -0.2439
 8250TIP3   OH246240   6.036   3.567   3.366  0.0311 -0.6996 -0.6005
 8250TIP3    H146241   5.943   3.550   3.356  0.0023  0.6160 -3.7516
 8250TIP3    H246242   6.078   3.504   3.308  0.8941  0.3478 -1.1475
 8251TIP3   OH246243   6.742   3.647  15.725  0.1404  0.3436 -0.5138
 8251TIP3    H146244   6.675   3.588  15.690  1.1707 -1.1449 -0.0806
 8251TIP3    H246245   6.716   3.661  15.816 -0.6726  1.4349 -0.8968
 8252TIP3   OH246246   6.298   5.380   5.706  0.0710  0.0085 -0.2602
 8252TIP3    H146247   6.364   5.448   5.690  0.7266 -0.3131  0.9808
 8252TIP3    H246248   6.268   5.397   5.795 -2.2185  0.7012 -1.0885
 8253TIP3   OH246249   1.283   1.228   3.813  0.4119 -0.1002 -0.4041
 8253TIP3    H146250   1.189   1.216   3.798  0.0697 -1.0014  1.9688
 8253TIP3    H246251   1.298   1.189   3.899  1.8601  4.9201  2.0280
 8254TIP3   OH246252   1.481   1.511   4.869 -0.3055  0.2263  0.3794
 8254TIP3    H146253   1.575   1.510   4.849 -0.6653  0.3661 -1.5488
 8254TIP3    H246254   1.440   1.473   4.791 -1.9648  1.8629  0.3941
 8255TIP3   OH246255   4.470   3.671   5.208  0.5290 -0.1711  0.1343
 8255TIP3    H146256   4.457   3.579   5.230 -0.6359 -0.0702 -0.0585
 8255TIP3    H246257   4.490   3.671   5.114  2.4313 -0.3508  0.4881
 8256TIP3   OH246258   0.965   2.974   6.087 -0.0474 -0.4737 -0.5602
 8256TIP3    H146259   1.041   2.995   6.142 -0.4566 -2.7501  1.0197
 8256TIP3    H246260   0.890   3.002   6.139 -0.4709 -3.1754  0.4319
 8257TIP3   OH246261   2.900   4.234   4.612  0.1259 -0.4674 -1.0026
 8257TIP3    H146262   2.912   4.227   4.707  2.2422 -0.2955 -1.2248
 8257TIP3    H246263   2.901   4.328   4.594 -1.8727 -0.4119 -1.0568
 8258TIP3   OH246264   3.960   0.860   1.750 -0.2477  0.4028 -0.3560
 8258TIP3    H146265   3.979   0.951   1.773 -1.0243  0.4665  0.0606
 8258TIP3    H246266   4.026   0.837   1.684 -0.2532  1.3726 -0.7048
 8259TIP3   OH246267   6.249   3.320   2.440 -0.7186  0.2064  0.7974
 8259TIP3    H146268   6.212   3.238   2.407 -0.1260 -0.2531  1.2561
 8259TIP3    H246269   6.253   3.309   2.535 -1.3251  1.0634  0.9394
 8260TIP3   OH246270   3.073   0.720   2.821 -0.1742  0.1852  0.2507
 8260TIP3    H146271   3.006   0.774   2.862 -1.6852 -1.4904  0.1374
 8260TIP3    H246272   3.109   0.775   2.751 -2.5613  0.6680 -0.7203
 8261TIP3   OH246273   2.712   3.537  12.840 -0.0644  0.1136  0.6995
 8261TIP3    H146274   2.686   3.575  12.756 -0.1656 -0.9083  0.2630
 8261TIP3    H246275   2.777   3.598  12.875 -0.8723  1.1519  0.4283
 8262TIP3   OH246276   0.169   4.808   5.919  0.3018  0.2125 -0.1958
 8262TIP3    H146277   0.203   4.732   5.873 -0.5052  0.2538 -0.9009
 8262TIP3    H246278   0.240   4.872   5.917  0.8924 -0.4284  0.1833
 8263TIP3   OH246279   5.722   1.575   0.970 -0.2500 -0.1253  0.3192
 8263TIP3    H146280   5.656   1.523   1.014  0.0723 -2.4251 -1.6918
 8263TIP3    H246281   5.673   1.629   0.908 -0.5164  1.4543  1.8393
 8264TIP3   OH246282   0.168   2.283   2.219 -0.3805  0.2031  0.1472
 8264TIP3    H146283   0.236   2.325   2.273  1.2342 -1.6209 -0.3808
 8264TIP3    H246284   0.094   2.273   2.279  0.5998  0.2095  1.4178
 8265TIP3   OH246285   3.859   0.817  13.313 -0.5681 -0.5289  0.0322
 8265TIP3    H146286   3.785   0.759  13.331 -2.1095  0.9670 -1.1802
 8265TIP3    H246287   3.881   0.799  13.222  0.5174 -0.8717  0.3496
 8266TIP3   OH246288   1.728   0.754   0.997 -0.3412  0.3340 -0.2807
 8266TIP3    H146289   1.641   0.781   1.028 -0.7020 -2.5719  1.6140
 8266TIP3    H246290   1.788   0.783   1.066  0.2231  1.9871 -1.4030
 8267TIP3   OH246291   4.023   2.389  12.967  0.3901  0.8022  0.0121
 8267TIP3    H146292   4.018   2.476  13.006  2.0242  0.8589  0.2008
 8267TIP3    H246293   3.980   2.331  13.029  1.5637  1.1296  1.1808
 8268TIP3   OH246294   3.492   0.952   0.111  0.2347 -0.0088 -0.2822
 8268TIP3    H146295   3.582   0.979   0.128  0.1265 -0.9339  2.2337
 8268TIP3    H246296   3.441   1.033   0.121  0.6258  0.2127 -0.0596
 8269TIP3   OH246297   6.494   1.184   3.522 -0.0053 -0.2811 -0.0096
 8269TIP3    H146298   6.466   1.136   3.444 -1.6038 -0.1553  0.4553
 8269TIP3    H246299   6.477   1.125   3.595  1.1937 -0.2803  0.2966
 8270TIP3   OH246300   6.184   2.873  16.305 -0.0010  0.3336  0.0069
 8270TIP3    H146301   6.188   2.777  16.304  0.3371  0.3460 -0.3687
 8270TIP3    H246302   6.261   2.900  16.254  0.3616  0.8154  0.7949
 8271TIP3   OH246303   1.404   0.157   1.878 -0.3296  0.3165  0.1838
 8271TIP3    H146304   1.468   0.224   1.904  1.5487 -0.8001 -1.2916
 8271TIP3    H246305   1.341   0.205   1.824  0.0735  1.1918  0.4620
 8272TIP3   OH246306   2.906   1.838   2.829 -0.0302 -0.2797 -0.5592
 8272TIP3    H146307   2.903   1.779   2.754 -0.4819 -1.6351  0.4824
 8272TIP3    H246308   2.964   1.794   2.892  2.0753  1.8358 -0.8891
 8273TIP3   OH246309   6.290   1.055   6.022  0.3634  0.2212 -0.2323
 8273TIP3    H146310   6.293   1.151   6.026  0.8333  0.1756  0.9770
 8273TIP3    H246311   6.273   1.028   6.113 -0.0153 -0.8343 -0.6034
 8274TIP3   OH246312   1.857   0.481  12.701 -0.1059 -0.2496  0.0355
 8274TIP3    H146313   1.911   0.403  12.719 -0.5836 -0.6029 -0.0400
 8274TIP3    H246314   1.767   0.448  12.700 -0.2475  0.1261 -0.9601
 8275TIP3   OH246315   6.355   4.036  12.776 -0.1688 -0.1370 -0.1312
 8275TIP3    H146316   6.264   4.027  12.749 -0.2289 -0.1478  0.0741
 8275TIP3    H246317   6.385   3.947  12.793 -0.6635 -0.0042  1.5681
 8276TIP3   OH246318   3.128   3.559   3.675 -0.4414 -0.6380 -0.2440
 8276TIP3    H146319   3.223   3.551   3.667 -0.1810 -0.3187  1.9914
 8276TIP3    H246320   3.114   3.648   3.705 -1.3442 -1.1068  0.7679
 8277TIP3   OH246321   4.672   4.871   5.003 -0.7922  0.2117  0.1190
 8277TIP3    H146322   4.593   4.907   5.043 -0.9068  1.1224 -0.9148
 8277TIP3    H246323   4.647   4.782   4.978 -1.3839  0.3709  0.1228
 8278TIP3   OH246324   4.089   5.727  12.316 -0.1343  0.4229  0.0820
 8278TIP3    H146325   4.131   5.804  12.354 -2.1667  0.7844  1.8178
 8278TIP3    H246326   4.040   5.762  12.241  0.0472  0.5834  0.0371
 8279TIP3   OH246327   0.268   1.976  15.328 -0.0578  0.4554  0.2401
 8279TIP3    H146328   0.238   1.896  15.370  1.6395 -0.5556 -0.3705
 8279TIP3    H246329   0.188   2.018  15.296 -1.1197 -0.1540  1.9850
 8280TIP3   OH246330   0.776   1.550  15.285  0.2783  0.7445  0.0856
 8280TIP3    H146331   0.681   1.559  15.286  0.2337  0.8562 -1.6306
 8280TIP3    H246332   0.807   1.623  15.232  1.2947  0.5531  0.3936
 8281TIP3   OH246333   6.005   0.882  14.986 -0.3031  0.4189  0.2096
 8281TIP3    H146334   5.971   0.825  14.918  0.3901 -0.9970  1.0081
 8281TIP3    H246335   6.095   0.902  14.959  0.5543 -1.4606  1.4028
 8282TIP3   OH246336   5.429   3.541   1.801  0.0474 -0.1417 -0.0034
 8282TIP3    H146337   5.422   3.515   1.709 -0.5597 -0.2099  0.0604
 8282TIP3    H246338   5.339   3.556   1.829  0.2118 -0.3196  0.6394
 8283TIP3   OH246339   0.871   4.904   0.824 -0.2818  0.0068 -0.4217
 8283TIP3    H146340   0.876   4.815   0.789  0.1644 -0.0434 -0.2269
 8283TIP3    H246341   0.915   4.899   0.909 -0.4466  0.3649 -0.3144
 8284TIP3   OH246342   2.049   4.941  13.618 -0.0175  0.0136 -0.0380
 8284TIP3    H146343   2.039   4.924  13.711 -0.9983 -0.7268 -0.2664
 8284TIP3    H246344   1.974   4.898  13.577  1.1734 -0.9660 -1.3075
 8285TIP3   OH246345   6.328   4.252  11.434 -0.4715  0.1182  0.4767
 8285TIP3    H146346   6.248   4.207  11.407 -0.5942 -0.1251  1.2329
 8285TIP3    H246347   6.324   4.337  11.391 -1.6163  0.4879  1.2945
 8286TIP3   OH246348   0.788   2.632  15.268  0.7016 -0.6998  0.0161
 8286TIP3    H146349   0.719   2.585  15.314  1.5410  0.5259  2.7386
 8286TIP3    H246350   0.796   2.715  15.315  0.8784  1.2457 -3.1183
 8287TIP3   OH246351   1.965   5.974  12.755 -0.2138  0.2229 -0.7952
 8287TIP3    H146352   1.897   5.992  12.691 -0.9228 -1.0737 -0.4608
 8287TIP3    H246353   2.009   5.895  12.722  0.0775  0.1330 -0.2125
 8288TIP3   OH246354   6.548   3.544  11.173 -0.0565 -0.4393  0.7437
 8288TIP3    H146355   6.453   3.559  11.172  0.0370  0.1340 -0.0018
 8288TIP3    H246356   6.586   3.629  11.150  0.6288 -0.7763  0.6004
 8289TIP3   OH246357   0.853   3.188   1.800  0.3463  0.5956  0.1222
 8289TIP3    H146358   0.846   3.226   1.713  1.9665 -2.0901 -1.3121
 8289TIP3    H246359   0.771   3.140   1.813 -0.3460  1.8641  0.5808
 8290TIP3   OH246360   3.138   5.318   5.271 -0.1143 -0.1278  0.7102
 8290TIP3    H146361   3.137   5.305   5.366 -0.1760 -1.1415  0.5859
 8290TIP3    H246362   3.186   5.242   5.237 -1.1142 -0.3907 -0.1577
 8291TIP3   OH246363   1.548   5.393   0.382 -0.1919 -0.4223 -0.2885
 8291TIP3    H146364   1.454   5.412   0.377  0.3056  2.3442 -0.6855
 8291TIP3    H246365   1.573   5.422   0.470  0.1499 -2.1648  0.2308
 8292TIP3   OH246366   2.718   5.860  10.877  0.3239  0.2059  0.1115
 8292TIP3    H146367   2.803   5.823  10.899  0.4468  0.7663  0.6077
 8292TIP3    H246368   2.727   5.892  10.787  0.1625 -1.1070 -0.3867
 8293TIP3   OH246369   5.797   1.186  17.352 -0.3212 -0.2047  0.2261
 8293TIP3    H146370   5.849   1.183  17.271 -1.6128 -1.2248 -0.6079
 8293TIP3    H246371   5.767   1.277  17.358 -0.6138 -0.2201 -0.7293
 8294TIP3   OH246372   3.918   5.486   0.710  0.5045  0.3723  0.1746
 8294TIP3    H146373   3.836   5.455   0.749 -0.2275 -0.7932 -2.0666
 8294TIP3    H246374   3.970   5.517   0.784 -1.7901  0.8058  1.7289
 8295TIP3   OH246375   4.864   0.425  12.526  0.0329 -0.3884 -0.3587
 8295TIP3    H146376   4.805   0.383  12.464 -0.7381  0.0372  0.0630
 8295TIP3    H246377   4.811   0.496  12.565  0.4657 -0.6767  0.8113
 8296TIP3   OH246378   5.531   4.375   3.311  0.4809  0.4364  0.1027
 8296TIP3    H146379   5.462   4.372   3.244  0.1592 -0.4380  0.4536
 8296TIP3    H246380   5.601   4.427   3.271 -0.1053  0.7630 -0.5252
 8297TIP3   OH246381   1.269   1.883  11.688  0.6136  0.2227 -0.0105
 8297TIP3    H146382   1.284   1.895  11.782 -1.1975  1.2854  0.1697
 8297TIP3    H246383   1.273   1.788  11.676 -0.4941 -0.0436  1.4102
 8298TIP3   OH246384   4.119   3.986   1.784  0.4624 -0.5730 -0.2065
 8298TIP3    H146385   4.201   3.992   1.735  0.3913  0.9902 -0.1790
 8298TIP3    H246386   4.061   3.934   1.729  0.7040  0.3280 -1.3462
 8299TIP3   OH246387   2.314   0.490  12.572  0.3052  0.1292  0.4112
 8299TIP3    H146388   2.320   0.451  12.485  1.1688  2.2732 -0.5803
 8299TIP3    H246389   2.392   0.460  12.618  0.3944 -0.1644  0.0690
 8300TIP3   OH246390   2.041   0.437   6.386  0.2046  0.2379  0.2027
 8300TIP3    H146391   2.052   0.368   6.452  1.7720 -0.3132 -0.5848
 8300TIP3    H246392   1.984   0.501   6.428  0.7669 -0.3263  1.9042
 8301TIP3   OH246393   1.990   0.819  12.988  0.5294  0.3878  0.8212
 8301TIP3    H146394   1.965   0.910  12.971 -0.0093  0.3286  1.2900
 8301TIP3    H246395   2.028   0.820  13.076 -0.1905  0.0296  1.1466
 8302TIP3   OH246396   2.848   5.420  16.358  0.0665 -0.2350  0.0247
 8302TIP3    H146397   2.791   5.346  16.336 -2.2876  1.3086  0.5946
 8302TIP3    H246398   2.876   5.403  16.448 -0.4123 -0.4661  0.1315
 8303TIP3   OH246399   6.623   5.669   3.493 -0.0304  0.3947 -0.6608
 8303TIP3    H146400   6.560   5.624   3.548 -0.1235  2.6372  1.2073
 8303TIP3    H246401   6.656   5.741   3.547  0.1686  2.5310 -3.3874
 8304TIP3   OH246402   2.026   6.477   2.855 -0.0156 -0.3509 -0.3268
 8304TIP3    H146403   2.003   6.554   2.803  0.0524  1.1242  1.7061
 8304TIP3    H246404   2.114   6.453   2.824 -1.0286 -1.2762 -2.7508
 8305TIP3   OH246405   1.108   1.602  13.221 -0.7585 -0.1055 -0.2146
 8305TIP3    H146406   1.184   1.548  13.199  1.7323  2.4088  1.5918
 8305TIP3    H246407   1.127   1.686  13.181 -0.9133  1.5744  2.9636
 8306TIP3   OH246408   2.732   0.410   4.377 -0.5253 -0.0068  0.5054
 8306TIP3    H146409   2.642   0.423   4.347 -0.0007  0.4129 -0.9926
 8306TIP3    H246410   2.785   0.432   4.301  0.7652 -2.8345  0.4839
 8307TIP3   OH246411   1.751   4.423   5.655  0.7386 -0.9597 -0.2207
 8307TIP3    H146412   1.726   4.506   5.694 -0.3428 -2.0639  1.5747
 8307TIP3    H246413   1.747   4.438   5.561 -2.2600  0.2490  0.0125
 8308TIP3   OH246414   1.494   3.969  12.785  0.2943  0.4999  0.7226
 8308TIP3    H146415   1.405   4.004  12.779 -1.1387 -2.6049  1.5084
 8308TIP3    H246416   1.481   3.875  12.798  3.6991  0.0509  1.7993
 8309TIP3   OH246417   3.405   2.875   2.531 -0.7801  0.3589 -0.5093
 8309TIP3    H146418   3.406   2.924   2.448 -0.2868 -0.2496 -0.8723
 8309TIP3    H246419   3.496   2.845   2.541 -0.7789  0.6320  0.3817
 8310TIP3   OH246420   0.603   2.534  15.475 -0.2923  0.5578  0.3214
 8310TIP3    H146421   0.600   2.449  15.518  1.5662  0.3555  0.1425
 8310TIP3    H246422   0.518   2.544  15.433 -0.2377 -1.6262 -0.4024
 8311TIP3   OH246423   1.407   5.601   3.785  0.0260  0.3969 -0.0622
 8311TIP3    H146424   1.485   5.563   3.824 -0.3740  0.1701  0.5298
 8311TIP3    H246425   1.433   5.690   3.760 -0.1213  1.1239  2.1618
 8312TIP3   OH246426   6.558   0.953   2.387 -0.3260 -0.2379  0.4505
 8312TIP3    H146427   6.633   0.930   2.333  0.8605 -0.2655  2.0501
 8312TIP3    H246428   6.551   0.881   2.450  1.1494  1.8269  3.1958
 8313TIP3   OH246429   0.559   6.114  12.003  0.5078 -0.3110 -0.3737
 8313TIP3    H146430   0.622   6.106  12.076 -0.5791  0.1183  0.6394
 8313TIP3    H246431   0.518   6.199  12.017 -1.0968 -1.0584 -0.3542
 8314TIP3   OH246432   0.725   0.824   4.268  0.0732 -0.3188 -0.0323
 8314TIP3    H146433   0.795   0.760   4.258 -0.5689 -1.0435  0.0190
 8314TIP3    H246434   0.723   0.844   4.361 -1.4111 -2.2099  0.4011
 8315TIP3   OH246435   2.963   3.875   4.821 -0.6973  0.0684  0.0710
 8315TIP3    H146436   2.969   3.804   4.885 -0.2004 -0.7028 -0.8204
 8315TIP3    H246437   2.926   3.835   4.743 -1.3172  1.0070 -0.1387
 8316TIP3   OH246438   3.551   6.603  15.378  0.0533  0.3901 -0.3473
 8316TIP3    H146439   3.461   6.604  15.410  0.4947  0.7426  0.9516
 8316TIP3    H246440   3.604   6.604  15.458  1.2086  0.0781 -1.0926
 8317TIP3   OH246441   5.983   6.298  14.382 -0.7957  0.2168 -0.2951
 8317TIP3    H146442   5.911   6.263  14.435 -0.5467  0.6999  0.3799
 8317TIP3    H246443   5.939   6.352  14.316 -1.0490  0.5881  0.1724
 8318TIP3   OH246444   3.194   4.485  12.183 -0.1606 -0.4558  0.1662
 8318TIP3    H146445   3.271   4.464  12.235  0.0422 -0.9289 -0.3090
 8318TIP3    H246446   3.181   4.409  12.127 -1.1801 -0.5216  0.4748
 8319TIP3   OH246447   5.007   3.497  16.511 -0.4329  0.0573 -0.6722
 8319TIP3    H146448   5.057   3.578  16.520 -0.1027 -0.0498 -1.4236
 8319TIP3    H246449   4.945   3.515  16.440 -2.1965  0.5373  0.9200
 8320TIP3   OH246450   0.824   4.829   0.515  0.3159  0.1041  0.2440
 8320TIP3    H146451   0.734   4.849   0.543 -0.1034  0.0296 -0.9814
 8320TIP3    H246452   0.857   4.912   0.480  0.3352 -0.1326 -0.3048
 8321TIP3   OH246453   5.178   2.925  17.439 -0.3113  0.0466 -0.0754
 8321TIP3    H146454   5.225   2.883  17.511 -0.1025  0.2221 -0.1072
 8321TIP3    H246455   5.181   2.861  17.368 -0.9585 -0.3327  0.2344
 8322TIP3   OH246456   1.219   3.720  17.110 -0.5386 -0.0477  0.4501
 8322TIP3    H146457   1.168   3.799  17.125 -0.7757 -0.2612  0.7801
 8322TIP3    H246458   1.155   3.650  17.108 -0.3454 -0.2183  0.0105
 8323TIP3   OH246459   4.008   0.376   0.367 -0.2519 -0.0052  0.1450
 8323TIP3    H146460   4.046   0.463   0.371  0.4883 -0.2339 -1.2504
 8323TIP3    H246461   3.920   0.389   0.332  0.8385  0.0027 -2.9164
 8324TIP3   OH246462   6.205   2.338   2.158  0.0571  0.0960  0.0149
 8324TIP3    H146463   6.278   2.400   2.161  0.1628  0.0238 -0.7596
 8324TIP3    H246464   6.246   2.253   2.147 -0.1214 -0.0198  0.2345
 8325TIP3   OH246465   1.374   0.197   5.725 -0.5625  0.0059 -0.3502
 8325TIP3    H146466   1.449   0.216   5.669 -0.7418  0.8827 -0.3174
 8325TIP3    H246467   1.410   0.146   5.797  0.2145  1.2376  0.1832
 8326TIP3   OH246468   1.545   5.676  11.416 -0.3974  0.4971 -0.1488
 8326TIP3    H146469   1.556   5.733  11.340 -0.1687 -0.1019 -0.5717
 8326TIP3    H246470   1.485   5.724  11.473  2.3287  2.7658  1.0863
 8327TIP3   OH246471   3.042   5.891  15.992  0.2947 -0.1528  0.0474
 8327TIP3    H146472   3.047   5.922  16.083  2.2605 -1.7418  0.5677
 8327TIP3    H246473   3.062   5.797  15.998 -0.0137 -0.3974 -1.9998
 8328TIP3   OH246474   2.671   4.444  12.082  0.1176 -0.0765  0.0696
 8328TIP3    H146475   2.619   4.488  12.149 -0.4891  0.4813 -0.7385
 8328TIP3    H246476   2.679   4.509  12.012 -0.0417 -0.9428 -0.7807
 8329TIP3   OH246477   2.357   4.440  11.337 -0.2781  0.7808 -0.2004
 8329TIP3    H146478   2.444   4.420  11.372 -0.4680  1.3734  0.6523
 8329TIP3    H246479   2.353   4.536  11.336 -0.8481  0.7599 -0.4253
 8330TIP3   OH246480   4.079   1.217  13.899  0.1496  0.4645 -0.2242
 8330TIP3    H146481   4.123   1.187  13.820 -0.2306  0.5851 -0.4869
 8330TIP3    H246482   4.142   1.203  13.969  1.3807  2.4743 -0.8509
 8331TIP3   OH246483   0.632   2.291  14.519 -0.2169 -0.1855  0.4704
 8331TIP3    H146484   0.547   2.272  14.560 -0.7522  1.5235  0.2068
 8331TIP3    H246485   0.620   2.375  14.475  1.7672  0.3624  0.8557
 8332TIP3   OH246486   5.866   6.666  15.651  0.3222 -0.2960 -0.6027
 8332TIP3    H146487   5.861   6.722  15.574  0.2176 -0.4606 -0.7172
 8332TIP3    H246488   5.893   6.724  15.722  0.7074 -0.2028 -0.8248
 8333TIP3   OH246489   6.327   4.809   5.623  0.3078  0.0763 -0.1075
 8333TIP3    H146490   6.293   4.818   5.534  0.2891  0.4935 -0.0614
 8333TIP3    H246491   6.253   4.831   5.679  0.6957  1.1916 -0.0076
 8334TIP3   OH246492   2.869   4.997  10.973 -0.3033 -0.2961 -0.2716
 8334TIP3    H146493   2.934   4.929  10.952  0.0757 -0.1957  0.5742
 8334TIP3    H246494   2.899   5.074  10.925 -0.6686 -0.6726 -1.1405
 8335TIP3   OH246495   4.066   3.268   0.095 -0.1527  0.3902 -0.4905
 8335TIP3    H146496   4.154   3.264   0.132 -0.1864 -1.5689 -0.5094
 8335TIP3    H246497   4.017   3.325   0.154  0.9687  1.0424 -0.1619
 8336TIP3   OH246498   2.577   0.295   3.042  0.2730  0.5045 -0.6401
 8336TIP3    H146499   2.670   0.271   3.047 -0.0656 -0.7902 -0.1720
 8336TIP3    H246500   2.563   0.318   2.951  0.7406 -0.6869 -1.0338
 8337TIP3   OH246501   5.536   1.464  15.484 -0.0598  1.0459 -0.1499
 8337TIP3    H146502   5.528   1.370  15.474 -1.6708  1.2255 -0.8117
 8337TIP3    H246503   5.581   1.493  15.405  0.6015  0.8329  0.1388
 8338TIP3   OH246504   0.212   1.630  17.027 -0.0042  0.3046  0.0261
 8338TIP3    H146505   0.295   1.671  17.053  1.0156  0.6030 -3.2200
 8338TIP3    H246506   0.238   1.557  16.972 -1.9202  0.1669 -0.7588
 8339TIP3   OH246507   2.039   0.190  16.596  0.0825 -0.0953  0.7013
 8339TIP3    H146508   2.128   0.215  16.618  0.0527 -0.0125  0.7282
 8339TIP3    H246509   1.988   0.211  16.675 -0.1961  1.1192  0.2135
 8340TIP3   OH246510   3.515   2.205  16.163 -0.2683  0.0802 -0.0476
 8340TIP3    H146511   3.438   2.238  16.116 -0.0101 -1.1610 -1.4460
 8340TIP3    H246512   3.587   2.215  16.101  0.1702 -1.2602  0.2118
 8341TIP3   OH246513   6.553   4.506   3.774  0.9177  0.7560  0.0931
 8341TIP3    H146514   6.516   4.422   3.803  1.1675  0.5762 -0.1037
 8341TIP3    H246515   6.490   4.539   3.711  0.0796  1.4261  1.2484
 8342TIP3   OH246516   4.242   3.791   6.380 -0.0768  0.4328 -0.3998
 8342TIP3    H146517   4.155   3.764   6.406  0.5423 -0.4953  0.7714
 8342TIP3    H246518   4.296   3.781   6.458  1.8408 -2.3444 -1.8915
 8343TIP3   OH246519   4.156   2.623  12.609 -0.4612 -0.1096  0.5002
 8343TIP3    H146520   4.100   2.551  12.638 -0.6663 -0.2632 -0.2601
 8343TIP3    H246521   4.104   2.702  12.627 -0.1181 -0.1052  1.6084
 8344TIP3   OH246522   5.481   0.812   6.292 -0.3617 -0.2810  0.0380
 8344TIP3    H146523   5.538   0.765   6.353 -0.8049 -0.8541  0.0178
 8344TIP3    H246524   5.525   0.896   6.279  0.5450 -0.7490 -0.0675
 8345TIP3   OH246525   0.726   3.079  14.694 -0.0003 -0.7207  0.7952
 8345TIP3    H146526   0.814   3.112  14.713 -0.3733 -0.4742  2.1830
 8345TIP3    H246527   0.723   2.993  14.734 -0.6156 -0.4407  1.3694
 8346TIP3   OH246528   1.278   4.105  11.696  0.1913 -0.2072 -0.2446
 8346TIP3    H146529   1.193   4.148  11.702  0.6622  0.5051  3.2575
 8346TIP3    H246530   1.273   4.032  11.757  1.6708 -1.0346 -1.0384
 8347TIP3   OH246531   5.223   0.948  14.744 -0.6475  0.4579  0.0494
 8347TIP3    H146532   5.159   0.932  14.813 -0.7262  1.7596  0.2998
 8347TIP3    H246533   5.264   0.863  14.729 -2.3817 -0.3789 -0.0802
 8348TIP3   OH246534   2.740   5.667  11.200  0.2109 -0.3790  0.2142
 8348TIP3    H146535   2.804   5.726  11.241  0.2897 -1.8609  2.4109
 8348TIP3    H246536   2.673   5.725  11.164  1.7616  1.1376 -0.3540
 8349TIP3   OH246537   5.191   2.189  11.499 -0.1425 -0.3346 -0.0553
 8349TIP3    H146538   5.284   2.168  11.512  0.1171 -0.1185 -1.4338
 8349TIP3    H246539   5.185   2.214  11.407 -1.2368  1.5081  0.4793
 8350TIP3   OH246540   4.192   0.346  14.351  0.3211  0.7180 -0.3919
 8350TIP3    H146541   4.124   0.282  14.332 -0.2169  1.0365  0.3837
 8350TIP3    H246542   4.203   0.395  14.269 -1.0912  1.3044 -0.2443
 8351TIP3   OH246543   2.432   4.240  10.754 -0.4296  0.3288  0.4492
 8351TIP3    H146544   2.407   4.202  10.838  1.0876 -0.3863  0.6198
 8351TIP3    H246545   2.525   4.258  10.763  0.1616 -1.2721 -1.5927
 8352TIP3   OH246546   3.726   6.336  16.313  0.0209 -0.3258  0.5682
 8352TIP3    H146547   3.801   6.395  16.303 -1.2074  1.4365  1.2931
 8352TIP3    H246548   3.682   6.338  16.228 -1.0209  1.2770  1.1153
 8353TIP3   OH246549   2.349   5.147  15.481  0.0213 -0.1446 -0.1811
 8353TIP3    H146550   2.380   5.227  15.439 -1.3217  0.9552  0.8296
 8353TIP3    H246551   2.406   5.138  15.558 -1.0564  0.9883  0.7965
 8354TIP3   OH246552   6.541   2.374  12.479 -0.1560  0.2460 -0.6374
 8354TIP3    H146553   6.566   2.383  12.387 -1.0377 -1.1320 -1.0415
 8354TIP3    H246554   6.581   2.292  12.507 -0.7997  0.0956 -0.1186
 8355TIP3   OH246555   0.102   1.698   5.342 -0.1236 -0.1801 -0.3521
 8355TIP3    H146556   0.102   1.736   5.430 -0.1096 -1.1387  0.0723
 8355TIP3    H246557   0.173   1.633   5.343  0.0533 -0.0152 -1.1562
 8356TIP3   OH246558   5.217   6.106  12.058  0.4731  0.1071  0.3662
 8356TIP3    H146559   5.207   6.190  12.013 -1.0050 -0.5820 -0.6812
 8356TIP3    H246560   5.308   6.081  12.041  0.5300  0.8423 -0.5092
 8357TIP3   OH246561   5.365   4.072  14.160  0.2177  0.5863  0.0407
 8357TIP3    H146562   5.398   4.145  14.211  0.8626  0.1632  0.2452
 8357TIP3    H246563   5.299   4.030  14.216  0.8212  0.2085  0.4805
 8358TIP3   OH246564   0.017   2.660  17.357 -0.0185  0.0172  0.2722
 8358TIP3    H146565  -0.059   2.626  17.310 -0.9231  3.0648 -0.6885
 8358TIP3    H246566  -0.020   2.700  17.436  0.9616 -0.9117  1.2387
 8359TIP3   OH246567   1.826   4.463   5.336 -0.2803 -0.1276  0.0507
 8359TIP3    H146568   1.860   4.402   5.270 -0.2477  1.4624 -1.4826
 8359TIP3    H246569   1.745   4.496   5.299 -0.0622  1.1001  0.6276
 8360TIP3   OH246570   3.897   5.543   3.313 -0.0057  0.7228 -0.2570
 8360TIP3    H146571   3.817   5.545   3.261  0.1132  0.2317 -0.4713
 8360TIP3    H246572   3.947   5.619   3.282 -0.8213  1.6407  0.6114
 8361TIP3   OH246573   5.117   1.295   5.147  0.0511  0.1602 -0.0147
 8361TIP3    H146574   5.067   1.338   5.216  0.6796  0.0249  0.5335
 8361TIP3    H246575   5.199   1.344   5.142  1.3090 -1.6423  1.4600
 8362TIP3   OH246576   6.443   5.335   3.480 -0.5072  0.2311  0.1757
 8362TIP3    H146577   6.385   5.346   3.405 -0.1515  1.4317  0.0548
 8362TIP3    H246578   6.422   5.409   3.537 -0.9600 -0.8094  1.4036
 8363TIP3   OH246579   5.489   2.115  16.533 -0.1186  0.5458 -0.9757
 8363TIP3    H146580   5.506   2.181  16.600  0.4957 -1.8690  1.3752
 8363TIP3    H246581   5.559   2.129  16.468  0.6792  1.4546  0.0433
 8364TIP3   OH246582   0.317   3.099  11.468 -0.1894 -0.2224 -0.0335
 8364TIP3    H146583   0.317   3.194  11.471 -2.0455 -0.2042  0.8832
 8364TIP3    H246584   0.402   3.076  11.431  0.3113  1.7736 -0.2341
 8365TIP3   OH246585   6.676   5.520   0.495 -0.4253 -0.1235 -0.3048
 8365TIP3    H146586   6.599   5.564   0.531  0.3550  0.2018  1.0381
 8365TIP3    H246587   6.727   5.590   0.454 -1.1406 -0.4398 -1.7901
 8366TIP3   OH246588   3.546   4.582   0.704  0.2863 -0.4637  0.1942
 8366TIP3    H146589   3.535   4.538   0.620 -0.4277 -0.9961  0.5562
 8366TIP3    H246590   3.580   4.669   0.681  1.3944 -1.0594 -0.5483
 8367TIP3   OH246591   3.771   6.645   4.100 -0.2941 -0.7829 -0.7155
 8367TIP3    H146592   3.724   6.712   4.051  0.7035  0.8513  0.4357
 8367TIP3    H246593   3.707   6.614   4.165 -0.1588  0.6468  0.1433
 8368TIP3   OH246594   4.395   1.397   5.942  0.1127 -0.2296  0.2124
 8368TIP3    H146595   4.309   1.423   5.909 -0.1347 -0.7775  0.4180
 8368TIP3    H246596   4.396   1.427   6.033  0.4878  0.5639 -0.0369
 8369TIP3   OH246597   5.236   3.725   5.985 -0.1921  0.2173 -0.2254
 8369TIP3    H146598   5.204   3.643   5.948 -1.1369 -0.6705  2.3574
 8369TIP3    H246599   5.240   3.785   5.911 -0.6952 -1.7884 -1.9594
 8370TIP3   OH246600   2.365   3.591   5.231  0.6131  0.6762 -0.0685
 8370TIP3    H146601   2.440   3.617   5.286  0.6682 -1.3377  0.8774
 8370TIP3    H246602   2.298   3.565   5.293  0.2473 -0.5235 -0.9380
 8371TIP3   OH246603   5.865   3.563   2.919 -0.0692 -0.1545  0.0255
 8371TIP3    H146604   5.830   3.641   2.876 -0.7938 -0.3221  0.2992
 8371TIP3    H246605   5.954   3.588   2.945 -0.2734  0.5527  0.0544
 8372TIP3   OH246606   5.278   2.308  13.003  0.2096  0.4211  0.0597
 8372TIP3    H146607   5.205   2.303  13.064 -1.7203 -1.1506 -2.2075
 8372TIP3    H246608   5.241   2.350  12.925  2.3899  1.7059 -0.3702
 8373TIP3   OH246609   3.967   0.939   3.459  0.1479  0.2200  0.3306
 8373TIP3    H146610   3.911   1.016   3.467 -1.5067 -0.6745 -1.5102
 8373TIP3    H246611   3.975   0.925   3.364  0.7791 -1.5922  0.6028
 8374TIP3   OH246612   0.342   5.881  11.326 -0.2935 -0.4497  0.4429
 8374TIP3    H146613   0.317   5.833  11.247  1.3292 -2.4925  1.0945
 8374TIP3    H246614   0.383   5.961  11.294  1.5637 -1.8600 -0.8962
 8375TIP3   OH246615   0.283   6.087  15.869  0.3976  0.2799 -0.7198
 8375TIP3    H146616   0.356   6.046  15.916  0.6815  1.2192 -0.3115
 8375TIP3    H246617   0.239   6.014  15.825 -0.0525 -0.6862  1.2231
 8376TIP3   OH246618   1.469   3.443  12.733  0.0637 -0.3702 -0.3545
 8376TIP3    H146619   1.500   3.509  12.671 -0.5796  0.3319  0.0654
 8376TIP3    H246620   1.499   3.360  12.695  1.3051  0.1757 -0.6459
 8377TIP3   OH246621   2.632   4.240   0.036 -0.8097  0.6918 -0.4773
 8377TIP3    H146622   2.624   4.172   0.103 -2.8895 -0.2468 -1.6126
 8377TIP3    H246623   2.702   4.209  -0.021 -1.2478 -0.1481 -0.5697
 8378TIP3   OH246624   2.570   3.971  14.061  0.2691 -0.1257 -0.0288
 8378TIP3    H146625   2.552   3.887  14.020  0.8482  0.3807 -1.3900
 8378TIP3    H246626   2.500   4.029  14.029  0.8015  0.3074 -0.4385
 8379TIP3   OH246627   6.721   6.288   3.121  0.0214 -0.6262 -0.1042
 8379TIP3    H146628   6.780   6.363   3.116 -0.5264 -0.1808  0.0686
 8379TIP3    H246629   6.677   6.297   3.205 -0.0746 -1.1247 -0.0959
 8380TIP3   OH246630   5.317   5.769   0.915 -0.0090  0.7607 -0.6888
 8380TIP3    H146631   5.375   5.772   0.839  1.9282  3.2852  0.7274
 8380TIP3    H246632   5.231   5.795   0.882  0.0295 -1.0705 -2.4598
 8381TIP3   OH246633   1.147   1.507  12.417  0.1609  0.0455 -0.2431
 8381TIP3    H146634   1.223   1.564  12.403 -0.3332  0.3466 -1.8956
 8381TIP3    H246635   1.184   1.419  12.426  0.6812  0.0936 -1.7135
 8382TIP3   OH246636   3.639   3.167  17.037 -0.1411 -0.0223  0.4824
 8382TIP3    H146637   3.672   3.227  16.969  0.6657  2.0780  2.5951
 8382TIP3    H246638   3.708   3.101  17.045  0.1056  0.1377 -0.2236
 8383TIP3   OH246639   2.149   5.837  13.239 -0.7903 -0.0516  0.3926
 8383TIP3    H146640   2.216   5.830  13.307  1.2945 -2.3783 -1.7079
 8383TIP3    H246641   2.104   5.753  13.240 -0.6642 -0.1610 -1.1479
 8384TIP3   OH246642   6.216   1.618   4.348 -0.4827 -0.1274  0.3100
 8384TIP3    H146643   6.247   1.702   4.381  0.1591  0.8093 -2.4604
 8384TIP3    H246644   6.286   1.556   4.371  0.0225  0.5082  0.5020
 8385TIP3   OH246645   6.680   3.979  13.042 -0.0434  0.1381 -0.3945
 8385TIP3    H146646   6.588   3.997  13.060  0.4198 -0.2131  3.2255
 8385TIP3    H246647   6.680   3.895  12.998 -1.4717 -0.9907  1.5826
 8386TIP3   OH246648   5.089   0.684   6.023  0.1724 -0.0599 -0.4155
 8386TIP3    H146649   5.002   0.666   5.989  0.2431  0.9083 -1.1616
 8386TIP3    H246650   5.144   0.691   5.945  0.8244 -0.1766  0.0242
 8387TIP3   OH246651   4.965   6.066  12.326 -0.5145  0.2085 -0.1746
 8387TIP3    H146652   5.041   6.117  12.357  0.1415 -0.5053 -0.5581
 8387TIP3    H246653   4.889   6.119  12.350  0.1406  1.3931 -0.6030
 8388TIP3   OH246654   3.401   3.964  15.567  0.2023  0.3738 -0.3125
 8388TIP3    H146655   3.383   4.058  15.572 -2.1278 -0.0900  2.7191
 8388TIP3    H246656   3.474   3.951  15.627 -0.0513  0.1367 -0.0558
 8389TIP3   OH246657   2.078   2.580   3.654 -0.2180  0.7953  0.1086
 8389TIP3    H146658   2.105   2.498   3.612  0.1088  0.3218  1.1836
 8389TIP3    H246659   2.078   2.645   3.584 -0.5800 -0.1437 -0.7896
 8390TIP3   OH246660   4.383   1.775   3.464  0.6450 -0.2236  0.3190
 8390TIP3    H146661   4.333   1.773   3.546  0.1488 -0.0522  0.0285
 8390TIP3    H246662   4.401   1.868   3.450  0.5304 -0.2322  0.1154
 8391TIP3   OH246663   2.921   3.265  16.635  0.2975 -0.5116  0.1038
 8391TIP3    H146664   2.966   3.328  16.692 -2.6543  0.2919  1.7250
 8391TIP3    H246665   2.953   3.287  16.547  0.5483  2.2721  0.7814
 8392TIP3   OH246666   1.232   5.283   1.187 -0.4381  0.5332  0.0025
 8392TIP3    H146667   1.289   5.355   1.161 -1.7301  1.5673 -0.0224
 8392TIP3    H246668   1.161   5.284   1.124 -1.3603  0.3189  1.0116
 8393TIP3   OH246669   3.139   4.077   3.796  0.4655  0.1364  0.6574
 8393TIP3    H146670   3.098   4.094   3.881 -0.5138 -2.3526  0.7708
 8393TIP3    H246671   3.066   4.076   3.734  0.7678 -0.9781  0.3010
 8394TIP3   OH246672   6.145   4.642   0.518  0.2505  0.5459  0.0091
 8394TIP3    H146673   6.073   4.593   0.558 -0.6173  0.0452 -2.0044
 8394TIP3    H246674   6.160   4.597   0.434  1.2174  2.1636 -0.7325
 8395TIP3   OH246675   5.031   2.374   3.357 -0.1959  0.2285  0.1107
 8395TIP3    H146676   4.939   2.363   3.379  0.0209  1.2654  1.6391
 8395TIP3    H246677   5.039   2.334   3.270 -1.6035 -1.8293  0.8485
 8396TIP3   OH246678   5.992   3.158   0.939  0.2469 -0.3183  0.3555
 8396TIP3    H146679   5.952   3.100   0.874  0.8742  1.1181 -1.4002
 8396TIP3    H246680   6.078   3.120   0.955  0.2991 -0.3858 -0.0812
 8397TIP3   OH246681   4.578   5.977   5.981  0.1399 -0.7312  0.0701
 8397TIP3    H146682   4.550   5.967   6.072  0.0408 -2.7295 -0.1332
 8397TIP3    H246683   4.502   5.950   5.929  0.6731 -1.0427 -0.5669
 8398TIP3   OH246684   3.853   5.210   4.895  0.3698 -0.4285  0.2434
 8398TIP3    H146685   3.910   5.187   4.968  1.1837  1.1644  0.1553
 8398TIP3    H246686   3.764   5.203   4.931  0.3388 -4.6468 -0.0878
 8399TIP3   OH246687   4.323   4.916   1.360  0.2384 -0.6679 -0.0816
 8399TIP3    H146688   4.274   4.998   1.368 -1.5630 -1.7529  0.6880
 8399TIP3    H246689   4.409   4.936   1.396 -1.1001  0.1275  3.0480
 8400TIP3   OH246690   2.125   6.655  11.868  0.6748 -0.2273  0.4986
 8400TIP3    H146691   2.163   6.596  11.802  1.2548  0.4739  0.1944
 8400TIP3    H246692   2.189   6.656  11.939 -0.0810 -1.2025  1.2211
 8401TIP3   OH246693   6.741   0.174  17.196 -0.1320  0.2410 -0.1717
 8401TIP3    H146694   6.769   0.265  17.188 -0.1340  0.1235 -2.1948
 8401TIP3    H246695   6.655   0.178  17.238  0.3882  1.0581  0.8454
 8402TIP3   OH246696   0.674   6.486  13.712  1.3842 -0.5551 -0.2531
 8402TIP3    H146697   0.638   6.397  13.705 -0.6577  0.3118 -1.5245
 8402TIP3    H246698   0.711   6.503  13.625  1.3923  0.0099 -0.1402
 8403TIP3   OH246699   5.215   6.585   3.618 -0.0989  0.5746  0.1362
 8403TIP3    H146700   5.298   6.613   3.656  0.3153  2.0091 -1.7216
 8403TIP3    H246701   5.232   6.496   3.586  0.9750  1.1278 -0.8889
 8404TIP3   OH246702   3.465   0.598   0.817 -0.4062  0.5780  0.5987
 8404TIP3    H146703   3.517   0.678   0.809  0.4682 -0.1009 -1.1638
 8404TIP3    H246704   3.378   0.628   0.843 -0.1415  2.1286 -0.1987
 8405TIP3   OH246705   4.081   2.870   0.110 -0.1174  0.1178  0.0929
 8405TIP3    H146706   4.160   2.914   0.079 -0.0010 -0.4933 -0.4988
 8405TIP3    H246707   4.029   2.854   0.031  0.0819 -1.2512  0.2174
 8406TIP3   OH246708   2.477   2.237  11.686 -0.2528 -0.4123 -0.3657
 8406TIP3    H146709   2.485   2.240  11.591 -0.5808 -2.7439 -0.5381
 8406TIP3    H246710   2.405   2.176  11.702 -1.8356  1.7579  1.3959
 8407TIP3   OH246711   0.008   6.087  13.817  0.0918 -0.2922  0.1021
 8407TIP3    H146712  -0.007   6.013  13.876  1.5094  1.4290  2.8484
 8407TIP3    H246713   0.101   6.107  13.826 -0.5384  2.9571  1.0795
 8408TIP3   OH246714   1.608   6.465   6.051 -0.2104  0.4790 -0.1523
 8408TIP3    H146715   1.626   6.384   6.099 -0.7800  0.7116  0.4727
 8408TIP3    H246716   1.661   6.531   6.093 -1.6269  0.9402  0.9968
 8409TIP3   OH246717   3.290   0.039  11.472 -0.9647  0.3911  0.6867
 8409TIP3    H146718   3.207   0.001  11.443 -0.2406 -1.4895  0.9222
 8409TIP3    H246719   3.315   0.099  11.402 -1.3528 -0.8376 -0.5408
 8410TIP3   OH246720   2.633   6.568  14.722  0.2345  0.1430 -0.3182
 8410TIP3    H146721   2.570   6.638  14.741 -1.2298 -0.8027 -1.4035
 8410TIP3    H246722   2.583   6.487  14.737  1.5605 -0.6681 -0.1292
 8411TIP3   OH246723   4.560   1.926   1.389  0.0244 -0.4028  0.1206
 8411TIP3    H146724   4.467   1.936   1.407 -0.0180  1.2099 -0.8238
 8411TIP3    H246725   4.598   1.899   1.473 -1.2344 -0.7404  0.5946
 8412TIP3   OH246726   6.513   5.543  13.852  0.4392  0.4135  0.1061
 8412TIP3    H146727   6.552   5.621  13.811  2.2721 -0.1333  0.7148
 8412TIP3    H246728   6.516   5.476  13.784  1.7163  0.0409  0.5049
 8413TIP3   OH246729   3.999   1.613   5.073 -0.2762 -0.4313  0.3637
 8413TIP3    H146730   3.986   1.631   5.166 -0.8233  3.1593 -0.2928
 8413TIP3    H246731   4.075   1.555   5.071  1.7378  1.8566  2.9827
 8414TIP3   OH246732   0.696   5.869  13.813  0.3431  0.1520 -0.1929
 8414TIP3    H146733   0.654   5.880  13.728 -2.5342  1.5675  1.2517
 8414TIP3    H246734   0.659   5.788  13.847  0.8819 -0.0032  0.0252
 8415TIP3   OH246735   5.801   5.107  16.144 -0.0068 -0.5179 -0.1254
 8415TIP3    H146736   5.822   5.021  16.110  1.1781 -0.6956  0.9620
 8415TIP3    H246737   5.709   5.101  16.170 -0.1428 -1.2123 -0.7476
 8416TIP3   OH246738   6.121   6.586   1.311  0.3959  0.5278 -0.2732
 8416TIP3    H146739   6.176   6.510   1.331  1.4744  1.0338 -1.1891
 8416TIP3    H246740   6.174   6.638   1.250 -0.6916  1.5608 -0.3655
 8417TIP3   OH246741   5.966   3.138   3.170  0.1624 -0.0711 -0.2178
 8417TIP3    H146742   6.026   3.212   3.168  1.1827 -0.8850 -1.6080
 8417TIP3    H246743   6.013   3.069   3.216  0.3448 -0.7228 -1.3320
 8418TIP3   OH246744   3.570   5.320   5.179 -0.6053 -0.6050  0.4637
 8418TIP3    H146745   3.509   5.385   5.213 -0.3070  0.4676 -0.9482
 8418TIP3    H246746   3.549   5.314   5.086  0.4593 -1.3212  0.2530
 8419TIP3   OH246747   0.983   5.753  13.554  0.0607  0.2894 -0.8210
 8419TIP3    H146748   0.989   5.715  13.466  1.9908  0.0817 -0.6450
 8419TIP3    H246749   0.997   5.846  13.540  0.7571  0.2092 -0.7270
 8420TIP3   OH246750   0.406   4.593   6.605  0.2413  0.6745  0.3384
 8420TIP3    H146751   0.384   4.665   6.546 -1.1854 -0.2307 -0.3177
 8420TIP3    H246752   0.352   4.609   6.683 -0.0885  0.3162  0.1855
 8421TIP3   OH246753   3.925   3.553   3.770 -0.2487 -0.0088  0.3653
 8421TIP3    H146754   3.902   3.526   3.859 -3.5487 -0.0699 -0.3856
 8421TIP3    H246755   3.879   3.636   3.758 -0.8433 -0.5940 -1.6712
 8422TIP3   OH246756   2.236   1.883  12.910 -0.7394 -0.0764  0.1697
 8422TIP3    H146757   2.191   1.799  12.923 -0.2567 -0.3190  0.3104
 8422TIP3    H246758   2.275   1.902  12.996 -0.0379 -0.1891 -0.1202
 8423TIP3   OH246759   0.917   1.920  12.535  0.3419 -0.0006 -0.0458
 8423TIP3    H146760   0.867   1.909  12.616 -0.5344  0.2747 -0.5400
 8423TIP3    H246761   1.000   1.958  12.563  1.0189 -2.0676  0.9949
 8424TIP3   OH246762   1.995   2.461   5.239 -0.4707  0.0172 -0.0097
 8424TIP3    H146763   1.932   2.499   5.177 -1.6127 -0.6441  0.7076
 8424TIP3    H246764   1.963   2.489   5.325  0.9504  0.7162  0.3203
 8425TIP3   OH246765   4.848   2.310  16.323  0.1207  0.2897 -0.4584
 8425TIP3    H146766   4.820   2.225  16.289  1.7493 -0.6469  0.4215
 8425TIP3    H246767   4.908   2.344  16.256  1.8671 -0.7020  0.5370
 8426TIP3   OH246768   6.233   1.428  10.834 -0.3413 -0.7509  0.2614
 8426TIP3    H146769   6.320   1.391  10.851 -0.7976 -1.8198  0.2839
 8426TIP3    H246770   6.251   1.520  10.812  0.7629 -0.8616  0.6152
 8427TIP3   OH246771   1.158   5.388  14.763 -0.1254  0.1718 -0.6202
 8427TIP3    H146772   1.232   5.411  14.818  1.5029 -0.9825 -2.2342
 8427TIP3    H246773   1.093   5.351  14.824  2.1404 -2.3866  0.4534
 8428TIP3   OH246774   1.990   5.989  15.427  0.0542 -0.7183  0.0566
 8428TIP3    H146775   1.970   6.051  15.357  0.6071 -1.6265 -0.9296
 8428TIP3    H246776   2.067   6.025  15.471 -0.9774  0.4510  0.9689
 8429TIP3   OH246777   5.220   6.369   4.782 -0.7439  0.8462 -0.0476
 8429TIP3    H146778   5.155   6.304   4.754 -1.4622  1.3562  0.4098
 8429TIP3    H246779   5.205   6.444   4.724  0.1916  0.5676 -0.6830
 8430TIP3   OH246780   0.312   4.373   0.623 -0.1354 -0.0795 -0.7373
 8430TIP3    H146781   0.397   4.416   0.633  0.4325 -0.9625 -1.5831
 8430TIP3    H246782   0.248   4.444   0.634  0.7003  0.6060 -0.1368
 8431TIP3   OH246783   5.889   5.366  15.778 -0.1793 -0.3833  0.4204
 8431TIP3    H146784   5.961   5.311  15.746 -0.0995 -0.4977  0.7913
 8431TIP3    H246785   5.829   5.373  15.704 -0.5774 -1.6088  0.6035
 8432TIP3   OH246786   5.320   5.994   2.698  0.2366  0.9979  0.1604
 8432TIP3    H146787   5.362   6.023   2.779 -0.1172 -1.0987  1.1724
 8432TIP3    H246788   5.299   5.902   2.714 -0.6259  0.7583 -2.0163
 8433TIP3   OH246789   2.432   4.208  15.283 -0.2788 -1.0719  0.0052
 8433TIP3    H146790   2.339   4.200  15.259  0.1184 -1.6079 -1.4395
 8433TIP3    H246791   2.460   4.119  15.302 -0.1927 -0.8355  1.0706
 8434TIP3   OH246792   6.675   0.889   1.270  0.1657 -0.1780  0.7512
 8434TIP3    H146793   6.726   0.808   1.267 -0.8071 -0.8524  1.7589
 8434TIP3    H246794   6.692   0.925   1.357 -0.7767 -0.2197  0.9569
 8435TIP3   OH246795   4.033   5.839   1.715  0.0336 -0.0591 -0.2949
 8435TIP3    H146796   4.019   5.932   1.732 -3.0212 -0.8005  2.0138
 8435TIP3    H246797   4.106   5.815   1.771  0.6724  0.8380 -0.7041
 8436TIP3   OH246798   1.407   4.033   5.894 -0.0072  0.8349  0.1703
 8436TIP3    H146799   1.405   3.946   5.932 -0.9148  0.9830  0.4976
 8436TIP3    H246800   1.439   4.020   5.805  1.3326  0.3793  0.6999
 8437TIP3   OH246801   6.125   0.839  16.570 -0.2923 -0.1795  0.2664
 8437TIP3    H146802   6.151   0.811  16.482 -1.7588 -1.1236  0.0939
 8437TIP3    H246803   6.201   0.820  16.625  0.5024  0.0526 -0.7062
 8438TIP3   OH246804   5.424   1.937   0.997 -0.4191 -0.2042 -0.3110
 8438TIP3    H146805   5.389   2.013   1.043 -1.8380 -0.0966 -1.5015
 8438TIP3    H246806   5.455   1.971   0.914  0.6317 -0.6570 -0.1189
 8439TIP3   OH246807   4.526   2.433  11.427  0.5498  0.7399 -0.3530
 8439TIP3    H146808   4.438   2.420  11.460  0.2717  1.6681 -0.7166
 8439TIP3    H246809   4.532   2.374  11.352  0.1511  0.8660 -0.4853
 8440TIP3   OH246810   4.606   2.218   0.642 -0.2565 -0.2067 -0.1440
 8440TIP3    H146811   4.570   2.264   0.718 -1.5133 -0.3396 -0.6361
 8440TIP3    H246812   4.548   2.143   0.630 -1.6757  1.1827 -2.7503
 8441TIP3   OH246813   1.696   3.583  16.676  0.2733 -0.0979  0.1063
 8441TIP3    H146814   1.604   3.589  16.650  0.2834  0.9338  0.2801
 8441TIP3    H246815   1.743   3.574  16.593  0.0743  0.1307 -0.0346
 8442TIP3   OH246816   4.211   3.982  11.042 -0.2691 -0.2812  0.3386
 8442TIP3    H146817   4.202   4.009  10.950  1.1969 -0.0275  0.2482
 8442TIP3    H246818   4.172   3.894  11.045  0.0141 -0.4521 -0.6156
 8443TIP3   OH246819   0.244   5.554  15.972 -0.1913 -0.2871 -0.0553
 8443TIP3    H146820   0.155   5.546  16.006  0.0382 -0.8442  0.4297
 8443TIP3    H246821   0.233   5.587  15.883 -0.7616  2.3383  0.9137
 8444TIP3   OH246822   6.065   5.902   4.191 -0.0003  0.1480  0.3342
 8444TIP3    H146823   6.017   5.829   4.230  1.0020 -1.4117 -1.2279
 8444TIP3    H246824   5.997   5.968   4.172 -0.8424 -0.0911  2.2835
 8445TIP3   OH246825   5.530   6.740  16.450  0.0500 -0.1172 -0.0097
 8445TIP3    H146826   5.564   6.703  16.368 -1.2229 -0.2242 -0.5078
 8445TIP3    H246827   5.559   6.832  16.447 -1.3584  0.3372 -1.4175
 8446TIP3   OH246828   2.616   0.934  16.332  0.4598 -0.1134 -0.4116
 8446TIP3    H146829   2.531   0.962  16.300  0.9986 -0.3422 -2.1485
 8446TIP3    H246830   2.606   0.840  16.348 -0.2473  0.2684  1.6928
 8447TIP3   OH246831   2.261   1.393   0.531 -0.0699 -0.1253  0.4242
 8447TIP3    H146832   2.327   1.457   0.505 -0.3194 -0.6897 -1.7723
 8447TIP3    H246833   2.312   1.316   0.557  0.1793 -0.3725 -0.7405
 8448TIP3   OH246834   1.954   2.457  13.507 -0.6728  0.0099 -0.7796
 8448TIP3    H146835   1.919   2.523  13.566  3.0391  2.1293 -0.6698
 8448TIP3    H246836   1.989   2.507  13.433  0.4203 -2.0345 -1.7253
 8449TIP3   OH246837   5.215   5.429   3.812  0.1717  0.2098  0.2771
 8449TIP3    H146838   5.160   5.352   3.804 -0.8534  0.3861  3.8149
 8449TIP3    H246839   5.154   5.501   3.830  1.3238  0.7664  2.3967
 8450TIP3   OH246840   5.049   6.392  12.788 -0.6213 -0.1077 -0.9626
 8450TIP3    H146841   4.965   6.412  12.747  0.1341 -0.6257 -2.8991
 8450TIP3    H246842   5.072   6.471  12.836 -1.2432  0.8291 -2.1468
 8451TIP3   OH246843   4.588   0.567  12.550 -0.2936  0.2470 -0.4017
 8451TIP3    H146844   4.498   0.599  12.543 -1.0715 -1.8464 -0.5216
 8451TIP3    H246845   4.606   0.569  12.644 -0.0180  1.7019 -0.4507
 8452TIP3   OH246846   6.027   2.169   6.872 -0.2845 -0.2174  0.4184
 8452TIP3    H146847   6.073   2.253   6.869 -0.6575 -0.0002  0.7175
 8452TIP3    H246848   5.970   2.171   6.795 -0.2033 -0.2479  0.3576
 8453TIP3   OH246849   5.319   1.041   1.628  0.1020  0.4340 -0.1318
 8453TIP3    H146850   5.328   1.116   1.687  2.4090  1.4193 -1.5793
 8453TIP3    H246851   5.360   1.070   1.546  2.1405 -2.7304 -0.4174
 8454TIP3   OH246852   6.391   1.251  12.445  0.1958 -0.5486  0.3960
 8454TIP3    H146853   6.317   1.190  12.446 -0.9403  0.7449 -0.9101
 8454TIP3    H246854   6.443   1.225  12.369  0.1103 -0.3577  0.2715
 8455TIP3   OH246855   1.677   1.963  13.542  0.2361 -0.1333  0.2180
 8455TIP3    H146856   1.700   1.952  13.634  0.9616  0.2341  0.0930
 8455TIP3    H246857   1.694   2.056  13.525 -1.1754  0.1138  0.0541
 8456TIP3   OH246858   5.654   4.756  17.376 -0.4369 -0.1749  0.4784
 8456TIP3    H146859   5.700   4.839  17.387  1.3028 -0.9988 -0.1961
 8456TIP3    H246860   5.694   4.697  17.440 -1.2291 -0.6802  0.5344
 8457TIP3   OH246861   4.376   1.087  16.860  0.4803  0.0216  0.3879
 8457TIP3    H146862   4.405   1.072  16.770  0.5457 -0.0624  0.4224
 8457TIP3    H246863   4.288   1.124  16.851  0.0935 -0.9034  0.3178
 8458TIP3   OH246864   1.955   3.520  15.514 -0.3605  0.1037  0.3951
 8458TIP3    H146865   1.994   3.442  15.552  1.3270 -0.2231 -1.7804
 8458TIP3    H246866   2.022   3.587  15.522 -2.2297  1.8761  3.4004
 8459TIP3   OH246867   0.012   2.297   3.962 -0.0116  0.7589 -0.4405
 8459TIP3    H146868   0.037   2.367   3.901  0.0769  0.6664 -0.5107
 8459TIP3    H246869  -0.030   2.342   4.035 -1.6754  0.7642 -1.3475
 8460TIP3   OH246870   2.970   0.071  17.247  0.2600 -1.0364  0.4549
 8460TIP3    H146871   3.061   0.048  17.262  0.9807  0.8784 -0.5955
 8460TIP3    H246872   2.970   0.166  17.238 -1.9995 -0.8771  1.3554
 8461TIP3   OH246873   5.626   2.117   3.893 -0.2405 -0.4724 -0.2235
 8461TIP3    H146874   5.612   2.192   3.950 -0.3623 -0.3414 -0.4248
 8461TIP3    H246875   5.544   2.107   3.844  0.2565  0.1624 -1.2381
 8462TIP3   OH246876   5.460   1.512   6.120  0.0039 -0.2285  0.0688
 8462TIP3    H146877   5.553   1.490   6.113  0.1365  0.4899 -0.5570
 8462TIP3    H246878   5.456   1.579   6.188 -0.0624 -0.2522  0.0888
 8463TIP3   OH246879   3.150   6.666  14.171 -0.4219 -0.1130 -0.4020
 8463TIP3    H146880   3.239   6.633  14.183 -0.7305 -1.1290 -0.8229
 8463TIP3    H246881   3.094   6.598  14.208 -1.1164 -0.5890 -2.2022
 8464TIP3   OH246882   6.669   2.922   1.048  0.4969 -0.9042 -0.1383
 8464TIP3    H146883   6.675   2.943   1.141 -0.9756 -1.4882  0.1127
 8464TIP3    H246884   6.758   2.894   1.025  0.2263 -3.9590  1.9211
 8465TIP3   OH246885   0.322   6.525   2.782 -0.4428 -0.2729 -0.1140
 8465TIP3    H146886   0.385   6.576   2.834 -0.6421  0.6199 -0.7161
 8465TIP3    H246887   0.365   6.516   2.696 -0.4750 -1.0037 -0.0563
 8466TIP3   OH246888   0.859   3.359   4.000 -0.5623 -0.3446 -0.1828
 8466TIP3    H146889   0.900   3.380   3.916  1.8135  0.9001  1.1675
 8466TIP3    H246890   0.791   3.426   4.011  0.0930  0.3889 -0.4898
 8467TIP3   OH246891   5.559   5.436  13.725  0.0541  0.1030  0.1705
 8467TIP3    H146892   5.563   5.521  13.768 -2.0807  0.6866 -0.6761
 8467TIP3    H246893   5.551   5.373  13.796  2.7412  0.4191  0.8749
 8468TIP3   OH246894   0.920   4.942   5.482  0.2778  0.4749 -0.0382
 8468TIP3    H146895   0.846   4.963   5.426 -1.0906 -1.2695  1.0313
 8468TIP3    H246896   0.964   4.869   5.439  0.3493  0.3672  0.2128
 8469TIP3   OH246897   1.240   3.134   5.396 -0.2696  0.2823  0.0905
 8469TIP3    H146898   1.268   3.169   5.481  0.7395  0.1294 -0.1563
 8469TIP3    H246899   1.250   3.039   5.406 -1.1159  0.1930  0.1231
 8470TIP3   OH246900   5.732   6.292  16.268  0.0742  0.6199  0.3784
 8470TIP3    H146901   5.678   6.236  16.212 -0.3257  0.7627  0.6073
 8470TIP3    H246902   5.670   6.325  16.334  0.0916  2.0276 -0.2604
 8471TIP3   OH246903   3.019   5.949   5.740  0.0713  0.1191  0.2160
 8471TIP3    H146904   2.937   5.942   5.790  0.0531 -0.3268  0.1237
 8471TIP3    H246905   3.080   5.891   5.785 -0.0732 -0.6309 -0.5414
 8472TIP3   OH246906   1.984   6.375   6.028  0.5875  0.3756 -0.1528
 8472TIP3    H146907   1.950   6.300   5.979  1.7145 -0.6587  0.5765
 8472TIP3    H246908   1.966   6.353   6.120  1.8020  0.5258  0.1366
 8473TIP3   OH246909   3.397   0.435   5.418 -0.4774 -0.0001  0.2138
 8473TIP3    H146910   3.341   0.400   5.348  0.3105 -1.9670  0.5096
 8473TIP3    H246911   3.424   0.521   5.386 -0.1453 -0.8359 -1.9364
 8474TIP3   OH246912   5.829   5.605  16.768 -0.1764  0.4021 -0.0603
 8474TIP3    H146913   5.806   5.634  16.679  0.5248 -0.2650 -0.4720
 8474TIP3    H246914   5.807   5.680  16.823 -2.9296 -0.0365 -0.4378
 8475TIP3   OH246915   3.700   3.138  17.368 -0.4822 -0.0864 -0.1605
 8475TIP3    H146916   3.640   3.190  17.315  0.2357  1.3827  0.4045
 8475TIP3    H246917   3.787   3.165  17.339 -0.0912 -0.3375  0.7533
 8476TIP3   OH246918   1.264   2.612   4.697  0.2332 -0.2923 -0.4409
 8476TIP3    H146919   1.182   2.574   4.729  0.6946 -1.8678 -1.0183
 8476TIP3    H246920   1.265   2.592   4.603  0.5760  1.0748 -0.7542
 8477TIP3   OH246921   2.710   1.483   0.211  0.0925  0.0537 -0.0552
 8477TIP3    H146922   2.780   1.530   0.255  2.3435 -1.2502 -2.0308
 8477TIP3    H246923   2.718   1.507   0.119 -0.8550 -1.5435 -0.5977
 8478TIP3   OH246924   0.225   6.073   2.986  0.0743  0.4256  0.3692
 8478TIP3    H146925   0.228   6.160   3.026  1.1308  0.5907 -0.0245
 8478TIP3    H246926   0.142   6.036   3.015  0.6430  0.6371  2.5090
 8479TIP3   OH246927   4.973   5.113   3.045 -0.0096 -0.1111 -0.4706
 8479TIP3    H146928   4.993   5.113   2.951  1.0538  1.4012 -0.2838
 8479TIP3    H246929   4.961   5.206   3.066 -1.7254 -0.5542  0.6051
 8480TIP3   OH246930   1.550   5.077   3.715 -0.2638  0.1097  0.1633
 8480TIP3    H146931   1.635   5.036   3.728  1.9466  2.1504 -4.9616
 8480TIP3    H246932   1.545   5.145   3.781  0.8414 -1.5670  2.0920
 8481TIP3   OH246933   1.164   5.651   1.171  1.0944  0.1026  0.5658
 8481TIP3    H146934   1.078   5.632   1.132  0.7670 -0.0854  1.3555
 8481TIP3    H246935   1.189   5.735   1.134  0.2732  0.4636  0.8065
 8482TIP3   OH246936   6.234   2.816   2.457  0.3978 -0.1209 -0.0419
 8482TIP3    H146937   6.309   2.870   2.482 -1.4684  2.8157 -0.1883
 8482TIP3    H246938   6.202   2.780   2.539  0.5361  0.7044  0.3925
 8483TIP3   OH246939   4.815   5.207   3.738  0.0075 -0.9221 -0.0845
 8483TIP3    H146940   4.815   5.147   3.814 -0.5014 -2.0023 -0.9023
 8483TIP3    H246941   4.731   5.252   3.744 -1.0820 -2.6504 -1.1915
 8484TIP3   OH246942   1.835   0.001   2.481  0.1386  0.2047  0.1022
 8484TIP3    H146943   1.796   0.061   2.544  0.0941 -0.1401  0.4110
 8484TIP3    H246944   1.908  -0.039   2.528 -1.3979 -1.9236  0.8353
 8485TIP3   OH246945   0.058   5.317  14.415  0.1785 -0.0755 -0.7712
 8485TIP3    H146946   0.040   5.404  14.451  0.2470 -0.1100 -0.6535
 8485TIP3    H246947   0.019   5.319  14.328 -1.4718 -0.5583 -0.0747
 8486TIP3   OH246948   4.333   2.675   3.841  0.3315 -0.5486 -0.0147
 8486TIP3    H146949   4.324   2.584   3.869  1.4478 -0.0688  2.0898
 8486TIP3    H246950   4.409   2.707   3.889 -0.2069  1.5832 -0.4936
 8487TIP3   OH246951   4.462   4.502   1.220  0.3179  0.0272 -0.2144
 8487TIP3    H146952   4.410   4.445   1.164  0.0514  0.2029 -0.1491
 8487TIP3    H246953   4.456   4.588   1.179  0.6377  0.0270 -0.2588
 8488TIP3   OH246954   5.041   2.382   1.127 -0.5354  0.0780 -0.3147
 8488TIP3    H146955   5.131   2.389   1.159 -0.2042 -1.2336 -0.8875
 8488TIP3    H246956   4.988   2.367   1.205  0.1818 -2.3887 -0.2011
 8489TIP3   OH246957   5.616   4.126   3.742  0.7101 -0.0797 -0.1284
 8489TIP3    H146958   5.681   4.066   3.706  0.2991 -0.6729  0.1122
 8489TIP3    H246959   5.633   4.209   3.696  1.3959 -0.3230 -0.3274
 8490TIP3   OH246960   2.351   1.778   2.538  0.0483  0.3186 -0.2895
 8490TIP3    H146961   2.359   1.690   2.574 -1.0545 -0.3039 -1.4677
 8490TIP3    H246962   2.281   1.819   2.588 -0.0783  0.1926 -0.3644
 8491TIP3   OH246963   0.101   6.527   3.108  0.3520  0.4372  0.0190
 8491TIP3    H146964   0.176   6.475   3.079  0.8978  0.6391  1.0407
 8491TIP3    H246965   0.137   6.613   3.128 -0.2709  0.7351 -0.1237
 8492TIP3   OH246966   6.161   3.639   4.767 -0.2477  0.0448  0.1531
 8492TIP3    H146967   6.232   3.684   4.813  0.8881 -0.4665 -1.0320
 8492TIP3    H246968   6.168   3.668   4.677 -1.4865 -0.1261 -0.0170
 8493TIP3   OH246969   0.916   3.172   0.770  0.0520  0.7537 -0.4908
 8493TIP3    H146970   0.904   3.175   0.865  1.3259  1.2628 -0.3250
 8493TIP3    H246971   0.984   3.237   0.752 -0.3591  0.8577 -1.7920
 8494TIP3   OH246972   2.101   5.950   4.019 -0.3333  0.3953 -0.0131
 8494TIP3    H146973   2.049   5.897   3.958  0.9613  0.4983 -1.2808
 8494TIP3    H246974   2.060   6.036   4.017 -0.4934  0.3135 -0.5231
 8495TIP3   OH246975   5.824   3.930  16.308  0.7800 -0.2653 -0.4972
 8495TIP3    H146976   5.812   3.843  16.269 -0.8790 -0.1279 -0.3366
 8495TIP3    H246977   5.806   3.991  16.236  0.3221 -0.0374 -0.1912
 8496TIP3   OH246978   4.550   0.953  15.965  0.1434 -0.5277 -0.3284
 8496TIP3    H146979   4.587   0.915  15.886  0.7803  2.7137 -1.7245
 8496TIP3    H246980   4.617   1.014  15.996 -2.3863  2.6844 -0.7406
 8497TIP3   OH246981   6.075   2.703  15.369  0.1230 -0.1465 -0.5469
 8497TIP3    H146982   6.023   2.643  15.423  0.5550 -0.6864 -0.7135
 8497TIP3    H246983   6.085   2.658  15.285 -0.1278  0.4716 -0.9137
 8498TIP3   OH246984   1.042   4.947  12.617  0.2957  0.3398  0.6844
 8498TIP3    H146985   0.971   4.897  12.658 -0.0562  0.0572 -0.2248
 8498TIP3    H246986   1.009   4.967  12.529  1.2977  0.2963  0.2830
 8499TIP3   OH246987   4.972   1.272  14.171 -0.0091  0.2782 -0.2951
 8499TIP3    H146988   4.969   1.366  14.192  0.0824  0.3799 -0.7419
 8499TIP3    H246989   4.880   1.248  14.156  0.0330  0.4526 -0.8615
 8500TIP3   OH246990   4.079   3.792  10.874 -0.5627  0.0837  0.1109
 8500TIP3    H146991   4.071   3.701  10.845 -2.3339 -0.0176  0.8219
 8500TIP3    H246992   4.109   3.839  10.796 -0.7629 -0.9201 -0.5892
 8501TIP3   OH246993   3.964   4.289  14.668 -0.3768  0.5011 -0.4155
 8501TIP3    H146994   4.059   4.297  14.683 -0.5485  0.7806  0.6111
 8501TIP3    H246995   3.952   4.197  14.645  0.1120  0.3870 -0.2411
 8502TIP3   OH246996   2.156   1.180  11.272  0.3504  0.1054  0.2025
 8502TIP3    H146997   2.064   1.167  11.295  0.3806 -2.8229 -0.9002
 8502TIP3    H246998   2.154   1.235  11.194 -0.3468  1.2194  0.9863
 8503TIP3   OH246999   5.313   4.410   2.230  0.6029 -0.4353  0.0685
 8503TIP3    H147000   5.358   4.439   2.150  0.3316  0.1582  0.1289
 8503TIP3    H247001   5.381   4.412   2.297  0.1200  2.2622  0.5759
 8504TIP3   OH247002   2.356   5.384   3.554  0.1565  0.6895 -0.4427
 8504TIP3    H147003   2.333   5.381   3.647  0.0607  0.4384 -0.4746
 8504TIP3    H247004   2.450   5.365   3.552  0.0444  0.1380 -0.4438
 8505TIP3   OH247005   3.016   4.569   0.067  0.0848  0.4950 -0.6136
 8505TIP3    H147006   2.931   4.575   0.024  1.4996 -1.2372 -4.0008
 8505TIP3    H247007   3.049   4.659   0.066 -1.3936  1.0794  0.1616
 8506TIP3   OH247008   4.405   2.860  12.801 -0.3373 -0.1846  0.1349
 8506TIP3    H147009   4.471   2.912  12.755 -0.3461  1.1755  1.5498
 8506TIP3    H247010   4.422   2.770  12.774  1.4280  0.2528 -0.3533
 8507TIP3   OH247011   1.646   2.064   6.041  0.4996  0.3984 -0.1749
 8507TIP3    H147012   1.641   2.023   5.954 -1.8247  0.6319 -0.2134
 8507TIP3    H247013   1.666   2.155   6.023 -1.8960  0.8892 -0.6816
 8508TIP3   OH247014   2.145   5.868  11.867 -0.3860  0.0922  0.2787
 8508TIP3    H147015   2.193   5.950  11.857  0.6928 -0.4434  0.8204
 8508TIP3    H247016   2.084   5.885  11.939  0.1146  0.3083  0.6624
 8509TIP3   OH247017   3.501   6.396   1.122 -0.3315 -0.4219 -0.5931
 8509TIP3    H147018   3.557   6.424   1.194  0.9406 -0.6750 -1.4476
 8509TIP3    H247019   3.435   6.339   1.163  1.1165 -1.5860  0.2127
 8510TIP3   OH247020   2.262   3.511  14.313 -0.1117  0.2047  0.0649
 8510TIP3    H147021   2.297   3.554  14.235 -2.1898  0.2483 -0.8876
 8510TIP3    H247022   2.337   3.508  14.373  1.4182  0.6220 -1.7093
 8511TIP3   OH247023   0.340   2.139  12.672  0.7276  0.0229  0.2702
 8511TIP3    H147024   0.268   2.169  12.728  0.4145  0.9863 -0.6245
 8511TIP3    H247025   0.300   2.078  12.612  1.1285 -1.2749  1.2742
 8512TIP3   OH247026   4.673   1.050   4.428  0.0676  0.1598 -0.5918
 8512TIP3    H147027   4.690   1.110   4.500  0.0526 -1.5824  0.9575
 8512TIP3    H247028   4.602   1.090   4.379  0.1994  1.4868  0.2655
 8513TIP3   OH247029   6.495   5.300  13.691  0.5070  0.2757 -0.3129
 8513TIP3    H147030   6.439   5.222  13.691 -0.3079  0.8474  0.0055
 8513TIP3    H247031   6.566   5.279  13.752 -0.7426  0.4868  1.2778
 8514TIP3   OH247032   2.979   0.726   1.563 -0.0273  0.0052 -0.3617
 8514TIP3    H147033   3.020   0.803   1.603  0.7724  1.2220 -3.2695
 8514TIP3    H247034   3.041   0.655   1.580 -0.9489 -0.2221  2.6744
 8515TIP3   OH247035   0.751   4.629  15.322  0.1228  0.3868 -0.5277
 8515TIP3    H147036   0.724   4.604  15.411  1.6318  0.5158  0.0119
 8515TIP3    H247037   0.723   4.556  15.267  1.7489 -1.1332  0.5389
 8516TIP3   OH247038   2.400   2.972   4.474  0.4554 -0.3091  0.0895
 8516TIP3    H147039   2.381   3.065   4.464  0.6482 -0.1987  0.7429
 8516TIP3    H247040   2.356   2.946   4.554  0.5965 -0.7277  0.0368
 8517TIP3   OH247041   5.791   2.530   2.529 -0.1076  0.9620  0.0505
 8517TIP3    H147042   5.880   2.494   2.529 -1.0214 -1.5342  1.3816
 8517TIP3    H247043   5.760   2.516   2.618 -2.8826 -1.0986 -1.1049
 8518TIP3   OH247044   5.361   6.525   2.149  0.2575  0.3096  0.2595
 8518TIP3    H147045   5.270   6.497   2.149  0.3451  0.0195  0.5308
 8518TIP3    H247046   5.360   6.611   2.106 -0.0337 -0.0308 -0.4262
 8519TIP3   OH247047   6.006   4.911  13.804 -0.0368  0.2225 -0.2631
 8519TIP3    H147048   6.008   4.822  13.769  0.8687 -0.2580  0.9199
 8519TIP3    H247049   6.057   4.906  13.885 -0.5918  1.6623  0.2091
 8520TIP3   OH247050   5.377   3.888   1.797  0.2830  0.2569  0.1701
 8520TIP3    H147051   5.385   3.804   1.753 -0.3271  0.1979  0.1596
 8520TIP3    H247052   5.300   3.879   1.852  0.3304  0.7407  0.3209
 8521TIP3   OH247053   4.636   5.724   3.608  0.4360  0.0554  0.8935
 8521TIP3    H147054   4.583   5.732   3.528 -0.2576 -0.2772  1.3127
 8521TIP3    H247055   4.588   5.661   3.662  1.8775 -1.1775  0.7880
 8522TIP3   OH247056   0.859   3.772   3.389  0.0495 -0.8023 -0.1534
 8522TIP3    H147057   0.918   3.698   3.401  0.4300 -0.5081 -0.1658
 8522TIP3    H247058   0.815   3.781   3.474  0.7753 -0.3941  0.1964
 8523TIP3   OH247059   2.458   3.140   5.601 -0.3885  0.7262 -0.2394
 8523TIP3    H147060   2.505   3.069   5.558  1.0129  1.3788  0.1525
 8523TIP3    H247061   2.393   3.168   5.537 -1.2587 -1.1383 -0.2492
 8524TIP3   OH247062   5.847   5.805  15.347 -0.0795 -0.8383 -0.2991
 8524TIP3    H147063   5.785   5.840  15.411 -1.0694 -2.0007 -0.5865
 8524TIP3    H247064   5.932   5.812  15.390 -0.5309 -0.2197  0.5354
 8525TIP3   OH247065   5.791   1.522   1.913 -0.0903 -0.4289  0.8632
 8525TIP3    H147066   5.706   1.518   1.870 -0.9626  1.7766  2.1750
 8525TIP3    H247067   5.801   1.436   1.954 -1.8085 -0.6728  0.8608
 8526TIP3   OH247068   3.563   5.909   3.255  0.6161 -0.2196  0.7470
 8526TIP3    H147069   3.592   5.933   3.167  0.2659 -0.2192  0.6318
 8526TIP3    H247070   3.637   5.932   3.311  1.1917 -1.0411  0.3509
 8527TIP3   OH247071   6.103   0.641   6.992  0.0442  0.0988  0.4488
 8527TIP3    H147072   6.119   0.707   6.925  0.7386 -0.0664  0.4445
 8527TIP3    H247073   6.019   0.665   7.031  0.3267  1.0241  0.4995
 8528TIP3   OH247074   5.326   0.600  11.938  0.0385  0.4789 -0.3373
 8528TIP3    H147075   5.272   0.643  12.004 -1.0214 -0.6704 -0.4278
 8528TIP3    H247076   5.387   0.545  11.988 -0.0729  0.3987 -0.2907
 8529TIP3   OH247077   6.074   3.403   3.565  0.7650 -0.1383  0.2453
 8529TIP3    H147078   6.082   3.458   3.487 -0.2480 -0.8252 -0.3713
 8529TIP3    H247079   6.015   3.452   3.623  0.4786 -0.2138  0.0227
 8530TIP3   OH247080   1.033   2.228  17.432 -0.5939  0.1022 -0.6282
 8530TIP3    H147081   1.074   2.169  17.496  0.8037  2.0165  0.3550
 8530TIP3    H247082   1.004   2.171  17.361  1.1698 -1.6987  0.0140
 8531TIP3   OH247083   4.201   1.385   0.790 -0.6989  0.0792 -0.7887
 8531TIP3    H147084   4.254   1.456   0.828 -0.2495 -1.1638  1.0234
 8531TIP3    H247085   4.264   1.314   0.774 -1.5853 -0.9844  0.2819
 8532TIP3   OH247086   5.582   3.609   4.846  0.3407 -0.3022  0.4785
 8532TIP3    H147087   5.574   3.695   4.889  1.3170 -0.9130  1.9625
 8532TIP3    H247088   5.663   3.615   4.795  0.3016 -0.2783  0.4191
 8533TIP3   OH247089   6.122   3.400  16.242  0.3014 -0.6752 -0.6727
 8533TIP3    H147090   6.036   3.368  16.215 -0.1210 -0.3076  0.2206
 8533TIP3    H247091   6.146   3.462  16.173  0.2756 -1.4522 -1.4060
 8534TIP3   OH247092   0.220   1.027  12.777  0.4279 -0.1508  0.6414
 8534TIP3    H147093   0.229   1.028  12.682  0.2780  0.0638  0.6284
 8534TIP3    H247094   0.186   1.114  12.799  0.6755 -0.1205  0.9126
 8535TIP3   OH247095   1.380   2.422  11.141  0.1301  0.0042 -0.3958
 8535TIP3    H147096   1.363   2.382  11.226  0.6817 -1.1007 -0.7837
 8535TIP3    H247097   1.475   2.434  11.138  0.1679 -0.3632 -1.0094
 8536TIP3   OH247098   2.389   5.004  17.390  0.3227  0.1598  0.0880
 8536TIP3    H147099   2.448   5.058  17.338  2.4616 -1.0046  1.1218
 8536TIP3    H247100   2.364   5.060  17.464  1.5649  0.1762  0.5298
 8537TIP3   OH247101   1.992   2.331  14.230 -0.3067  0.1891 -0.3673
 8537TIP3    H147102   1.958   2.258  14.281 -2.2446  1.0164 -0.3932
 8537TIP3    H247103   1.975   2.308  14.139 -0.9936  0.6851 -0.3720
 8538TIP3   OH247104   2.757   4.413  12.929  0.0148 -0.2010 -0.1337
 8538TIP3    H147105   2.773   4.324  12.961  1.9717  0.2842  0.3818
 8538TIP3    H247106   2.781   4.410  12.837  1.1829  0.0164  0.1417
 8539TIP3   OH247107   2.028   2.722  11.958  0.3658 -0.2903  0.3344
 8539TIP3    H147108   2.080   2.797  11.927  1.7268 -0.9772  0.8515
 8539TIP3    H247109   1.938   2.754  11.959  0.7494  0.9050 -0.7535
 8540TIP3   OH247110   5.506   4.538  13.677 -0.4811  0.3456 -0.6039
 8540TIP3    H147111   5.586   4.590  13.673  0.7668 -1.3126  1.0845
 8540TIP3    H247112   5.454   4.578  13.747 -0.8439  1.0052 -1.2378
 8541TIP3   OH247113   6.073   4.192   2.104  0.2759  0.2567  0.5524
 8541TIP3    H147114   6.163   4.222   2.116  0.2278  1.6763 -2.0689
 8541TIP3    H247115   6.078   4.129   2.033 -0.7637  0.0082  0.6803
 8542TIP3   OH247116   3.467   4.190   6.073  0.4664  0.0334  0.3893
 8542TIP3    H147117   3.560   4.210   6.084  0.6299 -1.2873  1.5662
 8542TIP3    H247118   3.422   4.270   6.102  1.1843 -0.0479  1.7874
 8543TIP3   OH247119   5.194   3.554   3.852 -0.4374 -0.1700  0.7499
 8543TIP3    H147120   5.276   3.510   3.831 -0.3591  0.7296 -1.0667
 8543TIP3    H247121   5.220   3.633   3.900 -0.1731  0.3637 -0.2471
 8544TIP3   OH247122   6.443   3.951   1.212  0.1648  0.3356 -0.7892
 8544TIP3    H147123   6.507   3.892   1.252  0.3512 -0.5477 -2.3303
 8544TIP3    H247124   6.359   3.924   1.248  0.4652  0.4797  0.0515
 8545TIP3   OH247125   0.396   0.057   6.419  0.1908  0.4286  0.2359
 8545TIP3    H147126   0.412  -0.037   6.416 -1.6410 -0.2541  4.7031
 8545TIP3    H247127   0.483   0.096   6.412  1.0444 -1.5401 -1.2088
 8546TIP3   OH247128   0.622   5.600   2.231 -0.3052 -0.0420  0.6240
 8546TIP3    H147129   0.644   5.507   2.232  2.7655  0.5847  0.6295
 8546TIP3    H247130   0.556   5.610   2.300 -1.0343 -2.2396  0.3179
 8547TIP3   OH247131   2.509   2.627  17.171 -0.5884  0.2748  0.1236
 8547TIP3    H147132   2.468   2.545  17.199  0.0107  0.0039  0.2209
 8547TIP3    H247133   2.576   2.645  17.237 -2.0934  1.9688  1.3063
 8548TIP3   OH247134   6.161   3.554   4.346  0.3624  0.7411  0.5283
 8548TIP3    H147135   6.115   3.511   4.274 -2.0630  1.4492  1.5464
 8548TIP3    H247136   6.180   3.484   4.407  0.3820  0.4730  0.2198
 8549TIP3   OH247137   4.124   1.013  17.140  0.1163  0.1887 -0.1221
 8549TIP3    H147138   4.169   1.088  17.179 -1.2709  0.6287  0.7287
 8549TIP3    H247139   4.084   1.048  17.061  0.4364  0.0509 -0.3450
 8550TIP3   OH247140   1.525   6.374   6.387  1.1277  0.1754  0.0440
 8550TIP3    H147141   1.458   6.428   6.345  0.1612 -1.1611 -0.1763
 8550TIP3    H247142   1.581   6.345   6.315  0.9116 -0.1332  0.0014
 8551TIP3   OH247143   2.595   2.544  16.241 -0.4405  0.2926 -0.0626
 8551TIP3    H147144   2.614   2.472  16.301  0.9151 -2.2752 -3.2667
 8551TIP3    H247145   2.502   2.535  16.221 -0.6511  0.4929  0.7975
 8552TIP3   OH247146   2.753   1.969  13.613 -0.5655  0.0908 -0.0772
 8552TIP3    H147147   2.742   1.914  13.536 -1.4119 -0.0980  0.1630
 8552TIP3    H247148   2.708   1.921  13.683 -0.6988  0.7503  0.2949
 8553TIP3   OH247149   6.038   2.845  13.164 -0.0187  0.4318  0.5168
 8553TIP3    H147150   5.969   2.898  13.123 -0.2570  0.2042  0.6217
 8553TIP3    H247151   6.111   2.850  13.103 -0.7888 -0.9131 -0.5671
 8554TIP3   OH247152   0.626   1.770  11.986  0.0279 -0.1371  0.3462
 8554TIP3    H147153   0.708   1.816  11.967  0.8830 -1.6515  0.2256
 8554TIP3    H247154   0.630   1.751  12.080  0.5787 -1.5738  0.0610
 8555TIP3   OH247155   2.788   1.709  15.272  0.2883 -0.1231 -0.3075
 8555TIP3    H147156   2.804   1.699  15.366 -1.4999 -0.6381 -0.0048
 8555TIP3    H247157   2.842   1.641  15.231 -1.1160 -1.9032  0.6270
 8556TIP3   OH247158   5.566   5.060   1.614  0.0924  0.4545  0.8208
 8556TIP3    H147159   5.502   5.053   1.543  2.2375 -0.6028 -1.1260
 8556TIP3    H247160   5.615   5.140   1.595  2.3995 -1.1686 -0.5118
 8557TIP3   OH247161   5.239   0.372  13.665 -0.3571 -0.0243 -0.4991
 8557TIP3    H147162   5.310   0.311  13.646 -1.1649 -0.5016 -2.2098
 8557TIP3    H247163   5.283   0.456  13.678  0.4901 -0.0201 -2.8509
 8558TIP3   OH247164   4.162   2.595  17.339  0.2787  0.1576 -0.6757
 8558TIP3    H147165   4.148   2.557  17.425  0.2165  1.4067 -0.1143
 8558TIP3    H247166   4.076   2.629  17.313 -0.2702 -2.2327 -2.2794
 8559TIP3   OH247167   4.838   4.918  15.138 -0.1004 -0.1050  0.2069
 8559TIP3    H147168   4.788   4.905  15.219 -1.4874 -1.2739 -0.7573
 8559TIP3    H247169   4.862   4.829  15.111  1.9442  0.3942  0.2531
 8560TIP3   OH247170   3.836   4.619  16.669  0.4532 -0.2255  0.3881
 8560TIP3    H147171   3.916   4.669  16.680  0.9387 -0.9048  0.0102
 8560TIP3    H247172   3.856   4.532  16.704  1.0622 -1.5119 -2.7955
 8561TIP3   OH247173   6.525   0.940  12.012 -0.0206 -0.0880 -0.5773
 8561TIP3    H147174   6.468   0.954  11.937  0.3193 -0.4463 -0.9096
 8561TIP3    H247175   6.514   0.847  12.034  0.8054 -0.2852 -0.9609
 8562TIP3   OH247176   0.242   3.577  15.309 -0.4222 -0.5512  0.5723
 8562TIP3    H147177   0.190   3.503  15.279  1.0057 -1.7139  0.8416
 8562TIP3    H247178   0.226   3.646  15.244  1.1623 -2.3715 -1.9216
 8563TIP3   OH247179   6.177   6.518   5.013  0.6514 -0.4361 -0.5070
 8563TIP3    H147180   6.175   6.599   5.064 -0.6616 -0.2890 -0.7569
 8563TIP3    H247181   6.244   6.465   5.056  0.5914  0.2490  0.4841
 8564TIP3   OH247182   2.144   4.114   4.265 -0.3213 -0.2383  0.9993
 8564TIP3    H147183   2.151   4.109   4.170  1.8151  0.8914  1.0628
 8564TIP3    H247184   2.096   4.034   4.289  0.3555 -1.2768 -0.9041
 8565TIP3   OH247185   1.728   6.591   2.939  0.3191 -0.3148 -0.5768
 8565TIP3    H147186   1.681   6.574   3.021  2.0183 -1.3863  0.2118
 8565TIP3    H247187   1.781   6.513   2.924 -0.0306 -0.1934 -2.7891
 8566TIP3   OH247188   1.679   6.241   2.802  0.4830 -0.3191 -0.0019
 8566TIP3    H147189   1.758   6.207   2.759  0.3357 -0.0277 -0.5100
 8566TIP3    H247190   1.644   6.305   2.741 -0.3167 -0.6639  0.0781
 8567TIP3   OH247191   5.127   1.547   2.281  0.7100 -0.7110 -0.2319
 8567TIP3    H147192   5.110   1.454   2.266  0.3104 -0.6281 -0.2956
 8567TIP3    H247193   5.218   1.559   2.253  0.4866 -0.8978 -1.0545
 8568TIP3   OH247194   6.238   2.416   1.855  0.4075 -0.4373  0.1052
 8568TIP3    H147195   6.272   2.496   1.895  0.7702 -0.7469  0.4280
 8568TIP3    H247196   6.247   2.350   1.924 -1.0440 -0.4854  0.2804
 8569TIP3   OH247197   6.590   4.793   1.703  0.0450  0.3089  0.1190
 8569TIP3    H147198   6.533   4.834   1.638  0.1802 -2.3659 -1.8988
 8569TIP3    H247199   6.615   4.710   1.662  1.6441 -0.6926  2.9021
 8570TIP3   OH247200   3.344   4.925   4.044 -0.3434 -0.1277 -0.3931
 8570TIP3    H147201   3.318   4.945   3.954 -1.5965  1.4085  0.2595
 8570TIP3    H247202   3.353   5.010   4.086  0.0967 -0.8248  0.9837
 8571TIP3   OH247203   2.263   5.256   3.297 -0.0452  0.4824  0.0185
 8571TIP3    H147204   2.207   5.182   3.319 -0.6720  0.9572  0.0620
 8571TIP3    H247205   2.274   5.302   3.380 -1.3560  1.5636 -0.3560
 8572TIP3   OH247206   5.988   3.637  15.747  0.0652  0.0494 -0.1683
 8572TIP3    H147207   5.936   3.556  15.743  0.1481  0.0104 -0.4961
 8572TIP3    H247208   5.924   3.707  15.737  0.2083 -0.0239 -2.1616
 8573TIP3   OH247209   6.735   5.801  14.321 -0.5291  0.1390 -0.3648
 8573TIP3    H147210   6.662   5.845  14.277  1.8287  2.1783 -2.5371
 8573TIP3    H247211   6.770   5.741  14.256  0.0873 -0.4043  0.4504
 8574TIP3   OH247212   3.658   4.902  12.078 -0.0492 -1.1526  0.0751
 8574TIP3    H147213   3.562   4.902  12.072 -0.0371 -0.8247 -0.1254
 8574TIP3    H247214   3.683   4.811  12.060 -0.3582 -1.3894  0.7638
 8575TIP3   OH247215   2.863   4.042   3.683  0.4612 -0.2569  0.2309
 8575TIP3    H147216   2.787   4.072   3.633 -0.8164 -0.2868  2.0273
 8575TIP3    H247217   2.824   3.994   3.757  2.2660 -5.1806 -1.6171
 8576TIP3   OH247218   1.963   1.209  11.926 -0.0171 -0.2495  0.2313
 8576TIP3    H147219   1.959   1.113  11.933  0.0610 -0.1935  1.1811
 8576TIP3    H247220   1.974   1.239  12.016  1.1315  0.5985 -0.1642
 8577TIP3   OH247221   2.196   5.094  11.645  0.6835 -0.2194 -0.7118
 8577TIP3    H147222   2.286   5.114  11.620  0.9393 -0.6949 -0.1963
 8577TIP3    H247223   2.204   5.033  11.719 -0.0578 -0.1913 -0.5956
 8578TIP3   OH247224   5.116   2.127   3.632 -0.1341  0.1800 -0.0861
 8578TIP3    H147225   5.133   2.050   3.687  1.1830 -1.2313 -2.3310
 8578TIP3    H247226   5.141   2.100   3.544  0.1154  3.1124 -1.0262
 8579TIP3   OH247227   5.271   2.007  17.177 -0.1217 -0.1970  0.4674
 8579TIP3    H147228   5.212   2.082  17.188  0.1170  0.0690 -0.0517
 8579TIP3    H247229   5.230   1.954  17.109 -0.8152 -1.0714  1.5244
 8580TIP3   OH247230   3.261   4.026   1.519 -0.3320 -0.0992  0.5425
 8580TIP3    H147231   3.334   3.968   1.499 -1.3159 -0.8345 -1.0876
 8580TIP3    H247232   3.231   4.057   1.434 -3.0852 -1.3059  0.9645
 8581TIP3   OH247233   4.983   1.678   0.906 -0.0791  0.4967  0.5389
 8581TIP3    H147234   4.947   1.761   0.937 -0.1343  0.3931  0.7575
 8581TIP3    H247235   5.078   1.687   0.916  0.1269  1.5031 -1.8521
 8582TIP3   OH247236   1.878   3.233  12.701  0.5628 -0.2851 -0.8445
 8582TIP3    H147237   1.939   3.304  12.722  0.9299 -0.5497 -1.0104
 8582TIP3    H247238   1.909   3.159  12.753 -0.7381  0.0996  0.5353
 8583TIP3   OH247239   5.362   3.988   4.778  0.2223 -0.8111  0.1136
 8583TIP3    H147240   5.436   4.048   4.765 -0.3067 -0.1908 -0.0592
 8583TIP3    H247241   5.291   4.026   4.727 -0.6135 -0.6737  1.3447
 8584TIP3   OH247242   2.320   6.463   4.572 -0.0384 -0.9625  0.1602
 8584TIP3    H147243   2.329   6.522   4.497 -1.8290  0.4212  0.9610
 8584TIP3    H247244   2.266   6.391   4.539 -1.6813  0.1469  0.3409
 8585TIP3   OH247245   1.442   4.407  11.546  0.1849  0.2659  0.0364
 8585TIP3    H147246   1.359   4.455  11.552 -1.2377 -1.9843 -0.4512
 8585TIP3    H247247   1.497   4.462  11.491 -1.4280  1.2672 -0.6621
 8586TIP3   OH247248   1.105   4.912  12.002 -0.5164 -0.4422  0.4212
 8586TIP3    H147249   1.099   4.883  11.911  1.5203 -0.1537  0.1500
 8586TIP3    H247250   1.032   4.973  12.012 -1.4295 -1.3032 -0.6789
 8587TIP3   OH247251   2.675   5.446  14.225  0.1272 -0.1568  0.4854
 8587TIP3    H147252   2.679   5.504  14.301 -0.4896  1.9104 -0.9690
 8587TIP3    H247253   2.581   5.431  14.211  0.1983  0.0231 -0.2376
 8588TIP3   OH247254   0.056   5.358  13.009  0.5222 -0.3058  0.0531
 8588TIP3    H147255   0.109   5.433  12.983 -2.2993  1.9306  0.2999
 8588TIP3    H247256   0.051   5.304  12.930  1.0994  0.7198 -0.7059
 8589TIP3   OH247257   3.032   6.306   0.332 -0.2790 -0.0323  0.1830
 8589TIP3    H147258   3.072   6.252   0.264  0.2830  1.7403 -0.9679
 8589TIP3    H247259   3.100   6.370   0.355  0.0904 -1.4376  3.5353
 8590TIP3   OH247260   1.854   1.343   1.800 -0.1261 -0.3449  0.2222
 8590TIP3    H147261   1.864   1.260   1.847 -1.0786 -1.2129 -1.0485
 8590TIP3    H247262   1.893   1.327   1.714 -1.1411  0.2205 -0.3683
 8591TIP3   OH247263   2.876   4.367  12.670 -0.0830  0.6503  0.3440
 8591TIP3    H147264   2.942   4.421  12.628 -0.8847  0.2629 -1.4899
 8591TIP3    H247265   2.839   4.313  12.600 -1.1066 -0.4303  1.6334
 8592TIP3   OH247266   5.071   5.302   0.453 -0.2576  0.2167 -0.4958
 8592TIP3    H147267   5.039   5.215   0.429 -1.8707  0.9837 -1.3495
 8592TIP3    H247268   5.006   5.335   0.515  0.3141  0.8242 -0.2093
 8593TIP3   OH247269   0.840   4.236   2.328  0.1714  0.3745  0.1251
 8593TIP3    H147270   0.929   4.236   2.293  0.1137 -2.0631 -0.1458
 8593TIP3    H247271   0.844   4.297   2.402  1.6006  1.6006 -0.8903
 8594TIP3   OH247272   2.395   1.307   3.161 -0.3094  0.5856  0.2920
 8594TIP3    H147273   2.384   1.390   3.207 -0.5966  1.4528 -1.2722
 8594TIP3    H247274   2.476   1.317   3.110 -1.0480  0.4647 -0.9624
 8595TIP3   OH247275   6.009   5.412  17.031 -0.1442  0.4768  0.4233
 8595TIP3    H147276   6.052   5.364  16.960 -0.1789  1.1363 -0.0588
 8595TIP3    H247277   5.938   5.355  17.060 -1.8614  1.2928 -1.9169
 8596TIP3   OH247278   0.948   1.133  15.912 -0.4428 -0.2921  0.3307
 8596TIP3    H147279   0.946   1.219  15.870 -0.8997  0.4463  1.7944
 8596TIP3    H247280   0.868   1.130  15.964 -1.0505 -2.1182 -0.6207
 8597TIP3   OH247281   1.819   3.890  15.289 -0.4705  0.5582  0.3184
 8597TIP3    H147282   1.878   3.870  15.361 -0.3646  0.6013  0.2434
 8597TIP3    H247283   1.800   3.805  15.249 -3.1909  0.0242  2.4313
 8598TIP3   OH247284   3.448   3.650   6.094  0.3973 -0.1399  0.1984
 8598TIP3    H147285   3.468   3.742   6.111  0.2115  0.3098 -1.7399
 8598TIP3    H247286   3.353   3.648   6.082  0.4579 -0.4942 -0.2414
 8599TIP3   OH247287   4.288   1.163   1.183 -0.2085  0.0999  0.1266
 8599TIP3    H147288   4.266   1.240   1.236  1.0395 -1.5001  3.1807
 8599TIP3    H247289   4.367   1.189   1.135  0.6978  0.5152  1.7699
 8600TIP3   OH247290   4.334   1.992   3.960  0.0008 -0.0175 -0.6711
 8600TIP3    H147291   4.247   1.977   3.923 -0.3258 -1.5461  0.6474
 8600TIP3    H247292   4.377   1.907   3.957  0.4978  0.1380  1.1067
 8601TIP3   OH247293   0.743   5.076  12.686 -0.3499 -0.6028  0.2082
 8601TIP3    H147294   0.831   5.107  12.665  0.1982 -2.0472  0.2181
 8601TIP3    H247295   0.750   4.980  12.681 -1.6320 -0.7828  1.3539
 8602TIP3   OH247296   6.610   5.427  12.780  0.2917  0.0279 -0.2271
 8602TIP3    H147297   6.653   5.509  12.806 -1.0423  0.7089 -0.1133
 8602TIP3    H247298   6.543   5.454  12.717 -0.9943 -0.8136  0.7501
 8603TIP3   OH247299   5.095   0.207   5.182 -0.0421  0.0579 -0.6568
 8603TIP3    H147300   5.008   0.221   5.220  0.2479 -0.1113  0.0650
 8603TIP3    H247301   5.131   0.134   5.231  1.1687  1.1645  0.1424
 8604TIP3   OH247302   1.830   6.644   1.420  0.5680  0.6131 -0.0890
 8604TIP3    H147303   1.865   6.630   1.508  0.5670  0.5460 -0.0998
 8604TIP3    H247304   1.759   6.707   1.432  0.7731  0.8464 -0.0829
 8605TIP3   OH247305   2.576   5.971  13.463 -0.1661  0.0354  0.5960
 8605TIP3    H147306   2.599   5.879  13.447 -2.6551 -0.5730  0.1790
 8605TIP3    H247307   2.490   5.982  13.422 -0.4845  2.2402  1.7085
 8606TIP3   OH247308   5.874   0.150   6.282 -0.4392  0.2366 -0.2997
 8606TIP3    H147309   5.958   0.165   6.325  0.0231 -0.0304 -1.0851
 8606TIP3    H247310   5.811   0.142   6.353 -0.0184  1.7108  0.2763
 8607TIP3   OH247311   4.136   6.507   4.426 -0.1725 -0.4909 -0.7075
 8607TIP3    H147312   4.045   6.479   4.434 -0.2343  0.1436  1.3782
 8607TIP3    H247313   4.133   6.586   4.372 -0.7301 -0.9917 -1.4189
 8608TIP3   OH247314   6.021   5.507  16.232 -0.4649 -0.5127 -0.5120
 8608TIP3    H147315   5.970   5.582  16.203  1.2009  0.7557 -0.2935
 8608TIP3    H247316   6.104   5.514  16.186  1.0689 -0.2057  2.0786
 8609TIP3   OH247317   2.674   2.952   4.438  0.2638 -0.0237 -0.0373
 8609TIP3    H147318   2.584   2.919   4.431  0.6722 -1.5542  1.3041
 8609TIP3    H247319   2.699   2.971   4.348 -0.8143 -1.2680 -0.6402
 8610TIP3   OH247320   2.163   2.132  13.527 -0.0364 -0.5415  0.4227
 8610TIP3    H147321   2.198   2.218  13.552  1.2699 -0.8664 -0.1983
 8610TIP3    H247322   2.122   2.099  13.607  1.8426 -0.4915  1.4766
 8611TIP3   OH247323   2.665   5.311   0.394  0.0594  0.2474  0.0387
 8611TIP3    H147324   2.631   5.370   0.326 -0.0447  0.5521  0.3483
 8611TIP3    H247325   2.613   5.333   0.472 -0.5430 -0.8332 -0.0459
 8612TIP3   OH247326   5.262   1.059  15.577 -0.5790  0.0100 -0.3184
 8612TIP3    H147327   5.181   1.009  15.570 -0.4415 -0.3601  0.6828
 8612TIP3    H247328   5.255   1.107  15.659  0.5768 -0.6898  0.2218
 8613TIP3   OH247329   4.884   4.687  12.627 -0.6016 -0.6001  0.0308
 8613TIP3    H147330   4.975   4.662  12.642 -0.5376 -0.9886 -0.9266
 8613TIP3    H247331   4.851   4.620  12.566 -0.7762  0.9533 -1.6695
 8614TIP3   OH247332   3.024   0.180   5.813  0.0646  0.3383 -0.3224
 8614TIP3    H147333   3.028   0.103   5.869  0.6997  0.2432 -0.4860
 8614TIP3    H247334   3.079   0.245   5.857  2.6161 -0.5321 -1.9967
 8615TIP3   OH247335   0.477   6.031  13.052 -0.0317 -0.2921  0.1465
 8615TIP3    H147336   0.502   6.020  13.143 -1.4562  1.2616  0.7680
 8615TIP3    H247337   0.438   6.119  13.047 -0.6700 -0.6199 -1.7845
 8616TIP3   OH247338   5.637   6.303   2.417  0.2000  0.1984 -0.7329
 8616TIP3    H147339   5.713   6.274   2.468 -0.5352 -0.2171  0.1536
 8616TIP3    H247340   5.569   6.239   2.437 -0.7702  1.2571 -0.5302
 8617TIP3   OH247341   6.655   1.614  12.758  0.0843  0.0891 -0.5714
 8617TIP3    H147342   6.739   1.572  12.779 -0.7697 -0.7262  1.4348
 8617TIP3    H247343   6.679   1.703  12.731  1.5885 -0.1375 -0.0760
 8618TIP3   OH247344   0.297   6.353  15.947  0.7600 -0.2550 -0.2684
 8618TIP3    H147345   0.368   6.382  16.004  1.0708 -1.3707 -0.0615
 8618TIP3    H247346   0.332   6.276  15.901 -0.3128 -0.8460 -0.1425
 8619TIP3   OH247347   0.388   5.259  14.321  0.5476  0.3162  0.2568
 8619TIP3    H147348   0.316   5.294  14.269  0.7222  0.7062  0.2673
 8619TIP3    H247349   0.348   5.196  14.381  0.3089  0.0638 -0.1692
 8620TIP3   OH247350   1.003   3.144   4.635 -0.1242  0.7017  1.1288
 8620TIP3    H147351   1.060   3.169   4.709 -0.1932  0.8641  1.1266
 8620TIP3    H247352   0.921   3.190   4.652 -0.4552  0.0196  1.4354
 8621TIP3   OH247353   5.323   4.599   2.944  0.3855  0.2022  0.5258
 8621TIP3    H147354   5.349   4.643   3.024 -0.0444  1.0138  0.2350
 8621TIP3    H247355   5.387   4.627   2.878  1.2278 -1.1021  0.7445
 8622TIP3   OH247356   2.056   5.948   0.547 -0.2443 -0.1526 -0.3109
 8622TIP3    H147357   2.083   6.040   0.542  1.3093 -0.6009 -0.4966
 8622TIP3    H247358   2.126   5.904   0.594 -0.5835 -1.3907 -0.9056
 8623TIP3   OH247359   5.992   0.991  17.387  0.3786  0.0992 -0.1523
 8623TIP3    H147360   5.926   1.059  17.400 -0.5286 -0.4209 -1.8203
 8623TIP3    H247361   6.074   1.034  17.412 -0.4437  1.0528  1.0665
 8624TIP3   OH247362   5.607   6.199  11.744  0.0956  0.3950  0.3709
 8624TIP3    H147363   5.636   6.173  11.657  0.7756  1.4815  0.2651
 8624TIP3    H247364   5.511   6.196  11.739  0.1331 -0.8327 -0.0019
 8625TIP3   OH247365   0.703   2.381  13.101  0.2439  0.4174 -0.0313
 8625TIP3    H147366   0.632   2.395  13.164  1.2923 -0.7791  1.5094
 8625TIP3    H247367   0.722   2.287  13.108 -0.1021  0.0630 -2.7566
 8626TIP3   OH247368   5.965   0.172  12.948 -0.0159  0.6780  0.2750
 8626TIP3    H147369   5.978   0.226  13.026  0.9814 -0.3254  0.8274
 8626TIP3    H247370   6.045   0.184  12.897  0.1085 -0.0810  0.2836
 8627TIP3   OH247371   5.564   6.290   5.247 -0.1754  0.5272  0.7943
 8627TIP3    H147372   5.594   6.300   5.337 -0.0150 -0.6037  0.8824
 8627TIP3    H247373   5.489   6.231   5.253  0.1159  0.0713  0.1572
 8628TIP3   OH247374   1.178   5.835   3.082 -0.0783  0.6111  0.2575
 8628TIP3    H147375   1.143   5.747   3.093 -0.7772  0.6411 -1.5011
 8628TIP3    H247376   1.261   5.823   3.036 -1.8236  0.9685 -3.3205
 8629TIP3   OH247377   4.078   4.157   1.235 -0.2069  0.5707  0.0265
 8629TIP3    H147378   4.102   4.203   1.155  0.6211  0.4969  0.2257
 8629TIP3    H247379   4.148   4.178   1.297  0.6718 -1.5962 -0.1329
 8630TIP3   OH247380   2.221   2.952   0.050  0.0380 -0.2172  0.0678
 8630TIP3    H147381   2.228   2.869   0.002  3.4406  0.1484 -0.2994
 8630TIP3    H247382   2.308   2.991   0.043 -1.6752  3.9923 -0.7861
 8631TIP3   OH247383   4.490   1.822   4.213  0.1481  0.0396  0.7644
 8631TIP3    H147384   4.436   1.893   4.249 -0.6870 -0.7244  1.0559
 8631TIP3    H247385   4.542   1.791   4.287  0.3475  0.1972  0.6907
 8632TIP3   OH247386   0.036   0.206   3.809  0.5162 -0.1112  0.4876
 8632TIP3    H147387   0.002   0.120   3.783  0.2163  0.8056 -2.6400
 8632TIP3    H247388  -0.042   0.260   3.821  0.7257  0.2724  0.1659
 8633TIP3   OH247389   3.705   4.755  16.143  0.2504  0.2644 -0.4705
 8633TIP3    H147390   3.758   4.831  16.166 -1.8118  2.2130 -1.6977
 8633TIP3    H247391   3.759   4.706  16.080  0.3491  2.6955 -2.4502
 8634TIP3   OH247392   5.404   2.952  15.536 -0.6409 -0.3332  0.0830
 8634TIP3    H147393   5.312   2.927  15.531 -0.5138 -0.6404 -0.9739
 8634TIP3    H247394   5.435   2.947  15.446 -0.1488  1.9821  0.0784
 8635TIP3   OH247395   1.983   5.750   3.839  0.1864 -0.4820  0.2214
 8635TIP3    H147396   1.997   5.677   3.779  1.0817  0.2270 -0.4618
 8635TIP3    H247397   1.942   5.818   3.785  0.5133 -0.0238  0.5424
 8636TIP3   OH247398   2.676   1.849   2.662  0.3342  0.1005  0.6447
 8636TIP3    H147399   2.687   1.775   2.602 -2.1472 -0.3591  0.6413
 8636TIP3    H247400   2.750   1.842   2.722  1.1432 -1.3137 -0.4533
 8637TIP3   OH247401   4.483   4.215  15.457  0.0801 -0.3452  0.4023
 8637TIP3    H147402   4.443   4.205  15.544 -0.0438  0.4919  0.4486
 8637TIP3    H247403   4.532   4.297  15.463  1.2405 -0.9942  0.1215
 8638TIP3   OH247404   5.864   2.163  11.503  0.4494 -0.0477  0.0839
 8638TIP3    H147405   5.941   2.213  11.479 -0.2993  0.1340 -2.1900
 8638TIP3    H247406   5.791   2.210  11.462 -0.9168 -0.1799  2.1922
 8639TIP3   OH247407   3.467   6.655   1.601  0.2588 -0.1852  0.2372
 8639TIP3    H147408   3.472   6.695   1.514 -0.1591 -0.3452  0.1397
 8639TIP3    H247409   3.558   6.637   1.624  0.2792 -2.5919 -1.3110
 8640TIP3   OH247410   0.214   4.431  12.275  0.3287 -0.3365 -0.5339
 8640TIP3    H147411   0.141   4.453  12.217  0.5551  0.1051 -0.6538
 8640TIP3    H247412   0.286   4.485  12.244  0.3345  0.2178  0.4338
 8641TIP3   OH247413   5.427   0.210  16.016  0.7582 -0.2321  0.0183
 8641TIP3    H147414   5.427   0.126  16.062  2.5003  0.3695  1.2243
 8641TIP3    H247415   5.388   0.271  16.079 -1.8843 -0.3128 -1.3823
 8642TIP3   OH247416   4.103   2.951  15.617 -0.0138  0.4632 -0.2166
 8642TIP3    H147417   4.177   2.975  15.673  1.9886 -2.6805 -1.2090
 8642TIP3    H247418   4.095   3.024  15.555  0.4098  2.1146  1.5752
 8643TIP3   OH247419   2.783   2.278   3.603  0.2410 -0.2296  0.2958
 8643TIP3    H147420   2.866   2.237   3.628  2.0307  3.3993  1.0161
 8643TIP3    H247421   2.802   2.322   3.520 -0.6565  1.2841  0.8464
 8644TIP3   OH247422   2.278   5.023  13.448 -0.3793  0.5401 -0.0508
 8644TIP3    H147423   2.198   5.001  13.496 -0.7146  0.0539 -0.8218
 8644TIP3    H247424   2.301   4.943  13.401  1.1099  0.3804  0.9021
 8645TIP3   OH247425   4.602   5.963  12.527 -0.1246  0.0541  0.0386
 8645TIP3    H147426   4.530   6.004  12.575 -0.4890 -0.0480 -0.4052
 8645TIP3    H247427   4.571   5.875  12.508 -0.3159  0.3323 -1.0452
 8646TIP3   OH247428   3.156   5.415   4.475 -0.2074  0.0956 -0.1185
 8646TIP3    H147429   3.180   5.472   4.402 -0.0414  1.3774  0.8870
 8646TIP3    H247430   3.225   5.430   4.540 -1.9948  1.4714  1.5866
 8647TIP3   OH247431   3.356   0.250   5.613 -0.4248 -0.2569 -0.3808
 8647TIP3    H147432   3.362   0.310   5.539 -0.7549  2.0697  1.3352
 8647TIP3    H247433   3.439   0.261   5.660 -0.6418 -0.8537  0.1616
 8648TIP3   OH247434   2.945   1.267  11.474 -0.1697  0.1281 -0.3395
 8648TIP3    H147435   2.983   1.255  11.561  1.1955 -0.1242 -0.9451
 8648TIP3    H247436   2.874   1.203  11.470 -0.5064  0.4267  0.7316
 8649TIP3   OH247437   6.373   4.817  12.443  0.1042 -0.6736  0.3878
 8649TIP3    H147438   6.317   4.892  12.463  1.5912  0.6185 -0.0912
 8649TIP3    H247439   6.400   4.782  12.528  0.2453  0.0114  0.6298
 8650TIP3   OH247440   4.958   2.325   3.680  0.1692  0.0498 -0.1118
 8650TIP3    H147441   5.008   2.385   3.625  0.5367  0.5427  0.7408
 8650TIP3    H247442   5.005   2.241   3.674 -1.0627 -0.5616 -2.3323
 8651TIP3   OH247443   5.817   0.603  13.993  0.3522 -0.3348  0.1901
 8651TIP3    H147444   5.895   0.564  14.034 -0.8060 -2.2751  0.7075
 8651TIP3    H247445   5.826   0.697  14.008  1.9168 -0.6442  1.4572
 8652TIP3   OH247446   4.562   5.326   2.460 -0.1136  0.3597  0.5525
 8652TIP3    H147447   4.468   5.330   2.473 -0.6024 -2.4902 -1.1997
 8652TIP3    H247448   4.574   5.339   2.366  1.0539 -0.7645  0.5091
 8653TIP3   OH247449   3.300   1.044  12.133 -0.6297  0.2747  0.5399
 8653TIP3    H147450   3.386   1.056  12.092 -0.1209  1.4992  1.8713
 8653TIP3    H247451   3.242   1.025  12.060  0.6232  0.2600 -0.4995
 8654TIP3   OH247452   5.604   2.320  15.171  0.0505  0.8175  0.1167
 8654TIP3    H147453   5.620   2.333  15.265 -0.4349  1.0085  0.1781
 8654TIP3    H247454   5.641   2.398  15.129 -0.0567  0.9065  0.1863
 8655TIP3   OH247455   0.792   5.807   3.987  0.0133  0.1109 -0.4111
 8655TIP3    H147456   0.862   5.770   4.041 -1.1170  0.1549  1.1683
 8655TIP3    H247457   0.770   5.738   3.925  0.0235 -0.7097  0.4773
 8656TIP3   OH247458   5.851   0.709   2.992  0.1289  0.3830  0.3734
 8656TIP3    H147459   5.865   0.793   3.035 -0.3264 -0.1169  1.5407
 8656TIP3    H247460   5.874   0.725   2.901  1.0790  1.4906  0.7794
 8657TIP3   OH247461   1.421   0.903   4.857  0.1526 -0.1631  0.4829
 8657TIP3    H147462   1.448   0.986   4.817  1.0960 -0.3717  0.6538
 8657TIP3    H247463   1.343   0.924   4.907 -0.9446  0.1472 -1.2985
 8658TIP3   OH247464   3.978   2.107   1.070 -0.0117  0.4368  0.5232
 8658TIP3    H147465   4.027   2.128   0.990 -0.5268  1.1673  0.3818
 8658TIP3    H247466   3.909   2.048   1.040  0.3995 -0.0889  0.6094
 8659TIP3   OH247467   5.226   0.619  16.436  0.0860 -0.0695 -0.3595
 8659TIP3    H147468   5.321   0.631  16.436 -0.1604  2.2959 -1.1493
 8659TIP3    H247469   5.202   0.616  16.529  0.9456 -1.1491 -0.1521
 8660TIP3   OH247470   0.648   6.445  12.877  0.0819 -0.0003  0.0863
 8660TIP3    H147471   0.639   6.540  12.869 -2.7668 -0.2158 -0.6036
 8660TIP3    H247472   0.625   6.412  12.790  2.4703 -1.3391 -0.1276
 8661TIP3   OH247473   1.205   4.964  14.458  0.1502 -0.1165 -0.5230
 8661TIP3    H147474   1.278   4.966  14.520  0.5308 -0.4913 -0.9540
 8661TIP3    H247475   1.229   5.028  14.391 -1.6374  2.5532  1.2110
 8662TIP3   OH247476   2.628   2.227   3.228 -0.7120  0.8859  0.2983
 8662TIP3    H147477   2.704   2.267   3.186 -0.1004 -0.0310  0.5066
 8662TIP3    H247478   2.664   2.177   3.301 -1.7327  2.1777  1.7474
 8663TIP3   OH247479   6.639   3.731  16.267 -0.6457 -0.6101  0.1447
 8663TIP3    H147480   6.547   3.706  16.270 -0.3217 -1.8546  0.2666
 8663TIP3    H247481   6.652   3.784  16.345 -0.9990 -1.3982  0.7502
 8664TIP3   OH247482   5.563   1.557   2.805 -0.1860  0.4392  0.3480
 8664TIP3    H147483   5.640   1.593   2.759 -0.5581 -0.2680 -0.8663
 8664TIP3    H247484   5.505   1.633   2.816  0.0145  0.6712 -0.1435
 8665TIP3   OH247485   1.607   2.332   4.814 -0.1199  0.5285 -0.0243
 8665TIP3    H147486   1.702   2.343   4.816 -0.1874  0.9794  1.4316
 8665TIP3    H247487   1.595   2.237   4.809  0.3901  0.5008 -1.1538
 8666TIP3   OH247488   1.448   0.088  11.580  0.3185  0.2957  0.1935
 8666TIP3    H147489   1.361   0.048  11.585  1.3442 -2.1640  0.1378
 8666TIP3    H247490   1.471   0.106  11.671 -0.1759  0.7967  0.2217
 8667TIP3   OH247491   4.089   4.687   2.702 -0.0243  0.1673  0.4380
 8667TIP3    H147492   4.106   4.722   2.790 -0.4583  2.6407 -0.3723
 8667TIP3    H247493   3.997   4.662   2.705 -0.2489  0.9633  0.4928
 8668TIP3   OH247494   5.891   0.298   6.060  0.0391 -0.3605 -0.1288
 8668TIP3    H147495   5.966   0.261   6.012  1.5883  1.1064  1.0338
 8668TIP3    H247496   5.878   0.239   6.134  1.1408  0.2350  0.5642
 8669TIP3   OH247497   0.534   5.734   4.069 -0.0183  0.0179  0.0338
 8669TIP3    H147498   0.507   5.775   4.151  1.1253 -0.0224  0.4418
 8669TIP3    H247499   0.629   5.744   4.066 -0.1196  1.0383 -1.8357
 8670TIP3   OH247500   2.020   1.913   3.625  0.1815  0.4800  0.0819
 8670TIP3    H147501   2.062   1.971   3.689  0.5859 -0.2631  0.5153
 8670TIP3    H247502   2.084   1.843   3.611 -0.8531 -0.6233  0.6606
 8671TIP3   OH247503   3.091   5.017  13.562  0.0661  0.0553  0.0076
 8671TIP3    H147504   3.151   4.979  13.497 -0.1487 -1.9386  0.8978
 8671TIP3    H247505   3.127   4.990  13.646 -0.4905  1.3261  0.6736
 8672TIP3   OH247506   6.039   4.510  15.911  0.4845  0.5116 -0.3808
 8672TIP3    H147507   5.986   4.574  15.960  0.6056 -0.1207  0.6004
 8672TIP3    H247508   6.111   4.489  15.971 -1.1133 -2.7610  0.5768
 8673TIP3   OH247509   3.235   3.170  12.969  0.2288  0.2426  0.2918
 8673TIP3    H147510   3.171   3.241  12.979 -2.1064 -1.7436  0.5760
 8673TIP3    H247511   3.227   3.142  12.878  0.4967 -0.1796  0.3914
 8674TIP3   OH247512   0.247   6.394   4.078 -0.3364  0.1437  0.1673
 8674TIP3    H147513   0.153   6.382   4.064 -0.3175 -1.8361  1.2829
 8674TIP3    H247514   0.254   6.474   4.129 -1.6391 -0.7891  1.9036
 8675TIP3   OH247515   0.489   1.039  16.380  0.6197  0.5646 -0.1923
 8675TIP3    H147516   0.441   1.120  16.361  1.9554  1.2642 -0.6802
 8675TIP3    H247517   0.580   1.058  16.355  1.1961 -0.6675  0.8750
 8676TIP3   OH247518   2.391   6.752  14.279 -0.0679  0.2314  0.1881
 8676TIP3    H147519   2.389   6.735  14.373 -0.7874  0.3971  0.2072
 8676TIP3    H247520   2.396   6.848  14.272 -3.8103  0.5662  0.0930
 8677TIP3   OH247521   1.460   4.731  16.009 -0.1991  0.5367 -0.1894
 8677TIP3    H147522   1.538   4.716  16.062 -0.7015 -1.6717  0.0067
 8677TIP3    H247523   1.484   4.700  15.921 -0.7677  0.0934 -0.1925
 8678TIP3   OH247524   2.298   0.182  10.998  0.3626 -0.2333 -0.3824
 8678TIP3    H147525   2.206   0.174  10.973  0.0540 -0.3229  0.7445
 8678TIP3    H247526   2.326   0.265  10.958  0.8130 -1.8223 -3.7080
 8679TIP3   OH247527   3.486   3.677  13.145 -0.2620  1.5667  0.0625
 8679TIP3    H147528   3.412   3.714  13.194  0.0330  1.0389  0.9312
 8679TIP3    H247529   3.563   3.723  13.181  0.0219  0.7274  0.5639
 8680TIP3   OH247530   0.158   5.743  14.738 -0.4473  0.6402  0.4808
 8680TIP3    H147531   0.140   5.812  14.801  0.0004  1.4995 -0.3099
 8680TIP3    H247532   0.253   5.742  14.729 -0.4836  0.2876  0.0884
 8681TIP3   OH247533   3.741   3.866   0.530 -0.1627  0.4128 -0.1325
 8681TIP3    H147534   3.649   3.883   0.553 -0.3383 -0.8494  0.1499
 8681TIP3    H247535   3.774   3.813   0.602  0.6662  0.4821 -0.4556
 8682TIP3   OH247536   0.361   3.470  13.993 -0.1891 -0.0722 -0.3405
 8682TIP3    H147537   0.431   3.408  14.009 -1.1486 -0.6667  2.0455
 8682TIP3    H247538   0.383   3.511  13.909  2.4013 -0.9792 -0.1881
 8683TIP3   OH247539   1.708   2.537   4.325  0.4193  0.2395 -0.3196
 8683TIP3    H147540   1.704   2.526   4.420  1.7830 -0.3670 -0.2947
 8683TIP3    H247541   1.631   2.588   4.303 -0.0123  0.2458  1.0948
 8684TIP3   OH247542   4.376   1.625  12.644 -0.1457 -0.2382 -0.6302
 8684TIP3    H147543   4.357   1.536  12.675 -1.5718 -0.5422 -2.1538
 8684TIP3    H247544   4.290   1.659  12.619  0.3648  1.6566  0.1121
 8685TIP3   OH247545   4.232   1.942   5.122  0.5937 -0.1261  0.1727
 8685TIP3    H147546   4.142   1.967   5.146  0.8014 -0.1543  1.0306
 8685TIP3    H247547   4.228   1.924   5.028 -0.5988 -1.3818  0.4182
 8686TIP3   OH247548   5.206   5.759   1.595  0.1305 -0.0506 -0.2805
 8686TIP3    H147549   5.197   5.842   1.643 -0.5485 -0.3019  0.0354
 8686TIP3    H247550   5.266   5.780   1.523 -0.3128  0.8041 -0.4153
 8687TIP3   OH247551   3.773   6.003   3.415  0.0737  0.4601  0.0542
 8687TIP3    H147552   3.835   6.075   3.403 -0.0552  0.4481 -0.6989
 8687TIP3    H247553   3.727   6.025   3.496  1.1845  0.3743  0.7340
 8688TIP3   OH247554   1.817   0.969  15.062  0.3040  0.4821 -0.1729
 8688TIP3    H147555   1.814   1.024  15.140  0.6715 -1.2364  1.1285
 8688TIP3    H247556   1.886   1.007  15.007  1.8319  0.3083  1.5327
 8689TIP3   OH247557   3.030   2.159  12.724 -0.5964  0.8047  0.2745
 8689TIP3    H147558   2.975   2.215  12.779  0.1571  0.6721  1.1861
 8689TIP3    H247559   2.987   2.074  12.725 -0.2494  0.6170  1.2410
 8690TIP3   OH247560   0.886   1.443   0.810 -0.5399 -0.0421  0.0775
 8690TIP3    H147561   0.835   1.470   0.734 -1.8695 -1.9100  0.2407
 8690TIP3    H247562   0.838   1.368   0.847 -0.8838  1.7277  3.7391
 8691TIP3   OH247563   2.205   0.631  11.620 -0.1007  0.1995 -0.9109
 8691TIP3    H147564   2.166   0.569  11.681  0.0498  1.3914  0.4564
 8691TIP3    H247565   2.246   0.577  11.553 -0.0404 -1.1765  0.1946
 8692TIP3   OH247566   0.764   6.102  12.306 -0.1681  0.4238 -0.1913
 8692TIP3    H147567   0.738   6.191  12.283 -0.9353 -0.0194 -1.0852
 8692TIP3    H247568   0.700   6.075  12.373  0.2791  0.6580  0.3417
 8693TIP3   OH247569   1.100   6.381   1.050 -0.3334  0.0074  0.8621
 8693TIP3    H147570   1.029   6.436   1.016 -0.1480 -0.5623 -0.5243
 8693TIP3    H247571   1.073   6.292   1.030  1.3930 -0.1712 -1.0657
 8694TIP3   OH247572   6.213   6.302   5.841  1.0122  0.1400 -0.9467
 8694TIP3    H147573   6.297   6.257   5.836  1.5535  1.0666 -0.4876
 8694TIP3    H247574   6.193   6.304   5.934  2.0373  2.6287 -0.6844
 8695TIP3   OH247575   3.561   1.573  13.405 -0.1619  0.5319  0.3108
 8695TIP3    H147576   3.549   1.645  13.343 -0.6456  1.1206  1.0712
 8695TIP3    H247577   3.558   1.494  13.351  1.4010  1.0964 -0.6836
 8696TIP3   OH247578   0.323   3.225  16.820  0.8946 -0.1336  0.2700
 8696TIP3    H147579   0.244   3.210  16.767  0.1233  0.6654  1.1621
 8696TIP3    H247580   0.378   3.148  16.803 -0.4005 -1.0824  0.2153
 8697TIP3   OH247581   2.198   1.882  16.673  0.0872 -0.9806  0.9679
 8697TIP3    H147582   2.136   1.952  16.695  2.4483  0.6181  3.0841
 8697TIP3    H247583   2.205   1.885  16.577 -3.3737 -1.6225  0.5526
 8698TIP3   OH247584   4.081   4.259   1.914  0.2075  0.1003  0.0396
 8698TIP3    H147585   4.157   4.213   1.880 -0.1964  0.5302 -1.5412
 8698TIP3    H247586   4.088   4.347   1.877 -1.5022 -0.1120 -0.9218
 8699TIP3   OH247587   1.369   5.659   4.425 -0.0207  0.5415  0.6196
 8699TIP3    H147588   1.357   5.708   4.507  0.3231  1.2843  0.2326
 8699TIP3    H247589   1.311   5.583   4.434  0.9215 -0.0465  2.0778
 8700TIP3   OH247590   2.544   5.270  13.884  0.1095 -0.1901  0.0341
 8700TIP3    H147591   2.596   5.347  13.908  1.7006 -1.0709 -0.4903
 8700TIP3    H247592   2.527   5.226  13.967 -0.3337  0.4076  0.2720
 8701TIP3   OH247593   4.706   0.357   0.141 -0.3155 -0.3784 -0.2591
 8701TIP3    H147594   4.799   0.369   0.123 -0.0844 -1.8195 -0.1377
 8701TIP3    H247595   4.661   0.415   0.080  0.6755  1.4118  0.6277
 8702TIP3   OH247596   6.160   6.236  13.805 -0.1109  0.2466 -0.1527
 8702TIP3    H147597   6.066   6.232  13.821 -0.0371 -0.0172  0.2365
 8702TIP3    H247598   6.185   6.145  13.786  0.1654  0.2177  0.3371
 8703TIP3   OH247599   5.249   3.810  13.669 -0.4251  0.2809 -0.0972
 8703TIP3    H147600   5.338   3.833  13.694 -0.3915  0.0508 -0.0018
 8703TIP3    H247601   5.197   3.888  13.690 -0.2044  0.5123 -0.3973
 8704TIP3   OH247602   3.621   4.550  14.228 -0.1429  0.8517 -0.3135
 8704TIP3    H147603   3.601   4.498  14.307 -0.5381  0.2911 -0.7765
 8704TIP3    H247604   3.536   4.576  14.195 -0.2025 -1.5517 -2.3081
 8705TIP3   OH247605   2.216   6.598  12.655  0.7337 -0.2122  0.3519
 8705TIP3    H147606   2.292   6.552  12.622  1.3009  0.8843  0.0938
 8705TIP3    H247607   2.180   6.644  12.579  0.9115  0.7684  0.8506
 8706TIP3   OH247608   4.044   1.279  14.400 -0.3325  0.0995 -0.6565
 8706TIP3    H147609   4.058   1.190  14.367 -0.7451 -0.3780  0.4162
 8706TIP3    H247610   3.981   1.269  14.471  0.3771  1.1084  0.1533
 8707TIP3   OH247611   1.737   0.809   5.249 -0.8377  0.5351  0.3101
 8707TIP3    H147612   1.744   0.717   5.223 -2.7161  0.4633 -0.0484
 8707TIP3    H247613   1.801   0.818   5.320  0.2553 -0.7088 -0.4634
 8708TIP3   OH247614   2.111   1.126   5.703  0.1737 -0.1576  0.0666
 8708TIP3    H147615   2.078   1.162   5.621 -0.4021 -1.3462 -0.2517
 8708TIP3    H247616   2.052   1.053   5.723  1.1606 -0.7984  0.7727
 8709TIP3   OH247617   5.254   1.093   6.300  0.1416  0.0380  0.2767
 8709TIP3    H147618   5.289   1.087   6.389 -0.4991  0.9319  0.6025
 8709TIP3    H247619   5.324   1.135   6.249  0.7527 -1.0337  0.1994
 8710TIP3   OH247620   5.984   3.457   0.925  0.0648 -0.2717 -0.4665
 8710TIP3    H147621   5.985   3.490   1.014 -0.2556 -1.0360 -0.1710
 8710TIP3    H247622   5.978   3.362   0.934 -0.3566 -0.3403 -1.3033
 8711TIP3   OH247623   4.129   1.293   6.179 -0.0813 -0.4126  0.6339
 8711TIP3    H147624   4.059   1.350   6.211 -1.0621 -1.5538  0.5627
 8711TIP3    H247625   4.162   1.249   6.257 -0.0052 -0.5007  0.5519
 8712TIP3   OH247626   0.318   5.853   4.749 -0.4383 -0.2171 -0.1092
 8712TIP3    H147627   0.227   5.858   4.718 -0.1182 -0.1841 -1.0786
 8712TIP3    H247628   0.356   5.781   4.699 -0.2665 -1.0997  1.2252
 8713TIP3   OH247629   4.402   2.936   0.643 -0.8505  0.1251  0.5565
 8713TIP3    H147630   4.422   3.018   0.599 -0.7282 -0.2759 -0.1488
 8713TIP3    H247631   4.340   2.892   0.585 -1.6857  0.1521  1.4122
 8714TIP3   OH247632   1.273   5.416  17.409 -0.5079 -0.6769  0.3616
 8714TIP3    H147633   1.241   5.331  17.438 -1.3253 -0.2892  0.6113
 8714TIP3    H247634   1.316   5.398  17.325 -1.8934 -1.1222 -0.2850
 8715TIP3   OH247635   1.025   6.443  11.536  0.1990  0.9772  0.2450
 8715TIP3    H147636   0.943   6.482  11.566 -1.0788 -1.3359 -0.0306
 8715TIP3    H247637   1.086   6.455  11.609 -1.3835 -0.1392  1.8286
 8716TIP3   OH247638   4.058   3.156  12.808 -0.2409  0.4352 -0.2708
 8716TIP3    H147639   3.973   3.199  12.798 -1.3616 -1.6345 -0.2256
 8716TIP3    H247640   4.122   3.227  12.798 -1.9140  1.8991 -1.2984
 8717TIP3   OH247641   1.867   3.685   3.495  0.2173  0.0176 -0.0769
 8717TIP3    H147642   1.938   3.625   3.470 -0.0122  0.1004 -0.9571
 8717TIP3    H247643   1.896   3.771   3.464  0.3559  0.3021  0.8122
 8718TIP3   OH247644   5.128   5.333   3.375  0.2830 -0.8821  0.0643
 8718TIP3    H147645   5.183   5.260   3.346  0.7460 -0.0017 -1.3741
 8718TIP3    H247646   5.185   5.409   3.370 -0.6009 -0.1998  0.1568
 8719TIP3   OH247647   2.850   6.022   2.288  0.0192  0.0950 -0.1710
 8719TIP3    H147648   2.832   6.073   2.209  0.1982 -1.4276 -1.2306
 8719TIP3    H247649   2.763   6.007   2.327 -0.3787 -1.3445 -1.5182
 8720TIP3   OH247650   6.335   4.889  13.587 -0.2762 -0.1635  0.2633
 8720TIP3    H147651   6.257   4.842  13.559  0.0021 -0.8510  0.6188
 8720TIP3    H247652   6.356   4.947  13.514 -1.4114  0.4149  0.3670
 8721TIP3   OH247653   2.376   2.408  16.990 -0.5155  0.4940 -0.5427
 8721TIP3    H147654   2.282   2.390  16.990 -0.6249  1.0188 -1.2148
 8721TIP3    H247655   2.383   2.501  16.968  0.1501  0.5275 -0.1996
 8722TIP3   OH247656   0.295   1.965   1.370  0.0006 -0.5454  0.0021
 8722TIP3    H147657   0.378   1.957   1.322 -0.1033 -0.2624 -0.2298
 8722TIP3    H247658   0.236   1.904   1.326  0.8430 -2.8889  1.8960
 8723TIP3   OH247659   3.484   2.842  13.058 -0.3283  0.3828 -0.4385
 8723TIP3    H147660   3.414   2.791  13.099  0.5764 -2.0988 -1.7446
 8723TIP3    H247661   3.445   2.876  12.978  0.4919 -3.2969 -2.6195
 8724TIP3   OH247662   2.195   5.324  16.748 -0.8783  0.0636  0.2617
 8724TIP3    H147663   2.104   5.296  16.746  0.3278 -4.6193  0.9387
 8724TIP3    H247664   2.241   5.263  16.690  2.3715 -0.4367  3.0610
 8725TIP3   OH247665   2.452   4.957  15.293 -0.6202 -0.0565 -0.1752
 8725TIP3    H147666   2.536   4.927  15.328 -0.0597 -0.2029 -1.5694
 8725TIP3    H247667   2.416   5.013  15.362 -0.1306 -1.2407  1.0878
 8726TIP3   OH247668   1.547   2.912   1.670 -0.2068 -0.1492  0.4847
 8726TIP3    H147669   1.600   2.832   1.664  0.7103  0.5438 -1.8150
 8726TIP3    H247670   1.459   2.885   1.646  0.3497 -0.3023 -1.5326
 8727TIP3   OH247671   4.273   0.151  15.908 -0.2028  0.0853 -0.3032
 8727TIP3    H147672   4.322   0.093  15.967 -1.4536 -1.4015 -0.6757
 8727TIP3    H247673   4.290   0.117  15.821 -0.7791  0.4101 -0.5468
 8728TIP3   OH247674   1.992   3.093  14.934 -0.5288  0.0637  0.0778
 8728TIP3    H147675   2.012   3.097  15.028 -0.9694 -0.4850  0.1958
 8728TIP3    H247676   1.953   3.178  14.915 -1.8690 -0.3816  0.7273
 8729TIP3   OH247677   3.328   1.377  14.046 -0.0909 -0.3231 -0.1050
 8729TIP3    H147678   3.330   1.406  14.137 -0.2505 -0.5192 -0.0380
 8729TIP3    H247679   3.404   1.320  14.036 -1.2321 -2.0619  0.5085
 8730TIP3   OH247680   4.637   2.880   5.657  0.6470  0.1728  0.1706
 8730TIP3    H147681   4.700   2.930   5.708 -0.4551  0.9786  0.7838
 8730TIP3    H247682   4.551   2.904   5.693  0.0252 -1.6019  0.0004
 8731TIP3   OH247683   4.167   5.972   0.107  0.2478  0.2142 -0.2077
 8731TIP3    H147684   4.202   6.025   0.179  1.5777  2.2466 -2.1986
 8731TIP3    H247685   4.083   5.940   0.140 -0.8809  3.9685  1.0725
 8732TIP3   OH247686   6.198   4.283   3.586  0.2632  0.1182 -0.2599
 8732TIP3    H147687   6.270   4.273   3.524  0.3343 -0.9615 -0.0421
 8732TIP3    H247688   6.129   4.326   3.537  0.3433 -0.6457 -1.0841
 8733TIP3   OH247689   5.741   4.232   5.749  0.0164  0.1000 -0.0586
 8733TIP3    H147690   5.778   4.149   5.782 -0.5399  0.9642  3.0417
 8733TIP3    H247691   5.647   4.217   5.746  0.0567 -0.0042 -1.5821
 8734TIP3   OH247692   3.415   5.432  14.281  0.4784 -0.0612  0.3412
 8734TIP3    H147693   3.331   5.467  14.309  0.5684  1.2441 -0.9237
 8734TIP3    H247694   3.396   5.342  14.256 -0.6928  0.4043 -0.5311
 8735TIP3   OH247695   3.777   4.002   0.012  0.0597  0.6416  0.7098
 8735TIP3    H147696   3.864   4.036   0.033  0.1584  0.8814 -0.0753
 8735TIP3    H247697   3.720   4.040   0.079  0.2226  2.0962  0.0650
 8736TIP3   OH247698   2.532   5.246  17.250  0.3786  0.1476 -0.2686
 8736TIP3    H147699   2.526   5.303  17.327  0.4440  0.5219 -0.5379
 8736TIP3    H247700   2.619   5.263  17.214 -0.8160  2.5380 -2.3691
 8737TIP3   OH247701   2.042   0.743  14.858  0.2024  0.2776 -0.0590
 8737TIP3    H147702   2.006   0.656  14.877 -1.5472  1.0780  0.4948
 8737TIP3    H247703   2.082   0.734  14.772  1.1856 -1.3867  0.5193
 8738TIP3   OH247704   1.707   0.247  13.373 -0.0601 -0.0025 -0.8771
 8738TIP3    H147705   1.719   0.239  13.468  0.4770  2.7375 -0.6300
 8738TIP3    H247706   1.615   0.222  13.359  0.2077 -1.7429  0.1139
 8739TIP3   OH247707   0.143   2.809  13.235  0.0138  0.4678 -0.1684
 8739TIP3    H147708   0.237   2.824  13.245 -0.3629  2.5505  0.8602
 8739TIP3    H247709   0.113   2.783  13.322 -0.6503  1.9745  0.1013
 8740TIP3   OH247710   6.165   1.117   0.673  0.5730  0.6708 -0.0383
 8740TIP3    H147711   6.208   1.196   0.705 -0.8631  2.2205 -1.6805
 8740TIP3    H247712   6.182   1.118   0.579 -1.5197  0.4217 -0.4627
 8741TIP3   OH247713   5.922   2.008   4.089 -0.7366  0.1498  0.0639
 8741TIP3    H147714   5.980   1.945   4.132  0.0456 -0.4657 -1.8020
 8741TIP3    H247715   5.931   1.989   3.996 -2.7253  1.1134 -0.3794
 8742TIP3   OH247716   4.668   1.642  11.866 -0.4603 -0.3366 -0.1798
 8742TIP3    H147717   4.602   1.668  11.802 -2.1378 -0.2870  1.4822
 8742TIP3    H247718   4.666   1.710  11.933  0.0958 -1.1936  0.7444
 8743TIP3   OH247719   3.628   5.102  12.342  0.5214 -0.3083 -0.0098
 8743TIP3    H147720   3.595   5.134  12.425 -1.9028  1.0908 -1.3853
 8743TIP3    H247721   3.708   5.153  12.327  0.3168  0.3038  0.8984
 8744TIP3   OH247722   1.359   5.212  11.579  0.1955  0.2139  0.3067
 8744TIP3    H147723   1.416   5.204  11.655 -2.5275 -0.5875  2.4032
 8744TIP3    H247724   1.378   5.299  11.544  2.3219  0.1498  1.1746
 8745TIP3   OH247725   4.921   0.294   2.585 -0.0535  0.3028  0.2363
 8745TIP3    H147726   4.897   0.371   2.638 -2.7030 -1.2113  1.4576
 8745TIP3    H247727   4.955   0.231   2.649  2.2776  0.4170 -0.7795
 8746TIP3   OH247728   2.185   0.012   3.090 -0.4053  0.1453 -0.1398
 8746TIP3    H147729   2.165   0.104   3.073  0.6834  0.5371  0.6038
 8746TIP3    H247730   2.256  -0.010   3.030  1.1018  0.5562  1.4295
 8747TIP3   OH247731   6.485   5.247   4.209 -0.2996 -0.3336 -0.4922
 8747TIP3    H147732   6.506   5.278   4.298  0.9168 -1.3292 -0.4018
 8747TIP3    H247733   6.569   5.251   4.163 -1.0228  0.7051 -1.7963
 8748TIP3   OH247734   3.680   5.384  14.319  0.2093  0.0969  0.2771
 8748TIP3    H147735   3.585   5.392  14.313  0.2364 -0.1511 -0.6906
 8748TIP3    H247736   3.700   5.404  14.410 -0.8372 -0.5666  0.6704
 8749TIP3   OH247737   5.576   2.273   5.401  0.1368  0.1725 -0.2260
 8749TIP3    H147738   5.605   2.205   5.461  2.1048  0.1797 -1.0889
 8749TIP3    H247739   5.549   2.345   5.458 -2.3675 -1.3630  0.7241
 8750TIP3   OH247740   0.401   4.565  10.871 -0.3910 -0.3729 -0.1660
 8750TIP3    H147741   0.447   4.496  10.918  0.4522  0.4918  0.2969
 8750TIP3    H247742   0.362   4.521  10.796 -0.7627 -1.5532  0.6886
 8751TIP3   OH247743   4.966   4.356   5.018 -0.0184 -0.2018  0.4894
 8751TIP3    H147744   5.040   4.402   4.979 -0.4648  0.6644  0.6505
 8751TIP3    H247745   4.989   4.263   5.011  1.5774  0.0891  1.5296
 8752TIP3   OH247746   2.167   4.939   5.950  0.6519 -0.2890 -0.3698
 8752TIP3    H147747   2.163   4.919   6.044  1.6445  0.2787 -0.2021
 8752TIP3    H247748   2.242   4.997   5.941 -0.6777  1.3850 -1.2212
 8753TIP3   OH247749   2.439   2.973  13.790  0.3352  0.4663  0.0115
 8753TIP3    H147750   2.427   2.909  13.860 -0.1488  1.8123  1.1838
 8753TIP3    H247751   2.448   2.919  13.711  0.4497 -1.0673  1.0177
 8754TIP3   OH247752   1.174   2.415   1.105 -0.0814 -0.0779  0.0399
 8754TIP3    H147753   1.189   2.321   1.107 -0.6327 -0.1729 -0.0618
 8754TIP3    H247754   1.144   2.433   1.016 -1.2840 -0.0210  0.4423
 8755TIP3   OH247755   2.127   5.235  13.342  0.0267  0.3668 -0.6960
 8755TIP3    H147756   2.151   5.221  13.250  0.9099  0.0030 -0.4277
 8755TIP3    H247757   2.175   5.167  13.389  0.0310  0.9082  0.0976
 8756TIP3   OH247758   5.952   3.704   2.385  0.2195 -0.0931  0.6827
 8756TIP3    H147759   5.992   3.790   2.389  0.2017  0.0194 -1.0098
 8756TIP3    H247760   5.858   3.721   2.385  0.2078 -0.1525  0.7804
 8757TIP3   OH247761   1.323   3.830  12.383  0.1193  0.8447 -0.1357
 8757TIP3    H147762   1.349   3.750  12.430  2.0830  0.6423 -1.4350
 8757TIP3    H247763   1.382   3.897  12.416  1.3465  0.7614 -2.0081
 8758TIP3   OH247764   4.403   2.581   1.750 -0.0731  0.3433 -0.0953
 8758TIP3    H147765   4.332   2.518   1.754  0.2502 -0.2323 -2.0282
 8758TIP3    H247766   4.482   2.527   1.745  0.4206  0.9567  0.8983
 8759TIP3   OH247767   3.732   6.631  13.078 -0.1683 -1.0553  0.3252
 8759TIP3    H147768   3.693   6.641  13.165 -0.9753 -0.4385 -0.0855
 8759TIP3    H247769   3.770   6.717  13.059 -3.8356  0.3492 -1.6933
 8760TIP3   OH247770   4.437   3.784  11.907  0.5097 -0.1279 -0.2769
 8760TIP3    H147771   4.385   3.833  11.843  0.2259  0.3641  0.3184
 8760TIP3    H247772   4.506   3.743  11.855  0.9622  1.1855 -0.7733
 8761TIP3   OH247773   2.758   6.076   4.101  1.0212 -0.9404  0.5145
 8761TIP3    H147774   2.828   6.133   4.130 -0.5568  1.7916 -0.6970
 8761TIP3    H247775   2.708   6.056   4.180  0.2584  1.3940  0.7023
 8762TIP3   OH247776   1.856   4.023  12.513 -0.6616  0.0013 -0.1883
 8762TIP3    H147777   1.914   3.963  12.466 -0.4831 -0.6138  0.7992
 8762TIP3    H247778   1.796   3.966  12.561 -1.5494  0.6287 -0.5332
 8763TIP3   OH247779   4.453   1.811  14.684  0.3723 -0.8440 -0.1066
 8763TIP3    H147780   4.486   1.759  14.611  0.7495 -0.0640 -0.5122
 8763TIP3    H247781   4.469   1.758  14.762  1.4685 -1.0026 -0.4230
 8764TIP3   OH247782   3.759   1.398   5.181  0.1592 -0.0854  0.4093
 8764TIP3    H147783   3.730   1.319   5.135  2.5570 -0.0480 -1.3404
 8764TIP3    H247784   3.713   1.470   5.137 -0.4879 -0.3288  0.6731
 8765TIP3   OH247785   6.532   6.640  14.069  0.1374  0.2180  0.3916
 8765TIP3    H147786   6.557   6.609  14.156 -0.0407  0.9324  0.7001
 8765TIP3    H247787   6.575   6.579  14.009 -0.1042 -0.5503  0.9845
 8766TIP3   OH247788   4.636   1.573  16.761 -0.2654  0.4604 -0.2294
 8766TIP3    H147789   4.586   1.559  16.680 -0.9648 -0.7213  0.3661
 8766TIP3    H247790   4.602   1.507  16.821 -0.2680  1.7754  1.2806
 8767TIP3   OH247791   6.113   6.468  13.504 -0.2344  0.0327 -0.2402
 8767TIP3    H147792   6.139   6.378  13.487 -3.3039 -1.1060  0.4607
 8767TIP3    H247793   6.147   6.487  13.592  3.0538  0.7766 -1.5247
 8768TIP3   OH247794   2.269   3.806   3.985  0.2882  0.1535 -1.1271
 8768TIP3    H147795   2.234   3.893   3.964  1.4154  1.0265  0.3684
 8768TIP3    H247796   2.201   3.765   4.038  0.7186  1.1482  0.2753
 8769TIP3   OH247797   0.503   0.214  17.082 -0.3044  0.1396  0.1165
 8769TIP3    H147798   0.575   0.155  17.104  0.1325  0.6520  0.0878
 8769TIP3    H247799   0.496   0.210  16.987 -1.0670 -0.7726  0.1985
 8770TIP3   OH247800   3.838   5.468  13.106 -0.2489 -0.7344 -0.0669
 8770TIP3    H147801   3.931   5.491  13.108 -0.3078 -0.1963 -1.6963
 8770TIP3    H247802   3.836   5.379  13.072 -0.3756 -0.0150 -2.0823
 8771TIP3   OH247803   1.529   3.013   6.804 -0.2551  0.1697 -0.0189
 8771TIP3    H147804   1.623   3.017   6.791 -0.6847  1.2739 -3.7791
 8771TIP3    H247805   1.504   3.103   6.826 -0.4984 -0.0954  0.8495
 8772TIP3   OH247806   6.759   0.844  12.761 -0.0731 -0.9316  0.1734
 8772TIP3    H147807   6.808   0.917  12.798 -2.1281  0.8518 -0.4149
 8772TIP3    H247808   6.802   0.826  12.678  0.9606 -0.9662  0.7048
 8773TIP3   OH247809   5.071   0.349  13.122 -0.1389  0.2757 -0.4376
 8773TIP3    H147810   5.126   0.387  13.053 -0.5709  0.4884 -0.6690
 8773TIP3    H247811   5.007   0.417  13.142 -0.4487 -0.0488 -0.3182
 8774TIP3   OH247812   2.869   4.969   3.660 -0.0349  0.7035 -0.2657
 8774TIP3    H147813   2.879   4.911   3.584 -0.3277  0.7684 -0.3540
 8774TIP3    H247814   2.875   5.057   3.624 -1.0047  0.7523 -0.3417
 8775TIP3   OH247815   3.142   2.494  14.602 -0.0528  0.3197 -0.1354
 8775TIP3    H147816   3.145   2.580  14.560  1.4329 -0.6853 -2.2775
 8775TIP3    H247817   3.233   2.465  14.606 -0.5248 -1.2402  0.2999
 8776TIP3   OH247818   1.578   1.094  12.372  0.2453 -0.0339  0.3209
 8776TIP3    H147819   1.519   1.087  12.297 -0.5430 -2.4767  1.0882
 8776TIP3    H247820   1.523   1.071  12.447  1.2633  1.4124  1.5617
 8777TIP3   OH247821   5.902   4.735   3.063  0.4067  0.4632  0.5633
 8777TIP3    H147822   5.807   4.727   3.065  0.4535 -0.2723  0.2796
 8777TIP3    H247823   5.920   4.820   3.101 -0.4676  1.4218 -1.0331
 8778TIP3   OH247824   3.490   0.954  14.431  0.0656  0.1999  0.1051
 8778TIP3    H147825   3.535   0.886  14.382  1.0549  0.9610 -0.0695
 8778TIP3    H247826   3.484   0.921  14.520  1.5830  0.3551  0.2833
 8779TIP3   OH247827   1.509   6.450  17.165  0.2068 -0.2888  0.5073
 8779TIP3    H147828   1.603   6.459  17.183  0.6691 -0.5347 -1.6029
 8779TIP3    H247829   1.504   6.383  17.097 -1.2887  1.3471 -1.0881
 8780TIP3   OH247830   3.332   6.003  16.623  0.4610  0.2612  0.2846
 8780TIP3    H147831   3.377   6.002  16.707 -0.1682 -1.0029  0.6245
 8780TIP3    H247832   3.399   6.028  16.560  0.9702  1.0985  1.1358
 8781TIP3   OH247833   6.443   4.660   5.312  0.4205 -0.4306  0.1075
 8781TIP3    H147834   6.528   4.618   5.326  0.3749 -1.1542 -1.5554
 8781TIP3    H247835   6.464   4.750   5.289  0.8231 -0.8360 -1.1994
 8782TIP3   OH247836   2.476   2.574   0.271  0.3431 -0.1436  0.0100
 8782TIP3    H147837   2.514   2.489   0.293  0.8599  0.1889  0.4097
 8782TIP3    H247838   2.399   2.581   0.328  0.8489  0.0729  0.6793
 8783TIP3   OH247839   3.378   1.267  11.637 -0.3948 -0.4240  0.1886
 8783TIP3    H147840   3.368   1.339  11.575 -0.8038 -1.0286 -0.4638
 8783TIP3    H247841   3.444   1.210  11.598  1.1856  0.4124  1.5052
 8784TIP3   OH247842   4.197   3.216  15.513  0.7267  0.2726 -0.4336
 8784TIP3    H147843   4.189   3.238  15.606  0.3335  0.7163 -0.5692
 8784TIP3    H247844   4.266   3.273  15.481  2.1779 -1.1773 -0.0190
 8785TIP3   OH247845   6.021   4.184   0.707 -0.2463  0.1641 -0.6867
 8785TIP3    H147846   6.041   4.107   0.760 -2.3510  0.4561  0.6225
 8785TIP3    H247847   6.040   4.156   0.617 -0.4438 -1.7247 -0.1876
 8786TIP3   OH247848   4.013   3.356   6.815  0.1244 -0.1036  0.3357
 8786TIP3    H147849   4.043   3.412   6.743  0.8340  1.5428  1.8539
 8786TIP3    H247850   3.919   3.346   6.799  0.3767 -0.3583 -1.1787
 8787TIP3   OH247851   6.585   5.454  14.649  0.1559 -0.2727 -0.2662
 8787TIP3    H147852   6.534   5.417  14.721 -0.8075  1.5282  0.0357
 8787TIP3    H247853   6.675   5.460  14.683  0.2071 -1.6859 -0.1133
 8788TIP3   OH247854   0.335   2.200  10.940  0.1623 -0.1262  0.5818
 8788TIP3    H147855   0.263   2.234  10.887 -1.2006  0.8254  2.9053
 8788TIP3    H247856   0.410   2.256  10.917 -0.3274  0.1269 -0.4582
 8789TIP3   OH247857   1.071   1.760   0.446 -0.6886  0.0971 -1.0347
 8789TIP3    H147858   1.048   1.853   0.454 -0.0122  0.1448  1.0277
 8789TIP3    H247859   1.069   1.727   0.536  2.8005 -0.9324 -1.1918
 8790TIP3   OH247860   5.427   3.816  17.012 -0.2078 -0.1849  0.0515
 8790TIP3    H147861   5.398   3.842  16.924  0.5667  2.5836  0.5211
 8790TIP3    H247862   5.517   3.786  16.999  0.2145  1.0768  0.0010
 8791TIP3   OH247863   5.460   4.741  11.548  0.4183 -0.3687 -0.8506
 8791TIP3    H147864   5.539   4.764  11.499  0.8385  0.0857  0.0054
 8791TIP3    H247865   5.418   4.673  11.496 -0.5175  1.8204 -3.1687
 8792TIP3   OH247866   6.164   4.357  16.611 -0.4485 -0.6717  0.1320
 8792TIP3    H147867   6.071   4.371  16.596 -0.7468 -0.7227  1.7226
 8792TIP3    H247868   6.171   4.265  16.636  0.1000 -0.7789 -0.3856
 8793TIP3   OH247869   6.109   1.735  15.859  0.5153 -0.0905  0.4918
 8793TIP3    H147870   6.154   1.776  15.785 -1.2242  0.7758 -0.1493
 8793TIP3    H247871   6.132   1.790  15.934  0.8799  0.0617  0.2748
 8794TIP3   OH247872   2.421   5.970   6.028 -0.2223  0.2944  0.4932
 8794TIP3    H147873   2.412   5.880   6.057 -2.8604  0.6246  0.9270
 8794TIP3    H247874   2.344   6.015   6.064  1.0745  2.7562  0.4156
 8795TIP3   OH247875   2.056   0.072  15.350 -0.5360 -0.4488  0.0739
 8795TIP3    H147876   1.978   0.039  15.395 -0.5243 -0.7669 -0.1372
 8795TIP3    H247877   2.126   0.014  15.377 -0.8944 -1.8924 -1.8645
 8796TIP3   OH247878   5.322   3.709  15.834  0.5034 -0.3134 -0.2523
 8796TIP3    H147879   5.327   3.745  15.746 -0.2501  0.8411  0.1399
 8796TIP3    H247880   5.240   3.659  15.835 -0.4667  1.2046  0.2791
 8797TIP3   OH247881   1.851   0.073   5.137 -0.0547 -0.3551 -0.0736
 8797TIP3    H147882   1.773   0.077   5.192 -0.1521 -0.3798 -0.2093
 8797TIP3    H247883   1.822   0.103   5.051  0.8448  3.0186  0.6642
 8798TIP3   OH247884   3.385   5.712   2.243  0.5813  0.2168  0.3622
 8798TIP3    H147885   3.305   5.661   2.228 -0.7507  2.6481 -1.4171
 8798TIP3    H247886   3.372   5.753   2.329 -0.0167  0.4355  0.1743
 8799TIP3   OH247887   2.339   5.714  15.629 -0.1991 -0.1832  0.8039
 8799TIP3    H147888   2.370   5.805  15.631  0.3002 -0.3208 -0.1641
 8799TIP3    H247889   2.253   5.720  15.587 -0.9517  0.0405  2.3232
 8800TIP3   OH247890   6.387   1.639  11.690 -0.0747  0.4643 -0.5278
 8800TIP3    H147891   6.419   1.559  11.648  0.1003  0.4230 -0.3218
 8800TIP3    H247892   6.464   1.696  11.693 -0.7463  1.5914 -2.8297
 8801TIP3   OH247893   6.182   1.474  14.485  0.0700 -0.2728 -0.4444
 8801TIP3    H147894   6.240   1.511  14.552 -0.8738  1.4878 -0.5354
 8801TIP3    H247895   6.230   1.399  14.450  2.2381  0.9987 -0.3996
 8802TIP3   OH247896   3.654   3.654   1.760 -0.0937  0.2774 -0.2030
 8802TIP3    H147897   3.567   3.685   1.786 -1.3710 -0.2724 -3.3328
 8802TIP3    H247898   3.639   3.564   1.731  1.2695  0.5370 -1.8347
 8803TIP3   OH247899   0.693   2.869   2.446  0.1444 -0.0624 -0.4881
 8803TIP3    H147900   0.753   2.944   2.447  1.2061 -0.8324  2.1931
 8803TIP3    H247901   0.625   2.892   2.509 -1.0018 -0.2806 -1.6205
 8804TIP3   OH247902   6.453   0.376   2.972  0.1333 -0.6822 -0.0346
 8804TIP3    H147903   6.495   0.297   2.938 -0.0880 -0.6892 -0.2916
 8804TIP3    H247904   6.470   0.442   2.905  1.8134 -0.0412  0.9574
 8805TIP3   OH247905   0.553   3.492   0.090  0.1279 -0.4297  0.6780
 8805TIP3    H147906   0.498   3.532   0.157  1.3538 -1.3319  2.3138
 8805TIP3    H247907   0.500   3.493   0.011 -1.2263  1.0671  1.5500
 8806TIP3   OH247908   5.951   1.871  11.359  0.1335  0.1595 -0.3196
 8806TIP3    H147909   5.936   1.920  11.278 -0.3334 -0.2478 -0.4841
 8806TIP3    H247910   5.896   1.915  11.424  0.8349  0.7512 -0.1143
 8807TIP3   OH247911   6.197   3.174  13.495  0.0052 -0.0160 -0.1687
 8807TIP3    H147912   6.207   3.107  13.563  0.6231 -0.9420 -1.1214
 8807TIP3    H247913   6.108   3.208  13.507  0.0004 -0.3709  0.9028
 8808TIP3   OH247914   5.451   6.736  15.075 -0.0975  0.3365  0.2559
 8808TIP3    H147915   5.491   6.649  15.064 -1.2199 -0.3838  1.4645
 8808TIP3    H247916   5.497   6.792  15.013 -0.2130 -1.4147 -1.5434
 8809TIP3   OH247917   0.696   0.733  11.806  0.3281 -0.0607 -0.2531
 8809TIP3    H147918   0.711   0.733  11.712 -0.4855  0.4654 -0.3859
 8809TIP3    H247919   0.661   0.646  11.825 -2.9239  0.9568 -1.0199
 8810TIP3   OH247920   3.307   1.870   3.896  0.0418  0.1564 -0.6759
 8810TIP3    H147921   3.282   1.853   3.805  1.9702 -0.6286 -1.0966
 8810TIP3    H247922   3.401   1.851   3.900 -0.4476 -2.4693  2.1034
 8811TIP3   OH247923   2.322   5.039  10.365 -0.3445  0.2982 -0.4537
 8811TIP3    H147924   2.288   4.970  10.422  0.2160  1.3137  1.1406
 8811TIP3    H247925   2.409   5.059  10.398 -0.1720  1.2250 -1.3866
 8812TIP3   OH247926   1.942   1.767   4.924  0.5367 -0.4150  0.6877
 8812TIP3    H147927   1.868   1.772   4.863  1.0615 -0.3837  0.0335
 8812TIP3    H247928   1.908   1.720   5.000 -0.6309  1.0780  1.1345
 8813TIP3   OH247929   0.120   4.638  15.670  0.6814  0.1701 -0.1107
 8813TIP3    H147930   0.132   4.629  15.575  0.4010 -0.1018 -0.1238
 8813TIP3    H247931   0.208   4.653  15.704  0.8235 -0.0369 -0.3839
 8814TIP3   OH247932   4.278   1.768   0.681  0.0517  0.0324  0.5057
 8814TIP3    H147933   4.370   1.792   0.696 -0.1164  1.7279 -0.8374
 8814TIP3    H247934   4.229   1.820   0.744 -0.0450 -0.3291  0.7332
 8815TIP3   OH247935   5.080   6.553   2.403 -0.0115  0.2811  0.2404
 8815TIP3    H147936   4.994   6.566   2.443 -0.6572 -0.2537 -0.9171
 8815TIP3    H247937   5.135   6.621   2.442 -0.4298 -0.5649  2.4314
 8816TIP3   OH247938   0.991   1.351  15.748 -0.0377  0.5803  0.3580
 8816TIP3    H147939   1.078   1.329  15.714 -0.1942 -0.0970  0.3809
 8816TIP3    H247940   0.930   1.314  15.684 -0.3161  0.8490  0.4614
 8817TIP3   OH247941   6.083   0.311   1.167 -0.6546 -0.2735 -0.1779
 8817TIP3    H147942   6.172   0.292   1.197 -0.2999 -1.9597 -2.1362
 8817TIP3    H247943   6.027   0.282   1.239  0.3384  1.5894  1.4459
 8818TIP3   OH247944   5.802   6.290   5.012  0.2002  0.2891  0.1810
 8818TIP3    H147945   5.707   6.278   5.014  0.1152  0.9587  0.6696
 8818TIP3    H247946   5.838   6.202   5.012 -0.3804  0.0006  2.5758
 8819TIP3   OH247947   2.789   5.293   3.155 -0.1091  0.5818  0.3436
 8819TIP3    H147948   2.724   5.285   3.084  0.2697 -2.4926  0.2144
 8819TIP3    H247949   2.801   5.203   3.186  3.8417  1.0256  0.5881
 8820TIP3   OH247950   1.345   5.847  12.741  0.1030  0.4196 -0.1321
 8820TIP3    H147951   1.257   5.823  12.770  0.2898  1.3860  1.3448
 8820TIP3    H247952   1.400   5.834  12.818  1.1212  0.6016 -0.8105
 8821TIP3   OH247953   1.956   4.195  17.010 -0.0032 -0.3082 -0.3440
 8821TIP3    H147954   1.875   4.144  17.005 -0.2364  0.1026 -0.9523
 8821TIP3    H247955   1.930   4.279  17.048  0.5867 -1.0160  1.7725
 8822TIP3   OH247956   6.259   6.203  16.313 -0.2282  0.4508  0.0604
 8822TIP3    H147957   6.297   6.225  16.398  0.8761  2.6985 -0.9156
 8822TIP3    H247958   6.308   6.126  16.284 -0.3478 -0.0972  1.2512
 8823TIP3   OH247959   0.178   5.098  11.772 -0.0904 -0.4397 -0.4600
 8823TIP3    H147960   0.212   5.180  11.807  1.3283 -1.5920  1.0000
 8823TIP3    H247961   0.168   5.114  11.678  1.1202  1.0730 -0.3636
 8824TIP3   OH247962   0.423   0.247  11.474 -0.0334 -0.3893  0.1419
 8824TIP3    H147963   0.446   0.209  11.559 -0.1840 -0.0127  0.3523
 8824TIP3    H247964   0.486   0.318  11.462  2.3158 -2.5438 -1.6576
 8825TIP3   OH247965   2.757   0.197   1.769 -0.6233  0.9895 -0.3771
 8825TIP3    H147966   2.815   0.254   1.717 -1.5131 -0.0419 -2.6514
 8825TIP3    H247967   2.705   0.257   1.821  1.7938  1.9930  1.0499
 8826TIP3   OH247968   4.022   0.641  12.352 -0.6389 -0.3809 -0.1424
 8826TIP3    H147969   4.078   0.702  12.304 -0.1687 -1.5510 -1.1496
 8826TIP3    H247970   3.935   0.682  12.351  0.0809  1.2644  1.0973
 8827TIP3   OH247971   5.675   3.573  16.431 -0.1057  0.4539  0.0107
 8827TIP3    H147972   5.657   3.597  16.522  2.5371 -2.5242  1.4889
 8827TIP3    H247973   5.769   3.586  16.420 -0.1793 -0.2870 -1.9730
 8828TIP3   OH247974   2.596   6.441   4.185 -0.4045 -0.2321  0.1183
 8828TIP3    H147975   2.552   6.398   4.258  1.0536 -0.1157  1.0895
 8828TIP3    H247976   2.526   6.490   4.141 -1.8813 -2.5739 -0.3196
 8829TIP3   OH247977   0.902   6.361  14.175 -0.6311 -0.0356 -0.7730
 8829TIP3    H147978   0.878   6.453  14.182 -2.0517 -0.5040  1.5855
 8829TIP3    H247979   0.997   6.361  14.166 -0.5023  1.6552  0.1991
 8830TIP3   OH247980   0.606   4.702  12.979  0.3956  0.3029 -0.4176
 8830TIP3    H147981   0.544   4.753  13.030  1.0192  0.3320  0.3393
 8830TIP3    H247982   0.692   4.737  13.004  0.9727 -2.1206  1.3836
 8831TIP3   OH247983   5.001   5.655  14.322  0.4959  0.3730  0.0489
 8831TIP3    H147984   4.913   5.683  14.348 -0.1344  0.2297 -1.7713
 8831TIP3    H247985   5.007   5.564  14.352  0.6905  0.8842  1.6507
 8832TIP3   OH247986   2.708   4.667  11.861 -0.1894  0.2531  0.2501
 8832TIP3    H147987   2.638   4.733  11.854 -0.3641  0.0188 -0.2530
 8832TIP3    H247988   2.766   4.686  11.787  0.2642  0.4275  0.6515
 8833TIP3   OH247989   3.566   5.336   6.053 -0.1532  0.5444 -0.7751
 8833TIP3    H147990   3.540   5.285   6.130  0.7270 -2.5817 -2.3875
 8833TIP3    H247991   3.646   5.381   6.080  0.5376 -1.0564 -0.0380
 8834TIP3   OH247992   0.364   5.185   3.034  0.5476 -0.0852  0.8450
 8834TIP3    H147993   0.359   5.092   3.057  0.2914 -0.3430 -0.1718
 8834TIP3    H247994   0.275   5.207   3.005  0.8159  0.2286  0.2318
 8835TIP3   OH247995   1.517   5.044   0.818 -0.2691 -0.4617  0.0235
 8835TIP3    H147996   1.525   5.078   0.729  0.4605  0.6833  0.4993
 8835TIP3    H247997   1.434   4.996   0.818 -0.4727 -0.1436 -1.1586
 8836TIP3   OH247998   2.389   3.017  12.530 -0.0972  0.4084  0.0642
 8836TIP3    H147999   2.398   3.004  12.436 -0.4325  0.5645  0.0080
 8836TIP3    H248000   2.470   3.061  12.556  0.0411  0.2703 -0.1322
 8837TIP3   OH248001   6.525   0.055   3.026 -0.0500 -0.0255 -0.2855
 8837TIP3    H148002   6.581  -0.022   3.020 -0.5312 -0.3863 -0.1477
 8837TIP3    H248003   6.552   0.098   3.107  1.0614  0.6232 -0.9733
 8838TIP3   OH248004   1.893   1.686  15.494  0.6450 -0.0348 -0.0194
 8838TIP3    H148005   1.891   1.723  15.583 -0.5644  0.7788 -0.3585
 8838TIP3    H248006   1.914   1.594  15.507  0.7120  0.1199  1.0993
 8839TIP3   OH248007   1.407   6.702   3.120  0.0706  0.4772  0.5855
 8839TIP3    H148008   1.494   6.666   3.135  0.5176  1.0227 -0.5783
 8839TIP3    H248009   1.388   6.751   3.200  0.8015  0.3073  0.8767
 8840TIP3   OH248010   4.513   1.865   0.491  0.1499 -0.1102 -0.0640
 8840TIP3    H148011   4.440   1.921   0.464 -0.2273 -0.2483  0.6431
 8840TIP3    H248012   4.564   1.853   0.412 -0.2042  0.5775 -0.4110
 8841TIP3   OH248013   5.453   3.328   4.362 -0.1817 -0.3354 -0.1513
 8841TIP3    H148014   5.497   3.352   4.280  0.1095  1.7028  0.5421
 8841TIP3    H248015   5.361   3.318   4.338  0.0707 -0.8531 -0.9232
 8842TIP3   OH248016   3.093   0.109   0.120 -0.6003  0.4061  0.1275
 8842TIP3    H148017   3.053   0.051   0.056 -1.2706 -0.6571  1.4642
 8842TIP3    H248018   3.080   0.197   0.085 -1.0609 -0.1434 -1.1140
 8843TIP3   OH248019   6.679   2.635  15.000  0.0432  0.0455  0.1342
 8843TIP3    H148020   6.679   2.726  14.970 -0.3126 -0.1576 -0.4919
 8843TIP3    H248021   6.754   2.596  14.955 -0.4952 -0.2618 -0.5091
 8844TIP3   OH248022   4.587   5.485  15.044 -0.0650  0.5266 -0.2442
 8844TIP3    H148023   4.671   5.484  14.999 -0.1953  0.2166 -0.4838
 8844TIP3    H248024   4.600   5.545  15.117  0.4018  0.3796 -0.2044
 8845TIP3   OH248025   3.837   5.685  12.752 -0.1714 -0.0950  0.2561
 8845TIP3    H148026   3.906   5.696  12.818 -2.2350  1.8249  2.2853
 8845TIP3    H248027   3.876   5.720  12.671  2.3643 -2.3430  0.3564
 8846TIP3   OH248028   2.766   3.922   5.375  0.7573  0.7286 -0.3872
 8846TIP3    H148029   2.772   3.990   5.442  0.6496 -0.3023  0.6995
 8846TIP3    H248030   2.832   3.947   5.310  1.5047  1.2591  0.5534
 8847TIP3   OH248031   0.192   0.573   3.551  0.2161  0.0101 -0.3204
 8847TIP3    H148032   0.173   0.584   3.644 -2.6760 -2.7231 -0.4164
 8847TIP3    H248033   0.166   0.656   3.512  0.6287  0.8905  1.1873
 8848TIP3   OH248034   4.704   6.396   1.473 -0.5334  0.3649 -0.1418
 8848TIP3    H148035   4.734   6.379   1.384 -1.0388 -0.1839 -0.2189
 8848TIP3    H248036   4.612   6.369   1.472 -0.0451 -1.5731  1.0650
 8849TIP3   OH248037   5.584   3.204   0.485  0.3449  0.1199 -0.0581
 8849TIP3    H148038   5.679   3.195   0.492  0.0440 -2.1700  4.2922
 8849TIP3    H248039   5.556   3.124   0.441  0.3243  0.6902 -1.1311
 8850TIP3   OH248040   5.299   2.812   2.060  0.5795  0.1134  0.0323
 8850TIP3    H148041   5.310   2.725   2.099  0.1829 -0.5540 -1.2799
 8850TIP3    H248042   5.213   2.809   2.019  0.4573  1.2232  0.1800
 8851TIP3   OH248043   6.597   4.985  13.482  0.1729 -0.1464  0.5503
 8851TIP3    H148044   6.526   4.946  13.533  0.3693  0.0873  1.0053
 8851TIP3    H248045   6.565   4.985  13.392 -0.6598  0.5623  0.8421
 8852TIP3   OH248046   6.145   0.219  13.440  0.2985  0.2562  0.2894
 8852TIP3    H148047   6.156   0.136  13.394  0.2797  1.6207 -2.3679
 8852TIP3    H248048   6.064   0.207  13.491 -0.0719 -1.1161 -0.5637
 8853TIP3   OH248049   6.568   6.078  11.899 -0.0858  0.0749 -0.3709
 8853TIP3    H148050   6.536   6.014  11.962 -0.2745  0.2111 -0.3299
 8853TIP3    H248051   6.627   6.135  11.949  1.2218 -0.9274 -0.7000
 8854TIP3   OH248052   6.066   5.656   3.557 -0.1516  0.1482 -0.3049
 8854TIP3    H148053   6.105   5.568   3.558  0.2378  0.3153  1.1094
 8854TIP3    H248054   5.973   5.641   3.541 -0.4851 -0.7269  2.1602
 8855TIP3   OH248055   6.628   4.562  12.274  0.6694  0.3343  0.2550
 8855TIP3    H148056   6.683   4.572  12.197  0.9045 -3.4429 -0.2484
 8855TIP3    H248057   6.546   4.608  12.252  2.1224  2.7579 -0.4948
 8856TIP3   OH248058   0.762   6.396   5.660  0.2993 -0.2125  0.1027
 8856TIP3    H148059   0.847   6.440   5.670  0.1898  0.3745 -1.3837
 8856TIP3    H248060   0.784   6.307   5.633  0.4332  0.0078 -0.5127
 8857TIP3   OH248061   2.656   5.002  13.842  0.5747  0.4379  0.0360
 8857TIP3    H148062   2.646   5.051  13.923  0.7532 -1.6703  1.4355
 8857TIP3    H248063   2.569   4.966  13.825  0.2613  1.7958 -1.3878
 8858TIP3   OH248064   1.344   5.705  14.395  0.7149 -0.1496 -0.3861
 8858TIP3    H148065   1.417   5.763  14.376  1.2891 -0.5502  0.5216
 8858TIP3    H248066   1.361   5.627  14.342  0.9174 -0.2183 -0.2209
 8859TIP3   OH248067   2.395   5.060  14.781  0.0466  0.0173 -0.3179
 8859TIP3    H148068   2.425   5.010  14.856 -0.3160 -0.5561 -0.5475
 8859TIP3    H248069   2.445   5.142  14.784 -0.4285  0.2722  0.9039
 8860TIP3   OH248070   4.023   5.647  13.427  0.2399 -0.2239 -0.7249
 8860TIP3    H148071   4.061   5.561  13.445  0.6515 -0.3222 -2.0223
 8860TIP3    H248072   4.094   5.697  13.386 -0.6756 -0.0280 -2.1001
 8861TIP3   OH248073   5.846   6.589   0.856  0.0103 -0.2510 -0.3634
 8861TIP3    H148074   5.877   6.545   0.935  0.1199 -0.6994 -0.6493
 8861TIP3    H248075   5.901   6.667   0.848 -0.3956  0.1103  0.3212
 8862TIP3   OH248076   5.270   5.206  11.202  0.0396  1.1195 -1.3019
 8862TIP3    H148077   5.273   5.143  11.274 -0.2040  2.9000  0.3563
 8862TIP3    H248078   5.183   5.195  11.164 -0.3347  1.0494 -0.4495
 8863TIP3   OH248079   3.268   2.342   0.359 -0.1040 -0.9060  0.3135
 8863TIP3    H148080   3.207   2.318   0.288  2.1675 -1.9974 -1.3914
 8863TIP3    H248081   3.213   2.390   0.422 -2.0281  1.4577 -2.8250
 8864TIP3   OH248082   3.993   4.500   5.518  0.4192  0.0896  0.3985
 8864TIP3    H148083   3.921   4.446   5.552  0.1239 -0.0514 -0.4246
 8864TIP3    H248084   4.058   4.437   5.488 -0.0619  0.1644 -0.8550
 8865TIP3   OH248085   3.605   2.857   3.533 -0.0568 -0.0204 -0.3081
 8865TIP3    H148086   3.554   2.937   3.550 -1.0757 -0.7603  0.1927
 8865TIP3    H248087   3.630   2.863   3.441 -0.5306  0.6411 -0.3992
 8866TIP3   OH248088   4.367   2.613  15.634  0.2813 -0.0875  0.0440
 8866TIP3    H148089   4.307   2.563  15.578  0.8023 -0.5516 -0.1096
 8866TIP3    H248090   4.407   2.677  15.575 -0.8574  0.9630  0.3713
 8867TIP3   OH248091   3.250   5.273  15.132 -0.1336 -0.7293 -0.1392
 8867TIP3    H148092   3.274   5.284  15.040 -1.3535  0.9552 -0.2949
 8867TIP3    H248093   3.325   5.228  15.171  1.5211  0.7423 -1.4326
 8868TIP3   OH248094   5.864   2.050  14.777 -0.0895 -0.7485  0.0649
 8868TIP3    H148095   5.958   2.048  14.794 -0.0575 -1.2790 -0.1492
 8868TIP3    H248096   5.825   2.010  14.855 -0.3463  1.8737  1.3796
 8869TIP3   OH248097   1.694   3.923  14.750  0.0540  0.3269  0.0624
 8869TIP3    H148098   1.667   4.010  14.779 -1.2948 -0.5391  1.5803
 8869TIP3    H248099   1.684   3.925  14.655  0.4648  1.9370  0.0152
 8870TIP3   OH248100   0.991   4.183  13.594 -0.8813  0.8418 -0.1368
 8870TIP3    H148101   1.075   4.222  13.618  0.3357 -1.6293 -0.0967
 8870TIP3    H248102   0.944   4.172  13.677 -1.2642  2.1787 -0.1555
 8871TIP3   OH248103   2.683   3.617  14.789  0.0960 -0.0645  0.3856
 8871TIP3    H148104   2.606   3.668  14.818  1.0440  1.4729  0.3213
 8871TIP3    H248105   2.647   3.550  14.732 -1.0135  2.4723 -2.1426
 8872TIP3   OH248106   4.622   1.829  11.659  0.5598  0.2451 -0.1803
 8872TIP3    H148107   4.538   1.814  11.616  1.0956 -0.8652 -0.8813
 8872TIP3    H248108   4.601   1.885  11.734 -1.2086 -1.9968  1.1247
 8873TIP3   OH248109   2.292   4.060  13.975 -0.1660  0.2269 -0.6386
 8873TIP3    H148110   2.304   4.064  13.880 -0.5607  1.8229 -0.6598
 8873TIP3    H248111   2.203   4.026  13.986 -0.1418  0.0940 -0.8406
 8874TIP3   OH248112   3.150   0.096  14.341  0.2452 -0.2833  0.1083
 8874TIP3    H148113   3.069   0.142  14.316 -0.5906 -0.1348  2.7916
 8874TIP3    H248114   3.163   0.032  14.271 -1.4925  0.5197 -1.0266
 8875TIP3   OH248115   4.748   3.018  13.047 -0.0338 -0.1050  0.1021
 8875TIP3    H148116   4.780   2.933  13.075  0.5695 -0.1964 -0.8296
 8875TIP3    H248117   4.778   3.027  12.957 -3.1340 -0.4680 -1.1096
 8876TIP3   OH248118   0.561   6.257  15.871  0.0395 -0.1306  0.0549
 8876TIP3    H148119   0.553   6.228  15.780  1.9909 -2.0943  0.4403
 8876TIP3    H248120   0.581   6.178  15.920  0.2030  1.0736  2.0417
 8877TIP3   OH248121   1.444   4.430  14.837 -0.2125  0.0977 -0.2838
 8877TIP3    H148122   1.416   4.477  14.915  1.6043  0.1795  0.3666
 8877TIP3    H248123   1.532   4.464  14.819  0.8536 -2.4457 -0.2667
 8878TIP3   OH248124   5.622   0.539   5.170  0.4010 -0.7941 -0.3362
 8878TIP3    H148125   5.538   0.496   5.157  0.3835 -1.0409  0.5139
 8878TIP3    H248126   5.625   0.558   5.264  0.4608  0.9688 -0.6576
 8879TIP3   OH248127   3.051   1.696  11.211  0.3496 -0.1191 -0.4105
 8879TIP3    H148128   3.047   1.606  11.244 -1.9726  0.6034  1.5999
 8879TIP3    H248129   3.140   1.725  11.233  0.2824 -1.1089  1.3831
 8880TIP3   OH248130   5.288   4.841  14.654 -0.7610  0.2465 -0.4739
 8880TIP3    H148131   5.381   4.863  14.663 -0.7781  0.8505 -1.6017
 8880TIP3    H248132   5.259   4.824  14.744  0.9889 -2.3741 -0.3005
 8881TIP3   OH248133   6.098   3.626  16.925 -0.3559  0.0304  0.1422
 8881TIP3    H148134   6.021   3.673  16.958 -0.2102  0.0280  0.4873
 8881TIP3    H248135   6.169   3.691  16.931 -0.5676  0.4395 -1.3213
 8882TIP3   OH248136   6.415   0.776  16.134 -0.6962  0.1718  0.3501
 8882TIP3    H148137   6.464   0.855  16.109  1.0827 -0.5839  1.2329
 8882TIP3    H248138   6.466   0.739  16.206 -1.6194 -1.6505  0.1126
 8883TIP3   OH248139   0.919   0.104  16.431 -0.2185  0.1998 -0.5232
 8883TIP3    H148140   0.965   0.187  16.419 -0.8094  0.3637 -1.8146
 8883TIP3    H248141   0.850   0.105  16.365 -0.6374 -1.0413 -0.1324
 8884TIP3   OH248142   1.818   4.818  13.505 -0.4996 -0.4763 -0.0424
 8884TIP3    H148143   1.735   4.844  13.545 -0.6797 -2.0071  0.6512
 8884TIP3    H248144   1.793   4.774  13.424 -0.5344 -2.3807  0.9328
 8885TIP3   OH248145   0.563   1.493  16.770 -0.5727 -0.3151 -0.5971
 8885TIP3    H148146   0.621   1.569  16.781 -0.6556 -0.4984  1.5432
 8885TIP3    H248147   0.605   1.441  16.701  1.1875  0.1385  0.0784
 8886TIP3   OH248148   0.380   3.848  15.014 -0.0659  0.0136  0.2455
 8886TIP3    H148149   0.373   3.755  14.990 -0.1532  0.3225 -1.0293
 8886TIP3    H248150   0.334   3.894  14.943  1.9383  1.1637 -0.3905
 8887TIP3   OH248151   1.227   2.710   5.402 -0.0797  0.0641 -0.4416
 8887TIP3    H148152   1.271   2.748   5.326  0.2772 -0.8399 -0.6868
 8887TIP3    H248153   1.215   2.784   5.462 -0.9229  0.9221 -1.6262
 8888TIP3   OH248154   5.051   4.080  14.744  0.1838  0.6468  0.2977
 8888TIP3    H148155   4.984   4.013  14.729  0.2722  0.3826  1.0471
 8888TIP3    H248156   5.079   4.067  14.835  2.9023 -0.7524 -0.6384
 8889TIP3   OH248157   3.361   2.174   4.957  0.0257 -0.2819  0.1762
 8889TIP3    H148158   3.351   2.182   5.052  1.8636  2.5442  0.2613
 8889TIP3    H248159   3.389   2.083   4.944 -1.8915 -1.2432  2.0972
 8890TIP3   OH248160   1.736   4.616  11.568  0.0034 -0.0490 -0.1098
 8890TIP3    H148161   1.681   4.695  11.567 -0.6799 -0.5112 -0.7565
 8890TIP3    H248162   1.715   4.572  11.485  0.3436 -0.9217  0.2584
 8891TIP3   OH248163   3.140   1.758  16.046  0.8309  0.1289 -0.0283
 8891TIP3    H148164   3.159   1.787  15.957  0.2212  1.1743  0.1634
 8891TIP3    H248165   3.113   1.667  16.036  0.6460  0.2692 -0.9265
 8892TIP3   OH248166   4.198   5.166   1.345 -0.1889  0.1910  0.6417
 8892TIP3    H148167   4.179   5.197   1.256  0.8643  2.0715  1.0131
 8892TIP3    H248168   4.195   5.245   1.399 -1.5149 -1.0152  2.4448
 8893TIP3   OH248169   2.568   3.696  16.813  0.4989 -0.4984 -0.0933
 8893TIP3    H148170   2.499   3.649  16.767  0.2599 -0.6003  0.3608
 8893TIP3    H248171   2.650   3.667  16.772  0.2895 -0.5675 -0.4629
 8894TIP3   OH248172   4.261   4.371  16.084 -0.4261  0.9004  0.6735
 8894TIP3    H148173   4.288   4.418  16.006  0.1940 -0.6723 -0.1000
 8894TIP3    H248174   4.230   4.439  16.144  1.1777  2.3490 -0.0720
 8895TIP3   OH248175   4.492   3.380   3.899  0.3140 -0.1780  0.2922
 8895TIP3    H148176   4.475   3.288   3.879 -0.7064 -0.4123  2.0930
 8895TIP3    H248177   4.414   3.426   3.868  0.3268 -0.0698  0.4199
 8896TIP3   OH248178   3.066   1.972   4.651 -0.3353  0.4191  0.4246
 8896TIP3    H148179   3.160   1.981   4.667 -0.5410  0.1195  1.9643
 8896TIP3    H248180   3.029   2.054   4.685 -0.6629  0.3924  0.1313
 8897TIP3   OH248181   4.830   4.624   5.730 -0.5782 -0.6194  0.1395
 8897TIP3    H148182   4.751   4.639   5.782 -1.1987  0.7224 -1.1140
 8897TIP3    H248183   4.806   4.652   5.642  1.6741  1.0086 -0.0289
 8898TIP3   OH248184   3.857   3.324   3.605 -0.0945  0.1586  0.1088
 8898TIP3    H148185   3.815   3.284   3.681 -2.6155  1.0097 -0.7431
 8898TIP3    H248186   3.872   3.415   3.630  1.3969 -0.1547  0.4302
 8899TIP3   OH248187   6.665   5.148   5.461 -0.1905 -0.4548 -1.0424
 8899TIP3    H148188   6.642   5.076   5.520  0.1054  1.3293  1.4376
 8899TIP3    H248189   6.729   5.110   5.401  1.0570 -1.9750  1.0955
 8900TIP3   OH248190   2.129   5.048   1.516 -0.2805 -0.3170  0.0225
 8900TIP3    H148191   2.054   4.989   1.521 -0.4009 -0.1870 -0.2181
 8900TIP3    H248192   2.091   5.134   1.500 -0.0179 -0.5410 -2.1067
 8901TIP3   OH248193   1.622   0.886  14.412 -0.1305  0.6637 -0.0803
 8901TIP3    H148194   1.627   0.791  14.405  0.5271  0.5493  1.5615
 8901TIP3    H248195   1.547   0.910  14.358 -0.6174 -0.8274 -0.1203
 8902TIP3   OH248196   1.345   1.441   6.222 -0.9733 -0.0874  0.0192
 8902TIP3    H148197   1.418   1.417   6.165  0.0507 -1.0928  1.6767
 8902TIP3    H248198   1.380   1.434   6.310 -2.9812 -0.2415  0.8559
 8903TIP3   OH248199   6.003   6.340  12.813 -0.4015 -0.1735  0.4036
 8903TIP3    H148200   5.980   6.414  12.758  1.5819  0.0676 -0.1485
 8903TIP3    H248201   5.924   6.285  12.812 -0.5459 -0.0604 -2.4575
 8904TIP3   OH248202   3.809   4.756  14.196 -0.0717  0.3460 -0.1904
 8904TIP3    H148203   3.755   4.677  14.188  0.5899 -0.0692 -0.6056
 8904TIP3    H248204   3.783   4.795  14.280 -3.7302  2.1947 -1.9299
 8905TIP3   OH248205   0.518   3.366   3.052  0.2321  0.6485 -0.7000
 8905TIP3    H148206   0.557   3.345   2.968  0.5572  0.9513 -0.6260
 8905TIP3    H248207   0.473   3.286   3.079  1.6852 -0.0678 -0.2861
 8906TIP3   OH248208   5.424   6.135   2.478  0.1092  0.1449  0.5103
 8906TIP3    H148209   5.393   6.077   2.548 -0.1446 -0.5421 -0.1556
 8906TIP3    H248210   5.367   6.212   2.485 -2.1892 -1.3039 -1.0100
 8907TIP3   OH248211   6.516   5.152   4.613  0.3122 -0.2512  0.2029
 8907TIP3    H148212   6.448   5.180   4.552 -1.2487 -1.7746  1.1425
 8907TIP3    H248213   6.481   5.071   4.652  3.3525 -2.0128 -0.4049
 8908TIP3   OH248214   0.648   1.651   5.935  0.3364  0.1893  0.2484
 8908TIP3    H148215   0.631   1.585   6.003  1.0878 -1.2324 -0.9032
 8908TIP3    H248216   0.722   1.701   5.970 -0.9139  1.2040  1.6206
 8909TIP3   OH248217   3.141   1.054   5.029 -0.5294  0.0186  0.3652
 8909TIP3    H148218   3.065   1.072   4.974  1.9683  0.0428 -3.4263
 8909TIP3    H248219   3.184   1.139   5.041  0.8689 -0.4704 -0.8512
 8910TIP3   OH248220   6.207   1.621  11.194 -0.2655  0.0922  0.1405
 8910TIP3    H148221   6.277   1.657  11.140  0.5023 -0.3495  0.8055
 8910TIP3    H248222   6.126   1.656  11.157  0.3025  0.5080 -0.7218
 8911TIP3   OH248223   3.805   4.159  10.858 -1.0300  0.1673  0.0950
 8911TIP3    H148224   3.871   4.168  10.790  1.0667 -0.1912  1.9896
 8911TIP3    H248225   3.740   4.099  10.820  1.2656 -1.9528 -0.7672
 8912TIP3   OH248226   4.507   2.811  16.085  0.0112 -0.4504  0.6088
 8912TIP3    H148227   4.567   2.878  16.117  0.4054 -0.0940 -0.8335
 8912TIP3    H248228   4.426   2.859  16.067 -0.6288 -0.8602  2.1570
 8913TIP3   OH248229   0.689   1.752   2.375  0.7228 -0.3716  0.6899
 8913TIP3    H148230   0.710   1.764   2.283 -0.9398 -1.5328  0.1180
 8913TIP3    H248231   0.672   1.658   2.384  0.0766 -0.1524  1.9970
 8914TIP3   OH248232   4.250   5.975   4.694  0.6628  0.2415  0.3272
 8914TIP3    H148233   4.305   6.021   4.631  1.4470 -0.7583  0.2564
 8914TIP3    H248234   4.284   5.885   4.695  0.6207  0.1946  2.0858
 8915TIP3   OH248235   2.747   3.003  13.212  0.7383 -0.7294  0.3680
 8915TIP3    H148236   2.799   3.070  13.167 -1.0393  0.5841  0.1557
 8915TIP3    H248237   2.745   2.929  13.152 -1.6317  1.0063 -1.9095
 8916TIP3   OH248238   4.896   2.768  17.280  0.6216  0.4517 -0.9198
 8916TIP3    H148239   4.807   2.798  17.260  0.0457 -0.8906 -0.4547
 8916TIP3    H248240   4.922   2.817  17.358  1.1084  2.3516 -2.2204
 8917TIP3   OH248241   5.692   3.281   3.746 -0.1164 -0.0883 -0.1017
 8917TIP3    H148242   5.668   3.222   3.817  0.0815 -0.0836 -0.0328
 8917TIP3    H248243   5.758   3.339   3.783  0.6176 -0.6332 -0.5389
 8918TIP3   OH248244   4.513   0.909  12.576 -0.2330  0.2630 -0.0872
 8918TIP3    H148245   4.473   0.965  12.643 -0.5368 -0.2710  0.1858
 8918TIP3    H248246   4.456   0.833  12.571 -0.2820  0.3550 -1.0649
 8919TIP3   OH248247   5.634   3.791  14.239 -0.3172  0.2041  0.0513
 8919TIP3    H148248   5.712   3.750  14.275 -0.7365 -0.9449 -0.3038
 8919TIP3    H248249   5.655   3.807  14.147 -0.5217 -0.1537 -0.0571
 8920TIP3   OH248250   1.713   0.206  13.661 -0.3956  0.2467 -0.3195
 8920TIP3    H148251   1.622   0.229  13.677 -0.6699 -0.7791 -0.3180
 8920TIP3    H248252   1.763   0.281  13.692 -1.1198 -0.0468  1.6495
 8921TIP3   OH248253   3.262   1.876   4.149 -0.0776 -0.4015  0.0227
 8921TIP3    H148254   3.304   1.953   4.187  0.2732 -1.0865  1.0440
 8921TIP3    H248255   3.274   1.887   4.054  1.3599  0.0146  0.2355
 8922TIP3   OH248256   5.333   1.070  12.790 -0.1704 -0.1607  0.1969
 8922TIP3    H148257   5.313   1.022  12.870  1.4989  0.4722  1.0276
 8922TIP3    H248258   5.307   1.160  12.809 -0.1438 -0.0807 -0.1348
 8923TIP3   OH248259   5.905   4.573  14.249 -0.3643  0.1430  0.5073
 8923TIP3    H148260   5.814   4.597  14.267 -0.1737 -0.1929  2.0999
 8923TIP3    H248261   5.904   4.478  14.244 -0.1460  0.1507  0.3263
 8924TIP3   OH248262   6.106   1.453   0.477 -0.0581 -0.3812  0.0709
 8924TIP3    H148263   6.122   1.508   0.400  1.3287 -0.9390 -0.0784
 8924TIP3    H248264   6.015   1.470   0.501  0.3956  2.2190  0.2282
 8925TIP3   OH248265   0.631   0.024  14.026 -0.0979 -0.1089 -0.8867
 8925TIP3    H148266   0.546   0.050  14.062  0.1454 -1.1996  0.5488
 8925TIP3    H248267   0.655   0.096  13.967 -2.7743 -0.5174 -2.6785
 8926TIP3   OH248268   6.756   4.461   0.285 -0.0340  0.1520  0.4041
 8926TIP3    H148269   6.714   4.498   0.362 -1.4931  1.7358 -1.0759
 8926TIP3    H248270   6.811   4.531   0.251  0.9692 -0.6872  0.2366
 8927TIP3   OH248271   1.269   4.202  16.244  0.4703 -0.0572 -0.3200
 8927TIP3    H148272   1.314   4.166  16.167  0.2051  1.2082 -1.0787
 8927TIP3    H248273   1.233   4.285  16.215  1.1978  0.9367  1.4254
 8928TIP3   OH248274   6.151   6.411  15.902 -0.0965  0.0102 -0.1328
 8928TIP3    H148275   6.097   6.438  15.975  2.0452  0.4176  1.3860
 8928TIP3    H248276   6.101   6.437  15.824 -2.2375 -0.0696  1.1353
 8929TIP3   OH248277   4.640   0.080  12.441  0.1216 -0.1847  0.5400
 8929TIP3    H148278   4.691   0.034  12.374  2.1120  1.5059  0.8048
 8929TIP3    H248279   4.647   0.172  12.418  0.1420  0.3692  2.5790
 8930TIP3   OH248280   5.782   4.523  12.104  0.4749  0.3242  0.6676
 8930TIP3    H148281   5.767   4.539  12.197  0.2118  1.9808  0.3763
 8930TIP3    H248282   5.704   4.557  12.061  0.4897 -0.6539 -0.1556
 8931TIP3   OH248283   6.466   1.582   2.719 -0.5180 -0.0756 -0.1426
 8931TIP3    H148284   6.451   1.524   2.645 -0.0078  1.1175 -1.2144
 8931TIP3    H248285   6.527   1.535   2.775 -0.0537 -0.5433 -1.0258
 8932TIP3   OH248286   3.681   2.305  17.234  0.3509 -0.0664  0.1916
 8932TIP3    H148287   3.605   2.362  17.237  1.1608  1.2194 -1.7989
 8932TIP3    H248288   3.751   2.360  17.198  1.6332 -1.8312 -0.1716
 8933TIP3   OH248289   5.357   3.223   3.985  0.1523 -0.3720  0.2352
 8933TIP3    H148290   5.395   3.258   3.904 -0.5881  0.9118  0.4089
 8933TIP3    H248291   5.384   3.131   3.986  0.8023 -0.2291 -1.0901
 8934TIP3   OH248292   0.963   6.110   4.157  0.2293 -0.1998 -0.2813
 8934TIP3    H148293   0.925   6.126   4.071  1.1720  0.7577 -0.5379
 8934TIP3    H248294   1.017   6.187   4.174 -0.6303  0.0782  1.5537
 8935TIP3   OH248295   5.634   0.534   5.444  0.5176  0.4196  0.0201
 8935TIP3    H148296   5.616   0.457   5.497 -1.2147  0.7476 -0.0246
 8935TIP3    H248297   5.656   0.603   5.507  2.1192 -0.0953  0.0563
 8936TIP3   OH248298   2.203   1.684   3.642  0.9082 -0.3764 -0.0015
 8936TIP3    H148299   2.144   1.643   3.706  1.6881 -0.2025  0.8436
 8936TIP3    H248300   2.250   1.611   3.602 -0.8759 -0.6547 -1.7451
 8937TIP3   OH248301   5.354   1.627  11.306 -0.1075 -0.1043  0.0387
 8937TIP3    H148302   5.291   1.698  11.290 -0.1761  0.5402  2.6773
 8937TIP3    H248303   5.419   1.636  11.236 -0.8899  1.6532 -0.5280
 8938TIP3   OH248304   0.378   2.224  11.992  0.1963  0.4380 -0.4425
 8938TIP3    H148305   0.428   2.304  12.010  0.9095  0.2800 -1.5896
 8938TIP3    H248306   0.401   2.202  11.901  0.4649 -1.3993  0.0373
 8939TIP3   OH248307   2.698   1.450  11.732 -0.2575  0.6829 -0.1058
 8939TIP3    H148308   2.727   1.374  11.782 -0.8231  0.2800 -0.3768
 8939TIP3    H248309   2.778   1.481  11.688 -0.3765 -1.0421 -1.6714
 8940TIP3   OH248310   4.062   4.675  11.909  0.1751 -0.6298 -0.2608
 8940TIP3    H148311   3.984   4.664  11.854 -1.0172  1.6500  0.8181
 8940TIP3    H248312   4.115   4.739  11.862  0.5426 -0.8296 -0.1204
 8941TIP3   OH248313   4.252   6.094  11.779 -0.4701 -0.0739 -0.1410
 8941TIP3    H148314   4.260   6.187  11.755 -1.5757 -0.0641 -0.5346
 8941TIP3    H248315   4.341   6.067  11.798 -0.1548  1.1288  0.1870
 8942TIP3   OH248316   2.342   5.154  16.603  0.2914  0.3115 -0.6810
 8942TIP3    H148317   2.414   5.215  16.584 -0.3931  1.9162  1.4488
 8942TIP3    H248318   2.354   5.131  16.695 -1.4540 -0.0113 -0.4996
 8943TIP3   OH248319   5.228   0.595  13.414  0.2456  0.6453  0.0251
 8943TIP3    H148320   5.138   0.626  13.409 -0.0864 -0.3148 -0.0249
 8943TIP3    H248321   5.271   0.656  13.474 -0.0223  2.0605 -1.1359
 8944TIP3   OH248322   3.883   3.527   4.239  0.9210  0.0494 -0.2371
 8944TIP3    H148323   3.845   3.465   4.301  1.3696  0.3790  0.3914
 8944TIP3    H248324   3.964   3.485   4.209 -1.4826 -2.2967 -4.3347
 8945TIP3   OH248325   0.679   1.328  15.027  0.2069  0.1999  0.5673
 8945TIP3    H148326   0.647   1.401  15.079  0.1166  0.1439  0.5921
 8945TIP3    H248327   0.757   1.361  14.983  0.8310 -0.0393  1.4804
 8946TIP3   OH248328   2.577   2.533   3.575  0.9221  0.2550  0.1840
 8946TIP3    H148329   2.562   2.478   3.653  0.7783 -0.0803 -0.0739
 8946TIP3    H248330   2.672   2.538   3.566  0.9412  0.5219  0.5400
 8947TIP3   OH248331   0.650   0.789   2.672  0.4382  0.4160  0.4623
 8947TIP3    H148332   0.633   0.821   2.760  0.0189  1.0324  0.1676
 8947TIP3    H248333   0.567   0.803   2.625  0.6262  0.0150 -0.0063
 8948TIP3   OH248334   0.446   5.949  14.882  0.3704  0.1667 -0.1608
 8948TIP3    H148335   0.435   5.855  14.896  1.4652  0.3719  2.6738
 8948TIP3    H248336   0.540   5.960  14.865  0.1902  0.7364 -0.8644
 8949TIP3   OH248337   5.165   2.791  13.128 -0.0569  0.1833 -0.3993
 8949TIP3    H148338   5.254   2.819  13.150  0.1010 -1.3447  1.0991
 8949TIP3    H248339   5.110   2.829  13.196  0.0948 -2.5286  1.3541
 8950TIP3   OH248340   5.669   1.184  11.913 -0.2085  0.5016  0.7673
 8950TIP3    H148341   5.704   1.146  11.994 -0.1918  0.7006  0.8532
 8950TIP3    H248342   5.744   1.186  11.854 -0.4257 -0.4794  0.4411
 8951TIP3   OH248343   0.019   2.532   3.197  0.0121  0.0774  0.3329
 8951TIP3    H148344  -0.013   2.524   3.107  2.3256  1.2187 -0.6569
 8951TIP3    H248345  -0.038   2.598   3.236 -1.9236 -1.4211  0.2229
 8952TIP3   OH248346   2.552   3.552   2.751 -0.2298  0.5125  0.6265
 8952TIP3    H148347   2.619   3.487   2.772 -0.6862  0.7272  3.1127
 8952TIP3    H248348   2.575   3.583   2.664  0.1777 -2.7179 -0.5384
 8953TIP3   OH248349   0.260   4.815  17.023 -0.5552 -0.3144 -0.0674
 8953TIP3    H148350   0.242   4.722  17.036  2.1819 -0.8396  0.6171
 8953TIP3    H248351   0.345   4.817  16.978 -0.2267  1.8477  0.5335
 8954TIP3   OH248352   1.182   1.394  11.810  0.0849  0.3095 -0.1379
 8954TIP3    H148353   1.096   1.365  11.779  0.6827 -0.8530 -0.7509
 8954TIP3    H248354   1.190   1.356  11.897  0.7740 -1.2601 -0.8513
 8955TIP3   OH248355   3.364   0.867  13.009  0.6508  0.5381 -0.4767
 8955TIP3    H148356   3.377   0.962  12.999 -1.3276  0.9043  0.1712
 8955TIP3    H248357   3.329   0.857  13.097 -1.4790 -0.5145 -1.3815
 8956TIP3   OH248358   0.136   3.393   3.016  0.3596  0.2630  0.2343
 8956TIP3    H148359   0.168   3.317   3.064  0.1632 -0.2634 -0.4504
 8956TIP3    H248360   0.124   3.461   3.082  0.1331 -0.4366  0.9103
 8957TIP3   OH248361   5.809   1.494  11.850  0.4715 -0.8650 -0.7192
 8957TIP3    H148362   5.818   1.587  11.870 -2.1133 -0.8133  0.4990
 8957TIP3    H248363   5.874   1.452  11.906  1.0284  0.1254 -0.5959
 8958TIP3   OH248364   2.376   0.467  15.571  0.4549  0.3507  0.0172
 8958TIP3    H148365   2.463   0.443  15.603  0.1365 -1.5299 -0.3931
 8958TIP3    H248366   2.388   0.479  15.477  0.0034 -1.6273 -0.3422
 8959TIP3   OH248367   2.681   2.992  16.367  0.7546 -0.1285 -0.3104
 8959TIP3    H148368   2.708   2.929  16.300 -0.5990 -0.9068 -0.1568
 8959TIP3    H248369   2.738   2.974  16.442  0.3667 -1.2137 -0.2551
 8960TIP3   OH248370   0.563   5.167   3.318  0.0824  0.5724 -0.5609
 8960TIP3    H148371   0.490   5.135   3.372  0.4103 -0.9385 -0.9599
 8960TIP3    H248372   0.564   5.109   3.242  1.2981  0.9683 -0.8726
 8961TIP3   OH248373   0.398   3.168   5.538 -0.0223 -0.7411  0.9926
 8961TIP3    H148374   0.394   3.096   5.601  1.8509  0.1303  2.2207
 8961TIP3    H248375   0.394   3.247   5.593  2.6311  0.0586  0.2132
 8962TIP3   OH248376   1.200   4.217   0.519 -0.2182 -0.0324 -0.9092
 8962TIP3    H148377   1.238   4.161   0.586 -1.2215  0.8550  0.4439
 8962TIP3    H248378   1.231   4.180   0.436  0.6414 -1.4447  0.0137
 8963TIP3   OH248379   2.303   2.087   5.929 -0.0748  0.1961  0.0700
 8963TIP3    H148380   2.249   2.009   5.944  0.8529 -0.2338  1.4192
 8963TIP3    H248381   2.339   2.076   5.842 -0.0982 -0.7995  0.1805
 8964TIP3   OH248382   4.819   5.081   1.185 -0.2591 -0.9494  0.1204
 8964TIP3    H148383   4.817   5.054   1.093  0.0136  0.0217 -0.1831
 8964TIP3    H248384   4.814   4.999   1.234 -1.7984 -1.4191 -0.7448
 8965TIP3   OH248385   1.311   3.313  15.710  0.0553  0.0395  0.1472
 8965TIP3    H148386   1.241   3.313  15.775 -0.8694  0.4674 -0.8210
 8965TIP3    H248387   1.349   3.225  15.716 -2.0200 -0.9917 -0.8300
 8966TIP3   OH248388   6.673   3.221   3.446  0.1205  0.4196  0.8134
 8966TIP3    H148389   6.710   3.207   3.533 -0.5680  0.1325  1.0626
 8966TIP3    H248390   6.736   3.279   3.403  0.9718 -0.2191  1.1586
 8967TIP3   OH248391   5.034   6.629   0.315  0.5669  0.0354  0.1297
 8967TIP3    H148392   5.040   6.688   0.390 -0.9203  1.1044 -0.5376
 8967TIP3    H248393   5.093   6.667   0.250  0.7582 -0.0733  0.2390
 8968TIP3   OH248394   5.756   2.078   2.628  0.3627  0.3451  0.5088
 8968TIP3    H148395   5.786   2.128   2.705 -2.5198 -0.3330  2.2542
 8968TIP3    H248396   5.772   2.137   2.554  1.4221  1.8888  1.8730
 8969TIP3   OH248397   4.074   6.730   4.705  0.0974  0.1847  0.1562
 8969TIP3    H148398   4.116   6.661   4.654  0.1964  0.4002 -0.0576
 8969TIP3    H248399   4.124   6.735   4.786  1.0247  0.9998 -0.4290
 8970TIP3   OH248400   0.875   3.885  16.071  0.3882  0.5592  0.0057
 8970TIP3    H148401   0.870   3.937  16.151  0.0569 -0.2160  0.4966
 8970TIP3    H248402   0.799   3.828  16.074  1.4223 -0.8476  0.1038
 8971TIP3   OH248403   4.136   3.399   4.190  0.0076 -0.2400  0.3452
 8971TIP3    H148404   4.157   3.325   4.133  0.0725  0.1144 -0.0946
 8971TIP3    H248405   4.202   3.465   4.168 -0.1490  0.0100  0.6235
 8972TIP3   OH248406   5.206   4.618   3.263 -0.1156 -0.1763  1.1834
 8972TIP3    H148407   5.158   4.536   3.262 -2.0339  0.8713 -0.5001
 8972TIP3    H248408   5.149   4.680   3.217  2.0066  1.6602  0.8394
 8973TIP3   OH248409   2.426   2.819   0.543 -0.2330 -0.6336  0.3093
 8973TIP3    H148410   2.396   2.901   0.505 -2.5471 -1.8447 -0.6816
 8973TIP3    H248411   2.465   2.844   0.627  0.0424  1.5459 -0.4260
 8974TIP3   OH248412   1.201   2.333   2.541 -0.3136 -0.0676 -0.1629
 8974TIP3    H148413   1.141   2.398   2.504  0.7816  0.4725 -1.0742
 8974TIP3    H248414   1.192   2.257   2.483 -0.0666  0.0523 -0.3651
 8975TIP3   OH248415   6.339   6.561  14.551  0.0595 -0.6607 -0.2850
 8975TIP3    H148416   6.298   6.499  14.490  0.5985 -1.8552  0.5256
 8975TIP3    H248417   6.287   6.552  14.631  0.9660 -1.0720  0.2651
 8976TIP3   OH248418   0.938   4.744   2.969 -0.0073 -0.3168  0.2429
 8976TIP3    H148419   0.980   4.713   2.889 -1.3331  1.0685 -1.0438
 8976TIP3    H248420   1.011   4.764   3.028  1.2666  2.5048 -2.0816
 8977TIP3   OH248421   4.909   2.149  15.201  0.5035 -0.3695  0.2483
 8977TIP3    H148422   4.917   2.130  15.107  1.5222  0.1543  0.2122
 8977TIP3    H248423   4.904   2.063  15.242 -0.0048 -0.6047 -0.2855
 8978TIP3   OH248424   2.700   1.111  15.330  0.0489  0.6184 -0.0437
 8978TIP3    H148425   2.698   1.166  15.251  0.9899 -1.3146 -1.4817
 8978TIP3    H248426   2.611   1.075  15.336  0.2419 -0.0100 -0.8227
 8979TIP3   OH248427   3.002   6.043  13.826 -0.7266  0.0393 -0.3391
 8979TIP3    H148428   3.011   5.951  13.802  0.7470  0.2810 -0.8022
 8979TIP3    H248429   2.916   6.068  13.792 -2.1810 -1.7051  1.7392
 8980TIP3   OH248430   2.432   0.611  12.888 -0.4166  0.5978  0.1701
 8980TIP3    H148431   2.409   0.699  12.916  1.8911  1.4055 -0.2874
 8980TIP3    H248432   2.525   0.615  12.868 -0.5074 -1.6365 -1.0784
 8981TIP3   OH248433   1.026   3.013  17.399 -0.2638  0.6450  0.8929
 8981TIP3    H148434   1.056   3.096  17.361  0.9784  0.1045  0.6684
 8981TIP3    H248435   1.065   2.946  17.343 -2.6332 -0.1095  0.0088
 8982TIP3   OH248436   5.762   3.989  15.282  0.1634  0.0360 -0.1160
 8982TIP3    H148437   5.686   4.030  15.324 -0.4562  0.1335 -1.3142
 8982TIP3    H248438   5.837   4.031  15.324 -0.4478  0.8446  0.2097
 8983TIP3   OH248439   0.351   5.411  13.456  0.0950  0.0059  0.5711
 8983TIP3    H148440   0.400   5.382  13.379  2.0542  0.3201  1.6490
 8983TIP3    H248441   0.364   5.342  13.521 -0.4788  0.3421  1.0569
 8984TIP3   OH248442   5.690   1.086  14.878 -0.4856 -0.0152  0.2483
 8984TIP3    H148443   5.774   1.085  14.831 -0.2765 -0.3564  0.6142
 8984TIP3    H248444   5.630   1.039  14.820 -1.1508  2.5488 -1.2578
 8985TIP3   OH248445   6.093   0.750   3.883 -0.0235  0.5155 -0.2408
 8985TIP3    H148446   6.149   0.675   3.899  2.4378  2.2000 -0.3970
 8985TIP3    H248447   6.014   0.713   3.844  0.1342 -2.1609  1.7224
 8986TIP3   OH248448   6.370   3.011   6.049 -0.2121  0.1892  0.2420
 8986TIP3    H148449   6.365   3.104   6.029  1.1026  0.1198 -0.5207
 8986TIP3    H248450   6.456   3.000   6.090 -0.4786 -0.6386  0.6010
 8987TIP3   OH248451   6.566   1.583  16.048 -0.0853  0.2439  0.2881
 8987TIP3    H148452   6.585   1.577  16.142  0.5577 -1.6775  0.0757
 8987TIP3    H248453   6.554   1.492  16.020 -1.2926  0.8432 -1.3124
 8988TIP3   OH248454   6.630   1.217  16.682 -0.2357  0.1103 -0.5364
 8988TIP3    H148455   6.562   1.284  16.677  0.6068  0.9788 -0.5737
 8988TIP3    H248456   6.587   1.137  16.651 -1.1022  0.7537 -1.0352
 8989TIP3   OH248457   0.502   1.136   3.547 -0.4289  0.3148  0.1518
 8989TIP3    H148458   0.464   1.212   3.503 -0.0109  1.5727  1.8681
 8989TIP3    H248459   0.465   1.137   3.635 -0.1820 -1.3223  0.3220
 8990TIP3   OH248460   5.989   2.960  12.510 -0.2165 -0.2033  0.4995
 8990TIP3    H148461   6.015   3.050  12.486  0.6915 -0.3019  1.0585
 8990TIP3    H248462   5.946   2.926  12.431  1.8279 -0.1836 -0.6954
 8991TIP3   OH248463   6.341   3.613  15.252  0.1960  0.3594  0.2192
 8991TIP3    H148464   6.312   3.671  15.181 -0.3426  0.8306  0.8175
 8991TIP3    H248465   6.264   3.561  15.274  0.6628 -0.5765 -0.2821
 8992TIP3   OH248466   0.401   6.168  17.446  0.5999 -0.2138  0.1336
 8992TIP3    H148467   0.366   6.083  17.420  0.0365 -0.3681  1.3115
 8992TIP3    H248468   0.404   6.164  17.542 -0.5747  1.5233  0.2890
 8993TIP3   OH248469   5.588   3.123   2.025  0.3327  0.7305 -0.2436
 8993TIP3    H148470   5.605   3.207   1.982  1.4833  0.6367 -0.0295
 8993TIP3    H248471   5.675   3.095   2.056  0.0943 -0.9199 -0.9959
 8994TIP3   OH248472   0.687   3.588   1.722 -0.6339 -0.9083  0.3424
 8994TIP3    H148473   0.636   3.663   1.692 -1.1964 -1.0998  0.8055
 8994TIP3    H248474   0.750   3.573   1.651 -0.2699  0.2162  0.4000
 8995TIP3   OH248475   5.843   1.253  13.673 -0.0702  0.1231  0.0260
 8995TIP3    H148476   5.817   1.321  13.611  2.9701  0.3774 -1.1397
 8995TIP3    H248477   5.833   1.171  13.623  0.8289  0.1875 -0.2839
 8996TIP3   OH248478   3.954   6.260   3.837 -0.4924  0.0308 -0.2015
 8996TIP3    H148479   3.909   6.266   3.753  1.6698 -0.5071 -1.4778
 8996TIP3    H248480   3.886   6.233   3.899 -2.5831  2.3360 -1.3219
 8997TIP3   OH248481   1.444   5.296   5.167 -0.0916  0.0418 -0.6610
 8997TIP3    H148482   1.415   5.357   5.099  0.1873 -1.1623 -1.8860
 8997TIP3    H248483   1.406   5.212   5.143  0.4504 -0.5284  0.3816
 8998TIP3   OH248484   3.188   5.612   4.079 -0.1107  0.1868 -0.5180
 8998TIP3    H148485   3.213   5.692   4.034  0.3126  1.3118  1.5987
 8998TIP3    H248486   3.110   5.636   4.130  1.1154 -0.1290  1.6442
 8999TIP3   OH248487   6.347   3.556   2.542 -0.1198 -0.3531 -0.0367
 8999TIP3    H148488   6.414   3.537   2.477  0.0118 -0.7563  0.2080
 8999TIP3    H248489   6.268   3.516   2.508 -0.2637  0.2109 -0.3746
 9000TIP3   OH248490   4.878   1.319   1.745  0.0157  0.2681 -0.3287
 9000TIP3    H148491   4.827   1.398   1.729 -0.5175 -0.2161 -1.1331
 9000TIP3    H248492   4.882   1.276   1.659 -1.1427 -1.4210  0.4244
 9001TIP3   OH248493   5.133   6.518   4.578 -0.3103 -0.0040  0.4201
 9001TIP3    H148494   5.051   6.498   4.532  1.3657 -1.8377 -2.0946
 9001TIP3    H248495   5.160   6.603   4.543 -0.2658 -0.2470 -0.1482
 9002TIP3   OH248496   3.533   4.449   5.522 -0.0319  0.0837  0.3431
 9002TIP3    H148497   3.553   4.497   5.442  0.4338 -1.0065 -0.2051
 9002TIP3    H248498   3.472   4.380   5.495 -1.3359  0.8100  1.2627
 9003TIP3   OH248499   1.091   2.577  12.191  0.8094  0.2930 -0.5047
 9003TIP3    H148500   1.124   2.663  12.217  0.2819  0.2280  0.4170
 9003TIP3    H248501   1.167   2.520  12.195  0.8816  0.4267  0.2967
 9004TIP3   OH248502   0.546   4.541  11.183 -0.0927  0.3448  0.8203
 9004TIP3    H148503   0.610   4.469  11.185 -0.6708 -0.1810  0.6809
 9004TIP3    H248504   0.506   4.539  11.270  0.3099  0.8903  1.0220
 9005TIP3   OH248505   2.602   1.010   0.686 -0.1768  0.2817  0.0471
 9005TIP3    H148506   2.602   1.016   0.782 -3.3554  2.1265  0.0752
 9005TIP3    H248507   2.574   0.921   0.667  0.2810 -0.0380  0.8104
 9006TIP3   OH248508   0.710   4.959  16.227 -0.9496  0.4298 -0.1455
 9006TIP3    H148509   0.642   4.903  16.190  0.1519  0.2297 -2.0025
 9006TIP3    H248510   0.696   5.045  16.187  0.4871  0.1183 -1.4458
 9007TIP3   OH248511   4.497   2.513  11.962  0.2534  0.3629 -0.3443
 9007TIP3    H148512   4.541   2.507  11.878  2.3531  1.3138  0.6099
 9007TIP3    H248513   4.480   2.423  11.988  1.1406 -0.0044 -1.0189
 9008TIP3   OH248514   3.561   0.399   3.821 -0.0918 -0.2468  0.2713
 9008TIP3    H148515   3.621   0.474   3.816  0.4921 -0.7946 -1.5015
 9008TIP3    H248516   3.559   0.376   3.914  1.1249  0.8385  0.5929
 9009TIP3   OH248517   6.217   1.309   4.619 -0.3849 -0.4434  0.1535
 9009TIP3    H148518   6.261   1.264   4.691  0.3882  1.2178  0.7860
 9009TIP3    H248519   6.288   1.337   4.562 -0.9424 -1.0682 -0.8639
 9010TIP3   OH248520   2.227   5.898  16.345  0.1652 -0.1482 -0.5517
 9010TIP3    H148521   2.193   5.949  16.271 -1.2241  2.1029  1.4729
 9010TIP3    H248522   2.311   5.864  16.314  1.1290  3.2759 -2.1968
 9011TIP3   OH248523   2.122   4.571  13.203  0.2482 -0.2140  0.0059
 9011TIP3    H148524   2.162   4.486  13.183  0.0581 -0.2288 -0.3218
 9011TIP3    H248525   2.071   4.555  13.282  0.3501 -0.3639  0.0415
 9012TIP3   OH248526   0.848   3.258   5.342  0.2996  0.5615  0.0570
 9012TIP3    H148527   0.769   3.204   5.337 -0.1726  1.0743  1.3902
 9012TIP3    H248528   0.832   3.316   5.417  2.4452 -0.1499  1.1298
 9013TIP3   OH248529   5.787   0.564   5.705  0.1437  0.1254 -0.7512
 9013TIP3    H148530   5.810   0.630   5.770  2.7941  0.6725 -2.0965
 9013TIP3    H248531   5.852   0.575   5.636 -1.6712 -1.3879 -2.8385
 9014TIP3   OH248532   1.467   2.283  16.907  0.1544  0.2326  0.0897
 9014TIP3    H148533   1.391   2.274  16.849  0.4116  2.0164 -0.5965
 9014TIP3    H248534   1.542   2.287  16.848  0.6678 -0.3120  0.6962
 9015TIP3   OH248535   4.449   6.681   3.674 -0.6226  0.1111  0.6014
 9015TIP3    H148536   4.508   6.614   3.707  0.2260  1.0480  1.0593
 9015TIP3    H248537   4.446   6.747   3.743 -2.2009  0.1125  0.5732
 9016TIP3   OH248538   4.509   2.837   2.989  0.3148 -0.4180 -0.0276
 9016TIP3    H148539   4.466   2.798   3.065 -1.1130  2.4363  0.7332
 9016TIP3    H248540   4.438   2.856   2.928  0.8121  1.6894 -0.0097
 9017TIP3   OH248541   1.352   2.983  16.611  0.1227  0.1526 -0.1353
 9017TIP3    H148542   1.401   3.025  16.541 -0.1702  0.9515  0.1305
 9017TIP3    H248543   1.284   3.046  16.635 -0.0061 -0.2520  0.6204
 9018TIP3   OH248544   2.662   2.864   3.751  0.2479 -0.2776 -0.1002
 9018TIP3    H148545   2.657   2.919   3.673  3.1619 -0.6669 -0.6908
 9018TIP3    H248546   2.575   2.870   3.791 -0.1821  3.0394 -1.2350
 9019TIP3   OH248547   1.665   5.339   2.929 -0.0143 -0.2476  0.0490
 9019TIP3    H148548   1.650   5.266   2.989 -1.3876 -1.2345 -1.4069
 9019TIP3    H248549   1.580   5.354   2.886  0.5173  1.4661 -0.5122
 9020TIP3   OH248550   2.973   1.496  15.931 -0.1903 -0.0664  0.1548
 9020TIP3    H148551   3.036   1.440  15.976  0.7173  1.4530  0.8637
 9020TIP3    H248552   3.013   1.514  15.846  0.0052  0.3357  0.3308
 9021TIP3   OH248553   5.930   1.014  14.611 -0.0794  0.4453 -0.0893
 9021TIP3    H148554   5.956   1.008  14.519  1.1914 -1.8322  0.3315
 9021TIP3    H248555   6.006   1.051  14.655  0.6567 -1.5717  0.4497
 9022TIP3   OH248556   5.018   4.423  15.303 -0.1145  0.2267 -0.2725
 9022TIP3    H148557   5.081   4.409  15.374  1.0358  1.2116 -1.0459
 9022TIP3    H248558   5.030   4.515  15.278 -2.0615  0.5192 -0.2973
 9023TIP3   OH248559   0.487   5.714  12.714  0.1902  0.0186 -0.9582
 9023TIP3    H148560   0.480   5.809  12.711 -1.0418 -0.0146  0.0649
 9023TIP3    H248561   0.566   5.698  12.767  0.1159  0.4740 -0.7053
 9024TIP3   OH248562   3.228   1.634  13.589  0.6165  0.2717  0.6320
 9024TIP3    H148563   3.280   1.590  13.656 -0.1207 -0.9925  0.4079
 9024TIP3    H248564   3.212   1.567  13.523  1.2500  1.4580 -0.8035
 9025TIP3   OH248565   6.016   3.241   4.521 -0.6304 -0.6970  0.3559
 9025TIP3    H148566   5.976   3.207   4.601 -2.2450 -0.9969 -0.5303
 9025TIP3    H248567   5.957   3.211   4.451  0.9208 -0.7392 -0.9753
 9026TIP3   OH248568   0.268   2.862   0.440  0.2555  0.0501  0.1955
 9026TIP3    H148569   0.239   2.789   0.385 -0.4350 -1.2768  2.2064
 9026TIP3    H248570   0.304   2.925   0.379 -2.1340 -0.5144 -1.9805
 9027TIP3   OH248571   1.998   5.339   2.761  0.3104 -0.1774 -0.5113
 9027TIP3    H148572   1.918   5.378   2.726  0.5850  1.2830  0.3930
 9027TIP3    H248573   1.971   5.254   2.796 -1.1228  0.8234  0.9371
 9028TIP3   OH248574   1.940   6.630  12.859  0.6656 -0.2202 -0.0832
 9028TIP3    H148575   1.896   6.577  12.925  2.2512 -0.8634  0.4914
 9028TIP3    H248576   1.917   6.721  12.882 -1.3099 -0.5555 -0.5347
 9029TIP3   OH248577   4.167   2.451  15.852 -0.1861  0.1551 -0.1439
 9029TIP3    H148578   4.209   2.483  15.772 -3.0771  2.1663 -1.0206
 9029TIP3    H248579   4.073   2.453  15.832 -1.0258  0.6960  3.2702
 9030TIP3   OH248580   3.000   2.918   6.164  0.2528  0.6054 -0.0297
 9030TIP3    H148581   3.039   2.867   6.235  0.5239  1.1319  0.2046
 9030TIP3    H248582   2.912   2.938   6.194  0.5866  1.3915  0.4551
 9031TIP3   OH248583   5.429   4.843  15.150  0.6589  0.2884 -1.0210
 9031TIP3    H148584   5.412   4.831  15.057  1.1333  0.9370 -1.2016
 9031TIP3    H248585   5.501   4.784  15.170 -0.2904 -0.8039 -0.7651
 9032TIP3   OH248586   4.369   5.762  16.193  0.4796 -0.1538  0.5387
 9032TIP3    H148587   4.370   5.713  16.276  2.3856  1.4918  1.5910
 9032TIP3    H248588   4.346   5.697  16.127 -0.2237 -1.7312  2.2374
 9033TIP3   OH248589   3.078   4.549  12.642  0.3450 -0.0142 -0.4803
 9033TIP3    H148590   3.090   4.596  12.725 -0.3432  2.0450 -1.4838
 9033TIP3    H248591   3.161   4.505  12.627  0.1443 -1.3937  1.8165
 9034TIP3   OH248592   3.921   5.225   5.579 -0.4391  0.6634 -0.3890
 9034TIP3    H148593   3.950   5.244   5.668 -0.3131 -1.8701  0.1899
 9034TIP3    H248594   3.832   5.192   5.589 -1.3734  2.6367 -1.5232
 9035TIP3   OH248595   2.688   5.635  13.812  0.3014  0.4724  0.5957
 9035TIP3    H148596   2.745   5.559  13.817  1.4688  1.1993 -0.7284
 9035TIP3    H248597   2.632   5.629  13.889 -0.0889 -2.0524  0.2001
 9036TIP3   OH248598   5.051   0.475  14.427  0.2962 -0.4236  0.0466
 9036TIP3    H148599   5.048   0.551  14.368  1.7190  0.3346  0.8923
 9036TIP3    H248600   4.967   0.432  14.414  0.1295  0.3409 -1.7075
 9037TIP3   OH248601   3.691   6.090  11.580 -0.2588 -0.0097 -0.0449
 9037TIP3    H148602   3.742   6.160  11.620  0.8648 -0.5450 -0.4989
 9037TIP3    H248603   3.634   6.135  11.517 -0.7135  0.6417  0.8119
 9038TIP3   OH248604   1.388   2.700  15.764  0.1994 -0.4907  0.4160
 9038TIP3    H148605   1.360   2.677  15.853  1.1983  1.9192  1.4238
 9038TIP3    H248606   1.476   2.735  15.775 -0.1144  0.9878 -1.3659
 9039TIP3   OH248607   3.599   5.486  12.616 -0.6261 -0.5136  0.5106
 9039TIP3    H148608   3.670   5.550  12.617  0.0506 -1.0322 -2.6995
 9039TIP3    H248609   3.519   5.538  12.611 -0.1864  0.1002 -0.3605
 9040TIP3   OH248610   5.303   0.135  12.723 -0.1972  0.6962  0.1073
 9040TIP3    H148611   5.214   0.168  12.733 -0.0851  0.6583  1.5300
 9040TIP3    H248612   5.344   0.151  12.808  0.7752 -0.3748 -0.1281
 9041TIP3   OH248613   5.243   3.981  16.740 -0.2684  0.2644 -0.1355
 9041TIP3    H148614   5.308   3.981  16.669 -0.8352 -0.2839 -0.6714
 9041TIP3    H248615   5.175   3.922  16.709 -0.0803 -0.7406  1.3005
 9042TIP3   OH248616   0.659   0.529  12.762 -0.1851 -0.0553  0.1250
 9042TIP3    H148617   0.710   0.569  12.834 -0.9075 -0.4215  0.8475
 9042TIP3    H248618   0.702   0.445  12.746 -0.2261 -0.1225  0.3620
 9043TIP3   OH248619   0.409   1.504  12.107  0.6111 -0.2436  0.0234
 9043TIP3    H148620   0.425   1.482  12.015  2.1857  1.6539 -0.2290
 9043TIP3    H248621   0.495   1.530  12.141 -0.3920  1.8315  1.2065
 9044TIP3   OH248622   5.693   6.575  17.016  0.1551 -0.1235  0.2633
 9044TIP3    H148623   5.703   6.498  16.960  0.1379  0.3286 -0.3703
 9044TIP3    H248624   5.725   6.546  17.102 -0.8735 -1.1753  0.3285
 9045TIP3   OH248625   2.719   0.677  14.548 -0.2309  0.4865  0.1152
 9045TIP3    H148626   2.806   0.705  14.576  1.3186 -0.4570 -3.1801
 9045TIP3    H248627   2.668   0.670  14.629  3.0815 -0.0776  2.3485
 9046TIP3   OH248628   2.687   1.610   6.265 -0.3462  0.5501 -0.4693
 9046TIP3    H148629   2.764   1.611   6.323 -0.3413  2.5981 -0.4427
 9046TIP3    H248630   2.723   1.604   6.177 -0.3273 -1.8213 -0.3627
 9047TIP3   OH248631   3.454   3.313   5.035 -0.6711 -0.2199  0.0068
 9047TIP3    H148632   3.465   3.376   5.106  0.5504  2.7753 -2.5937
 9047TIP3    H248633   3.508   3.239   5.061  0.5957  1.1959  1.7264
 9048TIP3   OH248634   1.759   5.572  12.872  0.1580  0.4265 -0.4764
 9048TIP3    H148635   1.838   5.526  12.846 -1.4239 -1.9635 -1.3213
 9048TIP3    H248636   1.698   5.504  12.900 -1.5654  2.1872  0.3893
 9049TIP3   OH248637   1.856   4.903   1.611 -0.6198  0.3627  0.2617
 9049TIP3    H148638   1.907   4.828   1.641 -0.0984  0.7319  0.3114
 9049TIP3    H248639   1.786   4.912   1.676 -2.1252 -1.5157 -1.0021
 9050TIP3   OH248640   6.450   3.265   4.682  0.1984 -0.1825 -0.1051
 9050TIP3    H148641   6.542   3.241   4.681  1.0564  2.7608 -1.2192
 9050TIP3    H248642   6.439   3.316   4.763  0.1095  1.2147 -0.9631
 9051TIP3   OH248643   3.911   3.543  16.047 -0.1891 -0.1380  0.3744
 9051TIP3    H148644   3.871   3.485  16.112  1.5373 -0.5846  1.1044
 9051TIP3    H248645   3.999   3.560  16.081 -0.0817  1.6073 -0.6503
 9052TIP3   OH248646   3.806   1.803   5.034 -0.1730  0.2962  0.2107
 9052TIP3    H148647   3.868   1.732   5.051  1.0347  1.7400  2.2105
 9052TIP3    H248648   3.745   1.800   5.107 -1.6308 -0.1512 -0.9645
 9053TIP3   OH248649   6.702   0.968  15.178 -0.3793  0.3316 -0.3357
 9053TIP3    H148650   6.614   0.973  15.213 -0.8247  0.0214 -1.3583
 9053TIP3    H248651   6.709   1.044  15.120 -0.0656  0.2236 -0.4434
 9054TIP3   OH248652   5.779   3.502   3.415  0.2892 -0.3434 -0.2438
 9054TIP3    H148653   5.710   3.460   3.363 -0.2439 -0.1758  0.3028
 9054TIP3    H248654   5.734   3.576   3.457  0.6692 -0.5599  0.5539
 9055TIP3   OH248655   2.394   4.013  11.949  0.0924 -0.0940  0.6668
 9055TIP3    H148656   2.312   3.994  11.903  0.6034  0.5397 -0.5515
 9055TIP3    H248657   2.406   4.107  11.939  0.4178 -0.0037  1.8000
 9056TIP3   OH248658   2.638   4.323  15.132  0.0026 -0.7651  0.0439
 9056TIP3    H148659   2.680   4.399  15.172 -0.3234 -0.3414 -0.4113
 9056TIP3    H248660   2.587   4.284  15.204 -1.4581  0.6244 -0.1852
 9057TIP3   OH248661   1.209   6.090   2.921  0.1083  0.0967  0.3534
 9057TIP3    H148662   1.161   6.045   2.991  1.1231  1.1131  1.7530
 9057TIP3    H248663   1.301   6.078   2.943  0.4896 -0.1962 -1.2476
 9058TIP3   OH248664   2.746   1.224   2.573 -0.1902  0.4514 -0.1021
 9058TIP3    H148665   2.824   1.252   2.524  2.1969 -1.2236  2.3941
 9058TIP3    H248666   2.731   1.294   2.637  1.1180 -0.4340  1.2463
 9059TIP3   OH248667   1.436   6.740  11.968 -0.2783  0.2556 -0.1225
 9059TIP3    H148668   1.443   6.682  11.892  1.3356 -0.1880  0.3141
 9059TIP3    H248669   1.413   6.825  11.931 -4.1048 -0.8363 -0.6620
 9060TIP3   OH248670   3.695   1.866   5.280 -0.3463 -0.4432  0.4251
 9060TIP3    H148671   3.643   1.937   5.242 -0.1164  0.9532  2.5465
 9060TIP3    H248672   3.736   1.905   5.357  2.4558 -1.9658 -0.1414
 9061TIP3   OH248673   1.642   1.865  15.528 -0.3272  0.2555  0.8077
 9061TIP3    H148674   1.697   1.794  15.560 -0.4416 -0.4772 -0.5545
 9061TIP3    H248675   1.703   1.936  15.509 -0.1432  0.3214  1.6215
 9062TIP3   OH248676   1.722   3.649  15.507 -0.4620 -0.3087 -0.1222
 9062TIP3    H148677   1.735   3.694  15.590  1.2027 -0.0609 -0.4712
 9062TIP3    H248678   1.798   3.592  15.499 -0.8412 -0.6805 -1.2526
 9063TIP3   OH248679   0.483   4.518   0.969 -0.4307 -0.8453 -0.8939
 9063TIP3    H148680   0.470   4.482   0.881  1.3195  1.4718 -2.2486
 9063TIP3    H248681   0.578   4.520   0.980 -0.5307  1.1150  0.0260
 9064TIP3   OH248682   5.259   1.756  13.762 -0.4523  0.0231  0.3243
 9064TIP3    H148683   5.174   1.801  13.757  0.2812  1.4530  0.1150
 9064TIP3    H248684   5.241   1.667  13.731 -1.6863  0.5829 -0.6639
 9065TIP3   OH248685   6.571   6.345  14.492 -0.4285  0.0797 -0.4975
 9065TIP3    H148686   6.495   6.291  14.514  0.2118 -0.8215 -0.4482
 9065TIP3    H248687   6.602   6.378  14.576  0.4056 -1.1748 -0.2816
 9066TIP3   OH248688   5.824   2.510   4.189 -0.1221  0.2197  0.1302
 9066TIP3    H148689   5.918   2.505   4.208 -0.6190  0.9986  3.4792
 9066TIP3    H248690   5.799   2.420   4.167  1.2761 -0.1072 -0.2070
 9067TIP3   OH248691   1.002   3.322  13.680  0.3318  0.4277 -0.2871
 9067TIP3    H148692   0.950   3.350  13.605  0.7605  1.3842 -0.2397
 9067TIP3    H248693   1.086   3.296  13.642 -0.2725 -1.5016 -0.4120
 9068TIP3   OH248694   5.309   4.189  16.897 -0.1900 -0.5652  0.7253
 9068TIP3    H148695   5.298   4.147  16.983 -0.5309  1.8222  1.9127
 9068TIP3    H248696   5.269   4.127  16.836 -0.5103 -2.0464  2.3441
 9069TIP3   OH248697   2.734   0.699   5.441  0.3286 -0.6929 -0.3661
 9069TIP3    H148698   2.679   0.656   5.376 -1.2775 -0.2133  0.6014
 9069TIP3    H248699   2.786   0.762   5.391 -1.2113  0.0019 -1.1441
 9070TIP3   OH248700   2.527   4.759   4.953  0.3708  0.0881  0.0587
 9070TIP3    H148701   2.564   4.729   5.036  0.6544 -0.1422 -0.1514
 9070TIP3    H248702   2.465   4.691   4.929 -1.2049  1.0889  1.0744
 9071TIP3   OH248703   4.423   4.392   6.242 -0.1790 -0.0492 -0.2578
 9071TIP3    H148704   4.360   4.359   6.306 -2.4656  0.2293 -2.2186
 9071TIP3    H248705   4.374   4.396   6.160  2.2177  0.9259 -1.7570
 9072TIP3   OH248706   5.642   1.074  12.168 -0.0500 -0.4727  0.0631
 9072TIP3    H148707   5.669   1.089  12.259  0.6345  1.7443 -0.4425
 9072TIP3    H248708   5.564   1.020  12.175 -0.4512  0.2609  2.0280
 9073TIP3   OH248709   6.677   6.776   5.693  0.2731 -0.4600  0.7431
 9073TIP3    H148710   6.739   6.836   5.734  0.4449  0.2652 -0.5304
 9073TIP3    H248711   6.679   6.799   5.600 -0.0394 -2.0951  0.2961
 9074TIP3   OH248712   2.910   5.706  17.086 -0.0914 -0.4880  0.1610
 9074TIP3    H148713   2.862   5.657  17.019 -0.3597 -2.3995  1.6652
 9074TIP3    H248714   3.000   5.707  17.054 -0.2821 -1.0137 -0.4225
 9075TIP3   OH248715   3.984   4.889   1.018 -0.7567 -0.2517  0.5605
 9075TIP3    H148716   4.003   4.858   1.107 -0.2619  0.0199  0.5530
 9075TIP3    H248717   3.982   4.810   0.965 -1.5984 -0.4699  0.9072
 9076TIP3   OH248718   6.342   1.373   5.743 -0.4632  0.1182 -0.5015
 9076TIP3    H148719   6.422   1.339   5.702 -1.0659 -0.7276 -1.0378
 9076TIP3    H248720   6.273   1.352   5.679 -1.3508 -0.7224  0.6829
 9077TIP3   OH248721   0.018   0.533   5.822  0.2796  0.3353 -0.1209
 9077TIP3    H148722  -0.054   0.470   5.822  0.5106  0.0693  0.2417
 9077TIP3    H248723   0.078   0.501   5.754  0.1565  0.4405 -0.2789
 9078TIP3   OH248724   4.234   3.991  12.478 -0.1017  0.2989  0.1679
 9078TIP3    H148725   4.184   4.070  12.499 -0.2957 -0.1133  1.3481
 9078TIP3    H248726   4.317   4.024  12.443 -1.4665  1.0018 -2.7052
 9079TIP3   OH248727   3.674   5.602   4.884  0.1016  1.1055 -0.0314
 9079TIP3    H148728   3.673   5.671   4.950  2.7118  1.6894 -0.5118
 9079TIP3    H248729   3.766   5.577   4.875 -0.6212 -1.8677 -0.5085
 9080TIP3   OH248730   4.284   2.541  11.602  0.2315  0.0314 -0.6317
 9080TIP3    H148731   4.247   2.494  11.527 -1.2481 -1.9164  1.1720
 9080TIP3    H248732   4.364   2.494  11.623  0.7029  0.6428 -1.0394
 9081TIP3   OH248733   0.779   3.761  14.235 -0.2696  0.0436  0.1496
 9081TIP3    H148734   0.754   3.831  14.176  1.1773  0.2243 -0.2915
 9081TIP3    H248735   0.829   3.700  14.181  0.7422  0.0174  1.0786
 9082TIP3   OH248736   2.482   1.931   4.283  0.0186 -0.3654  0.8616
 9082TIP3    H148737   2.466   1.937   4.378 -1.4216 -0.7523  0.6655
 9082TIP3    H248738   2.577   1.921   4.276  0.0436 -1.5965  2.3477
 9083TIP3   OH248739   0.885   1.077   2.790 -0.3955 -0.4209  0.2138
 9083TIP3    H148740   0.903   1.025   2.712  0.1631 -0.5404  0.4177
 9083TIP3    H248741   0.813   1.031   2.834 -1.9981  0.6409 -1.1622
 9084TIP3   OH248742   4.757   0.068   0.546  0.4178 -0.3320 -0.4767
 9084TIP3    H148743   4.711   0.117   0.478  1.0482  1.3078  0.2206
 9084TIP3    H248744   4.692   0.057   0.615  0.2457 -0.5691 -0.6744
 9085TIP3   OH248745   1.388   3.718  13.946 -0.2779 -0.0134  0.5161
 9085TIP3    H148746   1.387   3.636  13.996  0.3599  0.7142  1.7785
 9085TIP3    H248747   1.356   3.693  13.859  0.9169 -1.8096  0.5241
 9086TIP3   OH248748   1.373   3.515  12.114 -0.9547 -0.1209  0.9359
 9086TIP3    H148749   1.433   3.467  12.172 -0.4315 -0.2615  0.2883
 9086TIP3    H248750   1.311   3.449  12.083  0.8165 -0.8572 -1.3692
 9087TIP3   OH248751   6.656   6.330   3.390  0.1219 -1.0684  0.1637
 9087TIP3    H148752   6.740   6.371   3.412 -0.3540 -0.3683  0.7267
 9087TIP3    H248753   6.676   6.237   3.381  0.8497 -0.9991  0.9316
 9088TIP3   OH248754   3.458   5.004  14.927 -0.4130  0.1514 -0.0572
 9088TIP3    H148755   3.424   5.015  14.838 -0.5958  1.6090  0.1615
 9088TIP3    H248756   3.506   5.085  14.945  2.1290 -1.3066  0.1433
 9089TIP3   OH248757   0.775   4.641  10.606  0.2256  0.2528  0.0822
 9089TIP3    H148758   0.707   4.651  10.673 -0.1316  1.6333 -0.4478
 9089TIP3    H248759   0.752   4.560  10.561  0.8417 -1.0451  2.0037
 9090TIP3   OH248760   3.485   1.868  17.107 -0.1677 -0.5002 -0.2807
 9090TIP3    H148761   3.579   1.868  17.120 -0.0963 -1.2130 -0.7414
 9090TIP3    H248762   3.470   1.808  17.034 -1.0383 -1.0318  0.3080
 9091TIP3   OH248763   1.124   6.200  17.205 -0.5979 -0.0894  0.0152
 9091TIP3    H148764   1.120   6.282  17.156  0.2620 -2.2686 -4.2032
 9091TIP3    H248765   1.036   6.163  17.198 -0.6765 -0.0926  0.8817
 9092TIP3   OH248766   1.033   4.701  15.589 -0.0294 -0.4313  0.0144
 9092TIP3    H148767   1.020   4.683  15.495  0.0271 -0.0174 -0.0751
 9092TIP3    H248768   1.084   4.781  15.591  1.1372 -1.1654  0.3911
 9093TIP3   OH248769   0.205   0.256  15.479 -0.0665 -0.1147 -0.5428
 9093TIP3    H148770   0.272   0.188  15.475 -0.2047 -0.1961 -2.0458
 9093TIP3    H248771   0.250   0.332  15.517  0.8741 -0.1836 -1.4706
 9094TIP3   OH248772   0.274   0.982  14.792 -0.1673 -0.9403 -0.7886
 9094TIP3    H148773   0.309   1.046  14.853 -0.0047 -0.5688 -1.2704
 9094TIP3    H248774   0.281   0.898  14.838 -2.5077 -0.3710  0.7822
 9095TIP3   OH248775   6.555   3.382   1.596 -0.1475 -0.7928 -0.2388
 9095TIP3    H148776   6.544   3.364   1.689 -0.7783 -1.5083 -0.4364
 9095TIP3    H248777   6.484   3.332   1.554  1.3574 -2.1842 -1.2551
 9096TIP3   OH248778   3.461   3.377   0.421 -0.2705 -0.4009 -0.2300
 9096TIP3    H148779   3.418   3.448   0.468  1.3234 -0.1663  0.9775
 9096TIP3    H248780   3.553   3.404   0.417  0.2137 -1.9934 -0.5139
 9097TIP3   OH248781   6.448   4.027  13.545 -0.2889 -0.4046  0.0288
 9097TIP3    H148782   6.406   4.045  13.629 -0.6802  1.2680 -0.4661
 9097TIP3    H248783   6.538   4.059  13.556 -0.2904 -0.3485 -0.1146
 9098TIP3   OH248784   5.774   0.893  14.073  0.0730 -0.6481 -0.4015
 9098TIP3    H148785   5.683   0.888  14.043 -0.4367  1.1783  0.6630
 9098TIP3    H248786   5.822   0.920  13.995 -0.3908 -1.0923 -0.8498
 9099TIP3   OH248787   4.788   5.750  11.712  0.0489  0.2272  0.6032
 9099TIP3    H148788   4.778   5.821  11.776  1.9423  1.4881 -0.3727
 9099TIP3    H248789   4.839   5.684  11.759 -0.7866 -0.0086  1.1890
 9100TIP3   OH248790   6.730   5.829   0.015  0.9705  0.8733  0.4215
 9100TIP3    H148791   6.812   5.813   0.060  1.3825 -1.0052 -0.8888
 9100TIP3    H248792   6.687   5.744   0.012 -0.9523  1.7724  0.8921
 9101TIP3   OH248793   3.471   5.124  11.838  0.1118 -0.1910 -0.2880
 9101TIP3    H148794   3.528   5.156  11.909 -0.8554 -0.4970  0.6524
 9101TIP3    H248795   3.523   5.137  11.759  1.7979 -1.1274  0.5951
 9102TIP3   OH248796   5.447   2.802  14.131  0.4798  0.1453 -0.1098
 9102TIP3    H148797   5.452   2.758  14.045  2.9264 -0.1524  0.0899
 9102TIP3    H248798   5.465   2.732  14.194  0.9563  0.7793  0.4686
 9103TIP3   OH248799   2.273   5.095   5.313 -0.0490 -0.3169 -0.2526
 9103TIP3    H148800   2.357   5.101   5.359 -0.0987  2.6166 -0.3616
 9103TIP3    H248801   2.293   5.118   5.223 -1.0782  1.5057 -0.0620
 9104TIP3   OH248802   0.689   1.499   3.169 -0.1748 -0.6473 -0.5923
 9104TIP3    H148803   0.716   1.518   3.259 -0.5755  1.3104 -0.8352
 9104TIP3    H248804   0.630   1.424   3.177 -0.9508  0.0783  0.9072
 9105TIP3   OH248805   0.718   1.594   3.445 -0.5536 -0.5821  0.7118
 9105TIP3    H148806   0.773   1.671   3.429  1.3993 -1.9887  0.2392
 9105TIP3    H248807   0.715   1.587   3.541  0.0160 -0.4294  0.7445
 9106TIP3   OH248808   0.291   3.220  15.440  0.2329  0.8612 -0.5068
 9106TIP3    H148809   0.289   3.233  15.346  1.6333 -3.0291 -1.2724
 9106TIP3    H248810   0.379   3.187  15.458 -0.6112 -0.3943  1.7724
 9107TIP3   OH248811   0.340   0.809   3.210 -0.6468 -0.7810  0.2602
 9107TIP3    H148812   0.420   0.762   3.235 -0.8833 -0.2093  2.3076
 9107TIP3    H248813   0.278   0.789   3.280 -2.4031 -1.3358 -1.3548
 9108TIP3   OH248814   0.605   0.252  13.175 -0.4442 -0.6792  0.1784
 9108TIP3    H148815   0.605   0.159  13.155 -1.1793 -0.9758  1.4520
 9108TIP3    H248816   0.696   0.273  13.196 -0.0161 -0.7736 -1.4790
 9109TIP3   OH248817   6.232   2.714   4.220  0.4688  0.5244 -0.2140
 9109TIP3    H148818   6.307   2.760   4.185  0.4265 -0.1557 -1.2365
 9109TIP3    H248819   6.157   2.745   4.169  0.1769  0.5645  0.2249
 9110TIP3   OH248820   5.677   6.106   1.876  0.3570  0.0483  0.0784
 9110TIP3    H148821   5.709   6.186   1.834  1.5080 -0.1232  0.5812
 9110TIP3    H248822   5.687   6.123   1.970  0.4848 -0.6200  0.1940
 9111TIP3   OH248823   4.865   0.048  17.178 -0.0287 -0.4528  0.9485
 9111TIP3    H148824   4.912   0.110  17.122 -0.5715 -0.0668  0.9128
 9111TIP3    H248825   4.818   0.103  17.241  1.2449 -0.9052  2.3383
 9112TIP3   OH248826   4.955   1.606   1.645 -0.1420 -0.0082 -0.1662
 9112TIP3    H148827   4.897   1.620   1.571  0.1642  0.2777 -0.3520
 9112TIP3    H248828   4.896   1.600   1.721 -0.5075 -1.0097 -0.5143
 9113TIP3   OH248829   3.719   5.987   4.470 -0.0496 -0.2439  0.4610
 9113TIP3    H148830   3.713   5.901   4.428 -1.3852  0.3944 -0.7129
 9113TIP3    H248831   3.771   6.040   4.410  0.4390 -0.0930  0.9984
 9114TIP3   OH248832   3.432   2.131  17.049 -0.2031 -0.0613 -0.1159
 9114TIP3    H148833   3.523   2.139  17.022  0.3569  1.3288  1.9804
 9114TIP3    H248834   3.430   2.054  17.106 -0.7368 -1.0533 -1.3904
 9115TIP3   OH248835   4.433   3.881   6.215  0.2745 -0.1885 -0.1120
 9115TIP3    H148836   4.444   3.951   6.279 -0.6218 -0.2641  0.1443
 9115TIP3    H248837   4.394   3.809   6.264  0.5217 -0.6131 -0.5281
 9116TIP3   OH248838   4.200   3.797   5.466  0.1661 -0.1934 -0.2601
 9116TIP3    H148839   4.273   3.857   5.480  0.8620 -1.0868  0.0937
 9116TIP3    H248840   4.163   3.783   5.553 -0.5795  0.4250 -0.4684
 9117TIP3   OH248841   3.444   5.334  13.593 -0.2936  0.3632 -0.1645
 9117TIP3    H148842   3.362   5.315  13.638  1.4787 -0.2396  3.0819
 9117TIP3    H248843   3.503   5.264  13.620  1.4933  1.1038 -1.9328
 9118TIP3   OH248844   6.585   0.889   3.051  0.1060 -0.2794  0.0478
 9118TIP3    H148845   6.507   0.919   3.005 -0.0329 -1.6215 -0.6326
 9118TIP3    H248846   6.657   0.905   2.989  0.0160 -1.4163 -0.3625
 9119TIP3   OH248847   1.491   0.871   1.066 -0.0588 -0.7771  0.1318
 9119TIP3    H148848   1.524   0.960   1.081 -0.8451 -0.4020 -0.2917
 9119TIP3    H248849   1.412   0.865   1.121  0.1778 -1.3425  0.4249
 9120TIP3   OH248850   4.425   3.520  16.685 -0.5731 -0.2758 -0.5021
 9120TIP3    H148851   4.406   3.564  16.602 -3.3568 -1.1874 -0.4464
 9120TIP3    H248852   4.451   3.590  16.744 -1.7420  0.8871 -1.3029
 9121TIP3   OH248853   0.053   1.215   0.601 -0.1110  0.2495  1.0331
 9121TIP3    H148854   0.086   1.143   0.546  2.5713  4.0414 -2.9918
 9121TIP3    H248855  -0.041   1.198   0.608  0.5072 -4.2529  1.6510
 9122TIP3   OH248856   6.702   2.986   0.299 -0.5771  0.7554 -0.2207
 9122TIP3    H148857   6.775   2.992   0.237  0.2187  1.6590  0.7590
 9122TIP3    H248858   6.654   3.068   0.287 -0.2367  1.0782  0.5555
 9123TIP3   OH248859   3.825   3.815  16.718  0.1007  0.4122  0.3739
 9123TIP3    H148860   3.818   3.781  16.807  0.0200  2.5330  1.2445
 9123TIP3    H248861   3.914   3.850  16.712  0.2529 -0.0920 -0.5530
 9124TIP3   OH248862   1.585   5.042   4.641  0.2031 -0.4442 -0.0433
 9124TIP3    H148863   1.659   4.981   4.641  0.6724  0.1201 -0.0527
 9124TIP3    H248864   1.565   5.056   4.734  0.9226  0.3775 -0.0072
 9125TIP3   OH248865   0.657   4.935  11.834  0.4661  0.1022  0.8305
 9125TIP3    H148866   0.729   4.991  11.865  0.2879 -0.2172  1.8858
 9125TIP3    H248867   0.578   4.975  11.872  0.2590 -0.4215  0.9610
 9126TIP3   OH248868   1.564   5.861  16.012 -0.3271  0.0439 -0.5429
 9126TIP3    H148869   1.604   5.880  15.927  0.6265 -1.6640 -0.5169
 9126TIP3    H248870   1.524   5.944  16.039  0.9263  1.1027 -1.8079
 9127TIP3   OH248871   1.474   0.201   4.884 -0.3574  0.4385 -0.8856
 9127TIP3    H148872   1.497   0.283   4.839 -1.0467  0.6854 -0.8036
 9127TIP3    H248873   1.472   0.135   4.815  0.0895  0.5111 -0.9711
 9128TIP3   OH248874   4.067   4.462   4.841  0.5172  0.0765 -0.0293
 9128TIP3    H148875   4.120   4.421   4.772  1.6992  2.7657 -0.8691
 9128TIP3    H248876   3.994   4.501   4.794  0.2995  0.3320  0.5209
 9129TIP3   OH248877   2.004   5.439   4.186  0.3428 -0.4785  0.1396
 9129TIP3    H148878   2.013   5.518   4.238 -0.7008 -0.1836 -0.0944
 9129TIP3    H248879   1.988   5.471   4.097  1.2564 -0.9672 -0.2091
 9130TIP3   OH248880   5.076   1.588   5.833  0.3673  0.4007 -0.5214
 9130TIP3    H148881   5.166   1.618   5.824  0.0287  1.4490 -0.5555
 9130TIP3    H248882   5.043   1.583   5.744  0.7046 -1.0137 -0.5798
 9131TIP3   OH248883   4.268   6.404  12.800  0.0330  0.2162  0.0742
 9131TIP3    H148884   4.292   6.497  12.797  0.5453  0.1014  0.4848
 9131TIP3    H248885   4.177   6.402  12.769 -0.0048  0.8608  0.1234
 9132TIP3   OH248886   0.960   5.403   4.340  0.3121 -0.2185  0.5493
 9132TIP3    H148887   0.887   5.353   4.303  0.2498  0.9828 -1.0417
 9132TIP3    H248888   1.026   5.404   4.270  0.5055  1.4923  0.7113
 9133TIP3   OH248889   5.957   3.752   4.439 -0.1141  0.2902 -0.4067
 9133TIP3    H148890   5.941   3.708   4.522 -1.0323  0.4330 -0.4981
 9133TIP3    H248891   6.023   3.697   4.395 -0.3118 -0.2957  0.0148
 9134TIP3   OH248892   1.592   4.211  12.880 -0.5594 -0.0380 -0.2759
 9134TIP3    H148893   1.567   4.279  12.817  0.0354  0.0599 -0.4061
 9134TIP3    H248894   1.568   4.129  12.838 -0.3618  0.0400 -0.5391
 9135TIP3   OH248895   4.569   0.359   2.356  0.7472 -0.0096 -0.2745
 9135TIP3    H148896   4.554   0.350   2.261  0.6258 -1.4643 -0.1471
 9135TIP3    H248897   4.593   0.451   2.368  3.2080 -0.2940 -2.0693
 9136TIP3   OH248898   1.476   4.182   5.126  0.4681  0.5701 -0.3687
 9136TIP3    H148899   1.486   4.088   5.111  2.4634  0.8071 -0.7792
 9136TIP3    H248900   1.413   4.210   5.059  2.4439  0.0571 -2.5943
 9137TIP3   OH248901   3.839   0.095   1.158  0.3152 -0.0141  0.1382
 9137TIP3    H148902   3.830   0.003   1.179  2.7273 -0.3667 -0.1117
 9137TIP3    H248903   3.865   0.137   1.240 -0.7884  0.4815  0.2584
 9138TIP3   OH248904   1.188   0.098   2.975 -0.0790  0.3119  0.0958
 9138TIP3    H148905   1.244   0.039   3.025 -0.3236 -2.2566 -2.4237
 9138TIP3    H248906   1.186   0.179   3.027  4.4154 -0.0535  1.2703
 9139TIP3   OH248907   0.676   4.040   2.227 -0.3843  0.2506  0.4535
 9139TIP3    H148908   0.653   4.117   2.175  0.2814  0.4970  0.5183
 9139TIP3    H248909   0.738   4.072   2.293  1.0891 -0.5890 -0.4535
 9140TIP3   OH248910   2.548   2.782   4.189  0.4518 -0.5908  0.2147
 9140TIP3    H148911   2.588   2.696   4.172  0.2178 -0.5049 -0.8121
 9140TIP3    H248912   2.461   2.762   4.222  0.5388 -0.7563  0.3446
 9141TIP3   OH248913   5.410   1.136   0.409  0.2556 -0.3239  0.1487
 9141TIP3    H148914   5.406   1.070   0.479 -1.6928 -1.8435 -1.2542
 9141TIP3    H248915   5.401   1.085   0.328  1.4228  1.4608 -1.1895
 9142TIP3   OH248916   5.309   5.265   6.035 -0.2262 -0.4164  0.0980
 9142TIP3    H148917   5.298   5.256   5.941  3.4823 -1.0003 -0.4619
 9142TIP3    H248918   5.317   5.359   6.050  0.4306 -0.3834 -0.4113
 9143TIP3   OH248919   3.921   2.094  11.632  0.0229 -0.3188 -0.2089
 9143TIP3    H148920   3.951   2.049  11.711  1.7280  1.0689 -0.0013
 9143TIP3    H248921   3.942   2.186  11.647 -2.0515  0.3877 -1.2176
 9144TIP3   OH248922   1.242   4.210   3.934  0.0215  0.5179  0.5078
 9144TIP3    H148923   1.220   4.283   3.878  0.4212  1.0003  0.9660
 9144TIP3    H248924   1.327   4.233   3.972  1.0253 -0.9886 -0.7068
 9145TIP3   OH248925   5.016   6.578   5.910  0.0699 -0.4505 -0.2969
 9145TIP3    H148926   4.950   6.538   5.854  0.4102 -0.4363 -0.7092
 9145TIP3    H248927   5.100   6.552   5.871  0.4508 -3.1819  1.9865
 9146TIP3   OH248928   5.643   5.786  15.542  0.0683 -0.2714 -0.1953
 9146TIP3    H148929   5.592   5.746  15.471 -1.3830  0.1628  0.5520
 9146TIP3    H248930   5.670   5.712  15.596  1.3161 -0.6215 -1.2474
 9147TIP3   OH248931   1.411   3.447  10.570  0.0823 -0.2590  0.2690
 9147TIP3    H148932   1.473   3.418  10.502 -0.2877  0.6857 -0.4972
 9147TIP3    H248933   1.465   3.458  10.648  1.0377  1.0907 -0.5223
 9148TIP3   OH248934   0.199   5.353  14.126  0.4735 -0.1749  0.6430
 9148TIP3    H148935   0.238   5.398  14.051 -1.1605  0.5386  0.1687
 9148TIP3    H248936   0.149   5.281  14.088  0.0136 -0.0911  1.0798
 9149TIP3   OH248937   1.641   3.982   0.508  0.2555 -0.2989  0.4276
 9149TIP3    H148938   1.649   3.991   0.603  0.4697 -2.4740  0.6652
 9149TIP3    H248939   1.684   3.899   0.489 -0.8528 -0.4831 -1.4332
 9150TIP3   OH248940   5.573   2.635   5.793 -0.3824 -0.2617 -0.0952
 9150TIP3    H148941   5.516   2.697   5.838 -0.3538  0.4763 -1.0229
 9150TIP3    H248942   5.537   2.631   5.704 -0.4007 -1.6125 -0.0431
 9151TIP3   OH248943   0.496   5.852  10.823 -0.1400  0.3416 -0.3067
 9151TIP3    H148944   0.537   5.789  10.765 -0.1530 -0.5326  0.6060
 9151TIP3    H248945   0.567   5.880  10.882 -0.2049  0.9670 -0.5125
 9152TIP3   OH248946   2.570   0.899   5.217 -0.3651 -0.1992 -0.1609
 9152TIP3    H148947   2.552   0.805   5.227 -0.9036 -0.1804 -0.8702
 9152TIP3    H248948   2.646   0.903   5.160 -1.3459 -0.1864 -1.5015
 9153TIP3   OH248949   3.825   5.268  12.331  0.2454 -0.4889 -0.3221
 9153TIP3    H148950   3.816   5.343  12.273 -1.1704  1.1616  1.8610
 9153TIP3    H248951   3.919   5.259  12.345  0.5948 -0.7903 -2.6149
 9154TIP3   OH248952   2.357   6.355   5.358 -0.6197 -0.9299  0.3285
 9154TIP3    H148953   2.299   6.405   5.299 -3.0628 -1.8055  1.8170
 9154TIP3    H248954   2.349   6.265   5.327 -2.6163 -1.5439  2.3490
 9155TIP3   OH248955   5.691   4.189   2.990  0.7012 -0.2452  0.0533
 9155TIP3    H148956   5.712   4.279   3.012  0.4810 -0.2047  0.0999
 9155TIP3    H248957   5.619   4.196   2.927 -1.3965 -0.4441  2.3055
 9156TIP3   OH248958   3.259   0.524  15.764  0.0873 -0.0312 -0.2635
 9156TIP3    H148959   3.351   0.545  15.784  0.0710 -0.3488  0.1700
 9156TIP3    H248960   3.245   0.438  15.805 -0.3900 -0.0052 -0.3683
 9157TIP3   OH248961   0.147   2.199   4.573  0.3947  0.0892  0.2547
 9157TIP3    H148962   0.158   2.107   4.599 -3.0767 -0.3423  0.6978
 9157TIP3    H248963   0.173   2.202   4.481  1.6607 -1.0494  0.5482
 9158TIP3   OH248964   4.346   3.793   2.330  0.0225  0.1411 -0.3660
 9158TIP3    H148965   4.313   3.805   2.240  0.7806  0.7786 -0.5755
 9158TIP3    H248966   4.437   3.767   2.319 -0.6674 -2.8442  0.1868
 9159TIP3   OH248967   0.911   1.829   1.851 -0.7519  0.2931  0.0931
 9159TIP3    H148968   0.821   1.827   1.816 -0.6781 -0.7924 -0.0499
 9159TIP3    H248969   0.952   1.750   1.817  0.5914  1.2605 -0.6611
 9160TIP3   OH248970   2.769   1.896   0.769 -0.0259  0.1534 -0.8817
 9160TIP3    H148971   2.857   1.860   0.756  1.2809  3.1452 -1.0053
 9160TIP3    H248972   2.732   1.901   0.681  0.0516 -0.1594 -0.9354
 9161TIP3   OH248973   4.928   6.546  15.110 -0.2603 -0.2619 -0.1857
 9161TIP3    H148974   5.005   6.490  15.095 -0.3075 -0.2695 -0.4098
 9161TIP3    H248975   4.856   6.499  15.070 -0.4216 -0.3516  0.2072
 9162TIP3   OH248976   5.834   6.504   2.720  0.4964  0.3748 -0.1097
 9162TIP3    H148977   5.899   6.485   2.652  1.4115 -0.7143  1.0167
 9162TIP3    H248978   5.813   6.596   2.708  0.4692  0.1644 -1.9868
 9163TIP3   OH248979   5.029   5.497  12.628  0.0400  0.0317 -0.1753
 9163TIP3    H148980   5.093   5.568  12.622  0.8799 -0.6955 -0.0127
 9163TIP3    H248981   4.975   5.520  12.704 -0.5990  1.2061 -0.9598
 9164TIP3   OH248982   5.117   1.373   0.724  0.1595 -0.5337 -0.3932
 9164TIP3    H148983   5.036   1.353   0.678 -1.3992  0.4048  1.7985
 9164TIP3    H248984   5.139   1.463   0.697  0.2639 -0.6424 -0.6747
 9165TIP3   OH248985   5.714   0.978   0.305  0.3224  0.2793  0.7497
 9165TIP3    H148986   5.716   0.966   0.210  0.2048  1.2278  0.6183
 9165TIP3    H248987   5.684   0.893   0.339 -1.8432  0.5863 -0.2174
 9166TIP3   OH248988   3.802   2.978   1.909 -0.1324  0.3502  0.0489
 9166TIP3    H148989   3.888   2.974   1.951 -0.7073  0.5357  1.2853
 9166TIP3    H248990   3.743   3.009   1.978 -1.4774 -1.2975 -0.3008
 9167TIP3   OH248991   0.242   3.335  14.687 -0.4571 -0.1975  0.2181
 9167TIP3    H148992   0.255   3.309  14.596  1.0133 -0.6754  0.5270
 9167TIP3    H248993   0.177   3.406  14.683  1.1566  1.3135 -1.4426
 9168TIP3   OH248994   3.967   4.025  14.550 -0.8859  0.7046  0.6753
 9168TIP3    H148995   4.045   4.044  14.498  0.5366 -0.4091  2.2850
 9168TIP3    H248996   3.906   3.985  14.488  0.1093  0.8953 -0.4669
 9169TIP3   OH248997   3.716   3.954  11.532 -0.4145  0.2375 -0.1001
 9169TIP3    H148998   3.700   3.939  11.625  0.4339  0.2591  0.0554
 9169TIP3    H248999   3.721   4.049  11.524  0.4492  0.2013 -0.0046
 9170TIP3   OH249000   3.113   6.234  13.094  0.0235 -0.1167 -0.5862
 9170TIP3    H149001   3.202   6.252  13.124 -0.4007  3.4087 -0.9604
 9170TIP3    H249002   3.122   6.211  13.002  0.5281  3.8657 -1.7287
 9171TIP3   OH249003   4.686   5.823   6.215 -0.1999 -0.2717 -0.0116
 9171TIP3    H149004   4.736   5.744   6.196 -0.0293 -0.5090  1.3221
 9171TIP3    H249005   4.597   5.792   6.231  0.1619 -0.4395  2.0103
 9172TIP3   OH249006   1.348   4.785   5.339 -0.1454  0.3789  0.4894
 9172TIP3    H149007   1.396   4.708   5.369  0.9273  1.4485  1.6297
 9172TIP3    H249008   1.356   4.782   5.243 -0.0923 -0.8831  0.5128
 9173TIP3   OH249009   4.989   5.697   2.695 -0.1431  0.1008  0.3803
 9173TIP3    H149010   4.914   5.657   2.740 -1.3217  0.3686 -1.2651
 9173TIP3    H249011   4.963   5.789   2.683 -0.6952 -0.3440 -2.4095
 9174TIP3   OH249012   5.995   2.210  16.390  0.2009 -0.0096  0.0240
 9174TIP3    H149013   6.067   2.147  16.395 -0.2478 -0.4306  1.3338
 9174TIP3    H249014   5.917   2.159  16.410 -0.2732  0.7859  0.2155
 9175TIP3   OH249015   2.615   5.110   1.651  0.3039  0.0273 -0.1618
 9175TIP3    H149016   2.554   5.080   1.584 -0.0095 -0.4152  0.3105
 9175TIP3    H249017   2.561   5.162   1.711 -0.0034 -1.7567  1.1977
 9176TIP3   OH249018   2.493   5.199   1.104 -0.0847  0.5478 -0.9954
 9176TIP3    H149019   2.534   5.141   1.168 -0.3719  2.3873  0.9787
 9176TIP3    H249020   2.399   5.188   1.119 -0.2398 -0.3976 -2.4632
 9177TIP3   OH249021   3.174   2.076   6.750 -0.3734  0.3476  0.1261
 9177TIP3    H149022   3.100   2.117   6.795 -0.5079  1.5614 -1.1287
 9177TIP3    H249023   3.167   2.107   6.659  0.5397 -1.1069 -0.4691
 9178TIP3   OH249024   3.799   0.678   2.078 -0.0204 -0.0396 -0.1686
 9178TIP3    H149025   3.750   0.661   1.997  0.6288  1.3473 -0.8922
 9178TIP3    H249026   3.874   0.618   2.073  0.1424  0.2021 -0.7220
 9179TIP3   OH249027   2.861   0.687  17.047 -0.1028  0.0350  0.1785
 9179TIP3    H149028   2.858   0.602  17.002 -0.9811  0.8397 -1.3741
 9179TIP3    H249029   2.805   0.675  17.124 -1.9725 -0.2413 -1.1361
 9180TIP3   OH249030   1.019   4.697   0.087 -0.5935  0.4393 -0.2946
 9180TIP3    H149031   1.079   4.771   0.092 -1.2103  1.1300 -2.1211
 9180TIP3    H249032   1.068   4.631   0.037  0.0351 -0.5307  1.5068
 9181TIP3   OH249033   1.937   5.787  12.947 -0.6415  0.2379 -0.4239
 9181TIP3    H149034   2.010   5.731  12.973 -0.8860  0.6906  1.3502
 9181TIP3    H249035   1.978   5.862  12.906 -0.3058 -1.1347 -2.7644
 9182TIP3   OH249036   2.978   5.428   0.636  0.1442  0.3539 -0.7897
 9182TIP3    H149037   3.012   5.340   0.622 -0.5663  0.0142 -0.4522
 9182TIP3    H249038   3.049   5.475   0.679  0.1341 -0.3828  0.0600
 9183TIP3   OH249039   4.752   3.616   6.054  0.3718  0.0539  0.0195
 9183TIP3    H149040   4.840   3.651   6.069  0.4739  0.6307 -1.6569
 9183TIP3    H249041   4.699   3.654   6.124  1.7126 -1.5757  2.0300
 9184TIP3   OH249042   2.004   3.144  17.404  0.6777 -0.6563  0.7776
 9184TIP3    H149043   2.099   3.145  17.414  0.5976  0.7818  1.7431
 9184TIP3    H249044   1.971   3.201  17.474 -0.8233 -0.3097 -0.1406
 9185TIP3   OH249045   3.292   2.980  17.062  0.6357  0.0776 -0.1079
 9185TIP3    H149046   3.322   3.067  17.088 -1.1279  1.1847 -1.5300
 9185TIP3    H249047   3.209   2.968  17.109  1.5486 -1.5117  1.2109
 9186TIP3   OH249048   4.068   2.862  16.624  0.2680  0.0367  0.3207
 9186TIP3    H149049   4.150   2.827  16.590  0.8461  1.0226  0.6573
 9186TIP3    H249050   4.054   2.942  16.574 -0.5924 -0.2195  0.1417
 9187TIP3   OH249051   4.200   5.501  12.010 -0.0324 -0.4834  0.3189
 9187TIP3    H149052   4.140   5.575  12.023 -2.6003 -1.7935 -2.5815
 9187TIP3    H249053   4.277   5.540  11.969 -0.2861  0.8907  1.0750
 9188TIP3   OH249054   0.892   3.766   5.398  0.5910  0.1629  0.4801
 9188TIP3    H149055   0.849   3.702   5.341 -0.0010  0.7280  0.2696
 9188TIP3    H249056   0.953   3.715   5.452 -1.4101 -0.9023  1.8466
 9189TIP3   OH249057   2.027   1.677   2.466 -0.0901 -0.2636  0.3142
 9189TIP3    H149058   2.066   1.713   2.545 -2.3737  2.8862  0.2176
 9189TIP3    H249059   2.049   1.741   2.397 -3.5109  0.7096 -0.0995
 9190TIP3   OH249060   3.490   2.744  11.705 -0.2215 -0.0553 -0.1013
 9190TIP3    H149061   3.427   2.751  11.633 -0.2208  0.4070 -0.0599
 9190TIP3    H249062   3.521   2.654  11.701 -0.6915 -0.2118 -0.2877
 9191TIP3   OH249063   3.888   0.057  14.845 -0.1960 -0.1693  0.0085
 9191TIP3    H149064   3.871   0.009  14.925  2.1289  1.2129  1.4646
 9191TIP3    H249065   3.936  -0.004  14.789 -1.0227 -0.8454  0.0206
 9192TIP3   OH249066   4.115   4.762   4.659  0.2863 -0.7002 -0.1640
 9192TIP3    H149067   4.022   4.738   4.667 -0.1151  0.6307 -0.5825
 9192TIP3    H249068   4.137   4.801   4.744 -0.3985  1.6924 -1.0133
 9193TIP3   OH249069   4.866   3.518   2.569  0.0801 -0.0993  0.2164
 9193TIP3    H149070   4.893   3.589   2.510  0.4705  0.1185  0.6505
 9193TIP3    H249071   4.778   3.542   2.597 -0.1172 -0.2158 -0.2975
 9194TIP3   OH249072   3.794   6.650   0.120 -0.1275  0.2690  0.2869
 9194TIP3    H149073   3.723   6.684   0.174  0.7108  0.7945  1.1079
 9194TIP3    H249074   3.852   6.726   0.107  0.7021 -0.3337  0.3596
 9195TIP3   OH249075   5.121   0.317  15.281 -0.2299 -0.0015  0.7702
 9195TIP3    H149076   5.073   0.254  15.226 -0.6836  0.0593  1.0906
 9195TIP3    H249077   5.198   0.268  15.310  1.2570  0.6511 -1.7354
 9196TIP3   OH249078   5.522   4.908   2.817  0.8899 -0.4030  0.1975
 9196TIP3    H149079   5.531   4.831   2.761  0.9818  1.1893 -2.1457
 9196TIP3    H249080   5.428   4.921   2.826  0.8333  0.4568 -1.3366
 9197TIP3   OH249081   3.892   1.510   5.843  0.5576  0.0897  0.1437
 9197TIP3    H149082   3.846   1.525   5.926 -0.8949  0.9845 -0.7718
 9197TIP3    H249083   3.855   1.575   5.783  0.9064 -1.1089 -1.4524
 9198TIP3   OH249084   0.384   5.108  13.919  0.3056 -0.4739  0.6401
 9198TIP3    H149085   0.442   5.166  13.967 -1.0101  0.2600  1.4105
 9198TIP3    H249086   0.399   5.021  13.956  0.8509 -0.2832  0.8726
 9199TIP3   OH249087   0.677   3.030  14.421 -0.1336 -0.6449 -0.6973
 9199TIP3    H149088   0.677   3.083  14.501  0.4453 -0.7203 -0.6362
 9199TIP3    H249089   0.750   2.970  14.433 -1.1915 -1.9169 -0.4706
 9200TIP3   OH249090   6.321   1.055  16.444  0.4680  0.2109  0.0553
 9200TIP3    H149091   6.411   1.032  16.469  0.0942 -0.2276  1.0450
 9200TIP3    H249092   6.300   0.996  16.372  0.6299 -0.3881  0.4869
 9201TIP3   OH249093   3.698   1.132  11.693 -0.0608  0.6693 -0.1306
 9201TIP3    H149094   3.627   1.090  11.646  0.9904 -2.0890  0.5533
 9201TIP3    H249095   3.765   1.150  11.627  0.5729 -1.3113 -0.0841
 9202TIP3   OH249096   1.080   1.705   2.426  0.1933 -0.1046 -0.6809
 9202TIP3    H149097   1.118   1.742   2.505  2.9400 -1.3344 -1.3406
 9202TIP3    H249098   1.066   1.781   2.369  1.5235  0.4250 -0.3366
 9203TIP3   OH249099   3.540   1.505   6.690 -0.2371 -0.4122  0.0193
 9203TIP3    H149100   3.522   1.434   6.751 -1.3867 -1.8335 -1.8821
 9203TIP3    H249101   3.497   1.479   6.608  2.2252  0.8038 -1.8216
 9204TIP3   OH249102   5.813   4.285  13.784  0.6645  0.3593 -0.0735
 9204TIP3    H149103   5.724   4.295  13.818  0.1780  0.9793 -1.4876
 9204TIP3    H249104   5.860   4.240  13.855 -0.9987 -0.8478  0.3269
 9205TIP3   OH249105   1.583   0.713  11.275 -0.4447 -0.2777  0.3871
 9205TIP3    H149106   1.491   0.734  11.259 -0.2314 -0.0300 -0.6075
 9205TIP3    H249107   1.614   0.678  11.191  0.4505 -0.0272  0.6031
 9206TIP3   OH249108   2.756   6.026   2.736 -0.5108  0.4717 -0.2173
 9206TIP3    H149109   2.770   5.941   2.778 -1.4998  0.5743  0.3598
 9206TIP3    H249110   2.667   6.020   2.702 -0.4409  1.1385 -0.5155
 9207TIP3   OH249111   3.862   3.036   4.197  0.3089  0.1725 -0.2685
 9207TIP3    H149112   3.911   2.954   4.195  0.2607  0.0658  1.6630
 9207TIP3    H249113   3.920   3.098   4.242 -0.2358  0.8025 -0.4124
 9208TIP3   OH249114   5.390   4.157  13.906  0.3955 -0.0737 -0.3105
 9208TIP3    H149115   5.358   4.121  13.988 -0.1506  1.6053  0.2544
 9208TIP3    H249116   5.475   4.196  13.928  0.9494 -0.8924 -0.8968
 9209TIP3   OH249117   3.875   4.505  10.654  0.1967 -0.4312  0.0870
 9209TIP3    H149118   3.813   4.501  10.727 -1.5071  0.7609 -1.2095
 9209TIP3    H249119   3.843   4.438  10.593 -0.4073  0.8092 -0.9991
 9210TIP3   OH249120   1.432   6.735  14.537  1.3168 -0.3736  0.6180
 9210TIP3    H149121   1.373   6.726  14.463 -0.0727  2.2984  1.2633
 9210TIP3    H249122   1.387   6.693  14.610  2.3693 -2.3783  0.1888
 9211TIP3   OH249123   6.066   2.134   4.597  0.0180 -0.0460 -0.1252
 9211TIP3    H149124   6.059   2.050   4.553  1.2330 -0.0832 -0.2715
 9211TIP3    H249125   6.038   2.198   4.532  0.3298 -0.2304 -0.4417
 9212TIP3   OH249126   4.652   3.186   3.518 -0.1480 -0.0546  0.1671
 9212TIP3    H149127   4.606   3.237   3.585  0.3416 -2.5380  2.5925
 9212TIP3    H249128   4.725   3.241   3.492 -0.2266  0.9474  1.8883
 9213TIP3   OH249129   3.462   0.599  12.977  0.3555  0.1300  0.2003
 9213TIP3    H149130   3.409   0.592  13.056  1.6330  1.3576  1.2135
 9213TIP3    H249131   3.431   0.679  12.935  0.5298  0.1426  0.0967
 9214TIP3   OH249132   1.580   1.697  14.426 -0.0033 -0.0515 -0.4743
 9214TIP3    H149133   1.606   1.628  14.364 -1.7840 -0.0324 -1.2812
 9214TIP3    H249134   1.581   1.654  14.511 -0.8718 -1.0428 -0.9392
 9215TIP3   OH249135   0.727   2.437  16.380 -0.2008 -0.5752 -0.8572
 9215TIP3    H149136   0.695   2.514  16.332 -0.0265  1.4988  2.0841
 9215TIP3    H249137   0.656   2.373  16.372 -0.8116  0.2368 -2.5181
 9216TIP3   OH249138   4.459   6.205  14.786  0.3894  0.3746 -0.1259
 9216TIP3    H149139   4.412   6.130  14.750 -0.0640  0.8595 -0.5838
 9216TIP3    H249140   4.541   6.170  14.818  1.0032 -0.0461 -2.0155
 9217TIP3   OH249141   6.244   2.917  13.011  0.7600 -0.2521 -0.2867
 9217TIP3    H149142   6.242   2.932  12.916 -0.9902 -3.2899 -0.8745
 9217TIP3    H249143   6.329   2.874  13.026  1.7869  1.7194 -0.1032
 9218TIP3   OH249144   3.422   3.440   3.408 -0.6009 -0.1598  0.0740
 9218TIP3    H149145   3.344   3.459   3.355 -0.1141 -0.7427 -0.8947
 9218TIP3    H249146   3.482   3.397   3.346  0.1647 -0.4596  1.0099
 9219TIP3   OH249147   4.093   3.633  16.562  0.2145 -0.0949 -0.0145
 9219TIP3    H149148   4.183   3.610  16.537  0.7205  0.5912  1.0748
 9219TIP3    H249149   4.104   3.708  16.622 -0.9792 -0.8714  1.2251
 9220TIP3   OH249150   0.530   5.214  16.453 -0.0391  0.2501  0.4053
 9220TIP3    H149151   0.533   5.279  16.523 -0.9164 -0.0723  0.7638
 9220TIP3    H249152   0.539   5.130  16.498 -2.5983 -0.0993  0.4332
 9221TIP3   OH249153   2.114   2.125   6.561 -0.0880 -0.0539  0.0842
 9221TIP3    H149154   2.135   2.056   6.623 -0.0872 -0.7666 -0.6991
 9221TIP3    H249155   2.198   2.153   6.525 -0.1468 -0.2166 -0.1902
 9222TIP3   OH249156   2.621   0.492   4.637  0.6698  0.0967 -0.3877
 9222TIP3    H149157   2.685   0.544   4.685 -0.4446  0.7241  0.4798
 9222TIP3    H249158   2.651   0.495   4.546  1.1321  1.5266 -0.2194
 9223TIP3   OH249159   1.614   0.660   1.999 -0.0626 -0.0082  0.0271
 9223TIP3    H149160   1.532   0.688   1.959  0.8910  1.1643 -1.2130
 9223TIP3    H249161   1.680   0.671   1.930  1.2752 -0.1007  1.2259
 9224TIP3   OH249162   4.525   3.874   5.364  0.9186  0.0136 -0.4617
 9224TIP3    H149163   4.494   3.953   5.319  2.7051  0.5603 -0.8306
 9224TIP3    H249164   4.483   3.802   5.318  0.9010  0.6673 -1.5122
 9225TIP3   OH249165   5.276   3.811  13.391  0.2774 -0.3708 -0.0851
 9225TIP3    H149166   5.215   3.858  13.334 -0.5107 -1.3933 -0.1171
 9225TIP3    H249167   5.262   3.850  13.478  0.3840  0.1551 -0.3007
 9226TIP3   OH249168   6.543   4.350   1.946 -0.0646  0.0100  0.3630
 9226TIP3    H149169   6.603   4.345   2.020  0.3342  1.8042  0.1929
 9226TIP3    H249170   6.573   4.281   1.886 -0.1337 -1.1691  1.6496
 9227TIP3   OH249171   0.540   5.542  12.174 -0.2506  0.0741  0.0524
 9227TIP3    H149172   0.471   5.573  12.115  0.4040 -0.6423 -1.1259
 9227TIP3    H249173   0.603   5.614  12.177 -0.7730  0.5114  0.6936
 9228TIP3   OH249174   4.458   4.176  17.168  0.0890  0.2300 -0.5051
 9228TIP3    H149175   4.456   4.201  17.076 -0.6759  0.6703 -0.3717
 9228TIP3    H249176   4.367   4.162  17.192  0.3586 -1.1462 -0.1417
 9229TIP3   OH249177   6.278   0.943   4.970  0.1864 -0.1093  0.5212
 9229TIP3    H149178   6.326   0.901   5.041  0.2718  0.0618  0.5661
 9229TIP3    H249179   6.318   0.910   4.890 -0.4592 -0.9510  0.5375
 9230TIP3   OH249180   2.223   4.206   2.264  0.0335  0.0905  0.0569
 9230TIP3    H149181   2.247   4.155   2.342  2.0827 -2.3288 -1.9934
 9230TIP3    H249182   2.255   4.294   2.284 -0.5848 -0.1325  2.3968
 9231TIP3   OH249183   3.562   6.772   4.891  0.0485 -0.2099  0.3134
 9231TIP3    H149184   3.507   6.745   4.817  0.8712  1.5687 -1.0266
 9231TIP3    H249185   3.627   6.702   4.900  1.5390  0.6696 -2.4171
 9232TIP3   OH249186   4.277   5.728  14.241 -0.6389 -0.0438  0.7268
 9232TIP3    H149187   4.341   5.663  14.212 -0.8287  0.0396  0.0922
 9232TIP3    H249188   4.329   5.797  14.283 -0.2841  0.1282  0.0238
 9233TIP3   OH249189   0.605   4.329   3.955 -0.0480 -1.1089  0.5881
 9233TIP3    H149190   0.675   4.390   3.932 -2.0074  1.3061  0.6779
 9233TIP3    H249191   0.633   4.246   3.916  2.1520  0.0858 -0.6084
 9234TIP3   OH249192   3.099   2.074   1.479 -0.1612  1.3136 -0.1125
 9234TIP3    H149193   3.169   2.056   1.542 -0.1867  2.1557  0.1760
 9234TIP3    H249194   3.111   2.166   1.456 -0.4134  1.1259 -1.0225
 9235TIP3   OH249195   1.049   1.245  12.872 -0.7621  0.7293 -0.1458
 9235TIP3    H149196   1.103   1.324  12.872 -1.6700  1.3789 -0.8428
 9235TIP3    H249197   1.044   1.219  12.964 -0.9454  1.8335  0.1668
 9236TIP3   OH249198   0.252   1.513  16.342 -0.5721  0.2632  0.0624
 9236TIP3    H149199   0.202   1.501  16.423 -0.3486  0.6509  0.2606
 9236TIP3    H249200   0.192   1.485  16.273 -1.4687  1.7212  0.2062
 9237TIP3   OH249201   2.231   1.308  15.602  0.2345  0.4569 -0.1839
 9237TIP3    H149202   2.325   1.305  15.622  0.3425 -0.2747 -0.7570
 9237TIP3    H249203   2.211   1.220  15.571 -0.2707  1.0991 -1.7393
 9238TIP3   OH249204   1.621   2.234   4.188 -0.2788  0.2228 -0.2133
 9238TIP3    H149205   1.653   2.236   4.098 -0.3507  0.5523 -0.2326
 9238TIP3    H249206   1.621   2.325   4.216  0.0373  0.0908  0.2278
 9239TIP3   OH249207   6.027   2.996   5.798  0.1124  0.0226 -0.4775
 9239TIP3    H149208   6.114   2.960   5.783  0.1092  0.7955 -2.8331
 9239TIP3    H249209   5.968   2.922   5.789  0.4764 -0.3959  0.5215
 9240TIP3   OH249210   3.738   3.982  14.766 -0.0183  0.4012  0.1929
 9240TIP3    H149211   3.653   3.939  14.771 -0.4421  1.2477  0.4451
 9240TIP3    H249212   3.801   3.914  14.791 -0.5560 -0.3923 -0.5511
 9241TIP3   OH249213   5.179   2.540  13.817 -0.0169 -0.1207 -0.2621
 9241TIP3    H149214   5.160   2.575  13.730 -0.5082 -0.6946 -0.3947
 9241TIP3    H249215   5.120   2.588  13.875 -0.2952 -0.3328 -0.3662
 9242TIP3   OH249216   5.858   1.378   1.226  0.1279  1.1526 -0.7300
 9242TIP3    H149217   5.827   1.329   1.150  0.4443  1.8122 -1.3033
 9242TIP3    H249218   5.952   1.359   1.229 -0.1521 -0.1702  0.4907
 9243TIP3   OH249219   2.045   3.977  15.006  0.2421 -0.2066  0.5693
 9243TIP3    H149220   2.093   4.058  15.023 -0.2085 -0.0772  1.3052
 9243TIP3    H249221   1.957   3.995  15.039 -1.0778  0.4112 -2.8963
 9244TIP3   OH249222   5.870   0.492  13.631  0.4615  0.3037 -0.1009
 9244TIP3    H149223   5.913   0.414  13.596  1.3841  1.2873 -1.2748
 9244TIP3    H249224   5.941   0.543  13.669 -0.0847  0.7011  0.4010
 9245TIP3   OH249225   0.867   2.059   2.059 -0.3660  0.0210  0.2685
 9245TIP3    H149226   0.891   2.028   1.972 -0.8255  0.8256 -0.1525
 9245TIP3    H249227   0.773   2.075   2.054 -0.3244  0.4640  0.7888
 9246TIP3   OH249228   0.427   0.322   4.622 -0.5922 -0.6972 -0.1198
 9246TIP3    H149229   0.468   0.248   4.667  1.0525  0.2062 -0.0247
 9246TIP3    H249230   0.397   0.286   4.539 -0.3244 -1.6015  0.1629
 9247TIP3   OH249231   4.109   1.629   2.995  0.3313 -0.0306  0.2542
 9247TIP3    H149232   4.057   1.550   3.010  2.5380 -1.8686 -1.0398
 9247TIP3    H249233   4.132   1.660   3.083 -1.1855 -0.3656  0.7855
 9248TIP3   OH249234   0.148   6.727   5.376  0.1812  0.0019 -0.0483
 9248TIP3    H149235   0.201   6.783   5.432  0.5115  0.0874 -0.4364
 9248TIP3    H249236   0.059   6.762   5.383  0.1619 -0.1679  0.6373
 9249TIP3   OH249237   4.972   2.253   0.006  0.3378  0.1673  0.2957
 9249TIP3    H149238   4.911   2.210  -0.053 -0.6292 -1.3029  2.2426
 9249TIP3    H249239   4.925   2.329   0.039  0.0844 -0.1612  0.7037
 9250TIP3   OH249240   5.516   1.952   3.578  0.4102 -0.2252 -0.0874
 9250TIP3    H149241   5.527   1.987   3.667  0.1969  1.3772 -0.6574
 9250TIP3    H249242   5.551   2.021   3.521 -2.0981  0.0624 -1.3960
 9251TIP3   OH249243   4.754   4.052   5.466 -0.8577  0.2555 -0.3040
 9251TIP3    H149244   4.686   3.998   5.426 -2.5658  0.8685  1.6219
 9251TIP3    H249245   4.730   4.142   5.442  0.5264  0.3757 -1.3698
 9252TIP3   OH249246   1.525   0.322   2.405 -0.2110 -0.3943 -0.5249
 9252TIP3    H149247   1.601   0.308   2.348  0.0435  0.4441 -0.3995
 9252TIP3    H249248   1.558   0.376   2.477 -0.8996 -0.1174 -0.4090
 9253TIP3   OH249249   3.650   2.008   0.012 -0.9580 -0.2232  0.2009
 9253TIP3    H149250   3.573   2.051   0.050 -0.9203  1.0298 -1.0408
 9253TIP3    H249251   3.645   2.029  -0.082 -0.0727 -1.6612 -0.1987
 9254TIP3   OH249252   0.793   1.579   3.694 -0.8655 -0.0447  0.2144
 9254TIP3    H149253   0.730   1.530   3.747 -0.2747 -0.3198  0.6752
 9254TIP3    H249254   0.869   1.589   3.751 -0.2718 -0.2201 -0.5328
 9255TIP3   OH249255   5.387   3.003   1.087  0.0013  0.1036  0.2231
 9255TIP3    H149256   5.322   2.971   1.150  0.4761 -2.4250 -0.4776
 9255TIP3    H249257   5.420   3.084   1.126 -1.4743 -0.0946  2.0148
 9256TIP3   OH249258   0.382   5.802   5.030 -0.1562 -0.5394  0.4949
 9256TIP3    H149259   0.465   5.774   4.991 -0.0036 -0.8848  1.0589
 9256TIP3    H249260   0.405   5.880   5.081 -0.2526 -0.4043  0.3319
 9257TIP3   OH249261   4.261   5.128  16.488 -0.0921  0.6819  0.4677
 9257TIP3    H149262   4.191   5.077  16.529 -0.3222 -1.2616 -2.0904
 9257TIP3    H249263   4.341   5.077  16.505  0.3063  1.4539  1.0049
 9258TIP3   OH249264   1.883   5.926  15.072  0.1644 -0.1758  0.0537
 9258TIP3    H149265   1.842   5.984  15.136 -0.4756 -1.1686  0.5594
 9258TIP3    H249266   1.953   5.882  15.121  1.6476  1.2156 -0.6976
 9259TIP3   OH249267   6.043   4.632  13.739 -0.6475  0.0141 -0.5142
 9259TIP3    H149268   6.083   4.546  13.748  0.9491  0.8814  1.3141
 9259TIP3    H249269   6.060   4.657  13.649  0.8657 -0.6650 -0.4512
 9260TIP3   OH249270   4.272   0.864  14.806 -0.0844 -0.4384 -0.8022
 9260TIP3    H149271   4.250   0.793  14.746 -0.6436 -1.7917  0.9210
 9260TIP3    H249272   4.190   0.884  14.850  0.0951  1.2261 -1.1612
 9261TIP3   OH249273   4.226   5.736   2.884  0.1898  0.0750 -0.1188
 9261TIP3    H149274   4.139   5.723   2.847  0.1427 -1.8192  0.5410
 9261TIP3    H249275   4.229   5.829   2.906 -1.2885  0.3780 -1.0388
 9262TIP3   OH249276   4.537   1.654  17.459 -0.0445 -0.5151 -0.1376
 9262TIP3    H149277   4.492   1.614  17.384  0.8480 -0.5446 -0.6729
 9262TIP3    H249278   4.621   1.683  17.424  0.3955 -0.5353  0.8671
 9263TIP3   OH249279   0.172   0.620  15.645  0.7026 -0.3753  0.4057
 9263TIP3    H149280   0.118   0.542  15.639 -0.1238  0.2807 -2.7065
 9263TIP3    H249281   0.140   0.665  15.723 -0.6996 -1.8030  0.7178
 9264TIP3   OH249282   5.387   4.985   1.425  0.3264  0.2276  0.3808
 9264TIP3    H149283   5.300   5.024   1.422  0.1641 -0.0669  1.0393
 9264TIP3    H249284   5.375   4.898   1.387  0.6897  0.8011 -1.0998
 9265TIP3   OH249285   3.013   0.922  13.173  0.0187  0.0783 -0.4307
 9265TIP3    H149286   2.982   0.923  13.263  0.1013 -0.7521 -0.3851
 9265TIP3    H249287   3.087   0.982  13.173  0.5894 -0.5906  0.2809
 9266TIP3   OH249288   1.560   6.509  12.638 -0.5520 -0.5153 -0.3973
 9266TIP3    H149289   1.528   6.444  12.701 -0.5659 -0.5019 -0.3901
 9266TIP3    H249290   1.563   6.591  12.688 -0.6301 -0.4900 -0.4332
 9267TIP3   OH249291   6.262   1.713  14.026  0.9555  0.4577 -0.1611
 9267TIP3    H149292   6.235   1.661  14.102  0.6953  0.4775 -0.2400
 9267TIP3    H249293   6.239   1.803  14.049  0.0703  0.3579 -0.6196
 9268TIP3   OH249294   3.017   1.901  11.455 -0.4686 -0.8425  0.5315
 9268TIP3    H149295   3.103   1.886  11.415 -0.0791  2.1394 -0.0008
 9268TIP3    H249296   3.037   1.943  11.539 -1.3646  0.2058  0.2436
 9269TIP3   OH249297   6.324   6.412   2.867 -0.4221  0.0181 -0.0252
 9269TIP3    H149298   6.272   6.379   2.939 -0.8651  0.0031 -0.3512
 9269TIP3    H249299   6.308   6.507   2.866  1.1612  0.3505  1.1662
 9270TIP3   OH249300   1.859   3.370  16.556  0.3222  0.0644  0.3336
 9270TIP3    H149301   1.852   3.439  16.491 -0.4996 -1.2740 -1.0770
 9270TIP3    H249302   1.768   3.344  16.574  0.5420  0.2153  1.8400
 9271TIP3   OH249303   0.160   3.391  15.791  0.0068 -0.0805  0.3788
 9271TIP3    H149304   0.223   3.462  15.807 -0.0945 -0.2559  1.7239
 9271TIP3    H249305   0.210   3.325  15.743  0.1225  0.8590 -0.8065
 9272TIP3   OH249306   5.838   0.751   5.894 -0.1690  0.3928 -0.2172
 9272TIP3    H149307   5.920   0.799   5.907  0.3951 -0.6813  0.3287
 9272TIP3    H249308   5.773   0.801   5.945  0.4251  0.5234  0.4293
 9273TIP3   OH249309   2.841   6.268  10.977  0.1122  0.4466 -0.0335
 9273TIP3    H149310   2.878   6.214  11.046 -0.7650 -0.2682 -0.1114
 9273TIP3    H249311   2.752   6.287  11.006 -0.7750 -1.0705 -1.6031
 9274TIP3   OH249312   3.387   0.232   0.242 -0.2514 -0.3607  0.3391
 9274TIP3    H149313   3.301   0.257   0.206 -0.7289  0.4968  1.9954
 9274TIP3    H249314   3.368   0.203   0.331  0.9255 -2.2860  0.0127
 9275TIP3   OH249315   1.922   6.492   3.832  0.0733 -0.0998 -0.1886
 9275TIP3    H149316   1.932   6.398   3.845 -0.3872  0.0741  1.6431
 9275TIP3    H249317   1.939   6.530   3.918  2.1994  1.6845 -1.3049
 9276TIP3   OH249318   1.339   1.076  12.242 -0.1135  0.4548 -0.5036
 9276TIP3    H149319   1.254   1.037  12.225 -0.3979  0.4761  0.7767
 9276TIP3    H249320   1.374   1.096  12.155 -0.9217 -0.5715 -1.0869
 9277TIP3   OH249321   4.240   4.880  11.236 -0.3418  0.0640 -0.2092
 9277TIP3    H149322   4.276   4.929  11.162 -0.5201  1.5497  0.6512
 9277TIP3    H249323   4.154   4.921  11.252 -0.0945  0.0980  1.1091
 9278TIP3   OH249324   4.233   2.487   1.391 -0.2574  0.3192  0.0917
 9278TIP3    H149325   4.329   2.489   1.387 -0.2702  1.1007 -0.0303
 9278TIP3    H249326   4.207   2.579   1.386 -1.0076  0.1307  0.3615
 9279TIP3   OH249327   0.081   1.955  16.877 -0.3150  0.3345 -0.1876
 9279TIP3    H149328   0.086   1.986  16.967 -2.1882  0.7450 -0.1985
 9279TIP3    H249329   0.172   1.959  16.846  0.1351  1.7424  1.1558
 9280TIP3   OH249330   3.115   6.164   2.794  0.5770  0.1980  0.2555
 9280TIP3    H149331   3.200   6.201   2.771  1.9302 -2.0755  1.2153
 9280TIP3    H249332   3.098   6.099   2.726  0.6043 -0.7424  1.1223
 9281TIP3   OH249333   4.955   5.183   0.188 -0.4342  0.0744 -0.3017
 9281TIP3    H149334   4.957   5.125   0.112  0.2136  0.5111 -0.6262
 9281TIP3    H249335   4.862   5.205   0.199 -0.4367  0.7733 -1.5571
 9282TIP3   OH249336   6.138   1.785  11.980  0.5016  0.3725  0.3482
 9282TIP3    H149337   6.225   1.752  12.002  0.6464  0.2356 -0.4085
 9282TIP3    H249338   6.146   1.818  11.891 -0.0734  0.9215  0.4844
 9283TIP3   OH249339   2.998   4.203  13.623 -0.3624  0.2600 -0.9902
 9283TIP3    H149340   3.050   4.164  13.552 -0.0236  0.7849 -1.0311
 9283TIP3    H249341   3.060   4.256  13.672 -0.0946 -1.7595  1.0128
 9284TIP3   OH249342   5.848   5.788   3.904  0.3175 -0.2994 -0.2583
 9284TIP3    H149343   5.810   5.789   3.817  0.0812  0.2667 -0.1516
 9284TIP3    H249344   5.942   5.774   3.889  0.6784  2.1290 -0.7779
 9285TIP3   OH249345   4.097   3.560  15.783  0.3169  0.0262  0.5875
 9285TIP3    H149346   4.101   3.628  15.716 -0.0770 -0.7727 -0.2723
 9285TIP3    H249347   4.003   3.550  15.801  0.2835 -1.0951 -0.1537
 9286TIP3   OH249348   0.043   6.217   2.775 -0.4015  0.2343  0.3753
 9286TIP3    H149349  -0.028   6.206   2.837 -1.7475  0.3079 -1.0829
 9286TIP3    H249350   0.038   6.309   2.749 -1.2542 -0.2738 -1.4012
 9287TIP3   OH249351   2.226   1.080  12.786  0.1364 -0.3174 -0.4454
 9287TIP3    H149352   2.295   1.020  12.757  0.0199 -0.3992 -0.5572
 9287TIP3    H249353   2.271   1.147  12.837  0.4420  0.2184 -1.3923
 9288TIP3   OH249354   0.751   1.138   2.456  0.2308 -0.5634 -0.0154
 9288TIP3    H149355   0.765   1.157   2.363  1.1163  1.0722  0.4153
 9288TIP3    H249356   0.794   1.054   2.470  1.7455  0.0605 -0.7081
 9289TIP3   OH249357   6.329   2.592  14.818  0.0442 -0.4532  0.1019
 9289TIP3    H149358   6.409   2.611  14.867 -0.1425 -2.8756  1.5142
 9289TIP3    H249359   6.360   2.550  14.738  0.2587  1.1988 -0.7054
 9290TIP3   OH249360   4.196   4.068  14.420 -0.0482 -0.3138  0.6902
 9290TIP3    H149361   4.181   3.985  14.374  0.3768  0.2054 -0.4036
 9290TIP3    H249362   4.222   4.129  14.352  1.6483  0.2120  1.7579
 9291TIP3   OH249363   3.234   5.986  14.160 -0.2724  1.1508 -0.4897
 9291TIP3    H149364   3.299   6.001  14.229 -1.4736 -0.3008  1.0523
 9291TIP3    H249365   3.151   6.008  14.201 -1.1840 -1.2048 -0.8841
 9292TIP3   OH249366   3.433   5.359   5.637  0.3067 -0.1974  0.3578
 9292TIP3    H149367   3.394   5.440   5.605  0.4769 -0.1278  0.3249
 9292TIP3    H249368   3.403   5.352   5.728 -0.4915 -0.5947  0.0673
 9293TIP3   OH249369   2.848   0.539   4.142  0.0250 -0.0688  0.6139
 9293TIP3    H149370   2.870   0.617   4.193  2.2248 -0.4883  0.4453
 9293TIP3    H249371   2.918   0.535   4.076 -1.6881 -0.5757 -1.2627
 9294TIP3   OH249372   0.511   4.105  10.631  0.1382 -0.0855  0.0967
 9294TIP3    H149373   0.547   4.194  10.639  1.0334 -0.3962 -0.4089
 9294TIP3    H249374   0.554   4.055  10.700  0.2184 -0.3155 -0.1208
 9295TIP3   OH249375   2.458   2.853   3.224 -0.2239  0.3668 -0.1786
 9295TIP3    H149376   2.441   2.781   3.285  0.5178  0.7106  0.4433
 9295TIP3    H249377   2.416   2.824   3.142  0.0167 -0.7498  0.0672
 9296TIP3   OH249378   6.145   0.788   0.150  0.4368 -0.3918 -0.6448
 9296TIP3    H149379   6.140   0.827   0.237  0.6766 -0.8306 -0.4304
 9296TIP3    H249380   6.154   0.694   0.167  1.0430 -0.4235 -1.1351
 9297TIP3   OH249381   2.857   1.198   3.055 -0.0834 -0.2110  0.0251
 9297TIP3    H149382   2.834   1.267   3.117 -2.6874  1.5899 -2.7077
 9297TIP3    H249383   2.944   1.222   3.023  0.4544 -0.1191  1.4528
 9298TIP3   OH249384   3.315   0.547  11.551  0.5040 -0.0338 -0.4487
 9298TIP3    H149385   3.378   0.476  11.538 -0.1525 -0.8192  0.4671
 9298TIP3    H249386   3.321   0.568  11.644  1.2527  1.6839 -0.8494
 9299TIP3   OH249387   1.762   3.502   5.069  0.1183  0.4095  0.1720
 9299TIP3    H149388   1.834   3.463   5.017  0.6443  1.3252  0.1973
 9299TIP3    H249389   1.798   3.510   5.157 -0.4099 -0.1534  0.4466
 9300TIP3   OH249390   1.821   5.072   1.940  0.1464  0.3227 -0.0705
 9300TIP3    H149391   1.851   5.156   1.974  1.4108  0.3783 -1.2243
 9300TIP3    H249392   1.809   5.017   2.018  2.2624  0.6465  0.5561
 9301TIP3   OH249393   2.923   5.346   3.985 -0.0058 -0.1334  0.1708
 9301TIP3    H149394   2.958   5.353   3.896 -1.7758 -1.0814 -0.6582
 9301TIP3    H249395   2.880   5.430   4.001 -2.2629 -0.9664 -1.1031
 9302TIP3   OH249396   6.548   5.120  16.437 -0.3272  0.7040 -0.3132
 9302TIP3    H149397   6.588   5.033  16.444  5.0655  2.8033  0.2125
 9302TIP3    H249398   6.500   5.131  16.519 -1.6970 -1.8806 -0.6755
 9303TIP3   OH249399   3.732   0.003   6.458  0.5361  0.2139  0.5836
 9303TIP3    H149400   3.669  -0.060   6.493  1.5867 -0.2862  1.6382
 9303TIP3    H249401   3.737  -0.018   6.364 -0.7942  0.2180  0.4984
 9304TIP3   OH249402   2.622   6.171  14.242 -0.7408 -0.1157  0.5593
 9304TIP3    H149403   2.668   6.192  14.324  0.7401 -0.0761 -0.2408
 9304TIP3    H249404   2.609   6.257  14.200  2.3955 -0.3306 -1.1934
 9305TIP3   OH249405   2.744   2.673  12.517  0.9464  0.0582 -0.2963
 9305TIP3    H149406   2.726   2.717  12.433 -0.9407  0.6377  0.3528
 9305TIP3    H249407   2.677   2.604  12.522  1.2190 -0.1501  0.6004
 9306TIP3   OH249408   3.929   2.108  13.490 -0.6177  0.0979  0.7997
 9306TIP3    H149409   3.937   2.034  13.550 -0.9622  0.1318  0.8899
 9306TIP3    H249410   3.919   2.067  13.404 -1.4479  0.0240  0.9237
 9307TIP3   OH249411   4.344   5.993  10.877  0.3781  0.1893 -0.5720
 9307TIP3    H149412   4.406   5.951  10.817 -0.0675 -0.6578 -0.4621
 9307TIP3    H249413   4.302   5.919  10.923 -0.2187  0.7756 -0.1574
 9308TIP3   OH249414   0.512   4.962  16.599  1.0542  0.1252  0.1498
 9308TIP3    H149415   0.599   4.926  16.587  1.6896  1.0584  1.6070
 9308TIP3    H249416   0.494   4.952  16.693 -0.2777  0.2425 -0.0626
 9309TIP3   OH249417   4.569   2.527  14.293 -0.1371  0.3078  0.1961
 9309TIP3    H149418   4.517   2.608  14.293  0.6343  0.8295  1.5706
 9309TIP3    H249419   4.522   2.468  14.352  0.7007  0.7157  1.2983
 9310TIP3   OH249420   6.151   3.812  17.266  0.3817 -0.1940 -0.0799
 9310TIP3    H149421   6.216   3.876  17.236 -0.7967  1.0286 -0.1517
 9310TIP3    H249422   6.109   3.854  17.342  0.3137 -1.3558  0.5397
 9311TIP3   OH249423   2.366   4.272   1.847 -0.2057 -0.0388  0.1856
 9311TIP3    H149424   2.299   4.326   1.806  0.8549  0.7489 -0.5542
 9311TIP3    H249425   2.377   4.197   1.788 -1.9088 -1.3045  1.3733
 9312TIP3   OH249426   5.562   3.578   6.786 -0.0539 -0.5183 -0.1535
 9312TIP3    H149427   5.633   3.625   6.742  0.7869 -1.3187  0.3171
 9312TIP3    H249428   5.580   3.485   6.770 -0.2893 -0.7875  1.0020
 9313TIP3   OH249429   4.286   0.787   2.581 -0.0888 -0.2120 -0.6703
 9313TIP3    H149430   4.318   0.861   2.632 -2.5265  1.3355 -1.2107
 9313TIP3    H249431   4.278   0.716   2.645  0.4443  0.5540  0.2818
 9314TIP3   OH249432   1.629   0.003   1.848  0.2846  0.1978 -0.3481
 9314TIP3    H149433   1.692   0.026   1.915 -0.7720 -1.9064  1.4813
 9314TIP3    H249434   1.556   0.064   1.861  1.2687  1.7165 -1.5719
 9315TIP3   OH249435   1.984   0.063   4.125  0.3120  0.2408 -0.1078
 9315TIP3    H149436   1.971   0.072   4.219 -1.6621 -0.8203 -0.2236
 9315TIP3    H249437   1.933  -0.014   4.101  1.6573 -0.1574 -1.8973
 9316TIP3   OH249438   4.579   0.069  12.014  0.8538 -0.4433  0.5140
 9316TIP3    H149439   4.635   0.043  12.087  0.1010  0.7623  1.5649
 9316TIP3    H249440   4.561   0.162  12.030  1.2092  0.0380 -1.5769
 9317TIP3   OH249441   1.134   5.266   2.073 -0.1943  0.2973 -0.1774
 9317TIP3    H149442   1.212   5.237   2.121 -1.1894 -2.3913  0.0181
 9317TIP3    H249443   1.161   5.269   1.982  0.3183  0.0703 -0.0364
 9318TIP3   OH249444   3.684   2.749   6.169  0.2589  0.1493  0.0640
 9318TIP3    H149445   3.624   2.677   6.148  0.2659  0.1519  0.0359
 9318TIP3    H249446   3.763   2.706   6.202 -0.1622  0.1716  1.1410
 9319TIP3   OH249447   3.042   0.505   3.475  0.8863  0.3651 -0.0592
 9319TIP3    H149448   2.959   0.497   3.429  0.9568 -0.0916 -0.1099
 9319TIP3    H249449   3.105   0.458   3.421  1.0535  0.1810  0.2889
 9320TIP3   OH249450   2.370   5.499   4.728 -0.3882 -0.1227 -0.0114
 9320TIP3    H149451   2.400   5.582   4.691  0.1989 -0.5043 -0.4139
 9320TIP3    H249452   2.286   5.520   4.770 -0.2892  0.6489 -0.1873
 9321TIP3   OH249453   3.173   3.970  10.979 -0.2589  0.2024 -0.0549
 9321TIP3    H149454   3.193   3.929  11.063 -1.3084 -0.2459 -0.0039
 9321TIP3    H249455   3.208   4.059  10.986  1.5879 -0.4844  0.0341
 9322TIP3   OH249456   6.443   2.360  16.610  0.0578  0.0191  0.1915
 9322TIP3    H149457   6.423   2.451  16.588 -0.3453  0.2309  1.3357
 9322TIP3    H249458   6.517   2.337  16.555 -1.3927  0.2135 -1.9644
 9323TIP3   OH249459   6.155   4.080  16.647  0.4737 -0.4668 -0.5976
 9323TIP3    H149460   6.114   4.049  16.566 -1.1557  0.5100 -0.1964
 9323TIP3    H249461   6.107   4.034  16.716  1.8706 -1.3158 -0.1588
 9324TIP3   OH249462   2.764   5.488   2.197  0.2120  0.2663  0.0225
 9324TIP3    H149463   2.703   5.557   2.172  1.4005  0.5859 -2.2285
 9324TIP3    H249464   2.774   5.435   2.118  1.7135 -0.6306  0.7696
 9325TIP3   OH249465   4.497   2.082  16.379 -0.0146  0.0095 -0.2685
 9325TIP3    H149466   4.526   2.132  16.456 -1.6945 -0.7009  0.8836
 9325TIP3    H249467   4.495   2.147  16.309  1.7609  0.6356  0.2040
 9326TIP3   OH249468   5.437   0.914  14.296 -0.4130  0.1359  0.3123
 9326TIP3    H149469   5.454   0.922  14.202  0.6278  1.2448  0.5629
 9326TIP3    H249470   5.524   0.904  14.335 -0.8050  0.0382  1.1818
 9327TIP3   OH249471   2.202   5.272  13.985  0.0275 -0.0544  0.6715
 9327TIP3    H149472   2.252   5.247  13.908  0.9619  0.6417  1.0367
 9327TIP3    H249473   2.206   5.196  14.042 -0.5881 -0.5405  0.0919
 9328TIP3   OH249474   3.473   1.699   2.657  0.3240  0.5022  0.1398
 9328TIP3    H149475   3.550   1.709   2.601 -0.2780  0.8506 -0.6474
 9328TIP3    H249476   3.491   1.621   2.709 -0.2524 -1.5018 -2.4922
 9329TIP3   OH249477   6.721   6.564   0.795 -0.4091  0.3816 -0.5410
 9329TIP3    H149478   6.765   6.577   0.711 -0.6360  2.1226 -0.4273
 9329TIP3    H249479   6.632   6.596   0.781 -0.3679  0.9680  0.4304
 9330TIP3   OH249480   3.286   0.725   0.036 -0.4538 -0.2183  0.0827
 9330TIP3    H149481   3.377   0.730   0.009 -0.7562 -0.8023 -1.0932
 9330TIP3    H249482   3.279   0.790   0.106  1.2360 -1.3420  1.3502
 9331TIP3   OH249483   3.612   4.076  17.291 -0.1534  0.8123 -0.0211
 9331TIP3    H149484   3.646   4.031  17.368 -1.1437  2.1285  1.2241
 9331TIP3    H249485   3.521   4.095  17.312 -0.0827  2.3509 -0.9536
 9332TIP3   OH249486   6.675   3.751  12.886  0.4441  0.3912  0.2303
 9332TIP3    H149487   6.640   3.664  12.905 -2.2001  0.5398 -3.1357
 9332TIP3    H249488   6.765   3.735  12.859  0.3341 -1.1468  0.6613
 9333TIP3   OH249489   4.190   0.815   5.693  0.3239  0.3228 -0.2306
 9333TIP3    H149490   4.247   0.892   5.693  0.4027  0.2990  1.6617
 9333TIP3    H249491   4.168   0.800   5.785 -0.8831 -1.0523 -0.6928
 9334TIP3   OH249492   3.661   3.362  12.532 -0.8028  0.0785 -0.5064
 9334TIP3    H149493   3.697   3.277  12.556  0.0308  1.1893  2.7886
 9334TIP3    H249494   3.737   3.414  12.505 -1.0762  0.2587 -0.9437
 9335TIP3   OH249495   5.558   3.607  12.573  0.0593 -0.0412 -0.2567
 9335TIP3    H149496   5.634   3.618  12.515 -0.4133 -0.1456 -0.9058
 9335TIP3    H249497   5.551   3.513  12.585  1.0797  0.0346  1.2409
 9336TIP3   OH249498   0.112   6.464  12.674 -0.0255 -0.1789  0.1640
 9336TIP3    H149499   0.067   6.528  12.730 -0.5642 -1.7061  1.5491
 9336TIP3    H249500   0.064   6.383  12.687 -0.8868 -0.4352 -3.4372
 9337TIP3   OH249501   4.535   1.104   2.208  0.4034  0.4185  0.0111
 9337TIP3    H149502   4.551   1.062   2.292  0.3501 -0.2344 -0.3039
 9337TIP3    H249503   4.445   1.082   2.186  0.7134 -0.2082 -0.6617
 9338TIP3   OH249504   0.477   0.366  13.388 -0.0441 -0.0543  0.6400
 9338TIP3    H149505   0.403   0.406  13.342  0.4648 -0.2852 -0.4219
 9338TIP3    H249506   0.530   0.327  13.318 -0.0038 -1.7177  1.5587
 9339TIP3   OH249507   6.708   2.262   3.239 -0.0064  0.3129 -0.3857
 9339TIP3    H149508   6.768   2.231   3.172  2.5206 -2.1510  2.6991
 9339TIP3    H249509   6.729   2.355   3.249  2.6462 -0.2184 -0.2110
 9340TIP3   OH249510   0.986   3.524   3.467 -0.6924  0.7535 -0.2409
 9340TIP3    H149511   1.008   3.431   3.469  1.2570  1.1830  0.2009
 9340TIP3    H249512   1.070   3.569   3.459 -1.5185  2.5189  0.3966
 9341TIP3   OH249513   0.268   0.363   4.027  0.3860 -0.2443  0.3693
 9341TIP3    H149514   0.310   0.290   3.980 -0.7026  0.4330 -1.7774
 9341TIP3    H249515   0.201   0.321   4.081  3.3039 -1.3039  3.5074
 9342TIP3   OH249516   6.414   3.038   0.068 -0.1112 -0.1962  0.6377
 9342TIP3    H149517   6.325   3.039   0.102 -0.9185  3.0864 -1.1812
 9342TIP3    H249518   6.463   3.098   0.125  0.0341  0.6363 -0.3323
 9343TIP3   OH249519   3.773   4.827   4.883 -0.0699 -0.2246 -0.7820
 9343TIP3    H149520   3.708   4.888   4.917 -1.2746 -0.5631 -2.3632
 9343TIP3    H249521   3.845   4.882   4.852 -0.3842  0.2831 -0.6132
 9344TIP3   OH249522   4.175   6.469   2.544 -0.3731 -0.3051  1.0109
 9344TIP3    H149523   4.175   6.388   2.493 -1.1456  0.9712 -1.1495
 9344TIP3    H249524   4.118   6.451   2.618  0.0534 -1.9501  0.9758
 9345TIP3   OH249525   0.323   2.505  13.018  0.0433  0.2887  0.1899
 9345TIP3    H149526   0.372   2.506  12.935  0.0221  0.8901  0.1816
 9345TIP3    H249527   0.330   2.595  13.051 -0.4459  0.1951  0.5518
 9346TIP3   OH249528   3.369   6.323  16.225 -0.0115 -0.0857 -0.5404
 9346TIP3    H149529   3.437   6.299  16.161 -0.2700 -0.6443 -0.6117
 9346TIP3    H249530   3.343   6.411  16.200  0.8701  0.2346 -0.3557
 9347TIP3   OH249531   2.526   2.200   0.703 -0.1693  0.5406  0.5298
 9347TIP3    H149532   2.462   2.250   0.652  0.3990  1.3302  0.5651
 9347TIP3    H249533   2.508   2.224   0.794 -0.9547 -0.5949  0.6889
 9348TIP3   OH249534   2.517   3.931   5.859  0.4611 -0.1662 -0.1279
 9348TIP3    H149535   2.509   4.024   5.879  0.8759  0.2123 -1.5889
 9348TIP3    H249536   2.592   3.901   5.911  0.0378  0.1877  0.7006
 9349TIP3   OH249537   3.736   5.090  16.540  0.0555  0.3956  0.2277
 9349TIP3    H149538   3.731   5.174  16.586  1.3914  0.5040  0.1942
 9349TIP3    H249539   3.653   5.047  16.561  0.3771  0.6879  2.2859
 9350TIP3   OH249540   4.499   5.428   5.656  0.6336  0.7433 -0.1094
 9350TIP3    H149541   4.459   5.494   5.713  2.0501  1.9226 -0.4363
 9350TIP3    H249542   4.429   5.403   5.596  0.2116  2.3806 -0.3499
 9351TIP3   OH249543   4.794   0.959   1.918  0.6679 -0.0935 -0.1992
 9351TIP3    H149544   4.712   0.911   1.917  0.7884 -0.3196  0.5701
 9351TIP3    H249545   4.793   1.010   1.836 -0.0810 -0.3436 -0.3493
 9352TIP3   OH249546   0.170   5.086   4.039  0.5082  0.0975  0.2226
 9352TIP3    H149547   0.117   5.007   4.033  2.3156 -1.2827  1.3539
 9352TIP3    H249548   0.245   5.069   3.982 -0.2761  2.1022 -1.5405
 9353TIP3   OH249549   0.569   2.892   3.040  0.2602  0.4092 -0.4025
 9353TIP3    H149550   0.607   2.850   2.963  1.8662  0.5488  0.2782
 9353TIP3    H249551   0.627   2.966   3.058 -0.0650  0.3606  0.9504
 9354TIP3   OH249552   2.418   0.038  16.088 -0.3489  0.6980 -0.0771
 9354TIP3    H149553   2.441   0.108  16.026 -0.2250  0.9847  0.2868
 9354TIP3    H249554   2.338   0.000  16.053 -0.5765  1.2160 -0.1308
 9355TIP3   OH249555   2.451   2.420  13.732 -0.0480  0.1487 -0.6261
 9355TIP3    H149556   2.495   2.349  13.778  2.5906  1.3123 -1.1628
 9355TIP3    H249557   2.455   2.494  13.793  1.2289  1.0096 -1.7053
 9356TIP3   OH249558   2.109   0.307  15.206 -0.3199  0.3476  0.3546
 9356TIP3    H149559   2.089   0.215  15.221  1.1356  0.1765  1.4068
 9356TIP3    H249560   2.113   0.346  15.293  0.9371  0.9864  0.0284
 9357TIP3   OH249561   6.085   3.744   0.829 -0.0661 -0.2983  1.0179
 9357TIP3    H149562   6.007   3.749   0.884 -1.1314  1.2295 -0.5205
 9357TIP3    H249563   6.051   3.728   0.741  1.0541  2.7903 -0.1192
 9358TIP3   OH249564   1.126   0.652   6.297  0.3349  0.0985  0.2708
 9358TIP3    H149565   1.073   0.691   6.366  1.1731  0.5695  0.6625
 9358TIP3    H249566   1.180   0.724   6.264 -0.0248 -0.1205 -0.8641
 9359TIP3   OH249567   3.124   0.313  13.635 -0.1220 -0.8113 -0.2826
 9359TIP3    H149568   3.126   0.333  13.728 -1.2812 -2.8687  0.2483
 9359TIP3    H249569   3.032   0.295  13.616 -0.1438  0.7980 -2.1616
 9360TIP3   OH249570   2.737   5.826  14.569 -0.2672  0.0162  0.6393
 9360TIP3    H149571   2.806   5.891  14.582 -0.8636  0.8556 -0.3388
 9360TIP3    H249572   2.703   5.844  14.482 -2.4300  0.2741  1.4892
 9361TIP3   OH249573   2.831   1.675  13.061  0.8054 -0.7329 -0.0552
 9361TIP3    H149574   2.767   1.630  13.116  1.2668 -1.3960 -0.0438
 9361TIP3    H249575   2.826   1.631  12.976  0.7302 -0.3016 -0.2815
 9362TIP3   OH249576   5.041   2.214   4.589  0.1040 -0.1895 -0.0325
 9362TIP3    H149577   5.004   2.126   4.597  0.6336 -0.6599 -2.2702
 9362TIP3    H249578   4.977   2.270   4.632 -0.3013 -1.6233  1.3445
 9363TIP3   OH249579   3.549   0.396   6.541 -0.3778  0.1038 -0.4465
 9363TIP3    H149580   3.538   0.483   6.503 -0.0449  0.5556  0.4621
 9363TIP3    H249581   3.465   0.352   6.527 -0.3642  0.3554 -1.4176
 9364TIP3   OH249582   1.654   4.120   4.905  0.3518 -0.7581 -0.3929
 9364TIP3    H149583   1.591   4.119   4.977 -2.7952  0.3735 -2.9097
 9364TIP3    H249584   1.671   4.213   4.890 -0.0932 -0.8966 -1.8930
 9365TIP3   OH249585   3.265   4.475   5.279 -0.6486 -0.6454 -0.0413
 9365TIP3    H149586   3.327   4.546   5.298  0.2783 -1.8268  1.5362
 9365TIP3    H249587   3.294   4.441   5.194 -0.5125  0.2176 -0.3614
 9366TIP3   OH249588   0.299   0.074  14.587  0.0619  0.6352 -0.2931
 9366TIP3    H149589   0.318   0.162  14.555  0.3791  0.1613 -1.4556
 9366TIP3    H249590   0.341   0.016  14.524 -1.0407 -0.3704 -0.1428
 9367TIP3   OH249591   6.406   1.780  14.462 -0.2022  0.3802 -0.7436
 9367TIP3    H149592   6.430   1.722  14.390  0.7604  0.1955 -0.2881
 9367TIP3    H249593   6.479   1.843  14.467 -0.2506  0.3704  0.0855
 9368TIP3   OH249594   0.514   3.244   4.454  0.2190  1.1750 -0.2347
 9368TIP3    H149595   0.429   3.207   4.431  0.9481 -4.9277  4.2412
 9368TIP3    H249596   0.496   3.304   4.527 -0.3689  1.2732 -0.4602
 9369TIP3   OH249597   5.390   3.533  10.891  0.7791  0.1573 -0.5579
 9369TIP3    H149598   5.325   3.488  10.945 -0.3411  0.9344 -1.2160
 9369TIP3    H249599   5.474   3.500  10.923  0.0436 -2.6607 -1.2517
 9370TIP3   OH249600   5.553   3.882  16.759 -0.4742  0.0253 -0.2623
 9370TIP3    H149601   5.503   3.914  16.684 -1.1032 -1.1479 -0.3772
 9370TIP3    H249602   5.612   3.816  16.723  0.0196  0.2540  0.1145
 9371TIP3   OH249603   5.187   0.264   4.520  0.1729  0.5114 -0.6377
 9371TIP3    H149604   5.251   0.298   4.582  0.8325 -1.2872 -0.2703
 9371TIP3    H249605   5.104   0.302   4.549  0.9950  2.8578 -1.1048
 9372TIP3   OH249606   6.593   0.383   5.767 -0.1709  0.2564 -0.3765
 9372TIP3    H149607   6.605   0.341   5.682  0.0549  0.5149 -0.4768
 9372TIP3    H249608   6.511   0.432   5.758  0.1389  0.7358 -0.6384
 9373TIP3   OH249609   1.458   3.400   1.614  0.1838  0.0658  0.2692
 9373TIP3    H149610   1.432   3.319   1.659 -1.7773  0.5338  0.0719
 9373TIP3    H249611   1.380   3.456   1.618  1.4202  1.8758  0.1957
 9374TIP3   OH249612   3.379   4.076  15.208 -0.3695  0.2114 -0.3619
 9374TIP3    H149613   3.322   4.145  15.241  0.9981  1.0766  0.2809
 9374TIP3    H249614   3.328   3.996  15.216 -1.2314  0.8545  0.8718
 9375TIP3   OH249615   0.190   5.649   3.884 -0.1260  0.3686 -0.0964
 9375TIP3    H149616   0.198   5.556   3.908  0.0372  0.1093 -1.0824
 9375TIP3    H249617   0.181   5.695   3.967 -0.3342 -0.5471  0.4048
 9376TIP3   OH249618   5.165   6.300   4.164 -0.0108 -0.2630  0.5204
 9376TIP3    H149619   5.197   6.382   4.202 -0.6463 -0.2486  1.0305
 9376TIP3    H249620   5.165   6.317   4.069 -1.6254  0.9004  0.6904
 9377TIP3   OH249621   5.762   4.604   0.100 -0.3815 -0.5370 -0.5121
 9377TIP3    H149622   5.843   4.561   0.127  0.2103  1.0857  0.4735
 9377TIP3    H249623   5.693   4.548   0.135  0.3385 -1.0739  0.0982
 9378TIP3   OH249624   0.193   1.614  12.262 -0.7825  0.1127 -0.1971
 9378TIP3    H149625   0.244   1.569  12.194 -0.7228 -0.6491  0.3385
 9378TIP3    H249626   0.258   1.637  12.329 -1.2692 -2.0144  1.1065
 9379TIP3   OH249627   4.730   1.793   3.498  0.9400 -0.4644  0.2999
 9379TIP3    H149628   4.673   1.835   3.562 -1.7394 -2.9590 -0.2598
 9379TIP3    H249629   4.776   1.726   3.547 -1.0113 -2.2836 -0.1959
 9380TIP3   OH249630   4.069   3.413   5.718  0.0766 -0.2676  0.5574
 9380TIP3    H149631   4.037   3.325   5.696 -1.5926  0.0253  1.6614
 9380TIP3    H249632   4.011   3.472   5.671  1.5714  0.2929 -0.6740
 9381TIP3   OH249633   2.524   4.132   5.152  0.0254 -0.6110 -0.7157
 9381TIP3    H149634   2.579   4.058   5.127 -0.8980 -0.5988 -2.9473
 9381TIP3    H249635   2.474   4.100   5.228 -0.3291 -2.3018 -1.6121
 9382TIP3   OH249636   4.473   5.627   3.789 -0.5414 -0.3253  0.2938
 9382TIP3    H149637   4.406   5.695   3.788 -0.9382 -0.7137  0.4841
 9382TIP3    H249638   4.509   5.630   3.877  0.6412  0.7996 -0.1966
 9383TIP3   OH249639   4.093   2.026  14.078 -0.1730  0.3973  0.3227
 9383TIP3    H149640   4.042   1.948  14.100  1.2879 -1.0236 -0.9932
 9383TIP3    H249641   4.105   2.021  13.983  1.6407  1.1052  0.4644
 9384TIP3   OH249642   2.661   5.061  10.745  0.1349  0.1311 -0.0320
 9384TIP3    H149643   2.753   5.087  10.749 -0.1097  1.0275 -0.0988
 9384TIP3    H249644   2.617   5.121  10.805 -0.2868 -0.8556  0.6628
 9385TIP3   OH249645   5.417   6.170  13.042  0.5757 -0.6467  0.3612
 9385TIP3    H149646   5.412   6.136  13.131 -0.0523 -0.6117  0.3490
 9385TIP3    H249647   5.360   6.113  12.991  0.7107 -0.4979  0.0374
 9386TIP3   OH249648   5.643   3.973   3.416 -0.0399 -0.3336 -0.2550
 9386TIP3    H149649   5.588   4.051   3.405  0.3242 -0.2485 -1.6262
 9386TIP3    H249650   5.683   3.960   3.331  2.5212 -0.0761  0.8155
 9387TIP3   OH249651   4.460   0.065  13.218 -0.1713 -0.2054  0.2471
 9387TIP3    H149652   4.525  -0.001  13.244  0.4359  0.4036  0.2921
 9387TIP3    H249653   4.417   0.088  13.300 -0.0831 -0.2286  0.3008
 9388TIP3   OH249654   6.770   2.276   2.870  1.0057 -0.3713  0.0249
 9388TIP3    H149655   6.684   2.235   2.883 -0.6024  1.7817 -2.5588
 9388TIP3    H249656   6.831   2.203   2.861 -0.7642 -2.0058  0.5844
 9389TIP3   OH249657   3.094   6.682  11.745 -0.6225  0.0264 -0.2841
 9389TIP3    H149658   3.161   6.655  11.808 -0.0285  1.3339 -0.3280
 9389TIP3    H249659   3.095   6.614  11.678  1.0015  0.2477 -0.5262
 9390TIP3   OH249660   1.918   5.669   1.813 -0.0348  0.7098  0.3863
 9390TIP3    H149661   2.010   5.646   1.803 -0.2020  0.1851 -0.0151
 9390TIP3    H249662   1.874   5.625   1.740 -0.2441  3.2231 -1.1168
 9391TIP3   OH249663   0.376   5.058  12.076  0.3305 -0.4051 -0.6787
 9391TIP3    H149664   0.361   5.007  11.996  0.3371  0.5817 -1.3185
 9391TIP3    H249665   0.332   5.141  12.061 -2.3361 -1.2505  1.5611
 9392TIP3   OH249666   3.809   4.813   1.476 -0.0277  0.2993 -0.5015
 9392TIP3    H149667   3.746   4.882   1.455 -0.3437  0.7657  1.6612
 9392TIP3    H249668   3.881   4.859   1.519  0.1261 -0.6097  0.2453
 9393TIP3   OH249669   1.921   6.067   1.718 -0.2716  0.1009 -0.0295
 9393TIP3    H149670   2.015   6.080   1.726  0.0391 -1.4036 -0.9285
 9393TIP3    H249671   1.894   6.035   1.804 -0.0459  0.8837  0.3429
 9394TIP3   OH249672   1.031   5.977   0.756  0.8287  0.0091 -0.6356
 9394TIP3    H149673   1.024   5.969   0.661  2.4290  0.5818 -0.8356
 9394TIP3    H249674   0.964   5.918   0.790  0.0227  0.0177 -2.1119
 9395TIP3   OH249675   5.438   4.780   4.974 -0.4743  0.1724 -0.4252
 9395TIP3    H149676   5.417   4.689   4.951  0.1253  0.2381 -1.2479
 9395TIP3    H249677   5.367   4.806   5.034 -1.4720 -0.3573 -1.3374
 9396TIP3   OH249678   0.130   6.301   6.465  0.2295 -0.2736 -0.7611
 9396TIP3    H149679   0.055   6.250   6.495  0.2976  0.5756  0.9655
 9396TIP3    H249680   0.094   6.358   6.396 -0.4526 -0.6467 -0.7235
 9397TIP3   OH249681   0.898   6.716   0.298 -0.0001  0.7257 -0.4649
 9397TIP3    H149682   0.922   6.759   0.381  0.5964  0.8940 -0.7154
 9397TIP3    H249683   0.860   6.786   0.245  0.7194  0.8928 -0.7714
 9398TIP3   OH249684   0.257   5.290  12.069 -0.2930  0.1898 -0.6545
 9398TIP3    H149685   0.262   5.344  11.990 -1.3428  3.3012  1.2516
 9398TIP3    H249686   0.163   5.273  12.080 -0.2244  0.3743  0.2795
 9399TIP3   OH249687   1.516   0.405  15.567 -0.3818 -0.1164  0.2743
 9399TIP3    H149688   1.532   0.499  15.564  2.7787 -0.5528  0.0330
 9399TIP3    H249689   1.505   0.379  15.476 -0.0304 -0.1508  0.2416
 9400TIP3   OH249690   6.039   3.649  15.214  0.0640  0.2601  0.4618
 9400TIP3    H149691   6.031   3.684  15.126 -1.2390 -1.9574 -0.4075
 9400TIP3    H249692   5.965   3.688  15.262  0.5643  1.1905  0.4946
 9401TIP3   OH249693   2.459   1.655  15.555 -0.9922  0.0883 -0.0848
 9401TIP3    H149694   2.365   1.645  15.568 -0.6382 -2.4272  1.1113
 9401TIP3    H249695   2.480   1.597  15.482 -0.2866  0.0855  0.1105
 9402TIP3   OH249696   5.111   3.321  11.917  0.0190 -0.5326  0.5594
 9402TIP3    H149697   5.040   3.311  11.854  1.3629  1.4608 -1.4100
 9402TIP3    H249698   5.182   3.268  11.882  1.0121  1.1300 -0.0612
 9403TIP3   OH249699   4.814   3.950  14.140 -0.9041 -0.5422  0.1468
 9403TIP3    H149700   4.815   3.923  14.048  0.5304 -1.4311  0.4031
 9403TIP3    H249701   4.734   4.003  14.148 -0.2384  0.9210 -2.0006
 9404TIP3   OH249702   5.689   1.207   3.861 -0.2632 -0.0309  0.0834
 9404TIP3    H149703   5.701   1.200   3.767  0.7193 -2.0331  0.2965
 9404TIP3    H249704   5.732   1.129   3.897 -0.1161  0.9559  2.2322
 9405TIP3   OH249705   2.484   0.948   5.492  0.1648 -0.2246  0.0035
 9405TIP3    H149706   2.461   0.944   5.399  0.7319 -0.8482 -0.1187
 9405TIP3    H249707   2.492   0.856   5.518 -0.6537 -0.0669  0.8444
 9406TIP3   OH249708   0.957   2.882  14.940  0.2272  0.1183  0.0305
 9406TIP3    H149709   0.965   2.915  15.029  0.2382  2.1520 -0.6788
 9406TIP3    H249710   1.046   2.882  14.905  0.4299 -1.9415  0.3800
 9407TIP3   OH249711   5.645   4.627   3.265 -0.2916 -0.1542  0.2583
 9407TIP3    H149712   5.697   4.616   3.345 -0.9775  1.0857  0.9069
 9407TIP3    H249713   5.612   4.717   3.270 -0.4405 -0.0861 -1.3791
 9408TIP3   OH249714   3.722   4.436  16.290  0.3723  0.5420 -0.1238
 9408TIP3    H149715   3.712   4.451  16.195 -2.5587  0.4779  0.0940
 9408TIP3    H249716   3.664   4.362  16.309  0.6718  0.7575  1.7765
 9409TIP3   OH249717   2.469   5.811   5.274 -0.2457  0.3301  0.1932
 9409TIP3    H149718   2.475   5.824   5.368 -0.0671 -2.3696  0.6451
 9409TIP3    H249719   2.393   5.753   5.263  0.8163 -0.9027 -1.0796
 9410TIP3   OH249720   3.908   2.315   6.392 -0.2730 -0.1649 -0.2698
 9410TIP3    H149721   3.900   2.396   6.443  0.6039 -0.2924  0.0919
 9410TIP3    H249722   3.818   2.286   6.379 -0.6217  1.0744 -0.7430
 9411TIP3   OH249723   4.417   0.678  16.683 -0.1933  0.0548  0.3106
 9411TIP3    H149724   4.396   0.585  16.674 -0.0622  0.1461 -1.2677
 9411TIP3    H249725   4.507   0.679  16.716  1.5410 -0.5142 -3.8384
 9412TIP3   OH249726   3.496   0.007  14.201 -0.1377  0.4602  0.3714
 9412TIP3    H149727   3.445   0.021  14.121  0.1271  0.5198  0.2139
 9412TIP3    H249728   3.463  -0.077  14.235  0.0768  0.2029 -0.0488
 9413TIP3   OH249729   2.595   6.649   5.406 -0.4960 -0.0897  0.7791
 9413TIP3    H149730   2.680   6.605   5.406 -0.5584 -0.2342 -0.2048
 9413TIP3    H249731   2.541   6.597   5.466 -0.7566 -1.7764 -0.8142
 9414TIP3   OH249732   1.535   2.060   4.855 -0.0966  0.0458 -0.4600
 9414TIP3    H149733   1.484   2.080   4.933  0.2646  1.9356 -0.6481
 9414TIP3    H249734   1.587   1.984   4.878  0.7878  1.1781  1.5532
 9415TIP3   OH249735   6.721   5.417  15.317 -0.6035 -0.0496 -0.4970
 9415TIP3    H149736   6.749   5.485  15.378 -2.2359 -0.6241  0.9538
 9415TIP3    H249737   6.760   5.336  15.352 -0.0743 -0.1350 -1.2560
 9416TIP3   OH249738   0.645   1.936   0.501 -0.3651  0.5862 -0.5835
 9416TIP3    H149739   0.575   1.954   0.563  0.1823  0.0909  0.1912
 9416TIP3    H249740   0.695   2.017   0.496  0.6210  0.0953  0.9741
 9417TIP3   OH249741   1.488   5.006   5.307 -0.1245 -0.1863 -0.1083
 9417TIP3    H149742   1.496   4.994   5.213  1.5524 -0.8099  0.0734
 9417TIP3    H249743   1.434   4.932   5.336  0.3736 -0.6953 -0.4491
 9418TIP3   OH249744   4.813   3.733   2.139  0.1530  0.4224  0.2825
 9418TIP3    H149745   4.794   3.657   2.083  0.4674 -1.0919  2.1281
 9418TIP3    H249746   4.814   3.807   2.078 -2.2154 -0.7097 -1.3142
 9419TIP3   OH249747   3.505   4.741  14.994  0.4850 -0.0880 -0.3173
 9419TIP3    H149748   3.594   4.725  14.962  0.5379  0.8386 -0.6623
 9419TIP3    H249749   3.489   4.833  14.975  0.1472  0.2476  1.4301
 9420TIP3   OH249750   6.768   1.530  11.515 -0.4139 -0.2762  0.4637
 9420TIP3    H149751   6.681   1.559  11.489 -1.3115 -1.4351  2.1040
 9420TIP3    H249752   6.759   1.438  11.537  1.3541 -0.5708  0.1846
 9421TIP3   OH249753   2.080   3.210   0.857 -0.5601  0.6679 -0.3102
 9421TIP3    H149754   1.989   3.210   0.827 -0.0318  0.5630 -2.0421
 9421TIP3    H249755   2.082   3.272   0.929 -2.3359 -0.6155  0.9203
 9422TIP3   OH249756   4.373   0.584   4.346  0.4077 -0.0857  0.6326
 9422TIP3    H149757   4.338   0.541   4.425 -0.5954 -0.3083  0.0821
 9422TIP3    H249758   4.427   0.517   4.304  1.5073  0.2481  1.4702
 9423TIP3   OH249759   0.688   6.492   1.894  0.1262  0.2917  0.2382
 9423TIP3    H149760   0.610   6.461   1.940 -0.2324  0.5986 -0.1626
 9423TIP3    H249761   0.663   6.496   1.802  1.5806 -2.6599 -0.3836
 9424TIP3   OH249762   5.992   4.300  13.445  0.1330 -0.0051 -0.1286
 9424TIP3    H149763   5.967   4.261  13.362 -0.5163 -0.4535  0.2703
 9424TIP3    H249764   5.916   4.350  13.472  0.1160 -0.3519  0.4849
 9425TIP3   OH249765   5.591   3.939   2.935 -0.1882 -0.1198 -0.5585
 9425TIP3    H149766   5.653   3.897   2.876 -0.0825  0.1732 -0.6590
 9425TIP3    H249767   5.638   4.015   2.969 -0.3557 -0.1169 -0.3324
 9426TIP3   OH249768   4.696   4.236   3.576 -0.2902  0.4301 -0.7820
 9426TIP3    H149769   4.681   4.203   3.487  1.0379  0.0403 -0.8832
 9426TIP3    H249770   4.645   4.177   3.632 -1.1801  0.7126 -1.2757
 9427TIP3   OH249771   3.274   2.043  13.461  0.0699 -0.2921  0.3549
 9427TIP3    H149772   3.349   2.102  13.462 -0.9537  1.1760 -1.6017
 9427TIP3    H249773   3.198   2.101  13.468 -1.0589 -1.0367 -3.2314
 9428TIP3   OH249774   2.572   4.794   1.006 -0.5715  0.2224  0.0542
 9428TIP3    H149775   2.539   4.737   0.936 -0.6650 -0.0846  0.3487
 9428TIP3    H249776   2.495   4.841   1.037 -0.3180  1.3606 -0.9557
 9429TIP3   OH249777   4.250   1.112   2.115  0.1032 -0.4198 -0.3233
 9429TIP3    H149778   4.203   1.192   2.088 -0.9144 -0.8297  0.1592
 9429TIP3    H249779   4.195   1.075   2.185  1.1194 -0.9748  0.2061
 9430TIP3   OH249780   1.961   4.094  12.159  0.7117 -0.1577 -0.0059
 9430TIP3    H149781   1.964   4.082  12.064  4.4870 -1.0249  0.0552
 9430TIP3    H249782   1.915   4.016  12.192  3.3514 -2.2738 -0.9805
 9431TIP3   OH249783   5.175   5.260  16.373  0.1600  0.6217  0.5867
 9431TIP3    H149784   5.233   5.225  16.440  0.0061 -2.3351 -0.6425
 9431TIP3    H249785   5.231   5.316  16.319  0.6176  1.8330  2.2604
 9432TIP3   OH249786   2.007   0.652   0.635  0.5213  0.2529  0.0351
 9432TIP3    H149787   1.981   0.722   0.695 -0.1533 -0.9625  1.2164
 9432TIP3    H249788   1.979   0.683   0.549 -1.1165  0.8097  0.7260
 9433TIP3   OH249789   6.308   1.744   3.093 -0.2618 -0.7117  0.4982
 9433TIP3    H149790   6.344   1.738   3.181 -1.0755 -1.9108  0.7738
 9433TIP3    H249791   6.220   1.780   3.105  0.2771  0.8587 -0.0285
 9434TIP3   OH249792   0.089   2.799   6.583 -0.6315 -0.5122 -0.2796
 9434TIP3    H149793   0.096   2.751   6.500 -0.4927 -0.0303 -0.5487
 9434TIP3    H249794   0.025   2.868   6.566 -0.7120 -0.5012  0.0581
 9435TIP3   OH249795   0.746   5.845  13.338 -0.1412 -0.2842 -0.5704
 9435TIP3    H149796   0.688   5.896  13.394 -0.4858 -1.7645  0.4624
 9435TIP3    H249797   0.716   5.755  13.348  1.3618 -0.8816 -1.2107
 9436TIP3   OH249798   2.684   6.039   5.175  0.1147  0.1900 -0.4353
 9436TIP3    H149799   2.605   6.000   5.214  0.4116  0.0755  0.0606
 9436TIP3    H249800   2.671   6.134   5.184  0.3176  0.1613  0.2349
 9437TIP3   OH249801   2.745   1.408   0.539  0.5415  0.2835 -0.7579
 9437TIP3    H149802   2.749   1.314   0.520 -1.1656 -0.3612  1.6418
 9437TIP3    H249803   2.750   1.450   0.453  1.7812 -1.9468 -1.8689
 9438TIP3   OH249804   4.302   5.797   4.496 -0.4703  0.6114  0.4289
 9438TIP3    H149805   4.391   5.830   4.508 -0.4216  0.6255  0.0619
 9438TIP3    H249806   4.259   5.865   4.443 -0.4265  0.1787 -0.1696
 9439TIP3   OH249807   4.224   1.412   4.624 -0.7985 -0.2027  0.0678
 9439TIP3    H149808   4.318   1.395   4.633 -0.4349  0.3927 -2.1370
 9439TIP3    H249809   4.192   1.338   4.572 -1.3904  0.0302  0.0996
 9440TIP3   OH249810   5.710   2.706   1.515 -0.4533  0.5708 -0.0669
 9440TIP3    H149811   5.797   2.731   1.484 -0.4933  0.7602 -0.0253
 9440TIP3    H249812   5.710   2.728   1.608 -0.8116  1.2942 -0.2293
 9441TIP3   OH249813   3.271   3.836   2.588  0.4398  0.2394 -0.2403
 9441TIP3    H149814   3.194   3.852   2.533  0.3632 -0.3589 -0.3067
 9441TIP3    H249815   3.326   3.914   2.574  0.1353  0.3837 -0.6745
 9442TIP3   OH249816   4.767   5.979  17.037 -0.0969 -0.2234 -0.1212
 9442TIP3    H149817   4.763   6.070  17.007 -0.0039 -0.0242  0.4551
 9442TIP3    H249818   4.695   5.971  17.099  0.4486 -0.2866  0.5138
 9443TIP3   OH249819   3.177   2.341   4.689 -0.2102 -0.2709  0.1370
 9443TIP3    H149820   3.166   2.371   4.598 -0.3133 -1.9261 -0.4335
 9443TIP3    H249821   3.265   2.303   4.691 -0.4325 -0.7695  0.5610
 9444TIP3   OH249822   0.427   6.577  10.771  0.2759  0.3600 -0.3173
 9444TIP3    H149823   0.486   6.525  10.717  1.1898  0.1436  0.8364
 9444TIP3    H249824   0.341   6.569  10.729  0.8237 -0.3483 -1.3258
 9445TIP3   OH249825   5.465   3.482   1.543  0.2540  0.3864  0.2753
 9445TIP3    H149826   5.426   3.460   1.458 -0.7031  0.4096  0.7014
 9445TIP3    H249827   5.494   3.573   1.533 -1.1349  0.8586  0.4203
 9446TIP3   OH249828   2.620   5.650  15.587 -0.2616  0.3107 -0.3092
 9446TIP3    H149829   2.534   5.691  15.577 -0.1607  0.4485 -0.6187
 9446TIP3    H249830   2.600   5.563  15.622 -0.5990 -0.0044 -1.2450
 9447TIP3   OH249831   5.187   0.867  14.421 -0.5771  0.1898 -0.2427
 9447TIP3    H149832   5.211   0.805  14.489  0.5792  0.4721 -0.3855
 9447TIP3    H249833   5.263   0.871  14.363 -0.8317  1.3447 -0.5253
 9448TIP3   OH249834   0.825   6.351  14.479 -0.0047 -0.1812 -0.0686
 9448TIP3    H149835   0.809   6.418  14.545 -0.3383 -0.0832 -0.2474
 9448TIP3    H249836   0.823   6.398  14.396 -1.2387 -0.5677 -0.2787
 9449TIP3   OH249837   1.277   4.291  10.746  0.1868  0.5744 -0.8968
 9449TIP3    H149838   1.330   4.369  10.761  1.0328 -0.1168 -0.1824
 9449TIP3    H249839   1.280   4.243  10.829 -0.7194  0.0139 -1.1711
 9450TIP3   OH249840   1.473   0.997   0.313  0.4140  0.0510  0.0375
 9450TIP3    H149841   1.405   0.953   0.365  1.4677 -0.4284  1.0752
 9450TIP3    H249842   1.490   1.079   0.360  0.4946  0.2000 -0.2498
 9451TIP3   OH249843   5.733   3.276   5.125  0.1602  0.1482  0.3131
 9451TIP3    H149844   5.711   3.285   5.032 -2.5889 -0.6631  0.7888
 9451TIP3    H249845   5.757   3.184   5.135 -1.0081 -0.1455  0.6156
 9452TIP3   OH249846   1.679   5.506   2.344  0.2665  0.0204  0.7107
 9452TIP3    H149847   1.620   5.503   2.269  0.6791 -1.5945  0.4164
 9452TIP3    H249848   1.693   5.599   2.359 -0.6869  0.3979 -0.5240
 9453TIP3   OH249849   6.307   0.388  12.995 -0.1710 -0.1876 -0.0763
 9453TIP3    H149850   6.351   0.473  12.995  0.9738 -0.7320 -1.5606
 9453TIP3    H249851   6.346   0.340  13.068  0.6160 -0.1052 -0.4295
 9454TIP3   OH249852   2.960   5.850  11.235  0.4217 -0.1417  0.3996
 9454TIP3    H149853   2.982   5.870  11.326  0.2972 -1.9720  0.8678
 9454TIP3    H249854   3.012   5.773  11.215 -2.0965 -1.8736  0.0816
 9455TIP3   OH249855   3.235   6.532   0.726 -0.1043  0.0449  0.4265
 9455TIP3    H149856   3.181   6.500   0.799 -1.5378 -1.4165 -1.1766
 9455TIP3    H249857   3.267   6.452   0.684  4.3063  0.7610  1.8392
 9456TIP3   OH249858   1.191   1.163  13.618 -0.2395 -0.1705 -0.1239
 9456TIP3    H149859   1.266   1.179  13.561  0.6561 -0.1480  1.0124
 9456TIP3    H249860   1.116   1.196  13.570  0.7639  1.9096 -0.3601
 9457TIP3   OH249861   0.087   2.562   1.847  0.0583 -0.0272  0.2718
 9457TIP3    H149862   0.035   2.515   1.912  0.4263 -2.1848 -0.9121
 9457TIP3    H249863   0.123   2.637   1.895  0.2687 -1.4828  2.5431
 9458TIP3   OH249864   1.615   3.861   6.597  0.1663 -0.0939  0.1713
 9458TIP3    H149865   1.555   3.893   6.530  1.3500  0.9037 -0.4600
 9458TIP3    H249866   1.690   3.920   6.591  1.0718 -1.1149  1.1509
 9459TIP3   OH249867   0.866   4.832  13.379  0.8186 -0.3944 -0.3486
 9459TIP3    H149868   0.842   4.740  13.380 -0.4042 -0.0839 -0.0018
 9459TIP3    H249869   0.849   4.860  13.289 -2.3031  0.3368  0.3609
 9460TIP3   OH249870   0.637   2.624  16.215  0.1435  0.0657  0.2033
 9460TIP3    H149871   0.693   2.701  16.224 -0.1127  0.6349 -2.2595
 9460TIP3    H249872   0.550   2.660  16.198  0.0467 -0.7346 -1.1439
 9461TIP3   OH249873   3.292   6.562   0.118 -0.3797 -0.5587  0.1896
 9461TIP3    H149874   3.229   6.625   0.152 -1.6352 -1.6325 -0.0982
 9461TIP3    H249875   3.365   6.566   0.180 -0.9577  0.2906  0.8407
 9462TIP3   OH249876   6.009   4.482  12.305 -0.5182  0.4022 -0.3012
 9462TIP3    H149877   5.946   4.423  12.263 -0.1314  0.5350 -1.0852
 9462TIP3    H249878   6.073   4.423  12.346 -1.7589  0.2323  1.5373
 9463TIP3   OH249879   0.369   0.473  12.747 -0.3206 -0.1479 -0.4766
 9463TIP3    H149880   0.392   0.407  12.813  1.3717 -1.4048 -2.2148
 9463TIP3    H249881   0.443   0.534  12.748 -1.8340  1.7779  1.0582
 9464TIP3   OH249882   4.634   3.030  16.276  0.3054 -0.4110 -0.0633
 9464TIP3    H149883   4.613   3.052  16.367  1.0428  0.7090 -0.1332
 9464TIP3    H249884   4.719   2.986  16.281  1.0055  0.8489 -0.2877
 9465TIP3   OH249885   4.301   3.541  12.524 -0.7668 -0.0665 -0.3248
 9465TIP3    H149886   4.232   3.600  12.555 -1.1426 -0.1475 -0.9930
 9465TIP3    H249887   4.345   3.590  12.454 -2.5103 -1.3565 -2.4658
 9466TIP3   OH249888   2.221   4.100   3.154  0.1277 -0.3237 -1.0904
 9466TIP3    H149889   2.297   4.156   3.141 -0.0043 -0.2230 -1.4309
 9466TIP3    H249890   2.213   4.092   3.249  0.0552  0.3552 -1.0396
 9467TIP3   OH249891   1.003   3.065  14.678 -0.3806  0.0710 -0.5487
 9467TIP3    H149892   1.002   3.112  14.595 -1.4508 -1.1169 -1.2490
 9467TIP3    H249893   0.972   2.977  14.656 -1.7288  0.0326  1.2916
 9468TIP3   OH249894   3.321   5.025  17.411 -0.6345  0.4501 -0.2276
 9468TIP3    H149895   3.392   4.960  17.408  0.0683  1.1115  1.2400
 9468TIP3    H249896   3.362   5.105  17.377 -0.8354  0.6964  0.1096
 9469TIP3   OH249897   4.785   6.473  15.988  0.3534 -0.2637 -0.3977
 9469TIP3    H149898   4.803   6.559  16.026 -3.1627  0.3199  0.2719
 9469TIP3    H249899   4.717   6.489  15.923  3.4006 -1.8537 -4.3871
 9470TIP3   OH249900   2.438   2.168   1.000 -0.2423  0.5608  0.0480
 9470TIP3    H149901   2.351   2.127   1.001  0.1160 -0.2374 -0.3446
 9470TIP3    H249902   2.472   2.154   1.088  0.1201 -0.5601 -0.2491
 9471TIP3   OH249903   5.081   4.657   1.245  0.0277 -0.7645 -0.2850
 9471TIP3    H149904   5.065   4.646   1.151 -0.0222  0.6083 -0.4697
 9471TIP3    H249905   5.024   4.730   1.270 -0.6654 -1.7338  1.0332
 9472TIP3   OH249906   3.161   6.115  16.451  0.3161 -0.1399 -0.3976
 9472TIP3    H149907   3.205   6.084  16.530  0.2519  0.6510 -0.0366
 9472TIP3    H249908   3.087   6.055  16.439 -2.3578  2.1645  2.6726
 9473TIP3   OH249909   1.372   1.050   4.025  0.1442 -0.1340 -0.1290
 9473TIP3    H149910   1.459   1.011   4.038  0.4456  0.6265  0.1790
 9473TIP3    H249911   1.327   0.988   3.967  1.1186 -0.2064 -0.8422
 9474TIP3   OH249912   4.894   0.306   0.407 -0.3792  0.1917  0.1430
 9474TIP3    H149913   4.804   0.276   0.421 -0.4919 -0.6938 -2.0624
 9474TIP3    H249914   4.885   0.390   0.362 -0.1029  0.0404 -0.1959
 9475TIP3   OH249915   0.369   1.531  14.528 -0.7626  0.2951  0.1977
 9475TIP3    H149916   0.380   1.436  14.527 -0.5433  0.2893 -2.0378
 9475TIP3    H249917   0.438   1.564  14.471 -0.9181  1.8094  0.8271
 9476TIP3   OH249918   3.349   6.009  11.470  0.0975 -0.4103 -0.5686
 9476TIP3    H149919   3.289   6.052  11.410 -0.7770  0.4775  0.8600
 9476TIP3    H249920   3.295   5.947  11.519  0.2183  0.6035  0.9412
 9477TIP3   OH249921   2.513   0.650   2.847  0.2565 -0.2204 -0.1262
 9477TIP3    H149922   2.463   0.610   2.919  2.1323 -0.9336  0.8698
 9477TIP3    H249923   2.603   0.621   2.863  0.6038 -1.3652 -3.4294
 9478TIP3   OH249924   2.968   0.342  12.044 -0.1532  0.0649  0.8445
 9478TIP3    H149925   2.967   0.417  12.103  1.0814 -1.0362  2.3386
 9478TIP3    H249926   2.991   0.379  11.959  0.1547  1.4152  1.4874
 9479TIP3   OH249927   6.211   6.652   5.858  0.0407  0.4608 -0.4123
 9479TIP3    H149928   6.278   6.629   5.922  0.5635 -2.9173 -1.9864
 9479TIP3    H249929   6.261   6.684   5.782 -0.4486  2.2534 -0.0176
 9480TIP3   OH249930   4.555   4.242  16.464 -0.3746 -0.2856  0.4995
 9480TIP3    H149931   4.491   4.230  16.534 -1.0867  3.1507  0.5989
 9480TIP3    H249932   4.508   4.290  16.396  1.4695  0.2935 -0.4357
 9481TIP3   OH249933   2.630   2.791  13.920  0.1601 -0.2732  0.4172
 9481TIP3    H149934   2.555   2.731  13.923  1.4290 -1.9889 -0.2621
 9481TIP3    H249935   2.606   2.863  13.978 -2.7072  0.0929 -1.0267
 9482TIP3   OH249936   2.381   4.480   5.972  0.0190  0.1593 -0.2646
 9482TIP3    H149937   2.308   4.462   5.914  0.0426  1.1460 -0.6076
 9482TIP3    H249938   2.359   4.563   6.015  0.8457  0.3776 -0.2381
 9483TIP3   OH249939   6.593   1.347   5.365 -0.5593  0.7324 -0.1597
 9483TIP3    H149940   6.612   1.253   5.360  1.3655  1.1445 -2.8285
 9483TIP3    H249941   6.617   1.372   5.455 -1.8292 -1.4140  0.8423
 9484TIP3   OH249942   2.096   6.260  16.429  0.3587 -0.4729  0.1541
 9484TIP3    H149943   2.132   6.238  16.515  2.6410 -0.8160 -0.8127
 9484TIP3    H249944   2.118   6.352  16.417 -1.8008  0.1702  0.7390
 9485TIP3   OH249945   4.913   4.989  12.386  0.1910 -0.5030 -0.1498
 9485TIP3    H149946   4.913   4.894  12.403  2.9534 -0.4637  0.5855
 9485TIP3    H249947   4.996   5.005  12.342  0.3110  1.7286  0.7695
 9486TIP3   OH249948   4.088   3.292  10.815  0.5177 -0.0331 -0.1577
 9486TIP3    H149949   4.059   3.217  10.763 -1.8041  0.3722  0.4226
 9486TIP3    H249950   4.136   3.253  10.888 -1.6209 -1.1141  0.7535
 9487TIP3   OH249951   4.088   5.617   3.911 -0.7754 -0.0598  0.1574
 9487TIP3    H149952   4.122   5.706   3.913 -0.1109 -0.3152  1.6937
 9487TIP3    H249953   4.133   5.575   3.838 -0.0433  0.4592  0.3062
 9488TIP3   OH249954   5.026   4.443  12.376  0.1499 -0.2918 -0.4118
 9488TIP3    H149955   4.976   4.422  12.454  0.0699  1.4465  0.0507
 9488TIP3    H249956   5.117   4.426  12.400  0.2452  1.2530  0.4883
 9489TIP3   OH249957   0.954   0.444   6.227  0.3692  0.0826 -0.4066
 9489TIP3    H149958   0.871   0.483   6.256  0.1856  2.4249 -3.6034
 9489TIP3    H249959   1.005   0.518   6.195  2.5995 -1.6664 -1.1445
 9490TIP3   OH249960   5.309   6.737  11.565 -0.1028 -0.0218  0.0344
 9490TIP3    H149961   5.274   6.776  11.645  0.7996  0.7328  0.0833
 9490TIP3    H249962   5.341   6.812  11.514  1.6226 -0.6637  0.0993
 9491TIP3   OH249963   5.292   0.353   1.537 -0.4084 -0.6967  0.0442
 9491TIP3    H149964   5.345   0.274   1.548 -0.7082 -0.8122  0.7569
 9491TIP3    H249965   5.347   0.423   1.571 -1.7413 -1.1952  3.7049
 9492TIP3   OH249966   1.481   3.022  11.202  0.3760 -0.2565  0.2441
 9492TIP3    H149967   1.474   2.945  11.259  2.6764  1.9286  3.8384
 9492TIP3    H249968   1.564   3.010  11.156  1.1809  0.3942  1.4746
 9493TIP3   OH249969   5.570   6.707   5.616 -0.3171 -0.0976 -0.5047
 9493TIP3    H149970   5.662   6.686   5.633 -0.5115 -0.0763  0.6331
 9493TIP3    H249971   5.527   6.694   5.700 -1.1931  0.8107 -0.8018
 9494TIP3   OH249972   3.402   3.020  14.389 -0.5811  0.3713  0.5360
 9494TIP3    H149973   3.388   3.105  14.432 -1.1390 -0.6124  2.4039
 9494TIP3    H249974   3.332   3.014  14.325 -1.4284  0.7399  1.3979
 9495TIP3   OH249975   3.856   4.841   2.965  0.0333 -0.8557 -0.2414
 9495TIP3    H149976   3.821   4.784   2.897 -0.5663 -0.2914 -0.4197
 9495TIP3    H249977   3.791   4.910   2.974 -0.8352 -1.8742  2.2010
 9496TIP3   OH249978   4.045   1.506   0.178  0.5113 -0.2272 -0.1764
 9496TIP3    H149979   4.031   1.430   0.122  0.3424 -2.0596  2.1884
 9496TIP3    H249980   4.129   1.542   0.150  1.6766 -2.6105  0.0104
 9497TIP3   OH249981   6.192   6.599  12.799  0.4201  0.0583  0.1041
 9497TIP3    H149982   6.114   6.574  12.849  0.6626 -0.2516  0.3255
 9497TIP3    H249983   6.237   6.662  12.856  0.4957 -0.0010  0.1088
 9498TIP3   OH249984   1.019   1.143  11.492 -0.1039 -0.6873 -0.6545
 9498TIP3    H149985   0.956   1.077  11.521 -0.6745 -0.2007 -0.7710
 9498TIP3    H249986   1.013   1.143  11.397 -0.1560 -0.4292 -0.6544
 9499TIP3   OH249987   2.145   2.876  13.052 -0.1444  0.3655 -0.1282
 9499TIP3    H149988   2.221   2.870  13.110 -1.4057 -0.1931  1.5487
 9499TIP3    H249989   2.130   2.786  13.023 -1.0791  0.1879  0.8341
 9500TIP3   OH249990   4.520   4.946  14.866 -0.2551  0.4782  0.6829
 9500TIP3    H149991   4.497   4.865  14.912 -0.6647  1.0966  1.6101
 9500TIP3    H249992   4.454   4.955  14.797  0.5689 -0.6428 -0.2868
 9501TIP3   OH249993   2.200   3.232   6.779 -0.6114 -0.1503  0.3716
 9501TIP3    H149994   2.122   3.244   6.725  0.2727 -1.0636 -1.1620
 9501TIP3    H249995   2.255   3.309   6.759  0.7226 -1.5813 -1.8918
 9502TIP3   OH249996   3.572   1.619  16.644  0.2432 -0.6475  0.3209
 9502TIP3    H149997   3.567   1.524  16.656  2.2692 -0.9122 -0.5631
 9502TIP3    H249998   3.653   1.644  16.688  0.6927  0.3894 -1.0528
 9503TIP3   OH249999   6.447   3.297   1.855 -0.3773 -0.4680 -0.3079
 9503TIP3    H150000   6.520   3.310   1.916  0.4171 -0.2950 -1.2664
 9503TIP3    H250001   6.371   3.332   1.901  0.3438  0.3765  0.2773
 9504TIP3   OH250002   2.236   3.819   1.123  0.1037  0.1136 -0.2416
 9504TIP3    H150003   2.256   3.910   1.102  0.1464  0.2389  0.3160
 9504TIP3    H250004   2.147   3.822   1.158  0.6584  0.1874  1.2525
 9505TIP3   OH250005   3.767   6.609   4.387  0.3763 -0.0872 -0.3986
 9505TIP3    H150006   3.751   6.644   4.475 -0.9452  0.1986 -0.7408
 9505TIP3    H250007   3.813   6.680   4.342  2.1772 -0.6809  0.3933
 9506TIP3   OH250008   1.893   3.503   1.765 -0.1711  0.1785 -0.4918
 9506TIP3    H150009   1.894   3.418   1.720  0.1928 -0.6151  0.9638
 9506TIP3    H250010   1.830   3.555   1.715 -1.1696 -1.2692 -0.8245
 9507TIP3   OH250011   3.793   5.146  13.699  0.0770 -0.2840 -0.0828
 9507TIP3    H150012   3.821   5.233  13.670 -0.8614  0.3171  0.7280
 9507TIP3    H250013   3.873   5.094  13.701  0.6119  0.4748 -0.8593
 9508TIP3   OH250014   1.807   4.827  14.688 -0.4265  0.7674 -0.1086
 9508TIP3    H150015   1.745   4.872  14.745  1.2020  0.4877  1.9911
 9508TIP3    H250016   1.782   4.735  14.694 -0.0751  0.7050  0.3793
 9509TIP3   OH250017   3.100   5.562  12.021 -0.3151 -0.1629  0.4204
 9509TIP3    H150018   3.015   5.557  11.977 -0.4367  1.1853  0.4371
 9509TIP3    H250019   3.110   5.477  12.063 -1.2860 -0.6371 -0.2428
 9510TIP3   OH250020   1.980   6.632  14.845 -0.1237  0.2634  0.3360
 9510TIP3    H150021   1.979   6.675  14.760  2.7753  0.1360  0.1482
 9510TIP3    H250022   2.000   6.702  14.908 -2.8553  0.4760  1.0762
 9511TIP3   OH250023   5.453   1.567   4.192  0.1316 -0.0316  0.2885
 9511TIP3    H150024   5.394   1.640   4.211 -1.7620 -1.0330 -1.3006
 9511TIP3    H250025   5.448   1.511   4.270 -1.5020 -0.3520 -0.0004
 9512TIP3   OH250026   1.594   3.939  11.844  0.1615 -0.1302 -0.1432
 9512TIP3    H150027   1.648   3.861  11.858 -1.3474 -1.1858 -0.0624
 9512TIP3    H250028   1.625   3.973  11.760  0.2330 -1.3455 -0.6354
 9513TIP3   OH250029   3.762   1.926   1.006  0.3789 -0.2136  0.2606
 9513TIP3    H150030   3.722   1.877   1.077 -2.6872  0.4742 -0.8220
 9513TIP3    H250031   3.752   1.870   0.929 -0.1239  0.6911 -0.3564
 9514TIP3   OH250032   2.535   3.312  13.639  0.3503 -0.0886  0.1032
 9514TIP3    H150033   2.491   3.388  13.599 -1.6857 -1.1159  0.2257
 9514TIP3    H250034   2.576   3.267  13.566  3.6414  2.2585  0.2823
 9515TIP3   OH250035   3.685   4.186  13.408  0.2695 -0.2686 -0.3901
 9515TIP3    H150036   3.730   4.212  13.328 -0.6588 -0.2108 -0.9173
 9515TIP3    H250037   3.748   4.132  13.456  1.5418  1.2971 -0.2192
 9516TIP3   OH250038   4.764   0.976  16.753 -0.6709  0.6505 -0.6935
 9516TIP3    H150039   4.767   0.956  16.847  1.7901 -0.9885 -0.9993
 9516TIP3    H250040   4.757   1.071  16.748 -0.3082  0.8081  1.1898
 9517TIP3   OH250041   0.118   0.046   3.169  0.2008 -0.2741 -0.7383
 9517TIP3    H150042   0.213   0.041   3.181  0.0501  1.0511  1.5511
 9517TIP3    H250043   0.082   0.044   3.257 -1.7843  1.0705 -1.4379
 9518TIP3   OH250044   1.818   4.826  12.777  0.6822  0.7728 -0.0369
 9518TIP3    H150045   1.862   4.762  12.833 -0.2430  0.9207  0.8863
 9518TIP3    H250046   1.838   4.910  12.818 -1.9160  0.7374  1.5237
 9519TIP3   OH250047   5.246   0.062  13.249 -0.6683 -0.4668 -0.5145
 9519TIP3    H150048   5.184   0.054  13.322 -0.6051  0.4919 -0.3462
 9519TIP3    H250049   5.310   0.127  13.279 -1.2352  0.7484 -1.8178
 9520TIP3   OH250050   3.568   0.037  16.692 -0.0437 -0.7839 -0.3801
 9520TIP3    H150051   3.663   0.037  16.707  0.3607  2.2232 -2.0421
 9520TIP3    H250052   3.531  -0.000  16.771  2.5299 -2.8071  0.0043
 9521TIP3   OH250053   6.156   5.516   2.516 -0.0065 -0.0674 -0.0351
 9521TIP3    H150054   6.107   5.566   2.452 -0.7244 -0.8841 -0.1384
 9521TIP3    H250055   6.230   5.480   2.467 -0.3444 -0.3760 -0.3261
 9522TIP3   OH250056   4.229   5.595  17.395  0.2651 -0.1004  0.2633
 9522TIP3    H150057   4.230   5.607  17.301  0.3667  0.6673  0.3559
 9522TIP3    H250058   4.138   5.573  17.416  0.6287 -2.2713 -0.2298
 9523TIP3   OH250059   6.341   6.408   5.612  0.1876  0.6484 -0.2220
 9523TIP3    H150060   6.276   6.367   5.668 -0.8300 -1.0437 -2.5007
 9523TIP3    H250061   6.354   6.495   5.651 -3.0942  0.9027  0.5979
 9524TIP3   OH250062   1.307   1.682   6.413 -0.0359  0.6384 -0.4154
 9524TIP3    H150063   1.327   1.641   6.497  1.6885  1.1867 -0.5240
 9524TIP3    H250064   1.357   1.763   6.413 -0.6514  1.0485 -1.6457
 9525TIP3   OH250065   0.075   1.224  12.914  0.5329 -0.1682  0.7190
 9525TIP3    H150066  -0.007   1.273  12.906  1.6459  1.6798 -0.0956
 9525TIP3    H250067   0.095   1.229  13.008 -0.4291 -0.9319  0.9840
 9526TIP3   OH250068   0.764   5.391   0.385 -0.1610 -0.7437 -0.0916
 9526TIP3    H150069   0.720   5.310   0.409 -0.8033 -0.8436 -1.4897
 9526TIP3    H250070   0.823   5.367   0.313 -0.3956  0.0117 -0.5586
 9527TIP3   OH250071   3.649   5.274  12.013 -0.1518  0.5206 -0.3971
 9527TIP3    H150072   3.686   5.344  12.067 -0.1479 -0.4194  0.8754
 9527TIP3    H250073   3.723   5.216  11.996 -0.2356  0.6184 -1.1276
 9528TIP3   OH250074   5.876   1.063  11.272 -0.0195  0.1012 -0.3157
 9528TIP3    H150075   5.824   1.036  11.348 -0.1293  0.3679 -0.2933
 9528TIP3    H250076   5.920   1.143  11.301  0.6912 -0.3240 -0.2117
 9529TIP3   OH250077   5.593   5.441  14.744  0.2577 -0.5718 -0.0825
 9529TIP3    H150078   5.645   5.503  14.693 -0.1638 -0.3342 -0.2254
 9529TIP3    H250079   5.587   5.363  14.688  0.4042 -0.5746 -0.0939
 9530TIP3   OH250080   5.555   5.289   0.224 -0.0490  0.1022  0.0561
 9530TIP3    H150081   5.629   5.232   0.202 -1.0521 -1.9541  1.6202
 9530TIP3    H250082   5.526   5.323   0.140  0.3555 -2.0753 -1.0474
 9531TIP3   OH250083   0.620   6.477   1.605  0.4971 -0.2258  0.2235
 9531TIP3    H150084   0.667   6.432   1.534 -0.8846  0.5869 -1.2819
 9531TIP3    H250085   0.572   6.408   1.649  1.0758 -0.6934  0.1364
 9532TIP3   OH250086   2.756   2.134   3.924  0.0336 -0.0980  0.4144
 9532TIP3    H150087   2.678   2.102   3.878 -0.2387 -0.0882  0.8684
 9532TIP3    H250088   2.809   2.056   3.939 -0.1201 -0.1775  0.5449
 9533TIP3   OH250089   6.015   4.013  16.875  0.2468  0.2945  0.7360
 9533TIP3    H150090   5.922   3.991  16.876  0.4020 -0.4267  0.3407
 9533TIP3    H250091   6.024   4.086  16.937 -0.7840  1.2224 -0.1605
 9534TIP3   OH250092   4.508   2.459   4.675 -0.2505 -0.2992  0.5237
 9534TIP3    H150093   4.482   2.367   4.685 -1.7041  0.1143  0.8025
 9534TIP3    H250094   4.542   2.484   4.761  0.1742 -0.5781  0.4392
 9535TIP3   OH250095   3.793   6.610   1.244 -0.1195 -0.1559  0.1573
 9535TIP3    H150096   3.857   6.566   1.189  2.5687  0.7605  2.3633
 9535TIP3    H250097   3.778   6.551   1.318 -0.7258  0.2659  0.3900
 9536TIP3   OH250098   0.702   2.125  15.356 -0.4066  0.9751  0.2706
 9536TIP3    H150099   0.623   2.096  15.401 -0.6728  0.4407 -0.5232
 9536TIP3    H250100   0.731   2.049  15.305 -0.2985  1.6416 -0.7086
 9537TIP3   OH250101   1.944   2.167   1.026 -0.2385  0.3576 -0.6710
 9537TIP3    H150102   1.903   2.243   0.984 -2.6302  0.8006  2.1137
 9537TIP3    H250103   1.911   2.168   1.116  1.1468 -2.9254  0.0471
 9538TIP3   OH250104   3.068   2.458  15.309  0.1632  0.3582  0.1723
 9538TIP3    H150105   3.094   2.450  15.217  2.5421 -1.1168  0.8910
 9538TIP3    H250106   3.013   2.381  15.325 -1.3007  1.2676 -0.2742
 9539TIP3   OH250107   2.272   1.418   2.318 -0.2081  0.0831  0.4650
 9539TIP3    H150108   2.223   1.362   2.258 -1.3032  0.3956  1.0442
 9539TIP3    H250109   2.351   1.442   2.269 -0.6987 -0.3080 -0.5468
 9540TIP3   OH250110   6.140   4.504   6.304  0.0468  0.4459  0.7871
 9540TIP3    H150111   6.173   4.592   6.290  1.1863 -0.2232 -0.9072
 9540TIP3    H250112   6.214   4.455   6.340  0.7633 -0.8123 -2.1268
 9541TIP3   OH250113   1.815   3.906  11.636 -0.4657 -0.1314 -0.2749
 9541TIP3    H150114   1.846   3.951  11.557 -2.0054 -1.9708 -2.0512
 9541TIP3    H250115   1.879   3.837  11.650 -0.6936 -0.3881 -0.4922
 9542TIP3   OH250116   4.697   4.177   1.077 -0.0794  0.0555 -0.5558
 9542TIP3    H150117   4.666   4.215   0.994  0.4981  1.0358 -0.3409
 9542TIP3    H250118   4.617   4.159   1.126 -0.4112 -0.1059 -1.1460
 9543TIP3   OH250119   1.230   3.832  16.422  0.0603 -0.6785  0.5295
 9543TIP3    H150120   1.229   3.736  16.421  0.1681 -0.6793  0.5630
 9543TIP3    H250121   1.192   3.855  16.506 -0.4697 -0.6870  0.2977
 9544TIP3   OH250122   0.514   1.917  15.902 -0.8200  0.2738 -0.1284
 9544TIP3    H150123   0.483   1.939  15.814  1.3066 -0.1343 -1.0475
 9544TIP3    H250124   0.463   1.973  15.960 -1.9696  0.8793 -1.6509
 9545TIP3   OH250125   2.110   1.403  17.281  0.0345 -0.0360  0.1092
 9545TIP3    H150126   2.078   1.388  17.192  0.7536  0.0928 -0.1813
 9545TIP3    H250127   2.061   1.341  17.335  0.3036 -0.8239 -0.5263
 9546TIP3   OH250128   5.077   4.449  14.684  0.0622 -0.4775  0.7970
 9546TIP3    H150129   5.049   4.460  14.593  0.0608 -2.2690  0.5473
 9546TIP3    H250130   5.008   4.397  14.725  1.4342 -2.1998  1.0152
 9547TIP3   OH250131   4.689   3.413   4.085  0.3175  0.0125 -0.2197
 9547TIP3    H150132   4.665   3.464   4.163  1.0685 -2.3354  1.6757
 9547TIP3    H250133   4.610   3.412   4.032 -0.6990  0.4479  1.2205
 9548TIP3   OH250134   6.012   3.613  12.777 -0.1134 -0.0604 -0.0508
 9548TIP3    H150135   5.954   3.540  12.752  0.8172 -1.7026  2.2539
 9548TIP3    H250136   5.999   3.623  12.871  0.6876  2.0142 -0.1088
 9549TIP3   OH250137   2.762   3.692   2.096 -0.1718 -0.0619  0.0351
 9549TIP3    H150138   2.836   3.660   2.044 -1.1760  0.3795 -1.7583
 9549TIP3    H250139   2.802   3.727   2.176  1.4455 -0.7031 -0.4514
 9550TIP3   OH250140   3.986   2.854   6.061 -0.0620 -0.0807  0.5496
 9550TIP3    H150141   4.000   2.936   6.108 -1.0331  0.2092  0.3570
 9550TIP3    H250142   4.026   2.869   5.975 -2.3313  1.1137 -0.3658
 9551TIP3   OH250143   2.965   6.523   1.959 -0.4189  0.5314 -0.3942
 9551TIP3    H150144   3.023   6.573   2.017  1.3617  2.4572 -3.5652
 9551TIP3    H250145   2.914   6.589   1.912 -0.2977 -0.7474 -2.4809
 9552TIP3   OH250146   4.950   4.199   2.177 -0.0757  0.2543  0.2806
 9552TIP3    H150147   4.874   4.246   2.212  0.5251  0.8434  0.8042
 9552TIP3    H250148   4.915   4.113   2.153 -0.6984  0.1608  1.4666
 9553TIP3   OH250149   4.836   0.610   3.150 -0.4073 -0.1836  0.0773
 9553TIP3    H150150   4.815   0.667   3.076  1.6217 -1.9674 -2.0160
 9553TIP3    H250151   4.889   0.666   3.207  0.8467  0.3364 -1.5192
 9554TIP3   OH250152   6.605   5.993   5.826  0.0064 -0.2728 -0.1220
 9554TIP3    H150153   6.576   5.928   5.762 -1.2624 -0.7349  0.8831
 9554TIP3    H250154   6.670   5.946   5.879 -0.9631 -0.7833  0.6512
 9555TIP3   OH250155   3.283   4.063   6.338 -0.4178  0.6033 -0.5510
 9555TIP3    H150156   3.301   4.054   6.244  1.3184  0.0398 -0.1881
 9555TIP3    H250157   3.357   4.113   6.372 -0.2605 -0.4953  0.7842
 9556TIP3   OH250158   6.425   5.965  14.801 -0.1886  0.3373 -0.0469
 9556TIP3    H150159   6.493   5.959  14.734  0.5379  1.7719  0.5001
 9556TIP3    H250160   6.431   5.882  14.848  1.9187  0.7808  0.6057
 9557TIP3   OH250161   6.051   0.162   5.884 -0.3478 -0.4549 -0.3994
 9557TIP3    H150162   6.141   0.136   5.903 -0.0886 -1.1722 -2.3487
 9557TIP3    H250163   6.054   0.193   5.793 -1.6850  1.4840  0.1444
 9558TIP3   OH250164   5.772   1.340   6.571 -0.7475  0.1075  0.2879
 9558TIP3    H150165   5.841   1.308   6.514 -2.9817 -1.1503 -1.8916
 9558TIP3    H250166   5.745   1.424   6.532 -0.9054  0.2652  0.7264
 9559TIP3   OH250167   3.267   5.998  17.236 -0.5202  0.6905 -0.0848
 9559TIP3    H150168   3.353   6.036  17.252  0.8945 -1.7538 -1.2939
 9559TIP3    H250169   3.248   6.019  17.144 -0.3756 -0.2280 -0.3378
 9560TIP3   OH250170   3.400   4.502  13.980  0.3671  0.0485  0.1925
 9560TIP3    H150171   3.324   4.503  13.922 -0.5669 -0.7879  1.3482
 9560TIP3    H250172   3.475   4.509  13.922 -0.5932  1.3379 -0.9510
 9561TIP3   OH250173   4.511   6.293   2.916 -0.1357 -0.2143 -0.5030
 9561TIP3    H150174   4.502   6.266   3.008 -0.2882  0.4777 -0.3123
 9561TIP3    H250175   4.583   6.356   2.917 -0.1434 -0.1999 -0.8642
 9562TIP3   OH250176   4.129   0.690   3.128 -0.0351 -0.4561  0.2042
 9562TIP3    H150177   4.145   0.644   3.211 -0.0281 -0.6112  0.1186
 9562TIP3    H250178   4.217   0.708   3.094 -0.0326 -0.9430 -0.0672
 9563TIP3   OH250179   6.551   5.132  16.054 -0.0120  0.0208 -0.2693
 9563TIP3    H150180   6.460   5.112  16.077 -0.4938  0.8294 -1.3934
 9563TIP3    H250181   6.545   5.187  15.976  1.3631  1.9770  0.9096
 9564TIP3   OH250182   6.481   5.701   4.051 -0.1114 -0.2296 -1.0069
 9564TIP3    H150183   6.422   5.718   4.124  2.0035  1.9509  0.3236
 9564TIP3    H250184   6.476   5.780   3.997 -1.6807 -1.8072 -3.4010
 9565TIP3   OH250185   1.789   6.564   5.174  0.0276  0.3937  0.3786
 9565TIP3    H150186   1.706   6.592   5.133 -0.0406  0.1741  0.3652
 9565TIP3    H250187   1.854   6.627   5.142 -0.0598  0.3297  0.0742
 9566TIP3   OH250188   2.461   1.711  13.546  0.4071 -0.2811 -0.1905
 9566TIP3    H150189   2.472   1.771  13.473  0.1807 -0.3987 -0.3226
 9566TIP3    H250190   2.440   1.767  13.621  0.9800 -0.1327 -0.1372
 9567TIP3   OH250191   2.386   4.403   2.547 -0.5808 -0.6561 -0.5466
 9567TIP3    H150192   2.459   4.342   2.539  2.4787  2.4241  0.9543
 9567TIP3    H250193   2.373   4.412   2.642 -4.4225 -2.5095 -0.7082
 9568TIP3   OH250194   0.620   5.221  15.857  0.1839  0.5314 -0.5497
 9568TIP3    H150195   0.567   5.202  15.779 -2.7270 -2.9927  1.9372
 9568TIP3    H250196   0.573   5.291  15.902  1.2844  1.8282 -1.3453
 9569TIP3   OH250197   4.748   4.998  16.662  0.0297  0.6809  0.3554
 9569TIP3    H150198   4.699   4.965  16.737 -1.3785  0.3642 -0.6706
 9569TIP3    H250199   4.838   4.972  16.679 -0.3988 -0.0984  1.5406
 9570TIP3   OH250200   4.784   1.658   2.424  0.0632  0.1260  0.1966
 9570TIP3    H150201   4.693   1.653   2.397  0.1435  0.7818 -0.2102
 9570TIP3    H250202   4.833   1.613   2.355  0.0078 -0.8005  0.7278
 9571TIP3   OH250203   4.865   6.654  14.672  0.2581 -0.1496  0.2878
 9571TIP3    H150204   4.906   6.610  14.598  0.7575 -1.2519  1.1881
 9571TIP3    H250205   4.778   6.679  14.640  0.3694 -0.8369 -0.5829
 9572TIP3   OH250206   6.273   3.789  13.174 -0.5389 -0.3971  0.0183
 9572TIP3    H150207   6.322   3.762  13.252 -0.3325 -1.4666 -0.4597
 9572TIP3    H250208   6.296   3.881  13.162 -1.2082  0.0401  1.6797
 9573TIP3   OH250209   2.042   3.461  12.535  0.1277 -0.3920 -0.5813
 9573TIP3    H150210   1.987   3.519  12.586  1.3571 -0.8887  1.4045
 9573TIP3    H250211   2.107   3.428  12.597  1.1303 -1.7622 -2.2598
 9574TIP3   OH250212   5.815   3.884   3.213  0.2282  0.2304 -0.8511
 9574TIP3    H150213   5.862   3.867   3.295 -0.3820 -1.7932 -0.8650
 9574TIP3    H250214   5.862   3.956   3.172  0.4259  1.4480  1.3767
 9575TIP3   OH250215   1.504   0.905  11.652  0.3153 -0.3525  0.3270
 9575TIP3    H150216   1.484   0.990  11.692  2.0528 -0.2238  1.0208
 9575TIP3    H250217   1.599   0.907  11.638  0.2370 -1.7862 -0.6076
 9576TIP3   OH250218   1.141   3.999   5.041 -0.4514 -0.3486 -0.1355
 9576TIP3    H150219   1.102   3.962   5.121 -0.8632  0.0948 -0.1234
 9576TIP3    H250220   1.235   3.985   5.051 -0.2935  1.3007  1.2900
 9577TIP3   OH250221   2.541   2.404  15.501  0.2536 -0.3508 -0.6204
 9577TIP3    H150222   2.562   2.375  15.412  0.0570 -0.0974 -0.7511
 9577TIP3    H250223   2.546   2.325  15.554  0.7312 -0.4410 -0.7897
 9578TIP3   OH250224   2.123   0.730  14.584 -0.2577  0.1972  0.7184
 9578TIP3    H150225   2.193   0.783  14.546 -1.2213  0.8675 -0.1839
 9578TIP3    H250226   2.042   0.769  14.550 -1.0411 -1.1675  0.9337
 9579TIP3   OH250227   3.444   4.695   6.113 -0.0556  0.1669 -0.0259
 9579TIP3    H150228   3.509   4.655   6.055 -1.5677 -1.2727 -0.8092
 9579TIP3    H250229   3.447   4.643   6.193  0.5959  0.8760  0.4223
 9580TIP3   OH250230   3.750   2.263   6.661  0.6193 -0.5261  0.7094
 9580TIP3    H150231   3.678   2.324   6.680  0.2552 -1.2295  1.6561
 9580TIP3    H250232   3.826   2.320   6.647 -0.4267  0.3438 -2.0865
 9581TIP3   OH250233   1.325   3.127   3.881  0.7057  0.1378  0.1583
 9581TIP3    H150234   1.405   3.087   3.846 -0.3405 -1.2375 -0.7644
 9581TIP3    H250235   1.348   3.219   3.891  1.2080  0.6859 -4.0790
 9582TIP3   OH250236   2.051   2.556   2.299 -0.0303  0.5778  0.5698
 9582TIP3    H150237   2.138   2.590   2.277 -0.0799  1.0564  1.0883
 9582TIP3    H250238   2.054   2.542   2.394 -0.5355  0.6452  0.5963
 9583TIP3   OH250239   3.668   1.504  15.559  0.6471  0.3618  0.5480
 9583TIP3    H150240   3.677   1.412  15.585  1.5720  0.4202  0.4668
 9583TIP3    H250241   3.730   1.551  15.615 -0.5008  1.0759  1.2535
 9584TIP3   OH250242   5.682   4.820  14.049 -0.6436  0.0319  0.0491
 9584TIP3    H150243   5.612   4.763  14.018 -1.1287  0.6424  0.0009
 9584TIP3    H250244   5.698   4.792  14.139  0.8526 -1.8295 -0.7297
 9585TIP3   OH250245   4.033   5.692  14.358 -0.4281 -0.2794 -0.0757
 9585TIP3    H150246   4.104   5.677  14.295 -1.6234 -0.5946 -1.3834
 9585TIP3    H250247   3.953   5.670  14.311 -1.6565  2.4155  0.5241
 9586TIP3   OH250248   5.055   5.074  12.908  0.4848 -0.6569 -0.0663
 9586TIP3    H150249   5.016   5.121  12.834  0.2990 -1.5003 -0.5193
 9586TIP3    H250250   5.007   5.105  12.985  0.8053  0.3668 -0.2630
 9587TIP3   OH250251   2.504   6.362   6.627 -0.0832 -0.2810  0.2192
 9587TIP3    H150252   2.565   6.328   6.562 -1.5378 -0.8215 -0.9186
 9587TIP3    H250253   2.499   6.294   6.694  1.6524  0.4071  1.1153
 9588TIP3   OH250254   3.794   0.538   0.273 -0.0023  0.5522 -0.1283
 9588TIP3    H150255   3.705   0.519   0.241 -0.0216  0.5853 -0.0945
 9588TIP3    H250256   3.780   0.593   0.350  0.0697  1.5786 -0.8143
 9589TIP3   OH250257   1.662   4.489  12.396 -0.0526 -0.2533 -0.0575
 9589TIP3    H150258   1.719   4.414  12.379  1.3989  0.8340 -0.1711
 9589TIP3    H250259   1.703   4.534  12.469 -1.1995  0.1729  0.3528
 9590TIP3   OH250260   4.430   1.918   2.608  0.2659  0.1727  0.1101
 9590TIP3    H150261   4.335   1.912   2.602  0.1811  0.0111  1.4189
 9590TIP3    H250262   4.446   1.988   2.671  0.9511 -1.6518  2.0807
 9591TIP3   OH250263   3.804   1.543  15.818  0.0963 -0.6945 -0.1416
 9591TIP3    H150264   3.795   1.595  15.898  1.1921  0.0095 -0.4511
 9591TIP3    H250265   3.888   1.498  15.828  0.2530 -0.5857 -0.8851
 9592TIP3   OH250266   3.325   6.330   1.906  0.6251 -0.3860  0.4367
 9592TIP3    H150267   3.286   6.277   1.976  0.7405  0.0305  0.8206
 9592TIP3    H250268   3.327   6.418   1.942  0.2012 -0.0683 -0.2926
 9593TIP3   OH250269   1.205   2.587  10.700 -0.0464 -0.3950  0.0745
 9593TIP3    H150270   1.167   2.618  10.617 -1.2179 -0.7218  0.4627
 9593TIP3    H250271   1.136   2.534  10.739  0.6807 -0.6614  1.0303
 9594TIP3   OH250272   2.113   0.165   5.881  0.1316  0.3554  0.1335
 9594TIP3    H150273   2.110   0.159   5.976 -0.7143 -0.0869  0.0949
 9594TIP3    H250274   2.132   0.257   5.863  2.7420 -0.0094  0.7250
 9595TIP3   OH250275   0.301   3.637  14.840 -0.0373 -0.3236 -0.2131
 9595TIP3    H150276   0.314   3.545  14.865 -0.7466  0.0420  1.7039
 9595TIP3    H250277   0.348   3.646  14.757  0.6938 -2.2234 -0.0699
 9596TIP3   OH250278   0.922   3.672  14.003 -0.1829 -0.0283 -0.0228
 9596TIP3    H150279   0.878   3.712  13.928 -0.2942  0.3011  0.2184
 9596TIP3    H250280   0.977   3.603  13.964 -0.0919  0.2660 -0.4253
 9597TIP3   OH250281   0.379   1.341   6.009  0.2932 -0.1641 -0.0340
 9597TIP3    H150282   0.330   1.317   6.088  1.9045 -2.4801  0.3677
 9597TIP3    H250283   0.450   1.397   6.041 -0.7210  1.3451 -0.3128
 9598TIP3   OH250284   2.560   5.937  12.579 -0.2588 -0.1229 -0.0417
 9598TIP3    H150285   2.575   5.930  12.673 -1.3444  1.6282  0.3050
 9598TIP3    H250286   2.480   5.989  12.572  0.3472  0.6200 -1.9550
 9599TIP3   OH250287   1.040   4.664   4.836 -0.5702  0.4046  0.5153
 9599TIP3    H150288   1.095   4.631   4.907 -0.5411  0.6889  0.6273
 9599TIP3    H250289   0.971   4.713   4.881 -0.2098  1.1018  0.3304
 9600TIP3   OH250290   4.403   0.561   3.987 -0.2430  0.0744 -0.1323
 9600TIP3    H150291   4.453   0.640   3.967 -0.9559  0.6300  0.2320
 9600TIP3    H250292   4.457   0.515   4.052  1.5232 -1.1746 -2.3412
 9601TIP3   OH250293   1.795   4.116   4.207 -0.3106 -0.3463  0.1967
 9601TIP3    H150294   1.784   4.172   4.284 -0.5316 -0.0552 -0.0424
 9601TIP3    H250295   1.728   4.048   4.216 -0.6013 -0.0807  0.0617
 9602TIP3   OH250296   1.683   0.499   2.880  0.2933  0.2315  0.5136
 9602TIP3    H150297   1.768   0.544   2.879 -0.1270  1.0354 -0.2019
 9602TIP3    H250298   1.677   0.457   2.795  1.3216 -2.5042  1.6812
 9603TIP3   OH250299   6.043   3.205   1.829 -0.5405  0.0077 -0.1447
 9603TIP3    H150300   5.985   3.200   1.753  0.3598  0.8829 -0.9205
 9603TIP3    H250301   6.093   3.285   1.815  1.2786 -1.0129  0.1883
 9604TIP3   OH250302   4.431   6.015  16.811 -0.2526  0.5423 -0.0716
 9604TIP3    H150303   4.435   5.926  16.846  0.2648  1.0287  1.1474
 9604TIP3    H250304   4.366   6.060  16.865  0.7740  1.3866  0.5122
 9605TIP3   OH250305   1.987   3.712   3.093  0.5334  0.2062  0.3512
 9605TIP3    H150306   1.957   3.622   3.106 -1.2902  0.5217 -1.1982
 9605TIP3    H250307   1.985   3.751   3.180 -1.0200 -0.6036  0.7243
 9606TIP3   OH250308   3.133   3.594  14.788 -0.0443  0.7348  0.4134
 9606TIP3    H150309   3.133   3.558  14.699  0.7223  0.6869  0.4308
 9606TIP3    H250310   3.059   3.551  14.831 -2.8343  3.3974 -1.2687
 9607TIP3   OH250311   4.242   6.357  14.050  0.3032 -0.3811  0.1657
 9607TIP3    H150312   4.279   6.339  14.137 -1.9448 -0.1739  1.2428
 9607TIP3    H250313   4.174   6.422  14.067 -0.7558 -0.9749 -1.6326
 9608TIP3   OH250314   6.073   2.716  11.811  0.0488 -0.4144  0.4677
 9608TIP3    H150315   6.061   2.642  11.871  1.6605 -0.2854  1.0018
 9608TIP3    H250316   6.155   2.757  11.840 -0.3924  1.1044 -0.3227
 9609TIP3   OH250317   5.421   6.672  14.532 -0.1406  0.2669 -0.7869
 9609TIP3    H150318   5.366   6.747  14.556  0.3934  0.1382  0.9706
 9609TIP3    H250319   5.358   6.601  14.515 -0.6801  1.2254 -3.0908
 9610TIP3   OH250320   5.631   3.708   3.494 -0.0507  0.7355  0.0616
 9610TIP3    H150321   5.546   3.708   3.538  0.3977  2.2818  1.0371
 9610TIP3    H250322   5.637   3.795   3.454  1.3689  0.9230  0.6315
 9611TIP3   OH250323   6.517   1.425   6.318  0.3944 -0.0654 -0.4490
 9611TIP3    H150324   6.492   1.484   6.247 -1.1819 -1.5234 -1.1880
 9611TIP3    H250325   6.528   1.482   6.394 -0.7577  1.2376 -1.2092
 9612TIP3   OH250326   0.735   2.235   6.245  0.1789 -0.0046  0.5118
 9612TIP3    H150327   0.653   2.284   6.251 -0.6775 -1.3507  0.3155
 9612TIP3    H250328   0.726   2.164   6.309  0.4214 -1.1871 -0.6996
 9613TIP3   OH250329   0.781   1.944  15.650 -0.2484  0.0996 -0.1408
 9613TIP3    H150330   0.740   2.021  15.610  0.0447  0.2161 -0.2285
 9613TIP3    H250331   0.853   1.923  15.590 -0.6145 -0.5298 -0.3662
 9614TIP3   OH250332   5.206   3.001   0.623  0.3569 -0.4974 -0.5146
 9614TIP3    H150333   5.280   2.940   0.625  0.0919 -0.8664 -1.6500
 9614TIP3    H250334   5.238   3.078   0.671  2.3338  0.2764 -2.9038
 9615TIP3   OH250335   3.290   3.472  11.367 -0.7403 -0.0760  0.4676
 9615TIP3    H150336   3.236   3.433  11.436 -0.7482  0.7140  0.9138
 9615TIP3    H250337   3.343   3.538  11.412  0.1370 -0.3814 -0.0739
 9616TIP3   OH250338   1.509   4.727  12.792  0.4876 -0.1575  0.0277
 9616TIP3    H150339   1.490   4.742  12.700  0.0141  0.1771  0.1713
 9616TIP3    H250340   1.525   4.815  12.828  3.7639 -0.4719 -0.3485
 9617TIP3   OH250341   2.624   3.464   1.409 -0.4434 -0.0467 -0.5206
 9617TIP3    H150342   2.561   3.443   1.478  1.2879  1.3882  1.6063
 9617TIP3    H250343   2.572   3.510   1.343 -1.7355  0.7095  0.9537
 9618TIP3   OH250344   0.946   4.914   4.345 -0.0884  0.1493 -0.6694
 9618TIP3    H150345   0.867   4.887   4.298  0.1732  0.6193 -1.3995
 9618TIP3    H250346   1.007   4.942   4.276  1.1758 -1.3548 -0.2232
 9619TIP3   OH250347   4.618   3.062   3.043  0.7014 -0.1475 -0.4789
 9619TIP3    H150348   4.591   2.971   3.035  0.6708 -0.0027 -2.6783
 9619TIP3    H250349   4.539   3.113   3.025  1.0374  0.3060 -0.6889
 9620TIP3   OH250350   4.813   5.291   4.437 -0.4382  0.0588 -0.0959
 9620TIP3    H150351   4.897   5.337   4.432 -0.0570 -0.6917 -1.1058
 9620TIP3    H250352   4.761   5.342   4.499  1.3039 -0.3327  1.8031
 9621TIP3   OH250353   4.130   0.949  13.261  0.5739  0.0748  0.1907
 9621TIP3    H150354   4.173   0.865  13.242  1.0802 -0.1591  2.1241
 9621TIP3    H250355   4.043   0.941  13.222  0.8548 -1.0915 -0.2365
 9622TIP3   OH250356   4.305   6.479  16.004  0.0434 -1.0041 -0.1549
 9622TIP3    H150357   4.315   6.555  16.061 -1.2619 -0.1265 -1.0503
 9622TIP3    H250358   4.236   6.427  16.045  0.7108 -1.5737  0.2817
 9623TIP3   OH250359   2.388   4.385   0.584 -0.4217  0.9034  0.2937
 9623TIP3    H150360   2.424   4.316   0.528  1.2983  0.8719  1.3677
 9623TIP3    H250361   2.411   4.358   0.673 -1.5289  1.8500  0.9015
 9624TIP3   OH250362   1.277   3.868  11.815  0.2046  0.2826  0.4103
 9624TIP3    H150363   1.296   3.859  11.908 -0.5807 -1.9656  0.4163
 9624TIP3    H250364   1.325   3.797  11.773  0.0815  0.8990 -0.8372
 9625TIP3   OH250365   3.551   0.026   2.769 -0.1458 -0.5026 -0.0304
 9625TIP3    H150366   3.549   0.043   2.864 -2.2084  0.7893 -0.2463
 9625TIP3    H250367   3.601   0.099   2.733 -2.7891  1.3410 -0.2459
 9626TIP3   OH250368   1.782   0.697   6.294 -0.6593 -0.3368 -0.3668
 9626TIP3    H150369   1.855   0.743   6.336 -0.9078  1.6124 -1.9613
 9626TIP3    H250370   1.824   0.629   6.241 -0.0960 -0.1740 -0.1375
 9627TIP3   OH250371   5.748   4.528   2.833 -0.0555  0.1352 -0.3703
 9627TIP3    H150372   5.721   4.506   2.922 -1.9862  1.4488 -0.5684
 9627TIP3    H250373   5.784   4.447   2.797 -0.6624 -0.8066  1.0999
 9628TIP3   OH250374   0.073   2.042   1.207 -0.4941 -0.1008  0.0512
 9628TIP3    H150375   0.071   2.122   1.154  0.5346 -0.2043 -0.1565
 9628TIP3    H250376   0.125   2.065   1.283  1.2957 -1.0408 -0.8327
 9629TIP3   OH250377   4.848   1.916  16.097  0.2814 -0.2397  0.0097
 9629TIP3    H150378   4.846   2.003  16.057 -0.0805 -0.7340 -1.0605
 9629TIP3    H250379   4.941   1.902  16.118  0.2676  0.6329  0.7393
 9630TIP3   OH250380   4.101   4.145  16.140 -0.1826  0.2784 -0.0941
 9630TIP3    H150381   4.131   4.074  16.083 -0.6264 -1.0994  1.3045
 9630TIP3    H250382   4.152   4.221  16.113 -0.2920 -0.3328 -2.2193
 9631TIP3   OH250383   1.167   1.019  16.756 -0.0869  0.6986  0.4945
 9631TIP3    H150384   1.186   0.953  16.823  0.6969  1.1005  0.6855
 9631TIP3    H250385   1.098   0.980  16.702  0.4184 -0.3110  0.5591
 9632TIP3   OH250386   5.582   4.159   0.233 -0.3775 -0.4277 -0.0978
 9632TIP3    H150387   5.615   4.069   0.228  2.7609  0.6478 -0.9201
 9632TIP3    H250388   5.598   4.185   0.324 -0.6611 -0.4548 -0.0378
 9633TIP3   OH250389   3.318   2.300  13.782 -0.5235  0.4200 -0.0135
 9633TIP3    H150390   3.282   2.341  13.861 -0.7919 -0.2411  0.2143
 9633TIP3    H250391   3.390   2.357  13.756 -2.1370  2.2009 -0.8891
 9634TIP3   OH250392   6.496   3.629  15.894  0.6342  0.0084 -0.7030
 9634TIP3    H150393   6.564   3.690  15.922  1.2674 -0.1741 -1.7805
 9634TIP3    H250394   6.543   3.547  15.876 -0.0919 -0.5668 -0.0363
 9635TIP3   OH250395   6.763   0.244   0.467 -0.3025  0.3479  0.1811
 9635TIP3    H150396   6.766   0.319   0.526 -1.0493 -0.1229  0.8472
 9635TIP3    H250397   6.713   0.275   0.391  0.1747  0.7902  0.0469
 9636TIP3   OH250398   2.321   5.477  17.175 -0.2530 -0.1775  0.8573
 9636TIP3    H150399   2.244   5.499  17.227  0.1854 -1.0787  1.9186
 9636TIP3    H250400   2.380   5.432  17.236  0.9043  0.0427 -0.0576
 9637TIP3   OH250401   1.852   1.664  14.247  0.2719 -0.0422  0.0216
 9637TIP3    H150402   1.763   1.628  14.245  0.3140 -0.3728  1.9434
 9637TIP3    H250403   1.903   1.606  14.190 -0.3476 -1.0660  0.4788
 9638TIP3   OH250404   6.284   5.038   1.223 -0.1334  0.3137  0.3621
 9638TIP3    H150405   6.259   5.008   1.311 -0.4249 -0.4175  0.0351
 9638TIP3    H250406   6.255   4.968   1.165 -1.7975  1.6869 -0.5350
 9639TIP3   OH250407   3.884   1.212   4.893  0.3018  0.0513 -0.2134
 9639TIP3    H150408   3.822   1.171   4.954  0.7110 -1.2670 -0.6361
 9639TIP3    H250409   3.958   1.151   4.891  1.5245  1.4706  0.0943
 9640TIP3   OH250410   0.869   3.654  13.622 -0.0770  0.2548  0.5817
 9640TIP3    H150411   0.961   3.661  13.596  0.2383 -1.9061  0.9868
 9640TIP3    H250412   0.847   3.742  13.652  1.8608  0.8233  0.5017
 9641TIP3   OH250413   6.087   2.536   3.102  0.1047 -0.1389 -0.0612
 9641TIP3    H150414   6.074   2.608   3.040  0.3497 -0.6469 -0.7134
 9641TIP3    H250415   6.133   2.576   3.176  0.6187  0.2816 -0.6008
 9642TIP3   OH250416   4.664   0.793   2.207  0.0073 -0.0761  0.2943
 9642TIP3    H150417   4.577   0.795   2.249  0.3393  1.8028  1.0050
 9642TIP3    H250418   4.645   0.797   2.113 -0.6787 -0.7679  0.3898
 9643TIP3   OH250419   1.785   6.395   4.529 -0.7148 -0.2558  0.2018
 9643TIP3    H150420   1.753   6.369   4.443  0.8392 -1.1139 -0.1612
 9643TIP3    H250421   1.751   6.483   4.543 -0.8195 -0.0327 -1.3747
 9644TIP3   OH250422   3.306   5.953  15.189  0.3834 -0.0530  0.2260
 9644TIP3    H150423   3.366   5.901  15.243  0.1577 -1.9398 -1.2066
 9644TIP3    H250424   3.326   6.044  15.211 -0.1208 -0.6584  3.8796
 9645TIP3   OH250425   0.408   5.335   4.490  0.3850  0.4500  0.8639
 9645TIP3    H150426   0.461   5.399   4.443  1.4799 -0.3863  0.9171
 9645TIP3    H250427   0.408   5.258   4.433 -0.5331  0.3270  1.0127
 9646TIP3   OH250428   0.491   3.510   1.311 -0.3519 -0.1226 -0.1807
 9646TIP3    H150429   0.563   3.469   1.264  0.9602  1.2778  0.5425
 9646TIP3    H250430   0.469   3.587   1.260 -1.2011 -0.4141 -0.2734
 9647TIP3   OH250431   1.272   6.322  16.771  0.3905  0.7366  0.3638
 9647TIP3    H150432   1.217   6.398  16.791 -0.5539  0.1686 -0.0293
 9647TIP3    H250433   1.353   6.360  16.735 -0.3187  1.5479 -0.4388
 9648TIP3   OH250434   3.858   6.143   0.820  0.2274 -0.0703 -0.5397
 9648TIP3    H150435   3.889   6.224   0.861 -0.8955  0.5449 -0.8641
 9648TIP3    H250436   3.888   6.073   0.878 -0.5919  0.7269  0.8942
 9649TIP3   OH250437   4.094   5.935  11.607 -0.2181  0.0614  0.8290
 9649TIP3    H150438   4.165   5.963  11.665 -1.5094 -2.1501  3.7550
 9649TIP3    H250439   4.138   5.901  11.529  1.8197  0.3663  1.7807
 9650TIP3   OH250440   1.481   1.979  13.197 -0.4288  0.3077  0.2432
 9650TIP3    H150441   1.419   2.049  13.174 -3.0762 -2.2698 -1.0555
 9650TIP3    H250442   1.442   1.937  13.273 -0.3138 -1.3722 -0.5941
 9651TIP3   OH250443   1.294   4.655  11.661 -0.2834  0.2103  0.3982
 9651TIP3    H150444   1.317   4.617  11.746  0.9785 -1.7837 -0.7445
 9651TIP3    H250445   1.351   4.731  11.652 -0.0328  0.1146  1.1201
 9652TIP3   OH250446   0.590   3.496   6.554 -0.1469  0.0898 -0.6954
 9652TIP3    H150447   0.517   3.446   6.592  0.5714 -0.8635 -0.5362
 9652TIP3    H250448   0.598   3.573   6.611  0.9226 -1.3189  1.1838
 9653TIP3   OH250449   3.786   0.366  15.701  0.3429 -0.5404  0.0840
 9653TIP3    H150450   3.849   0.436  15.682  0.9818 -0.8344  1.0500
 9653TIP3    H250451   3.791   0.308  15.625 -0.6949  0.7879 -1.0502
 9654TIP3   OH250452   0.877   0.470   4.280 -0.0020  0.4037  0.3573
 9654TIP3    H150453   0.948   0.506   4.227 -1.4530 -0.4703 -2.4144
 9654TIP3    H250454   0.919   0.405   4.336  1.5162  0.5513 -0.5590
 9655TIP3   OH250455   6.014   6.314   0.145 -0.1153 -0.4857  0.0413
 9655TIP3    H150456   5.989   6.225   0.122  0.9391 -1.0461  0.9970
 9655TIP3    H250457   5.975   6.368   0.076 -0.4665 -1.7109 -0.7522
 9656TIP3   OH250458   3.097   3.671  16.590  0.2685 -0.0638 -0.1811
 9656TIP3    H150459   3.188   3.653  16.568  0.1973  2.1633 -2.7340
 9656TIP3    H250460   3.101   3.736  16.660  0.7407  1.5872 -1.6793
 9657TIP3   OH250461   1.173   0.669   1.028  0.0188  0.1335 -0.3204
 9657TIP3    H150462   1.243   0.609   1.056 -0.7222 -0.4212  0.3882
 9657TIP3    H250463   1.147   0.637   0.942 -0.3546 -0.5648  0.0422
 9658TIP3   OH250464   5.629   5.171   0.472 -0.2943  0.4310  0.2930
 9658TIP3    H150465   5.654   5.123   0.393 -0.9399 -0.2582  0.4917
 9658TIP3    H250466   5.566   5.237   0.441  0.2258  0.8378  0.0901
 9659TIP3   OH250467   3.083   5.505  17.263 -0.2581  0.0093  0.1548
 9659TIP3    H150468   2.999   5.545  17.242 -0.2214 -0.3469 -0.7081
 9659TIP3    H250469   3.146   5.577  17.262 -0.3728  0.1050 -0.3069
 9660TIP3   OH250470   6.311   1.831   3.821 -0.1307 -0.2846  0.0904
 9660TIP3    H150471   6.316   1.913   3.772  2.1007  0.3691  1.2631
 9660TIP3    H250472   6.338   1.855   3.910 -1.5441 -1.9155  1.0284
 9661TIP3   OH250473   1.917   4.755   5.353 -0.3159 -0.1204 -0.0443
 9661TIP3    H150474   1.837   4.780   5.308  0.4747  0.8526 -0.9654
 9661TIP3    H250475   1.911   4.660   5.362 -1.9391  0.0144  0.6620
 9662TIP3   OH250476   3.824   5.286  17.259  0.5303  0.9669 -0.5978
 9662TIP3    H150477   3.782   5.371  17.251  1.4974  1.4521 -0.6518
 9662TIP3    H250478   3.889   5.297  17.328 -0.7698 -0.3375  0.9337
 9663TIP3   OH250479   0.484   1.462   3.549 -0.4140 -0.1983 -0.3727
 9663TIP3    H150480   0.520   1.506   3.472 -1.7872  0.2784 -0.7735
 9663TIP3    H250481   0.400   1.428   3.519 -0.7764 -0.3683  0.8158
 9664TIP3   OH250482   4.056   1.290  12.916  0.2488 -0.1432  0.2750
 9664TIP3    H150483   4.045   1.202  12.879  0.8526 -0.0961 -0.0252
 9664TIP3    H250484   4.027   1.281  13.007  1.2505 -0.9028  0.5450
 9665TIP3   OH250485   0.797   4.279  16.502  0.1312  0.2661 -0.3366
 9665TIP3    H150486   0.824   4.313  16.416 -2.4217 -0.1886 -1.3933
 9665TIP3    H250487   0.852   4.201  16.514  1.5610  1.1439 -0.8277
 9666TIP3   OH250488   2.779   1.981  13.006 -0.0707  0.5358  0.3161
 9666TIP3    H150489   2.786   1.901  13.059  1.4721 -0.6306 -1.5329
 9666TIP3    H250490   2.847   2.039  13.040  1.1486 -0.3448 -0.5467
 9667TIP3   OH250491   0.360   1.023   4.985  0.1755  0.3681 -0.3111
 9667TIP3    H150492   0.454   1.036   4.973  0.2700  0.7317  0.7125
 9667TIP3    H250493   0.319   1.098   4.942  0.2514 -0.5259 -2.0353
 9668TIP3   OH250494   5.853   4.024   6.290  0.6046 -0.1462  0.2032
 9668TIP3    H150495   5.908   3.993   6.218 -1.4511 -0.8477 -1.1357
 9668TIP3    H250496   5.763   4.008   6.261 -0.3135 -0.7193  3.0378
 9669TIP3   OH250497   2.161   4.689  11.631 -0.5333  0.0600 -0.1233
 9669TIP3    H150498   2.213   4.720  11.705  0.4840  0.2927 -0.9235
 9669TIP3    H250499   2.093   4.635  11.672 -2.5513  3.3956  1.3593
 9670TIP3   OH250500   0.912   3.467  15.858  0.0272 -0.1838 -0.0660
 9670TIP3    H150501   0.829   3.496  15.820  0.1213 -0.6580 -0.6463
 9670TIP3    H250502   0.887   3.401  15.923 -0.1904  1.1823  1.2915
 9671TIP3   OH250503   3.366   1.632  12.256  0.1879  0.0531 -0.1086
 9671TIP3    H150504   3.357   1.655  12.163  1.6548  1.9159  0.1586
 9671TIP3    H250505   3.322   1.547  12.264  0.9734 -0.6948 -2.7428
 9672TIP3   OH250506   4.640   2.599   2.587 -0.1220 -0.0394  0.0414
 9672TIP3    H150507   4.644   2.608   2.682  0.3107  1.7443 -0.1038
 9672TIP3    H250508   4.728   2.572   2.561 -0.1892 -0.3429  0.1304
 9673TIP3   OH250509   6.740   4.102  12.343  0.0677  0.0807  0.0282
 9673TIP3    H150510   6.744   4.104  12.247 -0.2468 -1.9720 -0.0759
 9673TIP3    H250511   6.831   4.101  12.370  0.1662 -0.1614 -0.2972
 9674TIP3   OH250512   1.677   0.101  12.029  1.0218 -0.1509  0.2555
 9674TIP3    H150513   1.591   0.058  12.019  0.9501  0.0972 -0.2243
 9674TIP3    H250514   1.731   0.061  11.961  1.2087 -0.0995  0.3739
 9675TIP3   OH250515   1.575   0.726  14.028  0.0023 -0.4584 -1.1173
 9675TIP3    H150516   1.557   0.693  13.940  1.0243  0.9565 -1.9034
 9675TIP3    H250517   1.670   0.720  14.037 -0.1801 -1.5729  0.3320
 9676TIP3   OH250518   1.514   3.164   1.763  0.0748  0.0409  0.0557
 9676TIP3    H150519   1.584   3.205   1.813 -1.0818  4.2413 -1.3942
 9676TIP3    H250520   1.553   3.083   1.729  2.6843 -0.0776  2.8840
 9677TIP3   OH250521   2.589   3.620   5.034  0.1594 -0.0169  0.1936
 9677TIP3    H150522   2.497   3.602   5.017  0.3224 -0.6656 -0.0384
 9677TIP3    H250523   2.621   3.542   5.079  0.8950 -0.3361 -0.8602
 9678TIP3   OH250524   5.708   1.667   5.476 -0.3537 -0.4956  0.6285
 9678TIP3    H150525   5.761   1.737   5.516 -0.7950 -0.2257  0.7511
 9678TIP3    H250526   5.734   1.588   5.523  0.4102 -0.4804  0.2476
 9679TIP3   OH250527   6.217   2.979  12.730 -0.0769  0.1610 -0.6872
 9679TIP3    H150528   6.145   2.953  12.672 -1.9257  1.4139  0.9536
 9679TIP3    H250529   6.238   3.068  12.703  2.2265 -0.7690 -2.3625
 9680TIP3   OH250530   3.102   1.096   3.714  0.1007  0.5620  0.3363
 9680TIP3    H150531   3.145   1.160   3.657  1.0250  1.4818  2.0063
 9680TIP3    H250532   3.172   1.037   3.742  0.2417  1.6635  2.5231
 9681TIP3   OH250533   2.980   3.803   0.936  0.1948  0.1343  0.1056
 9681TIP3    H150534   2.950   3.858   0.864  0.8344 -0.3344 -0.5446
 9681TIP3    H250535   2.906   3.798   0.996 -1.0048 -0.9083 -1.3871
 9682TIP3   OH250536   4.451   2.914   1.898  0.3129  0.5108 -0.5818
 9682TIP3    H150537   4.369   2.869   1.917 -0.7057  2.4487 -0.1330
 9682TIP3    H250538   4.515   2.871   1.955 -0.4920 -0.6927 -0.5541
 9683TIP3   OH250539   3.547   2.583  13.779  0.3396 -0.7875  0.8292
 9683TIP3    H150540   3.520   2.555  13.691  0.5453 -1.4078  0.9585
 9683TIP3    H250541   3.465   2.599  13.825  0.2343  0.0332  0.3750
 9684TIP3   OH250542   3.885   1.163   3.885  0.2478 -0.6293 -0.0364
 9684TIP3    H150543   3.864   1.235   3.946  1.9070  0.0152 -0.1645
 9684TIP3    H250544   3.928   1.098   3.940  0.8320 -0.4904 -0.3204
 9685TIP3   OH250545   4.609   6.638  14.541  0.1523  0.9174  0.0430
 9685TIP3    H150546   4.561   6.721  14.543  0.5401  1.1411  1.4401
 9685TIP3    H250547   4.581   6.595  14.460  0.2973  2.6137 -0.9506
 9686TIP3   OH250548   0.218   2.664  10.757 -0.2672 -0.3081  0.3719
 9686TIP3    H150549   0.309   2.666  10.729 -0.5542  0.8532 -0.5554
 9686TIP3    H250550   0.191   2.756  10.758 -1.5212 -0.6503  0.2972
 9687TIP3   OH250551   3.050   5.620  11.589  0.2367  0.1313  0.0536
 9687TIP3    H150552   3.026   5.582  11.505  0.4888  1.1413 -0.4776
 9687TIP3    H250553   3.049   5.714  11.575 -0.7205  0.3708  1.4451
 9688TIP3   OH250554   3.664   5.258   1.065  0.3022  0.1454 -0.1207
 9688TIP3    H150555   3.687   5.166   1.075 -0.4183 -0.1189 -0.7911
 9688TIP3    H250556   3.579   5.266   1.108  0.1451  0.3873 -0.4698
 9689TIP3   OH250557   4.507   5.327  13.442 -0.1675  0.3954  0.3979
 9689TIP3    H150558   4.426   5.313  13.491 -0.0770  3.9649  1.8627
 9689TIP3    H250559   4.481   5.382  13.368  0.3484 -1.8132 -1.5564
 9690TIP3   OH250560   3.414   6.441   5.929 -0.0341  0.0947 -0.3801
 9690TIP3    H150561   3.445   6.366   5.879  0.0719  0.4520 -0.8638
 9690TIP3    H250562   3.441   6.517   5.877 -0.5561  0.4506 -0.1434
 9691TIP3   OH250563   1.662   3.880   1.079  0.7643 -0.4524  0.0423
 9691TIP3    H150564   1.698   3.964   1.109 -0.4633 -0.3297  1.2801
 9691TIP3    H250565   1.656   3.889   0.984 -0.0982  1.1944  0.2117
 9692TIP3   OH250566   4.075   3.189  13.789  0.5043 -0.6073  0.3088
 9692TIP3    H150567   3.980   3.181  13.788  0.4748 -0.6332 -1.8033
 9692TIP3    H250568   4.106   3.104  13.818 -0.1096 -0.3883  1.6571
 9693TIP3   OH250569   3.038   4.057  14.201 -0.3962 -0.4723  0.0079
 9693TIP3    H150570   2.980   3.986  14.229 -1.0959  0.1604  0.1869
 9693TIP3    H250571   2.993   4.137  14.226  0.5863  0.0422  0.1954
 9694TIP3   OH250572   5.863   3.010   5.033 -0.1078  0.8262 -0.4447
 9694TIP3    H150573   5.873   2.931   5.086 -0.2672  0.3500 -1.1012
 9694TIP3    H250574   5.838   2.977   4.946  1.2100  1.5253 -1.1108
 9695TIP3   OH250575   0.791   3.860   4.473  0.1367  0.4452 -0.4762
 9695TIP3    H150576   0.740   3.779   4.464  0.4043  0.2047  0.1004
 9695TIP3    H250577   0.731   3.922   4.514  0.4791 -0.0329  0.8013
 9696TIP3   OH250578   3.943   0.715   5.458 -1.1500  0.2830  0.3813
 9696TIP3    H150579   4.035   0.693   5.475 -0.6426  1.6096 -0.4058
 9696TIP3    H250580   3.927   0.684   5.369 -2.3708 -2.4608  1.4463
 9697TIP3   OH250581   6.402   0.298   1.209  0.3307  0.3497  0.1545
 9697TIP3    H150582   6.349   0.368   1.171  2.7921  2.4146  0.2500
 9697TIP3    H250583   6.452   0.263   1.136  1.3341  0.8153  0.6000
 9698TIP3   OH250584   6.352   2.729  12.844 -0.2357  0.3964 -0.2652
 9698TIP3    H150585   6.409   2.797  12.810 -0.4282  0.4886 -0.4112
 9698TIP3    H250586   6.411   2.667  12.887  0.0271  0.2414 -0.8322
 9699TIP3   OH250587   1.421   3.684  16.661 -0.0595  0.0489 -0.1508
 9699TIP3    H150588   1.355   3.615  16.669  0.7194 -0.7014  0.0251
 9699TIP3    H250589   1.423   3.725  16.748 -1.2366  0.9825 -0.5434
 9700TIP3   OH250590   2.255   0.011   3.437 -0.0701  0.2807 -0.2520
 9700TIP3    H150591   2.280   0.034   3.526  1.8445 -1.0341 -0.4049
 9700TIP3    H250592   2.309   0.067   3.381  0.6407 -0.7061 -0.5763
 9701TIP3   OH250593   0.498   2.797  10.392  0.2996  0.4081  0.0252
 9701TIP3    H150594   0.417   2.791  10.342 -0.0338 -2.9301  0.7042
 9701TIP3    H250595   0.567   2.810  10.327 -0.4765 -0.2459 -0.9502
 9702TIP3   OH250596   3.801   1.101   2.619  0.2898 -0.8125 -0.1722
 9702TIP3    H150597   3.861   1.091   2.545 -0.5980 -1.2938 -0.8539
 9702TIP3    H250598   3.714   1.088   2.581 -0.5266  2.6614  0.2223
 9703TIP3   OH250599   0.181   0.465  11.568  0.5039 -0.5278  0.2372
 9703TIP3    H150600   0.086   0.469  11.559  0.6721  0.6310 -1.6817
 9703TIP3    H250601   0.201   0.372  11.566 -0.6953 -0.9151  2.7859
 9704TIP3   OH250602   3.556   5.330  10.853  0.9640 -0.6166 -0.0994
 9704TIP3    H150603   3.558   5.381  10.773  0.2131  0.5680  0.6154
 9704TIP3    H250604   3.573   5.240  10.824  1.1639 -0.1484 -1.5141
 9705TIP3   OH250605   0.036   1.714  16.210 -0.5382  0.1965 -0.4360
 9705TIP3    H150606  -0.007   1.785  16.163  0.3280  0.6196 -0.5958
 9705TIP3    H250607  -0.027   1.688  16.276 -1.2972  0.3866 -1.0675
 9706TIP3   OH250608   3.139   4.605   4.864 -0.3681 -0.3290  0.1771
 9706TIP3    H150609   3.076   4.534   4.878 -0.3738 -0.7704 -1.7636
 9706TIP3    H250610   3.092   4.684   4.891 -1.1412 -0.8406  0.3700
 9707TIP3   OH250611   2.418   6.331  12.784  0.0783  0.1987  0.6157
 9707TIP3    H150612   2.512   6.345  12.782  0.2473 -0.8357  0.8920
 9707TIP3    H250613   2.406   6.241  12.754 -0.7440 -0.0144  1.5425
 9708TIP3   OH250614   5.963   1.218   4.256 -0.3767  0.4081  0.5615
 9708TIP3    H150615   5.873   1.187   4.268 -0.7988  0.9385 -0.9088
 9708TIP3    H250616   5.975   1.219   4.161  1.7467 -1.1382  0.7496
 9709TIP3   OH250617   3.930   0.395   4.098  1.1079 -0.2261  0.3254
 9709TIP3    H150618   3.946   0.441   4.180  2.5606 -0.9743  0.4900
 9709TIP3    H250619   4.010   0.406   4.047  0.5099 -0.4074 -0.6872
 9710TIP3   OH250620   4.667   4.700   5.981 -0.2362 -0.2007 -0.2386
 9710TIP3    H150621   4.730   4.747   6.036  1.7366 -1.7964 -0.9805
 9710TIP3    H250622   4.642   4.623   6.032 -0.5461 -0.2539 -0.4670
 9711TIP3   OH250623   5.528   3.748  11.368  0.2977 -0.0134  0.7055
 9711TIP3    H150624   5.598   3.813  11.365  0.4705 -0.2029  0.6114
 9711TIP3    H250625   5.527   3.716  11.458  1.2070 -0.9577  0.3952
 9712TIP3   OH250626   2.221   1.063  14.670  0.2729  0.4601  0.1430
 9712TIP3    H150627   2.276   0.993  14.634  0.0795  0.3806  0.0002
 9712TIP3    H250628   2.166   1.090  14.597 -1.1794 -0.7121  0.7278
 9713TIP3   OH250629   5.307   6.656  12.581  1.1533 -0.1973  0.2124
 9713TIP3    H150630   5.308   6.712  12.503 -1.7891 -1.3803 -0.8204
 9713TIP3    H250631   5.317   6.716  12.654  0.1369  1.4393 -0.9251
 9714TIP3   OH250632   5.405   1.707   1.501  0.1429 -0.2804 -0.2994
 9714TIP3    H150633   5.370   1.735   1.416  1.2689  0.2817 -0.5961
 9714TIP3    H250634   5.371   1.771   1.563 -0.4455 -0.5212 -0.3713
 9715TIP3   OH250635   1.790   2.094  15.468 -0.1455 -0.1065 -0.9100
 9715TIP3    H150636   1.884   2.107  15.454 -0.0908  1.1324  0.3506
 9715TIP3    H250637   1.748   2.146  15.400  0.0909 -0.1066 -1.0582
 9716TIP3   OH250638   5.653   2.986  17.290  0.6757  0.9833 -0.1419
 9716TIP3    H150639   5.584   2.920  17.281 -0.2803  1.7209  1.3233
 9716TIP3    H250640   5.633   3.030  17.372  2.8381  1.3281  0.2616
 9717TIP3   OH250641   0.285   4.024   1.970  0.0280  0.0825 -0.1630
 9717TIP3    H150642   0.312   4.066   1.889  2.0178  0.4186  0.6027
 9717TIP3    H250643   0.287   3.930   1.951 -0.5988  0.1900 -0.7873
 9718TIP3   OH250644   0.930   1.156  16.927 -0.6809 -0.3832 -0.3065
 9718TIP3    H150645   0.940   1.106  16.846  0.7320 -1.3679  0.4242
 9718TIP3    H250646   0.907   1.244  16.899  0.7984 -0.4354 -1.8429
 9719TIP3   OH250647   3.149   6.332   4.557  0.4163 -0.3674 -0.9405
 9719TIP3    H150648   3.157   6.409   4.613  0.4687 -0.2103 -1.1624
 9719TIP3    H250649   3.239   6.300   4.547  0.2617 -1.2443  0.2350
 9720TIP3   OH250650   2.192   1.256  16.529  0.4125 -0.6950  0.5993
 9720TIP3    H150651   2.187   1.187  16.595  1.2867 -0.8033  0.5636
 9720TIP3    H250652   2.286   1.275  16.522  0.3364 -0.7228 -0.6483
 9721TIP3   OH250653   2.880   1.920   1.870 -0.2497 -1.1605  0.2818
 9721TIP3    H150654   2.846   1.889   1.954  1.3066 -2.3269  0.5086
 9721TIP3    H250655   2.838   1.864   1.805 -2.2942  0.4340  0.1198
 9722TIP3   OH250656   0.952   1.998  16.254 -0.0920  0.0136  0.5444
 9722TIP3    H150657   0.875   1.943  16.239 -0.7154  0.8488  0.5923
 9722TIP3    H250658   1.022   1.955  16.205 -0.8525 -0.1801 -0.4122
 9723TIP3   OH250659   5.726   4.785  14.823 -0.3852  0.4065 -0.4910
 9723TIP3    H150660   5.661   4.851  14.796  0.4543  0.8455 -1.5062
 9723TIP3    H250661   5.674   4.712  14.856 -1.3625  1.2512 -0.1012
 9724TIP3   OH250662   4.029   3.665   5.066 -0.2853  0.2667 -0.7526
 9724TIP3    H150663   4.086   3.740   5.083 -1.2107  0.6180  0.9480
 9724TIP3    H250664   3.940   3.700   5.069 -0.7490 -0.9203  0.2520
 9725TIP3   OH250665   2.103   4.442   5.117 -0.6979 -0.2895 -0.0135
 9725TIP3    H150666   2.151   4.523   5.132  0.3278 -0.8026 -0.4186
 9725TIP3    H250667   2.119   4.390   5.196  0.3150 -0.8793 -0.5851
 9726TIP3   OH250668   3.408   2.849  16.255  0.3663  0.0094  0.3462
 9726TIP3    H150669   3.492   2.892  16.239 -0.0445  0.2719 -1.2430
 9726TIP3    H250670   3.399   2.850  16.350  1.6188  1.0156  0.4851
 9727TIP3   OH250671   0.178   3.476  14.424  0.0689 -0.2168  0.3273
 9727TIP3    H150672   0.145   3.491  14.336  1.4341 -0.3332 -0.2389
 9727TIP3    H250673   0.269   3.449  14.411  0.3348 -0.1248  1.7830
 9728TIP3   OH250674   3.298   1.611  15.486  0.0047  0.5776  0.2416
 9728TIP3    H150675   3.245   1.574  15.556  0.0353 -1.6550 -0.8309
 9728TIP3    H250676   3.246   1.598  15.407  1.6920 -0.8902 -0.7158
 9729TIP3   OH250677   6.511   5.819   5.628 -0.0151  0.0460  0.1229
 9729TIP3    H150678   6.556   5.842   5.547 -1.0531 -1.6503 -0.9925
 9729TIP3    H250679   6.425   5.860   5.620 -0.3342 -0.6211  0.0762
 9730TIP3   OH250680   4.852   4.805   6.147 -0.1896  0.2975 -0.2343
 9730TIP3    H150681   4.840   4.897   6.171 -0.6109 -0.1701  1.4381
 9730TIP3    H250682   4.928   4.776   6.198 -0.2284 -0.3584 -0.5311
 9731TIP3   OH250683   3.573   2.909   1.740  0.8753 -0.2659  0.2426
 9731TIP3    H150684   3.632   2.851   1.690  1.1999  1.5990 -1.6937
 9731TIP3    H250685   3.630   2.952   1.804  0.8537 -1.1758  0.8954
 9732TIP3   OH250686   2.617   3.916  11.421 -0.3861 -0.2648 -0.0175
 9732TIP3    H150687   2.574   3.984  11.473  0.1969 -0.0191  0.1567
 9732TIP3    H250688   2.678   3.965  11.365  0.7717 -0.7199  0.8262
 9733TIP3   OH250689   3.236   5.698   0.988 -0.0677 -0.2025  0.2239
 9733TIP3    H150690   3.255   5.654   1.071 -0.2614 -2.2094 -0.7353
 9733TIP3    H250691   3.141   5.710   0.989 -0.1143 -0.5480  0.1524
 9734TIP3   OH250692   1.576   0.864   6.218 -0.3206 -0.0124 -0.2752
 9734TIP3    H150693   1.499   0.850   6.273 -1.2191  1.5431 -1.0754
 9734TIP3    H250694   1.640   0.800   6.249 -1.0784  0.2690  2.0109
 9735TIP3   OH250695   5.598   0.362   4.000  0.3024 -0.5671  0.0488
 9735TIP3    H150696   5.554   0.399   3.923 -0.8834  1.3569  1.5517
 9735TIP3    H250697   5.628   0.276   3.971 -2.8487 -1.2568 -1.6723
 9736TIP3   OH250698   4.593   3.780   2.999 -0.2537  0.3366  0.6584
 9736TIP3    H150699   4.581   3.797   3.092 -0.0054 -0.8560  0.9345
 9736TIP3    H250700   4.507   3.751   2.969  0.4149 -2.8366  1.3919
 9737TIP3   OH250701   2.052   4.117  16.218 -0.4709  0.1168 -0.1385
 9737TIP3    H150702   1.974   4.164  16.247 -0.7973  1.4303 -2.8839
 9737TIP3    H250703   2.030   4.025  16.231 -0.6729  0.5126  3.2757
 9738TIP3   OH250704   4.689   1.236   4.053 -0.0598  0.3805  0.0271
 9738TIP3    H150705   4.704   1.206   4.142  2.6571 -0.7668 -0.7164
 9738TIP3    H250706   4.633   1.169   4.014  0.3807 -0.1575  0.3118
 9739TIP3   OH250707   0.753   2.445   3.178 -0.0594 -0.4259 -0.1036
 9739TIP3    H150708   0.675   2.494   3.153  0.9165  3.1215  3.0017
 9739TIP3    H250709   0.824   2.486   3.128  0.7576  1.4807  2.4478
 9740TIP3   OH250710   0.538   6.019  15.569  0.4345 -0.6011  0.5021
 9740TIP3    H150711   0.490   6.101  15.576  0.8425 -0.2966 -0.1224
 9740TIP3    H250712   0.474   5.956  15.536  0.2108 -0.4412  0.6314
 9741TIP3   OH250713   0.435   0.602   5.166 -0.4039 -0.3623 -0.2991
 9741TIP3    H150714   0.385   0.525   5.139 -1.4093  0.8747 -2.1019
 9741TIP3    H250715   0.371   0.657   5.212  0.1033 -0.1803  0.2042
 9742TIP3   OH250716   4.216   0.695  13.194 -0.0206 -0.0144  0.4089
 9742TIP3    H150717   4.241   0.650  13.274 -1.4641  0.3195  1.0801
 9742TIP3    H250718   4.277   0.663  13.128  0.1253 -1.5674  1.2626
 9743TIP3   OH250719   0.436   3.034  13.147 -0.1534 -0.1229 -0.6154
 9743TIP3    H150720   0.502   3.095  13.115  0.3671 -0.8086 -0.8726
 9743TIP3    H250721   0.434   3.049  13.242  0.1199  0.1433 -0.6477
 9744TIP3   OH250722   5.344   4.891   4.730  0.4216 -0.1282 -0.3601
 9744TIP3    H150723   5.378   4.854   4.812 -0.4509  1.7755  0.9421
 9744TIP3    H250724   5.264   4.937   4.756 -0.4103 -0.2966 -2.4781
 9745TIP3   OH250725   6.738   3.339   0.038  0.1454 -0.1009  0.2636
 9745TIP3    H150726   6.805   3.352   0.106  0.5541 -0.1540 -0.1257
 9745TIP3    H250727   6.788   3.323  -0.042 -0.2837  1.6457 -0.4001
 9746TIP3   OH250728   3.028   5.267   1.573  0.1643  0.0340  0.2364
 9746TIP3    H150729   3.116   5.300   1.587  0.0197  1.0532 -1.0255
 9746TIP3    H250730   3.036   5.210   1.496 -0.1036 -0.6497  0.7074
 9747TIP3   OH250731   6.110   5.427  16.481 -0.2075 -0.1220 -0.2423
 9747TIP3    H150732   6.074   5.463  16.401  0.2929  0.1228 -0.3620
 9747TIP3    H250733   6.126   5.503  16.537 -1.0808 -0.3355  0.3192
 9748TIP3   OH250734   6.016   6.673   4.442 -0.4303 -0.1530  0.6097
 9748TIP3    H150735   6.009   6.763   4.474 -2.0252  0.0829 -0.3046
 9748TIP3    H250736   6.093   6.673   4.386 -1.6544  1.2741 -1.1882
 9749TIP3   OH250737   5.510   1.297  16.520  0.6598  0.1097  0.1354
 9749TIP3    H150738   5.421   1.332  16.526  0.2943 -0.6433 -0.6983
 9749TIP3    H250739   5.563   1.372  16.491  0.4254  0.7175  1.2110
 9750TIP3   OH250740   2.485   6.175  16.499  0.2610  0.3646 -0.5387
 9750TIP3    H150741   2.472   6.191  16.406  1.5376 -0.4600 -0.8800
 9750TIP3    H250742   2.405   6.132  16.527  0.4148 -0.6368 -1.5770
 9751TIP3   OH250743   3.277   5.146  13.116 -0.3035  0.7529 -0.4338
 9751TIP3    H150744   3.189   5.167  13.085 -1.0080 -2.2151 -0.7146
 9751TIP3    H250745   3.325   5.118  13.038  0.7254  1.7352 -0.1787
 9752TIP3   OH250746   1.124   4.924  17.227  0.3683 -0.1404 -0.2651
 9752TIP3    H150747   1.186   4.961  17.165 -0.7261  0.9703 -0.7434
 9752TIP3    H250748   1.089   4.999  17.275 -0.6558 -0.7087 -0.0805
 9753TIP3   OH250749   0.780   0.565  13.535  0.1863 -0.3330 -0.0808
 9753TIP3    H150750   0.776   0.657  13.509  0.2942 -0.5486 -0.8881
 9753TIP3    H250751   0.750   0.564  13.626 -1.3085  0.3029 -0.5413
 9754TIP3   OH250752   1.964   5.232  16.880  0.1310  0.2482 -0.1191
 9754TIP3    H150753   1.992   5.155  16.830  0.8130  0.5726 -0.2468
 9754TIP3    H250754   2.042   5.259  16.927 -1.1176 -1.9106  3.6945
 9755TIP3   OH250755   5.637   1.346  14.066  0.6699 -0.4227  0.2117
 9755TIP3    H150756   5.579   1.348  14.142 -1.1388 -1.3815 -1.0865
 9755TIP3    H250757   5.695   1.272  14.083  1.4411  0.4263  1.4301
 9756TIP3   OH250758   2.798   2.839   2.034 -0.1383  0.0239 -0.2819
 9756TIP3    H150759   2.721   2.829   2.091  0.4847  0.7989  0.7227
 9756TIP3    H250760   2.797   2.931   2.009  0.0190 -0.1463 -0.9427
 9757TIP3   OH250761   2.885   6.278   1.159 -0.5290 -0.2048 -0.1381
 9757TIP3    H150762   2.854   6.241   1.076  1.1158 -0.9155 -0.4912
 9757TIP3    H250763   2.807   6.316   1.200 -1.9994 -2.5216 -0.6017
 9758TIP3   OH250764   6.448   4.046  15.357 -0.1435 -0.7208 -0.1507
 9758TIP3    H150765   6.469   3.981  15.424  1.7967  0.5478  0.5637
 9758TIP3    H250766   6.473   4.005  15.274  0.5284 -1.1154  0.2425
 9759TIP3   OH250767   4.156   4.312   5.415 -0.1402  0.2259  0.7313
 9759TIP3    H150768   4.118   4.281   5.334 -1.5132  0.8858  1.0905
 9759TIP3    H250769   4.248   4.285   5.411  0.1771  1.4231 -1.6414
 9760TIP3   OH250770   3.935   0.826  14.385 -0.3230  0.0119 -0.0151
 9760TIP3    H150771   3.889   0.877  14.318 -0.2098 -1.0154 -0.9164
 9760TIP3    H250772   4.027   0.833  14.361 -0.1198  0.8937  0.9538
 9761TIP3   OH250773   5.903   1.855   2.131  0.4120  0.0205 -0.2029
 9761TIP3    H150774   5.957   1.931   2.110 -1.8695  1.2505 -2.0777
 9761TIP3    H250775   5.897   1.855   2.226  0.9759  1.8268 -0.1363
 9762TIP3   OH250776   6.633   3.690  12.456 -0.4561 -0.1549 -0.1463
 9762TIP3    H150777   6.593   3.603  12.449 -3.4880  1.0971  0.0390
 9762TIP3    H250778   6.689   3.685  12.533 -1.8107 -1.5324  0.7959
 9763TIP3   OH250779   3.631   0.843  13.093  0.0292 -0.0292 -0.3656
 9763TIP3    H150780   3.543   0.816  13.120 -0.0912  0.7902  0.1009
 9763TIP3    H250781   3.658   0.905  13.161  0.2749  1.0488 -1.4309
 9764TIP3   OH250782   4.555   6.238  13.950 -0.3641 -0.2649 -0.4793
 9764TIP3    H150783   4.490   6.285  13.897 -0.4230 -0.4207 -0.5459
 9764TIP3    H250784   4.531   6.146  13.940  0.3877 -0.3957 -1.1982
 9765TIP3   OH250785   1.581   6.524   1.752  0.1415 -0.1729  0.2896
 9765TIP3    H150786   1.592   6.542   1.658  1.3208 -0.2015  0.4122
 9765TIP3    H250787   1.596   6.609   1.794  1.5638 -0.5400  0.5743
 9766TIP3   OH250788   5.427   0.581  12.436  0.3132  0.2396  0.1973
 9766TIP3    H150789   5.496   0.605  12.374  0.6326 -1.2157 -0.0562
 9766TIP3    H250790   5.400   0.493  12.409  0.0305 -0.1819  1.7561
 9767TIP3   OH250791   5.651   0.134   5.390  0.4044  0.5297 -0.8707
 9767TIP3    H150792   5.577   0.079   5.412  0.1189  1.2459 -0.0104
 9767TIP3    H250793   5.651   0.203   5.456  1.9279  0.4577 -0.7542
 9768TIP3   OH250794   3.386   3.235   1.463  0.4366  0.1305 -0.3079
 9768TIP3    H150795   3.412   3.213   1.373 -0.8094 -0.1842 -0.5996
 9768TIP3    H250796   3.383   3.151   1.508 -1.2057 -0.0029 -0.5981
 9769TIP3   OH250797   4.162   1.559   5.853 -0.1954  0.7398 -0.3259
 9769TIP3    H150798   4.091   1.522   5.906  2.8748 -1.6808  2.5317
 9769TIP3    H250799   4.172   1.648   5.885 -0.5698  0.3767  0.8474
 9770TIP3   OH250800   4.607   0.733   3.983 -0.6622  0.2205  0.3588
 9770TIP3    H150801   4.696   0.708   3.960 -0.7518  1.1526 -1.1690
 9770TIP3    H250802   4.613   0.766   4.073  0.6737  0.9619  0.0201
 9771TIP3   OH250803   2.423   1.442  14.005  0.2233 -0.0646 -0.1515
 9771TIP3    H150804   2.433   1.349  13.985  1.7115 -0.6028  2.6033
 9771TIP3    H250805   2.493   1.485  13.957  0.6338 -0.6132 -0.0524
 9772TIP3   OH250806   4.762   5.419   4.120  0.2348 -0.0581 -0.7623
 9772TIP3    H150807   4.815   5.375   4.186 -0.6636 -2.1085 -1.3388
 9772TIP3    H250808   4.730   5.498   4.164  0.1627 -1.0474  1.0496
 9773TIP3   OH250809   4.010   6.193   0.286 -0.3264 -0.2660 -0.8322
 9773TIP3    H150810   3.937   6.252   0.305  1.1899  0.6977  2.7977
 9773TIP3    H250811   4.053   6.179   0.370  2.4736 -2.4608 -2.4331
 9774TIP3   OH250812   1.750   3.534   4.409  0.2386 -0.0928 -0.0995
 9774TIP3    H150813   1.795   3.450   4.415 -0.9061 -0.6636  1.1043
 9774TIP3    H250814   1.709   3.533   4.323  1.3481 -0.1593 -0.6422
 9775TIP3   OH250815   0.392   3.505  11.971 -0.3842  0.0546  0.5973
 9775TIP3    H150816   0.381   3.593  11.936 -1.4418 -1.0420 -2.1555
 9775TIP3    H250817   0.486   3.497  11.987 -0.0244  1.1227 -0.7841
 9776TIP3   OH250818   5.308   3.111  11.371  0.1789  0.1389 -0.3922
 9776TIP3    H150819   5.304   3.059  11.451  0.6284  0.9826  0.1899
 9776TIP3    H250820   5.255   3.062  11.308  0.5986 -1.0271  0.1320
 9777TIP3   OH250821   3.050   3.172   1.404  0.5140 -0.5186  0.5926
 9777TIP3    H150822   3.114   3.125   1.350 -0.0933 -0.9067  0.2027
 9777TIP3    H250823   2.974   3.184   1.347 -0.2730 -1.2419  1.4509
 9778TIP3   OH250824   4.439   2.540   4.348  0.4399 -0.0395  0.2576
 9778TIP3    H150825   4.505   2.524   4.280  0.7785  0.8044  0.3736
 9778TIP3    H250826   4.457   2.629   4.378 -1.4630  0.6274 -0.4772
 9779TIP3   OH250827   6.602   1.666  13.350 -0.3058  0.0685  0.5563
 9779TIP3    H150828   6.596   1.572  13.362  0.6574 -0.0344  0.3065
 9779TIP3    H250829   6.569   1.682  13.261 -0.4178 -0.0423  0.5790
 9780TIP3   OH250830   0.991   2.702   0.734 -0.1069  0.0920  0.2670
 9780TIP3    H150831   0.903   2.738   0.737  0.4746  1.6069  0.0478
 9780TIP3    H250832   1.006   2.685   0.641 -0.5681 -1.2576  0.4218
 9781TIP3   OH250833   3.742   4.094   1.517  0.3770  0.5856  0.9818
 9781TIP3    H150834   3.777   4.098   1.606  0.5562 -0.0465  0.9488
 9781TIP3    H250835   3.692   4.175   1.507 -1.6505 -0.3844  2.4872
 9782TIP3   OH250836   2.068   6.149  14.300 -0.0446  0.3433 -0.0671
 9782TIP3    H150837   2.022   6.093  14.362 -0.6663 -0.4075 -1.1603
 9782TIP3    H250838   2.156   6.110  14.294 -0.1986 -0.0009 -0.1530
 9783TIP3   OH250839   2.874   1.980  12.588 -0.0228 -0.8226 -0.0218
 9783TIP3    H150840   2.794   1.972  12.640 -0.2103 -0.9656 -0.3327
 9783TIP3    H250841   2.873   1.904  12.530  1.8533 -2.5180  2.0102
 9784TIP3   OH250842   2.621   4.364   0.335  0.4736  0.0723  0.3635
 9784TIP3    H150843   2.649   4.275   0.314 -0.7220 -0.7185  1.8761
 9784TIP3    H250844   2.694   4.400   0.386  1.4356  0.4012 -1.1719
 9785TIP3   OH250845   1.003   0.603  17.313  0.3194  0.0252  0.5034
 9785TIP3    H150846   1.059   0.557  17.250 -2.5971  0.6377 -2.8712
 9785TIP3    H250847   1.036   0.692  17.313  1.0728 -0.2482  0.7701
 9786TIP3   OH250848   6.036   6.150   1.371 -0.0146 -0.1851 -0.4490
 9786TIP3    H150849   6.055   6.071   1.421  1.6136  1.0067  0.9265
 9786TIP3    H250850   5.941   6.150   1.361 -0.2939 -1.0127  1.7893
 9787TIP3   OH250851   3.967   4.132   3.214 -0.2645 -0.1297 -0.0502
 9787TIP3    H150852   3.888   4.110   3.165 -0.5706 -1.2305  0.8959
 9787TIP3    H250853   3.940   4.202   3.273 -0.3818 -0.1188 -0.1166
 9788TIP3   OH250854   0.219   5.724  12.666 -0.0388 -0.0881 -0.2680
 9788TIP3    H150855   0.194   5.816  12.657 -0.5287 -0.2579 -0.7405
 9788TIP3    H250856   0.305   5.726  12.707 -0.4074  0.5525  0.4932
 9789TIP3   OH250857   5.412   4.129   3.374  0.1266  0.3912  0.0381
 9789TIP3    H150858   5.472   4.202   3.383  0.0491  0.3127  1.4143
 9789TIP3    H250859   5.331   4.168   3.339  0.1237  0.9490  0.6507
 9790TIP3   OH250860   4.978   2.756  15.845 -0.0544 -0.0656  0.3083
 9790TIP3    H150861   4.909   2.819  15.866 -0.3771 -0.3075 -0.0134
 9790TIP3    H250862   4.954   2.723  15.759 -0.1985 -1.0614  0.7236
 9791TIP3   OH250863   6.162   5.834  14.750 -0.2165 -0.1664 -0.0428
 9791TIP3    H150864   6.242   5.881  14.774 -0.6208  0.8234 -0.5843
 9791TIP3    H250865   6.183   5.792  14.666 -0.6219  1.0943 -0.8101
 9792TIP3   OH250866   4.996   0.157   2.817  0.1763 -0.6862 -0.0833
 9792TIP3    H150867   5.026   0.216   2.886  0.3012  0.2779 -0.9306
 9792TIP3    H250868   4.908   0.131   2.845  0.4726 -0.8297  0.7486
 9793TIP3   OH250869   1.772   6.122   0.211  0.3127  0.5497  0.5529
 9793TIP3    H150870   1.762   6.088   0.122 -0.9662  0.3627  0.7465
 9793TIP3    H250871   1.772   6.044   0.267 -0.9432  0.7508  0.8659
 9794TIP3   OH250872   3.688   5.105   5.697 -0.1808  0.8670  0.0580
 9794TIP3    H150873   3.636   5.052   5.758 -0.4609  1.3526  0.2473
 9794TIP3    H250874   3.626   5.128   5.627 -0.1480  1.2061  0.1383
 9795TIP3   OH250875   4.616   0.668  12.284  0.0256 -0.2496  0.1289
 9795TIP3    H150876   4.523   0.668  12.309 -0.1370 -0.6942 -0.4398
 9795TIP3    H250877   4.655   0.598  12.335 -0.1701 -0.7330 -0.3768
 9796TIP3   OH250878   5.357   6.206  13.361 -0.2706 -0.4159  0.0031
 9796TIP3    H150879   5.351   6.224  13.455 -1.2390 -0.1714 -0.0910
 9796TIP3    H250880   5.435   6.151  13.352  0.8033  0.9096  0.7328
 9797TIP3   OH250881   5.876   3.949   6.586 -0.3874 -0.5914 -0.2738
 9797TIP3    H150882   5.878   3.970   6.493 -2.3633  2.2733  0.1862
 9797TIP3    H250883   5.956   3.988   6.621 -0.3454 -0.4175 -0.5582
 9798TIP3   OH250884   3.484   0.146  14.721 -0.2353 -0.3690 -0.2255
 9798TIP3    H150885   3.479   0.051  14.715  1.2576 -0.4314 -1.1143
 9798TIP3    H250886   3.491   0.164  14.815  0.2540 -1.1938 -0.0969
 9799TIP3   OH250887   1.711   2.351  16.224 -0.0030 -0.1861 -0.0736
 9799TIP3    H150888   1.641   2.299  16.184 -0.3868 -0.6359  1.1259
 9799TIP3    H250889   1.740   2.410  16.155 -1.7883  0.2342 -0.5299
 9800TIP3   OH250890   3.543   6.061  12.645  0.4207  0.0977  0.2417
 9800TIP3    H150891   3.482   5.990  12.669  1.0024 -0.0659  1.3115
 9800TIP3    H250892   3.487   6.137  12.629 -0.0713 -0.0109  1.3654
 9801TIP3   OH250893   2.364   1.199   1.431  0.0879 -0.2160  0.2874
 9801TIP3    H150894   2.413   1.249   1.496 -1.2288  0.1416  1.0477
 9801TIP3    H250895   2.393   1.109   1.444  0.8785  0.0425  0.3923
 9802TIP3   OH250896   1.055   4.704   3.377  0.0604 -0.1574  0.7657
 9802TIP3    H150897   1.083   4.669   3.462  0.4620  0.5615  0.9415
 9802TIP3    H250898   1.012   4.786   3.398 -0.5215 -0.3420  0.3281
 9803TIP3   OH250899   2.920   5.720   5.326 -0.0376  0.3720  0.3650
 9803TIP3    H150900   2.852   5.675   5.276 -1.3461  0.9801  1.5158
 9803TIP3    H250901   3.002   5.680   5.297 -0.8318 -0.1365 -1.3311
 9804TIP3   OH250902   2.560   1.964   3.856  0.0615  0.2535 -0.0508
 9804TIP3    H150903   2.513   1.952   3.938 -0.8283 -2.3568 -0.8481
 9804TIP3    H250904   2.621   1.891   3.852  2.5542  2.2173 -0.1969
 9805TIP3   OH250905   2.401   5.370   3.896  0.0582  0.2978  0.2023
 9805TIP3    H150906   2.419   5.424   3.974  0.7448 -2.8006  2.3751
 9805TIP3    H250907   2.484   5.369   3.849  0.9845 -1.1229  1.7442
 9806TIP3   OH250908   4.033   1.880  17.382 -0.9148 -0.2229  0.2283
 9806TIP3    H150909   4.011   1.860  17.473 -0.4009  2.2491  0.9759
 9806TIP3    H250910   3.990   1.965  17.366 -0.7222 -0.4650 -1.7413
 9807TIP3   OH250911   2.923   1.834  10.716  0.5379  0.5277  0.0961
 9807TIP3    H150912   2.948   1.801  10.802 -0.1156 -0.4734 -0.0764
 9807TIP3    H250913   2.960   1.922  10.712  0.3617  0.6896  1.5034
 9808TIP3   OH250914   5.341   0.927  11.941 -0.4220  0.3203  0.2232
 9808TIP3    H150915   5.342   0.831  11.932 -0.4633  0.4292 -1.1478
 9808TIP3    H250916   5.370   0.943  12.031 -0.6115 -0.9855  0.5401
 9809TIP3   OH250917   5.406   0.027  12.331  0.0334  0.1956  0.7473
 9809TIP3    H150918   5.468  -0.029  12.285 -0.3846  0.7883 -0.5817
 9809TIP3    H250919   5.327   0.025  12.277 -0.6407  0.5446  1.6919
 9810TIP3   OH250920   4.844   3.786   4.162 -0.4658  0.1345  0.0630
 9810TIP3    H150921   4.824   3.736   4.083 -0.7645  0.5982 -0.1614
 9810TIP3    H250922   4.786   3.862   4.157  0.0605  0.5571  0.3437
 9811TIP3   OH250923   2.309   6.663  16.931  0.6788 -0.1257  0.0537
 9811TIP3    H150924   2.232   6.718  16.916 -0.3712 -2.0284 -2.1801
 9811TIP3    H250925   2.382   6.726  16.936 -0.7726  1.6104  0.5071
 9812TIP3   OH250926   1.745   5.591   2.858  0.2139 -0.0342 -0.7905
 9812TIP3    H150927   1.701   5.515   2.897  0.5095 -1.7774 -3.5511
 9812TIP3    H250928   1.833   5.591   2.895 -0.3449  0.1165  0.5929
 9813TIP3   OH250929   6.357   6.279   0.942 -0.2167 -0.3546  0.3787
 9813TIP3    H150930   6.342   6.269   0.848  0.3955 -1.1987  0.3632
 9813TIP3    H250931   6.403   6.200   0.968 -0.1943 -0.0362  1.3589
 9814TIP3   OH250932   1.402   0.935  14.059  0.3584 -0.3601  0.2610
 9814TIP3    H150933   1.440   0.850  14.036  1.7899  0.3290 -0.0233
 9814TIP3    H250934   1.477   0.992  14.072 -0.5554  0.6435  1.4079
 9815TIP3   OH250935   1.968   2.107  17.407 -0.3883 -0.0613  0.5085
 9815TIP3    H150936   1.873   2.112  17.415 -0.4994 -1.2795  0.1952
 9815TIP3    H250937   1.996   2.057  17.483  0.1181  1.1175  1.1176
 9816TIP3   OH250938   5.991   3.695  11.577 -0.0571 -0.0137  0.5542
 9816TIP3    H150939   5.930   3.708  11.650 -1.7611  0.4420 -0.8560
 9816TIP3    H250940   5.998   3.600  11.570  1.4721 -0.0825  2.3114
 9817TIP3   OH250941   2.214   6.493  16.535 -0.1718 -0.1016 -0.4705
 9817TIP3    H150942   2.145   6.557  16.552  1.0331  1.4669 -1.1730
 9817TIP3    H250943   2.249   6.472  16.622 -1.9019 -1.4319 -0.0350
 9818TIP3   OH250944   3.831   5.494  15.443  0.2263 -0.0922  0.0547
 9818TIP3    H150945   3.876   5.430  15.498  0.4232  0.4904  0.5760
 9818TIP3    H250946   3.874   5.487  15.358  0.3000 -0.5947  0.1289
 9819TIP3   OH250947   6.696   4.317  17.451 -0.6454 -0.0971  0.1140
 9819TIP3    H150948   6.759   4.388  17.463 -0.6733 -0.1636  0.7063
 9819TIP3    H250949   6.697   4.270  17.535 -2.6571  0.8475  0.7303
 9820TIP3   OH250950   0.944   4.118  12.366  0.0392 -0.2707  0.2870
 9820TIP3    H150951   0.987   4.039  12.334  0.2019 -0.8403  1.8248
 9820TIP3    H250952   0.857   4.116  12.327  0.3828 -0.6681 -0.4817
 9821TIP3   OH250953   3.650   2.998  15.818 -0.2658 -0.1348  0.4451
 9821TIP3    H150954   3.661   2.935  15.889  1.4242  1.9646  2.2348
 9821TIP3    H250955   3.589   2.957  15.757  0.2470 -3.1511  1.8031
 9822TIP3   OH250956   3.780   5.167   2.132  0.6013 -0.3832  0.1093
 9822TIP3    H150957   3.802   5.257   2.108 -3.7393  0.5648 -1.2332
 9822TIP3    H250958   3.709   5.176   2.196 -0.9864 -2.7966 -1.1750
 9823TIP3   OH250959   6.158   5.453   3.931 -0.1284 -0.3526 -0.0273
 9823TIP3    H150960   6.225   5.444   3.999  0.0171 -2.3730 -0.3517
 9823TIP3    H250961   6.143   5.547   3.924  3.1739  0.2815 -0.4242
 9824TIP3   OH250962   0.806   1.742   2.133  0.0222  0.2770 -0.2394
 9824TIP3    H150963   0.820   1.795   2.055  0.9262  1.1804  0.5187
 9824TIP3    H250964   0.785   1.655   2.099  0.4577  0.6398 -1.4872
 9825TIP3   OH250965   3.429   5.342  15.451  0.2281  0.2392 -0.6706
 9825TIP3    H150966   3.472   5.274  15.400 -1.3688 -0.4230 -1.2100
 9825TIP3    H250967   3.336   5.319  15.448 -0.3908  2.4882 -0.9525
 9826TIP3   OH250968   4.781   5.387   5.635  0.3641 -0.0072  0.0877
 9826TIP3    H150969   4.690   5.415   5.638 -0.3881 -2.2776  1.6660
 9826TIP3    H250970   4.827   5.448   5.692 -0.2630  0.8477 -0.3076
 9827TIP3   OH250971   5.856   5.413  15.346  0.2152  0.5342  0.1679
 9827TIP3    H150972   5.866   5.485  15.284  0.3013 -0.4552 -1.0013
 9827TIP3    H250973   5.857   5.334  15.292 -1.0125 -0.3059  1.2984
 9828TIP3   OH250974   6.037   0.499   2.501 -0.3333 -0.4369 -0.0515
 9828TIP3    H150975   6.037   0.488   2.596 -0.3481 -0.7008 -0.0797
 9828TIP3    H250976   6.021   0.592   2.487  1.7274  0.0149  0.2441
 9829TIP3   OH250977   2.523   2.118   0.117  0.7490  0.0262  0.1991
 9829TIP3    H150978   2.553   2.048   0.059  0.7047  0.6959 -0.6398
 9829TIP3    H250979   2.535   2.082   0.205  1.9495 -0.5383 -0.1772
 9830TIP3   OH250980   2.487   1.695  10.569  0.3638  0.5208  0.1692
 9830TIP3    H150981   2.417   1.648  10.616 -0.4410  0.4569 -1.0573
 9830TIP3    H250982   2.537   1.738  10.639  0.9709 -1.8675  1.3426
 9831TIP3   OH250983   6.296   1.227  14.382  0.2625  0.7195  0.1443
 9831TIP3    H150984   6.239   1.198  14.310 -1.4792  3.0050  0.4792
 9831TIP3    H250985   6.365   1.161  14.386 -0.5644 -0.4451 -2.4504
 9832TIP3   OH250986   3.778   3.091  13.806 -0.3680 -0.5964 -0.1213
 9832TIP3    H150987   3.769   2.996  13.802  1.1060 -0.7116 -1.8828
 9832TIP3    H250988   3.760   3.113  13.897 -2.4002 -2.3427 -0.0213
 9833TIP3   OH250989   2.046   6.353  12.017 -0.4776 -0.0907  0.4631
 9833TIP3    H150990   2.037   6.371  12.111  0.3365  0.4046  0.4593
 9833TIP3    H250991   2.096   6.427  11.984  0.8034 -1.1418 -0.0292
 9834TIP3   OH250992   1.522   6.465   0.726 -0.2130 -0.2562  0.0039
 9834TIP3    H150993   1.465   6.415   0.785  1.0474 -1.0517  0.5959
 9834TIP3    H250994   1.518   6.417   0.643 -0.5794 -0.1808 -0.0232
 9835TIP3   OH250995   0.235   2.364  16.886  0.5414  0.3930  0.2908
 9835TIP3    H150996   0.304   2.378  16.821  3.1756 -1.1606  2.5531
 9835TIP3    H250997   0.195   2.450  16.896  1.2496  1.0707 -2.0322
 9836TIP3   OH250998   4.941   0.526   6.689  0.0059  0.1186 -0.0668
 9836TIP3    H150999   4.902   0.586   6.626 -0.9728  0.1046  0.5031
 9836TIP3    H251000   4.970   0.582   6.761 -1.0603 -0.0638  0.5422
 9837TIP3   OH251001   0.772   3.761  11.260 -0.0188  0.6798 -0.0535
 9837TIP3    H151002   0.743   3.730  11.345 -2.9469  2.6262 -0.2226
 9837TIP3    H251003   0.756   3.687  11.201  0.2745 -0.0315  0.7348
 9838TIP3   OH251004   4.223   1.413   1.319 -0.8536  0.2683 -0.6621
 9838TIP3    H151005   4.245   1.411   1.412  0.4179  1.6147 -0.9042
 9838TIP3    H251006   4.265   1.492   1.286 -0.1878 -0.8516 -2.6561
 9839TIP3   OH251007   1.532   6.555   5.813 -0.1008  0.1705  0.2628
 9839TIP3    H151008   1.532   6.478   5.755  0.7504  0.0484  0.4029
 9839TIP3    H251009   1.548   6.519   5.900  1.8648  0.6092  0.1292
 9840TIP3   OH251010   1.534   2.345   3.239  0.3691  0.0845  0.1477
 9840TIP3    H151011   1.601   2.305   3.294  1.4664  2.3429  0.5668
 9840TIP3    H251012   1.451   2.320   3.281  1.1428  0.9424  2.3071
 9841TIP3   OH251013   2.900   5.516   3.737  1.2276 -0.3008 -0.1349
 9841TIP3    H151014   2.852   5.594   3.766 -1.5757 -2.0921  0.4718
 9841TIP3    H251015   2.991   5.544   3.730  0.2645  3.1414 -0.4988
 9842TIP3   OH251016   0.803   4.116   2.962 -0.2951 -0.2568 -0.6119
 9842TIP3    H151017   0.730   4.077   3.012 -0.3024 -0.2806 -0.6406
 9842TIP3    H251018   0.878   4.108   3.021 -1.0108  3.1110  0.9781
 9843TIP3   OH251019   6.317   1.221  15.271 -0.1405 -0.1467 -0.2126
 9843TIP3    H151020   6.390   1.278  15.294 -0.5255 -0.2036  1.2803
 9843TIP3    H251021   6.353   1.132  15.279 -0.9781 -0.3140  3.2627
 9844TIP3   OH251022   3.797   4.269   4.888  0.1804 -0.2468  0.1522
 9844TIP3    H151023   3.747   4.254   4.968  0.7076 -0.8290  0.3801
 9844TIP3    H251024   3.784   4.190   4.836 -0.0281  0.0607 -0.2722
 9845TIP3   OH251025   4.956   2.979   4.615  0.1436  0.4432  0.3830
 9845TIP3    H151026   4.922   3.047   4.556 -3.1788 -0.7727  0.6618
 9845TIP3    H251027   5.026   2.937   4.565 -1.6341  0.3239 -2.2434
 9846TIP3   OH251028   6.640   0.988   3.753  0.0860  0.3557  0.0962
 9846TIP3    H151029   6.631   0.909   3.807 -0.6261  2.0042  2.5761
 9846TIP3    H251030   6.567   1.044   3.780  1.1902  2.3024 -0.7502
 9847TIP3   OH251031   0.532   6.673   2.340 -0.7607 -0.3952 -0.6852
 9847TIP3    H151032   0.615   6.717   2.320 -1.1872  0.2875 -1.0022
 9847TIP3    H251033   0.557   6.594   2.387 -0.0601  1.0955  1.5980
 9848TIP3   OH251034   3.614   2.432   5.417 -0.4208  0.0606  0.2872
 9848TIP3    H151035   3.694   2.382   5.435 -0.4712 -0.2353 -0.2947
 9848TIP3    H251036   3.566   2.430   5.500  0.1679  0.2358  0.6397
 9849TIP3   OH251037   6.270   0.479   3.533 -0.0265 -0.0003  0.4335
 9849TIP3    H151038   6.185   0.507   3.499 -0.9206 -2.9315 -0.0652
 9849TIP3    H251039   6.333   0.539   3.493 -1.7828  1.9963  0.4822
 9850TIP3   OH251040   4.169   2.559   4.346  0.0598 -0.4222  0.5594
 9850TIP3    H151041   4.255   2.516   4.344  0.5278  0.3340  2.3112
 9850TIP3    H251042   4.181   2.634   4.405 -2.0769 -0.9235  1.7285
 9851TIP3   OH251043   2.885   2.421  17.225  0.3523  0.1329  0.2826
 9851TIP3    H151044   2.948   2.349  17.236 -1.5829 -1.5418  1.2431
 9851TIP3    H251045   2.826   2.391  17.156  0.5986  1.6805 -0.6334
 9852TIP3   OH251046   5.045   3.666  12.787 -0.3892 -0.2333  0.3145
 9852TIP3    H151047   5.102   3.594  12.815  1.4816  0.5019 -1.2925
 9852TIP3    H251048   5.061   3.735  12.851  0.7985  0.0562 -0.2579
 9853TIP3   OH251049   4.751   2.007  14.768  0.4273 -0.2391  0.3716
 9853TIP3    H151050   4.776   1.917  14.746  0.1521 -0.3716  0.5792
 9853TIP3    H251051   4.817   2.036  14.831  1.3358  0.2159 -0.7597
 9854TIP3   OH251052   6.569   0.368   3.795 -0.4800  0.2218 -0.3728
 9854TIP3    H151053   6.575   0.419   3.875 -0.2065  1.2995 -1.0535
 9854TIP3    H251054   6.544   0.431   3.728  0.8124 -0.3179 -1.4285
 9855TIP3   OH251055   0.689   3.213  10.567 -0.0607  0.0123 -0.1512
 9855TIP3    H151056   0.691   3.253  10.655  0.8244  2.7359 -1.2880
 9855TIP3    H251057   0.610   3.160  10.567 -0.8770  1.0832  1.8521
 9856TIP3   OH251058   2.598   1.640  11.499 -0.4887 -0.1682 -0.7204
 9856TIP3    H151059   2.611   1.545  11.503  3.1656  0.2234 -0.0706
 9856TIP3    H251060   2.685   1.676  11.480 -2.1754  2.9731 -3.5573
 9857TIP3   OH251061   0.388   0.460   4.851  0.0236 -0.3696  0.2459
 9857TIP3    H151062   0.396   0.431   4.760 -0.3730 -0.0030  0.0921
 9857TIP3    H251063   0.373   0.554   4.845 -0.4423 -0.4140  0.6743
 9858TIP3   OH251064   0.982   6.158  15.682 -0.0234 -0.0840  0.3415
 9858TIP3    H151065   0.916   6.225  15.665 -1.7248 -1.7632 -0.0172
 9858TIP3    H251066   0.981   6.147  15.777 -0.3090 -0.1575  0.3304
 9859TIP3   OH251067   2.454   2.840  12.740  0.0313 -0.3628 -0.1912
 9859TIP3    H151068   2.447   2.912  12.676  2.2123  0.5022  0.4556
 9859TIP3    H251069   2.547   2.816  12.739 -0.0538 -0.9680  1.9770
 9860TIP3   OH251070   3.757   2.867  16.598 -0.0706 -0.4410 -0.2254
 9860TIP3    H151071   3.824   2.934  16.607  0.5594 -1.3015  2.2636
 9860TIP3    H251072   3.684   2.898  16.652  0.0834 -1.5608  0.6508
 9861TIP3   OH251073   0.675   3.590   3.199 -0.4145 -0.1703 -0.0070
 9861TIP3    H151074   0.630   3.518   3.156 -1.4364 -0.0195  0.7789
 9861TIP3    H251075   0.729   3.630   3.131 -1.6535 -0.2078 -1.0359
 9862TIP3   OH251076   1.575   1.003   3.814 -0.2988 -0.2268 -0.4357
 9862TIP3    H151077   1.661   0.964   3.829  0.0126  0.0563 -1.3944
 9862TIP3    H251078   1.516   0.929   3.800 -0.5898 -0.5111  1.8315
 9863TIP3   OH251079   3.192   6.400  14.652  0.4204 -0.0007  0.0740
 9863TIP3    H151080   3.204   6.321  14.705  0.2834  0.8231  1.3734
 9863TIP3    H251081   3.261   6.460  14.681  0.7371  0.2518 -1.1385
 9864TIP3   OH251082   3.110   0.112  12.147 -0.2097 -0.1710 -0.4807
 9864TIP3    H151083   3.176   0.099  12.079  0.5880  0.5092  0.1418
 9864TIP3    H251084   3.058   0.186  12.116  0.1989  0.1851 -0.3325
 9865TIP3   OH251085   6.022   0.531   3.405 -0.5691  0.1424  0.5975
 9865TIP3    H151086   6.008   0.521   3.311  2.6274  0.8724 -0.0821
 9865TIP3    H251087   5.994   0.448   3.442 -0.0895 -0.9337 -1.3035
 9866TIP3   OH251088   3.009   6.296   5.371  0.5850 -0.5785  0.5258
 9866TIP3    H151089   2.968   6.251   5.444 -2.5651  1.1184  0.0119
 9866TIP3    H251090   2.986   6.243   5.294 -0.9739  0.4529  0.2194
 9867TIP3   OH251091   0.432   2.101   4.098  0.5235 -0.5556 -0.7224
 9867TIP3    H151092   0.342   2.071   4.105  0.7861 -1.4810 -1.2307
 9867TIP3    H251093   0.484   2.022   4.087  1.4871 -0.1016  0.2707
 9868TIP3   OH251094   0.517   6.054   4.011  0.7449 -0.7923  0.0697
 9868TIP3    H151095   0.575   6.091   4.077  1.0182 -0.1244 -0.5385
 9868TIP3    H251096   0.493   5.968   4.046 -4.9797  2.0073  4.8065
 9869TIP3   OH251097   1.514   6.624  15.572  0.0633 -0.1804 -0.3714
 9869TIP3    H151098   1.428   6.619  15.530 -1.1336  1.4371  1.7119
 9869TIP3    H251099   1.551   6.706  15.540 -0.5357  0.6811  1.0654
 9870TIP3   OH251100   4.216   2.685   5.479  0.2923 -0.5455 -0.5066
 9870TIP3    H151101   4.191   2.610   5.532  1.9376 -0.0617  1.0639
 9870TIP3    H251102   4.301   2.712   5.514 -0.8960  2.9846  0.0736
 9871TIP3   OH251103   6.342   1.972  14.038  0.4063  0.5529  0.1238
 9871TIP3    H151104   6.388   1.904  13.989 -0.3477 -0.4322  0.7486
 9871TIP3    H251105   6.407   2.006  14.099  0.8727  0.6229 -0.4039
 9872TIP3   OH251106   1.610   5.875  11.209  0.0540  0.3062  0.0370
 9872TIP3    H151107   1.556   5.947  11.175 -1.2215 -1.0817 -1.0125
 9872TIP3    H251108   1.686   5.873  11.152 -0.3801  0.2084 -0.5411
 9873TIP3   OH251109   1.782   3.497   3.894 -0.6909  0.1358  0.2993
 9873TIP3    H151110   1.794   3.407   3.864  2.3927  0.3205  0.5958
 9873TIP3    H251111   1.844   3.548   3.842  1.8264  1.1015  3.8569
 9874TIP3   OH251112   6.237   6.506  16.549  0.2408 -0.6913 -0.0212
 9874TIP3    H151113   6.213   6.414  16.558  0.0163 -0.7414 -1.0921
 9874TIP3    H251114   6.332   6.507  16.558  0.0939 -0.7076  2.4237
 9875TIP3   OH251115   1.703   0.192   4.197 -0.3379  0.2646 -0.2127
 9875TIP3    H151116   1.717   0.184   4.102  1.7569  1.1898 -0.0410
 9875TIP3    H251117   1.719   0.285   4.215 -2.5896  0.5097  0.8163
 9876TIP3   OH251118   6.227   3.554   5.476  0.0135  0.5496  0.1445
 9876TIP3    H151119   6.217   3.612   5.551 -1.5019 -0.2675  0.6275
 9876TIP3    H251120   6.253   3.470   5.514 -0.2208  0.2694 -0.3051
 9877TIP3   OH251121   3.528   4.115  16.652 -0.7871 -0.3283 -0.4385
 9877TIP3    H151122   3.574   4.198  16.638  0.7386 -0.9251  0.7917
 9877TIP3    H251123   3.450   4.121  16.597  0.7388  0.7439 -2.6206
 9878TIP3   OH251124   1.005   2.512  16.374  0.3444  0.4676  0.5478
 9878TIP3    H151125   0.912   2.518  16.351  0.0767 -1.6538  0.8240
 9878TIP3    H251126   1.005   2.481  16.465  1.3372  1.3142  0.8491
 9879TIP3   OH251127   2.810   1.763  12.350 -0.2898  0.5084 -0.5973
 9879TIP3    H151128   2.887   1.708  12.336  2.3245  3.0421  2.3394
 9879TIP3    H251129   2.798   1.809  12.266  1.5147  0.1484 -1.1016
 9880TIP3   OH251130   4.549   6.415   1.917  0.0094  0.3086 -0.6165
 9880TIP3    H151131   4.639   6.384   1.923 -0.2203 -0.3179 -0.3016
 9880TIP3    H251132   4.555   6.497   1.870  0.9497  1.1851  0.9465
 9881TIP3   OH251133   1.183   5.113   1.428  0.7106 -0.1827  0.4506
 9881TIP3    H151134   1.275   5.095   1.445  0.8557  1.3826  1.5290
 9881TIP3    H251135   1.183   5.166   1.348  0.7967  0.2278  0.7201
 9882TIP3   OH251136   4.784   1.393   3.188 -0.4938  0.0779 -0.7471
 9882TIP3    H151137   4.696   1.431   3.193 -1.2027 -1.2345 -2.3239
 9882TIP3    H251138   4.838   1.465   3.156 -1.1868  0.6454 -0.6869
 9883TIP3   OH251139   5.997   1.062  12.966  0.1526  0.4676 -0.5630
 9883TIP3    H151140   6.007   0.967  12.956 -1.8386  0.1870 -0.1970
 9883TIP3    H251141   5.917   1.083  12.919 -1.1397  1.4702  1.8896
 9884TIP3   OH251142   4.423   3.090  13.756 -0.1068  0.3179  0.1009
 9884TIP3    H151143   4.402   3.161  13.696 -0.6970 -0.1003 -0.1914
 9884TIP3    H251144   4.477   3.131  13.824 -0.8904  1.1598  0.2320
 9885TIP3   OH251145   6.438   4.706   4.497 -0.6358  0.3753 -0.9565
 9885TIP3    H151146   6.481   4.625   4.468 -0.3054 -0.2826  1.1369
 9885TIP3    H251147   6.452   4.768   4.426  0.5175 -0.9488 -1.9397
 9886TIP3   OH251148   1.492   0.013   4.091  0.1885  0.4300  0.5388
 9886TIP3    H151149   1.557   0.068   4.134 -0.6114  1.5858  0.3239
 9886TIP3    H251150   1.432   0.075   4.049 -0.5859 -0.6170  0.0494
 9887TIP3   OH251151   0.661   3.576   2.867  0.1885 -0.1079 -0.3321
 9887TIP3    H151152   0.695   3.487   2.869  0.4423 -0.0032  0.2363
 9887TIP3    H251153   0.625   3.587   2.779 -1.6005 -1.4339  0.1751
 9888TIP3   OH251154   4.084   4.831   0.232  0.2348 -0.1104 -0.0507
 9888TIP3    H151155   4.060   4.768   0.301  0.8928  0.5801  0.8356
 9888TIP3    H251156   4.152   4.786   0.183 -1.1279 -1.1205 -1.0832
 9889TIP3   OH251157   5.119   3.152  15.710  0.3202 -0.1560 -0.1741
 9889TIP3    H151158   5.139   3.077  15.654  0.9670  0.1160 -0.3190
 9889TIP3    H251159   5.081   3.113  15.789  1.9828 -0.7646  0.3615
 9890TIP3   OH251160   2.170   0.415   2.350 -0.6061 -0.4703 -0.2981
 9890TIP3    H151161   2.102   0.411   2.283  0.8755 -1.3984 -1.8127
 9890TIP3    H251162   2.125   0.392   2.431 -2.0748 -1.1593 -1.2647
 9891TIP3   OH251163   5.737   3.485   1.599 -0.2703  0.6621  0.3371
 9891TIP3    H151164   5.663   3.473   1.541  1.2841  0.4410 -1.7221
 9891TIP3    H251165   5.753   3.580   1.598 -0.6651  0.7441  1.0054
 9892TIP3   OH251166   0.153   5.636   4.150 -0.1236  0.1059  0.3110
 9892TIP3    H151167   0.160   5.598   4.238  0.2905 -1.3516 -0.3173
 9892TIP3    H251168   0.059   5.643   4.134 -0.2026  0.0504  0.7420
 9893TIP3   OH251169   0.122   5.090  13.994 -0.0148  0.8601  0.0324
 9893TIP3    H151170   0.206   5.116  13.957  2.0352 -0.8773  2.9799
 9893TIP3    H251171   0.092   5.018  13.938  0.5685  1.3315 -0.9047
 9894TIP3   OH251172   1.380   4.703  14.648 -0.3416 -0.2945 -0.1855
 9894TIP3    H151173   1.462   4.665  14.616 -0.0024  0.8239 -0.7076
 9894TIP3    H251174   1.387   4.696  14.743 -0.1292 -1.1844 -0.2556
 9895TIP3   OH251175   6.409   2.610  16.273 -0.3550  0.2387  0.4348
 9895TIP3    H151176   6.436   2.691  16.316  0.3306 -0.1122  0.6732
 9895TIP3    H251177   6.489   2.575  16.234 -0.4640 -0.7881  1.0993
 9896TIP3   OH251178   1.125   5.050   6.059  0.6374 -0.7099  0.2369
 9896TIP3    H151179   1.156   5.136   6.030  0.9638 -0.0877  2.2367
 9896TIP3    H251180   1.030   5.054   6.048  0.7513 -0.5196 -0.7284
 9897TIP3   OH251181   0.945   0.506  16.711  0.2019 -0.0040 -0.0125
 9897TIP3    H151182   0.977   0.581  16.659  0.3730 -0.1356 -0.0970
 9897TIP3    H251183   0.877   0.467  16.657 -1.3740  1.3429  0.9268
 9898TIP3   OH251184   4.352   6.146  12.221 -0.7515  0.4167 -0.6326
 9898TIP3    H151185   4.417   6.214  12.240  0.8749 -1.2049 -0.1900
 9898TIP3    H251186   4.357   6.134  12.126 -0.6363  0.5167 -0.6390
 9899TIP3   OH251187   3.653   0.601  14.533  0.1379  0.3714  0.2984
 9899TIP3    H151188   3.745   0.613  14.558  0.9693 -0.2766 -2.1275
 9899TIP3    H251189   3.640   0.506  14.535 -0.3307  0.4317  0.1594
 9900TIP3   OH251190   3.741   3.362  15.039 -0.0412 -0.0876 -0.3790
 9900TIP3    H151191   3.665   3.351  14.982 -0.0408  1.2864 -0.6791
 9900TIP3    H251192   3.735   3.452  15.071 -0.6136 -1.0722  2.6619
 9901TIP3   OH251193   3.804   6.744   1.706 -0.2939  0.0447  0.0013
 9901TIP3    H151194   3.862   6.746   1.783 -1.6557 -1.6044  1.1444
 9901TIP3    H251195   3.776   6.652   1.700 -1.0277  0.3592 -1.8762
 9902TIP3   OH251196   1.994   4.556   4.233  0.2908  0.3870 -0.3688
 9902TIP3    H151197   2.065   4.618   4.248  2.5999 -2.0351 -0.5532
 9902TIP3    H251198   2.013   4.483   4.292 -0.3787 -1.5886 -2.4387
 9903TIP3   OH251199   4.884   3.992  15.175 -0.3887  0.0335  0.1588
 9903TIP3    H151200   4.807   4.031  15.216 -1.9321 -0.5818 -1.9867
 9903TIP3    H251201   4.906   3.918  15.232 -1.4177  0.2021  0.8078
 9904TIP3   OH251202   5.255   1.897  11.285 -0.5170 -0.2367 -0.0437
 9904TIP3    H151203   5.202   1.871  11.210 -0.3169  0.3095 -0.3798
 9904TIP3    H251204   5.333   1.937  11.247 -1.1201  1.4909  0.4123
 9905TIP3   OH251205   2.333   6.494   0.011  0.2336 -0.4024  0.6480
 9905TIP3    H151206   2.365   6.427  -0.050  1.5721  0.7012  0.0605
 9905TIP3    H251207   2.368   6.468   0.096  2.4808  0.5285  0.0965
 9906TIP3   OH251208   0.800   6.324  16.045  0.0276  0.2923  0.2791
 9906TIP3    H151209   0.858   6.248  16.049  0.4926  0.6885  1.6244
 9906TIP3    H251210   0.732   6.299  15.983  0.5370 -0.9645  0.1953
 9907TIP3   OH251211   6.538   3.843   0.075 -0.1292  0.1462  0.7433
 9907TIP3    H151212   6.529   3.861   0.169  0.3557 -2.8958  1.4634
 9907TIP3    H251213   6.579   3.757   0.071  0.8291  0.6326 -2.3123
 9908TIP3   OH251214   1.596   1.803   4.940  0.1827  0.1621 -0.0990
 9908TIP3    H151215   1.569   1.728   4.887 -1.7750 -0.7932  2.0575
 9908TIP3    H251216   1.661   1.766   5.001  0.6552  0.6721 -0.2949
 9909TIP3   OH251217   6.107   2.224  17.255  0.0395  0.3278  0.7833
 9909TIP3    H151218   6.039   2.177  17.303  0.0343  0.4363  0.8831
 9909TIP3    H251219   6.169   2.156  17.229 -0.5252  0.1119 -0.0259
 9910TIP3   OH251220   0.376   6.748  13.074  0.2837  0.1640  0.0332
 9910TIP3    H151221   0.467   6.764  13.049 -0.4488  1.5407 -2.0759
 9910TIP3    H251222   0.364   6.795  13.156  1.7364 -1.0251  0.9780
 9911TIP3   OH251223   6.565   5.338   2.646 -0.2038  0.0299 -0.5362
 9911TIP3    H151224   6.568   5.422   2.600 -2.7037  1.6955  2.0317
 9911TIP3    H251225   6.519   5.280   2.586 -1.0768  1.3653 -1.2255
 9912TIP3   OH251226   0.667   0.797  13.429 -0.1678  0.2907  0.3412
 9912TIP3    H151227   0.649   0.827  13.339  0.6358  1.2394  0.4793
 9912TIP3    H251228   0.643   0.872  13.484  2.1930  0.8926  0.6680
 9913TIP3   OH251229   4.398   4.621  12.799 -0.6777 -0.2806 -0.3138
 9913TIP3    H151230   4.465   4.580  12.853  1.2585  1.7065 -1.0454
 9913TIP3    H251231   4.369   4.552  12.739  1.2229 -1.0328 -0.4187
 9914TIP3   OH251232   5.358   2.323  17.183 -0.5294  0.0311  0.4037
 9914TIP3    H151233   5.292   2.284  17.126 -1.2871 -0.4070  1.5549
 9914TIP3    H251234   5.316   2.329  17.269  0.5812  0.6809  0.9241
 9915TIP3   OH251235   6.413   6.034  11.673 -0.4220  0.5439  0.0270
 9915TIP3    H151236   6.414   5.941  11.694  0.2235  0.6475  0.4862
 9915TIP3    H251237   6.499   6.066  11.700 -1.1843  1.5933  1.3443
 9916TIP3   OH251238   3.095   5.635  16.047  0.0756  0.3532  0.0967
 9916TIP3    H151239   3.142   5.648  16.130 -2.4051  0.7549  1.5466
 9916TIP3    H251240   3.101   5.541  16.031 -0.8638 -0.0184  1.7125
 9917TIP3   OH251241   5.267   2.505   0.212  0.5037 -0.0759  0.3146
 9917TIP3    H151242   5.356   2.479   0.237  0.0379 -1.5829  0.4687
 9917TIP3    H251243   5.222   2.423   0.191 -0.4666  0.7603 -1.1105
 9918TIP3   OH251244   6.090   5.523  17.269  0.2840 -0.4576  0.1284
 9918TIP3    H151245   6.072   5.478  17.187 -0.2477  0.3869 -0.2278
 9918TIP3    H251246   6.161   5.583  17.248  0.1632 -0.2582  0.2928
 9919TIP3   OH251247   4.313   1.613   1.161  0.1822  0.2593  0.0063
 9919TIP3    H151248   4.224   1.633   1.133 -0.1227 -0.1653  0.6403
 9919TIP3    H251249   4.363   1.693   1.144 -0.6767  1.0524  1.1151
 9920TIP3   OH251250   0.951   2.287  15.275 -0.1509  0.3933 -0.4079
 9920TIP3    H151251   0.866   2.249  15.296 -0.3514  0.3004 -1.3545
 9920TIP3    H251252   1.008   2.211  15.261 -0.0829  0.4528 -0.4540
 9921TIP3   OH251253   0.929   4.304  13.185 -0.2220  0.4652 -0.0973
 9921TIP3    H151254   0.904   4.360  13.259 -2.5411  0.0127 -0.4472
 9921TIP3    H251255   0.903   4.216  13.212 -0.0519  0.1187 -1.0174
 9922TIP3   OH251256   5.909   3.743   1.337  0.0587 -0.1866  0.0410
 9922TIP3    H151257   5.869   3.808   1.279 -0.1246  0.3552  0.7531
 9922TIP3    H251258   5.916   3.788   1.422  0.7297 -0.8062  0.3265
 9923TIP3   OH251259   0.381   3.405   3.375 -0.2292  0.8950  0.0089
 9923TIP3    H151260   0.290   3.381   3.361 -0.1090  0.5456 -0.1650
 9923TIP3    H251261   0.429   3.364   3.304  0.1141  0.7731  0.3051
 9924TIP3   OH251262   3.235   3.473   1.371 -0.0329 -0.1656 -0.4303
 9924TIP3    H151263   3.253   3.453   1.279 -0.8305  1.6375 -1.0205
 9924TIP3    H251264   3.294   3.415   1.419  0.2368 -1.3292 -2.0523
 9925TIP3   OH251265   5.229   4.643  12.963 -0.0130 -0.5729  0.6878
 9925TIP3    H151266   5.183   4.609  13.040 -1.5427  0.0098  0.0579
 9925TIP3    H251267   5.240   4.736  12.981 -1.6628 -0.1412 -0.3855
 9926TIP3   OH251268   3.179   2.127   2.269  0.5079  0.2481 -0.5072
 9926TIP3    H151269   3.109   2.135   2.204  1.1646  1.4140 -1.1076
 9926TIP3    H251270   3.135   2.128   2.353 -0.2989 -0.4345 -0.9047
 9927TIP3   OH251271   1.875   3.176   1.193 -0.1566 -0.0664  0.2047
 9927TIP3    H151272   1.876   3.080   1.189  2.4770 -0.1058  0.2400
 9927TIP3    H251273   1.851   3.203   1.104 -0.2750 -0.7561  0.0225
 9928TIP3   OH251274   5.925   4.617   2.503  0.2954  0.2101 -0.4250
 9928TIP3    H151275   5.971   4.587   2.581  0.3218  0.0243 -0.5110
 9928TIP3    H251276   5.912   4.537   2.451 -1.8122 -0.0553  0.4479
 9929TIP3   OH251277   5.850   0.673   4.075  0.0785 -0.2540  0.0559
 9929TIP3    H151278   5.838   0.610   4.147  1.6908 -0.1251  0.4648
 9929TIP3    H251279   5.868   0.756   4.118  0.2417  0.0013 -0.4951
 9930TIP3   OH251280   3.707   2.431   0.340 -0.7416 -0.3032 -0.0012
 9930TIP3    H151281   3.657   2.411   0.260 -0.9133 -1.9134  0.4761
 9930TIP3    H251282   3.778   2.367   0.341 -1.3416 -0.9935  1.6468
 9931TIP3   OH251283   2.855   4.295  11.630 -0.0493 -0.0812  0.2686
 9931TIP3    H151284   2.784   4.358  11.646 -0.4972 -0.1056 -1.4418
 9931TIP3    H251285   2.815   4.209  11.644 -0.4431 -0.1036 -0.8928
 9932TIP3   OH251286   6.771   6.474   4.021 -0.1450 -0.3774 -0.0837
 9932TIP3    H151287   6.734   6.460   3.933 -0.7284  1.2807 -0.1393
 9932TIP3    H251288   6.694   6.486   4.077  0.1818  2.8325 -0.1430
 9933TIP3   OH251289   5.147   3.975   0.373 -0.3791 -0.0660  0.0878
 9933TIP3    H151290   5.117   4.059   0.337 -0.3008 -0.6133 -1.3137
 9933TIP3    H251291   5.123   3.910   0.306 -0.4608 -1.1755  1.1552
 9934TIP3   OH251292   0.067   4.106  13.458  0.0846 -0.1780  0.7340
 9934TIP3    H151293   0.161   4.127  13.450 -0.3577  1.0794 -3.1114
 9934TIP3    H251294   0.031   4.180  13.506  0.7943  0.3880  0.4246
 9935TIP3   OH251295   2.891   4.269   2.709  0.0699 -0.1174  0.2210
 9935TIP3    H151296   2.853   4.183   2.690 -0.0928 -0.7492  2.9811
 9935TIP3    H251297   2.825   4.314   2.761  0.1080  1.7894 -1.2681
 9936TIP3   OH251298   1.986   3.711   4.976  0.3657  0.0357 -0.4113
 9936TIP3    H151299   1.902   3.756   4.967 -0.1917 -0.7119  0.8194
 9936TIP3    H251300   1.967   3.620   4.955  0.9313 -0.1014 -0.3507
 9937TIP3   OH251301   5.741   1.468  17.432  0.7318  0.2066  0.4251
 9937TIP3    H151302   5.683   1.455  17.507 -0.7047  0.5553 -0.5861
 9937TIP3    H251303   5.716   1.554  17.397  2.3342  0.6775  0.3534
 9938TIP3   OH251304   3.974   2.372  17.112 -0.2908 -0.2288 -0.0193
 9938TIP3    H151305   4.002   2.452  17.068  0.3273 -0.5492 -0.2281
 9938TIP3    H251306   4.056   2.330  17.139 -0.5682 -1.1431 -0.5514
 9939TIP3   OH251307   2.268   5.553   0.387 -0.0527  0.3552 -0.3403
 9939TIP3    H151308   2.174   5.537   0.397  0.0539  0.7477  1.6739
 9939TIP3    H251309   2.275   5.646   0.366 -0.1696 -0.0246 -2.1898
 9940TIP3   OH251310   2.821   4.812   0.456  0.4626  0.1951 -0.7557
 9940TIP3    H151311   2.779   4.738   0.412 -1.0579  0.7910 -0.3500
 9940TIP3    H251312   2.862   4.773   0.533 -1.3196 -0.0767  0.0900
 9941TIP3   OH251313   6.480   4.568   6.485 -0.0539  0.2163  0.1560
 9941TIP3    H151314   6.559   4.544   6.437  0.6574 -0.1219  1.4343
 9941TIP3    H251315   6.417   4.500   6.463  0.4809 -0.3121  0.2173
 9942TIP3   OH251316   1.120   3.869  16.683  0.5435 -0.5120 -0.3159
 9942TIP3    H151317   1.045   3.922  16.708  0.8011 -0.3273  0.0777
 9942TIP3    H251318   1.195   3.912  16.724  1.0399  0.0349 -1.7362
 9943TIP3   OH251319   5.782   1.271   3.100  0.1056 -0.0172 -0.4530
 9943TIP3    H151320   5.824   1.211   3.161  1.4921 -0.6326 -1.9208
 9943TIP3    H251321   5.758   1.347   3.153 -0.5528 -1.3211  1.2027
 9944TIP3   OH251322   4.101   4.658  14.436  0.0852 -0.1937  0.3442
 9944TIP3    H151323   4.060   4.590  14.382  1.0718 -0.7217  0.2255
 9944TIP3    H251324   4.039   4.731  14.434 -0.0935 -0.3500 -1.1871
 9945TIP3   OH251325   4.445   4.548   5.284 -0.5488  0.6309  0.6366
 9945TIP3    H151326   4.389   4.560   5.360 -1.0659 -2.7737  0.9719
 9945TIP3    H251327   4.531   4.526   5.320 -0.6654 -0.4834  0.2709
 9946TIP3   OH251328   0.640   6.150  15.214  0.1468 -0.9577  0.5881
 9946TIP3    H151329   0.629   6.080  15.150  2.4796 -1.0927  0.2696
 9946TIP3    H251330   0.695   6.113  15.283  0.2517  0.1259  1.1216
 9947TIP3   OH251331   4.756   1.192   4.695 -0.4972  0.2260 -0.3522
 9947TIP3    H151332   4.836   1.225   4.735 -0.7287  1.6296 -0.9754
 9947TIP3    H251333   4.714   1.140   4.763  0.6109  0.0154  0.1912
 9948TIP3   OH251334   0.903   3.207  12.329 -0.0377  0.3643  0.3462
 9948TIP3    H151335   0.840   3.135  12.317  1.4757 -0.8868 -0.3945
 9948TIP3    H251336   0.885   3.240  12.417 -0.5545 -1.1344  0.8291
 9949TIP3   OH251337   3.321   1.105   6.159  0.4494 -0.1641  0.8120
 9949TIP3    H151338   3.339   1.046   6.232  1.1760  2.4884  2.9131
 9949TIP3    H251339   3.393   1.167   6.159 -0.2238  0.7184 -1.3732
 9950TIP3   OH251340   5.172   6.740  12.218  0.1185  0.1108  0.0085
 9950TIP3    H151341   5.128   6.824  12.207 -0.0019  0.1878  0.9995
 9950TIP3    H251342   5.126   6.681  12.158 -1.0623  0.2928  0.7187
 9951TIP3   OH251343   0.855   0.260  13.310  0.5478  0.1464 -0.2088
 9951TIP3    H151344   0.938   0.212  13.317 -0.6575 -2.0455 -0.0747
 9951TIP3    H251345   0.823   0.267  13.400  1.0093  1.8556 -0.1484
 9952TIP3   OH251346   5.426   2.854   5.856 -0.3272 -0.1508 -0.0310
 9952TIP3    H151347   5.390   2.852   5.767  1.1152 -0.3021 -0.6424
 9952TIP3    H251348   5.397   2.937   5.892 -1.0231 -0.1351 -0.5963
 9953TIP3   OH251349   3.277   1.712   0.548 -0.0721 -0.1779 -0.2757
 9953TIP3    H151350   3.238   1.799   0.545 -2.3831 -1.1642 -0.6935
 9953TIP3    H251351   3.288   1.688   0.455  1.0454 -0.1644 -0.1663
 9954TIP3   OH251352   6.162   5.776  14.263  0.1601  0.0941 -0.4164
 9954TIP3    H151353   6.090   5.764  14.201 -0.0379  1.5971 -0.5354
 9954TIP3    H251354   6.150   5.866  14.295 -1.7664 -1.5862  4.4124
 9955TIP3   OH251355   0.931   6.775  14.923  0.3448 -0.0170 -0.4798
 9955TIP3    H151356   0.978   6.693  14.940 -0.0263 -0.2024 -0.3439
 9955TIP3    H251357   0.847   6.764  14.968 -0.2698 -0.1333 -1.6309
 9956TIP3   OH251358   6.614   2.964   1.542  0.1073 -0.0170 -0.0278
 9956TIP3    H151359   6.599   3.002   1.629  0.5064  0.1396 -0.0241
 9956TIP3    H251360   6.658   2.881   1.560 -0.4657 -0.3289 -0.0514
 9957TIP3   OH251361   3.083   2.904   5.208 -0.0297  0.3014 -0.0620
 9957TIP3    H151362   3.046   2.861   5.285  0.5173 -0.4976 -0.2375
 9957TIP3    H251363   3.120   2.986   5.243  0.7759 -0.3453  0.6505
 9958TIP3   OH251364   3.137   1.901   5.659  0.3925 -0.3433 -0.0142
 9958TIP3    H151365   3.111   1.931   5.746  1.1008  1.8504 -0.4811
 9958TIP3    H251366   3.214   1.846   5.674  1.2627  1.0307  0.6905
 9959TIP3   OH251367   6.768   2.585  13.136 -0.1290 -0.1384  0.1865
 9959TIP3    H151368   6.789   2.516  13.199  0.6311  0.1521  0.2592
 9959TIP3    H251369   6.809   2.664  13.171 -0.6651  0.2710 -0.0937
 9960TIP3   OH251370   5.879   1.305  16.732  0.6454  0.3935 -0.0642
 9960TIP3    H151371   5.811   1.333  16.794 -1.6963 -0.0819 -2.2676
 9960TIP3    H251372   5.872   1.209  16.731  1.5699  0.3192 -0.1086
 9961TIP3   OH251373   6.160   0.259  12.772  0.2459 -0.1768 -0.0146
 9961TIP3    H151374   6.162   0.304  12.687 -0.0538  2.0244  1.0921
 9961TIP3    H251375   6.236   0.291  12.819  0.3088 -1.2403  0.6346
 9962TIP3   OH251376   4.648   5.399   2.758 -0.5037  0.0001  0.3555
 9962TIP3    H151377   4.573   5.356   2.798 -0.7123 -1.3356 -1.3408
 9962TIP3    H251378   4.631   5.394   2.664  1.0411  0.9486 -0.0199
 9963TIP3   OH251379   5.372   4.138   0.462  0.0521  0.1212 -0.3366
 9963TIP3    H151380   5.420   4.198   0.405  0.0685 -0.8948 -1.4143
 9963TIP3    H251381   5.285   4.132   0.423  0.4308 -1.5283 -0.9918
 9964TIP3   OH251382   5.368   4.976  16.814 -0.2398 -0.1347 -0.5132
 9964TIP3    H151383   5.311   5.019  16.750  0.2257  1.6756  0.2514
 9964TIP3    H251384   5.423   4.918  16.760 -1.3003 -0.2872 -1.4931
 9965TIP3   OH251385   3.985   0.906  16.191  0.0603 -0.7028 -0.0748
 9965TIP3    H151386   4.072   0.945  16.193 -0.2203 -0.0239 -0.8457
 9965TIP3    H251387   3.999   0.816  16.221  1.1651 -0.8403 -0.9173
 9966TIP3   OH251388   4.833   4.604   4.289 -0.1547 -0.0668  0.5387
 9966TIP3    H151389   4.901   4.637   4.347 -1.8909  2.0994  1.4815
 9966TIP3    H251390   4.829   4.666   4.217 -0.9224 -0.3324  0.3338
 9967TIP3   OH251391   2.272   5.559  16.924  0.9315  0.6540 -0.3192
 9967TIP3    H151392   2.251   5.477  16.878 -1.0570  1.1717 -0.4085
 9967TIP3    H251393   2.305   5.530  17.009 -0.6008 -0.2515 -0.0048
 9968TIP3   OH251394   6.257   0.732  16.875  0.6262 -0.1914  0.1141
 9968TIP3    H151395   6.352   0.717  16.871  0.7659  0.1522  1.6957
 9968TIP3    H251396   6.248   0.827  16.872  0.2194 -0.2410 -1.3559
 9969TIP3   OH251397   5.134   1.927  15.662 -0.3103  0.2073  0.9445
 9969TIP3    H151398   5.229   1.921  15.672 -0.0991  1.6029  0.1096
 9969TIP3    H251399   5.100   1.917  15.751  0.3963 -2.9511  0.9774
 9970TIP3   OH251400   2.990   0.774  14.261  0.0536  0.2331  0.3826
 9970TIP3    H151401   2.959   0.776  14.352  1.3137 -0.5700  0.8629
 9970TIP3    H251402   3.083   0.798  14.268 -0.2211  1.8044 -0.9008
 9971TIP3   OH251403   3.187   5.901  14.664  0.4017  0.1898 -0.1069
 9971TIP3    H151404   3.212   5.953  14.740  1.2180  0.7210 -0.7349
 9971TIP3    H251405   3.166   5.815  14.701 -1.1811  0.9740  0.9716
 9972TIP3   OH251406   2.400   2.265  12.475  0.6077 -0.1208 -0.2868
 9972TIP3    H151407   2.321   2.225  12.512  1.1092  0.1259  1.1168
 9972TIP3    H251408   2.463   2.193  12.470  0.9537  0.1111  0.5913
 9973TIP3   OH251409   0.301   6.698  14.909 -0.5918  0.2613 -0.2863
 9973TIP3    H151410   0.332   6.678  14.820  1.0896 -0.3120  0.3734
 9973TIP3    H251411   0.366   6.760  14.943 -0.2817 -0.7800  1.0891
 9974TIP3   OH251412   4.770   0.320   5.096  0.0564 -0.4005 -0.4698
 9974TIP3    H151413   4.701   0.353   5.154  0.4002 -0.8329  0.1991
 9974TIP3    H251414   4.811   0.399   5.060 -0.3878 -0.1316 -0.3916
 9975TIP3   OH251415   0.154   2.946  10.812 -0.2723 -0.1999  0.0968
 9975TIP3    H151416   0.194   3.032  10.819  1.0015 -0.5294 -2.2069
 9975TIP3    H251417   0.060   2.961  10.829  0.1252  1.3537  1.1056
 9976TIP3   OH251418   4.666   6.405   0.099 -0.3602  0.0165  0.4564
 9976TIP3    H151419   4.728   6.405   0.171  0.8366  0.8645 -0.5382
 9976TIP3    H251420   4.686   6.326   0.049  0.9366  0.9958 -0.6588
 9977TIP3   OH251421   0.746   2.893   3.626  0.2932 -0.4627 -0.1385
 9977TIP3    H151422   0.688   2.912   3.553 -0.5500 -0.0515  0.6060
 9977TIP3    H251423   0.781   2.978   3.653 -1.7131 -0.1289  1.7597
 9978TIP3   OH251424   5.421   2.177   2.874  0.2567 -0.9906  0.0860
 9978TIP3    H151425   5.454   2.126   2.800  1.4091  3.7430 -3.1396
 9978TIP3    H251426   5.499   2.216   2.913 -0.6366  0.0498  0.8966
 9979TIP3   OH251427   1.276   0.506  13.045 -0.7239 -0.1979  0.4952
 9979TIP3    H151428   1.221   0.514  12.968  0.5324  0.4615 -0.3738
 9979TIP3    H251429   1.237   0.563  13.110 -1.0063  0.3388 -0.1419
 9980TIP3   OH251430   4.280   5.829   1.478  0.3065 -0.0568  0.2394
 9980TIP3    H151431   4.344   5.790   1.420  0.8209 -0.1666  0.8708
 9980TIP3    H251432   4.311   5.808   1.566 -0.1062  0.6650  0.5684
 9981TIP3   OH251433   6.601   5.568  11.593  0.2423 -0.0491 -0.0908
 9981TIP3    H151434   6.567   5.588  11.506  2.2270 -0.7385 -1.0722
 9981TIP3    H251435   6.646   5.647  11.621  0.1485 -0.0424  0.0446
 9982TIP3   OH251436   6.469   0.179   4.244  0.3444  0.3962  0.4215
 9982TIP3    H151437   6.393   0.205   4.191 -0.2670 -0.5208  0.8230
 9982TIP3    H251438   6.527   0.136   4.181  0.0972  0.2530  0.2863
 9983TIP3   OH251439   2.426   5.011   1.494 -0.4934  0.2292 -0.8856
 9983TIP3    H151440   2.462   4.973   1.414 -0.9710 -0.3881 -0.8180
 9983TIP3    H251441   2.336   4.980   1.497 -0.0214 -1.1674  0.7531
 9984TIP3   OH251442   1.918   1.010   3.612 -0.7420 -0.4124  0.9466
 9984TIP3    H151443   1.869   1.090   3.595 -0.1110  0.0504  1.2441
 9984TIP3    H251444   1.963   1.027   3.695  0.7190 -0.3998  0.1985
 9985TIP3   OH251445   1.572   5.581   5.613  0.2291  0.2260 -0.6677
 9985TIP3    H151446   1.560   5.671   5.582  2.8242  1.2018  0.8402
 9985TIP3    H251447   1.490   5.537   5.592 -1.4813  3.1772 -0.6677
 9986TIP3   OH251448   0.914   0.858  11.606 -0.2698 -0.3438  0.1524
 9986TIP3    H151449   0.836   0.813  11.574 -1.6185  0.3836  2.2263
 9986TIP3    H251450   0.947   0.802  11.677  2.3198 -1.6426 -1.9159
 9987TIP3   OH251451   6.517   4.191  14.504  0.2208  0.6542  0.3117
 9987TIP3    H151452   6.429   4.164  14.530 -0.1585 -0.0973 -1.5416
 9987TIP3    H251453   6.552   4.236  14.580 -0.8661 -1.1066  1.9554
 9988TIP3   OH251454   1.815   5.818  14.830 -0.8987  0.2196  0.0015
 9988TIP3    H151455   1.840   5.898  14.875  0.0278 -0.4349  0.6945
 9988TIP3    H251456   1.798   5.845  14.739  0.0278  1.0916  0.0777
 9989TIP3   OH251457   3.699   6.109   3.972 -0.0469  0.0027  0.3195
 9989TIP3    H151458   3.670   6.150   4.053 -0.3634 -1.3673  0.9271
 9989TIP3    H251459   3.652   6.156   3.903 -2.1494 -0.7713  1.1430
 9990TIP3   OH251460   1.381   2.466  11.752 -0.0448 -0.3170 -0.2015
 9990TIP3    H151461   1.415   2.530  11.815 -1.0530  1.8010 -1.7081
 9990TIP3    H251462   1.306   2.427  11.796  0.0168  0.2177  0.3961
 9991TIP3   OH251463   0.849   4.978  11.123  0.9481  0.2228  0.0253
 9991TIP3    H151464   0.943   4.970  11.106  1.1694 -0.2063  1.3391
 9991TIP3    H251465   0.830   4.909  11.187 -0.4165 -0.1784 -0.7722
 9992TIP3   OH251466   2.417   5.521  12.184 -0.1990  0.0966 -0.5639
 9992TIP3    H151467   2.491   5.552  12.236 -0.0359 -1.0458 -0.0715
 9992TIP3    H251468   2.455   5.455  12.126 -0.8172 -0.4947 -0.3160
 9993TIP3   OH251469   0.873   5.620   0.107  0.1794  0.5700 -0.6651
 9993TIP3    H151470   0.919   5.583   0.031  0.3736  0.4611 -0.4935
 9993TIP3    H251471   0.820   5.548   0.140 -1.3933  1.1357 -1.8446
 9994TIP3   OH251472   2.803   6.363   4.006 -0.5060  0.7082  0.0902
 9994TIP3    H151473   2.793   6.436   3.945 -2.0225  1.5659  1.3153
 9994TIP3    H251474   2.714   6.344   4.036  0.1954  0.3687  2.0928
 9995TIP3   OH251475   3.600   1.692   1.606 -0.2031 -0.3645 -0.2560
 9995TIP3    H151476   3.629   1.760   1.544  2.2466  0.2050  1.3841
 9995TIP3    H251477   3.613   1.731   1.692 -1.5390 -1.8974  0.6932
 9996TIP3   OH251478   0.922   5.466   4.633 -0.2106 -0.5209  0.2018
 9996TIP3    H151479   0.878   5.545   4.604  1.2048  0.7571  1.3527
 9996TIP3    H251480   0.950   5.423   4.553 -1.3496 -0.0837 -0.4537
 9997TIP3   OH251481   2.974   6.621   5.687  0.2761 -0.1227  0.2504
 9997TIP3    H151482   2.889   6.579   5.673 -0.5559  1.9488 -1.3314
 9997TIP3    H251483   2.980   6.632   5.782 -1.3158 -0.1491  0.3845
 9998TIP3   OH251484   6.561   0.462   0.058 -0.4022 -0.0571  0.4630
 9998TIP3    H151485   6.635   0.520   0.037 -1.2848  1.1908  0.6704
 9998TIP3    H251486   6.517   0.449  -0.026 -0.4800 -0.0238  0.4986
 9999TIP3   OH251487   6.760   4.891  11.399 -0.4762 -0.1989  0.4342
 9999TIP3    H151488   6.694   4.957  11.377  0.1895 -0.0308 -1.2609
 9999TIP3    H251489   6.838   4.942  11.420 -0.4942 -0.4167  1.0289
10000TIP3   OH251490   1.056   1.178   6.714 -0.3380 -0.0875 -0.2861
10000TIP3    H151491   1.044   1.103   6.656 -1.3439 -0.8472  0.8463
10000TIP3    H251492   0.976   1.229   6.704 -0.5423 -0.2531  0.4598
10001TIP3   OH251493   6.079   2.901   1.638 -0.1542  0.3801  0.2345
10001TIP3    H151494   6.058   2.961   1.567 -0.1637  0.6747  0.4821
10001TIP3    H251495   6.060   2.814   1.603  0.9018  0.4246 -0.5124
10002TIP3   OH251496   5.459   1.787   1.933 -0.3728 -0.4503  0.1667
10002TIP3    H151497   5.469   1.745   1.847 -1.3018  2.3196 -1.4149
10002TIP3    H251498   5.540   1.836   1.945 -0.3864 -0.5689  0.7403
10003TIP3   OH251499   0.191   6.146   0.179 -0.0791 -0.3339 -0.8316
10003TIP3    H151500   0.181   6.124   0.086  0.0052 -2.4752 -0.3950
10003TIP3    H251501   0.119   6.205   0.197 -1.1961 -1.3080 -1.8725
10004TIP3   OH251502   4.326   3.816   1.688 -0.8158  0.4341  0.3477
10004TIP3    H151503   4.405   3.780   1.730 -1.7719  0.5629  2.4147
10004TIP3    H251504   4.348   3.908   1.670  0.2495 -0.0960 -1.2071
10005TIP3   OH251505   1.517   6.619   0.320  0.2171  0.2759 -0.8619
10005TIP3    H151506   1.490   6.568   0.244  0.4385 -2.7809  0.9613
10005TIP3    H251507   1.438   6.625   0.374  0.8389 -0.5366  0.1713
10006TIP3   OH251508   5.042   3.170   5.758  0.0275 -0.1062 -0.2223
10006TIP3    H151509   5.059   3.197   5.667  3.0523 -0.9506 -0.0230
10006TIP3    H251510   5.045   3.251   5.808 -0.5329  0.2386 -0.7334
10007TIP3   OH251511   0.788   3.650   6.149 -0.0274 -0.1077 -0.0496
10007TIP3    H151512   0.828   3.563   6.152 -0.2460 -0.1841  2.3737
10007TIP3    H251513   0.850   3.703   6.099 -0.6962 -1.9581 -3.1256
10008TIP3   OH251514   1.658   3.620  13.673 -0.0129  0.1589 -0.1745
10008TIP3    H151515   1.621   3.704  13.699  1.8710  0.9394  0.1374
10008TIP3    H251516   1.724   3.600  13.739  0.7201 -0.7553 -1.1286
10009TIP3   OH251517   1.274   5.240  12.115  0.0428 -0.0609 -0.4112
10009TIP3    H151518   1.235   5.235  12.028  1.3613  0.1278 -1.0414
10009TIP3    H251519   1.368   5.232  12.099  0.1902 -3.2115  1.2286
10010TIP3   OH251520   4.400   4.179   5.516  0.0666  0.0555 -0.3021
10010TIP3    H151521   4.442   4.116   5.574  0.3714 -1.2284 -1.8256
10010TIP3    H251522   4.422   4.265   5.553 -0.6877 -0.7068  2.0516
10011TIP3   OH251523   4.448   4.888   0.580 -0.0874 -0.7727 -0.7931
10011TIP3    H151524   4.425   4.973   0.618  0.4273 -1.2122  0.5681
10011TIP3    H251525   4.431   4.898   0.487 -2.2310  0.0969 -0.3671
10012TIP3   OH251526   2.562   0.537   0.386  0.5468 -0.7630 -0.2622
10012TIP3    H151527   2.514   0.454   0.383 -2.3517  0.7952 -0.3578
10012TIP3    H251528   2.531   0.580   0.466  1.7302  0.3953 -0.3983
10013TIP3   OH251529   1.468   2.570  15.533 -0.0654 -0.2140 -0.3691
10013TIP3    H151530   1.407   2.499  15.511 -1.8484  1.4487 -1.0504
10013TIP3    H251531   1.448   2.590  15.624 -0.3176  0.1104 -0.4939
10014TIP3   OH251532   1.644   1.126   2.086 -0.5777 -0.9592 -0.0607
10014TIP3    H151533   1.588   1.193   2.046  0.6334 -0.2813 -0.6626
10014TIP3    H251534   1.711   1.108   2.020  0.8044 -0.6463  1.1992
10015TIP3   OH251535   3.330   2.987  11.680 -0.3506  0.5728  0.6824
10015TIP3    H151536   3.298   3.074  11.706 -0.5457  0.1909  1.7315
10015TIP3    H251537   3.253   2.931  11.685 -0.3566  0.4296 -0.5495
10016TIP3   OH251538   2.360   5.518   5.280 -0.1237  0.5855  0.3812
10016TIP3    H151539   2.328   5.449   5.337  1.5254 -0.3346  0.2579
10016TIP3    H251540   2.333   5.491   5.192  2.9988 -1.5733 -0.0736
10017TIP3   OH251541   3.053   1.100  12.321 -0.4146 -0.5385  0.1652
10017TIP3    H151542   3.130   1.111  12.266  0.1939 -2.5628  0.5201
10017TIP3    H251543   3.064   1.014  12.361 -2.3652 -0.4506  1.0270
10018TIP3   OH251544   6.504   5.877   0.421 -0.7199 -0.2465 -0.2522
10018TIP3    H151545   6.588   5.832   0.425 -0.3103  0.6145  1.1050
10018TIP3    H251546   6.522   5.966   0.449 -1.7580  0.4773 -1.7384
10019TIP3   OH251547   0.999   1.355   5.968  0.1166  0.2692  0.2209
10019TIP3    H151548   0.964   1.292   5.905  0.8125 -1.3169  1.3579
10019TIP3    H251549   0.933   1.358   6.038  0.2488  0.5502  0.3362
10020TIP3   OH251550   4.299   0.744   1.293  0.1794  0.6601 -0.2764
10020TIP3    H151551   4.228   0.806   1.309 -1.8531  0.1138 -5.2701
10020TIP3    H251552   4.353   0.786   1.226 -0.8457 -2.3719 -3.2952
10021TIP3   OH251553   6.538   2.213  13.897 -0.4442  0.1203 -0.1548
10021TIP3    H151554   6.479   2.201  13.823 -2.2625  0.1913  1.2035
10021TIP3    H251555   6.597   2.138  13.895 -1.3701 -0.6023 -0.8728
10022TIP3   OH251556   4.944   3.504   1.016 -0.1905 -0.2255  0.0942
10022TIP3    H151557   4.980   3.418   1.036  0.9029  0.0200 -0.7035
10022TIP3    H251558   4.896   3.530   1.095 -0.7665 -1.6668  0.2431
10023TIP3   OH251559   1.840   2.031   3.267 -0.3194 -0.3252  0.6068
10023TIP3    H151560   1.774   1.963   3.282 -0.1981 -0.2687  1.3991
10023TIP3    H251561   1.920   1.982   3.248 -0.2945 -0.3971  0.9022
10024TIP3   OH251562   6.378   2.052   2.307  0.2013  0.2128 -0.4289
10024TIP3    H151563   6.319   1.982   2.333 -0.8216  0.9361 -0.7344
10024TIP3    H251564   6.399   2.033   2.215  1.2352 -0.5784 -0.0359
10025TIP3   OH251565   5.041   6.128  12.902  0.0590  0.4662  0.3415
10025TIP3    H151566   5.010   6.206  12.856  0.2314 -0.0401 -0.6513
10025TIP3    H251567   5.124   6.106  12.860 -0.8717 -1.3199 -0.6710
10026TIP3   OH251568   6.418   3.232  17.349  0.3070 -0.4210  0.1333
10026TIP3    H151569   6.327   3.230  17.321 -0.2637 -1.1860  1.9235
10026TIP3    H251570   6.425   3.163  17.415  2.2066 -0.4197 -0.0099
10027TIP3   OH251571   4.439   5.468   4.163  0.1141 -0.1617  0.1860
10027TIP3    H151572   4.413   5.500   4.250 -0.3723 -0.3956  0.1260
10027TIP3    H251573   4.472   5.546   4.118  0.3514 -0.0351  0.5700
10028TIP3   OH251574   4.426   4.418  11.352 -0.1223  0.7086 -0.0353
10028TIP3    H151575   4.371   4.344  11.327  0.3480  0.6136 -0.8352
10028TIP3    H251576   4.480   4.435  11.274  2.0063 -0.1493  1.1708
10029TIP3   OH251577   2.374   0.173   5.711 -0.3638 -0.0505  0.0020
10029TIP3    H151578   2.415   0.142   5.791 -0.1273 -1.0467 -0.4887
10029TIP3    H251579   2.282   0.153   5.721 -0.2239 -0.8595 -0.2770
10030TIP3   OH251580   4.532   1.392  12.265 -0.0996  0.2912  0.0281
10030TIP3    H151581   4.486   1.476  12.269 -1.5387 -0.4108 -0.9748
10030TIP3    H251582   4.488   1.339  12.332 -0.0989 -0.0870 -0.2732
10031TIP3   OH251583   1.100   2.862  16.107 -0.1750  0.0156  0.2613
10031TIP3    H151584   1.058   2.788  16.062 -0.6032 -1.1580  2.4663
10031TIP3    H251585   1.069   2.939  16.060 -1.1305 -1.0880 -1.0200
10032TIP3   OH251586   6.339   6.683  17.269 -0.2123  0.0655  0.0604
10032TIP3    H151587   6.428   6.654  17.251 -0.6556 -0.2927 -1.7774
10032TIP3    H251588   6.300   6.613  17.321  0.9091  0.7839  1.9577
10033TIP3   OH251589   2.175   1.838   5.989  0.1409  0.1371  0.0200
10033TIP3    H151590   2.206   1.770   5.929 -1.4083 -1.2603  0.7040
10033TIP3    H251591   2.125   1.790   6.056 -0.3501  1.8827  0.9730
10034TIP3   OH251592   0.104   5.950  14.927 -0.0970  0.4851  0.4691
10034TIP3    H151593   0.161   6.026  14.917 -1.2080  1.4392  1.0639
10034TIP3    H251594   0.019   5.987  14.952  0.2340 -1.0822  4.8110
10035TIP3   OH251595   2.855   2.846  12.709 -0.2362 -0.5873  0.4656
10035TIP3    H151596   2.798   2.803  12.772 -1.9619  1.4071  0.3911
10035TIP3    H251597   2.836   2.805  12.625 -2.6780  0.9198  0.1960
10036TIP3   OH251598   0.703   3.794   4.115 -0.0360 -0.6821  0.1925
10036TIP3    H151599   0.685   3.708   4.076 -0.9679 -1.9549  3.1188
10036TIP3    H251600   0.636   3.851   4.078 -2.1855 -2.3254  1.2947
10037TIP3   OH251601   1.251   2.180   4.077  0.2515  0.0541 -0.2129
10037TIP3    H151602   1.182   2.125   4.114  1.1788 -1.5500 -0.7804
10037TIP3    H251603   1.272   2.242   4.147  0.1123 -1.2044  0.9974
10038TIP3   OH251604   3.150   1.098  12.825 -0.3023 -0.5872  0.4300
10038TIP3    H151605   3.230   1.086  12.775  0.4461 -1.6153  1.8040
10038TIP3    H251606   3.100   1.164  12.776  1.6090  0.4693 -0.1674
10039TIP3   OH251607   5.473   2.441  12.717  0.2963  0.2865  0.3185
10039TIP3    H151608   5.377   2.436  12.720  0.2650  1.0430  1.0520
10039TIP3    H251609   5.493   2.461  12.626 -0.2409  0.1288  0.1610
10040TIP3   OH251610   5.763   0.551  16.977  0.4005 -0.1470 -0.8746
10040TIP3    H151611   5.698   0.608  16.936 -0.3944 -0.0261  0.5177
10040TIP3    H251612   5.835   0.549  16.914 -0.5742  0.4098 -2.0587
10041TIP3   OH251613   5.924   4.255  16.682 -0.7332 -0.1298 -0.1487
10041TIP3    H151614   5.863   4.185  16.705 -2.7752  1.7591  0.5453
10041TIP3    H251615   5.877   4.308  16.618  0.1571  1.3844  0.3790
10042TIP3   OH251616   3.045   1.439  11.305 -0.2306  0.4824 -0.1754
10042TIP3    H151617   3.054   1.360  11.253 -1.3812  1.2022 -1.5428
10042TIP3    H251618   2.996   1.411  11.383 -1.0722 -0.0735 -0.8836
10043TIP3   OH251619   3.541   3.439   4.084 -0.8381 -0.5757  0.9540
10043TIP3    H151620   3.486   3.419   4.008 -0.8464 -2.1648  1.3448
10043TIP3    H251621   3.627   3.460   4.046 -1.1180 -0.3069  0.4572
10044TIP3   OH251622   3.127   3.629  14.231 -0.0487 -0.1115  0.5797
10044TIP3    H151623   3.184   3.676  14.170 -0.5630  1.9334  1.5751
10044TIP3    H251624   3.057   3.593  14.177 -0.1256  1.0557 -0.1172
10045TIP3   OH251625   1.382   3.689   2.643  0.1992 -0.5143  0.3812
10045TIP3    H151626   1.454   3.628   2.627  2.1121  1.4221  1.0437
10045TIP3    H251627   1.405   3.766   2.591 -0.3401  0.8972  2.1385
10046TIP3   OH251628   4.377   1.024   2.742 -0.4058 -0.1825  0.0550
10046TIP3    H151629   4.441   1.079   2.789 -0.1746 -0.0982 -0.3538
10046TIP3    H251630   4.325   0.984   2.812 -0.3374  0.2681  0.3711
10047TIP3   OH251631   4.548   5.912  17.287  0.2320  0.5168 -0.1116
10047TIP3    H151632   4.463   5.907  17.330  1.0234 -0.1321  1.4531
10047TIP3    H251633   4.563   5.823  17.252  0.5109  0.4718  0.1156
10048TIP3   OH251634   4.977   5.869  11.527  0.2567 -0.3535 -0.6086
10048TIP3    H151635   4.909   5.816  11.569  0.4917  0.3611  0.7493
10048TIP3    H251636   5.005   5.818  11.451 -2.2111 -0.4084 -1.5757
10049TIP3   OH251637   4.188   1.718  16.916  0.4077 -0.1533 -0.1792
10049TIP3    H151638   4.111   1.767  16.886 -0.0070 -0.1065  0.8962
10049TIP3    H251639   4.242   1.785  16.959  0.4718 -0.4054  0.1305
10050TIP3   OH251640   4.288   3.894  17.421  0.0597 -0.0221 -0.0476
10050TIP3    H151641   4.200   3.887  17.459 -0.3057  1.8536 -0.4441
10050TIP3    H251642   4.273   3.922  17.331  1.0564 -0.5693 -0.3948
10051TIP3   OH251643   4.015   5.781   2.690  0.2632 -0.7550  0.6446
10051TIP3    H151644   4.044   5.843   2.623 -2.6944 -0.4965 -0.5589
10051TIP3    H251645   4.018   5.695   2.647  0.9772 -0.9852  1.1318
10052TIP3   OH251646   4.784   4.574   0.686  0.6183  0.4651  0.2414
10052TIP3    H151647   4.710   4.598   0.630 -1.3215  0.2349  2.5207
10052TIP3    H251648   4.841   4.651   0.685  0.0219  0.9243 -1.0524
10053TIP3   OH251649   2.632   0.117   5.047  0.4480  0.3739  0.0995
10053TIP3    H151650   2.701   0.083   4.990  0.2600 -2.2128  1.2832
10053TIP3    H251651   2.662   0.096   5.135 -1.1659  0.5163  0.7132
10054TIP3   OH251652   5.399   4.277  15.615 -0.3318  0.0375 -0.1568
10054TIP3    H151653   5.480   4.286  15.564 -1.5359  1.9176 -1.8897
10054TIP3    H251654   5.428   4.265  15.705  1.9770  3.6540 -0.2276
10055TIP3   OH251655   4.662   5.604  15.278  0.1312  0.3558 -0.4620
10055TIP3    H151656   4.697   5.693  15.274 -1.1435  0.8804 -0.4357
10055TIP3    H251657   4.652   5.586  15.372 -0.5764  0.5862 -0.4898
10056TIP3   OH251658   3.037   5.911  11.517 -0.1343 -0.2689  0.4212
10056TIP3    H151659   3.074   5.983  11.568 -0.0900 -0.6361  0.9191
10056TIP3    H251660   2.946   5.904  11.548  0.4310 -1.7714  1.9305
10057TIP3   OH251661   2.100   3.706  11.922 -0.2809 -0.6892 -0.3358
10057TIP3    H151662   2.039   3.640  11.954 -1.1519  1.0333  1.7808
10057TIP3    H251663   2.152   3.730  11.999  0.9730  0.1110 -1.3811
10058TIP3   OH251664   3.197   0.435   4.428  0.0033  0.5739 -0.1683
10058TIP3    H151665   3.286   0.413   4.457 -0.4940 -0.8269  0.3911
10058TIP3    H251666   3.160   0.352   4.399 -1.0592  1.1766 -0.5953
10059TIP3   OH251667   4.104   3.577   5.332 -0.0650 -0.2341  0.1256
10059TIP3    H151668   4.065   3.635   5.267 -1.4892 -0.7404  0.5037
10059TIP3    H251669   4.155   3.636   5.388 -3.8463  1.3159  2.3373
10060TIP3   OH251670   4.715   5.724   5.022  0.2417  0.3984 -0.1418
10060TIP3    H151671   4.690   5.727   5.114  1.1596  1.8968  0.0877
10060TIP3    H251672   4.688   5.809   4.987  0.9819  0.3120 -0.9472
10061TIP3   OH251673   4.416   3.185  12.549  0.6254 -0.3917 -0.1536
10061TIP3    H151674   4.446   3.229  12.628 -0.4397  1.4873 -0.7452
10061TIP3    H251675   4.461   3.230  12.478  0.0249 -0.7077 -0.7464
10062TIP3   OH251676   4.939   3.712  16.019 -0.4831 -0.1962  0.2301
10062TIP3    H151677   4.901   3.747  15.939 -1.5004 -0.2796  0.6603
10062TIP3    H251678   4.997   3.780  16.051  0.8080 -0.6041 -1.1598
10063TIP3   OH251679   3.844   3.751   0.266 -0.4050 -0.1046  0.7660
10063TIP3    H151680   3.779   3.733   0.198 -0.3047  1.4457  0.2218
10063TIP3    H251681   3.792   3.780   0.341 -0.5541 -2.2764  1.5872
10064TIP3   OH251682   3.343   4.205  13.965 -0.2090 -0.1884 -0.2843
10064TIP3    H151683   3.315   4.251  14.044 -0.4265 -1.0848  0.1718
10064TIP3    H251684   3.277   4.137  13.951 -0.5870  0.4139 -1.6679
10065TIP3   OH251685   2.701   6.652   4.926 -0.6380 -0.3855 -0.0860
10065TIP3    H151686   2.664   6.588   4.866 -0.2044  0.0899 -0.8796
10065TIP3    H251687   2.650   6.642   5.006 -2.3482  0.1093 -1.0659
10066TIP3   OH251688   5.269   2.836   5.087 -0.2172  0.5441  0.4869
10066TIP3    H151689   5.218   2.875   5.016  1.9313  0.8713 -0.9732
10066TIP3    H251690   5.332   2.779   5.043  1.6383  1.2656  2.0522
10067TIP3   OH251691   1.788   0.442   4.233 -0.2366  0.2520  0.1792
10067TIP3    H151692   1.826   0.493   4.162  1.2492  0.0127  0.7506
10067TIP3    H251693   1.847   0.457   4.307 -1.2983 -0.1328  1.1430
10068TIP3   OH251694   5.828   3.924  16.601 -0.0078 -0.1118 -0.1899
10068TIP3    H151695   5.870   3.840  16.618  0.5991 -0.3876 -2.6170
10068TIP3    H251696   5.804   3.920  16.508 -2.6786  1.2474  0.3316
10069TIP3   OH251697   4.619   4.101   4.956 -0.6238  0.0756  0.1846
10069TIP3    H151698   4.581   4.093   4.868  0.4535 -1.0399 -0.2099
10069TIP3    H251699   4.563   4.046   5.011 -1.0244  0.4022  0.1092
10070TIP3   OH251700   5.088   4.469   4.109  0.1668  0.1436 -0.2183
10070TIP3    H151701   5.068   4.498   4.020  0.0995 -1.3615 -0.7183
10070TIP3    H251702   5.031   4.522   4.165 -0.4715  0.4491 -1.1422
10071TIP3   OH251703   0.431   1.589  13.090 -0.2671 -0.1345  0.1604
10071TIP3    H151704   0.421   1.668  13.038 -1.1549 -0.3680 -0.0432
10071TIP3    H251705   0.424   1.517  13.027 -1.1763 -0.4146  0.5575
10072TIP3   OH251706   2.715   2.757   6.262  0.0275 -0.1792  0.5082
10072TIP3    H151707   2.624   2.735   6.241  0.4270 -0.8280 -0.5808
10072TIP3    H251708   2.723   2.850   6.240  0.1863 -0.6177 -1.4702
10073TIP3   OH251709   5.162   6.768   2.606 -0.1509 -0.0648 -0.0018
10073TIP3    H151710   5.254   6.769   2.632 -0.2876  2.0095  0.5519
10073TIP3    H251711   5.117   6.814   2.677 -1.6291 -0.9857 -0.3008
10074TIP3   OH251712   2.096   0.307  12.604  0.9824 -0.3392 -0.6476
10074TIP3    H151713   2.090   0.292  12.698  0.5264  0.1110 -0.5977
10074TIP3    H251714   2.165   0.373  12.594  0.9281 -0.2778 -0.6162
10075TIP3   OH251715   2.085   6.324   2.003  0.7894  0.2427 -0.0985
10075TIP3    H151716   2.012   6.350   1.948  0.4083  0.7998  0.6388
10075TIP3    H251717   2.097   6.230   1.987 -0.0843  0.1519 -0.2282
10076TIP3   OH251718   4.887   3.616  16.259 -0.1085  0.1944 -0.2576
10076TIP3    H151719   4.896   3.546  16.195  0.4937  0.9507 -1.0196
10076TIP3    H251720   4.883   3.696  16.207 -1.3603  0.7003  0.5716
10077TIP3   OH251721   2.694   6.767   3.879  0.0130  0.1614 -0.2620
10077TIP3    H151722   2.710   6.846   3.828 -2.2350  0.3168 -0.8254
10077TIP3    H251723   2.675   6.799   3.967 -1.4236  0.3600 -0.6067
10078TIP3   OH251724   2.439   2.646   6.315  0.3054  0.4154 -0.8143
10078TIP3    H151725   2.344   2.656   6.320  0.4607  1.8820 -0.4313
10078TIP3    H251726   2.471   2.675   6.400  1.0212 -1.4816 -0.3843
10079TIP3   OH251727   5.190   6.735   4.947 -0.4463 -0.2630  0.0084
10079TIP3    H151728   5.179   6.830   4.936 -0.8710 -0.0387  1.8848
10079TIP3    H251729   5.100   6.701   4.946 -0.3936 -0.4389  0.7758
10080TIP3   OH251730   5.808   5.715  16.487 -0.1340  0.4629 -0.0218
10080TIP3    H151731   5.868   5.782  16.455 -1.8120  1.8413 -0.4529
10080TIP3    H251732   5.728   5.763  16.509 -2.2676 -1.6447 -2.5273
10081TIP3   OH251733   6.195   0.799  16.286  0.4566 -0.4081 -0.3481
10081TIP3    H151734   6.264   0.766  16.230  0.1184 -1.1897 -0.3257
10081TIP3    H251735   6.134   0.844  16.227  0.2697 -0.9436 -0.5720
10082TIP3   OH251736   2.211   0.107   5.082  0.0220  0.3422 -0.2125
10082TIP3    H151737   2.136   0.125   5.139  0.3322  0.3035  0.2090
10082TIP3    H251738   2.173   0.065   5.005 -0.5234  1.2940 -0.4834
10083TIP3   OH251739   3.294   1.312   2.414 -0.2548 -0.6791 -0.6897
10083TIP3    H151740   3.253   1.355   2.339 -0.6452  0.0361 -0.0773
10083TIP3    H251741   3.294   1.219   2.392  1.3441 -0.3261 -2.4121
10084TIP3   OH251742   4.575   6.617  15.163  0.6934  0.4279  0.1627
10084TIP3    H151743   4.647   6.565  15.198 -1.0324 -0.9505  1.9440
10084TIP3    H251744   4.590   6.618  15.068  1.3959 -2.5266  0.1350
10085TIP3   OH251745   5.621   2.348   6.286 -0.4174  0.0280 -0.1612
10085TIP3    H151746   5.528   2.370   6.297  0.1513  2.4801  0.2690
10085TIP3    H251747   5.645   2.305   6.367 -0.4830  2.1995  1.0810
10086TIP3   OH251748   1.715   0.723   2.403 -0.4445  0.2570 -0.2763
10086TIP3    H151749   1.747   0.665   2.334  1.1122  3.4206 -2.4573
10086TIP3    H251750   1.681   0.799   2.356 -0.0192  2.2679  2.4229
10087TIP3   OH251751   3.914   6.144  16.193 -0.5598  0.3905  0.0793
10087TIP3    H151752   3.910   6.050  16.178 -0.2379  0.3049  0.5190
10087TIP3    H251753   3.861   6.159  16.271  2.6808 -0.0161  2.5683
10088TIP3   OH251754   1.757   4.019  13.530  0.0297 -0.2467 -0.6700
10088TIP3    H151755   1.674   3.974  13.511 -0.1938 -0.1592  0.0608
10088TIP3    H251756   1.824   3.955  13.509 -0.2759 -0.7996  0.0067
10089TIP3   OH251757   2.905   0.567  15.114  0.5661 -0.3356  0.0298
10089TIP3    H151758   2.858   0.589  15.034 -0.2624 -1.1926  0.2703
10089TIP3    H251759   2.995   0.597  15.098 -0.0967  1.6212 -0.3154
10090TIP3   OH251760   1.883   1.333   4.208  0.2272  0.5788  0.1539
10090TIP3    H151761   1.954   1.312   4.148  0.1206 -2.1275  0.8414
10090TIP3    H251762   1.921   1.395   4.269  1.0331  1.5578 -1.2882
10091TIP3   OH251763   1.616   6.448  12.887  0.4194 -0.3753 -0.0171
10091TIP3    H151764   1.614   6.541  12.909 -0.1652 -0.6346  1.1131
10091TIP3    H251765   1.697   6.415  12.925  0.2283 -0.4881  0.2966
10092TIP3   OH251766   1.932   3.078  14.400  0.8792 -0.8250  0.4123
10092TIP3    H151767   1.957   3.007  14.341  5.4337  0.3728  0.4992
10092TIP3    H251768   1.979   3.154  14.367 -0.8710  1.2746  2.4393
10093TIP3   OH251769   4.037   6.649  11.472  0.1634 -0.3700 -0.2238
10093TIP3    H151770   3.993   6.585  11.417  0.9949  1.1339 -2.8218
10093TIP3    H251771   4.128   6.647  11.444  0.4285  1.1428  0.4169
10094TIP3   OH251772   6.136   6.030  14.032 -0.1013 -0.4832  0.6436
10094TIP3    H151773   6.123   5.939  14.006 -1.0991 -0.2845  0.3769
10094TIP3    H251774   6.158   6.026  14.125  0.2096 -1.0143  0.5486
10095TIP3   OH251775   5.270   4.623   0.978 -0.2289 -0.3554  0.3791
10095TIP3    H151776   5.328   4.612   0.903  0.0415 -0.2094  0.5655
10095TIP3    H251777   5.327   4.654   1.048  0.1941 -3.4684  1.6021
10096TIP3   OH251778   4.751   4.750  16.412 -0.4455 -0.1892 -0.0780
10096TIP3    H151779   4.726   4.761  16.320  1.2585  2.1154 -0.3719
10096TIP3    H251780   4.676   4.782  16.462 -1.4041 -1.5067 -0.6216
10097TIP3   OH251781   4.340   1.376   2.792 -0.0324  0.3983 -0.1294
10097TIP3    H151782   4.430   1.408   2.800  0.0084  0.8073 -1.8133
10097TIP3    H251783   4.332   1.310   2.861  1.1723  1.1836  0.8066
10098TIP3   OH251784   0.711   2.502   6.413 -0.1936 -0.3664  0.1983
10098TIP3    H151785   0.805   2.484   6.410 -0.3553 -1.0953 -1.2782
10098TIP3    H251786   0.675   2.431   6.466  0.3783  1.5946  3.5135
10099TIP3   OH251787   6.080   6.160  15.620  0.0288  0.7689  0.2459
10099TIP3    H151788   6.032   6.240  15.642  0.6845  1.1196  0.4301
10099TIP3    H251789   6.026   6.089  15.656 -0.2238  1.1712  0.6699
10100TIP3   OH251790   4.834   0.949   3.051 -0.4679  0.2686 -0.3941
10100TIP3    H151791   4.807   1.041   3.061 -2.5156 -0.3866  0.6536
10100TIP3    H251792   4.809   0.927   2.962  1.2317  1.0590 -1.1051
10101TIP3   OH251793   3.751   5.225   3.179  0.1363  0.0023 -0.2636
10101TIP3    H151794   3.676   5.178   3.215  1.3269 -1.4378  0.4126
10101TIP3    H251795   3.823   5.206   3.239  1.2042  0.8596 -1.2182
10102TIP3   OH251796   3.039   4.357   0.665 -0.1802 -0.1400 -0.3766
10102TIP3    H151797   3.006   4.389   0.749  1.0757  2.7809 -0.8541
10102TIP3    H251798   3.111   4.299   0.688 -1.5158 -1.5209  0.5383
10103TIP3   OH251799   0.765   3.351  16.263 -0.2764  0.1784 -0.1749
10103TIP3    H151800   0.842   3.390  16.221 -0.2247 -0.7973 -1.0235
10103TIP3    H251801   0.788   3.346  16.356 -0.6981  3.1173  0.2014
10104TIP3   OH251802   3.572   3.073   2.683 -0.6241 -0.7686 -0.2908
10104TIP3    H151803   3.537   3.080   2.594 -1.2368  0.9953  0.0432
10104TIP3    H251804   3.665   3.054   2.671  0.0409  2.5525 -1.4753
10105TIP3   OH251805   4.578   6.367  11.124  0.7849 -0.3667 -0.1467
10105TIP3    H151806   4.494   6.407  11.145 -0.2466 -1.3366 -2.1432
10105TIP3    H251807   4.567   6.275  11.149  1.2047 -0.5154 -0.4990
10106TIP3   OH251808   5.038   1.226  12.473  0.1438  0.1597 -0.4184
10106TIP3    H151809   4.977   1.280  12.422  0.4178 -0.0743 -0.9885
10106TIP3    H251810   5.021   1.136  12.445  0.4141  0.0433 -0.2201
10107TIP3   OH251811   2.866   3.580   1.471  0.1835  0.1294  0.5984
10107TIP3    H151812   2.773   3.556   1.472  0.1167  0.3427 -0.1180
10107TIP3    H251813   2.899   3.544   1.388  1.2462 -1.8076  1.7686
10108TIP3   OH251814   1.130   1.175   1.094  0.5789 -0.2622 -0.0276
10108TIP3    H151815   1.120   1.270   1.103  0.1409 -0.4120  1.4054
10108TIP3    H251816   1.061   1.139   1.150 -0.1053 -1.4540 -1.5702
10109TIP3   OH251817   0.535   4.504   2.772 -0.0676 -0.4567  0.1092
10109TIP3    H151818   0.589   4.524   2.695 -2.0880  1.0897 -1.0128
10109TIP3    H251819   0.497   4.418   2.753 -0.4266 -0.1570 -0.5444
10110TIP3   OH251820   1.067   3.500   0.483 -0.2060 -0.5313 -0.0207
10110TIP3    H151821   1.099   3.414   0.510  0.8225  0.0867  0.8532
10110TIP3    H251822   1.123   3.524   0.408 -1.2204 -1.0741 -0.9680
10111TIP3   OH251823   3.090   5.147   4.179 -0.4875 -0.1594 -0.3882
10111TIP3    H151824   3.182   5.159   4.157 -0.8494 -1.2723 -2.7672
10111TIP3    H251825   3.042   5.199   4.113 -1.5862 -0.1871  0.3555
10112TIP3   OH251826   4.002   0.155  14.291 -0.4645 -0.0198 -0.2236
10112TIP3    H151827   3.909   0.163  14.273 -0.2429 -1.0094 -2.0731
10112TIP3    H251828   4.012   0.069  14.331 -0.0575 -1.2527 -2.7931
10113TIP3   OH251829   2.372   5.771  17.176  0.3006 -0.3727  0.4451
10113TIP3    H151830   2.278   5.778  17.190  0.1958 -0.6545 -0.0911
10113TIP3    H251831   2.384   5.686  17.134  0.7827 -0.2938  0.4147
10114TIP3   OH251832   3.686   1.622  17.398  1.0084 -0.0858  0.1302
10114TIP3    H151833   3.726   1.657  17.319  0.7208  0.6925  0.3133
10114TIP3    H251834   3.705   1.528  17.396  1.0818 -0.0558 -0.8035
10115TIP3   OH251835   4.833   3.331  15.279 -0.1684  0.0430 -0.4371
10115TIP3    H151836   4.917   3.377  15.280 -0.2746  0.2572 -1.0893
10115TIP3    H251837   4.819   3.310  15.187  0.6107 -2.6508 -0.0177
10116TIP3   OH251838   4.648   5.291   0.500 -0.6647 -0.1890 -0.1508
10116TIP3    H151839   4.564   5.266   0.540 -0.1308  0.1210  1.2269
10116TIP3    H251840   4.625   5.358   0.436 -1.4969 -0.2521  0.0641
10117TIP3   OH251841   6.722   3.809   5.586  0.5064  0.3380 -0.0435
10117TIP3    H151842   6.677   3.780   5.506 -0.6981  0.5436  0.5388
10117TIP3    H251843   6.652   3.816   5.651  1.5116 -0.0934  1.1088
10118TIP3   OH251844   0.808   6.605   4.951 -0.2908 -0.2217  0.4801
10118TIP3    H151845   0.715   6.612   4.976 -0.5264 -1.6439  0.0366
10118TIP3    H251846   0.855   6.639   5.027 -1.1315 -1.1250  1.4370
10119TIP3   OH251847   0.914   0.057  15.422  0.2108  0.6531 -0.0419
10119TIP3    H151848   0.955   0.046  15.336  2.5212  0.4934  0.9902
10119TIP3    H251849   0.862  -0.022  15.434 -1.2075  1.2488 -1.7737
10120TIP3   OH251850   2.996   2.737  16.836 -0.5164 -0.0307  0.2922
10120TIP3    H151851   2.996   2.644  16.858  0.3216  0.0516  0.6976
10120TIP3    H251852   2.913   2.751  16.791  1.1550 -1.9468 -3.9659
10121TIP3   OH251853   3.263   5.490   3.749 -0.3167  0.1291  0.0186
10121TIP3    H151854   3.327   5.561   3.742  0.0417 -0.2702 -0.8798
10121TIP3    H251855   3.304   5.426   3.807  0.1544 -0.1790 -0.6477
10122TIP3   OH251856   2.488   5.091  11.401  0.2621  0.0529 -0.4326
10122TIP3    H151857   2.421   5.084  11.333 -0.2961 -0.2299  0.1352
10122TIP3    H251858   2.514   5.001  11.418 -1.6211 -0.1819  1.6812
10123TIP3   OH251859   2.019   4.095  10.708 -0.4814  0.0679  0.2026
10123TIP3    H151860   1.987   4.013  10.670 -0.0135  0.1635 -0.4102
10123TIP3    H251861   1.972   4.163  10.660  1.0865  0.2383 -1.1946
10124TIP3   OH251862   0.853   1.694   0.935  0.1086 -0.5457  0.1508
10124TIP3    H151863   0.849   1.610   0.891  0.9600 -0.5850  0.1354
10124TIP3    H251864   0.793   1.750   0.885  0.4620 -0.8058 -0.5887
10125TIP3   OH251865   3.712   3.809   2.423 -0.5244 -0.3510  0.5788
10125TIP3    H151866   3.797   3.842   2.396 -0.1323 -1.5363  0.2922
10125TIP3    H251867   3.655   3.821   2.346 -0.5963  0.3547  0.7401
10126TIP3   OH251868   3.665   5.522   2.133  0.3237  0.5544  0.6696
10126TIP3    H151869   3.585   5.549   2.178  0.9512  1.5515  1.2163
10126TIP3    H251870   3.636   5.453   2.073 -0.8506  0.5232  1.2349
10127TIP3   OH251871   4.206   2.217  12.866 -0.1140 -0.0380  0.1690
10127TIP3    H151872   4.144   2.275  12.911 -0.0507 -1.4133  2.1568
10127TIP3    H251873   4.190   2.233  12.773 -0.9336  2.2430  0.6365
10128TIP3   OH251874   1.869   5.091   1.259 -0.3451 -0.7346 -0.1816
10128TIP3    H151875   1.797   5.089   1.196 -1.4280 -2.3124  1.0361
10128TIP3    H251876   1.828   5.074   1.344  1.2478  0.0312  0.8021
10129TIP3   OH251877   0.717   3.955   0.950  0.1177 -0.1084 -0.0196
10129TIP3    H151878   0.748   3.906   1.026 -1.6750  0.1495  0.9333
10129TIP3    H251879   0.699   4.043   0.984 -0.3012  0.1301 -0.8290
10130TIP3   OH251880   4.578   6.713  11.149  0.1154 -0.2598 -0.2923
10130TIP3    H151881   4.582   6.747  11.238  0.5939  0.6310 -0.6374
10130TIP3    H251882   4.601   6.621  11.157 -1.4197 -0.5991  0.6967
10131TIP3   OH251883   0.619   4.545   1.998 -0.2332 -0.2707 -0.1552
10131TIP3    H151884   0.551   4.522   1.934  1.7718 -0.4758 -2.3536
10131TIP3    H251885   0.666   4.618   1.958  0.5475  0.1910  1.5196
10132TIP3   OH251886   0.316   0.925  11.555 -0.2857  0.2946  0.5825
10132TIP3    H151887   0.331   0.834  11.531  2.3869  0.6873  0.4375
10132TIP3    H251888   0.344   0.975  11.478 -0.5834  1.2822  1.0962
10133TIP3   OH251889   4.243   5.833  15.467 -0.4541 -0.3304 -0.3244
10133TIP3    H151890   4.287   5.915  15.488  0.6782 -0.8860 -0.4467
10133TIP3    H251891   4.215   5.799  15.551 -0.1520 -0.2342 -0.1831
10134TIP3   OH251892   4.771   3.730   3.850 -0.7228 -0.4550  1.0718
10134TIP3    H151893   4.792   3.687   3.767 -0.5165  1.2024  0.2242
10134TIP3    H251894   4.855   3.764   3.881 -0.6316 -1.8037  2.4577
10135TIP3   OH251895   5.892   2.420   0.306 -0.4531  0.1149  0.8867
10135TIP3    H151896   5.886   2.390   0.396 -1.0483  0.7613  1.0667
10135TIP3    H251897   5.843   2.501   0.304 -1.5098 -0.5250 -0.3021
10136TIP3   OH251898   0.650   2.082   3.517 -0.1723 -0.5328 -0.6017
10136TIP3    H151899   0.592   2.098   3.442  0.5547 -0.6429 -1.2082
10136TIP3    H251900   0.721   2.146   3.506 -0.4523 -0.0245  0.4341
10137TIP3   OH251901   3.407   4.267   3.317  0.2411 -0.3205 -0.0323
10137TIP3    H151902   3.433   4.358   3.326  1.1031 -0.6385  0.9271
10137TIP3    H251903   3.449   4.239   3.235  1.2356 -0.2382  0.4233
10138TIP3   OH251904   6.454   5.936  15.892 -0.5210  0.3136  0.0271
10138TIP3    H151905   6.466   6.027  15.865 -0.8392  0.6371  0.9529
10138TIP3    H251906   6.513   5.887  15.835 -0.3549  1.0892 -0.4949
10139TIP3   OH251907   2.489   5.207  16.835 -0.2585  0.0757 -0.0359
10139TIP3    H151908   2.554   5.244  16.895  0.5957 -0.8487 -0.3712
10139TIP3    H251909   2.512   5.243  16.749 -0.7436  0.4460 -0.0162
10140TIP3   OH251910   3.362   4.321  14.235 -0.3143  0.0686  0.2900
10140TIP3    H151911   3.444   4.315  14.186  0.0195  0.2014  0.8368
10140TIP3    H251912   3.388   4.332  14.326 -0.8191 -4.3662  1.2072
10141TIP3   OH251913   1.429   0.420   0.484 -0.6610 -0.4526  0.2264
10141TIP3    H151914   1.503   0.361   0.477  0.6901  1.1144  0.6932
10141TIP3    H251915   1.432   0.453   0.574 -0.0572  1.8957 -0.5792
10142TIP3   OH251916   6.278   4.370   2.037 -0.5320 -0.4986  0.2873
10142TIP3    H151917   6.277   4.465   2.042 -1.6375 -0.5383  1.4585
10142TIP3    H251918   6.358   4.349   1.988  0.5485  0.9680  1.3235
10143TIP3   OH251919   3.664   2.258   3.125  0.1928 -0.3337  0.1759
10143TIP3    H151920   3.619   2.260   3.210  2.0352 -4.9188  1.5797
10143TIP3    H251921   3.597   2.225   3.064  0.2734 -2.7597  1.2721
10144TIP3   OH251922   6.219   1.924  11.445 -0.4928 -0.6670 -0.0896
10144TIP3    H151923   6.127   1.915  11.423 -0.5193  0.1741 -0.3594
10144TIP3    H251924   6.263   1.932  11.360 -0.3347  0.2775  0.0661
10145TIP3   OH251925   6.594   2.166   4.599  0.0966  0.8756 -0.4700
10145TIP3    H151926   6.530   2.225   4.637  0.8914  2.1353 -1.0100
10145TIP3    H251927   6.678   2.212   4.608  0.6623  0.0798 -1.3929
10146TIP3   OH251928   0.101   3.008  13.529 -0.0918 -0.0933 -0.1578
10146TIP3    H151929   0.111   2.949  13.605  1.0325  0.3908  0.0903
10146TIP3    H251930   0.027   2.971  13.481  0.2941 -1.4663  0.2250
10147TIP3   OH251931   5.162   1.104  11.150  0.4399 -0.2103 -0.3488
10147TIP3    H151932   5.084   1.059  11.118  1.4151 -1.0907 -1.6522
10147TIP3    H251933   5.219   1.033  11.182  0.8277  0.3771  0.2822
10148TIP3   OH251934   4.226   2.190  15.006 -0.3864 -0.2370  0.1707
10148TIP3    H151935   4.143   2.212  14.964 -0.6323  1.2146  1.3365
10148TIP3    H251936   4.202   2.163  15.095  0.3081 -0.9028  0.1674
10149TIP3   OH251937   5.981   3.969   2.667  0.7492 -0.2740  0.1314
10149TIP3    H151938   6.015   4.058   2.672 -1.4134  0.6598 -0.4925
10149TIP3    H251939   5.983   3.948   2.574  4.3401 -2.2775  0.4809
10150TIP3   OH251940   5.820   1.003  13.229  0.2672  0.2991  0.8971
10150TIP3    H151941   5.886   1.026  13.164 -1.9105  2.9926 -0.5610
10150TIP3    H251942   5.782   0.922  13.195  2.0414 -0.7168  1.2110
10151TIP3   OH251943   1.540   0.404  10.797  0.6129 -0.1943  0.1071
10151TIP3    H151944   1.487   0.380  10.873 -0.5365  1.5790 -0.0797
10151TIP3    H251945   1.565   0.320  10.758 -3.0727 -1.2001 -0.4783
10152TIP3   OH251946   4.583   5.358   3.729 -0.8157 -0.2490 -0.0719
10152TIP3    H151947   4.536   5.275   3.741 -1.0985  0.0136  0.7208
10152TIP3    H251948   4.561   5.409   3.807  0.7919 -0.1107  0.3198
10153TIP3   OH251949   1.108   0.633  12.055  0.1113  0.3333 -0.5577
10153TIP3    H151950   1.067   0.562  12.106  0.6166  0.6519  0.3059
10153TIP3    H251951   1.196   0.602  12.037  0.2278  0.6081 -0.4589
10154TIP3   OH251952   4.326   2.384  14.127 -0.2952 -0.5997  0.1828
10154TIP3    H151953   4.416   2.399  14.098 -0.5573 -0.5355 -0.6118
10154TIP3    H251954   4.293   2.471  14.149  0.3480 -0.7890  2.0543
10155TIP3   OH251955   3.531   0.574   1.987 -0.2082 -0.5707 -0.5729
10155TIP3    H151956   3.476   0.496   1.977 -0.1708 -0.5443 -1.0313
10155TIP3    H251957   3.470   0.647   1.989 -0.2095 -0.5639 -0.7955
10156TIP3   OH251958   5.693   1.206  15.169  0.1403  0.4596  0.7564
10156TIP3    H151959   5.788   1.202  15.176  0.0852 -0.1336  1.3426
10156TIP3    H251960   5.672   1.158  15.089  0.3674  1.1013  0.3105
10157TIP3   OH251961   1.681   1.973  13.845 -0.2055  0.1207 -0.1435
10157TIP3    H151962   1.734   2.050  13.826  0.4150  0.0461  1.1731
10157TIP3    H251963   1.593   1.996  13.815  0.2484  0.8054 -1.0020
10158TIP3   OH251964   2.261   3.021   4.688  0.5820 -0.2235  0.0597
10158TIP3    H151965   2.183   3.051   4.736  0.1428 -0.0180 -0.7551
10158TIP3    H251966   2.331   3.024   4.753  0.1785  0.8506  0.4770
10159TIP3   OH251967   5.367   1.835   2.439 -0.1419  0.1559 -0.3057
10159TIP3    H151968   5.430   1.793   2.381 -0.5505 -3.2001  1.4141
10159TIP3    H251969   5.324   1.902   2.385  4.7594  2.7211 -1.5573
10160TIP3   OH251970   5.260   4.735  16.002 -0.2799 -0.0330  0.2639
10160TIP3    H151971   5.181   4.681  16.007  0.4555 -1.0652  1.1610
10160TIP3    H251972   5.227   4.825  15.999 -1.5014 -0.4709 -0.0981
10161TIP3   OH251973   6.506   6.562  15.057 -0.0734  0.1332 -0.2528
10161TIP3    H151974   6.507   6.617  15.135 -0.5964  0.1853 -0.2768
10161TIP3    H251975   6.415   6.564  15.027  0.5220  1.8709 -2.1342
10162TIP3   OH251976   6.583   5.226  11.551 -0.1171 -0.2068  0.0233
10162TIP3    H151977   6.552   5.215  11.461  0.5561  0.9159 -0.3730
10162TIP3    H251978   6.590   5.137  11.585  1.5766 -0.8168 -1.7280
10163TIP3   OH251979   3.769   4.942  17.384 -0.3462 -0.7814  0.0218
10163TIP3    H151980   3.838   4.985  17.433  0.5073 -1.3812 -0.6095
10163TIP3    H251981   3.798   4.947  17.293 -0.7853 -1.6636 -0.1788
10164TIP3   OH251982   6.338   0.208  15.581  0.3454 -0.2475  0.7832
10164TIP3    H151983   6.272   0.144  15.606  0.8384 -0.8492  0.5737
10164TIP3    H251984   6.298   0.293  15.600 -0.7782 -0.5750 -0.0499
10165TIP3   OH251985   5.409   5.013   0.129  0.5121 -0.2176  0.0988
10165TIP3    H151986   5.489   5.031   0.178  1.2475 -0.0513 -1.1128
10165TIP3    H251987   5.426   5.047   0.041 -0.9547 -0.0249 -0.1498
10166TIP3   OH251988   4.702   1.980  15.078  0.5385  0.3098  0.6711
10166TIP3    H151989   4.624   1.978  15.022  0.4446 -0.7367  0.8147
10166TIP3    H251990   4.770   1.939  15.024  0.8402  0.6754  0.7694
10167TIP3   OH251991   5.066   4.072  14.239  0.0894 -0.1771  0.2372
10167TIP3    H151992   5.012   4.009  14.191  0.8265 -1.8927  1.5699
10167TIP3    H251993   5.082   4.142  14.175 -0.8656 -1.2448 -1.2587
10168TIP3   OH251994   1.597   0.106   2.898  0.3698 -0.1595 -0.0837
10168TIP3    H151995   1.562   0.120   2.986 -0.4844 -0.3465 -0.3813
10168TIP3    H251996   1.641   0.021   2.902 -4.3961 -3.0923 -1.1279
10169TIP3   OH251997   3.046   3.276  11.169  0.3185 -0.3824 -0.3888
10169TIP3    H151998   3.010   3.278  11.258  0.5632 -3.5253 -0.0843
10169TIP3    H251999   2.985   3.221  11.120  1.6961 -1.1087 -1.3556
10170TIP3   OH252000   3.978   1.265   3.409 -0.1754 -0.4534  0.5191
10170TIP3    H152001   3.966   1.354   3.442 -1.4888 -0.0925 -0.8140
10170TIP3    H252002   4.013   1.216   3.483  0.9423  1.2474  1.1700
10171TIP3   OH252003   0.119   1.617   2.537 -0.2451 -0.4188  0.0105
10171TIP3    H152004   0.082   1.617   2.449  0.7954 -1.8233 -0.4742
10171TIP3    H252005   0.182   1.689   2.537 -0.4515 -0.2393 -0.2977
10172TIP3   OH252006   2.205   1.026  14.281  0.2882  0.3164 -0.0273
10172TIP3    H152007   2.289   1.060  14.249  0.8219  0.8720  1.8368
10172TIP3    H252008   2.162   1.101  14.320 -0.6742 -0.1752 -0.1068
10173TIP3   OH252009   3.727   2.861   5.905 -0.1377 -0.4693 -0.6168
10173TIP3    H152010   3.800   2.917   5.933 -1.5422  2.0028 -1.6040
10173TIP3    H252011   3.689   2.829   5.986 -0.5317  1.7507  0.1504
10174TIP3   OH252012   5.081   5.970   5.616  0.5862  0.0555  0.1303
10174TIP3    H152013   5.038   5.951   5.699  0.8265  0.8003  0.4327
10174TIP3    H252014   5.017   5.945   5.549 -0.0390  0.4905  0.5596
10175TIP3   OH252015   0.243   4.712   0.567 -0.3412 -0.5763  0.2587
10175TIP3    H152016   0.261   4.805   0.551  0.3321 -0.8442 -0.6192
10175TIP3    H252017   0.272   4.668   0.487  1.2889 -1.7646  1.4201
10176TIP3   OH252018   1.295   0.405   1.029  0.1345  0.1932  0.2520
10176TIP3    H152019   1.381   0.423   0.991 -0.0557 -0.9593 -0.7871
10176TIP3    H252020   1.298   0.312   1.051 -0.7315  0.2152  0.4956
10177TIP3   OH252021   3.332   0.833  13.281  0.9417  0.4243  0.1515
10177TIP3    H152022   3.381   0.759  13.316 -0.0280 -0.4108 -0.2154
10177TIP3    H252023   3.304   0.881  13.359  1.4211  0.3089  0.3996
10178TIP3   OH252024   6.150   5.022  14.677  0.3508  0.1027  0.2937
10178TIP3    H152025   6.221   4.985  14.729  0.7768  1.3699  0.6515
10178TIP3    H252026   6.110   5.088  14.735 -1.1156 -0.5667  0.0962
10179TIP3   OH252027   4.612   3.509  17.275 -0.2870  0.2946 -0.3636
10179TIP3    H152028   4.684   3.571  17.282 -0.6546  0.7085 -0.2223
10179TIP3    H252029   4.562   3.520  17.356 -0.6683  0.2105 -0.5826
10180TIP3   OH252030   5.355   0.303  14.020 -0.0505  0.3549  0.1714
10180TIP3    H152031   5.285   0.244  13.995  1.1873 -0.9465 -0.3471
10180TIP3    H252032   5.404   0.318  13.939  0.6608  0.7144  0.6564
10181TIP3   OH252033   4.318   4.265  14.553  0.1508  0.4537  0.4193
10181TIP3    H152034   4.411   4.243  14.559  0.4976  2.1817  3.7428
10181TIP3    H252035   4.278   4.191  14.508  2.9686 -0.7816 -0.2246
10182TIP3   OH252036   3.306   2.522  13.946 -0.4462  0.0397 -0.5267
10182TIP3    H152037   3.262   2.506  14.030 -1.8058 -2.7560 -1.6287
10182TIP3    H252038   3.234   2.528  13.883  0.6052 -0.9006 -1.8597
10183TIP3   OH252039   4.777   4.633   5.461  0.1178  0.3191  0.6818
10183TIP3    H152040   4.786   4.706   5.399 -0.5975  0.0702  0.2689
10183TIP3    H252041   4.865   4.595   5.465  0.0167 -0.1743 -0.8461
10184TIP3   OH252042   5.534   4.010  15.488  0.0209 -0.6510  0.3299
10184TIP3    H152043   5.556   4.041  15.576  0.2105 -0.7614  0.3226
10184TIP3    H252044   5.497   4.086  15.444 -0.0622 -0.5923  0.5036
10185TIP3   OH252045   1.244   0.074   4.302  0.5607  0.2750  0.3631
10185TIP3    H152046   1.316   0.054   4.243  0.7896 -1.2516  1.1210
10185TIP3    H252047   1.180   0.120   4.247  1.8105  1.0849 -0.4630
10186TIP3   OH252048   2.909   3.809   6.534  0.0695  0.1491  0.1902
10186TIP3    H152049   2.998   3.801   6.499 -0.3019  0.8915 -1.0013
10186TIP3    H252050   2.906   3.896   6.573 -0.3734  0.4741 -0.5450
10187TIP3   OH252051   1.456   1.639  16.824  0.8536  0.1365  0.4722
10187TIP3    H152052   1.542   1.661  16.859  0.7493 -1.0188  1.5192
10187TIP3    H252053   1.443   1.547  16.847 -0.9896  0.4895  1.0715
10188TIP3   OH252054   5.761   0.851  15.115 -0.1182 -0.5094  0.0302
10188TIP3    H152055   5.736   0.763  15.088 -2.1949  0.2743 -0.8988
10188TIP3    H252056   5.851   0.862  15.087 -0.5461 -1.5903 -1.8660
10189TIP3   OH252057   1.268   6.456   3.458  0.4048 -0.6306 -0.2826
10189TIP3    H152058   1.253   6.370   3.419  1.0985 -1.8675  1.9685
10189TIP3    H252059   1.361   6.456   3.481  0.3976  0.7041 -0.1877
10190TIP3   OH252060   5.622   0.780  14.828 -0.0301 -0.4653  0.2056
10190TIP3    H152061   5.553   0.749  14.770  0.1321 -1.2611  0.4278
10190TIP3    H252062   5.638   0.707  14.888  0.7370 -0.1526  0.3987
10191TIP3   OH252063   0.469   3.824  10.528  0.0112 -0.3544 -0.4088
10191TIP3    H152064   0.381   3.793  10.509 -0.9428  1.2271  1.0939
10191TIP3    H252065   0.460   3.919  10.534  1.6444 -0.2178  0.5794
10192TIP3   OH252066   2.122   1.668  12.116  0.6520 -0.2290 -0.0034
10192TIP3    H152067   2.188   1.608  12.084  0.1861 -1.3481  1.0719
10192TIP3    H252068   2.069   1.616  12.176 -2.3622  0.0763 -2.1562
10193TIP3   OH252069   5.101   0.815   0.796  1.1624  0.1453 -0.0198
10193TIP3    H152070   5.038   0.761   0.844  3.2494 -1.9239  0.5703
10193TIP3    H252071   5.168   0.837   0.861  1.9755  0.7577 -1.0321
10194TIP3   OH252072   4.410   0.059  17.296 -0.1617 -0.2995 -0.5800
10194TIP3    H152073   4.491   0.106  17.315 -0.0393 -0.7539  0.0565
10194TIP3    H252074   4.438  -0.031  17.280 -0.2683  0.0391 -2.9139
10195TIP3   OH252075   6.123   1.170  11.026  0.3319 -0.1717  0.0062
10195TIP3    H152076   6.198   1.226  11.048  0.5990 -0.4870 -0.0908
10195TIP3    H252077   6.150   1.123  10.947 -0.5619  0.8228 -0.9078
10196TIP3   OH252078   1.043   2.456  14.248 -0.2503  0.3794 -0.1658
10196TIP3    H152079   0.983   2.504  14.305 -2.1335  0.1612 -1.8313
10196TIP3    H252080   1.062   2.375  14.294 -2.9028 -0.4584 -0.3726
10197TIP3   OH252081   5.093   6.181   3.290  0.2392  0.2273  0.8228
10197TIP3    H152082   5.055   6.263   3.260  0.5648  0.4859  1.1211
10197TIP3    H252083   5.035   6.152   3.361 -0.4941 -0.3529 -0.0004
10198TIP3   OH252084   6.096   2.054  16.791 -0.6987 -0.1833  0.4211
10198TIP3    H152085   6.175   2.066  16.738 -0.3452 -1.3137  0.6495
10198TIP3    H252086   6.027   2.036  16.728 -0.5929 -0.0518  0.2665
10199TIP3   OH252087   5.528   1.416  16.226 -0.1720 -0.3444  0.4052
10199TIP3    H152088   5.581   1.452  16.298 -1.6589  2.1716  0.3617
10199TIP3    H252089   5.437   1.429  16.254 -0.7818 -0.4940 -1.3887
10200TIP3   OH252090   0.194   1.893   5.958  0.6156  0.4265 -0.5238
10200TIP3    H152091   0.244   1.970   5.984  0.4563 -0.1248  1.5650
10200TIP3    H252092   0.260   1.827   5.939  0.8219 -0.3078  2.2548
10201TIP3   OH252093   0.088   2.754   5.707 -0.1237  0.2750  0.9734
10201TIP3    H152094   0.124   2.836   5.739  3.8650 -0.3813 -1.1167
10201TIP3    H252095   0.157   2.718   5.651 -3.4004 -2.3245 -1.8981
10202TIP3   OH252096   6.543   1.972   1.690 -0.4390 -0.1042  0.1735
10202TIP3    H152097   6.620   2.004   1.643  0.9188 -0.4021  2.0747
10202TIP3    H252098   6.577   1.937   1.772 -2.4133 -1.8699  0.3556
10203TIP3   OH252099   4.640   4.590  15.803  0.1339 -0.7597 -0.3740
10203TIP3    H152100   4.678   4.642  15.732 -0.3201 -0.7761 -0.6366
10203TIP3    H252101   4.683   4.505  15.796  0.5205 -0.5755 -0.2572
10204TIP3   OH252102   4.664   0.700  16.315  0.1788  0.2012  0.0975
10204TIP3    H152103   4.641   0.625  16.371 -1.9910  1.5247  1.1256
10204TIP3    H252104   4.651   0.776  16.371  0.3217  1.4546 -1.5098
10205TIP3   OH252105   2.279   4.256  11.897  0.2331 -0.1427  0.4765
10205TIP3    H152106   2.194   4.256  11.940  0.0843 -2.4377  0.2987
10205TIP3    H252107   2.268   4.311  11.820 -0.3277  1.6288  1.7668
10206TIP3   OH252108   3.826   4.395   2.600  1.0600  0.0618 -0.3101
10206TIP3    H152109   3.920   4.391   2.579  0.9621  0.7675 -0.9486
10206TIP3    H252110   3.810   4.487   2.621  0.6273 -0.1708  0.4050
10207TIP3   OH252111   5.902   3.590   6.431 -0.1601  0.2827  0.2901
10207TIP3    H152112   5.901   3.498   6.457  1.3464 -0.6900 -2.6731
10207TIP3    H252113   5.987   3.623   6.459  0.5090 -0.1081 -1.2103
10208TIP3   OH252114   6.626   1.140  13.750 -0.4910 -0.2001  0.4313
10208TIP3    H152115   6.539   1.100  13.757 -1.5306  1.1951 -2.7899
10208TIP3    H252116   6.609   1.232  13.731  1.7168  0.2274  0.2206
10209TIP3   OH252117   6.444   4.263  17.383  0.2965  0.2008  0.0789
10209TIP3    H152118   6.537   4.281  17.402 -0.1523  1.3471  1.3675
10209TIP3    H252119   6.423   4.321  17.310  0.3585  0.6591  0.4167
10210TIP3   OH252120   3.608   1.762   2.401 -0.3088  0.4040  0.4985
10210TIP3    H152121   3.649   1.753   2.315 -2.0372  1.7414 -0.5452
10210TIP3    H252122   3.680   1.788   2.459  0.5642  1.4508 -0.9747
10211TIP3   OH252123   5.792   5.772   3.259  0.4345 -0.0628 -0.3653
10211TIP3    H152124   5.786   5.681   3.230  0.1689 -0.4376  0.8205
10211TIP3    H252125   5.782   5.768   3.354 -0.1409  1.2546 -0.3416
10212TIP3   OH252126   3.717   0.172  15.369  0.1290 -0.0638 -0.4596
10212TIP3    H152127   3.774   0.231  15.320  0.6803  0.1793  0.4388
10212TIP3    H252128   3.629   0.191  15.337  0.4330  0.3832 -1.0476
10213TIP3   OH252129   0.920   5.554   1.072  0.1934  0.0392  1.0271
10213TIP3    H152130   0.862   5.629   1.068  0.3605  0.2543  2.2183
10213TIP3    H252131   0.890   5.504   1.148 -0.1008 -1.2604  0.0768
10214TIP3   OH252132   4.776   0.310  11.810 -0.1176  0.9208 -0.1795
10214TIP3    H152133   4.755   0.293  11.718  0.1506  0.0776 -0.0927
10214TIP3    H252134   4.848   0.249  11.830 -0.3709  0.8858  0.6657
10215TIP3   OH252135   0.951   4.697   2.092  0.0765 -0.4985 -0.1273
10215TIP3    H152136   1.012   4.771   2.092  0.2422 -0.6324  0.1393
10215TIP3    H252137   1.004   4.622   2.118 -0.1374 -0.6742 -0.1910
10216TIP3   OH252138   6.616   4.810   5.904 -0.9834  0.7031  0.0301
10216TIP3    H152139   6.565   4.890   5.915 -0.7648  1.0865 -1.5765
10216TIP3    H252140   6.707   4.839   5.903 -0.7189  0.1035  2.1241
10217TIP3   OH252141   5.831   0.268   1.013 -0.5322  0.2388  0.7496
10217TIP3    H152142   5.866   0.216   0.941 -0.2701  3.3366 -1.5684
10217TIP3    H252143   5.906   0.284   1.070  0.2271  1.0497 -0.4496
10218TIP3   OH252144   1.463   4.138   4.367 -0.0975 -0.3937 -0.0771
10218TIP3    H152145   1.431   4.228   4.361 -0.5090 -0.4412  1.1709
10218TIP3    H252146   1.385   4.083   4.361  0.1291 -0.6695 -0.6055
10219TIP3   OH252147   2.859   4.132   4.876  0.2643  0.4936  0.3024
10219TIP3    H152148   2.912   4.052   4.868  0.1611  0.4627 -0.0869
10219TIP3    H252149   2.772   4.106   4.845 -0.3639  0.1729  2.1795
10220TIP3   OH252150   2.606   1.582   3.176  0.7303 -0.2697 -0.2916
10220TIP3    H152151   2.578   1.505   3.225  0.3088 -0.3935 -0.7221
10220TIP3    H252152   2.537   1.647   3.192 -0.1461 -0.7757 -1.8475
10221TIP3   OH252153   6.446   6.697   1.390  0.7689  0.5823  0.0662
10221TIP3    H152154   6.378   6.675   1.454  0.6839 -1.1664 -0.5654
10221TIP3    H252155   6.439   6.792   1.379 -0.0939  0.7359  1.6428
10222TIP3   OH252156   0.426   3.945   5.436 -0.0291 -0.1201 -0.2862
10222TIP3    H152157   0.409   3.905   5.351  0.4043 -1.9804  0.4689
10222TIP3    H252158   0.345   3.933   5.485  0.0815 -0.0042 -0.0745
10223TIP3   OH252159   1.128   2.066   2.405 -0.4836 -0.2073 -0.2602
10223TIP3    H152160   1.043   2.022   2.419  0.2990 -1.6572  0.1851
10223TIP3    H252161   1.128   2.088   2.312 -2.4934  2.4185  0.2261
10224TIP3   OH252162   5.695   0.294   3.635  0.2759 -0.0717 -0.0550
10224TIP3    H152163   5.668   0.337   3.555  2.1726  2.4849  0.5406
10224TIP3    H252164   5.681   0.359   3.704  0.3449 -1.5403  1.4234
10225TIP3   OH252165   2.884   2.364  13.835  0.1407 -0.4569  0.1977
10225TIP3    H152166   2.823   2.392  13.766  2.2261  1.0692 -1.1445
10225TIP3    H252167   2.887   2.269  13.827  1.0988 -0.2931 -2.6175
10226TIP3   OH252168   2.326   0.983  17.047  0.4693  0.1064  0.2141
10226TIP3    H152169   2.269   1.036  17.103  1.0706  0.8492  0.1484
10226TIP3    H252170   2.303   0.893  17.068  0.1305  0.3801  1.0841
10227TIP3   OH252171   5.089   6.641   0.981  0.0289  1.2315 -0.4643
10227TIP3    H152172   5.167   6.687   1.010  1.7303 -1.5394 -0.2204
10227TIP3    H252173   5.045   6.615   1.061  0.8684 -0.2665 -0.4394
10228TIP3   OH252174   1.942   0.074   3.195 -0.0407  0.6145  0.5833
10228TIP3    H152175   1.936   0.030   3.280  0.7822  2.1987  1.5050
10228TIP3    H252176   2.013   0.030   3.149 -1.2240 -1.0043  0.2023
10229TIP3   OH252177   4.808   0.109   6.419  0.1123  0.0235  0.1034
10229TIP3    H152178   4.718   0.091   6.447  1.1325 -1.0440  3.0098
10229TIP3    H252179   4.832   0.190   6.464  1.2707 -0.8357  1.0744
10230TIP3   OH252180   5.267   1.481  16.507  0.4882 -1.2346  0.7280
10230TIP3    H152181   5.215   1.558  16.487  0.7602 -0.8134  1.6208
10230TIP3    H252182   5.233   1.448  16.590  0.8826 -1.6152  0.7462
10231TIP3   OH252183   3.598   2.061   5.959  0.4324  1.1661  0.3788
10231TIP3    H152184   3.503   2.070   5.965  0.2384  1.6731 -2.2625
10231TIP3    H252185   3.622   2.007   6.035 -2.3536 -1.4763 -0.4018
10232TIP3   OH252186   5.475   6.665  17.288  0.5298 -0.0814 -0.2167
10232TIP3    H152187   5.451   6.573  17.278 -0.1985 -0.0574  1.0420
10232TIP3    H252188   5.396   6.713  17.263  0.3192  0.1245  0.7953
10233TIP3   OH252189   6.567   4.313   4.859  0.0779 -0.1666 -0.8566
10233TIP3    H152190   6.644   4.260   4.881 -0.4884  0.0823  1.9898
10233TIP3    H252191   6.494   4.250   4.860 -0.1995  0.1633 -0.3352
10234TIP3   OH252192   4.407   0.403  16.725 -0.3631 -0.5025  0.2651
10234TIP3    H152193   4.500   0.411  16.703 -0.1510 -0.5911  1.0623
10234TIP3    H252194   4.383   0.316  16.693 -0.3897 -0.1646 -0.6576
10235TIP3   OH252195   5.359   6.225   1.390  0.0890  0.0127  0.0363
10235TIP3    H152196   5.384   6.267   1.472 -0.5550  1.1956 -0.3541
10235TIP3    H252197   5.437   6.230   1.336 -0.5893  2.8647 -0.8471
10236TIP3   OH252198   4.807   3.882   5.907  0.7650  0.0076 -0.5885
10236TIP3    H152199   4.855   3.816   5.957  0.9347 -0.1433 -0.9469
10236TIP3    H252200   4.716   3.874   5.938  0.1705 -2.3573 -2.5862
10237TIP3   OH252201   5.673   4.761   5.200 -0.0928  0.3531  0.1577
10237TIP3    H152202   5.609   4.699   5.235 -0.9874  0.5017 -1.1361
10237TIP3    H252203   5.623   4.842   5.187  0.8030  1.0329  0.8132
10238TIP3   OH252204   2.263   0.029  14.013 -0.4556 -0.1597 -0.0028
10238TIP3    H152205   2.200  -0.011  14.074 -0.5676 -1.3950 -0.8900
10238TIP3    H252206   2.334   0.060  14.069  0.0100 -2.3218  0.6888
10239TIP3   OH252207   3.702   6.488   2.315  0.1791  0.2799  0.3200
10239TIP3    H152208   3.653   6.569   2.330 -0.8336 -0.1791 -0.4522
10239TIP3    H252209   3.701   6.476   2.220 -2.6921 -2.3974  0.5174
10240TIP3   OH252210   5.157   2.693  12.873  0.7873 -0.0464 -0.3879
10240TIP3    H152211   5.085   2.725  12.819  1.3698 -0.1199 -1.2179
10240TIP3    H252212   5.135   2.723  12.962 -0.1936  0.0381 -0.6470
10241TIP3   OH252213   6.128   5.335   1.357  0.0080  0.0887 -0.6641
10241TIP3    H152214   6.092   5.380   1.281  0.1531 -0.6889 -1.2062
10241TIP3    H252215   6.052   5.299   1.403 -0.0342 -0.0365 -0.8309
10242TIP3   OH252216   0.942   1.858  15.443  0.5653  0.2021 -0.4550
10242TIP3    H152217   1.012   1.920  15.423  2.0778 -1.4558 -0.4947
10242TIP3    H252218   0.969   1.776  15.403 -0.5270 -0.9606  1.0516
10243TIP3   OH252219   0.185   2.219   4.298  0.9030  0.3439 -0.7809
10243TIP3    H152220   0.193   2.176   4.213  2.3002  1.1320 -1.0714
10243TIP3    H252221   0.103   2.269   4.291  0.7684  0.0454 -1.4904
10244TIP3   OH252222   5.520   5.995  16.102  0.6962 -0.1147 -0.0678
10244TIP3    H152223   5.584   5.984  16.173 -0.8540 -2.5303  1.0640
10244TIP3    H252224   5.574   5.999  16.023  2.3141 -1.0397  0.9256
10245TIP3   OH252225   0.853   6.598  14.295  0.5405  0.4542  0.4236
10245TIP3    H152226   0.791   6.664  14.327  0.0218  1.1431 -1.8174
10245TIP3    H252227   0.933   6.648  14.277  0.6389  0.1973  0.1373
10246TIP3   OH252228   0.906   0.130  17.338 -0.3542 -0.0869  0.5147
10246TIP3    H152229   0.832   0.085  17.378 -1.5212  1.1024 -0.1801
10246TIP3    H252230   0.878   0.143  17.247  0.3713  1.0678  0.4409
10247TIP3   OH252231   3.012   1.729   3.071 -0.2915  0.3094 -0.1398
10247TIP3    H152232   2.990   1.659   3.133  0.5749  0.8853  0.8311
10247TIP3    H252233   3.095   1.700   3.031 -0.7957 -0.0145 -0.9876
10248TIP3   OH252234   2.778   4.619   1.082 -1.0775 -0.2846 -0.3845
10248TIP3    H152235   2.788   4.671   1.161 -0.6957 -0.0528 -0.5826
10248TIP3    H252236   2.713   4.667   1.029 -1.1041 -0.2791 -0.3468
10249TIP3   OH252237   0.502   4.193  14.918 -0.1686  0.6480 -0.6946
10249TIP3    H152238   0.505   4.226  15.008  0.3828  1.3901 -0.9734
10249TIP3    H252239   0.578   4.134  14.912 -0.8784 -0.3243 -0.3390
10250TIP3   OH252240   1.472   1.799   1.078  0.5960 -0.1722 -0.3245
10250TIP3    H152241   1.465   1.805   0.983  2.7145  2.0687 -0.4216
10250TIP3    H252242   1.558   1.836   1.099  0.3543 -0.9220  2.4565
10251TIP3   OH252243   2.688   4.320  12.471  0.2907  0.0366  0.1053
10251TIP3    H152244   2.698   4.416  12.471  1.0285  0.0123  2.3523
10251TIP3    H252245   2.643   4.301  12.389  0.5904  2.2605 -0.6459
10252TIP3   OH252246   3.478   5.035  16.389  0.6064 -0.0238  0.1405
10252TIP3    H152247   3.492   4.941  16.378  1.0856  0.2230 -1.6792
10252TIP3    H252248   3.423   5.060  16.314  1.4442  1.3355 -0.0545
10253TIP3   OH252249   3.917   3.479   0.245 -0.3782  0.0937  0.8192
10253TIP3    H152250   3.970   3.453   0.320  0.1546 -0.6427  0.2006
10253TIP3    H252251   3.908   3.574   0.254  0.8395  0.1973  1.0693
10254TIP3   OH252252   6.439   3.239  16.501  0.3765 -0.7240 -0.2340
10254TIP3    H152253   6.403   3.152  16.485 -0.1701 -0.5770  0.1573
10254TIP3    H252254   6.421   3.256  16.594  0.5968 -0.2490 -0.2717
10255TIP3   OH252255   1.192   5.252  11.322 -0.5957  0.3417  0.3699
10255TIP3    H152256   1.141   5.332  11.312 -1.3963  0.1426  2.3747
10255TIP3    H252257   1.266   5.278  11.377  0.0660  0.0691 -0.3881
10256TIP3   OH252258   3.312   2.058   5.920  0.3764 -0.4950 -0.0969
10256TIP3    H152259   3.279   2.132   5.869 -3.5901 -2.2459 -0.4285
10256TIP3    H252260   3.336   2.096   6.004  1.5781  1.5970 -1.3071
10257TIP3   OH252261   0.612   1.465   0.335 -0.5118  0.7352 -0.4110
10257TIP3    H152262   0.629   1.418   0.254  2.8005 -0.6443  0.8824
10257TIP3    H252263   0.601   1.557   0.308 -4.8424 -0.2085 -2.7578
10258TIP3   OH252264   4.019   0.864   2.854  0.6215 -0.1461  0.4671
10258TIP3    H152265   4.028   0.772   2.831  0.6144  0.5437 -2.7756
10258TIP3    H252266   3.952   0.866   2.921  1.4380 -2.5609  1.4546
10259TIP3   OH252267   2.035   2.979   1.395 -0.2744  0.5165 -0.1816
10259TIP3    H152268   2.048   3.001   1.487  1.7691  1.4077 -0.6359
10259TIP3    H252269   1.993   3.056   1.357 -3.2333 -0.6941  0.3849
10260TIP3   OH252270   0.767   4.051   1.531  0.1978  0.2007 -0.0662
10260TIP3    H152271   0.840   4.012   1.483 -0.2323  0.2291 -0.7616
10260TIP3    H252272   0.715   4.094   1.464 -0.7754 -0.3097  0.3362
10261TIP3   OH252273   6.167   4.794  16.591 -0.2564  0.3266  0.2005
10261TIP3    H152274   6.244   4.836  16.555  0.2878 -0.9364 -0.1638
10261TIP3    H252275   6.187   4.700  16.589 -2.3338 -0.1524 -1.2014
10262TIP3   OH252276   2.841   3.621  16.744 -0.2544  0.0477  0.6481
10262TIP3    H152277   2.890   3.674  16.682 -2.2095 -0.7264 -1.7161
10262TIP3    H252278   2.905   3.558  16.778  1.0481  0.9955  0.0215
10263TIP3   OH252279   6.338   3.290   5.488 -0.0418  0.0814  0.3377
10263TIP3    H152280   6.389   3.233   5.545 -0.1505  0.0945  0.4505
10263TIP3    H252281   6.370   3.272   5.400  0.5280  0.4812  0.4598
10264TIP3   OH252282   1.598   3.612   0.121  0.0267 -0.0344  0.6243
10264TIP3    H152283   1.677   3.574   0.082  0.3289  0.8007  0.3950
10264TIP3    H252284   1.594   3.700   0.085 -2.0563 -0.6646 -0.8152
10265TIP3   OH252285   1.939   3.729   1.609 -0.8734 -0.3747  0.1765
10265TIP3    H152286   1.977   3.663   1.668  2.1403  1.4956  0.5339
10265TIP3    H252287   1.884   3.782   1.666 -0.1868 -0.2561  0.7457
10266TIP3   OH252288   1.404   1.237   1.682 -0.1365  0.8590  0.2999
10266TIP3    H152289   1.367   1.165   1.733  0.3555 -1.3639 -2.2059
10266TIP3    H252290   1.372   1.221   1.593  0.3254  3.5661 -0.4279
10267TIP3   OH252291   2.329   1.962  14.939  0.3274  0.0013  0.1505
10267TIP3    H152292   2.342   1.868  14.927  0.9406  0.3501 -2.8939
10267TIP3    H252293   2.406   1.990  14.989  1.0168 -0.8926 -0.3610
10268TIP3   OH252294   4.550   3.782  16.520  0.4372  0.4483 -0.3337
10268TIP3    H152295   4.476   3.744  16.474  0.5109 -0.0817 -0.0194
10268TIP3    H252296   4.510   3.845  16.581  0.2873  0.5473 -0.5313
10269TIP3   OH252297   3.276   1.373   5.972 -0.1161 -0.1453  0.2575
10269TIP3    H152298   3.277   1.398   6.065  0.9839 -1.7381  0.7190
10269TIP3    H252299   3.244   1.283   5.971 -0.3120 -0.0812 -0.9356
10270TIP3   OH252300   2.370   4.448   2.270 -0.4168  0.4967 -0.1293
10270TIP3    H152301   2.452   4.471   2.226 -0.7349  2.0758  0.0534
10270TIP3    H252302   2.384   4.471   2.362  0.5671 -3.5993  0.9710
10271TIP3   OH252303   4.880   3.788   1.114  0.5064 -0.9160 -0.0041
10271TIP3    H152304   4.840   3.770   1.029  1.2238 -0.7404 -0.3976
10271TIP3    H252305   4.914   3.877   1.105  0.9574 -1.0518  0.3182
10272TIP3   OH252306   5.722   2.293  15.938  0.3816  0.0188 -0.0022
10272TIP3    H152307   5.629   2.284  15.960  0.6050  0.0135  1.0335
10272TIP3    H252308   5.765   2.223  15.987  0.7619 -1.0946 -1.8503
10273TIP3   OH252309   1.072   4.991  14.099  0.2388 -0.2104 -0.4049
10273TIP3    H152310   1.011   5.021  14.032  0.3853  0.3938 -0.2655
10273TIP3    H252311   1.095   5.069  14.148  0.7158 -0.5267 -0.1187
10274TIP3   OH252312   0.827   2.428   2.667  0.6318  0.0698  0.3288
10274TIP3    H152313   0.836   2.513   2.623  0.9063 -0.4043 -0.5641
10274TIP3    H252314   0.868   2.441   2.752  1.1495  0.6802 -0.0010
10275TIP3   OH252315   1.629   2.808   0.341  0.2670 -0.2388  0.6878
10275TIP3    H152316   1.694   2.737   0.341 -0.3355 -0.8266 -0.4032
10275TIP3    H252317   1.664   2.872   0.278  0.5581  0.1984  1.2874
10276TIP3   OH252318   2.042   0.328   3.424  0.1346 -0.9389  0.0663
10276TIP3    H152319   2.037   0.423   3.438 -0.1199 -1.1172  1.3028
10276TIP3    H252320   1.952   0.301   3.409  0.2580 -0.9398 -0.7370
10277TIP3   OH252321   1.170   0.317  12.127  0.1698  0.2258 -0.1293
10277TIP3    H152322   1.211   0.313  12.041 -0.3840  0.9200 -0.4356
10277TIP3    H252323   1.241   0.298  12.188  0.2360 -1.9254 -0.7951
10278TIP3   OH252324   0.508   1.184   2.619 -0.1294  0.3343  0.2651
10278TIP3    H152325   0.518   1.279   2.627 -1.8471  0.6507 -0.8369
10278TIP3    H252326   0.579   1.158   2.561  1.5848  0.6045  2.1436
10279TIP3   OH252327   2.410   0.463   1.174 -0.0455  0.1210  0.2823
10279TIP3    H152328   2.412   0.467   1.269 -1.3515  3.0314  0.2859
10279TIP3    H252329   2.496   0.496   1.147 -0.8422  2.6207  0.5350
10280TIP3   OH252330   0.685   4.980  15.596  0.5760  0.2772 -0.0126
10280TIP3    H152331   0.708   4.895  15.633  2.3867  0.3541 -0.8671
10280TIP3    H252332   0.598   4.998  15.630  0.7437 -1.2561  1.3374
10281TIP3   OH252333   5.331   1.251  13.842 -0.0713  0.0064 -0.4249
10281TIP3    H152334   5.421   1.263  13.812 -0.0168  0.3769 -0.1139
10281TIP3    H252335   5.331   1.282  13.932 -0.6917  0.7666 -0.6752
10282TIP3   OH252336   0.821   0.949  15.421  0.5554  0.1351  0.7933
10282TIP3    H152337   0.793   0.994  15.341  2.3731 -1.4008 -0.8174
10282TIP3    H252338   0.739   0.920  15.462 -0.4855  2.1232  0.2687
10283TIP3   OH252339   5.773   6.035  12.956  0.2346  0.0304  0.2379
10283TIP3    H152340   5.853   6.020  13.007  0.5477  0.1226 -0.2245
10283TIP3    H252341   5.738   6.117  12.991  0.3929  0.0431  0.3714
10284TIP3   OH252342   4.081   1.669  10.874  0.4075 -0.5672  0.2240
10284TIP3    H152343   4.174   1.682  10.892  0.1814 -0.3398  1.2713
10284TIP3    H252344   4.061   1.582  10.910 -0.1497  0.0780  1.5171
10285TIP3   OH252345   5.380   2.413  16.604 -0.1106 -0.5141 -0.1712
10285TIP3    H152346   5.407   2.496  16.644  0.0329 -1.4790  1.9071
10285TIP3    H252347   5.375   2.352  16.678 -1.7359 -1.9833 -1.4227
10286TIP3   OH252348   1.183   6.222   6.508  0.3255  0.7924 -0.5206
10286TIP3    H152349   1.271   6.236   6.545 -0.0185  0.1915  0.5712
10286TIP3    H252350   1.126   6.218   6.584 -0.7452  1.7235 -1.2472
10287TIP3   OH252351   0.016   0.688  17.195  0.2608  0.1341  0.4990
10287TIP3    H152352   0.063   0.720  17.118 -0.7239 -1.0789 -0.6470
10287TIP3    H252353  -0.039   0.618  17.162 -0.7236  0.0537  2.2011
10288TIP3   OH252354   2.886   0.725  13.488  0.0899  0.2453 -0.4840
10288TIP3    H152355   2.909   0.666  13.559  1.1633  0.2716 -0.7992
10288TIP3    H252356   2.875   0.668  13.412  1.6600  0.4749 -0.9129
10289TIP3   OH252357   1.707   6.012  15.803 -0.3851 -0.4995 -0.3833
10289TIP3    H152358   1.703   5.993  15.709  0.0258 -1.5694 -0.1938
10289TIP3    H252359   1.800   6.007  15.824 -0.6592 -2.5778  0.5296
10290TIP3   OH252360   0.347   0.941   2.970 -0.4453  0.1603  0.1662
10290TIP3    H152361   0.266   0.922   2.922 -1.0246 -1.2266  1.5933
10290TIP3    H252362   0.327   0.917   3.061  0.5975  2.6762  1.1586
10291TIP3   OH252363   2.964   1.787   4.374 -0.4486 -0.2466 -0.4797
10291TIP3    H152364   3.008   1.710   4.339 -0.8920 -0.4803 -0.5253
10291TIP3    H252365   3.025   1.820   4.440  0.4540  0.2744 -1.5321
10292TIP3   OH252366   3.714   3.247  13.574  0.3324  0.3814 -0.1978
10292TIP3    H152367   3.744   3.177  13.632 -1.4044 -2.0444 -2.0494
10292TIP3    H252368   3.789   3.306  13.568  2.2565 -1.7923  0.7018
10293TIP3   OH252369   1.025   3.673   5.998  0.1489 -0.2682 -0.1072
10293TIP3    H152370   1.033   3.595   5.943  0.7508  0.6152 -1.3128
10293TIP3    H252371   1.092   3.661   6.066  0.0069 -0.9508 -0.0743
10294TIP3   OH252372   0.161   4.470   1.319 -0.1945  0.1365  0.1934
10294TIP3    H152373   0.092   4.529   1.287 -1.4224 -1.8064 -0.9633
10294TIP3    H252374   0.205   4.440   1.240 -0.0162 -0.9728  0.6964
10295TIP3   OH252375   5.683   6.576  15.002 -1.0471  0.4534 -0.3574
10295TIP3    H152376   5.777   6.593  15.000 -0.9609  0.0270 -0.0932
10295TIP3    H252377   5.669   6.529  15.085 -1.5863  1.0668 -0.0937
10296TIP3   OH252378   5.692   0.314   5.623  0.6111 -0.7100  0.0151
10296TIP3    H152379   5.684   0.388   5.683 -1.8203  0.3206 -1.4470
10296TIP3    H252380   5.688   0.237   5.680 -1.8758  0.2214  1.2708
10297TIP3   OH252381   2.630   2.890   2.335 -0.6989  0.3946 -0.3466
10297TIP3    H152382   2.579   2.944   2.396 -0.0998  0.7825 -0.1762
10297TIP3    H252383   2.591   2.803   2.342  0.0265  0.1654  1.4294
10298TIP3   OH252384   0.982   3.380   0.161  0.4861  0.7927 -0.4310
10298TIP3    H152385   0.924   3.351   0.091 -2.4631  3.8089  0.5030
10298TIP3    H252386   0.964   3.320   0.233 -1.5261  1.5845 -0.2055
10299TIP3   OH252387   2.807   4.870  15.319 -0.2072  0.7100 -0.5646
10299TIP3    H152388   2.898   4.887  15.344  0.1605  1.7919 -2.4879
10299TIP3    H252389   2.779   4.949  15.273 -1.6355 -0.1927 -1.3292
10300TIP3   OH252390   1.477   2.981  15.516 -0.8196 -0.2220 -0.1059
10300TIP3    H152391   1.530   2.913  15.476 -2.0948  0.3446 -3.0652
10300TIP3    H252392   1.535   3.058  15.520 -0.4093 -0.5341 -0.0184
10301TIP3   OH252393   2.826   0.368  16.419  0.5616  0.1748  0.4841
10301TIP3    H152394   2.832   0.341  16.328  1.7008 -1.3334  0.9680
10301TIP3    H252395   2.745   0.419  16.424  0.5018  0.3180 -1.3551
10302TIP3   OH252396   6.484   6.738  14.704 -0.6407  0.0019 -0.2017
10302TIP3    H152397   6.574   6.704  14.706 -0.6225 -0.0990 -1.8581
10302TIP3    H252398   6.439   6.683  14.640 -1.4786  1.0415 -0.5272
10303TIP3   OH252399   6.082   1.065  10.706  0.6452  0.3559 -0.2920
10303TIP3    H152400   6.119   1.152  10.687 -0.3761  0.6529 -1.0471
10303TIP3    H252401   6.109   1.011  10.633  0.4967  0.2871 -0.2956
10304TIP3   OH252402   6.465   5.839   4.650  0.2982  0.3988  0.1256
10304TIP3    H152403   6.387   5.841   4.595  0.0332  0.3684  0.4980
10304TIP3    H252404   6.486   5.745   4.657  0.4719  0.4189 -0.1194
10305TIP3   OH252405   2.490   3.541  15.199  0.1503 -0.0612 -0.4017
10305TIP3    H152406   2.561   3.533  15.262 -2.0881 -1.1242  2.2180
10305TIP3    H252407   2.498   3.462  15.144  0.5386 -0.5761  0.3800
10306TIP3   OH252408   3.191   3.591   2.812 -0.0176 -0.3059 -0.4005
10306TIP3    H152409   3.199   3.646   2.889 -0.0978 -0.3593 -0.3538
10306TIP3    H252410   3.110   3.621   2.770 -0.8587 -1.3678  0.4100
10307TIP3   OH252411   6.684   5.116  14.190  0.2099 -0.3925  0.0696
10307TIP3    H152412   6.752   5.073  14.139  0.0883  0.8346 -1.1875
10307TIP3    H252413   6.663   5.195  14.140  0.7434  1.3857  2.4598
10308TIP3   OH252414   4.429   6.298   4.701 -0.4219  0.1234 -0.3617
10308TIP3    H152415   4.433   6.225   4.640 -0.6321  1.4515 -2.0322
10308TIP3    H252416   4.502   6.282   4.762 -0.4344 -1.4175 -0.7042
10309TIP3   OH252417   4.458   1.089  13.402 -0.5586  0.3690 -0.3762
10309TIP3    H152418   4.385   1.119  13.456 -0.8835 -0.5549 -0.2720
10309TIP3    H252419   4.458   1.146  13.326 -1.9636 -0.1750 -0.8070
10310TIP3   OH252420   2.229   1.835   5.567 -0.1454 -0.1606 -0.2739
10310TIP3    H152421   2.288   1.898   5.608 -0.5177  1.4841 -2.1568
10310TIP3    H252422   2.286   1.778   5.516 -0.0648  0.8461 -1.3435
10311TIP3   OH252423   5.426   1.885  15.694  0.0278 -0.2838  0.2090
10311TIP3    H152424   5.506   1.922  15.732  0.6040  1.4727 -2.3954
10311TIP3    H252425   5.457   1.813  15.639 -0.5090 -1.2855  1.2003
10312TIP3   OH252426   1.693   3.730  12.095  0.5535  0.4535 -0.3745
10312TIP3    H152427   1.647   3.670  12.153  0.8839 -0.3069 -0.8828
10312TIP3    H252428   1.655   3.816  12.113 -1.2162 -0.1790 -0.9448
10313TIP3   OH252429   0.189   6.466  12.120 -0.0543  0.3640 -0.2203
10313TIP3    H152430   0.146   6.523  12.057  0.5604  1.0991  0.0157
10313TIP3    H252431   0.170   6.505  12.205  1.9891  1.3785 -0.1676
10314TIP3   OH252432   5.560   1.413   3.555  0.2792  0.4084  0.0053
10314TIP3    H152433   5.504   1.491   3.550  1.2413  1.1070 -0.1375
10314TIP3    H252434   5.595   1.415   3.644  2.5068  1.7441 -0.8219
10315TIP3   OH252435   0.749   5.949  14.821  0.0318  0.0071 -0.1637
10315TIP3    H152436   0.742   5.903  14.906  1.6336 -0.3847 -0.2185
10315TIP3    H252437   0.827   6.003  14.829 -0.5046  0.9254 -0.9711
10316TIP3   OH252438   3.787   0.308  14.734 -0.5035  0.6363 -0.1121
10316TIP3    H152439   3.705   0.319  14.781  0.1354 -1.1304  1.5399
10316TIP3    H252440   3.813   0.217  14.751  1.7453  1.1085 -0.6457
10317TIP3   OH252441   3.971   4.108  12.563  0.2983  0.5275  0.4317
10317TIP3    H152442   3.956   4.199  12.587  0.8164  0.7547 -0.0753
10317TIP3    H252443   3.927   4.097  12.479  0.4368  0.3799  0.3774
10318TIP3   OH252444   3.423   3.087  11.411 -0.1754  0.2955  0.1642
10318TIP3    H152445   3.343   3.049  11.374  0.3992  0.8038 -1.7065
10318TIP3    H252446   3.424   3.057  11.501 -2.6348  0.4897  0.3353
10319TIP3   OH252447   6.007   0.129  13.857  0.2343 -0.2613 -0.0292
10319TIP3    H152448   6.101   0.149  13.862  0.0920  0.2215  0.8607
10319TIP3    H252449   5.976   0.137  13.947 -0.7460 -0.0368 -0.3751
10320TIP3   OH252450   6.455   3.331  11.942  1.1812 -0.1257 -0.4272
10320TIP3    H152451   6.432   3.409  11.993  2.1576 -0.4132  0.4743
10320TIP3    H252452   6.393   3.331  11.869  1.3519  1.6465 -0.5984
10321TIP3   OH252453   4.994   2.947   2.582  0.7732 -0.3620 -0.1254
10321TIP3    H152454   4.937   3.023   2.570 -2.0806 -2.1382  1.1267
10321TIP3    H252455   5.027   2.956   2.671  0.7254 -0.4176 -0.1024
10322TIP3   OH252456   5.015   3.099  16.428 -0.0713 -0.4012  0.2045
10322TIP3    H152457   4.937   3.133  16.472 -0.6379 -1.0325 -0.3012
10322TIP3    H252458   5.072   3.176  16.418 -0.7917  0.1502  0.2274
10323TIP3   OH252459   0.978   6.056   3.221 -1.1001 -0.0713 -0.1565
10323TIP3    H152460   1.008   6.001   3.293  2.4303 -1.8347 -2.6233
10323TIP3    H252461   0.905   6.007   3.182 -2.2128  0.2875  1.3962
10324TIP3   OH252462   0.316   5.426  13.812 -0.0151  0.1273 -0.4470
10324TIP3    H152463   0.333   5.351  13.755 -1.7000 -0.1805 -0.5765
10324TIP3    H252464   0.402   5.448  13.848  0.6579 -1.2923 -1.1081
10325TIP3   OH252465   4.722   5.491  14.192  0.1940 -0.0541 -0.5220
10325TIP3    H152466   4.703   5.529  14.278 -1.2853 -0.0841 -0.8096
10325TIP3    H252467   4.814   5.510  14.178  0.2102  0.8699  0.6179
10326TIP3   OH252468   6.443   2.488   2.219 -0.2061  0.1186 -0.6090
10326TIP3    H152469   6.533   2.521   2.228 -0.4155  0.5165  0.1022
10326TIP3    H252470   6.407   2.493   2.308 -1.0517  0.3143 -0.9567
10327TIP3   OH252471   1.726   4.331   2.805 -0.4317  0.1062  0.3348
10327TIP3    H152472   1.762   4.303   2.721 -1.6868 -0.8484  0.0781
10327TIP3    H252473   1.772   4.412   2.825  2.8323 -1.6519  0.7043
10328TIP3   OH252474   1.401   1.987   1.954 -0.1312  0.3229  0.5621
10328TIP3    H152475   1.397   2.075   1.992 -1.7809  0.2946  0.5424
10328TIP3    H252476   1.418   1.929   2.028 -0.5626  0.5248  0.8241
10329TIP3   OH252477   2.211   2.406   1.571  0.0458 -0.0950  0.1978
10329TIP3    H152478   2.272   2.464   1.616  1.0721 -1.6113  0.8390
10329TIP3    H252479   2.240   2.408   1.479  0.2001  0.2461  0.2536
10330TIP3   OH252480   1.563   6.192  12.753  0.0164  0.0254 -0.1758
10330TIP3    H152481   1.526   6.209  12.840 -0.5203  0.0240 -0.4006
10330TIP3    H252482   1.644   6.244  12.751 -1.1931  1.9856 -0.5587
10331TIP3   OH252483   4.857   3.651   0.577  0.6835  0.2714 -0.7069
10331TIP3    H152484   4.920   3.722   0.586 -0.6130  1.2689  1.3003
10331TIP3    H252485   4.862   3.604   0.660 -0.7835  0.0426 -0.7084
10332TIP3   OH252486   0.030   5.193   2.703  0.2149 -0.5769 -0.3888
10332TIP3    H152487  -0.001   5.135   2.772 -0.2408  1.5552  1.3136
10332TIP3    H252488  -0.049   5.232   2.666  0.5721  0.7355  0.1679
10333TIP3   OH252489   1.946   3.873  14.131  0.4947 -0.2897 -0.0947
10333TIP3    H152490   2.037   3.860  14.106  0.5055  0.2715 -0.3515
10333TIP3    H252491   1.947   3.945  14.193  0.2507 -0.4554  0.1084
10334TIP3   OH252492   0.596   6.711  12.863  0.1754  0.4064  0.1297
10334TIP3    H152493   0.628   6.787  12.815  1.1114  0.3030  0.5691
10334TIP3    H252494   0.509   6.694  12.826  0.3897  1.0448 -0.6902
10335TIP3   OH252495   0.857   1.803  12.298 -0.0238 -0.2977  0.2410
10335TIP3    H152496   0.889   1.831  12.383  1.5979 -1.5035  0.0706
10335TIP3    H252497   0.833   1.885  12.253  0.3265  0.4349  1.3553
10336TIP3   OH252498   5.656   4.536  13.177  0.1492  0.0158 -0.3076
10336TIP3    H152499   5.637   4.452  13.220  0.2422  0.8891  1.5732
10336TIP3    H252500   5.744   4.558  13.206  0.1171  0.7672 -0.7610
10337TIP3   OH252501   3.247   2.145  14.431  0.0533 -0.1134  0.0566
10337TIP3    H152502   3.291   2.192  14.360 -0.7823  0.3060 -0.1917
10337TIP3    H252503   3.319   2.105  14.481  0.6507 -0.6000 -1.1390
10338TIP3   OH252504   4.295   2.049   1.397  0.5272 -0.1611 -0.5961
10338TIP3    H152505   4.322   2.117   1.336 -1.6728 -1.0359 -2.6922
10338TIP3    H252506   4.221   2.087   1.444 -1.7634 -1.4422 -2.8862
10339TIP3   OH252507   3.673   3.092   1.504  0.1485  0.2569 -0.2791
10339TIP3    H152508   3.626   3.017   1.540 -1.0500  0.6585 -0.9376
10339TIP3    H252509   3.700   3.143   1.580  0.3852 -0.4896  0.1461
10340TIP3   OH252510   2.716   4.445   3.621 -0.2748  0.4484 -0.0169
10340TIP3    H152511   2.653   4.443   3.693 -0.8859  0.5381 -0.5418
10340TIP3    H252512   2.742   4.537   3.614 -1.8453  0.8349 -1.2872
10341TIP3   OH252513   0.553   5.506  15.279  0.1554  0.5399  0.4605
10341TIP3    H152514   0.634   5.555  15.269 -1.1271  2.4334 -1.6033
10341TIP3    H252515   0.536   5.505  15.373  1.4505  2.0025  0.7384
10342TIP3   OH252516   3.495   5.598   2.491  0.2339 -0.4170  0.2023
10342TIP3    H152517   3.453   5.541   2.426  1.9263 -2.9185  1.1466
10342TIP3    H252518   3.433   5.599   2.564 -0.2298 -0.2669 -0.1861
10343TIP3   OH252519   0.341   3.106  13.405  0.3988  0.4674 -0.4700
10343TIP3    H152520   0.409   3.072  13.462 -0.1305  1.1176  0.5697
10343TIP3    H252521   0.261   3.062  13.433  0.1981  0.4773 -1.0022
10344TIP3   OH252522   5.570   1.118  11.353 -0.5196  0.0396 -0.0401
10344TIP3    H152523   5.570   1.032  11.310  1.2282  0.5672 -1.2517
10344TIP3    H252524   5.624   1.105  11.431 -3.7506 -0.9359  2.2221
10345TIP3   OH252525   4.182   6.241  13.490 -0.2422  0.8610  0.0473
10345TIP3    H152526   4.121   6.235  13.564 -1.0227 -0.4957 -0.6735
10345TIP3    H252527   4.133   6.208  13.415  1.1260  0.4684 -0.7172
10346TIP3   OH252528   6.440   1.702  13.623 -0.2776 -0.1405  0.2219
10346TIP3    H152529   6.514   1.763  13.618 -0.9677  0.6597 -0.7091
10346TIP3    H252530   6.401   1.705  13.535 -0.2321 -2.0642  0.0880
10347TIP3   OH252531   3.539   6.237  11.348 -0.6331 -0.1207  0.4543
10347TIP3    H152532   3.477   6.181  11.303 -0.5662 -1.0729  1.5033
10347TIP3    H252533   3.622   6.223  11.302 -0.5300 -1.1940  0.9455
10348TIP3   OH252534   1.664   0.594  11.014 -0.8052  0.2333  0.0341
10348TIP3    H152535   1.747   0.629  10.983 -1.1798  2.1709  1.0571
10348TIP3    H252536   1.614   0.577  10.934 -0.2709  1.2630 -0.5356
10349TIP3   OH252537   4.113   3.873  13.721  0.1923  0.1460  0.7692
10349TIP3    H152538   4.082   3.886  13.631  1.1020  0.9779  0.5714
10349TIP3    H252539   4.123   3.778  13.729 -2.0236 -0.1497  0.7246
10350TIP3   OH252540   2.591   0.754   0.975  0.0228  0.0452 -0.1820
10350TIP3    H152541   2.518   0.725   0.921  0.8232 -3.1409  0.2259
10350TIP3    H252542   2.669   0.737   0.922  0.7176 -1.5141  1.2191
10351TIP3   OH252543   4.161   1.860   2.644 -0.0145  0.2310 -0.9816
10351TIP3    H152544   4.188   1.787   2.699 -1.6688  0.8883  0.8126
10351TIP3    H252545   4.069   1.841   2.623 -1.1796  2.7019  1.2790
10352TIP3   OH252546   5.513   1.954  14.123 -0.0893 -0.2312 -0.3852
10352TIP3    H152547   5.586   1.959  14.061 -0.2440 -1.0380 -0.6522
10352TIP3    H252548   5.446   1.904  14.076  0.2514 -1.9580  0.8463
10353TIP3   OH252549   5.246   0.013  16.213 -0.1791 -0.2710 -0.0626
10353TIP3    H152550   5.206  -0.064  16.254 -1.3447  0.0224 -0.6123
10353TIP3    H252551   5.279   0.065  16.286 -1.5863 -0.0962  0.4772
10354TIP3   OH252552   6.004   6.537   3.009  0.4876 -0.6104  0.3910
10354TIP3    H152553   5.909   6.547   3.011  0.4569  0.3126 -2.2610
10354TIP3    H252554   6.018   6.442   3.010 -0.4162 -0.7445  1.1784
10355TIP3   OH252555   6.047   4.026  13.671  0.0585 -0.3501  0.1860
10355TIP3    H152556   6.140   4.003  13.664  0.4884  1.5298 -1.2398
10355TIP3    H252557   6.042   4.114  13.633 -2.1057  0.1192  1.4363
10356TIP3   OH252558   5.413   3.140   3.050  0.3441 -0.4767 -0.1502
10356TIP3    H152559   5.484   3.076   3.044  1.4672  0.6632  0.4545
10356TIP3    H252560   5.450   3.220   3.013 -0.3232  0.3799  0.9671
10357TIP3   OH252561   6.010   5.392   2.697  0.2713  0.2189 -0.0586
10357TIP3    H152562   6.071   5.389   2.771  1.1873  1.9708 -0.6692
10357TIP3    H252563   6.060   5.434   2.627 -0.6802 -1.1290 -1.5954
10358TIP3   OH252564   6.432   5.291  15.385  0.7691 -0.9840 -0.7411
10358TIP3    H152565   6.372   5.350  15.338  1.5473  1.0442  0.6591
10358TIP3    H252566   6.382   5.211  15.397 -1.8859  0.7068  0.6214
10359TIP3   OH252567   4.252   5.707   1.028  0.0382  0.6990  0.1081
10359TIP3    H152568   4.283   5.691   1.117 -0.0084 -0.3819 -0.0634
10359TIP3    H252569   4.298   5.643   0.974 -1.7220 -0.2822 -0.2985
10360TIP3   OH252570   5.204   4.176   6.062  0.0567  0.5340  0.1400
10360TIP3    H152571   5.122   4.166   6.014  0.3688  0.2684 -0.3442
10360TIP3    H252572   5.188   4.134   6.146 -0.1002 -0.0807 -0.1936
10361TIP3   OH252573   5.304   6.132   5.232  0.2791  0.0535  0.1664
10361TIP3    H152574   5.249   6.076   5.286  0.2124 -2.1614 -2.0130
10361TIP3    H252575   5.244   6.195   5.194 -0.7174 -1.7264 -1.4197
10362TIP3   OH252576   1.821   5.570   2.059  0.2144 -0.5883  0.3077
10362TIP3    H152577   1.730   5.599   2.067  0.3312 -0.3392  0.7776
10362TIP3    H252578   1.846   5.594   1.969  0.6087  1.6894  0.9783
10363TIP3   OH252579   1.755   0.234   5.984 -0.3723  0.1822  0.0376
10363TIP3    H152580   1.803   0.177   6.045 -1.5310  1.1362  1.9545
10363TIP3    H252581   1.673   0.187   5.967 -0.1282  0.0029 -0.6541
10364TIP3   OH252582   0.127   1.174   0.874 -0.2838  0.2153  0.2005
10364TIP3    H152583   0.100   1.189   0.784  0.2510  0.8423  0.1392
10364TIP3    H252584   0.127   1.079   0.884 -2.1781  0.1566  0.1102
10365TIP3   OH252585   3.005   4.928  13.273  0.8821 -0.2732 -0.0608
10365TIP3    H152586   3.089   4.946  13.315 -0.0847  3.2146  0.6904
10365TIP3    H252587   2.945   4.909  13.346  0.9911 -3.0697 -0.6079
10366TIP3   OH252588   1.033   3.797   1.677  0.3626  0.6469  0.2787
10366TIP3    H152589   0.994   3.880   1.706 -3.2839 -1.3733  1.7344
10366TIP3    H252590   1.048   3.748   1.758 -1.2339 -1.5553 -0.6635
10367TIP3   OH252591   6.361   4.117   4.097 -0.1387  0.2799  0.5351
10367TIP3    H152592   6.400   4.186   4.150 -0.0921  1.2822 -0.7423
10367TIP3    H252593   6.341   4.160   4.013  1.6128 -1.6438 -0.9980
10368TIP3   OH252594   3.081   4.979   2.822  0.3235  0.1010 -0.2197
10368TIP3    H152595   3.144   4.955   2.754 -1.0598 -1.4298 -1.0309
10368TIP3    H252596   2.996   4.979   2.777 -0.2774  2.2707  0.8018
10369TIP3   OH252597   4.846   2.424  15.844  0.7270  0.0576 -0.8694
10369TIP3    H152598   4.802   2.409  15.760  1.5365 -1.5517 -1.0402
10369TIP3    H252599   4.933   2.387  15.832  1.1575  0.6115  0.4104
10370TIP3   OH252600   4.654   3.494  16.495  0.2161 -0.0184  0.3820
10370TIP3    H152601   4.663   3.548  16.416 -0.5014  0.0480  0.3363
10370TIP3    H252602   4.680   3.552  16.567  0.0789  0.1773  0.2729
10371TIP3   OH252603   4.308   2.701  11.302  0.2167  0.1333 -0.0660
10371TIP3    H152604   4.220   2.734  11.284  0.7870  1.4259 -0.5868
10371TIP3    H252605   4.315   2.701  11.398 -0.2882  0.1617 -0.0280
10372TIP3   OH252606   1.285   0.689  14.892  0.1470 -0.2891 -0.4668
10372TIP3    H152607   1.369   0.731  14.912 -0.2449 -0.3505  1.4955
10372TIP3    H252608   1.298   0.598  14.918 -0.1065 -0.6218 -1.4689
10373TIP3   OH252609   2.977   2.315  12.155  0.7917 -0.5392 -0.1479
10373TIP3    H152610   2.966   2.290  12.247  2.0044  1.0667  0.4820
10373TIP3    H252611   2.931   2.398  12.146 -0.5265 -1.3597 -1.3990
10374TIP3   OH252612   1.702   5.123   5.447  0.4502 -0.2351 -0.3284
10374TIP3    H152613   1.630   5.081   5.400  0.8042 -0.0041 -1.1008
10374TIP3    H252614   1.738   5.053   5.503 -1.0774 -0.0497  0.9437
10375TIP3   OH252615   5.087   1.949  15.927  0.4117 -0.2340  0.1395
10375TIP3    H152616   5.161   1.925  15.982 -0.8126 -1.6800  1.2467
10375TIP3    H252617   5.060   2.035  15.958  1.4148  0.1806 -0.0902
10376TIP3   OH252618   3.135   0.244   2.671  0.2361  0.5172  0.1533
10376TIP3    H152619   3.165   0.325   2.712 -0.7863  0.9624  0.0524
10376TIP3    H252620   3.063   0.271   2.614  0.6706 -0.3041 -0.8191
10377TIP3   OH252621   4.280   2.685  11.831  0.1676 -0.8926  0.4070
10377TIP3    H152622   4.348   2.644  11.885  1.4852 -0.4664 -0.8782
10377TIP3    H252623   4.282   2.637  11.749  0.8023  0.8260 -0.6274
10378TIP3   OH252624   2.239   1.479  14.370 -0.5118 -0.0143  0.5021
10378TIP3    H152625   2.181   1.537  14.419 -2.4257  0.0579 -1.7043
10378TIP3    H252626   2.303   1.538  14.330 -0.6597  0.2381  0.6367
10379TIP3   OH252627   1.175   6.613   0.621  0.7446  0.1120  0.1178
10379TIP3    H152628   1.187   6.528   0.662  1.1170 -0.3018 -0.8222
10379TIP3    H252629   1.245   6.667   0.658  0.5848 -0.0190  0.6215
10380TIP3   OH252630   3.660   0.199  16.466  0.1692 -0.2304 -0.2839
10380TIP3    H152631   3.589   0.160  16.517 -1.0884  0.5360 -1.3847
10380TIP3    H252632   3.740   0.173  16.512 -0.8742 -0.0543  1.7348
10381TIP3   OH252633   1.926   6.432   1.808  0.7779  0.0850  0.1370
10381TIP3    H152634   1.977   6.402   1.733  0.1373  0.4908 -0.4645
10381TIP3    H252635   1.835   6.429   1.779  0.6797  3.6649 -0.3844
10382TIP3   OH252636   5.571   5.195   5.321 -0.1120  0.2291 -0.3443
10382TIP3    H152637   5.505   5.262   5.342 -0.1113  0.6368 -1.5449
10382TIP3    H252638   5.568   5.134   5.395 -0.3591  1.3689  0.6130
10383TIP3   OH252639   2.007   5.069   3.902 -0.0892 -0.1858  0.0695
10383TIP3    H152640   2.008   5.026   3.817  0.2005 -1.5741  0.7567
10383TIP3    H252641   2.099   5.077   3.927 -0.1846 -0.0201  0.3815
10384TIP3   OH252642   5.075   4.705   2.824  0.4960 -0.3036 -0.1734
10384TIP3    H152643   5.105   4.698   2.733 -0.8032 -0.3276 -0.6181
10384TIP3    H252644   5.098   4.620   2.863 -1.2851 -1.3423 -1.2436
10385TIP3   OH252645   1.975   1.409   3.121  0.3064 -0.3160  0.6002
10385TIP3    H152646   2.006   1.361   3.198  0.4290  0.6488  1.1666
10385TIP3    H252647   1.962   1.342   3.055 -0.9693 -1.3432  1.8195
10386TIP3   OH252648   6.539   5.926  15.143  0.5108 -0.3506  0.5381
10386TIP3    H152649   6.537   5.995  15.077  0.0065 -1.3724 -0.5440
10386TIP3    H252650   6.493   5.963  15.218 -1.4697 -0.1697 -0.7027
10387TIP3   OH252651   0.450   5.478   4.144  0.0941  0.3236  0.1908
10387TIP3    H152652   0.368   5.434   4.119 -0.9158  0.9377  2.2044
10387TIP3    H252653   0.453   5.556   4.088 -1.0400  0.6129  0.5009
10388TIP3   OH252654   0.674   5.890  11.615  0.2645 -0.1418  0.3626
10388TIP3    H152655   0.678   5.800  11.584 -0.0062  0.5996 -2.0007
10388TIP3    H252656   0.742   5.936  11.565 -0.6632  1.2730  0.3574
10389TIP3   OH252657   1.163   5.473  15.602 -0.0652 -0.4782 -0.7609
10389TIP3    H152658   1.179   5.516  15.686 -1.7532  0.0583 -0.6765
10389TIP3    H252659   1.187   5.382  15.616  0.6211 -0.1964 -0.0155
10390TIP3   OH252660   0.299   1.975   5.485  0.3934 -0.1752 -0.4128
10390TIP3    H152661   0.225   1.917   5.504 -1.6726  2.3768 -0.1851
10390TIP3    H252662   0.332   2.002   5.570  0.8263 -0.3696 -0.5154
10391TIP3   OH252663   5.860   4.000   3.651 -0.1303  0.4029  0.2344
10391TIP3    H152664   5.944   4.004   3.696  0.1767 -1.0209 -0.1364
10391TIP3    H252665   5.883   3.979   3.560 -0.9024 -1.1148  0.3502
10392TIP3   OH252666   1.649   5.154   0.320 -0.7962 -0.6312 -0.1430
10392TIP3    H152667   1.652   5.250   0.311 -1.3621 -0.4888  0.9435
10392TIP3    H252668   1.558   5.131   0.301 -1.3139 -0.6262  2.0459
10393TIP3   OH252669   5.653   4.175  16.625 -0.1057 -0.1960 -0.2554
10393TIP3    H152670   5.617   4.183  16.714  1.5757  0.9970  0.3615
10393TIP3    H252671   5.697   4.090  16.624  3.4763  1.4033  1.5583
10394TIP3   OH252672   5.204   3.232  14.038  0.3781  0.1256  0.3990
10394TIP3    H152673   5.238   3.303  14.093 -0.0990  1.0739 -0.5120
10394TIP3    H252674   5.281   3.200  13.991  0.2561  1.4697 -0.7683
10395TIP3   OH252675   0.038   5.482   1.155  0.8624  0.0666 -0.1034
10395TIP3    H152676  -0.054   5.507   1.148  0.3617 -1.5235  0.3937
10395TIP3    H252677   0.064   5.460   1.065  0.2295 -1.1440 -0.0086
10396TIP3   OH252678   6.371   2.126   0.101  0.2916 -0.0852  0.7283
10396TIP3    H152679   6.348   2.207   0.147  0.2128 -0.0411  0.6109
10396TIP3    H252680   6.450   2.149   0.051 -1.3672  0.7728 -1.6292
10397TIP3   OH252681   2.550   1.180   2.396  0.1086  0.0437 -0.1035
10397TIP3    H152682   2.611   1.179   2.469 -1.0873 -2.2124  0.9694
10397TIP3    H252683   2.578   1.108   2.340 -0.4700  0.1724 -0.5707
10398TIP3   OH252684   4.246   5.433  11.036 -0.3375  0.0336  0.0465
10398TIP3    H152685   4.184   5.460  10.968 -1.4059  0.9248  1.3331
10398TIP3    H252686   4.221   5.484  11.113  0.2394 -1.6301  1.3874
10399TIP3   OH252687   5.231   2.393   6.518 -0.0324  0.7066  0.1125
10399TIP3    H152688   5.319   2.410   6.552  0.8527  0.5437 -1.9679
10399TIP3    H252689   5.175   2.454   6.566  1.2083  0.9174  1.3830
10400TIP3   OH252690   0.626   5.223  11.774 -0.1014  0.3004 -0.1662
10400TIP3    H152691   0.624   5.199  11.681  1.7722  2.0767 -0.7252
10400TIP3    H252692   0.707   5.186  11.807 -1.5613 -1.7980  1.2738
10401TIP3   OH252693   6.505   4.950   6.794  0.2054 -0.2515 -0.0558
10401TIP3    H152694   6.469   4.996   6.718 -0.5644  0.0789  0.4976
10401TIP3    H252695   6.441   4.882   6.813 -0.0867  0.2706  0.8739
10402TIP3   OH252696   6.342   1.733   6.658 -0.2921 -0.0476 -0.1118
10402TIP3    H152697   6.390   1.658   6.694 -0.0879  0.8741  1.6395
10402TIP3    H252698   6.252   1.701   6.647 -0.1024 -0.6886  0.1618
10403TIP3   OH252699   1.730   0.882  15.508 -0.5916 -0.6138  0.2103
10403TIP3    H152700   1.739   0.911  15.598 -1.0718  0.3515 -0.0361
10403TIP3    H252701   1.644   0.838  15.505 -1.0726  0.3117 -0.0040
10404TIP3   OH252702   5.750   6.240  15.363 -0.1195 -0.2123 -0.1672
10404TIP3    H152703   5.681   6.306  15.363 -0.2263 -0.3203 -1.0121
10404TIP3    H252704   5.706   6.159  15.340  0.3064 -0.2572 -0.8609
10405TIP3   OH252705   5.957   4.110   5.198 -0.4782 -0.2110 -0.2048
10405TIP3    H152706   6.051   4.096   5.191 -0.3174  0.3506  0.6473
10405TIP3    H252707   5.933   4.069   5.281 -0.7928  0.5658  0.0963
10406TIP3   OH252708   0.464   5.386  16.005 -0.3905 -0.5416  0.4427
10406TIP3    H152709   0.398   5.455  16.002 -1.7956 -1.8804 -0.6789
10406TIP3    H252710   0.429   5.321  16.065 -0.4357 -1.5834 -0.6787
10407TIP3   OH252711   0.313   4.634   1.882 -0.4480  0.0131  0.3022
10407TIP3    H152712   0.234   4.610   1.833  0.2391  2.2536 -2.1285
10407TIP3    H252713   0.368   4.680   1.819  2.0159  0.2021  2.3997
10408TIP3   OH252714   0.470   6.281  15.620 -0.0773 -0.5048  0.2517
10408TIP3    H152715   0.534   6.353  15.624 -0.8535  0.2269 -0.3099
10408TIP3    H252716   0.389   6.320  15.652 -0.5040 -1.1369 -0.0535
10409TIP3   OH252717   4.606   0.214   4.415  0.3891 -0.1470  0.5114
10409TIP3    H152718   4.571   0.152   4.480 -1.3121 -0.9831 -1.1206
10409TIP3    H252719   4.691   0.177   4.391  1.1948  0.3508  2.4476
10410TIP3   OH252720   4.705   0.407  16.319  0.3301  0.1342 -0.0912
10410TIP3    H152721   4.741   0.319  16.310 -0.9053 -0.4725  0.5080
10410TIP3    H252722   4.761   0.450  16.384  1.9044  0.3676 -1.5514
10411TIP3   OH252723   1.786   1.310  12.468  0.4262  0.4874  0.1793
10411TIP3    H152724   1.870   1.267  12.485 -0.0142  0.1802  1.7571
10411TIP3    H252725   1.738   1.248  12.414  0.7677  0.1328  0.2772
10412TIP3   OH252726   4.409   2.784  13.961  0.2290  0.1517 -0.0174
10412TIP3    H152727   4.424   2.815  13.871  0.4895  0.2910  0.0742
10412TIP3    H252728   4.413   2.863  14.015 -0.5539  0.1584  0.0474
10413TIP3   OH252729   2.525   2.225  13.405  0.4575  0.3149 -0.7756
10413TIP3    H152730   2.443   2.234  13.355  0.2951 -0.1283 -0.5998
10413TIP3    H252731   2.501   2.168  13.478  0.8772  0.3511 -0.6117
10414TIP3   OH252732   0.623   1.257  13.819  0.1453 -0.1303  0.9595
10414TIP3    H152733   0.534   1.268  13.851  0.7401  2.7928  1.9043
10414TIP3    H252734   0.655   1.178  13.863 -1.8767 -1.1492  0.7051
10415TIP3   OH252735   2.979   1.935  14.960  0.3968 -0.4377  0.3245
10415TIP3    H152736   3.001   1.846  14.987 -1.0603 -0.7860  0.4743
10415TIP3    H252737   3.051   1.989  14.994 -0.2092 -1.1374  3.0279
10416TIP3   OH252738   1.183   0.542   2.788 -0.5615  0.3244  0.5986
10416TIP3    H152739   1.117   0.522   2.721 -1.2245 -0.1874  1.3929
10416TIP3    H252740   1.254   0.479   2.770 -0.9025 -0.0666  0.6141
10417TIP3   OH252741   0.853   0.986  12.788  0.3614 -0.0435  0.0575
10417TIP3    H152742   0.765   1.008  12.819  0.2393  0.2980 -0.5125
10417TIP3    H252743   0.903   1.067  12.800  0.4943 -0.1198  0.0117
10418TIP3   OH252744   4.015   6.231   4.846  0.3384 -0.7343  0.5368
10418TIP3    H152745   4.077   6.186   4.789  2.3597  1.0861  1.1621
10418TIP3    H252746   4.004   6.172   4.921  1.0942 -1.2120  0.2839
10419TIP3   OH252747   0.636   1.036   4.145  0.0268 -0.5420  1.2556
10419TIP3    H152748   0.547   1.017   4.115  0.3616 -0.9991  0.5001
10419TIP3    H252749   0.661   0.960   4.196  0.0925 -0.5477  1.2145
10420TIP3   OH252750   0.901   5.332  12.803 -0.9939  0.6170 -0.3782
10420TIP3    H152751   0.932   5.309  12.715  0.8048  1.6252 -0.0547
10420TIP3    H252752   0.897   5.249  12.850 -0.4311  0.2587 -0.9534
10421TIP3   OH252753   4.320   5.010   4.127  0.4592 -0.2029 -0.0411
10421TIP3    H152754   4.323   4.996   4.222  2.4046  0.2362  0.0038
10421TIP3    H252755   4.227   4.999   4.104  0.1998 -2.1449  1.6137
10422TIP3   OH252756   4.766   6.453  16.894  0.1239  0.1100 -0.3063
10422TIP3    H152757   4.811   6.532  16.862 -1.7260  2.4968  2.4010
10422TIP3    H252758   4.679   6.485  16.920 -1.9973 -3.5669 -2.1008
10423TIP3   OH252759   5.746   4.359   5.482  0.0178  0.5222  0.0672
10423TIP3    H152760   5.656   4.345   5.454 -0.1284  2.4856 -0.6268
10423TIP3    H252761   5.763   4.291   5.547 -1.3975 -0.8973 -0.9929
10424TIP3   OH252762   0.155   3.353  13.102  0.1364 -0.4239  0.2014
10424TIP3    H152763   0.111   3.364  13.018  0.3953  0.5342  0.1850
10424TIP3    H252764   0.168   3.258  13.110 -3.6141 -0.9971  1.0822
10425TIP3   OH252765   3.998   3.151   1.632 -0.0685 -0.6344 -0.3037
10425TIP3    H152766   3.905   3.135   1.646  0.1697 -1.4548  0.3839
10425TIP3    H252767   4.036   3.065   1.616  0.5091 -0.2608 -1.0423
10426TIP3   OH252768   2.543   3.608  11.599  0.2495  0.1826 -0.5327
10426TIP3    H152769   2.579   3.690  11.635  1.0535 -0.4764  0.2065
10426TIP3    H252770   2.584   3.539  11.651 -0.7635 -0.6826 -0.8511
10427TIP3   OH252771   2.507   0.389  16.313  0.2382 -0.4880  0.6353
10427TIP3    H152772   2.550   0.304  16.320  1.1314 -0.1942 -0.8423
10427TIP3    H252773   2.479   0.394  16.222 -1.1412  0.1907  1.0763
10428TIP3   OH252774   0.551   6.332  13.279  0.1996  0.0963  0.3906
10428TIP3    H152775   0.566   6.237  13.287 -0.7066  0.1136  4.3033
10428TIP3    H252776   0.504   6.342  13.196  2.4519 -2.4890 -1.3841
10429TIP3   OH252777   1.246   3.686   6.931 -0.1144  0.6340 -0.8076
10429TIP3    H152778   1.232   3.595   6.956 -0.3497  1.1652  1.1601
10429TIP3    H252779   1.290   3.681   6.846  3.6530 -1.4770  1.0160
10430TIP3   OH252780   4.936   4.783  15.889  0.0762  0.1892 -0.5747
10430TIP3    H152781   4.900   4.774  15.977 -0.5349 -0.7308 -0.9137
10430TIP3    H252782   4.874   4.840  15.843  0.5622  0.9333 -0.3320
10431TIP3   OH252783   4.044   3.949   2.061 -0.3074  0.4981  0.6393
10431TIP3    H152784   4.006   3.865   2.037  0.5899 -0.1987  1.5488
10431TIP3    H252785   4.072   3.988   1.978  0.8783 -0.9220  0.3228
10432TIP3   OH252786   0.686   0.213  13.561 -0.2686 -0.1734  0.2904
10432TIP3    H152787   0.642   0.282  13.512  1.1681 -0.4700 -1.5294
10432TIP3    H252788   0.615   0.166  13.605 -1.5288  0.7865 -0.6287
10433TIP3   OH252789   1.736   1.225   0.610 -0.4741  0.6851 -0.1786
10433TIP3    H152790   1.730   1.228   0.706  0.0513 -0.2621 -0.1101
10433TIP3    H252791   1.828   1.208   0.592 -0.6651  0.3242 -0.8374
10434TIP3   OH252792   5.106   3.075   6.338  1.0893  0.1739 -0.1990
10434TIP3    H152793   5.201   3.067   6.348  0.9487 -0.7558  0.5815
10434TIP3    H252794   5.074   2.985   6.342  0.3177  0.3145 -2.1643
10435TIP3   OH252795   6.293   2.904   5.806 -0.1042  0.5204  0.3824
10435TIP3    H152796   6.389   2.903   5.797 -0.0537 -1.4763  0.7694
10435TIP3    H252797   6.277   2.933   5.895  0.0743  1.6801  0.0615
10436TIP3   OH252798   1.350   4.680   4.379  0.4917 -0.1899 -0.1803
10436TIP3    H152799   1.263   4.696   4.343 -0.8500 -0.1066  2.8157
10436TIP3    H252800   1.366   4.755   4.436  1.5143 -1.2971  1.0447
10437TIP3   OH252801   2.164   0.844  17.383  0.0197  0.2427  0.0403
10437TIP3    H152802   2.107   0.907  17.339 -0.9232 -0.1843  0.5965
10437TIP3    H252803   2.112   0.814  17.458  0.3694 -1.3307 -0.3199
10438TIP3   OH252804   2.694   5.450  16.803  0.2754  0.3176 -0.5356
10438TIP3    H152805   2.745   5.420  16.879  0.7583  0.9104 -0.6187
10438TIP3    H252806   2.653   5.532  16.833 -1.0460 -0.4052 -0.3024
10439TIP3   OH252807   0.745   1.454  16.033 -0.3539 -0.0275 -0.3887
10439TIP3    H152808   0.735   1.363  16.060 -1.6593  0.3694  0.5274
10439TIP3    H252809   0.657   1.490  16.033  0.1212  1.2127 -0.8638
10440TIP3   OH252810   1.798   2.631  11.721  0.2983  0.4105 -0.0085
10440TIP3    H152811   1.834   2.640  11.809  2.6691  0.0275 -0.8489
10440TIP3    H252812   1.747   2.550  11.724  3.0587 -1.4577  0.2800
10441TIP3   OH252813   5.714   1.719   4.744 -0.1612 -0.1163  0.8467
10441TIP3    H152814   5.777   1.647   4.743 -1.4049 -1.3264  2.7783
10441TIP3    H252815   5.756   1.789   4.695  1.8801 -1.5139  0.4971
10442TIP3   OH252816   5.787   6.551   2.013  0.1569  0.6514 -0.1909
10442TIP3    H152817   5.811   6.578   1.924 -0.6180  1.2883 -0.2196
10442TIP3    H252818   5.692   6.555   2.014  0.1664  0.8915  0.7445
10443TIP3   OH252819   2.859   4.307  16.639 -0.0379  0.6100 -0.9349
10443TIP3    H152820   2.827   4.341  16.556  0.1034  0.7459 -0.9360
10443TIP3    H252821   2.938   4.258  16.615  0.5561  1.4605 -0.7690
10444TIP3   OH252822   3.684   3.622   5.550 -0.0244 -0.0277  0.0453
10444TIP3    H152823   3.693   3.646   5.642  2.9755 -0.6881  0.0247
10444TIP3    H252824   3.760   3.567   5.532 -0.3432  0.3406 -2.9234
10445TIP3   OH252825   3.815   6.347   3.572 -0.7295  0.5136 -0.0755
10445TIP3    H152826   3.801   6.296   3.492  0.7447 -0.2130  0.1100
10445TIP3    H252827   3.891   6.402   3.553  0.1588 -0.2643  1.0881
10446TIP3   OH252828   4.170   0.591  15.314 -0.1607  0.2326 -0.3290
10446TIP3    H152829   4.175   0.583  15.219 -1.3790 -0.0907 -0.3907
10446TIP3    H252830   4.258   0.614  15.342  0.3373 -0.2283 -1.4852
10447TIP3   OH252831   5.305   5.364  16.122 -0.4564  0.3515  0.2241
10447TIP3    H152832   5.286   5.277  16.088 -1.0229 -0.0076  1.4185
10447TIP3    H252833   5.221   5.410  16.117 -0.7986 -0.0253  2.0124
10448TIP3   OH252834   2.428   6.645   3.069 -0.3982 -0.2333 -0.7184
10448TIP3    H152835   2.447   6.703   3.142 -0.7419  1.1368 -1.6832
10448TIP3    H252836   2.513   6.628   3.028  0.0688 -2.4894  1.0136
10449TIP3   OH252837   5.158   5.375   0.132 -0.0395  0.2496  0.0394
10449TIP3    H152838   5.089   5.321   0.170  0.0153  0.1951  0.0607
10449TIP3    H252839   5.205   5.411   0.208  1.3041 -1.4119  0.0516
10450TIP3   OH252840   2.788   0.076   2.697  0.4958 -0.0117  0.2317
10450TIP3    H152841   2.873   0.048   2.732  0.8527  0.1735 -0.4800
10450TIP3    H252842   2.784   0.169   2.718  0.7233  0.1062 -0.2359
10451TIP3   OH252843   1.018   4.653  15.290 -0.0729 -0.2004  0.3046
10451TIP3    H152844   0.925   4.632  15.284 -0.2129  0.8397 -1.6115
10451TIP3    H252845   1.028   4.734  15.241  1.9007 -0.4425  0.2330
10452TIP3   OH252846   0.618   3.448  13.174 -0.2054  0.4798 -0.7869
10452TIP3    H152847   0.608   3.543  13.174 -1.1365  0.3997 -0.6410
10452TIP3    H252848   0.535   3.416  13.210  0.8965 -0.3092  1.2464
10453TIP3   OH252849   2.153   1.356  13.970  0.5689 -0.4589 -0.0679
10453TIP3    H152850   2.243   1.390  13.976  0.8603 -1.3603  1.1748
10453TIP3    H252851   2.103   1.412  14.029  0.1633  0.4168 -1.2063
10454TIP3   OH252852   0.746   1.858  16.104  0.5456 -0.6033  0.5282
10454TIP3    H152853   0.686   1.866  16.178  0.6636 -0.3299  0.5941
10454TIP3    H252854   0.786   1.772  16.114 -1.4788 -1.7730 -0.7359
10455TIP3   OH252855   5.533   0.657  16.723 -0.1425 -0.2910  0.1551
10455TIP3    H152856   5.551   0.713  16.647  0.4306  0.4473  0.8142
10455TIP3    H252857   5.441   0.673  16.744  0.6999  2.7387  2.1275
10456TIP3   OH252858   2.442   0.259   0.943 -0.1969  0.3305 -0.4548
10456TIP3    H152859   2.466   0.300   1.027 -1.2486  1.1759 -0.5429
10456TIP3    H252860   2.512   0.196   0.926  0.9459  1.3757  0.2036
10457TIP3   OH252861   6.126   6.671   6.343  0.0521 -0.8655  0.1095
10457TIP3    H152862   6.172   6.588   6.327  1.1847  0.0079 -1.5712
10457TIP3    H252863   6.164   6.704   6.424  0.3070 -1.5421  0.2748
10458TIP3   OH252864   6.469   6.217   5.462 -0.5156  0.2973 -1.0352
10458TIP3    H152865   6.435   6.289   5.515 -2.2462 -2.0194  1.3205
10458TIP3    H252866   6.538   6.256   5.409 -0.5892  3.4053  0.8985
10459TIP3   OH252867   4.785   6.125  15.585  0.5265  0.2496  0.5025
10459TIP3    H152868   4.745   6.098  15.503 -0.1304  0.1884  0.8370
10459TIP3    H252869   4.711   6.142  15.644  0.9820 -1.1893  1.5628
10460TIP3   OH252870   4.392   5.545  14.409  0.0625  0.3413 -0.0227
10460TIP3    H152871   4.321   5.596  14.371 -0.9954 -0.9268  0.1754
10460TIP3    H252872   4.401   5.580  14.498 -1.5582 -0.6303  0.5721
10461TIP3   OH252873   5.209   5.307  17.360  0.0578  0.3891 -0.5847
10461TIP3    H152874   5.147   5.243  17.323  0.4128  0.2987 -1.0308
10461TIP3    H252875   5.173   5.327  17.446  1.0717 -2.0510  0.4913
10462TIP3   OH252876   0.561   2.581  13.622 -0.1851  0.2527 -0.0056
10462TIP3    H152877   0.638   2.577  13.679  0.3745 -0.4427 -0.7982
10462TIP3    H252878   0.495   2.627  13.675  0.2596 -0.5368  1.2706
10463TIP3   OH252879   5.798   1.785  14.330 -0.0208 -0.3840 -0.4889
10463TIP3    H152880   5.883   1.766  14.290  0.1349  0.9787 -0.8562
10463TIP3    H252881   5.812   1.867  14.377 -1.1192 -0.1595 -0.5291
10464TIP3   OH252882   2.007   0.840   6.418  0.2180 -0.1849  0.1389
10464TIP3    H152883   2.007   0.763   6.475  0.6837  0.3159  0.8291
10464TIP3    H252884   2.087   0.888   6.441  0.2987  0.1549 -0.7700
10465TIP3   OH252885   6.537   1.019   0.624 -0.5771  0.0442  0.1446
10465TIP3    H152886   6.505   1.010   0.714 -3.2444  1.4572 -0.5555
10465TIP3    H252887   6.537   0.930   0.590  1.4647 -0.6640  1.7581
10466TIP3   OH252888   1.777   1.321  16.264  0.4169  0.6253 -0.2006
10466TIP3    H152889   1.763   1.259  16.193  1.4044 -1.9853  1.7283
10466TIP3    H252890   1.702   1.307  16.323  1.4075  0.1281  0.9866
10467TIP3   OH252891   2.979   4.954   4.441  0.3766  0.0134  0.2650
10467TIP3    H152892   3.007   4.943   4.351 -1.2077  0.4379 -0.3049
10467TIP3    H252893   3.051   5.002   4.483  0.6502  0.7730 -1.0422
10468TIP3   OH252894   0.242   4.060   5.136  0.2310 -0.0066 -0.2446
10468TIP3    H152895   0.202   4.014   5.062  1.5552 -0.7319 -0.5561
10468TIP3    H252896   0.302   3.995   5.174  2.9978  1.7167 -1.3408
10469TIP3   OH252897   2.911   5.509   2.925  0.2430  0.2134 -0.3438
10469TIP3    H152898   2.985   5.506   2.986  0.1291  0.5828 -0.1902
10469TIP3    H252899   2.877   5.419   2.926  0.7080  0.0278 -0.4450
10470TIP3   OH252900   0.772   2.046  14.530  0.4648 -0.0721  0.1408
10470TIP3    H152901   0.705   2.112  14.544  0.6348  0.0039  0.6208
10470TIP3    H252902   0.810   2.068  14.444  0.0694  0.0479 -0.0051
10471TIP3   OH252903   3.984   4.881  17.166  0.1480 -0.3188  0.2330
10471TIP3    H152904   4.018   4.814  17.225  0.9474 -1.2349 -1.2080
10471TIP3    H252905   3.895   4.850  17.144  0.2522 -0.5468  0.1259
10472TIP3   OH252906   4.242   5.165   3.451  0.2924  0.3718  0.1749
10472TIP3    H152907   4.287   5.081   3.441  0.8481  0.6805  0.0382
10472TIP3    H252908   4.258   5.190   3.542  1.5463  1.1157 -0.2235
10473TIP3   OH252909   6.407   1.391  16.719  0.0104 -0.6022  0.5768
10473TIP3    H152910   6.321   1.356  16.742 -0.0914 -0.4040  0.4940
10473TIP3    H252911   6.412   1.475  16.764 -0.6234  0.2903 -0.9798
10474TIP3   OH252912   1.836   5.269   0.542 -0.5117  0.0089 -0.1017
10474TIP3    H152913   1.767   5.209   0.512  0.2973  0.6441 -3.6976
10474TIP3    H252914   1.900   5.212   0.585 -0.4317 -1.6060 -2.1933
10475TIP3   OH252915   4.099   1.563  12.980 -0.0786 -0.0385  0.2787
10475TIP3    H152916   4.063   1.624  12.916 -2.1312 -0.0493  1.3365
10475TIP3    H252917   4.082   1.476  12.943 -1.4397 -0.0503  0.8798
10476TIP3   OH252918   0.296   2.552  16.023 -0.1488  0.2193  0.1335
10476TIP3    H152919   0.325   2.643  16.032  2.4489 -0.7297  3.3785
10476TIP3    H252920   0.242   2.537  16.100  1.4458 -1.5683  0.9767
10477TIP3   OH252921   1.068   2.464   0.868 -0.5232  0.9790  0.5361
10477TIP3    H152922   1.056   2.538   0.808  1.7161  0.7375 -0.2818
10477TIP3    H252923   0.981   2.425   0.874 -1.0869  1.7369 -1.6177
10478TIP3   OH252924   3.635   1.036  13.359  0.0378 -0.6796 -0.0399
10478TIP3    H152925   3.715   0.984  13.362  0.6161  0.1280 -0.8994
10478TIP3    H252926   3.666   1.127  13.359 -0.9268 -0.3301  0.8607
10479TIP3   OH252927   0.139   0.958   5.117 -0.3467 -0.0142  0.0851
10479TIP3    H152928   0.220   0.959   5.065 -1.4634 -1.9940 -1.8428
10479TIP3    H252929   0.151   0.886   5.178 -0.2618  0.3408  0.4887
10480TIP3   OH252930   6.391   5.642  14.217  0.0687 -0.0494  0.4736
10480TIP3    H152931   6.317   5.695  14.245  0.1202  0.5409 -0.4507
10480TIP3    H252932   6.459   5.706  14.195  0.3898 -0.5284  0.0499
10481TIP3   OH252933   1.326   3.770   1.080  0.7482 -0.2912 -0.3908
10481TIP3    H152934   1.236   3.738   1.078  0.6762 -0.0975 -0.2039
10481TIP3    H252935   1.318   3.864   1.091  1.0129 -0.5267  2.6457
10482TIP3   OH252936   4.263   0.147   4.056  0.0599  0.3766  0.2411
10482TIP3    H152937   4.194   0.095   4.015 -2.0516  2.3792  1.0343
10482TIP3    H252938   4.258   0.124   4.149  1.0763 -0.0852  0.1948
10483TIP3   OH252939   2.413   4.307   1.388  0.5053 -0.6857  0.2484
10483TIP3    H152940   2.421   4.373   1.320 -2.8452 -1.4404 -1.0673
10483TIP3    H252941   2.391   4.356   1.467 -1.4600 -0.1084 -0.5985
10484TIP3   OH252942   0.743   0.658  13.794 -0.0318  0.0423  0.1091
10484TIP3    H152943   0.672   0.654  13.859  0.2836  0.3161  0.4747
10484TIP3    H252944   0.777   0.747  13.800 -0.0740  0.1046 -0.5212
10485TIP3   OH252945   5.110   1.257   2.196  0.0244  0.4591 -0.2227
10485TIP3    H152946   5.183   1.232   2.140 -0.2968  1.1383 -0.9657
10485TIP3    H252947   5.086   1.176   2.241 -0.5819 -0.4642 -2.0890
10486TIP3   OH252948   2.307   2.360  14.402  0.3603  0.3781  0.0816
10486TIP3    H152949   2.363   2.397  14.334 -0.6748  2.5543  0.3278
10486TIP3    H252950   2.236   2.423  14.411 -0.7136 -0.9838  1.6232
10487TIP3   OH252951   5.659   3.315   4.863 -0.3045 -0.2532  0.8542
10487TIP3    H152952   5.631   3.399   4.827 -0.2439 -0.6121 -0.0695
10487TIP3    H252953   5.694   3.267   4.787  0.2425 -0.8677  1.4777
10488TIP3   OH252954   0.883   5.203  15.714  0.0124  0.4441 -0.1597
10488TIP3    H152955   0.795   5.178  15.743  0.0957  0.6997  0.3253
10488TIP3    H252956   0.882   5.190  15.620 -0.9014  1.4735 -0.3174
10489TIP3   OH252957   5.868   5.017  16.491  0.1203  0.0674 -0.7409
10489TIP3    H152958   5.883   5.093  16.436  0.9738  0.8787  0.5587
10489TIP3    H252959   5.810   5.048  16.560  1.0366 -0.2446  0.2013
10490TIP3   OH252960   3.849   1.517   3.216  0.2090  0.0160  0.0163
10490TIP3    H152961   3.874   1.525   3.308  2.5514  1.9786 -0.7052
10490TIP3    H252962   3.907   1.450   3.181 -0.3108 -0.3372 -0.1850
10491TIP3   OH252963   1.676   0.183   0.491  0.6291  0.0276  0.0400
10491TIP3    H152964   1.714   0.097   0.507 -0.8973 -0.6310  0.3421
10491TIP3    H252965   1.729   0.243   0.544  0.9889 -0.8948  0.7602
10492TIP3   OH252966   5.387   1.987   3.141  0.2601 -0.1347  0.6697
10492TIP3    H152967   5.437   1.935   3.078 -1.4405  0.4226 -1.2447
10492TIP3    H252968   5.435   2.070   3.146 -0.6075  0.5652 -1.4840
10493TIP3   OH252969   5.745   3.855  12.620  0.6752 -0.0617  0.1408
10493TIP3    H152970   5.693   3.921  12.574 -2.3436 -1.4108  1.3998
10493TIP3    H252971   5.761   3.787  12.555 -1.1740 -0.6704  0.2633
10494TIP3   OH252972   1.882   2.269   1.928 -0.1001  0.3492  0.0531
10494TIP3    H152973   1.899   2.297   1.839  0.8061  0.6806  0.3216
10494TIP3    H252974   1.824   2.193   1.919 -3.1703  2.5960 -0.6547
10495TIP3   OH252975   0.070   4.240  11.486 -0.0534 -0.2296 -0.1399
10495TIP3    H152976   0.088   4.250  11.392 -2.3941  0.0569 -0.6260
10495TIP3    H252977   0.110   4.157  11.509  0.4174 -0.3922 -1.4314
10496TIP3   OH252978   2.931   5.779   1.520 -0.6471  0.2066 -0.4508
10496TIP3    H152979   2.885   5.722   1.581  0.8449  0.0513  0.5897
10496TIP3    H252980   2.951   5.723   1.445 -0.5593 -0.2110 -0.1192
10497TIP3   OH252981   1.481   1.222  11.703 -0.0036  0.5590  0.0900
10497TIP3    H152982   1.574   1.213  11.680 -0.3470  0.0349 -1.2106
10497TIP3    H252983   1.465   1.316  11.700  0.7391  0.7582  1.4821
10498TIP3   OH252984   1.813   4.361   0.215  0.0535  0.2911  0.1378
10498TIP3    H152985   1.858   4.397   0.139 -0.0791  2.3541  0.9785
10498TIP3    H252986   1.870   4.382   0.289 -0.9455  0.4880  0.8805
10499TIP3   OH252987   4.314   0.659   1.952 -0.0267 -0.1034 -1.0275
10499TIP3    H152988   4.315   0.593   2.022  2.0558  1.4150  0.5452
10499TIP3    H252989   4.236   0.712   1.970 -1.4311 -1.7708 -2.0019
10500TIP3   OH252990   3.070   1.528  13.872 -1.0181  0.3457  0.0089
10500TIP3    H152991   3.159   1.523  13.837  0.0321  1.7541  2.2136
10500TIP3    H252992   3.072   1.473  13.951 -1.4394  1.9876  1.2244
10501TIP3   OH252993   4.950   1.587   1.319 -0.1301  0.0260  0.1371
10501TIP3    H152994   5.024   1.533   1.291  0.3010 -0.8205  2.6735
10501TIP3    H252995   4.990   1.662   1.363 -0.7278 -0.7490  2.0823
10502TIP3   OH252996   3.366   6.698   1.138  0.4668 -0.3127 -0.1292
10502TIP3    H152997   3.322   6.618   1.164 -0.1700 -0.0452 -0.3727
10502TIP3    H252998   3.303   6.744   1.083  0.5118  0.7473  0.6723
10503TIP3   OH252999   4.190   1.479  13.833 -0.1397  0.0424  0.4120
10503TIP3    H153000   4.195   1.423  13.911 -2.3059 -0.5236  0.2193
10503TIP3    H253001   4.097   1.501  13.825  0.2817  1.5117 -1.0450
10504TIP3   OH253002   2.296   6.588  12.075  0.5651 -0.1240  0.3803
10504TIP3    H153003   2.387   6.557  12.070  0.5285 -0.4460  1.5013
10504TIP3    H253004   2.302   6.673  12.119  0.3054 -0.2285  0.6155
10505TIP3   OH253005   5.113   2.635   3.529  0.0888 -0.1780 -0.3740
10505TIP3    H153006   5.064   2.635   3.447 -1.3188  0.3538  0.4439
10505TIP3    H253007   5.201   2.606   3.504 -0.0707  0.7721 -2.2096
10506TIP3   OH253008   3.455   3.801   6.462 -0.2720  0.0067 -1.1567
10506TIP3    H153009   3.420   3.734   6.403 -0.4827 -0.7460 -0.1909
10506TIP3    H253010   3.377   3.851   6.489 -0.5503 -1.2648  0.4863
10507TIP3   OH253011   1.865   5.138  13.387 -0.1676  0.3272  0.3788
10507TIP3    H153012   1.920   5.192  13.330  0.0447  0.9338  1.1487
10507TIP3    H253013   1.926   5.078  13.430 -0.1054  0.9674  1.1971
10508TIP3   OH253014   5.211   3.341  16.394 -0.3950  0.2127  0.6049
10508TIP3    H153015   5.180   3.379  16.476  0.4410  1.6749  0.2693
10508TIP3    H253016   5.283   3.397  16.367  2.4718 -2.8314  1.2069
10509TIP3   OH253017   5.603   1.385   1.760 -0.7123 -0.1633 -0.1004
10509TIP3    H153018   5.547   1.350   1.692 -1.4311 -0.8318  0.8121
10509TIP3    H253019   5.579   1.336   1.839 -0.8594  1.5236  0.9438
10510TIP3   OH253020   2.207   4.753  14.927  0.5276  0.2992 -0.4291
10510TIP3    H153021   2.152   4.755  15.005  1.3301 -0.3486  0.1791
10510TIP3    H253022   2.289   4.715  14.958  1.5893  1.9144 -1.1409
10511TIP3   OH253023   0.634   0.216   6.321  0.2078  0.1927  0.7606
10511TIP3    H153024   0.639   0.311   6.312  0.1485  0.0412 -1.5883
10511TIP3    H253025   0.725   0.187   6.316  0.1011  0.0288 -0.5303
10512TIP3   OH253026   6.607   3.975  14.361 -0.0341  0.0791 -0.2798
10512TIP3    H153027   6.577   4.027  14.436  0.7389  0.1170  0.0069
10512TIP3    H253028   6.588   4.030  14.285 -2.0626 -0.4988 -0.2636
10513TIP3   OH253029   6.052   4.989  11.897 -0.0580  0.2573  0.2805
10513TIP3    H153030   6.101   5.004  11.978 -0.8311 -0.4291  0.8879
10513TIP3    H253031   6.118   4.998  11.828  0.4535  1.6577  0.9097
10514TIP3   OH253032   4.422   5.450   0.062  0.4865 -0.2478  0.4712
10514TIP3    H153033   4.338   5.490   0.042  0.1051  0.3413  2.9443
10514TIP3    H253034   4.462   5.435  -0.024 -2.0347 -0.4198 -0.7796
10515TIP3   OH253035   4.628   4.286   5.329  0.2391 -0.5236 -0.5597
10515TIP3    H153036   4.603   4.346   5.399 -1.9247 -0.6736 -1.1582
10515TIP3    H253037   4.678   4.340   5.268 -1.1296  0.5403 -0.7714
10516TIP3   OH253038   1.271   1.588  13.621 -0.2453  0.3201 -0.4288
10516TIP3    H153039   1.321   1.666  13.598  0.2579  0.0899 -0.1335
10516TIP3    H253040   1.305   1.520  13.563 -0.1001  0.1269 -0.1245
10517TIP3   OH253041   1.324   2.256  15.747  0.1285 -0.1364  0.3509
10517TIP3    H153042   1.279   2.191  15.801 -0.3128 -0.1450 -0.0254
10517TIP3    H253043   1.417   2.234  15.755  0.0957  0.0561  1.3633
10518TIP3   OH253044   5.463   2.673  16.140  0.1005 -0.1608  0.2644
10518TIP3    H153045   5.415   2.709  16.066 -1.3366  0.4118  1.4381
10518TIP3    H253046   5.555   2.673  16.111 -0.3813  0.3039 -1.3842
10519TIP3   OH253047   4.398   1.432  16.619 -0.3200  0.3275  0.5416
10519TIP3    H153048   4.435   1.343  16.611 -1.9064 -0.3467  0.3824
10519TIP3    H253049   4.321   1.420  16.674  0.0387  1.8176  1.4090
10520TIP3   OH253050   3.686   2.139   5.712 -0.4815 -0.5457  0.5331
10520TIP3    H153051   3.673   2.121   5.805 -0.3354  0.4058  0.7437
10520TIP3    H253052   3.765   2.089   5.689 -2.1937 -3.3170  0.1347
10521TIP3   OH253053   2.076   0.582  16.751  0.2228 -0.2872 -0.1956
10521TIP3    H153054   2.009   0.645  16.778 -1.0122  0.4954 -4.2868
10521TIP3    H253055   2.156   0.614  16.792 -1.0007  1.8304  0.7514
10522TIP3   OH253056   4.206   4.294   4.160 -0.5749 -0.9727  0.2140
10522TIP3    H153057   4.143   4.244   4.212  0.8296 -0.7529  2.2444
10522TIP3    H253058   4.209   4.380   4.203 -0.3677 -0.2971 -1.0953
10523TIP3   OH253059   5.959   2.041  15.749 -0.1924 -0.6167 -0.1957
10523TIP3    H153060   5.966   2.135  15.736  1.7805 -0.4631  1.5266
10523TIP3    H253061   5.987   2.026  15.839  0.1732 -2.9167 -0.6110
10524TIP3   OH253062   2.073   3.139  12.412  0.5101 -0.0403 -0.4788
10524TIP3    H153063   2.100   3.129  12.503 -0.7698 -1.9674 -0.2803
10524TIP3    H253064   1.978   3.135  12.414  0.4856 -3.7179 -2.1920
10525TIP3   OH253065   0.184   1.571  13.162 -0.5142 -0.0433  0.0814
10525TIP3    H153066   0.165   1.616  13.245 -3.2279 -1.1266  0.1694
10525TIP3    H253067   0.267   1.608  13.133  0.0880  1.0141  2.8351
10526TIP3   OH253068   1.053   4.844  11.739 -0.8185  0.3726  0.3252
10526TIP3    H153069   0.989   4.912  11.718 -0.8161 -0.0171 -1.0297
10526TIP3    H253070   1.126   4.860  11.679 -0.4262 -0.2862  0.6117
10527TIP3   OH253071   6.632   5.031  11.728 -0.1579  0.2850 -0.3797
10527TIP3    H153072   6.723   5.007  11.743 -0.2597 -0.5289 -1.0230
10527TIP3    H253073   6.582   4.980  11.792 -0.3150 -0.7739 -1.3095
10528TIP3   OH253074   2.003   0.588   1.948 -0.0682 -0.7723  0.2708
10528TIP3    H153075   2.091   0.551   1.937  0.4168  0.0753  1.0554
10528TIP3    H253076   1.991   0.643   1.871  0.2950 -0.5400  0.3721
10529TIP3   OH253077   5.983   2.950   0.706 -0.1708  0.1236 -0.0692
10529TIP3    H153078   6.079   2.946   0.697 -0.0464  1.8066  0.2017
10529TIP3    H253079   5.963   2.889   0.777  0.6129 -0.7353 -0.5567
10530TIP3   OH253080   4.129   2.896  13.795 -0.0159  0.1577  0.0484
10530TIP3    H153081   4.197   2.838  13.831  0.9713  1.7759  0.9353
10530TIP3    H253082   4.126   2.874  13.702  0.8571 -0.7851  0.2099
10531TIP3   OH253083   3.770   2.735  11.530 -0.1316 -0.0656 -0.1863
10531TIP3    H153084   3.718   2.744  11.450  0.0813 -0.9406 -0.4319
10531TIP3    H253085   3.738   2.805  11.587 -1.1613 -0.2095 -0.5619
10532TIP3   OH253086   4.881   3.652   3.606 -0.3548  0.1691 -0.2113
10532TIP3    H153087   4.853   3.563   3.624 -0.0412 -0.0052 -0.5600
10532TIP3    H253088   4.938   3.644   3.529  1.6648  0.3300  1.1796
10533TIP3   OH253089   0.943   0.081   1.008 -0.2398  0.3116 -0.0899
10533TIP3    H153090   1.032   0.046   1.007 -0.8387 -1.6347  2.8876
10533TIP3    H253091   0.932   0.117   1.096 -2.5520  0.0898 -0.2165
10534TIP3   OH253092   5.703   4.748   4.120  0.2064  0.0658  0.6067
10534TIP3    H153093   5.761   4.686   4.078 -0.8057 -1.0633  0.8329
10534TIP3    H253094   5.635   4.694   4.161 -0.4455  1.2883  1.1964
10535TIP3   OH253095   2.603   1.620  17.082 -0.1555 -0.0267 -0.2237
10535TIP3    H153096   2.631   1.529  17.093  2.2708  0.6708  0.0427
10535TIP3    H253097   2.549   1.619  17.003 -0.2037 -1.7015 -0.2066
10536TIP3   OH253098   4.002   0.928  14.679 -0.7856 -0.0519 -0.1768
10536TIP3    H153099   3.921   0.975  14.696 -0.9067  0.2598 -1.4771
10536TIP3    H253100   3.974   0.837  14.666 -0.8701 -0.0227 -0.1994
10537TIP3   OH253101   0.562   1.705   5.572  0.3206  0.3440 -0.1731
10537TIP3    H153102   0.613   1.659   5.639 -0.6003 -0.7424 -0.1780
10537TIP3    H253103   0.538   1.788   5.613  1.7323  0.6943 -0.0323
10538TIP3   OH253104   1.453   2.892  12.036 -0.2993 -0.0945  0.4906
10538TIP3    H153105   1.474   2.939  11.955 -0.3203 -0.3406  0.3404
10538TIP3    H253106   1.486   2.949  12.106 -0.8870  0.4388  0.3434
10539TIP3   OH253107   5.556   4.084   4.026 -0.0817 -0.2644  0.2350
10539TIP3    H153108   5.644   4.105   4.058 -0.6876  1.6553  0.8232
10539TIP3    H253109   5.559   4.108   3.933  0.0050 -0.1876  0.2569
10540TIP3   OH253110   0.113   3.993   0.977  0.5660 -0.4830  0.4798
10540TIP3    H153111   0.206   3.975   0.964  0.0747 -4.3779  1.3626
10540TIP3    H253112   0.096   3.971   1.068 -1.0268  1.5126  0.7454
10541TIP3   OH253113   6.172   0.230   4.267 -0.4887 -0.8639 -0.2181
10541TIP3    H153114   6.110   0.274   4.210  1.7775  2.7608 -0.2358
10541TIP3    H253115   6.128   0.225   4.352 -0.5221  2.8832  0.1367
10542TIP3   OH253116   1.768   5.768  13.202 -0.1307 -0.6400  0.0720
10542TIP3    H153117   1.833   5.799  13.264  0.6572 -1.7540 -0.1574
10542TIP3    H253118   1.710   5.711  13.253 -0.4075 -0.3346  0.0997
10543TIP3   OH253119   4.259   0.507  11.396 -0.6507 -0.6266 -0.1264
10543TIP3    H153120   4.225   0.536  11.311 -2.2842  0.8180  0.9482
10543TIP3    H253121   4.309   0.581  11.429 -0.0815 -1.1564  0.2291
10544TIP3   OH253122   5.003   1.222  13.094  0.0130  0.3712  0.3510
10544TIP3    H153123   4.926   1.192  13.142 -0.1595 -0.1670 -0.2397
10544TIP3    H253124   4.994   1.317  13.091 -1.6557  0.2362 -1.3329
10545TIP3   OH253125   4.577   2.602  13.201 -0.1612 -0.5206 -0.7501
10545TIP3    H153126   4.588   2.607  13.106 -0.3520 -1.2638 -0.8130
10545TIP3    H253127   4.490   2.566  13.214  0.2894 -1.4844 -0.3086
10546TIP3   OH253128   2.102   2.988  13.823 -0.2912 -0.4645  0.1240
10546TIP3    H153129   2.043   3.041  13.769 -0.5424 -0.1051  0.7352
10546TIP3    H253130   2.048   2.913  13.850 -0.0233 -0.8961 -0.5006
10547TIP3   OH253131   4.173   4.022   3.706 -0.7483 -0.4013 -0.2964
10547TIP3    H153132   4.078   4.023   3.721 -0.9015  2.6817 -0.9303
10547TIP3    H253133   4.199   4.113   3.712  2.5103 -1.2885  1.4488
10548TIP3   OH253134   3.794   4.189   2.295 -0.3222  0.1518 -0.1118
10548TIP3    H153135   3.723   4.137   2.256  1.2229 -2.0411 -0.2135
10548TIP3    H253136   3.758   4.221   2.377 -0.9423 -2.3848  0.6841
10549TIP3   OH253137   0.439   6.452   5.233  0.9666 -0.0866  0.3942
10549TIP3    H153138   0.457   6.544   5.251  0.7447  0.0058  0.1467
10549TIP3    H253139   0.491   6.405   5.298 -0.1141  0.2446  1.5393
10550TIP3   OH253140   0.652   0.492  11.932 -0.3894  0.2050 -0.2969
10550TIP3    H153141   0.633   0.449  12.015  1.3489  0.9827  0.5624
10550TIP3    H253142   0.590   0.454  11.870 -1.1026 -1.0820  1.1449
10551TIP3   OH253143   4.532   3.194   2.296  0.6593  0.2988  0.4411
10551TIP3    H153144   4.466   3.166   2.233  0.7777 -0.0476  0.4684
10551TIP3    H253145   4.607   3.137   2.279  0.7638  0.3405  0.7587
10552TIP3   OH253146   4.200   1.719   2.016 -0.0890 -0.6292 -0.6810
10552TIP3    H153147   4.245   1.778   2.075  2.4773 -2.5826 -0.5207
10552TIP3    H253148   4.148   1.777   1.959  1.7211  1.7013 -0.1217
10553TIP3   OH253149   0.879   2.441  14.013  0.0428  0.2050 -0.2886
10553TIP3    H153150   0.920   2.429  14.099 -0.3869 -0.1029 -0.1198
10553TIP3    H253151   0.868   2.352  13.979 -1.6809  0.1738  0.2547
10554TIP3   OH253152   0.010   3.878   3.921  0.2697 -0.2275 -0.1587
10554TIP3    H153153   0.105   3.882   3.909  0.2056 -1.2234 -1.2095
10554TIP3    H253154  -0.021   3.825   3.848 -1.0107 -0.5874  0.6110
10555TIP3   OH253155   3.952   2.705   2.591 -0.3841  0.4427  0.3800
10555TIP3    H153156   4.037   2.663   2.577 -0.9238  0.2707 -3.3568
10555TIP3    H253157   3.895   2.634   2.623  0.3308  0.0214  0.7440
10556TIP3   OH253158   1.287   2.523  13.764 -0.1867  0.1727  0.7196
10556TIP3    H153159   1.231   2.466  13.712  0.1225 -0.2086  0.7979
10556TIP3    H253160   1.270   2.497  13.855 -0.3394  0.4795  0.7807
10557TIP3   OH253161   0.325   4.875  15.521 -0.3883  0.5975 -0.1090
10557TIP3    H153162   0.305   4.792  15.478  0.3152 -0.3202  1.2441
10557TIP3    H253163   0.332   4.939  15.449 -1.7370 -0.3277 -1.1029
10558TIP3   OH253164   6.677   3.455  16.574 -0.5557  0.5416 -0.1331
10558TIP3    H153165   6.647   3.385  16.632  1.3073 -0.4154 -0.2550
10558TIP3    H253166   6.756   3.489  16.616  0.0892  0.7268 -1.4410
10559TIP3   OH253167   1.685   6.208  16.348  0.0911  0.2971  0.1261
10559TIP3    H153168   1.733   6.127  16.367  0.5814  1.0789  2.4992
10559TIP3    H253169   1.692   6.217  16.253 -2.6571 -4.0665 -0.8179
10560TIP3   OH253170   6.118   2.099  14.897 -0.1140 -0.7822  0.7459
10560TIP3    H153171   6.162   2.026  14.854 -2.4434  0.1679 -4.0746
10560TIP3    H253172   6.167   2.176  14.869 -1.1806 -0.1563  0.5325
10561TIP3   OH253173   6.739   1.880   0.953 -0.0076 -0.8943  0.2737
10561TIP3    H153174   6.788   1.939   1.010 -0.9138 -0.4482  0.6187
10561TIP3    H253175   6.663   1.932   0.925  0.3648 -1.1414 -1.2572
10562TIP3   OH253176   2.754   3.354   5.718 -0.4287  0.0349 -0.3915
10562TIP3    H153177   2.693   3.425   5.697 -0.1143 -0.0275 -1.6203
10562TIP3    H253178   2.804   3.386   5.793 -0.4350  1.0272 -0.7959
10563TIP3   OH253179   2.267   6.758  11.211  0.5807  0.0229  0.5140
10563TIP3    H153180   2.195   6.708  11.173 -0.8609  1.4546  1.2605
10563TIP3    H253181   2.275   6.836  11.156  0.4517  0.6651  1.3771
10564TIP3   OH253182   2.894   3.842  12.721 -0.0284  0.1486  0.0299
10564TIP3    H153183   2.908   3.932  12.749  2.0465  0.5002 -1.8176
10564TIP3    H253184   2.856   3.850  12.634 -0.5243 -0.7929  0.1512
10565TIP3   OH253185   0.348   5.138   5.605  0.3152  0.3190  0.1398
10565TIP3    H153186   0.284   5.111   5.671 -1.0357 -1.6428 -1.8591
10565TIP3    H253187   0.330   5.231   5.592 -1.7463 -0.0365  0.0916
10566TIP3   OH253188   4.355   6.550   5.058  0.9782 -0.5289  0.5447
10566TIP3    H153189   4.268   6.524   5.029  0.8126 -2.0192  2.2282
10566TIP3    H253190   4.348   6.644   5.073 -0.6715 -0.8048  1.7198
10567TIP3   OH253191   3.787   0.472  12.246 -0.3622 -0.1595  0.0810
10567TIP3    H153192   3.856   0.448  12.183  0.9483  0.7064  1.1242
10567TIP3    H253193   3.835   0.491  12.326 -1.6041  2.6426  0.2659
10568TIP3   OH253194   5.812   4.198  12.632  0.1848  0.2585 -0.1394
10568TIP3    H153195   5.776   4.116  12.598  0.7851 -0.1177  0.1162
10568TIP3    H253196   5.903   4.197  12.603 -0.0459  1.2902 -0.9493
10569TIP3   OH253197   2.159   6.093   6.667  0.0496  0.4095  0.1907
10569TIP3    H153198   2.254   6.107   6.663  0.5894 -2.7056 -0.6880
10569TIP3    H253199   2.121   6.174   6.631  2.4697  0.8248 -1.6749
10570TIP3   OH253200   5.466   5.658   3.803  0.2376  0.7389 -0.2305
10570TIP3    H153201   5.427   5.642   3.889 -1.3499 -0.0391 -1.0685
10570TIP3    H253202   5.508   5.575   3.780  2.4040  1.5333  0.6178
10571TIP3   OH253203   2.188   6.088   1.827  0.0707 -0.0212  0.1209
10571TIP3    H153204   2.246   6.134   1.766  0.0044 -0.4737 -0.2877
10571TIP3    H253205   2.247   6.028   1.874  0.0342 -0.0499  0.1299
10572TIP3   OH253206   5.441   6.116   6.508  0.1658 -0.4050  0.1224
10572TIP3    H153207   5.504   6.181   6.537 -0.7253  2.0267 -2.8874
10572TIP3    H253208   5.492   6.058   6.450  0.2631 -0.2558  0.0574
10573TIP3   OH253209   5.943   5.341   4.268  0.3395  0.1331  0.6419
10573TIP3    H153210   5.877   5.335   4.199  2.0327  0.0454 -1.0374
10573TIP3    H253211   5.999   5.265   4.254  1.8970  1.2124  0.8436
10574TIP3   OH253212   4.944   5.214  16.548 -0.2395 -0.2306  0.7553
10574TIP3    H153213   5.024   5.252  16.512 -0.2326  0.5708  1.5818
10574TIP3    H253214   4.941   5.126  16.512  1.6025 -0.6665  1.6066
10575TIP3   OH253215   1.289   6.277   3.118 -0.0957 -0.7255  0.5691
10575TIP3    H153216   1.268   6.370   3.119  0.2620 -0.6491  1.7215
10575TIP3    H253217   1.250   6.245   3.036 -0.7734  0.3034  0.4707
10576TIP3   OH253218   3.114   3.939   2.380 -0.6297 -0.0417  0.1946
10576TIP3    H153219   3.184   3.992   2.341  1.2214 -0.9314  2.1144
10576TIP3    H253220   3.034   3.991   2.365  0.7719  2.2745  0.1496
10577TIP3   OH253221   4.338   0.293   4.722 -0.2902 -0.7206 -0.8763
10577TIP3    H153222   4.429   0.288   4.751 -0.5640 -0.4432  0.0692
10577TIP3    H253223   4.297   0.214   4.758 -0.7412 -0.1389 -0.0749
10578TIP3   OH253224   0.203   5.178   4.931  0.7743  0.4374 -0.3868
10578TIP3    H153225   0.199   5.254   4.873  0.1863  1.3291  0.7892
10578TIP3    H253226   0.178   5.104   4.876  0.3627  1.2405 -1.2999
10579TIP3   OH253227   6.484   6.055  15.399 -0.1178 -0.0346  0.4911
10579TIP3    H153228   6.492   5.972  15.446 -1.2360  0.4080  1.4967
10579TIP3    H253229   6.397   6.087  15.421 -0.1978  0.7893 -0.9282
10580TIP3   OH253230   6.669   2.193   0.256 -0.4916  0.1173 -0.6690
10580TIP3    H153231   6.690   2.277   0.217  0.7324 -0.9153 -2.3599
10580TIP3    H253232   6.658   2.134   0.182 -0.1107 -1.4864  0.4933
10581TIP3   OH253233   0.315   5.919  15.127  0.4343 -0.0246  0.0532
10581TIP3    H153234   0.231   5.878  15.108  0.5525 -0.0128 -0.5096
10581TIP3    H253235   0.353   5.937  15.041  0.9619  0.0716  0.3027
10582TIP3   OH253236   5.339   2.202   4.642 -0.5654 -0.2834 -0.1607
10582TIP3    H153237   5.383   2.281   4.610 -1.3528  0.8821  1.4831
10582TIP3    H253238   5.301   2.162   4.564 -2.2510  2.3175 -0.7751
10583TIP3   OH253239   3.369   3.204  13.904 -0.0931  0.2008 -0.2286
10583TIP3    H153240   3.326   3.254  13.835  0.4035  0.2541 -0.5083
10583TIP3    H253241   3.380   3.117  13.867 -0.1410  0.1332 -0.0836
10584TIP3   OH253242   3.218   4.041  11.514  0.4606  0.1592  0.3566
10584TIP3    H153243   3.127   4.018  11.498  0.5562  0.4561 -0.6937
10584TIP3    H253244   3.266   3.959  11.507  0.5563  0.3428 -1.4444
10585TIP3   OH253245   3.673   3.203  11.347 -0.0115  0.4697 -0.5719
10585TIP3    H153246   3.705   3.180  11.260  0.1342  3.0628 -1.2940
10585TIP3    H253247   3.583   3.173  11.349 -0.1994  0.9174 -1.8774
10586TIP3   OH253248   0.900   5.647  12.365 -0.1066  0.4421  0.3215
10586TIP3    H153249   0.855   5.709  12.307  0.5266  0.1678 -0.4842
10586TIP3    H253250   0.987   5.637  12.326 -0.5888 -1.8996 -0.2919
10587TIP3   OH253251   0.388   3.477   6.900  0.3009 -0.1017 -0.2149
10587TIP3    H153252   0.405   3.446   6.989 -1.1820  0.4920  0.3241
10587TIP3    H253253   0.446   3.552   6.889  0.4445 -0.1359  0.2923
10588TIP3   OH253254   4.773   6.261   1.983  0.2586 -0.1255 -0.3796
10588TIP3    H153255   4.778   6.255   2.078 -1.4488  0.6768 -0.2034
10588TIP3    H253256   4.857   6.225   1.952  0.4911 -1.2178  1.3732
10589TIP3   OH253257   3.317   1.869  14.756  0.1977 -0.4405 -0.1586
10589TIP3    H153258   3.371   1.849  14.680  0.9869  0.9598 -0.0115
10589TIP3    H253259   3.239   1.912  14.720  0.5036  0.0894 -0.2050
10590TIP3   OH253260   6.184   0.149   2.362  0.7174 -0.2027 -0.0970
10590TIP3    H153261   6.257   0.121   2.418  0.4115  0.0336  0.4236
10590TIP3    H253262   6.106   0.121   2.409  0.4545  0.0558 -0.3771
10591TIP3   OH253263   3.073   1.228  11.925 -0.1386  0.1840  0.0103
10591TIP3    H153264   3.162   1.252  11.950  0.3586 -2.0646  0.6677
10591TIP3    H253265   3.020   1.303  11.951  1.3512  0.9107  1.1484
10592TIP3   OH253266   2.854   3.852  12.071  0.4468  0.2881 -0.0884
10592TIP3    H153267   2.812   3.921  12.122 -0.4736  0.2230 -0.7332
10592TIP3    H253268   2.862   3.888  11.983  0.7898 -0.0921 -0.2149
10593TIP3   OH253269   0.964   5.696  16.569  0.6337  0.4346  0.2520
10593TIP3    H153270   1.014   5.697  16.650 -0.6047  1.7434  1.0481
10593TIP3    H253271   0.875   5.719  16.596 -0.0917 -0.3761 -1.3148
10594TIP3   OH253272   1.860   3.096   4.165  0.3632 -0.0294 -0.5719
10594TIP3    H153273   1.816   3.017   4.133  2.2584 -2.2051  1.7685
10594TIP3    H253274   1.922   3.118   4.096  0.5343 -1.2501 -0.8431
10595TIP3   OH253275   2.796   1.395  17.145 -0.2875 -0.2764 -0.6267
10595TIP3    H153276   2.767   1.347  17.067  0.5434 -0.5156 -0.7929
10595TIP3    H253277   2.743   1.359  17.216  1.3213 -2.5160 -0.4766
10596TIP3   OH253278   5.280   2.453   3.201  0.2992  1.0378 -0.7403
10596TIP3    H153279   5.246   2.428   3.115 -0.5961 -1.0321  0.1495
10596TIP3    H253280   5.203   2.456   3.257  1.1617 -0.5900  0.6239
10597TIP3   OH253281   3.281   4.011  12.534 -0.0663 -0.0867 -0.4134
10597TIP3    H153282   3.308   4.100  12.511  1.2174 -0.9372 -2.5724
10597TIP3    H253283   3.188   4.007  12.513 -0.5849  1.1884  1.3805
10598TIP3   OH253284   3.215   3.620  12.491 -0.0038  0.1899  0.2717
10598TIP3    H153285   3.224   3.543  12.434  0.8957 -0.5811  1.4170
10598TIP3    H253286   3.197   3.692  12.430  0.6141 -0.6563 -0.9648
10599TIP3   OH253287   0.464   2.627  16.894 -0.0197 -0.5230  0.4758
10599TIP3    H153288   0.435   2.675  16.816 -0.3567 -0.8156  0.4186
10599TIP3    H253289   0.485   2.539  16.861 -0.9585 -0.9025  0.8479
10600TIP3   OH253290   4.867   1.443   0.847  0.0772 -0.1262 -0.3027
10600TIP3    H153291   4.902   1.531   0.861  0.4548 -0.2136 -0.6624
10600TIP3    H253292   4.941   1.385   0.866 -0.0638 -0.3475 -0.4290
10601TIP3   OH253293   3.824   0.456  12.836 -0.2221 -0.1847 -0.8328
10601TIP3    H153294   3.860   0.385  12.783  0.1756  0.4005 -1.3573
10601TIP3    H253295   3.784   0.411  12.911  0.0300 -0.9589 -1.1449
10602TIP3   OH253296   6.273   1.353  11.140  0.1226 -0.0781 -0.1340
10602TIP3    H153297   6.233   1.431  11.178 -1.5180 -0.5573 -0.7920
10602TIP3    H253298   6.352   1.385  11.096 -0.3871  1.1674 -0.1635
10603TIP3   OH253299   0.910   3.925   6.672 -0.1864  0.0060 -0.1653
10603TIP3    H153300   0.921   3.891   6.761 -2.9304 -0.5419  0.0337
10603TIP3    H253301   0.878   4.014   6.685  0.1344  0.1911 -0.6344
10604TIP3   OH253302   2.202   3.359   5.397 -0.2518 -0.0846  0.0800
10604TIP3    H153303   2.284   3.378   5.352  1.2123  0.0597  2.6097
10604TIP3    H253304   2.150   3.311   5.332  2.3614 -1.4011 -1.2095
10605TIP3   OH253305   6.218   5.789  15.863 -0.6478  0.0776 -0.3603
10605TIP3    H153306   6.285   5.855  15.879 -1.8813  1.3582 -0.2310
10605TIP3    H253307   6.215   5.780  15.768 -1.1214  0.9333 -0.4341
10606TIP3   OH253308   0.296   4.337   3.342  0.0773  0.5937 -0.3849
10606TIP3    H153309   0.300   4.419   3.391  0.8884  0.7166 -0.6565
10606TIP3    H253310   0.381   4.329   3.299 -0.4614  0.2809 -1.4484
10607TIP3   OH253311   3.297   1.622  10.806  0.4368  0.2461 -0.2366
10607TIP3    H153312   3.344   1.701  10.783 -0.5619  0.8701 -0.2150
10607TIP3    H253313   3.215   1.653  10.843 -0.9468 -0.7588 -2.2171
10608TIP3   OH253314   6.245   0.489   0.077  0.3720 -0.7611 -0.1365
10608TIP3    H153315   6.199   0.469  -0.004  0.8493  0.8922 -0.8600
10608TIP3    H253316   6.318   0.427   0.079 -0.8804 -2.2909  0.1923
10609TIP3   OH253317   6.465   4.373  13.681 -0.0776 -0.2175  0.5135
10609TIP3    H153318   6.492   4.456  13.642 -2.2065 -0.7215 -2.3528
10609TIP3    H253319   6.387   4.394  13.732  0.6190 -0.1623  1.5924
10610TIP3   OH253320   0.600   4.252   2.037  0.1641 -0.3621 -0.2461
10610TIP3    H153321   0.548   4.299   2.101  1.9254  1.0858  0.2075
10610TIP3    H253322   0.662   4.318   2.003  0.9023 -1.6904 -1.6083
10611TIP3   OH253323   6.446   3.957   4.290 -0.5082 -0.1096  0.0169
10611TIP3    H153324   6.523   3.998   4.330  0.4160 -0.1941 -1.5839
10611TIP3    H253325   6.437   4.001   4.205 -1.4124 -1.0373 -0.3934
10612TIP3   OH253326   3.983   2.534  16.321 -0.0890  0.3778  0.3598
10612TIP3    H153327   4.017   2.613  16.278 -0.2086  1.1200  1.5767
10612TIP3    H253328   3.969   2.561  16.412 -1.4736 -0.6461  0.4758
10613TIP3   OH253329   2.558   0.066  17.042 -0.5219  0.7661  0.4520
10613TIP3    H153330   2.641   0.096  17.004 -1.5575  2.2960 -0.7500
10613TIP3    H253331   2.583  -0.001  17.106  1.6210  1.1599  0.0948
10614TIP3   OH253332   6.545   4.005  11.563  0.3671  0.7261  1.5761
10614TIP3    H153333   6.569   4.095  11.584  0.1727  0.8761  1.1733
10614TIP3    H253334   6.460   4.013  11.519  1.3612  0.5727 -0.4919
10615TIP3   OH253335   5.873   0.216   2.515 -0.0592  0.6830  0.4904
10615TIP3    H153336   5.783   0.240   2.538 -1.0752 -0.0259 -2.3169
10615TIP3    H253337   5.883   0.244   2.424  2.0635 -0.5640  0.2616
10616TIP3   OH253338   5.871   4.367   2.431 -0.4597  0.2644 -0.2218
10616TIP3    H153339   5.959   4.328   2.435 -0.7721 -0.3601  1.6411
10616TIP3    H253340   5.839   4.344   2.344  0.5612 -1.0058 -0.2952
10617TIP3   OH253341   6.139   3.655  10.624  0.2389 -0.9404  0.0233
10617TIP3    H153342   6.144   3.564  10.593 -2.6777 -0.9799 -0.6301
10617TIP3    H253343   6.063   3.692  10.578  1.1390  1.7431  0.5477
10618TIP3   OH253344   5.824   2.782   0.505  0.1877 -0.3959  0.5324
10618TIP3    H153345   5.777   2.709   0.464  1.2626 -0.3108 -0.9337
10618TIP3    H253346   5.916   2.764   0.488  0.5710  0.4987  1.5398
10619TIP3   OH253347   4.671   5.092   3.489 -0.0167  0.0214  0.2378
10619TIP3    H153348   4.677   5.107   3.583 -2.0207  0.6121  0.3361
10619TIP3    H253349   4.740   5.147   3.451  0.3346  0.3468  1.3151
10620TIP3   OH253350   2.543   2.110   2.617 -0.0922  0.2156 -0.1313
10620TIP3    H153351   2.601   2.037   2.639  1.4792  1.1610 -0.9998
10620TIP3    H253352   2.473   2.105   2.682  1.5424 -0.2834  1.6678
10621TIP3   OH253353   0.933   4.736  14.433 -0.1522  1.0178 -0.4595
10621TIP3    H153354   0.973   4.674  14.495  1.1704  2.7145  0.4770
10621TIP3    H253355   0.969   4.712  14.348  0.0525  0.2949 -0.1795
10622TIP3   OH253356   1.706   5.423  16.165  0.1898 -0.1112 -0.0241
10622TIP3    H153357   1.632   5.478  16.140 -1.4413 -1.6847  1.1372
10622TIP3    H253358   1.774   5.444  16.100 -1.9748 -0.1737 -2.4864
10623TIP3   OH253359   1.164   1.976  12.588  0.1462 -0.3550 -0.2796
10623TIP3    H153360   1.216   2.056  12.596  1.8626 -1.0214 -3.2756
10623TIP3    H253361   1.222   1.907  12.622  0.6727 -0.8922 -2.1709
10624TIP3   OH253362   0.396   0.255   2.832 -0.1775  0.0149 -0.8532
10624TIP3    H153363   0.476   0.228   2.786 -0.5326 -1.9239 -0.4007
10624TIP3    H253364   0.348   0.174   2.847 -0.9268  0.8083  1.3651
10625TIP3   OH253365   4.539   2.536   6.681  0.3682 -0.0633 -0.6079
10625TIP3    H153366   4.553   2.630   6.685 -0.2716  0.0102  1.0207
10625TIP3    H253367   4.493   2.522   6.598  1.3098  0.9159 -1.3178
10626TIP3   OH253368   5.926   6.631   4.921 -0.5630  0.0641  0.0313
10626TIP3    H153369   6.010   6.632   4.966 -0.4187  1.2326 -0.2363
10626TIP3    H253370   5.893   6.721   4.928 -1.7924 -0.3725  0.1410
10627TIP3   OH253371   5.252   6.761   4.488 -0.5360  0.2548  1.3776
10627TIP3    H153372   5.207   6.844   4.474 -0.6683 -0.1498 -0.9568
10627TIP3    H253373   5.341   6.786   4.514 -0.2624  1.1991 -0.2971
10628TIP3   OH253374   6.483   4.558  14.555 -0.1591  0.7880 -0.6727
10628TIP3    H153375   6.538   4.525  14.484  1.6313  1.9356  0.1047
10628TIP3    H253376   6.492   4.653  14.550 -0.9272  0.9396  0.3743
10629TIP3   OH253377   5.611   0.463  16.096 -0.6514  0.3575 -0.1032
10629TIP3    H153378   5.552   0.396  16.062  0.8281 -0.5286 -1.0941
10629TIP3    H253379   5.594   0.540  16.043  0.6667 -0.6044 -2.0592
10630TIP3   OH253380   1.786   0.484  11.567  0.3767  1.1624 -0.4753
10630TIP3    H153381   1.741   0.422  11.510 -1.9344  1.5498  0.8274
10630TIP3    H253382   1.724   0.555  11.580  1.7602  2.2387  0.6251
10631TIP3   OH253383   2.845   5.187  15.301 -0.2893  0.1064 -0.2548
10631TIP3    H153384   2.931   5.145  15.309 -0.1216  0.3119 -0.9329
10631TIP3    H253385   2.861   5.278  15.326 -0.2824  0.1784 -0.5245
10632TIP3   OH253386   2.796   0.449  17.381  0.8538  0.0694  1.3138
10632TIP3    H153387   2.762   0.465  17.470 -0.2915  1.1573  0.7182
10632TIP3    H253388   2.717   0.437  17.328  1.2882  3.1141 -0.2063
10633TIP3   OH253389   0.035   3.938   0.238 -0.2918  0.6297 -0.6733
10633TIP3    H153390  -0.001   4.023   0.265  0.5219  1.0783 -0.9371
10633TIP3    H253391   0.003   3.876   0.303 -1.7507  0.9462 -1.0536
10634TIP3   OH253392   2.924   3.545  14.057 -0.1032 -0.3176 -0.0819
10634TIP3    H153393   2.913   3.454  14.030 -2.0929  0.4276 -2.1521
10634TIP3    H253394   2.916   3.596  13.976 -0.2707  1.7662  1.1468
10635TIP3   OH253395   2.535   4.288  16.490 -0.2948 -0.4617  0.6765
10635TIP3    H153396   2.604   4.227  16.517  0.1504  0.2835  1.2387
10635TIP3    H253397   2.488   4.241  16.421  1.4344 -0.5768 -0.5110
10636TIP3   OH253398   3.298   3.436  13.144  0.5435  0.1391 -0.3319
10636TIP3    H153399   3.378   3.485  13.126 -0.4337  1.4233 -1.4247
10636TIP3    H253400   3.235   3.470  13.080 -0.5286 -1.7070 -0.3062
10637TIP3   OH253401   3.757   4.425  17.011 -0.0658  0.5650 -0.1233
10637TIP3    H153402   3.814   4.454  16.940 -2.4846 -1.6247 -3.2430
10637TIP3    H253403   3.787   4.336  17.031 -1.3429 -0.0286 -0.7294
10638TIP3   OH253404   3.217   2.223   2.553 -0.1170 -0.2431  0.3061
10638TIP3    H153405   3.262   2.143   2.581  1.2150  0.6695  0.8580
10638TIP3    H253406   3.198   2.269   2.635  0.3902  0.6651 -0.0812
10639TIP3   OH253407   2.875   3.779  11.603 -0.2487  0.3765 -0.5741
10639TIP3    H153408   2.890   3.827  11.685  1.8349  2.1900 -1.9190
10639TIP3    H253409   2.784   3.799  11.580 -0.5065  0.7633  0.6933
10640TIP3   OH253410   4.586   0.067   4.817 -0.2492 -0.0871  0.0014
10640TIP3    H153411   4.672   0.035   4.843 -0.8222 -0.0480  2.1639
10640TIP3    H253412   4.588   0.161   4.838 -0.2980  0.2666 -1.4704
10641TIP3   OH253413   5.063   5.355  13.976 -0.3184  0.3559  0.0160
10641TIP3    H153414   5.135   5.369  13.914  0.3831  1.1937  0.9885
10641TIP3    H253415   5.060   5.434  14.028 -0.6033 -0.5008  1.3532
10642TIP3   OH253416   3.679   0.821   1.107  0.5058  0.1108 -0.7574
10642TIP3    H153417   3.655   0.761   1.177 -0.9464  0.5265 -0.8692
10642TIP3    H253418   3.715   0.897   1.153  0.8177 -0.1693 -0.5330
10643TIP3   OH253419   5.676   1.012  12.509  0.2750 -0.3101  0.3415
10643TIP3    H153420   5.627   0.951  12.565 -0.2750  1.0202  1.3740
10643TIP3    H253421   5.654   1.098  12.544  1.7374  0.4373 -0.5148
10644TIP3   OH253422   6.284   1.601  12.169  0.4450  0.2349  0.4583
10644TIP3    H153423   6.372   1.609  12.133 -0.2740  0.9395 -1.2665
10644TIP3    H253424   6.297   1.570  12.259  2.3563 -1.2796 -0.2733
10645TIP3   OH253425   4.575   5.911  12.160 -0.0047 -0.2139  0.2578
10645TIP3    H153426   4.507   5.960  12.207  1.8361  1.5863  1.2357
10645TIP3    H253427   4.527   5.849  12.106 -2.5006  2.1587 -0.4809
10646TIP3   OH253428   0.979   3.003   6.560 -0.0163 -0.3015 -0.0680
10646TIP3    H153429   0.976   2.911   6.584  0.0750 -0.3185 -0.1231
10646TIP3    H253430   0.911   3.044   6.613 -0.6095 -0.5341 -0.6364
10647TIP3   OH253431   0.719   6.719  15.130 -0.2655  0.3501  0.1544
10647TIP3    H153432   0.717   6.625  15.145  0.4737  0.0614 -1.4110
10647TIP3    H253433   0.627   6.745  15.125 -0.4967 -0.6857 -1.6012
10648TIP3   OH253434   3.546   6.440  13.477 -0.5514  0.0067  1.1602
10648TIP3    H153435   3.641   6.442  13.475 -0.4449  0.9823 -3.3081
10648TIP3    H253436   3.523   6.352  13.445 -0.9810  0.6888 -0.5486
10649TIP3   OH253437   2.894   1.589   2.018  0.1675 -0.5276  0.4059
10649TIP3    H153438   2.877   1.531   2.092  0.1606  0.8927  1.5708
10649TIP3    H253439   2.959   1.651   2.051 -0.1094  0.3592 -0.6608
10650TIP3   OH253440   3.616   3.267  15.624 -0.2899 -0.2702  0.2505
10650TIP3    H153441   3.588   3.355  15.601 -1.1465 -0.3614  0.8683
10650TIP3    H253442   3.711   3.271  15.625 -0.2504  0.0497 -1.9475
10651TIP3   OH253443   0.088   2.021  14.960 -0.3213 -0.0728  0.1333
10651TIP3    H153444   0.019   1.971  14.918  0.3807  0.3004 -1.5344
10651TIP3    H253445   0.075   2.006  15.054 -1.7343 -1.2018 -0.2145
10652TIP3   OH253446   2.773   5.941  11.545  0.3373  0.5152  0.0038
10652TIP3    H153447   2.721   5.878  11.595  0.8186  0.0523 -0.0710
10652TIP3    H253448   2.718   5.962  11.469  0.4462 -0.3406 -0.3296
10653TIP3   OH253449   4.109   3.364  16.414 -0.1446 -0.2282 -0.5902
10653TIP3    H153450   4.108   3.460  16.423  0.3518 -0.3133  0.4862
10653TIP3    H253451   4.197   3.339  16.443 -0.8148 -1.1593  0.7271
10654TIP3   OH253452   5.030   0.307  13.512  0.1280 -0.2178 -0.4326
10654TIP3    H153453   5.061   0.226  13.471  0.1084 -0.4083 -0.0762
10654TIP3    H253454   5.106   0.339  13.562 -0.5629 -1.3336  1.4456
10655TIP3   OH253455   3.044   2.421  16.609  0.2782  0.2990  0.1624
10655TIP3    H153456   2.993   2.340  16.605  1.3313 -0.3759 -0.3748
10655TIP3    H253457   3.040   2.447  16.701  2.1347 -1.9136  0.9882
10656TIP3   OH253458   3.104   6.358   6.484  0.0960 -0.3705 -0.8604
10656TIP3    H153459   3.097   6.275   6.532 -0.4615 -0.1101 -0.4715
10656TIP3    H253460   3.184   6.398   6.517  0.3898 -0.7710 -1.0804
10657TIP3   OH253461   1.763   5.622   3.277 -0.1602 -0.5354 -0.0851
10657TIP3    H153462   1.845   5.642   3.231  2.0173 -1.3967  3.0966
10657TIP3    H253463   1.788   5.617   3.369 -3.7363 -1.4251  0.9806
10658TIP3   OH253464   1.293   1.882   4.839  0.0943  0.0856 -0.1018
10658TIP3    H153465   1.384   1.911   4.839 -0.1104  1.0086 -2.4170
10658TIP3    H253466   1.244   1.960   4.810 -1.2962 -0.6981  0.0667
10659TIP3   OH253467   2.267   6.057  12.172 -0.4170 -0.0749 -0.7431
10659TIP3    H153468   2.277   6.055  12.077 -2.5841  1.1662 -1.0560
10659TIP3    H253469   2.302   6.142  12.198 -0.1579 -0.2628 -0.4767
10660TIP3   OH253470   3.334   5.653   0.649  0.0791  0.8335  0.0086
10660TIP3    H153471   3.292   5.604   0.579  1.8451  0.6237 -0.9655
10660TIP3    H253472   3.334   5.744   0.618  1.7492  0.5982 -0.7686
10661TIP3   OH253473   0.752   4.594   2.268  0.4400  0.0081  0.0749
10661TIP3    H153474   0.836   4.623   2.234  1.9155 -3.2888  0.4942
10661TIP3    H253475   0.709   4.552   2.193 -0.2217  0.4391  0.2032
10662TIP3   OH253476   2.921   3.861   0.149 -0.2046 -0.1628  0.5406
10662TIP3    H153477   2.961   3.917   0.083  0.0282 -0.2194  0.6305
10662TIP3    H253478   2.859   3.917   0.195  0.2020  0.0917  0.7924
10663TIP3   OH253479   1.285   1.429  16.374 -0.0382 -0.0741 -0.5774
10663TIP3    H153480   1.357   1.487  16.349 -1.4471  1.3041 -1.6110
10663TIP3    H253481   1.269   1.375  16.296  0.6456 -1.2596  0.0654
10664TIP3   OH253482   6.147   3.682   6.528 -0.0170 -0.3014  0.2405
10664TIP3    H153483   6.190   3.746   6.471  0.6811 -2.0266 -1.3036
10664TIP3    H253484   6.218   3.647   6.583 -0.1447 -0.6023  0.2157
10665TIP3   OH253485   2.811   4.755   2.458 -0.5821 -0.3308  0.3201
10665TIP3    H153486   2.890   4.707   2.435 -1.1825 -1.1627 -0.0229
10665TIP3    H253487   2.754   4.747   2.382 -1.1265  0.0020  0.6829
10666TIP3   OH253488   6.547   5.888   1.895 -0.4726  0.5342 -0.4981
10666TIP3    H153489   6.605   5.884   1.819 -1.1419 -1.3656 -0.9788
10666TIP3    H253490   6.475   5.829   1.873 -1.4732  1.1207  0.9990
10667TIP3   OH253491   2.503   3.782   1.991 -0.2231 -0.7035 -0.3169
10667TIP3    H153492   2.583   3.778   2.042  0.0399 -3.1095 -0.8057
10667TIP3    H253493   2.444   3.837   2.043  1.3418  0.1788  0.5866
10668TIP3   OH253494   0.898   2.588  11.990 -0.0811  0.0048 -0.3301
10668TIP3    H153495   0.867   2.499  11.975 -1.3251  0.3963 -0.2487
10668TIP3    H253496   0.967   2.579  12.056 -0.3568 -0.8678 -0.1522
10669TIP3   OH253497   3.329   0.965   1.817  0.1312 -0.3395 -0.0759
10669TIP3    H153498   3.281   1.033   1.865  1.0959  1.0360 -0.9898
10669TIP3    H253499   3.272   0.945   1.743 -1.8323 -3.1824  2.0017
10670TIP3   OH253500   1.665   0.621   1.385  0.0537 -0.0972  0.0952
10670TIP3    H153501   1.593   0.682   1.373 -0.1019 -0.2678  0.1567
10670TIP3    H253502   1.736   0.656   1.331 -0.1486 -0.0537 -0.1416
10671TIP3   OH253503   1.798   1.494  15.867 -0.6140  0.2769  0.0590
10671TIP3    H153504   1.727   1.553  15.894 -0.7145 -0.8364  2.5414
10671TIP3    H253505   1.758   1.407  15.864  0.7650 -0.5698  2.6902
10672TIP3   OH253506   0.006   1.002   5.839  0.8033 -0.1800 -0.2724
10672TIP3    H153507   0.027   0.912   5.863  1.6174  0.2760  0.7623
10672TIP3    H253508   0.010   1.051   5.921  1.1681  0.9558 -0.9408
10673TIP3   OH253509   3.580   2.041  11.955 -0.1423 -0.1777 -0.3795
10673TIP3    H153510   3.611   2.115  12.008  0.4664  0.3811 -1.4803
10673TIP3    H253511   3.486   2.038  11.971  0.1661 -0.7703  1.6335
10674TIP3   OH253512   4.781   4.953  12.714 -0.5575 -0.2284  0.6904
10674TIP3    H153513   4.796   4.864  12.680 -0.5176 -0.2006  0.6347
10674TIP3    H253514   4.858   5.002  12.686 -1.3332  0.2413 -0.7074
10675TIP3   OH253515   4.570   5.233  16.882  0.5450 -0.6096  0.8862
10675TIP3    H153516   4.650   5.253  16.835 -0.1288  0.3515  0.1023
10675TIP3    H253517   4.599   5.187  16.961  1.8755  0.0263  0.7854
10676TIP3   OH253518   5.144   3.722  13.051 -0.1159 -0.1104  0.1172
10676TIP3    H153519   5.212   3.682  13.105  1.8313  1.4127 -1.0662
10676TIP3    H253520   5.108   3.792  13.106  0.6581  0.3183  0.1008
10677TIP3   OH253521   1.181   4.333   5.859  0.3592 -0.7465  0.9200
10677TIP3    H153522   1.105   4.368   5.813  1.4333  1.6014  0.7778
10677TIP3    H253523   1.202   4.251   5.813 -2.1911 -1.6068  1.1727
10678TIP3   OH253524   1.593   4.540   5.930  0.4532 -0.0358  0.2504
10678TIP3    H153525   1.662   4.573   5.872 -0.0989  0.7108  0.0026
10678TIP3    H253526   1.624   4.561   6.018  0.3826  0.6196  0.1221
10679TIP3   OH253527   1.561   6.209  10.629  0.4340  0.0487 -0.6993
10679TIP3    H153528   1.638   6.259  10.601 -0.0025  0.1052 -1.8671
10679TIP3    H253529   1.492   6.236  10.568 -0.0376 -1.3258 -0.8092
10680TIP3   OH253530   0.023   2.991   3.942  0.5459  0.2679 -0.4777
10680TIP3    H153531  -0.043   2.932   3.904 -0.9799  2.5654 -1.6171
10680TIP3    H253532   0.094   2.992   3.878 -0.0182  0.6659 -1.1096
10681TIP3   OH253533   5.038   2.682   3.255 -0.2527  0.0483 -0.3457
10681TIP3    H153534   5.084   2.742   3.196  0.7459  0.1053  0.4562
10681TIP3    H253535   4.948   2.682   3.224  0.2320  0.1012 -1.8497
10682TIP3   OH253536   4.400   6.482   3.490  0.4817  0.3799  0.2305
10682TIP3    H153537   4.490   6.449   3.488  0.2707 -0.2732  1.1405
10682TIP3    H253538   4.399   6.544   3.563 -0.1785 -0.7624  1.2226
10683TIP3   OH253539   5.614   2.216   5.728  0.2243 -0.5620 -0.5935
10683TIP3    H153540   5.569   2.178   5.803 -0.5978 -0.5862 -1.0807
10683TIP3    H253541   5.671   2.283   5.765  0.2645 -0.9709  0.0990
10684TIP3   OH253542   1.071   0.485   5.282 -0.0145  0.3281 -0.0097
10684TIP3    H153543   1.062   0.487   5.187 -1.3871  0.4538  0.0937
10684TIP3    H253544   0.981   0.481   5.314  0.4614 -0.9162  1.2730
10685TIP3   OH253545   5.132   4.835   3.483 -0.2962 -0.1447  0.0392
10685TIP3    H153546   5.220   4.798   3.476  0.3013  0.6453  2.3527
10685TIP3    H253547   5.073   4.760   3.480  0.6960 -1.0425  1.6845
10686TIP3   OH253548   1.412   3.778   1.330  0.3329 -0.0441  0.3583
10686TIP3    H153549   1.398   3.766   1.236  0.6136  0.2176  0.2794
10686TIP3    H253550   1.490   3.726   1.350  2.3174  2.4751 -0.2341
10687TIP3   OH253551   6.300   6.702  15.868 -0.2035  0.3245 -0.3982
10687TIP3    H153552   6.383   6.717  15.823 -0.7149 -0.3044 -1.6159
10687TIP3    H253553   6.233   6.716  15.801 -1.0549  0.2858  0.4157
10688TIP3   OH253554   4.834   0.329  17.201 -0.3597 -0.3988  0.0174
10688TIP3    H153555   4.881   0.383  17.137 -2.2574  2.7149  1.0212
10688TIP3    H253556   4.894   0.324  17.276  0.2768 -0.6182 -0.4988
10689TIP3   OH253557   5.164   2.957   5.298  0.5251  0.4322 -0.6180
10689TIP3    H153558   5.205   2.880   5.337 -0.2664 -0.4312 -1.4158
10689TIP3    H253559   5.194   2.957   5.207  0.6324  1.1529 -0.5860
10690TIP3   OH253560   2.119   1.886   6.383  0.3330  0.0259  0.1194
10690TIP3    H153561   2.080   1.843   6.459  0.3831  1.5017  1.0267
10690TIP3    H253562   2.114   1.979   6.404 -0.9276  0.5696 -2.3241
10691TIP3   OH253563   4.940   3.226   0.538 -0.6106  0.2351  0.0892
10691TIP3    H153564   4.919   3.302   0.593  0.4445  0.2597  0.4800
10691TIP3    H253565   4.982   3.165   0.598  1.2906  0.5812 -0.8383
10692TIP3   OH253566   4.967   2.929   6.080 -0.1592  0.4435  0.2742
10692TIP3    H153567   4.945   2.846   6.040  2.5599 -0.9068  1.3096
10692TIP3    H253568   4.951   2.916   6.174  0.7636  0.8591  0.5118
10693TIP3   OH253569   2.730   1.148  12.768 -0.0445  0.6098  0.1228
10693TIP3    H153570   2.659   1.203  12.736 -0.5786  0.1112  0.4308
10693TIP3    H253571   2.740   1.172  12.860 -0.2796  0.2065  0.2595
10694TIP3   OH253572   6.082   3.514  12.217  0.2922  0.7040  0.7777
10694TIP3    H153573   6.040   3.515  12.131  0.8030  1.6577  0.5269
10694TIP3    H253574   6.072   3.604  12.249 -0.8535  0.1102  2.2039
10695TIP3   OH253575   0.196   6.396   0.556 -0.8915  0.1872  0.4815
10695TIP3    H153576   0.152   6.470   0.514 -0.7040 -0.4621 -0.9014
10695TIP3    H253577   0.251   6.358   0.487  0.5059 -0.0826  1.6894
10696TIP3   OH253578   1.585   0.883  16.441 -0.6935  0.2105 -0.3837
10696TIP3    H153579   1.550   0.807  16.395  1.0826 -0.8256 -0.1287
10696TIP3    H253580   1.604   0.852  16.529 -0.6387  1.1669 -0.0459
10697TIP3   OH253581   3.204   2.143  16.228 -0.1663 -0.0615 -0.0895
10697TIP3    H153582   3.252   2.127  16.146 -1.5589 -0.4038 -0.8870
10697TIP3    H253583   3.171   2.056  16.252  0.3577  0.0164  0.9355
10698TIP3   OH253584   4.392   2.965   3.619 -0.3217 -0.6776 -0.6542
10698TIP3    H153585   4.312   2.965   3.671  0.7540 -1.5133  1.1102
10698TIP3    H253586   4.401   2.875   3.589  0.4660 -0.8572  0.0612
10699TIP3   OH253587   3.290   1.606  16.569 -0.5379 -0.1148 -0.4877
10699TIP3    H153588   3.287   1.516  16.602  0.9716 -0.4971 -1.2851
10699TIP3    H253589   3.383   1.628  16.568 -0.8497  1.3158 -0.7166
10700TIP3   OH253590   0.460   4.589   5.480  0.4708  0.1948  0.0795
10700TIP3    H153591   0.514   4.524   5.524 -1.1500 -1.6550 -0.5191
10700TIP3    H253592   0.426   4.643   5.551 -0.2773 -1.3169  0.9286
10701TIP3   OH253593   1.715   6.343   4.260  0.1915  0.1737 -0.1342
10701TIP3    H153594   1.682   6.253   4.252 -0.9671  0.5097  0.7467
10701TIP3    H253595   1.656   6.395   4.206  1.2191  0.3580 -1.1361
10702TIP3   OH253596   3.203   5.322   2.803 -0.4291  0.2298  0.5234
10702TIP3    H153597   3.153   5.360   2.731  0.2471  0.9088  0.4103
10702TIP3    H253598   3.291   5.309   2.767  0.0246  0.9517  1.3384
10703TIP3   OH253599   5.681   3.724  11.609 -0.0631 -0.4548  0.0986
10703TIP3    H153600   5.728   3.680  11.680  0.0482 -0.3463  0.0932
10703TIP3    H253601   5.712   3.681  11.530 -0.1172 -0.5124  0.1082
10704TIP3   OH253602   3.055   4.635   5.174  0.2731  0.6830  0.2530
10704TIP3    H153603   3.125   4.578   5.206  0.3639 -0.0287 -1.1577
10704TIP3    H253604   3.098   4.720   5.164  0.6748  0.5002  0.3597
10705TIP3   OH253605   0.492   1.322   3.256  0.2418 -0.4951 -0.1178
10705TIP3    H153606   0.468   1.230   3.269 -0.6060 -0.1582  0.8637
10705TIP3    H253607   0.409   1.369   3.256  0.7461  0.4890  1.3540
10706TIP3   OH253608   1.286   3.872   5.524  0.3802  0.2524 -0.0047
10706TIP3    H153609   1.254   3.823   5.599 -1.6847  1.6805  0.1369
10706TIP3    H253610   1.320   3.805   5.464 -1.4862 -1.2659  0.5482
10707TIP3   OH253611   3.941   5.878  13.005 -0.1370 -0.6712  0.1516
10707TIP3    H153612   3.864   5.913  12.962 -0.2097 -0.3109  0.5638
10707TIP3    H253613   3.910   5.850  13.091  0.7069  2.2754  1.5848
10708TIP3   OH253614   6.353   6.365  11.539 -0.0908  0.3341 -0.3516
10708TIP3    H153615   6.333   6.272  11.541  0.2450  0.2657  1.6196
10708TIP3    H253616   6.282   6.404  11.488 -1.1874 -0.7790  0.2676
10709TIP3   OH253617   3.763   0.487  13.829  0.2520  0.0197  0.1169
10709TIP3    H153618   3.764   0.409  13.885 -0.5447 -0.4456 -0.4870
10709TIP3    H253619   3.763   0.560  13.890  0.8592 -0.4520  0.6981
10710TIP3   OH253620   1.109   6.101   0.983 -0.3415 -0.0980  0.7002
10710TIP3    H153621   1.077   6.061   0.902 -1.9480  0.8010  0.8351
10710TIP3    H253622   1.128   6.028   1.041  0.0694 -0.7292 -0.2065
10711TIP3   OH253623   5.915   4.395   5.888  0.1857  0.4761 -0.4235
10711TIP3    H153624   5.852   4.435   5.949  0.4583 -0.1487  0.2810
10711TIP3    H253625   5.861   4.352   5.822 -0.1492 -0.3694  0.3799
10712TIP3   OH253626   5.189   4.534   0.039 -0.1416 -0.7789 -0.6460
10712TIP3    H153627   5.137   4.486   0.104  2.2224 -0.3008  1.7909
10712TIP3    H253628   5.161   4.625   0.047 -0.4820 -0.8498 -0.9867
10713TIP3   OH253629   6.052   2.086   2.065  0.3127 -0.3724 -0.3543
10713TIP3    H153630   6.061   2.107   1.972  1.6193  0.9206  0.0328
10713TIP3    H253631   6.141   2.068   2.095  0.0162 -0.0046  0.8116
10714TIP3   OH253632   0.447   3.305   1.564  0.1559 -0.3528 -0.3056
10714TIP3    H153633   0.442   3.213   1.537  0.8141 -0.3515 -0.4522
10714TIP3    H253634   0.484   3.350   1.488  3.2435 -0.5425  0.9771
10715TIP3   OH253635   2.952   4.131  12.790  0.6509 -0.1390 -0.4843
10715TIP3    H153636   2.949   4.217  12.748 -1.9129 -0.1255 -0.4047
10715TIP3    H253637   2.873   4.127  12.844  0.8250 -2.4610 -0.2767
10716TIP3   OH253638   1.919   6.264  15.331 -0.1567  0.0024  0.0598
10716TIP3    H153639   1.851   6.258  15.264 -1.3361  1.7941  1.0073
10716TIP3    H253640   1.973   6.339  15.304 -0.4611  0.5465  0.9201
10717TIP3   OH253641   2.281   3.709   0.091 -0.5357  0.1379  0.2565
10717TIP3    H153642   2.224   3.640   0.123  0.2228 -1.6531 -1.9668
10717TIP3    H253643   2.351   3.715   0.156 -1.3830 -0.1368  1.2120
10718TIP3   OH253644   0.197   3.929   5.584  0.2689  0.0196  0.2687
10718TIP3    H153645   0.104   3.908   5.577  0.0617 -0.8288  3.7280
10718TIP3    H253646   0.206   3.971   5.669  3.1293 -0.3787  0.2690
10719TIP3   OH253647   0.896   1.558  13.388 -0.4579 -0.0135 -0.0660
10719TIP3    H153648   0.818   1.542  13.333 -1.1894  1.7408  0.4071
10719TIP3    H253649   0.968   1.561  13.325 -0.8840 -0.7783 -0.6176
10720TIP3   OH253650   6.023   6.775  16.109 -0.1286  0.2888 -0.1302
10720TIP3    H153651   5.943   6.723  16.115 -0.2754  0.3964 -1.0191
10720TIP3    H253652   5.998   6.862  16.137  0.2354 -0.2109  1.8648
10721TIP3   OH253653   3.939   3.301   2.768 -0.0534  0.3722 -0.0686
10721TIP3    H153654   3.867   3.356   2.802 -0.1960 -0.4249  0.9814
10721TIP3    H253655   3.988   3.360   2.711 -0.4565  1.4816  0.6725
10722TIP3   OH253656   3.180   0.323  14.979 -0.6830  0.6821  0.3787
10722TIP3    H153657   3.226   0.244  14.952  2.7347  2.5446  0.2184
10722TIP3    H253658   3.130   0.350  14.901  0.3794  0.1593 -0.5143
10723TIP3   OH253659   6.198   3.494   1.455  0.0691  1.1281  0.0310
10723TIP3    H153660   6.191   3.463   1.546  3.3111 -0.7999 -0.2348
10723TIP3    H253661   6.256   3.569   1.459  0.8390  0.5740 -0.5022
10724TIP3   OH253662   0.490   6.046  14.215 -0.2197  0.4729  0.0285
10724TIP3    H153663   0.537   5.963  14.216  0.1787  0.6904 -0.1556
10724TIP3    H253664   0.429   6.041  14.288  1.4788  0.9629  1.5561
10725TIP3   OH253665   0.420   2.471   0.751  0.8195 -0.4542 -0.5749
10725TIP3    H153666   0.353   2.403   0.755 -0.4523  0.6996 -1.3627
10725TIP3    H253667   0.435   2.494   0.842 -0.7079  0.0245 -0.4025
10726TIP3   OH253668   6.195   3.618  14.444  0.3620  0.0774 -0.1366
10726TIP3    H153669   6.276   3.600  14.397  0.1451 -0.5731 -0.2735
10726TIP3    H253670   6.223   3.662  14.524  0.7188  1.2824 -0.9080
10727TIP3   OH253671   2.916   6.274  15.803  0.3361 -0.2936 -0.5071
10727TIP3    H153672   2.829   6.314  15.811  1.1012  1.0363  2.6652
10727TIP3    H253673   2.899   6.180  15.812 -0.7913 -0.0240  0.5182
10728TIP3   OH253674   6.306   3.632  11.973  1.1068 -0.3094  0.2059
10728TIP3    H153675   6.387   3.674  11.945  1.0556  0.0843  0.6489
10728TIP3    H253676   6.316   3.621  12.068  0.2312  0.6423  0.4207
10729TIP3   OH253677   3.355   3.415   3.889 -0.5916 -0.1905 -0.0777
10729TIP3    H153678   3.393   3.470   3.820  1.4431  2.0723  2.6004
10729TIP3    H253679   3.285   3.469   3.927 -0.6792 -0.7641  0.5967
10730TIP3   OH253680   0.582   2.196   4.976 -0.1726 -0.2187 -0.0393
10730TIP3    H153681   0.545   2.166   4.893 -0.8040 -0.5918  0.3766
10730TIP3    H253682   0.626   2.279   4.954  1.3460 -1.2499 -1.1503
10731TIP3   OH253683   3.810   5.721   2.015  0.0833  0.0458 -0.0819
10731TIP3    H153684   3.757   5.646   2.042 -0.3190 -0.1492 -1.3190
10731TIP3    H253685   3.747   5.786   1.985  0.4284  0.9481  1.0972
10732TIP3   OH253686   1.568   2.913   5.394  0.6778  0.1629  0.0768
10732TIP3    H153687   1.542   2.854   5.465 -3.3511  1.0943 -0.3918
10732TIP3    H253688   1.564   3.000   5.433 -0.0007  0.5653 -0.8607
10733TIP3   OH253689   3.793   0.118  16.006 -0.5691 -0.3051  0.0413
10733TIP3    H153690   3.748   0.067  15.938  0.8447 -0.6801 -0.6555
10733TIP3    H253691   3.882   0.129  15.972 -0.0731  0.2360  1.4629
10734TIP3   OH253692   6.039   2.467  13.706  0.0022 -0.2981  0.1861
10734TIP3    H153693   6.011   2.405  13.639  2.3271 -0.8829 -0.3198
10734TIP3    H253694   5.976   2.539  13.700 -0.7598 -1.0518 -1.5476
10735TIP3   OH253695   0.814   5.621  16.124  0.0882  0.1448  0.0148
10735TIP3    H153696   0.762   5.655  16.052  1.4328  0.8653 -0.6466
10735TIP3    H253697   0.776   5.535  16.143 -0.3562 -0.0088 -1.4828
10736TIP3   OH253698   6.464   5.789  16.425 -0.1650 -0.1946  0.1201
10736TIP3    H153699   6.422   5.875  16.428  2.6095  1.3865 -1.7096
10736TIP3    H253700   6.395   5.729  16.398 -1.6113  1.9457 -1.2299
10737TIP3   OH253701   0.369   5.951  14.431 -0.0008  0.2416  0.6245
10737TIP3    H153702   0.337   5.862  14.439 -0.3199  0.3092  0.1612
10737TIP3    H253703   0.433   5.961  14.501  0.1296 -0.3920  0.5971
10738TIP3   OH253704   3.943   6.222   3.372  0.1774  0.1495 -0.2025
10738TIP3    H153705   4.017   6.227   3.311  1.0327  0.4819  0.8286
10738TIP3    H253706   3.866   6.237   3.318  0.9164  0.4604 -1.1957
10739TIP3   OH253707   3.009   5.552  11.320 -0.2053  0.0220 -0.8520
10739TIP3    H153708   2.932   5.528  11.270 -1.2058  1.2130  0.0499
10739TIP3    H253709   3.076   5.572  11.254 -1.9744  3.2138 -1.8983
10740TIP3   OH253710   4.621   1.291  16.361  0.5028 -0.2282  0.5985
10740TIP3    H153711   4.631   1.383  16.335  1.2867 -0.0559  1.4315
10740TIP3    H253712   4.695   1.246  16.320  0.1238 -0.4847  0.1977
10741TIP3   OH253713   3.480   4.175   2.948 -0.6495 -0.5375  0.3972
10741TIP3    H153714   3.462   4.095   2.997 -1.4715 -1.6635 -1.5774
10741TIP3    H253715   3.537   4.146   2.876  0.7449  1.0799  0.8033
10742TIP3   OH253716   3.237   6.693   4.965 -0.1722  0.0900 -0.2437
10742TIP3    H153717   3.322   6.676   5.005 -0.4198  0.2592  0.3523
10742TIP3    H253718   3.231   6.788   4.959 -0.2619  0.0748 -0.4220
10743TIP3   OH253719   5.712   0.792  13.619  0.6317  0.4924  0.0584
10743TIP3    H153720   5.681   0.714  13.573  1.3977 -0.2534  0.7576
10743TIP3    H253721   5.750   0.847  13.551 -1.2816  0.9672 -0.6648
10744TIP3   OH253722   2.065   6.277  11.385  0.5294  0.3622  0.0874
10744TIP3    H153723   2.099   6.205  11.437 -0.5512 -1.2221 -1.2906
10744TIP3    H253724   1.971   6.263  11.382  0.1681  2.3403  0.4750
10745TIP3   OH253725   1.315   4.705  16.911 -0.7659  0.4854 -0.1217
10745TIP3    H153726   1.288   4.753  16.833  0.0352  0.3495 -0.5020
10745TIP3    H253727   1.411   4.714  16.911 -0.3982 -2.3693 -1.0912
10746TIP3   OH253728   0.921   1.063  13.879 -0.2869  0.0041 -0.4276
10746TIP3    H153729   0.935   1.157  13.888  0.1080  0.0957 -1.8394
10746TIP3    H253730   1.004   1.024  13.908 -0.1424  0.1314 -0.6680
10747TIP3   OH253731   2.822   5.112  13.626  0.6592  0.4628 -0.6622
10747TIP3    H153732   2.797   5.047  13.691  0.0240 -0.1369 -1.4835
10747TIP3    H253733   2.917   5.104  13.619  0.6645  0.1181 -0.2445
10748TIP3   OH253734   5.615   0.009  11.483  0.7340  0.2243  0.4944
10748TIP3    H153735   5.539  -0.043  11.457  0.6986  0.6713 -0.3063
10748TIP3    H253736   5.604   0.023  11.577  0.5804 -0.9390  0.6618
10749TIP3   OH253737   6.548   4.447   4.450  0.2840  0.4285 -0.5393
10749TIP3    H153738   6.609   4.408   4.512  0.1654  1.5699  0.3269
10749TIP3    H253739   6.462   4.415   4.478  0.4116 -0.9434 -1.5820
10750TIP3   OH253740   0.924   3.014  16.599  0.1719  0.8194  0.0007
10750TIP3    H153741   0.870   2.935  16.607 -0.2100  1.1757  1.2764
10750TIP3    H253742   0.980   2.998  16.523  2.0275 -1.8965  1.7418
10751TIP3   OH253743   3.371   0.463  13.216  0.1968 -0.4077  0.1273
10751TIP3    H153744   3.350   0.381  13.170  1.2591 -1.2376  1.0779
10751TIP3    H253745   3.293   0.482  13.267 -1.1473  0.7011 -2.1593
10752TIP3   OH253746   4.998   5.567  17.418 -0.1276 -0.2560 -0.1362
10752TIP3    H153747   5.063   5.513  17.463  0.5603 -0.0602 -0.8750
10752TIP3    H253748   5.043   5.649  17.400 -0.0890 -0.6206 -1.9077
10753TIP3   OH253749   3.225   2.381   3.659  0.1949  0.1560  0.2816
10753TIP3    H153750   3.154   2.386   3.595 -0.5947  1.5323  1.2054
10753TIP3    H253751   3.296   2.336   3.614 -0.3936  0.9514 -1.4916
10754TIP3   OH253752   2.051   4.861   0.961  0.2685  0.0419 -0.2276
10754TIP3    H153753   2.117   4.791   0.959  1.3323  0.9833 -3.1484
10754TIP3    H253754   2.045   4.886   1.054  1.6040 -2.2661  0.5633
10755TIP3   OH253755   0.764   3.098  17.394  0.2372 -0.1911  0.2171
10755TIP3    H153756   0.705   3.065  17.326 -0.4887 -0.2202  0.8439
10755TIP3    H253757   0.847   3.053  17.377 -0.2105 -0.9401 -0.0580
10756TIP3   OH253758   2.055   0.929  14.074 -0.3126  0.0299  0.4917
10756TIP3    H153759   2.121   0.889  14.017 -0.8054  1.7290 -1.3779
10756TIP3    H253760   2.105   0.966  14.147  0.8818  1.3824 -0.9485
10757TIP3   OH253761   2.400   6.328   2.280 -0.3034 -0.5180 -0.3559
10757TIP3    H153762   2.376   6.312   2.371  0.8308 -1.4315 -0.1830
10757TIP3    H253763   2.418   6.240   2.245 -2.5464 -0.3668 -2.0250
10758TIP3   OH253764   2.143   2.080   5.692  0.8544  0.4924  0.8417
10758TIP3    H153765   2.088   2.040   5.759 -0.8621  2.5543  0.7753
10758TIP3    H253766   2.119   2.173   5.692  3.1173  1.1755 -0.4342
10759TIP3   OH253767   5.108   2.833   2.386 -0.2664  0.9438  0.2494
10759TIP3    H153768   5.097   2.905   2.324 -0.3946  0.5746 -0.1639
10759TIP3    H253769   5.072   2.866   2.468  0.0476  1.4961  0.1721
10760TIP3   OH253770   3.836   5.071   1.667 -0.5321  0.6970  0.0329
10760TIP3    H153771   3.759   5.084   1.612 -0.6368  1.3422  0.3244
10760TIP3    H253772   3.807   5.095   1.755 -0.2114  0.2053  0.2780
10761TIP3   OH253773   5.749   0.023   1.832 -0.1576 -0.4386 -0.0841
10761TIP3    H153774   5.664   0.015   1.874 -1.4060  0.4821 -2.2522
10761TIP3    H253775   5.778   0.112   1.854  0.7985 -1.1021  1.5132
10762TIP3   OH253776   2.964   3.122   4.532 -0.1394  0.1582 -0.5651
10762TIP3    H153777   2.918   3.140   4.450  0.1655 -1.1142 -1.0426
10762TIP3    H253778   2.915   3.049   4.571  0.4282 -0.0472 -0.2214
10763TIP3   OH253779   2.229   3.969  13.478  0.1828  0.2050 -0.6898
10763TIP3    H153780   2.240   3.931  13.391  0.3130 -1.6498  0.1114
10763TIP3    H253781   2.146   3.933  13.509  1.2121 -0.9453  0.8264
10764TIP3   OH253782   1.223   1.702  16.693  0.2337  0.2865 -0.0205
10764TIP3    H153783   1.308   1.689  16.735 -0.0478  0.1612  0.5097
10764TIP3    H253784   1.189   1.614  16.679 -0.0321  0.3477  0.2254
10765TIP3   OH253785   5.477   2.146  11.560 -0.5185  0.1800  0.1958
10765TIP3    H153786   5.537   2.114  11.492 -2.5587  1.1586 -2.1972
10765TIP3    H253787   5.522   2.221  11.598  1.8933 -2.0054  2.0606
10766TIP3   OH253788   3.824   1.402   5.463 -0.5664 -0.1112 -0.2700
10766TIP3    H153789   3.749   1.364   5.509 -1.4206  0.3251 -1.2600
10766TIP3    H253790   3.807   1.383   5.370  1.6583 -1.9655 -0.4043
10767TIP3   OH253791   2.839   0.262   2.139 -0.5949 -0.3239 -0.0523
10767TIP3    H153792   2.782   0.184   2.145  0.6416 -1.2353  0.1841
10767TIP3    H253793   2.913   0.233   2.087  1.5064 -0.3547  2.7337
10768TIP3   OH253794   6.386   5.535   3.648 -0.3403 -0.0799 -0.4260
10768TIP3    H153795   6.296   5.505   3.664 -0.3546 -0.0212 -0.3985
10768TIP3    H253796   6.386   5.627   3.674 -0.2552 -0.0970 -0.3672
10769TIP3   OH253797   4.008   2.634   1.544 -0.1617  0.1890 -0.4267
10769TIP3    H153798   4.038   2.692   1.474  0.6560 -0.8063 -0.9284
10769TIP3    H253799   3.938   2.582   1.503 -0.0712 -0.0058 -0.3345
10770TIP3   OH253800   4.240   1.016   1.417  0.1279 -0.0198 -0.1538
10770TIP3    H153801   4.195   1.074   1.479 -0.0135 -2.2553  1.9943
10770TIP3    H253802   4.233   1.061   1.333 -1.7579  2.0681  1.0046
10771TIP3   OH253803   2.371   3.758  14.572 -0.7406  0.3749 -0.2167
10771TIP3    H153804   2.320   3.768  14.492 -1.2508  0.6622  0.1331
10771TIP3    H253805   2.319   3.803  14.639 -1.3220 -1.5580  0.6999
10772TIP3   OH253806   2.002   4.487   3.966  0.5437 -0.1750  0.1733
10772TIP3    H153807   1.993   4.517   4.057  1.3778 -1.1388  0.5973
10772TIP3    H253808   1.958   4.402   3.964 -0.6716  0.4536 -0.6857
10773TIP3   OH253809   1.432   2.783  13.724  0.1102 -0.1436  0.5999
10773TIP3    H153810   1.377   2.704  13.721 -0.9173  0.5746 -0.9069
10773TIP3    H253811   1.369   2.855  13.732  0.6873  0.7559 -1.8697
10774TIP3   OH253812   2.946   0.702   5.196 -0.2472  0.0295 -0.1346
10774TIP3    H153813   2.895   0.633   5.153 -0.9768 -0.1806  1.0157
10774TIP3    H253814   2.979   0.661   5.276  0.0307  0.7658  0.1386
10775TIP3   OH253815   4.797   2.312  14.906  0.2394  0.2142 -0.1714
10775TIP3    H153816   4.861   2.284  14.841 -0.3553 -0.0588 -0.6542
10775TIP3    H253817   4.725   2.248  14.898 -0.4821  1.0128 -0.2673
10776TIP3   OH253818   3.051   6.084  15.182 -0.1201 -0.3251  0.4207
10776TIP3    H153819   3.041   6.104  15.275 -2.0256  0.4481  0.0995
10776TIP3    H253820   3.129   6.029  15.177  0.3820  0.1447  2.3873
10777TIP3   OH253821   4.579   1.701   2.213 -0.0176  0.3488 -0.0882
10777TIP3    H153822   4.502   1.750   2.185 -0.5285 -0.0942  0.5058
10777TIP3    H253823   4.557   1.610   2.194 -0.4017  0.0255  1.7202
10778TIP3   OH253824   0.665   3.072   3.926 -0.4155 -0.3204 -0.1838
10778TIP3    H153825   0.667   3.110   4.014  0.0168 -0.8432  0.0398
10778TIP3    H253826   0.748   3.097   3.887  0.1482 -1.5298  0.1893
10779TIP3   OH253827   4.348   4.833  14.647 -0.4407  0.7479  0.0793
10779TIP3    H153828   4.303   4.753  14.676  0.9972 -0.3003 -0.4609
10779TIP3    H253829   4.278   4.892  14.622 -1.5588 -0.2547  0.7360
10780TIP3   OH253830   3.198   5.014  12.764 -0.2009  0.0641 -0.0947
10780TIP3    H153831   3.118   4.969  12.791  0.2097 -0.8199 -0.3391
10780TIP3    H253832   3.193   5.018  12.669  1.7481 -3.3493 -0.4840
10781TIP3   OH253833   1.454   2.093  11.651 -0.7908  0.1021  0.0731
10781TIP3    H153834   1.525   2.092  11.586 -0.8609 -0.2869 -0.0010
10781TIP3    H253835   1.400   2.017  11.629 -1.3425  0.5006  0.0070
10782TIP3   OH253836   1.225   4.432   2.834 -0.0352  0.7511 -0.3994
10782TIP3    H153837   1.317   4.445   2.857 -0.4151  0.6669  1.3672
10782TIP3    H253838   1.181   4.421   2.919 -1.3980 -0.9920 -1.2516
10783TIP3   OH253839   0.407   2.375  13.784 -0.1327  0.2354 -0.0679
10783TIP3    H153840   0.484   2.382  13.726 -1.0256 -0.7984 -1.4581
10783TIP3    H253841   0.440   2.399  13.870  1.2536  1.9567 -0.9856
10784TIP3   OH253842   0.362   0.805   3.614 -0.1759  0.5781 -0.0608
10784TIP3    H153843   0.331   0.715   3.605  0.5929  0.1723  1.1848
10784TIP3    H253844   0.282   0.858   3.615 -0.6816 -0.1873  0.3078
10785TIP3   OH253845   2.657   0.331  14.694 -0.2526  0.2512 -0.0469
10785TIP3    H153846   2.607   0.252  14.715 -0.5234  0.1649 -0.9867
10785TIP3    H253847   2.744   0.314  14.730 -0.4225 -0.3122  0.1060
10786TIP3   OH253848   4.145   3.868   2.498 -0.0492  0.2356 -0.0171
10786TIP3    H153849   4.082   3.893   2.431  0.2510 -0.2977 -0.5087
10786TIP3    H253850   4.211   3.816   2.451 -1.1059 -2.2720  1.0751
10787TIP3   OH253851   2.355   0.269  13.639 -0.0161  0.0051 -0.1534
10787TIP3    H153852   2.294   0.267  13.566 -0.6735  2.4738  0.2363
10787TIP3    H253853   2.432   0.316  13.605 -0.1222  0.7253  0.5723
10788TIP3   OH253854   3.259   4.136   2.758 -0.1662  0.9066  0.6758
10788TIP3    H153855   3.346   4.140   2.797  0.0026  2.1799  0.2111
10788TIP3    H253856   3.220   4.056   2.794  1.6392 -0.3709 -0.0728
10789TIP3   OH253857   0.368   1.586   5.408 -0.4197  0.9336  0.5560
10789TIP3    H153858   0.398   1.622   5.491 -0.1681  0.2005  0.7899
10789TIP3    H253859   0.441   1.532   5.377 -0.0239  2.1331 -0.7384
10790TIP3   OH253860   2.163   1.093   2.697  0.1410  0.3822 -0.0633
10790TIP3    H153861   2.095   1.048   2.648 -0.1296  1.0275 -0.2944
10790TIP3    H253862   2.217   1.023   2.733 -0.0306 -0.1173 -0.7490
10791TIP3   OH253863   1.574   2.677  13.389 -0.4764  0.3477  0.0246
10791TIP3    H153864   1.507   2.745  13.385 -1.0936 -0.2603 -0.1218
10791TIP3    H253865   1.625   2.688  13.309  0.7531  1.9557  0.9642
10792TIP3   OH253866   3.635   1.225  15.624 -0.0855  0.5800  0.0650
10792TIP3    H153867   3.592   1.198  15.543 -0.1710  2.5246 -0.5863
10792TIP3    H253868   3.722   1.185  15.619 -0.3674  0.0106 -0.5795
10793TIP3   OH253869   1.063   0.723  11.784 -0.0672 -0.1125  0.1066
10793TIP3    H153870   1.028   0.657  11.844  0.2070 -0.8637 -0.5432
10793TIP3    H253871   1.139   0.759  11.830 -0.6807  0.3183  0.7966
10794TIP3   OH253872   5.181   0.456  12.918 -0.7155  0.2451 -0.8148
10794TIP3    H153873   5.163   0.550  12.925 -0.3669  0.2958 -0.5817
10794TIP3    H253874   5.276   0.451  12.907 -0.8017 -0.0440 -1.5189
10795TIP3   OH253875   5.172   1.257  16.680 -0.3818 -0.3502 -0.1647
10795TIP3    H153876   5.175   1.182  16.620  1.6793 -0.7515  0.3572
10795TIP3    H253877   5.096   1.307  16.651 -0.0277 -1.0129 -2.5151
10796TIP3   OH253878   5.193   4.780  16.510  0.0807  0.5950 -0.2842
10796TIP3    H153879   5.165   4.713  16.573 -0.1941 -0.1628 -1.1955
10796TIP3    H253880   5.277   4.749  16.478 -0.0106  0.7252 -0.6503
10797TIP3   OH253881   5.919   3.949  15.066 -0.0433  0.0778 -0.0952
10797TIP3    H153882   5.883   3.997  14.992  1.2196 -1.8552 -2.0994
10797TIP3    H253883   5.856   3.961  15.137 -0.1448  3.9986 -0.6230
10798TIP3   OH253884   1.036   4.725  12.288  0.4233 -0.5161  0.4663
10798TIP3    H153885   1.106   4.755  12.230 -0.6475  0.4216 -0.3946
10798TIP3    H253886   1.054   4.767  12.372 -0.0943  1.2271 -0.2501
10799TIP3   OH253887   1.013   4.023   0.811  0.6156 -0.4005  0.4634
10799TIP3    H153888   0.933   3.971   0.801  0.4766 -0.2185  0.6093
10799TIP3    H253889   0.987   4.095   0.868  0.3885  0.7348 -1.0299
10800TIP3   OH253890   4.410   3.974  13.337 -0.4228  0.0772 -0.4691
10800TIP3    H153891   4.326   4.017  13.319 -0.4472 -0.0669 -0.6924
10800TIP3    H253892   4.457   4.037  13.393 -1.3271 -0.5205  1.0356
10801TIP3   OH253893   5.694   5.115   1.333  0.6214 -0.4563 -0.6949
10801TIP3    H153894   5.716   5.146   1.245 -0.1474  2.4872  0.0635
10801TIP3    H253895   5.608   5.075   1.323  0.0199  0.8921 -1.1009
10802TIP3   OH253896   3.381   3.359  11.750 -0.5231 -0.4056  0.0486
10802TIP3    H153897   3.300   3.329  11.709  0.5018 -1.1820 -1.5455
10802TIP3    H253898   3.427   3.278  11.772 -0.2493  0.0241  1.1105
10803TIP3   OH253899   1.158   6.239  15.475  0.8117 -0.3817  0.5777
10803TIP3    H153900   1.169   6.162  15.418 -0.2563  0.3454 -0.6810
10803TIP3    H253901   1.112   6.205  15.552  0.0065 -0.9629 -0.1314
10804TIP3   OH253902   0.315   2.621   4.069  0.7507  0.0057  0.4073
10804TIP3    H153903   0.304   2.631   4.164 -0.8206  2.8766  0.0357
10804TIP3    H253904   0.392   2.675   4.048  0.5685  0.0876 -0.0595
10805TIP3   OH253905   1.749   2.057  12.415 -0.0849  0.1313 -0.9277
10805TIP3    H153906   1.751   2.149  12.391  1.3045  0.0114 -1.3961
10805TIP3    H253907   1.744   2.011  12.331 -2.1155 -0.2329 -0.6553
10806TIP3   OH253908   6.504   2.782  11.243  0.4088  0.3126  0.2088
10806TIP3    H153909   6.520   2.747  11.155  1.7896 -0.8666  0.8999
10806TIP3    H253910   6.550   2.866  11.244  2.9728 -0.9960  0.7014
10807TIP3   OH253911   2.936   2.143   2.848 -0.3732  0.2132 -0.0430
10807TIP3    H153912   2.844   2.164   2.864 -0.3421 -0.4487  1.1672
10807TIP3    H253913   2.938   2.048   2.837  0.0353  0.3363 -1.1774
10808TIP3   OH253914   0.398   0.011   0.144 -0.6212  0.6765  0.1395
10808TIP3    H153915   0.439  -0.002   0.230  0.0548 -1.3081 -0.4132
10808TIP3    H253916   0.360   0.099   0.148 -0.0198  0.8989  2.2147
10809TIP3   OH253917   2.563   4.783   2.225 -1.0500 -1.0514  0.0199
10809TIP3    H153918   2.472   4.790   2.254 -0.6156 -0.3182  1.2757
10809TIP3    H253919   2.584   4.871   2.193 -0.1144 -0.5299  1.9042
10810TIP3   OH253920   4.934   3.961  12.167  0.4274 -0.5572  0.1894
10810TIP3    H153921   4.995   3.958  12.240  0.4860 -0.2396  0.1527
10810TIP3    H253922   4.876   4.034  12.187 -0.0533 -0.9644  0.3112
10811TIP3   OH253923   2.342   1.475   4.937  0.2549  0.4003  0.2399
10811TIP3    H153924   2.361   1.398   4.883 -0.4727 -0.5348  1.2510
10811TIP3    H253925   2.282   1.527   4.884 -2.1365 -1.5355  0.8815
10812TIP3   OH253926   6.005   3.131   3.510  0.1399  0.1647 -0.0392
10812TIP3    H153927   5.914   3.154   3.492  0.9369  1.9594 -2.1563
10812TIP3    H253928   6.052   3.214   3.505  2.0339 -0.8410  0.2227
10813TIP3   OH253929   1.926   5.516  16.864 -0.3801  0.1953  0.4673
10813TIP3    H153930   1.907   5.455  16.936 -1.5486  0.9796  0.8398
10813TIP3    H253931   1.897   5.469  16.786 -1.2855  0.2668  0.7521
10814TIP3   OH253932   2.668   2.040   2.227  0.4704  0.3373 -0.1596
10814TIP3    H153933   2.592   2.083   2.267  0.8882  1.1370 -0.1997
10814TIP3    H253934   2.708   1.991   2.299  0.2053  0.3305 -0.0153
10815TIP3   OH253935   6.231   4.750   6.057 -0.1142 -0.0452  0.2014
10815TIP3    H153936   6.223   4.766   6.151  1.0548  0.7503  0.1929
10815TIP3    H253937   6.314   4.703   6.048 -0.7829 -1.1564 -0.3373
10816TIP3   OH253938   3.307   3.036   3.185 -0.2832 -0.3631 -0.3793
10816TIP3    H153939   3.378   2.973   3.200  1.3735  1.4676 -0.1136
10816TIP3    H253940   3.351   3.112   3.147 -2.0035  1.1040  0.4513
10817TIP3   OH253941   3.994   5.052   5.376  0.5119 -0.2851  0.0418
10817TIP3    H153942   3.905   5.018   5.376  0.4322 -0.0970  0.7477
10817TIP3    H253943   4.000   5.106   5.455  0.2001  2.4809 -1.6685
10818TIP3   OH253944   5.891   5.381   1.639  0.6347  0.2485 -0.1777
10818TIP3    H153945   5.797   5.384   1.656  0.9380  0.0622  1.7353
10818TIP3    H253946   5.904   5.297   1.594 -0.2793  0.9788 -1.8986
10819TIP3   OH253947   4.501   2.106   1.956 -0.2887  0.2299  0.7665
10819TIP3    H153948   4.457   2.159   1.890 -0.5235  1.1733  1.6463
10819TIP3    H253949   4.594   2.111   1.933 -0.5823 -1.8792 -1.1719
10820TIP3   OH253950   1.792   0.430   6.163 -0.4021 -0.2701  0.2219
10820TIP3    H153951   1.885   0.446   6.147 -0.3288  0.9318  1.6582
10820TIP3    H253952   1.767   0.366   6.096  0.8279  1.2992 -1.8768
10821TIP3   OH253953   0.768   2.546  12.657 -1.0005 -0.0839  0.2072
10821TIP3    H153954   0.765   2.641  12.649 -0.8844 -0.1468 -0.7366
10821TIP3    H253955   0.847   2.521  12.608 -0.8660 -0.6443  0.6978
10822TIP3   OH253956   6.353   2.922   5.467 -0.1597  0.0930  0.0526
10822TIP3    H153957   6.394   2.983   5.528  1.4024 -0.0093 -0.8405
10822TIP3    H253958   6.311   2.857   5.523 -0.8596  1.3283  1.0104
10823TIP3   OH253959   0.996   1.754   5.776  0.1050  0.4135  0.5860
10823TIP3    H153960   0.977   1.841   5.809 -0.8938  0.7106 -0.6795
10823TIP3    H253961   0.990   1.697   5.853  0.3896  1.3895  1.3558
10824TIP3   OH253962   5.060   1.986  14.625  0.4968 -0.5031 -0.2049
10824TIP3    H153963   5.086   2.061  14.679  1.6848 -1.2280  0.2561
10824TIP3    H253964   5.096   2.005  14.538 -0.0540 -0.0830 -0.3457
10825TIP3   OH253965   0.597   1.362   0.064  0.2885  0.5344 -0.3607
10825TIP3    H153966   0.514   1.355   0.017  0.0453 -0.3346  0.1835
10825TIP3    H253967   0.658   1.309   0.012  0.3647  0.7216 -0.4613
10826TIP3   OH253968   3.700   3.278   0.160 -0.6325  0.3029  0.4609
10826TIP3    H153969   3.680   3.233   0.077 -0.4394 -0.1984  0.6824
10826TIP3    H253970   3.744   3.358   0.133 -0.3004 -0.0014  0.0877
10827TIP3   OH253971   2.867   1.715  16.105 -0.0687  0.5246 -0.2362
10827TIP3    H153972   2.948   1.755  16.134 -1.1258  1.5898  1.4233
10827TIP3    H253973   2.893   1.628  16.072  1.7786  1.0917 -0.3558
10828TIP3   OH253974   4.108   2.953  13.156  0.1162  0.5053 -0.5995
10828TIP3    H153975   4.104   3.035  13.106 -1.8142  2.0327  1.8158
10828TIP3    H253976   4.074   2.887  13.096  2.0017  1.3004 -2.7279
10829TIP3   OH253977   3.459   3.616  14.771  0.4788 -0.1668  0.5259
10829TIP3    H153978   3.457   3.521  14.773  0.5936 -0.1625  1.9118
10829TIP3    H253979   3.383   3.643  14.823 -0.2431  0.5329 -0.8117
10830TIP3   OH253980   0.944   6.502  12.778 -0.0396  0.3011 -0.1837
10830TIP3    H153981   0.955   6.462  12.864 -0.3643 -0.3892 -0.4558
10830TIP3    H253982   1.032   6.504  12.740  0.5664  2.8446  1.0928
10831TIP3   OH253983   1.094   1.449   0.976 -0.3891  0.5351 -0.1113
10831TIP3    H153984   1.185   1.473   0.955  0.0791  0.5992  1.8022
10831TIP3    H253985   1.048   1.456   0.893  1.1083  1.7145 -0.8982
10832TIP3   OH253986   0.061   3.216  14.472 -0.4919 -0.1216 -0.4495
10832TIP3    H153987   0.038   3.168  14.393 -1.6307  1.3181 -1.0449
10832TIP3    H253988   0.088   3.303  14.441  1.6430 -0.3350  0.5748
10833TIP3   OH253989   0.001   5.132   4.490 -0.6225 -0.1040  0.5956
10833TIP3    H153990  -0.091   5.147   4.511 -0.5836 -0.4088  0.9997
10833TIP3    H253991   0.010   5.037   4.485 -0.5410 -0.0554 -0.4328
10834TIP3   OH253992   5.787   3.446   5.796 -0.5134 -0.0997  0.1976
10834TIP3    H153993   5.758   3.377   5.855  1.2768 -3.9736 -2.9200
10834TIP3    H253994   5.722   3.445   5.725  0.1409  0.6731 -0.4256
10835TIP3   OH253995   2.140   5.836   5.266  0.0982  0.0933 -0.0238
10835TIP3    H153996   2.094   5.760   5.301 -1.1797  0.1444 -1.4962
10835TIP3    H253997   2.122   5.906   5.329 -1.3789 -0.0357 -0.2727
10836TIP3   OH253998   0.963   1.421  15.425  0.9225  0.3098 -0.0683
10836TIP3    H153999   0.892   1.469  15.383  0.5084 -0.1883  0.0518
10836TIP3    H254000   0.928   1.394  15.510  0.5141 -1.6782 -0.8003
10837TIP3   OH254001   2.641   3.423   2.208 -0.1766  0.3548 -0.3665
10837TIP3    H154002   2.722   3.427   2.157 -1.3423 -0.9121 -2.4289
10837TIP3    H254003   2.593   3.502   2.184 -0.0266  0.5774  0.0516
10838TIP3   OH254004   4.542   5.477   0.326  0.1905  0.4702  0.6240
10838TIP3    H154005   4.624   5.522   0.302 -0.1506  1.8146  1.8408
10838TIP3    H254006   4.499   5.461   0.242  2.0235 -0.9694 -0.1101
10839TIP3   OH254007   3.609   2.052   1.923 -0.3053 -0.5041 -0.6947
10839TIP3    H154008   3.523   2.060   1.965  0.4333 -0.0241  0.7838
10839TIP3    H254009   3.598   2.097   1.838 -1.2268  0.4516 -0.1021
10840TIP3   OH254010   1.720   2.323   5.103 -0.3954 -0.0751 -0.3100
10840TIP3    H154011   1.685   2.406   5.136  1.0713  0.3160  0.3543
10840TIP3    H254012   1.743   2.343   5.012 -2.1130 -0.4262 -0.8506
10841TIP3   OH254013   6.765   1.455   2.741  0.0422  0.5709 -0.1813
10841TIP3    H154014   6.777   1.534   2.690  1.1553  1.0212  0.7317
10841TIP3    H254015   6.848   1.408   2.732 -0.1322  0.1503  0.3534
10842TIP3   OH254016   2.170   2.297  15.521  0.2837 -0.0118 -0.0711
10842TIP3    H154017   2.246   2.315  15.576  0.3042  0.2968 -0.2001
10842TIP3    H254018   2.095   2.318  15.577  0.3106  0.6552 -0.2824
10843TIP3   OH254019   4.678   2.901  14.438 -0.1541 -0.5235 -0.5220
10843TIP3    H154020   4.646   2.976  14.387 -0.4020 -0.6281 -0.5191
10843TIP3    H254021   4.621   2.829  14.413 -1.7832 -0.0768  1.5710
10844TIP3   OH254022   0.875   0.905  13.656 -0.1590  0.1604 -0.4746
10844TIP3    H154023   0.818   0.967  13.611  0.0384  0.7863  0.1166
10844TIP3    H254024   0.889   0.944  13.742 -0.5428 -1.0235  0.1389
10845TIP3   OH254025   1.236   0.157   4.026  0.1720 -0.2866  0.8378
10845TIP3    H154026   1.146   0.159   4.059  0.9945 -0.3560  3.2608
10845TIP3    H254027   1.227   0.131   3.934 -2.2229 -1.0518  1.2135
10846TIP3   OH254028   0.699   1.393   2.695 -0.3645  0.3721  0.1344
10846TIP3    H154029   0.788   1.384   2.661 -0.0477 -0.2756  1.0971
10846TIP3    H254030   0.705   1.366   2.787 -1.5807  0.1849  0.1791
10847TIP3   OH254031   4.807   2.681   5.893 -0.4028  0.1913 -0.1017
10847TIP3    H154032   4.891   2.643   5.869 -0.3577 -0.4977  1.0892
10847TIP3    H254033   4.744   2.641   5.833 -0.2884 -1.4715  0.8383
10848TIP3   OH254034   4.663   2.662  13.823 -0.0729 -0.0735  0.3129
10848TIP3    H154035   4.606   2.713  13.766  2.2496  2.1969 -0.1632
10848TIP3    H254036   4.708   2.601  13.764 -2.2589 -2.3002  0.7702
10849TIP3   OH254037   5.742   2.467  16.842 -0.2293 -0.0211  0.2410
10849TIP3    H154038   5.680   2.456  16.913  0.6498 -2.0903  0.7785
10849TIP3    H254039   5.796   2.541  16.868 -0.2404 -0.4370  1.5224
10850TIP3   OH254040   4.842   6.753   2.257 -0.0659  0.5453 -0.1908
10850TIP3    H154041   4.807   6.829   2.303  1.3208 -0.4097  2.6712
10850TIP3    H254042   4.935   6.752   2.280  0.6783 -0.1918 -2.8875
10851TIP3   OH254043   2.181   2.388   4.394 -0.0016 -0.1557 -0.5214
10851TIP3    H154044   2.115   2.452   4.365  1.1454  1.1209 -0.4446
10851TIP3    H254045   2.246   2.387   4.324 -0.1913 -1.5699 -0.7042
10852TIP3   OH254046   4.424   5.198  17.275  0.2913 -0.2197 -0.9368
10852TIP3    H154047   4.438   5.119  17.223 -0.3188 -0.7138 -0.3644
10852TIP3    H254048   4.347   5.179  17.328 -0.8626  1.3710 -1.9590
10853TIP3   OH254049   2.677   6.187  11.869 -0.1340  0.6851  0.6568
10853TIP3    H154050   2.708   6.098  11.856  0.4096  1.0715 -0.8055
10853TIP3    H254051   2.615   6.202  11.798  0.4904  1.7936  0.3235
10854TIP3   OH254052   5.980   0.998   1.254  0.1637 -0.5318  0.5948
10854TIP3    H154053   6.066   0.964   1.276  0.1761 -2.7692 -2.3635
10854TIP3    H254054   5.989   1.030   1.164 -1.8423  0.2565  0.6219
10855TIP3   OH254055   6.129   6.136   2.171  0.8122  0.2013 -0.6265
10855TIP3    H154056   6.186   6.203   2.207 -0.2113  1.1210 -0.6568
10855TIP3    H254057   6.187   6.063   2.151  1.3712 -0.8995  3.9553
10856TIP3   OH254058   3.019   5.989   4.635 -0.0006 -0.1142  0.5437
10856TIP3    H154059   3.012   6.080   4.609 -1.0439  0.0123  1.2178
10856TIP3    H254060   2.953   5.978   4.704 -0.4750 -1.5805 -0.0983
10857TIP3   OH254061   0.642   2.663  15.013  0.2493 -0.1687 -0.0696
10857TIP3    H154062   0.656   2.651  15.107 -3.4330 -0.5266  0.6199
10857TIP3    H254063   0.663   2.578  14.974  2.0917  0.0712  0.3211
10858TIP3   OH254064   6.224   0.321   1.854  0.1676  0.0939 -0.3307
10858TIP3    H154065   6.314   0.338   1.882 -0.3565  2.1912  0.2123
10858TIP3    H254066   6.172   0.389   1.895 -1.3272  0.5313 -2.7298
10859TIP3   OH254067   4.134   1.463   1.577 -0.3365  0.1041  0.0288
10859TIP3    H154068   4.050   1.504   1.554 -0.9139 -0.8764  0.3577
10859TIP3    H254069   4.189   1.536   1.607 -1.0090  0.7785 -0.3526
10860TIP3   OH254070   0.455   1.258  14.579  0.5273  0.2727  0.5662
10860TIP3    H154071   0.378   1.206  14.553  2.0173 -1.5799 -0.4154
10860TIP3    H254072   0.487   1.214  14.658 -0.2300  1.9571  1.8646
10861TIP3   OH254073   4.781   3.332  17.384  0.1654  0.0739  0.7564
10861TIP3    H154074   4.719   3.384  17.334 -1.2994 -3.2987 -1.2567
10861TIP3    H254075   4.733   3.307  17.464  0.1482  0.2098  0.7876
10862TIP3   OH254076   4.417   4.759   4.762 -0.4348  0.0144  0.1287
10862TIP3    H154077   4.394   4.674   4.724 -0.4798 -0.3497  0.9616
10862TIP3    H254078   4.470   4.738   4.839 -1.8827  0.6676  1.3387
10863TIP3   OH254079   5.898   0.091   4.073 -0.1815  0.7653 -0.0719
10863TIP3    H154080   5.807   0.097   4.042 -0.3440 -0.1042  0.2102
10863TIP3    H254081   5.890   0.080   4.167  0.2223  0.6223 -0.0564
10864TIP3   OH254082   1.831   1.860   2.837 -0.6440  0.3358  0.7815
10864TIP3    H154083   1.813   1.769   2.860  3.1572 -0.7555  0.2621
10864TIP3    H254084   1.759   1.885   2.780 -2.4821 -1.8867  1.9522
10865TIP3   OH254085   3.318   0.719   3.025  0.1713  0.1526  0.1511
10865TIP3    H154086   3.262   0.698   2.950 -0.9593  0.9339  0.7628
10865TIP3    H254087   3.327   0.636   3.072  0.5849 -0.2571 -0.6324
10866TIP3   OH254088   3.029   1.404   2.569  0.5686 -0.1539 -0.1749
10866TIP3    H154089   3.100   1.463   2.594  0.7728 -1.1044  1.6942
10866TIP3    H254090   3.042   1.389   2.475  1.4043  1.5523 -0.3655
10867TIP3   OH254091   3.753   0.966   2.095 -0.7936  0.4594  0.2925
10867TIP3    H154092   3.832   0.991   2.143 -0.3559 -0.3923  0.0433
10867TIP3    H254093   3.753   0.870   2.097 -1.9017  0.4395  0.4045
10868TIP3   OH254094   1.208   3.964  14.529 -0.0330  0.2212 -0.4156
10868TIP3    H154095   1.224   3.901  14.599  0.3685 -0.6192 -1.2428
10868TIP3    H254096   1.295   3.985  14.495  0.0502  2.6566  1.0240
10869TIP3   OH254097   2.086   6.318   1.506  0.2419  0.4777 -0.2558
10869TIP3    H154098   2.171   6.284   1.478 -0.4114 -1.4369 -0.1235
10869TIP3    H254099   2.024   6.250   1.480 -1.3944  2.2440 -1.1958
10870TIP3   OH254100   5.198   4.219   1.195  0.3734 -0.9329  0.3914
10870TIP3    H154101   5.230   4.129   1.201  1.5658 -0.4613  1.7812
10870TIP3    H254102   5.277   4.272   1.182 -0.1964 -0.0032  0.5782
10871TIP3   OH254103   2.787   5.136   5.571  0.0710  0.5390  0.0700
10871TIP3    H154104   2.837   5.108   5.493 -0.3691  0.8779 -0.3406
10871TIP3    H254105   2.840   5.105   5.645 -0.0436 -0.7586 -0.3514
10872TIP3   OH254106   1.075   2.343  16.593 -0.0496  0.4202  0.0596
10872TIP3    H154107   1.066   2.285  16.518 -0.1249  0.1331  0.2893
10872TIP3    H254108   1.055   2.288  16.668  3.0278 -0.1840  0.5986
10873TIP3   OH254109   2.856   3.733  12.996 -0.2265 -0.2891 -0.0108
10873TIP3    H154110   2.787   3.748  13.061 -0.1892  1.2217 -0.2808
10873TIP3    H254111   2.857   3.813  12.944  0.4582 -1.0584 -1.2223
10874TIP3   OH254112   1.568   0.094  15.433  0.0415 -0.1504  0.5533
10874TIP3    H154113   1.515   0.077  15.356  0.8657 -0.1746 -0.0311
10874TIP3    H254114   1.528   0.171  15.474 -0.1275  0.1562 -0.1749
10875TIP3   OH254115   1.693   3.384   4.815  0.3458  0.1196 -0.5046
10875TIP3    H154116   1.657   3.472   4.823 -0.3726 -0.2357  0.3913
10875TIP3    H254117   1.628   3.335   4.765  1.1670  0.3017 -1.8195
10876TIP3   OH254118   5.018   3.233   1.110 -0.1444  0.4769 -0.1481
10876TIP3    H154119   5.029   3.190   1.026 -0.9412  0.0100 -0.0248
10876TIP3    H254120   4.928   3.214   1.136  1.0341 -2.4854  2.4796
10877TIP3   OH254121   6.646   1.850   5.891 -0.0827 -0.1009  0.6834
10877TIP3    H154122   6.707   1.811   5.954 -1.8988 -0.2758  2.4617
10877TIP3    H254123   6.650   1.944   5.909  1.2428  0.1548 -0.7460
10878TIP3   OH254124   6.342   5.519   0.594 -0.6289  0.0524 -0.2337
10878TIP3    H154125   6.400   5.479   0.659 -1.1533  0.0015  0.2156
10878TIP3    H254126   6.255   5.486   0.617 -1.2097  2.0528  0.6760
10879TIP3   OH254127   5.513   5.635  15.370 -0.2698  0.5063 -0.8414
10879TIP3    H154128   5.469   5.588  15.441  0.6923  1.2755  0.2918
10879TIP3    H254129   5.535   5.567  15.306 -0.2723 -0.3591  0.0590
10880TIP3   OH254130   3.321   2.697   0.111 -0.2483  0.3304 -0.3197
10880TIP3    H154131   3.378   2.745   0.051 -0.4589 -0.2124 -0.9712
10880TIP3    H254132   3.328   2.606   0.083  0.7678 -0.1812  1.3861
10881TIP3   OH254133   2.323   4.675  11.863  0.1355  0.1988 -0.2427
10881TIP3    H154134   2.365   4.709  11.942 -0.1057 -0.6757  0.2715
10881TIP3    H254135   2.264   4.606  11.894 -0.9967  0.7639 -1.0436
10882TIP3   OH254136   0.007   3.707  13.422  0.0242  0.1865  0.0144
10882TIP3    H154137  -0.009   3.632  13.365 -0.8132  0.6978 -0.4285
10882TIP3    H254138   0.053   3.771  13.367 -0.5634  0.5818 -0.0231
10883TIP3   OH254139   0.362   4.639  12.143  0.0457  0.1127 -0.7215
10883TIP3    H154140   0.434   4.651  12.204 -1.3371  0.7596  0.8562
10883TIP3    H254141   0.400   4.658  12.057  1.8601 -0.1018 -0.0010
10884TIP3   OH254142   2.670   6.234  14.521  0.5429  0.2242 -0.0120
10884TIP3    H154143   2.604   6.296  14.554  0.8142  1.0392 -0.9670
10884TIP3    H254144   2.750   6.258  14.567  0.4150 -0.1061  0.3916
10885TIP3   OH254145   1.960   4.394   1.609  0.0739  0.1867  0.6548
10885TIP3    H154146   1.986   4.307   1.637 -0.2430  0.0283  0.4601
10885TIP3    H254147   1.898   4.379   1.538  1.0742  0.5911 -0.3255
10886TIP3   OH254148   0.593   6.708  12.115 -0.3653  0.2805 -0.1477
10886TIP3    H154149   0.558   6.641  12.174  1.3723 -2.0618 -1.6431
10886TIP3    H254150   0.665   6.748  12.164  0.5144 -1.0532 -0.3171
10887TIP3   OH254151   5.366   4.742   3.425 -0.0920  0.2366  0.0037
10887TIP3    H154152   5.310   4.689   3.369  0.6478 -1.1671  0.5229
10887TIP3    H254153   5.417   4.795   3.365  0.0670 -0.6061 -0.6318
10888TIP3   OH254154   4.818   5.120  13.249 -0.3241 -0.4083  0.3764
10888TIP3    H154155   4.746   5.095  13.307  0.3886 -1.6692  0.7520
10888TIP3    H254156   4.803   5.069  13.169  0.1645 -0.7206  0.4788
10889TIP3   OH254157   2.567   4.087  15.918  0.2385  0.0545  0.6022
10889TIP3    H154158   2.489   4.136  15.942  0.4610  0.6877  0.0754
10889TIP3    H254159   2.575   4.019  15.984  0.2144  1.0449  1.6444
10890TIP3   OH254160   6.745   6.235  12.725 -0.0984  0.0155 -0.5298
10890TIP3    H154161   6.651   6.248  12.710  0.2907  0.7476 -2.8032
10890TIP3    H254162   6.763   6.147  12.689 -0.0447 -0.5082  0.7320
10891TIP3   OH254163   1.398   2.323   0.935 -0.0797 -0.3553  0.0965
10891TIP3    H154164   1.358   2.270   1.003  0.8081 -0.0414  0.8832
10891TIP3    H254165   1.454   2.263   0.886  1.2643 -0.0862  1.2587
10892TIP3   OH254166   0.670   0.447   4.994  0.1420  0.2698  0.5477
10892TIP3    H154167   0.589   0.491   4.967  0.7776  0.2258 -1.6152
10892TIP3    H254168   0.670   0.365   4.944  2.0047  0.7589 -0.3475
10893TIP3   OH254169   4.050   3.996   0.782 -0.3353  0.0542  0.2803
10893TIP3    H154170   4.014   3.973   0.868 -0.3610 -0.9254  0.0225
10893TIP3    H254171   4.114   3.927   0.764  1.6983  1.7302  0.7206
10894TIP3   OH254172   3.730   0.951   4.741 -0.2845  0.3501  0.0727
10894TIP3    H154173   3.685   0.912   4.666 -1.1674  1.2646  0.1044
10894TIP3    H254174   3.766   1.033   4.706 -1.4684  1.2243  0.8523
10895TIP3   OH254175   0.629   0.061   2.844  0.7314 -0.2013  0.6391
10895TIP3    H154176   0.632   0.061   2.748  1.2746 -0.5228  0.6536
10895TIP3    H254177   0.642   0.152   2.868  0.6930 -0.1331  0.4081
10896TIP3   OH254178   3.333   4.606   0.980  0.0535  0.0388 -0.1316
10896TIP3    H154179   3.279   4.530   1.001  1.0269 -0.8207 -0.6508
10896TIP3    H254180   3.423   4.573   0.985  0.7574  1.9660  3.1537
10897TIP3   OH254181   1.454   1.911   5.466  0.1003 -0.2736  0.3241
10897TIP3    H154182   1.367   1.915   5.506 -0.8177  1.3944 -1.6208
10897TIP3    H254183   1.437   1.907   5.372  2.1402 -0.3059 -0.0953
10898TIP3   OH254184   5.048   4.168  16.022 -0.0721  0.2520  0.0091
10898TIP3    H154185   4.977   4.119  16.062 -0.7236  0.3888 -0.9453
10898TIP3    H254186   5.085   4.108  15.957 -1.2626  1.1854 -1.5872
10899TIP3   OH254187   6.332   4.807   3.207  0.6499  0.2694 -0.1944
10899TIP3    H154188   6.379   4.812   3.124 -0.0673 -0.1457 -0.6348
10899TIP3    H254189   6.352   4.719   3.240 -0.9833 -0.5085 -1.1219
10900TIP3   OH254190   3.693   4.144  12.958 -0.4143 -0.2544 -0.2515
10900TIP3    H154191   3.759   4.097  13.008 -0.8680  0.9154  1.5269
10900TIP3    H254192   3.738   4.223  12.928 -0.4367 -0.4554 -0.8316
10901TIP3   OH254193   2.544   2.959  13.370 -0.5203 -0.3762  0.2305
10901TIP3    H154194   2.570   2.972  13.462 -0.4053 -0.8614  0.2704
10901TIP3    H254195   2.622   2.983  13.320 -0.9943  1.1204  0.1879
10902TIP3   OH254196   0.177   3.954  11.240 -0.0822 -0.1424  0.1228
10902TIP3    H154197   0.200   3.956  11.147 -0.4192 -1.2073  0.0101
10902TIP3    H254198   0.195   4.043  11.270 -1.4929  0.6912 -1.3270
10903TIP3   OH254199   0.763   6.470  11.574  0.4735 -0.5152 -0.4306
10903TIP3    H154200   0.766   6.457  11.479  0.2020 -0.0544 -0.5070
10903TIP3    H254201   0.690   6.531  11.587  1.9534  1.2738 -0.1483
10904TIP3   OH254202   2.268   2.176  13.801 -0.2849  0.5097  0.5690
10904TIP3    H154203   2.322   2.151  13.876 -0.2005  1.0319  0.6836
10904TIP3    H254204   2.183   2.195  13.838 -0.1133  1.2302  0.5944
10905TIP3   OH254205   3.797   3.393   1.925  0.2309  0.2514  0.0941
10905TIP3    H154206   3.838   3.364   2.007  0.4801  0.2654 -0.0243
10905TIP3    H254207   3.869   3.431   1.875 -0.1001  1.1429  0.2806
10906TIP3   OH254208   4.744   0.061   2.850 -0.6197 -0.1533 -0.0383
10906TIP3    H154209   4.651   0.070   2.870 -0.6188  3.4116 -0.9034
10906TIP3    H254210   4.746   0.053   2.754 -0.0446  0.4893 -0.0865
10907TIP3   OH254211   5.592   0.178   2.517 -0.2387  0.0300 -0.3116
10907TIP3    H154212   5.624   0.142   2.434  1.7052  0.4011  0.2451
10907TIP3    H254213   5.535   0.109   2.552  0.1881 -0.7887 -1.1940
10908TIP3   OH254214   3.691   2.797   2.504 -0.5032  0.0842  0.0158
10908TIP3    H154215   3.784   2.809   2.526  0.2085 -1.1350 -1.9967
10908TIP3    H254216   3.663   2.724   2.559  0.1502 -0.4446 -0.3329
10909TIP3   OH254217   5.445   0.695   0.659  0.0779 -0.4363 -0.1970
10909TIP3    H154218   5.526   0.687   0.709 -0.0079 -0.7419 -0.1031
10909TIP3    H254219   5.380   0.646   0.710  0.2649 -1.7586 -1.1852
10910TIP3   OH254220   3.800   0.700   5.208 -0.4786 -0.1588  0.2203
10910TIP3    H154221   3.748   0.760   5.154 -0.5631 -0.7194 -0.3290
10910TIP3    H254222   3.845   0.644   5.145  0.5448  0.1045  0.6960
10911TIP3   OH254223   1.272   3.091   5.110  0.5525  0.6642  0.7526
10911TIP3    H154224   1.343   3.151   5.085  2.0957 -1.4112 -0.1690
10911TIP3    H254225   1.312   3.032   5.174 -1.2110  1.1737  2.3981
10912TIP3   OH254226   0.214   4.282  12.706  0.4330  0.3542  0.3806
10912TIP3    H154227   0.268   4.289  12.785  1.2559 -1.7086  0.0826
10912TIP3    H254228   0.129   4.317  12.731  1.2264  1.4813  1.5980
10913TIP3   OH254229   5.646   5.135   2.993 -0.2296 -0.3785  0.5393
10913TIP3    H154230   5.555   5.105   3.001 -0.7963  1.0653 -0.0447
10913TIP3    H254231   5.664   5.131   2.899 -0.3693  1.1471  0.4225
10914TIP3   OH254232   6.565   6.446   1.037  0.2836 -0.2023 -0.5426
10914TIP3    H154233   6.492   6.397   1.000 -0.4454  1.2329 -1.0909
10914TIP3    H254234   6.631   6.448   0.968  2.0074 -3.6341  0.7824
10915TIP3   OH254235   5.731   6.382   5.501 -0.0180  0.4394  0.4079
10915TIP3    H154236   5.791   6.370   5.427 -2.3194 -2.0178 -1.2617
10915TIP3    H254237   5.743   6.303   5.554  0.7138  1.6079  2.0908
10916TIP3   OH254238   1.723   3.226  16.785 -0.2939  0.0736  0.9932
10916TIP3    H154239   1.784   3.295  16.813 -1.2696  0.3992  2.3924
10916TIP3    H254240   1.773   3.175  16.721  0.2148  2.5058 -0.6620
10917TIP3   OH254241   3.405   5.903   3.533  0.3046  0.0293  0.1163
10917TIP3    H154242   3.409   5.922   3.440 -1.3404  0.5691  0.1334
10917TIP3    H254243   3.396   5.808   3.537  0.3549  0.0055 -0.2759
10918TIP3   OH254244   4.951   0.251  17.433  0.0526 -0.1952  0.0249
10918TIP3    H154245   5.028   0.308  17.438  0.5954 -0.9120  0.0272
10918TIP3    H254246   4.953   0.201  17.514 -2.4526  2.2474  1.7721
10919TIP3   OH254247   1.303   4.841   6.399 -0.4374  0.4122 -0.2020
10919TIP3    H154248   1.259   4.757   6.408  0.0904  0.1241 -0.3337
10919TIP3    H254249   1.358   4.833   6.322  0.2487  0.5927  0.2576
10920TIP3   OH254250   5.496   4.468  10.932 -0.8027  0.7621  0.1865
10920TIP3    H154251   5.405   4.441  10.919  0.2119 -2.4057 -1.5940
10920TIP3    H254252   5.534   4.465  10.844  1.6895 -1.0989  1.2114
10921TIP3   OH254253   5.611   6.543   2.278 -0.0619  0.2371 -0.5372
10921TIP3    H154254   5.532   6.515   2.232 -0.1655 -0.5044  0.0722
10921TIP3    H254255   5.627   6.474   2.342  0.9300  0.5138 -0.4721
10922TIP3   OH254256   4.282   4.082  10.427 -0.0740 -0.6034  0.0044
10922TIP3    H154257   4.236   4.139  10.488 -0.3955  0.9954 -1.6526
10922TIP3    H254258   4.213   4.037  10.378  0.1538 -0.5835 -0.3437
10923TIP3   OH254259   3.825   5.360  11.607 -0.5504 -0.1024  0.0329
10923TIP3    H154260   3.898   5.309  11.642 -0.6043 -0.1330  0.1004
10923TIP3    H254261   3.856   5.391  11.522  1.1639  3.3425  1.6933
10924TIP3   OH254262   5.072   5.158   4.509  0.5589  0.0735 -0.0922
10924TIP3    H154263   5.163   5.165   4.482  1.1088  1.6883  1.9670
10924TIP3    H254264   5.060   5.229   4.572 -1.4781 -1.5569  1.4695
10925TIP3   OH254265   1.093   5.587  14.371  0.3169 -0.1132  0.1826
10925TIP3    H154266   1.170   5.641  14.354  1.2242 -2.3892 -4.4757
10925TIP3    H254267   1.128   5.509  14.413  0.2384 -0.3129 -0.1235
10926TIP3   OH254268   6.378   4.265   3.849  0.3786  0.3824  0.0662
10926TIP3    H154269   6.363   4.216   3.768 -0.1658  1.0448 -0.2417
10926TIP3    H254270   6.305   4.327   3.854  0.4983  0.4617  0.9808
10927TIP3   OH254271   3.652   5.066   1.869 -0.1019 -0.7281 -0.4283
10927TIP3    H154272   3.679   5.099   1.955  1.0070  0.4806 -1.1984
10927TIP3    H254273   3.651   4.971   1.879  0.3519 -0.6211  0.8199
10928TIP3   OH254274   2.739   5.303   0.101 -0.4408 -0.0556 -0.0443
10928TIP3    H154275   2.758   5.210   0.115  1.1164  0.2949  0.4184
10928TIP3    H254276   2.739   5.341   0.189  1.6674  0.8203 -0.3646
10929TIP3   OH254277   1.166   1.506  17.004 -0.0786  0.3508  0.9187
10929TIP3    H154278   1.186   1.565  16.932  2.5360 -2.6439 -1.1212
10929TIP3    H254279   1.076   1.476  16.987  0.8464 -1.2062 -2.0342
10930TIP3   OH254280   2.119   4.511   4.855 -0.6788  0.2665 -0.0461
10930TIP3    H154281   2.055   4.479   4.792 -1.2900  1.7544 -0.2128
10930TIP3    H254282   2.093   4.472   4.938 -0.2091 -1.2451 -0.5583
10931TIP3   OH254283   4.987   5.023   0.479  0.1798  0.5409  0.2123
10931TIP3    H154284   4.953   5.033   0.569 -0.5513  2.2319 -0.2097
10931TIP3    H254285   4.930   4.956   0.440 -1.5045  1.9370  0.1292
10932TIP3   OH254286   2.259   5.073  15.800 -0.5736 -0.3721 -0.6267
10932TIP3    H154287   2.199   5.069  15.875 -0.5450 -0.2136 -0.5939
10932TIP3    H254288   2.201   5.080  15.724 -0.6212  2.0333 -0.4673
10933TIP3   OH254289   2.165   2.037  12.678 -0.6790  0.1662  0.1837
10933TIP3    H154290   2.115   2.002  12.605 -2.1054 -0.7856  1.5614
10933TIP3    H254291   2.170   1.965  12.741  0.0037  1.1342  1.2893
10934TIP3   OH254292   2.284   0.727  15.088  0.1088  0.2851 -0.3289
10934TIP3    H154293   2.257   0.688  15.172 -1.5365 -1.7754 -1.7241
10934TIP3    H254294   2.212   0.787  15.066 -0.3078 -0.4840 -1.0767
10935TIP3   OH254295   4.149   4.451  17.421  0.9044 -0.3120 -0.4863
10935TIP3    H154296   4.064   4.407  17.414 -0.0407  1.3363 -0.0222
10935TIP3    H254297   4.132   4.540  17.390  2.1530  0.3997  0.7479
10936TIP3   OH254298   3.940   5.251  12.603 -0.2478 -0.1334 -0.1894
10936TIP3    H154299   3.968   5.339  12.580 -0.9064 -0.1248 -1.0384
10936TIP3    H254300   3.846   5.251  12.588  0.0449 -1.6357 -2.5930
10937TIP3   OH254301   2.433   0.817   6.011 -0.0940 -1.0768 -0.3033
10937TIP3    H154302   2.366   0.752   5.990  0.5931 -1.3519 -1.7593
10937TIP3    H254303   2.513   0.784   5.970  0.3647  0.4832 -0.7338
10938TIP3   OH254304   1.903   4.088  15.825  0.2730 -0.5895 -0.0900
10938TIP3    H154305   1.931   4.147  15.895 -1.3289  0.1949 -0.0532
10938TIP3    H254306   1.957   4.113  15.750 -0.3514  0.9482 -0.0666
10939TIP3   OH254307   4.880   5.837  15.468  0.1930  0.1748  0.1033
10939TIP3    H154308   4.948   5.903  15.478  0.3795 -0.0648  0.4278
10939TIP3    H254309   4.925   5.762  15.428  0.1940 -0.0976  0.6003
10940TIP3   OH254310   0.194   1.514   1.414 -0.2179 -0.3987  0.1922
10940TIP3    H154311   0.287   1.501   1.431 -0.1161 -0.2066 -0.2136
10940TIP3    H254312   0.151   1.479   1.492  0.1446 -1.2751  0.0101
10941TIP3   OH254313   6.134   1.138  16.151  0.1982 -0.0045  0.7560
10941TIP3    H154314   6.207   1.076  16.158 -1.1777 -1.9007 -0.6746
10941TIP3    H254315   6.059   1.090  16.184 -0.6403  1.5461  1.2040
10942TIP3   OH254316   2.260   4.988   3.857  0.3871 -0.0931  0.3229
10942TIP3    H154317   2.354   4.992   3.842  0.3259 -0.5831 -0.2105
10942TIP3    H254318   2.246   4.910   3.910  0.3408  0.3014  0.8985
10943TIP3   OH254319   3.043   5.991  17.400  0.2974 -0.0034  0.1485
10943TIP3    H154320   3.021   6.028  17.314  0.0492 -1.0092 -0.2384
10943TIP3    H254321   3.133   5.959  17.390  0.9502  1.5231  0.8451
10944TIP3   OH254322   6.233   4.257  11.695 -0.4560  0.6315  0.1401
10944TIP3    H154323   6.183   4.180  11.669 -2.0739  1.7696 -0.2126
10944TIP3    H254324   6.271   4.290  11.614 -0.4288  0.6700  0.1681
10945TIP3   OH254325   4.582   0.237   6.202 -0.9169 -0.8359  0.0356
10945TIP3    H154326   4.563   0.285   6.121 -1.0463  0.2340  0.6903
10945TIP3    H254327   4.501   0.243   6.253 -0.9442 -1.7876  0.1212
10946TIP3   OH254328   3.772   5.407  16.133  0.1470  0.2674  0.1822
10946TIP3    H154329   3.724   5.354  16.196  1.8950 -0.0328  1.3438
10946TIP3    H254330   3.731   5.493  16.137 -0.5846 -0.1010  0.7747
10947TIP3   OH254331   1.387   1.833   3.748 -0.2694  0.1235 -0.0562
10947TIP3    H154332   1.457   1.887   3.786  1.5751 -1.4879 -1.0013
10947TIP3    H254333   1.348   1.788   3.823 -0.8752  1.6214  0.5765
10948TIP3   OH254334   0.606   6.507  15.755 -0.2118  0.1285 -0.1178
10948TIP3    H154335   0.587   6.445  15.826  2.4841 -0.7776 -0.0717
10948TIP3    H254336   0.590   6.593  15.794  0.2549 -0.3945  1.2927
10949TIP3   OH254337   6.451   5.666   3.101  0.0894  0.1517 -0.2454
10949TIP3    H154338   6.438   5.747   3.150 -0.6443  0.1675 -0.4497
10949TIP3    H254339   6.497   5.693   3.022 -0.4632  0.4340 -0.4792
10950TIP3   OH254340   4.596   6.123  11.317 -0.4821 -0.2983 -0.0898
10950TIP3    H154341   4.617   6.093  11.228  0.4454  0.4144 -0.1286
10950TIP3    H254342   4.665   6.084  11.371 -2.1507 -2.3867  0.6731
10951TIP3   OH254343   3.311   4.263   0.521  0.4539 -0.3049  0.7579
10951TIP3    H154344   3.291   4.334   0.461 -0.3014 -0.9471  0.2290
10951TIP3    H254345   3.275   4.185   0.479 -1.1757 -0.6109  2.5360
10952TIP3   OH254346   3.817   0.514  15.399  0.3270  0.3408 -0.4222
10952TIP3    H154347   3.742   0.572  15.389  0.7171  0.5698 -2.5601
10952TIP3    H254348   3.815   0.458  15.321  2.5791  0.6332 -0.7869
10953TIP3   OH254349   3.064   3.378   1.601 -0.4671 -0.2050 -0.2194
10953TIP3    H154350   3.042   3.300   1.549 -2.5563  0.8963 -1.0684
10953TIP3    H254351   3.069   3.449   1.537  0.5901  0.5409  0.6533
10954TIP3   OH254352   2.930   4.235   0.981 -0.4647  0.6900  0.4795
10954TIP3    H154353   2.954   4.157   0.930 -0.4659  0.8778  0.1932
10954TIP3    H254354   3.013   4.264   1.020 -0.2029  1.3427 -0.5161
10955TIP3   OH254355   1.122   4.774  14.665  0.3631  0.3957 -0.3710
10955TIP3    H154356   1.212   4.741  14.673  0.0619 -0.6882 -1.1363
10955TIP3    H254357   1.126   4.839  14.595  0.8044  1.4092  0.5666
10956TIP3   OH254358   4.577   1.235   0.106  0.6005 -0.3871 -0.6895
10956TIP3    H154359   4.646   1.272   0.161  0.5095 -0.1424 -0.7390
10956TIP3    H254360   4.508   1.210   0.167  0.1613  0.6162 -0.7545
10957TIP3   OH254361   1.934   2.582   3.295 -0.1803 -0.6230  0.5294
10957TIP3    H154362   1.928   2.570   3.201  0.3977 -1.0448  0.5433
10957TIP3    H254363   2.025   2.605   3.311 -0.3281 -0.3216  0.9618
10958TIP3   OH254364   0.827   0.078  12.244  0.0832  0.8006  0.5874
10958TIP3    H154365   0.749   0.089  12.298 -1.7479 -2.9451 -0.9229
10958TIP3    H254366   0.879   0.011  12.289 -0.8722 -1.4620 -1.4434
10959TIP3   OH254367   1.017   4.528   2.495  0.0753  0.1732  0.1790
10959TIP3    H154368   1.001   4.441   2.532 -0.8194  0.9552  1.7339
10959TIP3    H254369   1.041   4.511   2.404  0.8271 -1.7503  0.6768
10960TIP3   OH254370   4.595   0.563   0.839 -0.6399 -0.3959  0.1367
10960TIP3    H154371   4.515   0.615   0.834 -1.2772 -1.0896  1.9791
10960TIP3    H254372   4.583   0.494   0.773 -0.4996  0.8042 -1.1914
10961TIP3   OH254373   1.787   5.855   1.519  0.4855  0.2280  0.3013
10961TIP3    H154374   1.840   5.917   1.568  0.3167  1.0101 -0.4843
10961TIP3    H254375   1.783   5.777   1.575  0.8241  0.8617  1.2265
10962TIP3   OH254376   5.092   3.557  15.820 -0.4261 -0.2382  0.2044
10962TIP3    H154377   5.029   3.497  15.780 -0.1522 -0.9790  0.8692
10962TIP3    H254378   5.062   3.566  15.911 -0.2827  0.3772  0.1918
10963TIP3   OH254379   2.749   3.398  16.409 -0.7956  1.0419  0.1956
10963TIP3    H154380   2.711   3.478  16.373 -3.2037  0.4006  1.1163
10963TIP3    H254381   2.689   3.373  16.480  1.4503 -0.0329  1.8525
10964TIP3   OH254382   5.303   3.492   3.477  0.0885  0.4574  0.5018
10964TIP3    H154383   5.350   3.497   3.394  0.0999 -0.4329  0.4470
10964TIP3    H254384   5.352   3.550   3.535 -0.0023  1.2015 -0.1448
10965TIP3   OH254385   0.750   1.019  16.677 -0.0230  0.1165  0.6330
10965TIP3    H154386   0.656   1.008  16.664 -0.2570  0.8938  1.5493
10965TIP3    H254387   0.769   1.106  16.641  0.1000  0.4973  1.6034
10966TIP3   OH254388   3.386   4.859  15.215  0.4773  0.2378  0.5739
10966TIP3    H154389   3.469   4.814  15.227  1.4259  1.9260  0.5986
10966TIP3    H254390   3.366   4.848  15.122  1.9269  1.7229  0.0367
10967TIP3   OH254391   3.591   0.079   3.891  0.2864 -0.1613  0.0793
10967TIP3    H154392   3.674   0.123   3.907  0.3765 -0.7072  1.1499
10967TIP3    H254393   3.529   0.121   3.950 -0.4404  0.8813 -1.3660
10968TIP3   OH254394   3.611   6.042   3.006 -0.5595  0.0824 -0.3139
10968TIP3    H154395   3.628   6.012   2.916  0.0845  0.7550 -0.4241
10968TIP3    H254396   3.647   6.131   3.008  0.4375 -0.3282  0.9401
10969TIP3   OH254397   0.183   0.379   3.312 -0.2888  0.0740  0.0415
10969TIP3    H154398   0.108   0.381   3.253  0.2519 -0.8304 -0.7028
10969TIP3    H254399   0.149   0.414   3.395 -1.1449  1.0090 -0.6859
10970TIP3   OH254400   0.825   2.274   3.423  0.1839  0.5049 -0.2444
10970TIP3    H154401   0.917   2.294   3.440  0.9697 -1.9251 -1.1930
10970TIP3    H254402   0.816   2.281   3.328 -0.6902  0.9290 -0.1423
10971TIP3   OH254403   5.741   3.918   0.284 -0.2196  0.7872  0.1896
10971TIP3    H154404   5.754   3.934   0.378 -0.1874  0.9531  0.1581
10971TIP3    H254405   5.705   3.830   0.279  0.4705  0.4877  0.3123
10972TIP3   OH254406   5.101   5.704  16.452  0.0264 -0.1474 -0.2691
10972TIP3    H154407   5.103   5.673  16.542  1.8845  1.3914  0.2846
10972TIP3    H254408   5.182   5.671  16.413  0.3031  0.9877 -0.7044
10973TIP3   OH254409   6.295   6.335   1.906  0.6710 -0.2945  0.2063
10973TIP3    H154410   6.334   6.264   1.956  1.5692  0.3428  0.4255
10973TIP3    H254411   6.258   6.292   1.828 -1.4029 -1.4003  1.6946
10974TIP3   OH254412   2.506   4.437   3.788 -0.2337 -0.5901  0.0918
10974TIP3    H154413   2.517   4.524   3.827 -2.0039  0.0206 -0.6968
10974TIP3    H254414   2.519   4.377   3.861 -1.5704  0.4535  1.2335
10975TIP3   OH254415   1.265   6.025   2.289 -0.2476  0.4701 -0.4665
10975TIP3    H154416   1.194   5.961   2.284  0.4014 -0.2896 -0.1837
10975TIP3    H254417   1.233   6.092   2.350 -0.9034  0.3825 -0.7077
10976TIP3   OH254418   3.695   1.635  14.937 -0.3800 -0.1155  0.1269
10976TIP3    H154419   3.780   1.626  14.978 -0.1290  2.1031  0.2325
10976TIP3    H254420   3.632   1.615  15.006  0.0367 -1.3431  0.1652
10977TIP3   OH254421   4.681   0.268  11.275 -0.0653 -0.0105  0.3354
10977TIP3    H154422   4.695   0.320  11.354 -1.3736  0.1921  0.4623
10977TIP3    H254423   4.616   0.203  11.301 -0.3814 -0.0474 -0.5184
10978TIP3   OH254424   2.661   2.634   3.305 -0.0487 -0.0997 -0.0892
10978TIP3    H154425   2.668   2.549   3.349  0.9942  0.0544  0.0753
10978TIP3    H254426   2.735   2.684   3.339  0.4887  0.2054 -1.6587
10979TIP3   OH254427   2.817   5.327  16.052 -0.0599  0.0730  0.3177
10979TIP3    H154428   2.909   5.332  16.076  0.4649 -1.8176 -1.0365
10979TIP3    H254429   2.778   5.268  16.117  0.3993 -1.5178 -0.7756
10980TIP3   OH254430   1.494   0.574  17.024  0.2287  0.4785 -0.3488
10980TIP3    H154431   1.510   0.611  17.110  0.4219 -1.0534  0.3104
10980TIP3    H254432   1.570   0.518  17.007 -0.7919 -0.9147 -0.5488
10981TIP3   OH254433   6.344   4.260   3.255  0.3509 -0.6085 -0.7435
10981TIP3    H154434   6.420   4.238   3.201 -0.2566 -2.1719 -1.0055
10981TIP3    H254435   6.288   4.183   3.251 -0.2716 -0.3235  1.1714
10982TIP3   OH254436   1.071   4.194  16.859  0.1386  0.1997  0.1191
10982TIP3    H154437   1.163   4.206  16.883  0.4273  0.8160 -1.2295
10982TIP3    H254438   1.028   4.273  16.892  0.7031  1.5067 -2.1125
10983TIP3   OH254439   0.541   4.521   6.158  0.8237  0.1998  0.1336
10983TIP3    H154440   0.471   4.498   6.219 -1.5129 -1.1629 -2.7893
10983TIP3    H254441   0.617   4.472   6.189 -0.3334 -0.6708  1.7615
10984TIP3   OH254442   2.897   5.671  12.352 -1.2870  0.3801  0.0902
10984TIP3    H154443   2.839   5.741  12.382  0.8395  1.4930  1.9137
10984TIP3    H254444   2.900   5.682  12.257 -1.6520  2.2698  0.2481
10985TIP3   OH254445   3.543   3.603  16.167 -0.4246  0.5563 -0.0078
10985TIP3    H154446   3.526   3.689  16.204  0.2508  1.2963 -1.3590
10985TIP3    H254447   3.513   3.609  16.076 -1.9084 -1.1598  0.3123
10986TIP3   OH254448   1.003   3.260  14.461 -0.2008  0.2561  0.2347
10986TIP3    H154449   0.965   3.274  14.374 -1.9395 -1.0491  0.7302
10986TIP3    H254450   1.006   3.348  14.499 -0.8503  0.6517 -0.5825
10987TIP3   OH254451   1.160   2.987   0.163 -0.3970  0.2288  0.0269
10987TIP3    H154452   1.112   2.963   0.243 -0.0515 -1.7033 -0.3014
10987TIP3    H254453   1.094   2.983   0.094 -0.3009  0.1191 -0.0569
10988TIP3   OH254454   2.230   0.471  14.623  0.0057 -0.0952 -0.8016
10988TIP3    H154455   2.152   0.523  14.603  0.0964  0.8657  1.1834
10988TIP3    H254456   2.289   0.531  14.667 -0.0881 -1.8946  2.0546
10989TIP3   OH254457   3.020   1.395   2.241  0.3101 -0.1998 -0.6651
10989TIP3    H154458   2.979   1.317   2.203  0.5856 -0.4545 -0.4412
10989TIP3    H254459   2.946   1.448   2.271  0.1453 -1.8676  2.1701
10990TIP3   OH254460   6.241   2.973  14.063 -0.2595  0.1981 -0.1996
10990TIP3    H154461   6.174   3.038  14.083  0.1194  0.2086  1.0877
10990TIP3    H254462   6.202   2.889  14.088  0.7225  0.3444  2.0037
10991TIP3   OH254463   2.075   4.220  11.461  0.1765 -0.3752  0.2143
10991TIP3    H154464   2.086   4.297  11.405 -0.1432 -1.1755 -1.0048
10991TIP3    H254465   2.134   4.155  11.422 -0.6329 -1.1969  0.3461
10992TIP3   OH254466   6.271   4.973  14.331  0.0634  0.0745 -0.5082
10992TIP3    H154467   6.335   4.915  14.372  0.3411  0.0362 -0.9828
10992TIP3    H254468   6.187   4.927  14.341 -0.1015  0.6738  1.1713
10993TIP3   OH254469   4.580   3.407   2.990  0.5082 -0.2876 -0.2612
10993TIP3    H154470   4.519   3.334   2.978  1.2020 -1.1752  1.3232
10993TIP3    H254471   4.530   3.471   3.041  0.8377 -0.9753  0.9596
10994TIP3   OH254472   5.353   5.212   4.549  0.1440  0.7336  0.1180
10994TIP3    H154473   5.422   5.205   4.615 -0.0754  0.0805  0.2905
10994TIP3    H254474   5.326   5.304   4.552  1.6074  1.2219 -0.5820
10995TIP3   OH254475   1.041   4.146  11.520 -0.3097  0.7637  0.1086
10995TIP3    H154476   1.135   4.160  11.508 -0.3061  0.3867 -0.3363
10995TIP3    H254477   1.006   4.233  11.536  0.3038  0.7680  1.6995
10996TIP3   OH254478   6.266   3.351   5.156  0.0034 -0.4075  0.1897
10996TIP3    H154479   6.216   3.433   5.159 -1.5094 -1.2269 -1.3551
10996TIP3    H254480   6.202   3.285   5.133  1.1889 -2.0818  1.4572
10997TIP3   OH254481   4.592   4.453   5.540 -0.0447  0.5395  0.0693
10997TIP3    H154482   4.622   4.430   5.628  0.1261  0.9833  0.1304
10997TIP3    H254483   4.659   4.513   5.507  0.5572 -0.5996 -0.8547
10998TIP3   OH254484   4.324   1.061   5.687 -0.2519  0.0359  0.4470
10998TIP3    H154485   4.271   1.118   5.631 -0.8399  0.5199  1.4709
10998TIP3    H254486   4.410   1.060   5.645 -1.0147 -0.6760 -1.1762
10999TIP3   OH254487   1.790   5.376   0.133  0.8091  0.3190 -0.2878
10999TIP3    H154488   1.880   5.403   0.116  0.6254  0.3618 -1.2662
10999TIP3    H254489   1.737   5.436   0.081 -0.0121  2.3710  2.6264
11000TIP3   OH254490   1.804   2.364   0.898 -0.2588  0.4798 -0.0368
11000TIP3    H154491   1.817   2.449   0.940  1.0844  0.6398 -0.7077
11000TIP3    H254492   1.720   2.372   0.852  0.8386  2.2642 -1.9203
11001TIP3   OH254493   6.088   6.162   5.229 -0.0631  0.5002 -0.3249
11001TIP3    H154494   6.075   6.088   5.169  0.1588 -0.5441  0.8637
11001TIP3    H254495   6.181   6.182   5.223 -0.5446  2.4212 -2.5551
11002TIP3   OH254496   5.776   3.399   4.306  0.3395  0.3431 -0.3188
11002TIP3    H154497   5.691   3.410   4.265 -1.0791  1.2214  2.5838
11002TIP3    H254498   5.794   3.305   4.299  0.0333  0.4011 -2.5018
11003TIP3   OH254499   4.389   1.653  16.332 -0.2177  0.3049  0.2388
11003TIP3    H154500   4.385   1.578  16.392 -1.7973  0.7392  0.7133
11003TIP3    H254501   4.366   1.728  16.387 -0.2971  0.9077 -0.6123
11004TIP3   OH254502   0.989   6.205  12.531 -0.8149  0.0724  0.0333
11004TIP3    H154503   0.961   6.287  12.491 -1.5599  0.1103  0.6238
11004TIP3    H254504   0.966   6.137  12.467 -0.6693  0.2679 -0.2290
11005TIP3   OH254505   3.256   4.818   0.799  0.2836  0.1403  0.0996
11005TIP3    H154506   3.289   4.898   0.841 -0.6973  0.5565  0.1272
11005TIP3    H254507   3.298   4.746   0.847 -0.9828  0.5804  2.0084
11006TIP3   OH254508   1.443   2.306  17.163  0.3984 -0.0506 -0.0956
11006TIP3    H154509   1.446   2.327  17.070  0.8791  1.7110  0.2705
11006TIP3    H254510   1.389   2.376  17.201 -0.0582 -0.9249  0.9067
11007TIP3   OH254511   3.618   5.056  15.586  0.1062  0.0607 -0.2140
11007TIP3    H154512   3.590   4.967  15.607 -0.4001 -0.1038 -1.5355
11007TIP3    H254513   3.659   5.050  15.500  0.7689  0.9794  0.0145
11008TIP3   OH254514   4.339   0.005  15.145  0.6393 -0.4077  0.2624
11008TIP3    H154515   4.424  -0.038  15.155  0.4302 -1.1816 -1.1335
11008TIP3    H254516   4.354   0.074  15.081  0.9132  1.5501  2.3066
11009TIP3   OH254517   4.922   4.674  12.271 -0.2666 -0.1309 -0.3652
11009TIP3    H154518   4.965   4.611  12.330 -2.5806 -1.5341 -0.0640
11009TIP3    H254519   4.965   4.660  12.187  1.9274  0.7163  0.5370
11010TIP3   OH254520   3.745   4.552   3.595  0.1303  0.2209  0.1922
11010TIP3    H154521   3.829   4.508   3.580 -0.8251 -1.5618 -0.2350
11010TIP3    H254522   3.707   4.505   3.669 -0.7634  0.5624 -0.0397
11011TIP3   OH254523   6.413   3.588   1.944  0.2457  0.2845  0.0476
11011TIP3    H154524   6.481   3.614   1.882 -0.1015 -0.0992 -0.5001
11011TIP3    H254525   6.431   3.639   2.023  0.4396  1.0887 -0.5135
11012TIP3   OH254526   5.659   0.220  15.257 -0.0258  0.1525 -0.0715
11012TIP3    H154527   5.728   0.175  15.209  0.1647  1.8025 -1.4243
11012TIP3    H254528   5.706   0.281  15.314 -0.3376 -0.1327  0.5054
11013TIP3   OH254529   3.516   1.138  16.533 -0.1777 -0.2757 -0.2036
11013TIP3    H154530   3.558   1.102  16.611  1.6747  0.4274 -0.8190
11013TIP3    H254531   3.573   1.112  16.461 -0.7061  0.9031 -1.0747
11014TIP3   OH254532   3.737   3.258   5.635  0.4842 -0.5483  0.1398
11014TIP3    H154533   3.721   3.314   5.558 -1.0163 -2.0061 -0.6728
11014TIP3    H254534   3.830   3.237   5.631  0.6748  0.3784 -0.5834
11015TIP3   OH254535   4.642   4.553  11.650  0.4035  0.2613  0.2614
11015TIP3    H154536   4.585   4.479  11.630 -0.6556  1.3455 -0.9152
11015TIP3    H254537   4.725   4.531  11.606 -0.6861  0.8368 -2.2766
11016TIP3   OH254538   2.593   3.920  13.591 -0.2160 -0.0854  0.0771
11016TIP3    H154539   2.558   3.872  13.516 -3.7542  2.0548  0.0974
11016TIP3    H254540   2.658   3.980  13.554  1.2884 -1.9729 -0.5109
11017TIP3   OH254541   1.031   0.360   1.000 -0.6329  0.2940 -0.2409
11017TIP3    H154542   1.048   0.323   0.914 -0.2785 -2.6981  0.9623
11017TIP3    H254543   1.116   0.359   1.044 -1.1534 -0.2316  0.8068
11018TIP3   OH254544   0.837   5.944  16.356 -0.1845 -0.1558 -0.6231
11018TIP3    H154545   0.745   5.966  16.336 -0.8148 -0.7234  1.3955
11018TIP3    H254546   0.836   5.850  16.370  0.2805  0.1092  1.3600
11019TIP3   OH254547   6.751   0.026  13.486 -0.4372  0.5237  0.0049
11019TIP3    H154548   6.656   0.035  13.493 -0.7168 -0.8277 -1.4442
11019TIP3    H254549   6.765  -0.010  13.398  1.2409 -1.5019  1.0073
11020TIP3   OH254550   2.591   0.587  14.777 -0.1317 -0.2344 -0.3396
11020TIP3    H154551   2.592   0.494  14.755  0.1793 -0.8623  2.0622
11020TIP3    H254552   2.502   0.604  14.807 -0.0392  0.1137 -0.2554
11021TIP3   OH254553   1.297   5.166  13.135 -0.1726  0.0417 -0.9064
11021TIP3    H154554   1.272   5.098  13.072  0.1221  0.3465 -1.3527
11021TIP3    H254555   1.289   5.248  13.086 -0.7302  0.3534 -0.3096
11022TIP3   OH254556   3.937   4.363   0.341 -0.0608  0.2319  0.1515
11022TIP3    H154557   3.986   4.407   0.410 -1.5256  1.2266  0.6243
11022TIP3    H254558   3.905   4.283   0.381 -0.8985  0.8010  0.6607
11023TIP3   OH254559   0.640   1.822   3.168 -0.3735 -0.4492 -0.0421
11023TIP3    H154560   0.724   1.785   3.140  0.7545  0.5708  1.8657
11023TIP3    H254561   0.612   1.875   3.093 -0.9186 -3.1913 -1.9445
11024TIP3   OH254562   1.351   6.030  14.141  0.7989  0.2854 -0.3696
11024TIP3    H154563   1.316   6.078  14.066  1.0394  0.4121 -0.4014
11024TIP3    H254564   1.300   6.062  14.216  0.3369 -0.0804 -0.5264
11025TIP3   OH254565   1.241   6.588   4.874 -0.1711  0.1463  0.4329
11025TIP3    H154566   1.199   6.607   4.790 -0.8320 -1.1717  0.4400
11025TIP3    H254567   1.271   6.673   4.906  0.9631  0.5684 -1.5718
11026TIP3   OH254568   4.142   0.644   4.221 -0.3722 -0.8444 -0.0747
11026TIP3    H154569   4.096   0.638   4.304 -1.1971 -2.2114 -0.6090
11026TIP3    H254570   4.211   0.578   4.227 -0.0783 -0.5610 -0.2774
11027TIP3   OH254571   6.307   0.609  15.070  0.8626  0.1567  0.1374
11027TIP3    H154572   6.346   0.650  14.993  0.4588  0.2375 -0.0224
11027TIP3    H254573   6.222   0.577  15.041 -0.4102  2.3970  1.1666
11028TIP3   OH254574   1.605   5.255  14.321 -0.0507 -0.7999 -0.6237
11028TIP3    H154575   1.689   5.266  14.364  0.8579  0.1843 -2.5076
11028TIP3    H254576   1.622   5.196  14.248 -1.8520 -3.5759  1.0364
11029TIP3   OH254577   6.625   4.262  11.619  0.2610 -0.2002 -0.2408
11029TIP3    H154578   6.600   4.354  11.611  0.3738  0.0233  1.4639
11029TIP3    H254579   6.711   4.256  11.578  0.2015  0.4326 -0.4578
11030TIP3   OH254580   0.886   5.201  11.306  0.9266 -0.3638 -0.1215
11030TIP3    H154581   0.800   5.237  11.284  1.0008  0.5174  0.9395
11030TIP3    H254582   0.902   5.134  11.240 -1.0700 -1.3384  0.2985
11031TIP3   OH254583   1.940   4.502   0.447  0.3337  0.1209  0.5517
11031TIP3    H154584   1.994   4.501   0.526  1.5910  1.2411 -0.2431
11031TIP3    H254585   2.004   4.510   0.376 -0.7048 -1.7030 -0.6528
11032TIP3   OH254586   6.196   5.034  17.023  0.0482  0.1031 -0.2018
11032TIP3    H154587   6.123   5.025  17.084  2.1046 -1.0932  2.2696
11032TIP3    H254588   6.200   4.949  16.978  0.6062 -0.3011  0.5739
11033TIP3   OH254589   1.394   0.214   3.675 -0.0618 -1.1464 -0.1876
11033TIP3    H154590   1.312   0.171   3.697 -1.4402  2.4387  2.6072
11033TIP3    H254591   1.370   0.286   3.617  0.3872  1.7858  2.9516
11034TIP3   OH254592   1.928   6.647   5.587  0.1278 -0.7701 -0.3290
11034TIP3    H154593   1.933   6.731   5.631 -1.0330  0.7290 -2.8107
11034TIP3    H254594   1.957   6.583   5.652 -1.1631  1.2543  2.3856
11035TIP3   OH254595   5.446   2.804   4.465 -0.3487 -0.1695 -0.0389
11035TIP3    H154596   5.431   2.742   4.393  0.3378  0.6069 -0.8847
11035TIP3    H254597   5.439   2.751   4.544 -0.4736 -1.1838 -0.7036
11036TIP3   OH254598   3.748   1.077   0.189  0.2034 -0.8118 -0.3666
11036TIP3    H154599   3.741   1.172   0.175 -1.0055 -1.0417 -1.5859
11036TIP3    H254600   3.736   1.066   0.284  2.2623  0.3674  0.0913
11037TIP3   OH254601   3.264   1.380   0.391 -0.1766 -0.0315 -0.3614
11037TIP3    H154602   3.299   1.466   0.368 -0.5918  0.3481  0.3971
11037TIP3    H254603   3.179   1.398   0.432  0.5987 -0.6206  1.6679
11038TIP3   OH254604   4.761   0.387  14.823 -0.3587  0.3165 -0.0110
11038TIP3    H154605   4.806   0.308  14.792 -1.2473  0.2024 -1.0906
11038TIP3    H254606   4.754   0.376  14.917  1.5352  0.1760  0.1562
11039TIP3   OH254607   5.302   6.056  12.804  0.4425  0.8021 -0.4091
11039TIP3    H154608   5.248   5.978  12.791  2.1399 -0.5840  0.4397
11039TIP3    H254609   5.391   6.027  12.782  1.4048  1.9182  1.7209
11040TIP3   OH254610   4.562   6.393   4.111  0.5068  0.2249 -0.5182
11040TIP3    H154611   4.638   6.351   4.152  0.7475  0.7941 -0.3601
11040TIP3    H254612   4.494   6.389   4.178  1.1208  1.8095  0.2694
11041TIP3   OH254613   0.388   6.339  12.672 -0.2486  0.0664  0.0417
11041TIP3    H154614   0.313   6.303  12.719 -1.1317  0.7980 -0.7636
11041TIP3    H254615   0.398   6.282  12.595 -0.5054  0.4488 -0.2806
11042TIP3   OH254616   1.068   0.869  14.010 -0.0131 -0.3820 -0.5262
11042TIP3    H154617   1.146   0.878  13.955  0.1365  1.0428 -0.1241
11042TIP3    H254618   1.085   0.792  14.065  1.1025 -0.0971 -0.4567
11043TIP3   OH254619   0.778   6.046  15.453 -0.6854  0.2153 -0.4364
11043TIP3    H154620   0.837   6.048  15.528 -0.3195  1.4833 -0.7294
11043TIP3    H254621   0.690   6.053  15.491 -0.5846 -0.4485 -0.0659
11044TIP3   OH254622   6.582   5.523  16.915  0.0850  0.5221  0.3862
11044TIP3    H154623   6.531   5.593  16.873 -0.8014  1.3558  2.6575
11044TIP3    H254624   6.522   5.448  16.915  1.0878 -0.3929 -2.1801
11045TIP3   OH254625   4.884   5.942   5.848  0.4671 -0.4689 -0.0733
11045TIP3    H154626   4.851   5.894   5.924 -0.8165 -0.1757 -0.4279
11045TIP3    H254627   4.899   6.031   5.881 -0.9551 -0.1009 -0.3462
11046TIP3   OH254628   4.878   0.439   3.607  0.3522 -0.3139  0.0546
11046TIP3    H154629   4.784   0.422   3.611  0.0624  1.1780  0.3255
11046TIP3    H254630   4.885   0.524   3.562  1.6225 -0.7577 -0.6612
11047TIP3   OH254631   3.234   0.843  14.336 -1.1299 -0.4486 -0.4887
11047TIP3    H154632   3.209   0.920  14.387 -0.7193  0.5441 -1.7410
11047TIP3    H254633   3.267   0.781  14.402 -0.6501  0.7668  0.4530
11048TIP3   OH254634   5.971   2.141   6.037 -0.7549  0.0857  0.3275
11048TIP3    H154635   6.008   2.056   6.060  3.4372  1.4342 -0.6760
11048TIP3    H254636   5.975   2.144   5.941  1.9018  2.3403  0.3969
11049TIP3   OH254637   1.197   0.024  11.597 -0.0408  0.1958 -0.0694
11049TIP3    H154638   1.170   0.031  11.688 -0.0161 -1.7709  0.1326
11049TIP3    H254639   1.119  -0.006  11.551  0.7449 -2.0419 -0.0829
11050TIP3   OH254640   1.347   1.107   1.425  0.3136 -0.2495 -0.5386
11050TIP3    H154641   1.375   1.016   1.434 -0.7543 -0.5548 -0.0792
11050TIP3    H254642   1.253   1.101   1.407 -0.0488  0.7881  0.8261
11051TIP3   OH254643   4.524   3.027  16.548 -0.4569  0.5270  0.9347
11051TIP3    H154644   4.592   2.972  16.588  2.4917  3.1859 -0.0170
11051TIP3    H254645   4.529   3.109  16.596 -2.2334  1.2069  0.0420
11052TIP3   OH254646   3.629   5.535  13.290 -0.2885  0.1404  0.1777
11052TIP3    H154647   3.698   5.505  13.232  0.3658  0.7862  0.6034
11052TIP3    H254648   3.556   5.475  13.274  0.6119 -1.0024  0.2545
11053TIP3   OH254649   6.480   4.028  16.161 -0.1893 -0.1698 -0.0167
11053TIP3    H154650   6.426   4.016  16.083 -0.0682  0.1105 -0.1434
11053TIP3    H254651   6.523   3.944  16.174 -0.3477 -0.2709 -0.1506
11054TIP3   OH254652   2.126   4.269   0.956  0.3146  0.6006 -0.2227
11054TIP3    H154653   2.178   4.292   1.033  1.1397  0.3129 -0.6832
11054TIP3    H254654   2.125   4.348   0.903  0.6120  0.4916 -0.3934
11055TIP3   OH254655   1.376   1.836   3.473 -0.7457  0.4298  0.1982
11055TIP3    H154656   1.399   1.754   3.429 -0.6437  0.8321 -0.5303
11055TIP3    H254657   1.369   1.813   3.565 -2.2623 -0.7340 -0.1574
11056TIP3   OH254658   1.480   6.111   2.961 -0.0579  0.2902 -0.0941
11056TIP3    H154659   1.538   6.170   2.913 -1.3089  1.0092 -0.7775
11056TIP3    H254660   1.464   6.156   3.044  1.4301 -0.5551  0.6740
11057TIP3   OH254661   0.108   4.925   0.040  0.2492  0.0214 -0.1526
11057TIP3    H154662   0.078   4.895   0.126  1.6936 -1.5895 -0.1491
11057TIP3    H254663   0.033   4.911  -0.017  0.2394 -1.9291  0.2521
11058TIP3   OH254664   1.883   1.858  16.322 -0.3641 -0.4966 -0.9014
11058TIP3    H154665   1.858   1.768  16.299  0.2507 -0.9249  0.0265
11058TIP3    H254666   1.845   1.912  16.253 -0.0039 -1.5513 -1.9554
11059TIP3   OH254667   2.520   3.692   3.942  0.0684  0.0177 -0.2537
11059TIP3    H154668   2.505   3.603   3.973  2.4327  0.1844  1.6579
11059TIP3    H254669   2.457   3.746   3.990  1.2076 -0.2050  1.5676
11060TIP3   OH254670   0.850   3.167   4.291 -0.3210 -0.8157 -0.5755
11060TIP3    H154671   0.767   3.137   4.254 -0.4610  0.5862 -1.5208
11060TIP3    H254672   0.896   3.087   4.315 -1.2889 -1.6990 -1.5169
11061TIP3   OH254673   6.049   4.380   1.843  0.1566  0.0358 -0.4698
11061TIP3    H154674   6.087   4.467   1.860  0.5744  0.0369 -1.3365
11061TIP3    H254675   6.072   4.328   1.920  2.1473 -0.0305 -1.0662
11062TIP3   OH254676   1.920   2.941   3.482 -0.0207 -0.2509 -0.1066
11062TIP3    H154677   1.834   2.911   3.512  0.0218  0.6548  0.9616
11062TIP3    H254678   1.907   2.963   3.390 -1.3321  1.3159  0.4152
11063TIP3   OH254679   1.687   6.369   0.200  0.1246  0.2746 -0.2894
11063TIP3    H154680   1.705   6.277   0.219  0.8955  0.6607  0.9723
11063TIP3    H254681   1.597   6.369   0.166 -0.2689 -0.8182  0.6759
11064TIP3   OH254682   4.933   3.707  11.464  0.1000  0.3452  0.0611
11064TIP3    H154683   4.954   3.800  11.456  0.4005  0.3335  0.7139
11064TIP3    H254684   4.852   3.705  11.515  0.7169  0.1981  1.0471
11065TIP3   OH254685   4.114   6.359  16.243  0.0372  0.0152 -0.3033
11065TIP3    H154686   4.056   6.434  16.228 -1.0891 -0.6099  0.7755
11065TIP3    H254687   4.054   6.285  16.256  1.1112 -0.8474 -0.1792
11066TIP3   OH254688   6.251   1.786  13.390 -0.0789  0.4784  0.3935
11066TIP3    H154689   6.252   1.768  13.296  1.3282 -0.2023  0.5188
11066TIP3    H254690   6.309   1.862  13.401 -1.5260  1.6061  0.5454
11067TIP3   OH254691   4.245   2.484   5.841 -0.3681 -0.5619  0.4385
11067TIP3    H154692   4.331   2.446   5.859 -0.0157  0.6122  1.3053
11067TIP3    H254693   4.190   2.454   5.913 -0.2358  0.0806  0.8135
11068TIP3   OH254694   5.967   4.910   1.629 -0.4925  0.1581  0.5495
11068TIP3    H154695   6.018   4.931   1.707 -0.7197  1.5535  0.3422
11068TIP3    H254696   5.940   4.819   1.642 -0.1257  0.2210  1.8681
11069TIP3   OH254697   6.050   0.479  12.954 -0.1777  0.0566  0.0288
11069TIP3    H154698   6.137   0.441  12.954  0.1102  0.6929 -0.2306
11069TIP3    H254699   5.995   0.415  12.909 -0.3754 -1.4790  2.2862
11070TIP3   OH254700   4.670   2.998   3.752  0.0574 -0.2092 -0.0429
11070TIP3    H154701   4.706   3.060   3.816  2.0215 -0.5852 -0.7349
11070TIP3    H254702   4.720   2.918   3.766 -0.7424 -0.8674 -0.8491
11071TIP3   OH254703   4.561   5.620  10.706 -0.4469 -0.3314  0.5395
11071TIP3    H154704   4.547   5.714  10.720  0.6961  0.4617 -2.7528
11071TIP3    H254705   4.656   5.610  10.704 -0.5330 -1.1348 -1.1201
11072TIP3   OH254706   1.186   5.963  16.161 -0.0271 -0.2147 -0.1510
11072TIP3    H154707   1.250   6.032  16.139 -0.4623  0.8807  1.7699
11072TIP3    H254708   1.117   6.009  16.208 -2.0608 -1.4581 -1.7599
11073TIP3   OH254709   3.865   3.826  16.056 -0.3217 -0.0023 -0.0127
11073TIP3    H154710   3.881   3.734  16.079  0.8122  0.8091  2.8864
11073TIP3    H254711   3.770   3.832  16.045 -0.4114 -1.5118 -0.2629
11074TIP3   OH254712   5.532   6.379   1.949  0.0335 -0.4920 -0.3258
11074TIP3    H154713   5.592   6.340   2.013 -0.0869 -1.7386 -0.9252
11074TIP3    H254714   5.450   6.393   1.998  0.2272 -0.5723  0.0229
11075TIP3   OH254715   3.607   1.216   3.372 -0.3884 -0.0963 -0.1887
11075TIP3    H154716   3.668   1.233   3.300 -0.9432  1.4169 -0.3465
11075TIP3    H254717   3.663   1.196   3.446  0.2644  0.0315 -0.6341
11076TIP3   OH254718   3.801   1.201   3.187  0.3574  0.1560  0.0121
11076TIP3    H154719   3.882   1.196   3.237 -1.6726 -1.5960  3.5439
11076TIP3    H254720   3.797   1.118   3.139 -0.3805 -0.9381  1.8474
11077TIP3   OH254721   1.526   4.737  12.442  0.0751  0.2212  0.4612
11077TIP3    H154722   1.532   4.645  12.420 -0.3449  0.7441 -2.2065
11077TIP3    H254723   1.432   4.755  12.443  0.1504  0.5991  1.0759
11078TIP3   OH254724   5.118   5.970   2.212  0.0275  0.7697 -0.1886
11078TIP3    H154725   5.139   5.894   2.157 -0.3670  0.7272 -0.2861
11078TIP3    H254726   5.128   5.937   2.301 -2.1545 -0.0219 -0.1820
11079TIP3   OH254727   2.531   2.146  16.639  0.1789  0.5499  0.4033
11079TIP3    H154728   2.471   2.072  16.625  0.7328  0.0567  0.6176
11079TIP3    H254729   2.553   2.141  16.732  0.3882  0.8542  0.3701
11080TIP3   OH254730   0.914   0.822   5.755  0.5845 -0.0403  0.3586
11080TIP3    H154731   0.961   0.786   5.830  0.4302 -0.2772  0.3428
11080TIP3    H254732   0.908   0.750   5.693  0.4756  0.0778  0.2300
11081TIP3   OH254733   3.325   3.657   1.585 -0.2434 -0.5286  0.1169
11081TIP3    H154734   3.282   3.653   1.500 -0.7465 -1.2000  0.3955
11081TIP3    H254735   3.371   3.573   1.593  0.5352 -0.1176  0.1397
11082TIP3   OH254736   3.501   0.954   5.090  0.6842 -0.6064  1.1606
11082TIP3    H154737   3.443   0.996   5.153 -0.5953  0.6002 -0.6949
11082TIP3    H254738   3.442   0.903   5.033  0.7828  2.9119 -2.5776
11083TIP3   OH254739   3.402   3.308   5.715 -0.0504 -0.6281  0.2051
11083TIP3    H154740   3.314   3.291   5.748  0.5797  0.4893  2.7815
11083TIP3    H254741   3.453   3.231   5.741 -0.1185 -1.0346 -0.8098
11084TIP3   OH254742   4.856   1.436  13.379 -0.4151 -0.2832  0.3488
11084TIP3    H154743   4.777   1.483  13.353  0.8453 -0.0810 -3.8771
11084TIP3    H254744   4.849   1.352  13.335  2.0035  0.0781 -0.9125
11085TIP3   OH254745   4.187   5.600  11.240  0.0580 -0.8558 -0.5713
11085TIP3    H154746   4.092   5.590  11.238 -0.1895  0.5702  1.1611
11085TIP3    H254747   4.201   5.694  11.246  1.3392 -1.0901  3.1659
11086TIP3   OH254748   6.595   2.204  16.017 -1.1247 -0.5618 -0.1960
11086TIP3    H154749   6.533   2.178  16.084  0.1479 -1.0235  0.8417
11086TIP3    H254750   6.644   2.277  16.056 -0.1924 -1.0043 -0.4895
11087TIP3   OH254751   3.310   0.757  16.275  0.8094 -0.3287 -0.4541
11087TIP3    H154752   3.351   0.818  16.213  0.1560  1.1164  0.4985
11087TIP3    H254753   3.377   0.743  16.342  0.7132 -0.1063 -0.3114
11088TIP3   OH254754   4.056   1.376  11.773 -0.0299  0.7393  0.3024
11088TIP3    H154755   3.975   1.340  11.809  0.3904 -0.3819  0.1740
11088TIP3    H254756   4.103   1.412  11.849 -0.2266  0.5505  0.5124
11089TIP3   OH254757   6.316   4.647   2.085 -0.7756 -0.2269  0.4904
11089TIP3    H154758   6.245   4.638   2.149  0.1806  0.7349  1.7370
11089TIP3    H254759   6.277   4.695   2.013 -1.7267 -0.8314  0.5721
11090TIP3   OH254760   3.391   1.571  15.902  0.3599  0.3271 -0.1002
11090TIP3    H154761   3.400   1.584  15.996  1.3423  0.4508 -0.2050
11090TIP3    H254762   3.441   1.492  15.883  0.1333  0.2795 -0.5191
11091TIP3   OH254763   6.618   5.309   0.145  0.0124 -1.0025 -0.5900
11091TIP3    H154764   6.700   5.260   0.147  1.2003  0.6217  4.4603
11091TIP3    H254765   6.641   5.392   0.104  1.0151 -0.5307  0.8461
11092TIP3   OH254766   0.644   5.926   0.776  0.0103 -0.0075  0.2736
11092TIP3    H154767   0.575   5.981   0.813 -0.8170 -0.7183 -0.1587
11092TIP3    H254768   0.598   5.868   0.715  1.0601 -0.1889 -0.3716
11093TIP3   OH254769   4.790   1.084  12.717  0.0076  0.2864  0.4151
11093TIP3    H154770   4.734   1.022  12.765  1.8860 -1.4520  0.5163
11093TIP3    H254771   4.807   1.040  12.634  0.6400  1.1075  0.1000
11094TIP3   OH254772   2.973   2.111   3.664 -0.3606 -0.2210 -0.2862
11094TIP3    H154773   3.016   2.110   3.750 -0.3880  2.1718 -0.1859
11094TIP3    H254774   3.043   2.133   3.603 -0.7284  0.0710 -0.6054
11095TIP3   OH254775   4.859   0.568  10.596  0.0285 -0.0452  0.0298
11095TIP3    H154776   4.912   0.530  10.666  1.0383 -1.2783 -1.3473
11095TIP3    H254777   4.771   0.572  10.632  0.5096 -0.6955  1.3462
11096TIP3   OH254778   3.981   1.128   5.363  0.1112 -0.0502  0.5035
11096TIP3    H154779   3.895   1.086   5.372  0.9289 -2.2029 -0.8714
11096TIP3    H254780   4.021   1.120   5.450  0.0321 -1.7929  0.4265
11097TIP3   OH254781   6.474   6.536  12.709  0.4659  0.2500 -0.0510
11097TIP3    H154782   6.382   6.557  12.695  0.5155  0.5978  0.1098
11097TIP3    H254783   6.480   6.441  12.701 -0.0369  0.1504  0.6678
11098TIP3   OH254784   1.296   4.867   0.809  0.3105  0.0221 -0.1035
11098TIP3    H154785   1.231   4.852   0.740 -1.6225 -0.2598  1.6861
11098TIP3    H254786   1.340   4.782   0.818 -1.3687 -0.7918  0.8662
11099TIP3   OH254787   2.288   0.858  11.779  0.2845 -0.0818 -0.4658
11099TIP3    H154788   2.301   0.775  11.733 -0.2676 -0.3425 -0.1623
11099TIP3    H254789   2.323   0.843  11.866  1.4992  0.4716 -0.8369
11100TIP3   OH254790   5.836   5.234   4.999 -0.1551  0.0409 -0.1529
11100TIP3    H154791   5.836   5.218   5.094 -0.7523  0.0003 -0.1555
11100TIP3    H254792   5.753   5.198   4.969 -0.3403  0.7984 -0.5698
11101TIP3   OH254793   4.320   4.652  11.092 -0.2530 -0.2270  0.6370
11101TIP3    H154794   4.262   4.724  11.118  0.0725  0.3152 -0.1124
11101TIP3    H254795   4.400   4.695  11.062  0.5866 -0.9687  1.7184
11102TIP3   OH254796   0.237   1.945   0.786 -0.3346 -0.7903 -0.8089
11102TIP3    H154797   0.163   1.924   0.843  0.0476 -1.0557 -0.4068
11102TIP3    H254798   0.279   2.020   0.827  0.2100 -1.2634 -0.4854
11103TIP3   OH254799   5.451   3.091   3.706  0.1143  0.1150  0.3798
11103TIP3    H154800   5.385   3.044   3.758  0.8521  0.5212  1.7407
11103TIP3    H254801   5.424   3.078   3.615 -0.7830 -1.2915  0.8187
11104TIP3   OH254802   5.777   2.847  12.740  0.2016  0.0695  0.5482
11104TIP3    H154803   5.755   2.755  12.756  0.6170 -0.1706 -0.2032
11104TIP3    H254804   5.844   2.844  12.672  0.8764  0.8870  1.1523
11105TIP3   OH254805   3.953   5.508   2.597  0.1715  0.1000  0.5989
11105TIP3    H154806   3.943   5.427   2.649 -0.8693  0.3739  0.8495
11105TIP3    H254807   3.878   5.507   2.538  0.6773  0.4216 -0.0531
11106TIP3   OH254808   4.862   0.249  13.303 -0.2359  0.4401 -0.2485
11106TIP3    H154809   4.898   0.275  13.387 -0.2246 -0.9648  0.2165
11106TIP3    H254810   4.939   0.229  13.249 -0.2529  0.8091 -0.4098
11107TIP3   OH254811   2.991   3.316  14.682 -0.4158 -0.8365 -0.0781
11107TIP3    H154812   2.933   3.375  14.634  1.4972 -0.4469 -2.0316
11107TIP3    H254813   2.959   3.320  14.772 -1.5620  1.6754 -0.5135
11108TIP3   OH254814   3.088   2.473   2.272  0.3336 -0.3114  0.0382
11108TIP3    H154815   3.076   2.395   2.218 -2.7201  0.8496 -1.1450
11108TIP3    H254816   3.118   2.540   2.210 -2.3045  0.7837 -0.1849
11109TIP3   OH254817   2.997   3.976  12.460 -0.3724 -1.6457 -0.1829
11109TIP3    H154818   2.914   4.008  12.424 -0.4453 -1.9908 -0.3267
11109TIP3    H254819   2.986   3.881  12.464  0.4556 -1.8064 -1.2950
11110TIP3   OH254820   0.196   4.488   5.344  0.0886  0.1781 -0.0034
11110TIP3    H154821   0.204   4.396   5.369  0.9262  0.2695  0.0892
11110TIP3    H254822   0.277   4.529   5.375  0.9403  0.4246 -2.3482
11111TIP3   OH254823   3.656   1.483  12.830  0.1640 -0.2592 -0.2534
11111TIP3    H154824   3.616   1.449  12.750  2.2311  0.6774 -1.7858
11111TIP3    H254825   3.592   1.545  12.865 -0.7071 -0.5605 -1.2767
11112TIP3   OH254826   6.128   3.153  10.595 -0.3876 -0.4478 -0.1544
11112TIP3    H154827   6.064   3.112  10.652 -0.5140 -0.8666 -0.5942
11112TIP3    H254828   6.182   3.081  10.563 -0.4672 -0.2520 -0.7528
11113TIP3   OH254829   4.516   4.715  12.392  0.6087 -0.1121 -0.1249
11113TIP3    H154830   4.425   4.710  12.364  0.7044 -0.8640 -0.3300
11113TIP3    H254831   4.538   4.807  12.386  0.6320 -0.2096 -2.5501
11114TIP3   OH254832   6.513   6.129  16.480  0.3620 -0.4210  1.1607
11114TIP3    H154833   6.595   6.178  16.484 -0.2077  0.5487  1.0723
11114TIP3    H254834   6.529   6.052  16.535  1.7902 -0.9670  0.0605
11115TIP3   OH254835   4.461   4.549   0.027  0.0009 -0.1649 -0.3374
11115TIP3    H154836   4.511   4.488  -0.025  1.4217  1.3357 -0.8234
11115TIP3    H254837   4.432   4.499   0.103 -0.3811 -1.8503 -1.5521
11116TIP3   OH254838   5.408   3.929   0.142  0.3647  0.0271  0.1215
11116TIP3    H154839   5.364   3.898   0.222 -1.6631 -1.8458 -1.5981
11116TIP3    H254840   5.367   4.014   0.124 -0.0052 -0.0774  0.4387
11117TIP3   OH254841   2.575   2.313   5.634 -0.3277  0.2999  0.1170
11117TIP3    H154842   2.638   2.347   5.698  1.6390 -0.5709 -1.2579
11117TIP3    H254843   2.538   2.390   5.593  0.3472  0.8382  0.4905
11118TIP3   OH254844   3.872   2.205  13.105  0.7176  0.8588  0.1836
11118TIP3    H154845   3.779   2.209  13.124  0.6589  2.0822 -0.2445
11118TIP3    H254846   3.884   2.122  13.059  0.1754 -0.1647  1.8213
11119TIP3   OH254847   5.875   2.298  11.990  0.4595  0.4615  0.1319
11119TIP3    H154848   5.925   2.378  12.006 -0.0770  0.9072 -0.3397
11119TIP3    H254849   5.927   2.250  11.926  1.1631  0.0608  0.9982
11120TIP3   OH254850   5.748   2.770   4.255  0.2995  0.6162 -0.6100
11120TIP3    H154851   5.812   2.812   4.312  0.7901 -1.0061  0.0887
11120TIP3    H254852   5.794   2.694   4.219 -1.9652 -2.3718  2.2209
11121TIP3   OH254853   1.905   4.467  17.442  0.0850  0.3654 -0.2521
11121TIP3    H154854   1.984   4.496  17.488  0.0243  1.4295 -0.7745
11121TIP3    H254855   1.922   4.376  17.418  0.5659  0.1445  0.8783
11122TIP3   OH254856   3.484   2.896   4.104 -0.1396 -0.0539 -0.1206
11122TIP3    H154857   3.452   2.806   4.110  0.3709 -0.4501 -2.3989
11122TIP3    H254858   3.404   2.950   4.108 -0.4785 -0.5916  0.8500
11123TIP3   OH254859   3.285   2.040  15.956  0.3981  0.0317  0.5806
11123TIP3    H154860   3.355   1.990  15.996  0.9438 -3.3373 -3.8229
11123TIP3    H254861   3.328   2.119  15.922  1.5248 -0.7024  0.2461
11124TIP3   OH254862   0.613   0.306   6.035  0.5660  0.2052  0.3354
11124TIP3    H154863   0.624   0.306   6.130  0.4122  1.4780  0.3677
11124TIP3    H254864   0.676   0.241   6.003 -1.1828 -2.2392  1.4725
11125TIP3   OH254865   3.656   4.620  17.274  0.4953 -0.0990  1.1530
11125TIP3    H154866   3.624   4.536  17.242  0.6049 -0.8424  2.8700
11125TIP3    H254867   3.717   4.650  17.207 -0.7457 -0.5803 -0.2605
11126TIP3   OH254868   0.258   5.697   2.914  0.7841 -0.4417 -0.4250
11126TIP3    H154869   0.284   5.755   2.986 -0.0418  0.4057 -0.7891
11126TIP3    H254870   0.293   5.612   2.939 -0.2848 -0.3974  1.4724
11127TIP3   OH254871   5.964   6.116   5.929 -0.5550 -0.2919 -0.2677
11127TIP3    H154872   6.012   6.172   5.991 -0.6941  0.3299 -0.7171
11127TIP3    H254873   5.946   6.036   5.979 -0.4471  0.1022  0.4192
11128TIP3   OH254874   1.608   5.370  15.092 -0.4228 -0.4049 -0.3598
11128TIP3    H154875   1.590   5.373  15.186 -2.1569  0.3592 -0.6720
11128TIP3    H254876   1.693   5.327  15.085 -0.8961 -1.7807  1.4842
11129TIP3   OH254877   2.136   0.188   6.151 -0.1507 -0.3972 -0.2604
11129TIP3    H154878   2.209   0.250   6.152 -1.1255  0.7945 -0.4126
11129TIP3    H254879   2.173   0.108   6.188  0.7762  0.7286  1.4426
11130TIP3   OH254880   1.544   0.631  13.772 -0.1446  0.2837 -0.3984
11130TIP3    H154881   1.508   0.556  13.725 -0.8139 -1.4529  2.6072
11130TIP3    H254882   1.639   0.621  13.765 -0.1966 -1.6905  1.0787
11131TIP3   OH254883   4.991   3.107   0.817 -0.0459 -0.2774  0.3018
11131TIP3    H154884   5.071   3.158   0.803 -0.9740  1.0493 -0.2910
11131TIP3    H254885   5.011   3.021   0.780 -0.5629  1.5012 -4.8139
11132TIP3   OH254886   3.638   5.944   2.113  0.4007  0.7134 -0.4070
11132TIP3    H154887   3.547   5.927   2.087  0.4103  0.3752 -0.2269
11132TIP3    H254888   3.631   5.983   2.200  0.4195  0.8818 -0.4805
11133TIP3   OH254889   4.607   3.893  14.825 -0.2680 -0.3982  0.0997
11133TIP3    H154890   4.576   3.889  14.734  1.6033  1.3421 -0.7037
11133TIP3    H254891   4.596   3.985  14.850 -1.1910 -0.9363  1.8510
11134TIP3   OH254892   2.122   2.356  12.507 -0.2877  0.4417  0.0977
11134TIP3    H154893   2.188   2.394  12.448  1.0565 -1.6131  0.1771
11134TIP3    H254894   2.148   2.386  12.594  1.0841 -0.9330  0.2230
11135TIP3   OH254895   2.306   0.277   1.719 -0.0794 -0.0693 -0.5489
11135TIP3    H154896   2.364   0.278   1.643 -0.9790 -0.1876 -1.2527
11135TIP3    H254897   2.272   0.367   1.725  0.3193  0.0533 -0.0172
11136TIP3   OH254898   0.899   2.333  11.661  0.3423 -0.4008  0.0411
11136TIP3    H154899   0.839   2.259  11.658  0.5974 -0.6373  0.7175
11136TIP3    H254900   0.935   2.339  11.572 -0.1987 -0.6501 -0.1973
11137TIP3   OH254901   0.228   0.245  13.790  0.1899 -0.1399  0.5218
11137TIP3    H154902   0.301   0.270  13.733  0.3273  1.1630  1.2181
11137TIP3    H254903   0.200   0.160  13.758  1.9630 -0.6384  0.1663
11138TIP3   OH254904   5.472   6.562  13.227 -0.3457 -0.3711 -0.7477
11138TIP3    H154905   5.439   6.622  13.160 -1.6641 -0.5774 -0.3117
11138TIP3    H254906   5.402   6.497  13.237 -0.3318 -0.1507  1.0573
11139TIP3   OH254907   2.533   5.038   4.697  0.5212  0.5421  0.6366
11139TIP3    H154908   2.579   5.104   4.646  0.8879 -0.5424 -0.4752
11139TIP3    H254909   2.603   4.986   4.737  0.3098 -0.8658 -0.7356
11140TIP3   OH254910   6.442   2.314   6.895  0.5480  0.4356 -0.5655
11140TIP3    H154911   6.352   2.345   6.887  0.8676  2.0900  1.4384
11140TIP3    H254912   6.445   2.236   6.840 -2.5553 -0.6805  0.6221
11141TIP3   OH254913   2.884   4.353  16.344  0.4601 -0.6537 -0.5426
11141TIP3    H154914   2.941   4.416  16.300 -0.9194  1.1518  0.1178
11141TIP3    H254915   2.815   4.334  16.281 -0.8778  1.0337  0.3449
11142TIP3   OH254916   3.174   2.392   1.436 -0.2410 -0.5937  0.4060
11142TIP3    H154917   3.131   2.447   1.501  0.4239  0.5630 -0.1165
11142TIP3    H254918   3.160   2.437   1.353  2.2426  0.0087  0.2558
11143TIP3   OH254919   0.304   2.768   1.951 -0.0704  0.1675 -0.1960
11143TIP3    H154920   0.313   2.689   2.005  0.1696  0.6538  0.4985
11143TIP3    H254921   0.356   2.834   1.997  0.0453  0.6282 -0.9764
11144TIP3   OH254922   3.698   2.987  11.645  0.1464  0.5705 -0.0696
11144TIP3    H154923   3.633   3.046  11.606  0.9858  0.9905 -0.8798
11144TIP3    H254924   3.780   3.035  11.640  0.3906  0.3794  1.7253
11145TIP3   OH254925   2.410   2.078   5.679 -0.1161 -0.1287 -0.3808
11145TIP3    H154926   2.327   2.121   5.657  0.0902  0.8135  0.6354
11145TIP3    H254927   2.477   2.145   5.663  0.3603 -0.5534 -0.2009
11146TIP3   OH254928   5.406   2.960   4.082 -0.3101 -0.1347 -0.4505
11146TIP3    H154929   5.431   2.872   4.052 -1.3963 -0.8569  0.6552
11146TIP3    H254930   5.334   2.944   4.143  0.4269  1.4131  0.8914
11147TIP3   OH254931   3.494   1.907  13.767  0.3348 -0.5932  0.4386
11147TIP3    H154932   3.430   1.929  13.699  0.8582  0.1521  0.1687
11147TIP3    H254933   3.575   1.949  13.738  1.1601 -2.1946  0.3660
11148TIP3   OH254934   4.272   2.729   1.938 -0.3357 -0.8325  0.3131
11148TIP3    H154935   4.333   2.673   1.890  1.4257  0.7805  0.5388
11148TIP3    H254936   4.222   2.668   1.992  0.7858 -2.2814 -0.1944
11149TIP3   OH254937   4.902   6.143   3.491  0.2451  0.0336 -0.3378
11149TIP3    H154938   4.861   6.062   3.524  0.6360 -1.8029 -3.9057
11149TIP3    H254939   4.969   6.164   3.557  0.4502 -2.8378  0.5260
11150TIP3   OH254940   4.862   2.252  14.386 -0.7726 -0.2566  0.2198
11150TIP3    H154941   4.789   2.209  14.430 -0.1543 -1.1954  0.3658
11150TIP3    H254942   4.853   2.226  14.294 -0.7774 -0.1413  0.1866
11151TIP3   OH254943   3.322   2.543   3.366 -0.2664  0.2090  0.5285
11151TIP3    H154944   3.378   2.620   3.359  0.6156 -0.2968  1.6463
11151TIP3    H254945   3.377   2.477   3.407 -1.3319 -0.6869  0.5705
11152TIP3   OH254946   5.271   5.006   5.347 -0.1361 -0.7229 -0.3473
11152TIP3    H154947   5.197   5.061   5.320 -1.8359 -1.6447  2.0457
11152TIP3    H254948   5.237   4.917   5.345  1.1618 -1.2562  0.0829
11153TIP3   OH254949   4.410   3.976   0.185 -0.0334 -0.3922  0.5325
11153TIP3    H154950   4.374   3.938   0.105  0.7683  0.2867 -0.1722
11153TIP3    H254951   4.354   4.052   0.203  1.0321  0.6979 -0.5952
11154TIP3   OH254952   4.317   0.670  12.549  0.0913 -0.5267  0.9064
11154TIP3    H154953   4.306   0.658  12.455 -1.7765 -1.1759  1.1627
11154TIP3    H254954   4.228   0.678  12.583  0.6824 -1.0728  2.7235
11155TIP3   OH254955   4.721   2.468   1.597 -0.1360  0.0994  0.1208
11155TIP3    H154956   4.777   2.394   1.621  0.5866  1.1565  1.9165
11155TIP3    H254957   4.775   2.545   1.613 -1.6613  1.1076  0.6378
11156TIP3   OH254958   1.647   0.163  16.793 -0.1161  0.0791 -0.1553
11156TIP3    H154959   1.676   0.238  16.845 -0.1607 -0.1027  0.1336
11156TIP3    H254960   1.553   0.155  16.811 -0.4659  0.9594 -1.4553
11157TIP3   OH254961   1.038   5.115  12.950 -0.0706  0.1782 -0.1839
11157TIP3    H154962   0.965   5.063  12.985  0.3584  0.7168  1.6193
11157TIP3    H254963   1.078   5.058  12.884 -0.5217 -1.1926  0.6710
11158TIP3   OH254964   2.949   6.523   2.596  0.6348  0.5532 -0.1909
11158TIP3    H154965   2.949   6.447   2.538  2.6110  0.6451 -0.3574
11158TIP3    H254966   2.877   6.505   2.658  0.4325 -0.9657 -0.8083
11159TIP3   OH254967   5.249   5.306  12.674  0.3011 -0.6320  0.2325
11159TIP3    H154968   5.264   5.358  12.753  1.4473  0.8000 -0.8633
11159TIP3    H254969   5.196   5.363  12.617  1.7431 -0.5013 -1.0687
11160TIP3   OH254970   2.472   3.121  12.044  0.5823 -0.0117 -0.7559
11160TIP3    H154971   2.404   3.068  12.085  0.2001  0.2339 -1.0644
11160TIP3    H254972   2.427   3.167  11.973 -0.0610  3.6636  1.7403
11161TIP3   OH254973   3.805   2.502  14.562  0.3585 -0.2719 -0.3795
11161TIP3    H154974   3.739   2.442  14.527 -2.1103  1.4042  1.0596
11161TIP3    H254975   3.800   2.491  14.656  0.8711  1.1261 -0.1610
11162TIP3   OH254976   3.599   3.043  10.557  0.2157 -0.0902 -0.1577
11162TIP3    H154977   3.536   3.113  10.570  0.3605  0.2285 -1.1174
11162TIP3    H254978   3.683   3.088  10.545  0.0995 -0.3211 -2.1658
11163TIP3   OH254979   4.562   3.645  12.924 -0.3804  0.0307 -0.8318
11163TIP3    H154980   4.512   3.590  12.985  0.4278 -1.0256 -1.0895
11163TIP3    H254981   4.636   3.676  12.976 -0.7119  0.6928 -0.7530
11164TIP3   OH254982   2.986   6.466  13.120  0.5529  0.2624  0.0315
11164TIP3    H154983   3.026   6.382  13.100 -0.9979 -0.0958 -1.9446
11164TIP3    H254984   2.961   6.459  13.212  1.2717 -1.0766  0.1531
11165TIP3   OH254985   5.939   3.503   0.623  0.2580  0.0256  0.2962
11165TIP3    H154986   5.959   3.459   0.540 -0.4711  0.1231  0.0587
11165TIP3    H254987   5.899   3.435   0.677 -1.0848  0.4230 -0.1553
11166TIP3   OH254988   0.151   3.948  16.093  0.2368  0.8750 -0.5879
11166TIP3    H154989   0.098   3.982  16.165 -0.2075 -2.5119  0.9127
11166TIP3    H254990   0.227   4.005  16.089  0.0552  1.4586  2.3085
11167TIP3   OH254991   2.302   1.507  16.003 -0.0190 -0.0450  0.5669
11167TIP3    H154992   2.324   1.415  16.018  0.3118  0.1010  0.9946
11167TIP3    H254993   2.230   1.505  15.940 -0.1429 -0.6052  0.7245
11168TIP3   OH254994   1.002   6.131  16.271  0.5709  0.1956  0.8835
11168TIP3    H154995   1.025   6.201  16.332 -0.4016  0.6989  0.6879
11168TIP3    H254996   0.945   6.073  16.322 -4.2576  3.0080 -0.5988
11169TIP3   OH254997   1.223   0.809  12.394  0.1199  0.4462 -0.1389
11169TIP3    H154998   1.315   0.784  12.409  0.0102 -0.8471 -1.3876
11169TIP3    H254999   1.215   0.814  12.299 -1.1876  0.2200 -0.0582
11170TIP3   OH255000   6.738   5.534   5.545 -0.4520 -0.2950 -0.3073
11170TIP3    H155001   6.829   5.558   5.566 -1.2013  1.9600  0.6500
11170TIP3    H255002   6.725   5.567   5.456 -0.7785  0.8165  0.1395
11171TIP3   OH255003   0.715   0.193   4.871 -0.3836 -0.7447 -0.0024
11171TIP3    H155004   0.747   0.187   4.781  0.2424 -0.6658  0.2089
11171TIP3    H255005   0.641   0.133   4.874  0.3543 -1.6818 -0.2426
11172TIP3   OH255006   4.677   0.673  12.818  0.5577  0.5188 -0.4139
11172TIP3    H155007   4.702   0.582  12.833 -0.6012  0.3723  0.8096
11172TIP3    H255008   4.737   0.724  12.872 -0.2617  0.3156  0.7199
11173TIP3   OH255009   5.719   3.026  16.992 -1.1501  1.0478 -0.0403
11173TIP3    H155010   5.729   3.009  17.086  0.2976  0.8961 -0.2089
11173TIP3    H255011   5.805   3.008  16.954 -1.9845  0.0403 -1.5774
11174TIP3   OH255012   2.839   3.931   2.354  0.0493  0.0608  0.3089
11174TIP3    H155013   2.845   3.993   2.281 -0.0790  0.4614  0.6300
11174TIP3    H255014   2.748   3.936   2.382  0.0811 -0.1449  0.4476
11175TIP3   OH255015   3.753   2.452   2.168  0.2050  0.0327 -0.1179
11175TIP3    H155016   3.695   2.469   2.243  0.9938  0.1872  0.4762
11175TIP3    H255017   3.814   2.385   2.200  0.9841  0.6052 -0.3811
11176TIP3   OH255018   1.090   1.764   1.047  0.2040 -0.1997  0.6439
11176TIP3    H155019   1.133   1.687   1.012 -1.1589 -1.6371  1.9763
11176TIP3    H255020   0.996   1.747   1.038 -0.1449  0.8932  1.7496
11177TIP3   OH255021   1.930   2.693   1.890  0.0095  0.1541 -0.0299
11177TIP3    H155022   1.915   2.629   1.960 -2.2918 -0.3264 -0.8484
11177TIP3    H255023   1.867   2.762   1.907  0.7219  0.9621 -0.6019
11178TIP3   OH255024   6.406   4.604   4.074  0.3260  0.0009 -0.3471
11178TIP3    H155025   6.479   4.580   4.018  0.3976  0.8465 -0.6431
11178TIP3    H255026   6.344   4.647   4.014 -0.5172 -0.9126 -0.1452
11179TIP3   OH255027   3.142   0.527   3.032 -0.1701  0.0028  0.1056
11179TIP3    H155028   3.134   0.590   2.960 -2.6028 -0.1849  0.1331
11179TIP3    H255029   3.197   0.457   2.997  0.9687  1.1854 -0.5796
11180TIP3   OH255030   2.660   1.776   6.615 -0.4760 -0.2353  0.5959
11180TIP3    H155031   2.726   1.731   6.562 -0.4492 -0.2299  0.6247
11180TIP3    H255032   2.577   1.738   6.586 -0.4410 -0.4209  0.7352
11181TIP3   OH255033   3.153   3.632  11.855  0.1177  0.3203 -0.7221
11181TIP3    H155034   3.231   3.678  11.823  0.8376 -0.4571 -0.1273
11181TIP3    H255035   3.175   3.608  11.945 -0.8023  0.0484 -0.5590
11182TIP3   OH255036   4.742   5.195   6.399 -0.2774 -0.0769  0.0804
11182TIP3    H155037   4.763   5.288   6.398 -0.7965  0.0440 -0.6270
11182TIP3    H255038   4.647   5.192   6.405 -0.2411 -0.5713  0.4828
11183TIP3   OH255039   4.851   4.129   0.314  0.1965  0.1623 -0.1723
11183TIP3    H155040   4.825   4.162   0.400 -0.5934 -1.0571  0.0819
11183TIP3    H255041   4.856   4.034   0.325  1.4814  0.0834 -1.1201
11184TIP3   OH255042   0.056   4.572   4.026  0.1138 -0.6658 -0.3810
11184TIP3    H155043   0.043   4.662   3.995  1.0354 -0.5412 -0.4350
11184TIP3    H255044   0.143   4.548   3.993  0.2678 -1.2459  0.4286
11185TIP3   OH255045   4.734   0.682  11.270 -0.3326 -0.0057  0.3427
11185TIP3    H155046   4.641   0.685  11.293 -0.3322  3.8963  0.5626
11185TIP3    H255047   4.740   0.730  11.188  1.3441 -1.6920 -0.5769
11186TIP3   OH255048   2.151   0.979  13.205 -0.2359  0.1188  0.2359
11186TIP3    H155049   2.072   0.941  13.245 -0.0104 -0.1511  0.4226
11186TIP3    H255050   2.139   1.073  13.214 -1.0775  0.1317 -0.7489
11187TIP3   OH255051   3.015   6.022   3.401 -0.2578 -0.2012  0.0918
11187TIP3    H155052   2.932   6.020   3.449 -0.9880  1.5352 -1.0069
11187TIP3    H255053   3.068   6.086   3.448 -0.4115  0.3859 -0.5202
11188TIP3   OH255054   3.101   4.996  14.010  0.8608 -0.7371 -0.4586
11188TIP3    H155055   3.180   4.960  14.050  2.0273 -0.5635 -2.5046
11188TIP3    H255056   3.036   4.926  14.015  1.5345 -1.3266  0.0726
11189TIP3   OH255057   2.202   2.632   6.632  0.0390 -0.4008 -0.4983
11189TIP3    H155058   2.112   2.624   6.601 -0.9032  0.2498  1.8456
11189TIP3    H255059   2.208   2.572   6.706  0.8747  1.0093  0.6506
11190TIP3   OH255060   1.252   3.799   0.457  0.3518  0.1808 -0.2071
11190TIP3    H155061   1.252   3.724   0.517 -3.2156  0.7552  0.7584
11190TIP3    H255062   1.222   3.763   0.374  1.4259  0.0686 -0.5515
11191TIP3   OH255063   1.386   0.287  12.283  0.4100  0.0187  0.0171
11191TIP3    H155064   1.444   0.312  12.211  1.8700 -0.1892  1.0588
11191TIP3    H255065   1.417   0.340  12.357  0.2201 -1.1463  0.9642
11192TIP3   OH255066   1.318   0.278  15.726  0.2031  0.5467 -0.1580
11192TIP3    H155067   1.384   0.329  15.679  0.3101  0.1116 -0.4823
11192TIP3    H255068   1.269   0.233  15.658  0.1482  0.1650  0.1308
11193TIP3   OH255069   0.954   2.722   2.124 -0.8000  0.4900 -0.1619
11193TIP3    H155070   0.920   2.735   2.036 -0.2939 -0.2474 -0.4730
11193TIP3    H255071   1.046   2.750   2.119 -0.9888  1.2377  0.3462
11194TIP3   OH255072   6.575   2.167   1.197 -0.1743  0.5948  0.0387
11194TIP3    H155073   6.633   2.225   1.245  1.7914 -1.3018  0.0835
11194TIP3    H255074   6.613   2.161   1.109 -1.6371  1.0947 -0.6769
11195TIP3   OH255075   3.095   3.512  15.992  0.2339 -0.2558  0.3939
11195TIP3    H155076   3.002   3.488  15.996  0.4982 -1.4170  0.1701
11195TIP3    H255077   3.103   3.587  16.051 -0.9396  0.1989  0.0152
11196TIP3   OH255078   5.595   5.305  12.094 -0.1192 -0.0105 -0.3356
11196TIP3    H155079   5.556   5.283  12.009 -0.8134  0.2163 -0.0842
11196TIP3    H255080   5.569   5.233  12.151  1.7683 -1.0406 -0.7054
11197TIP3   OH255081   1.679   1.267  15.866  0.2839 -0.2147 -0.5317
11197TIP3    H155082   1.685   1.259  15.961  0.7870 -1.4404 -0.6494
11197TIP3    H255083   1.591   1.236  15.845 -0.6783  2.1320 -0.3046
11198TIP3   OH255084   5.391   0.373   5.492 -0.1371  0.0129 -0.0838
11198TIP3    H155085   5.401   0.386   5.398  2.2006  0.8232  0.2156
11198TIP3    H255086   5.398   0.278   5.505  3.1137  0.0918 -0.4755
11199TIP3   OH255087   3.816   0.061  13.819 -0.1120 -0.3441  0.1871
11199TIP3    H155088   3.739   0.042  13.766  1.2875  1.7373 -2.9020
11199TIP3    H255089   3.888   0.019  13.771  1.2255  1.6947  0.2907
11200TIP3   OH255090   6.199   6.535   0.854  0.2385  0.1437  0.0106
11200TIP3    H155091   6.152   6.472   0.798  0.0759  0.1632  0.1245
11200TIP3    H255092   6.271   6.485   0.891 -1.7120 -0.9093  2.6682
11201TIP3   OH255093   4.347   3.444   1.565  0.0045  0.2712  0.2382
11201TIP3    H155094   4.287   3.382   1.522  1.5496 -0.9976 -0.1560
11201TIP3    H255095   4.351   3.414   1.656  1.7460 -1.0521 -0.2369
11202TIP3   OH255096   1.258   4.769  12.532 -0.4907  0.2533 -0.1889
11202TIP3    H155097   1.247   4.840  12.595  1.7852 -0.2764  0.9337
11202TIP3    H255098   1.187   4.708  12.552  0.0740  0.1724  1.8422
11203TIP3   OH255099   5.050   5.449  16.048  0.3751  0.5483  0.0811
11203TIP3    H155100   4.992   5.385  16.007  0.8422  0.9634 -1.2913
11203TIP3    H255101   4.991   5.508  16.095 -0.4573  1.4196 -1.9129
11204TIP3   OH255102   0.548   6.327  14.344 -0.3264 -0.6825 -0.6097
11204TIP3    H155103   0.469   6.359  14.299  0.9872  2.8485 -0.6717
11204TIP3    H255104   0.546   6.233  14.329 -3.7474 -0.5830 -1.8632
11205TIP3   OH255105   6.154   3.976  15.685  0.5843 -0.1388  0.1424
11205TIP3    H155106   6.197   3.910  15.740  3.2296  1.3536  0.0539
11205TIP3    H255107   6.162   3.942  15.596  2.4334  0.4451  0.0373
11206TIP3   OH255108   5.097   5.815  12.334  0.2135  0.4176 -0.5097
11206TIP3    H155109   5.045   5.891  12.306  0.7304  1.6046  1.5076
11206TIP3    H255110   5.035   5.742  12.331  0.0145  0.5606 -3.7050
11207TIP3   OH255111   1.828   1.361  11.754  0.3112  0.1422 -0.2048
11207TIP3    H155112   1.878   1.312  11.819 -0.8192 -1.4227 -0.4464
11207TIP3    H255113   1.873   1.345  11.671 -0.3015 -0.8909 -0.3521
11208TIP3   OH255114   4.072   1.090  16.626 -0.4647  0.1146 -0.0541
11208TIP3    H155115   4.091   1.129  16.541  1.3162  1.4676  0.8911
11208TIP3    H255116   4.119   1.006  16.624 -0.7560 -0.0352 -0.5545
11209TIP3   OH255117   0.497   0.768  12.132 -0.3406 -0.3227  0.2718
11209TIP3    H155118   0.576   0.750  12.183 -0.4008  1.2576  0.9630
11209TIP3    H255119   0.519   0.740  12.043  0.6633 -0.7393  0.6365
11210TIP3   OH255120   3.229   6.400  13.356 -0.0446  0.4485  0.3493
11210TIP3    H155121   3.266   6.415  13.269  1.7865 -1.0494  0.8148
11210TIP3    H255122   3.194   6.485  13.382  1.3739  1.4745 -0.9443
11211TIP3   OH255123   3.150   6.529  12.915  0.0221  0.5779 -0.2572
11211TIP3    H155124   3.056   6.512  12.917 -0.0801  0.9366 -1.5932
11211TIP3    H255125   3.176   6.528  13.008 -0.9155 -1.5665  0.0375
11212TIP3   OH255126   3.201   3.122   1.733  0.3229  0.2608 -0.0050
11212TIP3    H155127   3.178   3.032   1.708  4.5809 -0.8887 -0.5316
11212TIP3    H255128   3.198   3.171   1.651 -2.8541  0.9893  0.4102
11213TIP3   OH255129   2.515   1.197   2.850  0.1269  0.2536  0.3574
11213TIP3    H155130   2.441   1.225   2.796  1.3700  0.6857 -1.1985
11213TIP3    H255131   2.592   1.210   2.794  1.3847 -0.2370  1.8955
11214TIP3   OH255132   4.566   4.374   0.622  0.0820  0.6275 -0.1916
11214TIP3    H155133   4.566   4.464   0.589  0.1848  0.8533  0.4121
11214TIP3    H255134   4.529   4.381   0.711 -2.6492 -0.2929 -1.1343
11215TIP3   OH255135   2.293   2.795  15.003  0.0883 -0.5736 -0.6865
11215TIP3    H155136   2.267   2.874  14.956 -0.8597 -0.5821 -0.2035
11215TIP3    H255137   2.284   2.725  14.938  0.5174 -0.3496 -0.9933
11216TIP3   OH255138   0.003   0.029  14.620 -0.0684  0.4886 -0.0947
11216TIP3    H155139   0.097   0.036  14.636 -0.2651  1.9092  0.5641
11216TIP3    H255140  -0.005   0.022  14.525  0.6175  2.7390 -0.3774
11217TIP3   OH255141   2.341   6.120  12.608  0.3312  0.2531  0.1741
11217TIP3    H155142   2.251   6.140  12.581  0.1115 -0.9837 -0.0510
11217TIP3    H255143   2.332   6.079  12.694  0.5451 -1.1165 -0.4315
11218TIP3   OH255144   4.473   0.928   5.118 -0.0551 -0.5212  0.0960
11218TIP3    H155145   4.452   1.013   5.081 -0.7929 -0.8118 -0.1682
11218TIP3    H255146   4.402   0.910   5.179  0.3534 -0.7304  0.5190
11219TIP3   OH255147   3.622   6.732  15.879  0.1548 -0.1903  0.0937
11219TIP3    H155148   3.544   6.747  15.932 -0.2202  0.4960 -0.6309
11219TIP3    H255149   3.588   6.724  15.790  0.8655 -0.4172 -0.1587
11220TIP3   OH255150   3.390   0.186   1.697 -0.2587  0.2731 -0.4626
11220TIP3    H155151   3.446   0.238   1.639  1.3016 -0.1879  0.5602
11220TIP3    H255152   3.366   0.109   1.644 -1.6267  1.4190 -1.5810
11221TIP3   OH255153   2.859   1.361  12.430 -0.3426  0.4900  0.1545
11221TIP3    H155154   2.921   1.414  12.380 -0.5855 -0.0527 -0.7625
11221TIP3    H255155   2.910   1.285  12.459 -0.3953  0.3986  0.0129
11222TIP3   OH255156   3.430   4.923   3.703  0.4297  1.3259 -0.0431
11222TIP3    H155157   3.338   4.929   3.729  0.1532  0.3606 -0.7419
11222TIP3    H255158   3.429   4.942   3.609  0.7413 -0.0570 -0.3435
11223TIP3   OH255159   0.894   3.584   1.533 -0.5795  0.0692  0.5355
11223TIP3    H155160   0.922   3.665   1.576 -0.8759  0.2038  0.4833
11223TIP3    H255161   0.967   3.559   1.478  0.1588 -0.5885  1.7829
11224TIP3   OH255162   3.924   6.712   1.967 -0.2142 -0.0761  0.4907
11224TIP3    H155163   3.945   6.784   2.025  1.7640 -0.7391  0.6672
11224TIP3    H255164   3.972   6.637   2.002  1.5691 -0.3794 -2.2372
11225TIP3   OH255165   6.180   1.261   3.169 -0.0017 -0.3795  0.6569
11225TIP3    H155166   6.111   1.292   3.110 -0.4454 -1.1946  0.7361
11225TIP3    H255167   6.185   1.167   3.154 -0.6849 -0.7592  2.4624
11226TIP3   OH255168   0.322   5.926  17.396 -0.0454  0.0301  0.1764
11226TIP3    H155169   0.331   5.860  17.327  0.9382  0.4222 -0.0967
11226TIP3    H255170   0.231   5.954  17.390 -0.4364 -1.1842  0.1987
11227TIP3   OH255171   2.512   2.949   4.819 -0.4068 -0.0856 -0.4494
11227TIP3    H155172   2.470   2.869   4.849  0.7287 -0.7635 -0.6032
11227TIP3    H255173   2.586   2.919   4.766  0.9429  1.0343  0.7291
11228TIP3   OH255174   1.933   4.222   5.638 -0.7434  0.8066 -0.6706
11228TIP3    H155175   1.997   4.284   5.604  0.6153  0.5774  1.2830
11228TIP3    H255176   1.858   4.276   5.663  1.0152  2.0549  2.4975
11229TIP3   OH255177   5.705   6.319   0.838 -0.1118  0.5244  0.1426
11229TIP3    H155178   5.785   6.271   0.859 -0.7314 -0.9659 -0.7379
11229TIP3    H255179   5.732   6.411   0.838  2.2831 -0.0247 -2.6736
11230TIP3   OH255180   5.513   3.350   5.296  0.7187  0.4810  0.2430
11230TIP3    H155181   5.500   3.414   5.225 -2.3679  0.9413  1.0784
11230TIP3    H255182   5.580   3.291   5.262  1.1811  2.1369 -2.0064
11231TIP3   OH255183   3.768   3.674   5.802 -0.0253  0.2594 -0.5223
11231TIP3    H155184   3.862   3.672   5.818  0.1501 -0.0818 -1.5195
11231TIP3    H255185   3.735   3.743   5.860  0.7899  0.2067  0.0274
11232TIP3   OH255186   1.644   1.802   4.527  1.0786  0.1655 -0.2736
11232TIP3    H155187   1.713   1.748   4.565 -0.2355 -0.5196  1.2453
11232TIP3    H255188   1.664   1.891   4.556  0.3501 -0.2841  1.7263
11233TIP3   OH255189   5.549   1.687  14.313 -0.3410 -0.1921  0.7731
11233TIP3    H155190   5.622   1.747  14.297 -1.7379  0.9177 -2.0702
11233TIP3    H255191   5.473   1.745  14.322 -1.3244 -1.4514  0.7574
11234TIP3   OH255192   1.309   0.087  14.864  0.1581 -0.5601 -0.8261
11234TIP3    H155193   1.398   0.053  14.874  0.0455 -0.9476 -1.1230
11234TIP3    H255194   1.288   0.123  14.950  0.6223 -0.4167 -0.7680
11235TIP3   OH255195   2.981   4.388  15.147 -0.9086 -0.1783 -0.1165
11235TIP3    H155196   2.926   4.439  15.087 -1.4698  0.5416  0.9616
11235TIP3    H255197   2.923   4.368  15.220  0.2832  0.7544  1.1411
11236TIP3   OH255198   2.596   2.332   4.373 -0.3789  0.3825 -0.2161
11236TIP3    H155199   2.535   2.355   4.302 -0.3706 -0.9393 -0.6712
11236TIP3    H255200   2.669   2.393   4.362 -0.8012  0.7992 -0.7694
11237TIP3   OH255201   5.195   0.060  14.957  0.2943  0.1171  0.7941
11237TIP3    H155202   5.275   0.017  14.989 -0.0667 -0.2948  1.1513
11237TIP3    H255203   5.144   0.077  15.036 -0.1975 -0.0724  0.5217
11238TIP3   OH255204   6.362   2.845   2.749 -0.5679 -0.0244 -0.6280
11238TIP3    H155205   6.421   2.847   2.674  0.9601 -0.7158  0.5028
11238TIP3    H255206   6.419   2.833   2.824 -2.0859  0.2934  0.6343
11239TIP3   OH255207   1.184   3.336   1.753  0.0947 -0.4831 -0.7726
11239TIP3    H155208   1.190   3.430   1.770  1.7242 -0.3781 -1.7798
11239TIP3    H255209   1.211   3.295   1.835 -2.5000 -0.1516  0.3363
11240TIP3   OH255210   3.354   4.363   3.800 -0.7397  0.4164  1.0095
11240TIP3    H155211   3.310   4.331   3.879 -0.8436  1.5895  1.4443
11240TIP3    H255212   3.322   4.305   3.730 -0.9586 -0.3802  1.7501
11241TIP3   OH255213   0.427   5.078   1.765 -0.0113  0.2474  0.5926
11241TIP3    H155214   0.441   4.987   1.738 -3.8735 -1.4860  3.5108
11241TIP3    H255215   0.498   5.095   1.827  0.1548 -1.2459  0.8636
11242TIP3   OH255216   1.289   1.581  15.242  0.1249  0.1034  0.5087
11242TIP3    H155217   1.382   1.600  15.234  0.2589 -1.2729 -2.6005
11242TIP3    H255218   1.279   1.494  15.204 -2.6111  0.7069 -0.3868
11243TIP3   OH255219   5.382   6.736   1.310  0.1369  0.4879  0.9191
11243TIP3    H155220   5.351   6.652   1.276  0.2596  0.4315  0.9448
11243TIP3    H255221   5.464   6.751   1.264 -0.5178  1.2176 -0.0337
11244TIP3   OH255222   2.426   0.005  12.410  0.0434 -0.6157  0.6912
11244TIP3    H155223   2.385  -0.003  12.496  1.1214 -1.9117  1.1252
11244TIP3    H255224   2.501   0.064  12.425 -0.7878  0.6107  0.2110
11245TIP3   OH255225   4.677   0.418  12.756 -0.2736  0.1002 -0.1661
11245TIP3    H155226   4.615   0.347  12.738  1.1414 -1.3857  0.5019
11245TIP3    H255227   4.752   0.399  12.700  0.0263  1.2416 -0.1762
11246TIP3   OH255228   1.102   1.277  14.428 -0.2766  0.7784 -0.2875
11246TIP3    H155229   1.143   1.338  14.366 -0.1941  0.3609 -0.6488
11246TIP3    H255230   1.175   1.229  14.467 -0.4398 -0.7546 -1.7486
11247TIP3   OH255231   0.943   2.874   5.851  0.3815  0.0464  0.4322
11247TIP3    H155232   0.949   2.916   5.937 -0.1753 -0.1451  0.5698
11247TIP3    H255233   0.988   2.790   5.863  0.4130  0.0724  0.5020
11248TIP3   OH255234   0.186   6.373  13.269  0.2032 -0.6426 -0.1511
11248TIP3    H155235   0.180   6.460  13.309 -0.7965 -0.8493  0.1835
11248TIP3    H255236   0.158   6.387  13.178  0.0813 -0.6046 -0.1083
11249TIP3   OH255237   2.627   3.147  14.659 -0.2469 -0.1175  0.2095
11249TIP3    H155238   2.639   3.102  14.575  0.6532  0.9209 -0.2566
11249TIP3    H255239   2.640   3.079  14.725 -0.3919 -0.8365 -0.4875
11250TIP3   OH255240   2.378   1.522  17.357  0.2791  0.4713 -0.2422
11250TIP3    H155241   2.388   1.572  17.276 -0.8388  1.7164  0.3449
11250TIP3    H255242   2.287   1.493  17.355  0.9738 -1.8356 -0.6943
11251TIP3   OH255243   3.655   5.203  13.940  0.5567  0.9758  0.9959
11251TIP3    H155244   3.692   5.291  13.951  1.3671  0.8334 -0.3873
11251TIP3    H255245   3.691   5.172  13.857  1.6830 -1.3649  2.2547
11252TIP3   OH255246   6.360   2.271  13.206  0.6195 -0.1613 -0.0185
11252TIP3    H155247   6.302   2.202  13.175  0.0601  0.4897 -0.4529
11252TIP3    H255248   6.309   2.317  13.273  1.3058 -0.6885  0.8946
11253TIP3   OH255249   1.008   5.493   3.553  0.2488 -0.6364  0.3749
11253TIP3    H155250   0.924   5.456   3.527  0.5778 -0.7271 -0.6090
11253TIP3    H255251   1.006   5.493   3.649 -0.5723 -1.3026  0.3678
11254TIP3   OH255252   1.513   1.957  14.794 -0.4642 -0.2810  0.0117
11254TIP3    H155253   1.442   1.937  14.856  0.6682 -0.4596  1.3163
11254TIP3    H255254   1.478   2.024  14.737 -0.6141  2.1748  2.7766
11255TIP3   OH255255   2.797   1.965  17.449  0.2400  0.1914  0.5086
11255TIP3    H155256   2.780   1.909  17.524  1.0607 -0.9584 -0.1290
11255TIP3    H255257   2.716   1.965  17.399 -0.5966  1.6497  1.7816
11256TIP3   OH255258   3.906   5.694  11.329 -0.1798  0.7547 -0.3033
11256TIP3    H155259   3.921   5.716  11.421  0.8531 -1.6647  0.1691
11256TIP3    H255260   3.850   5.616  11.331 -1.1650  1.3521 -1.8000
11257TIP3   OH255261   1.694   5.243   0.912 -0.3553  0.3838 -0.3076
11257TIP3    H155262   1.647   5.160   0.903  0.3843 -0.0685 -0.1764
11257TIP3    H255263   1.778   5.227   0.868 -0.1619  1.0278 -0.1810
11258TIP3   OH255264   4.674   4.769  13.933  0.1576  0.4349 -0.0271
11258TIP3    H155265   4.710   4.682  13.920 -1.7823 -0.3661 -0.2690
11258TIP3    H255266   4.686   4.813  13.849  0.3258  0.1067 -0.1772
11259TIP3   OH255267   1.551   4.945  15.840  0.3901  0.6363 -0.5699
11259TIP3    H155268   1.523   4.864  15.882  0.1820  0.2378 -1.4533
11259TIP3    H255269   1.640   4.927  15.810  1.1615  1.4524  1.0491
11260TIP3   OH255270   3.291   0.759   4.472 -0.3196 -0.2916 -0.4980
11260TIP3    H155271   3.262   0.798   4.554  0.2666 -0.6921 -0.0836
11260TIP3    H255272   3.213   0.716   4.437 -0.4309 -0.6635  0.1784
11261TIP3   OH255273   0.041   3.350   5.749 -0.4334  0.0690 -0.3514
11261TIP3    H155274   0.035   3.419   5.816  0.4992 -1.3427  1.2714
11261TIP3    H255275   0.019   3.394   5.667  2.1211  2.8083  0.2657
11262TIP3   OH255276   0.646   4.516   3.040 -0.1972  0.0420  0.2576
11262TIP3    H155277   0.727   4.467   3.026 -0.1983 -0.5064  1.9132
11262TIP3    H255278   0.612   4.533   2.952  0.3472 -2.0083 -0.3935
11263TIP3   OH255279   1.483   4.285   4.065  0.7245  0.3421  0.3714
11263TIP3    H155280   1.463   4.286   4.159 -0.6585 -0.1144  0.0979
11263TIP3    H255281   1.530   4.367   4.050 -1.0968  1.5608  1.0455
11264TIP3   OH255282   6.004   5.884  11.529  0.1461  0.0376  1.0275
11264TIP3    H155283   5.999   5.959  11.589  1.3803  1.6388 -0.7418
11264TIP3    H255284   6.089   5.844  11.549  0.5548  0.5679  0.4193
11265TIP3   OH255285   0.471   6.182   3.759 -0.0846  0.0841 -0.2590
11265TIP3    H155286   0.491   6.141   3.843 -0.1506  1.5227  0.4894
11265TIP3    H255287   0.550   6.168   3.706  1.4768  2.2878  1.3176
11266TIP3   OH255288   0.800   2.198  14.204  0.2347 -0.1471 -0.5049
11266TIP3    H155289   0.807   2.192  14.108  1.3852 -1.5914 -0.3572
11266TIP3    H255290   0.864   2.135  14.237  0.7219  1.1991  1.2470
11267TIP3   OH255291   0.593   5.400  17.442 -0.4623  0.5654  0.4281
11267TIP3    H155292   0.514   5.449  17.422 -0.1986  1.2926  1.1536
11267TIP3    H255293   0.594   5.329  17.377 -0.0476  2.3905 -1.6575
11268TIP3   OH255294   4.035   5.868  15.288 -0.8558 -0.2120  0.4904
11268TIP3    H155295   4.065   5.946  15.242 -1.6675 -0.6333 -0.8143
11268TIP3    H255296   4.090   5.863  15.366 -0.6183  1.4968  0.4604
11269TIP3   OH255297   5.297   2.910   5.586 -0.4434  0.3555  0.1089
11269TIP3    H155298   5.332   2.989   5.544 -1.9479 -0.0697 -2.1697
11269TIP3    H255299   5.310   2.841   5.521 -1.1372 -0.8110  1.1691
11270TIP3   OH255300   2.644   3.715  16.384  0.0409 -0.2677 -0.6005
11270TIP3    H155301   2.650   3.746  16.293  1.0973  0.9417 -0.1421
11270TIP3    H255302   2.551   3.721  16.405 -0.4141 -1.7505 -1.9776
11271TIP3   OH255303   2.924   3.223   0.086  0.3105  0.3416 -0.0380
11271TIP3    H155304   3.019   3.215   0.089  0.5637  2.4640  3.3612
11271TIP3    H255305   2.891   3.150   0.138  0.2345  0.7385  0.4789
11272TIP3   OH255306   0.781   1.157  16.434  0.0480 -0.6897  1.0619
11272TIP3    H155307   0.759   1.146  16.342  2.1613 -2.3306  0.6676
11272TIP3    H255308   0.874   1.178  16.434 -0.0304 -0.1903  2.8250
11273TIP3   OH255309   5.302   1.822   5.188  0.7803  0.2938  0.3201
11273TIP3    H155310   5.396   1.810   5.204  0.6399 -0.6392  0.4646
11273TIP3    H255311   5.291   1.917   5.182  1.4181  0.5362  2.2401
11274TIP3   OH255312   5.322   5.206   1.191  0.5064 -0.3341  0.2760
11274TIP3    H155313   5.298   5.278   1.133  0.6578 -0.5204 -0.0241
11274TIP3    H255314   5.240   5.181   1.234  0.2883 -0.5386 -0.2535
11275TIP3   OH255315   5.140   4.147  13.512 -0.1095  0.0860  0.0682
11275TIP3    H155316   5.175   4.177  13.596 -1.1825  1.3755  0.0860
11275TIP3    H255317   5.181   4.205  13.447 -1.9212  1.4331  0.0665
11276TIP3   OH255318   2.416   2.195   5.369  0.0387  0.2936 -0.0400
11276TIP3    H155319   2.364   2.116   5.358  3.3525 -2.0530 -0.5265
11276TIP3    H255320   2.400   2.246   5.289 -1.8303 -0.0475  0.0819
11277TIP3   OH255321   0.270   3.410  12.418  0.1530  0.1018  0.4130
11277TIP3    H155322   0.249   3.321  12.389  0.0356  0.1381  0.3873
11277TIP3    H255323   0.307   3.452  12.340  0.4213  0.0047  0.4866
11278TIP3   OH255324   0.969   4.371  12.175  0.0777  0.1980  0.2913
11278TIP3    H155325   0.962   4.279  12.202  0.6751  0.2483  0.6264
11278TIP3    H255326   1.062   4.384  12.157 -0.0097  0.7294  0.2131
11279TIP3   OH255327   2.348   4.081  13.707 -0.6642 -0.2234  0.1340
11279TIP3    H155328   2.429   4.031  13.696  0.5374  1.7561 -0.4021
11279TIP3    H255329   2.293   4.053  13.634  0.4112 -0.0285 -0.7819
11280TIP3   OH255330   4.765   4.845  10.763  0.7871 -0.6999 -0.6916
11280TIP3    H155331   4.681   4.886  10.781  0.2012 -2.3368  0.5876
11280TIP3    H255332   4.815   4.912  10.717 -0.6787  0.8152 -0.1863
11281TIP3   OH255333   2.623   0.121  16.287  0.1829 -0.1906 -0.4621
11281TIP3    H155334   2.701   0.109  16.234 -0.0266 -2.1903 -0.4025
11281TIP3    H255335   2.556   0.067  16.245 -0.1429 -1.3874  1.4326
11282TIP3   OH255336   4.527   3.171   1.882  0.7015 -0.0789 -0.1659
11282TIP3    H155337   4.481   3.087   1.881  1.4606 -0.5002 -0.8150
11282TIP3    H255338   4.494   3.217   1.804 -0.4571  0.6589  0.7256
11283TIP3   OH255339   5.533   4.904   3.267  0.2871 -0.4786  0.4798
11283TIP3    H155340   5.615   4.952   3.281 -0.7262  1.2228  0.9432
11283TIP3    H255341   5.486   4.956   3.201  0.3066 -2.4178 -1.1633
11284TIP3   OH255342   6.381   0.751  14.141 -0.0629  0.2966 -0.1999
11284TIP3    H155343   6.419   0.839  14.133 -0.2161  0.3553 -0.2797
11284TIP3    H255344   6.286   0.765  14.137 -0.1221 -0.1898 -3.8115
11285TIP3   OH255345   2.421   3.679  14.922 -0.4231 -0.1329 -0.4951
11285TIP3    H155346   2.409   3.637  15.007  0.7393  1.9036  0.7512
11285TIP3    H255347   2.345   3.737  14.913 -0.0689  0.3489 -0.4002
11286TIP3   OH255348   1.501   5.719  13.039 -0.5970 -0.0450  0.3763
11286TIP3    H155349   1.449   5.702  13.117 -0.6537  0.3300  0.4218
11286TIP3    H255350   1.467   5.658  12.973 -0.1188 -0.8121  0.8215
11287TIP3   OH255351   0.705   3.478  12.014 -0.8362  0.2049  0.3682
11287TIP3    H155352   0.744   3.471  12.101  1.7567  0.5647 -0.6406
11287TIP3    H255353   0.767   3.432  11.957 -0.5637  2.8987 -1.7499
11288TIP3   OH255354   6.645   3.536   4.131 -0.3748 -0.3023  0.0584
11288TIP3    H155355   6.594   3.599   4.182 -1.1490  0.5384 -1.6614
11288TIP3    H255356   6.722   3.585   4.102  0.0384 -0.7569  0.3854
11289TIP3   OH255357   0.425   3.577  16.845 -0.2369  0.1797  0.0864
11289TIP3    H155358   0.457   3.507  16.788 -0.8835 -0.7845  0.8901
11289TIP3    H255359   0.443   3.658  16.796 -0.6194 -0.6152 -1.4123
11290TIP3   OH255360   5.896   5.838  14.628  0.7062 -0.4380  0.1921
11290TIP3    H155361   5.905   5.880  14.543  0.8615  0.4754  0.6461
11290TIP3    H255362   5.970   5.871  14.679 -0.3764  0.4651  1.2501
11291TIP3   OH255363   0.935   4.351   1.973 -0.0076 -0.2964 -0.9962
11291TIP3    H155364   0.943   4.444   1.951 -1.8369  0.0457 -0.3616
11291TIP3    H255365   1.017   4.312   1.943  2.0318  1.9995  1.2088
11292TIP3   OH255366   1.273   5.705  15.757 -0.1399 -0.0834  0.6003
11292TIP3    H155367   1.346   5.765  15.775  0.9155 -1.4263  0.9389
11292TIP3    H255368   1.253   5.667  15.842 -1.9273  0.9776  0.6970
11293TIP3   OH255369   1.806   0.326  15.980 -0.1579  0.1787 -0.8184
11293TIP3    H155370   1.746   0.349  16.052  0.2604  0.7914 -0.6565
11293TIP3    H255371   1.765   0.251  15.938 -0.5676  0.0055 -0.1280
11294TIP3   OH255372   2.806   2.294  11.504 -0.0396 -0.0933 -0.3739
11294TIP3    H155373   2.900   2.299  11.493 -0.0637 -0.9024 -0.9812
11294TIP3    H255374   2.792   2.316  11.597  0.7907 -0.5277 -0.1334
11295TIP3   OH255375   1.169   0.985   2.143  0.4080 -0.1228  0.7638
11295TIP3    H155376   1.136   0.919   2.205 -1.1040  1.2190  1.4552
11295TIP3    H255377   1.244   0.942   2.101 -0.0754 -2.0122  1.6906
11296TIP3   OH255378   5.767   1.669  14.940  0.2910  0.3885 -0.3040
11296TIP3    H155379   5.742   1.707  15.025 -0.1422 -1.7456  0.6012
11296TIP3    H255380   5.684   1.641  14.901  0.7482 -3.3395  1.0115
11297TIP3   OH255381   1.909   4.066   3.195  0.5630 -0.3452 -0.1060
11297TIP3    H155382   1.981   4.008   3.219  0.3379 -0.7121 -0.3185
11297TIP3    H255383   1.861   4.080   3.276  2.3763  2.0562  0.6849
11298TIP3   OH255384   0.556   2.917  11.825 -0.6939  0.4436 -0.0327
11298TIP3    H155385   0.504   2.909  11.905 -2.1690 -1.3797 -1.0541
11298TIP3    H255386   0.627   2.855  11.836 -1.1831 -0.1799 -0.2987
11299TIP3   OH255387   5.116   1.365   6.284  0.1114  0.1907 -0.1166
11299TIP3    H155388   5.179   1.338   6.352 -0.1673 -1.3449 -0.4229
11299TIP3    H255389   5.100   1.285   6.234 -1.1837  0.8428 -0.7887
11300TIP3   OH255390   2.995   2.191  12.421  0.5031 -0.7929 -0.2813
11300TIP3    H155391   2.970   2.136  12.495  1.6071 -0.5935  0.2634
11300TIP3    H255392   2.977   2.281  12.451  1.4688 -0.6760 -0.0350
11301TIP3   OH255393   0.240   5.860  11.575  0.9571  0.7798 -0.0552
11301TIP3    H155394   0.283   5.921  11.634 -1.2757  1.7459  0.6782
11301TIP3    H255395   0.287   5.870  11.492  1.8220  2.1129  0.5587
11302TIP3   OH255396   2.327   0.235   2.117 -0.3116 -0.4143  0.9897
11302TIP3    H155397   2.312   0.142   2.099 -0.9566  0.1289 -1.8309
11302TIP3    H255398   2.240   0.271   2.133 -0.1536 -0.1477  1.2618
11303TIP3   OH255399   1.248   5.775   1.874  0.3363  0.2310  0.3052
11303TIP3    H155400   1.161   5.738   1.866 -0.3073  1.9326 -1.0940
11303TIP3    H255401   1.290   5.722   1.942 -1.4745 -1.1514  0.4226
11304TIP3   OH255402   1.305   2.041   5.799 -0.4188  0.0612  0.3670
11304TIP3    H155403   1.348   1.960   5.773  0.5221  0.8422 -0.6148
11304TIP3    H255404   1.221   2.013   5.837  0.0680 -1.3763  0.4344
11305TIP3   OH255405   0.064   6.650  14.205 -0.3461 -0.0395  0.5803
11305TIP3    H155406   0.103   6.659  14.118  1.5212 -1.5228  1.2125
11305TIP3    H255407   0.017   6.566  14.201 -1.9404  0.8121  0.4412
11306TIP3   OH255408   6.114   1.593  13.516 -0.8177 -0.1226  0.1654
11306TIP3    H155409   6.175   1.664  13.499  1.0138 -0.7292  3.3473
11306TIP3    H255410   6.032   1.620  13.475  0.6922  2.2391 -1.4929
11307TIP3   OH255411   5.078   1.478  15.055 -0.8117 -0.0481 -0.3384
11307TIP3    H155412   5.164   1.481  15.095  0.1217 -0.4422 -2.1852
11307TIP3    H255413   5.062   1.385  15.038 -1.3844  0.0613 -0.4410
11308TIP3   OH255414   1.933   5.810   4.830 -0.3068 -0.2332 -0.7988
11308TIP3    H155415   1.867   5.806   4.761  2.7948 -1.9314 -3.9928
11308TIP3    H255416   1.968   5.899   4.824  0.0105 -0.3992 -1.5100
11309TIP3   OH255417   4.210   4.410  12.593  0.6151  0.5010  0.6178
11309TIP3    H155418   4.206   4.502  12.569 -0.4307  0.4622  0.6037
11309TIP3    H255419   4.125   4.374  12.565  0.8733 -0.3816  0.9378
11310TIP3   OH255420   2.421   5.165   2.271 -0.5486 -0.3859  0.4319
11310TIP3    H155421   2.484   5.124   2.330  0.7125  1.1017  0.2079
11310TIP3    H255422   2.392   5.095   2.213 -1.9026 -1.9083  2.8164
11311TIP3   OH255423   4.977   4.838   2.235  0.1363  0.3727 -0.1340
11311TIP3    H155424   4.972   4.904   2.166  0.4102 -0.9126 -1.4256
11311TIP3    H255425   5.051   4.782   2.211  0.2547 -0.1090  1.2189
11312TIP3   OH255426   5.310   4.687   0.658  0.9105  0.3467  0.1086
11312TIP3    H155427   5.389   4.687   0.603 -0.4984 -0.4347 -2.0607
11312TIP3    H255428   5.273   4.774   0.647  0.3999  0.0552 -0.5962
11313TIP3   OH255429   2.357   1.905   2.301  0.2728  0.2284 -0.3711
11313TIP3    H155430   2.376   1.844   2.371  0.9357 -0.8219 -1.4183
11313TIP3    H255431   2.264   1.924   2.308  0.0816 -0.8369  0.0217
11314TIP3   OH255432   3.541   1.018  12.492 -0.1566  0.4756  0.6706
11314TIP3    H155433   3.531   0.927  12.466 -0.0494 -0.0320  2.2732
11314TIP3    H255434   3.633   1.026  12.516 -0.9246 -0.2157  4.5417
11315TIP3   OH255435   2.631   2.378   0.964 -0.3453  0.3927  0.0237
11315TIP3    H155436   2.599   2.312   1.026 -0.4111 -0.3107 -0.7509
11315TIP3    H255437   2.717   2.347   0.939 -0.7972  0.0422 -1.1405
11316TIP3   OH255438   2.546   4.852  13.482  0.4328  0.1188 -0.1919
11316TIP3    H155439   2.526   4.917  13.549  0.9160 -0.4235  0.4956
11316TIP3    H255440   2.473   4.791  13.485  0.8523 -0.3718  0.4467
11317TIP3   OH255441   1.106   2.053   3.829 -0.2981  0.2962 -0.1384
11317TIP3    H155442   1.037   2.107   3.792 -0.3709  0.4538  0.2180
11317TIP3    H255443   1.071   2.022   3.912  0.8736  2.2670  1.1914
11318TIP3   OH255444   0.821   6.473   5.378  0.0503 -0.1930  0.3929
11318TIP3    H155445   0.831   6.518   5.462  1.6850 -0.5827  0.4381
11318TIP3    H255446   0.763   6.399   5.397  0.6075 -0.4297  1.2633
11319TIP3   OH255447   2.031   1.562  13.585  0.6294 -0.1842 -0.1455
11319TIP3    H155448   2.053   1.488  13.529 -1.2660 -0.4770 -0.5950
11319TIP3    H255449   1.947   1.538  13.625  0.3788  1.3691  0.3501
11320TIP3   OH255450   1.570   4.452   0.405 -0.8050 -0.3297  0.2896
11320TIP3    H155451   1.600   4.479   0.319 -2.2280  1.3730  0.2662
11320TIP3    H255452   1.650   4.432   0.454  0.3930  3.0124 -0.0586
11321TIP3   OH255453   2.329   2.474  16.565  0.1198  0.8584  0.1796
11321TIP3    H155454   2.379   2.548  16.530 -0.9123  0.3316 -2.5933
11321TIP3    H255455   2.242   2.511  16.583  0.0921  0.6765  0.4309
11322TIP3   OH255456   2.233   3.716   1.526 -0.2717 -0.5303  0.4454
11322TIP3    H155457   2.161   3.756   1.478 -0.4722 -0.7921  0.5248
11322TIP3    H255458   2.225   3.752   1.615 -0.5481 -0.8659  0.5580
11323TIP3   OH255459   0.594   3.128   6.022 -0.1763  0.0470  0.5557
11323TIP3    H155460   0.686   3.135   6.047 -0.1164 -0.5933  0.5173
11323TIP3    H255461   0.596   3.128   5.926 -0.0821 -1.5472  0.5377
11324TIP3   OH255462   3.410   0.577   3.408 -0.2457 -0.3472  0.3950
11324TIP3    H155463   3.419   0.666   3.441 -1.4320  0.1771 -0.5943
11324TIP3    H255464   3.421   0.521   3.486 -1.5914  0.7659  1.4336
11325TIP3   OH255465   3.005   1.922   5.436  0.3849  0.2043  0.0902
11325TIP3    H155466   3.064   1.927   5.512  0.4694 -0.4102  0.0705
11325TIP3    H255467   2.919   1.943   5.472 -0.6401 -5.0926  1.6017
11326TIP3   OH255468   3.432   2.302   2.393 -0.3104 -0.2388  0.7803
11326TIP3    H155469   3.498   2.298   2.462 -1.0909  0.1843  1.5689
11326TIP3    H255470   3.355   2.258   2.430 -0.1791 -1.6132 -0.4838
11327TIP3   OH255471   6.543   5.740   2.205  0.5446  0.5582  0.0233
11327TIP3    H155472   6.603   5.811   2.182  0.9568  0.3152  0.3257
11327TIP3    H255473   6.557   5.674   2.137  1.0495  0.2551  0.4164
11328TIP3   OH255474   1.458   4.701   1.796  0.3621 -0.7248 -0.1204
11328TIP3    H155475   1.497   4.619   1.766 -0.3623 -0.7070 -1.1525
11328TIP3    H255476   1.530   4.764   1.791  0.8105 -1.1914  0.2760
11329TIP3   OH255477   5.040   0.426   0.950 -0.0922 -0.0671  0.0534
11329TIP3    H155478   5.015   0.356   1.009 -0.9952 -0.5698 -0.8852
11329TIP3    H255479   5.017   0.506   0.996  1.8656 -0.3172  1.5517
11330TIP3   OH255480   2.483   1.387  16.643  0.2072 -0.4083  1.2107
11330TIP3    H155481   2.410   1.446  16.625  0.0299 -0.1150  2.7880
11330TIP3    H255482   2.494   1.337  16.562 -0.0280  1.3464  0.0422
11331TIP3   OH255483   1.371   2.360   6.691 -0.8923  0.1313  0.0433
11331TIP3    H155484   1.377   2.266   6.676 -0.8668  0.3161 -1.2259
11331TIP3    H255485   1.459   2.385   6.719  0.5273  0.4347 -4.0009
11332TIP3   OH255486   4.749   0.323   0.963  0.4174  0.1807 -0.3989
11332TIP3    H155487   4.709   0.388   0.905  0.6707  0.3547 -0.3814
11332TIP3    H255488   4.678   0.264   0.986  0.0048  0.9238  0.2460
11333TIP3   OH255489   0.789   0.667   4.686 -0.7208  0.4116  0.3759
11333TIP3    H155490   0.708   0.706   4.718 -0.8035  1.4515 -1.0467
11333TIP3    H255491   0.762   0.583   4.648 -0.7547 -0.3819  2.0570
11334TIP3   OH255492   1.485   3.013  14.840  0.0198  0.1045 -0.0269
11334TIP3    H155493   1.549   2.958  14.884  1.2295  2.7870  1.8644
11334TIP3    H255494   1.527   3.038  14.757  0.6867  0.4136  0.3944
11335TIP3   OH255495   2.658   3.767  13.811  0.0727  0.7010  0.1986
11335TIP3    H155496   2.634   3.674  13.810  1.3538  0.3038  1.5270
11335TIP3    H255497   2.634   3.800  13.725 -0.2642 -0.9051 -0.3481
11336TIP3   OH255498   6.083   0.320  14.339 -0.3539  0.2909  0.0261
11336TIP3    H155499   6.091   0.294  14.430 -0.4625 -0.2818 -0.1241
11336TIP3    H255500   6.166   0.295  14.299 -0.3858  0.3519 -0.0801
11337TIP3   OH255501   5.349   2.620   4.020  0.1312  0.4638  0.3908
11337TIP3    H155502   5.408   2.632   3.945 -1.1783  0.5372 -0.6553
11337TIP3    H255503   5.408   2.617   4.096  1.4664  0.7091 -0.5924
11338TIP3   OH255504   2.354   0.004  16.393  0.4003 -0.1165  0.2873
11338TIP3    H155505   2.384   0.052  16.315 -0.5384  0.7790  0.4564
11338TIP3    H255506   2.313  -0.075  16.358  1.7379 -0.7025 -0.0096
11339TIP3   OH255507   3.918   6.623   5.371 -0.0069 -0.3422  0.0111
11339TIP3    H155508   3.895   6.641   5.462 -1.0634  0.5393 -0.4145
11339TIP3    H255509   3.847   6.568   5.339  0.0715 -0.1759 -0.4482
11340TIP3   OH255510   5.508   4.474  14.673 -0.6069  0.2264 -0.5414
11340TIP3    H155511   5.440   4.412  14.645  0.3127 -1.6304  1.0795
11340TIP3    H255512   5.589   4.424  14.669  0.3413  1.7004 -0.2826
11341TIP3   OH255513   4.289   1.576   6.449 -0.3052  0.8140 -0.1594
11341TIP3    H155514   4.334   1.570   6.533 -0.8433 -0.5926  0.0545
11341TIP3    H255515   4.206   1.619   6.469 -1.2323 -1.1231  0.4171
11342TIP3   OH255516   6.598   3.241   0.241 -0.0816  0.0314 -0.5250
11342TIP3    H155517   6.621   3.301   0.170 -0.4399 -0.3003 -0.9257
11342TIP3    H255518   6.648   3.273   0.316  1.1745 -0.2833 -1.2033
11343TIP3   OH255519   4.630   5.884  15.593 -0.4602 -0.7440 -0.2066
11343TIP3    H155520   4.712   5.867  15.547 -1.1097 -0.3730 -1.5517
11343TIP3    H255521   4.612   5.802  15.641  1.7786 -0.1077  1.9487
11344TIP3   OH255522   5.842   5.727  11.925  0.5352 -0.3386  0.0540
11344TIP3    H155523   5.923   5.675  11.922  0.2400 -0.8786  1.0223
11344TIP3    H255524   5.818   5.729  12.018 -0.1666  0.4453 -0.1316
11345TIP3   OH255525   5.494   4.227  15.324 -0.3956 -0.3681  0.1111
11345TIP3    H155526   5.462   4.317  15.318  0.2510 -0.1639 -0.4792
11345TIP3    H255527   5.458   4.183  15.247 -0.5264 -0.5555  0.2780
11346TIP3   OH255528   6.700   6.458   2.354  0.2160 -0.2333 -0.1475
11346TIP3    H155529   6.628   6.485   2.296 -2.0817  0.2499  2.7246
11346TIP3    H255530   6.722   6.370   2.325  0.3756  0.5766 -2.7773
11347TIP3   OH255531   1.819   0.460   5.804  0.1921  0.0355  0.2397
11347TIP3    H155532   1.911   0.434   5.797  0.8307  2.3166 -0.7239
11347TIP3    H255533   1.784   0.404   5.873  1.9729 -1.7417 -0.2162
11348TIP3   OH255534   0.001   4.778   1.316  0.1053  0.1716 -0.0336
11348TIP3    H155535  -0.015   4.831   1.238 -0.4639  1.5836  1.0047
11348TIP3    H255536  -0.055   4.701   1.305  0.6656 -0.0729 -1.3862
11349TIP3   OH255537   0.155   3.079  13.160  0.1164  0.0899 -0.0265
11349TIP3    H155538   0.109   3.017  13.217  0.2010 -0.6018 -0.6915
11349TIP3    H255539   0.244   3.045  13.154  0.5547  1.0562  0.7190
11350TIP3   OH255540   5.129   2.115  13.920 -0.0364 -0.1272  0.3275
11350TIP3    H155541   5.189   2.179  13.958  0.7058 -0.4510 -0.2943
11350TIP3    H255542   5.182   2.064  13.860 -0.6970 -1.1112  0.5495
11351TIP3   OH255543   5.772   0.723   0.589  0.4111  0.7891 -0.0948
11351TIP3    H155544   5.844   0.767   0.636 -0.1971  0.5532  1.0981
11351TIP3    H255545   5.723   0.678   0.658 -1.1639  1.3238 -0.8193
11352TIP3   OH255546   5.160   6.055   6.504 -0.9473 -0.1296 -0.1351
11352TIP3    H155547   5.101   6.131   6.507 -0.7658  0.0784 -1.2936
11352TIP3    H255548   5.248   6.093   6.512 -0.8183 -0.1339 -1.3743
11353TIP3   OH255549   1.648   2.080  16.763  0.4779  0.1260 -0.1579
11353TIP3    H155550   1.657   2.057  16.671  0.6320  0.0461 -0.1230
11353TIP3    H255551   1.708   2.153  16.776  0.1335  0.4245 -0.2226
11354TIP3   OH255552   3.756   5.753   2.761 -0.3878  0.1470 -0.1018
11354TIP3    H155553   3.726   5.663   2.763 -0.6583  0.2325 -0.2534
11354TIP3    H255554   3.850   5.747   2.741 -0.3167 -0.1149  0.3133
11355TIP3   OH255555   4.885   4.339   0.832 -0.1682  0.1962 -0.2378
11355TIP3    H155556   4.859   4.405   0.768  0.4569 -1.1347 -1.9204
11355TIP3    H255557   4.972   4.366   0.860 -0.3055  0.5938 -0.1779
11356TIP3   OH255558   6.580   2.054  14.163 -0.6002 -0.3766  0.2137
11356TIP3    H155559   6.662   2.015  14.193 -1.5501 -2.5970  0.1649
11356TIP3    H255560   6.605   2.113  14.093  1.1323  0.6409  1.6002
11357TIP3   OH255561   6.513   0.652  10.821  0.3099  0.2330 -0.3947
11357TIP3    H155562   6.526   0.673  10.914  0.1738 -1.4322  0.0228
11357TIP3    H255563   6.466   0.569  10.821  0.5898  0.0436 -1.9673
11358TIP3   OH255564   4.957   5.901  16.626  0.0316  0.0562 -0.7310
11358TIP3    H155565   5.036   5.858  16.594  0.6084  0.5912 -0.0727
11358TIP3    H255566   4.943   5.975  16.567  0.0607 -0.0038 -0.8131
11359TIP3   OH255567   1.705   2.442  14.277  0.2136  0.0622 -0.0876
11359TIP3    H155568   1.791   2.403  14.286  1.2155  2.4198  1.5569
11359TIP3    H255569   1.657   2.412  14.355 -0.0700 -0.3275 -0.4098
11360TIP3   OH255570   3.429   2.875   0.952 -0.7992 -0.6202 -0.3185
11360TIP3    H155571   3.492   2.875   0.880 -0.0908 -0.9744  0.2826
11360TIP3    H255572   3.480   2.848   1.028 -1.4949 -0.0726  0.3583
11361TIP3   OH255573   4.985   3.269  13.896  0.4604 -0.0459  0.0129
11361TIP3    H155574   4.908   3.245  13.947 -0.1550  0.8103 -0.4879
11361TIP3    H255575   5.059   3.242  13.950 -0.1567 -2.3958 -0.1990
11362TIP3   OH255576   0.923   0.456  13.985 -0.1701 -0.0411  0.2312
11362TIP3    H155577   1.010   0.419  13.975 -0.3443 -0.2401 -0.6052
11362TIP3    H255578   0.889   0.462  13.896 -1.1973 -0.4246  0.5823
11363TIP3   OH255579   0.595   1.083   1.263  0.5469  0.5264 -0.2846
11363TIP3    H155580   0.668   1.117   1.211  0.0357  0.2900 -1.1734
11363TIP3    H255581   0.520   1.087   1.204  0.0419 -0.1575  0.3009
11364TIP3   OH255582   3.408   3.606  11.639 -0.0480 -0.3148  0.2002
11364TIP3    H155583   3.429   3.655  11.718 -0.8890  2.2855 -1.0897
11364TIP3    H255584   3.416   3.514  11.665 -0.5826  0.4321  3.3703
11365TIP3   OH255585   5.885   2.612   3.867  0.4934  0.3744 -0.0268
11365TIP3    H155586   5.827   2.561   3.924  1.3614  1.0803  1.5335
11365TIP3    H255587   5.825   2.662   3.811 -0.4003  0.2333  0.7716
11366TIP3   OH255588   1.151   5.194  16.125  0.1828 -0.0153 -0.1027
11366TIP3    H155589   1.166   5.099  16.136 -0.6050 -0.0154  1.1997
11366TIP3    H255590   1.143   5.206  16.031 -1.7379 -1.5956 -0.2180
11367TIP3   OH255591   3.979   5.926   4.648 -0.2927 -0.2454  0.0247
11367TIP3    H155592   4.058   5.979   4.652 -1.1228  0.9633  2.6909
11367TIP3    H255593   3.918   5.978   4.595 -0.3835  0.4587  0.7996
11368TIP3   OH255594   5.600   6.512   2.881 -0.0660  0.0418  0.1205
11368TIP3    H155595   5.645   6.519   2.965 -0.0848 -0.4261  0.1743
11368TIP3    H255596   5.664   6.471   2.822  0.0709  0.6910 -0.1944
11369TIP3   OH255597   2.540   1.674  11.806 -0.0010  0.6537  0.2605
11369TIP3    H155598   2.538   1.677  11.711  1.7160  0.7726  0.1808
11369TIP3    H255599   2.600   1.602  11.826 -0.4561  0.5344  1.2528
11370TIP3   OH255600   0.915   2.769   1.850  0.3627 -0.0324 -0.5423
11370TIP3    H155601   0.984   2.835   1.853 -1.0688  1.4977  2.1807
11370TIP3    H255602   0.840   2.813   1.810  0.4421 -1.2474 -2.1532
11371TIP3   OH255603   4.012   4.443  14.293  0.6658 -0.0333 -0.0643
11371TIP3    H155604   3.925   4.412  14.270  0.6860  0.1935 -0.4518
11371TIP3    H255605   4.069   4.366  14.284  0.1257 -0.8319  2.5612
11372TIP3   OH255606   1.253   6.687  14.342  0.3274  0.4769 -0.1292
11372TIP3    H155607   1.198   6.748  14.392 -0.1208 -0.8451  1.0624
11372TIP3    H255608   1.203   6.670  14.261 -0.7301 -0.1660  0.6310
11373TIP3   OH255609   0.273   6.636  13.426 -0.3471  0.0462  0.1435
11373TIP3    H155610   0.334   6.647  13.353  0.2354 -1.7647  0.3153
11373TIP3    H255611   0.205   6.701  13.409  0.5555  0.7040 -1.1771
11374TIP3   OH255612   0.367   2.864  14.559 -0.2818  0.6791  1.0989
11374TIP3    H155613   0.380   2.933  14.624 -1.0707  1.8298  0.0902
11374TIP3    H255614   0.388   2.906  14.475  1.7869 -1.0636  0.6491
11375TIP3   OH255615   1.478   0.856  16.959 -0.2083  0.0895 -0.8464
11375TIP3    H155616   1.429   0.920  17.012  1.2868 -1.4257  2.6940
11375TIP3    H255617   1.413   0.792  16.931 -1.0682  0.9932 -0.9489
11376TIP3   OH255618   0.266   4.209  12.422 -0.6895 -0.3648 -0.5556
11376TIP3    H155619   0.278   4.249  12.508 -0.8932 -2.2765  0.4190
11376TIP3    H255620   0.230   4.279  12.368 -2.0712  0.4905  1.3518
11377TIP3   OH255621   4.244   2.816  15.210 -0.2131  0.2047 -0.7224
11377TIP3    H155622   4.253   2.723  15.230 -0.1347  0.2658 -0.4648
11377TIP3    H255623   4.333   2.851  15.215 -0.4820  0.7363  1.4701
11378TIP3   OH255624   4.788   5.814  15.169  0.0179  0.2478 -0.6921
11378TIP3    H155625   4.850   5.835  15.099 -0.5695  1.3926 -0.8943
11378TIP3    H255626   4.704   5.804  15.124 -0.1411 -0.2726 -0.2911
11379TIP3   OH255627   4.656   2.550   5.157  0.0030 -0.4267  0.0811
11379TIP3    H155628   4.595   2.616   5.124  0.2803  0.2663  0.9111
11379TIP3    H255629   4.605   2.498   5.219 -0.0085 -0.4982  0.0126
11380TIP3   OH255630   4.281   4.742   4.443  0.0853  0.2316 -0.2420
11380TIP3    H155631   4.212   4.742   4.509 -0.7440  0.3441 -1.0788
11380TIP3    H255632   4.326   4.826   4.455 -1.5424  1.3352 -1.2722
11381TIP3   OH255633   6.659   3.987   2.359  0.3885 -0.0576  0.0010
11381TIP3    H155634   6.656   3.947   2.446 -0.3546  0.7316  0.3539
11381TIP3    H255635   6.744   3.960   2.323 -0.1904 -2.1590  0.1027
11382TIP3   OH255636   2.719   1.313   2.067 -0.1021  0.1089 -0.1493
11382TIP3    H155637   2.716   1.217   2.059 -1.3254  0.0721  0.5264
11382TIP3    H255638   2.680   1.344   1.985  1.3076  0.0715 -0.8589
11383TIP3   OH255639   3.749   5.128  15.842  0.2437  0.4779  0.0903
11383TIP3    H155640   3.683   5.170  15.896  0.6096 -0.2308  1.1081
11383TIP3    H255641   3.707   5.118  15.756 -0.3405  1.6021  0.2342
11384TIP3   OH255642   1.712   4.146   2.357 -0.0815 -0.6846 -0.2904
11384TIP3    H155643   1.700   4.061   2.316 -0.7240 -0.1453 -1.2649
11384TIP3    H255644   1.635   4.157   2.413 -0.0528 -0.6968 -0.2481
11385TIP3   OH255645   3.016   3.636   1.749 -0.2190 -0.2941 -0.4339
11385TIP3    H155646   2.928   3.604   1.729  0.5080 -1.0204 -2.7636
11385TIP3    H255647   3.066   3.623   1.668  1.5325  1.8888  0.1770
11386TIP3   OH255648   5.337   2.605  17.433 -0.5203 -0.1588 -0.5080
11386TIP3    H155649   5.285   2.560  17.500 -0.5234  0.3388 -0.1661
11386TIP3    H255650   5.369   2.535  17.376  0.0267 -0.6665  0.3991
11387TIP3   OH255651   5.599   1.915  16.188 -0.2051  0.0429 -0.0942
11387TIP3    H155652   5.610   1.860  16.110  0.5501  1.0328 -0.7020
11387TIP3    H255653   5.524   1.970  16.169 -0.9927 -0.7838  0.5365
11388TIP3   OH255654   1.545   5.866   1.050  0.2481  0.0074  0.1304
11388TIP3    H155655   1.531   5.777   1.020  1.9187  0.3734 -2.0099
11388TIP3    H255656   1.622   5.860   1.108  0.8265  0.1343 -0.6107
11389TIP3   OH255657   2.296   0.037   3.705 -0.4020 -0.2339 -0.2893
11389TIP3    H155658   2.320  -0.047   3.745 -0.1906  0.2024  0.5334
11389TIP3    H255659   2.312   0.101   3.775  1.3185  0.7433 -1.5100
11390TIP3   OH255660   2.068   3.603   4.655  0.2323 -0.3116  0.4089
11390TIP3    H155661   2.104   3.677   4.704 -0.7182 -0.8479  2.0113
11390TIP3    H255662   2.144   3.560   4.617  0.8149  1.3847 -0.4732
11391TIP3   OH255663   6.738   6.074  15.304 -0.1943  0.4031 -0.5378
11391TIP3    H155664   6.645   6.062  15.323  0.2400 -2.7590  0.0979
11391TIP3    H255665   6.740   6.144  15.238 -2.8890  1.2963  0.2038
11392TIP3   OH255666   5.914   0.905  10.871  0.6496 -0.1539 -0.2709
11392TIP3    H155667   5.882   0.843  10.805 -0.3070 -0.1775  0.1999
11392TIP3    H255668   5.973   0.963  10.822  0.1684 -0.3331 -1.0909
11393TIP3   OH255669   2.655   4.902   0.746  0.2227  0.0189 -0.2384
11393TIP3    H155670   2.604   4.970   0.702  1.8577  1.1763 -0.4212
11393TIP3    H255671   2.644   4.922   0.839 -1.1015 -0.8489 -0.1814
11394TIP3   OH255672   0.477   6.245   5.008  0.6959  0.0957  0.1866
11394TIP3    H155673   0.441   6.184   5.072 -0.5924 -0.1101 -0.7037
11394TIP3    H255674   0.500   6.322   5.059  0.4154 -0.3578  1.0151
11395TIP3   OH255675   0.119   1.668   4.185 -0.3163  0.5566  0.0257
11395TIP3    H155676   0.127   1.712   4.270 -0.1506  0.4415  0.0707
11395TIP3    H255677   0.197   1.695   4.137 -0.3053  0.4554 -0.0137
11396TIP3   OH255678   2.562   5.060   0.329  0.2970 -0.2748  0.3852
11396TIP3    H155679   2.626   4.991   0.313  0.5389 -0.1973  0.9785
11396TIP3    H255680   2.611   5.127   0.378  0.1373  0.4371 -0.4046
11397TIP3   OH255681   5.393   6.433   3.793 -0.2403  0.0163 -0.7516
11397TIP3    H155682   5.462   6.494   3.818 -0.2704 -0.8446  1.6195
11397TIP3    H255683   5.438   6.367   3.740  0.5595  0.0415 -0.1258
11398TIP3   OH255684   2.588   1.159   4.535 -0.4862  0.0920 -0.3130
11398TIP3    H155685   2.648   1.228   4.562 -0.2757  0.4481 -1.5928
11398TIP3    H255686   2.539   1.197   4.461 -0.2223 -1.1750 -1.1826
11399TIP3   OH255687   4.831   4.427   1.160 -0.1238  0.0140 -0.1808
11399TIP3    H155688   4.804   4.352   1.106 -0.2797 -0.7858  0.9619
11399TIP3    H255689   4.926   4.420   1.165  0.0106  0.8318 -1.3829
11400TIP3   OH255690   1.687   4.705  17.239 -0.4155  0.3634  0.0391
11400TIP3    H155691   1.667   4.681  17.329 -0.5631 -0.6636 -0.2469
11400TIP3    H255692   1.751   4.776  17.246  0.0414 -0.1220  0.9418
11401TIP3   OH255693   5.207   3.612  10.646 -0.1152  0.6453 -0.2063
11401TIP3    H155694   5.185   3.583  10.735  3.7191  0.9230  1.0220
11401TIP3    H255695   5.128   3.596  10.595 -2.1644 -0.4637  3.0205
11402TIP3   OH255696   4.824   4.837  11.205  0.3947 -0.7495  0.2930
11402TIP3    H155697   4.889   4.887  11.254  0.0976  0.5100 -0.5558
11402TIP3    H255698   4.874   4.795  11.135  0.5670 -1.2640  0.7172
11403TIP3   OH255699   2.532   0.088  13.086  0.5241  0.2528  0.3721
11403TIP3    H155700   2.617   0.076  13.043  1.3169  1.4394  1.5600
11403TIP3    H255701   2.510   0.180  13.072 -0.2799  0.1046  0.6047
11404TIP3   OH255702   4.270   6.292   5.316  0.1722  0.1603  0.2592
11404TIP3    H155703   4.181   6.260   5.303 -0.5048  1.3620  1.6396
11404TIP3    H255704   4.264   6.387   5.307  1.0507  0.3770  1.5813
11405TIP3   OH255705   3.979   1.907   4.326 -0.3160  0.5470  0.0828
11405TIP3    H155706   4.018   1.894   4.413 -1.4351  0.3698  0.5739
11405TIP3    H255707   3.888   1.932   4.344 -0.5636  0.5085 -1.0432
11406TIP3   OH255708   1.156   0.268  13.158 -0.3059  0.7889 -0.0008
11406TIP3    H155709   1.230   0.330  13.159  0.2741  0.1140 -0.3184
11406TIP3    H255710   1.177   0.206  13.228  0.5244 -0.6496 -1.4710
11407TIP3   OH255711   3.003   2.124  15.939 -0.4397  0.2701 -0.3395
11407TIP3    H155712   3.037   2.160  15.857  0.1241 -0.8059 -0.5877
11407TIP3    H255713   3.070   2.063  15.969 -2.4929 -2.6993 -1.3812
11408TIP3   OH255714   1.687   2.843   3.634  0.5226 -0.4032  0.0391
11408TIP3    H155715   1.637   2.781   3.580 -1.1061  1.8688 -1.2582
11408TIP3    H255716   1.758   2.791   3.671 -0.4984 -2.9246 -1.2897
11409TIP3   OH255717   4.636   2.478   6.072  0.3364 -0.0893 -0.2867
11409TIP3    H155718   4.622   2.573   6.075  1.2773  0.0520 -0.0875
11409TIP3    H255719   4.590   2.444   6.148 -1.5104 -0.0189 -1.2980
11410TIP3   OH255720   5.343   6.200  15.722  0.0688 -0.2989  0.0736
11410TIP3    H155721   5.395   6.236  15.650  1.7524 -0.5305  1.1348
11410TIP3    H255722   5.255   6.192  15.685  0.8881 -0.4923 -2.0023
11411TIP3   OH255723   6.435   5.695   5.303  0.0614  0.4649 -0.3707
11411TIP3    H155724   6.528   5.674   5.307 -0.1275 -0.2591  0.4067
11411TIP3    H255725   6.393   5.633   5.362 -0.9177  0.8058 -0.6802
11412TIP3   OH255726   1.565   4.045  11.571  0.5979 -0.0706  0.0495
11412TIP3    H155727   1.596   4.122  11.524 -0.6215 -1.1547 -2.7967
11412TIP3    H255728   1.643   3.991  11.584  1.7425  2.1109  3.3860
11413TIP3   OH255729   2.992   3.533  13.738 -0.0532 -0.0269 -0.2246
11413TIP3    H155730   3.001   3.503  13.648 -0.2474  0.2136 -0.3252
11413TIP3    H255731   2.907   3.500  13.767  1.4772 -3.2255  1.0856
11414TIP3   OH255732   5.468   0.709   0.130  0.4926 -0.5941 -0.4261
11414TIP3    H155733   5.553   0.672   0.153  0.2804 -0.1848  1.1388
11414TIP3    H255734   5.421   0.716   0.214 -0.8533 -0.2474 -1.1731
11415TIP3   OH255735   5.993   3.387  15.450  0.0180  0.1008 -0.2992
11415TIP3    H155736   5.984   3.482  15.450  2.6535  0.5859  3.3025
11415TIP3    H255737   6.016   3.364  15.360  1.1509  3.1225 -0.8840
11416TIP3   OH255738   2.743   1.212   1.495 -0.0407  0.3587 -0.1932
11416TIP3    H155739   2.816   1.210   1.433  0.4034  1.1771  0.2772
11416TIP3    H255740   2.674   1.162   1.452  1.1240 -1.3179 -0.2183
11417TIP3   OH255741   0.172   2.991   5.776 -0.1732 -0.6516 -0.1503
11417TIP3    H155742   0.147   3.060   5.714  0.4554 -0.5088 -0.2502
11417TIP3    H255743   0.268   2.990   5.773 -0.1679 -1.2734  0.1321
11418TIP3   OH255744   0.027   1.952   0.601  0.1028  0.4151  0.3512
11418TIP3    H155745   0.116   1.947   0.636  1.1639  1.4284 -1.9712
11418TIP3    H255746   0.024   2.035   0.554 -2.1453  0.4626  0.4540
11419TIP3   OH255747   2.226   5.274  11.303  0.0545 -0.1406  0.1367
11419TIP3    H155748   2.185   5.190  11.279  1.9012 -1.2655  0.6902
11419TIP3    H255749   2.315   5.268  11.268  1.5193 -0.0981  3.4428
11420TIP3   OH255750   5.587   4.218   2.726  0.2090 -0.0215 -0.4581
11420TIP3    H155751   5.517   4.272   2.690 -0.6827 -0.5411  0.4501
11420TIP3    H255752   5.602   4.151   2.659  0.3484  0.5265 -0.9756
11421TIP3   OH255753   6.676   2.025  11.608  0.0754 -0.2609 -0.1932
11421TIP3    H155754   6.665   1.977  11.525 -1.5313 -0.7852  0.2742
11421TIP3    H255755   6.673   2.117  11.582 -2.2118 -0.3707 -0.6200
11422TIP3   OH255756   6.543   1.504  15.088 -0.3409 -0.0323  0.2135
11422TIP3    H155757   6.495   1.587  15.088 -0.3625 -0.0362 -0.3298
11422TIP3    H255758   6.565   1.488  15.180  0.0581  0.8005  0.2761
11423TIP3   OH255759   6.298   0.284  16.599 -0.2965  0.9813 -0.4654
11423TIP3    H155760   6.370   0.313  16.543 -0.5786  1.3379 -0.6438
11423TIP3    H255761   6.303   0.188  16.596  0.8065  1.0016  0.3463
11424TIP3   OH255762   0.084   5.713   1.886 -0.3637  0.0302 -0.7002
11424TIP3    H155763   0.031   5.674   1.956  1.3520  0.9012  1.1973
11424TIP3    H255764   0.142   5.642   1.858  0.4671  0.2372  0.3969
11425TIP3   OH255765   5.846   0.476  12.555 -0.1575 -0.9275 -0.8404
11425TIP3    H155766   5.814   0.500  12.642  0.8251  0.2452 -0.7929
11425TIP3    H255767   5.927   0.428  12.571  0.6031  0.2262 -1.1317
11426TIP3   OH255768   5.599   3.923   5.457  0.0650 -0.0045  0.0852
11426TIP3    H155769   5.573   3.839   5.419 -0.1248  0.0744  0.0395
11426TIP3    H255770   5.518   3.959   5.493  0.0622  0.3664 -0.2894
11427TIP3   OH255771   3.203   5.385   0.035  0.0785 -0.3215  0.0388
11427TIP3    H155772   3.163   5.374  -0.051  0.5976 -1.5651 -0.0668
11427TIP3    H255773   3.200   5.297   0.074  1.5040 -0.1672  0.5435
11428TIP3   OH255774   0.742   2.137   4.414 -0.1437 -0.2744  0.6306
11428TIP3    H155775   0.777   2.223   4.436 -0.0835 -0.7102  2.3209
11428TIP3    H255776   0.648   2.144   4.433 -0.3815 -0.2150 -0.4648
11429TIP3   OH255777   0.970   1.742  17.218 -0.0556 -0.6353 -1.5131
11429TIP3    H155778   1.016   1.690  17.283 -1.1440  0.5368  0.2714
11429TIP3    H255779   0.898   1.687  17.188 -0.5613 -0.5842 -0.4349
11430TIP3   OH255780   0.063   0.967  11.660  0.4554 -0.0658  0.1907
11430TIP3    H155781   0.150   0.953  11.623  0.7619 -0.4418  1.0227
11430TIP3    H255782   0.007   0.904  11.615  0.4403  0.6846 -0.8871
11431TIP3   OH255783   5.976   1.422   3.767 -0.0468  0.6149 -0.2974
11431TIP3    H155784   6.062   1.462   3.775 -0.9281  2.5224  0.1320
11431TIP3    H255785   5.920   1.491   3.732 -1.3781 -0.6301 -0.7228
11432TIP3   OH255786   0.653   2.968  17.130 -0.5403 -0.5267 -0.1006
11432TIP3    H155787   0.628   2.877  17.117 -1.2492 -0.0704 -2.4123
11432TIP3    H255788   0.729   2.981  17.073  0.1893  0.0801  0.9804
11433TIP3   OH255789   0.430   5.068  15.705 -0.2527  0.3804 -0.3704
11433TIP3    H155790   0.376   5.010  15.652 -0.1700  0.4209 -0.4995
11433TIP3    H255791   0.377   5.087  15.783 -0.2541  0.0824 -0.2993
11434TIP3   OH255792   6.541   5.098   3.542 -0.5342 -0.4347 -1.3089
11434TIP3    H155793   6.492   5.180   3.542 -0.7401 -0.4628  1.6025
11434TIP3    H255794   6.477   5.031   3.518 -1.9463 -0.4183  2.0192
11435TIP3   OH255795   6.403   6.059  12.458  0.0969  0.3975  0.5795
11435TIP3    H155796   6.355   6.002  12.519  0.6824  1.2133  1.8472
11435TIP3    H255797   6.339   6.124  12.430 -0.4829 -0.6397 -0.6112
11436TIP3   OH255798   2.073   6.421   5.692  0.3334 -0.1778 -0.8059
11436TIP3    H155799   2.084   6.373   5.774 -0.4281 -0.5719 -0.9259
11436TIP3    H255800   2.161   6.425   5.655  0.5121 -0.9272 -0.4788
11437TIP3   OH255801   2.670   1.822  13.834  0.2099 -0.2777  0.2360
11437TIP3    H155802   2.578   1.810  13.855  0.5072 -3.0936  0.2643
11437TIP3    H255803   2.715   1.817  13.919  0.4008  1.5872  0.2851
11438TIP3   OH255804   5.239   3.518   0.759  0.6817  0.0045  0.1426
11438TIP3    H155805   5.249   3.524   0.664 -0.3926  0.6101  0.0505
11438TIP3    H255806   5.180   3.590   0.782  0.0345 -0.8050  1.1214
11439TIP3   OH255807   5.916   1.747   1.141  0.2728  0.0463  0.2146
11439TIP3    H155808   5.989   1.698   1.179  0.6687  0.9919  0.6989
11439TIP3    H255809   5.854   1.680   1.113  1.5069 -0.8052 -0.5970
11440TIP3   OH255810   4.986   1.585  12.477 -0.1874 -0.0355 -0.0103
11440TIP3    H155811   5.030   1.668  12.494  1.6073 -1.0885  0.8745
11440TIP3    H255812   4.953   1.557  12.563  0.6636 -0.9687  0.0368
11441TIP3   OH255813   0.759   4.754   1.897  0.6224  0.8827 -0.4452
11441TIP3    H155814   0.816   4.745   1.973  0.0835  1.3433  0.0210
11441TIP3    H255815   0.801   4.701   1.829  0.0127 -1.3149  0.7893
11442TIP3   OH255816   0.815   4.899   5.928  0.3338  0.9573 -0.2499
11442TIP3    H155817   0.735   4.858   5.963  0.9188 -0.7041 -0.7509
11442TIP3    H255818   0.811   4.989   5.958 -1.1335  0.5903  0.7641
11443TIP3   OH255819   2.570   3.623  12.607  0.1791  0.0694 -0.1647
11443TIP3    H155820   2.567   3.711  12.569  1.1162 -0.4167 -1.4452
11443TIP3    H255821   2.480   3.591  12.601  0.1621  0.3060 -1.2927
11444TIP3   OH255822   3.607   4.037  15.358 -0.0643 -0.2024  0.0721
11444TIP3    H155823   3.532   4.071  15.309  0.1594  0.9332  0.4741
11444TIP3    H255824   3.571   3.967  15.412 -0.5742 -0.5493 -0.6940
11445TIP3   OH255825   4.323   4.653  11.425 -0.1035 -0.4034 -0.3275
11445TIP3    H155826   4.327   4.711  11.349 -0.6715 -0.2750 -0.2596
11445TIP3    H255827   4.338   4.566  11.389 -0.1018 -0.3132 -0.5481
11446TIP3   OH255828   6.741   1.466  17.272  0.3852 -0.1513 -0.1961
11446TIP3    H155829   6.652   1.502  17.274  0.3299  0.3108 -3.7311
11446TIP3    H255830   6.798   1.540  17.293  0.0140 -0.4952  2.2714
11447TIP3   OH255831   6.221   0.119   6.539  0.2291 -0.1701 -0.8856
11447TIP3    H155832   6.212   0.214   6.530  0.1499 -0.1888 -1.0100
11447TIP3    H255833   6.316   0.106   6.545  0.1733  0.0359  0.6314
11448TIP3   OH255834   0.092   2.969  14.630 -0.0789  0.4055  0.0407
11448TIP3    H155835   0.185   2.992  14.633  0.4299 -1.2072 -1.4570
11448TIP3    H255836   0.055   3.025  14.563  0.0434  0.3464 -0.0767
11449TIP3   OH255837   3.478   1.460   3.465 -0.0787  0.0163 -0.0905
11449TIP3    H155838   3.404   1.416   3.507  0.9020 -0.6815  0.9394
11449TIP3    H255839   3.526   1.389   3.422  0.9501  0.2160  0.7122
11450TIP3   OH255840   1.003   5.541   6.548  0.3901 -0.0437  0.4090
11450TIP3    H155841   0.984   5.490   6.469  0.1211  2.0432 -0.9675
11450TIP3    H255842   1.088   5.580   6.531  1.8715 -2.0692  2.6049
11451TIP3   OH255843   3.368   2.803  14.605 -1.0238 -0.4081 -0.0702
11451TIP3    H155844   3.430   2.796  14.533 -1.1989  1.5472 -0.4543
11451TIP3    H255845   3.282   2.789  14.564 -1.0998  0.3898 -0.1822
11452TIP3   OH255846   5.215   1.041   5.892 -0.4524  0.3604  0.3028
11452TIP3    H155847   5.229   1.126   5.851 -0.6123  0.0090 -0.4986
11452TIP3    H255848   5.302   1.003   5.901 -0.4176  0.4335  0.2732
11453TIP3   OH255849   0.558   0.709  15.047 -0.5879  0.5489 -0.3826
11453TIP3    H155850   0.500   0.777  15.080 -1.4706 -0.9639  1.3409
11453TIP3    H255851   0.641   0.755  15.031 -0.8428  1.8822  1.6722
11454TIP3   OH255852   0.967   3.178   5.635 -0.0273 -0.1633  0.9150
11454TIP3    H155853   0.965   3.097   5.585  0.1649  0.3207  0.0946
11454TIP3    H255854   0.912   3.239   5.586 -0.2609  0.1776  1.5762
11455TIP3   OH255855   2.654   3.582  16.061 -0.0249  0.1645 -0.0637
11455TIP3    H155856   2.565   3.559  16.089 -0.1006  2.3384  1.8015
11455TIP3    H255857   2.641   3.624  15.975 -0.2424 -3.1413 -1.7921
11456TIP3   OH255858   2.634   5.819   4.962  0.1773  0.4802 -0.1903
11456TIP3    H155859   2.618   5.839   5.054 -3.6139  0.2524 -0.6379
11456TIP3    H255860   2.618   5.725   4.954 -0.1099  0.5959 -1.1511
11457TIP3   OH255861   5.924   6.680   2.245  0.0534 -0.1520 -0.1850
11457TIP3    H155862   5.899   6.622   2.318  0.6172  1.4386  1.3292
11457TIP3    H255863   5.913   6.625   2.167 -0.1133 -2.0736  1.1076
11458TIP3   OH255864   5.658   0.127   3.921  0.0204  0.4161 -0.1487
11458TIP3    H155865   5.607   0.064   3.972 -0.7904 -0.0351 -1.4764
11458TIP3    H255866   5.661   0.090   3.833  1.6792  1.0158 -0.3765
11459TIP3   OH255867   3.055   3.245  17.054 -0.5119 -0.0435  0.0457
11459TIP3    H155868   3.035   3.193  17.132  2.0312 -1.5383 -0.1721
11459TIP3    H255869   3.038   3.185  16.981  1.2994 -0.2309 -0.2714
11460TIP3   OH255870   2.527   2.085  12.957  0.0728 -0.1178 -0.5182
11460TIP3    H155871   2.502   2.001  12.995 -0.0829  0.9661  1.9486
11460TIP3    H255872   2.623   2.088  12.965  0.1879 -0.4704 -1.5874
11461TIP3   OH255873   6.602   2.161  17.407 -0.3104 -0.5221 -0.5014
11461TIP3    H155874   6.600   2.200  17.319  2.6390  1.5272  0.1912
11461TIP3    H255875   6.614   2.067  17.391  0.5095 -0.1616 -2.3327
11462TIP3   OH255876   0.465   1.060   3.280  0.3478 -0.2178 -0.1494
11462TIP3    H155877   0.480   1.061   3.374  0.0357  1.4475 -0.0804
11462TIP3    H255878   0.394   0.998   3.267 -1.3282  1.3320  1.0505
11463TIP3   OH255879   0.041   5.262  15.872 -0.1674 -0.0961 -0.1919
11463TIP3    H155880  -0.000   5.325  15.812  1.5729  0.9795 -0.3293
11463TIP3    H255881   0.026   5.298  15.959 -1.0634 -0.6794 -0.0846
11464TIP3   OH255882   0.414   1.287  16.291  0.8046 -0.5733  0.2692
11464TIP3    H155883   0.395   1.381  16.286  2.3956 -0.2226  0.0128
11464TIP3    H255884   0.437   1.262  16.201  0.7464 -1.1217  0.4019
11465TIP3   OH255885   3.711   6.192  14.403 -0.2878  0.1866 -0.5624
11465TIP3    H155886   3.627   6.239  14.407  0.2697  1.3166 -1.6059
11465TIP3    H255887   3.687   6.103  14.378 -1.1929  0.4575 -0.7065
11466TIP3   OH255888   3.591   2.214  13.159 -0.4626  0.0648  0.2497
11466TIP3    H155889   3.520   2.161  13.123 -1.7755  0.8835  1.5451
11466TIP3    H255890   3.568   2.304  13.136  0.4711  0.3051  0.1996
11467TIP3   OH255891   3.608   5.614   0.657 -0.1502 -0.4368  0.2305
11467TIP3    H155892   3.515   5.638   0.649 -0.0268  0.1243  0.3990
11467TIP3    H255893   3.611   5.560   0.736 -0.5922 -1.8816 -0.7132
11468TIP3   OH255894   3.736   5.429   0.196 -0.2460 -0.4022 -0.1662
11468TIP3    H155895   3.664   5.367   0.201 -2.2395  1.8383  0.8695
11468TIP3    H255896   3.727   5.484   0.274  2.4260  0.1870 -0.1482
11469TIP3   OH255897   0.717   6.618  15.495 -0.9397  0.0152 -0.5609
11469TIP3    H155898   0.661   6.547  15.527 -1.6017  0.1355 -1.4139
11469TIP3    H255899   0.737   6.669  15.573 -2.9928  0.6330 -0.3847
11470TIP3   OH255900   1.211   5.128   0.860  0.1725 -0.3211 -0.2093
11470TIP3    H155901   1.228   5.037   0.835  1.1715  0.2227 -1.5686
11470TIP3    H255902   1.138   5.155   0.804 -0.8103 -0.5662  0.9054
11471TIP3   OH255903   6.044   4.431   3.189  0.2822  0.1507  0.1831
11471TIP3    H155904   6.054   4.449   3.095 -0.3517  0.1566  0.1153
11471TIP3    H255905   6.098   4.353   3.204  1.9746  1.2677  0.2142
11472TIP3   OH255906   1.672   4.793   1.432 -0.1500 -0.4043  0.9460
11472TIP3    H155907   1.703   4.708   1.401 -2.0629 -2.6237  4.3201
11472TIP3    H255908   1.728   4.813   1.507  0.7768  1.8250 -0.2616
11473TIP3   OH255909   3.125   3.872  15.622 -0.2655 -0.3838  0.0177
11473TIP3    H155910   3.148   3.886  15.714  1.3093  0.8187 -0.5221
11473TIP3    H255911   3.172   3.941  15.575 -0.5990 -1.3235 -1.7614
11474TIP3   OH255912   6.170   0.419  15.628 -0.4697  0.0079  0.0488
11474TIP3    H155913   6.101   0.463  15.578 -0.5816 -1.3850 -1.0856
11474TIP3    H255914   6.125   0.387  15.706 -0.7488  0.4830  0.0901
11475TIP3   OH255915   5.566   1.074   6.339  0.0287 -0.0712  0.3687
11475TIP3    H155916   5.532   1.135   6.274 -2.4415 -0.2460  1.4072
11475TIP3    H255917   5.509   1.086   6.415  0.7013 -2.3133  1.2992
11476TIP3   OH255918   3.564   5.900   4.089  0.4327 -0.2381  0.2346
11476TIP3    H155919   3.627   5.971   4.080  1.6328 -1.1823  0.7676
11476TIP3    H255920   3.490   5.939   4.136  0.9066  0.7403  0.1913
11477TIP3   OH255921   4.947   1.862  12.780 -0.6488 -0.1676  0.2196
11477TIP3    H155922   4.968   1.852  12.872 -1.5712 -0.4289  0.4127
11477TIP3    H255923   5.021   1.912  12.743  1.4146 -2.8999  0.3664
11478TIP3   OH255924   4.094   5.128  13.941 -0.2826  0.4403  0.2693
11478TIP3    H155925   4.005   5.101  13.965  0.5628 -2.2530  0.6879
11478TIP3    H255926   4.121   5.186  14.012 -1.1347 -0.0464  1.0105
11479TIP3   OH255927   5.096   0.415   3.800  0.0073 -0.1399 -0.6124
11479TIP3    H155928   5.107   0.330   3.758  1.3125  0.0487 -0.6920
11479TIP3    H255929   5.016   0.451   3.761 -0.6691 -1.3941 -0.4431
11480TIP3   OH255930   2.453   5.448   2.269 -0.0250 -0.0857  0.1005
11480TIP3    H155931   2.440   5.354   2.253  1.3365  0.2036 -3.5817
11480TIP3    H255932   2.403   5.491   2.200 -0.5287  1.9707  1.6577
11481TIP3   OH255933   6.323   5.345  16.284  0.3007  0.1721 -0.1602
11481TIP3    H155934   6.332   5.420  16.343 -0.8255  0.9098 -0.8640
11481TIP3    H255935   6.408   5.301  16.286  1.0752  1.6291  0.0716
11482TIP3   OH255936   3.035   4.894  16.665 -0.0351 -0.4534  0.5817
11482TIP3    H155937   3.112   4.852  16.628  0.5741 -1.3867  2.7391
11482TIP3    H255938   2.963   4.833  16.646 -0.3151  0.4608 -1.5092
11483TIP3   OH255939   5.875   5.132   1.952 -0.2136 -0.5720  0.1769
11483TIP3    H155940   5.892   5.208   2.007  0.3287 -1.9157  1.9455
11483TIP3    H255941   5.780   5.132   1.940 -0.1652  0.6852 -0.3311
11484TIP3   OH255942   2.085   1.860   4.556 -0.6111 -0.4626  0.0255
11484TIP3    H155943   2.066   1.806   4.479 -0.1628  0.0429 -0.4516
11484TIP3    H255944   2.054   1.948   4.532 -0.8716 -0.3928  0.5976
11485TIP3   OH255945   5.311   0.752   4.060 -0.2852 -0.5085 -0.1578
11485TIP3    H155946   5.282   0.662   4.052 -0.1737 -0.5573 -0.0230
11485TIP3    H255947   5.324   0.782   3.970  2.7489 -1.6276 -0.1800
11486TIP3   OH255948   4.423   5.066   2.327 -0.0283 -0.4314 -0.0440
11486TIP3    H155949   4.403   5.134   2.391  0.6135  0.3277 -0.6326
11486TIP3    H255950   4.417   4.984   2.376 -2.3515 -0.1134  0.3280
11487TIP3   OH255951   4.626   2.797   6.058  0.3546 -0.0928  0.1886
11487TIP3    H155952   4.695   2.793   5.993  0.7230  0.9790  0.4844
11487TIP3    H255953   4.664   2.758   6.137 -0.4080 -2.2790 -0.4523
11488TIP3   OH255954   4.932   0.654  16.210 -0.1388 -0.5251  0.2145
11488TIP3    H155955   4.939   0.712  16.286 -0.1971  0.0121 -0.1797
11488TIP3    H255956   4.841   0.661  16.183  0.2246  0.5301 -0.8439
11489TIP3   OH255957   5.281   5.727   0.456 -0.3916 -0.1847  0.3057
11489TIP3    H155958   5.291   5.712   0.363 -1.1490 -0.4213  0.2542
11489TIP3    H255959   5.328   5.809   0.473  1.4317 -1.1481  0.0916
11490TIP3   OH255960   3.004   3.302  12.093  0.6410  0.1826  0.3626
11490TIP3    H155961   2.913   3.325  12.113  1.1222  3.1553 -0.3699
11490TIP3    H255962   3.047   3.303  12.179  0.4980  1.7047  0.4573
11491TIP3   OH255963   1.424   5.947  15.682  0.5961 -0.6530 -0.1020
11491TIP3    H155964   1.375   5.959  15.601  2.5203  0.0378 -1.2170
11491TIP3    H255965   1.403   6.025  15.734 -0.5043 -1.0140  0.0334
11492TIP3   OH255966   4.608   0.800   5.859 -0.3893  0.7664 -0.8438
11492TIP3    H155967   4.613   0.799   5.954 -0.5618 -1.1769 -0.8062
11492TIP3    H255968   4.657   0.878   5.833  1.8127  0.0288  0.7497
11493TIP3   OH255969   2.630   6.012   4.607 -0.0636 -0.1714 -0.4063
11493TIP3    H155970   2.641   6.089   4.661 -0.4024  1.8938 -3.0805
11493TIP3    H255971   2.571   5.955   4.657  1.1894  0.6570  2.1729
11494TIP3   OH255972   1.245   3.248   5.645  0.0837  0.0822 -0.3500
11494TIP3    H155973   1.205   3.186   5.705 -0.3753  0.4183 -0.3101
11494TIP3    H255974   1.180   3.317   5.634  1.5176  1.8538  1.5742
11495TIP3   OH255975   3.278   4.237   2.509  0.4161  0.2301 -0.2342
11495TIP3    H155976   3.254   4.205   2.596 -0.8792  0.5650 -0.4566
11495TIP3    H255977   3.198   4.274   2.473  1.2064  1.1455 -1.1286
11496TIP3   OH255978   1.610   0.079  14.152  0.0435 -0.3027  0.3115
11496TIP3    H155979   1.705   0.085  14.154  0.0542 -0.5681  1.4617
11496TIP3    H255980   1.591  -0.009  14.183 -0.5413 -1.0916 -2.0493
11497TIP3   OH255981   5.491   0.644   1.537 -0.3105 -0.5127  0.2137
11497TIP3    H155982   5.539   0.583   1.481  1.9068  0.6554  0.7213
11497TIP3    H255983   5.473   0.719   1.481  0.8992  0.1828  0.7293
11498TIP3   OH255984   4.494   4.024  11.094 -0.0858  0.0263 -0.2792
11498TIP3    H155985   4.404   4.005  11.069  0.1910  0.9595 -2.2183
11498TIP3    H255986   4.490   4.110  11.136 -0.0122  0.5414 -1.2842
11499TIP3   OH255987   0.308   3.991  12.053 -0.0248 -0.0301  0.1688
11499TIP3    H155988   0.351   4.008  12.137 -0.1441 -0.0134  0.2269
11499TIP3    H255989   0.326   4.070  12.001  1.4115 -0.6891 -0.3970
11500TIP3   OH255990   4.782   6.173   1.639 -0.8770 -0.0847 -0.6972
11500TIP3    H155991   4.758   6.262   1.614  0.4804  0.9584  1.4612
11500TIP3    H255992   4.869   6.159   1.601 -0.4479  0.0913  0.1977
11501TIP3   OH255993   0.824   3.473  12.244  0.0903 -0.0010 -0.2780
11501TIP3    H155994   0.850   3.511  12.328  0.1317  2.7480 -1.4384
11501TIP3    H255995   0.847   3.380  12.252  1.1481  0.3887  2.3045
11502TIP3   OH255996   4.986   0.895   5.797  0.5346  0.0800 -0.6598
11502TIP3    H155997   5.055   0.843   5.756  1.6125  0.9868 -0.0260
11502TIP3    H255998   5.032   0.959   5.850 -0.7682  1.4890 -1.1668
11503TIP3   OH255999   4.005   5.427   5.412 -0.6305  0.4548  0.2794
11503TIP3    H156000   3.995   5.354   5.473  0.1542 -1.9723 -2.3011
11503TIP3    H256001   3.927   5.423   5.357  0.4307  0.1020 -1.2664
11504TIP3   OH256002   6.748   4.207   0.870  0.5799 -0.7941 -0.5953
11504TIP3    H156003   6.794   4.126   0.893 -1.5863 -2.3157 -1.3010
11504TIP3    H256004   6.676   4.212   0.933 -0.0368 -0.0941 -1.3378
11505TIP3   OH256005   6.770   2.438   1.613  0.5462 -0.1282 -0.4600
11505TIP3    H156006   6.680   2.413   1.634  0.2884  0.0136 -1.3649
11505TIP3    H256007   6.803   2.476   1.694 -0.4638  0.5354 -0.3362
11506TIP3   OH256008   1.515   3.111  15.126 -0.2977 -0.1154 -0.6069
11506TIP3    H156009   1.519   3.204  15.105 -1.9832  0.4272  1.1516
11506TIP3    H256010   1.470   3.071  15.052 -2.6706  1.0787  0.1173
11507TIP3   OH256011   4.737   3.463   5.807 -0.0004  0.0496  0.1126
11507TIP3    H156012   4.747   3.536   5.869 -0.3070  1.9500 -1.9232
11507TIP3    H256013   4.826   3.433   5.790  0.3590  1.4077 -0.5785
11508TIP3   OH256014   5.587   1.757  15.150 -0.0171  0.2541  0.2003
11508TIP3    H156015   5.603   1.680  15.204 -1.8619 -0.2956  0.0385
11508TIP3    H256016   5.530   1.812  15.203  0.6061  1.1308 -0.0163
11509TIP3   OH256017   0.517   5.862   2.819  0.3697 -0.0318 -0.2681
11509TIP3    H156018   0.436   5.812   2.826  0.6129 -0.2272  1.5600
11509TIP3    H256019   0.586   5.796   2.822  0.7355  0.3401  3.0879
11510TIP3   OH256020   6.127   4.593   1.283 -0.0232  0.0472 -0.1190
11510TIP3    H156021   6.049   4.648   1.292 -1.0840 -1.5561  0.8578
11510TIP3    H256022   6.135   4.579   1.188 -1.8832 -1.0439 -0.1595
11511TIP3   OH256023   1.107   4.836   0.570  0.0588  0.1084  0.1155
11511TIP3    H156024   1.069   4.920   0.544  0.6753  0.0732 -0.9377
11511TIP3    H256025   1.043   4.771   0.541 -1.0769  0.2381  2.1300
11512TIP3   OH256026   2.963   2.493   3.926  0.1999  0.4350  0.1578
11512TIP3    H156027   2.880   2.454   3.901  1.6398 -1.9543 -1.3220
11512TIP3    H256028   2.976   2.466   4.017 -0.4077  0.3754  0.2272
11513TIP3   OH256029   4.835   2.441   2.952  0.0620  0.0421 -0.3845
11513TIP3    H156030   4.768   2.447   3.020 -1.3071  0.6180 -1.7327
11513TIP3    H256031   4.908   2.493   2.986 -0.4045 -0.0643  0.8413
11514TIP3   OH256032   6.264   3.491  16.462 -0.0930 -0.0684  0.2064
11514TIP3    H156033   6.327   3.424  16.488 -1.2305 -0.5990  1.7645
11514TIP3    H256034   6.200   3.445  16.409 -0.6765 -0.1677  0.9736
11515TIP3   OH256035   6.572   2.890   5.812  0.2022 -0.4279  0.0810
11515TIP3    H156036   6.586   2.971   5.861 -2.2344  0.4262 -0.4973
11515TIP3    H256037   6.616   2.823   5.865 -0.1300  0.8314  2.0747
11516TIP3   OH256038   0.989   2.212  12.555 -0.2416  0.6732 -0.2946
11516TIP3    H156039   1.063   2.160  12.586 -0.1349  0.7325 -0.4439
11516TIP3    H256040   1.013   2.236  12.465 -0.6915  0.2319 -0.5383
11517TIP3   OH256041   5.442   4.259   5.747  0.0706 -0.2333 -0.5245
11517TIP3    H156042   5.361   4.271   5.697 -1.5162 -0.5460  1.8267
11517TIP3    H256043   5.480   4.346   5.752 -0.6325  0.1007 -0.8291
11518TIP3   OH256044   0.697   3.185   0.202  0.2635 -0.2375 -0.1563
11518TIP3    H156045   0.723   3.131   0.127  0.5489  1.0854 -1.0295
11518TIP3    H256046   0.629   3.243   0.168  0.5971  0.5742  0.5184
11519TIP3   OH256047   1.289   5.946  13.455  0.0479  0.5391  0.4544
11519TIP3    H156048   1.363   5.885  13.451 -0.6901 -0.4047  0.6674
11519TIP3    H256049   1.303   5.995  13.536 -0.4902 -0.9092  1.4751
11520TIP3   OH256050   1.659   6.031   5.833 -0.0190  0.1745  0.5275
11520TIP3    H156051   1.699   5.960   5.782 -1.4011  1.0346 -1.9276
11520TIP3    H256052   1.649   5.995   5.921  0.0742 -2.4030 -0.4285
11521TIP3   OH256053   1.883   5.072   0.027  0.7185  0.8247 -0.4557
11521TIP3    H156054   1.969   5.110   0.048  1.4386 -0.0007 -1.7992
11521TIP3    H256055   1.822   5.118   0.085  1.9029  2.2494 -0.2809
11522TIP3   OH256056   1.461   4.147   2.532  0.2871 -0.1220 -0.5035
11522TIP3    H156057   1.414   4.064   2.528  1.1686 -0.8830  2.4631
11522TIP3    H256058   1.410   4.206   2.477 -1.5206 -2.0888 -1.0828
11523TIP3   OH256059   4.575   2.057   0.102  1.5269  0.0817 -0.0548
11523TIP3    H156060   4.592   1.978   0.152  0.3313 -0.5631 -0.6151
11523TIP3    H256061   4.633   2.123   0.140  2.6520 -1.0861  0.3312
11524TIP3   OH256062   3.553   6.463   2.769 -0.2819  0.5210 -0.7475
11524TIP3    H156063   3.501   6.530   2.724  0.8033  0.7498 -1.7232
11524TIP3    H256064   3.634   6.458   2.718 -0.1060 -1.1369 -0.3502
11525TIP3   OH256065   2.024   0.070   4.412 -0.2102  0.0567  0.0863
11525TIP3    H156066   2.038  -0.009   4.465  0.7897  0.0238 -0.1879
11525TIP3    H256067   2.100   0.126   4.433 -1.3626  1.3543  0.9639
11526TIP3   OH256068   1.482   0.672   4.534 -0.1149  0.4461 -0.3153
11526TIP3    H156069   1.484   0.746   4.473  0.2997 -0.5954 -1.6275
11526TIP3    H256070   1.490   0.595   4.478  1.1914 -0.5379  1.1227
11527TIP3   OH256071   0.046   4.944  12.519 -0.2453  0.9695 -0.1452
11527TIP3    H156072   0.118   4.891  12.489 -0.0172  1.1932 -0.0001
11527TIP3    H256073   0.043   5.018  12.458 -1.2990  0.2100 -1.0508
11528TIP3   OH256074   2.469   2.941   0.799  0.6448  0.3468  0.1990
11528TIP3    H156075   2.454   3.026   0.840 -0.3013  0.4365 -0.3176
11528TIP3    H256076   2.398   2.885   0.832  1.3247 -0.2903  0.6314
11529TIP3   OH256077   5.727   4.338  12.859  0.4161  0.5434  0.0714
11529TIP3    H156078   5.766   4.300  12.780  0.7031  0.2939  0.3295
11529TIP3    H256079   5.801   4.350  12.919  0.2627  1.1080  0.1552
11530TIP3   OH256080   2.671   1.853  16.247  0.0662 -0.2679 -0.0485
11530TIP3    H156081   2.615   1.776  16.250  1.1306 -1.0812 -0.3072
11530TIP3    H256082   2.751   1.823  16.202  0.1218  1.2400 -1.0381
11531TIP3   OH256083   0.659   3.445  13.644 -0.0001 -0.5579 -0.2026
11531TIP3    H156084   0.726   3.514  13.643 -1.2133  0.6628 -0.9641
11531TIP3    H256085   0.606   3.462  13.567 -1.7766 -0.8673  0.8902
11532TIP3   OH256086   1.549   4.690   4.841  0.6618 -0.4742  0.1422
11532TIP3    H156087   1.617   4.626   4.861  0.4261 -0.8044 -0.1039
11532TIP3    H256088   1.489   4.644   4.782 -0.5845 -0.6836  1.5182
11533TIP3   OH256089   4.426   6.431   0.532  0.1654 -0.6245  0.2791
11533TIP3    H156090   4.463   6.514   0.502  0.9611 -0.4900  1.5548
11533TIP3    H256091   4.500   6.370   0.533 -0.2545 -1.1400  0.0673
11534TIP3   OH256092   3.197   1.615  11.539 -0.4546  0.0766 -0.5165
11534TIP3    H156093   3.195   1.683  11.471 -2.1694  1.2991  0.7096
11534TIP3    H256094   3.270   1.558  11.512  1.2735  2.5514 -1.4107
11535TIP3   OH256095   0.513   2.948  13.531 -0.5705  0.1863  0.2847
11535TIP3    H156096   0.598   2.932  13.491 -1.0103 -0.9912 -0.2276
11535TIP3    H256097   0.494   2.867  13.580 -1.2601  0.5501  0.6324
11536TIP3   OH256098   0.740   1.528   1.537  0.2395  0.0707 -0.2837
11536TIP3    H156099   0.737   1.505   1.629  0.5484  0.2434 -0.2287
11536TIP3    H256100   0.769   1.448   1.492  1.9987  0.5076 -0.0228
11537TIP3   OH256101   4.326   2.164  13.685  0.4308 -0.1213 -0.2115
11537TIP3    H156102   4.327   2.256  13.709  1.2111 -0.5309  1.3910
11537TIP3    H256103   4.406   2.128  13.721 -0.8059 -1.8541  0.9752
11538TIP3   OH256104   4.995   4.904   4.234 -0.1221  0.0094 -0.5421
11538TIP3    H156105   5.077   4.856   4.243  0.9557  1.5010 -1.7999
11538TIP3    H256106   4.960   4.877   4.149 -0.2004  0.4135 -0.6411
11539TIP3   OH256107   4.517   3.585   6.340  0.1444 -0.2537 -0.1564
11539TIP3    H156108   4.543   3.498   6.371  0.4596 -0.5112 -1.1123
11539TIP3    H256109   4.599   3.632   6.329  0.0114 -0.0386 -0.2306
11540TIP3   OH256110   3.730   5.117  15.134  0.2065 -0.2240  0.1601
11540TIP3    H156111   3.679   5.161  15.066  1.2157  0.8548  0.0560
11540TIP3    H256112   3.773   5.045  15.090 -0.8012 -0.8283  0.1376
11541TIP3   OH256113   2.126   4.642   2.860 -0.4287 -0.3302 -0.4613
11541TIP3    H156114   2.161   4.689   2.784 -1.0082 -0.7224 -0.9769
11541TIP3    H256115   2.118   4.709   2.928  1.1997 -0.2070 -0.3641
11542TIP3   OH256116   4.802   3.193   4.259  0.7416  0.0293  0.0805
11542TIP3    H156117   4.783   3.273   4.211 -1.4362 -1.1943 -1.2590
11542TIP3    H256118   4.856   3.221   4.333  0.7882  2.5674 -0.8383
11543TIP3   OH256119   4.201   1.352   3.882  0.1222 -0.3822 -0.0449
11543TIP3    H156120   4.242   1.392   3.959  1.7342 -0.2803 -0.9092
11543TIP3    H256121   4.119   1.400   3.870  0.4236  0.3946  0.9158
11544TIP3   OH256122   5.003   6.086   0.070  0.9298  0.1277 -0.0452
11544TIP3    H156123   5.011   5.995   0.100 -0.6461  0.6889  2.2824
11544TIP3    H256124   4.977   6.135   0.147  1.5784  2.5829 -1.2909
11545TIP3   OH256125   0.276   6.271   1.612  0.4033  0.2277 -0.2760
11545TIP3    H156126   0.292   6.267   1.518  2.1082 -1.6000  0.0066
11545TIP3    H256127   0.201   6.213   1.626  1.1665 -0.8208 -0.3775
11546TIP3   OH256128   5.029   4.700   4.476 -0.0422  0.0766 -0.3116
11546TIP3    H156129   4.946   4.723   4.519  0.9852  0.2659  1.6839
11546TIP3    H256130   5.088   4.772   4.499  1.7403 -1.8679  1.6013
11547TIP3   OH256131   3.638   1.436  11.721  0.0902 -0.2119  0.2516
11547TIP3    H156132   3.696   1.411  11.793 -0.9791  0.9059  1.5705
11547TIP3    H256133   3.576   1.363  11.715 -0.5543  0.2076  1.3397
11548TIP3   OH256134   4.957   1.971  12.265  0.5545  0.0978  0.0694
11548TIP3    H156135   4.967   2.004  12.175  1.5084  0.6196  0.3525
11548TIP3    H256136   4.943   2.050  12.317  2.8368  0.0905  0.7618
11549TIP3   OH256137   2.305   0.906   5.156  0.2933 -1.2325  0.2861
11549TIP3    H156138   2.397   0.891   5.181 -0.1815 -2.0550  1.6509
11549TIP3    H256139   2.303   0.997   5.128  1.0611 -0.4094  2.6596
11550TIP3   OH256140   3.318   0.993   4.305 -0.3334 -0.6163 -0.0446
11550TIP3    H156141   3.289   0.943   4.381 -1.6149  0.5748  0.2736
11550TIP3    H256142   3.247   1.054   4.287  0.4940 -0.0088 -1.4290
11551TIP3   OH256143   1.282   3.028  15.255 -0.2404 -0.0127 -0.3781
11551TIP3    H156144   1.363   3.071  15.226  0.3438  0.1602  1.4030
11551TIP3    H256145   1.270   3.057  15.345 -0.6364 -2.3936  0.4032
11552TIP3   OH256146   5.625   0.644  14.440  0.5950  0.4090 -0.2648
11552TIP3    H156147   5.704   0.687  14.408  2.3249 -2.0568  0.3634
11552TIP3    H256148   5.575   0.624  14.361  0.6290  1.8916 -0.6870
11553TIP3   OH256149   4.692   4.976  17.302  0.4757 -0.4010 -0.4092
11553TIP3    H156150   4.732   4.890  17.295 -0.4535 -0.8271 -0.6813
11553TIP3    H256151   4.701   5.014  17.214  0.2031 -0.5338 -0.4950
11554TIP3   OH256152   5.257   4.502   5.603 -0.2024  0.0923 -0.6330
11554TIP3    H156153   5.231   4.573   5.661 -0.1336 -1.4481  1.4290
11554TIP3    H256154   5.342   4.528   5.569 -0.1725  0.9752  0.0837
11555TIP3   OH256155   4.914   1.813   4.265  0.1330  0.5682 -0.5087
11555TIP3    H156156   4.922   1.807   4.170 -0.2403  1.2900 -0.5992
11555TIP3    H256157   4.859   1.891   4.279 -1.0528 -0.3764  0.2400
11556TIP3   OH256158   6.540   2.188   5.089  0.2111  1.0018 -0.1167
11556TIP3    H156159   6.530   2.095   5.069  0.2659  0.8637  0.4545
11556TIP3    H256160   6.461   2.211   5.139  0.9005  0.8575  1.0989
11557TIP3   OH256161   2.669   2.641   5.062  0.4742 -0.0707 -0.5659
11557TIP3    H156162   2.589   2.664   5.014  0.3171 -0.2227 -0.3791
11557TIP3    H256163   2.646   2.562   5.110 -0.2766  1.5222  1.9307
11558TIP3   OH256164   0.298   2.263  15.429  0.3609  0.1345 -0.2212
11558TIP3    H156165   0.235   2.193  15.446 -3.3042  2.9707 -0.7798
11558TIP3    H256166   0.313   2.303  15.514 -0.1538  0.6256 -0.3557
11559TIP3   OH256167   1.950   1.894  12.544  0.3962 -0.1086 -0.3159
11559TIP3    H156168   1.901   1.817  12.515 -0.0175 -0.2220  0.6375
11559TIP3    H256169   1.896   1.968  12.519 -0.6900 -0.2571  1.4026
11560TIP3   OH256170   4.794   6.678   4.557 -0.2763 -0.3095 -0.0197
11560TIP3    H156171   4.824   6.741   4.492 -2.4392 -0.0134 -0.7944
11560TIP3    H256172   4.717   6.718   4.597 -0.0399 -1.2613  1.4890
11561TIP3   OH256173   5.719   0.336  14.430  0.3275  0.6597  0.1363
11561TIP3    H156174   5.702   0.283  14.352  2.0873  0.2402  0.0006
11561TIP3    H256175   5.690   0.424  14.407 -5.3953 -0.5019  1.3002
11562TIP3   OH256176   2.997   5.144  15.724  0.3722 -0.1559 -0.3124
11562TIP3    H156177   2.955   5.158  15.809  1.0430  0.6806 -0.1019
11562TIP3    H256178   3.057   5.071  15.738  0.3540 -0.1332 -0.1084
11563TIP3   OH256179   2.103   5.218  10.359  0.4353 -0.2728  0.1331
11563TIP3    H156180   2.105   5.256  10.446  0.0290 -0.4891  0.2402
11563TIP3    H256181   2.178   5.159  10.356  1.0897  0.5502 -0.0461
11564TIP3   OH256182   1.586   5.421   0.699 -0.0388  0.0159 -0.1885
11564TIP3    H156183   1.491   5.433   0.710  0.2826  2.1132  0.7771
11564TIP3    H256184   1.612   5.367   0.774 -0.4892 -0.8659 -0.6483
11565TIP3   OH256185   1.474   1.860  12.197 -0.0812  0.4861 -0.2211
11565TIP3    H156186   1.410   1.886  12.130  1.6841 -0.1193 -2.2555
11565TIP3    H256187   1.559   1.866  12.153  1.3028  1.2095  2.3653
11566TIP3   OH256188   2.296   2.965   1.949  0.0034 -0.0800 -0.0924
11566TIP3    H156189   2.260   2.890   1.901  0.5918 -1.9369  2.1716
11566TIP3    H256190   2.385   2.974   1.917 -0.3109  0.1495 -0.9107
11567TIP3   OH256191   1.861   4.552   2.805 -0.1325  0.3647 -1.0221
11567TIP3    H156192   1.955   4.563   2.817 -0.1821  1.5812 -1.6198
11567TIP3    H256193   1.827   4.641   2.796 -2.0508  0.3902  3.7742
11568TIP3   OH256194   0.198   6.021  12.673 -0.4719 -0.3481  0.4089
11568TIP3    H156195   0.189   6.059  12.586 -1.0835  1.8638  1.3787
11568TIP3    H256196   0.290   6.030  12.694 -0.6843  1.1179  0.8118
11569TIP3   OH256197   5.505   4.628  14.911  0.6826 -0.3251 -0.5707
11569TIP3    H156198   5.464   4.559  14.963  1.0324 -2.0557 -2.4436
11569TIP3    H256199   5.505   4.594  14.821 -0.2734  2.6657 -1.8576
11570TIP3   OH256200   2.564   3.582  12.252  0.0556 -0.3664  0.2947
11570TIP3    H156201   2.567   3.666  12.207  0.0626 -1.4751 -1.8943
11570TIP3    H256202   2.513   3.525  12.194 -0.8128 -1.6302  2.1852
11571TIP3   OH256203   5.450   2.948  15.238 -0.3026  0.3667  0.3367
11571TIP3    H156204   5.419   2.989  15.158  1.0649 -1.2706 -1.1104
11571TIP3    H256205   5.545   2.940  15.226 -0.3571 -2.1599  0.9843
11572TIP3   OH256206   1.437   5.230  11.118  0.0474  0.0024  0.3721
11572TIP3    H156207   1.521   5.274  11.102 -0.4320  0.3994 -1.1746
11572TIP3    H256208   1.383   5.298  11.159 -1.0203  1.3100 -2.9133
11573TIP3   OH256209   3.997   6.690  13.365 -0.2991  0.5083 -0.0620
11573TIP3    H156210   3.946   6.747  13.308 -0.7525  0.4603  0.2836
11573TIP3    H256211   4.033   6.623  13.306 -0.8864  0.3698 -0.2726
11574TIP3   OH256212   2.988   1.175  16.446  0.4236 -0.1622  0.5244
11574TIP3    H156213   3.048   1.238  16.407  0.2757 -0.1561  0.2991
11574TIP3    H256214   3.033   1.143  16.524  0.7945 -0.2940  0.2576
11575TIP3   OH256215   6.609   4.878  13.123  0.0063 -0.1678 -0.2378
11575TIP3    H156216   6.704   4.868  13.127 -0.0350 -0.3929  0.3457
11575TIP3    H256217   6.585   4.841  13.038  0.4012 -0.4853 -0.2188
11576TIP3   OH256218   6.416   2.865  15.006 -0.6433 -0.4280  0.0100
11576TIP3    H156219   6.487   2.926  15.029 -2.2370  1.3730  0.4139
11576TIP3    H256220   6.392   2.890  14.917 -2.0290  0.3140  0.5638
11577TIP3   OH256221   2.842   1.192   5.248  0.3318  0.2884  0.1721
11577TIP3    H156222   2.863   1.261   5.186  0.0632  0.2288  0.0128
11577TIP3    H256223   2.748   1.178   5.237  0.5204 -0.6504 -0.3602
11578TIP3   OH256224   6.567   2.321   6.185  0.3448 -0.1931 -0.0335
11578TIP3    H156225   6.614   2.381   6.244  0.9250 -1.4751  0.8620
11578TIP3    H256226   6.514   2.378   6.130  0.7761  1.1333  0.8745
11579TIP3   OH256227   4.653   4.459   6.104  0.4012  0.2833  0.5320
11579TIP3    H156228   4.726   4.401   6.120  0.7709  0.3850 -0.6876
11579TIP3    H256229   4.586   4.432   6.167  1.2556 -0.2036  1.2446
11580TIP3   OH256230   5.973   3.139  16.354 -0.4319  0.5675  0.0427
11580TIP3    H156231   5.985   3.060  16.406 -1.2585  1.5645  1.8643
11580TIP3    H256232   5.930   3.109  16.274  1.2806 -1.0802 -0.3125
11581TIP3   OH256233   1.038   3.910  11.722 -0.2017  0.2657  0.0033
11581TIP3    H156234   1.038   3.832  11.666  1.0843 -1.0735  1.7345
11581TIP3    H256235   1.124   3.910  11.764 -0.2159  2.5872  0.1648
11582TIP3   OH256236   4.730   0.934  13.218  0.4563 -0.1237  0.0166
11582TIP3    H156237   4.727   0.871  13.291  1.0007  0.2216  0.3443
11582TIP3    H256238   4.640   0.941  13.189  0.1432  0.1577  1.0307
11583TIP3   OH256239   3.127   4.661  13.878  0.2799 -0.2487  0.2112
11583TIP3    H156240   3.146   4.655  13.784  0.9276 -0.3663  0.3425
11583TIP3    H256241   3.192   4.722  13.912 -2.0967  2.5645  0.0352
11584TIP3   OH256242   5.535   6.757  14.298  0.4266  0.2285 -0.3123
11584TIP3    H156243   5.485   6.716  14.368  0.4816 -0.0131 -0.4125
11584TIP3    H256244   5.559   6.685  14.240  2.8080 -0.0443  0.8811
11585TIP3   OH256245   5.081   5.466   2.008  0.4995  0.3801  0.5723
11585TIP3    H156246   5.076   5.557   2.037 -0.5449  0.3526  0.4985
11585TIP3    H256247   5.000   5.426   2.040  1.2779 -0.7257  1.2579
11586TIP3   OH256248   0.777   1.218   1.124  0.3095  0.1758  0.6825
11586TIP3    H156249   0.755   1.288   1.063 -3.3290 -0.2957  1.1925
11586TIP3    H256250   0.830   1.157   1.073  0.5723  1.5977 -0.8227
11587TIP3   OH256251   6.052   2.862   3.473  0.1518 -0.1211 -0.1787
11587TIP3    H156252   6.050   2.957   3.482 -0.1325 -0.1865  0.4920
11587TIP3    H256253   6.045   2.829   3.563 -0.6723 -0.7815 -0.4706
11588TIP3   OH256254   2.637   4.689   2.838  0.2487  0.0551  0.5575
11588TIP3    H156255   2.665   4.667   2.750  0.5449  0.4117  0.5587
11588TIP3    H256256   2.683   4.627   2.895  0.8325  0.4691  0.5387
11589TIP3   OH256257   5.205   0.439   2.135  0.0235 -0.1246  0.4866
11589TIP3    H156258   5.121   0.393   2.143 -0.3313  0.1441 -1.2608
11589TIP3    H256259   5.192   0.521   2.183 -1.1324  0.4115 -0.6739
11590TIP3   OH256260   3.041   5.232  17.219  0.1208 -0.7660 -0.6122
11590TIP3    H156261   3.134   5.237  17.194  0.6671 -3.5885  0.4681
11590TIP3    H256262   3.015   5.323  17.230  2.7950  0.1426 -0.8957
11591TIP3   OH256263   6.526   2.805   4.123  0.2655 -0.0118  0.0169
11591TIP3    H156264   6.574   2.873   4.169 -0.7662  0.2563  0.7326
11591TIP3    H256265   6.485   2.849   4.049  1.4402 -0.3249 -0.8410
11592TIP3   OH256266   2.913   2.121   2.405  0.7568  0.1539 -0.1320
11592TIP3    H156267   2.876   2.196   2.360  1.4043 -0.5582 -1.9454
11592TIP3    H256268   2.933   2.153   2.493 -1.5440  1.2952  0.0348
11593TIP3   OH256269   1.485   2.563   1.739 -0.0080  0.0552  0.2136
11593TIP3    H156270   1.550   2.494   1.727 -1.7306 -1.6269  0.0563
11593TIP3    H256271   1.463   2.559   1.832 -0.9448 -0.4190 -0.0183
11594TIP3   OH256272   5.402   3.369   5.743  0.9034 -0.5887  0.0590
11594TIP3    H156273   5.414   3.350   5.650  1.1442 -0.1198 -0.0071
11594TIP3    H256274   5.476   3.425   5.767  0.9925 -0.9225  0.5980
11595TIP3   OH256275   5.801   4.981  15.030  0.5383 -0.3651 -0.1858
11595TIP3    H156276   5.707   4.998  15.019 -0.0856 -1.7091  2.3743
11595TIP3    H256277   5.810   4.887  15.017  1.7291 -0.1374 -1.2364
11596TIP3   OH256278   4.286   4.881   5.644  0.1601  0.0699  0.1438
11596TIP3    H156279   4.378   4.875   5.671 -0.5760  0.6450  3.1706
11596TIP3    H256280   4.273   4.973   5.622  0.4251 -0.1286 -0.8858
11597TIP3   OH256281   3.880   1.815   3.220 -0.5030  0.0361 -0.1186
11597TIP3    H156282   3.953   1.778   3.269 -0.0704  0.1912 -0.6359
11597TIP3    H256283   3.825   1.739   3.199 -1.1414  0.0643  1.3034
11598TIP3   OH256284   5.822   3.326   0.137 -0.2765 -0.2422 -0.3066
11598TIP3    H156285   5.851   3.377   0.062  0.5136  0.3798  0.4111
11598TIP3    H256286   5.742   3.282   0.106  1.0913 -1.5939 -2.1479
11599TIP3   OH256287   6.164   0.764  17.310 -0.0791 -0.0267 -0.0976
11599TIP3    H156288   6.180   0.788  17.401  0.2493  1.9611 -0.6289
11599TIP3    H256289   6.069   0.766  17.301 -0.2569 -2.3240  0.6739
11600TIP3   OH256290   1.031   3.874   2.000  0.4561 -0.6349 -0.5021
11600TIP3    H156291   1.113   3.844   1.961  0.4052  1.0463 -2.0131
11600TIP3    H256292   0.966   3.811   1.971  0.7139 -0.3244 -1.8083
11601TIP3   OH256293   0.036   2.327   5.602 -0.4249  0.3844  0.1886
11601TIP3    H156294   0.081   2.302   5.521 -0.4709 -0.1599  0.3273
11601TIP3    H256295  -0.056   2.337   5.576 -0.6235 -0.8317  0.3790
11602TIP3   OH256296   6.287   2.081  11.677  0.0265 -0.0426 -0.1908
11602TIP3    H156297   6.200   2.109  11.705  1.0203  2.6292  0.5230
11602TIP3    H256298   6.272   2.032  11.596 -2.1428 -0.0005  0.1351
11603TIP3   OH256299   2.119   5.513   2.444 -0.0046  0.5254  0.1890
11603TIP3    H156300   2.090   5.578   2.508 -1.1040  1.0662 -0.8314
11603TIP3    H256301   2.095   5.550   2.359  0.7343 -0.5313 -0.5070
11604TIP3   OH256302   1.462   3.430  13.790  0.0777  0.3740  0.0011
11604TIP3    H156303   1.552   3.448  13.818  0.2777 -0.1322 -0.3019
11604TIP3    H256304   1.471   3.363  13.722 -0.4955  0.6450 -0.3552
11605TIP3   OH256305   2.500   0.064  11.449  0.2149  0.0896  0.4120
11605TIP3    H156306   2.570   0.124  11.420  0.0859  0.9400  1.7502
11605TIP3    H256307   2.540   0.013  11.519  0.4487 -1.7494 -0.9981
11606TIP3   OH256308   1.415   4.252   6.035  0.7169 -0.3307  0.4979
11606TIP3    H156309   1.412   4.172   5.983 -0.2596 -0.1663  0.2907
11606TIP3    H256310   1.423   4.221   6.126  1.7332 -0.6249  0.3223
11607TIP3   OH256311   1.482   1.565   3.426  0.3185 -0.3121 -0.2232
11607TIP3    H156312   1.514   1.476   3.410  0.6025 -0.1567 -0.5283
11607TIP3    H256313   1.394   1.567   3.390  1.2807  0.3246 -2.7565
11608TIP3   OH256314   1.570   6.741  14.934  0.8608  0.1143  0.0409
11608TIP3    H156315   1.627   6.794  14.877  0.3242 -0.3937 -0.9894
11608TIP3    H256316   1.555   6.661  14.885 -1.1161  0.4145  0.0836
11609TIP3   OH256317   2.196   3.119   6.055  0.0702 -0.2300 -0.0019
11609TIP3    H156318   2.221   3.149   5.967 -0.3374 -0.2388 -0.1233
11609TIP3    H256319   2.250   3.041   6.069 -0.6001 -0.8397 -0.6800
11610TIP3   OH256320   0.301   2.422   1.137  0.7839 -0.8008  0.1763
11610TIP3    H156321   0.291   2.423   1.232 -0.7326  0.5659  0.0419
11610TIP3    H256322   0.381   2.471   1.120 -0.1725  1.0202  0.6827
11611TIP3   OH256323   3.773   5.244   2.576  0.2020  0.0601 -0.6586
11611TIP3    H156324   3.829   5.229   2.499 -1.5686  0.2478 -2.0367
11611TIP3    H256325   3.759   5.157   2.613  0.3565 -0.1475 -1.0785
11612TIP3   OH256326   0.375   6.640  11.327 -0.4486  0.8151  0.2933
11612TIP3    H156327   0.312   6.707  11.354 -2.6161 -1.1843  0.5826
11612TIP3    H256328   0.381   6.650  11.232  0.0254  2.0006  0.4317
11613TIP3   OH256329   4.370   3.161  10.818 -0.2791 -0.4881  0.5643
11613TIP3    H156330   4.353   3.076  10.777 -0.5331 -0.7438  1.1701
11613TIP3    H256331   4.372   3.223  10.746  0.5304 -1.0958  0.0457
11614TIP3   OH256332   1.397   1.251  15.886  0.5270 -0.1737 -0.1126
11614TIP3    H156333   1.321   1.264  15.829 -0.8535 -2.5246  1.0090
11614TIP3    H256334   1.360   1.254  15.975  2.4822  2.6514  0.7554
11615TIP3   OH256335   3.451   0.794   1.439  0.3271 -0.1378 -0.0210
11615TIP3    H156336   3.501   0.785   1.520  0.2029  0.2340  0.0971
11615TIP3    H256337   3.482   0.876   1.401 -1.0292  0.6873  0.6279
11616TIP3   OH256338   1.986   3.272  14.674  0.9518  0.5506 -0.3460
11616TIP3    H156339   1.965   3.347  14.619  0.5387  0.5616 -0.1718
11616TIP3    H256340   1.943   3.290  14.758  2.4930  1.0740  0.3725
11617TIP3   OH256341   2.442   3.830  12.133 -0.4378 -0.3569 -0.1725
11617TIP3    H156342   2.351   3.820  12.161 -0.0373 -1.0286  0.9656
11617TIP3    H256343   2.442   3.907  12.076 -1.4967  0.3699  0.7893
11618TIP3   OH256344   2.241   4.322  13.529 -0.2760  0.4999 -0.8571
11618TIP3    H156345   2.204   4.402  13.568  3.3729  0.7458  2.8038
11618TIP3    H256346   2.216   4.253  13.590 -0.1577 -0.4564 -1.8799
11619TIP3   OH256347   1.528   5.768  12.049 -0.1094  0.1942  0.8844
11619TIP3    H156348   1.533   5.762  12.145 -0.8574  1.6043  1.0509
11619TIP3    H256349   1.562   5.856  12.029  1.1416 -0.5232 -0.2670
11620TIP3   OH256350   3.282   3.973  17.147  0.1102 -0.0120 -0.3496
11620TIP3    H156351   3.336   4.005  17.219  1.5444  1.3232 -1.9201
11620TIP3    H256352   3.215   4.041  17.135  0.9046  0.6196 -1.3251
11621TIP3   OH256353   5.936   0.809   2.759  0.6105  0.4817 -0.3604
11621TIP3    H156354   5.921   0.779   2.669 -2.1635 -2.0869  0.7784
11621TIP3    H256355   5.891   0.893   2.765 -1.6049 -0.5929 -0.7774
11622TIP3   OH256356   5.750   0.809   1.370 -0.1435 -0.3488 -0.1492
11622TIP3    H156357   5.837   0.834   1.339 -0.7926 -0.1702 -1.9878
11622TIP3    H256358   5.696   0.887   1.354 -0.7090 -0.5447  0.7204
11623TIP3   OH256359   5.667   1.634   6.448  0.3709 -0.4519 -0.3131
11623TIP3    H156360   5.609   1.680   6.387 -0.4759 -1.4176 -0.2503
11623TIP3    H256361   5.721   1.703   6.485  0.3448  0.2622 -1.5502
11624TIP3   OH256362   1.029   4.290  15.597  0.5629  0.1081 -0.8772
11624TIP3    H156363   1.070   4.327  15.519 -2.4523  0.4926 -2.4136
11624TIP3    H256364   0.964   4.229  15.563 -2.0991  1.5983  1.1641
11625TIP3   OH256365   5.216   1.388   3.265 -0.4573 -0.1148  0.0758
11625TIP3    H156366   5.142   1.333   3.237  0.6120 -0.7516 -1.7123
11625TIP3    H256367   5.251   1.423   3.183  0.9577  0.5041  0.9187
11626TIP3   OH256368   6.635   3.166   2.702 -0.6269 -0.7385  0.3402
11626TIP3    H156369   6.542   3.175   2.723 -0.2215 -0.8230  2.2932
11626TIP3    H256370   6.678   3.153   2.786  1.4325  1.4501 -0.2853
11627TIP3   OH256371   1.965   4.719   2.583  0.2102  0.0898 -0.1826
11627TIP3    H156372   1.922   4.637   2.557 -0.4094  0.7943 -1.4701
11627TIP3    H256373   1.970   4.770   2.502 -0.3138  1.7361  0.7801
11628TIP3   OH256374   4.988   4.280   2.950  0.0171  0.1607 -0.0826
11628TIP3    H156375   4.959   4.194   2.979 -0.4248  0.3930  0.1671
11628TIP3    H256376   4.978   4.278   2.855 -3.5982  1.2033  0.1262
11629TIP3   OH256377   0.645   4.646  15.566 -0.4564  0.8604  0.4622
11629TIP3    H156378   0.726   4.620  15.611 -0.3466  0.6021  0.1245
11629TIP3    H256379   0.584   4.669  15.636 -0.9872 -1.5493  0.8673
11630TIP3   OH256380   4.575   1.574   3.222  0.3277 -0.0681  0.2971
11630TIP3    H156381   4.626   1.615   3.292 -0.9554 -0.1210  1.2785
11630TIP3    H256382   4.560   1.645   3.159  0.5146  0.2543  0.6133
11631TIP3   OH256383   0.094   6.552  16.911 -0.0507 -0.0841 -0.1990
11631TIP3    H156384   0.188   6.534  16.921  0.0010  0.6132  0.6593
11631TIP3    H256385   0.077   6.625  16.970 -0.5922  1.6326 -2.3480
11632TIP3   OH256386   1.996   1.899  14.804  0.0766  0.2772 -0.5908
11632TIP3    H156387   2.009   1.893  14.899  0.3078 -0.2297 -0.6529
11632TIP3    H256388   1.902   1.918  14.795  0.1499  0.8400 -0.2502
11633TIP3   OH256389   1.345   3.195  11.047 -0.3867 -0.8990  0.1673
11633TIP3    H156390   1.364   3.288  11.057 -2.4678 -0.6241  2.2988
11633TIP3    H256391   1.416   3.151  11.094 -0.7480 -0.2650  1.3217
11634TIP3   OH256392   1.074   5.258  13.768  0.7563  0.2644 -0.1239
11634TIP3    H156393   1.059   5.344  13.728 -2.9196 -0.1697 -0.1001
11634TIP3    H256394   1.083   5.198  13.694  1.0282  0.3886 -0.1895
11635TIP3   OH256395   4.057   1.922   2.405  0.4090 -0.8490  0.5451
11635TIP3    H156396   4.083   2.005   2.365  0.5531 -1.4012 -0.5215
11635TIP3    H256397   4.138   1.873   2.413  0.0926 -1.5383 -0.3708
11636TIP3   OH256398   6.341   5.722   0.111  0.1431 -0.8868 -0.3833
11636TIP3    H156399   6.304   5.785   0.172  1.8019  1.0904 -1.2801
11636TIP3    H256400   6.416   5.684   0.158 -0.2272 -1.4223 -0.2199
11637TIP3   OH256401   3.416   0.613  11.815 -0.6035 -0.5831  0.6903
11637TIP3    H156402   3.507   0.585  11.820  0.0593  0.5809 -2.4121
11637TIP3    H256403   3.415   0.700  11.856  0.2143  0.2880 -1.0197
11638TIP3   OH256404   3.490   3.917   6.118  0.3824  0.2079 -0.1349
11638TIP3    H156405   3.559   3.925   6.184 -1.2527  0.8365  1.6019
11638TIP3    H256406   3.466   4.008   6.098  1.1382  0.0358 -1.9550
11639TIP3   OH256407   6.108   0.761  11.796  0.1220 -0.1262 -0.1951
11639TIP3    H156408   6.096   0.669  11.775  0.5527 -0.3351  0.4343
11639TIP3    H256409   6.144   0.800  11.717 -0.9233 -0.2983 -0.7700
11640TIP3   OH256410   5.667   4.801   5.513 -0.0332  0.1536 -0.2882
11640TIP3    H156411   5.603   4.872   5.524  0.6866  0.4231  3.0534
11640TIP3    H256412   5.752   4.844   5.523  0.5783 -0.7203 -1.4752
11641TIP3   OH256413   2.272   1.892  12.080  0.7206 -0.2375 -0.1189
11641TIP3    H156414   2.217   1.814  12.091  0.1280  0.0908 -0.6466
11641TIP3    H256415   2.215   1.954  12.034  1.6811 -0.0363 -1.0519
11642TIP3   OH256416   1.157   0.808  16.946  0.0752  0.0536  0.5889
11642TIP3    H156417   1.159   0.864  17.023 -0.4442 -0.8687  1.2967
11642TIP3    H256418   1.079   0.754  16.957 -0.7016  0.7252 -1.1994
11643TIP3   OH256419   5.598   5.057   3.704 -0.3373 -0.3789  0.0341
11643TIP3    H156420   5.584   4.963   3.702 -1.1142 -0.2722 -2.4288
11643TIP3    H256421   5.525   5.094   3.654 -0.8497  1.6889  2.0910
11644TIP3   OH256422   3.964   1.094  16.911 -0.1215  0.0165  0.0959
11644TIP3    H156423   3.994   1.092  16.820 -1.0463  0.6648 -0.2299
11644TIP3    H256424   3.888   1.036  16.912 -1.0509  1.1984  0.0955
11645TIP3   OH256425   5.937   6.525   6.721  0.3779 -0.7442 -0.5636
11645TIP3    H156426   5.909   6.516   6.630  2.3302  0.2075 -1.3187
11645TIP3    H256427   5.971   6.614   6.727  1.8693 -1.3585  0.6135
11646TIP3   OH256428   3.419   4.491  13.007  0.3351 -0.4912 -0.0322
11646TIP3    H156429   3.404   4.511  13.100  2.1066 -1.8480  0.5904
11646TIP3    H256430   3.435   4.397  13.005  0.9822 -0.3742 -1.6307
11647TIP3   OH256431   1.087   3.731  14.753  0.0801  0.0726 -0.0784
11647TIP3    H156432   0.998   3.727  14.786  0.6240 -2.7487  1.3353
11647TIP3    H256433   1.132   3.794  14.810 -0.7908  1.0268 -0.4081
11648TIP3   OH256434   0.568   2.357   4.062 -0.0288 -0.0206  0.1788
11648TIP3    H156435   0.547   2.406   4.142  0.1388 -0.7024  0.6483
11648TIP3    H256436   0.513   2.279   4.067  0.6812 -0.5307  0.1033
11649TIP3   OH256437   0.384   4.867  13.022 -0.2092  0.0437 -0.5154
11649TIP3    H156438   0.289   4.877  13.024 -0.0183  2.1261  1.6909
11649TIP3    H256439   0.415   4.945  12.977  0.5237 -0.0157 -0.1224
11650TIP3   OH256440   3.410   0.849   1.018  0.2585 -0.1247 -0.5605
11650TIP3    H156441   3.494   0.833   1.061  0.0365 -0.1601 -0.1338
11650TIP3    H256442   3.429   0.844   0.925  0.7865  0.1511 -0.4705
11651TIP3   OH256443   5.431   2.937  12.171 -0.2921 -0.3546 -0.0709
11651TIP3    H156444   5.412   3.029  12.186 -0.2028 -0.3758  0.1825
11651TIP3    H256445   5.346   2.893  12.176 -0.2349 -0.3902  0.5992
11652TIP3   OH256446   0.772   3.555   6.783 -0.0258 -0.3651  0.6758
11652TIP3    H156447   0.798   3.463   6.785 -0.1207 -0.4674 -1.0271
11652TIP3    H256448   0.851   3.602   6.755 -1.4146 -0.7424 -5.1515
11653TIP3   OH256449   5.955   6.581  13.856 -0.7947  0.5930  0.6000
11653TIP3    H156450   6.009   6.545  13.785 -2.7180 -0.3599 -0.4535
11653TIP3    H256451   5.976   6.675  13.856  0.5464  0.3247 -0.0226
11654TIP3   OH256452   5.179   3.252   3.551 -0.0339  0.8527  0.0659
11654TIP3    H156453   5.252   3.197   3.521 -0.5389 -0.2828  0.8356
11654TIP3    H256454   5.215   3.340   3.552  1.4990  0.2783  0.8425
11655TIP3   OH256455   1.670   1.703  11.564 -0.2208  0.1782  0.1925
11655TIP3    H156456   1.728   1.764  11.608  0.0445  0.9992 -1.2139
11655TIP3    H256457   1.655   1.742  11.477 -1.1443 -1.0764 -0.2535
11656TIP3   OH256458   1.174   4.460   3.835  0.2572  0.3370  0.1002
11656TIP3    H156459   1.110   4.492   3.772 -2.2809  0.0344  2.3787
11656TIP3    H256460   1.235   4.533   3.845  0.7611  0.4098 -2.5797
11657TIP3   OH256461   2.720   5.020   2.083 -0.1348 -0.5141  0.3205
11657TIP3    H156462   2.649   4.980   2.033  0.6332  0.2776 -1.4852
11657TIP3    H256463   2.800   4.981   2.047  0.4804  0.6169  0.4067
11658TIP3   OH256464   2.581   6.283  14.864  0.6224 -0.0437  0.8164
11658TIP3    H156465   2.599   6.290  14.958  0.3382  0.7646  0.8216
11658TIP3    H256466   2.665   6.258  14.825  0.6174 -0.9137  1.3328
11659TIP3   OH256467   0.715   6.661   6.107 -0.2669 -0.2147  0.4475
11659TIP3    H156468   0.741   6.737   6.055  1.6940 -0.1048  1.5001
11659TIP3    H256469   0.758   6.587   6.064 -1.0894 -0.5701  0.2069
11660TIP3   OH256470   0.799   6.760  14.616 -0.5880  0.5381 -0.4600
11660TIP3    H156471   0.784   6.667  14.635  1.4478 -0.1164 -1.7445
11660TIP3    H256472   0.792   6.803  14.702  1.3783 -1.2764  0.7254
11661TIP3   OH256473   0.912   1.692   6.045  0.4609  0.2512 -0.1892
11661TIP3    H156474   0.973   1.731   6.108  0.8433  1.4490 -1.2483
11661TIP3    H256475   0.861   1.629   6.096  0.8847  1.0420  1.2660
11662TIP3   OH256476   5.521   5.975  11.485  0.2017  0.5330  0.5578
11662TIP3    H156477   5.443   5.928  11.453 -0.7108  1.8538  0.7666
11662TIP3    H256478   5.494   6.067  11.490  2.3772  1.3613 -1.2339
11663TIP3   OH256479   1.673   0.508   3.530 -0.0066  0.3566 -0.0650
11663TIP3    H156480   1.723   0.431   3.556  0.2952  0.8420  0.8191
11663TIP3    H256481   1.726   0.548   3.461 -0.3584 -0.4250 -0.8139
11664TIP3   OH256482   6.073   2.390  16.617 -0.5062 -0.1907  0.3134
11664TIP3    H156483   6.060   2.356  16.529  0.5593 -0.2502  0.1719
11664TIP3    H256484   6.106   2.479  16.604 -0.2493 -0.2343  0.6524
11665TIP3   OH256485   4.410   1.062  11.593  0.5887  0.4475 -0.4299
11665TIP3    H156486   4.372   1.139  11.636 -0.1173  0.7148 -1.4925
11665TIP3    H256487   4.437   1.094  11.507 -0.5385 -0.6875 -1.2295
11666TIP3   OH256488   0.626   3.851   1.668  0.0134 -0.3253  0.5842
11666TIP3    H156489   0.680   3.922   1.631  0.4008 -1.0892 -0.3427
11666TIP3    H256490   0.601   3.884   1.754  1.9096  0.0872  1.0213
11667TIP3   OH256491   1.015   2.609  15.988  0.5314  0.1712  0.0457
11667TIP3    H156492   1.053   2.545  15.928  0.7667 -1.6125  1.9993
11667TIP3    H256493   0.946   2.561  16.034  2.4149  0.4133  3.4568
11668TIP3   OH256494   3.870   6.369   4.432  0.2611  0.0969 -0.0440
11668TIP3    H156495   3.794   6.311   4.428  0.7019 -0.5300  0.4562
11668TIP3    H256496   3.833   6.457   4.442 -0.3961 -0.3404  1.7456
11669TIP3   OH256497   2.759   3.987   2.042 -0.3513  0.1445  0.0623
11669TIP3    H156498   2.711   4.063   2.012 -0.2079  0.0477 -0.4129
11669TIP3    H256499   2.833   4.023   2.092 -0.8814  0.2915  0.7588
11670TIP3   OH256500   5.874   0.990  15.752  0.2415 -0.2065 -0.5368
11670TIP3    H156501   5.826   0.951  15.679 -0.4594  0.0922 -0.2534
11670TIP3    H256502   5.812   1.053  15.789  0.2036 -1.0564  0.9237
11671TIP3   OH256503   2.133   5.069  16.034 -0.0097  0.1198  0.1433
11671TIP3    H156504   2.056   5.016  16.056 -0.8187  0.1329 -2.2924
11671TIP3    H256505   2.148   5.122  16.112 -0.3550 -2.2596  1.9563
11672TIP3   OH256506   0.128   4.961  13.112 -0.1314 -0.1636 -0.5122
11672TIP3    H156507   0.129   4.998  13.024 -1.3561  0.3769 -0.3209
11672TIP3    H256508   0.153   5.034  13.169 -1.7193  0.1842 -0.2110
11673TIP3   OH256509   5.766   4.418   3.111 -0.1708 -0.2036 -0.0918
11673TIP3    H156510   5.853   4.419   3.150  0.0643 -1.1018 -0.5763
11673TIP3    H256511   5.722   4.495   3.148  1.0204  0.6012 -0.3132
11674TIP3   OH256512   2.963   0.587  12.167 -0.5865 -0.1769  0.4792
11674TIP3    H156513   3.007   0.671  12.167  0.8202 -0.8937  0.1431
11674TIP3    H256514   2.986   0.547  12.251 -0.0581 -0.8119  0.0466
11675TIP3   OH256515   4.829   2.335  17.015 -0.5200 -0.3762 -0.1824
11675TIP3    H156516   4.861   2.323  17.104  0.4024 -0.7391 -0.5534
11675TIP3    H256517   4.743   2.293  17.015 -1.4318  1.3706  1.0548
11676TIP3   OH256518   1.168   4.139  12.036  0.0438  0.0208 -0.3404
11676TIP3    H156519   1.164   4.107  12.126 -1.3437  0.0580 -0.3697
11676TIP3    H256520   1.262   4.137  12.014  0.2273 -1.8630  0.4246
11677TIP3   OH256521   5.728   6.074  12.273  0.5905  0.5395 -0.1899
11677TIP3    H156522   5.818   6.071  12.307 -0.1376 -2.0640  1.8634
11677TIP3    H256523   5.724   6.003  12.209  0.0738  0.8531 -0.5075
11678TIP3   OH256524   4.555   4.032  13.922  0.5610 -0.3997  0.0224
11678TIP3    H156525   4.646   4.012  13.898  0.1690 -0.9317 -1.1050
11678TIP3    H256526   4.503   3.975  13.866 -0.4969  0.5651  0.0032
11679TIP3   OH256527   4.065   6.295  13.014  0.0999  0.4281 -0.2861
11679TIP3    H156528   4.001   6.226  13.032  0.2458  0.0492 -1.1969
11679TIP3    H256529   4.080   6.290  12.920  2.4033 -0.3161  0.0734
11680TIP3   OH256530   5.317   1.787   1.248 -0.4795  0.1766 -0.0888
11680TIP3    H156531   5.369   1.714   1.213  2.3812  1.6263  0.8569
11680TIP3    H256532   5.341   1.861   1.192 -0.8002  1.0958  0.9755
11681TIP3   OH256533   1.898   1.251  17.174  0.5040  0.2211 -0.2223
11681TIP3    H156534   1.853   1.288  17.099 -0.2659  0.2735  0.2618
11681TIP3    H256535   1.831   1.242  17.241  1.4743  1.7360  1.0455
11682TIP3   OH256536   6.461   2.526   0.423 -0.2310  0.1923 -0.2899
11682TIP3    H156537   6.466   2.433   0.401  1.2187  0.6863 -2.2633
11682TIP3    H256538   6.422   2.528   0.511  0.2036 -2.2864  0.0115
11683TIP3   OH256539   1.983   3.705   4.082 -0.2311  0.2589  0.0485
11683TIP3    H156540   1.931   3.631   4.114  0.1534  0.2741  0.7126
11683TIP3    H256541   1.964   3.776   4.143 -0.4665  0.6695 -0.4916
11684TIP3   OH256542   6.547   0.333   0.289  0.6512  0.0821  0.2188
11684TIP3    H156543   6.566   0.394   0.218  0.5240 -0.9474 -0.7207
11684TIP3    H256544   6.522   0.389   0.362  0.8559  1.1668 -0.5213
11685TIP3   OH256545   2.327   1.453   1.860  0.1322  0.0959 -0.3682
11685TIP3    H156546   2.347   1.506   1.937 -0.3385 -1.1071  0.6192
11685TIP3    H256547   2.369   1.369   1.877  0.2192 -0.1174 -1.5462
11686TIP3   OH256548   3.868   4.404  13.535 -0.0357  0.2458 -0.6116
11686TIP3    H156549   3.919   4.443  13.606 -0.1898  1.0609 -0.9447
11686TIP3    H256550   3.906   4.316  13.525 -1.0796 -0.5228  1.5672
11687TIP3   OH256551   5.209   0.405   1.839  0.1192  0.1669  0.1737
11687TIP3    H156552   5.298   0.438   1.830  0.6787 -1.1672  0.5314
11687TIP3    H256553   5.202   0.383   1.932 -0.3996 -0.2242  0.0439
11688TIP3   OH256554   5.253   2.707   0.531 -0.1005 -0.2587  0.1512
11688TIP3    H156555   5.302   2.689   0.611  0.3962  3.1881  0.7826
11688TIP3    H256556   5.193   2.633   0.523  1.1665 -1.6980  2.6203
11689TIP3   OH256557   0.569   2.341   6.835 -0.2011 -0.1780 -0.4738
11689TIP3    H156558   0.477   2.317   6.849 -0.7822  1.6115 -0.9981
11689TIP3    H256559   0.577   2.428   6.873  1.5435 -0.6786  0.3983
11690TIP3   OH256560   2.614   5.848  12.127  0.7405 -0.7062 -0.1222
11690TIP3    H156561   2.594   5.939  12.147 -1.2395 -1.4127  1.4533
11690TIP3    H256562   2.557   5.827  12.053  0.2469 -0.9807  0.3241
11691TIP3   OH256563   5.259   1.331   0.271  0.3894  0.2573  0.1325
11691TIP3    H156564   5.338   1.280   0.288  0.3998 -0.5238 -1.9111
11691TIP3    H256565   5.188   1.267   0.272  0.0831  0.5880 -0.0977
11692TIP3   OH256566   1.939   2.787  13.884  0.3759 -0.6216  0.2152
11692TIP3    H156567   1.955   2.751  13.971  0.7203 -0.8900  0.0423
11692TIP3    H256568   1.845   2.775  13.871  0.1653  0.1970  0.8887
11693TIP3   OH256569   5.466   1.560  13.967 -0.0693  0.2785  0.0594
11693TIP3    H156570   5.540   1.515  14.008 -0.4658 -0.6391 -0.2078
11693TIP3    H256571   5.407   1.580  14.041 -0.3333 -0.5046  0.0674
11694TIP3   OH256572   1.635   4.679   6.172 -0.1617 -0.7021  0.1401
11694TIP3    H156573   1.717   4.712   6.210  0.1513 -0.1377 -0.9541
11694TIP3    H256574   1.583   4.758   6.156  0.1860 -0.7699 -1.5942
11695TIP3   OH256575   0.776   2.140  11.263 -0.3413  0.0917 -0.1721
11695TIP3    H156576   0.767   2.126  11.168  0.5485 -3.0047  0.0799
11695TIP3    H256577   0.724   2.070  11.302  1.6003 -0.4825  1.5415
11696TIP3   OH256578   0.311   5.416   5.534 -0.1199 -0.5894  0.7375
11696TIP3    H156579   0.264   5.413   5.617  0.4753  0.3731  1.1332
11696TIP3    H256580   0.343   5.506   5.528 -0.9658 -0.3549 -1.0041
11697TIP3   OH256581   4.439   1.745   4.882 -0.6722  0.3525  0.0833
11697TIP3    H156582   4.402   1.712   4.964  0.1636  0.3171  0.4525
11697TIP3    H256583   4.386   1.822   4.861 -3.3297 -1.6592 -1.3078
11698TIP3   OH256584   5.749   0.044   4.675  0.3532 -0.1436  0.3493
11698TIP3    H156585   5.809   0.100   4.626 -1.1805 -0.0054 -1.4928
11698TIP3    H256586   5.762   0.069   4.767  1.5859  1.3424 -0.1984
11699TIP3   OH256587   5.906   2.455  16.321  0.5580  0.2513  0.2548
11699TIP3    H156588   5.939   2.373  16.357 -0.5782 -0.1041  0.5448
11699TIP3    H256589   5.840   2.484  16.385 -1.6109 -0.4542 -1.5194
11700TIP3   OH256590   3.638   5.311   4.606  0.2755  0.4439 -0.6130
11700TIP3    H156591   3.645   5.406   4.622  0.1387  0.4989 -0.8826
11700TIP3    H256592   3.711   5.291   4.548  0.4873  0.3272 -0.3100
11701TIP3   OH256593   3.639   6.165  17.188 -0.4866  0.2872  0.6896
11701TIP3    H156594   3.593   6.162  17.104  0.9299 -0.7055 -0.0953
11701TIP3    H256595   3.621   6.080  17.228  0.7614 -0.1862  0.2895
11702TIP3   OH256596   1.962   5.065   3.623 -0.0756  0.0632 -0.4935
11702TIP3    H156597   1.905   5.037   3.552 -1.1290  0.4581  0.1693
11702TIP3    H256598   2.049   5.034   3.598 -0.4428  0.0678 -1.8723
11703TIP3   OH256599   0.356   3.390  13.307  0.4286  0.6466  0.2902
11703TIP3    H156600   0.328   3.312  13.356  2.5016 -0.3017  0.0454
11703TIP3    H256601   0.296   3.394  13.233  1.4845 -1.9511 -0.8210
11704TIP3   OH256602   6.721   4.057   4.384 -0.4453  0.1612 -0.6551
11704TIP3    H156603   6.747   4.076   4.475 -1.0710 -1.5560 -0.0761
11704TIP3    H256604   6.774   4.117   4.331 -0.1517  1.2843  0.8437
11705TIP3   OH256605   3.368   5.588  12.499  0.2068  0.2017  0.7670
11705TIP3    H156606   3.433   5.605  12.430  1.7963  0.0639  2.1688
11705TIP3    H256607   3.310   5.521  12.462  0.2245  1.0410 -0.8913
11706TIP3   OH256608   5.662   0.449  16.597 -0.5686  0.5272 -0.0461
11706TIP3    H156609   5.600   0.480  16.664 -0.4453  1.9167 -0.5469
11706TIP3    H256610   5.745   0.489  16.622  0.5088 -2.2461  1.3036
11707TIP3   OH256611   1.917   1.062   0.269  0.3420 -0.1329 -0.3927
11707TIP3    H156612   1.901   1.025   0.356 -0.9956 -2.2632 -1.4546
11707TIP3    H256613   1.832   1.099   0.244 -0.2389 -2.4011 -2.0236
11708TIP3   OH256614   0.188   5.390   5.769  0.0312 -0.0750  0.1352
11708TIP3    H156615   0.210   5.299   5.793 -1.0262  0.3297  2.9671
11708TIP3    H256616   0.093   5.391   5.763  0.0818  0.6868 -0.8418
11709TIP3   OH256617   2.055   1.545   3.833 -0.1267 -0.1827  0.1027
11709TIP3    H156618   2.018   1.479   3.774 -1.0063  0.8428 -0.5314
11709TIP3    H256619   1.979   1.582   3.878  0.2084  1.2497 -0.4586
11710TIP3   OH256620   5.487   1.228   2.615  0.2555  0.5013  0.7593
11710TIP3    H156621   5.429   1.221   2.691 -1.5884  2.0926 -0.4127
11710TIP3    H256622   5.457   1.306   2.568  1.3764 -0.3645 -1.5838
11711TIP3   OH256623   0.251   5.951  11.962  0.4865 -0.0204 -0.1506
11711TIP3    H156624   0.181   5.949  12.028  0.7755 -2.2644  0.1349
11711TIP3    H256625   0.205   5.965  11.879  0.0169  1.5751  0.3276
11712TIP3   OH256626   6.249   4.774  16.908  0.0000 -0.4923 -0.5412
11712TIP3    H156627   6.317   4.711  16.881  0.7979  0.8151 -1.6823
11712TIP3    H256628   6.168   4.723  16.905  0.6549 -1.5539 -1.1398
11713TIP3   OH256629   3.299   5.596  13.159 -0.2484  0.2766  0.5932
11713TIP3    H156630   3.273   5.649  13.234  0.1646  1.0066  0.2392
11713TIP3    H256631   3.331   5.514  13.196  1.1674  1.1230  1.3106
11714TIP3   OH256632   5.590   1.702  17.339 -0.3430 -0.0635 -0.2708
11714TIP3    H156633   5.615   1.762  17.410 -0.7198  0.4150 -0.5345
11714TIP3    H256634   5.498   1.682  17.355 -0.1730 -0.7227 -0.0844
11715TIP3   OH256635   6.427   1.626   0.402  0.2110 -0.3013  0.0376
11715TIP3    H156636   6.499   1.683   0.429  0.3934 -0.2336 -0.5727
11715TIP3    H256637   6.389   1.594   0.484  1.8395 -1.4608  0.3983
11716TIP3   OH256638   4.792   0.574   4.991 -0.0877  0.5435 -0.8187
11716TIP3    H156639   4.749   0.584   4.906  0.7634  1.1244 -1.1951
11716TIP3    H256640   4.771   0.654   5.038 -2.6548 -0.8120  0.5286
11717TIP3   OH256641   4.065   1.141   5.965 -0.0134  0.1666 -0.2315
11717TIP3    H156642   3.999   1.088   6.010 -0.5672  1.2180  0.2314
11717TIP3    H256643   4.105   1.193   6.035  0.3023  0.5874 -0.7158
11718TIP3   OH256644   0.065   4.243  11.206  0.1938 -0.2708  0.8742
11718TIP3    H156645   0.036   4.328  11.173 -2.3155 -1.6770 -0.8756
11718TIP3    H256646   0.127   4.212  11.141 -0.8718 -0.8364  0.0896
11719TIP3   OH256647   3.240   0.196   4.963  0.0018  0.3382 -0.0924
11719TIP3    H156648   3.255   0.283   4.998  0.0997  0.1682  0.2989
11719TIP3    H256649   3.201   0.210   4.877 -2.7772  0.8202  1.1152
11720TIP3   OH256650   4.770   1.200  13.249  0.0423  0.5445 -0.1759
11720TIP3    H156651   4.771   1.108  13.272 -0.8650  0.3799 -0.7761
11720TIP3    H256652   4.698   1.210  13.187  0.6422  1.4988 -0.7658
11721TIP3   OH256653   0.771   1.953   6.100  0.2465 -0.3208  0.7863
11721TIP3    H156654   0.788   2.035   6.145 -2.5761  0.3581  0.8073
11721TIP3    H256655   0.850   1.901   6.113  0.8284  1.1043  3.6432
11722TIP3   OH256656   5.487   1.577  14.886 -0.1296  0.3940 -0.3751
11722TIP3    H156657   5.491   1.607  14.977  0.9402  1.3597 -0.7114
11722TIP3    H256658   5.488   1.481  14.892  2.6305  0.3821  0.6104
11723TIP3   OH256659   2.962   5.408   4.757  0.0169  0.2335  0.6340
11723TIP3    H156660   2.941   5.492   4.798 -2.5842 -0.4136  0.8220
11723TIP3    H256661   3.048   5.422   4.717  0.8543  2.1457  2.8460
11724TIP3   OH256662   4.291   0.556   4.943  0.6797  0.0753 -0.5481
11724TIP3    H156663   4.249   0.634   4.980  0.8784 -0.5636  1.1193
11724TIP3    H256664   4.305   0.577   4.851 -0.1113  1.6452 -0.3359
11725TIP3   OH256665   3.294   6.301   0.068 -0.4907  0.7289  0.0303
11725TIP3    H156666   3.274   6.392   0.089 -0.2018  0.2699  2.5732
11725TIP3    H256667   3.382   6.287   0.103 -0.8926 -0.7682  0.4990
11726TIP3   OH256668   4.049   4.638  14.051  0.7070  0.0671 -0.0065
11726TIP3    H156669   3.978   4.659  14.112  1.2654  0.5234  0.4927
11726TIP3    H256670   4.077   4.550  14.076 -1.0931 -1.0311 -1.5831
11727TIP3   OH256671   5.335   2.166   3.430 -0.2496 -0.3166  0.6385
11727TIP3    H156672   5.425   2.153   3.400 -0.3265 -1.8867  0.9875
11727TIP3    H256673   5.344   2.216   3.511  0.1547  1.2288 -0.3178
11728TIP3   OH256674   2.479   5.005   3.191 -0.3497 -0.2139  0.4037
11728TIP3    H156675   2.443   5.029   3.277  0.5566 -1.8261  1.2886
11728TIP3    H256676   2.530   4.926   3.208  1.1723  0.3257 -1.3505
11729TIP3   OH256677   5.920   2.339   4.490 -0.4003  0.1084 -0.4888
11729TIP3    H156678   5.911   2.309   4.400 -0.4078 -0.0813 -0.4247
11729TIP3    H256679   5.836   2.319   4.531  0.1635 -1.3675  0.0195
11730TIP3   OH256680   4.230   6.012  16.201 -0.1643  0.2546  0.3003
11730TIP3    H156681   4.229   5.920  16.175 -2.6561 -0.0475  1.2283
11730TIP3    H256682   4.228   6.010  16.297  2.2352  1.3345  0.4380
11731TIP3   OH256683   2.689   1.781  14.763 -0.3423  0.3242  0.1213
11731TIP3    H156684   2.720   1.749  14.847 -0.1508  0.7800  0.2266
11731TIP3    H256685   2.600   1.745  14.755 -0.7559  1.1213  0.9924
11732TIP3   OH256686   3.088   5.459  15.717  0.0329 -0.0458  0.0523
11732TIP3    H156687   3.087   5.555  15.723  3.0831  0.1890 -1.1597
11732TIP3    H256688   3.013   5.437  15.662 -0.4107  1.7111 -0.0891
11733TIP3   OH256689   6.093   5.895   1.539 -0.0283  0.0041 -0.0171
11733TIP3    H156690   6.158   5.828   1.560 -0.1665 -0.1208  0.0133
11733TIP3    H256691   6.013   5.846   1.523 -0.3131  0.2102  0.7320
11734TIP3   OH256692   4.518   6.277  17.284 -0.1129 -0.1768  0.2374
11734TIP3    H156693   4.581   6.255  17.216  0.2521  0.0191  0.5084
11734TIP3    H256694   4.550   6.233  17.363 -0.7785 -0.7750  0.1830
11735TIP3   OH256695   3.747   6.058   0.560 -0.4229  0.4413  0.4187
11735TIP3    H156696   3.793   6.061   0.644 -0.8262 -0.5384  0.6910
11735TIP3    H256697   3.660   6.026   0.582 -1.3691  2.5382 -0.0546
11736TIP3   OH256698   1.517   2.523   6.260  0.3038  0.1668 -0.3630
11736TIP3    H156699   1.470   2.557   6.337  2.6145  1.9180  0.3845
11736TIP3    H256700   1.573   2.454   6.295 -0.4793 -0.8146 -0.9797
11737TIP3   OH256701   4.571   3.736  13.321 -0.6201  0.6496  0.4348
11737TIP3    H156702   4.546   3.829  13.322 -1.6332  0.5469 -2.8496
11737TIP3    H256703   4.657   3.736  13.279 -0.9173  0.1064 -0.1935
11738TIP3   OH256704   0.697   6.729   4.219 -0.1746  0.5781  0.0962
11738TIP3    H156705   0.606   6.721   4.191  0.2148  0.0817 -1.1052
11738TIP3    H256706   0.747   6.689   4.147  1.3693  5.3971 -1.8993
11739TIP3   OH256707   1.782   0.904  12.446 -0.2436 -0.1412 -0.0713
11739TIP3    H156708   1.789   0.936  12.356 -0.7102  0.8056  0.2149
11739TIP3    H256709   1.710   0.955  12.484  0.6224  0.2020  1.1435
11740TIP3   OH256710   5.181   2.754  17.231 -0.3736 -0.0452 -0.1158
11740TIP3    H156711   5.092   2.727  17.208  0.2743 -1.6944 -0.7989
11740TIP3    H256712   5.204   2.700  17.306 -0.6196  1.7593  1.3324
11741TIP3   OH256713   4.882   1.331   2.049  0.0173 -0.2433 -0.3468
11741TIP3    H156714   4.960   1.301   2.096  0.2293  1.7545  0.6758
11741TIP3    H256715   4.881   1.278   1.969  1.9626 -0.8861 -0.0114
11742TIP3   OH256716   0.078   0.326   4.515  0.1225  0.3219  0.0056
11742TIP3    H156717   0.067   0.264   4.587  0.6130 -0.7729 -0.8312
11742TIP3    H256718   0.165   0.306   4.480  0.7330  2.1577  0.3135
11743TIP3   OH256719   4.029   6.219   2.091 -0.0482 -0.2359 -0.4486
11743TIP3    H156720   4.084   6.154   2.134 -0.2625 -0.0410  0.1402
11743TIP3    H256721   3.969   6.169   2.036 -0.3228 -0.5578  0.1293
11744TIP3   OH256722   4.703   3.691  14.999 -0.4885  0.0616 -0.3343
11744TIP3    H156723   4.657   3.661  15.077 -1.0852 -0.5030 -0.8909
11744TIP3    H256724   4.642   3.753  14.958 -0.3853 -0.0110 -0.6002
11745TIP3   OH256725   1.174   6.530   3.129  0.1376  0.0827  0.2011
11745TIP3    H156726   1.156   6.583   3.206  0.4191  2.2394 -1.1589
11745TIP3    H256727   1.238   6.580   3.078 -0.4578 -0.9728 -1.7108
11746TIP3   OH256728   3.429   0.006   4.394 -0.4634 -0.3226 -0.0698
11746TIP3    H156729   3.454  -0.014   4.484  2.6054  0.0609 -0.7458
11746TIP3    H256730   3.379  -0.071   4.365 -0.5274 -0.9290  1.5790
11747TIP3   OH256731   2.408   3.495   1.591  0.3986  0.3088  0.3415
11747TIP3    H156732   2.348   3.555   1.548  0.0788 -0.4403 -0.2856
11747TIP3    H256733   2.418   3.530   1.679  1.8355  2.4490 -0.5668
11748TIP3   OH256734   5.799   0.413   2.314 -0.7686 -0.2516 -0.5160
11748TIP3    H156735   5.738   0.453   2.375  1.0426 -1.0720  1.9998
11748TIP3    H256736   5.852   0.486   2.282 -0.1727 -0.0698  0.8223
11749TIP3   OH256737   2.104   4.632  17.185  0.4684  0.0644 -0.2683
11749TIP3    H156738   2.103   4.722  17.217  0.3252 -0.8123  2.4475
11749TIP3    H256739   2.175   4.590  17.234 -1.3027 -1.9664  0.7457
11750TIP3   OH256740   6.215   5.014   1.493 -0.0452 -0.2479 -0.1466
11750TIP3    H156741   6.245   5.048   1.577  1.6863 -0.4198 -0.6613
11750TIP3    H256742   6.143   5.072   1.469  0.3963  0.7219  0.7553
11751TIP3   OH256743   0.756   5.871   3.189 -0.2341  0.4150  0.0745
11751TIP3    H156744   0.794   5.808   3.250 -1.0456 -1.5994 -1.3907
11751TIP3    H256745   0.677   5.902   3.234 -1.7227 -2.2644 -0.4513
11752TIP3   OH256746   1.394   3.763  15.076  0.5391 -0.0328  0.1057
11752TIP3    H156747   1.383   3.781  15.170 -0.5733 -0.3808  0.0543
11752TIP3    H256748   1.422   3.671  15.072  0.0495 -0.1794  0.0684
11753TIP3   OH256749   0.140   2.964   5.182 -0.6544  0.1731  0.3491
11753TIP3    H156750   0.093   3.035   5.227 -0.5598 -0.1531  0.9823
11753TIP3    H256751   0.105   2.885   5.222  0.6867 -0.0717  1.0952
11754TIP3   OH256752   0.250   3.960  16.437  0.1800  0.1339 -0.3862
11754TIP3    H156753   0.263   3.866  16.450  2.2036  0.2401 -1.2432
11754TIP3    H256754   0.182   3.966  16.371  2.0870 -0.8880 -2.5892
11755TIP3   OH256755   1.592   5.623   5.183  0.2509 -0.2395 -0.0058
11755TIP3    H156756   1.660   5.671   5.136  1.2884  0.6734  2.2800
11755TIP3    H256757   1.635   5.544   5.214 -0.4614 -0.9051 -0.6559
11756TIP3   OH256758   2.868   5.936   4.890 -0.6102 -0.6055 -0.0494
11756TIP3    H156759   2.785   5.897   4.916 -0.9589  0.8141  1.1259
11756TIP3    H256760   2.880   6.009   4.951  1.4687 -0.7363 -0.2399
11757TIP3   OH256761   5.848   5.327  16.694 -0.9435  0.4054 -0.9347
11757TIP3    H156762   5.829   5.411  16.735  0.0637  0.6597 -0.9638
11757TIP3    H256763   5.944   5.320  16.696 -1.0419 -1.5830  0.7530
11758TIP3   OH256764   0.400   1.382  15.442  0.0162  0.0268  0.1835
11758TIP3    H156765   0.404   1.477  15.433 -1.4524  0.2268  1.3308
11758TIP3    H256766   0.489   1.353  15.421  0.8842  1.7826  1.1886
11759TIP3   OH256767   1.517   1.150  13.318  0.3739  0.4362 -0.1794
11759TIP3    H156768   1.610   1.140  13.342 -0.1380 -0.7700  1.5158
11759TIP3    H256769   1.489   1.061  13.296  0.1247  1.1100 -2.9329
11760TIP3   OH256770   1.767   5.286  11.833  0.2616  0.1884  0.6254
11760TIP3    H156771   1.751   5.340  11.911 -1.8736 -0.7513  0.8961
11760TIP3    H256772   1.840   5.329  11.789 -1.9283  3.9469  0.2369
11761TIP3   OH256773   1.979   1.749   5.643  0.3530  0.3327  0.5466
11761TIP3    H156774   1.950   1.658   5.655  0.2228  0.3081  0.0708
11761TIP3    H256775   2.073   1.747   5.659  0.2647  0.2190  1.0810
11762TIP3   OH256776   4.782   4.961   2.005 -0.4584  0.1735 -0.3096
11762TIP3    H156777   4.728   4.993   1.932  1.2849  2.8437 -0.5929
11762TIP3    H256778   4.748   5.007   2.082  0.1472  0.3908 -0.1623
11763TIP3   OH256779   3.671   3.039   0.461  0.1830 -0.6735  0.5647
11763TIP3    H156780   3.622   2.960   0.439 -1.0674  0.4791 -1.0907
11763TIP3    H256781   3.738   3.045   0.392 -0.8286  0.5522 -0.3787
11764TIP3   OH256782   4.771   6.662  11.883  0.4203 -0.1385 -0.2797
11764TIP3    H156783   4.717   6.737  11.906  0.2001  0.4102 -2.3924
11764TIP3    H256784   4.710   6.588  11.879  0.1814  0.0773 -0.6672
11765TIP3   OH256785   1.277   3.613  14.333  0.2015  0.6382  0.4815
11765TIP3    H156786   1.191   3.653  14.321 -0.0041  0.3053  0.8062
11765TIP3    H256787   1.312   3.654  14.412  0.2924  0.6886  0.4155
11766TIP3   OH256788   2.200   4.500  15.947  0.1486  0.1212 -0.0097
11766TIP3    H156789   2.112   4.529  15.924  0.9040  2.3560 -0.3228
11766TIP3    H256790   2.199   4.405  15.934 -2.2340  0.0726  0.1532
11767TIP3   OH256791   2.432   3.549   1.874  0.4737  0.0057 -0.3245
11767TIP3    H156792   2.459   3.620   1.932  0.6221 -0.8595  0.7022
11767TIP3    H256793   2.357   3.509   1.918  1.2441 -1.3322 -0.1601
11768TIP3   OH256794   2.766   2.265  14.845 -0.0313 -0.3603 -0.3830
11768TIP3    H156795   2.779   2.180  14.802  1.5281 -0.1266 -0.4491
11768TIP3    H256796   2.821   2.325  14.795  1.4028  0.0369  1.5503
11769TIP3   OH256797   1.316   6.295   2.125 -0.2957 -0.3576  0.6071
11769TIP3    H156798   1.377   6.244   2.071 -0.3087 -0.9374  1.1324
11769TIP3    H256799   1.237   6.240   2.131 -1.3461  0.8594 -1.0153
11770TIP3   OH256800   1.409   3.277   6.908  0.5353 -0.9883 -0.0497
11770TIP3    H156801   1.336   3.313   6.957 -0.5222 -0.8719 -1.6403
11770TIP3    H256802   1.428   3.342   6.841  1.5519 -1.4016 -0.1938
11771TIP3   OH256803   3.770   6.121   1.953  0.5346  0.0710  0.3890
11771TIP3    H156804   3.760   6.084   1.865 -2.9594  2.2027 -0.3105
11771TIP3    H256805   3.728   6.058   2.010 -1.6821  0.8450 -0.2566
11772TIP3   OH256806   4.063   3.593  11.202 -0.7270 -0.7785  0.2673
11772TIP3    H156807   3.996   3.558  11.144 -1.1903  0.9280 -0.3101
11772TIP3    H256808   4.124   3.521  11.216  0.1411 -0.9666 -3.4164
11773TIP3   OH256809   0.538   4.346  13.793  0.0764 -0.1188 -0.6472
11773TIP3    H156810   0.565   4.421  13.740  0.9839 -0.5953 -0.8755
11773TIP3    H256811   0.453   4.321  13.758 -0.4097  1.0316 -0.3191
11774TIP3   OH256812   0.627   6.594   0.121  0.2352  0.1736  0.1328
11774TIP3    H156813   0.554   6.654   0.105  1.7343  2.6713  1.8864
11774TIP3    H256814   0.684   6.605   0.045 -0.9714 -1.5753 -1.1055
11775TIP3   OH256815   2.915   6.747  12.768  0.4190  0.2629 -0.0640
11775TIP3    H156816   2.939   6.698  12.689  0.9466 -1.5947  1.1765
11775TIP3    H256817   2.897   6.679  12.833  0.9313  1.7430  1.6979
11776TIP3   OH256818   6.775   4.838  14.323  0.5073 -0.0186  0.1867
11776TIP3    H156819   6.827   4.917  14.340  1.1168 -0.2922 -0.3800
11776TIP3    H256820   6.830   4.766  14.356  0.5523 -0.3196 -0.5342
11777TIP3   OH256821   2.736   0.642   4.895  0.6186 -0.1248  0.4284
11777TIP3    H156822   2.828   0.619   4.898  0.2506 -1.6801  1.2456
11777TIP3    H256823   2.691   0.566   4.934 -1.0045  0.5308 -0.0658
11778TIP3   OH256824   2.998   0.764   6.018 -0.0810 -0.0665  0.2907
11778TIP3    H156825   2.955   0.808   5.945  1.7551  0.3029 -0.6437
11778TIP3    H256826   2.962   0.675   6.017 -1.9270  0.6381  0.5634
11779TIP3   OH256827   5.110   0.941   6.947  0.0385 -0.0869 -0.0670
11779TIP3    H156828   5.094   1.016   7.004  1.4808 -0.1048  0.4147
11779TIP3    H256829   5.182   0.969   6.891  1.8888 -1.6963  1.3561
11780TIP3   OH256830   6.684   1.012   2.095 -0.1204  0.2078  0.7471
11780TIP3    H156831   6.653   1.102   2.087 -0.2194  0.0153 -2.7461
11780TIP3    H256832   6.604   0.959   2.099 -0.0691  0.2142  3.5186
11781TIP3   OH256833   2.269   5.275   3.021 -0.2248  0.1256 -0.6161
11781TIP3    H156834   2.273   5.265   3.116  2.0314  2.7098 -0.3137
11781TIP3    H256835   2.176   5.286   3.002 -0.8900 -1.9346  1.0200
11782TIP3   OH256836   1.477   6.069  11.088 -0.4270 -0.4420 -0.2193
11782TIP3    H156837   1.499   6.160  11.107  0.3483 -0.9107  1.2303
11782TIP3    H256838   1.385   6.072  11.062  0.0054  0.9474 -1.8303
11783TIP3   OH256839   3.507   1.493  14.774 -0.9806 -0.4654 -0.1152
11783TIP3    H156840   3.542   1.582  14.769 -3.1985  0.4424 -0.8679
11783TIP3    H256841   3.441   1.497  14.843 -0.6983 -1.6887  0.2347
11784TIP3   OH256842   3.364   0.942  17.225  0.2097  0.2280 -0.2631
11784TIP3    H156843   3.370   0.862  17.173 -2.2001 -0.9330  1.0508
11784TIP3    H256844   3.445   0.944  17.276  0.1894 -1.5713 -0.0977
11785TIP3   OH256845   2.872   5.222  11.669 -0.2570  0.1413  0.6581
11785TIP3    H156846   2.795   5.230  11.614 -0.2450 -1.1431  0.4158
11785TIP3    H256847   2.846   5.160  11.738  0.3024  0.3083  1.0245
11786TIP3   OH256848   6.357   5.130   0.656 -0.1981  0.1285 -0.5650
11786TIP3    H156849   6.280   5.156   0.606  0.4197 -1.0184 -2.2109
11786TIP3    H256850   6.431   5.166   0.607  0.4008 -0.5014 -0.1399
11787TIP3   OH256851   3.565   2.659   3.737  0.2973  0.3773  0.6583
11787TIP3    H156852   3.549   2.594   3.669 -1.2746 -1.7400  2.8891
11787TIP3    H256853   3.564   2.743   3.690  0.0076 -0.9987 -2.0006
11788TIP3   OH256854   6.194   4.679  15.238 -0.4178 -0.4270 -0.4640
11788TIP3    H156855   6.246   4.754  15.266  1.5812 -1.3419 -1.5000
11788TIP3    H256856   6.177   4.694  15.145 -0.7037 -0.8554 -0.4847
11789TIP3   OH256857   6.695   4.931  13.894  0.1145 -0.3897 -0.5037
11789TIP3    H156858   6.616   4.963  13.938 -0.4750  1.5748 -2.7902
11789TIP3    H256859   6.690   4.836  13.901 -0.9947 -0.2326  1.7461
11790TIP3   OH256860   0.328   4.379   1.143  0.0627 -0.2405 -0.0946
11790TIP3    H156861   0.356   4.430   1.067  1.0348 -1.2238 -0.4328
11790TIP3    H256862   0.352   4.289   1.121 -1.0017 -0.7553  0.7627
11791TIP3   OH256863   3.352   3.572   0.578 -0.4510  0.4145 -0.1590
11791TIP3    H156864   3.262   3.563   0.610 -0.4016  0.9365  0.1383
11791TIP3    H256865   3.382   3.654   0.616 -0.1282  0.6619 -0.9493
11792TIP3   OH256866   5.612   0.586   4.521  0.3842 -0.3518 -0.3382
11792TIP3    H156867   5.544   0.635   4.475  0.2177 -0.4230 -0.1683
11792TIP3    H256868   5.590   0.494   4.506  0.3709 -0.3754 -0.1770
11793TIP3   OH256869   3.905   4.603  16.387 -0.0983 -0.3806  0.2958
11793TIP3    H156870   3.837   4.546  16.350 -0.3595  0.4830 -0.5818
11793TIP3    H256871   3.885   4.606  16.481  0.3339 -2.2680  0.4861
11794TIP3   OH256872   6.708   4.631   3.248  0.3497 -0.1106  0.4220
11794TIP3    H156873   6.705   4.679   3.166 -1.9370 -1.0581 -0.1196
11794TIP3    H256874   6.663   4.548   3.230  0.4580 -0.6718  2.4141
11795TIP3   OH256875   4.825   6.503   0.639  0.3190  0.1749 -0.4449
11795TIP3    H156876   4.907   6.477   0.596  0.5903 -1.1154  0.7786
11795TIP3    H256877   4.842   6.591   0.673  2.5432 -1.3457  2.8675
11796TIP3   OH256878   4.409   5.606  13.508 -0.2925 -0.6362 -0.0460
11796TIP3    H156879   4.463   5.610  13.587 -0.5193 -3.2447  0.3353
11796TIP3    H256880   4.329   5.562  13.536 -2.1727  1.9636 -0.8929
11797TIP3   OH256881   4.633   3.453   0.287 -0.1578  0.2978  0.2459
11797TIP3    H156882   4.682   3.518   0.238 -0.1097  1.6539  2.0075
11797TIP3    H256883   4.680   3.445   0.370  0.0285 -2.2580 -0.0165
11798TIP3   OH256884   4.581   4.479  11.145 -0.2335 -0.0893  0.6637
11798TIP3    H156885   4.538   4.428  11.076  1.6292  0.1992 -0.7675
11798TIP3    H256886   4.573   4.570  11.116  1.0580 -0.0090  0.4955
11799TIP3   OH256887   5.247   5.112  11.705 -0.2606 -0.6002  0.2080
11799TIP3    H156888   5.274   5.074  11.622  1.8976  1.7507 -0.2659
11799TIP3    H256889   5.172   5.168  11.683 -1.3892 -1.9921  0.3681
11800TIP3   OH256890   1.480   1.861   0.390  0.2805 -0.4215  0.5643
11800TIP3    H156891   1.453   1.947   0.361 -1.5456 -1.4983 -1.1546
11800TIP3    H256892   1.565   1.875   0.432  1.2567  1.8491 -1.8995
11801TIP3   OH256893   1.227   5.456  15.904 -0.0232  0.1619 -0.0210
11801TIP3    H156894   1.192   5.424  15.988 -1.4945 -0.6161 -0.8768
11801TIP3    H256895   1.308   5.406  15.891  0.7864  1.0412  1.3930
11802TIP3   OH256896   5.252   0.689   6.437  0.3021 -0.4479 -0.4354
11802TIP3    H156897   5.315   0.739   6.385 -2.0803  1.8530 -1.3732
11802TIP3    H256898   5.221   0.620   6.378 -1.3452  1.2791 -1.7058
11803TIP3   OH256899   3.349   4.554  13.267  0.1093 -0.5446  0.4902
11803TIP3    H156900   3.365   4.466  13.302  2.1135 -1.6224 -2.6840
11803TIP3    H256901   3.255   4.568  13.278 -0.5775 -3.7838 -0.3118
11804TIP3   OH256902   5.490   4.846   0.453 -0.3991 -0.3221 -0.7614
11804TIP3    H156903   5.533   4.924   0.416  1.7786 -1.8602 -1.6890
11804TIP3    H256904   5.430   4.818   0.384  0.0897 -0.4337 -1.1480
11805TIP3   OH256905   4.795   2.855   1.251 -0.4157 -0.1145  0.0553
11805TIP3    H156906   4.870   2.795   1.246  0.1014  0.6566 -2.8052
11805TIP3    H256907   4.831   2.935   1.289 -0.1705 -0.2408  0.0935
11806TIP3   OH256908   3.613   4.190  14.030  0.2785  0.5203 -0.0490
11806TIP3    H156909   3.587   4.110  14.075 -0.3919  0.6238 -0.2317
11806TIP3    H256910   3.532   4.223  13.991  0.7909  0.5848 -1.0881
11807TIP3   OH256911   0.377   6.423  17.177 -0.0479 -0.0666 -0.4125
11807TIP3    H156912   0.401   6.480  17.251 -1.7863  1.5082 -0.9751
11807TIP3    H256913   0.281   6.421  17.179 -0.0924 -0.9699 -1.9342
11808TIP3   OH256914   4.133   3.109   2.889 -0.1658  0.0938  0.1896
11808TIP3    H156915   4.099   3.190   2.853 -1.2492 -0.1128  0.6968
11808TIP3    H256916   4.055   3.061   2.918  0.4692 -0.9853  0.1910
11809TIP3   OH256917   1.130   3.807   6.306 -0.8033  0.0350  0.4308
11809TIP3    H156918   1.171   3.826   6.391  2.0248  0.4076 -0.9266
11809TIP3    H256919   1.200   3.817   6.242 -3.0489  0.7370 -2.1132
11810TIP3   OH256920   0.684   1.555   1.233 -0.4242  0.1817 -0.1755
11810TIP3    H156921   0.700   1.496   1.306 -1.8712  0.0726  0.0945
11810TIP3    H256922   0.734   1.634   1.253  0.4569 -0.4462  0.1268
11811TIP3   OH256923   5.553   1.832  17.058 -0.0202  0.6232  0.3880
11811TIP3    H156924   5.540   1.785  17.141  0.4368  1.3203  0.8625
11811TIP3    H256925   5.646   1.856  17.058  0.1225  0.1132 -0.6080
11812TIP3   OH256926   1.916   3.770  14.480  0.1199 -0.4813  0.1384
11812TIP3    H156927   1.828   3.807  14.482 -0.2800 -1.2867 -1.2483
11812TIP3    H256928   1.966   3.824  14.541 -0.9710  0.9188 -0.1504
11813TIP3   OH256929   3.577   0.792  11.533  0.2206  0.2346  0.3156
11813TIP3    H156930   3.536   0.771  11.617  0.6392  1.0789  0.7456
11813TIP3    H256931   3.617   0.710  11.504 -0.2322 -0.1455  0.7699
11814TIP3   OH256932   6.211   1.732  12.790  0.2992  0.0233 -0.6370
11814TIP3    H156933   6.275   1.691  12.732 -0.7390  0.0405 -1.8382
11814TIP3    H256934   6.127   1.721  12.745 -0.4762  0.4514  0.6516
11815TIP3   OH256935   0.050   5.990  17.164 -0.6857  0.2152  0.0284
11815TIP3    H156936   0.019   5.900  17.173 -0.9054  0.2639 -0.2289
11815TIP3    H256937   0.077   5.997  17.073 -0.8843  0.4746 -0.0137
11816TIP3   OH256938   1.425   0.068  16.353  0.4114 -0.0641 -0.0905
11816TIP3    H156939   1.501   0.119  16.379  1.1615 -1.2396  0.1025
11816TIP3    H256940   1.353   0.103  16.406  0.8195  0.9804 -0.1948
11817TIP3   OH256941   1.490   1.355   6.435  0.0140 -0.0288 -0.0124
11817TIP3    H156942   1.512   1.276   6.483  3.2080  1.3589  1.0869
11817TIP3    H256943   1.498   1.426   6.499 -1.7729  1.3176 -1.1777
11818TIP3   OH256944   0.361   3.589  12.613  0.2045 -0.6317 -0.8325
11818TIP3    H156945   0.449   3.573  12.646 -0.8457  0.7432  3.2328
11818TIP3    H256946   0.328   3.503  12.587  1.3666 -1.8872  1.5766
11819TIP3   OH256947   5.454   1.762  15.403  0.5136  0.6708 -0.4062
11819TIP3    H156948   5.460   1.694  15.470  1.8138  2.2404  1.1978
11819TIP3    H256949   5.373   1.809  15.424 -1.0820 -1.0649 -2.3040
11820TIP3   OH256950   0.507   5.142   6.158 -0.0554 -0.2694 -0.1317
11820TIP3    H156951   0.463   5.105   6.235 -0.3451 -0.3434 -0.3334
11820TIP3    H256952   0.580   5.191   6.194 -1.6877  1.9084  0.3870
11821TIP3   OH256953   2.818   1.444  15.161 -0.7604  0.0500  0.2849
11821TIP3    H156954   2.752   1.382  15.192 -0.5440  0.2832  1.2751
11821TIP3    H256955   2.818   1.434  15.066 -2.1177 -0.0514  0.2676
11822TIP3   OH256956   5.300   2.305  15.535  0.0382  0.0903  0.0065
11822TIP3    H156957   5.379   2.258  15.564 -0.2102 -0.1244  0.3371
11822TIP3    H256958   5.313   2.316  15.441  1.2271  1.4961  0.2964
11823TIP3   OH256959   6.506   2.749   1.748 -0.2245 -0.4608 -0.3981
11823TIP3    H156960   6.601   2.762   1.754 -0.4502  0.5574  2.2010
11823TIP3    H256961   6.494   2.705   1.664  2.5714 -0.9009 -0.6933
11824TIP3   OH256962   4.475   2.056  14.775 -0.1337 -0.2690  0.9537
11824TIP3    H156963   4.571   2.056  14.781 -0.1299 -1.2104  0.9811
11824TIP3    H256964   4.454   1.973  14.733 -0.8040  1.0799 -1.5411
11825TIP3   OH256965   1.146   0.164   1.750  0.0147 -0.0431  0.2151
11825TIP3    H156966   1.057   0.181   1.718 -0.9911 -2.9383  1.1418
11825TIP3    H256967   1.140   0.179   1.845  0.4156 -0.6003  0.3284
11826TIP3   OH256968   2.898   4.434   4.225  0.0070 -0.1121 -0.3778
11826TIP3    H156969   2.887   4.413   4.318  0.6863  0.7037 -0.0966
11826TIP3    H256970   2.870   4.525   4.217 -0.9417 -0.4606 -1.1669
11827TIP3   OH256971   1.898   0.981   5.810 -0.5143  0.4924 -0.0781
11827TIP3    H156972   1.879   0.891   5.783 -0.4849  0.4240  0.1330
11827TIP3    H256973   1.828   1.003   5.871  0.3599  0.0615  1.1067
11828TIP3   OH256974   2.538   5.031   3.799  0.1019 -0.5506 -0.3266
11828TIP3    H156975   2.599   4.987   3.859 -0.8367 -0.0213  1.0735
11828TIP3    H256976   2.575   5.118   3.787 -0.2608 -0.2823  0.3999
11829TIP3   OH256977   5.542   1.232   5.170 -0.0508 -0.0017  0.5683
11829TIP3    H156978   5.634   1.234   5.196 -0.2237  1.2978  1.1510
11829TIP3    H256979   5.544   1.232   5.074  0.5461 -1.3112  0.5505
11830TIP3   OH256980   5.286   3.996  12.640 -0.4152 -0.1945 -0.0724
11830TIP3    H156981   5.291   4.038  12.554 -0.0314 -0.4527 -0.1782
11830TIP3    H256982   5.308   3.905  12.624  0.5222 -0.0681  0.4310
11831TIP3   OH256983   3.156   3.318   1.920  1.0661 -0.3210  0.3931
11831TIP3    H156984   3.167   3.245   1.859  2.0929  0.5486 -0.4930
11831TIP3    H256985   3.125   3.391   1.866 -2.0070 -0.5670  1.5914
11832TIP3   OH256986   1.021   1.603   1.749 -0.1430 -0.3828 -0.0231
11832TIP3    H156987   0.939   1.564   1.780 -0.0316 -0.4980  0.1283
11832TIP3    H256988   1.039   1.559   1.666  0.0726 -0.7779  0.2330
11833TIP3   OH256989   0.881   0.352  14.643 -0.0670  0.5399 -0.0198
11833TIP3    H156990   0.856   0.443  14.661  0.2514  0.5559  0.3588
11833TIP3    H256991   0.891   0.313  14.730  0.8099  0.4254 -0.1666
11834TIP3   OH256992   5.393   2.603  15.308 -0.3174 -0.4583 -0.0665
11834TIP3    H156993   5.399   2.654  15.227 -1.7455  0.6688  0.4870
11834TIP3    H256994   5.363   2.517  15.279 -0.7319 -0.0945 -0.7679
11835TIP3   OH256995   5.404   5.602   4.500 -0.2175 -0.0502 -0.0343
11835TIP3    H156996   5.336   5.646   4.448 -0.7781  0.1821  0.8722
11835TIP3    H256997   5.480   5.599   4.442 -0.8873  0.0208 -0.9367
11836TIP3   OH256998   3.890   4.058  16.285  0.2835  0.3955  0.8462
11836TIP3    H156999   3.943   4.101  16.217 -0.4269 -1.9043 -1.3306
11836TIP3    H257000   3.942   3.982  16.311 -0.6932 -0.3336  0.7233
11837TIP3   OH257001   2.490   4.083   3.503 -0.1444 -0.4102  0.2152
11837TIP3    H157002   2.436   4.149   3.546  0.1455 -0.3001  0.4056
11837TIP3    H257003   2.533   4.036   3.574  0.7063  0.0831  0.0340
11838TIP3   OH257004   3.557   2.865  15.336  0.6706  0.2118 -0.3183
11838TIP3    H157005   3.568   2.928  15.265  1.8711 -0.4667 -0.7564
11838TIP3    H257006   3.476   2.892  15.380  1.3535  2.2808 -0.2359
11839TIP3   OH257007   6.592   3.735   1.346 -0.4492 -0.5930 -0.1215
11839TIP3    H157008   6.656   3.690   1.292  0.9763  2.3044 -1.0593
11839TIP3    H257009   6.643   3.775   1.416 -1.1693  1.6402 -0.7862
11840TIP3   OH257010   0.381   5.723   3.549  0.0185  0.0730 -0.2877
11840TIP3    H157011   0.380   5.682   3.635 -0.5304  0.6557 -0.0101
11840TIP3    H257012   0.338   5.659   3.491 -1.3473  0.4822  0.2528
11841TIP3   OH257013   4.314   5.184   3.091 -0.8765 -0.1392 -0.5114
11841TIP3    H157014   4.315   5.096   3.131 -0.2505  0.1510  0.1356
11841TIP3    H257015   4.256   5.235   3.148  0.9573  0.5991  0.8041
11842TIP3   OH257016   1.882   6.645   4.908 -0.1226  0.0339 -1.2939
11842TIP3    H157017   1.842   6.726   4.937  0.5760 -0.1283  0.2458
11842TIP3    H257018   1.828   6.615   4.835 -0.3515  1.8876 -1.9183
11843TIP3   OH257019   5.273   0.092   0.075  0.5163  0.5841  0.0208
11843TIP3    H157020   5.258   0.173   0.026 -2.0264  0.3903  0.3472
11843TIP3    H257021   5.287   0.121   0.165 -2.4668  0.6890  0.5523
11844TIP3   OH257022   5.460   4.395  11.593  0.0845 -0.1623 -0.5933
11844TIP3    H157023   5.516   4.461  11.634 -0.8795 -0.0322  0.5753
11844TIP3    H257024   5.511   4.363  11.519  1.2431  0.7269 -0.2127
11845TIP3   OH257025   6.104   3.097   2.772  0.2380  0.1434  0.4042
11845TIP3    H157026   6.033   3.141   2.726  1.1050  1.3138  0.1540
11845TIP3    H257027   6.074   3.089   2.862 -0.2544  0.5367  0.2747
11846TIP3   OH257028   5.667   3.283   3.200 -0.4860  0.3520  0.0509
11846TIP3    H157029   5.758   3.263   3.178  0.2200  0.7483  2.3484
11846TIP3    H257030   5.640   3.347   3.134  0.9425  0.3760 -0.5586
11847TIP3   OH257031   6.109   1.124   0.349 -0.9071  0.0176 -0.0987
11847TIP3    H157032   6.047   1.194   0.330  0.7875  2.1655  1.8677
11847TIP3    H257033   6.186   1.145   0.296 -0.3985 -0.3799  0.4747
11848TIP3   OH257034   4.420   4.704  10.747  0.7104 -0.8074 -0.0662
11848TIP3    H157035   4.458   4.707  10.659 -1.7256  0.2702 -1.1794
11848TIP3    H257036   4.460   4.779  10.792  0.7321 -0.3323 -0.8432
11849TIP3   OH257037   3.518   3.984  14.983 -0.7620 -0.1240 -0.0276
11849TIP3    H157038   3.480   4.009  15.067 -2.3701 -1.7971 -0.1930
11849TIP3    H257039   3.548   3.894  14.995 -1.8040 -0.7020 -1.4720
11850TIP3   OH257040   0.205   4.375  14.066 -0.3483  0.4164  0.0977
11850TIP3    H157041   0.197   4.456  14.016 -3.1449  1.5524  2.1392
11850TIP3    H257042   0.281   4.390  14.123  1.1262  0.2165 -1.7149
11851TIP3   OH257043   5.199   1.461   1.584  0.3600 -0.6942  0.5550
11851TIP3    H157044   5.125   1.494   1.636 -0.1539 -0.4564 -0.3014
11851TIP3    H257045   5.232   1.539   1.539  1.3112 -0.7545  1.1426
11852TIP3   OH257046   1.411   6.576   5.446  0.2412 -0.3564 -0.1249
11852TIP3    H157047   1.328   6.619   5.469 -0.2077  0.2519 -2.6611
11852TIP3    H257048   1.478   6.630   5.489 -0.3906  2.2185 -2.1129
11853TIP3   OH257049   1.218   6.567  13.524  0.5098  0.4431  0.2407
11853TIP3    H157050   1.174   6.574  13.609 -1.1692 -1.3964 -0.4136
11853TIP3    H257051   1.254   6.478  13.523  0.9532  0.6182 -0.7978
11854TIP3   OH257052   2.374   6.603   4.341  0.4370  0.2987  0.3090
11854TIP3    H157053   2.309   6.660   4.301  0.7570  0.1587 -0.4407
11854TIP3    H257054   2.448   6.661   4.360 -0.1192  0.5724  1.7097
11855TIP3   OH257055   1.656   5.520  12.548  0.2195 -0.7737 -0.1705
11855TIP3    H157056   1.672   5.552  12.637 -1.1635  0.4525 -0.3167
11855TIP3    H257057   1.743   5.501  12.513  0.7877 -1.2443  1.4221
11856TIP3   OH257058   2.530   4.516  13.399 -0.0808 -0.1305 -0.3198
11856TIP3    H157059   2.487   4.541  13.481 -1.5628 -1.7519 -0.5312
11856TIP3    H257060   2.486   4.568  13.332 -0.0195 -0.0039 -0.2614
11857TIP3   OH257061   4.080   5.034   4.365  0.3124 -0.0762 -0.1937
11857TIP3    H157062   4.091   5.004   4.275 -1.9200  1.4065 -1.0512
11857TIP3    H257063   3.998   4.995   4.393  1.2387 -0.9413  1.4426
11858TIP3   OH257064   2.507   6.252   3.046  0.4683  0.5404  0.4013
11858TIP3    H157065   2.599   6.268   3.025  0.7559  0.7869  1.7351
11858TIP3    H257066   2.498   6.157   3.045  1.3049  0.3827  2.3126
11859TIP3   OH257067   1.450   3.705  11.060 -0.0133  0.1521  0.2547
11859TIP3    H157068   1.397   3.626  11.055  0.2962 -0.0028 -1.1060
11859TIP3    H257069   1.532   3.683  11.014 -0.2606  1.4916 -0.9265
11860TIP3   OH257070   2.638   0.866  10.690  0.2841  0.6568 -0.4101
11860TIP3    H157071   2.700   0.908  10.749  0.9855 -0.5928 -0.2156
11860TIP3    H257072   2.568   0.835  10.747  1.2385 -1.0555 -0.0990
11861TIP3   OH257073   5.441   6.149   2.919 -0.1573  0.2666 -0.1289
11861TIP3    H157074   5.386   6.127   2.994 -0.8988 -0.3498 -0.8364
11861TIP3    H257075   5.529   6.122   2.945 -0.3736  0.2353  0.5842
11862TIP3   OH257076   5.485   1.468   0.781  0.2553  0.2333 -0.7444
11862TIP3    H157077   5.529   1.401   0.728  1.6470  1.7990 -1.6612
11862TIP3    H257078   5.403   1.484   0.735  1.1135  1.0348 -2.0861
11863TIP3   OH257079   5.228   1.623   0.648 -0.4658 -0.1503 -0.3966
11863TIP3    H157080   5.253   1.628   0.741  1.4495 -1.6826 -0.7657
11863TIP3    H257081   5.255   1.707   0.612  0.4711 -0.2303  0.0788
11864TIP3   OH257082   2.956   2.229   5.290 -0.5741 -0.4104 -0.8739
11864TIP3    H157083   2.877   2.197   5.334 -0.7282 -0.3767 -1.1263
11864TIP3    H257084   2.976   2.311   5.335 -0.9935 -0.1462 -1.1626
11865TIP3   OH257085   1.997   4.904  13.875  0.3429  0.0185  0.3356
11865TIP3    H157086   1.986   4.964  13.949 -0.0277 -0.0453  0.3362
11865TIP3    H257087   2.018   4.820  13.915 -1.8597 -0.5242  0.5160
11866TIP3   OH257088   2.347   3.061   4.992  0.4630  0.1123  0.3289
11866TIP3    H157089   2.416   3.040   4.930  0.8850 -1.5647  1.2976
11866TIP3    H257090   2.368   3.009   5.070  0.2058  2.4459  2.0679
11867TIP3   OH257091   0.170   3.254   1.688  0.5145  0.3486  0.2601
11867TIP3    H157092   0.170   3.244   1.783  2.1324  0.9821  0.3643
11867TIP3    H257093   0.242   3.314   1.670 -0.0785  0.6504 -1.3418
11868TIP3   OH257094   0.705   2.536   3.439  0.1380 -0.2832 -0.1653
11868TIP3    H157095   0.725   2.442   3.437  1.3919 -0.0803  1.1694
11868TIP3    H257096   0.666   2.553   3.353  0.3556 -1.9173 -0.6403
11869TIP3   OH257097   3.753   6.648  14.016 -0.7210 -0.0034 -0.3681
11869TIP3    H157098   3.770   6.732  13.974  0.2014  0.1550  0.2875
11869TIP3    H257099   3.734   6.588  13.943 -2.0945  0.9091 -0.7932
11870TIP3   OH257100   6.740   5.941   0.747 -0.2887 -0.0822  0.2640
11870TIP3    H157101   6.732   6.037   0.746  0.2580 -0.0328 -0.2175
11870TIP3    H257102   6.828   5.924   0.712 -0.6085 -0.7762 -0.2327
11871TIP3   OH257103   6.149   3.286   0.575  0.4013  0.4725 -0.2885
11871TIP3    H157104   6.062   3.269   0.538 -0.1536  0.0893  1.1144
11871TIP3    H257105   6.188   3.350   0.516 -2.3244  3.6300  0.9913
11872TIP3   OH257106   6.765   6.187   1.775 -0.2672 -0.3459 -0.0214
11872TIP3    H157107   6.702   6.164   1.707  0.5936 -0.8631 -0.6584
11872TIP3    H257108   6.764   6.283   1.776 -0.5606 -0.3373 -0.5095
11873TIP3   OH257109   5.055   3.511  15.316 -0.0643  0.3529  0.0812
11873TIP3    H157110   5.135   3.492  15.268 -0.2720  0.3998 -0.2810
11873TIP3    H257111   5.085   3.531  15.405  0.1485 -2.1975  0.6743
11874TIP3   OH257112   5.878   0.956   3.111  0.5787  0.1400 -0.1392
11874TIP3    H157113   5.972   0.956   3.093  0.4942  2.5265 -0.9073
11874TIP3    H257114   5.867   1.022   3.180 -0.5282 -0.2070  0.0378
11875TIP3   OH257115   5.263   2.103  14.855  0.1689  0.0719 -0.4206
11875TIP3    H157116   5.331   2.046  14.819 -0.4285 -0.8284 -0.1818
11875TIP3    H257117   5.262   2.179  14.798  1.3471  0.0875 -0.4447
11876TIP3   OH257118   3.249   3.739  11.468 -0.0483 -0.1887 -0.1164
11876TIP3    H157119   3.305   3.719  11.543  0.7744  0.0166 -0.6682
11876TIP3    H257120   3.174   3.680  11.478 -0.2566  0.2547  1.1900
11877TIP3   OH257121   0.665   0.495  15.449  0.1092 -0.1725 -0.5142
11877TIP3    H157122   0.600   0.494  15.519  1.1221  0.1058  0.4605
11877TIP3    H257123   0.709   0.410  15.456  1.0589  0.3460  0.0295
11878TIP3   OH257124   5.255   6.667   3.312  0.2443  0.3277  0.0166
11878TIP3    H157125   5.293   6.592   3.358 -0.3808  0.1341  0.2267
11878TIP3    H257126   5.200   6.710   3.378  1.5110  1.6779  0.2573
11879TIP3   OH257127   0.279   5.707  14.220 -0.1370 -0.2202  0.4685
11879TIP3    H157128   0.196   5.674  14.187 -0.9705 -0.0138  2.2400
11879TIP3    H257129   0.261   5.733  14.310  1.3108  1.9057  0.2189
11880TIP3   OH257130   3.752   4.688   4.334  0.2019 -0.3040  0.2120
11880TIP3    H157131   3.790   4.766   4.374 -1.8473  1.0090 -0.2410
11880TIP3    H257132   3.762   4.702   4.240 -0.9378 -0.1427  0.0996
11881TIP3   OH257133   4.327   2.634   4.737  0.1008 -0.1476 -0.2081
11881TIP3    H157134   4.371   2.704   4.786  0.0547 -1.0558  1.1687
11881TIP3    H257135   4.397   2.574   4.712 -0.0954 -0.5643  0.2366
11882TIP3   OH257136   0.136   6.135  16.897 -0.1742 -0.1562 -0.2013
11882TIP3    H157137   0.201   6.204  16.880 -0.1134 -0.0905  0.2941
11882TIP3    H257138   0.104   6.111  16.810  0.2962  0.0229 -0.4300
11883TIP3   OH257139   0.871   2.222  16.150  0.5897  0.2521  0.1795
11883TIP3    H157140   0.869   2.141  16.201  0.8742  0.4691  0.5429
11883TIP3    H257141   0.960   2.255  16.162  0.5179  0.5419 -0.0879
11884TIP3   OH257142   6.521   0.248   5.212  0.2379  0.4719 -0.2668
11884TIP3    H157143   6.428   0.228   5.198 -0.2894  1.9374  0.8980
11884TIP3    H257144   6.552   0.279   5.127 -0.4530  0.4243 -0.5438
11885TIP3   OH257145   6.350   2.602  15.197  0.1634  0.4256  0.0132
11885TIP3    H157146   6.278   2.657  15.169  0.5173  0.3647 -1.0456
11885TIP3    H257147   6.426   2.633  15.147  0.3310 -1.1202 -0.7649
11886TIP3   OH257148   1.566   0.341  12.085 -0.2405  0.4297 -0.3328
11886TIP3    H157149   1.618   0.261  12.079  0.9462  1.2855 -3.5391
11886TIP3    H257150   1.623   0.403  12.129  0.0584  0.3318 -0.5707
11887TIP3   OH257151   2.525   0.158  17.379 -0.3779  0.6843 -0.4035
11887TIP3    H157152   2.606   0.123  17.342 -1.4315 -0.7279 -1.4778
11887TIP3    H257153   2.554   0.223  17.443  1.5915  0.1521 -0.6971
11888TIP3   OH257154   2.894   6.233   4.555 -0.6664  0.2456  0.2074
11888TIP3    H157155   2.946   6.312   4.571  0.6382 -0.6246  0.4027
11888TIP3    H257156   2.817   6.244   4.611 -0.9365  1.7734 -0.4286
11889TIP3   OH257157   2.237   1.411   1.587 -0.3614 -0.1876  0.0751
11889TIP3    H157158   2.204   1.325   1.560  0.0586 -0.2325 -0.3041
11889TIP3    H257159   2.252   1.403   1.681  0.4613 -0.7932 -0.1015
11890TIP3   OH257160   6.004   1.505  12.398  0.4648  0.5249 -0.0681
11890TIP3    H157161   5.973   1.422  12.434 -2.5854  2.0256  1.0919
11890TIP3    H257162   6.100   1.500  12.404  0.2866 -1.5869  3.0777
11891TIP3   OH257163   3.366   3.774  13.507 -0.9175  0.3854  0.4255
11891TIP3    H157164   3.398   3.851  13.459 -2.3376 -0.4384 -1.9998
11891TIP3    H257165   3.445   3.723  13.525 -0.2086  1.2782 -0.0419
11892TIP3   OH257166   4.819   4.266  16.551 -0.0455 -0.1584 -0.1902
11892TIP3    H157167   4.847   4.357  16.541  0.5615 -0.4118 -0.9810
11892TIP3    H257168   4.731   4.263  16.515  0.4917 -0.1684 -1.5495
11893TIP3   OH257169   5.752   0.015  16.209 -0.1576  0.2503  0.2752
11893TIP3    H157170   5.670  -0.000  16.162 -0.4697 -0.1702  0.9429
11893TIP3    H257171   5.763  -0.063  16.264  0.5715  0.4068  0.3572
11894TIP3   OH257172   0.973   1.038  11.235 -0.2753 -0.4147 -0.2763
11894TIP3    H157173   0.895   1.090  11.254 -1.0165 -1.2667 -0.9480
11894TIP3    H257174   0.975   1.031  11.140  1.0032  0.1539 -0.3067
11895TIP3   OH257175   1.986   0.489   5.349  0.3463 -0.2575  0.0842
11895TIP3    H157176   1.913   0.439   5.386 -0.4013  0.6381 -0.1377
11895TIP3    H257177   1.955   0.517   5.263  0.4172  1.2461  0.5184
11896TIP3   OH257178   3.797   4.313   2.863  0.8666 -0.3389 -0.0430
11896TIP3    H157179   3.892   4.304   2.871  0.9311 -0.9697 -1.2229
11896TIP3    H257180   3.785   4.362   2.781  0.2081  1.6232  1.1686
11897TIP3   OH257181   0.861   6.003   5.497  0.1878  0.0663  0.4819
11897TIP3    H157182   0.860   6.033   5.406 -0.7763 -0.5732  0.2745
11897TIP3    H257183   0.920   6.065   5.541 -2.2784  2.8258  0.2386
11898TIP3   OH257184   1.478   6.586  13.761 -0.6451  0.0185 -0.4085
11898TIP3    H157185   1.528   6.530  13.820  0.1762 -0.2106 -1.2960
11898TIP3    H257186   1.543   6.624  13.702 -1.3207  1.0342 -0.5433
11899TIP3   OH257187   1.929   4.073  11.845  0.3535 -0.3690 -0.5030
11899TIP3    H157188   1.877   4.012  11.793  1.3442 -0.2685 -1.6518
11899TIP3    H257189   1.928   4.154  11.795  0.7138 -0.0404  0.0116
11900TIP3   OH257190   0.684   5.731  14.434 -0.4014  0.4786  0.1024
11900TIP3    H157191   0.682   5.639  14.459  1.5094  0.6941  1.2630
11900TIP3    H257192   0.721   5.731  14.346  1.8319  0.2029  0.9689
11901TIP3   OH257193   2.855   2.895  15.789 -0.0038 -0.6726  0.5097
11901TIP3    H157194   2.866   2.949  15.711 -1.2886 -2.4525 -1.0061
11901TIP3    H257195   2.913   2.934  15.854 -1.3654  2.9133 -0.2100
11902TIP3   OH257196   3.130   0.161   3.323  0.1958  0.4824  0.6455
11902TIP3    H157197   3.144   0.255   3.335  0.4327  0.3526  1.5279
11902TIP3    H257198   3.183   0.120   3.393 -0.0924 -0.2903  0.4255
11903TIP3   OH257199   1.595   4.059   3.935 -0.0276 -0.2047 -0.3571
11903TIP3    H157200   1.549   4.142   3.948  0.0596  0.3604 -3.0466
11903TIP3    H257201   1.608   4.024   4.023  0.0621  2.7157  0.8972
11904TIP3   OH257202   2.770   6.041   1.455 -0.2376  0.3767  0.0086
11904TIP3    H157203   2.777   5.947   1.471  2.1887  0.4537 -0.2887
11904TIP3    H257204   2.711   6.047   1.379  1.2963 -1.0954 -1.3847
11905TIP3   OH257205   0.903   5.746   4.841  0.4262 -0.6062  0.1553
11905TIP3    H157206   0.972   5.706   4.788 -0.2686 -0.3125 -1.0077
11905TIP3    H257207   0.894   5.835   4.806 -0.9996 -0.8557 -0.1745
11906TIP3   OH257208   2.178   0.690  12.706 -0.4758 -0.5739  0.5073
11906TIP3    H157209   2.214   0.616  12.657 -1.8238 -0.6790 -0.3803
11906TIP3    H257210   2.254   0.739  12.737  0.4234 -2.0110  0.6178
11907TIP3   OH257211   2.401   2.626  15.602  0.3791  0.1395  0.1712
11907TIP3    H157212   2.440   2.541  15.586 -0.8318 -0.2706 -0.8037
11907TIP3    H257213   2.379   2.659  15.515 -0.1876  0.9478  0.6016
11908TIP3   OH257214   6.345   4.092  17.063 -0.0467  0.4077  0.8318
11908TIP3    H157215   6.438   4.077  17.048 -0.4747 -0.7911 -0.7741
11908TIP3    H257216   6.328   4.178  17.025 -0.0458 -0.3843 -1.0476
11909TIP3   OH257217   5.960   6.742   3.398  0.3031  0.2889  0.5619
11909TIP3    H157218   6.054   6.755   3.386  0.3521 -0.3926  0.1921
11909TIP3    H257219   5.942   6.655   3.363 -0.7821  1.1162 -1.1133
11910TIP3   OH257220   5.247   6.095  12.323  0.3834  0.0925 -0.1849
11910TIP3    H157221   5.295   6.013  12.334  0.4131  0.0965 -0.2881
11910TIP3    H257222   5.219   6.095  12.232 -2.8748 -1.5922  0.6286
11911TIP3   OH257223   6.159   6.257  14.629 -0.2380 -0.6289  0.0520
11911TIP3    H157224   6.237   6.247  14.573  0.2318  0.1176  0.5488
11911TIP3    H257225   6.087   6.272  14.568  0.1658 -0.4427 -0.3854
11912TIP3   OH257226   3.697   0.262  13.985  0.0692 -0.3183 -0.5058
11912TIP3    H157227   3.660   0.201  14.048 -0.5148  0.0669 -0.4682
11912TIP3    H257228   3.744   0.207  13.923  0.3390 -0.7280  0.0578
11913TIP3   OH257229   3.788   1.926   4.517  0.0701  0.4592  0.1536
11913TIP3    H157230   3.834   1.865   4.575 -0.3151  0.1782  0.1678
11913TIP3    H257231   3.774   2.004   4.571 -3.0368 -0.8678  1.5577
11914TIP3   OH257232   4.003   1.573   4.121  0.0897 -0.3600 -0.0781
11914TIP3    H157233   3.977   1.586   4.029 -1.6390 -1.3760  0.2177
11914TIP3    H257234   4.084   1.622   4.130 -1.2628  2.3253 -1.3511
11915TIP3   OH257235   0.205   1.326   2.673 -0.5290  0.1831 -0.0286
11915TIP3    H157236   0.261   1.390   2.630 -0.5927  1.2504  1.3943
11915TIP3    H257237   0.251   1.303   2.754 -0.7029 -1.2749 -0.3130
11916TIP3   OH257238   3.526   2.803   0.344  0.1931  0.0694  0.4855
11916TIP3    H157239   3.531   2.749   0.422 -1.3245  0.4330  0.8648
11916TIP3    H257240   3.479   2.749   0.280  0.9524 -0.0242 -0.0031
11917TIP3   OH257241   0.598   3.360  12.441 -0.3430  0.4697 -0.1388
11917TIP3    H157242   0.517   3.340  12.394 -0.5579  2.8477 -0.9143
11917TIP3    H257243   0.615   3.453  12.423  0.1197  1.3090  3.6824
11918TIP3   OH257244   3.854   6.214  13.955  0.0599 -0.1583  0.1182
11918TIP3    H157245   3.773   6.233  13.907  0.3034 -0.2387 -0.3318
11918TIP3    H257246   3.921   6.267  13.911  0.3304 -0.4166  0.2154
11919TIP3   OH257247   0.920   4.125   5.749  0.5683 -0.0536  0.0147
11919TIP3    H157248   0.874   4.197   5.705  0.8246 -0.1951 -0.4969
11919TIP3    H257249   0.851   4.076   5.792  0.4048  0.5736  0.4852
11920TIP3   OH257250   4.232   0.170   2.989  0.6090  0.4533  0.1431
11920TIP3    H157251   4.319   0.160   2.949  0.7304  1.1293  0.2190
11920TIP3    H257252   4.232   0.107   3.061 -0.1574 -1.8366 -1.7584
11921TIP3   OH257253   3.718   2.930   1.040  0.5775  0.2838 -0.4658
11921TIP3    H157254   3.661   2.980   1.099 -1.6424 -1.0171 -1.3769
11921TIP3    H257255   3.804   2.971   1.048 -0.9672  3.8959 -0.7808
11922TIP3   OH257256   4.161   6.640   1.816  0.7568 -0.6820 -0.7423
11922TIP3    H157257   4.188   6.554   1.848 -1.6717 -1.3715 -0.2992
11922TIP3    H257258   4.080   6.659   1.865 -0.0627  0.7585 -2.5263
11923TIP3   OH257259   3.442   2.833  15.691 -0.2618  0.2303 -0.1825
11923TIP3    H157260   3.376   2.886  15.735  0.0265  0.9766 -0.6441
11923TIP3    H257261   3.481   2.891  15.626 -0.4704 -0.7639 -1.2336
11924TIP3   OH257262   1.704   5.812   4.680 -0.2131  0.0003  0.7458
11924TIP3    H157263   1.711   5.717   4.693 -2.8266 -0.1600  1.4805
11924TIP3    H257264   1.667   5.821   4.592 -0.6447  0.2941  0.9536
11925TIP3   OH257265   4.274   1.354  12.718  0.3821  0.0919  0.2002
11925TIP3    H157266   4.231   1.407  12.650 -0.5432 -1.8121 -0.7636
11925TIP3    H257267   4.206   1.342  12.785  0.5769  0.0896  0.3988
11926TIP3   OH257268   1.144   1.434   2.770  0.1191 -0.3964  0.3530
11926TIP3    H157269   1.122   1.348   2.805  1.5383  0.1084  2.7007
11926TIP3    H257270   1.070   1.456   2.712 -0.9687 -2.5429  0.8300
11927TIP3   OH257271   4.165   1.794  13.688 -0.2127  0.8579  0.0265
11927TIP3    H157272   4.116   1.740  13.626 -0.9229 -0.2477  1.4944
11927TIP3    H257273   4.238   1.738  13.715  0.1363  1.3660  0.1459
11928TIP3   OH257274   5.064   0.833  11.549 -0.4332 -0.1631 -0.0371
11928TIP3    H157275   5.080   0.885  11.628  0.0776  1.2970 -1.0608
11928TIP3    H257276   5.101   0.748  11.568  0.3869  0.4068  1.0117
11929TIP3   OH257277   6.058   4.468  17.261  0.0058 -0.1727  0.0215
11929TIP3    H157278   6.002   4.391  17.271 -0.2893  0.1482  0.9226
11929TIP3    H257279   5.997   4.538  17.237  0.3206 -0.2882 -1.1450
11930TIP3   OH257280   2.234   6.270   5.906  0.4610 -0.0824  0.8066
11930TIP3    H157281   2.185   6.351   5.923  2.0213  1.0546  0.2261
11930TIP3    H257282   2.218   6.215   5.982 -0.3653  0.9180  1.3843
11931TIP3   OH257283   5.222   0.581   2.662 -0.4236 -0.2472 -0.1012
11931TIP3    H157284   5.172   0.596   2.582 -0.7912  0.4159  0.2419
11931TIP3    H257285   5.311   0.562   2.632 -0.8771 -1.4835 -0.7217
11932TIP3   OH257286   1.086   5.574  13.375  0.4145 -0.0099  0.9338
11932TIP3    H157287   1.037   5.567  13.294 -0.6800  2.5240  1.2671
11932TIP3    H257288   1.155   5.508  13.368 -0.2282 -0.5015 -1.5956
11933TIP3   OH257289   2.551   2.211   4.864 -0.3658  0.1602 -0.2048
11933TIP3    H157290   2.566   2.244   4.775  0.1491 -2.0498 -1.0141
11933TIP3    H257291   2.639   2.198   4.900 -0.5721  1.3055  0.7718
11934TIP3   OH257292   1.071   5.500   5.752 -0.7317 -0.1108 -0.0688
11934TIP3    H157293   1.115   5.582   5.731 -0.2475 -0.8272 -2.0581
11934TIP3    H257294   1.000   5.494   5.689 -1.1636 -0.9235  0.4777
11935TIP3   OH257295   1.526   4.061   1.306  0.4916 -0.2420  0.2843
11935TIP3    H157296   1.508   3.968   1.319 -1.0849  0.1155  0.8581
11935TIP3    H257297   1.541   4.094   1.395  1.7658 -0.0638  0.0211
11936TIP3   OH257298   3.232   6.587   6.096  0.7062  0.4152  0.1356
11936TIP3    H157299   3.306   6.564   6.040  0.2623  0.0128 -0.2870
11936TIP3    H257300   3.224   6.514   6.157 -0.4365 -0.3923 -0.9384
11937TIP3   OH257301   3.152   2.202  14.014  0.4865 -0.2345 -0.3154
11937TIP3    H157302   3.097   2.136  13.974  2.0234 -0.4541 -2.1935
11937TIP3    H257303   3.239   2.163  14.017  1.5388  1.7665 -1.8556
11938TIP3   OH257304   6.080   4.761  14.393 -0.8567 -0.5807 -0.2010
11938TIP3    H157305   6.009   4.784  14.452 -1.3866 -0.6719 -0.7931
11938TIP3    H257306   6.041   4.698  14.332 -0.8321  0.8528 -1.7634
11939TIP3   OH257307   5.478   2.588  14.335 -0.5793  0.3683  0.3536
11939TIP3    H157308   5.563   2.544  14.342 -0.8555 -0.4199 -0.8779
11939TIP3    H257309   5.433   2.567  14.418 -1.0629 -2.5645 -0.5295
11940TIP3   OH257310   5.877   3.667   4.964 -0.1247 -1.1317  0.5299
11940TIP3    H157311   5.935   3.744   4.957  0.1621 -1.4608 -1.1366
11940TIP3    H257312   5.849   3.666   5.055  1.4131 -0.1590  1.0438
11941TIP3   OH257313   3.256   2.192   0.700 -0.1705 -0.2953 -0.0425
11941TIP3    H157314   3.237   2.279   0.663 -0.7221 -0.7063 -0.7452
11941TIP3    H257315   3.323   2.209   0.767  0.7545  0.4933 -1.1245
11942TIP3   OH257316   2.526   5.185  12.869  0.3748 -1.0468 -0.8241
11942TIP3    H157317   2.471   5.260  12.849 -0.7662 -1.4252  0.7084
11942TIP3    H257318   2.613   5.210  12.836  0.0831  1.0440 -0.2028
11943TIP3   OH257319   5.315   6.480  11.757 -0.4394 -0.1656 -0.1654
11943TIP3    H157320   5.354   6.516  11.677 -0.3966  0.5628  0.1719
11943TIP3    H257321   5.321   6.385  11.747 -0.4040 -0.0808 -1.0127
11944TIP3   OH257322   1.308   5.555   5.141  0.3546  0.1708 -0.2903
11944TIP3    H157323   1.400   5.582   5.137  0.1202  1.1195  0.4017
11944TIP3    H257324   1.265   5.609   5.075  0.4241 -0.8965 -1.2349
11945TIP3   OH257325   1.998   2.981   2.629 -0.9953  0.5674  0.3505
11945TIP3    H157326   2.058   3.003   2.558 -0.2398 -3.0652 -0.3405
11945TIP3    H257327   2.049   2.998   2.709 -0.7518  1.8404 -0.0604
11946TIP3   OH257328   4.356   2.990  16.303  0.1113  0.0257 -0.7299
11946TIP3    H157329   4.323   3.050  16.370 -0.1993 -0.4064 -0.4919
11946TIP3    H257330   4.451   2.991  16.314  0.1420  0.7836 -0.9977
11947TIP3   OH257331   6.375   4.934   2.924 -0.5756 -0.1827 -0.8034
11947TIP3    H157332   6.312   4.985   2.974  1.5712 -0.3680  2.4029
11947TIP3    H257333   6.418   4.998   2.867  0.3175  1.1766  1.2916
11948TIP3   OH257334   4.369   4.337   2.145  0.2911  0.0093 -0.3164
11948TIP3    H157335   4.418   4.388   2.209  1.1194  0.2735 -1.1286
11948TIP3    H257336   4.313   4.280   2.197  1.3332 -0.1663  0.6636
11949TIP3   OH257337   4.230   1.687  16.634  0.4160  0.1570 -0.4044
11949TIP3    H157338   4.232   1.698  16.729  0.0592 -1.3025 -0.1985
11949TIP3    H257339   4.298   1.745  16.601  1.2448 -0.0724  0.8379
11950TIP3   OH257340   6.547   6.232   2.518  0.1836 -0.6803  0.4655
11950TIP3    H157341   6.545   6.204   2.426  0.4724  0.6955  0.0139
11950TIP3    H257342   6.549   6.150   2.568  0.7611 -1.4539 -0.7680
11951TIP3   OH257343   4.223   3.127  17.197 -0.6132  0.2212  0.6035
11951TIP3    H157344   4.160   3.198  17.191 -1.4486 -0.3366  2.3334
11951TIP3    H257345   4.303   3.168  17.231 -0.7889  0.5037  0.6765
11952TIP3   OH257346   5.760   1.162  12.846  0.2898 -0.3334  0.4571
11952TIP3    H157347   5.719   1.231  12.795  0.4221 -1.2893 -0.9758
11952TIP3    H257348   5.689   1.099  12.864  0.8648 -1.5027 -1.1911
11953TIP3   OH257349   2.653   5.392   3.454 -0.9085  0.2832 -0.0836
11953TIP3    H157350   2.678   5.483   3.471  2.3096 -0.6955  1.1480
11953TIP3    H257351   2.674   5.377   3.362  2.2371 -0.1443  0.6068
11954TIP3   OH257352   6.491   6.739   2.409 -0.1504  0.4452 -0.4126
11954TIP3    H157353   6.470   6.646   2.397 -0.7445  0.5347 -0.1310
11954TIP3    H257354   6.497   6.774   2.320  0.1615  0.1219 -0.5223
11955TIP3   OH257355   5.269   2.991  16.559  0.1099 -0.2321  0.5197
11955TIP3    H157356   5.278   2.912  16.506  2.2370 -0.0597  0.5304
11955TIP3    H257357   5.184   3.027  16.534 -0.2371 -1.7196 -0.5860
11956TIP3   OH257358   1.700   3.593   6.505  0.0791 -0.2069 -0.0206
11956TIP3    H157359   1.732   3.664   6.560 -1.1491 -1.6639  2.7713
11956TIP3    H257360   1.628   3.632   6.455  0.2687  0.8155  0.4712
11957TIP3   OH257361   6.681   6.536  16.011  0.6086 -0.1018  0.3308
11957TIP3    H157362   6.649   6.513  16.098  1.2597 -0.9712  0.3509
11957TIP3    H257363   6.612   6.506  15.952 -0.9089  2.4744  0.6119
11958TIP3   OH257364   3.451   0.952   3.057 -0.4762 -0.6119 -0.5054
11958TIP3    H157365   3.413   0.865   3.047 -0.7177 -0.4287 -1.2630
11958TIP3    H257366   3.466   0.982   2.968 -0.5277  0.1790 -0.2578
11959TIP3   OH257367   1.578   2.082  16.471  0.8481 -0.2392  0.0511
11959TIP3    H157368   1.620   2.168  16.471  2.4974 -0.9501 -2.2373
11959TIP3    H257369   1.512   2.088  16.402 -0.2887 -0.3074  1.0937
11960TIP3   OH257370   4.919   1.873  16.593 -0.1024 -0.6897  0.2823
11960TIP3    H157371   4.873   1.820  16.658  0.5995 -0.0990  1.2939
11960TIP3    H257372   4.850   1.914  16.541 -0.6770 -1.0986  0.7172
11961TIP3   OH257373   2.161   4.855  17.303  0.3616 -0.4174  0.7044
11961TIP3    H157374   2.132   4.852  17.394  0.2522  1.3152  0.7581
11961TIP3    H257375   2.245   4.901  17.305 -1.7601  4.1391 -0.3993
11962TIP3   OH257376   3.138   1.399  14.720 -0.5468  0.4048  0.0089
11962TIP3    H157377   3.053   1.389  14.677 -0.8214  3.9603 -0.5436
11962TIP3    H257378   3.201   1.406  14.648 -0.3783  1.8276  0.2753
11963TIP3   OH257379   1.317   6.667  12.952  0.9305 -0.0441 -0.2829
11963TIP3    H157380   1.347   6.719  12.877 -0.5860  0.7063 -0.4190
11963TIP3    H257381   1.227   6.696  12.966  0.7255 -1.1876  0.9561
11964TIP3   OH257382   6.361   3.239   4.167  0.5465  0.2157 -0.7260
11964TIP3    H157383   6.329   3.303   4.231  0.8502 -0.1190 -0.2389
11964TIP3    H257384   6.364   3.157   4.215 -0.3935 -0.2998 -1.5034
11965TIP3   OH257385   2.471   6.033  14.461 -0.1701 -0.5879  0.2513
11965TIP3    H157386   2.555   6.077  14.477 -0.4150 -0.2234  0.5431
11965TIP3    H257387   2.432   6.023  14.548 -0.6692 -0.2747  0.0655
11966TIP3   OH257388   5.324   0.776  17.365 -0.2114  0.3624  0.0355
11966TIP3    H157389   5.390   0.841  17.342 -0.3261  0.0367 -1.3088
11966TIP3    H257390   5.340   0.756  17.457  1.0547  0.8677 -0.0635
11967TIP3   OH257391   0.038   5.825  13.978  0.1438  0.0175 -0.1521
11967TIP3    H157392   0.031   5.737  14.017 -1.5172 -0.2261 -0.9290
11967TIP3    H257393   0.130   5.832  13.953  0.3928 -1.3701  0.2500
11968TIP3   OH257394   4.503   1.528   5.413  0.0322 -0.1491  0.5329
11968TIP3    H157395   4.522   1.443   5.453  1.3310  0.2404  0.8064
11968TIP3    H257396   4.487   1.508   5.321 -0.6125 -0.7924  0.7840
11969TIP3   OH257397   4.203   3.369  13.016 -0.1558  0.3853 -0.2578
11969TIP3    H157398   4.117   3.393  13.052  0.2450 -0.2811  1.2238
11969TIP3    H257399   4.206   3.412  12.931 -1.6286  1.0973  0.0139
11970TIP3   OH257400   3.049   0.377  10.587  0.6841 -0.1187  0.1846
11970TIP3    H157401   3.011   0.451  10.540  3.1145  0.7666 -0.5482
11970TIP3    H257402   3.006   0.300  10.550  0.0016  0.7695 -0.9192
11971TIP3   OH257403   2.833   1.123   3.699 -0.0192  0.4935  0.1151
11971TIP3    H157404   2.927   1.110   3.710 -0.0812 -0.3437 -0.2588
11971TIP3    H257405   2.797   1.034   3.696 -0.8629  0.8107  0.6080
11972TIP3   OH257406   4.750   5.558  11.204 -0.1281 -0.2310 -0.5365
11972TIP3    H157407   4.751   5.654  11.208  0.1210 -0.2368 -0.4831
11972TIP3    H257408   4.682   5.538  11.140  0.1934 -0.0044 -0.9552
11973TIP3   OH257409   2.234   4.669   1.814 -0.4640 -0.5097  0.5979
11973TIP3    H157410   2.275   4.590   1.779  0.6447 -0.6495  2.1057
11973TIP3    H257411   2.259   4.739   1.753  2.3615 -0.5316  1.5943
11974TIP3   OH257412   5.823   0.824   0.054 -0.4695 -0.2117 -0.4297
11974TIP3    H157413   5.902   0.857   0.011 -1.1640  2.3920  0.0783
11974TIP3    H257414   5.849   0.740   0.092  1.3602 -0.5267 -2.2184
11975TIP3   OH257415   2.070   4.287  13.264  0.2082 -0.4648 -0.3341
11975TIP3    H157416   2.139   4.263  13.327 -0.4771 -0.2996  0.4902
11975TIP3    H257417   1.988   4.273  13.312 -0.3375 -0.5927 -1.2848
11976TIP3   OH257418   5.337   2.141   4.215 -0.3426 -0.5194 -0.7490
11976TIP3    H157419   5.290   2.140   4.132  0.9680 -1.5586 -1.5221
11976TIP3    H257420   5.391   2.063   4.213  0.0976 -0.3025  0.8853
11977TIP3   OH257421   6.336   2.656  17.266  0.0911 -0.0556 -0.0891
11977TIP3    H157422   6.387   2.625  17.192  1.0363  0.5107  0.3036
11977TIP3    H257423   6.245   2.637  17.243  0.3938 -0.1550 -1.2529
11978TIP3   OH257424   0.305   1.858  16.349  0.2565  0.8248  0.1237
11978TIP3    H157425   0.379   1.896  16.302  1.1122  0.7486  1.3820
11978TIP3    H257426   0.246   1.829  16.280  1.7083  0.2561 -0.9329
11979TIP3   OH257427   1.744   6.291  16.966  0.0034  0.5928 -0.9356
11979TIP3    H157428   1.767   6.383  16.962  1.3694  0.2709 -0.9386
11979TIP3    H257429   1.658   6.286  16.925 -0.2297  1.8981 -0.6477
11980TIP3   OH257430   6.474   3.942  15.645 -0.3099  0.4170 -0.0198
11980TIP3    H157431   6.505   3.860  15.607 -0.5065  0.2125  0.2559
11980TIP3    H257432   6.381   3.946  15.621 -0.0412  1.1153 -0.9991
11981TIP3   OH257433   0.136   6.423   3.364 -0.1209  0.0479  0.6607
11981TIP3    H157434   0.168   6.375   3.288 -0.2982 -0.2844  0.7908
11981TIP3    H257435   0.170   6.511   3.353 -0.8821  0.2492 -0.2693
11982TIP3   OH257436   2.323   6.302   1.145  0.0800  0.0065 -0.2907
11982TIP3    H157437   2.231   6.324   1.132  0.4186  0.5143 -2.1501
11982TIP3    H257438   2.328   6.269   1.234 -1.6637  1.1791  0.2760
11983TIP3   OH257439   5.063   0.929   2.004 -0.5828 -0.2042  0.6836
11983TIP3    H157440   4.968   0.941   2.001 -0.5668 -0.1993  0.0852
11983TIP3    H257441   5.075   0.849   2.056 -0.8506  0.4471  1.7756
11984TIP3   OH257442   4.118   6.385  17.162  0.0667  0.4816  0.5088
11984TIP3    H157443   4.036   6.390  17.113  1.4151  2.1825 -1.8002
11984TIP3    H257444   4.094   6.347  17.246 -2.8327 -0.3151 -0.5687
11985TIP3   OH257445   2.693   3.335   2.951  0.4638 -0.1722  0.4782
11985TIP3    H157446   2.765   3.271   2.948  0.2880 -0.4648  1.9484
11985TIP3    H257447   2.693   3.367   3.041 -0.6089  0.5824  0.2195
11986TIP3   OH257448   3.621   2.717  13.459 -0.5758  0.1581  0.4846
11986TIP3    H157449   3.552   2.657  13.487 -1.1978  1.1570  1.1993
11986TIP3    H257450   3.658   2.677  13.381 -3.0767  0.3153 -0.9086
11987TIP3   OH257451   2.036   5.501   0.058  0.0237 -0.3213 -0.4127
11987TIP3    H157452   2.046   5.425   0.001 -0.2749 -1.0680  0.4986
11987TIP3    H257453   2.117   5.550   0.048  0.2864 -0.8432 -0.8905
11988TIP3   OH257454   4.730   1.923   2.247  0.1851  0.3527  0.2761
11988TIP3    H157455   4.811   1.873   2.236  0.2564  0.5054  0.1003
11988TIP3    H257456   4.660   1.857   2.243  0.2195  0.3630 -0.8395
11989TIP3   OH257457   2.720   6.714  11.628  0.2070  0.0906  0.2194
11989TIP3    H157458   2.658   6.646  11.652  1.1521 -0.4951  1.0880
11989TIP3    H257459   2.760   6.741  11.710  0.8021  0.7393 -0.2655
11990TIP3   OH257460   2.193   5.842  13.787 -0.2671 -0.4469  0.1875
11990TIP3    H157461   2.129   5.843  13.716  0.2510 -0.5549 -0.2928
11990TIP3    H257462   2.237   5.757  13.778 -0.7357 -0.8083  1.1385
11991TIP3   OH257463   6.139   6.081  11.693 -0.5585  0.6778  0.0830
11991TIP3    H157464   6.226   6.042  11.686 -1.0221 -0.3417 -0.2510
11991TIP3    H257465   6.121   6.115  11.605 -0.6050  0.6556  0.0840
11992TIP3   OH257466   5.488   0.382  15.115 -0.7907  0.1518  1.1664
11992TIP3    H157467   5.567   0.342  15.150  0.0267  0.6916 -0.0075
11992TIP3    H257468   5.486   0.356  15.023 -1.0161  1.5959  0.7454
11993TIP3   OH257469   5.781   6.298  15.873 -0.5326 -0.6223 -0.3376
11993TIP3    H157470   5.803   6.321  15.783  1.3288  0.3968  0.2984
11993TIP3    H257471   5.831   6.218  15.891  1.0168  0.4607  0.4433
11994TIP3   OH257472   5.519   0.753  15.377 -0.0608 -0.0225  0.2300
11994TIP3    H157473   5.606   0.766  15.416  0.0465  1.4359 -0.4169
11994TIP3    H257474   5.508   0.658  15.375  1.6163 -0.2537  0.1425
11995TIP3   OH257475   3.140   4.714  14.470 -0.6034 -0.2364 -0.3129
11995TIP3    H157476   3.163   4.666  14.391  1.2838 -3.1989  1.8131
11995TIP3    H257477   3.051   4.684  14.490  0.0047 -1.8208  0.1873
11996TIP3   OH257478   0.903   5.844   2.873  0.3561  0.6045  0.2644
11996TIP3    H157479   0.831   5.796   2.912  1.6768 -2.1728 -0.4707
11996TIP3    H257480   0.948   5.884   2.947 -1.4778  1.8625  0.7778
11997TIP3   OH257481   1.168   1.939  14.039 -0.2760 -0.1531  0.1137
11997TIP3    H157482   1.255   1.901  14.027 -0.0872  0.5123 -0.6778
11997TIP3    H257483   1.185   2.026  14.075 -0.6072  0.0395 -0.1968
11998TIP3   OH257484   2.881   4.726   3.173  0.4703  0.2743 -0.1253
11998TIP3    H157485   2.958   4.702   3.225  1.2327  0.9009 -0.9273
11998TIP3    H257486   2.912   4.724   3.082 -0.5980  0.0549 -0.4960
11999TIP3   OH257487   4.175   6.603   3.226 -0.6261 -0.2106  0.1661
11999TIP3    H157488   4.136   6.650   3.299  0.3491  0.6928  0.1149
11999TIP3    H257489   4.129   6.637   3.149 -0.6974 -0.1619  0.2296
12000TIP3   OH257490   5.441   2.535   5.149  0.0746 -0.1801 -0.4856
12000TIP3    H157491   5.465   2.451   5.110 -2.9438 -1.1140 -0.6058
12000TIP3    H257492   5.407   2.512   5.236  0.6409  1.1402  0.1144
12001TIP3   OH257493   6.551   5.529   1.079  0.1696  0.3820 -0.3678
12001TIP3    H157494   6.548   5.456   1.017  1.9967 -0.6072  0.6305
12001TIP3    H257495   6.473   5.518   1.133  0.8842 -1.4391  0.3652
12002TIP3   OH257496   4.739   1.809   1.956 -0.2910 -0.1717  0.5147
12002TIP3    H157497   4.724   1.895   1.916  0.3454 -0.5559 -0.5713
12002TIP3    H257498   4.724   1.824   2.050 -0.6014  1.0254  0.2926
12003TIP3   OH257499   0.727   5.125   1.689  0.2305  0.2529 -0.5851
12003TIP3    H157500   0.796   5.079   1.737 -0.6668 -0.1110  0.4003
12003TIP3    H257501   0.689   5.184   1.754  1.5368  2.6801 -1.8856
12004TIP3   OH257502   5.443   6.722   4.871  0.8142 -0.7502  0.1436
12004TIP3    H157503   5.494   6.736   4.951  0.2025  0.8561  0.2981
12004TIP3    H257504   5.351   6.726   4.900  0.5607 -2.6958 -0.2686
12005TIP3   OH257505   6.551   6.658  13.246  0.3579 -0.0402  0.9405
12005TIP3    H157506   6.630   6.605  13.261 -0.0730 -0.7179  0.8479
12005TIP3    H257507   6.556   6.682  13.153  1.4332  1.5491  1.3700
12006TIP3   OH257508   6.744   3.963  14.886 -0.2273 -0.1098 -0.3099
12006TIP3    H157509   6.735   3.959  14.791  1.2618 -0.6987 -0.4509
12006TIP3    H257510   6.834   3.991  14.901  0.4239 -2.5452  0.9070
12007TIP3   OH257511   0.171   1.018  13.140 -0.1711  0.0511  0.2870
12007TIP3    H157512   0.102   1.078  13.113 -0.9617  0.3536  2.8030
12007TIP3    H257513   0.250   1.052  13.099 -0.7988  2.1650  0.7379
12008TIP3   OH257514   1.870   1.110   4.554 -0.1321 -0.0628 -0.2546
12008TIP3    H157515   1.936   1.046   4.580 -0.4440 -0.8828 -1.3756
12008TIP3    H257516   1.915   1.167   4.492 -0.4974 -0.7713 -1.2094
12009TIP3   OH257517   6.330   6.684   2.885  0.1642  0.1513  0.2149
12009TIP3    H157518   6.284   6.758   2.846  1.1885 -0.1771 -1.7573
12009TIP3    H257519   6.406   6.723   2.928  0.3109  0.3273 -0.1959
12010TIP3   OH257520   0.046   4.344   4.516  0.1499 -0.1853 -0.4157
12010TIP3    H157521   0.081   4.430   4.493 -0.2643  0.5047  1.3273
12010TIP3    H257522   0.075   4.329   4.606 -1.3829 -0.9866 -0.0126
12011TIP3   OH257523   0.281   4.531   2.392 -0.3026 -0.4667  0.3182
12011TIP3    H157524   0.303   4.575   2.474 -0.4590 -0.7099  0.4913
12011TIP3    H257525   0.211   4.584   2.353  1.0263  0.7131 -0.5734
12012TIP3   OH257526   4.227   0.445   2.110  0.3653  0.0244  0.6285
12012TIP3    H157527   4.249   0.352   2.113  0.7081  0.1303  2.1440
12012TIP3    H257528   4.134   0.447   2.087 -0.0365 -0.7873  2.0582
12013TIP3   OH257529   5.857   4.361   4.289  0.4312  0.1109 -0.5323
12013TIP3    H157530   5.776   4.404   4.263 -0.4236 -1.3767 -0.4980
12013TIP3    H257531   5.918   4.432   4.307 -0.9552  1.2831 -0.2786
12014TIP3   OH257532   3.301   0.359   2.427  0.1189 -0.0323  0.1826
12014TIP3    H157533   3.365   0.298   2.463 -0.0977  0.2690  1.1045
12014TIP3    H257534   3.231   0.304   2.393  0.4509 -0.3322 -0.0155
12015TIP3   OH257535   0.681   2.204  17.140  0.2593  0.1004 -0.7836
12015TIP3    H157536   0.735   2.243  17.209  1.4121 -0.6573 -1.2231
12015TIP3    H257537   0.601   2.257  17.138  0.5553  0.6258  0.5762
12016TIP3   OH257538   5.820   5.581   2.588 -0.4674  0.5469 -0.1194
12016TIP3    H157539   5.756   5.521   2.549 -0.4605 -0.4204  1.3011
12016TIP3    H257540   5.886   5.523   2.627  0.5690  1.5188 -0.3766
12017TIP3   OH257541   0.343   0.165  16.754 -0.3421 -0.4018  0.8630
12017TIP3    H157542   0.272   0.128  16.702 -1.5433  0.7263  1.6386
12017TIP3    H257543   0.369   0.095  16.814 -0.3882 -1.0100  0.1799
12018TIP3   OH257544   2.242   3.432  17.314 -0.0416 -0.0504  0.7528
12018TIP3    H157545   2.228   3.416  17.220  0.6512  1.4747  0.3568
12018TIP3    H257546   2.280   3.351  17.347  0.0459 -0.4800 -0.3602
12019TIP3   OH257547   3.527   4.962   5.262  0.1647  0.0324  0.4856
12019TIP3    H157548   3.609   4.998   5.295 -0.3254  0.3438  1.3810
12019TIP3    H257549   3.502   4.897   5.327 -1.0246  0.9410  0.9629
12020TIP3   OH257550   2.687   0.415  16.986  1.0696  0.6273 -0.1052
12020TIP3    H157551   2.609   0.421  16.932  0.6949  0.4111  0.4035
12020TIP3    H257552   2.656   0.435  17.075  1.5193  0.1712  0.1619
12021TIP3   OH257553   0.223   3.499   4.912 -0.3110 -0.1230 -0.1961
12021TIP3    H157554   0.218   3.494   4.817  0.0178  0.9378 -0.2800
12021TIP3    H257555   0.271   3.580   4.930  1.8076 -1.5249  0.8303
12022TIP3   OH257556   0.168   5.137   3.709 -0.4329  0.3938 -0.1011
12022TIP3    H157557   0.086   5.160   3.752 -0.0233  0.1963  0.8013
12022TIP3    H257558   0.159   5.171   3.620 -1.1461  1.1456  0.2491
12023TIP3   OH257559   6.318   6.572   3.792  0.1765 -0.3228 -0.5896
12023TIP3    H157560   6.224   6.562   3.775  0.1174 -0.1710 -0.3548
12023TIP3    H257561   6.330   6.536   3.880 -0.1475  2.2057  0.5661
12024TIP3   OH257562   4.931   1.110   5.079 -0.5257 -0.4538 -0.1425
12024TIP3    H157563   4.991   1.177   5.047 -0.5186 -0.6786 -0.6078
12024TIP3    H257564   4.846   1.154   5.083 -0.2993 -0.0702  0.7371
12025TIP3   OH257565   4.140   0.905   3.735 -0.0564 -0.0341  0.0784
12025TIP3    H157566   4.175   0.816   3.742 -2.1574 -1.2539 -2.9086
12025TIP3    H257567   4.156   0.930   3.644 -0.9935  1.9715  0.4120
12026TIP3   OH257568   2.285   2.832   1.643 -0.1274  0.4429 -0.1122
12026TIP3    H157569   2.256   2.768   1.709  1.0240  0.5021  0.4741
12026TIP3    H257570   2.205   2.855   1.596 -0.6981 -0.8462  0.1699
12027TIP3   OH257571   3.050   5.735  15.190 -0.6297  0.0755  0.0336
12027TIP3    H157572   3.138   5.760  15.164 -1.1288  0.8856 -0.9439
12027TIP3    H257573   3.034   5.652  15.144 -0.4311  0.0021  0.0964
12028TIP3   OH257574   0.681   0.160  11.897  0.8593 -0.2906  0.2341
12028TIP3    H157575   0.617   0.189  11.962 -0.0451 -0.0596 -0.7200
12028TIP3    H257576   0.766   0.182  11.934  0.2836  1.6350  0.4997
12029TIP3   OH257577   2.339   0.629   2.456 -0.2247 -0.2243  0.0753
12029TIP3    H157578   2.302   0.546   2.485  1.1477 -1.0349 -0.3814
12029TIP3    H257579   2.353   0.618   2.362  0.7627  0.1842  0.1544
12030TIP3   OH257580   0.797   5.315  15.438 -0.1727  0.4801 -0.0964
12030TIP3    H157581   0.776   5.386  15.499  1.2400  0.4387  0.4807
12030TIP3    H257582   0.787   5.354  15.351 -0.9046  0.9219  0.1749
12031TIP3   OH257583   4.125   3.928  15.185  0.1964 -0.3421 -0.0391
12031TIP3    H157584   4.116   3.870  15.110  1.3605 -0.5675 -0.0321
12031TIP3    H257585   4.037   3.960  15.202 -0.5726 -2.4792  0.2642
12032TIP3   OH257586   4.245   1.046  13.739  0.1617 -0.5994 -0.1298
12032TIP3    H157587   4.230   1.079  13.650  0.4748  1.7349  0.5915
12032TIP3    H257588   4.335   1.072  13.758  0.3400 -1.7216  0.6319
12033TIP3   OH257589   0.123   4.176   5.385 -0.2019  0.4491  0.4814
12033TIP3    H157590   0.190   4.215   5.441 -0.1625  1.6240 -0.3306
12033TIP3    H257591   0.156   4.089   5.364  1.2978  1.1648 -0.2588
12034TIP3   OH257592   3.253   3.152   3.447  0.5245  0.3156 -0.0289
12034TIP3    H157593   3.331   3.132   3.499  2.0714 -1.0341 -2.6457
12034TIP3    H257594   3.276   3.125   3.358 -2.4623  1.1843 -1.1898
12035TIP3   OH257595   6.448   1.639  16.893  0.0106 -0.2584  0.0663
12035TIP3    H157596   6.536   1.676  16.901 -0.2359  0.3886 -0.1369
12035TIP3    H257597   6.391   1.715  16.892 -0.5509 -0.6762  0.1376
12036TIP3   OH257598   6.526   3.192  17.020  0.7083  0.1905 -0.2062
12036TIP3    H157599   6.515   3.261  17.085 -0.5845  0.5557 -0.7859
12036TIP3    H257600   6.620   3.192  17.001  0.6830  2.1270 -0.5352
12037TIP3   OH257601   1.838   6.542   0.080  0.3054 -0.5268  0.4581
12037TIP3    H157602   1.800   6.621   0.120 -2.7191 -1.2231 -0.7824
12037TIP3    H257603   1.807   6.470   0.135  1.4940 -1.0058  0.5144
12038TIP3   OH257604   4.815   0.389   4.024 -0.2505  0.4721  0.0863
12038TIP3    H157605   4.847   0.474   3.992 -1.3753  1.1253  0.6305
12038TIP3    H257606   4.755   0.358   3.957 -0.0164  0.2141 -0.0053
12039TIP3   OH257607   0.908   4.182   4.308 -0.0750  1.0761 -0.1514
12039TIP3    H157608   0.815   4.163   4.294 -0.3117  1.1745  1.1780
12039TIP3    H257609   0.948   4.168   4.222 -0.8680 -1.5437 -0.1906
12040TIP3   OH257610   1.157   0.336   3.573  0.1315 -0.5167 -0.6163
12040TIP3    H157611   1.101   0.272   3.529 -3.0278  2.2075 -0.9642
12040TIP3    H257612   1.153   0.414   3.517  1.3683  0.9625  1.2207
12041TIP3   OH257613   4.249   2.536  15.222  0.1085 -0.5330  0.0682
12041TIP3    H157614   4.223   2.501  15.307 -0.3881 -0.3061  0.0099
12041TIP3    H257615   4.183   2.505  15.161  2.2123 -3.5359 -0.9166
12042TIP3   OH257616   6.389   4.657  16.141 -0.0269  0.3253 -0.1731
12042TIP3    H157617   6.481   4.644  16.116 -0.0360 -1.2291  0.4916
12042TIP3    H257618   6.357   4.723  16.080  1.0603 -0.3617 -1.5406
12043TIP3   OH257619   0.655   1.096  13.564  0.0865 -0.0320 -0.3171
12043TIP3    H157620   0.561   1.092  13.548 -0.1896  0.3403  1.1042
12043TIP3    H257621   0.664   1.141  13.648  1.5892  1.0235 -0.9913
12044TIP3   OH257622   6.262   4.263  15.664 -0.4219 -0.4732 -0.2566
12044TIP3    H157623   6.247   4.225  15.577 -2.2861 -1.3159  0.3877
12044TIP3    H257624   6.212   4.207  15.724  0.4584  0.3529  1.3129
12045TIP3   OH257625   6.079   4.017   1.131 -0.2547 -0.4183  0.6621
12045TIP3    H157626   6.088   3.942   1.191 -0.8409 -0.3686  0.8225
12045TIP3    H257627   6.084   4.094   1.188  0.3575 -0.3314  0.4951
12046TIP3   OH257628   0.447   3.383  17.270 -0.4714 -0.8185 -0.0395
12046TIP3    H157629   0.521   3.430  17.233  0.8680 -1.6400  1.4420
12046TIP3    H257630   0.439   3.304  17.217 -0.5521 -0.5454 -0.4400
12047TIP3   OH257631   5.308   4.893  13.051  0.3856  0.2489 -0.6063
12047TIP3    H157632   5.346   4.871  13.137 -0.8501 -0.6842 -0.2540
12047TIP3    H257633   5.359   4.967  13.020  2.0099 -0.5063  0.1447
12048TIP3   OH257634   4.081   1.313   2.079 -0.6493 -0.0212 -0.5483
12048TIP3    H157635   3.995   1.335   2.115 -1.1787 -2.5233 -0.1089
12048TIP3    H257636   4.141   1.371   2.125 -1.6652 -0.9461  2.1532
12049TIP3   OH257637   4.017   3.742  12.927 -0.3233 -0.1796 -0.2509
12049TIP3    H157638   3.977   3.796  12.859 -0.6028 -0.1813 -0.0920
12049TIP3    H257639   4.099   3.711  12.889  1.4566  2.9023  0.7150
12050TIP3   OH257640   3.103   2.995  14.304 -0.0276  0.3791  0.2151
12050TIP3    H157641   3.131   3.024  14.217 -0.5076  1.1427  0.3012
12050TIP3    H257642   3.121   3.070  14.361  0.1017 -0.0444  0.7395
12051TIP3   OH257643   1.494   5.724  17.453  0.4474  0.0457 -0.1008
12051TIP3    H157644   1.542   5.661  17.399 -1.0029 -0.8011 -0.4479
12051TIP3    H257645   1.484   5.801  17.396 -1.2534 -0.9172 -1.1687
12052TIP3   OH257646   5.080   1.148   0.345 -0.1920 -0.1572 -0.1433
12052TIP3    H157647   5.092   1.077   0.281  2.5345  0.6549 -0.6607
12052TIP3    H257648   5.107   1.110   0.428 -1.0222 -0.3751  0.0410
12053TIP3   OH257649   2.893   0.501   5.966 -0.2165 -0.3398  0.3442
12053TIP3    H157650   2.826   0.438   5.938 -1.9832  0.4175  2.5332
12053TIP3    H257651   2.941   0.456   6.035  0.7512 -0.4189 -0.3559
12054TIP3   OH257652   1.867   6.247   5.609 -0.0534 -0.2857  0.4167
12054TIP3    H157653   1.926   6.322   5.617  0.1908 -0.4665  0.3008
12054TIP3    H257654   1.923   6.170   5.620  0.1681 -0.5441 -2.0179
12055TIP3   OH257655   2.017   4.558   3.684  0.0240  0.1515 -0.0682
12055TIP3    H157656   2.011   4.539   3.778  0.3725  1.2435  0.1981
12055TIP3    H257657   2.001   4.474   3.641 -1.0175 -0.1897  0.9406
12056TIP3   OH257658   2.992   5.878  16.746 -0.1831  0.0336  0.3052
12056TIP3    H157659   3.012   5.843  16.659 -0.7398 -0.1463  0.2452
12056TIP3    H257660   2.896   5.882  16.749 -0.1819  2.5990 -0.1400
12057TIP3   OH257661   5.137   4.369   0.913 -0.4077  0.7707 -0.2919
12057TIP3    H157662   5.203   4.431   0.883  0.6549 -0.8972 -1.6326
12057TIP3    H257663   5.157   4.356   1.006  0.7692  0.7753 -0.5296
12058TIP3   OH257664   0.237   0.828   2.518  0.0671 -0.1045 -0.4844
12058TIP3    H157665   0.243   0.922   2.534 -0.8813 -0.0618 -0.3220
12058TIP3    H257666   0.312   0.808   2.461 -0.3437  0.9448 -1.4130
12059TIP3   OH257667   3.748   5.816  14.399  0.2266  0.0540 -0.0410
12059TIP3    H157668   3.683   5.875  14.360  0.1690 -0.4946 -0.8068
12059TIP3    H257669   3.792   5.776  14.324 -0.5224 -1.7285  0.4172
12060TIP3   OH257670   4.355   3.581   6.787 -0.0178  0.0239  0.5131
12060TIP3    H157671   4.364   3.632   6.707  0.4234 -2.0474 -0.8356
12060TIP3    H257672   4.276   3.529   6.773 -2.2271  2.3348  3.1056
12061TIP3   OH257673   4.426   2.859  11.573 -0.1191  0.9359  0.0230
12061TIP3    H157674   4.522   2.859  11.566 -0.0160  0.5366  1.2211
12061TIP3    H257675   4.407   2.786  11.633 -1.2383  0.3907 -0.9585
12062TIP3   OH257676   5.104   1.904  11.992 -0.0948 -0.2724 -0.3119
12062TIP3    H157677   5.183   1.918  11.940  0.8650 -0.3799  1.0523
12062TIP3    H257678   5.040   1.871  11.930  1.2353 -1.1274 -1.2855
12063TIP3   OH257679   3.948   5.467  15.942  0.7028  0.0885  0.2558
12063TIP3    H157680   3.932   5.555  15.909  1.6928  0.6875  1.3053
12063TIP3    H257681   3.874   5.449  16.001 -0.4976 -0.5668 -1.3516
12064TIP3   OH257682   4.244   6.766  10.744  0.0844 -0.1740  0.1557
12064TIP3    H157683   4.176   6.833  10.734 -1.9191 -1.8602  1.4464
12064TIP3    H257684   4.325   6.815  10.757 -1.1973  1.9698  0.5852
12065TIP3   OH257685   5.811   1.051   2.835 -0.2006  0.0846 -0.3438
12065TIP3    H157686   5.783   1.139   2.809  0.2001  0.0978 -0.7510
12065TIP3    H257687   5.817   1.055   2.930 -0.2817  0.4713 -0.3514
12066TIP3   OH257688   0.871   4.975  13.868 -0.6207  0.2501  0.3161
12066TIP3    H157689   0.821   4.978  13.949  1.6711  0.3526  1.8357
12066TIP3    H257690   0.902   5.065  13.856 -0.6640  0.1631 -0.4816
12067TIP3   OH257691   0.142   5.191   5.977  0.0346 -0.2161 -0.3150
12067TIP3    H157692   0.175   5.148   6.056  1.7976  0.2572 -0.7460
12067TIP3    H257693   0.116   5.278   6.006  0.3179 -0.1755 -0.1769
12068TIP3   OH257694   1.491   3.832  15.339  0.0830  0.3630 -0.8370
12068TIP3    H157695   1.491   3.778  15.419 -1.7472  2.8272  0.9610
12068TIP3    H257696   1.584   3.847  15.321  0.5857  1.0812  1.8654
12069TIP3   OH257697   4.837   4.205   3.196  0.0703 -0.7674  0.3283
12069TIP3    H157698   4.803   4.264   3.129 -0.6679 -2.0525 -0.4804
12069TIP3    H257699   4.834   4.118   3.155  2.1348 -1.2484  1.0899
12070TIP3   OH257700   2.400   3.976  11.104 -0.3097  0.5372 -0.1897
12070TIP3    H157701   2.360   4.015  11.026 -0.6630 -0.9419 -0.7887
12070TIP3    H257702   2.377   4.035  11.175  0.7683  2.4119 -1.3047
12071TIP3   OH257703   1.886   3.150   2.938  0.0470 -0.4025 -0.4264
12071TIP3    H157704   1.854   3.169   3.026 -0.4493 -0.9817 -0.4797
12071TIP3    H257705   1.964   3.096   2.952  1.1014  1.0805 -0.2948
12072TIP3   OH257706   2.077   6.017  17.372 -0.1865  0.4390  0.3272
12072TIP3    H157707   2.079   6.093  17.313  0.3033  0.7672  0.7601
12072TIP3    H257708   2.125   5.949  17.325  1.9083  1.2970  1.1261
12073TIP3   OH257709   2.330   1.701   1.311 -0.0811 -0.6939 -0.3454
12073TIP3    H157710   2.426   1.704   1.311  0.1043 -0.6667 -4.4137
12073TIP3    H257711   2.303   1.793   1.311  0.0760 -0.6229 -1.7181
12074TIP3   OH257712   5.176   2.868   4.211  0.5854  0.3918 -0.0713
12074TIP3    H157713   5.125   2.908   4.281  0.9463  0.6541  0.0408
12074TIP3    H257714   5.189   2.778   4.240  1.3059  0.6771  0.5176
12075TIP3   OH257715   1.609   6.761  13.562 -0.1379  0.0746  0.5926
12075TIP3    H157716   1.643   6.842  13.599 -0.5774 -0.7508  2.9301
12075TIP3    H257717   1.677   6.732  13.502  1.5886  0.4143  2.3095
12076TIP3   OH257718   6.285   3.576  11.548  0.1859 -0.0400 -0.0947
12076TIP3    H157719   6.341   3.501  11.565 -0.3586 -0.7970 -1.4214
12076TIP3    H257720   6.196   3.545  11.565 -0.1319 -0.0256 -1.5376
12077TIP3   OH257721   4.434   6.599   5.634  0.2678  0.1632 -0.0371
12077TIP3    H157722   4.520   6.563   5.616  0.0845 -0.7970  0.9023
12077TIP3    H257723   4.389   6.530   5.683 -1.8814 -0.3318 -2.5064
12078TIP3   OH257724   2.413   1.091   4.772 -0.5134  0.2348 -0.1608
12078TIP3    H157725   2.420   0.998   4.793 -0.3661 -0.2135 -1.9780
12078TIP3    H257726   2.482   1.106   4.707 -1.4106  1.2810 -0.9274
12079TIP3   OH257727   0.547   6.120  16.508  0.4925 -0.4614 -0.5056
12079TIP3    H157728   0.534   6.063  16.433 -2.4287  0.9017 -1.1919
12079TIP3    H257729   0.513   6.071  16.582  0.0181 -0.4574 -0.7175
12080TIP3   OH257730   2.301   6.581   5.530  0.5438  0.0315 -0.4441
12080TIP3    H157731   2.336   6.509   5.478 -1.7472 -0.5326 -1.3426
12080TIP3    H257732   2.236   6.623   5.473 -1.2425  0.1230  1.5200
12081TIP3   OH257733   1.648   5.067  13.552 -0.1815  0.4339  0.2060
12081TIP3    H157734   1.735   5.101  13.532  0.2691 -1.2878 -1.0594
12081TIP3    H257735   1.601   5.071  13.468 -0.3852 -1.1122  0.2115
12082TIP3   OH257736   5.947   1.101   2.604 -0.1112 -0.1888 -0.1196
12082TIP3    H157737   5.898   1.164   2.552  0.1840 -1.3301 -1.8776
12082TIP3    H257738   5.896   1.091   2.685  0.3833  3.0116  0.7114
12083TIP3   OH257739   2.954   4.113   5.233  0.6052 -0.1295 -0.1448
12083TIP3    H157740   3.020   4.178   5.258  0.7874 -0.5058  0.3658
12083TIP3    H257741   2.902   4.157   5.166 -0.1682  1.0585  1.1905
12084TIP3   OH257742   1.574   3.641   1.543 -0.0400 -0.1570 -0.2913
12084TIP3    H157743   1.575   3.556   1.588 -0.7377  0.0306  0.1069
12084TIP3    H257744   1.615   3.624   1.459  0.0277 -0.8425 -0.1294
12085TIP3   OH257745   6.217   3.207  15.598  0.0396 -0.0270 -0.3605
12085TIP3    H157746   6.172   3.169  15.523  0.5286  0.3207 -0.8398
12085TIP3    H257747   6.281   3.141  15.623  0.2449  0.0809 -0.5958
12086TIP3   OH257748   6.389   1.401   2.488  0.2768  0.1778 -0.1165
12086TIP3    H157749   6.441   1.350   2.425  1.0462 -0.3246  0.8901
12086TIP3    H257750   6.312   1.347   2.504 -1.4463  1.6560 -2.8419
12087TIP3   OH257751   2.489   3.245   2.781 -0.4849  0.4785  0.3183
12087TIP3    H157752   2.418   3.206   2.833 -0.5465  0.0419 -0.0872
12087TIP3    H257753   2.567   3.237   2.836 -0.6321  0.4075  0.5175
12088TIP3   OH257754   5.817   3.454  15.100 -0.2855  0.0629  0.2856
12088TIP3    H157755   5.912   3.463  15.102 -0.4504  2.8645  0.3652
12088TIP3    H257756   5.798   3.383  15.160  1.7259 -0.0283  0.8806
12089TIP3   OH257757   1.980   5.979  14.503  0.1953  0.0868  0.2166
12089TIP3    H157758   1.900   5.970  14.555  0.3742  1.9061  0.8814
12089TIP3    H257759   2.018   5.892  14.503 -1.7009 -0.7915  0.0194
12090TIP3   OH257760   4.271   2.156  15.581 -0.2919  0.7347  0.1367
12090TIP3    H157761   4.315   2.076  15.609  0.1468  0.6975 -0.6263
12090TIP3    H257762   4.179   2.140  15.601 -0.2682 -0.1387 -0.3813
12091TIP3   OH257763   4.295   3.936  15.396 -0.4627 -0.0634  0.5040
12091TIP3    H157764   4.381   3.924  15.356  0.4604  2.5827  1.4358
12091TIP3    H257765   4.233   3.932  15.323  0.5561 -0.8021 -0.3465
12092TIP3   OH257766   4.109   5.552   0.511  0.2308  0.0521  0.4882
12092TIP3    H157767   4.056   5.487   0.558  0.9131 -0.6847  0.2417
12092TIP3    H257768   4.076   5.636   0.543 -1.7292 -0.3491 -0.3424
12093TIP3   OH257769   3.670   1.190   1.412 -0.3587  0.3946 -0.0461
12093TIP3    H157770   3.760   1.194   1.381 -0.8744  0.0490 -1.7076
12093TIP3    H257771   3.659   1.270   1.463  0.6863  0.7928 -0.4105
12094TIP3   OH257772   3.061   3.160   5.120 -1.2063 -0.1074 -0.3594
12094TIP3    H157773   3.152   3.186   5.110 -0.9853 -0.3206  0.9002
12094TIP3    H257774   3.058   3.069   5.091 -0.5588 -0.7597  1.4574
12095TIP3   OH257775   4.740   4.828   3.531 -0.4165 -0.3308  0.0602
12095TIP3    H157776   4.665   4.779   3.498 -0.0265 -1.1704  0.3778
12095TIP3    H257777   4.742   4.908   3.479 -1.3140 -0.4660 -0.1947
12096TIP3   OH257778   3.199   1.851   1.775 -0.4002 -0.0040 -0.1860
12096TIP3    H157779   3.227   1.799   1.700  0.7015 -1.2102  1.0051
12096TIP3    H257780   3.127   1.801   1.813 -0.5551  0.2951 -0.0842
12097TIP3   OH257781   6.656   5.011   2.359  0.7502 -0.0178 -0.5209
12097TIP3    H157782   6.597   4.975   2.424 -2.3439  4.0982 -0.6514
12097TIP3    H257783   6.733   5.039   2.409 -0.1106  0.0989  0.7822
12098TIP3   OH257784   4.119   1.077   4.840  0.2697 -0.2635  0.3132
12098TIP3    H157785   4.184   1.079   4.769  0.7964 -0.2978  0.7880
12098TIP3    H257786   4.090   0.986   4.844  2.0327 -0.8268  1.7219
12099TIP3   OH257787   2.286   5.161   4.761 -0.5730 -0.1242  1.0250
12099TIP3    H157788   2.302   5.211   4.681 -0.7802 -0.2161  0.9252
12099TIP3    H257789   2.352   5.092   4.760 -0.3184  0.1132  1.1373
12100TIP3   OH257790   1.084   3.942   5.304 -0.1125 -0.2701 -0.6007
12100TIP3    H157791   1.012   3.886   5.333 -0.5573  0.4988 -0.1835
12100TIP3    H257792   1.158   3.916   5.359 -0.7311  0.6019  0.7168
12101TIP3   OH257793   3.239   6.165  15.842  0.0288 -0.2586 -0.6853
12101TIP3    H157794   3.155   6.175  15.799 -0.6612 -3.2706 -0.2182
12101TIP3    H257795   3.299   6.217  15.789 -2.1939  2.8593 -0.4250
12102TIP3   OH257796   6.688   0.449  12.417  0.4011  0.2102 -0.0272
12102TIP3    H157797   6.671   0.362  12.380 -1.5444  0.5039  0.0657
12102TIP3    H257798   6.713   0.432  12.508  2.7082 -0.3699 -0.7126
12103TIP3   OH257799   0.446   1.711  11.450 -0.4463  0.1756 -0.0371
12103TIP3    H157800   0.437   1.650  11.377  0.1385  0.2019 -0.1314
12103TIP3    H257801   0.398   1.669  11.522 -0.8493  0.0567 -0.3735
12104TIP3   OH257802   6.596   5.595   2.537 -0.1379  0.3513 -0.6269
12104TIP3    H157803   6.590   5.615   2.630 -2.4984  0.7439 -0.7837
12104TIP3    H257804   6.517   5.634   2.500  0.2004 -0.7340 -2.6185
12105TIP3   OH257805   3.763   3.310   5.347  0.2720 -0.5692 -0.1058
12105TIP3    H157806   3.679   3.323   5.302  0.8014 -0.4866 -1.1055
12105TIP3    H257807   3.777   3.215   5.343 -0.0299 -0.6451  0.5498
12106TIP3   OH257808   1.282   6.176  16.516  0.0165 -0.5462  1.0295
12106TIP3    H157809   1.273   6.223  16.599 -1.8480  1.8599 -0.3913
12106TIP3    H257810   1.213   6.110  16.519  0.5450 -1.0767  1.7465
12107TIP3   OH257811   1.775   5.902   1.259  0.3913 -0.0852  0.1615
12107TIP3    H157812   1.778   5.859   1.345 -0.8059 -0.1275  0.2025
12107TIP3    H257813   1.780   5.996   1.279  0.4604 -0.1091  0.2564
12108TIP3   OH257814   1.069   5.050   2.284  0.7881  0.1013 -0.1035
12108TIP3    H157815   1.059   4.989   2.357  1.3473 -0.1787 -0.2512
12108TIP3    H257816   1.056   5.137   2.323  3.3864  0.1564  0.8702
12109TIP3   OH257817   3.910   3.499   5.524 -0.0772  0.8070 -0.0718
12109TIP3    H157818   3.964   3.542   5.457  1.2491 -1.2952 -0.4342
12109TIP3    H257819   3.888   3.414   5.487 -0.3493  0.0728  1.6609
12110TIP3   OH257820   4.924   3.367  15.709  0.9755  0.4266  0.8829
12110TIP3    H157821   4.846   3.331  15.667  0.8811  0.3803  1.0981
12110TIP3    H257822   4.982   3.292  15.721  1.1923  0.5212  0.4112
12111TIP3   OH257823   5.061   2.507   0.569  0.3894 -0.0132  0.3173
12111TIP3    H157824   5.110   2.517   0.651  0.2971  0.0314  0.3670
12111TIP3    H257825   4.970   2.514   0.595  0.2063 -2.8238  0.6389
12112TIP3   OH257826   5.679   3.763  16.132  0.3637 -0.6582  0.3574
12112TIP3    H157827   5.708   3.815  16.057  0.4960 -1.7913 -0.3959
12112TIP3    H257828   5.640   3.685  16.094 -1.2464 -0.4352  1.4189
12113TIP3   OH257829   6.266   0.013  16.526 -0.1242 -0.3286 -0.0300
12113TIP3    H157830   6.171   0.013  16.512 -0.0374 -0.9712 -0.6916
12113TIP3    H257831   6.286  -0.077  16.552  0.3766 -0.3616 -0.5080
12114TIP3   OH257832   2.030   2.508   1.139  0.2505  0.5641 -0.3520
12114TIP3    H157833   1.945   2.524   1.098 -0.6224 -1.0810  0.7093
12114TIP3    H257834   2.036   2.575   1.208 -1.6343 -1.0968  1.5719
12115TIP3   OH257835   3.810   4.047  13.897 -0.6874 -0.3629  0.4316
12115TIP3    H157836   3.717   4.063  13.886 -0.6215 -0.8134 -0.9854
12115TIP3    H257837   3.819   3.952  13.899 -0.1010 -0.3765 -1.3220
12116TIP3   OH257838   2.000   4.709  14.461 -0.0500 -0.1371  0.1347
12116TIP3    H157839   1.962   4.784  14.415  3.3313  1.0110 -1.1258
12116TIP3    H257840   1.963   4.714  14.549 -2.6738  0.7699 -0.9076
12117TIP3   OH257841   0.460   6.653   0.753  0.0449  0.4571  0.8624
12117TIP3    H157842   0.523   6.593   0.715  1.7686  1.3712  2.1204
12117TIP3    H257843   0.499   6.740   0.742 -0.6959  1.0029  2.1750
12118TIP3   OH257844   3.750   6.740  12.186  0.3050  0.1033  0.3097
12118TIP3    H157845   3.842   6.763  12.191  0.9243 -2.1682  0.4008
12118TIP3    H257846   3.709   6.812  12.138  2.2716  0.7302 -0.4950
12119TIP3   OH257847   0.179   0.176  12.641  0.1694  0.1510  0.1449
12119TIP3    H157848   0.138   0.141  12.720  0.3560 -0.0326  0.1614
12119TIP3    H257849   0.134   0.259  12.626 -1.6359 -0.9606 -0.9864
12120TIP3   OH257850   1.458   1.609  12.935  0.8925 -0.1543  0.0266
12120TIP3    H157851   1.487   1.519  12.923 -0.1922 -0.8300  2.0341
12120TIP3    H257852   1.513   1.644  13.005 -0.1178 -0.0093  0.7851
12121TIP3   OH257853   1.043   2.501   2.404  0.2524  0.0762  0.0916
12121TIP3    H157854   1.021   2.575   2.461 -1.8812  0.5724 -1.2355
12121TIP3    H257855   0.961   2.481   2.358  1.1379 -2.1838 -0.6664
12122TIP3   OH257856   4.860   5.538   5.860 -0.0287  0.0679 -0.0766
12122TIP3    H157857   4.931   5.591   5.825 -0.2828 -0.0924 -0.8443
12122TIP3    H257858   4.792   5.601   5.884  0.3073  0.2093  0.5196
12123TIP3   OH257859   1.731   1.104  16.616 -0.2083  0.2782 -0.9389
12123TIP3    H157860   1.812   1.102  16.667 -0.6901 -0.8783 -0.1591
12123TIP3    H257861   1.686   1.023  16.640 -1.6233  0.9228 -1.3105
12124TIP3   OH257862   0.116   0.123   4.704 -0.4588 -0.0352  0.2290
12124TIP3    H157863   0.063   0.046   4.727  0.5523 -0.9574 -0.4267
12124TIP3    H257864   0.157   0.149   4.786  0.9280 -1.5827  0.0778
12125TIP3   OH257865   1.794   3.089   2.196 -0.0678  0.7418  0.6486
12125TIP3    H157866   1.738   3.136   2.259  0.4002 -0.1172  1.7444
12125TIP3    H257867   1.864   3.053   2.250 -0.0801 -0.6811 -0.2589
12126TIP3   OH257868   4.491   5.673   3.374  0.3814  0.6965  0.7071
12126TIP3    H157869   4.492   5.740   3.305  0.1240  0.3145  0.3289
12126TIP3    H257870   4.424   5.611   3.347  2.9039 -1.6285 -0.8188
12127TIP3   OH257871   5.290   3.011   2.473 -0.5594  0.4548  0.1705
12127TIP3    H157872   5.273   3.025   2.566  2.6434 -1.5695  1.2106
12127TIP3    H257873   5.211   2.968   2.440 -0.5982 -1.6615  2.7494
12128TIP3   OH257874   3.106   4.284   5.361  0.1093 -0.5340  0.4891
12128TIP3    H157875   3.175   4.348   5.346  1.4657 -2.0601 -0.1374
12128TIP3    H257876   3.093   4.284   5.455  1.6326 -0.8476  0.7205
12129TIP3   OH257877   4.368   2.391   3.203  0.4512  0.6929  0.3331
12129TIP3    H157878   4.378   2.412   3.110  1.9432 -0.6390  0.1486
12129TIP3    H257879   4.447   2.428   3.244  0.6674 -0.2290  0.7659
12130TIP3   OH257880   0.475   0.116   1.397  0.2254 -0.3093 -0.1312
12130TIP3    H157881   0.388   0.081   1.378  0.7938 -1.8267 -0.0973
12130TIP3    H257882   0.504   0.068   1.475  1.7984 -1.1932 -1.1789
12131TIP3   OH257883   5.769   5.343   4.048  0.5171 -0.1385 -0.3026
12131TIP3    H157884   5.705   5.271   4.047  0.9232 -0.5055 -1.0017
12131TIP3    H257885   5.828   5.322   3.975  1.0119  0.5728 -0.1054
12132TIP3   OH257886   4.580   5.195  14.199  0.5779  0.4372  0.1582
12132TIP3    H157887   4.585   5.273  14.254 -0.3728  0.1622  0.6544
12132TIP3    H257888   4.658   5.199  14.145  0.9105  1.3541  0.6855
12133TIP3   OH257889   2.931   5.907  13.033  0.1087  0.6197 -0.5195
12133TIP3    H157890   2.882   5.845  13.087  2.6903 -1.6545 -0.5648
12133TIP3    H257891   2.926   5.989  13.080 -1.5628 -0.1564  0.7470
12134TIP3   OH257892   0.426   4.402   6.412 -0.0028  0.0620 -0.2233
12134TIP3    H157893   0.415   4.468   6.480 -1.1933  0.6258 -0.9182
12134TIP3    H257894   0.350   4.344   6.422  0.0145 -0.0744 -0.8127
12135TIP3   OH257895   3.103   0.319  16.135 -0.9640 -0.0432  0.3237
12135TIP3    H157896   3.153   0.392  16.172 -0.3613  0.1773 -0.8687
12135TIP3    H257897   3.148   0.298  16.053 -1.6234 -1.2130  0.2364
12136TIP3   OH257898   1.080   5.534   0.660  0.0952  0.2227 -0.4085
12136TIP3    H157899   1.062   5.464   0.722 -0.4331  1.5978  1.0588
12136TIP3    H257900   1.140   5.593   0.707  3.0903 -0.7138 -2.6770
12137TIP3   OH257901   5.545   1.370   1.027 -0.2175 -0.2870 -0.1893
12137TIP3    H157902   5.605   1.296   1.041 -0.2862 -0.2495  0.3158
12137TIP3    H257903   5.530   1.370   0.932  0.6179 -0.2742 -0.3360
12138TIP3   OH257904   0.309   5.805  13.626 -0.0232 -1.0834 -0.2985
12138TIP3    H157905   0.301   5.819  13.720  0.7310 -0.8707 -0.2629
12138TIP3    H257906   0.239   5.742  13.606 -1.1656  0.0047  0.1256
12139TIP3   OH257907   4.949   2.080  14.139 -0.3594  0.6236 -0.4924
12139TIP3    H157908   4.998   2.072  14.057 -0.7794 -2.6185 -0.5612
12139TIP3    H257909   4.867   2.123  14.114 -1.0828 -1.5090 -2.1660
12140TIP3   OH257910   4.121   6.479   4.914 -0.1870 -0.3337 -0.0417
12140TIP3    H157911   4.073   6.401   4.886 -0.5038 -0.1025 -0.1552
12140TIP3    H257912   4.182   6.497   4.843 -0.7283  0.0341 -0.4140
12141TIP3   OH257913   1.566   4.440  16.260 -0.4488  0.1425 -0.0224
12141TIP3    H157914   1.551   4.350  16.290 -1.3252  0.5568  0.8555
12141TIP3    H257915   1.506   4.492  16.313  1.7655  1.5514  1.2628
12142TIP3   OH257916   0.346   6.492   1.766 -1.0301  0.1521 -0.0102
12142TIP3    H157917   0.327   6.425   1.701  0.0323 -2.0288  1.7595
12142TIP3    H257918   0.301   6.461   1.845  1.1496  0.4216  1.3998
12143TIP3   OH257919   1.207   5.190  12.378  0.1012  0.0331 -0.2691
12143TIP3    H157920   1.278   5.245  12.412  0.6937  0.4582 -2.0611
12143TIP3    H257921   1.196   5.219  12.287 -1.2732 -1.1498 -0.5205
12144TIP3   OH257922   3.805   4.378  13.255 -0.5201 -0.5002  0.0483
12144TIP3    H157923   3.811   4.397  13.349  3.4844  2.7492 -0.5851
12144TIP3    H257924   3.754   4.451  13.220  0.4683 -0.1239 -0.6131
12145TIP3   OH257925   1.296   6.013   2.644  0.2079 -0.0567  0.1988
12145TIP3    H157926   1.276   6.038   2.734 -1.6817  0.4612 -0.3121
12145TIP3    H257927   1.269   6.088   2.592 -1.6603 -1.4730 -1.0291
12146TIP3   OH257928   6.374   2.219   0.701 -0.2931 -0.2233  0.2616
12146TIP3    H157929   6.434   2.175   0.642 -1.9020 -0.0274 -1.6293
12146TIP3    H257930   6.396   2.312   0.695  0.0700 -0.2792  0.6396
12147TIP3   OH257931   0.698   4.480  16.820  0.0866  0.0222 -0.6213
12147TIP3    H157932   0.700   4.540  16.745  1.8281 -0.5230 -1.0624
12147TIP3    H257933   0.790   4.456  16.834 -0.5835 -3.0298 -0.8379
12148TIP3   OH257934   2.338   3.257   4.398 -0.1440 -0.5007 -0.2482
12148TIP3    H157935   2.407   3.277   4.335 -1.0991 -0.0371 -1.1733
12148TIP3    H257936   2.261   3.236   4.344 -1.5466  1.8315  0.6989
12149TIP3   OH257937   2.767   0.490  13.348  0.3557 -0.8246 -0.4879
12149TIP3    H157938   2.724   0.416  13.305 -0.2802 -0.7386 -0.0248
12149TIP3    H257939   2.826   0.526  13.282 -0.4618 -0.8135 -1.2340
12150TIP3   OH257940   2.405   0.191   4.288  0.1311  0.4184  1.0148
12150TIP3    H157941   2.432   0.281   4.269  0.0189  0.2411 -0.0039
12150TIP3    H257942   2.463   0.137   4.235 -1.6603 -0.0000 -0.6145
12151TIP3   OH257943   3.703   6.741   0.583  0.0696  0.0263 -0.0163
12151TIP3    H157944   3.693   6.774   0.494  0.9128 -1.1495 -0.5681
12151TIP3    H257945   3.613   6.736   0.616 -0.1216  2.7509  0.1023
12152TIP3   OH257946   3.987   0.540  11.495 -0.5113  0.0899 -0.5431
12152TIP3    H157947   3.948   0.488  11.424 -0.9054  1.9616 -1.7553
12152TIP3    H257948   4.067   0.575  11.457 -0.5930  0.8935  0.0113
12153TIP3   OH257949   4.265   4.941   5.353  0.1738 -0.3901  1.0074
12153TIP3    H157950   4.182   4.987   5.366  0.6697  0.1648  2.4013
12153TIP3    H257951   4.291   4.913   5.441  1.2768 -0.8763  0.5415
12154TIP3   OH257952   0.368   5.955   0.304 -0.0034  0.1464 -0.3134
12154TIP3    H157953   0.310   6.021   0.267 -1.2870 -1.6141 -1.5799
12154TIP3    H257954   0.455   5.995   0.298 -0.8756  2.3159  0.4245
12155TIP3   OH257955   4.965   4.473   3.303 -0.4210  0.7577  0.0407
12155TIP3    H157956   4.982   4.379   3.315 -1.4157  0.7006  1.2055
12155TIP3    H257957   4.948   4.483   3.210  0.4854 -0.0742 -0.2351
12156TIP3   OH257958   0.864   0.860   4.515  0.1302  0.4748 -0.5900
12156TIP3    H157959   0.949   0.838   4.477  0.8689  0.6176  0.8834
12156TIP3    H257960   0.848   0.790   4.579 -0.9948  0.3070 -1.0363
12157TIP3   OH257961   2.144   4.887   1.986 -0.2216  0.0381  0.6235
12157TIP3    H157962   2.055   4.865   2.014 -0.0225 -0.0033  1.2452
12157TIP3    H257963   2.174   4.810   1.937 -0.4426 -0.0407  0.6104
12158TIP3   OH257964   2.096   3.742   0.513  0.4417  0.5873 -0.2630
12158TIP3    H157965   2.148   3.809   0.469 -1.3211  1.2251 -1.4787
12158TIP3    H257966   2.143   3.726   0.595  0.3669  4.2095  0.6928
12159TIP3   OH257967   0.684   5.651  12.530 -0.0091 -0.8288 -0.0693
12159TIP3    H157968   0.701   5.744  12.542  0.3306 -0.9107  0.1073
12159TIP3    H257969   0.750   5.622  12.467 -0.6836 -0.7652 -0.8218
12160TIP3   OH257970   0.380   3.962   0.832  0.5187  0.2359  0.3203
12160TIP3    H157971   0.466   3.920   0.824  0.2326 -0.1473 -0.9015
12160TIP3    H257972   0.322   3.909   0.778 -0.6588  0.0927  1.6887
12161TIP3   OH257973   2.257   4.372  15.466 -0.3533  0.1252  0.1204
12161TIP3    H157974   2.307   4.379  15.385 -1.3006  2.9291 -0.3165
12161TIP3    H257975   2.324   4.364  15.534  0.5044 -0.5671 -0.7777
12162TIP3   OH257976   6.102   0.762  14.219 -0.4893  0.0135 -0.5990
12162TIP3    H157977   6.088   0.668  14.216 -2.0093  0.2041 -0.3028
12162TIP3    H257978   6.026   0.796  14.267  1.1055  1.1871  1.2407
12163TIP3   OH257979   0.445   0.429  16.551  0.1176 -0.6603 -0.1429
12163TIP3    H157980   0.386   0.486  16.502 -0.2090 -1.0540 -0.2152
12163TIP3    H257981   0.397   0.409  16.632  0.1230 -1.0186 -0.2222
12164TIP3   OH257982   2.226   5.742   0.629  0.1368 -0.5766  0.1900
12164TIP3    H157983   2.160   5.674   0.614 -0.0098  0.0761 -2.6449
12164TIP3    H257984   2.309   5.695   0.630  0.1372 -0.8053 -2.8580
12165TIP3   OH257985   6.741   1.234  15.567 -0.6975 -0.2020 -0.0205
12165TIP3    H157986   6.666   1.183  15.597 -0.8136 -1.0013 -1.5991
12165TIP3    H257987   6.708   1.286  15.494  0.0459  0.2092 -0.0828
12166TIP3   OH257988   4.877   0.914   0.628 -0.0814 -0.4738 -0.2082
12166TIP3    H157989   4.878   0.839   0.687 -0.2582  0.2271  0.7138
12166TIP3    H257990   4.969   0.940   0.620 -0.2626  1.3614  2.3606
12167TIP3   OH257991   0.856   3.540   4.787  0.0714  0.0232 -0.3575
12167TIP3    H157992   0.933   3.529   4.843 -0.7075 -2.3336  0.3672
12167TIP3    H257993   0.878   3.494   4.706 -1.2143 -2.4481  0.5980
12168TIP3   OH257994   5.007   5.434   4.949  0.8339  0.0394  0.2847
12168TIP3    H157995   5.024   5.340   4.947 -1.1598 -0.3690 -0.1532
12168TIP3    H257996   5.061   5.470   4.879  0.5991 -1.0000 -0.4535
12169TIP3   OH257997   4.455   6.740   0.516  0.1185 -0.9657 -0.0891
12169TIP3    H157998   4.526   6.698   0.468 -0.6336 -0.3979 -1.7696
12169TIP3    H257999   4.489   6.751   0.605  2.2168 -0.4804 -0.9028
12170TIP3   OH258000   4.030   0.679  11.894  0.2010 -0.1169 -0.2848
12170TIP3    H158001   4.095   0.638  11.837  0.1695 -1.1178  0.3774
12170TIP3    H258002   3.975   0.730  11.835  1.1427  0.1667 -0.9440
12171TIP3   OH258003   0.136   0.145  15.140  0.1646 -0.0162  0.0642
12171TIP3    H158004   0.139   0.184  15.052  0.1228 -0.6751 -0.2364
12171TIP3    H258005   0.121   0.219  15.198  1.0806  0.5457 -0.3958
12172TIP3   OH258006   5.388   4.481  14.147 -0.4422  0.1551 -0.0033
12172TIP3    H158007   5.298   4.448  14.145 -0.1657 -0.6153 -0.7668
12172TIP3    H258008   5.436   4.418  14.201 -0.1579 -0.0376 -0.4667
12173TIP3   OH258009   6.308   0.927  15.564  0.3185  0.3838 -0.4571
12173TIP3    H158010   6.242   0.988  15.531 -0.2795 -1.2400 -2.4973
12173TIP3    H258011   6.379   0.983  15.595 -1.4402  2.1459  0.5807
12174TIP3   OH258012   2.654   1.682   4.125 -0.1332 -0.5748  0.6408
12174TIP3    H158013   2.701   1.765   4.132 -1.1154  0.0990 -0.3695
12174TIP3    H258014   2.710   1.618   4.169  1.4460  0.2988 -0.0257
12175TIP3   OH258015   4.980   5.830   1.256 -0.1512  0.3210 -0.2040
12175TIP3    H158016   4.906   5.845   1.316  0.6209  0.1586  0.8247
12175TIP3    H258017   5.050   5.884   1.292  1.2160 -1.9877  0.7757
12176TIP3   OH258018   3.794   0.279   2.668 -0.2415  0.0376 -0.6192
12176TIP3    H158019   3.851   0.340   2.621  0.4597 -0.3203 -0.2455
12176TIP3    H258020   3.845   0.252   2.744 -0.6958 -0.7234 -0.5755
12177TIP3   OH258021   5.160   2.405  17.350  0.9800  0.6807  0.3973
12177TIP3    H158022   5.085   2.358  17.388  0.6889  1.3404  0.6505
12177TIP3    H258023   5.123   2.457  17.279  1.6205 -1.0256 -1.2617
12178TIP3   OH258024   3.444   4.109   5.076  0.0286  0.0277  0.7520
12178TIP3    H158025   3.451   4.142   4.987  0.4413 -2.9797 -0.4589
12178TIP3    H258026   3.350   4.094   5.088  0.0195 -0.0201  0.6272
12179TIP3   OH258027   5.823   2.174   3.666  0.2325  0.0740 -0.0735
12179TIP3    H158028   5.771   2.194   3.743  1.3601  1.6268  0.3270
12179TIP3    H258029   5.807   2.247   3.606  2.3338  0.9159  0.2996
12180TIP3   OH258030   3.428   1.794   5.018  0.3085 -1.1039  0.6168
12180TIP3    H158031   3.491   1.858   4.985  2.0312 -3.2668 -0.5729
12180TIP3    H258032   3.343   1.824   4.987  1.2214 -0.0477 -0.9607
12181TIP3   OH258033   4.156   6.709  16.860  0.2822  0.4254  0.1956
12181TIP3    H158034   4.234   6.658  16.836  1.7220  2.7941 -0.5663
12181TIP3    H258035   4.086   6.645  16.864  1.6684 -1.4343 -2.0634
12182TIP3   OH258036   0.248   6.090  13.308  0.2251  0.4187  0.6697
12182TIP3    H158037   0.244   6.101  13.403  2.2373 -0.1049  0.8515
12182TIP3    H258038   0.214   6.173  13.273 -1.1031  0.3870  1.8066
12183TIP3   OH258039   6.457   1.534   3.619 -0.1861  0.0916 -0.1379
12183TIP3    H158040   6.377   1.569   3.581  0.3791  0.1835 -1.2888
12183TIP3    H258041   6.481   1.597   3.687 -0.1732  0.9697 -0.9431
12184TIP3   OH258042   1.852   0.682  15.375  0.1990  0.1703  0.0398
12184TIP3    H158043   1.825   0.753  15.433 -0.6671 -0.2224  0.1322
12184TIP3    H258044   1.817   0.603  15.416  0.1806 -0.1842 -0.6493
12185TIP3   OH258045   1.959   5.944  12.080 -0.0388  0.4037 -0.0598
12185TIP3    H158046   1.943   5.942  12.174 -1.9367 -0.9744 -0.3560
12185TIP3    H258047   1.937   6.034  12.054 -1.3475  0.2940  0.5715
12186TIP3   OH258048   4.451   6.620   4.302  0.6043 -0.3342 -0.3840
12186TIP3    H158049   4.459   6.537   4.350 -0.0001  0.0714  0.4421
12186TIP3    H258050   4.524   6.673   4.335  0.2686 -0.1040 -0.0043
12187TIP3   OH258051   3.485   6.057  11.126  0.0179 -0.2239 -0.5434
12187TIP3    H158052   3.420   5.988  11.143  0.7330 -0.6193  0.7485
12187TIP3    H258053   3.469   6.084  11.035 -0.6910 -1.6503 -0.8679
12188TIP3   OH258054   0.648   4.705  16.688 -0.4419  0.3039 -0.0968
12188TIP3    H158055   0.659   4.739  16.600  0.1113  0.2812 -0.0416
12188TIP3    H258056   0.681   4.774  16.745  3.9431 -1.4516 -0.0769
12189TIP3   OH258057   4.252   1.987   1.112 -0.4724 -0.6500 -0.2784
12189TIP3    H158058   4.252   1.936   1.192 -0.2523  0.4029  0.4167
12189TIP3    H258059   4.274   2.076   1.140  0.0399 -0.3480 -1.5645
12190TIP3   OH258060   1.700   3.378  11.123 -0.0206 -0.1537 -0.3000
12190TIP3    H158061   1.781   3.334  11.098 -0.0171 -0.6999  0.6232
12190TIP3    H258062   1.657   3.317  11.183 -0.5517  0.6232  0.1271
12191TIP3   OH258063   1.645   1.850   3.395 -0.2859  0.9124  0.2852
12191TIP3    H158064   1.628   1.757   3.385 -0.3763  0.8971  0.5573
12191TIP3    H258065   1.562   1.885   3.429 -0.5416  1.2359 -0.6333
12192TIP3   OH258066   3.971   2.092   0.735  0.7000  0.1406 -0.0166
12192TIP3    H158067   3.882   2.125   0.749  0.5923  0.1256 -0.6674
12192TIP3    H258068   3.973   2.063   0.644  1.2805 -0.1513  0.0810
12193TIP3   OH258069   3.518   3.985   4.579  0.0587 -0.0847 -0.1380
12193TIP3    H158070   3.434   3.984   4.533 -0.6189  1.4076  0.9893
12193TIP3    H258071   3.502   3.936   4.659  1.0193 -1.9827 -1.0181
12194TIP3   OH258072   3.832   2.465   6.020 -0.1768  0.1494 -0.1088
12194TIP3    H158073   3.869   2.526   6.084  2.1217  0.9601 -2.0518
12194TIP3    H258074   3.843   2.379   6.061  0.0285  0.7327  1.1141
12195TIP3   OH258075   3.965   0.543   5.726  0.1255 -0.1668  0.0027
12195TIP3    H158076   3.882   0.590   5.733  0.9344  1.6047 -1.5279
12195TIP3    H258077   3.997   0.537   5.816  0.7668  3.8388  0.2013
12196TIP3   OH258078   3.041   2.203  17.160 -0.1385 -0.0687 -0.0080
12196TIP3    H158079   3.132   2.233  17.154 -0.2893  0.6284  0.9966
12196TIP3    H258080   3.044   2.111  17.132  1.1600 -0.5598  1.6116
12197TIP3   OH258081   5.264   0.844  13.623  0.3804 -0.5057  0.4515
12197TIP3    H158082   5.179   0.887  13.632  0.3184 -0.2323 -1.2353
12197TIP3    H258083   5.328   0.913  13.641  0.2610 -0.2610 -0.0619
12198TIP3   OH258084   1.547   0.674  15.502  0.9441 -0.1701  0.2659
12198TIP3    H158085   1.547   0.655  15.408  1.4884 -1.8513  0.5817
12198TIP3    H258086   1.454   0.682  15.524  0.8278  1.1010 -0.5435
12199TIP3   OH258087   0.725   1.594  13.174 -0.5283  0.0696 -0.1327
12199TIP3    H158088   0.745   1.521  13.116 -1.3807 -0.3454  0.0768
12199TIP3    H258089   0.633   1.614  13.158 -0.0294  1.8567 -0.9987
12200TIP3   OH258090   3.590   3.878  16.041  0.2122  0.3216  0.2613
12200TIP3    H158091   3.501   3.904  16.018  0.0290 -0.4908  0.0104
12200TIP3    H258092   3.637   3.960  16.054 -1.0656  0.7726  2.3910
12201TIP3   OH258093   3.220   1.234  14.948 -0.9730  0.2498  0.6519
12201TIP3    H158094   3.312   1.219  14.972 -0.6698  1.2212  0.1448
12201TIP3    H258095   3.224   1.287  14.869 -1.9776 -0.7167 -0.0805
12202TIP3   OH258096   1.497   1.081  12.662 -0.0420  0.1506  0.0296
12202TIP3    H158097   1.567   1.074  12.727  0.3779  1.5827 -0.2431
12202TIP3    H258098   1.465   0.991  12.652  2.1555 -0.6782 -0.2636
12203TIP3   OH258099   0.739   0.508   0.799 -0.1987  0.2568 -0.5783
12203TIP3    H158100   0.667   0.570   0.795  0.6276  1.4401  1.2612
12203TIP3    H258101   0.707   0.438   0.857  0.0623  0.7508  0.1866
12204TIP3   OH258102   6.679   0.923  17.327 -0.0879  0.2037  1.1189
12204TIP3    H158103   6.734   0.872  17.269  1.4942  0.0289  2.7001
12204TIP3    H258104   6.589   0.897  17.304  0.4001  0.7945 -1.7755
12205TIP3   OH258105   5.526   5.798   3.037  0.6493  0.6487  0.1840
12205TIP3    H158106   5.561   5.738   2.972 -0.2947 -1.1251  1.2400
12205TIP3    H258107   5.440   5.764   3.059  0.5330  1.7444  1.6452
12206TIP3   OH258108   4.687   0.166  17.410  0.1174 -0.1582  0.2588
12206TIP3    H158109   4.771   0.208  17.389 -0.8118  1.2634 -0.8134
12206TIP3    H258110   4.661   0.204  17.494 -0.2169  0.6390 -0.1974
12207TIP3   OH258111   3.556   6.181  16.895  0.2788  0.3785 -0.3703
12207TIP3    H158112   3.519   6.112  16.841  2.3751 -0.1072 -1.3041
12207TIP3    H258113   3.513   6.261  16.865 -2.7985 -0.4743  1.2926
12208TIP3   OH258114   3.820   3.708  14.146  0.8750  0.2248  0.3205
12208TIP3    H158115   3.824   3.687  14.053  0.0798  1.2185  0.0464
12208TIP3    H258116   3.734   3.678  14.174  0.2202  1.8786  0.2055
12209TIP3   OH258117   0.371   2.951  11.164  0.2959 -0.7110  0.0793
12209TIP3    H158118   0.333   2.915  11.084 -0.1040 -0.0312 -0.0434
12209TIP3    H258119   0.383   3.044  11.145 -1.2912 -0.2055  1.3313
12210TIP3   OH258120   2.914   2.845  12.997  0.7306  0.2085  0.8226
12210TIP3    H158121   2.928   2.939  12.986  0.4425  0.0773 -1.1432
12210TIP3    H258122   2.951   2.807  12.918 -0.9711 -1.1329  0.6135
12211TIP3   OH258123   0.601   3.528   5.545 -0.1478 -0.1858 -0.0581
12211TIP3    H158124   0.538   3.464   5.576  0.8474 -0.2222  2.0126
12211TIP3    H258125   0.566   3.613   5.573  0.0436 -0.0792 -0.1358
12212TIP3   OH258126   1.217   5.939  12.144  0.6750  0.8696 -0.0655
12212TIP3    H158127   1.131   5.897  12.154  0.9500  0.6081  1.3893
12212TIP3    H258128   1.270   5.901  12.214  1.8604  1.3482 -0.6890
12213TIP3   OH258129   2.499   1.398  16.948  0.4773 -0.2250  0.2780
12213TIP3    H158130   2.514   1.398  16.853  1.8433  1.4787  0.4343
12213TIP3    H258131   2.532   1.313  16.977  1.1306 -0.3023 -0.6350
12214TIP3   OH258132   0.182   1.215   1.721  0.0584  0.3505  0.1340
12214TIP3    H158133   0.150   1.286   1.665 -0.5413 -0.3877 -0.4784
12214TIP3    H258134   0.262   1.251   1.761  0.8843  0.6840 -1.7034
12215TIP3   OH258135   0.535   2.773  12.746  0.1896  0.2464  0.2043
12215TIP3    H158136   0.591   2.696  12.754  0.7919  0.5587 -0.7914
12215TIP3    H258137   0.481   2.755  12.669  0.1647  0.7130  0.1131
12216TIP3   OH258138   6.726   1.535  13.594  0.1414 -0.4663  0.0537
12216TIP3    H158139   6.634   1.536  13.568 -0.6204  0.3924  2.4401
12216TIP3    H258140   6.725   1.501  13.684  2.0851  0.0411  0.3186
12217TIP3   OH258141   3.610   4.563  13.534  0.2090 -0.2705  0.3396
12217TIP3    H158142   3.630   4.642  13.485  0.3616  0.0490  0.9021
12217TIP3    H258143   3.690   4.511  13.529  0.1108 -0.3851 -0.0258
12218TIP3   OH258144   5.119   0.236  14.740  0.4026 -0.0204 -0.4707
12218TIP3    H158145   5.160   0.192  14.814  0.8809  0.9766 -0.1149
12218TIP3    H258146   5.129   0.329  14.759 -1.4201  0.2710 -0.7208
12219TIP3   OH258147   4.400   5.569  16.604 -0.0270 -0.2001  0.2949
12219TIP3    H158148   4.356   5.627  16.542 -1.5420 -0.8869  0.6780
12219TIP3    H258149   4.472   5.530  16.555  0.4151  1.2418 -0.2445
12220TIP3   OH258150   1.260   6.323   2.698 -0.1803  0.2878 -0.4731
12220TIP3    H158151   1.302   6.369   2.770  0.0837 -0.0613 -0.3959
12220TIP3    H258152   1.178   6.290   2.735 -0.2976  0.5713 -0.4862
12221TIP3   OH258153   0.725   0.427  16.545 -0.3931 -0.6498 -0.0111
12221TIP3    H158154   0.631   0.421  16.564 -0.8544 -1.1606 -2.2420
12221TIP3    H258155   0.750   0.338  16.522  0.9238 -0.7316  1.5194
12222TIP3   OH258156   0.335   1.907  14.845  0.3063  0.1884  0.0266
12222TIP3    H158157   0.243   1.920  14.870  0.7756  2.1210  0.9693
12222TIP3    H258158   0.331   1.855  14.765 -1.6313  0.7133 -0.2744
12223TIP3   OH258159   4.395   3.053   5.180  0.3331 -0.2048 -0.2169
12223TIP3    H158160   4.437   3.081   5.098 -0.8099  1.6851 -0.2197
12223TIP3    H258161   4.462   3.067   5.247  0.7303 -0.1798 -0.6109
12224TIP3   OH258162   1.396   1.057   2.438  0.6050 -0.4034  0.3322
12224TIP3    H158163   1.437   1.053   2.524 -1.4495 -0.2623  1.3862
12224TIP3    H258164   1.308   1.091   2.455  0.2419 -0.0957 -1.8686
12225TIP3   OH258165   4.740   4.915   3.818  0.0057  0.5037 -0.2175
12225TIP3    H158166   4.708   4.896   3.730  0.6130 -1.6098 -0.0476
12225TIP3    H258167   4.665   4.900   3.876  0.2152 -0.4640 -0.1818
12226TIP3   OH258168   3.956   3.233  17.318 -0.2482 -0.1114 -0.4616
12226TIP3    H158169   3.956   3.326  17.298 -1.5148 -0.1855 -0.8856
12226TIP3    H258170   4.002   3.226  17.402 -0.2402  0.9071 -0.3754
12227TIP3   OH258171   4.172   2.308  12.564  0.7099  0.5199 -0.0609
12227TIP3    H158172   4.252   2.270  12.529  0.8735  0.4931  0.3357
12227TIP3    H258173   4.142   2.369  12.497  0.6318 -0.0572 -0.5548
12228TIP3   OH258174   5.493   2.872  11.904 -0.3043 -0.3942 -0.2202
12228TIP3    H158175   5.529   2.952  11.867 -0.0607 -1.0528 -1.4536
12228TIP3    H258176   5.477   2.893  11.996 -0.7389  1.2280 -0.6436
12229TIP3   OH258177   2.451   0.662  16.348  0.0641  0.0327 -0.1807
12229TIP3    H158178   2.359   0.654  16.323 -0.1731 -0.0976  0.6766
12229TIP3    H258179   2.492   0.581  16.317 -0.4588 -0.6360  0.7921
12230TIP3   OH258180   1.433   5.057  15.619 -0.2309 -0.2186 -0.0669
12230TIP3    H158181   1.452   4.990  15.685 -0.9817 -1.9715 -1.5562
12230TIP3    H258182   1.517   5.100  15.604  0.8658 -2.4194 -0.7312
12231TIP3   OH258183   3.300   0.475   2.740  0.0975 -0.2202  0.3421
12231TIP3    H158184   3.363   0.543   2.763 -0.6472  1.2492 -1.6969
12231TIP3    H258185   3.299   0.473   2.644 -2.8028 -0.2660  0.2727
12232TIP3   OH258186   6.134   3.996  11.697  0.0561 -0.1113  0.1738
12232TIP3    H158187   6.145   3.965  11.787  0.1192  0.5317  0.3964
12232TIP3    H258188   6.045   3.969  11.673 -0.1974  0.2715  0.6627
12233TIP3   OH258189   3.613   6.412  17.150 -0.4240  0.1932  0.0518
12233TIP3    H158190   3.572   6.464  17.220 -0.9476  0.8605 -0.7344
12233TIP3    H258191   3.623   6.325  17.188 -0.2403  0.6622  1.1371
12234TIP3   OH258192   4.165   0.098  11.636  0.2431 -0.1120  1.0639
12234TIP3    H158193   4.164   0.005  11.612 -0.4921  0.0410  0.4669
12234TIP3    H258194   4.243   0.132  11.592 -0.0615 -0.2359  0.4057
12235TIP3   OH258195   2.939   4.283  14.856  0.0370  0.0068 -0.1316
12235TIP3    H158196   2.910   4.262  14.945  0.0293  0.2398 -0.0794
12235TIP3    H258197   3.028   4.248  14.852 -0.2670 -0.7670 -0.3152
12236TIP3   OH258198   5.375   2.806   3.338 -0.4045 -0.1171 -0.3614
12236TIP3    H158199   5.355   2.775   3.427 -2.6062  0.4759 -0.5845
12236TIP3    H258200   5.395   2.726   3.289 -1.6677 -0.7454  0.0966
12237TIP3   OH258201   3.801   4.360   1.753  0.6638 -0.5977 -0.1381
12237TIP3    H158202   3.729   4.385   1.695 -1.3577 -2.9324  1.2120
12237TIP3    H258203   3.773   4.388   1.840  0.2410 -3.5283  0.7636
12238TIP3   OH258204   5.966   1.360   3.457 -0.6415  0.0633 -0.5469
12238TIP3    H158205   5.971   1.447   3.496  0.3410 -0.4697  0.6308
12238TIP3    H258206   6.057   1.329   3.459 -0.9056 -0.8008 -1.3984
12239TIP3   OH258207   0.418   4.363   1.657  0.9338 -0.7463  0.1330
12239TIP3    H158208   0.382   4.414   1.729  1.3984 -0.9003  0.4837
12239TIP3    H258209   0.418   4.422   1.582  0.4243 -0.5917  0.2501
12240TIP3   OH258210   3.693   4.968   2.611 -0.0680  0.1145 -0.0825
12240TIP3    H158211   3.712   4.884   2.655 -1.1338  0.4442  1.0846
12240TIP3    H258212   3.655   4.943   2.527  0.9010 -0.5514 -0.3438
12241TIP3   OH258213   2.050   0.141   1.154  0.3597  0.7583 -0.1402
12241TIP3    H158214   2.132   0.097   1.134 -0.5597 -1.1796  0.0603
12241TIP3    H258215   2.057   0.166   1.246  0.8733  0.9530 -0.2329
12242TIP3   OH258216   4.932   2.227   5.479  0.3297  0.0144 -0.3266
12242TIP3    H158217   4.856   2.181   5.443 -1.3978  0.9435  1.8831
12242TIP3    H258218   4.919   2.225   5.573  2.8612  0.6224  0.1114
12243TIP3   OH258219   0.448   3.364  11.519  0.1262  0.2519  0.8497
12243TIP3    H158220   0.413   3.449  11.545  0.1811  0.5068  0.1070
12243TIP3    H258221   0.469   3.374  11.426  0.4908 -0.4537  0.8505
12244TIP3   OH258222   0.472   0.596   2.001 -0.4533  0.6837  0.2700
12244TIP3    H158223   0.460   0.505   2.030 -1.9953  0.5698 -0.6031
12244TIP3    H258224   0.543   0.629   2.056 -3.0168  0.4306  4.1470
12245TIP3   OH258225   3.983   3.261  11.151 -0.1133  0.8142 -0.0674
12245TIP3    H158226   3.925   3.259  11.076  0.6042 -2.5128 -0.6942
12245TIP3    H258227   4.047   3.192  11.134  1.8366  1.8786  2.2790
12246TIP3   OH258228   4.731   5.988   1.880  0.0418 -1.1659 -0.8004
12246TIP3    H158229   4.826   5.988   1.865 -0.0897 -0.4534 -1.6577
12246TIP3    H258230   4.708   6.080   1.893 -0.6270 -1.2650 -1.2344
12247TIP3   OH258231   2.533   6.618   6.696 -0.0794 -0.3015  0.5851
12247TIP3    H158232   2.547   6.541   6.640 -0.5000  0.4336 -0.5716
12247TIP3    H258233   2.619   6.635   6.734  0.3132 -0.6196 -0.1212
12248TIP3   OH258234   5.420   6.056   1.978 -0.1560 -0.2261  0.3034
12248TIP3    H158235   5.495   6.108   1.948 -0.6957  0.6525  0.4134
12248TIP3    H258236   5.446   6.023   2.063  0.9975 -1.8962 -0.6499
12249TIP3   OH258237   0.005   0.399  15.578 -0.0466 -0.4124  0.2537
12249TIP3    H158238  -0.072   0.356  15.615  0.2010 -0.7600  0.3720
12249TIP3    H258239   0.060   0.328  15.547 -0.2693 -0.1169 -0.8504
12250TIP3   OH258240   0.048   3.125  11.465 -0.0597  0.2540 -0.5386
12250TIP3    H158241   0.141   3.106  11.478 -0.5442 -1.0250  1.4255
12250TIP3    H258242   0.046   3.212  11.426  1.9692  0.0503 -1.1915
12251TIP3   OH258243   0.477   0.684  13.891  0.1004 -0.3791 -0.4337
12251TIP3    H158244   0.475   0.674  13.796  1.3473 -1.3089 -0.3841
12251TIP3    H258245   0.439   0.602  13.924  1.8375 -1.0891 -0.1194
12252TIP3   OH258246   3.542   3.422  13.722 -0.1630 -0.1415 -0.0184
12252TIP3    H158247   3.593   3.357  13.675  0.9578 -0.0686  1.0667
12252TIP3    H258248   3.540   3.391  13.812 -0.4940  0.7999  0.3107
12253TIP3   OH258249   4.755   5.764  16.488  0.6838  0.2217  0.1759
12253TIP3    H158250   4.823   5.817  16.530 -0.3298  1.0444  0.8290
12253TIP3    H258251   4.704   5.827  16.437 -0.1313 -0.2233  0.4230
12254TIP3   OH258252   1.184   4.281  15.160 -0.1982 -0.3611 -0.5306
12254TIP3    H158253   1.171   4.279  15.255 -0.8144 -1.9527 -0.6243
12254TIP3    H258254   1.204   4.191  15.136 -1.7799 -0.3409 -2.1208
12255TIP3   OH258255   2.647   5.123  15.480  0.4055 -0.3798  0.0199
12255TIP3    H158256   2.670   5.182  15.552 -1.5709  1.7209 -0.9804
12255TIP3    H258257   2.704   5.151  15.408  0.6558 -0.8594  0.0269
12256TIP3   OH258258   3.705   4.060   2.038  0.9368 -0.0509 -0.0667
12256TIP3    H158259   3.639   4.123   2.007  0.6324 -0.0117  0.6530
12256TIP3    H258260   3.758   4.041   1.960  0.9779  1.0223 -0.3217
12257TIP3   OH258261   5.623   4.929   1.977 -0.4488 -0.4522  0.0205
12257TIP3    H158262   5.668   4.942   2.061  0.3566  0.0134 -0.4729
12257TIP3    H258263   5.531   4.951   1.996  0.0305  1.4292  0.3666
12258TIP3   OH258264   6.302   5.423   3.261  0.0958  0.6423  0.1128
12258TIP3    H158265   6.355   5.478   3.203  0.3126 -0.3668 -0.6782
12258TIP3    H258266   6.227   5.397   3.207  0.8103 -1.1361 -0.0811
12259TIP3   OH258267   0.363   2.156   0.377  0.4627 -0.5055 -0.0334
12259TIP3    H158268   0.336   2.247   0.384  0.5717 -0.5152  0.4989
12259TIP3    H258269   0.382   2.144   0.283  1.3021  0.2632  0.0258
12260TIP3   OH258270   3.151   0.271   2.186  0.4937  0.0788 -0.0784
12260TIP3    H158271   3.243   0.246   2.195 -0.1806 -2.1505  1.5866
12260TIP3    H258272   3.122   0.226   2.106  0.8109  0.7663 -0.5927
12261TIP3   OH258273   6.374   1.880   5.814 -0.2193 -0.5766  0.0807
12261TIP3    H158274   6.363   1.951   5.752 -0.0842 -1.6912 -1.2652
12261TIP3    H258275   6.465   1.888   5.845  0.7597 -1.8157 -2.2536
12262TIP3   OH258276   0.425   3.146  11.778  0.3083  0.0404 -0.3688
12262TIP3    H158277   0.462   3.059  11.789  0.8086  0.5148  2.2784
12262TIP3    H258278   0.449   3.171  11.688  0.4878 -2.3371 -1.0476
12263TIP3   OH258279   5.815   0.760  11.676  0.1057 -0.7989 -0.0093
12263TIP3    H158280   5.855   0.683  11.635  1.1995 -0.2788  0.0583
12263TIP3    H258281   5.727   0.764  11.637  0.1290 -1.9092 -0.2220
12264TIP3   OH258282   0.122   3.209   0.912  0.1624  0.4195 -0.1682
12264TIP3    H158283   0.155   3.291   0.947 -0.8992  0.5693  0.5423
12264TIP3    H258284   0.168   3.141   0.962  2.5664  0.4659 -2.1384
12265TIP3   OH258285   6.474   0.997  14.091  0.0380 -0.2250 -0.6198
12265TIP3    H158286   6.409   1.061  14.061 -0.6671 -0.2981  0.6868
12265TIP3    H258287   6.518   1.041  14.164  0.1491 -0.9045 -0.2726
12266TIP3   OH258288   4.663   4.033  15.344 -0.0982 -0.3716 -0.0920
12266TIP3    H158289   4.742   4.071  15.382 -0.7275  2.5043 -1.3370
12266TIP3    H258290   4.591   4.087  15.379 -1.1973 -1.0734 -1.1727
12267TIP3   OH258291   1.804   2.210  13.531 -0.0538 -0.3005  0.1510
12267TIP3    H158292   1.738   2.227  13.464  1.2634 -0.7520 -1.3202
12267TIP3    H258293   1.862   2.287  13.527  0.7722 -0.9235 -0.1679
12268TIP3   OH258294   6.661   6.284  17.013 -0.1542 -0.1878 -0.3911
12268TIP3    H158295   6.597   6.214  17.002 -0.5124 -0.5355  2.8876
12268TIP3    H258296   6.746   6.243  16.996 -0.5159 -0.7905 -0.7608
12269TIP3   OH258297   1.838   1.737   4.106  0.1490  0.3560  0.1317
12269TIP3    H158298   1.820   1.659   4.053 -1.2805  0.8943 -0.2195
12269TIP3    H258299   1.758   1.751   4.157  0.8196  0.9270  1.0452
12270TIP3   OH258300   5.712   1.837  12.425  0.2147  0.7230 -0.0623
12270TIP3    H158301   5.792   1.824  12.375  0.3415  1.3203 -0.0210
12270TIP3    H258302   5.653   1.882  12.363  0.5983  2.0597  0.5198
12271TIP3   OH258303   1.960   2.246   2.253  0.8151  0.5955 -0.1962
12271TIP3    H158304   1.972   2.305   2.328  1.9425 -1.4538  1.3099
12271TIP3    H258305   1.866   2.230   2.250  0.7281  0.9118  0.6064
12272TIP3   OH258306   0.988   5.292  11.639  0.2585 -0.1700 -0.4221
12272TIP3    H158307   1.041   5.235  11.583 -0.0439 -0.4324 -0.4501
12272TIP3    H258308   0.944   5.232  11.699 -1.7390 -0.2317 -1.8185
12273TIP3   OH258309   4.240   1.755   3.753 -0.3336 -0.2587 -0.4365
12273TIP3    H158310   4.288   1.729   3.833  0.3074  0.8118 -0.4594
12273TIP3    H258311   4.171   1.689   3.745  0.9437 -1.6885 -0.2329
12274TIP3   OH258312   1.888   3.194   1.725 -0.3392  0.0767 -0.4877
12274TIP3    H158313   1.822   3.245   1.772 -0.3103  0.6822 -1.0901
12274TIP3    H258314   1.931   3.141   1.793 -0.9766  0.1883  0.0061
12275TIP3   OH258315   5.964   4.625  12.985 -0.0562 -0.3695  0.4795
12275TIP3    H158316   5.964   4.718  13.010 -0.0027 -0.2785  0.1481
12275TIP3    H258317   6.055   4.605  12.964 -0.3860  0.1382 -1.7105
12276TIP3   OH258318   1.971   6.071   1.092  0.2898 -0.0808 -0.2196
12276TIP3    H158319   1.950   5.980   1.112  2.7437 -0.2415  2.2192
12276TIP3    H258320   2.055   6.067   1.046  0.1489  0.9304 -0.5808
12277TIP3   OH258321   4.217   0.594   2.795  0.0443  0.5766  0.1477
12277TIP3    H158322   4.139   0.545   2.820 -0.1323 -0.0189 -1.4487
12277TIP3    H258323   4.257   0.621   2.878 -1.9784  1.1218  0.9877
12278TIP3   OH258324   0.908   2.223   3.726 -0.5512  0.1743 -0.0004
12278TIP3    H158325   0.833   2.205   3.783 -0.8137  2.0351  0.3096
12278TIP3    H258326   0.871   2.273   3.653  0.5655  2.5638  0.9720
12279TIP3   OH258327   0.524   6.748   5.244 -0.2689 -0.2729 -0.3009
12279TIP3    H158328   0.620   6.746   5.238 -0.3112 -0.2348 -0.9655
12279TIP3    H258329   0.494   6.749   5.154 -0.9145 -0.7724 -0.0939
12280TIP3   OH258330   5.820   5.555   5.949 -0.1311  0.3368 -0.1482
12280TIP3    H158331   5.814   5.558   6.045  0.9468 -0.3488 -0.0424
12280TIP3    H258332   5.887   5.490   5.931 -1.7166 -1.0525 -1.4388
12281TIP3   OH258333   3.520   6.497  12.818 -0.5131 -0.0505 -0.0543
12281TIP3    H158334   3.455   6.564  12.840 -0.1194  0.3522 -0.1032
12281TIP3    H258335   3.576   6.492  12.895 -1.1910 -1.1224  0.3992
12282TIP3   OH258336   4.134   1.995  17.126  0.3181  0.0830 -0.1442
12282TIP3    H158337   4.074   2.047  17.180 -1.0983 -0.7176 -0.8674
12282TIP3    H258338   4.143   1.913  17.173  0.4544  0.0288 -0.2652
12283TIP3   OH258339   1.692   2.020  12.123  0.7732  0.1034  0.5353
12283TIP3    H158340   1.740   2.093  12.084  0.7360  0.8251  1.7811
12283TIP3    H258341   1.725   1.942  12.078  0.8613  0.8667 -0.7698
12284TIP3   OH258342   5.290   3.523   5.510  0.0305 -0.7741 -0.0138
12284TIP3    H158343   5.370   3.576   5.510 -0.8009  0.5277  0.1894
12284TIP3    H258344   5.286   3.487   5.422 -0.5466  1.3853 -0.9381
12285TIP3   OH258345   3.830   2.605  15.019  0.5752 -0.3919  0.0088
12285TIP3    H158346   3.806   2.577  15.107 -0.8262  1.4657  0.2715
12285TIP3    H258347   3.825   2.701  15.022  0.9409 -0.2697 -1.9673
12286TIP3   OH258348   5.323   3.507   4.690 -0.1127  0.2079 -0.5190
12286TIP3    H158349   5.354   3.480   4.777 -0.0760 -0.3295 -0.6947
12286TIP3    H258350   5.402   3.514   4.637 -0.1526  0.3366 -0.5607
12287TIP3   OH258351   2.327   2.905   3.628 -0.3028  0.3205 -0.2169
12287TIP3    H158352   2.291   2.884   3.715 -2.2156 -0.5732 -1.1691
12287TIP3    H258353   2.279   2.984   3.602  0.2425  0.5637 -0.4921
12288TIP3   OH258354   2.882   3.617   0.279 -0.8458  0.0702 -0.1533
12288TIP3    H158355   2.863   3.631   0.372 -1.4270 -0.9421 -0.1146
12288TIP3    H258356   2.889   3.706   0.243 -3.3192  0.5366  0.3197
12289TIP3   OH258357   6.234   3.399   2.041  0.0749 -0.4096 -0.0662
12289TIP3    H158358   6.187   3.420   2.122 -1.3735 -0.7785 -0.7772
12289TIP3    H258359   6.266   3.484   2.009  0.0343 -0.1718  0.5159
12290TIP3   OH258360   2.588   6.519  13.382 -0.2566 -0.4200  0.3381
12290TIP3    H158361   2.511   6.472  13.413 -0.0428  0.4617  2.4498
12290TIP3    H258362   2.555   6.605  13.357 -0.0385 -0.1465  0.9519
12291TIP3   OH258363   6.181   0.486   3.943  0.5801 -0.2004  0.6385
12291TIP3    H158364   6.113   0.466   4.009  0.2006  0.5767  0.4984
12291TIP3    H258365   6.219   0.401   3.922 -1.4504 -0.9081 -0.4708
12292TIP3   OH258366   5.845   6.056  14.164 -0.3657  0.5525  0.0469
12292TIP3    H158367   5.781   5.996  14.125  0.1308 -0.0955  0.1979
12292TIP3    H258368   5.870   6.114  14.093  0.1764 -0.3082 -0.4865
12293TIP3   OH258369   2.835   2.819   3.452 -0.0140 -0.3806  0.0881
12293TIP3    H158370   2.916   2.871   3.453  0.0412 -0.3945 -1.2346
12293TIP3    H258371   2.787   2.846   3.529 -0.3853  2.2875 -0.9923
12294TIP3   OH258372   2.624   5.631   4.551 -0.4317 -0.1050 -0.3604
12294TIP3    H158373   2.707   5.637   4.598  0.3124 -1.0803 -1.4865
12294TIP3    H258374   2.567   5.694   4.595  0.9437  0.7010  0.3426
12295TIP3   OH258375   1.867   3.188  13.066 -0.0777 -0.4083 -0.1069
12295TIP3    H158376   1.909   3.141  12.995 -0.5101 -0.6365 -0.2157
12295TIP3    H258377   1.939   3.223  13.118  0.2444  0.1831 -0.9314
12296TIP3   OH258378   6.138   3.964   4.422 -0.7957 -0.5439 -0.2991
12296TIP3    H158379   6.205   3.907   4.386 -0.2395 -0.2990  0.3226
12296TIP3    H258380   6.060   3.909   4.429 -0.7167 -0.7778 -1.1978
12297TIP3   OH258381   0.121   3.219  17.331 -0.2947  0.5660 -0.2751
12297TIP3    H158382   0.057   3.159  17.291  1.9081 -0.5513 -2.4312
12297TIP3    H258383   0.157   3.268  17.257  0.7613  1.7415  0.9690
12298TIP3   OH258384   5.362   5.748   5.890  0.1112 -0.3516 -0.3397
12298TIP3    H158385   5.351   5.675   5.951  0.7519 -1.4236 -1.4599
12298TIP3    H258386   5.454   5.773   5.900  0.9380 -2.1744 -2.5596
12299TIP3   OH258387   6.552   1.615   5.743 -0.5394 -0.4443 -0.2503
12299TIP3    H158388   6.535   1.661   5.661  0.9883 -1.2525 -1.0840
12299TIP3    H258389   6.622   1.665   5.785  0.9747 -1.7583 -1.0560
12300TIP3   OH258390   4.732   3.561   1.188  0.3798  0.0438  0.1437
12300TIP3    H158391   4.748   3.655   1.191 -2.0875  0.4947  2.2469
12300TIP3    H258392   4.638   3.552   1.173  0.8705 -2.2068 -2.6282
12301TIP3   OH258393   3.298   1.118   2.745 -0.0938  0.0845  0.0123
12301TIP3    H158394   3.290   1.032   2.705 -1.7709  0.8091 -1.3579
12301TIP3    H258395   3.385   1.149   2.721  0.4282 -1.0972  0.3132
12302TIP3   OH258396   1.953   2.937   4.534  0.4008 -0.1969  0.4778
12302TIP3    H158397   1.991   2.954   4.447 -2.1713 -1.1451 -0.9429
12302TIP3    H258398   1.981   3.012   4.587  0.3166  1.5419 -1.7817
12303TIP3   OH258399   0.477   5.994  16.735 -0.0365  0.3481 -0.5872
12303TIP3    H158400   0.404   5.945  16.772 -0.7593  1.6257 -0.2898
12303TIP3    H258401   0.537   6.006  16.808  0.4671 -0.6365 -0.8148
12304TIP3   OH258402   2.625   4.335  14.251  0.5250  0.1865 -0.0260
12304TIP3    H158403   2.588   4.285  14.324  2.9148  0.3692  1.4373
12304TIP3    H258404   2.557   4.397  14.228 -0.4976 -0.1812  1.7780
12305TIP3   OH258405   2.324   3.262  10.669  0.6458  0.2076 -0.2851
12305TIP3    H158406   2.312   3.340  10.614 -0.1092 -0.3533 -0.9340
12305TIP3    H258407   2.419   3.255  10.680  0.7096  1.4028  0.0589
12306TIP3   OH258408   0.119   1.835   4.489 -0.1930  0.3101 -0.1718
12306TIP3    H158409   0.089   1.855   4.578 -1.5885  0.2331 -0.5978
12306TIP3    H258410   0.042   1.851   4.434  0.4466 -0.3220 -1.2810
12307TIP3   OH258411   3.251   0.664   3.709 -0.0846  0.9499  0.4417
12307TIP3    H158412   3.302   0.704   3.637  1.3603  1.6444  1.7847
12307TIP3    H258413   3.258   0.570   3.693 -1.0924  1.0940 -1.1528
12308TIP3   OH258414   6.264   5.869  12.117  0.1804 -0.4146 -0.2307
12308TIP3    H158415   6.331   5.818  12.163  0.9220  0.7638  0.0493
12308TIP3    H258416   6.277   5.959  12.150  0.1925  0.3098 -2.1233
12309TIP3   OH258417   2.485   0.440   4.218 -0.1795 -0.9882 -0.2369
12309TIP3    H158418   2.530   0.459   4.136  0.5386  1.1977  0.5786
12309TIP3    H258419   2.403   0.490   4.213 -0.8040 -1.9861 -0.1938
12310TIP3   OH258420   3.887   4.193  11.761  0.3591  0.4076  0.6679
12310TIP3    H158421   3.894   4.203  11.856  1.0483  0.6606  0.5951
12310TIP3    H258422   3.962   4.138  11.737 -0.4090 -0.5373  0.3966
12311TIP3   OH258423   3.654   4.555  13.884  0.6282 -0.8395 -0.2239
12311TIP3    H158424   3.629   4.506  13.806  2.1692 -1.7825 -0.1744
12311TIP3    H258425   3.709   4.494  13.934  1.3647  0.4373  0.5825
12312TIP3   OH258426   4.828   2.693  12.466 -0.3338  0.0970  0.8848
12312TIP3    H158427   4.803   2.772  12.417  0.3076 -0.4424 -0.3803
12312TIP3    H258428   4.754   2.633  12.453  0.6597 -0.7989 -1.2505
12313TIP3   OH258429   3.661   4.513   6.245 -0.1126 -0.5308  0.8002
12313TIP3    H158430   3.700   4.453   6.181 -1.0862 -1.0655  0.6914
12313TIP3    H258431   3.650   4.459   6.323 -0.2312 -0.2595  0.9674
12314TIP3   OH258432   4.841   6.479   4.757  0.5905 -0.1877 -0.1577
12314TIP3    H158433   4.814   6.517   4.674  1.5926  2.0288  0.4683
12314TIP3    H258434   4.881   6.395   4.733  1.1712  0.5598 -1.9600
12315TIP3   OH258435   2.648   6.008   5.833 -0.2021  0.7061 -0.2484
12315TIP3    H158436   2.585   5.973   5.897  1.0008  0.7875  1.0241
12315TIP3    H258437   2.724   5.950   5.840  0.8210  2.0261  0.0270
12316TIP3   OH258438   2.828   3.145   2.242 -0.1008  0.2138 -0.6637
12316TIP3    H158439   2.805   3.197   2.165 -1.2713  1.4568  0.4841
12316TIP3    H258440   2.755   3.084   2.252  0.0288  0.0857 -0.4910
12317TIP3   OH258441   1.977   4.634  16.836 -0.1709 -0.1996 -0.5841
12317TIP3    H158442   2.026   4.655  16.916 -0.5113 -1.8014  0.0728
12317TIP3    H258443   2.038   4.656  16.765 -0.0271  1.6654  0.0655
12318TIP3   OH258444   0.314   1.770  16.605  0.5544 -0.6544 -0.2841
12318TIP3    H158445   0.305   1.819  16.524 -2.4155  0.1135  0.3894
12318TIP3    H258446   0.241   1.708  16.604  0.9179 -1.1771  1.4581
12319TIP3   OH258447   3.288   0.682   1.196  0.4761 -0.2818  0.1244
12319TIP3    H158448   3.339   0.725   1.127 -0.3388  0.9920  0.2782
12319TIP3    H258449   3.339   0.696   1.275 -0.3773  1.6323  0.4071
12320TIP3   OH258450   4.308   2.020   4.239 -0.3580  0.2124  0.6532
12320TIP3    H158451   4.300   2.009   4.144  0.4398  0.1137  0.5900
12320TIP3    H258452   4.241   2.084   4.261 -2.6010 -1.9416  0.4916
12321TIP3   OH258453   5.100   5.007  13.212 -0.3857  0.2086 -0.0291
12321TIP3    H158454   5.096   5.102  13.199 -1.5213  0.0817 -0.7147
12321TIP3    H258455   5.138   4.973  13.131 -2.8703 -0.1606 -1.1068
12322TIP3   OH258456   6.739   1.147   2.618 -0.6284  0.2019  0.5255
12322TIP3    H158457   6.765   1.107   2.534 -1.7722 -2.1249  1.1859
12322TIP3    H258458   6.808   1.211   2.636  0.4721 -0.3305 -1.4323
12323TIP3   OH258459   3.109   0.819  15.956  0.2651  0.1511  0.0195
12323TIP3    H158460   3.087   0.750  16.017  0.0228  1.6325  1.6837
12323TIP3    H258461   3.154   0.885  16.009  0.2767  1.3743 -1.4338
12324TIP3   OH258462   3.129   6.476  10.641 -0.4401 -0.6634 -0.2318
12324TIP3    H158463   3.133   6.564  10.678 -1.3801  0.0261 -1.6971
12324TIP3    H258464   3.046   6.441  10.673  0.0583 -1.1464  0.5723
12325TIP3   OH258465   1.520   1.576   2.701 -0.1612  0.2018  0.0876
12325TIP3    H158466   1.579   1.500   2.708 -0.8476 -0.5161 -1.3734
12325TIP3    H258467   1.451   1.558   2.764 -0.3293 -0.4155 -0.2627
12326TIP3   OH258468   0.283   5.461   0.609  0.0292 -0.5717  0.3215
12326TIP3    H158469   0.337   5.527   0.566  1.3834 -0.3623  2.2274
12326TIP3    H258470   0.258   5.401   0.539 -1.3110  1.9360 -1.5077
12327TIP3   OH258471   2.798   3.722   5.568  0.7469  0.7747  0.7588
12327TIP3    H158472   2.862   3.660   5.534 -0.7244  0.2383 -1.2429
12327TIP3    H258473   2.792   3.789   5.501 -1.1178  0.5430  0.6459
12328TIP3   OH258474   1.767   4.772  10.738 -0.5819 -0.2095 -0.4258
12328TIP3    H158475   1.758   4.828  10.660 -1.0983  1.2704  0.6444
12328TIP3    H258476   1.682   4.777  10.781 -0.0567 -0.3335  0.6548
12329TIP3   OH258477   3.281   2.016  15.311 -0.5907 -0.9866  0.3768
12329TIP3    H158478   3.315   2.087  15.365 -0.4748 -2.3355  2.1532
12329TIP3    H258479   3.351   1.997  15.248 -0.0932 -0.4156  0.7596
12330TIP3   OH258480   5.462   4.895  13.283  0.4431 -0.6194  0.1052
12330TIP3    H158481   5.456   4.849  13.367  2.8821 -0.3394  0.4947
12330TIP3    H258482   5.503   4.978  13.303  0.0383 -0.0657 -1.2295
12331TIP3   OH258483   4.273   6.392  12.405  0.1059  0.2644 -0.6194
12331TIP3    H158484   4.209   6.354  12.344 -0.9662  1.6043 -0.3656
12331TIP3    H258485   4.320   6.457  12.353  0.6376 -0.0582 -0.5526
12332TIP3   OH258486   0.866   3.769   1.146 -0.0120 -0.7750  0.0036
12332TIP3    H158487   0.880   3.826   1.221 -1.5058  0.6039 -0.7119
12332TIP3    H258488   0.791   3.715   1.170 -1.5758  0.8204 -1.0666
12333TIP3   OH258489   0.375   3.666   3.303  0.4035  0.7006  0.0626
12333TIP3    H158490   0.367   3.588   3.358  0.8640  1.3755  1.1146
12333TIP3    H258491   0.431   3.638   3.230 -0.4710 -0.2864 -0.2574
12334TIP3   OH258492   0.665   4.088   4.597  0.2663 -0.3850 -0.1925
12334TIP3    H158493   0.617   4.106   4.677  0.3267 -1.7093  0.1521
12334TIP3    H258494   0.597   4.078   4.530  0.2137  0.6517 -0.3082
12335TIP3   OH258495   4.007   0.320   3.545  0.2602 -0.0452 -0.2782
12335TIP3    H158496   3.933   0.330   3.605 -0.7885 -0.0265 -1.5298
12335TIP3    H258497   3.970   0.275   3.469  1.6277 -0.3646 -0.7715
12336TIP3   OH258498   0.663   4.881   3.722 -0.2537 -0.0206 -0.4004
12336TIP3    H158499   0.581   4.849   3.684 -0.6754 -0.4552  0.8441
12336TIP3    H258500   0.704   4.930   3.651 -1.0121 -0.8107 -1.4213
12337TIP3   OH258501   5.869   1.017   4.516 -0.5841 -0.2396 -0.2761
12337TIP3    H158502   5.952   1.016   4.469  1.2417  0.0143  2.6799
12337TIP3    H258503   5.874   0.942   4.575 -2.1108  0.2172  0.4849
12338TIP3   OH258504   0.311   1.109  17.359 -0.5246 -0.0749 -0.6998
12338TIP3    H158505   0.216   1.119  17.355 -0.5156 -0.1450 -1.2132
12338TIP3    H258506   0.325   1.034  17.417 -0.7765  0.0352 -0.4973
12339TIP3   OH258507   3.588   0.849   3.913  0.7563  0.0307 -0.1849
12339TIP3    H158508   3.599   0.943   3.921 -0.5906  0.1145  1.0190
12339TIP3    H258509   3.587   0.832   3.819  1.9778  1.0648 -0.4111
12340TIP3   OH258510   0.022   0.420  14.575  0.1302  0.3589  0.5952
12340TIP3    H158511  -0.030   0.400  14.497 -2.1547 -2.5302  2.6605
12340TIP3    H258512  -0.037   0.472  14.630  0.5471 -0.3141  1.6948
12341TIP3   OH258513   5.069   1.140   4.063 -0.0355  0.0337 -0.4039
12341TIP3    H158514   5.164   1.134   4.075  0.1558  1.8067 -0.6922
12341TIP3    H258515   5.035   1.149   4.152  0.3236  1.7672 -0.4030
12342TIP3   OH258516   1.095   1.035  12.483  0.1828  0.2861 -0.7065
12342TIP3    H158517   1.128   0.957  12.438 -0.2337  1.3872 -3.0697
12342TIP3    H258518   1.001   1.035  12.465  0.3210  1.7997 -1.5642
12343TIP3   OH258519   3.257   6.619  15.252 -0.6575  0.2928  0.1597
12343TIP3    H158520   3.271   6.573  15.169 -0.6460  0.6301 -0.0256
12343TIP3    H258521   3.162   6.629  15.258 -0.6534  0.3393  0.1491
12344TIP3   OH258522   5.280   5.449  15.023  0.1473 -0.6739  0.0721
12344TIP3    H158523   5.262   5.366  14.978  0.9131 -0.5109 -0.5476
12344TIP3    H258524   5.259   5.432  15.115 -1.5910 -0.9765 -0.3328
12345TIP3   OH258525   5.770   1.952   4.579  1.0783 -0.6064 -0.1541
12345TIP3    H158526   5.856   1.945   4.537  0.8586  0.0549 -0.7395
12345TIP3    H258527   5.714   1.992   4.512  0.8823  1.1095  0.9640
12346TIP3   OH258528   4.138   1.181  16.374  0.2020 -0.3597 -0.0408
12346TIP3    H158529   4.084   1.227  16.309 -1.0903 -0.6237  0.8015
12346TIP3    H258530   4.165   1.100  16.330  0.3706  0.0246 -0.6593
12347TIP3   OH258531   6.460   0.153   0.989 -0.0290 -0.2813  0.0484
12347TIP3    H158532   6.457   0.060   1.012  1.3392 -0.7533 -1.4588
12347TIP3    H258533   6.490   0.154   0.898  1.1026  1.6735  0.3825
12348TIP3   OH258534   3.636   6.423   3.043 -0.0713 -0.6393  0.2518
12348TIP3    H158535   3.608   6.437   2.952 -1.5894 -0.6314  0.6872
12348TIP3    H258536   3.719   6.377   3.035 -0.2342 -0.7551 -1.1478
12349TIP3   OH258537   6.555   4.206  11.867 -0.5649 -0.0446  0.9171
12349TIP3    H158538   6.584   4.219  11.777 -2.1590 -0.5487  0.3039
12349TIP3    H258539   6.516   4.289  11.892 -1.7572 -0.4619  0.4911
12350TIP3   OH258540   2.317   3.487   6.752 -0.1544 -0.5440 -0.1374
12350TIP3    H158541   2.312   3.548   6.826 -2.8993 -1.0440  0.1953
12350TIP3    H258542   2.405   3.499   6.717 -0.0033  2.3214  0.9779
12351TIP3   OH258543   5.546   0.886  12.700 -0.3057  0.3105  0.3978
12351TIP3    H158544   5.454   0.911  12.700  0.2180  2.4707 -0.0997
12351TIP3    H258545   5.582   0.927  12.779  0.5382  0.8823 -0.2589
12352TIP3   OH258546   4.921   5.510  16.849 -0.5292 -0.0263  0.3698
12352TIP3    H158547   4.991   5.496  16.912  1.8459  0.9192 -1.8471
12352TIP3    H258548   4.883   5.595  16.873 -0.6994 -0.3801  1.3857
12353TIP3   OH258549   0.797   6.257   0.998 -0.0676  0.1464 -0.7389
12353TIP3    H158550   0.806   6.347   1.027  1.1800  0.7030 -2.6518
12353TIP3    H258551   0.759   6.263   0.910  1.2059 -1.0687 -1.4249
12354TIP3   OH258552   1.315   3.147  13.763  0.0346  0.1472  0.3214
12354TIP3    H158553   1.404   3.175  13.738 -0.3555  0.7541 -0.4537
12354TIP3    H258554   1.288   3.211  13.829 -0.1227  0.4499 -0.0310
12355TIP3   OH258555   5.956   6.659  14.424  0.4485 -0.0576 -0.6281
12355TIP3    H158556   5.867   6.630  14.444  0.1724 -0.9086 -2.8479
12355TIP3    H258557   5.987   6.598  14.358  2.6856  0.2800  0.0148
12356TIP3   OH258558   3.606   3.945  16.356 -0.0851 -0.5261 -0.1214
12356TIP3    H158559   3.584   3.886  16.428  1.6571 -1.3030 -0.1755
12356TIP3    H258560   3.675   3.899  16.308 -0.3233  0.5397 -1.5483
12357TIP3   OH258561   3.537   5.177  16.019  0.1229 -0.4360 -0.2680
12357TIP3    H158562   3.584   5.249  16.062  1.1574 -1.8043  1.0108
12357TIP3    H258563   3.471   5.150  16.083  0.6589 -1.4993 -0.1411
12358TIP3   OH258564   0.281   5.592  15.293  0.1226 -0.0549 -0.1449
12358TIP3    H158565   0.234   5.564  15.214 -1.1130  1.5508 -0.0354
12358TIP3    H258566   0.371   5.564  15.278 -0.5263 -1.8896 -1.0501
12359TIP3   OH258567   0.757   1.294  15.599  0.1870 -0.0859 -0.1286
12359TIP3    H158568   0.727   1.268  15.512  1.2103 -1.6274 -0.0503
12359TIP3    H258569   0.690   1.259  15.659 -0.0666  0.2157 -0.2362
12360TIP3   OH258570   1.989   2.998   0.206  0.1556 -0.1565  0.2283
12360TIP3    H158571   2.054   3.001   0.136 -1.6629  2.2910 -1.5436
12360TIP3    H258572   1.926   2.932   0.177 -1.0381  1.4380 -0.9831
12361TIP3   OH258573   5.803   5.004  17.402  0.2068 -0.1553  0.4891
12361TIP3    H158574   5.860   5.063  17.452  1.8222  0.4250 -1.8903
12361TIP3    H258575   5.717   5.046  17.405  0.7051  0.8606  1.1080
12362TIP3   OH258576   2.412   5.616   2.515  0.9979 -0.0248 -0.2187
12362TIP3    H158577   2.402   5.561   2.437  1.9455  0.6267 -0.8139
12362TIP3    H258578   2.468   5.565   2.573 -0.3558 -0.8623  0.4030
12363TIP3   OH258579   1.042   6.306  13.825  0.0465 -0.2648 -0.1926
12363TIP3    H158580   0.996   6.222  13.834 -1.2716  0.4328 -0.2297
12363TIP3    H258581   1.046   6.321  13.731  1.2149 -0.7575 -0.2450
12364TIP3   OH258582   3.446   6.234  10.909  0.5791  0.5506 -0.4384
12364TIP3    H158583   3.541   6.245  10.909  0.8540 -1.4680 -1.3041
12364TIP3    H258584   3.414   6.309  10.859  1.4352  2.7281  2.0535
12365TIP3   OH258585   1.165   4.754   3.140 -0.2539 -0.0472  0.3779
12365TIP3    H158586   1.257   4.728   3.144 -0.2772 -0.1596  0.2113
12365TIP3    H258587   1.128   4.727   3.225 -0.5519 -1.6327 -0.2307
12366TIP3   OH258588   4.641   6.250  13.340 -0.2665 -0.3529 -0.7544
12366TIP3    H158589   4.613   6.213  13.256  0.2242  1.4513 -1.7631
12366TIP3    H258590   4.601   6.193  13.405 -0.6863 -1.7989 -2.2002
12367TIP3   OH258591   4.193   2.419   3.415 -0.4683 -0.2632 -0.0055
12367TIP3    H158592   4.261   2.414   3.348 -0.2290 -1.3909  0.2997
12367TIP3    H258593   4.129   2.481   3.380  1.3586  1.9248  0.3064
12368TIP3   OH258594   0.319   6.133   6.569  0.0710 -0.0893 -0.4283
12368TIP3    H158595   0.391   6.196   6.565 -0.7684  1.0902  1.4352
12368TIP3    H258596   0.240   6.186   6.554 -0.7520 -0.4163  2.2437
12369TIP3   OH258597   4.022   5.230  15.170  0.3514 -0.1783 -0.1179
12369TIP3    H158598   4.021   5.224  15.265 -0.9368  0.8025 -0.0411
12369TIP3    H258599   3.932   5.207  15.144  0.4620  0.3970 -1.0289
12370TIP3   OH258600   5.282   0.374   4.727  1.0696  0.2681 -0.4140
12370TIP3    H158601   5.362   0.409   4.764  1.1715 -0.5396  0.1527
12370TIP3    H258602   5.251   0.311   4.792 -0.8564  1.6584  0.1098
12371TIP3   OH258603   0.043   2.482  10.574 -0.3189  0.0166 -0.0274
12371TIP3    H158604  -0.003   2.562  10.598 -0.1419 -0.4250  1.9069
12371TIP3    H258605   0.113   2.473  10.639  1.6609 -0.0810 -2.0544
12372TIP3   OH258606   4.521   2.368   3.544 -0.3462 -0.0329  0.4060
12372TIP3    H158607   4.432   2.383   3.513 -0.2673 -0.4273 -0.0254
12372TIP3    H258608   4.510   2.336   3.634 -0.7562 -1.6896 -0.1896
12373TIP3   OH258609   1.714   2.679  13.818  0.6513  0.5646 -0.1911
12373TIP3    H158610   1.619   2.693  13.821  0.1519 -2.1180 -0.1773
12373TIP3    H258611   1.737   2.688  13.726  0.1735  0.2185 -0.3502
12374TIP3   OH258612   4.028   0.385  16.839 -0.0585 -0.7560 -0.3737
12374TIP3    H158613   3.952   0.402  16.894 -0.2886 -1.0203 -0.6123
12374TIP3    H258614   4.077   0.318  16.887 -0.2798 -1.0159 -0.5116
12375TIP3   OH258615   3.150   6.041  12.512 -0.5629 -0.5983 -0.4008
12375TIP3    H158616   3.104   5.983  12.573 -1.0401 -1.0410 -1.1702
12375TIP3    H258617   3.088   6.056  12.441  0.8721 -2.2092 -2.0911
12376TIP3   OH258618   1.409   2.789   3.521  0.3497  0.1497  0.2573
12376TIP3    H158619   1.323   2.766   3.485  1.3982 -0.4156 -2.0456
12376TIP3    H258620   1.462   2.811   3.444  2.8488 -1.4953  1.3979
12377TIP3   OH258621   4.171   4.055  11.821 -0.0083 -0.4659  0.1913
12377TIP3    H158622   4.118   3.988  11.864  1.0740  0.3787  3.0835
12377TIP3    H258623   4.246   4.007  11.785 -1.2952 -1.2922 -1.5167
12378TIP3   OH258624   5.431   3.553   5.084  0.0889 -0.3724  0.1866
12378TIP3    H158625   5.476   3.563   5.000 -0.4317 -0.2911 -0.0870
12378TIP3    H258626   5.338   3.554   5.062 -0.0519 -0.5519  0.7432
12379TIP3   OH258627   4.771   6.245  11.965  0.0227 -0.3065 -0.1432
12379TIP3    H158628   4.815   6.314  12.014  2.2727 -0.6817 -1.4673
12379TIP3    H258629   4.799   6.163  12.007  3.3057 -0.7511 -2.7164
12380TIP3   OH258630   3.637   5.462  10.610  0.1450 -0.7414  0.0359
12380TIP3    H158631   3.681   5.391  10.562  0.8592 -0.0277 -0.3786
12380TIP3    H258632   3.709   5.515  10.644 -0.3726  0.9579 -1.4104
12381TIP3   OH258633   0.049   4.784   4.291  0.3608 -0.3401  0.5675
12381TIP3    H158634   0.050   4.796   4.386 -0.9757 -1.8110  0.8073
12381TIP3    H258635   0.037   4.690   4.278  1.7307 -0.3492 -1.0965
12382TIP3   OH258636   6.351   1.668   0.721 -0.6533  0.1606  0.0710
12382TIP3    H158637   6.441   1.698   0.706 -1.1883  1.9258  0.1127
12382TIP3    H258638   6.337   1.681   0.815 -0.4291 -1.7541  0.4113
12383TIP3   OH258639   0.509   5.537   2.731  0.0791  0.0749  0.0808
12383TIP3    H158640   0.447   5.475   2.693  1.5728  0.3050 -3.0954
12383TIP3    H258641   0.584   5.483   2.755  0.0489  0.2347  0.5323
12384TIP3   OH258642   5.697   0.248  11.369 -0.1061 -0.3393 -0.4233
12384TIP3    H158643   5.710   0.310  11.441  2.0086 -0.0047 -1.0279
12384TIP3    H258644   5.666   0.169  11.412  2.6861 -0.7072  1.1819
12385TIP3   OH258645   4.491   5.780   4.784  0.0633 -0.1026  0.3191
12385TIP3    H158646   4.546   5.857   4.770 -0.7668  0.3011 -0.8981
12385TIP3    H258647   4.536   5.710   4.736  1.3128 -0.6488  2.1912
12386TIP3   OH258648   0.944   1.026   0.721  0.4487  0.3010 -0.8243
12386TIP3    H158649   0.886   1.088   0.676  0.2198  0.3296 -0.4919
12386TIP3    H258650   0.951   0.953   0.659 -2.1290 -0.9379  0.1614
12387TIP3   OH258651   5.309   6.682   0.502 -0.0800 -0.1775 -0.5222
12387TIP3    H158652   5.378   6.637   0.551  1.0158  0.2426 -1.6285
12387TIP3    H258653   5.229   6.665   0.552  1.1229  1.1158  2.0083
12388TIP3   OH258654   6.519   2.362   1.695 -0.3382 -0.5745  0.3645
12388TIP3    H158655   6.483   2.347   1.782  1.7556  1.7517  1.7396
12388TIP3    H258656   6.467   2.435   1.660  1.6618  1.5968  1.6408
12389TIP3   OH258657   2.491   3.304   4.803  0.1573  0.1917  0.7322
12389TIP3    H158658   2.528   3.291   4.715 -0.6767 -2.1707  0.6558
12389TIP3    H258659   2.566   3.301   4.861  0.4524 -1.1752  0.3113
12390TIP3   OH258660   4.598   3.348  13.889 -0.5122  0.2890  0.5468
12390TIP3    H158661   4.634   3.306  13.968  0.8941  1.7786  0.7240
12390TIP3    H258662   4.616   3.286  13.819 -0.7999 -0.5584  1.1951
12391TIP3   OH258663   3.491   6.508   4.136  0.0179  0.2811  0.4332
12391TIP3    H158664   3.444   6.558   4.204  0.4318  2.2135 -0.6235
12391TIP3    H258665   3.422   6.480   4.076 -0.0869  0.6940  0.3585
12392TIP3   OH258666   5.843   6.287  16.626 -0.1569  0.1956  0.5284
12392TIP3    H158667   5.835   6.199  16.591 -0.7638  0.7112 -0.6741
12392TIP3    H258668   5.855   6.343  16.549  1.0271  1.0839  1.3222
12393TIP3   OH258669   6.191   2.784   2.197 -0.2106  0.0254 -0.1833
12393TIP3    H158670   6.221   2.772   2.287  0.3097 -0.9909 -0.4836
12393TIP3    H258671   6.260   2.836   2.156 -0.1139 -0.1083 -0.1883
12394TIP3   OH258672   2.662   5.344  14.588 -0.3906  0.3750  0.0741
12394TIP3    H158673   2.638   5.370  14.677  0.7957 -0.2498  0.6065
12394TIP3    H258674   2.667   5.425  14.539  2.1834  1.1486  1.4162
12395TIP3   OH258675   3.612   2.106  15.400 -0.2211 -0.1219 -0.0923
12395TIP3    H158676   3.531   2.146  15.432  0.8079  1.8571  0.1350
12395TIP3    H258677   3.676   2.123  15.469  0.3497 -2.0342 -0.0801
12396TIP3   OH258678   2.444   3.277  15.420  0.0298 -0.6735  0.1026
12396TIP3    H158679   2.363   3.257  15.467  0.4783  0.2548  1.3266
12396TIP3    H258680   2.418   3.283  15.328 -1.5060  0.7129  0.5808
12397TIP3   OH258681   6.768   1.634  14.084 -0.5000  0.5868  0.1755
12397TIP3    H158682   6.725   1.694  14.023  1.0411  0.7871 -0.7507
12397TIP3    H258683   6.852   1.676  14.103 -0.3383 -0.2062  1.2938
12398TIP3   OH258684   6.005   6.542   0.475  0.0906 -0.2990 -0.4205
12398TIP3    H158685   6.025   6.589   0.394  2.0982 -1.1207 -0.4626
12398TIP3    H258686   5.920   6.501   0.458  0.2964 -0.1515 -1.9820
12399TIP3   OH258687   1.993   3.626   6.203  0.4466  0.0208 -0.4790
12399TIP3    H158688   2.008   3.666   6.289  0.9133  0.1070 -0.5954
12399TIP3    H258689   1.986   3.699   6.143  0.1180 -0.0404 -0.5170
12400TIP3   OH258690   0.330   2.035  16.071  0.0898  0.2392 -0.1042
12400TIP3    H158691   0.276   2.092  16.124 -1.1530 -0.7290 -0.2732
12400TIP3    H258692   0.270   1.998  16.006  1.2683  0.2926 -1.2757
12401TIP3   OH258693   3.115   3.751   0.368 -0.4240  0.3443 -0.1344
12401TIP3    H158694   3.043   3.699   0.334 -0.0226 -1.2307  1.2423
12401TIP3    H258695   3.150   3.698   0.440  0.7273  2.0489  0.6300
12402TIP3   OH258696   3.282   5.035  13.768 -0.7259  0.2554 -0.5310
12402TIP3    H158697   3.377   5.033  13.765 -0.7444 -0.1319 -2.0039
12402TIP3    H258698   3.260   5.116  13.813  0.2719 -0.8069  2.0143
12403TIP3   OH258699   0.642   6.215   5.997  0.2701 -0.0523  0.0622
12403TIP3    H158700   0.687   6.154   5.939 -1.0136 -0.4791 -0.5051
12403TIP3    H258701   0.656   6.180   6.085  0.4476 -0.5623 -0.1670
12404TIP3   OH258702   0.220   1.739  14.641 -0.3922 -0.0396 -0.1639
12404TIP3    H158703   0.231   1.650  14.607  1.9571  0.1486 -0.0618
12404TIP3    H258704   0.231   1.795  14.564 -1.7511  0.1902 -0.2067
12405TIP3   OH258705   2.745   4.369   0.854  0.0150  0.1832  0.5531
12405TIP3    H158706   2.689   4.300   0.817 -0.5976  1.2185 -0.4842
12405TIP3    H258707   2.805   4.321   0.912 -0.6741 -1.1764  0.1981
12406TIP3   OH258708   3.873   6.602   5.647 -0.2125 -0.2540  0.3603
12406TIP3    H158709   3.949   6.561   5.688 -1.2799 -1.6704  0.9983
12406TIP3    H258710   3.822   6.636   5.721 -0.7236 -0.2434  0.0062
12407TIP3   OH258711   6.705   3.116   5.889  0.5177 -0.6666  0.6153
12407TIP3    H158712   6.744   3.200   5.865 -0.4085  0.7584  3.5126
12407TIP3    H258713   6.779   3.059   5.909  1.1507 -0.3189 -0.6999
12408TIP3   OH258714   5.066   4.012  10.503  0.1987  0.1317 -0.2906
12408TIP3    H158715   4.971   4.011  10.492 -0.2554  0.8637  2.6771
12408TIP3    H258716   5.093   4.097  10.471  0.0139 -0.3884 -1.9091
12409TIP3   OH258717   5.988   1.954   5.010  0.6399 -0.2219  0.1120
12409TIP3    H158718   5.909   1.996   4.976 -1.1923 -0.6532  3.4530
12409TIP3    H258719   6.037   1.928   4.932 -1.1474  2.4913 -2.0854
12410TIP3   OH258720   2.649   0.440   6.207  0.1967  0.7874  0.5794
12410TIP3    H158721   2.712   0.512   6.193 -0.3617  1.3098  0.6964
12410TIP3    H258722   2.565   0.484   6.218 -0.2379  0.0817  0.1715
12411TIP3   OH258723   0.175   4.210  16.673 -0.7917  0.6455  0.3108
12411TIP3    H158724   0.166   4.144  16.741 -2.9001 -0.0789 -0.5846
12411TIP3    H258725   0.086   4.222  16.640 -0.1331  2.4476 -0.9490
12412TIP3   OH258726   4.020   3.232  16.185  0.4267 -0.0806 -0.0140
12412TIP3    H158727   4.062   3.289  16.249  1.3252  0.3543 -0.9510
12412TIP3    H258728   3.990   3.156  16.235 -0.7926  1.1814  1.2688
12413TIP3   OH258729   3.895   0.919   5.700 -0.4621 -0.8707  0.2193
12413TIP3    H158730   3.936   0.863   5.634 -1.1334  0.1532 -1.1044
12413TIP3    H258731   3.837   0.860   5.748 -0.0906 -1.6034 -0.2052
12414TIP3   OH258732   4.825   5.602  10.731  0.2003  0.4976  0.1724
12414TIP3    H158733   4.896   5.648  10.776  0.4655 -0.9720  1.3390
12414TIP3    H258734   4.801   5.531  10.790 -1.9111  0.6364 -0.4300
12415TIP3   OH258735   2.255   3.579  15.578 -0.5167  0.2111 -0.0604
12415TIP3    H158736   2.294   3.492  15.570  2.1243  1.0818  1.9805
12415TIP3    H258737   2.224   3.582  15.668  0.5060  1.7527  0.2669
12416TIP3   OH258738   2.557   6.600   2.150  0.1016  0.2060 -0.1956
12416TIP3    H158739   2.471   6.562   2.134  0.5817 -1.3674  0.7460
12416TIP3    H258740   2.584   6.566   2.236  1.9438  0.1034 -0.7583
12417TIP3   OH258741   6.568   6.061   2.748  0.4925 -0.1865  0.1521
12417TIP3    H158742   6.566   6.156   2.762  0.8453  0.1675 -1.7807
12417TIP3    H258743   6.660   6.041   2.731  0.8241 -1.3247  2.8019
12418TIP3   OH258744   2.309   5.463  14.428  0.5109  0.3613  0.2721
12418TIP3    H158745   2.400   5.476  14.455  1.0237 -1.4520 -0.4003
12418TIP3    H258746   2.315   5.437  14.336 -0.7231  0.6753  0.0863
12419TIP3   OH258747   4.405   2.016  11.273  0.7016 -0.2918 -0.1062
12419TIP3    H158748   4.351   1.989  11.199  0.6378  1.1426 -0.6216
12419TIP3    H258749   4.342   2.050  11.337  0.7726 -1.3472  0.5428
12420TIP3   OH258750   0.433   4.049  16.737 -0.4272  0.2726  0.1734
12420TIP3    H158751   0.375   4.046  16.813 -1.0962 -0.1407 -0.3381
12420TIP3    H258752   0.486   4.128  16.749  0.2592 -0.3741  1.6292
12421TIP3   OH258753   5.342   1.416   5.473 -0.6751  0.0826  0.0639
12421TIP3    H158754   5.262   1.467   5.478 -1.0826 -0.5517  0.0718
12421TIP3    H258755   5.313   1.325   5.462  0.0312 -0.1744  0.2387
12422TIP3   OH258756   2.892   0.512  13.673 -0.1175 -0.2244 -0.8177
12422TIP3    H158757   2.891   0.512  13.769 -0.9280  1.2719 -0.8053
12422TIP3    H258758   2.800   0.502  13.649  0.1595 -1.3670 -1.4716
12423TIP3   OH258759   0.204   3.356   4.395  0.0337  0.0940  0.5512
12423TIP3    H158760   0.250   3.279   4.362  0.2365  0.1027  0.8071
12423TIP3    H258761   0.117   3.324   4.419  0.1950 -0.1048  0.8739
12424TIP3   OH258762   4.231   3.716   5.734  1.1931  0.3616  0.1149
12424TIP3    H158763   4.146   3.703   5.776 -0.2881 -0.9595 -2.9931
12424TIP3    H258764   4.292   3.663   5.786 -0.3531 -0.6411  0.9864
12425TIP3   OH258765   5.235   1.904  13.457  0.3750  0.1990 -0.0833
12425TIP3    H158766   5.188   1.861  13.529  1.2239  1.6683  1.4071
12425TIP3    H258767   5.311   1.848  13.442 -0.4180 -0.7508 -0.6783
12426TIP3   OH258768   5.000   3.120   1.892  0.3840  0.4580 -0.2872
12426TIP3    H158769   4.937   3.051   1.912  0.6961  0.5977  1.2758
12426TIP3    H258770   4.965   3.162   1.813  0.5252 -1.8535 -1.6655
12427TIP3   OH258771   5.617   3.051  14.550 -0.1140 -0.0942  0.4020
12427TIP3    H158772   5.668   2.972  14.529 -0.7006 -0.5928  0.8067
12427TIP3    H258773   5.556   3.061  14.477  0.1572  0.1569  0.2082
12428TIP3   OH258774   0.000   0.458   1.557 -0.3540 -0.7843  0.6583
12428TIP3    H158775  -0.016   0.420   1.643 -0.4909 -1.5719  0.2895
12428TIP3    H258776  -0.019   0.551   1.568  0.7632 -0.6586  1.7792
12429TIP3   OH258777   1.473   5.110  15.281 -0.1373 -0.4684 -0.8004
12429TIP3    H158778   1.549   5.053  15.296 -0.8183 -1.7366 -1.9300
12429TIP3    H258779   1.501   5.196  15.312  1.7022 -0.9433 -1.0099
12430TIP3   OH258780   3.574   3.673  11.422  0.1562  0.2593  0.5724
12430TIP3    H158781   3.512   3.649  11.491 -0.4980  0.9861  0.2606
12430TIP3    H258782   3.605   3.761  11.447  0.6799  0.1119  0.4627
12431TIP3   OH258783   1.771   6.703   4.515  0.5551 -0.0158  0.2389
12431TIP3    H158784   1.866   6.690   4.517  0.5746  0.0885  0.0704
12431TIP3    H258785   1.760   6.797   4.499  0.4270 -0.1360 -0.4261
12432TIP3   OH258786   5.689   0.027   2.305 -0.5778 -1.0651 -0.0572
12432TIP3    H158787   5.622  -0.041   2.309 -0.4866 -1.4021 -2.8102
12432TIP3    H258788   5.768  -0.019   2.275 -0.6060  0.2513 -2.3543
12433TIP3   OH258789   1.986   0.539   3.136 -0.0565  0.0825 -0.1775
12433TIP3    H158790   1.934   0.464   3.166  0.9173 -0.1287  1.0485
12433TIP3    H258791   1.971   0.541   3.041 -1.2147 -0.7850 -0.0418
12434TIP3   OH258792   5.156   5.742   2.024 -0.1387  0.7092 -0.1850
12434TIP3    H158793   5.240   5.705   2.049 -0.3643  0.3367  0.0316
12434TIP3    H258794   5.173   5.788   1.941 -0.2079 -1.2978 -1.3750
12435TIP3   OH258795   6.528   1.646   6.159 -0.6896  0.0231 -0.0818
12435TIP3    H158796   6.573   1.634   6.075  0.2364  1.8450  0.1004
12435TIP3    H258797   6.438   1.668   6.135 -0.3946  0.6911 -0.6266
12436TIP3   OH258798   5.834   6.009  14.431  0.1806  0.5366  0.0692
12436TIP3    H158799   5.772   6.080  14.448  0.2229  0.8199 -0.9134
12436TIP3    H258800   5.862   6.022  14.340  1.8505  0.5400  0.5518
12437TIP3   OH258801   6.447   4.010   3.679  0.1008  0.5946  0.0426
12437TIP3    H158802   6.485   4.069   3.614  1.8990 -1.5425 -0.9441
12437TIP3    H258803   6.490   4.035   3.761  2.5007 -0.6538 -0.7513
12438TIP3   OH258804   5.661   2.454   1.413 -0.0695  0.1290  0.3456
12438TIP3    H158805   5.577   2.451   1.457 -0.6663 -0.5815 -0.7790
12438TIP3    H258806   5.695   2.542   1.429 -0.7428  0.2145  1.3117
12439TIP3   OH258807   1.674   4.677  15.570 -0.2120 -0.1672  0.0257
12439TIP3    H158808   1.750   4.638  15.527 -0.0645 -0.9969  1.0203
12439TIP3    H258809   1.609   4.686  15.499  0.8485  0.7378 -0.8688
12440TIP3   OH258810   3.212   6.074  15.435  0.3128  0.3498 -0.7820
12440TIP3    H158811   3.271   6.048  15.506 -0.2801 -0.5592 -0.6020
12440TIP3    H258812   3.268   6.077  15.357  1.0323  1.6509 -0.2436
12441TIP3   OH258813   6.327   2.430  15.390 -0.6097 -1.0071  0.3048
12441TIP3    H158814   6.340   2.489  15.316 -0.2531 -0.9293  0.4271
12441TIP3    H258815   6.273   2.360  15.355 -0.3300 -1.0423 -0.0715
12442TIP3   OH258816   4.570   5.287  15.411 -0.7501 -0.0911  0.8488
12442TIP3    H158817   4.657   5.250  15.400 -1.1401 -1.1864  1.2836
12442TIP3    H258818   4.515   5.212  15.434 -1.7424  0.6335  0.9063
12443TIP3   OH258819   1.201   5.754  11.942 -0.6461 -0.3718 -0.1997
12443TIP3    H158820   1.226   5.802  11.863 -0.0592 -0.1397  0.1285
12443TIP3    H258821   1.259   5.786  12.010  0.3295 -2.1313 -0.1451
12444TIP3   OH258822   5.652   1.825  11.158 -0.0117  0.0595  0.5360
12444TIP3    H158823   5.603   1.855  11.081 -2.2603  0.6755  2.1174
12444TIP3    H258824   5.700   1.748  11.126 -0.7647  0.3576 -1.5081
12445TIP3   OH258825   0.718   2.476   0.763  0.4223  0.3138 -0.7540
12445TIP3    H158826   0.780   2.412   0.799  1.0537  0.1086 -2.1447
12445TIP3    H258827   0.632   2.445   0.794  0.7774 -0.8247 -0.8399
12446TIP3   OH258828   4.049   6.334   6.027 -0.3244  0.1030  0.2663
12446TIP3    H158829   4.045   6.258   6.085  2.4824 -0.2886  0.0938
12446TIP3    H258830   4.083   6.404   6.082 -1.3305  0.8001  0.0132
12447TIP3   OH258831   5.992   6.677   0.222  0.1347  0.3345  0.5075
12447TIP3    H158832   5.913   6.700   0.174  1.4984  3.1973 -0.5576
12447TIP3    H258833   6.055   6.653   0.155  0.7092 -0.2480  1.2345
12448TIP3   OH258834   5.735   4.944   2.547 -0.1022  0.3666 -0.3837
12448TIP3    H158835   5.776   4.887   2.612  1.9972  1.0531 -1.0179
12448TIP3    H258836   5.641   4.924   2.553  0.4501 -2.5050 -0.0121
12449TIP3   OH258837   2.400   1.901   2.027  0.0042 -0.8299 -0.0824
12449TIP3    H158838   2.393   1.926   2.120  1.6411  1.5132 -0.4803
12449TIP3    H258839   2.486   1.860   2.020 -0.1100 -0.9882 -0.5470
12450TIP3   OH258840   4.730   4.352  13.136 -0.1580 -0.5469  0.4571
12450TIP3    H158841   4.772   4.267  13.149  2.0556  0.5141  0.7643
12450TIP3    H258842   4.731   4.393  13.223 -0.5305  0.0686  0.1816
12451TIP3   OH258843   0.266   4.939   3.253  0.1345  0.5014 -0.5841
12451TIP3    H158844   0.188   4.946   3.197 -0.5817  2.4472  0.5810
12451TIP3    H258845   0.234   4.898   3.333  0.5228  0.4026 -0.4785
12452TIP3   OH258846   3.672   5.390  14.596 -0.2522 -0.6158 -0.3210
12452TIP3    H158847   3.719   5.358  14.673 -0.0408  0.4297  0.0090
12452TIP3    H258848   3.585   5.352  14.603 -0.5975  0.3525  1.0573
12453TIP3   OH258849   4.974   4.538   6.634 -0.0379  0.0382  0.4184
12453TIP3    H158850   4.967   4.633   6.629 -2.1333 -0.0916 -0.3088
12453TIP3    H258851   5.005   4.512   6.547  0.7487  0.0501  0.6873
12454TIP3   OH258852   1.637   4.930   1.775 -0.4809  0.6350 -0.2148
12454TIP3    H158853   1.685   4.945   1.857 -1.9979 -0.6316  0.9729
12454TIP3    H258854   1.605   5.017   1.750  1.8591  1.4080 -0.7336
12455TIP3   OH258855   2.184   1.685  11.450  0.2732 -0.1663 -0.3243
12455TIP3    H158856   2.256   1.638  11.494  0.0747 -1.0500 -0.9191
12455TIP3    H258857   2.113   1.684  11.514 -1.2811 -4.5676 -1.7099
12456TIP3   OH258858   2.900   5.528   5.978 -0.4137  0.3593  0.4037
12456TIP3    H158859   2.826   5.482   6.017  0.3183 -1.2886 -0.0867
12456TIP3    H258860   2.940   5.576   6.051 -1.5247  0.7043  0.8062
12457TIP3   OH258861   0.228   3.826  12.572  0.4923  0.3125 -0.3971
12457TIP3    H158862   0.275   3.874  12.504  0.3807 -1.3056 -1.6793
12457TIP3    H258863   0.285   3.752  12.594  0.5463  0.8223  1.3392
12458TIP3   OH258864   5.742   1.151   1.045  0.0838  0.6221 -0.1961
12458TIP3    H158865   5.830   1.179   1.017 -0.0486  1.9474  0.6553
12458TIP3    H258866   5.749   1.055   1.049  0.8786  0.5377 -2.0983
12459TIP3   OH258867   5.405   6.362  11.132  0.0804  0.8419  0.3462
12459TIP3    H158868   5.394   6.418  11.055  0.8617  0.6438  0.0795
12459TIP3    H258869   5.475   6.405  11.182  0.3764  0.3560  0.3582
12460TIP3   OH258870   5.860   5.184  15.200  0.2124 -1.1041 -0.4946
12460TIP3    H158871   5.880   5.110  15.258 -0.5570 -1.8785 -1.1901
12460TIP3    H258872   5.822   5.143  15.123 -0.2645  0.0403 -0.8738
12461TIP3   OH258873   4.522   2.809  15.467  0.6483  0.1689  0.6377
12461TIP3    H158874   4.588   2.874  15.491 -0.7175  2.6528 -1.7806
12461TIP3    H258875   4.537   2.792  15.374 -0.7922 -0.8738  0.5605
12462TIP3   OH258876   4.388   4.980   2.788  1.1095  0.2547 -0.1967
12462TIP3    H158877   4.433   4.898   2.806  2.3882  0.8649 -0.4822
12462TIP3    H258878   4.316   4.983   2.852  0.9538 -1.1247 -0.2747
12463TIP3   OH258879   1.046   2.629  14.617  0.0553 -0.0306 -0.2761
12463TIP3    H158880   1.074   2.545  14.579  0.8615  0.6449 -1.2236
12463TIP3    H258881   0.987   2.604  14.688  0.9806 -1.4407  0.0592
12464TIP3   OH258882   6.527   2.945   2.210 -0.7275  0.1006  0.1666
12464TIP3    H158883   6.576   2.955   2.128 -0.5629  3.5578  0.5232
12464TIP3    H258884   6.439   2.975   2.188 -1.0173 -0.1486  0.9680
12465TIP3   OH258885   3.827   2.925   3.719 -0.5148  0.2434 -0.2813
12465TIP3    H158886   3.822   3.021   3.718  0.7940  0.3201 -0.8371
12465TIP3    H258887   3.769   2.898   3.648 -2.6280  0.4797  1.2320
12466TIP3   OH258888   3.558   4.573   5.888 -0.5773 -0.1612 -0.0217
12466TIP3    H158889   3.487   4.509   5.891 -1.5260  0.9041  1.3683
12466TIP3    H258890   3.638   4.521   5.902 -1.4240 -0.9331  2.4324
12467TIP3   OH258891   2.764   3.507   0.956 -0.1837 -0.0406 -0.0432
12467TIP3    H158892   2.734   3.511   0.865  2.6633  1.6967 -1.0275
12467TIP3    H258893   2.749   3.595   0.990 -1.6934 -0.8069  1.4092
12468TIP3   OH258894   0.622   6.623  14.771  0.1274 -0.2012  0.1969
12468TIP3    H158895   0.581   6.616  14.685  0.9946  0.9787 -0.3533
12468TIP3    H258896   0.621   6.717  14.790 -0.0722 -0.4485  1.4974
12469TIP3   OH258897   2.624   4.791   3.248  0.7394 -0.3662  0.0632
12469TIP3    H158898   2.627   4.755   3.337  2.0892 -0.1108  0.1334
12469TIP3    H258899   2.710   4.772   3.212  0.9236  1.3864 -0.4684
12470TIP3   OH258900   3.127   6.431  12.100  0.0563  0.3826  0.2930
12470TIP3    H158901   3.088   6.385  12.175  1.1485  0.4337  0.9122
12470TIP3    H258902   3.133   6.522  12.129 -2.6000  1.0926 -1.1322
12471TIP3   OH258903   3.121   3.428   0.241  0.1756 -0.5220  0.6630
12471TIP3    H158904   3.039   3.472   0.266  0.1715 -0.1623  0.0266
12471TIP3    H258905   3.138   3.368   0.314 -0.4776 -0.3627  0.9617
12472TIP3   OH258906   5.213   5.487   4.711 -0.0687 -0.1818  0.2464
12472TIP3    H158907   5.166   5.567   4.690  0.0540 -0.2287 -0.2089
12472TIP3    H258908   5.305   5.506   4.691  0.1019 -0.1162  1.0569
12473TIP3   OH258909   3.510   5.245   1.737 -0.2390  0.3404  0.4807
12473TIP3    H158910   3.560   5.316   1.777 -0.3838 -0.9081  3.1002
12473TIP3    H258911   3.544   5.166   1.779 -1.2851 -0.9908 -1.0652
12474TIP3   OH258912   5.668   1.150   5.518 -0.4973 -0.3152 -0.6043
12474TIP3    H158913   5.578   1.153   5.488 -0.8316  0.7247  0.4169
12474TIP3    H258914   5.664   1.108   5.603 -0.2984  1.2963  0.2509
12475TIP3   OH258915   5.192   2.071  16.460 -0.3336 -0.4029 -0.3177
12475TIP3    H158916   5.278   2.085  16.500 -0.8475 -0.2069  0.7418
12475TIP3    H258917   5.130   2.079  16.532 -1.1857 -1.3852 -0.9087
12476TIP3   OH258918   4.197   4.518   4.323  0.1096  0.0900 -0.5497
12476TIP3    H158919   4.145   4.573   4.264  0.7981  1.2145 -0.1363
12476TIP3    H258920   4.260   4.578   4.363  0.6339 -0.9337  0.2138
12477TIP3   OH258921   0.536   1.911   2.918 -0.4430  0.3825 -0.4041
12477TIP3    H158922   0.597   1.855   2.870 -1.2831 -0.3112 -0.6933
12477TIP3    H258923   0.454   1.862   2.919 -0.8368  1.0312  0.4974
12478TIP3   OH258924   1.073   5.989   3.899 -0.4235  0.6275 -1.1078
12478TIP3    H158925   1.106   5.907   3.861  0.6438 -0.1282  1.2581
12478TIP3    H258926   0.986   5.967   3.931 -0.2646  0.4819 -0.7643
12479TIP3   OH258927   1.177   1.737  17.461  0.5630 -0.1731 -0.5026
12479TIP3    H158928   1.236   1.734  17.386  0.7027  2.8906 -0.6352
12479TIP3    H258929   1.233   1.719  17.536  0.7654 -1.5273 -0.9476
12480TIP3   OH258930   4.238   5.753  16.480 -0.5219 -0.3373  0.5248
12480TIP3    H158931   4.158   5.702  16.464 -0.1582 -0.8117  0.1505
12480TIP3    H258932   4.210   5.844  16.478 -0.8687 -0.4560 -0.7706
12481TIP3   OH258933   3.995   5.525   5.975  0.4374 -0.3463 -0.3654
12481TIP3    H158934   4.070   5.497   6.027 -0.1410  0.3417  0.9018
12481TIP3    H258935   3.920   5.480   6.015  0.1286 -0.7814 -1.4104
12482TIP3   OH258936   1.632   3.863  13.810 -0.3251  0.4293  0.6904
12482TIP3    H158937   1.645   3.951  13.772 -0.5810  1.6374  3.2042
12482TIP3    H258938   1.544   3.866  13.846 -0.8294 -1.3649 -0.3088
12483TIP3   OH258939   1.201   6.383  10.661  0.0633  0.0083 -0.3971
12483TIP3    H158940   1.280   6.331  10.676 -0.1943 -0.9966 -2.1687
12483TIP3    H258941   1.145   6.363  10.736  0.9485 -0.3390  0.1882
12484TIP3   OH258942   4.301   0.095   6.698  1.0819 -0.6427 -0.9028
12484TIP3    H158943   4.353   0.143   6.762 -0.0150 -0.0085 -0.4567
12484TIP3    H258944   4.251   0.163   6.653  0.0963 -1.2981 -0.8108
12485TIP3   OH258945   4.945   6.200  14.356  0.2721  0.0210  0.2085
12485TIP3    H158946   4.854   6.185  14.332  0.1750 -1.5530  1.3705
12485TIP3    H258947   4.963   6.134  14.424  2.2774  0.2605 -0.0275
12486TIP3   OH258948   4.629   0.239   0.361 -0.2263 -0.2677  0.0142
12486TIP3    H158949   4.637   0.295   0.283  0.0077  0.5785  0.6377
12486TIP3    H258950   4.539   0.207   0.357 -0.7244  1.0465  0.2266
12487TIP3   OH258951   5.998   3.041   3.864  0.1145  0.0142  0.3757
12487TIP3    H158952   6.068   3.081   3.812  0.7998  1.3437  2.2125
12487TIP3    H258953   5.926   3.028   3.802  1.3205  0.3384 -1.1572
12488TIP3   OH258954   6.152   0.496  16.136 -0.1495 -0.7507 -0.1466
12488TIP3    H158955   6.061   0.525  16.140  0.0814 -0.0737  0.4961
12488TIP3    H258956   6.160   0.435  16.209  0.7055  1.6451  1.9274
12489TIP3   OH258957   0.064   0.994  11.945  0.0400  0.4764 -0.1053
12489TIP3    H158958   0.057   0.996  11.849 -0.1347  1.4123 -0.0838
12489TIP3    H258959  -0.009   0.940  11.974 -0.7279  1.3142 -0.4368
12490TIP3   OH258960   2.204   4.854  12.299 -0.0519 -0.1585 -0.2446
12490TIP3    H158961   2.161   4.780  12.342  2.1395 -0.7110  1.1339
12490TIP3    H258962   2.181   4.930  12.354 -0.7538 -0.1275 -0.5745
12491TIP3   OH258963   2.065   4.990  16.779 -0.0684 -0.5668  0.2668
12491TIP3    H158964   2.135   4.941  16.735 -0.3117 -0.3304 -0.3889
12491TIP3    H258965   1.986   4.967  16.730  0.0555  1.9009 -1.2606
12492TIP3   OH258966   6.125   2.570  13.233  0.0003 -0.2221  0.6342
12492TIP3    H158967   6.148   2.529  13.316  0.7071 -1.8258 -0.2993
12492TIP3    H258968   6.206   2.612  13.203 -0.2785  0.4421  0.7914
12493TIP3   OH258969   3.590   6.163   4.944 -0.3936 -0.4400  0.0610
12493TIP3    H158970   3.620   6.195   5.029 -1.9125 -0.1456  0.5278
12493TIP3    H258971   3.567   6.071   4.960 -0.7426 -0.3665  0.0085
12494TIP3   OH258972   6.622   1.906  14.891 -0.0165 -0.6748  0.6877
12494TIP3    H158973   6.585   1.880  14.806  1.8171 -1.6592  0.1414
12494TIP3    H258974   6.551   1.890  14.953 -0.3643 -3.1798 -0.2120
12495TIP3   OH258975   3.667   3.707  15.812  0.0346 -0.4002  0.4020
12495TIP3    H158976   3.713   3.625  15.826  0.0954 -0.2645  1.0692
12495TIP3    H258977   3.656   3.743  15.900 -0.6850 -0.0719  0.1863
12496TIP3   OH258978   0.808   3.718  14.950  0.1532  0.0383  0.0777
12496TIP3    H158979   0.789   3.737  14.858  3.4211 -1.8533 -1.1863
12496TIP3    H258980   0.743   3.652  14.975  0.0790 -0.4792 -1.3795
12497TIP3   OH258981   2.175   2.964  16.636  0.3308  0.0674  0.4096
12497TIP3    H158982   2.166   2.941  16.544 -0.0063 -1.2534  0.7394
12497TIP3    H258983   2.087   2.992  16.663  0.7697  2.0099 -0.0246
12498TIP3   OH258984   6.748   4.257  14.172 -0.3246  0.0618  0.5868
12498TIP3    H158985   6.804   4.300  14.108 -1.2740  1.3597  0.6035
12498TIP3    H258986   6.806   4.241  14.247  0.5034 -0.4551 -0.1441
12499TIP3   OH258987   5.312   0.681  11.509 -0.2502 -0.1603  0.4072
12499TIP3    H158988   5.330   0.658  11.418  2.4382 -0.4030  0.8854
12499TIP3    H258989   5.303   0.596  11.553  2.0745 -0.2289  0.8959
12500TIP3   OH258990   3.301   6.207   2.374  0.8510 -0.4219  0.3917
12500TIP3    H158991   3.318   6.296   2.342  1.3063 -0.9301 -0.8408
12500TIP3    H258992   3.321   6.211   2.467  1.8930  0.5196  0.1490
12501TIP3   OH258993   4.955   1.448  14.755  0.2595  0.3669 -0.2175
12501TIP3    H158994   4.958   1.376  14.692 -1.1511 -0.4287  0.5634
12501TIP3    H258995   5.030   1.432  14.813 -0.8294 -1.3985  0.8339
12502TIP3   OH258996   6.512   4.618   5.700 -0.2253 -0.3078 -0.2505
12502TIP3    H158997   6.573   4.679   5.742 -1.1953  0.1696  0.5095
12502TIP3    H258998   6.437   4.672   5.676  0.7524 -0.2903 -3.8057
12503TIP3   OH258999   4.851   6.438   3.803 -0.0011 -0.2949  0.1170
12503TIP3    H159000   4.904   6.483   3.868  0.7914 -0.1180 -0.6338
12503TIP3    H259001   4.908   6.370   3.768  0.4187  1.0628 -2.0226
12504TIP3   OH259002   4.630   5.678   5.930 -0.4468 -0.1165  0.2234
12504TIP3    H159003   4.615   5.769   5.952  1.9794 -0.1134  2.3140
12504TIP3    H259004   4.577   5.628   5.992 -2.2750 -0.2008 -1.3316
12505TIP3   OH259005   0.548   3.889  11.113 -0.1885 -0.3197  0.3255
12505TIP3    H159006   0.554   3.971  11.066 -1.1202 -0.4508 -0.0423
12505TIP3    H259007   0.539   3.915  11.205  1.6605 -0.0686  0.4745
12506TIP3   OH259008   5.335   1.143  14.468 -0.5594  0.0587  0.5171
12506TIP3    H159009   5.264   1.081  14.482  0.3164 -1.1317 -0.1372
12506TIP3    H259010   5.398   1.096  14.414  1.9859  0.1172  3.1699
12507TIP3   OH259011   6.776   1.710   2.970  0.4777 -0.8016 -0.2740
12507TIP3    H159012   6.785   1.757   2.887  2.5051 -1.4103 -0.4716
12507TIP3    H259013   6.767   1.618   2.944  0.7078 -0.9548  0.1725
12508TIP3   OH259014   4.481   0.175   1.318  0.5582 -0.1457  0.5487
12508TIP3    H159015   4.546   0.230   1.362 -0.6762  1.7406  0.1372
12508TIP3    H259016   4.419   0.238   1.279 -0.0379 -1.8099 -1.3328
12509TIP3   OH259017   5.544   3.177   0.052 -0.3327  0.0803 -0.4546
12509TIP3    H159018   5.467   3.221   0.087 -0.6010 -0.3137 -0.5440
12509TIP3    H259019   5.550   3.206  -0.038 -0.9760 -0.6792 -0.7515
12510TIP3   OH259020   6.242   2.406   6.338  0.2109 -0.2768 -0.0519
12510TIP3    H159021   6.281   2.375   6.420 -0.3092  2.9140  1.5577
12510TIP3    H259022   6.148   2.413   6.357  0.2318  1.5894 -0.4995
12511TIP3   OH259023   1.226   0.204   1.248  0.2575 -0.9489 -0.2418
12511TIP3    H159024   1.145   0.228   1.293 -1.1274 -1.2965 -2.3735
12511TIP3    H259025   1.287   0.182   1.318 -0.7334  1.4790  1.5676
12512TIP3   OH259026   5.661   3.654  14.995 -0.6939  0.3558 -0.7788
12512TIP3    H159027   5.723   3.584  15.013 -0.0540  0.2353 -3.1497
12512TIP3    H259028   5.578   3.608  14.977 -1.1548  0.4416  0.9502
12513TIP3   OH259029   4.985   6.086   0.962 -0.0217  0.2041  0.0883
12513TIP3    H159030   4.899   6.048   0.978 -0.1459  0.3004 -0.3662
12513TIP3    H259031   4.977   6.133   0.880  0.3673  0.5155  0.2238
12514TIP3   OH259032   0.331   6.675  12.798 -0.3297 -0.8053  0.9428
12514TIP3    H159033   0.267   6.727  12.846 -0.5451 -0.0101 -0.1620
12514TIP3    H259034   0.283   6.597  12.770 -0.6332 -0.5495  0.7358
12515TIP3   OH259035   0.570   2.224  16.250 -0.0087  0.0505  0.1920
12515TIP3    H159036   0.489   2.209  16.202 -0.3945 -0.1445  0.8810
12515TIP3    H259037   0.627   2.270  16.188 -1.0502  1.2130  0.0487
12516TIP3   OH259038   6.202   3.483  17.188 -0.0774  0.7004 -0.4519
12516TIP3    H159039   6.161   3.566  17.163 -0.3666  0.3654 -1.1333
12516TIP3    H259040   6.155   3.417  17.136 -2.0375 -0.2967  2.3694
12517TIP3   OH259041   1.146   0.295   5.507  0.0370 -0.1670  0.3449
12517TIP3    H159042   1.165   0.336   5.592 -1.8054  0.6214  0.4194
12517TIP3    H259043   1.189   0.351   5.443  0.8762 -0.3877  0.7061
12518TIP3   OH259044   0.208   0.448   1.293  0.2446 -0.3664 -0.2748
12518TIP3    H159045   0.143   0.443   1.363 -0.9237  1.4188 -1.1609
12518TIP3    H259046   0.290   0.468   1.338 -0.4977  0.8314  0.6175
12519TIP3   OH259047   0.417   1.977  11.814 -0.0830  0.0867  0.0451
12519TIP3    H159048   0.399   1.934  11.897 -0.7415 -0.5501 -0.4128
12519TIP3    H259049   0.494   2.031  11.830 -0.7910  0.7481  1.3387
12520TIP3   OH259050   3.729   2.006  16.541  0.0834 -0.1269  0.5560
12520TIP3    H159051   3.694   1.988  16.628  0.7904  0.0556  0.8819
12520TIP3    H259052   3.681   2.084  16.512 -0.4604 -0.4425  0.5980
12521TIP3   OH259053   3.268   5.858   3.954  0.0614  0.3746 -0.6308
12521TIP3    H159054   3.329   5.805   3.902 -1.4248 -1.3853 -0.6843
12521TIP3    H259055   3.312   5.942   3.963  2.2127 -0.6041 -1.1864
12522TIP3   OH259056   6.518   3.214  15.537 -0.1274  0.2870  0.6682
12522TIP3    H159057   6.476   3.169  15.610 -2.1548  0.5044 -0.3108
12522TIP3    H259058   6.459   3.202  15.463  1.3853  0.9208 -0.7163
12523TIP3   OH259059   1.095   5.088  17.461 -0.0990 -0.7788  0.2400
12523TIP3    H159060   1.062   5.153  17.523  0.8906 -0.9724  0.9990
12523TIP3    H259061   1.189   5.106  17.455  0.2229 -2.2029  0.5783
12524TIP3   OH259062   0.386   3.154   0.011  0.4557 -0.2386  0.1664
12524TIP3    H159063   0.412   3.147  -0.081  0.2133  0.6950  0.0150
12524TIP3    H259064   0.321   3.224   0.011 -2.2201 -2.5401  0.4844
12525TIP3   OH259065   5.059   5.667   3.848 -0.4360  0.6444 -0.4230
12525TIP3    H159066   4.964   5.660   3.842 -0.3434 -0.2921 -1.0102
12525TIP3    H259067   5.075   5.759   3.867 -1.5368  0.4176  1.8993
12526TIP3   OH259068   4.767   1.407   0.186 -0.4716  0.4913 -0.2913
12526TIP3    H159069   4.785   1.408   0.280 -1.6962  1.0915 -0.0412
12526TIP3    H259070   4.798   1.492   0.155  2.1973 -0.6066 -0.9418
12527TIP3   OH259071   6.081   5.252  16.004  0.7220  0.2244 -0.5220
12527TIP3    H159072   6.056   5.216  15.918 -1.1613 -0.7243  0.3578
12527TIP3    H259073   6.104   5.343  15.986 -1.1995  0.5144 -1.8325
12528TIP3   OH259074   4.973   1.615   0.109 -0.3437  0.2849 -0.6255
12528TIP3    H159075   4.964   1.710   0.114 -2.0578  0.1297  0.1483
12528TIP3    H259076   5.012   1.591   0.193 -0.3366  0.2703 -0.6332
12529TIP3   OH259077   1.637   0.711   4.846 -0.0647 -0.7368 -0.0841
12529TIP3    H159078   1.559   0.765   4.859  0.2185 -0.2174 -0.5068
12529TIP3    H259079   1.691   0.728   4.923 -0.3273 -1.0372  0.1709
12530TIP3   OH259080   0.015   2.068  16.267  0.2557  0.2311 -0.0615
12530TIP3    H159081  -0.050   2.033  16.206  0.8260  0.8318 -1.0529
12530TIP3    H259082   0.048   1.991  16.314  0.8614 -0.4806 -1.5795
12531TIP3   OH259083   0.944   3.365   3.210  0.1075 -0.3179  0.1456
12531TIP3    H159084   0.909   3.436   3.264 -0.9487 -0.3810 -0.4267
12531TIP3    H259085   0.933   3.287   3.263  0.0352 -0.2335  0.2572
12532TIP3   OH259086   2.562   6.476   2.698 -0.3955 -0.2430  0.2381
12532TIP3    H159087   2.625   6.409   2.726  0.4948 -0.1239 -1.3582
12532TIP3    H259088   2.491   6.426   2.658  0.0055 -0.2766 -0.4487
12533TIP3   OH259089   2.632   4.441  15.599  0.9336  0.6767  0.7301
12533TIP3    H159090   2.569   4.486  15.542  0.2778 -0.6079  0.4069
12533TIP3    H259091   2.615   4.478  15.686 -2.1013 -1.3687  1.1742
12534TIP3   OH259092   2.842   5.283  13.384  0.3929 -0.4116 -0.2797
12534TIP3    H159093   2.912   5.347  13.396 -0.0827 -0.1143  1.1242
12534TIP3    H259094   2.848   5.228  13.463  0.1716 -1.4860 -0.9971
12535TIP3   OH259095   2.686   3.293   4.983 -0.3051  0.0443 -0.4579
12535TIP3    H159096   2.691   3.201   4.958  0.1957 -0.3856  1.1377
12535TIP3    H259097   2.750   3.303   5.054 -2.4917  0.8799  1.5319
12536TIP3   OH259098   2.718   4.033  12.563 -0.1814  0.1929  0.0804
12536TIP3    H159099   2.749   4.123  12.571  1.4607 -0.1419 -1.9037
12536TIP3    H259100   2.629   4.042  12.530 -0.7018  1.0727  1.5763
12537TIP3   OH259101   3.885   3.529  12.400 -0.0325 -0.0721 -0.0581
12537TIP3    H159102   3.980   3.533  12.405 -0.0575  1.6186 -0.3752
12537TIP3    H259103   3.861   3.593  12.333 -1.2464 -2.5567 -2.1672
12538TIP3   OH259104   3.038   1.246  13.574 -0.2483  0.4195  0.2232
12538TIP3    H159105   3.119   1.235  13.624 -0.9074  1.0363  1.4952
12538TIP3    H259106   3.018   1.158  13.542  1.4534  0.4304 -1.0254
12539TIP3   OH259107   2.858   0.801   5.781 -0.1716  0.0839 -0.5220
12539TIP3    H159108   2.838   0.892   5.759  0.0559  0.2448 -0.0867
12539TIP3    H259109   2.888   0.762   5.699  0.0824  0.5036 -0.6345
12540TIP3   OH259110   0.447   3.220  15.876  0.5989 -0.1953  0.6701
12540TIP3    H159111   0.524   3.214  15.820 -0.3421  1.4760 -0.9476
12540TIP3    H259112   0.473   3.278  15.947  1.6269 -1.8668  1.7294
12541TIP3   OH259113   0.325   2.208   0.855 -0.3410 -0.4722  0.8904
12541TIP3    H159114   0.388   2.246   0.916 -0.2719 -1.1982  1.2769
12541TIP3    H259115   0.240   2.236   0.887 -0.2171  0.7985  0.1716
12542TIP3   OH259116   1.518   3.110  14.006  0.4506 -0.3347 -0.1271
12542TIP3    H159117   1.424   3.100  14.018  0.5252 -2.5181 -0.9522
12542TIP3    H259118   1.545   3.167  14.077 -1.2782 -0.8364  0.9903
12543TIP3   OH259119   5.073   4.796   3.136  0.0913  0.0961 -0.1727
12543TIP3    H159120   5.042   4.732   3.072  4.5205 -0.6686 -1.8711
12543TIP3    H259121   5.053   4.881   3.096 -0.6639 -0.2999 -0.6606
12544TIP3   OH259122   6.495   6.615  16.651  0.3198 -0.6186  0.6228
12544TIP3    H159123   6.486   6.661  16.734  1.6547 -2.2760  1.7448
12544TIP3    H259124   6.529   6.529  16.675  0.7830 -1.1258 -1.6582
12545TIP3   OH259125   3.457   3.304   4.753  0.0025 -0.7082 -0.7419
12545TIP3    H159126   3.550   3.290   4.740  0.5177  2.2754 -1.0943
12545TIP3    H259127   3.445   3.305   4.848  0.9554  1.6155 -0.5643
12546TIP3   OH259128   5.873   4.407   0.482  0.1779 -0.3066 -0.8747
12546TIP3    H159129   5.813   4.478   0.505  1.1574  0.4665 -0.6502
12546TIP3    H259130   5.898   4.425   0.392  0.6870 -0.1781 -0.7075
12547TIP3   OH259131   6.708   2.892   5.497 -0.0862  0.0135  0.3858
12547TIP3    H159132   6.643   2.824   5.480 -0.3865  0.6417 -1.0569
12547TIP3    H259133   6.759   2.857   5.571 -2.0391 -0.4730  1.5849
12548TIP3   OH259134   0.805   5.293   0.117  0.4269  0.1965 -0.0810
12548TIP3    H159135   0.794   5.199   0.107  0.3047  0.2775 -0.7458
12548TIP3    H259136   0.737   5.332   0.063  1.4415  0.6746 -1.0656
12549TIP3   OH259137   2.534   3.669  11.309  0.4213  0.8734 -0.0912
12549TIP3    H159138   2.554   3.762  11.322 -0.1496  0.9875 -0.0145
12549TIP3    H259139   2.538   3.631  11.396 -0.3917  1.0352  0.0168
12550TIP3   OH259140   1.245   0.999  15.542  0.2221 -0.4680 -0.0668
12550TIP3    H159141   1.167   0.951  15.569  1.7275 -1.9321  1.9689
12550TIP3    H259142   1.280   0.948  15.469  0.0517 -0.6191 -0.0430
12551TIP3   OH259143   3.155   3.634   5.622  0.4310  0.0516  0.4190
12551TIP3    H159144   3.243   3.598   5.614  0.4115  0.2341 -0.7735
12551TIP3    H259145   3.113   3.613   5.539 -0.4140  0.5901  0.7018
12552TIP3   OH259146   4.671   1.213   5.089  0.1606  0.3925  0.1965
12552TIP3    H159147   4.641   1.304   5.093  1.3793  0.8052  0.2511
12552TIP3    H259148   4.637   1.180   5.006 -1.2944  0.5181  0.7163
12553TIP3   OH259149   2.778   0.521  12.999 -0.7008 -0.1141 -0.3323
12553TIP3    H159150   2.780   0.609  13.037  2.3634 -0.4221  0.5269
12553TIP3    H259151   2.871   0.500  12.985 -1.2998 -3.4233 -0.0176
12554TIP3   OH259152   0.062   4.319   3.232  0.5764  0.7001 -0.2786
12554TIP3    H159153   0.027   4.331   3.321  0.9151  2.7117 -0.3632
12554TIP3    H259154   0.156   4.312   3.245  0.5209 -0.4262 -0.3930
12555TIP3   OH259155   1.103   4.210  14.448 -0.5280 -0.1681  0.0144
12555TIP3    H159156   1.125   4.126  14.488 -0.3226  0.1824  0.6581
12555TIP3    H259157   1.186   4.256  14.442 -0.4643 -0.4347 -1.3687
12556TIP3   OH259158   3.992   5.255   0.466 -0.8580 -0.2415  0.0103
12556TIP3    H159159   4.021   5.295   0.384 -0.6857 -0.5559 -0.0860
12556TIP3    H259160   3.916   5.306   0.493  0.2294  1.0727  0.6667
12557TIP3   OH259161   0.802   6.260  13.007  0.3163 -0.0036  0.3556
12557TIP3    H159162   0.737   6.321  12.973 -0.3037 -0.6153  0.4066
12557TIP3    H259163   0.829   6.297  13.091 -1.6823 -0.8821  1.4400
12558TIP3   OH259164   2.063   4.412   5.533 -0.1976  0.0611  0.6460
12558TIP3    H159165   2.069   4.501   5.496  0.6784  0.3603  1.4494
12558TIP3    H259166   2.098   4.356   5.464  0.0025  0.4374  0.4341
12559TIP3   OH259167   3.388   0.784   2.325  0.1821  0.5048 -0.3554
12559TIP3    H159168   3.458   0.719   2.325  0.0771  0.3394  1.6092
12559TIP3    H259169   3.328   0.754   2.257  0.9755 -0.5112 -0.6345
12560TIP3   OH259170   3.504   5.926  13.386 -0.4261 -0.1673 -0.1269
12560TIP3    H159171   3.539   5.857  13.329 -0.4383 -0.7017  0.5004
12560TIP3    H259172   3.548   5.911  13.470 -0.5496  0.4990  0.0565
12561TIP3   OH259173   2.403   1.232   2.613 -0.3180 -0.2453 -0.0151
12561TIP3    H159174   2.420   1.198   2.526 -1.6881  0.5935 -0.6464
12561TIP3    H259175   2.309   1.218   2.627 -0.2056  0.0357  1.1333
12562TIP3   OH259176   4.304   6.339  14.315  0.0701  0.5097  0.1308
12562TIP3    H159177   4.372   6.370  14.375 -0.2634  0.8680  0.3267
12562TIP3    H259178   4.253   6.278  14.368 -0.0035  0.5474  0.1031
12563TIP3   OH259179   5.741   5.211   2.727 -0.1734 -0.0918 -0.1801
12563TIP3    H159180   5.687   5.205   2.648 -1.5609  0.2339  0.7060
12563TIP3    H259181   5.826   5.175   2.701 -0.0262  1.6274 -2.2958
12564TIP3   OH259182   4.517   4.527  14.667  0.1429 -0.1819  0.1291
12564TIP3    H159183   4.456   4.535  14.594 -0.6680 -0.7496  0.7263
12564TIP3    H259184   4.534   4.617  14.694 -1.9265 -0.0472  1.1512
12565TIP3   OH259185   1.565   3.257  11.337  0.1473 -0.5406  0.7996
12565TIP3    H159186   1.513   3.319  11.388  0.1828 -0.7249  1.0624
12565TIP3    H259187   1.507   3.181  11.327  0.1809 -0.5472  0.6599
12566TIP3   OH259188   6.171   1.271  16.789  0.2243  0.2786 -0.5988
12566TIP3    H159189   6.154   1.332  16.862  0.0175  1.4361 -1.5856
12566TIP3    H259190   6.095   1.280  16.732  0.4550 -0.5086 -1.0341
12567TIP3   OH259191   4.378   0.183  11.111  0.7170  0.1918  0.4983
12567TIP3    H159192   4.464   0.170  11.072  1.2676 -0.9664  2.0275
12567TIP3    H259193   4.349   0.268  11.078  1.7317 -0.1195 -1.3129
12568TIP3   OH259194   6.265   1.615   6.145  0.0316  0.2550  0.2183
12568TIP3    H159195   6.188   1.634   6.198 -0.4810  0.7910 -0.6971
12568TIP3    H259196   6.235   1.621   6.054  1.3751  1.5825 -0.1933
12569TIP3   OH259197   5.508   6.525   1.504  0.3087  0.2880  0.7507
12569TIP3    H159198   5.502   6.471   1.583  0.8162 -0.4028  0.3207
12569TIP3    H259199   5.565   6.597   1.529  0.1615  0.2754  1.1296
12570TIP3   OH259200   2.705   6.358   5.968  0.1163  0.3109  0.0188
12570TIP3    H159201   2.665   6.285   6.015  0.1745 -0.5551 -1.2099
12570TIP3    H259202   2.774   6.318   5.916 -0.0655  1.1914 -0.9392
12571TIP3   OH259203   0.409   5.381   3.235 -0.3203  0.4189  0.1180
12571TIP3    H159204   0.489   5.331   3.251 -0.4940  0.3956  1.0012
12571TIP3    H259205   0.362   5.330   3.169  0.1700  0.1725 -0.0456
12572TIP3   OH259206   6.107   2.391  12.993  0.5970  0.1841  0.6741
12572TIP3    H159207   6.134   2.438  13.072 -1.3088  0.8750  0.9761
12572TIP3    H259208   6.011   2.393  12.996  0.4843 -0.1687 -1.4368
12573TIP3   OH259209   0.475   3.783  16.655  0.5505 -0.0879 -0.0442
12573TIP3    H159210   0.404   3.769  16.592  1.0792 -2.6450 -0.1967
12573TIP3    H259211   0.469   3.876  16.678 -2.9124 -0.2147  0.0802
12574TIP3   OH259212   5.638   1.156  16.322  0.2446  0.3196  0.0602
12574TIP3    H159213   5.606   1.165  16.411  0.0787 -0.8634  0.1343
12574TIP3    H259214   5.578   1.209  16.269 -1.0330 -0.7846  0.3677
12575TIP3   OH259215   5.152   0.609   4.882 -0.1446 -0.0329 -0.5799
12575TIP3    H159216   5.213   0.568   4.821 -1.7196 -1.0688 -1.5223
12575TIP3    H259217   5.067   0.602   4.840 -1.1119  0.3052  1.2040
12576TIP3   OH259218   1.408   1.340  13.482  0.5302 -0.0670  0.1424
12576TIP3    H159219   1.417   1.261  13.429  2.1329  0.9642 -1.2217
12576TIP3    H259220   1.380   1.407  13.420 -0.7079  0.5120  1.2566
12577TIP3   OH259221   2.904   4.845  12.033 -0.2547 -0.7533 -0.6714
12577TIP3    H159222   2.852   4.774  11.994 -0.5375 -0.7214 -0.3575
12577TIP3    H259223   2.896   4.917  11.971  0.7257 -1.2561 -1.4233
12578TIP3   OH259224   4.269   2.207  10.822  1.2185 -0.3047 -0.6018
12578TIP3    H159225   4.231   2.278  10.873 -0.7863 -1.3232 -0.5997
12578TIP3    H259226   4.361   2.231  10.813  0.9850  1.3690  0.9351
12579TIP3   OH259227   0.142   2.521  15.787 -0.6891  0.4249  0.1834
12579TIP3    H159228   0.200   2.531  15.862  1.4801 -0.1292 -1.3417
12579TIP3    H259229   0.084   2.449  15.812  0.6886 -0.4739  0.9176
12580TIP3   OH259230   2.249   0.732  17.139 -0.1230  0.2229 -0.3328
12580TIP3    H159231   2.229   0.640  17.121 -1.1018  0.7084 -1.9488
12580TIP3    H259232   2.244   0.739  17.234 -0.3371 -1.3259 -0.1896
12581TIP3   OH259233   4.963   0.818  10.597 -0.0277 -0.1988  0.2454
12581TIP3    H159234   5.014   0.803  10.677 -0.5567 -0.5977  0.5160
12581TIP3    H259235   4.944   0.731  10.564  1.1791 -0.0250 -0.9756
12582TIP3   OH259236   4.052   0.381  13.418 -0.5792  0.5148  0.0409
12582TIP3    H159237   4.022   0.341  13.499  0.3125 -0.3142 -0.0338
12582TIP3    H259238   4.137   0.420  13.440 -0.0781 -0.1862 -0.6249
12583TIP3   OH259239   4.681   0.468   4.537 -0.4669  0.6806 -0.4158
12583TIP3    H159240   4.729   0.506   4.463 -1.1524 -0.9212 -1.7630
12583TIP3    H259241   4.640   0.390   4.500 -0.5142 -0.3970  1.7957
12584TIP3   OH259242   4.813   2.891  12.056  0.2306 -0.1079 -0.1071
12584TIP3    H159243   4.858   2.809  12.079  2.2061  0.9112 -0.1233
12584TIP3    H259244   4.874   2.936  11.997 -1.2223  0.9830 -0.8392
12585TIP3   OH259245   6.267   3.650   0.092 -0.0991 -0.2588 -0.3857
12585TIP3    H159246   6.219   3.567   0.086 -1.0434  0.0581  1.9492
12585TIP3    H259247   6.354   3.630   0.059 -0.6807 -1.8365 -1.0683
12586TIP3   OH259248   1.522   6.074  17.427 -0.0880  1.1598  0.1739
12586TIP3    H159249   1.492   6.155  17.386  0.8630  1.2890 -0.3011
12586TIP3    H259250   1.613   6.066  17.399 -1.2273 -2.3361 -3.4294
12587TIP3   OH259251   3.497   1.861  15.184  0.2432  0.0646  0.4575
12587TIP3    H159252   3.528   1.771  15.195 -0.7582 -0.3339  0.1593
12587TIP3    H259253   3.548   1.912  15.247  0.1189 -0.8866  1.3616
12588TIP3   OH259254   0.412   5.244  12.911  0.3139 -0.0387 -0.1583
12588TIP3    H159255   0.494   5.195  12.914  0.1628 -0.2371  1.4225
12588TIP3    H259256   0.401   5.278  12.999 -0.5334  1.3023 -0.7561
12589TIP3   OH259257   0.799   6.373  15.039 -0.1863  0.0288 -0.5310
12589TIP3    H159258   0.764   6.305  15.098 -0.7934  0.8984  0.1324
12589TIP3    H259259   0.740   6.370  14.964  0.1213 -0.5467 -0.7611
12590TIP3   OH259260   4.094   1.419   5.527 -0.0997 -0.7993 -0.0618
12590TIP3    H159261   4.000   1.421   5.508 -0.4961  1.0268  1.7547
12590TIP3    H259262   4.100   1.368   5.608  0.3443 -0.1872  0.2995
12591TIP3   OH259263   4.305   5.169  11.737 -0.3756 -0.1032  0.0893
12591TIP3    H159264   4.254   5.170  11.818 -0.4752 -1.7399  0.0755
12591TIP3    H259265   4.393   5.194  11.764 -0.1020 -1.8668  0.9542
12592TIP3   OH259266   5.045   0.872  12.181 -0.0035  0.2421 -0.3167
12592TIP3    H159267   4.971   0.815  12.161 -0.8313  1.1794  0.0429
12592TIP3    H259268   5.122   0.815  12.170 -0.5713 -0.1277 -3.0014
12593TIP3   OH259269   3.100   6.480   3.433  0.1541  0.2854  0.1933
12593TIP3    H159270   3.098   6.495   3.339 -0.4026  3.0404  0.5729
12593TIP3    H259271   3.186   6.512   3.461 -0.1010  0.5059  0.7480
12594TIP3   OH259272   1.088   3.584   4.971  0.4482 -0.0777 -0.3016
12594TIP3    H159273   1.105   3.613   5.061 -2.3794  1.1523 -0.0442
12594TIP3    H259274   1.163   3.615   4.921  1.2712  0.7414  1.3538
12595TIP3   OH259275   6.416   5.301   5.028 -0.5183  0.3721 -0.7436
12595TIP3    H159276   6.332   5.266   5.001 -0.0325 -2.6743  1.2492
12595TIP3    H259277   6.394   5.380   5.078 -2.1700 -0.2557 -0.4312
12596TIP3   OH259278   6.302   0.406   6.586  0.0838 -0.7717 -0.0031
12596TIP3    H159279   6.378   0.446   6.628 -1.0784  2.3653 -0.6030
12596TIP3    H259280   6.230   0.422   6.646 -0.3248 -2.9411  0.1604
12597TIP3   OH259281   1.075   2.075   2.818  0.0603  0.0240  0.0119
12597TIP3    H159282   1.027   2.157   2.826 -0.4371 -0.1193 -1.2149
12597TIP3    H259283   1.033   2.030   2.744  2.0764 -0.0818 -1.1458
12598TIP3   OH259284   5.946   3.379  16.776 -0.0535  0.3758 -0.0704
12598TIP3    H159285   5.853   3.389  16.795 -0.0440  0.6133 -0.1469
12598TIP3    H259286   5.955   3.407  16.685  0.1092  0.4655 -0.0267
12599TIP3   OH259287   1.451   4.126   1.806 -0.3944 -0.2378 -0.1082
12599TIP3    H159288   1.411   4.047   1.844  0.7599 -1.2713 -0.9338
12599TIP3    H259289   1.540   4.099   1.786 -0.1255  1.1582 -0.8688
12600TIP3   OH259290   0.689   5.086   5.058 -0.4660 -0.1781  0.3090
12600TIP3    H159291   0.737   5.159   5.019  0.0995 -1.4663 -1.5423
12600TIP3    H259292   0.598   5.116   5.062 -0.4579  0.1831 -1.5947
12601TIP3   OH259293   2.907   3.449  14.901  0.0766  0.0676  0.4426
12601TIP3    H159294   2.831   3.473  14.848  0.6824  1.4059  0.1332
12601TIP3    H259295   2.889   3.487  14.987  1.1307  1.9806 -0.1037
12602TIP3   OH259296   2.183   3.592  16.165 -0.8863  0.1545  0.1288
12602TIP3    H159297   2.256   3.551  16.209 -0.6374 -0.6198 -0.9504
12602TIP3    H259298   2.129   3.519  16.134 -0.3514  0.5783 -1.9800
12603TIP3   OH259299   0.124   1.150  12.353 -0.3885  0.0805 -0.1885
12603TIP3    H159300   0.194   1.088  12.332  1.9841  2.9896 -1.6937
12603TIP3    H259301   0.074   1.157  12.271 -1.3145 -0.5804  0.3062
12604TIP3   OH259302   1.744   6.221   1.038  0.6834 -0.7048 -0.5677
12604TIP3    H159303   1.749   6.316   1.029 -0.6445 -0.4857  0.7077
12604TIP3    H259304   1.819   6.197   1.092 -0.3111 -0.0567  1.1483
12605TIP3   OH259305   0.664   3.342   2.109 -0.7556  0.0065 -0.4663
12605TIP3    H159306   0.724   3.293   2.053 -1.1967  0.4840 -1.3922
12605TIP3    H259307   0.625   3.407   2.050 -2.4735 -0.5429  0.0087
12606TIP3   OH259308   0.496   6.350  14.020 -0.0483  0.0186  0.4389
12606TIP3    H159309   0.532   6.427  14.064 -0.6820 -0.2461  1.4668
12606TIP3    H259310   0.545   6.276  14.056  0.2622 -0.1060 -0.2220
12607TIP3   OH259311   1.379   2.163  12.499 -0.4699 -0.4563  0.8494
12607TIP3    H159312   1.447   2.137  12.561  0.8782  1.6487  0.3890
12607TIP3    H259313   1.423   2.162  12.414 -1.1028  0.5315  0.4919
12608TIP3   OH259314   3.932   6.619   6.266  0.3031  0.4343  0.3246
12608TIP3    H159315   3.962   6.692   6.320 -0.3759  0.4649  0.6727
12608TIP3    H259316   4.012   6.580   6.231  0.8826 -0.5485  2.5888
12609TIP3   OH259317   4.851   6.765   1.130 -0.1639 -0.0869 -0.5409
12609TIP3    H159318   4.885   6.724   1.210  1.1931  1.1336 -0.4415
12609TIP3    H259319   4.848   6.859   1.152 -0.7171  0.1563 -1.6056
12610TIP3   OH259320   5.039   2.853   5.673 -1.0373 -0.2518 -0.1613
12610TIP3    H159321   5.128   2.878   5.649 -1.5811  2.1239  0.0880
12610TIP3    H259322   5.049   2.768   5.716  1.7100  1.7463  3.6725
12611TIP3   OH259323   0.259   0.887   0.632  0.0854 -0.5596 -0.7553
12611TIP3    H159324   0.236   0.885   0.725  0.2651  0.0880 -0.6919
12611TIP3    H259325   0.330   0.951   0.627 -0.8320  0.4353 -1.5277
12612TIP3   OH259326   2.007   5.392   0.821  0.9966  0.0554 -0.2082
12612TIP3    H159327   2.058   5.379   0.901  0.1543 -0.6986  0.2207
12612TIP3    H259328   1.942   5.458   0.844 -0.5872 -1.6332  0.4026
12613TIP3   OH259329   2.361   3.272  11.753  0.4931 -0.0778  0.4690
12613TIP3    H159330   2.281   3.288  11.804 -0.6407  1.9951 -1.7885
12613TIP3    H259331   2.420   3.343  11.778  0.5746 -0.0244  0.1217
12614TIP3   OH259332   2.843   0.610  14.859  0.5190  0.2543  0.0779
12614TIP3    H159333   2.754   0.609  14.824  1.5567  0.6548 -2.8515
12614TIP3    H259334   2.893   0.555  14.799  2.4887  1.0579  0.9006
12615TIP3   OH259335   5.265   5.142   0.618  0.4608  0.2353  0.7411
12615TIP3    H159336   5.170   5.141   0.631  0.3723 -2.2220  0.4942
12615TIP3    H259337   5.278   5.097   0.534  1.7981  1.8194  0.0554
12616TIP3   OH259338   6.555   4.908   5.238 -0.4158 -0.1634 -0.1876
12616TIP3    H159339   6.648   4.908   5.262 -0.2085 -1.4496 -0.9143
12616TIP3    H259340   6.549   4.972   5.167  0.3756 -1.6724 -1.6871
12617TIP3   OH259341   4.591   3.121  14.277  0.0429 -0.0921 -0.3267
12617TIP3    H159342   4.534   3.187  14.316  2.1776  0.5620  1.9537
12617TIP3    H259343   4.640   3.168  14.210  0.3133  0.2043  0.0759
12618TIP3   OH259344   3.973   0.692   1.304  0.5130 -0.2201  0.1291
12618TIP3    H159345   3.882   0.719   1.318  0.5876 -0.3391  0.9245
12618TIP3    H259346   4.014   0.766   1.260  0.8554  1.2750  2.7403
12619TIP3   OH259347   5.575   3.725   2.589  0.1582 -0.5277  0.2805
12619TIP3    H159348   5.583   3.657   2.522  0.5398 -1.0630  0.8613
12619TIP3    H259349   5.487   3.714   2.625  0.7640 -1.7647  1.4695
12620TIP3   OH259350   4.846   5.955   2.795 -0.3950  0.0668  0.8124
12620TIP3    H159351   4.870   5.905   2.874  0.6695 -2.2336 -0.8536
12620TIP3    H259352   4.926   6.003   2.772 -0.7285  0.7989  1.1477
12621TIP3   OH259353   5.176   5.013   5.692  0.1659  0.2881 -0.3612
12621TIP3    H159354   5.117   4.984   5.761  0.5649 -1.5397 -0.7357
12621TIP3    H259355   5.201   5.102   5.718 -0.0000 -0.2035  1.6412
12622TIP3   OH259356   6.283   0.662  12.541 -0.1460  0.2237  0.2949
12622TIP3    H159357   6.204   0.717  12.537  0.6101  1.3633  0.6123
12622TIP3    H259358   6.353   0.718  12.506  0.6678 -0.5156  0.7041
12623TIP3   OH259359   5.469   6.356   6.149 -0.0190  0.1590  0.4931
12623TIP3    H159360   5.479   6.447   6.178 -2.2126  0.3557  0.8298
12623TIP3    H259361   5.472   6.360   6.054  0.1473  0.5458  0.5128
12624TIP3   OH259362   2.343   5.595   1.515  0.5004  0.2017  0.0396
12624TIP3    H159363   2.279   5.599   1.445  0.5886 -0.3837 -0.0759
12624TIP3    H259364   2.419   5.552   1.476  0.3757 -0.5667  0.6210
12625TIP3   OH259365   0.035   5.641  12.490 -0.0349 -0.2178 -0.5188
12625TIP3    H159366   0.075   5.588  12.421  0.7747  1.0957 -1.1035
12625TIP3    H259367   0.099   5.639  12.561  0.2803  0.4699 -0.7813
12626TIP3   OH259368   3.066   4.839   0.042 -0.2867 -0.0828  0.2922
12626TIP3    H159369   3.048   4.891   0.121  0.3966  0.4386  0.1131
12626TIP3    H259370   3.085   4.904  -0.026  1.0998 -0.5552  0.1918
12627TIP3   OH259371   6.012   6.129   3.270  0.5734 -0.7084  0.2838
12627TIP3    H159372   6.021   6.056   3.208  1.4364  0.3939 -0.9236
12627TIP3    H259373   6.005   6.086   3.356 -2.9636 -2.4178 -0.6457
12628TIP3   OH259374   0.481   2.260  14.235 -0.0499  0.6698 -0.0991
12628TIP3    H159375   0.463   2.336  14.290  0.2481  1.4036 -1.0096
12628TIP3    H259376   0.569   2.232  14.262 -0.9934 -0.7132  1.7774
12629TIP3   OH259377   4.785   5.369  13.393  0.2321  0.2100 -0.1654
12629TIP3    H159378   4.816   5.287  13.353 -0.3289  0.3533 -0.9190
12629TIP3    H259379   4.693   5.352  13.413  0.0383  0.7497 -0.5890
12630TIP3   OH259380   4.888   3.692   4.911 -0.0642  0.3120  0.1213
12630TIP3    H159381   4.853   3.728   4.993 -0.1980  0.7407 -0.1210
12630TIP3    H259382   4.823   3.628   4.883  0.8935 -1.3146  1.3613
12631TIP3   OH259383   5.599   2.458   1.018  0.4250  0.1855 -0.0383
12631TIP3    H159384   5.680   2.408   1.032  1.3034  1.6682  0.3043
12631TIP3    H259385   5.623   2.525   0.954 -0.0351  1.7331  1.3419
12632TIP3   OH259386   1.844   3.884  12.992 -0.0625  0.4888  0.1357
12632TIP3    H159387   1.830   3.978  12.980  0.3572  0.7568  1.5347
12632TIP3    H259388   1.767   3.854  13.039  0.5414  0.4845  1.1616
12633TIP3   OH259389   5.318   4.425  12.451  0.0269  0.7755 -0.1606
12633TIP3    H159390   5.299   4.343  12.496 -2.4902  0.7907 -1.0255
12633TIP3    H259391   5.371   4.475  12.514  0.8972 -1.1459  0.7091
12634TIP3   OH259392   4.366   4.833  16.831 -0.3663  0.0556  0.3080
12634TIP3    H159393   4.432   4.801  16.893 -1.3976  2.5509  2.9449
12634TIP3    H259394   4.395   4.921  16.808 -0.9365 -0.1737 -1.3976
12635TIP3   OH259395   1.399   6.057  12.575  0.6513 -0.0758  0.0481
12635TIP3    H159396   1.431   5.978  12.618  0.1446 -0.7146 -0.7221
12635TIP3    H259397   1.448   6.128  12.616  1.6280 -0.8504  0.2607
12636TIP3   OH259398   4.512   2.802   4.461 -0.4741  0.1310 -0.1460
12636TIP3    H159399   4.596   2.786   4.504 -1.6464 -0.9564  1.8865
12636TIP3    H259400   4.452   2.823   4.532 -1.6936  2.1998 -1.6743
12637TIP3   OH259401   3.997   0.422   2.551 -0.4381  0.5810  0.3857
12637TIP3    H159402   4.021   0.514   2.564 -0.2925  0.8722 -1.6796
12637TIP3    H259403   3.953   0.420   2.466 -0.8060 -1.2035  0.5811
12638TIP3   OH259404   5.844   1.291  12.563  0.1003 -0.2148 -0.4109
12638TIP3    H159405   5.838   1.342  12.644  0.6144  0.2943 -0.6864
12638TIP3    H259406   5.848   1.200  12.593 -0.5340 -0.0801  0.0998
12639TIP3   OH259407   5.924   2.835  16.192  0.0249  0.3337  0.0233
12639TIP3    H159408   6.006   2.837  16.242 -0.0112  0.0715  0.0967
12639TIP3    H259409   5.928   2.912  16.136  0.1709  0.5071  0.2670
12640TIP3   OH259410   4.957   5.220  14.217  0.3248 -0.0800  0.4902
12640TIP3    H159411   4.946   5.198  14.125 -1.2944  0.3559  0.5608
12640TIP3    H259412   5.027   5.161  14.247  0.8749 -0.2315 -0.9911
12641TIP3   OH259413   6.447   1.199  14.784  0.3271  0.5188  0.6720
12641TIP3    H159414   6.453   1.289  14.816 -1.5948  1.5394 -1.5201
12641TIP3    H259415   6.532   1.181  14.745  0.3290  1.9075 -0.0184
12642TIP3   OH259416   1.377   4.388   4.338  0.5005  0.1387 -0.2291
12642TIP3    H159417   1.288   4.394   4.372  0.2105  0.6866 -1.0520
12642TIP3    H259418   1.398   4.477   4.310  1.8419  0.3326  1.2193
12643TIP3   OH259419   1.842   2.225  12.883 -0.8571 -0.2016  0.4113
12643TIP3    H159420   1.801   2.237  12.798 -1.6050 -0.3293  0.7431
12643TIP3    H259421   1.774   2.185  12.937  0.0575 -1.4637  0.6722
12644TIP3   OH259422   5.171   1.826   0.424  0.4077 -0.0414 -0.0224
12644TIP3    H159423   5.188   1.898   0.364  0.0376  0.1382  0.0830
12644TIP3    H259424   5.189   1.747   0.374 -1.3866  0.0406 -0.8767
12645TIP3   OH259425   2.471   4.850   5.517 -0.1166 -0.1156 -0.3205
12645TIP3    H159426   2.538   4.797   5.559  0.9953  2.3410  1.2293
12645TIP3    H259427   2.403   4.861   5.583 -0.0213  0.9008 -0.3739
12646TIP3   OH259428   3.317   6.760  12.656 -0.0006 -0.4189 -0.3874
12646TIP3    H159429   3.317   6.666  12.638  0.6053 -0.1403 -2.0036
12646TIP3    H259430   3.365   6.769  12.738  0.0795 -1.5049 -0.3017
12647TIP3   OH259431   3.989   3.316  15.335 -0.1136  0.4394 -0.0058
12647TIP3    H159432   4.051   3.263  15.385 -0.9753  0.4512  1.1121
12647TIP3    H259433   4.041   3.351  15.262  0.9167 -0.4264  0.2860
12648TIP3   OH259434   3.110   5.318  12.779  0.1496  0.4151 -0.4912
12648TIP3    H159435   3.117   5.226  12.756  1.6609  0.5180 -0.5079
12648TIP3    H259436   3.042   5.320  12.847  2.6906 -1.2955  2.3392
12649TIP3   OH259437   2.537   2.186  16.955  0.3942 -0.7126 -0.5511
12649TIP3    H159438   2.545   2.157  17.045  1.0763 -0.5016 -0.5359
12649TIP3    H259439   2.480   2.262  16.959  2.5999  1.0126  0.1114
12650TIP3   OH259440   6.434   1.763   1.288  0.0962 -0.1496  0.0902
12650TIP3    H159441   6.498   1.832   1.301 -0.4842  0.6184 -1.0370
12650TIP3    H259442   6.484   1.682   1.298  1.2256  0.4322 -0.6674
12651TIP3   OH259443   0.038   0.262   3.034  0.6971 -0.3609 -0.0235
12651TIP3    H159444   0.066   0.181   3.077  0.7384 -0.9493 -1.1347
12651TIP3    H259445  -0.002   0.233   2.952  2.4034  0.8429 -1.3423
12652TIP3   OH259446   4.861   4.002  13.847  0.2726  0.5698  0.1802
12652TIP3    H159447   4.864   3.906  13.840 -0.6010  0.4894  0.7496
12652TIP3    H259448   4.952   4.030  13.832  0.3336 -0.2474 -1.2047
12653TIP3   OH259449   1.427   4.729  14.008  0.6131 -0.2695 -0.2126
12653TIP3    H159450   1.455   4.798  14.068  0.4377 -0.8271  0.5334
12653TIP3    H259451   1.441   4.648  14.057  0.4343 -0.7366 -0.9191
12654TIP3   OH259452   4.706   3.867   6.584  0.0754  0.0497  0.3368
12654TIP3    H159453   4.700   3.960   6.605  1.6995  0.6481 -1.5615
12654TIP3    H259454   4.751   3.828   6.660 -1.5838  0.5548  1.6345
12655TIP3   OH259455   1.906   1.376   1.002 -0.3535 -0.3122  0.3589
12655TIP3    H159456   1.981   1.374   0.942  0.5501  0.3852  1.4213
12655TIP3    H259457   1.907   1.291   1.045 -1.5287 -1.1550 -1.1863
12656TIP3   OH259458   5.214   3.914  15.199 -0.4322  0.1778 -0.3271
12656TIP3    H159459   5.301   3.883  15.173  1.0028  2.9762  0.6761
12656TIP3    H259460   5.232   3.978  15.268 -3.4614 -0.4616  1.1881
12657TIP3   OH259461   3.423   5.585  13.480 -0.3976 -0.1371 -0.1244
12657TIP3    H159462   3.419   5.512  13.542  1.2070  0.6645  1.0036
12657TIP3    H259463   3.507   5.572  13.435 -1.7764 -1.0256 -2.6322
12658TIP3   OH259464   6.530   0.190  10.934  0.0507 -0.0869  0.3401
12658TIP3    H159465   6.573   0.270  10.904 -0.8713 -0.1322 -1.1760
12658TIP3    H259466   6.550   0.125  10.867 -0.7728 -0.6233  0.6026
12659TIP3   OH259467   0.044   4.405  12.901 -0.1530  0.4332  0.1897
12659TIP3    H159468   0.125   4.394  12.951  0.1552  1.8492  0.0468
12659TIP3    H259469   0.046   4.496  12.871 -1.0689  0.0605 -1.1086
12660TIP3   OH259470   0.276   4.712   5.640 -0.3331  0.6069 -0.1137
12660TIP3    H159471   0.194   4.752   5.612 -1.0883  0.4198  1.6686
12660TIP3    H259472   0.251   4.626   5.673  0.0118  1.5778  3.0938
12661TIP3   OH259473   0.298   3.443   2.194 -0.1560  0.1740 -0.6518
12661TIP3    H159474   0.346   3.419   2.115  0.8391  0.3373 -0.1154
12661TIP3    H259475   0.206   3.430   2.171  0.2056 -1.7557 -1.1728
12662TIP3   OH259476   0.623   1.066   4.951 -0.9142  0.6242 -0.0585
12662TIP3    H159477   0.624   1.063   4.855 -2.1428  1.4381 -0.1233
12662TIP3    H259478   0.617   0.975   4.978  1.2642  0.2405 -0.6875
12663TIP3   OH259479   5.597   2.906   1.365  0.1406  0.1012  0.5468
12663TIP3    H159480   5.517   2.940   1.405  0.6605  0.4867  1.2814
12663TIP3    H259481   5.627   2.838   1.426  1.0717  0.8607  0.9489
12664TIP3   OH259482   0.561   5.561   0.241  0.3779  0.0809 -0.4755
12664TIP3    H159483   0.567   5.515   0.157  0.1087 -0.4984 -0.1815
12664TIP3    H259484   0.576   5.494   0.307  1.0001  0.6132 -0.0621
12665TIP3   OH259485   4.599   1.339  11.509 -0.4778  0.0222  0.3874
12665TIP3    H159486   4.593   1.336  11.604  0.8732  0.8152  0.5235
12665TIP3    H259487   4.636   1.426  11.490  1.5907 -1.0310 -0.7068
12666TIP3   OH259488   1.765   2.786  12.004  0.3715 -0.4979  0.0125
12666TIP3    H159489   1.787   2.857  12.064 -0.7769  0.2564 -0.4362
12666TIP3    H259490   1.720   2.829  11.931  2.7759 -1.2071 -2.0329
12667TIP3   OH259491   4.128   3.392  17.104 -0.0601 -0.4657  0.8044
12667TIP3    H159492   4.097   3.475  17.069  0.0925 -0.7917 -0.1339
12667TIP3    H259493   4.189   3.359  17.037  1.5681 -0.3030  2.1361
12668TIP3   OH259494   3.008   0.560   5.699  0.1878  0.3054  0.7858
12668TIP3    H159495   2.943   0.514   5.646  0.3752  1.4036 -0.4192
12668TIP3    H259496   2.993   0.527   5.788  0.6226 -2.4184 -0.0647
12669TIP3   OH259497   6.427   6.168   5.919  0.6211  0.3844 -0.2793
12669TIP3    H159498   6.497   6.111   5.888  0.4604  0.8295 -1.4969
12669TIP3    H259499   6.429   6.158   6.014 -1.5350 -4.1716 -0.4822
12670TIP3   OH259500   4.710   3.509  11.104  0.4861  0.1894  0.0446
12670TIP3    H159501   4.710   3.597  11.067  1.8599  0.9592  1.7231
12670TIP3    H259502   4.793   3.471  11.076  0.6775  0.0911  0.7260
12671TIP3   OH259503   4.550   3.225   1.392  0.3601  0.7380 -0.0585
12671TIP3    H159504   4.506   3.290   1.338  0.9965  0.9881 -0.2874
12671TIP3    H259505   4.482   3.161   1.413  0.4407 -0.2854 -2.5793
12672TIP3   OH259506   2.790   5.426  12.164  0.3991 -0.3630 -0.4633
12672TIP3    H159507   2.777   5.517  12.136  0.2304  0.1618  1.1860
12672TIP3    H259508   2.865   5.396  12.113  0.8459  0.9134 -0.6081
12673TIP3   OH259509   3.094   2.810   2.595 -0.1729 -0.1796 -0.0631
12673TIP3    H159510   3.075   2.726   2.554 -1.0683  0.5535 -1.2443
12673TIP3    H259511   3.188   2.822   2.581 -0.1163 -0.7980 -0.2545
12674TIP3   OH259512   2.352   3.399   0.624 -0.2960  0.3856 -0.4249
12674TIP3    H159513   2.302   3.442   0.554  0.6895 -0.2535 -1.5529
12674TIP3    H259514   2.334   3.306   0.612 -0.8657  0.3204  0.7859
12675TIP3   OH259515   5.504   6.266  11.452 -0.0968 -0.2564  0.4696
12675TIP3    H159516   5.459   6.350  11.443 -0.1049 -0.4197 -1.3786
12675TIP3    H259517   5.594   6.290  11.474  0.1963  0.3302 -1.2097
12676TIP3   OH259518   6.171   0.532   5.260  0.0297 -0.3930 -0.0372
12676TIP3    H159519   6.185   0.618   5.298 -0.7799 -0.1402 -0.2846
12676TIP3    H259520   6.253   0.511   5.215 -0.3620  1.0630 -1.5442
12677TIP3   OH259521   1.778   1.443   1.489  0.5839  0.3011  0.0478
12677TIP3    H159522   1.822   1.490   1.419  1.7972  0.0810  0.6445
12677TIP3    H259523   1.754   1.359   1.451  2.0922 -0.1988  0.1359
12678TIP3   OH259524   1.895   6.244  13.137 -0.2091  0.2871  0.0364
12678TIP3    H159525   1.978   6.195  13.140  0.4588  1.3484  3.3239
12678TIP3    H259526   1.828   6.178  13.153  0.3264 -0.1821  0.4140
12679TIP3   OH259527   4.454   0.588  11.873 -0.0475  0.0676  0.3717
12679TIP3    H159528   4.413   0.664  11.914 -0.2820 -1.0325  2.2495
12679TIP3    H259529   4.381   0.537  11.839  0.1377  0.9082 -1.4132
12680TIP3   OH259530   0.010   3.511   1.576  0.0270 -0.3934  0.0851
12680TIP3    H159531  -0.080   3.500   1.604  0.3962 -0.5943  1.2120
12680TIP3    H259532   0.019   3.454   1.500 -0.3633 -1.5848  0.9215
12681TIP3   OH259533   1.803   5.168  12.208 -0.1363  0.1234  0.5307
12681TIP3    H159534   1.836   5.152  12.296  1.7975  1.2681  0.0620
12681TIP3    H259535   1.862   5.233  12.171 -1.6506  0.6183 -1.1900
12682TIP3   OH259536   5.740   0.944  16.735  0.1450 -0.3497 -0.2898
12682TIP3    H159537   5.806   0.904  16.678  0.2614  1.0026 -1.1591
12682TIP3    H259538   5.779   0.940  16.822  0.2535 -1.8589 -0.3836
12683TIP3   OH259539   3.627   3.716   0.102 -0.6713 -0.0130 -0.7047
12683TIP3    H159540   3.663   3.691   0.017  0.1872 -1.6123  0.0999
12683TIP3    H259541   3.565   3.646   0.124  1.6369 -1.5116  1.5012
12684TIP3   OH259542   1.587   5.556  11.857 -0.0536  0.0690 -0.2171
12684TIP3    H159543   1.501   5.520  11.876 -0.7088  0.3656 -2.3951
12684TIP3    H259544   1.595   5.631  11.916 -0.9069 -0.4633  0.5959
12685TIP3   OH259545   4.244   4.851  11.766  0.3298  0.1384 -0.3714
12685TIP3    H159546   4.201   4.801  11.696  0.9496  0.7327 -1.1935
12685TIP3    H259547   4.331   4.870  11.731  0.7302  0.2561  0.6608
12686TIP3   OH259548   5.756   2.047  14.016  0.0658 -0.5031  0.2975
12686TIP3    H159549   5.841   2.013  14.044  0.2181 -1.1858 -0.9175
12686TIP3    H259550   5.771   2.076  13.926 -0.3186  1.8762  0.9450
12687TIP3   OH259551   4.888   6.435  14.154  0.3111 -0.2441 -0.7935
12687TIP3    H159552   4.967   6.488  14.152 -0.3979  1.2448  3.0370
12687TIP3    H259553   4.909   6.363  14.214 -1.1664  0.1113  0.1875
12688TIP3   OH259554   0.741   2.920   1.432 -0.3305  1.1264 -0.9574
12688TIP3    H159555   0.820   2.947   1.479 -0.9022  1.7134 -0.3212
12688TIP3    H259556   0.766   2.926   1.339  0.5722  0.6713 -0.7587
12689TIP3   OH259557   1.439   1.164  17.302  0.2717 -0.0078  0.0306
12689TIP3    H159558   1.379   1.234  17.327  2.2122  1.5486  0.6251
12689TIP3    H259559   1.510   1.209  17.256  1.0241 -1.7556 -0.6011
12690TIP3   OH259560   2.492   1.902   1.687 -0.2523 -0.2966 -0.6637
12690TIP3    H159561   2.558   1.962   1.652  0.6440 -0.9591 -0.1638
12690TIP3    H259562   2.409   1.937   1.657  0.3905 -0.1226 -2.3875
12691TIP3   OH259563   2.734   3.507  15.725  0.2360 -0.3914  0.2308
12691TIP3    H159564   2.734   3.596  15.760 -0.5624 -0.3994  0.2615
12691TIP3    H259565   2.724   3.517  15.631 -1.5258 -0.4856  0.3821
12692TIP3   OH259566   4.002   4.563   2.219  0.7672 -0.3344 -0.0645
12692TIP3    H159567   4.076   4.620   2.242  1.0109 -0.2708 -0.9859
12692TIP3    H259568   4.041   4.477   2.203  0.6476 -0.3040 -0.5425
12693TIP3   OH259569   4.252   5.459   1.726  0.4084  0.6560 -0.6331
12693TIP3    H159570   4.282   5.518   1.795  0.9626 -1.0678  0.6492
12693TIP3    H259571   4.330   5.408   1.702 -0.2730 -0.2060 -1.0606
12694TIP3   OH259572   4.311   2.791  16.521 -0.7881 -0.2364 -0.5184
12694TIP3    H159573   4.350   2.704  16.532  1.3786  0.5710 -1.4028
12694TIP3    H259574   4.384   2.848  16.497 -2.1745  1.8353 -0.0835
12695TIP3   OH259575   3.362   3.521  15.333 -0.0646 -0.5557 -0.1714
12695TIP3    H159576   3.363   3.588  15.402 -2.0065 -0.2432 -0.3880
12695TIP3    H259577   3.445   3.475  15.344  0.0273 -0.0147  1.8793
12696TIP3   OH259578   5.058   5.022   4.763 -0.1715 -0.5087  0.0336
12696TIP3    H159579   5.057   5.062   4.676 -1.3898 -2.2993 -0.8485
12696TIP3    H259580   4.968   5.032   4.795 -0.2514 -1.5784  0.2060
12697TIP3   OH259581   0.470   3.492  14.240 -0.6743 -0.0090 -0.5963
12697TIP3    H159582   0.407   3.523  14.175 -1.5481 -0.7416 -0.1099
12697TIP3    H259583   0.535   3.563  14.246 -0.4960  0.0241 -2.3512
12698TIP3   OH259584   6.321   2.100  16.656 -0.0763  0.2051 -0.2752
12698TIP3    H159585   6.353   2.179  16.613  1.4003 -0.5782 -0.6881
12698TIP3    H259586   6.387   2.033  16.636 -0.9578 -0.9763  0.5941
12699TIP3   OH259587   4.361   4.796   0.894  0.3771 -0.0685 -0.0593
12699TIP3    H159588   4.327   4.750   0.970  0.0348  1.2796  0.6429
12699TIP3    H259589   4.284   4.826   0.846  0.5870 -0.2015 -0.4849
12700TIP3   OH259590   1.250   1.380   3.464  0.1653  0.5897  0.1091
12700TIP3    H159591   1.220   1.292   3.445  0.6241  0.0232  1.8119
12700TIP3    H259592   1.170   1.429   3.482  0.0281 -0.1462  1.6467
12701TIP3   OH259593   1.356   4.063   4.864  0.6295 -0.0650 -0.6542
12701TIP3    H159594   1.358   4.098   4.775  1.0655 -0.2676 -0.7270
12701TIP3    H259595   1.364   3.968   4.853 -1.2100 -0.2686 -0.4985
12702TIP3   OH259596   3.885   2.061   0.094 -0.1317 -0.3143 -0.2686
12702TIP3    H159597   3.896   2.147   0.055 -1.1300  0.0036  0.1064
12702TIP3    H259598   3.799   2.032   0.063 -0.2917 -0.6890  0.5102
12703TIP3   OH259599   3.888   0.091  11.382  0.2431  0.4472  0.2591
12703TIP3    H159600   3.963   0.115  11.328  0.6786 -1.1500  0.1064
12703TIP3    H259601   3.918   0.018  11.435 -0.7611  0.7575  1.3032
12704TIP3   OH259602   3.898   4.132  14.149  0.0790  0.1194  0.2472
12704TIP3    H159603   3.875   4.109  14.059 -0.8046 -2.0484  0.9588
12704TIP3    H259604   3.962   4.065  14.174  0.9177  1.1740  1.0045
12705TIP3   OH259605   4.093   2.133   6.320  0.3024  0.3481 -0.1687
12705TIP3    H159606   4.160   2.197   6.343 -0.3980  1.1752 -0.3662
12705TIP3    H259607   4.010   2.179   6.333 -0.1903  0.2005 -2.3249
12706TIP3   OH259608   1.430   5.246  16.107 -0.2358  0.0602 -0.7563
12706TIP3    H159609   1.347   5.204  16.085 -0.3057 -0.0990 -0.2064
12706TIP3    H259610   1.464   5.279  16.023 -0.5497 -0.4182 -1.0738
12707TIP3   OH259611   1.488   6.439  16.678 -0.0445  0.3831  0.1343
12707TIP3    H159612   1.546   6.363  16.674  1.8618  1.5953  2.1824
12707TIP3    H259613   1.530   6.504  16.622  0.0357  0.9154  0.7927
12708TIP3   OH259614   3.334   6.509   2.373 -0.6269 -0.1399  0.0116
12708TIP3    H159615   3.308   6.489   2.463  3.5638 -0.7216  1.3254
12708TIP3    H259616   3.382   6.592   2.379  0.1833 -0.4481 -1.5416
12709TIP3   OH259617   4.703   5.640  17.113 -0.1737 -0.4001  0.1343
12709TIP3    H159618   4.746   5.687  17.042 -0.4608  2.1221  1.5101
12709TIP3    H259619   4.771   5.587  17.152  1.1118  1.4827  0.6039
12710TIP3   OH259620   6.264   1.008  14.957 -0.2371 -0.1074 -0.2373
12710TIP3    H159621   6.324   1.082  14.958 -0.2709 -0.0791  1.5448
12710TIP3    H259622   6.318   0.935  14.926  0.2271  0.2895 -0.3849
12711TIP3   OH259623   6.204   5.378  12.829  0.3100  0.1148 -0.0019
12711TIP3    H159624   6.217   5.391  12.923  0.1075  2.4487 -0.2278
12711TIP3    H259625   6.130   5.435  12.807  1.2715  0.7503 -1.7938
12712TIP3   OH259626   6.245   0.995  16.856  0.0883  0.4719 -0.1758
12712TIP3    H159627   6.191   1.048  16.797  2.8112  0.6657 -2.7060
12712TIP3    H259628   6.219   1.024  16.944 -0.8385  3.6896 -1.3535
12713TIP3   OH259629   0.723   0.692  12.327 -0.0875  0.3887 -0.8370
12713TIP3    H159630   0.690   0.734  12.407 -1.2661 -1.1704 -0.4492
12713TIP3    H259631   0.725   0.598  12.348  1.8416  0.1422 -1.8795
12714TIP3   OH259632   6.084   1.788  10.603  0.4476 -0.3262 -0.3180
12714TIP3    H159633   6.137   1.753  10.674  0.2509 -2.5794 -1.2107
12714TIP3    H259634   6.082   1.718  10.537 -0.1384  1.3218 -2.1447
12715TIP3   OH259635   0.881   5.741  10.814  0.3752 -0.5197 -0.5354
12715TIP3    H159636   0.911   5.801  10.746 -0.2954  0.6443  0.1661
12715TIP3    H259637   0.851   5.797  10.884 -0.5288 -1.6848  0.0468
12716TIP3   OH259638   0.984   5.970  13.263  0.0125 -0.1930  0.5217
12716TIP3    H159639   0.899   5.928  13.274 -0.0562  0.2993  2.1386
12716TIP3    H259640   0.991   5.985  13.169  0.1168 -3.8680 -0.1920
12717TIP3   OH259641   0.079   1.232  12.083 -0.8615 -0.5106 -0.0012
12717TIP3    H159642   0.168   1.259  12.106 -1.1836 -0.6463  1.5292
12717TIP3    H259643   0.089   1.146  12.043 -0.1454  0.3107 -1.6953
12718TIP3   OH259644   0.640   3.662  11.503 -0.3368  0.2276 -0.2909
12718TIP3    H159645   0.699   3.593  11.535 -0.9240 -1.3624 -2.3797
12718TIP3    H259646   0.552   3.631  11.526 -0.7046 -0.5008 -2.4571
12719TIP3   OH259647   0.644   0.032   1.665 -0.0082 -0.1876  0.1936
12719TIP3    H159648   0.645  -0.062   1.649 -1.3002 -0.3072  0.6761
12719TIP3    H259649   0.654   0.041   1.760 -2.3016 -0.0065  0.4875
12720TIP3   OH259650   3.562   5.627  14.822 -0.0747  0.3441  0.0531
12720TIP3    H159651   3.619   5.594  14.892  0.9926  1.8238 -0.0928
12720TIP3    H259652   3.474   5.618  14.858  0.4908  1.9453  2.0139
12721TIP3   OH259653   4.928   0.201  15.512 -0.0068  0.1920 -0.1364
12721TIP3    H159654   4.917   0.111  15.482 -0.6636 -0.4477  1.9006
12721TIP3    H259655   4.994   0.238  15.453  1.6378 -2.1642  0.1027
12722TIP3   OH259656   6.111   2.354  12.649  0.2392  0.0037 -0.5089
12722TIP3    H159657   6.086   2.439  12.686  0.0153  0.8792 -2.5563
12722TIP3    H259658   6.203   2.345  12.672 -0.1669 -0.0994  1.2906
12723TIP3   OH259659   4.943   3.840   1.552  0.5085 -0.2409  0.4237
12723TIP3    H159660   4.862   3.866   1.509 -0.2071 -2.8617 -0.0317
12723TIP3    H259661   5.012   3.883   1.502 -0.4612 -0.8411 -1.5125
12724TIP3   OH259662   4.341   2.974   5.591 -0.2143  0.2500 -0.4057
12724TIP3    H159663   4.261   2.980   5.539 -0.0040 -0.7797 -0.8553
12724TIP3    H259664   4.411   2.963   5.527  0.0795 -0.7380  0.0643
12725TIP3   OH259665   1.143   1.226   0.605 -0.4396  0.0750 -0.0214
12725TIP3    H159666   1.055   1.218   0.642 -1.0454 -1.1297 -1.6034
12725TIP3    H259667   1.131   1.212   0.511  1.1096  2.3146 -0.6567
12726TIP3   OH259668   2.273   4.921   1.718  0.0977 -0.5564 -0.1699
12726TIP3    H159669   2.215   4.940   1.643 -1.0889 -1.0217  0.5935
12726TIP3    H259670   2.251   4.988   1.782  0.6325 -0.5672  0.0281
12727TIP3   OH259671   1.219   3.008   2.947  0.4609  0.3968  0.3088
12727TIP3    H159672   1.224   2.977   3.037 -0.0660 -0.7124 -0.0306
12727TIP3    H259673   1.305   2.986   2.910  0.5642  0.5666  0.4427
12728TIP3   OH259674   3.069   1.147   1.049  0.1311  0.2060  0.1436
12728TIP3    H159675   3.148   1.186   1.086  0.1715 -0.4912  0.8338
12728TIP3    H259676   3.031   1.216   0.995 -0.5333  1.6701  2.3567
12729TIP3   OH259677   6.655   6.723   2.691 -0.5090  0.0866  0.8087
12729TIP3    H159678   6.692   6.644   2.651  0.4401  0.0194  1.7702
12729TIP3    H259679   6.582   6.747   2.634 -0.1591 -0.8857 -0.0812
12730TIP3   OH259680   2.372   4.257   4.966 -0.1811  0.0422 -0.8390
12730TIP3    H159681   2.429   4.221   5.035  0.4278  1.6914 -0.4383
12730TIP3    H259682   2.284   4.228   4.991  0.2586 -0.9885 -0.4348
12731TIP3   OH259683   0.278   0.421  17.008 -0.7447  0.0441 -0.2551
12731TIP3    H159684   0.282   0.478  17.085  0.0163  1.1820 -1.0904
12731TIP3    H259685   0.355   0.365  17.015 -0.9603 -0.2133  0.0718
12732TIP3   OH259686   1.467   2.163  13.745  0.0742 -0.2520  0.0974
12732TIP3    H159687   1.390   2.154  13.689  0.8771 -1.5425 -0.8683
12732TIP3    H259688   1.508   2.245  13.717  0.0837 -0.5344 -0.7542
12733TIP3   OH259689   1.185   3.202  15.469  0.1912 -0.2855  0.1949
12733TIP3    H159690   1.108   3.243  15.508  0.1767  2.8444 -2.6614
12733TIP3    H259691   1.259   3.247  15.510  0.3603 -0.7327  0.3812
12734TIP3   OH259692   2.573   2.809  15.039 -0.0492  0.3849 -0.3444
12734TIP3    H159693   2.480   2.791  15.023  0.2772 -1.8260 -0.0711
12734TIP3    H259694   2.573   2.891  15.088 -1.9087  0.0228  0.3518
12735TIP3   OH259695   6.127   5.556   6.215 -0.2987  0.4214  0.6047
12735TIP3    H159696   6.070   5.631   6.201 -0.2707  0.5263  1.0545
12735TIP3    H259697   6.099   5.519   6.298 -0.3951 -0.1468  0.3248
12736TIP3   OH259698   5.035   3.814   4.427  0.4259  0.0352  0.0328
12736TIP3    H159699   5.040   3.766   4.509  0.4254  0.0066  0.0163
12736TIP3    H259700   5.004   3.901   4.452  0.1330 -0.0646  0.0287
12737TIP3   OH259701   5.476   4.287  14.332 -0.5123 -0.1965 -0.3222
12737TIP3    H159702   5.424   4.266  14.409  0.1697  0.1396  0.2375
12737TIP3    H259703   5.566   4.265  14.357  0.1017  2.3651 -0.0746
12738TIP3   OH259704   0.722   2.832   4.576 -0.2460  0.3232  0.1498
12738TIP3    H159705   0.699   2.925   4.579  0.5773  0.5237  0.4718
12738TIP3    H259706   0.685   2.801   4.493 -2.3073  0.4384  0.9613
12739TIP3   OH259707   4.700   5.048   2.234 -0.5044  0.1032  0.1855
12739TIP3    H159708   4.633   5.114   2.252  0.5569  0.7845  1.9699
12739TIP3    H259709   4.650   4.968   2.217 -1.7949  0.7568  0.7095
12740TIP3   OH259710   1.218   2.960   6.438 -0.2246 -0.2677 -0.0210
12740TIP3    H159711   1.272   3.030   6.475  0.5566 -1.0140  0.3075
12740TIP3    H259712   1.131   2.974   6.475  0.8696 -1.9861  3.6684
12741TIP3   OH259713   5.233   1.032  16.258 -0.3960  0.0305 -0.4886
12741TIP3    H159714   5.281   0.956  16.290 -1.5431 -0.5494 -0.1303
12741TIP3    H259715   5.167   1.050  16.325 -1.9192 -0.3454 -1.8232
12742TIP3   OH259716   4.550   4.947   1.516  0.5566 -0.2166 -0.0714
12742TIP3    H159717   4.592   4.861   1.514 -0.0397 -0.4981 -0.6653
12742TIP3    H259718   4.623   5.009   1.526  1.1871 -0.6561 -1.6309
12743TIP3   OH259719   3.164   2.739   0.358 -0.8198  0.6625 -0.3530
12743TIP3    H159720   3.192   2.820   0.402 -0.5857  0.0915  0.5627
12743TIP3    H259721   3.192   2.751   0.267  2.7304  0.0499  0.4979
12744TIP3   OH259722   3.710   2.482  10.916  0.4855  0.5215 -0.2128
12744TIP3    H159723   3.783   2.424  10.893  0.6446  0.4491  0.4446
12744TIP3    H259724   3.660   2.492  10.835  0.3392 -0.7165 -0.2991
12745TIP3   OH259725   2.390   1.821  15.891  0.0551 -0.4145 -0.4823
12745TIP3    H159726   2.331   1.896  15.884 -0.0006 -0.4401 -0.2926
12745TIP3    H259727   2.336   1.751  15.927  0.6260  0.0807  1.4853
12746TIP3   OH259728   6.224   2.591   2.732  0.5147 -0.1713  0.5292
12746TIP3    H159729   6.191   2.680   2.739  1.0237 -0.0599  1.7564
12746TIP3    H259730   6.278   2.591   2.652 -1.2267  0.0086 -0.6940
12747TIP3   OH259731   2.497   1.172  13.988 -0.0019  0.2907 -0.1383
12747TIP3    H159732   2.481   1.120  13.909  0.2836  1.5668 -1.0735
12747TIP3    H259733   2.574   1.131  14.028 -0.5289 -0.7531 -0.1650
12748TIP3   OH259734   5.925   1.308   0.275  0.1043 -0.0157 -0.2696
12748TIP3    H159735   5.922   1.403   0.275  0.1862 -0.0099 -0.8833
12748TIP3    H259736   5.980   1.286   0.200  1.0248 -0.5178  0.5294
12749TIP3   OH259737   4.250   1.118  13.102 -0.1984 -0.8998  0.3138
12749TIP3    H159738   4.176   1.080  13.148 -1.1551 -2.1073 -2.0383
12749TIP3    H259739   4.214   1.194  13.055  0.4651 -0.4400  0.5220
12750TIP3   OH259740   6.700   5.114   3.781  0.1556 -0.1745  0.2401
12750TIP3    H159741   6.636   5.108   3.852  0.5507 -1.0361  0.5483
12750TIP3    H259742   6.651   5.092   3.702 -0.1683  0.2543  0.3206
12751TIP3   OH259743   3.194   2.177   3.136 -0.3731 -0.3908  0.2661
12751TIP3    H159744   3.167   2.144   3.051  1.2360 -2.6203  0.5371
12751TIP3    H259745   3.198   2.272   3.124 -1.0990 -0.5717 -1.8516
12752TIP3   OH259746   2.283   0.817  13.969  0.0882 -0.2800 -0.2574
12752TIP3    H159747   2.345   0.820  14.042 -0.3464 -1.9876  0.2132
12752TIP3    H259748   2.306   0.737  13.922 -2.2524 -1.4113  0.3921
12753TIP3   OH259749   2.541   5.783  15.001  0.0223 -0.0339  0.0830
12753TIP3    H159750   2.489   5.831  14.936 -1.4210 -0.9901  0.4739
12753TIP3    H259751   2.628   5.776  14.962 -0.0640  1.7325 -0.5452
12754TIP3   OH259752   4.152   2.947   5.043  0.2814 -0.1310 -0.2791
12754TIP3    H159753   4.226   2.984   5.093  3.3861 -2.8729 -2.4074
12754TIP3    H259754   4.115   3.022   4.997  0.9960  1.5372  1.6985
12755TIP3   OH259755   0.625   4.956   0.665 -0.2557  0.0192  0.0129
12755TIP3    H159756   0.690   4.958   0.734 -0.0980 -1.6822 -0.0366
12755TIP3    H259757   0.564   4.888   0.692 -0.2911 -0.5511 -1.4210
12756TIP3   OH259758   3.534   4.772  16.334 -0.0306 -0.2939 -0.3113
12756TIP3    H159759   3.555   4.694  16.385 -2.6308 -2.2512 -2.0021
12756TIP3    H259760   3.586   4.762  16.253  0.6770  0.4970  0.0268
12757TIP3   OH259761   2.708   2.348  13.601  0.5518  0.1207 -0.2817
12757TIP3    H159762   2.646   2.329  13.530  0.7215 -1.2549 -0.0879
12757TIP3    H259763   2.682   2.289  13.672  0.9795  0.8087  0.4605
12758TIP3   OH259764   2.373   6.506   3.514 -0.4636  0.2436  0.5448
12758TIP3    H159765   2.328   6.573   3.463 -0.1775 -0.7642 -1.1036
12758TIP3    H259766   2.385   6.434   3.453  0.9014 -0.5888  1.7418
12759TIP3   OH259767   2.106   3.230   4.250  0.0490  0.2078  0.1487
12759TIP3    H159768   2.052   3.157   4.277  0.6579  0.3296  1.8620
12759TIP3    H259769   2.055   3.308   4.273 -0.9544  0.3945 -2.4146
12760TIP3   OH259770   5.732   6.527   3.129  0.2152 -0.3735  0.6432
12760TIP3    H159771   5.733   6.573   3.213  2.8086 -1.7462  1.4849
12760TIP3    H259772   5.703   6.438   3.150 -1.2420 -0.1540 -0.3297
12761TIP3   OH259773   0.004   4.935   1.529  0.2839  0.0077  0.4574
12761TIP3    H159774  -0.006   4.885   1.448  2.5703  0.4685 -0.1871
12761TIP3    H259775  -0.055   4.893   1.591 -0.0331 -1.6337 -0.8874
12762TIP3   OH259776   4.178   3.110   1.048 -0.4736  0.5316 -0.4165
12762TIP3    H159777   4.241   3.049   1.010  0.8220  0.5612  1.5761
12762TIP3    H259778   4.119   3.055   1.100  0.0324  0.8479  0.5057
12763TIP3   OH259779   0.288   2.201   5.045 -0.0722 -0.5520 -0.0966
12763TIP3    H159780   0.302   2.119   5.091 -0.5573 -1.0065 -0.7382
12763TIP3    H259781   0.368   2.251   5.060  0.4559 -1.3634 -0.1455
12764TIP3   OH259782   0.989   5.713   1.828 -0.5062 -0.0406  0.5996
12764TIP3    H159783   0.951   5.687   1.744 -1.8310  0.2088  1.1127
12764TIP3    H259784   0.973   5.807   1.835  0.1147  0.0544  0.8832
12765TIP3   OH259785   6.445   0.450  17.281  0.0422  0.2651  0.0501
12765TIP3    H159786   6.450   0.414  17.192  2.1400  1.3512 -0.3530
12765TIP3    H259787   6.384   0.523  17.274  1.4242  1.3768 -0.9514
12766TIP3   OH259788   6.649   4.349   4.009 -0.0170 -0.4247 -0.2808
12766TIP3    H159789   6.675   4.440   3.999 -0.4991 -0.0023  1.8110
12766TIP3    H259790   6.575   4.351   4.071 -0.9725 -2.1198 -1.2669
12767TIP3   OH259791   1.550   3.782   1.787  0.2586  0.7399 -0.4083
12767TIP3    H159792   1.640   3.786   1.822  0.7609  0.1057 -1.5722
12767TIP3    H259793   1.562   3.774   1.692 -1.0517  1.5327 -0.6636
12768TIP3   OH259794   2.863   0.237  15.628 -0.5694  0.0650  0.4010
12768TIP3    H159795   2.930   0.283  15.678  0.6419 -1.1651 -0.0180
12768TIP3    H259796   2.795   0.302  15.614 -0.0371  1.0028  1.9129
12769TIP3   OH259797   6.538   5.437   0.754  0.8742  0.1901 -0.1321
12769TIP3    H159798   6.587   5.378   0.697  1.9637  0.5291  0.4116
12769TIP3    H259799   6.595   5.514   0.763 -1.2713  2.1664 -2.2934
12770TIP3   OH259800   2.048   4.715  15.678  0.3130 -0.2301 -0.2325
12770TIP3    H159801   2.038   4.650  15.748  1.1598 -1.3392 -1.1327
12770TIP3    H259802   1.987   4.785  15.703  0.5102 -0.6483  1.5551
12771TIP3   OH259803   5.797   2.709  11.687  0.3814  0.0910  0.6399
12771TIP3    H159804   5.877   2.738  11.732  0.1820 -0.4354  1.3370
12771TIP3    H259805   5.829   2.661  11.610  0.7428 -0.3617  1.0673
12772TIP3   OH259806   5.069   0.716  10.842  0.1045 -0.3954  0.4893
12772TIP3    H159807   5.141   0.654  10.832 -0.8795 -1.3661 -0.9742
12772TIP3    H259808   4.990   0.663  10.835 -0.7725  0.8377  0.6378
12773TIP3   OH259809   4.148   0.805  13.814 -0.6797  0.0596 -0.4891
12773TIP3    H159810   4.119   0.810  13.723 -1.7061  1.5168 -0.1048
12773TIP3    H259811   4.171   0.895  13.837  0.2085 -0.3998  0.5076
12774TIP3   OH259812   5.899   4.363  16.219  0.1300 -0.2757 -0.1611
12774TIP3    H159813   5.831   4.316  16.267  0.1274  0.3407  0.4530
12774TIP3    H259814   5.863   4.451  16.206  0.3025 -0.3157 -0.9308
12775TIP3   OH259815   2.312   0.741  12.181  0.3463  0.3531 -0.1252
12775TIP3    H159816   2.248   0.690  12.131  0.2113  0.8060 -0.4214
12775TIP3    H259817   2.279   0.741  12.270 -0.3689  1.0557 -0.3801
12776TIP3   OH259818   1.884   0.571   5.100  0.4021  0.0548  0.3552
12776TIP3    H159819   1.815   0.554   5.164 -0.1183 -0.2655 -0.2829
12776TIP3    H259820   1.930   0.488   5.090  0.0040 -0.0994 -0.2418
12777TIP3   OH259821   0.803   1.225  17.442 -0.1138  0.1575 -0.2113
12777TIP3    H159822   0.896   1.216  17.465 -0.6135 -0.0760  1.9250
12777TIP3    H259823   0.798   1.196  17.352  1.9744  0.6502 -0.5481
12778TIP3   OH259824   4.762   2.503  13.379 -0.1260 -0.7520 -0.1560
12778TIP3    H159825   4.834   2.545  13.331  1.3051 -2.5245  0.2928
12778TIP3    H259826   4.683   2.527  13.331  0.8932  0.3935 -1.3137
12779TIP3   OH259827   5.800   0.382  15.050  0.0953 -0.2765  0.3718
12779TIP3    H159828   5.748   0.349  14.978  0.9575 -1.3844  0.2253
12779TIP3    H259829   5.832   0.303  15.095  0.4894  0.3795  1.2828
12780TIP3   OH259830   6.103   0.338  12.254 -0.1813  0.1300  0.6601
12780TIP3    H159831   6.032   0.280  12.228 -0.1869 -0.6652  2.3634
12780TIP3    H259832   6.060   0.417  12.284 -0.2847  0.1410  0.4832
12781TIP3   OH259833   4.062   0.191  11.170  0.0275  0.3099 -0.4825
12781TIP3    H159834   4.140   0.246  11.169  1.3859 -1.4691  0.9605
12781TIP3    H259835   4.092   0.107  11.135 -1.1125 -0.5605  0.5589
12782TIP3   OH259836   5.173   5.388   5.562  0.6697 -0.5660 -0.2888
12782TIP3    H159837   5.243   5.412   5.501  0.1664  0.9830 -0.3149
12782TIP3    H259838   5.095   5.382   5.507  0.5016 -0.7241 -0.0334
12783TIP3   OH259839   2.831   6.535  12.921 -0.4684 -0.1047  0.0681
12783TIP3    H159840   2.855   6.501  13.007 -0.5785 -0.5128 -0.0593
12783TIP3    H259841   2.750   6.488  12.898 -0.2933 -0.1980 -0.3768
12784TIP3   OH259842   2.544   3.237   2.500 -0.1697  0.1960 -0.3960
12784TIP3    H159843   2.551   3.284   2.583 -0.6053 -0.2945 -0.0698
12784TIP3    H259844   2.616   3.175   2.501  0.2834  0.7072 -0.7353
12785TIP3   OH259845   1.242   6.745  15.387 -0.0066 -0.1530  0.1476
12785TIP3    H159846   1.170   6.741  15.324 -0.0649 -0.9914  0.2548
12785TIP3    H259847   1.277   6.656  15.389  0.6812  0.1197  0.5058
12786TIP3   OH259848   2.792   3.288  12.652 -0.0181  0.1519 -0.3066
12786TIP3    H159849   2.784   3.370  12.604 -0.0683 -0.2103 -0.9259
12786TIP3    H259850   2.783   3.313  12.744 -0.5069  0.7757 -0.5174
12787TIP3   OH259851   2.200   5.513   2.792 -0.4142 -0.0808 -0.3101
12787TIP3    H159852   2.123   5.458   2.780 -1.2422  1.0110 -0.1601
12787TIP3    H259853   2.260   5.487   2.722 -1.5458  0.1021 -1.3662
12788TIP3   OH259854   4.916   3.947   2.592 -0.1942 -0.4730 -0.0716
12788TIP3    H159855   4.989   3.971   2.649  1.1167 -1.9018 -1.0743
12788TIP3    H259856   4.859   3.893   2.649 -0.8198  1.0992  0.8669
12789TIP3   OH259857   4.008   3.084  13.438 -0.3588  0.2977  0.0593
12789TIP3    H159858   4.054   3.006  13.469  0.6515  0.7873 -0.1778
12789TIP3    H259859   3.915   3.063  13.451 -0.0562 -0.4289  1.2028
12790TIP3   OH259860   6.133   5.364   0.933  0.7507  0.7923 -0.1486
12790TIP3    H159861   6.212   5.323   0.967  0.7460 -0.3906 -1.4610
12790TIP3    H259862   6.092   5.405   1.010  0.6065 -1.9198  1.3479
12791TIP3   OH259863   4.091   3.801   0.140 -0.3085 -0.1390 -0.0579
12791TIP3    H159864   4.154   3.749   0.192 -0.9700 -0.4622  0.4350
12791TIP3    H259865   4.006   3.783   0.181 -0.6408  0.8026 -0.3154
12792TIP3   OH259866   0.392   4.082   3.132 -0.4088 -0.2052  0.4406
12792TIP3    H159867   0.334   4.033   3.190 -0.9960  0.5167  0.4766
12792TIP3    H259868   0.402   4.167   3.175 -0.8066  0.3179 -0.4724
12793TIP3   OH259869   2.733   1.514   1.566  0.7135 -0.1714 -0.3069
12793TIP3    H159870   2.745   1.429   1.524 -0.8898  0.5625 -2.4490
12793TIP3    H259871   2.638   1.529   1.563  1.0522  2.3376 -1.5184
12794TIP3   OH259872   2.803   2.686   5.676 -0.2812  0.0195 -0.4390
12794TIP3    H159873   2.838   2.738   5.748 -2.4878  0.6006  0.3125
12794TIP3    H259874   2.769   2.607   5.718  1.2032 -1.1321 -1.3077
12795TIP3   OH259875   0.803   6.661   2.084 -0.4361 -0.0627 -0.3814
12795TIP3    H159876   0.869   6.611   2.131 -2.3002 -0.4735  2.0436
12795TIP3    H259877   0.764   6.598   2.023 -0.6689 -0.7312  0.4332
12796TIP3   OH259878   5.257   6.349   2.484 -0.0270 -0.2847  0.1363
12796TIP3    H159879   5.205   6.426   2.461  0.8376  0.6195  1.1233
12796TIP3    H259880   5.254   6.344   2.579  1.3275 -0.4596  0.1940
12797TIP3   OH259881   1.835   3.444   5.564 -0.0536 -0.2066  0.5169
12797TIP3    H159882   1.788   3.376   5.611 -0.8118 -0.3845 -0.4704
12797TIP3    H259883   1.925   3.439   5.598 -0.3297 -1.0456  1.1454
12798TIP3   OH259884   1.520   0.559  13.159  0.0026 -0.1739  0.2168
12798TIP3    H159885   1.443   0.532  13.108  0.9139 -0.4479 -1.0845
12798TIP3    H259886   1.486   0.620  13.224 -1.4971 -1.3163  0.5379
12799TIP3   OH259887   4.016   6.548   3.558 -0.4475 -0.2640  0.3100
12799TIP3    H159888   3.938   6.574   3.608 -1.2576 -0.8025 -0.6508
12799TIP3    H259889   4.060   6.631   3.540  0.0804 -0.0677  2.2000
12800TIP3   OH259890   1.513   6.527   4.143  0.6251  0.3012 -0.4748
12800TIP3    H159891   1.482   6.470   4.073  1.6632 -0.6528 -0.2003
12800TIP3    H259892   1.489   6.615   4.116  0.4881 -0.1159 -1.7493
12801TIP3   OH259893   3.939   1.308   0.013  0.0399 -0.0390 -0.1976
12801TIP3    H159894   3.939   1.216  -0.016  0.6008 -0.8561  2.1977
12801TIP3    H259895   3.849   1.337  -0.003 -0.0632 -0.8876 -1.3093
12802TIP3   OH259896   5.390   5.132  15.467  0.1653 -0.0913  0.5848
12802TIP3    H159897   5.453   5.063  15.485  1.8465  1.2789  0.1904
12802TIP3    H259898   5.385   5.182  15.548 -0.1288  0.0227  0.4974
12803TIP3   OH259899   0.588   2.309   6.551 -0.3120  0.2711  0.7034
12803TIP3    H159900   0.667   2.256   6.542 -2.5378 -3.0975 -1.3461
12803TIP3    H259901   0.580   2.324   6.646  2.5048  0.4699  0.9972
12804TIP3   OH259902   0.791   6.024   1.133  0.0013 -0.6012 -0.1746
12804TIP3    H159903   0.798   6.092   1.066  1.8024 -0.7425 -0.1839
12804TIP3    H259904   0.868   6.037   1.188  1.4268 -3.7011 -1.2142
12805TIP3   OH259905   0.055   0.316  17.454 -0.2032  0.0764  0.6258
12805TIP3    H159906   0.127   0.255  17.472 -1.1382 -0.9368  1.0271
12805TIP3    H259907   0.020   0.338  17.540  0.0422  1.1120  0.4777
12806TIP3   OH259908   0.283   3.323   1.937  0.2763  0.4432  0.2965
12806TIP3    H159909   0.363   3.331   1.884  1.2772  0.1096  1.7143
12806TIP3    H259910   0.231   3.400   1.913  1.7495  1.5526  0.5289
12807TIP3   OH259911   5.783   5.677  10.842 -0.1350  0.0447  0.1315
12807TIP3    H159912   5.832   5.611  10.793 -0.5369  0.5742 -0.9938
12807TIP3    H259913   5.697   5.679  10.802  0.5781  2.9643 -1.5095
12808TIP3   OH259914   1.297   5.080  13.890 -0.1485  0.3390  0.1726
12808TIP3    H159915   1.240   5.149  13.854  0.1074  1.7995  2.3539
12808TIP3    H259916   1.272   5.075  13.982  1.8621 -0.4518  0.7147
12809TIP3   OH259917   2.951   5.142  10.749 -0.5236  0.1550  0.5207
12809TIP3    H159918   3.045   5.151  10.762 -0.4344  1.1681 -0.6200
12809TIP3    H259919   2.941   5.122  10.656 -1.4942  1.8668  0.2005
12810TIP3   OH259920   1.965   4.363  12.163  0.2016  0.5092 -0.3808
12810TIP3    H159921   1.955   4.269  12.148 -1.4637  1.0038 -3.0998
12810TIP3    H259922   1.959   4.373  12.258  1.1364 -2.1665  0.0414
12811TIP3   OH259923   1.848   6.194   1.483 -0.5941 -0.1071  0.1996
12811TIP3    H159924   1.760   6.160   1.468  0.4933 -2.3858 -1.7797
12811TIP3    H259925   1.879   6.147   1.560 -0.4872 -0.6862 -0.1905
12812TIP3   OH259926   1.316   0.553   4.977  0.2175  0.2293  0.3028
12812TIP3    H159927   1.298   0.604   4.898  1.2028  0.2869  0.1144
12812TIP3    H259928   1.229   0.522   5.005 -0.0931 -0.1389 -1.0204
12813TIP3   OH259929   0.791   3.320   6.427  0.2299  0.5480  0.6983
12813TIP3    H159930   0.756   3.409   6.434 -0.0371  0.4269  0.9067
12813TIP3    H259931   0.781   3.284   6.515 -0.8441 -0.1374  0.3150
12814TIP3   OH259932   3.362   0.016  12.362  0.0340  0.9851 -0.4038
12814TIP3    H159933   3.371  -0.036  12.441  0.5961  0.3156 -0.8910
12814TIP3    H259934   3.321   0.098  12.391 -0.9837  0.2285  0.3508
12815TIP3   OH259935   5.524   5.040  16.100  0.1020 -0.0649  0.3538
12815TIP3    H159936   5.441   5.078  16.073  0.3823  0.6161  0.4360
12815TIP3    H259937   5.528   4.956  16.054 -1.4187 -0.9316  1.6824
12816TIP3   OH259938   1.724   0.729   0.085 -0.2297  0.4983  0.9409
12816TIP3    H159939   1.712   0.635   0.089 -2.1014  0.5315 -1.4445
12816TIP3    H259940   1.638   0.766   0.105 -0.5646  1.4579 -1.7856
12817TIP3   OH259941   6.095   4.730  15.749 -0.2490 -0.4305 -0.3847
12817TIP3    H159942   6.069   4.648  15.791 -0.1279 -0.1282  0.2947
12817TIP3    H259943   6.119   4.705  15.660 -1.3796 -0.9409 -0.5527
12818TIP3   OH259944   0.719   5.322   4.925  0.0269  0.1025  0.2505
12818TIP3    H159945   0.686   5.319   4.835  0.8845 -0.3510 -0.0632
12818TIP3    H259946   0.814   5.320   4.916  0.1374 -2.0004  1.2173
12819TIP3   OH259947   0.920   0.505  11.875 -0.2594 -0.3000  0.1986
12819TIP3    H159948   0.848   0.513  11.937 -1.1528  2.2687 -1.0192
12819TIP3    H259949   0.878   0.496  11.789  0.8723  0.1087 -0.4273
12820TIP3   OH259950   1.823   1.082   1.890 -0.1264  0.5382 -0.3787
12820TIP3    H159951   1.913   1.069   1.860  0.4343  0.1788  1.3930
12820TIP3    H259952   1.770   1.068   1.811  1.3216  0.3194 -1.3556
12821TIP3   OH259953   6.651   5.652  13.351  0.5731 -0.2226 -0.1256
12821TIP3    H159954   6.741   5.634  13.377  1.1265 -0.5732 -2.0663
12821TIP3    H259955   6.655   5.660  13.255 -1.3138  0.6247 -0.1884
12822TIP3   OH259956   5.808   3.241  11.917 -0.2110 -0.3076  0.1752
12822TIP3    H159957   5.887   3.201  11.879 -0.9255 -1.4853 -0.1159
12822TIP3    H259958   5.825   3.241  12.011  0.5545  0.4065  0.0561
12823TIP3   OH259959   3.537   6.179  13.328  0.2028  0.2098 -0.0585
12823TIP3    H159960   3.521   6.087  13.350  0.3365  0.4049  0.8694
12823TIP3    H259961   3.476   6.197  13.256  1.3112 -1.0599 -1.3895
12824TIP3   OH259962   4.867   6.530  10.538 -0.1245 -0.1212  0.5338
12824TIP3    H159963   4.811   6.483  10.477 -0.0927 -1.1457  1.2702
12824TIP3    H259964   4.931   6.574  10.482 -0.2190 -0.8715 -0.1901
12825TIP3   OH259965   4.999   1.174   0.963  0.5480 -0.1462 -0.1271
12825TIP3    H159966   4.934   1.118   0.921 -0.3484  0.9546 -0.2652
12825TIP3    H259967   4.986   1.159   1.057  1.4213 -1.3622 -0.1831
12826TIP3   OH259968   6.358   5.242   1.069 -0.6688 -0.2120 -0.5446
12826TIP3    H159969   6.310   5.208   1.145 -1.0326 -0.5616 -0.9315
12826TIP3    H259970   6.368   5.167   1.011 -1.6845  0.3754 -1.5173
12827TIP3   OH259971   3.181   1.217  15.261  0.1933 -0.3033  0.0822
12827TIP3    H159972   3.125   1.181  15.330  1.6818 -2.2414  0.3648
12827TIP3    H259973   3.205   1.141  15.207  0.9632  0.7915 -1.1713
12828TIP3   OH259974   4.921   6.454   5.412  0.1728 -0.1383 -0.5947
12828TIP3    H159975   4.842   6.434   5.463  1.7753 -1.8970  1.3424
12828TIP3    H259976   4.927   6.550   5.416 -0.6950 -0.1039  1.1036
12829TIP3   OH259977   0.189   1.310  15.253  0.7057  0.0633  0.2020
12829TIP3    H159978   0.236   1.321  15.336 -0.0917 -1.2567  0.8702
12829TIP3    H259979   0.142   1.227  15.263 -0.3381  0.4526 -1.1255
12830TIP3   OH259980   0.351   5.606  16.253 -0.1027 -0.4876  0.2077
12830TIP3    H159981   0.336   5.593  16.160 -0.2539  3.6447 -0.5591
12830TIP3    H259982   0.263   5.610  16.291 -0.1045 -0.5810  0.2125
12831TIP3   OH259983   1.103   4.409  11.631  0.9934 -0.1768 -0.0194
12831TIP3    H159984   1.064   4.496  11.635  1.6360  0.0835  1.7156
12831TIP3    H259985   1.181   4.415  11.686  2.4957 -1.1681 -1.9022
12832TIP3   OH259986   5.285   3.645   1.090 -0.0491  0.1986 -0.4192
12832TIP3    H159987   5.226   3.619   1.161  0.5592  0.8114  0.3262
12832TIP3    H259988   5.235   3.629   1.010 -0.6641 -0.7242  0.1307
12833TIP3   OH259989   1.707   2.950  14.989  0.4565  0.2548  0.0104
12833TIP3    H159990   1.680   2.951  15.081  3.5045 -2.1735  1.0993
12833TIP3    H259991   1.802   2.961  14.991  0.7621 -0.8784 -2.7591
12834TIP3   OH259992   6.223   2.586   1.379  0.0347 -0.0733  0.0282
12834TIP3    H159993   6.175   2.639   1.315 -0.5036 -0.9252 -0.2891
12834TIP3    H259994   6.270   2.522   1.327  1.4321  0.6413  0.3465
12835TIP3   OH259995   2.046   6.253   3.561  0.5748  0.3465 -0.0564
12835TIP3    H159996   2.002   6.199   3.496 -0.6752  2.5734 -1.1754
12835TIP3    H259997   2.136   6.221   3.562 -0.3043 -2.4213  0.1748
12836TIP3   OH259998   0.114   1.681  17.281 -0.2521 -0.5848 -0.0950
12836TIP3    H159999   0.114   1.670  17.186  0.5781  0.9388 -0.2949
12836TIP3    H260000   0.205   1.672  17.307 -0.6182 -2.2111  0.7470
12837TIP3   OH260001   1.333   4.062  14.290 -0.0982 -0.0830  0.1287
12837TIP3    H160002   1.418   4.088  14.256  0.0149 -0.2389  0.2934
12837TIP3    H260003   1.290   4.017  14.216 -0.9150  1.9022 -0.6755
12838TIP3   OH260004   1.296   3.433  16.677 -0.2879 -0.2362 -0.6319
12838TIP3    H160005   1.222   3.418  16.737  0.0116 -2.1123 -0.6759
12838TIP3    H260006   1.369   3.389  16.719  1.7197  4.0653  0.9673
12839TIP3   OH260007   5.311   3.921   2.970 -0.5143 -0.1251  0.2198
12839TIP3    H160008   5.333   3.892   3.059  0.0803  0.1669  0.1739
12839TIP3    H260009   5.395   3.942   2.930 -0.8009  0.0151 -0.3234
12840TIP3   OH260010   5.239   0.991   3.572 -0.0443  0.1480  0.8100
12840TIP3    H160011   5.259   1.042   3.494  0.2766  0.1216  0.8739
12840TIP3    H260012   5.255   0.900   3.546 -0.1581  0.1192  0.8389
12841TIP3   OH260013   2.449   3.208   2.241  0.0902 -0.0550  0.1931
12841TIP3    H160014   2.503   3.275   2.199 -2.7778  1.1771 -1.8098
12841TIP3    H260015   2.463   3.221   2.335  2.4328  0.8341 -0.2215
12842TIP3   OH260016   5.803   4.045  12.175  0.2375 -0.3955 -0.1251
12842TIP3    H160017   5.774   4.130  12.206  1.2313 -0.1170  0.0720
12842TIP3    H260018   5.736   4.018  12.112  0.7670  1.3265 -1.5160
12843TIP3   OH260019   2.215   4.286   5.326  0.0131 -0.2225  0.3666
12843TIP3    H160020   2.165   4.207   5.304 -1.5185  0.2373  1.9868
12843TIP3    H260021   2.298   4.253   5.361 -0.8052 -1.1744  1.5048
12844TIP3   OH260022   0.158   6.044  10.942  0.0961 -0.0091 -0.4013
12844TIP3    H160023   0.222   6.113  10.960 -1.1006  1.1784 -0.5574
12844TIP3    H260024   0.156   6.037  10.847 -0.0168 -0.0410 -0.3965
12845TIP3   OH260025   0.964   4.588   3.677 -0.2179  0.0377 -0.6132
12845TIP3    H160026   0.966   4.681   3.654  1.0915  0.1386 -0.1942
12845TIP3    H260027   0.892   4.580   3.739 -0.2734  0.7982 -0.5690
12846TIP3   OH260028   2.440   4.790  17.113 -0.5019 -0.3436  0.2211
12846TIP3    H160029   2.374   4.747  17.167 -1.3480 -0.2164 -0.6847
12846TIP3    H260030   2.524   4.765  17.152 -1.0796 -0.4282  1.4462
12847TIP3   OH260031   1.304   0.819   0.464 -0.3493 -0.6578  0.0482
12847TIP3    H160032   1.260   0.738   0.439  0.8759 -1.1225 -0.6958
12847TIP3    H260033   1.327   0.808   0.556  2.0418 -2.2812 -0.6393
12848TIP3   OH260034   2.655   2.359   1.838 -0.7472 -0.5053  0.1361
12848TIP3    H160035   2.605   2.288   1.878 -1.0418 -0.7172 -0.6015
12848TIP3    H260036   2.739   2.318   1.814  0.2638  0.0921  2.3370
12849TIP3   OH260037   1.386   3.357   2.431 -0.5325 -0.5721 -0.2275
12849TIP3    H160038   1.425   3.293   2.490 -2.1326 -1.3264  0.0823
12849TIP3    H260039   1.435   3.438   2.447  0.9944 -1.4955 -0.0390
12850TIP3   OH260040   0.751   4.032  14.125  0.0910  0.2847  0.2862
12850TIP3    H160041   0.840   4.034  14.090  0.3183  1.6228  0.8752
12850TIP3    H260042   0.695   4.058  14.051  0.0903 -1.1540 -0.2594
12851TIP3   OH260043   5.846   2.017  15.197  0.0212 -0.2859 -0.1078
12851TIP3    H160044   5.920   1.967  15.162  0.4151  0.3107 -0.1504
12851TIP3    H260045   5.784   2.022  15.125  0.6535  0.5869 -0.6183
12852TIP3   OH260046   1.563   5.618   2.075  0.4906 -0.3639  0.6180
12852TIP3    H160047   1.493   5.678   2.103  1.5779  0.6265  1.3150
12852TIP3    H260048   1.517   5.548   2.029 -0.8369  1.0655 -0.3523
12853TIP3   OH260049   4.173   3.311   4.724  0.3703  0.3311 -0.2685
12853TIP3    H160050   4.130   3.375   4.667 -1.5195 -0.7486 -0.1679
12853TIP3    H260051   4.245   3.359   4.764  0.5146  1.6803 -2.0175
12854TIP3   OH260052   3.678   0.644  16.633  0.0683 -0.6620  0.5232
12854TIP3    H160053   3.705   0.701  16.561 -0.6101  1.6230  1.9642
12854TIP3    H260054   3.602   0.598  16.599 -2.6283  3.1193  0.7698
12855TIP3   OH260055   2.548   0.586  11.381 -0.0574 -0.1887 -0.1859
12855TIP3    H160056   2.478   0.527  11.355 -0.8929  1.1562 -1.0867
12855TIP3    H260057   2.609   0.530  11.430 -1.1849 -1.6148 -0.3360
12856TIP3   OH260058   0.418   5.565  12.416  0.4343  0.3059  0.5801
12856TIP3    H160059   0.327   5.585  12.394  0.0614 -1.9834 -0.2794
12856TIP3    H260060   0.456   5.533  12.334  1.2256 -1.2377  1.4906
12857TIP3   OH260061   1.850   4.166  13.001  0.1094 -0.2489  0.5163
12857TIP3    H160062   1.783   4.159  12.933 -0.2363 -1.6908  0.9588
12857TIP3    H260063   1.802   4.183  13.081  0.3060 -0.8114  0.7584
12858TIP3   OH260064   5.704   0.151   5.829  0.1447 -0.4351 -0.4517
12858TIP3    H160065   5.628   0.094   5.840  0.5230 -0.7589  0.6068
12858TIP3    H260066   5.778   0.099   5.859  0.8324 -0.1894 -1.6633
12859TIP3   OH260067   2.766   6.018   3.508 -0.0215  0.2459 -0.0320
12859TIP3    H160068   2.745   6.097   3.558  1.0940  0.4714  0.1048
12859TIP3    H260069   2.702   5.953   3.538 -0.3350  0.8202  0.5675
12860TIP3   OH260070   6.612   5.029  12.683  0.1169  0.2291  0.0442
12860TIP3    H160071   6.640   5.003  12.771 -0.3466  0.2684  0.2056
12860TIP3    H260072   6.671   4.980  12.624 -0.4898 -0.9094  0.3515
12861TIP3   OH260073   0.588   5.411  16.648 -0.4179 -0.6571 -0.2738
12861TIP3    H160074   0.571   5.408  16.742 -1.4844 -1.7690 -0.4800
12861TIP3    H260075   0.646   5.486  16.636 -1.9690  0.8068  1.0080
12862TIP3   OH260076   6.470   6.433  15.822 -1.0188 -0.1048 -0.3002
12862TIP3    H160077   6.390   6.467  15.863 -1.5836  0.3815 -1.7132
12862TIP3    H260078   6.493   6.500  15.757 -0.4635 -1.0677 -1.1132
12863TIP3   OH260079   5.988   0.350   4.116  0.3362 -0.1105 -0.0926
12863TIP3    H160080   5.934   0.277   4.084  1.2979 -1.5373  1.3796
12863TIP3    H260081   5.928   0.403   4.168 -0.8126  1.2431 -2.6277
12864TIP3   OH260082   2.465   1.466   6.000 -0.2425  0.5127  0.3218
12864TIP3    H160083   2.427   1.519   5.931  2.3455  1.8382 -0.2167
12864TIP3    H260084   2.559   1.483   5.994  0.4455 -2.2016  1.7981
12865TIP3   OH260085   5.573   1.752  12.684 -0.8980 -0.0818 -0.1234
12865TIP3    H160086   5.592   1.780  12.595  1.5818  1.4411  0.7917
12865TIP3    H260087   5.656   1.719  12.718 -2.2801 -2.8091  0.9739
12866TIP3   OH260088   3.160   0.580  17.293  0.0993 -0.4608 -0.1379
12866TIP3    H160089   3.121   0.624  17.218  0.7958 -1.4327 -1.1078
12866TIP3    H260090   3.211   0.649  17.337 -2.1137  0.6802  0.8226
12867TIP3   OH260091   6.144   3.833  15.446 -0.5605 -0.1615 -0.6036
12867TIP3    H160092   6.053   3.807  15.463 -0.5026 -0.2474 -0.4187
12867TIP3    H260093   6.176   3.768  15.384 -0.4638 -0.4434 -0.2614
12868TIP3   OH260094   5.060   1.383  13.540 -0.1619  0.1026 -0.1582
12868TIP3    H160095   4.991   1.410  13.479  0.4067 -0.6014 -1.1346
12868TIP3    H260096   5.122   1.333  13.487 -0.2623 -1.5919  1.2197
12869TIP3   OH260097   0.127   6.482   3.639  0.4590  0.1679 -0.2033
12869TIP3    H160098   0.216   6.482   3.675  0.2656 -0.4929  0.2977
12869TIP3    H260099   0.139   6.456   3.547  0.6245 -1.9942  0.3592
12870TIP3   OH260100   3.018   3.627  15.565  0.2683 -0.1367  0.0301
12870TIP3    H160101   3.050   3.717  15.566 -1.8153  0.7054  2.6141
12870TIP3    H260102   3.062   3.585  15.639 -0.9682 -0.3107  0.7025
12871TIP3   OH260103   4.542   4.122   4.686  0.7830  0.4232  0.0901
12871TIP3    H160104   4.447   4.118   4.669  0.5606 -1.2574  1.3753
12871TIP3    H260105   4.581   4.077   4.612  0.5045  0.3930 -0.0410
12872TIP3   OH260106   1.831   2.278  12.604  0.6834  0.2664 -0.7753
12872TIP3    H160107   1.914   2.231  12.608  0.2468 -0.4249  0.5198
12872TIP3    H260108   1.766   2.211  12.580  0.1793  0.3482  0.3203
12873TIP3   OH260109   0.372   3.386   4.110  0.4670  0.2259 -1.1088
12873TIP3    H160110   0.292   3.342   4.138  1.0324 -1.0123 -1.3684
12873TIP3    H260111   0.436   3.365   4.178  0.2445  2.4124 -0.1321
12874TIP3   OH260112   0.576   4.090  13.891 -0.3182  0.1674  0.3879
12874TIP3    H160113   0.530   4.169  13.862 -0.3593 -0.2741 -0.8131
12874TIP3    H260114   0.507   4.030  13.918 -0.2705  0.6683  1.7299
12875TIP3   OH260115   4.551   2.967   3.298 -0.1697  0.0609  0.2183
12875TIP3    H160116   4.459   2.962   3.271 -0.5008  0.5417  1.2154
12875TIP3    H260117   4.586   3.041   3.248 -0.5382  0.3732  0.4169
12876TIP3   OH260118   2.510   5.492  11.276  0.1523  0.2684  0.0174
12876TIP3    H160119   2.583   5.541  11.238 -0.0464  0.2511 -0.3939
12876TIP3    H260120   2.537   5.400  11.269  0.9075  0.3356  1.5807
12877TIP3   OH260121   3.589   1.331   0.192 -0.1785 -0.1383  0.2102
12877TIP3    H160122   3.626   1.419   0.202 -0.7797  0.1113  0.2849
12877TIP3    H260123   3.599   1.291   0.278 -1.1154  0.3461  0.5680
12878TIP3   OH260124   0.398   3.892  14.456 -0.3099 -0.1287  0.1647
12878TIP3    H160125   0.305   3.876  14.474 -0.1014  0.3508  1.9262
12878TIP3    H260126   0.402   3.983  14.430 -0.4873 -0.5460 -1.3937
12879TIP3   OH260127   6.735   2.713  15.939  0.3144 -0.5310  0.0962
12879TIP3    H160128   6.657   2.677  15.897 -0.1651 -0.3237  0.8135
12879TIP3    H260129   6.807   2.662  15.901 -0.2309 -1.2467  0.0050
12880TIP3   OH260130   3.404   3.582   3.651  0.3130  0.2863  0.2884
12880TIP3    H160131   3.408   3.517   3.581  0.0569  0.8117 -0.2172
12880TIP3    H260132   3.477   3.641   3.633 -0.1999  0.8522  0.0283
12881TIP3   OH260133   0.051   2.192   4.902 -0.5189  0.3245  0.1079
12881TIP3    H160134   0.133   2.187   4.951 -0.1794 -0.9650 -0.5254
12881TIP3    H260135  -0.017   2.194   4.969  0.0113  1.0726  0.6378
12882TIP3   OH260136   6.190   6.500  13.759 -0.6309 -0.0428 -0.3234
12882TIP3    H160137   6.222   6.549  13.835 -0.2069 -0.7550 -0.0364
12882TIP3    H260138   6.193   6.409  13.786 -0.5692 -0.2965 -1.1672
12883TIP3   OH260139   1.350   4.471   3.553 -0.0955 -0.0248  0.3420
12883TIP3    H160140   1.268   4.439   3.516  0.0079 -0.3458  0.3892
12883TIP3    H260141   1.331   4.562   3.577 -0.3834 -0.0421  0.1873
12884TIP3   OH260142   0.354   5.316   0.840  0.2964  0.1031 -0.0414
12884TIP3    H160143   0.391   5.392   0.884 -1.9111  1.0454  0.2919
12884TIP3    H260144   0.350   5.342   0.748  0.1636  0.1436 -0.0250
12885TIP3   OH260145   5.343   4.351  12.872 -0.4386  0.0360 -0.1298
12885TIP3    H160146   5.296   4.430  12.900  0.4369  1.0491 -1.4195
12885TIP3    H260147   5.411   4.339  12.938  0.2079  1.0997 -0.5852
12886TIP3   OH260148   2.791   4.187   5.940  0.2587 -0.3773  0.2540
12886TIP3    H160149   2.840   4.256   5.895 -0.4018  0.8330  1.3411
12886TIP3    H260150   2.702   4.195   5.907  0.4825 -1.8029 -0.8205
12887TIP3   OH260151   4.469   0.699  11.413 -0.1117 -0.0577  0.2978
12887TIP3    H160152   4.505   0.727  11.498 -0.2217  1.1964 -0.0459
12887TIP3    H260153   4.443   0.781  11.370  0.6147 -0.6022 -1.2477
12888TIP3   OH260154   5.697   2.986   3.672  0.1098  0.0317  0.3910
12888TIP3    H160155   5.729   3.040   3.600 -1.0447 -0.4231 -0.4972
12888TIP3    H260156   5.606   3.014   3.685 -0.2675 -1.1399  0.4294
12889TIP3   OH260157   5.471   4.191  15.058 -0.6662  0.0815 -0.2678
12889TIP3    H160158   5.411   4.134  15.010 -1.7578  0.8514  0.1390
12889TIP3    H260159   5.550   4.194  15.003  0.2647 -3.3796  0.6248
12890TIP3   OH260160   2.260   3.116  12.804 -0.0644  0.3470  0.4969
12890TIP3    H160161   2.295   3.204  12.789 -0.3164  0.1355 -1.7530
12890TIP3    H260162   2.336   3.058  12.799 -0.3021  0.1429 -1.6998
12891TIP3   OH260163   2.299   5.313   2.529  0.1808 -0.8922 -0.6114
12891TIP3    H160164   2.224   5.371   2.519  0.4457 -0.3304  0.5266
12891TIP3    H260165   2.372   5.359   2.487  0.3852 -0.3975  0.2687
12892TIP3   OH260166   1.696   3.069   2.755 -0.1267  0.8657  0.7548
12892TIP3    H160167   1.731   2.989   2.714 -2.0923 -0.1514  0.9484
12892TIP3    H260168   1.752   3.082   2.832  1.8152  1.1708 -0.6261
12893TIP3   OH260169   5.286   2.464  10.753 -0.2171 -0.0559  0.1555
12893TIP3    H160170   5.374   2.466  10.791 -0.1843  0.4276  0.0665
12893TIP3    H260171   5.266   2.556  10.736  0.1562 -0.3086 -1.9098
12894TIP3   OH260172   1.403   3.779  17.337  0.3408 -0.2825  0.2954
12894TIP3    H160173   1.497   3.763  17.335  0.2781 -0.6754  0.4684
12894TIP3    H260174   1.374   3.760  17.247  0.6259  1.1110 -0.1159
12895TIP3   OH260175   6.127   5.526   0.357 -0.1582 -0.3583 -0.0715
12895TIP3    H160176   6.175   5.505   0.277 -1.0975 -2.2951 -0.1961
12895TIP3    H260177   6.183   5.589   0.403  1.5918 -1.1151 -1.0563
12896TIP3   OH260178   2.933   5.894  12.622  0.2383  0.5785  0.6112
12896TIP3    H160179   2.978   5.870  12.702 -0.0468 -0.2099  0.5482
12896TIP3    H260180   2.840   5.899  12.647  0.0772 -0.2222  0.2286
12897TIP3   OH260181   0.579   1.858   5.803 -0.1846  0.2996  0.2027
12897TIP3    H160182   0.559   1.919   5.874 -0.4837 -0.5727  0.8943
12897TIP3    H260183   0.579   1.772   5.845 -2.4757 -0.4961 -1.2063
12898TIP3   OH260184   2.243   3.279   5.831  0.8858  0.0193 -0.0591
12898TIP3    H160185   2.304   3.351   5.847  2.6386 -1.9205  2.9657
12898TIP3    H260186   2.161   3.308   5.871  1.3089  0.7040  0.3266
12899TIP3   OH260187   6.743   5.604   5.289 -0.1173 -0.3507  0.0856
12899TIP3    H160188   6.723   5.535   5.226 -2.0288  1.3553 -1.3230
12899TIP3    H260189   6.833   5.630   5.268  0.3513 -1.8592  0.1400
12900TIP3   OH260190   0.234   6.420  15.665  0.4956  0.5399 -0.3972
12900TIP3    H160191   0.188   6.497  15.632 -0.6205 -0.0119 -0.1953
12900TIP3    H260192   0.231   6.429  15.761 -0.3120 -0.1109 -0.3482
12901TIP3   OH260193   3.237   0.208  11.222  0.0056 -0.0732  0.0439
12901TIP3    H160194   3.242   0.155  11.142 -0.4718  1.1517 -0.8187
12901TIP3    H260195   3.150   0.191  11.257 -0.1499  0.1471 -0.2358
12902TIP3   OH260196   5.911   4.473  11.563  0.3905 -0.1835 -0.2848
12902TIP3    H160197   5.889   4.421  11.641  2.1713 -0.0872  0.3280
12902TIP3    H260198   5.921   4.562  11.596 -0.6616  0.2079 -0.9820
12903TIP3   OH260199   1.204   3.006   3.547  0.2136  0.0654 -0.6029
12903TIP3    H160200   1.293   3.020   3.580  0.3215  2.1388 -1.5878
12903TIP3    H260201   1.196   2.911   3.538  2.5485 -0.1536 -1.0226
12904TIP3   OH260202   0.808   5.989   0.542  0.4460  0.2003 -0.0128
12904TIP3    H160203   0.775   5.986   0.632  1.9570 -0.9742  0.5518
12904TIP3    H260204   0.789   6.078   0.513  2.7949  1.7727  2.6801
12905TIP3   OH260205   6.648   1.986   2.380 -0.3256 -0.1781  0.2718
12905TIP3    H160206   6.623   1.990   2.472 -0.3897  0.9274  0.2106
12905TIP3    H260207   6.564   1.982   2.333 -0.4084  2.2116  0.1329
12906TIP3   OH260208   1.523   5.701   2.731  0.1479  0.0213 -0.2414
12906TIP3    H160209   1.569   5.745   2.660  0.1897 -0.2723 -0.3959
12906TIP3    H260210   1.592   5.668   2.788  0.1794 -1.4085 -1.0617
12907TIP3   OH260211   4.271   5.462   2.685 -0.0082  0.6153 -0.1499
12907TIP3    H160212   4.295   5.383   2.734  1.2751  0.7832 -0.4735
12907TIP3    H260213   4.177   5.473   2.702  0.3867  0.6843  2.2622
12908TIP3   OH260214   5.972   2.288  15.037  0.1902  0.1891  0.1172
12908TIP3    H160215   6.005   2.214  14.986 -1.6617 -0.6657  0.0813
12908TIP3    H260216   5.902   2.250  15.091  0.1390  1.6550  1.1385
12909TIP3   OH260217   1.196   1.589   4.245 -0.2512 -0.1056  0.2255
12909TIP3    H160218   1.245   1.562   4.168 -0.5097  1.7738 -0.6520
12909TIP3    H260219   1.262   1.619   4.307 -0.1299 -0.1503  0.1168
12910TIP3   OH260220   6.491   4.922  14.063  0.1134 -0.0389  0.0835
12910TIP3    H160221   6.525   4.952  14.147  0.2101  0.7712 -0.2389
12910TIP3    H260222   6.409   4.971  14.052 -0.3121 -0.7429  0.0813
12911TIP3   OH260223   4.044   0.130   5.535  0.1395 -0.1525  0.3139
12911TIP3    H160224   3.956   0.092   5.526  0.6170 -1.3078  0.2900
12911TIP3    H260225   4.040   0.212   5.486 -0.7228 -0.5365 -0.2856
12912TIP3   OH260226   3.269   4.751   0.499  0.1027  0.2317 -0.3372
12912TIP3    H160227   3.278   4.727   0.591  2.9943 -0.4445 -0.6751
12912TIP3    H260228   3.175   4.764   0.486 -0.4007  0.3152  2.6656
12913TIP3   OH260229   0.469   0.643  13.623 -0.1978  0.4056 -0.8288
12913TIP3    H160230   0.540   0.693  13.584  0.5591 -0.7480 -0.9793
12913TIP3    H260231   0.428   0.598  13.550 -0.0952 -0.1509 -0.5477
12914TIP3   OH260232   0.678   5.135  11.513  0.0276  0.7438 -0.4287
12914TIP3    H160233   0.647   5.147  11.423 -1.9108 -0.4196  0.0246
12914TIP3    H260234   0.730   5.055  11.510 -0.9875  0.0540 -0.3467
12915TIP3   OH260235   1.407   0.511  14.110  0.5954 -0.4234  0.0863
12915TIP3    H160236   1.464   0.582  14.079  0.2429 -1.1814 -2.4698
12915TIP3    H260237   1.458   0.469  14.180  0.7847  2.3154  1.7455
12916TIP3   OH260238   0.742   4.975   4.529 -0.2633 -0.3066 -0.5451
12916TIP3    H160239   0.834   4.979   4.503 -0.1484  0.1324 -0.0852
12916TIP3    H260240   0.695   4.966   4.446  0.1048  0.9778 -0.9245
12917TIP3   OH260241   1.155   1.827   1.485  0.3531 -0.3942  0.3336
12917TIP3    H160242   1.212   1.853   1.412 -0.3903  0.6836  0.1230
12917TIP3    H260243   1.091   1.768   1.445  0.3777 -0.3727  0.2621
12918TIP3   OH260244   1.465   5.832   5.325 -0.3556 -0.3580  0.1780
12918TIP3    H160245   1.393   5.854   5.266  0.4685 -1.6825 -1.3722
12918TIP3    H260246   1.498   5.748   5.294  1.0849 -0.3741  1.6065
12919TIP3   OH260247   2.310   1.548  11.661 -0.0404  0.3454 -0.0557
12919TIP3    H160248   2.247   1.554  11.734 -0.2257  0.3891 -0.2189
12919TIP3    H260249   2.306   1.457  11.634  0.2764  0.2511  0.2077
12920TIP3   OH260250   0.530   2.309   0.992 -0.3920 -0.1535 -1.1755
12920TIP3    H160251   0.537   2.380   1.055 -3.7505  0.0101 -0.7639
12920TIP3    H260252   0.573   2.235   1.033 -2.6648 -0.1192  1.5263
12921TIP3   OH260253   4.771   3.047   0.349  0.0408 -0.0499 -0.3031
12921TIP3    H160254   4.865   3.061   0.350  0.0035  0.3126 -0.8765
12921TIP3    H260255   4.744   3.048   0.441  0.8188 -1.8082 -0.0201
12922TIP3   OH260256   3.947   5.509   4.812 -0.4792 -0.2682  0.2485
12922TIP3    H160257   4.014   5.526   4.745  1.1110  0.1135  1.8626
12922TIP3    H260258   3.958   5.416   4.834  1.1795  0.3302  2.1752
12923TIP3   OH260259   1.555   4.709   3.667  0.4498 -0.3598  0.1886
12923TIP3    H160260   1.645   4.737   3.680  0.1097  1.2823 -0.6346
12923TIP3    H260261   1.552   4.681   3.575 -0.6263  3.1743 -1.0230
12924TIP3   OH260262   1.903   4.569   4.532  0.5804  0.0524 -0.6028
12924TIP3    H160263   1.993   4.598   4.544  0.2761  1.5541 -1.6751
12924TIP3    H260264   1.910   4.479   4.501  1.6840 -0.0521 -0.0772
12925TIP3   OH260265   2.941   6.590   1.297 -0.3151 -0.0204 -0.2068
12925TIP3    H160266   2.907   6.634   1.219  1.0609  2.1069  0.3042
12925TIP3    H260267   2.899   6.634   1.370 -0.0687 -0.6255  0.3092
12926TIP3   OH260268   3.673   0.781  17.147 -0.5508 -0.2842 -0.5662
12926TIP3    H160269   3.652   0.738  17.065  0.3808 -1.8773 -0.0128
12926TIP3    H260270   3.768   0.780  17.151 -0.5627 -2.5312  1.6222
12927TIP3   OH260271   0.572   2.589   0.552  0.4044  0.3003  0.2381
12927TIP3    H160272   0.630   2.539   0.609 -0.4541 -0.2945  0.6129
12927TIP3    H260273   0.492   2.602   0.604  0.2996  1.3470 -0.1615
12928TIP3   OH260274   3.910   0.680   6.176  0.0024 -0.1703 -0.1616
12928TIP3    H160275   3.972   0.700   6.246 -0.5144  2.9997 -0.4312
12928TIP3    H260276   3.824   0.685   6.219 -0.2612  0.7304 -0.7602
12929TIP3   OH260277   2.573   1.338  11.525  0.5200 -0.5995 -0.3472
12929TIP3    H160278   2.627   1.366  11.598  0.4436 -0.2556 -0.4240
12929TIP3    H260279   2.557   1.245  11.542  1.9406 -0.9611 -0.8275
12930TIP3   OH260280   4.096   6.741  12.872 -0.2480 -0.5562  0.0234
12930TIP3    H160281   4.172   6.798  12.882  1.8520 -2.8677 -1.5456
12930TIP3    H260282   4.025   6.788  12.915  1.5878  2.6125 -0.1101
12931TIP3   OH260283   5.936   6.318  13.144  0.5734 -0.1699 -0.4956
12931TIP3    H160284   5.959   6.406  13.113  0.0617 -0.3073 -1.2918
12931TIP3    H260285   5.843   6.324  13.166  1.0856  0.1226  1.7669
12932TIP3   OH260286   6.676   2.904  13.375  0.1784 -0.5247  0.2726
12932TIP3    H160287   6.655   2.888  13.283 -0.4705 -1.6598  0.5965
12932TIP3    H260288   6.609   2.855  13.424  1.6587 -1.5656  1.3442
12933TIP3   OH260289   3.655   0.283   6.250 -0.0791 -0.1432 -0.1744
12933TIP3    H160290   3.575   0.231   6.254 -0.5846  0.6280 -0.0356
12933TIP3    H260291   3.694   0.275   6.337  0.8282 -1.7696 -0.6822
12934TIP3   OH260292   3.112   2.764  14.952  0.5928 -0.3331 -0.2699
12934TIP3    H160293   3.195   2.716  14.944  1.7261  1.1143  1.7339
12934TIP3    H260294   3.137   2.848  14.992 -1.5261  1.2274 -1.9832
12935TIP3   OH260295   4.462   2.546  16.559 -0.2857  0.0090  0.0306
12935TIP3    H160296   4.394   2.513  16.500  0.5546 -1.6477 -0.0998
12935TIP3    H260297   4.537   2.489  16.542  0.6090  0.7512  1.3148
12936TIP3   OH260298   0.690   0.207  15.184  0.7504 -0.3007  0.4941
12936TIP3    H160299   0.608   0.180  15.226 -0.5704  0.8973 -1.1397
12936TIP3    H260300   0.735   0.125  15.165 -0.9477 -1.1250 -0.2174
12937TIP3   OH260301   2.599   5.421   3.721 -0.6344 -0.2369  0.0512
12937TIP3    H160302   2.630   5.440   3.632 -0.3588 -1.2753 -0.0935
12937TIP3    H260303   2.650   5.479   3.777 -1.0775  0.7055 -0.4886
12938TIP3   OH260304   2.495   5.105  13.255 -0.0457  0.7142  0.6544
12938TIP3    H160305   2.431   5.105  13.326  0.5594 -0.6901  1.2300
12938TIP3    H260306   2.522   5.013  13.247  0.8110  1.0476 -0.5650
12939TIP3   OH260307   1.313   2.633  14.256 -0.1086  0.1922 -0.1723
12939TIP3    H160308   1.315   2.538  14.260 -0.7008  0.1928  0.2498
12939TIP3    H260309   1.336   2.662  14.344 -0.5883  0.4271 -0.1216
12940TIP3   OH260310   0.521   2.969  16.795 -0.1353  0.6033  0.0141
12940TIP3    H160311   0.596   2.925  16.835 -1.6444 -1.7204  0.4652
12940TIP3    H260312   0.548   2.986  16.705  0.5768 -1.2473 -0.1653
12941TIP3   OH260313   6.620   0.890  13.123 -0.3083 -0.2715  0.0167
12941TIP3    H160314   6.650   0.800  13.110 -1.0656 -0.3480 -1.3992
12941TIP3    H260315   6.576   0.888  13.208  1.3244 -0.7702  0.8806
12942TIP3   OH260316   4.264   4.096   4.658  0.6881  0.7496  0.2715
12942TIP3    H160317   4.236   4.176   4.613  1.2519  1.5371  1.2921
12942TIP3    H260318   4.213   4.094   4.739 -2.7783 -2.3430 -1.6472
12943TIP3   OH260319   1.844   4.277  13.437 -0.1904  0.2774  0.3184
12943TIP3    H160320   1.809   4.196  13.476  1.3286 -0.9884 -0.8260
12943TIP3    H260321   1.793   4.289  13.357  0.1121 -0.0027  0.0814
12944TIP3   OH260322   2.044   6.011  15.770  0.1314  0.0493 -0.8641
12944TIP3    H160323   2.004   6.074  15.830  0.7582 -0.6739  0.3710
12944TIP3    H260324   2.118   6.058  15.732 -0.3831  0.5760 -1.2274
12945TIP3   OH260325   4.796   5.477  15.694  0.2894 -0.4731 -0.2058
12945TIP3    H160326   4.814   5.560  15.737  1.6201 -0.2323 -1.1366
12945TIP3    H260327   4.759   5.421  15.762  0.3265  0.5679  0.6836
12946TIP3   OH260328   1.870   4.278   2.567 -0.3472  0.1885  0.2534
12946TIP3    H160329   1.926   4.350   2.538 -0.4418  0.6450  1.1701
12946TIP3    H260330   1.838   4.238   2.486  1.4644 -0.2273 -0.3104
12947TIP3   OH260331   1.046   0.654   1.462 -0.0433  0.6161  0.2256
12947TIP3    H160332   0.984   0.703   1.408  1.2740 -0.5621 -2.5502
12947TIP3    H260333   1.099   0.605   1.400  0.0551 -2.8021  2.6981
12948TIP3   OH260334   4.078   2.599   1.113  0.6627  0.6042 -0.5540
12948TIP3    H160335   3.988   2.587   1.142  0.0102  1.2319 -2.2479
12948TIP3    H260336   4.126   2.619   1.194 -0.7255  0.4543  0.3451
12949TIP3   OH260337   5.586   6.609  12.275 -0.1818  0.2648 -0.0308
12949TIP3    H160338   5.660   6.578  12.326  1.4247  3.1721 -0.3363
12949TIP3    H260339   5.593   6.565  12.190  0.4987 -0.3684  0.3556
12950TIP3   OH260340   2.982   4.881  12.863  0.3326 -0.9810 -0.0188
12950TIP3    H160341   2.908   4.826  12.891  1.3204 -1.0361  2.8025
12950TIP3    H260342   2.964   4.967  12.903  0.1037  0.0594 -2.2269
12951TIP3   OH260343   6.377   2.855  14.414 -0.6329 -0.0785 -0.8284
12951TIP3    H160344   6.397   2.778  14.360 -1.5825 -1.0123  0.1168
12951TIP3    H260345   6.303   2.828  14.468  0.4511  0.7218  1.1435
12952TIP3   OH260346   0.739   1.968  16.607 -0.2468 -0.9070  0.0876
12952TIP3    H160347   0.702   1.883  16.585  0.7406 -1.3970  0.3081
12952TIP3    H260348   0.831   1.952  16.624  0.1266  0.3263 -0.5877
12953TIP3   OH260349   4.816   0.803  14.392  0.1788 -0.1496  0.1429
12953TIP3    H160350   4.744   0.740  14.387  1.0459 -1.2744  1.1689
12953TIP3    H260351   4.880   0.771  14.330  0.0362  0.5502 -0.3775
12954TIP3   OH260352   4.837   5.141   5.518  0.0553 -0.1236  0.1175
12954TIP3    H160353   4.779   5.148   5.442  1.4139 -1.8120 -1.1568
12954TIP3    H260354   4.854   5.232   5.544 -0.4892  0.4938 -1.5717
12955TIP3   OH260355   2.339   5.005  11.178  0.0174  0.1430 -0.0340
12955TIP3    H160356   2.389   4.964  11.108  1.0596  2.2169 -0.6023
12955TIP3    H260357   2.249   4.977  11.164  0.6266 -1.7269 -0.4785
12956TIP3   OH260358   1.210   1.539  16.080  0.2487  0.8326 -0.2364
12956TIP3    H160359   1.160   1.555  15.999 -0.9686 -1.4592 -0.0056
12956TIP3    H260360   1.208   1.445  16.091  2.8066  0.8450  1.0309
12957TIP3   OH260361   6.773   6.073   3.363 -0.0806  0.3463  0.0336
12957TIP3    H160362   6.848   6.020   3.335  0.9726  0.2000  2.8842
12957TIP3    H260363   6.696   6.020   3.339  0.8973 -1.7458  1.3196
12958TIP3   OH260364   0.459   3.883   4.021 -0.3573 -0.2293  0.3884
12958TIP3    H160365   0.384   3.922   3.977  0.6733  0.1592 -1.0583
12958TIP3    H260366   0.431   3.793   4.040 -2.0155  0.5389  1.9967
12959TIP3   OH260367   2.852   2.150  13.458 -0.1120  0.1642 -0.1734
12959TIP3    H160368   2.847   2.240  13.491  0.6760  0.4854 -0.8837
12959TIP3    H260369   2.814   2.097  13.528 -1.0359  1.0919  0.0466
12960TIP3   OH260370   3.726   6.176  12.427 -0.5006  0.7616 -0.4000
12960TIP3    H160371   3.738   6.247  12.489 -1.7531  0.3871  0.3080
12960TIP3    H260372   3.674   6.110  12.475  0.7333 -0.6904 -0.9783
12961TIP3   OH260373   3.177   2.933  11.377  0.4931  0.2385  0.2130
12961TIP3    H160374   3.102   2.990  11.396  0.5588 -0.1393  1.7164
12961TIP3    H260375   3.179   2.928  11.281  0.7384  3.0759 -0.0222
12962TIP3   OH260376   1.637   1.991  11.140  0.0966  0.0039 -0.1455
12962TIP3    H160377   1.558   1.946  11.109  0.5252 -1.4638  0.7503
12962TIP3    H260378   1.641   2.071  11.089 -1.1441 -0.6229 -1.2897
12963TIP3   OH260379   5.812   6.453  12.388 -0.1165  0.0519 -0.4113
12963TIP3    H160380   5.874   6.467  12.317 -0.0839  3.0225  0.0629
12963TIP3    H260381   5.863   6.464  12.468 -0.7203 -0.1940  0.0184
12964TIP3   OH260382   4.541   3.343   4.608 -0.6296 -0.2455 -0.2563
12964TIP3    H160383   4.480   3.404   4.648  0.3703 -0.2127  1.3210
12964TIP3    H260384   4.589   3.395   4.543 -0.2765  0.4891  0.5768
12965TIP3   OH260385   3.993   2.698  14.417 -0.0308 -0.1482  0.0242
12965TIP3    H160386   4.064   2.717  14.479 -0.3703 -0.5574  0.5505
12965TIP3    H260387   4.001   2.604  14.400  0.0223 -0.0488 -0.5105
12966TIP3   OH260388   5.901   5.295   0.506 -0.3164  0.1881 -0.0579
12966TIP3    H160389   5.925   5.365   0.568 -1.5691  1.3903 -0.8783
12966TIP3    H260390   5.808   5.279   0.523  0.5648 -3.6315  2.3249
12967TIP3   OH260391   2.024   5.675   3.484  0.1872 -0.6551 -0.0672
12967TIP3    H160392   2.117   5.691   3.499  0.0993 -1.4686  1.5040
12967TIP3    H260393   1.995   5.624   3.560 -2.2869  2.3354  1.2541
12968TIP3   OH260394   3.588   4.300  11.707  0.1072  0.0077  0.2662
12968TIP3    H160395   3.668   4.251  11.727  0.1236 -0.1947 -0.2794
12968TIP3    H260396   3.619   4.380  11.664 -0.0359 -0.7979 -1.4185
12969TIP3   OH260397   0.160   0.370  13.533 -0.1308  0.3277 -0.4783
12969TIP3    H160398   0.180   0.406  13.620 -0.4706  1.0501 -0.6965
12969TIP3    H260399   0.142   0.447  13.479  1.7818  0.0329 -1.6414
12970TIP3   OH260400   1.983   0.357  13.758 -0.1466 -0.2561 -0.1082
12970TIP3    H160401   2.053   0.371  13.823 -0.0023  0.1734 -0.3467
12970TIP3    H260402   1.931   0.438  13.761 -1.7950 -1.3164  1.4350
12971TIP3   OH260403   6.308   6.610   1.975 -0.0240 -0.0317 -0.1434
12971TIP3    H160404   6.279   6.528   1.935 -0.6124 -0.5789  1.3257
12971TIP3    H260405   6.247   6.676   1.941 -0.7649 -0.5536  0.1432
12972TIP3   OH260406   0.425   2.782   1.674  0.6933 -0.5165  0.2955
12972TIP3    H160407   0.368   2.732   1.616  0.5322  0.7680 -0.7214
12972TIP3    H260408   0.389   2.768   1.762 -1.8775  1.0478 -0.3941
12973TIP3   OH260409   2.103   3.098  11.540  0.1950  0.3076 -0.3659
12973TIP3    H160410   2.168   3.151  11.493  0.4152  0.8016  0.4542
12973TIP3    H260411   2.026   3.099  11.484  1.5395 -2.1829 -2.4907
12974TIP3   OH260412   4.243   0.035   6.175 -0.6041 -0.7793 -0.2435
12974TIP3    H160413   4.297  -0.044   6.175 -0.3693 -0.6201 -0.3593
12974TIP3    H260414   4.265   0.079   6.256 -0.1316 -0.4265 -0.5580
12975TIP3   OH260415   1.187   5.947   3.382  0.7797 -0.1532 -0.5581
12975TIP3    H160416   1.193   5.923   3.289  0.5576  0.2076 -0.6693
12975TIP3    H260417   1.253   5.893   3.425  0.9480 -0.2565 -0.9389
12976TIP3   OH260418   1.570   2.729  17.427  0.0773 -0.1096 -0.1855
12976TIP3    H160419   1.505   2.728  17.497 -0.1769 -0.3620 -0.4203
12976TIP3    H260420   1.570   2.639  17.393  0.4472 -0.0742 -0.2796
12977TIP3   OH260421   2.966   5.083  13.029  0.3591 -0.0572 -0.3889
12977TIP3    H160422   2.956   5.028  13.106 -0.3923  3.5171  2.3427
12977TIP3    H260423   2.922   5.165  13.051 -1.0898  0.8221 -5.2114
12978TIP3   OH260424   2.023   4.343   4.399  0.7219  0.0307 -0.0507
12978TIP3    H160425   1.960   4.280   4.434 -0.2795  2.1530  2.2868
12978TIP3    H260426   2.092   4.289   4.360 -1.3010 -2.4244 -0.5453
12979TIP3   OH260427   3.465   2.230  13.392 -0.2589  0.1281  0.0860
12979TIP3    H160428   3.519   2.194  13.322  0.3122 -0.0102  0.5856
12979TIP3    H260429   3.527   2.253  13.461 -0.8041  0.3038  0.5297
12980TIP3   OH260430   0.419   4.303   5.103  0.6195  0.8180  0.3631
12980TIP3    H160431   0.486   4.241   5.072  0.7711  1.1970 -0.0626
12980TIP3    H260432   0.346   4.247   5.129  0.4153  0.5016 -0.8421
12981TIP3   OH260433   2.655   5.242  16.284  0.0126 -0.3475  0.9203
12981TIP3    H160434   2.654   5.156  16.241 -0.3180  0.4095 -0.6618
12981TIP3    H260435   2.565   5.255  16.313  0.0834 -0.5799  1.2405
12982TIP3   OH260436   6.438   1.991   5.370 -0.5294  0.6352 -0.2359
12982TIP3    H160437   6.443   1.983   5.274  0.6021  0.2067 -0.1559
12982TIP3    H260438   6.356   2.038   5.386 -0.9648  0.3037 -1.3939
12983TIP3   OH260439   0.140   5.087  15.490  0.3972  0.2236  0.2779
12983TIP3    H160440   0.045   5.097  15.482  0.4140  0.3298  0.2065
12983TIP3    H260441   0.151   5.010  15.545  0.2672  0.5344  0.7432
12984TIP3   OH260442   6.016   3.601   2.635  0.0290  0.3321  0.4106
12984TIP3    H160443   6.029   3.642   2.550  0.8789  2.4888  1.5055
12984TIP3    H260444   5.927   3.626   2.661  0.4731  1.3945  0.9864
12985TIP3   OH260445   4.904   5.635  12.372 -0.0657  0.4916 -0.0878
12985TIP3    H160446   4.880   5.598  12.457  0.4728 -0.4574 -0.3338
12985TIP3    H260447   4.827   5.620  12.317  0.9104 -2.4153 -0.8327
12986TIP3   OH260448   0.225   1.433   3.439 -0.1712  0.3737 -0.2375
12986TIP3    H160449   0.164   1.366   3.409 -1.0862  1.1957 -0.2687
12986TIP3    H260450   0.174   1.514   3.440  0.3282  0.7252  1.7317
12987TIP3   OH260451   3.995   5.329   2.803 -0.5330 -0.0688  0.5133
12987TIP3    H160452   3.999   5.246   2.851  0.2886 -0.9377 -0.9840
12987TIP3    H260453   3.928   5.379   2.848 -1.6674 -1.8895  0.9673
12988TIP3   OH260454   0.264   4.255  15.501  0.3873  0.2644  0.0199
12988TIP3    H160455   0.282   4.222  15.589 -1.1152 -2.2313 -0.5134
12988TIP3    H260456   0.350   4.266  15.461  1.0468 -1.3467  0.8986
12989TIP3   OH260457   3.600   5.410   3.631 -0.3381 -0.0126  0.2602
12989TIP3    H160458   3.660   5.449   3.695 -0.9737 -0.7256  1.3263
12989TIP3    H260459   3.651   5.341   3.589 -0.3726 -0.5782  1.1215
12990TIP3   OH260460   4.756   5.580   4.770 -0.2358  0.3439 -0.0187
12990TIP3    H160461   4.839   5.606   4.731  0.4934 -0.6545  0.8378
12990TIP3    H260462   4.759   5.614   4.859 -0.8284  0.4605 -0.0393
12991TIP3   OH260463   1.604   3.207  17.231 -0.0757  0.2079  0.5987
12991TIP3    H160464   1.554   3.134  17.268 -0.2398 -0.0552 -0.1349
12991TIP3    H260465   1.613   3.186  17.138  1.4019  0.2509  0.7089
12992TIP3   OH260466   1.469   5.636  17.166  0.1659  0.0915  0.0510
12992TIP3    H160467   1.429   5.568  17.112  0.1547  1.0296 -1.1585
12992TIP3    H260468   1.396   5.691  17.194  0.3809  0.6814 -0.5366
12993TIP3   OH260469   1.597   4.636   3.392 -0.7296  0.1656  0.1228
12993TIP3    H160470   1.557   4.655   3.308  0.7166 -1.2688 -0.9480
12993TIP3    H260471   1.690   4.656   3.380 -0.5079  0.0636  1.4247
12994TIP3   OH260472   6.070   6.318   6.358 -0.4523 -0.4224 -0.1897
12994TIP3    H160473   6.131   6.264   6.409 -0.2203 -0.9651 -1.0082
12994TIP3    H260474   5.997   6.334   6.417  0.2123 -0.2572  0.6163
12995TIP3   OH260475   4.539   2.640   1.013  0.5783 -0.0793  0.0498
12995TIP3    H160476   4.602   2.712   1.011  0.2172  0.2242 -0.8413
12995TIP3    H260477   4.581   2.573   1.067  2.0019 -0.1774 -1.1160
12996TIP3   OH260478   4.524   2.300   0.918  0.2439  0.0506  0.1964
12996TIP3    H160479   4.461   2.338   0.979 -0.5589  0.7117 -0.9949
12996TIP3    H260480   4.565   2.229   0.966 -3.3066 -2.1993  0.2289
12997TIP3   OH260481   6.336   3.018   4.378 -0.2462 -0.1745 -0.4676
12997TIP3    H160482   6.256   2.982   4.416  0.4352 -0.5624  0.6786
12997TIP3    H260483   6.348   3.102   4.421 -0.5649  0.3503 -1.3854
12998TIP3   OH260484   3.873   2.534  15.312  0.2356  0.0907 -0.1465
12998TIP3    H160485   3.846   2.509  15.401  0.5583 -1.5496 -0.4685
12998TIP3    H260486   3.930   2.610  15.325 -0.2358  0.2717  0.9887
12999TIP3   OH260487   4.292   0.740  12.276 -0.1279  0.3412 -0.5179
12999TIP3    H160488   4.294   0.834  12.290 -0.3001  0.4027 -0.9104
12999TIP3    H260489   4.309   0.728  12.183  0.1783 -0.0298 -0.4172
13000TIP3   OH260490   3.591   3.881  13.738  0.5358  0.1418 -0.6488
13000TIP3    H160491   3.551   3.798  13.711 -1.0384 -0.1928  2.3769
13000TIP3    H260492   3.529   3.948  13.710 -0.4162 -0.0958  0.8159
13001TIP3   OH260493   5.958   2.977  15.898 -0.0500 -0.2276 -0.4556
13001TIP3    H160494   5.998   2.891  15.909  0.0635 -0.0244  0.8740
13001TIP3    H260495   6.031   3.036  15.879  0.1103 -0.1197  0.4589
13002TIP3   OH260496   5.763   2.074   5.542 -0.1889 -0.3479  0.3600
13002TIP3    H160497   5.753   1.979   5.555 -2.2231 -0.3471 -0.8591
13002TIP3    H260498   5.733   2.113   5.624  0.6116 -0.7350  0.8509
13003TIP3   OH260499   3.264   0.117   3.567  0.2407 -0.0053  0.0401
13003TIP3    H160500   3.335   0.057   3.588  0.5847 -0.1511 -1.4453
13003TIP3    H260501   3.242   0.159   3.650 -0.2356 -2.4023  1.2073
13004TIP3   OH260502   0.136   6.562   1.487  0.5179  0.4695  0.1982
13004TIP3    H160503   0.061   6.503   1.497  0.9611 -0.4605 -1.5360
13004TIP3    H260504   0.211   6.512   1.517  0.5077  1.3530  1.8005
13005TIP3   OH260505   1.386   2.606   0.958  0.4773  0.2490  0.0154
13005TIP3    H160506   1.438   2.607   1.038  0.9172  1.9229 -0.2473
13005TIP3    H260507   1.376   2.514   0.937  1.8211 -0.1658  1.0526
13006TIP3   OH260508   5.153   0.520   4.053  0.4375  0.2505 -0.4639
13006TIP3    H160509   5.101   0.547   3.977  0.2292  1.2234  0.0051
13006TIP3    H260510   5.117   0.571   4.125 -0.5656 -1.9414  0.6811
13007TIP3   OH260511   2.914   4.876  14.828 -0.2908  0.4711 -0.1412
13007TIP3    H160512   2.828   4.918  14.833 -1.1432 -1.2272  0.3408
13007TIP3    H260513   2.976   4.949  14.823 -1.6605  1.7790  0.9045
13008TIP3   OH260514   4.088   5.515  12.909 -0.3249  0.3799  0.1725
13008TIP3    H160515   4.122   5.604  12.908 -0.8462  0.5839  0.2969
13008TIP3    H260516   4.086   5.489  12.817  0.2155  0.3438  0.1695
13009TIP3   OH260517   4.148   0.321   1.206  0.2812  0.4437 -0.0341
13009TIP3    H160518   4.076   0.376   1.173  0.9450  2.0731  1.0983
13009TIP3    H260519   4.118   0.291   1.292 -0.5608 -2.0360 -1.1010
13010TIP3   OH260520   3.802   1.888  15.337  0.0106 -0.1481  0.3277
13010TIP3    H160521   3.724   1.933  15.370  0.0980 -0.2516  0.6833
13010TIP3    H260522   3.841   1.848  15.415  0.4116 -0.1088  0.1498
13011TIP3   OH260523   6.606   2.973   6.174 -0.0582  0.1694  0.2887
13011TIP3    H160524   6.627   3.064   6.155  0.3597 -0.0061 -0.1046
13011TIP3    H260525   6.639   2.959   6.263  2.8801 -0.4843 -0.7713
13012TIP3   OH260526   6.133   5.134  16.316  0.0162 -0.4960  0.2836
13012TIP3    H160527   6.176   5.219  16.309  0.1501 -0.5737  0.1660
13012TIP3    H260528   6.192   5.073  16.272 -0.7193 -0.4166 -0.8759
13013TIP3   OH260529   0.484   0.046   5.502  0.4019  0.4007  0.0221
13013TIP3    H160530   0.496   0.004   5.417  0.1643  1.4708 -0.5504
13013TIP3    H260531   0.462  -0.026   5.561 -0.6605 -0.1990 -1.0679
13014TIP3   OH260532   0.917   4.040   3.756  0.2656 -0.1854  0.3282
13014TIP3    H160533   0.993   3.983   3.747 -0.1961 -0.5390 -1.7517
13014TIP3    H260534   0.920   4.097   3.680 -0.7859  0.7657  0.9620
13015TIP3   OH260535   2.278   6.162  15.273 -0.0010 -0.5402  0.2049
13015TIP3    H160536   2.253   6.234  15.215 -1.2509  1.2540  2.7324
13015TIP3    H260537   2.258   6.083  15.224 -1.9386  0.8546 -1.4443
13016TIP3   OH260538   0.170   3.841  11.487  0.1760  0.2322  0.2490
13016TIP3    H160539   0.180   3.872  11.397  0.6223 -1.0553 -0.1586
13016TIP3    H260540   0.115   3.764  11.480  1.9816 -1.1647  0.7861
13017TIP3   OH260541   5.687   4.219   0.646 -0.7443  0.2267  0.0034
13017TIP3    H160542   5.707   4.136   0.604 -0.3104  1.2596 -1.9698
13017TIP3    H260543   5.760   4.276   0.623 -1.4543  1.3995  0.5563
13018TIP3   OH260544   4.967   5.766  10.909 -0.2208  0.8706 -0.8699
13018TIP3    H160545   4.960   5.837  10.973  2.0705  0.4397 -0.0379
13018TIP3    H260546   5.040   5.792  10.852  1.6641 -1.3737  0.3408
13019TIP3   OH260547   4.439   3.467  13.096 -0.3031  0.0496  0.2692
13019TIP3    H160548   4.358   3.425  13.067 -0.4645  1.1689 -0.9881
13019TIP3    H260549   4.506   3.400  13.083 -0.5232  0.1855 -1.8639
13020TIP3   OH260550   6.405   5.413  16.566  0.0527  1.0247  0.1158
13020TIP3    H160551   6.321   5.372  16.545  0.2900  2.0027 -3.2694
13020TIP3    H260552   6.451   5.346  16.618 -0.8288 -1.7771 -2.3981
13021TIP3   OH260553   4.240   4.380   5.737  0.0235 -0.0204  0.3744
13021TIP3    H160554   4.257   4.408   5.827 -0.1025  0.5946  0.2070
13021TIP3    H260555   4.266   4.454   5.683  1.2169 -0.8017 -0.1852
13022TIP3   OH260556   2.250   2.453   2.039 -0.1307  0.2099 -0.4104
13022TIP3    H160557   2.243   2.427   2.131  4.2674 -1.3005 -0.2894
13022TIP3    H260558   2.232   2.372   1.990  1.5659 -0.0655 -0.6232
13023TIP3   OH260559   4.185   6.076  12.773 -0.4075 -0.3201 -0.2949
13023TIP3    H160560   4.115   6.134  12.801 -0.2068  0.9834 -2.2770
13023TIP3    H260561   4.141   5.995  12.747 -1.1534  0.3249 -1.0984
13024TIP3   OH260562   4.044   1.702   6.443  0.5194  0.1856  0.2222
13024TIP3    H160563   3.957   1.690   6.480  1.0055 -0.9724  1.0538
13024TIP3    H260564   4.040   1.658   6.357  0.3881 -0.2418  0.4419
13025TIP3   OH260565   6.142   6.064  14.311  0.1240 -0.1617 -1.0164
13025TIP3    H160566   6.061   6.113  14.325  1.6238  2.8007 -1.8126
13025TIP3    H260567   6.211   6.124  14.338  2.1428 -1.9711 -1.8800
13026TIP3   OH260568   4.858   1.670  11.583 -0.0068 -0.5180  0.0338
13026TIP3    H160569   4.832   1.624  11.504  1.1384  0.7439 -1.1394
13026TIP3    H260570   4.776   1.697  11.624 -0.6221  0.4552 -1.7534
13027TIP3   OH260571   1.365   5.963  10.660  0.3734 -0.0537 -0.4829
13027TIP3    H160572   1.309   5.905  10.712  0.4632  1.4371  1.3879
13027TIP3    H260573   1.340   6.051  10.686  3.0098  0.6975 -0.1312
13028TIP3   OH260574   4.330   4.275   2.567  0.4315  0.3557 -0.3947
13028TIP3    H160575   4.403   4.304   2.622  0.3698 -1.2329  0.5936
13028TIP3    H260576   4.253   4.285   2.623  0.6234 -3.4412  0.8333
13029TIP3   OH260577   1.703   2.933  14.058  0.0236  0.2416  0.1656
13029TIP3    H160578   1.660   2.847  14.059  1.2549 -0.3906  0.9166
13029TIP3    H260579   1.633   2.995  14.039 -1.0092 -0.8639  0.2850
13030TIP3   OH260580   2.122   0.699   2.672 -0.2391 -0.5808 -0.0651
13030TIP3    H160581   2.144   0.639   2.600 -1.9267  1.3537 -2.3636
13030TIP3    H260582   2.206   0.737   2.698  0.3477 -0.6535 -1.6991
13031TIP3   OH260583   5.312   0.488   1.066  0.1682 -0.6017  0.1031
13031TIP3    H160584   5.395   0.457   1.030  0.3209 -0.8152  0.6285
13031TIP3    H260585   5.274   0.541   0.996  0.4531 -1.0161 -0.3674
13032TIP3   OH260586   5.222   6.454   1.312 -0.6128 -0.1340 -0.2714
13032TIP3    H160587   5.176   6.410   1.240  1.2448  0.3731 -1.8761
13032TIP3    H260588   5.262   6.383   1.362  0.7855 -0.4328 -1.7190
13033TIP3   OH260589   6.749   5.205  13.767  0.6068 -0.2173  0.7369
13033TIP3    H160590   6.758   5.178  13.675  1.4445  0.2171  0.6863
13033TIP3    H260591   6.759   5.124  13.816 -0.5180 -0.5675  0.4307
13034TIP3   OH260592   6.098   1.439  16.997 -0.2533 -0.0344  0.1941
13034TIP3    H160593   6.050   1.520  16.980 -0.4425 -0.4799 -1.6628
13034TIP3    H260594   6.155   1.459  17.071 -1.9247  1.0870  1.2544
13035TIP3   OH260595   5.103   4.485   4.616 -0.0198 -0.4519  0.3154
13035TIP3    H160596   5.100   4.402   4.568 -0.1977  0.0170 -0.4959
13035TIP3    H260597   5.070   4.550   4.554 -2.7434 -0.1890  1.8628
13036TIP3   OH260598   0.566   0.381  16.831  0.0538  0.1133  0.0388
13036TIP3    H160599   0.572   0.297  16.785  0.4465  0.4087 -0.4611
13036TIP3    H260600   0.649   0.424  16.813  0.1538  0.2947  0.9237
13037TIP3   OH260601   5.105   4.301  17.191  0.1184  0.2478  0.1624
13037TIP3    H160602   5.166   4.256  17.249 -0.1914  1.6791  1.6975
13037TIP3    H260603   5.075   4.234  17.129  1.4508 -1.0227  0.8454
13038TIP3   OH260604   4.106   4.694   2.992 -0.4857  0.2125 -0.3199
13038TIP3    H160605   4.115   4.643   3.073  0.7222 -1.2172 -1.2862
13038TIP3    H260606   4.017   4.728   2.995 -0.4395  0.2904  1.6485
13039TIP3   OH260607   2.628   6.171  13.094 -0.4361 -0.0252  0.1593
13039TIP3    H160608   2.710   6.147  13.138 -0.7380 -3.6368 -0.9391
13039TIP3    H260609   2.652   6.179  13.001 -1.0846  0.4275  0.0217
13040TIP3   OH260610   6.304   6.296  16.864  0.1166 -0.3407 -0.1951
13040TIP3    H160611   6.363   6.232  16.904  0.4867 -0.6419 -1.1687
13040TIP3    H260612   6.290   6.362  16.931  0.8171 -0.7559  0.3720
13041TIP3   OH260613   0.208   3.878   3.214  0.1228 -0.0585 -0.3168
13041TIP3    H160614   0.224   3.833   3.297  0.9050  0.7072 -0.0375
13041TIP3    H260615   0.251   3.822   3.148  0.5631 -0.0392 -0.0506
13042TIP3   OH260616   0.758   2.742  11.809  0.5077  0.0960 -0.7330
13042TIP3    H160617   0.790   2.781  11.727  0.7157  1.0765 -0.1999
13042TIP3    H260618   0.835   2.702  11.849  0.4208 -0.3171 -0.9696
13043TIP3   OH260619   5.286   5.865   1.845 -0.2485 -0.8115  0.2765
13043TIP3    H160620   5.356   5.802   1.865  1.3433  0.7982  0.0242
13043TIP3    H260621   5.321   5.949   1.873 -1.3107  0.3278 -1.6095
13044TIP3   OH260622   1.020   6.500  15.990  0.2854  0.4914 -0.0389
13044TIP3    H160623   0.940   6.455  16.016 -0.8111  0.4936 -3.1191
13044TIP3    H260624   1.091   6.444  16.023 -0.9830 -0.8359  0.5386
13045TIP3   OH260625   3.337   6.333   5.672  0.3710  0.4803  0.5628
13045TIP3    H160626   3.384   6.261   5.630  0.1401  0.6553 -0.0138
13045TIP3    H260627   3.299   6.295   5.751 -2.0449 -0.7756 -1.0819
13046TIP3   OH260628   0.988   2.024   4.079  0.1129  0.0886  0.0935
13046TIP3    H160629   0.908   2.075   4.066 -0.1885 -0.5053 -0.3972
13046TIP3    H260630   0.958   1.934   4.091  0.7006 -0.1286 -0.0251
13047TIP3   OH260631   1.382   4.139  16.008 -0.6523  0.5602 -0.4798
13047TIP3    H160632   1.329   4.068  15.972 -0.2963 -1.2318  2.2683
13047TIP3    H260633   1.464   4.134  15.960 -0.8738 -0.4418 -0.7792
13048TIP3   OH260634   0.910   0.679  16.091  0.1561  0.0476  0.0644
13048TIP3    H160635   0.912   0.767  16.130 -0.1570  0.2519 -0.3679
13048TIP3    H260636   0.840   0.634  16.138  1.7320 -0.7110  1.7982
13049TIP3   OH260637   5.811   0.866   5.015  0.0764 -0.1420  0.4960
13049TIP3    H160638   5.863   0.942   5.041 -1.6209  0.5382  2.1013
13049TIP3    H260639   5.856   0.791   5.054  0.2159  0.3702  1.3401
13050TIP3   OH260640   2.512   4.354  12.694 -0.2726 -0.0632  0.5699
13050TIP3    H160641   2.476   4.439  12.669 -0.2281  1.0141  3.6862
13050TIP3    H260642   2.597   4.350  12.650 -0.0334  1.7893  0.7604
13051TIP3   OH260643   3.253   0.864   5.951  0.1508  0.2139 -0.8045
13051TIP3    H160644   3.180   0.824   5.997  1.7862 -2.3593 -0.2217
13051TIP3    H260645   3.271   0.945   6.000  0.1738 -1.1171  1.5622
13052TIP3   OH260646   6.098   3.972  16.383  0.1617 -0.5029  0.2546
13052TIP3    H160647   6.005   3.993  16.376  0.7233  1.6156 -3.1993
13052TIP3    H260648   6.106   3.884  16.346 -0.3873 -0.3086 -0.3389
13053TIP3   OH260649   3.608   5.908   5.857 -0.0802 -0.6776 -0.1485
13053TIP3    H160650   3.659   5.984   5.830  1.3465 -0.8784  1.7760
13053TIP3    H260651   3.590   5.861   5.776  1.5276  0.1982 -1.0572
13054TIP3   OH260652   3.224   0.591   1.532  0.5355  0.0399 -0.2217
13054TIP3    H160653   3.289   0.527   1.562  1.1090  0.9708  0.5710
13054TIP3    H260654   3.276   0.661   1.492  0.0546  0.8832  0.5904
13055TIP3   OH260655   5.917   5.938   6.131  0.0352 -0.0740 -0.0098
13055TIP3    H160656   5.995   5.974   6.174 -1.0044  0.4897  1.4646
13055TIP3    H260657   5.874   5.886   6.198 -0.9169 -0.3175 -0.7859
13056TIP3   OH260658   5.294   1.239   4.891 -0.2342  0.1167 -0.7464
13056TIP3    H160659   5.370   1.295   4.908 -0.6661  0.5349 -0.1432
13056TIP3    H260660   5.309   1.204   4.803 -0.8060  2.5967 -1.9068
13057TIP3   OH260661   0.354   1.219  12.091  0.0792  0.6217 -0.1156
13057TIP3    H160662   0.428   1.158  12.089  0.0396  0.5433  0.5290
13057TIP3    H260663   0.389   1.300  12.127 -0.3631  0.2521  1.2236
13058TIP3   OH260664   3.146   4.720  12.051  0.2167 -0.2904 -0.2378
13058TIP3    H160665   3.057   4.756  12.042  0.9817  1.2437 -2.7652
13058TIP3    H260666   3.134   4.640  12.101 -2.5899 -0.0698 -0.3595
13059TIP3   OH260667   4.743   4.684  14.782 -0.3547 -0.0247 -0.3139
13059TIP3    H160668   4.798   4.618  14.740 -1.5592 -0.3642 -1.4229
13059TIP3    H260669   4.789   4.706  14.863  0.9206 -0.9718 -0.7515
13060TIP3   OH260670   0.685   5.542  14.168 -0.3867 -1.0441 -0.5062
13060TIP3    H160671   0.754   5.607  14.184  0.3449 -1.4358 -1.9419
13060TIP3    H260672   0.684   5.489  14.247 -0.7006  0.4215  0.5238
13061TIP3   OH260673   4.569   3.736   1.871 -0.1727  0.4955  0.4265
13061TIP3    H160674   4.612   3.799   1.813 -1.6343 -0.0078 -1.3099
13061TIP3    H260675   4.637   3.672   1.891  0.7393  1.4261  0.4387
13062TIP3   OH260676   2.591   0.161  15.022 -0.4577  0.3924 -0.1326
13062TIP3    H160677   2.558   0.225  15.084  0.0948  0.4964  0.0606
13062TIP3    H260678   2.686   0.170  15.026 -0.2881 -1.3212  0.8636
13063TIP3   OH260679   3.801   3.025   4.553  0.1697 -0.3634 -1.3192
13063TIP3    H160680   3.706   3.028   4.565  0.1521 -2.2594 -0.6956
13063TIP3    H260681   3.814   3.057   4.464 -1.0492 -0.1220 -1.4355
13064TIP3   OH260682   3.440   5.469   3.417  0.4558  0.3529 -0.3177
13064TIP3    H160683   3.355   5.497   3.450 -0.1128 -1.7481  0.1515
13064TIP3    H260684   3.491   5.451   3.495  0.7238 -0.0857 -0.5885
13065TIP3   OH260685   1.970   3.791   1.212  0.4482 -0.2721  0.2180
13065TIP3    H160686   1.963   3.886   1.221  0.7799 -0.1442 -0.7632
13065TIP3    H260687   1.884   3.758   1.239  0.1058  0.3583 -0.0740
13066TIP3   OH260688   4.091   4.668  11.611 -0.5147 -0.6020 -0.4475
13066TIP3    H160689   4.173   4.677  11.563 -1.6658 -1.7911 -2.8156
13066TIP3    H260690   4.067   4.576  11.601 -1.0719 -0.8276  2.1387
13067TIP3   OH260691   0.721   3.773   4.758 -0.2710 -0.3887 -0.0245
13067TIP3    H160692   0.770   3.694   4.782 -0.6781 -0.5868  0.1473
13067TIP3    H260693   0.783   3.845   4.775  0.1754 -0.6788 -0.3834
13068TIP3   OH260694   1.476   2.158   2.514 -0.0724  0.8106 -1.1017
13068TIP3    H160695   1.502   2.149   2.422  1.5734  2.5817 -0.8579
13068TIP3    H260696   1.387   2.121   2.517 -0.7440  1.9775 -3.6840
13069TIP3   OH260697   3.076   4.581  17.226  0.2384 -0.1815  0.5717
13069TIP3    H160698   3.073   4.660  17.280  0.4944  0.1215  0.1485
13069TIP3    H260699   3.028   4.605  17.147  1.0295 -0.1720  0.0860
13070TIP3   OH260700   2.717   4.216  11.960  0.2320 -0.5915 -0.3477
13070TIP3    H160701   2.761   4.164  12.027  1.8589  1.6705  0.4907
13070TIP3    H260702   2.702   4.301  12.002  0.1673  0.5061 -2.4467
13071TIP3   OH260703   1.508   6.199  12.325 -0.0487  0.5127 -0.1357
13071TIP3    H160704   1.562   6.133  12.281 -0.7195 -0.0398 -0.1474
13071TIP3    H260705   1.529   6.189  12.417  0.5139  0.8976 -0.2165
13072TIP3   OH260706   2.687   4.573  12.488 -0.0486 -0.0149 -0.5029
13072TIP3    H160707   2.688   4.621  12.405  0.3842  0.8717 -0.0030
13072TIP3    H260708   2.724   4.634  12.551 -1.5568 -0.1879  0.6188
13073TIP3   OH260709   6.101   4.214   2.852 -0.0021 -0.1952  0.2416
13073TIP3    H160710   6.105   4.238   2.945 -0.5527  3.4623 -0.5430
13073TIP3    H260711   6.085   4.297   2.806 -4.2516 -2.3303 -2.8046
13074TIP3   OH260712   3.565   2.636  14.739 -0.1818 -0.2480 -0.0051
13074TIP3    H160713   3.498   2.678  14.686  0.5887  0.7929 -0.1895
13074TIP3    H260714   3.646   2.682  14.716  0.5414 -1.2365  0.4665
13075TIP3   OH260715   5.437   6.440   0.308 -0.0365 -0.4307  0.1461
13075TIP3    H160716   5.375   6.444   0.235 -2.3661 -0.8976  1.9878
13075TIP3    H260717   5.432   6.527   0.348 -0.2620 -0.8032  0.9206
13076TIP3   OH260718   4.550   1.614   0.617  0.1936 -0.4060 -0.1538
13076TIP3    H160719   4.529   1.649   0.530 -0.3065 -0.6445 -0.1325
13076TIP3    H260720   4.546   1.519   0.607  0.9673 -0.4558 -0.0683
13077TIP3   OH260721   6.452   4.016   2.188  0.0285 -0.7738 -0.3289
13077TIP3    H160722   6.525   3.994   2.247  0.9754  0.5293 -0.9773
13077TIP3    H260723   6.407   4.088   2.231  2.3250  2.0606 -2.3093
13078TIP3   OH260724   4.420   5.762  11.674 -0.2084  0.3411 -0.4666
13078TIP3    H160725   4.356   5.692  11.674 -0.1110  0.2007  1.1448
13078TIP3    H260726   4.391   5.821  11.744  0.8469  0.7890 -0.3812
13079TIP3   OH260727   1.484   5.722   4.179  0.4352  0.2313  0.4018
13079TIP3    H160728   1.575   5.700   4.201  0.6504 -0.0366 -0.6686
13079TIP3    H260729   1.433   5.689   4.252  1.1723  0.0527  0.8478
13080TIP3   OH260730   6.774   4.072  16.278 -0.0744  0.4844  0.2443
13080TIP3    H160731   6.751   4.099  16.367 -1.8072 -0.4007  0.1054
13080TIP3    H260732   6.721   4.128  16.222  1.0761  1.0987 -0.2750
13081TIP3   OH260733   6.285   0.169   6.267 -0.3420  0.1394 -0.7472
13081TIP3    H160734   6.278   0.142   6.359 -0.6821  2.1353 -0.1243
13081TIP3    H260735   6.231   0.106   6.219 -0.0514 -1.0193  0.3876
13082TIP3   OH260736   6.362   3.728   1.496 -0.0746 -0.1684 -0.3562
13082TIP3    H160737   6.446   3.729   1.451  0.7768  2.6228  1.1080
13082TIP3    H260738   6.384   3.731   1.589 -1.8204 -1.7452  0.1685
13083TIP3   OH260739   5.010   4.022  11.811 -0.2524  0.4451 -0.1427
13083TIP3    H160740   5.041   3.958  11.876 -0.8197 -0.4649 -0.7413
13083TIP3    H260741   4.942   4.072  11.857  2.5023  3.0317  1.4619
13084TIP3   OH260742   3.160   0.011   0.781  0.0646 -0.0329  0.1710
13084TIP3    H160743   3.153   0.014   0.876  1.8482 -1.5452  0.3902
13084TIP3    H260744   3.178  -0.080   0.760  0.8485  0.4607 -1.5200
13085TIP3   OH260745   2.476   1.834  13.072  0.1521  0.1760  0.4210
13085TIP3    H160746   2.476   1.746  13.034  0.4547 -0.5001  1.9040
13085TIP3    H260747   2.511   1.822  13.160 -0.8656  1.6028  1.0646
13086TIP3   OH260748   3.831   2.740   0.597  0.2562 -0.0192 -0.2749
13086TIP3    H160749   3.766   2.692   0.546  0.1816  0.2039 -0.3922
13086TIP3    H260750   3.837   2.692   0.680 -0.3813  0.2036 -0.0900
13087TIP3   OH260751   0.033   3.062   0.710 -0.8442 -0.3225 -0.1612
13087TIP3    H160752  -0.062   3.073   0.712 -0.8299 -0.2281 -0.0184
13087TIP3    H260753   0.067   3.133   0.764 -0.7357 -0.8367  0.4574
13088TIP3   OH260754   1.445   5.435  16.958 -0.4025 -0.3224  0.1194
13088TIP3    H160755   1.422   5.512  16.906 -0.8906 -0.9085 -0.5611
13088TIP3    H260756   1.528   5.405  16.921 -0.3401 -0.2679  0.2158
13089TIP3   OH260757   3.559   2.168   1.354  0.7811 -0.0017  0.2665
13089TIP3    H160758   3.502   2.242   1.330  1.0016  0.4112  0.9861
13089TIP3    H260759   3.648   2.202   1.344  0.9417 -0.7767 -1.2645
13090TIP3   OH260760   4.110   1.709  14.899  0.2662  0.3046  0.3141
13090TIP3    H160761   4.148   1.714  14.986 -1.2566  0.9206  0.9675
13090TIP3    H260762   4.144   1.626  14.863 -0.2165 -0.6901  2.0439
13091TIP3   OH260763   5.003   0.089  15.165  0.0702  0.5329 -0.1179
13091TIP3    H160764   4.946   0.029  15.118  2.1577 -1.7386  0.0673
13091TIP3    H260765   5.031   0.041  15.242  0.5992  2.3497  0.8840
13092TIP3   OH260766   1.777   6.370   4.938  0.1768 -0.3340 -0.0955
13092TIP3    H160767   1.802   6.461   4.922 -3.4140  0.6376 -1.0070
13092TIP3    H260768   1.796   6.356   5.031  1.1068  1.1780 -0.0225
13093TIP3   OH260769   0.104   3.933  14.285  0.0851  0.0211 -0.7438
13093TIP3    H160770   0.076   3.937  14.193 -1.1375  2.1123 -0.3333
13093TIP3    H260771   0.023   3.935  14.335  0.7720 -0.1487  0.4123
13094TIP3   OH260772   3.653   2.439   0.847 -0.0762  0.7956 -0.4924
13094TIP3    H160773   3.582   2.500   0.828  0.4799  1.4646 -0.4702
13094TIP3    H260774   3.609   2.361   0.883 -0.6765  1.8398  1.1222
13095TIP3   OH260775   1.719   2.234   0.001 -0.5101  0.1141 -0.0154
13095TIP3    H160776   1.647   2.171  -0.002 -0.1425 -0.2838 -0.9210
13095TIP3    H260777   1.687   2.304   0.057 -1.6742  0.0284 -0.5372
13096TIP3   OH260778   1.698   5.340   3.478 -0.4905 -0.3301  0.1790
13096TIP3    H160779   1.637   5.364   3.408  0.7734  3.9457  0.2412
13096TIP3    H260780   1.771   5.296   3.434 -1.1377 -0.5346 -0.6899
13097TIP3   OH260781   6.055   3.505  11.936 -0.1758  0.2888  0.5756
13097TIP3    H160782   6.137   3.548  11.913  0.1375 -0.9994 -0.8250
13097TIP3    H260783   5.997   3.522  11.862 -0.9033  0.4888  1.1810
13098TIP3   OH260784   1.653   1.515  12.639  0.5192  0.0397 -0.1748
13098TIP3    H160785   1.692   1.440  12.595  0.9691  0.7481 -1.0094
13098TIP3    H260786   1.562   1.488  12.656  0.2983 -0.2021 -1.6557
13099TIP3   OH260787   2.579   5.689   1.778 -0.1576 -0.8264 -0.1921
13099TIP3    H160788   2.570   5.612   1.723  0.4770 -0.2631 -1.1138
13099TIP3    H260789   2.497   5.694   1.827 -1.4351 -0.4430 -2.2790
13100TIP3   OH260790   3.892   2.675  14.130 -0.1637  0.2878 -0.4749
13100TIP3    H160791   3.975   2.690  14.084 -0.7282  2.3730 -0.9459
13100TIP3    H260792   3.900   2.725  14.211  0.1196 -1.8987  0.9232
13101TIP3   OH260793   1.248   5.434  13.064  0.3651 -0.0178 -0.3388
13101TIP3    H160794   1.153   5.429  13.074  0.4275 -1.4264 -0.3141
13101TIP3    H260795   1.268   5.527  13.077 -0.7249 -0.0565  2.3588
13102TIP3   OH260796   4.774   1.769   3.234 -0.0483 -0.4036 -0.2475
13102TIP3    H160797   4.758   1.792   3.325 -1.1961  0.0889 -0.5639
13102TIP3    H260798   4.796   1.852   3.192  3.5013 -0.9645  0.1179
13103TIP3   OH260799   4.838   1.620  16.451  0.3098  0.1604  0.7331
13103TIP3    H160800   4.771   1.591  16.388  0.7069  0.7117  0.0457
13103TIP3    H260801   4.815   1.711  16.470  1.6936  0.8461 -0.6567
13104TIP3   OH260802   3.037   1.969   5.930  0.1109  0.6321 -0.2739
13104TIP3    H160803   2.996   1.922   6.003  0.5256  0.7896  0.0674
13104TIP3    H260804   3.113   2.012   5.970  0.0255  1.1684 -0.6902
13105TIP3   OH260805   4.257   4.949   4.886  0.0211 -0.4268  0.1856
13105TIP3    H160806   4.337   4.920   4.842 -0.2269  0.0430 -0.5921
13105TIP3    H260807   4.245   4.886   4.958 -0.0450 -1.7668 -0.9525
13106TIP3   OH260808   4.580   0.432   0.602 -0.3526  0.3800  0.4939
13106TIP3    H160809   4.491   0.405   0.625 -0.3503 -0.3877 -0.3390
13106TIP3    H260810   4.592   0.401   0.512  1.0690 -0.3266  0.8976
13107TIP3   OH260811   5.195   4.710   2.113 -0.0791  0.6729 -0.2190
13107TIP3    H160812   5.277   4.672   2.142 -1.1603 -0.6288  1.3370
13107TIP3    H260813   5.171   4.659   2.035 -0.8496 -1.0939  1.0808
13108TIP3   OH260814   5.965   5.647  15.579  0.0577 -0.4912  0.6368
13108TIP3    H160815   5.891   5.596  15.613  0.6643 -1.6183  0.3248
13108TIP3    H260816   5.997   5.595  15.505  0.1404  0.8051 -0.2682
13109TIP3   OH260817   5.709   2.066   6.324 -0.0051 -0.9660  0.1468
13109TIP3    H160818   5.615   2.053   6.332 -0.0337 -0.1255  1.4318
13109TIP3    H260819   5.745   2.031   6.405  0.7207 -0.6806 -0.0430
13110TIP3   OH260820   3.380   5.427   4.145  0.7015 -0.0661 -0.2505
13110TIP3    H160821   3.321   5.484   4.096  1.0691 -0.4253 -1.1416
13110TIP3    H260822   3.446   5.486   4.181  0.0707  0.2774  0.3529
13111TIP3   OH260823   3.234   2.551   3.900 -0.1184  0.3781 -0.3377
13111TIP3    H160824   3.241   2.509   3.814  1.0269  0.5493 -0.3366
13111TIP3    H260825   3.140   2.546   3.921 -0.0898 -1.8372 -0.5025
13112TIP3   OH260826   1.867   1.620   1.733 -0.0520 -0.4044 -0.1119
13112TIP3    H160827   1.956   1.639   1.764 -0.3950 -0.1314  0.7329
13112TIP3    H260828   1.864   1.525   1.726  1.1630 -0.3373 -2.8120
13113TIP3   OH260829   2.510   1.367  12.025 -0.0301  0.1015  0.8115
13113TIP3    H160830   2.574   1.315  11.978 -1.4709  0.2678 -1.4693
13113TIP3    H260831   2.554   1.392  12.106  3.2718  1.2987 -1.1757
13114TIP3   OH260832   5.987   5.670  14.054 -0.0758 -0.1321  0.1543
13114TIP3    H160833   5.925   5.599  14.068 -2.7167  2.1953  1.0107
13114TIP3    H260834   5.989   5.682  13.959 -0.4257 -0.6598  0.0762
13115TIP3   OH260835   1.620   2.586   5.131  0.5132  0.5522  0.1031
13115TIP3    H160836   1.593   2.621   5.216 -0.5807  0.1374 -0.0673
13115TIP3    H260837   1.539   2.570   5.084  1.0836  0.0421 -0.7356
13116TIP3   OH260838   0.583   4.774  15.872 -0.1789  0.0092 -0.5020
13116TIP3    H160839   0.538   4.833  15.932  0.6935  0.7667 -0.5569
13116TIP3    H260840   0.676   4.795  15.884  0.0888 -0.7681 -1.1439
13117TIP3   OH260841   1.585   1.348   1.872  0.1608  0.2092 -0.5222
13117TIP3    H160842   1.669   1.363   1.829  0.1868 -1.7971 -1.2568
13117TIP3    H260843   1.523   1.333   1.800 -0.4142 -0.2475  0.0572
13118TIP3   OH260844   2.954   0.030  14.715  0.0138 -0.2883  0.3733
13118TIP3    H160845   3.018   0.069  14.654 -0.5760 -0.9876 -0.7268
13118TIP3    H260846   2.923   0.104  14.766  1.3881  0.1380  0.6514
13119TIP3   OH260847   4.714   1.781  13.605  0.3287 -0.0335 -0.1969
13119TIP3    H160848   4.680   1.737  13.683  0.0972 -0.4680 -0.5331
13119TIP3    H260849   4.650   1.850  13.586  2.0103  2.2604  1.8593
13120TIP3   OH260850   1.953   3.718  16.714 -0.9555  0.3213 -0.4064
13120TIP3    H160851   1.900   3.753  16.643 -1.5123  0.3439  0.0080
13120TIP3    H260852   1.933   3.775  16.789 -0.8255 -0.0463 -0.0839
13121TIP3   OH260853   3.488   3.044   4.619  0.3063  0.2206 -0.0624
13121TIP3    H160854   3.452   3.126   4.653 -1.8352 -1.2342  1.4672
13121TIP3    H260855   3.427   3.019   4.549 -0.8428 -1.4555  1.4516
13122TIP3   OH260856   3.613   5.859   0.387 -0.4790 -0.0545  0.1858
13122TIP3    H160857   3.647   5.930   0.332 -1.2903  1.9604  2.1554
13122TIP3    H260858   3.561   5.903   0.454  1.5356 -2.2339  3.4307
13123TIP3   OH260859   3.009   1.962  16.321 -0.0668 -0.1407  0.1077
13123TIP3    H160860   2.926   1.936  16.360 -0.0986 -0.3491 -0.0943
13123TIP3    H260861   3.075   1.915  16.373 -0.2131 -2.1760 -1.4272
13124TIP3   OH260862   0.462   3.821   1.233 -0.1900 -0.6220  0.1188
13124TIP3    H160863   0.430   3.911   1.241 -0.6043 -0.8455  1.0734
13124TIP3    H260864   0.521   3.810   1.308 -1.3885 -1.6446  0.9587
13125TIP3   OH260865   3.326   5.097   2.517 -0.3846  0.0294  0.2552
13125TIP3    H160866   3.353   5.165   2.579 -1.0989 -1.0706  1.8078
13125TIP3    H260867   3.402   5.040   2.509  0.1367  0.8290 -0.8786
13126TIP3   OH260868   1.335   1.574  14.566  0.2604 -0.5233  0.8332
13126TIP3    H160869   1.369   1.568  14.655  0.3490 -0.5084  0.8001
13126TIP3    H260870   1.397   1.523  14.513 -0.2141 -1.1785  0.8972
13127TIP3   OH260871   1.455   4.264   2.057 -0.1489 -0.3618  0.0598
13127TIP3    H160872   1.428   4.241   1.968 -0.4506 -1.2612  0.3687
13127TIP3    H260873   1.507   4.189   2.086  1.6178  0.7690 -0.0441
13128TIP3   OH260874   0.933   1.787  16.937 -0.0730 -0.2134 -0.0907
13128TIP3    H160875   0.965   1.795  17.027 -0.5502  0.8013  0.0063
13128TIP3    H260876   0.842   1.759  16.946  0.2821 -1.5040 -0.3169
13129TIP3   OH260877   1.524   5.944   5.027 -0.5699  0.3861  0.8570
13129TIP3    H160878   1.589   5.907   4.968 -1.3253  0.8330 -0.3124
13129TIP3    H260879   1.450   5.966   4.970 -0.5309  2.7766  1.6047
13130TIP3   OH260880   3.183   4.426   2.194 -0.0602  0.3006  0.6508
13130TIP3    H160881   3.161   4.362   2.127 -0.0345  0.7525  0.2125
13130TIP3    H260882   3.278   4.416   2.206  0.0482  0.6762  0.1425
13131TIP3   OH260883   5.146   2.868   3.945 -0.1154 -0.1594  0.0849
13131TIP3    H160884   5.140   2.865   4.041 -1.5644  1.2905  0.0769
13131TIP3    H260885   5.127   2.960   3.923  3.9705  0.5397 -1.3877
13132TIP3   OH260886   6.164   3.735  12.363  0.3733 -0.0797 -0.4564
13132TIP3    H160887   6.153   3.746  12.457  0.6094 -0.7242 -0.3554
13132TIP3    H260888   6.122   3.813  12.325  0.6332  0.3797  0.1921
13133TIP3   OH260889   4.179   1.297  16.739 -0.2873 -0.2980 -0.4496
13133TIP3    H160890   4.128   1.219  16.716  0.5335 -1.3061  0.9807
13133TIP3    H260891   4.114   1.363  16.761 -1.0223 -1.3476  0.6711
13134TIP3   OH260892   6.668   1.041   4.554  0.0807 -0.1278  0.1688
13134TIP3    H160893   6.612   1.019   4.629  0.8372  0.2701  0.8720
13134TIP3    H260894   6.750   1.073   4.594  0.4218  0.2888 -0.8297
13135TIP3   OH260895   4.914   5.713   2.246  0.1026 -0.2217 -0.2420
13135TIP3    H160896   4.866   5.707   2.163 -0.3431 -1.5922  0.0812
13135TIP3    H260897   4.891   5.799   2.281 -0.9325 -0.2446 -0.8208
13136TIP3   OH260898   5.782   5.090  16.797 -0.1614 -0.1363  0.0097
13136TIP3    H160899   5.824   5.024  16.742  1.4432  1.1751 -0.4152
13136TIP3    H260900   5.803   5.174  16.755 -1.2368  0.7147  1.1089
13137TIP3   OH260901   4.160   4.887   0.716  0.3947 -0.3578  0.7169
13137TIP3    H160902   4.127   4.798   0.703  1.7424 -0.6783 -0.8377
13137TIP3    H260903   4.088   4.944   0.689 -0.6106 -0.9235  2.0637
13138TIP3   OH260904   2.732   4.163   0.615 -0.2324 -0.2246 -0.5511
13138TIP3    H160905   2.728   4.114   0.533  1.6182 -1.3981 -0.0101
13138TIP3    H260906   2.642   4.165   0.647 -0.8077 -0.6924 -2.0610
13139TIP3   OH260907   1.446   1.260   3.611 -0.4091  0.1583  0.9725
13139TIP3    H160908   1.399   1.264   3.695 -2.2249  0.6911 -0.0052
13139TIP3    H260909   1.392   1.313   3.551  1.2880  0.4981 -0.3375
13140TIP3   OH260910   0.182   0.794  13.308  0.2756 -0.0721  0.3109
13140TIP3    H160911   0.192   0.874  13.257  0.1968 -0.6981 -0.7173
13140TIP3    H260912   0.122   0.817  13.378  1.2198  1.1003  0.7759
13141TIP3   OH260913   4.577   2.824   2.444 -0.2720  0.0570  0.0397
13141TIP3    H160914   4.563   2.887   2.515 -2.5482  0.8761 -1.0441
13141TIP3    H260915   4.599   2.742   2.488  3.5530  1.6334  1.4905
13142TIP3   OH260916   2.119   0.445   0.736 -0.0946 -0.0620  0.0188
13142TIP3    H160917   2.088   0.528   0.701 -0.1610  0.3728  1.1073
13142TIP3    H260918   2.102   0.449   0.830  1.3361 -0.6514  0.3335
13143TIP3   OH260919   4.300   0.985   5.944 -0.3210 -1.0011 -0.1776
13143TIP3    H160920   4.221   1.040   5.946  0.3247 -0.0840  1.3666
13143TIP3    H260921   4.317   0.972   5.850 -3.4254 -2.9333 -0.6229
13144TIP3   OH260922   2.398   1.816   0.551 -0.0062 -0.0245 -0.3850
13144TIP3    H160923   2.453   1.876   0.602 -0.6587  0.7436 -0.5599
13144TIP3    H260924   2.328   1.790   0.612 -0.4030  0.3533 -0.6750
13145TIP3   OH260925   1.375   0.103   3.348 -0.2384 -0.1565  0.5262
13145TIP3    H160926   1.404   0.182   3.394 -0.5444  1.0691 -1.2727
13145TIP3    H260927   1.293   0.079   3.390  0.2100  0.0748  1.5522
13146TIP3   OH260928   1.807   5.697  13.596 -0.2274  0.4940  0.7069
13146TIP3    H160929   1.770   5.776  13.556  1.7324  0.3987 -1.5134
13146TIP3    H260930   1.774   5.625  13.543  2.1084  0.3255 -0.6525
13147TIP3   OH260931   2.010   4.824  10.900 -0.1450 -0.7048  0.5844
13147TIP3    H160932   1.981   4.824  10.991 -0.0613  0.3863  0.6209
13147TIP3    H260933   1.937   4.785  10.852 -1.8671  2.1803  0.6467
13148TIP3   OH260934   3.250   5.220   1.902 -0.5538 -0.3043  0.0257
13148TIP3    H160935   3.211   5.307   1.903 -0.9292 -0.4612 -0.3755
13148TIP3    H260936   3.327   5.229   1.845  0.0747  0.0314  0.9064
13149TIP3   OH260937   3.328   0.489  16.224 -0.5835  0.0810  0.1238
13149TIP3    H160938   3.336   0.571  16.272 -0.3440 -0.4081  0.9560
13149TIP3    H260939   3.336   0.421  16.292 -2.2625 -0.6112 -0.3165
13150TIP3   OH260940   3.111   0.755  15.059  0.3841 -0.2753  0.0747
13150TIP3    H160941   3.093   0.841  15.021 -0.0562 -1.2884 -2.1844
13150TIP3    H260942   3.177   0.772  15.126 -0.7848  2.0039  0.7525
13151TIP3   OH260943   0.068   1.609  16.628  0.6874 -0.0658  0.2560
13151TIP3    H160944  -0.010   1.614  16.572  1.5797  1.9934 -0.8887
13151TIP3    H260945   0.035   1.627  16.717 -0.3251 -0.6485  0.0167
13152TIP3   OH260946   5.144   5.162   5.015 -0.0434  0.5805 -0.2900
13152TIP3    H160947   5.103   5.158   5.101  1.5835 -0.9692  0.4887
13152TIP3    H260948   5.120   5.080   4.972  0.4182  0.6528 -0.7009
13153TIP3   OH260949   0.448   1.526   2.088  0.3567  0.4479  0.4240
13153TIP3    H160950   0.374   1.520   2.148 -0.5892 -0.1091 -0.7421
13153TIP3    H260951   0.408   1.543   2.003  1.5219 -0.3701 -0.3216
13154TIP3   OH260952   0.221   1.280   2.063  0.3249 -0.1117 -0.2084
13154TIP3    H160953   0.298   1.242   2.021  0.7294  0.2134  0.2454
13154TIP3    H260954   0.235   1.267   2.156 -2.0169 -3.7945 -0.1241
13155TIP3   OH260955   5.278   0.395   5.832  0.5107 -0.3609 -0.2484
13155TIP3    H160956   5.211   0.455   5.799  1.1506 -0.5392 -1.9825
13155TIP3    H260957   5.360   0.441   5.819  0.8231 -0.6327  0.7161
13156TIP3   OH260958   0.450   0.301  12.929 -0.1274  0.7603 -0.5282
13156TIP3    H160959   0.368   0.263  12.960  1.0120 -2.6882 -1.2795
13156TIP3    H260960   0.505   0.305  13.007 -0.3661  1.2406 -0.3810
13157TIP3   OH260961   0.029   0.861  16.648 -0.0748  0.0735  0.3542
13157TIP3    H160962   0.012   0.942  16.696  0.4381  0.3487  0.0810
13157TIP3    H260963   0.123   0.862  16.632 -0.0849 -0.5152  0.2294
13158TIP3   OH260964   4.551   1.406  11.773 -0.0094  0.4723  0.2656
13158TIP3    H160965   4.562   1.498  11.796 -0.2422  0.1379  1.9198
13158TIP3    H260966   4.590   1.359  11.847  0.8236 -0.7692 -0.9265
13159TIP3   OH260967   2.416   3.384  11.374  0.4768 -0.0428 -0.2570
13159TIP3    H160968   2.426   3.378  11.469 -0.4922 -1.1976 -0.2015
13159TIP3    H260969   2.337   3.437  11.362 -0.1996 -1.0334 -0.3551
13160TIP3   OH260970   3.241   1.318  12.525  0.0244  0.5300 -0.6395
13160TIP3    H160971   3.238   1.401  12.478  0.8211  0.5650 -0.6423
13160TIP3    H260972   3.197   1.256  12.467 -1.0877  1.0574 -0.3888
13161TIP3   OH260973   1.078   1.344   4.867 -0.1176 -0.4961 -0.3656
13161TIP3    H160974   1.138   1.414   4.895  0.4191 -0.8077 -0.7094
13161TIP3    H260975   1.101   1.328   4.775 -1.4268  0.0739 -0.7996
13162TIP3   OH260976   3.924   5.123  13.425 -0.1215  0.2255 -0.0719
13162TIP3    H160977   3.952   5.033  13.410  1.4791  0.5327  0.8408
13162TIP3    H260978   3.829   5.118  13.426 -0.1642 -1.0016 -2.6246
13163TIP3   OH260979   4.613   6.217   6.586 -0.5076 -0.5779  0.0341
13163TIP3    H160980   4.558   6.294   6.602  0.7729  0.1742  0.9489
13163TIP3    H260981   4.699   6.253   6.563  0.3406 -1.7068  1.2542
13164TIP3   OH260982   3.614   3.083   4.267 -0.5159  0.2839  0.1411
13164TIP3    H160983   3.707   3.081   4.243 -0.1334 -1.8682  1.5672
13164TIP3    H260984   3.573   3.020   4.208 -0.4984 -1.0364  1.4925
13165TIP3   OH260985   6.770   1.664  14.413 -0.5547 -0.0974  0.4442
13165TIP3    H160986   6.748   1.720  14.487 -2.0027 -0.8290  0.5989
13165TIP3    H260987   6.703   1.683  14.348 -0.1981 -0.5897 -0.0774
13166TIP3   OH260988   5.178   1.729  12.886 -0.1893 -0.2148  0.1051
13166TIP3    H160989   5.132   1.783  12.950  0.5761 -0.7868  1.1689
13166TIP3    H260990   5.122   1.651  12.876 -1.1532  0.6025 -1.2229
13167TIP3   OH260991   6.229   6.740   3.459 -0.4679  0.6387 -0.5056
13167TIP3    H160992   6.253   6.828   3.488  1.0773  0.2204 -0.4251
13167TIP3    H260993   6.300   6.714   3.399 -1.5710 -0.0466 -1.5643
13168TIP3   OH260994   4.711   6.336   2.645 -0.5439  0.0809  0.8202
13168TIP3    H160995   4.776   6.266   2.649 -1.5823 -0.9248  0.8486
13168TIP3    H260996   4.701   6.365   2.735  0.4885  0.8629  0.7000
13169TIP3   OH260997   5.985   0.387   6.430 -0.1619  0.0124  0.0285
13169TIP3    H160998   5.898   0.413   6.461 -0.1904  1.2455 -0.9768
13169TIP3    H260999   6.043   0.404   6.503 -0.3972  1.7219 -0.1367
13170TIP3   OH261000   2.953   1.386  12.938 -0.1685 -0.3437  0.3487
13170TIP3    H161001   3.027   1.397  12.878 -1.4228  0.0223 -1.2135
13170TIP3    H261002   2.879   1.425  12.891 -1.4247 -1.0135  1.7038
13171TIP3   OH261003   3.141   3.254  12.345 -0.3696  0.6373 -0.6205
13171TIP3    H161004   3.215   3.193  12.342 -0.2083  0.8669 -1.7487
13171TIP3    H261005   3.181   3.340  12.332 -0.5579  1.0644  1.2586
13172TIP3   OH261006   2.379   0.838  11.221  0.0127 -0.2217 -1.0034
13172TIP3    H161007   2.326   0.819  11.298  0.1209  1.1950 -0.5639
13172TIP3    H261008   2.464   0.864  11.256  0.3889 -0.5738 -1.6381
13173TIP3   OH261009   2.201   6.164   0.648  0.2819  0.2678  0.5191
13173TIP3    H161010   2.122   6.161   0.703 -0.7767  0.5716 -0.9305
13173TIP3    H261011   2.266   6.208   0.703 -0.6452  0.3356  1.6196
13174TIP3   OH261012   5.157   0.631   1.605 -0.5888  0.6801 -0.7432
13174TIP3    H161013   5.196   0.683   1.675  1.2777  0.0003 -1.2178
13174TIP3    H261014   5.155   0.690   1.530 -0.4465  0.7151 -0.7199
13175TIP3   OH261015   2.541   2.998  15.255 -0.0949 -0.4467  0.4540
13175TIP3    H161016   2.586   2.996  15.340  0.8681 -1.1335 -0.0482
13175TIP3    H261017   2.491   3.079  15.257 -0.2166 -0.5317  1.7427
13176TIP3   OH261018   6.586   2.650   6.035  0.0017  0.0493 -0.1022
13176TIP3    H161019   6.495   2.639   6.063 -0.2146  1.6224 -0.0769
13176TIP3    H261020   6.628   2.694   6.110 -0.4082  3.6579 -1.7652
13177TIP3   OH261021   5.575   2.923   5.060  0.1756  0.5009 -0.2608
13177TIP3    H161022   5.589   2.876   5.142  0.1704 -0.1622 -0.6310
13177TIP3    H261023   5.591   2.858   4.992  1.1389  1.2877 -0.8161
13178TIP3   OH261024   2.258   6.399   4.832 -0.1607  0.0923 -0.2533
13178TIP3    H161025   2.272   6.423   4.741  3.3606  1.2611  0.4307
13178TIP3    H261026   2.259   6.303   4.833  0.5789  0.0800 -1.3474
13179TIP3   OH261027   3.631   6.404   0.547 -0.3086  0.0788 -0.1484
13179TIP3    H161028   3.590   6.371   0.627  0.6288  0.2522  0.4126
13179TIP3    H261029   3.705   6.455   0.578  1.2423 -1.4563 -1.1755
13180TIP3   OH261030   5.005   6.273   1.454 -0.4217  0.3451  0.4804
13180TIP3    H161031   5.007   6.364   1.482 -0.6476  0.2274  0.9003
13180TIP3    H261032   4.992   6.277   1.359  0.1313  0.7532  0.4200
13181TIP3   OH261033   2.011   3.611  12.991  0.0558  0.1106  0.0154
13181TIP3    H161034   2.106   3.607  12.994  0.0392  0.1558  1.1811
13181TIP3    H261035   1.991   3.703  12.975  0.2090  0.1677  0.1494
13182TIP3   OH261036   1.441   4.980   3.183  0.0734  0.0193  0.2891
13182TIP3    H161037   1.466   4.986   3.276 -1.4228 -0.6369  0.7640
13182TIP3    H261038   1.347   4.995   3.183 -0.0828 -0.8546 -1.0298
13183TIP3   OH261039   0.692   2.160  11.559 -0.5463 -0.4895  0.0045
13183TIP3    H161040   0.694   2.071  11.523 -2.4328 -0.6027  0.0604
13183TIP3    H261041   0.634   2.208  11.500  0.5542  0.7685 -0.0990
13184TIP3   OH261042   5.156   1.498   2.748  0.3184  0.1534  0.3100
13184TIP3    H161043   5.107   1.544   2.680  1.1285  0.7938  0.1452
13184TIP3    H261044   5.245   1.488   2.712 -0.1524 -2.8829 -0.2920
13185TIP3   OH261045   3.155   2.216   6.486 -0.7021  0.1983 -0.6206
13185TIP3    H161046   3.089   2.281   6.511 -0.3603  0.6959 -1.0022
13185TIP3    H261047   3.150   2.212   6.391 -0.0707  0.3488 -0.6605
13186TIP3   OH261048   2.226   4.311   3.998 -0.3810 -0.2483  0.5698
13186TIP3    H161049   2.177   4.392   4.013 -0.7746 -0.2172 -0.8129
13186TIP3    H261050   2.318   4.336   4.005 -0.5002  0.3441  0.0566
13187TIP3   OH261051   1.816   5.326  14.496 -0.7969  0.2267  0.4439
13187TIP3    H161052   1.803   5.421  14.503  1.4290  0.6382 -0.3944
13187TIP3    H261053   1.911   5.314  14.496 -0.9695 -1.8249 -1.5617
13188TIP3   OH261054   4.785   2.945  15.572  0.2216 -0.4154  0.5804
13188TIP3    H161055   4.821   2.858  15.586 -1.1105 -1.0218  0.3224
13188TIP3    H261056   4.748   2.970  15.656  0.4602 -0.1526  0.6107
13189TIP3   OH261057   2.080   6.004   0.188  0.1587  0.0763  0.1055
13189TIP3    H161058   2.103   5.993   0.096  2.3293  1.5174  0.4031
13189TIP3    H261059   1.986   6.023   0.186  0.4505  1.7100 -1.9853
13190TIP3   OH261060   0.212   2.849   2.236 -0.4224  0.0638  0.2064
13190TIP3    H161061   0.297   2.808   2.250  0.3613  2.0494  1.7393
13190TIP3    H261062   0.228   2.917   2.171 -0.5677  1.0705  1.1811
13191TIP3   OH261063   1.607   2.288  15.333  0.1263  0.1299  0.4892
13191TIP3    H161064   1.550   2.360  15.306 -0.1267  0.2597  1.3406
13191TIP3    H261065   1.591   2.279  15.426  0.7387 -0.5213  0.5369
13192TIP3   OH261066   0.142   0.009   4.460  0.0300  0.1227  0.1690
13192TIP3    H161067   0.233   0.039   4.451  0.9034 -1.6749  2.0719
13192TIP3    H261068   0.116   0.039   4.547 -0.9649  0.0266 -0.0894
13193TIP3   OH261069   5.449   0.906   2.258 -0.0410 -0.6416  0.3866
13193TIP3    H161070   5.462   0.935   2.348 -0.7382 -0.5310  0.4509
13193TIP3    H261071   5.355   0.894   2.249  0.0366 -0.7967 -0.2848
13194TIP3   OH261072   3.427   0.053  17.395  0.7689 -0.3635 -0.2742
13194TIP3    H161073   3.418   0.135  17.444 -2.4216 -0.9680  0.4070
13194TIP3    H261074   3.449   0.080  17.306  0.1884  1.2144  0.0303
13195TIP3   OH261075   2.569   0.335   5.283  0.0868  0.6388 -0.0625
13195TIP3    H161076   2.479   0.355   5.308  0.1743  1.2518 -0.2306
13195TIP3    H261077   2.561   0.263   5.220 -0.1764 -0.4684  1.1870
13196TIP3   OH261078   0.904   0.705  12.855  0.1424 -0.1853  0.6133
13196TIP3    H161079   0.925   0.789  12.814 -2.9886  0.3697 -0.1006
13196TIP3    H261080   0.875   0.728  12.943 -2.1434 -0.2645 -0.0663
13197TIP3   OH261081   5.436   3.484  16.326 -0.0311 -0.0252  0.3293
13197TIP3    H161082   5.512   3.526  16.366 -0.7390  0.0479  1.6508
13197TIP3    H261083   5.472   3.432  16.254  1.4210 -0.8120  1.5611
13198TIP3   OH261084   0.761   5.788  12.171  0.6412  0.2373  0.2345
13198TIP3    H161085   0.816   5.820  12.100 -0.0472  1.4974  0.2399
13198TIP3    H261086   0.686   5.848  12.172 -0.5548 -1.1962  0.4628
13199TIP3   OH261087   3.073   5.198   0.524 -0.2525 -0.9154 -0.7357
13199TIP3    H161088   3.041   5.169   0.438  0.0066 -2.2762 -0.3973
13199TIP3    H261089   3.029   5.140   0.586  0.8500 -1.0611 -0.0754
13200TIP3   OH261090   2.482   5.683   0.701  0.6156 -0.1735  0.5196
13200TIP3    H161091   2.459   5.715   0.789 -0.2344  1.1154 -0.1285
13200TIP3    H261092   2.577   5.681   0.700  0.7288  2.1568  0.7314
13201TIP3   OH261093   6.446   3.505  17.320 -0.1172  0.5758  0.5157
13201TIP3    H161094   6.366   3.541  17.280  0.1074  2.9058  1.9348
13201TIP3    H261095   6.439   3.411  17.307 -2.6916  0.7738 -0.1562
13202TIP3   OH261096   5.057   4.302  16.727  0.6108  0.4000  0.0083
13202TIP3    H161097   4.980   4.273  16.678  0.5681 -1.5440  1.1382
13202TIP3    H261098   5.123   4.320  16.660  0.0335 -0.5945 -0.8523
13203TIP3   OH261099   2.379   2.832   5.539 -0.2037 -0.1787  0.1396
13203TIP3    H161100   2.345   2.894   5.604 -0.7602  0.0590 -0.3609
13203TIP3    H261101   2.474   2.840   5.545 -0.2613  0.2013  0.5830
13204TIP3   OH261102   3.359   6.214  15.218  0.3004  0.1399  0.8370
13204TIP3    H161103   3.376   6.278  15.288  1.5041  1.3864 -0.5397
13204TIP3    H261104   3.360   6.265  15.138 -1.3788 -1.2232 -0.1136
13205TIP3   OH261105   4.250   5.377  13.587  0.5064  0.3092 -0.0374
13205TIP3    H161106   4.186   5.346  13.522 -0.9510  1.6100  0.6887
13205TIP3    H261107   4.196   5.402  13.662  2.1920 -1.8757  2.0502
13206TIP3   OH261108   6.030   3.939  12.233 -0.2419  0.2153 -0.1423
13206TIP3    H161109   6.086   3.963  12.160 -0.0355  0.3693  0.0664
13206TIP3    H261110   5.949   3.989  12.219 -0.9761 -1.2429 -1.3384
13207TIP3   OH261111   1.445   0.751   3.770 -0.8220  0.0877 -0.2563
13207TIP3    H161112   1.481   0.714   3.851  1.3897  1.3880 -0.5715
13207TIP3    H261113   1.423   0.674   3.717  1.7575 -0.8914 -0.0891
13208TIP3   OH261114   6.343   4.523  11.357  0.5092 -0.4632  0.4471
13208TIP3    H161115   6.347   4.573  11.275  1.1901  1.5226  1.6190
13208TIP3    H261116   6.272   4.564  11.406 -0.3213 -2.0453  0.6519
13209TIP3   OH261117   4.726   0.702  14.060 -0.0891  0.2954  0.2186
13209TIP3    H161118   4.745   0.747  13.978 -0.8088 -0.6352 -0.4705
13209TIP3    H261119   4.631   0.697  14.064 -0.0338 -0.6378  0.5700
13210TIP3   OH261120   0.355   3.111  14.066  0.3197  0.1861  0.3543
13210TIP3    H161121   0.353   3.057  13.987 -0.3366 -0.2094  0.6293
13210TIP3    H261122   0.428   3.172  14.052  0.5586 -0.2404 -0.3103
13211TIP3   OH261123   0.268   4.689  17.321  0.4099 -0.5580  0.7796
13211TIP3    H161124   0.284   4.781  17.339 -0.6590  0.0501 -1.0222
13211TIP3    H261125   0.280   4.681  17.226  0.4993 -2.2728  0.9065
13212TIP3   OH261126   1.367   3.564  15.608 -0.3440 -0.0965 -0.0741
13212TIP3    H161127   1.392   3.621  15.681 -0.5072 -0.5856  0.3651
13212TIP3    H261128   1.353   3.478  15.648  0.4638 -0.5906 -0.8225
13213TIP3   OH261129   2.196   2.684  11.655  0.1579  0.1741  0.0539
13213TIP3    H161130   2.169   2.608  11.707 -0.7364  0.5254  0.1207
13213TIP3    H261131   2.235   2.744  11.718  0.8495 -0.2097  0.0043
13214TIP3   OH261132   6.425   4.839   4.262  0.1392  0.1833  0.5872
13214TIP3    H161133   6.405   4.910   4.202  1.6518 -0.3436 -0.5888
13214TIP3    H261134   6.405   4.759   4.213  2.3438 -0.2791  0.3500
13215TIP3   OH261135   6.694   1.836  13.671  0.1911 -0.2172 -0.4664
13215TIP3    H161136   6.739   1.921  13.663 -1.6215  0.7041 -1.6496
13215TIP3    H261137   6.729   1.784  13.598 -0.1814  0.2841 -1.0222
13216TIP3   OH261138   1.798   5.851  13.830 -0.4480 -0.0634 -0.2382
13216TIP3    H161139   1.733   5.784  13.848  0.2231 -1.5248 -2.7728
13216TIP3    H261140   1.836   5.826  13.746  2.6487  1.3062  0.5998
13217TIP3   OH261141   6.504   6.653  11.446  0.2372 -0.0816 -0.0107
13217TIP3    H161142   6.542   6.656  11.533 -1.2446  0.5807  0.6520
13217TIP3    H261143   6.497   6.559  11.426 -0.7762 -0.3071  1.2450
13218TIP3   OH261144   0.045   5.801   4.698  0.3080  0.6596  0.2232
13218TIP3    H161145   0.056   5.706   4.689 -0.0903  0.6857 -0.6519
13218TIP3    H261146   0.028   5.815   4.791 -0.6201 -0.2411  0.2031
13219TIP3   OH261147   6.338   2.750   0.340 -0.0631  0.0054  0.1054
13219TIP3    H161148   6.349   2.742   0.245  0.4707 -0.9006  0.2254
13219TIP3    H261149   6.397   2.684   0.376  0.6215  1.1255  1.1122
13220TIP3   OH261150   4.065   4.486   1.290  0.0137 -0.4512  0.2568
13220TIP3    H161151   4.117   4.444   1.222 -1.2511 -1.6693  0.0024
13220TIP3    H261152   4.126   4.547   1.332  1.0098 -0.1587 -1.5005
13221TIP3   OH261153   6.667   0.504   5.148 -0.3645 -0.2689 -0.3965
13221TIP3    H161154   6.709   0.432   5.196  1.7987  1.0977 -0.1296
13221TIP3    H261155   6.681   0.581   5.203 -3.3062  0.2994 -0.3064
13222TIP3   OH261156   0.985   3.849  11.994  0.0332 -0.2080 -0.0290
13222TIP3    H161157   0.891   3.866  12.000  0.1949  1.0874 -0.8646
13222TIP3    H261158   1.009   3.872  11.904  1.0404 -1.1839 -0.0469
13223TIP3   OH261159   1.350   6.558  12.441  0.4666 -0.0623 -0.0295
13223TIP3    H161160   1.347   6.652  12.424  2.2895 -0.2258 -1.5851
13223TIP3    H261161   1.429   6.546  12.495 -0.3839 -0.6051  1.1425
13224TIP3   OH261162   2.105   4.395  11.258  0.2693 -0.4806 -0.4640
13224TIP3    H161163   2.105   4.320  11.198  1.5173  0.0691 -1.2017
13224TIP3    H261164   2.196   4.403  11.286  0.0229  0.3568  0.1180
13225TIP3   OH261165   3.787   3.787  12.506  0.2097  0.4578 -0.0154
13225TIP3    H161166   3.728   3.852  12.469  0.4339  0.0743 -1.1098
13225TIP3    H261167   3.756   3.704  12.470  2.6491  0.4501 -2.4243
13226TIP3   OH261168   4.438   5.837   0.494 -0.2604  0.5574 -0.1566
13226TIP3    H161169   4.351   5.865   0.522  0.2296  0.6432  1.4253
13226TIP3    H261170   4.423   5.783   0.417 -1.7010  0.6284  0.0498
13227TIP3   OH261171   5.926   6.394   5.274  0.7096 -0.0178  0.1367
13227TIP3    H161172   5.891   6.381   5.186 -1.5143 -2.8093  1.2702
13227TIP3    H261173   6.012   6.353   5.271  0.6673 -0.0721 -0.7360
13228TIP3   OH261174   4.869   3.408   0.765  0.1038  0.1664 -0.1538
13228TIP3    H161175   4.776   3.421   0.780  0.3141  0.1897  1.3486
13228TIP3    H261176   4.911   3.452   0.839  1.3439  0.7646 -1.1698
13229TIP3   OH261177   4.970   3.731  17.036  0.1725 -0.9628 -0.1653
13229TIP3    H161178   4.938   3.812  16.996 -1.1263 -1.7989 -0.8906
13229TIP3    H261179   5.043   3.704  16.981 -1.0807 -1.6655 -1.5420
13230TIP3   OH261180   1.350   3.407  13.013 -0.3986  0.0140  0.3102
13230TIP3    H161181   1.416   3.436  12.951 -0.7476  0.9478  0.3515
13230TIP3    H261182   1.400   3.371  13.086  0.0208 -0.6708 -0.3008
13231TIP3   OH261183   5.026   0.128  11.383 -0.2698 -0.2790 -0.1778
13231TIP3    H161184   5.067   0.164  11.305  0.3219  0.7598  0.6005
13231TIP3    H261185   5.038   0.033  11.374 -0.3014 -0.1874 -1.3826
13232TIP3   OH261186   2.866   5.087  17.057  0.3110  0.2620  0.2604
13232TIP3    H161187   2.819   5.030  17.117  3.7449 -1.0780  1.9811
13232TIP3    H261188   2.926   5.136  17.113  0.6634  2.2231 -1.6920
13233TIP3   OH261189   2.757   3.132  16.886  0.1187 -0.3848 -0.4337
13233TIP3    H161190   2.786   3.223  16.888 -0.9105 -0.0593  0.3298
13233TIP3    H261191   2.839   3.081  16.886  0.7211  0.5197 -2.1390
13234TIP3   OH261192   5.328   3.653   0.325  0.0519  0.5789  0.1682
13234TIP3    H161193   5.393   3.582   0.325  0.1533  0.6697  0.6241
13234TIP3    H261194   5.257   3.620   0.380  0.2905  1.0022  0.7392
13235TIP3   OH261195   3.603   1.643   0.628 -0.2535  0.1384 -0.1965
13235TIP3    H161196   3.639   1.661   0.541  0.9858  0.3216  0.3354
13235TIP3    H261197   3.542   1.570   0.614  1.7971 -1.5564 -0.8382
13236TIP3   OH261198   0.673   3.420  11.249 -0.5647 -0.0714  0.1211
13236TIP3    H161199   0.728   3.478  11.196 -0.9144  1.0782  0.9751
13236TIP3    H261200   0.732   3.385  11.315 -0.5288 -0.0404  0.1059
13237TIP3   OH261201   5.397   1.414  14.630  0.5127  0.2084 -0.3454
13237TIP3    H161202   5.472   1.426  14.572  0.1224 -1.5068 -1.2597
13237TIP3    H261203   5.403   1.486  14.692  2.3184  0.7042 -1.0438
13238TIP3   OH261204   4.259   4.710  16.083  0.7729 -0.2671 -0.5401
13238TIP3    H161205   4.313   4.777  16.124 -1.5460  1.3288  0.0851
13238TIP3    H261206   4.247   4.643  16.150 -0.4414  0.8404  0.3972
13239TIP3   OH261207   2.385   4.269  16.058 -0.1595 -0.2619 -0.1771
13239TIP3    H161208   2.333   4.331  16.109 -1.3775 -0.3079 -1.3009
13239TIP3    H261209   2.338   4.186  16.067  0.3148 -0.5529 -0.3459
13240TIP3   OH261210   1.918   4.141   5.359 -0.1148  0.6776  0.3793
13240TIP3    H161211   1.903   4.198   5.434 -2.5884  0.5198  0.0913
13240TIP3    H261212   1.882   4.190   5.284  0.7243  0.1062 -0.4167
13241TIP3   OH261213   6.181   1.848  14.801  0.6618  0.1169  0.0336
13241TIP3    H161214   6.221   1.777  14.752  2.4806 -0.3140  1.9966
13241TIP3    H261215   6.094   1.815  14.825  0.9328 -0.8666 -0.2936
13242TIP3   OH261216   4.597   4.736  11.077  0.2478 -0.4314  0.4531
13242TIP3    H161217   4.676   4.781  11.106 -0.2944  1.1062 -0.3026
13242TIP3    H261218   4.592   4.756  10.983 -0.5390 -1.2880  0.3030
13243TIP3   OH261219   2.224   2.385   1.276  0.3009 -0.8717  0.0241
13243TIP3    H161220   2.159   2.397   1.207 -1.2207 -1.9252  1.2058
13243TIP3    H261221   2.299   2.437   1.248 -1.8523  2.3241 -0.3177
13244TIP3   OH261222   3.321   1.037  15.645  0.1105  0.6782 -0.3303
13244TIP3    H161223   3.402   1.089  15.646  1.3661 -1.0793 -2.1893
13244TIP3    H261224   3.345   0.955  15.688 -2.1780  1.8700  3.7090
13245TIP3   OH261225   0.757   4.377  11.923 -0.0299  0.7967 -0.3363
13245TIP3    H161226   0.702   4.376  12.002 -0.2726 -1.5305 -0.4687
13245TIP3    H261227   0.744   4.465  11.886 -2.0076  1.0226  0.7585
13246TIP3   OH261228   6.736   6.554   0.480 -0.3871 -0.3619  0.0574
13246TIP3    H161229   6.770   6.642   0.465  0.2582 -0.8174 -1.2708
13246TIP3    H261230   6.642   6.562   0.462  0.0006 -0.3810 -2.2665
13247TIP3   OH261231   3.893   3.236   2.452  0.0448 -0.0094  0.0556
13247TIP3    H161232   3.981   3.204   2.471 -0.4286 -0.9993  0.6137
13247TIP3    H261233   3.883   3.313   2.509 -0.1055 -0.9580  1.3581
13248TIP3   OH261234   3.573   4.924   3.372  0.4722 -0.4007  0.0107
13248TIP3    H161235   3.561   4.923   3.278 -0.7290  0.4471  0.1361
13248TIP3    H261236   3.491   4.889   3.408 -0.4766  2.4042  0.8020
13249TIP3   OH261237   6.538   5.403  15.103  0.3670 -0.2363 -0.2111
13249TIP3    H161238   6.571   5.314  15.116  0.4678 -0.1688  0.0155
13249TIP3    H261239   6.582   5.454  15.170 -0.6681 -0.2550  0.5100
13250TIP3   OH261240   5.082   5.853   4.490 -0.3554  0.5202  0.1281
13250TIP3    H161241   5.098   5.799   4.413 -1.5247 -1.9670  1.5351
13250TIP3    H261242   5.121   5.938   4.467 -1.9684  0.4117 -3.7744
13251TIP3   OH261243   1.265   3.437   6.481 -0.0138 -0.6479  0.1782
13251TIP3    H161244   1.226   3.358   6.443  0.0939 -0.8802  0.5466
13251TIP3    H261245   1.193   3.500   6.483 -0.4800 -1.1744  1.1432
13252TIP3   OH261246   5.570   2.989  13.475  0.4575 -0.0403  0.0447
13252TIP3    H161247   5.650   2.949  13.442  2.0310  0.6821  2.6777
13252TIP3    H261248   5.576   3.081  13.452  0.8170  0.1734  0.9572
13253TIP3   OH261249   5.263   1.395   0.005  0.0808 -0.0253  0.0863
13253TIP3    H161250   5.336   1.352  -0.039 -1.5765 -1.1657 -1.7302
13253TIP3    H261251   5.277   1.377   0.098  2.2532  0.1004 -0.1695
13254TIP3   OH261252   4.507   3.860   3.852  0.0734  0.5178  0.7185
13254TIP3    H161253   4.451   3.805   3.907 -0.2498 -1.9096 -1.8214
13254TIP3    H261254   4.593   3.820   3.857 -0.0432  0.0401 -0.7727
13255TIP3   OH261255   4.401   3.614   5.950  0.5879  0.0860  0.4584
13255TIP3    H161256   4.350   3.623   6.031 -1.4844 -0.7889 -0.6660
13255TIP3    H261257   4.384   3.524   5.921  2.3027 -0.0221 -0.3124
13256TIP3   OH261258   2.148   2.912   4.335  0.0698 -0.0228 -0.3687
13256TIP3    H161259   2.183   2.890   4.249 -1.0398  1.2062 -1.1712
13256TIP3    H261260   2.213   2.878   4.397  0.7907 -1.0865 -1.6737
13257TIP3   OH261261   1.493   3.239  13.571  0.3894  0.5230  0.3427
13257TIP3    H161262   1.471   3.215  13.481 -1.3277  0.6423  0.6968
13257TIP3    H261263   1.587   3.253  13.569  0.6817 -1.2056 -1.0318
13258TIP3   OH261264   5.421   6.584   0.848  0.3311  0.5121 -0.0945
13258TIP3    H161265   5.473   6.579   0.768  0.7448  0.5832  0.1683
13258TIP3    H261266   5.350   6.521   0.834 -0.2804  1.3712 -1.0026
13259TIP3   OH261267   3.470   3.512  14.452 -0.4443 -0.3282 -0.2098
13259TIP3    H161268   3.550   3.547  14.492 -0.4993 -0.6532  0.1851
13259TIP3    H261269   3.406   3.583  14.462 -0.9903 -1.0542  1.9420
13260TIP3   OH261270   2.819   2.388  15.772  0.1792  0.1080 -0.0585
13260TIP3    H161271   2.761   2.407  15.846  0.6620  0.2755  0.2824
13260TIP3    H261272   2.765   2.336  15.712 -0.6901  1.2374 -0.2867
13261TIP3   OH261273   5.326   1.619   2.122  0.0080 -0.2954 -0.2433
13261TIP3    H161274   5.381   1.676   2.068 -0.2383 -0.7725 -1.0085
13261TIP3    H261275   5.243   1.613   2.074 -0.2311 -0.6961  0.2104
13262TIP3   OH261276   0.371   1.380   4.099 -1.0260  0.3977 -0.2623
13262TIP3    H161277   0.364   1.360   4.193 -1.7999 -0.0057 -0.3911
13262TIP3    H261278   0.439   1.446   4.093  1.6516 -2.1279  0.2231
13263TIP3   OH261279   1.403   5.466  14.939 -0.6367  0.0877 -0.1833
13263TIP3    H161280   1.466   5.416  14.991 -1.6571 -0.2515  0.7795
13263TIP3    H261281   1.456   5.527  14.889  0.4845 -0.5043  0.2456
13264TIP3   OH261282   6.468   4.626   2.436 -0.2917 -0.3209  0.3578
13264TIP3    H161283   6.375   4.614   2.416 -0.7437  0.9500  1.5518
13264TIP3    H261284   6.509   4.543   2.413 -1.5105 -0.4974 -1.3514
13265TIP3   OH261285   4.524   4.608  13.268 -0.5214  0.5950 -0.1423
13265TIP3    H161286   4.440   4.569  13.292  0.0001  0.4719  1.6808
13265TIP3    H261287   4.510   4.702  13.274 -0.7087  0.5973 -0.5654
13266TIP3   OH261288   3.992   4.369   0.901  0.4125  0.2769 -0.2620
13266TIP3    H161289   4.076   4.340   0.937  0.0995  0.1087  0.3491
13266TIP3    H261290   3.987   4.327   0.815  0.6691 -0.2280 -0.0328
13267TIP3   OH261291   2.626   1.594  17.446 -0.5267 -0.4422  0.4377
13267TIP3    H161292   2.545   1.551  17.420 -0.9615  0.0953  0.8992
13267TIP3    H261293   2.599   1.666  17.502  0.2152  0.2264 -0.0368
13268TIP3   OH261294   6.164   1.904  14.374 -0.3958 -0.0086  0.1909
13268TIP3    H161295   6.109   1.826  14.380 -0.9294  0.4111  0.9683
13268TIP3    H261296   6.251   1.874  14.399 -0.7281 -0.2253  1.1045
13269TIP3   OH261297   0.761   3.512  16.907  0.6882  0.4385 -0.0439
13269TIP3    H161298   0.701   3.446  16.944 -0.8013  2.7996  2.0632
13269TIP3    H261299   0.754   3.499  16.812 -1.7122 -0.6519  0.2021
13270TIP3   OH261300   6.667   1.637   5.195  0.4313 -0.3516  0.1034
13270TIP3    H161301   6.729   1.673   5.258  1.1814  0.2467 -0.9687
13270TIP3    H261302   6.720   1.584   5.136  0.0462  0.7058 -1.2299
13271TIP3   OH261303   0.944   2.604  17.250  0.0277 -0.4068 -0.6591
13271TIP3    H161304   0.965   2.666  17.180  0.2981 -0.7778 -0.9095
13271TIP3    H261305   0.859   2.568  17.225  0.0218 -0.3774 -0.6810
13272TIP3   OH261306   5.343   0.836  13.042  0.0338  0.4189 -0.3806
13272TIP3    H161307   5.354   0.754  13.091 -0.1429 -0.1413 -1.2567
13272TIP3    H261308   5.292   0.811  12.965 -0.4461  1.4514 -0.4171
13273TIP3   OH261309   1.168   2.772   4.971 -0.6665  0.2625  0.3887
13273TIP3    H161310   1.192   2.843   5.031  0.1593 -0.2549  0.6896
13273TIP3    H261311   1.132   2.816   4.894 -1.2797  0.9566  1.0539
13274TIP3   OH261312   5.544   0.325   4.488  0.2127  0.3035  0.9042
13274TIP3    H161313   5.603   0.269   4.438 -1.0298  0.0676 -0.3536
13274TIP3    H261314   5.503   0.266   4.552  1.1912  0.4431  1.6963
13275TIP3   OH261315   4.190   2.263   2.061  0.3539  0.1376  0.1641
13275TIP3    H161316   4.164   2.176   2.092 -0.6908 -0.3749 -1.9332
13275TIP3    H261317   4.107   2.307   2.044  0.8253  0.3713 -1.7716
13276TIP3   OH261318   6.093   4.767   0.786 -0.0933  0.0611 -0.2735
13276TIP3    H161319   6.061   4.711   0.716 -0.5529 -0.8450  0.6235
13276TIP3    H261320   6.023   4.832   0.799  0.1990  0.5119 -0.9552
13277TIP3   OH261321   4.476   6.404   2.485 -0.7129  0.1104 -0.1348
13277TIP3    H161322   4.417   6.329   2.493 -1.0799  0.3964 -0.1239
13277TIP3    H261323   4.550   6.383   2.543  0.4071 -1.3629 -2.0136
13278TIP3   OH261324   5.771   2.938  10.805 -0.3006 -0.2214 -0.3463
13278TIP3    H161325   5.689   2.980  10.779  0.2095  0.1414 -1.3930
13278TIP3    H261326   5.743   2.864  10.859 -1.4445 -1.4693 -2.5393
13279TIP3   OH261327   0.315   2.294   6.900  0.0373  0.3058  0.1639
13279TIP3    H161328   0.258   2.247   6.962  0.2186  3.1013  2.6550
13279TIP3    H261329   0.254   2.339   6.842 -0.1590 -0.7710 -0.5019
13280TIP3   OH261330   0.063   2.004   3.859  0.2168 -0.5647 -0.1711
13280TIP3    H161331   0.108   2.066   3.802 -0.0325 -0.4802 -0.2774
13280TIP3    H261332   0.056   1.924   3.808 -0.6492 -0.2673 -0.5317
13281TIP3   OH261333   5.452   4.575  12.631 -0.3903 -0.0545 -0.3828
13281TIP3    H161334   5.547   4.573  12.616 -0.1524 -1.9835  0.9182
13281TIP3    H261335   5.438   4.653  12.685  0.9020 -1.0418  1.5154
13282TIP3   OH261336   2.016   2.406  15.771  0.1233  0.2921 -0.0286
13282TIP3    H161337   1.958   2.470  15.812  0.5628  0.8698 -0.3028
13282TIP3    H261338   2.075   2.379  15.841  1.5005  1.9983 -0.4788
13283TIP3   OH261339   5.339   5.565  16.396 -0.3448  0.0497  0.0425
13283TIP3    H161340   5.411   5.587  16.456 -0.4542  0.5345 -0.0036
13283TIP3    H261341   5.381   5.560  16.310 -0.2513 -0.3012  0.1075
13284TIP3   OH261342   2.041   0.247   3.702 -0.3450 -0.0899 -0.1729
13284TIP3    H161343   2.033   0.252   3.607 -3.1205 -0.5144 -0.0600
13284TIP3    H261344   2.009   0.159   3.724 -3.5217  1.2418  1.2957
13285TIP3   OH261345   0.571   4.137  11.408  0.0471 -0.4964 -0.1832
13285TIP3    H161346   0.486   4.181  11.412  0.1898 -0.2905  0.9450
13285TIP3    H261347   0.550   4.044  11.424  0.0154 -0.4714 -0.0774
13286TIP3   OH261348   2.759   0.714  17.291  0.0957  0.4084 -0.1350
13286TIP3    H161349   2.809   0.792  17.314  2.3604  0.0796 -3.2770
13286TIP3    H261350   2.794   0.645  17.347  0.0607  1.0609  0.7034
13287TIP3   OH261351   5.744   4.509   6.074 -0.4608  0.3450  0.1167
13287TIP3    H161352   5.776   4.533   6.162  0.1738  4.0794 -0.9442
13287TIP3    H261353   5.649   4.508   6.083 -0.3799 -0.0750  1.0109
13288TIP3   OH261354   3.906   5.402  11.928 -0.2749  0.2085  0.2441
13288TIP3    H161355   3.918   5.329  11.868  1.1428  0.8005 -0.2268
13288TIP3    H261356   3.985   5.454  11.919 -1.2788  1.8642  0.5062
13289TIP3   OH261357   0.432   2.129   5.707 -0.2009  0.2611 -0.6594
13289TIP3    H161358   0.509   2.096   5.754 -0.5763 -1.6210 -1.2699
13289TIP3    H261359   0.413   2.214   5.748  2.4752  1.0352 -0.8432
13290TIP3   OH261360   5.967   1.292   0.988  0.1532  0.3293 -0.8093
13290TIP3    H161361   6.061   1.302   0.998  0.3628 -0.7661 -1.4878
13290TIP3    H261362   5.943   1.359   0.924 -0.1842  3.0821  1.9555
13291TIP3   OH261363   0.672   5.776   4.544 -0.5298  0.1737  0.4250
13291TIP3    H161364   0.676   5.846   4.610 -0.2265  0.4895  0.0760
13291TIP3    H261365   0.760   5.740   4.543 -0.7799 -0.4672  0.8664
13292TIP3   OH261366   3.731   5.508  17.399 -0.0699 -0.1709 -0.1164
13292TIP3    H161367   3.723   5.480  17.490  1.4151  0.5832  0.2781
13292TIP3    H261368   3.723   5.603  17.402 -1.5454 -0.2359 -0.9880
13293TIP3   OH261369   4.037   6.295   6.440  0.3656 -0.3214 -0.0796
13293TIP3    H161370   4.127   6.323   6.426  0.5356 -1.0925 -0.6010
13293TIP3    H261371   4.007   6.265   6.354 -1.0439  1.7040 -0.3604
13294TIP3   OH261372   0.070   6.609  15.791 -0.5042  0.4048 -0.0518
13294TIP3    H161373   0.014   6.554  15.847 -1.0148 -0.8886 -1.7334
13294TIP3    H261374   0.054   6.698  15.822 -0.0619 -0.2831  2.4204
13295TIP3   OH261375   2.476   0.020   1.841 -0.0955 -0.4909  0.3004
13295TIP3    H161376   2.549   0.075   1.871 -1.4833  2.6190 -1.5703
13295TIP3    H261377   2.400   0.054   1.887 -1.2147  0.1871 -1.9006
13296TIP3   OH261378   5.057   2.416  15.076 -0.1527  0.3137  0.3746
13296TIP3    H161379   5.070   2.480  15.006 -2.0968  0.5917  0.2185
13296TIP3    H261380   4.985   2.361  15.046 -1.7795  1.1032  2.5623
13297TIP3   OH261381   2.078   4.690  14.009 -0.1622  0.1863 -0.1950
13297TIP3    H161382   1.987   4.665  14.022 -0.0269 -0.4524 -0.4370
13297TIP3    H261383   2.109   4.713  14.097 -0.0411 -1.3749  0.1917
13298TIP3   OH261384   0.426   3.305   0.366  0.0987 -0.1979  0.0590
13298TIP3    H161385   0.465   3.386   0.400 -0.3259  0.0260  0.0179
13298TIP3    H261386   0.356   3.284   0.428  0.4598 -0.7503  0.2857
13299TIP3   OH261387   4.481   0.509  16.997  0.2148 -0.2204 -0.0109
13299TIP3    H161388   4.479   0.441  17.065  2.0253 -0.0950  0.2211
13299TIP3    H261389   4.434   0.470  16.923 -0.5379 -0.9259  0.8166
13300TIP3   OH261390   4.448   0.804  12.859  0.4057 -0.3917 -0.1982
13300TIP3    H161391   4.386   0.734  12.840  0.8976 -0.7726 -0.4089
13300TIP3    H261392   4.528   0.779  12.813 -0.1869  1.6117 -2.5095
13301TIP3   OH261393   3.677   5.682  13.781 -0.0433  0.1382 -0.5581
13301TIP3    H161394   3.717   5.655  13.699  3.0148 -0.7888  1.0630
13301TIP3    H261395   3.683   5.778  13.781 -0.4183  0.1705 -1.5275
13302TIP3   OH261396   4.224   1.037  15.409  0.2970  0.1408  0.2764
13302TIP3    H161397   4.214   0.963  15.469 -1.1061  0.1130  0.0554
13302TIP3    H261398   4.318   1.042  15.392  0.5247 -0.9440  1.1017
13303TIP3   OH261399   0.571   3.923  15.753 -0.1844 -0.2157  0.0316
13303TIP3    H161400   0.498   3.916  15.692 -0.5505  2.4584  0.0669
13303TIP3    H261401   0.638   3.972  15.706  0.8796 -1.0228  0.6526
13304TIP3   OH261402   6.023   3.491  13.213 -0.4624  0.2755  0.7047
13304TIP3    H161403   6.089   3.487  13.283 -0.8546 -0.4333  1.0478
13304TIP3    H261404   6.056   3.430  13.147 -1.8769 -1.8862  1.8811
13305TIP3   OH261405   2.564   1.025   0.963  0.2586  0.3857 -0.2470
13305TIP3    H161406   2.599   0.941   0.993  0.0699  1.2902  2.9413
13305TIP3    H261407   2.491   1.043   1.022  0.0562  2.6108 -1.0639
13306TIP3   OH261408   5.180   3.414   5.272  0.2950 -0.5749  0.4531
13306TIP3    H161409   5.197   3.322   5.251 -0.1150 -0.8979  1.4513
13306TIP3    H261410   5.165   3.456   5.188  1.5038 -1.2061 -0.1121
13307TIP3   OH261411   3.452   5.514  13.877  0.5377  0.0862  0.0314
13307TIP3    H161412   3.534   5.469  13.897  0.5061  0.3043  0.6900
13307TIP3    H261413   3.467   5.605  13.904  0.3578  0.3095 -0.6164
13308TIP3   OH261414   1.920   2.491  13.842 -0.4702 -0.0965  0.1606
13308TIP3    H161415   1.997   2.543  13.818 -0.1760 -1.0959 -1.1664
13308TIP3    H261416   1.846   2.549  13.824 -0.1088  0.1675 -0.5247
13309TIP3   OH261417   3.728   2.817   5.217  0.2404 -0.3118  0.6583
13309TIP3    H161418   3.668   2.783   5.284  0.1460 -0.6196  0.4233
13309TIP3    H261419   3.740   2.743   5.156  2.6395 -1.0450  1.8881
13310TIP3   OH261420   3.642   1.438   3.076 -0.5976 -0.4640  0.5869
13310TIP3    H161421   3.678   1.352   3.097  2.0412  0.2493 -0.6409
13310TIP3    H261422   3.687   1.498   3.135 -0.2944  0.4004 -0.4955
13311TIP3   OH261423   5.396   1.275   2.877 -0.2182 -0.0724 -0.3682
13311TIP3    H161424   5.309   1.234   2.876  0.3046 -1.2395  0.1542
13311TIP3    H261425   5.387   1.348   2.937 -0.7606 -0.3687 -0.0797
13312TIP3   OH261426   3.988   5.001   4.751 -0.4226 -0.1564  0.0535
13312TIP3    H161427   3.959   5.092   4.758 -3.0582 -0.9886  1.3728
13312TIP3    H261428   4.077   5.002   4.787 -0.8190  1.7294  1.1340
13313TIP3   OH261429   5.411   6.601   5.181 -0.5388 -0.4104 -0.3316
13313TIP3    H161430   5.500   6.569   5.199 -0.2955  0.3623 -0.1005
13313TIP3    H261431   5.369   6.530   5.133  1.1459  0.2796 -3.0611
13314TIP3   OH261432   5.926   2.158  12.581  0.3304 -0.7415  0.5261
13314TIP3    H161433   5.980   2.107  12.520  0.0794 -0.6499  0.2203
13314TIP3    H261434   5.985   2.225  12.614 -0.1593  0.9156 -1.6786
13315TIP3   OH261435   0.272   2.290   2.942  0.3005  0.0489 -0.1462
13315TIP3    H161436   0.257   2.342   3.022 -0.6203 -1.8662  1.0188
13315TIP3    H261437   0.363   2.308   2.918  0.0632  2.0351  0.2817
13316TIP3   OH261438   1.045   2.134   4.376  0.2373  0.2335 -0.0900
13316TIP3    H161439   1.061   2.200   4.308 -0.2334 -1.0284 -1.4844
13316TIP3    H261440   0.952   2.114   4.368 -0.0214  0.6480  1.5273
13317TIP3   OH261441   5.631   1.781  14.634 -0.4148 -0.0649  0.3662
13317TIP3    H161442   5.727   1.787  14.632 -0.4667  0.9216  0.3847
13317TIP3    H261443   5.611   1.712  14.571  0.4082 -1.9794  2.1091
13318TIP3   OH261444   0.527   0.602   1.329  0.1242  0.1462  0.0254
13318TIP3    H161445   0.574   0.648   1.260  1.3457  0.1030  0.7961
13318TIP3    H261446   0.515   0.514   1.295  0.0846  0.3183 -0.4140
13319TIP3   OH261447   5.069   5.893  13.060 -0.6755 -0.1392  0.1938
13319TIP3    H161448   5.045   5.965  13.001 -1.0166 -0.0738  0.4141
13319TIP3    H261449   5.009   5.902  13.134 -1.7823 -1.6027 -0.4915
13320TIP3   OH261450   3.090   2.309  12.959 -0.0419 -0.6513 -0.4427
13320TIP3    H161451   3.005   2.353  12.971  0.9996  1.9392 -1.8424
13320TIP3    H261452   3.145   2.344  13.029  0.4530 -0.7383 -0.7860
13321TIP3   OH261453   2.234   2.381   5.971 -0.0406 -0.1748  0.5877
13321TIP3    H161454   2.294   2.310   5.948 -0.5112 -0.0862 -1.0533
13321TIP3    H261455   2.177   2.390   5.895 -0.9248  1.0018  1.3490
13322TIP3   OH261456   3.047   0.184   1.946  0.0037 -0.6012 -0.5709
13322TIP3    H161457   3.058   0.241   1.870  0.5744 -2.2078 -1.7559
13322TIP3    H261458   3.096   0.105   1.924  2.6477 -0.0959  2.6545
13323TIP3   OH261459   1.067   2.859  15.226 -0.3353  0.3637 -0.2841
13323TIP3    H161460   1.080   2.776  15.180 -2.7394  0.8996 -2.1280
13323TIP3    H261461   1.151   2.904  15.219  0.5894 -1.3360 -0.4844
13324TIP3   OH261462   4.720   1.683   6.707 -0.0387 -0.1762  0.2291
13324TIP3    H161463   4.719   1.731   6.624 -3.3056 -0.2193  0.1186
13324TIP3    H261464   4.770   1.604   6.689  1.1417  0.8195 -1.0414
13325TIP3   OH261465   0.004   0.760  15.010  1.0110  0.0223 -0.1400
13325TIP3    H161466  -0.009   0.840  15.062  0.5733 -0.1276 -0.0230
13325TIP3    H261467   0.096   0.766  14.982  0.9194  0.6771 -0.3210
13326TIP3   OH261468   2.122   1.032  11.689 -0.1169  0.2002 -0.2528
13326TIP3    H161469   2.190   0.970  11.715  1.1111  1.7242  0.3945
13326TIP3    H261470   2.049   1.015  11.749  0.3821 -0.2930  0.2159
13327TIP3   OH261471   3.492   5.788  12.006  0.5817  0.4878 -0.3530
13327TIP3    H161472   3.493   5.847  11.932 -1.3146  1.5897  0.4243
13327TIP3    H261473   3.534   5.837  12.077  1.9043 -0.3548 -0.5229
13328TIP3   OH261474   0.061   2.223  17.025  0.3484 -0.0472 -0.2539
13328TIP3    H161475   0.001   2.296  17.040 -1.7735 -1.1211 -2.8225
13328TIP3    H261476   0.139   2.265  16.988  0.2111  1.1195  0.6910
13329TIP3   OH261477   4.544   2.509   1.392  0.0967  0.1205  0.2708
13329TIP3    H161478   4.600   2.471   1.459  0.2272 -0.0546  0.0626
13329TIP3    H261479   4.548   2.603   1.408 -1.5395 -0.0264  1.8409
13330TIP3   OH261480   2.161   5.217  10.635 -0.0691 -0.4661  0.4661
13330TIP3    H161481   2.147   5.122  10.642  1.3260 -0.6235  1.8583
13330TIP3    H261482   2.191   5.243  10.723 -6.0957  2.3714  2.2152
13331TIP3   OH261483   4.591   1.043   4.837  0.1356  0.0690  0.2753
13331TIP3    H161484   4.510   1.045   4.888 -0.9292 -2.4490 -1.1710
13331TIP3    H261485   4.576   0.978   4.769  3.1010  0.1126 -0.5696
13332TIP3   OH261486   0.931   5.004  11.528 -0.4482 -0.1348  0.4834
13332TIP3    H161487   1.024   5.000  11.508 -0.4034 -0.1172  0.6955
13332TIP3    H261488   0.894   5.059  11.459 -0.4366 -0.8387 -0.0984
13333TIP3   OH261489   6.102   4.020  16.076 -0.3289 -0.1931 -0.0479
13333TIP3    H161490   6.077   4.100  16.030  0.6425 -0.0895 -0.4187
13333TIP3    H261491   6.177   4.045  16.130 -3.2239  0.5205  4.1442
13334TIP3   OH261492   4.039   2.836  15.864 -0.2170  0.3875  0.0127
13334TIP3    H161493   4.119   2.785  15.877 -1.3005 -1.1754  0.8978
13334TIP3    H261494   4.032   2.846  15.769  0.7408  0.0569 -0.1016
13335TIP3   OH261495   5.018   6.492  14.523  0.2366  0.2884 -0.3901
13335TIP3    H161496   5.105   6.490  14.481  0.6354 -1.3740  0.4383
13335TIP3    H261497   5.036   6.481  14.616 -0.8418  0.6255 -0.1314
13336TIP3   OH261498   6.506   6.026  12.177 -1.0296 -0.3233  0.4471
13336TIP3    H161499   6.520   5.971  12.255  2.4051 -0.4140 -0.0450
13336TIP3    H261500   6.567   6.099  12.189 -2.5427  1.2323 -0.8666
13337TIP3   OH261501   6.067   2.766   1.900 -0.2362  0.2324 -0.7224
13337TIP3    H161502   6.093   2.810   1.819 -1.8383  2.3146 -0.2210
13337TIP3    H261503   6.149   2.743   1.943  0.7240  2.2624 -1.3348
13338TIP3   OH261504   2.645   0.711   2.424 -0.5664  0.1271  0.0654
13338TIP3    H161505   2.590   0.709   2.502 -0.2618  0.8313  0.3082
13338TIP3    H261506   2.637   0.800   2.390 -0.7592 -0.1892 -0.7615
13339TIP3   OH261507   6.528   5.216   6.912 -0.4283 -0.3434  0.6496
13339TIP3    H161508   6.578   5.251   6.839  1.4297  0.6550  2.3150
13339TIP3    H261509   6.515   5.124   6.890  0.7976 -0.2582 -0.5691
13340TIP3   OH261510   3.416   0.772  15.569  0.9626  0.3012  0.5765
13340TIP3    H161511   3.348   0.710  15.545  1.3317 -0.2212  0.8744
13340TIP3    H261512   3.458   0.733  15.646  2.2949  0.0989 -0.2370
13341TIP3   OH261513   3.826   5.929  13.813 -0.4990 -0.6692 -0.0887
13341TIP3    H161514   3.863   5.949  13.899  0.9728 -3.1501 -0.0438
13341TIP3    H261515   3.892   5.959  13.751 -2.0376  2.1327 -0.5212
13342TIP3   OH261516   6.463   5.832  13.187 -0.1039 -0.5190  0.2389
13342TIP3    H161517   6.402   5.816  13.258 -2.6575  0.6817 -1.5232
13342TIP3    H261518   6.411   5.823  13.107  1.6851  1.7690 -1.3571
13343TIP3   OH261519   5.139   5.497  15.581 -0.7843  0.8280 -0.4473
13343TIP3    H161520   5.072   5.437  15.550 -0.3481 -0.5377  1.1150
13343TIP3    H261521   5.098   5.544  15.653 -0.3853  0.6748 -0.1149
13344TIP3   OH261522   2.191   4.471   1.192  0.6113 -0.1371 -0.4947
13344TIP3    H161523   2.219   4.546   1.139  1.2529  2.5950  3.2760
13344TIP3    H261524   2.098   4.462   1.172  0.5388  1.6339 -1.1549
13345TIP3   OH261525   0.725   4.519  15.984 -0.3748  0.3370 -0.0914
13345TIP3    H161526   0.634   4.503  15.960 -0.0466 -2.1406  0.1077
13345TIP3    H261527   0.768   4.545  15.902 -0.9529  0.0940 -0.4697
13346TIP3   OH261528   2.223   4.912  12.961 -0.1035  0.5582 -0.6340
13346TIP3    H161529   2.227   4.983  13.025  0.6230  1.2566 -1.4315
13346TIP3    H261530   2.143   4.864  12.982  0.8492 -0.1411  1.7334
13347TIP3   OH261531   4.136   2.226   2.376  0.2267 -0.5498 -0.3614
13347TIP3    H161532   4.157   2.320   2.379  0.4552 -0.5802 -0.9522
13347TIP3    H261533   4.086   2.211   2.456  2.0490 -0.3717  0.8755
13348TIP3   OH261534   5.146   6.769   6.049  0.6852  0.2748 -0.0992
13348TIP3    H161535   5.098   6.715   5.986  0.9323  0.2919 -0.3019
13348TIP3    H261536   5.092   6.767   6.128  1.0536 -0.8759  0.1352
13349TIP3   OH261537   4.510   5.883  12.935  0.6700  0.2826  0.1520
13349TIP3    H161538   4.509   5.948  12.865  1.6991  0.6671  0.4693
13349TIP3    H261539   4.596   5.841  12.927 -0.7857 -2.6450 -1.4507
13350TIP3   OH261540   5.695   0.525   1.394  0.0395  0.3675  0.5720
13350TIP3    H161541   5.723   0.615   1.380  0.9678  0.0385  0.2704
13350TIP3    H261542   5.764   0.485   1.446  0.8408 -0.8205 -1.2790
13351TIP3   OH261543   1.501   5.851  11.678 -0.3804 -1.0925 -0.5775
13351TIP3    H161544   1.431   5.909  11.707  1.9841  1.6769  0.0394
13351TIP3    H261545   1.490   5.772  11.731 -0.3233  1.1158  3.0476
13352TIP3   OH261546   3.879   3.990  15.262 -0.2357  0.1259 -0.1209
13352TIP3    H161547   3.890   3.907  15.306  1.0192 -0.6061 -1.7076
13352TIP3    H261548   3.787   4.014  15.278 -0.3506 -1.0557  1.1548
13353TIP3   OH261549   2.506   4.316  13.747  0.6930  0.4839  0.0334
13353TIP3    H161550   2.489   4.373  13.672  0.5507 -0.7328 -0.8908
13353TIP3    H261551   2.450   4.240  13.732  0.3708  0.3844  1.5886
13354TIP3   OH261552   6.335   2.182  17.021  0.0646  0.4913  0.1079
13354TIP3    H161553   6.320   2.228  16.939 -0.8988  0.5151  0.2894
13354TIP3    H261554   6.263   2.120  17.029  0.1600  0.4647  0.9226
13355TIP3   OH261555   3.046   2.017  12.112  0.2013  0.5016  0.0730
13355TIP3    H161556   3.041   2.111  12.095 -1.7394  0.4188 -0.1030
13355TIP3    H261557   2.955   1.991  12.129  0.6473 -1.3931 -0.1848
13356TIP3   OH261558   0.521   5.594   1.427  0.1069  0.0195 -0.1501
13356TIP3    H161559   0.510   5.568   1.336  0.9951 -1.3742  0.1151
13356TIP3    H261560   0.501   5.687   1.428 -0.6408 -0.0964 -1.6266
13357TIP3   OH261561   3.919   2.318   0.001  0.2250  0.2359 -0.0523
13357TIP3    H161562   3.978   2.378   0.046 -1.2533  0.0266  2.3499
13357TIP3    H261563   3.845   2.373  -0.026  0.2463  0.0249 -0.5463
13358TIP3   OH261564   0.892   0.180   6.206 -0.6279 -0.4138 -0.3068
13358TIP3    H161565   0.944   0.261   6.215  0.8007 -1.2060 -1.0611
13358TIP3    H261566   0.917   0.128   6.282 -0.7493 -0.5703 -0.3761
13359TIP3   OH261567   2.925   4.310   3.757 -0.8025  0.0561  0.1483
13359TIP3    H161568   2.946   4.230   3.710 -0.2505 -0.2644  0.9190
13359TIP3    H261569   2.848   4.344   3.713 -0.6002 -0.5037 -0.6567
13360TIP3   OH261570   3.014   1.540   5.940  0.3410 -0.3539 -0.2540
13360TIP3    H161571   3.036   1.633   5.942 -0.6028 -0.0681 -1.7203
13360TIP3    H261572   3.033   1.512   5.851  1.6454 -1.8720  0.4453
13361TIP3   OH261573   1.950   1.405   5.079  0.0202  0.3094 -0.1961
13361TIP3    H161574   1.992   1.319   5.081 -0.7665 -0.1030 -0.7690
13361TIP3    H261575   1.945   1.427   4.986  0.3196  1.0358 -0.0479
13362TIP3   OH261576   0.014   0.815   1.916 -0.3222 -0.1967 -0.5036
13362TIP3    H161577  -0.073   0.845   1.944 -0.6286 -0.5088 -1.1071
13362TIP3    H261578   0.071   0.836   1.990 -1.1024 -0.9056  0.3370
13363TIP3   OH261579   1.264   0.104  12.758  0.4480  0.4646  0.1556
13363TIP3    H161580   1.197   0.099  12.690  0.4658 -1.3044  0.2097
13363TIP3    H261581   1.345   0.079  12.714  1.0920  2.5234  0.1066
13364TIP3   OH261582   6.683   1.354  11.245 -0.9077 -0.5195 -0.3524
13364TIP3    H161583   6.620   1.424  11.227 -0.2095  0.0159 -0.7447
13364TIP3    H261584   6.684   1.346  11.341  0.1174  1.0637 -0.1998
13365TIP3   OH261585   0.052   1.531  15.289  0.0968  0.2103  0.3537
13365TIP3    H161586  -0.030   1.485  15.307  0.1269  0.2204  0.5165
13365TIP3    H261587   0.118   1.462  15.286 -0.0223  0.1262 -0.4550
13366TIP3   OH261588   6.113   6.199   2.505 -0.6230 -0.4512 -0.2374
13366TIP3    H161589   6.102   6.293   2.514 -2.0942 -0.5906 -0.4167
13366TIP3    H261590   6.099   6.182   2.412 -0.2616 -0.8443 -0.2248
13367TIP3   OH261591   1.394   4.877  15.439 -0.4724 -0.8180 -0.1096
13367TIP3    H161592   1.407   4.910  15.350 -3.4192 -0.5310 -0.5131
13367TIP3    H261593   1.417   4.951  15.495 -0.6966 -0.2706 -0.7305
13368TIP3   OH261594   5.359   2.358   5.757 -0.2893 -0.1260  0.7861
13368TIP3    H161595   5.358   2.269   5.722 -0.1110  0.2654 -0.2645
13368TIP3    H261596   5.399   2.350   5.843  2.0777 -0.7385 -0.2902
13369TIP3   OH261597   2.533   0.449  17.221 -0.4258 -0.3488 -0.0665
13369TIP3    H161598   2.462   0.397  17.182 -1.0534  0.6733 -0.3355
13369TIP3    H261599   2.488   0.520  17.267  0.4344  0.5986 -0.6470
13370TIP3   OH261600   1.374   3.645   5.411  0.2582 -0.1684  0.7651
13370TIP3    H161601   1.444   3.614   5.468 -0.2602 -2.8753  0.0638
13370TIP3    H261602   1.318   3.568   5.398 -0.4017  0.7100 -2.2786
13371TIP3   OH261603   5.971   0.575   5.449  0.0546 -0.1526  0.2727
13371TIP3    H161604   5.955   0.655   5.399  0.0454 -0.1998  0.1999
13371TIP3    H261605   6.047   0.536   5.407 -0.5067 -0.6648 -0.2828
13372TIP3   OH261606   5.993   0.572  12.319  0.0218 -0.2796  0.4293
13372TIP3    H161607   5.947   0.634  12.262  0.2681 -0.0465  0.4765
13372TIP3    H261608   5.974   0.603  12.408  2.5290  1.5717  0.4489
13373TIP3   OH261609   3.940   6.659   3.061  0.4090 -0.9543 -0.2467
13373TIP3    H161610   3.924   6.742   3.016 -0.4083 -0.4827  0.8548
13373TIP3    H261611   3.923   6.592   2.995 -1.6745 -0.3159 -0.4302
13374TIP3   OH261612   1.791   2.635   0.232  0.0456 -0.2477 -0.1888
13374TIP3    H161613   1.868   2.619   0.176  0.6430  0.5111  0.4036
13374TIP3    H261614   1.725   2.669   0.172  1.2443  2.2641 -0.2152
13375TIP3   OH261615   3.861   4.216  15.868  0.3059 -0.1606  0.1828
13375TIP3    H161616   3.947   4.173  15.863  0.0589 -0.5532 -0.7454
13375TIP3    H261617   3.824   4.207  15.780  0.5246  2.5193 -0.2638
13376TIP3   OH261618   0.432   4.919  10.666 -0.5748  0.3869 -0.5237
13376TIP3    H161619   0.485   4.923  10.587 -0.6469  0.1347 -0.5869
13376TIP3    H261620   0.461   4.840  10.711 -2.4455 -1.0478 -1.6915
13377TIP3   OH261621   1.693   0.145  12.542 -0.5766  0.2937  0.5552
13377TIP3    H161622   1.756   0.081  12.575 -0.7302  0.4227  1.1145
13377TIP3    H261623   1.746   0.215  12.505 -0.4018 -0.7894 -1.3499
13378TIP3   OH261624   6.770   2.568   0.458  0.1084  0.3022  0.6732
13378TIP3    H161625   6.769   2.664   0.459 -0.3451  0.3709 -1.4791
13378TIP3    H261626   6.684   2.544   0.424 -1.1066 -1.0581  4.1627
13379TIP3   OH261627   6.540   1.734   5.483 -0.2852 -0.1631 -0.0086
13379TIP3    H161628   6.521   1.670   5.415 -2.0461  0.6459 -0.3309
13379TIP3    H261629   6.507   1.817   5.448 -0.4142  0.4299  1.4493
13380TIP3   OH261630   2.778   1.907  12.130  0.2182 -0.3401  0.6431
13380TIP3    H161631   2.704   1.938  12.183 -0.8843 -0.9231 -0.4958
13380TIP3    H261632   2.737   1.860  12.057  1.6688  0.4071 -0.7132
13381TIP3   OH261633   5.988   1.754   0.378  0.1259  0.5355 -0.1170
13381TIP3    H161634   6.024   1.744   0.466 -1.3248  1.9408  0.6849
13381TIP3    H261635   5.904   1.708   0.380  0.3033  0.1547 -0.9229
13382TIP3   OH261636   1.777   6.455  15.073  0.2469 -0.4082  0.1003
13382TIP3    H161637   1.812   6.507  15.145  0.2532 -0.3887  0.0830
13382TIP3    H261638   1.788   6.510  14.995 -3.3004  1.2259  0.5952
13383TIP3   OH261639   0.988   1.875  15.920 -0.3515  0.5504 -0.8630
13383TIP3    H161640   1.038   1.871  16.002 -0.6565 -0.5815 -0.7231
13383TIP3    H261641   1.055   1.881  15.852 -0.0163 -0.5014 -0.6462
13384TIP3   OH261642   6.314   2.021  15.858  0.2868  0.8650 -0.4109
13384TIP3    H161643   6.299   2.003  15.765 -0.4882  0.1420 -0.1590
13384TIP3    H261644   6.264   2.101  15.875 -1.9851 -0.5614  0.0115
13385TIP3   OH261645   0.056   0.760   5.950 -0.0083  0.6722 -0.3558
13385TIP3    H161646   0.058   0.677   5.902 -0.8920  0.0686  0.6182
13385TIP3    H261647   0.024   0.737   6.037 -0.5443  2.0749 -0.1559
13386TIP3   OH261648   6.225   1.687  17.377 -0.2695  0.0414 -0.1615
13386TIP3    H161649   6.168   1.745  17.427 -0.1997 -0.4759  0.5360
13386TIP3    H261650   6.166   1.625  17.334 -0.2495 -0.3833  0.4162
13387TIP3   OH261651   2.735   3.708   3.296  0.2521  0.4763  0.4920
13387TIP3    H161652   2.653   3.688   3.252  0.9875  2.4409 -2.0415
13387TIP3    H261653   2.783   3.626   3.296 -0.3875  0.0534 -1.1785
13388TIP3   OH261654   3.236   6.135   3.109  0.1356 -0.2563  0.1471
13388TIP3    H161655   3.245   6.216   3.059 -0.1483 -0.3306 -0.0275
13388TIP3    H261656   3.164   6.088   3.067 -1.0356  0.3097  1.4516
13389TIP3   OH261657   3.446   4.799  13.254  0.2647 -0.0193  0.5637
13389TIP3    H161658   3.399   4.716  13.265 -0.6069  0.5939  1.5527
13389TIP3    H261659   3.485   4.793  13.166  0.5969 -1.6578  0.7918
13390TIP3   OH261660   3.223   6.503   2.644 -0.9807 -0.0248  0.2791
13390TIP3    H161661   3.249   6.595   2.645 -0.3490 -0.2007  0.5104
13390TIP3    H261662   3.128   6.505   2.638 -0.9818  0.6455  0.4593
13391TIP3   OH261663   6.174   1.646   1.305 -0.0692 -0.0973 -0.3523
13391TIP3    H161664   6.262   1.681   1.299 -1.3385  3.4872 -0.4201
13391TIP3    H261665   6.134   1.693   1.379 -1.8053 -1.9731  0.0016
13392TIP3   OH261666   6.101   3.106  14.938  0.1763  0.6089 -0.6915
13392TIP3    H161667   6.192   3.121  14.912  1.1039 -0.3934  1.6854
13392TIP3    H261668   6.050   3.169  14.887  2.0314  0.4209 -2.9407
13393TIP3   OH261669   1.149   3.880  13.648  0.1158 -0.7979  0.0469
13393TIP3    H161670   1.228   3.827  13.657  0.6672  0.1821  1.5271
13393TIP3    H261671   1.144   3.901  13.555  0.2074 -2.8782 -0.4821
13394TIP3   OH261672   1.921   2.632   4.751 -0.3193 -0.1107 -0.3294
13394TIP3    H161673   1.967   2.644   4.667 -1.5645 -0.5767 -1.0957
13394TIP3    H261674   1.917   2.720   4.788  3.7393 -0.3375  1.2095
13395TIP3   OH261675   5.227   5.322  13.349  0.0980 -0.2996  0.1430
13395TIP3    H161676   5.152   5.339  13.406 -0.2768 -1.1283 -0.1017
13395TIP3    H261677   5.296   5.291  13.408 -0.0387 -0.4137  0.2416
13396TIP3   OH261678   2.152   6.490  11.235  0.0180 -0.1372  0.4025
13396TIP3    H161679   2.126   6.411  11.281 -2.2701 -0.3337 -1.0777
13396TIP3    H261680   2.244   6.475  11.210 -0.3506 -2.3017  0.1919
13397TIP3   OH261681   6.028   1.069   4.983  0.2614 -0.3550 -0.5611
13397TIP3    H161682   6.039   1.137   5.050 -3.0392  0.1458 -0.3648
13397TIP3    H261683   6.109   1.018   4.988  1.8950  2.1614  0.8706
13398TIP3   OH261684   5.167   2.690   6.161  0.3245 -0.0056  0.6100
13398TIP3    H161685   5.080   2.723   6.183  0.7589 -0.4114  3.2118
13398TIP3    H261686   5.226   2.733   6.223  1.9565 -0.0555 -0.8309
13399TIP3   OH261687   5.070   1.982   6.193 -0.3404 -0.1768  0.1765
13399TIP3    H161688   5.000   1.943   6.244  0.6849 -2.3481  0.0244
13399TIP3    H261689   5.150   1.962   6.242  0.4053  0.0116 -0.9253
13400TIP3   OH261690   1.879   4.839   4.848  0.2867 -0.0535 -0.3585
13400TIP3    H161691   1.944   4.909   4.847  1.0700 -0.7699 -0.5828
13400TIP3    H261692   1.840   4.841   4.760 -0.0913  0.4580 -0.1816
13401TIP3   OH261693   0.772   3.114  13.722 -0.3377  0.5524 -0.4742
13401TIP3    H161694   0.753   3.195  13.676  0.1466 -0.1577 -1.9813
13401TIP3    H261695   0.817   3.059  13.658  1.1406 -0.1756  1.0799
13402TIP3   OH261696   2.715   4.190  11.286 -0.0005 -0.5938 -0.0580
13402TIP3    H161697   2.672   4.250  11.348  1.6440 -0.4287  0.9671
13402TIP3    H261698   2.688   4.222  11.200 -1.7624 -0.3875  0.5235
13403TIP3   OH261699   5.020   3.848   0.599 -0.1477 -0.0690 -0.1325
13403TIP3    H161700   5.046   3.926   0.648 -0.2927  0.6278 -1.1519
13403TIP3    H261701   5.054   3.862   0.511  0.3168 -1.4131 -0.1989
13404TIP3   OH261702   3.544   5.775   5.216  0.6772  0.1660 -0.5725
13404TIP3    H161703   3.622   5.830   5.216  0.1010  1.0301 -0.1643
13404TIP3    H261704   3.554   5.720   5.294  1.3046 -0.3785 -1.0338
13405TIP3   OH261705   6.517   6.723   3.681 -0.4505 -0.2877  0.6254
13405TIP3    H161706   6.440   6.675   3.711  0.1379 -0.9098  1.1719
13405TIP3    H261707   6.516   6.713   3.586 -0.5643 -1.0371  0.6963
13406TIP3   OH261708   1.254   5.792   2.482 -0.0791  0.1856  0.5495
13406TIP3    H161709   1.286   5.867   2.532  2.4933 -1.8924  2.3597
13406TIP3    H261710   1.179   5.761   2.532 -0.3563  0.7835  0.5144
13407TIP3   OH261711   2.586   1.988  11.334  0.0210 -0.0301 -0.1506
13407TIP3    H161712   2.532   2.052  11.288  0.0144  1.7977  2.2478
13407TIP3    H261713   2.533   1.959  11.408  0.0790 -2.8188 -1.0765
13408TIP3   OH261714   1.919   5.765  15.815  0.4022 -0.2022  0.1937
13408TIP3    H161715   1.866   5.792  15.890  0.0927  1.4134 -0.5538
13408TIP3    H261716   1.963   5.845  15.787  1.0890 -0.9334 -0.9080
13409TIP3   OH261717   3.923   4.402  11.335 -0.2556  0.5881 -0.8521
13409TIP3    H161718   3.997   4.410  11.274  0.4840 -1.1126 -0.2224
13409TIP3    H261719   3.907   4.492  11.364  1.1496  1.0722 -1.4754
13410TIP3   OH261720   4.729   3.831   2.747 -0.0544  0.5475 -0.2315
13410TIP3    H161721   4.717   3.776   2.825 -1.7344  1.1561 -0.0328
13410TIP3    H261722   4.642   3.837   2.708  0.2058  2.5272 -0.5948
13411TIP3   OH261723   0.294   3.630   0.234 -0.1788  0.4387  0.0021
13411TIP3    H161724   0.356   3.634   0.307 -0.0748  1.5802 -0.1310
13411TIP3    H261725   0.218   3.680   0.265 -0.2552  0.6693 -0.5497
13412TIP3   OH261726   4.237   5.712  13.283 -0.0035  0.0062  0.1569
13412TIP3    H161727   4.310   5.685  13.340  0.3244 -1.1135 -0.7564
13412TIP3    H261728   4.273   5.786  13.233  0.4111 -0.3517 -0.0816
13413TIP3   OH261729   3.535   6.710   2.278 -0.4373  0.4677  0.1832
13413TIP3    H161730   3.467   6.778   2.278  1.7435  2.8340 -0.8881
13413TIP3    H261731   3.542   6.683   2.186 -0.4172 -0.3012  0.4032
13414TIP3   OH261732   3.966   2.227  12.294  0.2368  0.9012  0.3186
13414TIP3    H161733   4.038   2.186  12.246 -0.4574 -1.4547  1.1541
13414TIP3    H261734   3.969   2.319  12.267  2.3186  0.4833 -1.1519
13415TIP3   OH261735   1.164   3.369   0.871  1.0322 -0.2410  0.3398
13415TIP3    H161736   1.214   3.416   0.804  1.3228  1.2380  1.5458
13415TIP3    H261737   1.090   3.426   0.890  0.6289 -0.9235  0.8487
13416TIP3   OH261738   4.058   2.161   4.224 -0.0946 -0.3606  0.2455
13416TIP3    H161739   3.998   2.087   4.227 -0.3646 -0.2775 -1.5442
13416TIP3    H261740   4.002   2.238   4.227 -0.0625 -0.2794 -0.6978
13417TIP3   OH261741   1.099   2.671   3.202  0.2532 -0.5356  0.3495
13417TIP3    H161742   1.072   2.638   3.117 -0.1680  1.1288 -0.1933
13417TIP3    H261743   1.116   2.764   3.188  0.8891 -0.3828  1.9193
13418TIP3   OH261744   1.908   5.167  13.086  0.0796  0.5523 -0.5163
13418TIP3    H161745   1.973   5.140  13.022  1.0291  1.1227  0.1738
13418TIP3    H261746   1.854   5.089  13.100  1.5244 -0.4201 -0.0232
13419TIP3   OH261747   2.163   2.266  15.956  0.0343 -0.1961  0.3480
13419TIP3    H161748   2.126   2.242  16.041 -1.3029 -2.1698 -0.7187
13419TIP3    H261749   2.183   2.182  15.914 -1.8858  0.5576 -2.3501
13420TIP3   OH261750   6.453   2.980   3.406 -0.4039 -0.1716  0.1203
13420TIP3    H161751   6.425   3.029   3.484  1.0691 -0.5347  0.9238
13420TIP3    H261752   6.389   3.003   3.339 -0.3600  2.0957  0.7460
13421TIP3   OH261753   0.455   4.212   2.719  0.1348 -0.1842 -0.4017
13421TIP3    H161754   0.458   4.224   2.624 -1.8109 -1.6724 -0.7213
13421TIP3    H261755   0.522   4.146   2.737  1.9146  1.5323 -0.3962
13422TIP3   OH261756   6.180   4.553   0.029 -0.3257 -0.1077 -0.3152
13422TIP3    H161757   6.158   4.529  -0.062  0.9704  1.1105 -0.9828
13422TIP3    H261758   6.267   4.516   0.043 -0.2756  0.2144  0.2405
13423TIP3   OH261759   0.490   4.999  12.330 -0.2319 -0.3538 -0.2598
13423TIP3    H161760   0.460   5.028  12.244  0.3434 -1.4207 -0.8477
13423TIP3    H261761   0.583   5.022  12.333 -0.2846 -0.1758  0.1487
13424TIP3   OH261762   1.172   1.595   2.046 -0.0591  0.8336 -0.4245
13424TIP3    H161763   1.160   1.608   1.952  3.1077  0.6666 -0.9657
13424TIP3    H261764   1.193   1.502   2.055  1.2518  1.1622  0.1918
13425TIP3   OH261765   2.454   2.780  16.098  0.1351 -0.1276  0.0331
13425TIP3    H161766   2.529   2.776  16.038  0.2480  0.5842  0.1186
13425TIP3    H261767   2.394   2.712  16.066  1.4572 -1.7674  0.8473
13426TIP3   OH261768   4.042   5.204  14.225 -0.4927  0.0049 -0.0099
13426TIP3    H161769   4.082   5.127  14.265 -0.9262 -0.5354 -0.5941
13426TIP3    H261770   3.953   5.206  14.260 -1.2112 -1.0504 -1.6480
13427TIP3   OH261771   3.063   5.691  13.781  0.0556 -0.0112 -0.3517
13427TIP3    H161772   3.149   5.715  13.745  0.7037 -2.5479 -0.6950
13427TIP3    H261773   3.079   5.610  13.830 -2.1578 -0.5555 -0.4185
13428TIP3   OH261774   2.793   2.688   2.862 -0.2313  0.3929 -0.2123
13428TIP3    H161775   2.765   2.676   2.771 -0.0558  0.2229 -0.2447
13428TIP3    H261776   2.837   2.773   2.863  0.9401 -0.1834 -0.5756
13429TIP3   OH261777   2.177   2.661   3.275 -0.3810 -0.0513 -1.5134
13429TIP3    H161778   2.238   2.636   3.205  1.3676 -0.0155 -0.0696
13429TIP3    H261779   2.233   2.690   3.346 -2.1519  1.0324 -0.4895
13430TIP3   OH261780   2.992   0.995  15.748 -0.8583  0.0456  0.4013
13430TIP3    H161781   3.068   1.024  15.797 -0.1122  0.9130 -1.1753
13430TIP3    H261782   2.999   0.899  15.748  0.4244  0.1194  0.0224
13431TIP3   OH261783   2.733   0.133  16.583 -0.0048  0.1839 -0.2910
13431TIP3    H161784   2.694   0.047  16.575  2.2225 -0.9845  0.5109
13431TIP3    H261785   2.717   0.174  16.498 -0.6452 -1.2134 -0.8765
13432TIP3   OH261786   3.344   4.658  13.669  0.3549 -0.5047 -0.5435
13432TIP3    H161787   3.341   4.753  13.656 -0.3159 -0.6955 -2.0807
13432TIP3    H261788   3.437   4.636  13.659  0.7547  0.1261  1.3147
13433TIP3   OH261789   5.480   2.240   3.172  0.3199 -0.2715 -0.4702
13433TIP3    H161790   5.525   2.294   3.107  1.0159 -0.2958 -0.0206
13433TIP3    H261791   5.408   2.296   3.203  1.4509  0.7009  0.4964
13434TIP3   OH261792   5.981   6.400   2.202  0.0715  0.3498 -0.0134
13434TIP3    H161793   5.924   6.419   2.128 -1.7030 -2.4084  0.4875
13434TIP3    H261794   6.031   6.323   2.176  0.1934 -0.0237  1.2184
13435TIP3   OH261795   6.107   3.883   0.063  0.5228  0.7606  0.4672
13435TIP3    H161796   6.167   3.954   0.085  2.0867 -0.5959  0.7852
13435TIP3    H261797   6.162   3.806   0.056 -0.6906  0.0188 -2.6886
13436TIP3   OH261798   0.398   2.687  13.310 -0.1971 -0.5491 -0.4177
13436TIP3    H161799   0.431   2.602  13.338  0.7913 -0.0598 -0.0427
13436TIP3    H261800   0.425   2.695  13.218  1.2017  0.0444  0.0151
13437TIP3   OH261801   4.119   0.306  12.826  0.2489  0.6620  0.5191
13437TIP3    H161802   4.184   0.263  12.771  1.7202  2.6307  0.6137
13437TIP3    H261803   4.167   0.333  12.904 -1.6087 -1.3201  2.4976
13438TIP3   OH261804   5.609   6.078  13.362  0.3702 -0.7728  0.0350
13438TIP3    H161805   5.586   5.989  13.386  1.1311 -1.3113 -1.1611
13438TIP3    H261806   5.698   6.071  13.326  0.1889  0.3577 -0.6871
13439TIP3   OH261807   1.486   0.742   5.407  0.5967  0.0070  0.2670
13439TIP3    H161808   1.525   0.791   5.480  1.4102  0.0009 -0.1531
13439TIP3    H261809   1.556   0.736   5.343 -1.0287  3.0162 -2.0438
13440TIP3   OH261810   3.928   1.955   6.083 -0.4715  0.2750  0.2317
13440TIP3    H161811   3.943   2.050   6.077 -0.9944  0.4135  1.0191
13440TIP3    H261812   3.841   1.947   6.122 -0.7676 -0.5331 -0.5586
13441TIP3   OH261813   6.678   0.396   0.669 -0.0508 -0.0393 -0.1562
13441TIP3    H161814   6.601   0.406   0.613 -0.2133  0.3171  0.1261
13441TIP3    H261815   6.670   0.466   0.734  1.4779  1.1872 -1.2216
13442TIP3   OH261816   4.238   5.313   4.813  0.2743 -0.0482 -0.2892
13442TIP3    H161817   4.190   5.248   4.763  1.0381 -1.2113  0.4460
13442TIP3    H261818   4.279   5.264   4.884  1.4796  1.1103 -0.1358
13443TIP3   OH261819   2.601   3.271   1.045 -0.0600 -0.7554  0.4452
13443TIP3    H161820   2.579   3.244   0.955  0.2368 -2.0067  0.7292
13443TIP3    H261821   2.662   3.344   1.034  1.4969 -2.1211 -0.4091
13444TIP3   OH261822   0.270   3.243   6.251  0.4112 -0.0596  0.1468
13444TIP3    H161823   0.241   3.327   6.218 -3.0373 -1.8034 -1.8294
13444TIP3    H261824   0.325   3.208   6.181  1.0002  0.1170  0.5175
13445TIP3   OH261825   1.934   6.090   4.835  0.4423 -0.6007 -0.0419
13445TIP3    H161826   1.859   6.129   4.881  0.5982 -0.9348  0.5031
13445TIP3    H261827   1.902   6.073   4.747  0.0177 -0.3110  0.0518
13446TIP3   OH261828   2.386   5.414  14.167 -0.0453 -0.1755 -0.3865
13446TIP3    H161829   2.354   5.338  14.117 -1.9791  0.2206  0.1693
13446TIP3    H261830   2.337   5.488  14.131  1.9122  0.8817 -1.0056
13447TIP3   OH261831   0.987   4.100  14.037 -0.3750 -0.6236  0.1702
13447TIP3    H161832   1.013   4.192  14.031 -2.3230  0.2081  2.7172
13447TIP3    H261833   1.069   4.051  14.038  0.8173  1.2842  1.2769
13448TIP3   OH261834   4.703   5.495  13.147  0.2421  0.3147 -0.1863
13448TIP3    H161835   4.778   5.551  13.127  2.7846 -2.7023  0.2135
13448TIP3    H261836   4.710   5.477  13.241  0.1193 -1.4669 -0.4858
13449TIP3   OH261837   3.341   4.500   0.345  0.4131  0.4589  0.2647
13449TIP3    H161838   3.322   4.579   0.395  0.3744  0.6051  0.0240
13449TIP3    H261839   3.337   4.528   0.253 -1.2804 -0.1691  0.0924
13450TIP3   OH261840   3.519   1.429  16.866  0.2195 -0.0034 -0.1451
13450TIP3    H161841   3.484   1.508  16.906 -0.4002 -0.6055  0.5523
13450TIP3    H261842   3.576   1.392  16.934 -1.8209 -1.7020  0.7784
13451TIP3   OH261843   2.330   6.228   1.413  0.2761 -0.1412  0.0575
13451TIP3    H161844   2.375   6.149   1.442 -0.3139  0.1552  1.8846
13451TIP3    H261845   2.359   6.297   1.473 -1.3401  0.3970  0.2944
13452TIP3   OH261846   4.369   1.129   4.966 -0.7986  0.6734 -0.3010
13452TIP3    H161847   4.359   1.224   4.978 -1.4317  0.6942 -0.9341
13452TIP3    H261848   4.282   1.094   4.984 -0.0236 -0.0921  2.4785
13453TIP3   OH261849   0.620   3.056   1.867  0.5227  0.4805  0.1929
13453TIP3    H161850   0.574   3.034   1.948  2.2412 -0.3481  0.9943
13453TIP3    H261851   0.633   2.972   1.823 -1.2389  0.9988 -1.4966
13454TIP3   OH261852   2.608   4.433  11.406 -0.4798  0.5712  0.0264
13454TIP3    H161853   2.620   4.423  11.501  1.8470 -0.2933 -0.2988
13454TIP3    H261854   2.637   4.522  11.388 -0.0063  0.4175  0.0138
13455TIP3   OH261855   4.555   4.857   1.092  0.4295 -0.4340 -0.1863
13455TIP3    H161856   4.506   4.834   1.013  0.5309  0.1304 -0.4154
13455TIP3    H261857   4.634   4.803   1.087  1.1692  0.7023 -1.2652
13456TIP3   OH261858   4.204   4.002  13.943 -0.1675 -0.5442  0.1285
13456TIP3    H161859   4.167   4.005  13.855  0.7770 -1.9603 -0.3467
13456TIP3    H261860   4.140   3.951  13.994 -1.0580  0.8624  0.4707
13457TIP3   OH261861   0.636   1.623   2.894  0.0186 -0.5305  0.1156
13457TIP3    H161862   0.642   1.648   2.802  0.1737 -1.2933 -0.0840
13457TIP3    H261863   0.546   1.642   2.918 -0.1197 -0.6542 -0.2941
13458TIP3   OH261864   4.299   1.061   4.632 -0.2448  0.0932  0.3273
13458TIP3    H161865   4.290   1.064   4.537 -0.5546 -1.6236  0.2727
13458TIP3    H261866   4.378   1.112   4.650 -0.1840  0.4442 -0.8453
13459TIP3   OH261867   5.449   5.303   6.625  0.3443  0.0526 -0.2531
13459TIP3    H161868   5.455   5.218   6.670 -1.9573  0.5998  1.2862
13459TIP3    H261869   5.432   5.366   6.695 -0.5594  1.3914 -1.6048
13460TIP3   OH261870   4.505   4.114   2.401 -0.6044  0.3089 -0.1769
13460TIP3    H161871   4.450   4.081   2.329 -0.6052 -1.4438  0.5804
13460TIP3    H261872   4.443   4.131   2.472 -0.3850  0.1044  0.0662
13461TIP3   OH261873   3.981   2.230   6.025 -0.1919  0.5293  0.2102
13461TIP3    H161874   4.046   2.285   6.069 -0.9115  0.8209  0.9325
13461TIP3    H261875   3.947   2.284   5.954  0.7932  0.1476 -0.5743
13462TIP3   OH261876   5.329   3.739   6.834 -0.0831 -0.2504 -0.0397
13462TIP3    H161877   5.414   3.701   6.813 -0.7929 -0.6744 -2.3910
13462TIP3    H261878   5.348   3.830   6.858  1.2196 -0.9457  1.8086
13463TIP3   OH261879   4.233   4.704   2.238 -0.4170 -0.0017 -0.2885
13463TIP3    H161880   4.286   4.675   2.312 -0.1626  0.1475 -0.4088
13463TIP3    H261881   4.297   4.733   2.173 -0.6139 -0.9281 -0.9060
13464TIP3   OH261882   6.074   1.646   5.458  0.1546  0.0541  0.1748
13464TIP3    H161883   6.035   1.710   5.398  2.8620  0.3619 -1.4214
13464TIP3    H261884   6.134   1.698   5.512  1.2235 -0.8919 -0.0801
13465TIP3   OH261885   1.964   0.049   0.110  0.0590  0.0339  0.9220
13465TIP3    H161886   1.977   0.142   0.129 -0.3617  0.4068 -0.5171
13465TIP3    H261887   1.872   0.033   0.131 -0.5452  0.5673 -1.0879
13466TIP3   OH261888   6.007   6.492   5.792 -0.5314 -0.5393 -0.1758
13466TIP3    H161889   6.076   6.558   5.780 -1.0861 -0.1607 -1.4881
13466TIP3    H261890   6.054   6.413   5.818  0.1231  0.4105  1.7787
13467TIP3   OH261891   3.414   1.306  13.550 -0.1885 -0.5178 -0.2088
13467TIP3    H161892   3.361   1.234  13.516  0.0835 -1.0280  0.4213
13467TIP3    H261893   3.414   1.371  13.480 -0.4106 -1.1433 -0.8010
13468TIP3   OH261894   1.490   3.818  16.354 -0.2753 -0.0995  0.2392
13468TIP3    H161895   1.525   3.819  16.443 -0.2409 -1.9785  0.2918
13468TIP3    H261896   1.402   3.855  16.362  0.7153  2.3271  0.5418
13469TIP3   OH261897   6.415   2.518   0.723 -0.0062 -0.0136  0.0628
13469TIP3    H161898   6.361   2.595   0.744 -0.0316  0.3081 -1.1151
13469TIP3    H261899   6.472   2.507   0.800 -1.3361 -0.0179  1.0880
13470TIP3   OH261900   2.550   0.423  13.510  0.2529 -0.2769  0.2461
13470TIP3    H161901   2.521   0.514  13.521  1.6693  0.1825  0.4446
13470TIP3    H261902   2.632   0.430  13.460 -1.2496 -1.6778 -2.6670
13471TIP3   OH261903   4.844   6.192   2.948  0.0902 -0.2273  0.2346
13471TIP3    H161904   4.811   6.206   3.037  2.0949 -1.1360  1.1799
13471TIP3    H261905   4.829   6.098   2.931  0.8520 -0.3381  0.1275
13472TIP3   OH261906   3.527   2.395   0.119 -0.1498  0.1178 -0.0524
13472TIP3    H161907   3.436   2.406   0.095 -0.4824 -0.0093  1.0871
13472TIP3    H261908   3.537   2.302   0.137  0.4624 -0.0413 -1.1128
13473TIP3   OH261909   3.774   5.493   2.391  0.0872  0.0371  0.1262
13473TIP3    H161910   3.757   5.519   2.300  0.6619 -0.6174 -0.1790
13473TIP3    H261911   3.691   5.507   2.436  0.3334  2.3631 -0.0027
13474TIP3   OH261912   5.329   1.287   1.754  0.1152  0.5581  0.3064
13474TIP3    H161913   5.251   1.296   1.809  0.9178  1.9983  1.2597
13474TIP3    H261914   5.319   1.354   1.687  0.6283  0.9159  0.5770
13475TIP3   OH261915   0.268   2.671   5.375  0.3402 -0.0067 -0.5190
13475TIP3    H161916   0.283   2.580   5.349  2.2915  0.7293 -2.2715
13475TIP3    H261917   0.189   2.696   5.327  1.3880 -0.0021 -2.3393
13476TIP3   OH261918   4.402   5.248   2.837 -0.4367 -0.5104 -0.0273
13476TIP3    H161919   4.360   5.229   2.921 -0.1276  0.8262  0.4461
13476TIP3    H261920   4.454   5.170   2.818 -0.6663 -0.9055  0.9217
13477TIP3   OH261921   0.167   0.710   5.234 -0.3602  0.4624 -0.1827
13477TIP3    H161922   0.133   0.708   5.324  2.5690 -1.4725  1.0525
13477TIP3    H261923   0.112   0.647   5.187 -1.6963  1.2187  0.2920
13478TIP3   OH261924   2.753   6.688   1.498  0.3217  0.1015 -0.6742
13478TIP3    H161925   2.681   6.748   1.482  0.7009  0.5987 -0.5473
13478TIP3    H261926   2.768   6.692   1.592 -1.8456 -2.7565 -0.0730
13479TIP3   OH261927   2.058   1.750   2.200  0.3139  0.4874  0.4239
13479TIP3    H161928   1.994   1.821   2.206 -0.4885 -0.1884  0.2166
13479TIP3    H261929   2.021   1.690   2.135  1.9718  0.8604 -0.9305
13480TIP3   OH261930   3.187   6.477  12.642  0.1691 -0.1463  0.6364
13480TIP3    H161931   3.178   6.481  12.737 -0.4649 -2.1616  0.6940
13480TIP3    H261932   3.112   6.526  12.608 -0.7346 -1.1230  1.1844
13481TIP3   OH261933   6.396   0.330   2.163 -0.2657 -0.0695 -0.0279
13481TIP3    H161934   6.319   0.383   2.141 -0.7200 -1.1402 -1.1426
13481TIP3    H261935   6.448   0.386   2.220 -1.5420  0.9377  0.2059
13482TIP3   OH261936   1.655   0.083   3.188  0.1677  0.2807 -0.0846
13482TIP3    H161937   1.746   0.053   3.187 -0.0324 -0.3998  0.8284
13482TIP3    H261938   1.620   0.050   3.271 -1.0473  0.0994 -0.6515
13483TIP3   OH261939   3.270   6.764   5.700 -0.3629  0.6151  0.0668
13483TIP3    H161940   3.286   6.820   5.624 -0.5621  1.3126  0.5311
13483TIP3    H261941   3.178   6.780   5.721 -0.0678  1.1100  1.0022
13484TIP3   OH261942   1.102   4.393  16.095 -0.1048  0.1326 -0.9403
13484TIP3    H161943   1.135   4.464  16.041  1.5270 -0.5847 -0.9405
13484TIP3    H261944   1.080   4.323  16.034 -2.0433  0.6972 -0.9756
13485TIP3   OH261945   0.903   2.861  10.376  0.3293  0.4966 -0.0279
13485TIP3    H161946   0.871   2.896  10.460  3.3735  0.6791  1.2052
13485TIP3    H261947   0.826   2.862  10.319 -1.3336  2.6883  2.0148
13486TIP3   OH261948   1.671   0.985  12.827 -0.1942 -0.2920 -0.2790
13486TIP3    H161949   1.637   0.989  12.917  2.5265  1.4969  0.7934
13486TIP3    H261950   1.766   0.987  12.837  0.1904  0.2860 -3.2250
13487TIP3   OH261951   4.645   5.381   3.198 -0.4314 -0.0355 -0.1837
13487TIP3    H161952   4.681   5.395   3.286  0.5876 -2.2293 -0.1784
13487TIP3    H261953   4.550   5.390   3.209 -0.2241  1.0189  0.8602
13488TIP3   OH261954   2.092   4.809  11.389  0.7252 -0.2492 -0.2867
13488TIP3    H161955   2.060   4.893  11.421  1.3833 -0.1137  0.0250
13488TIP3    H261956   2.116   4.760  11.468  0.0280 -0.8669 -0.4450
13489TIP3   OH261957   3.972   3.129  16.780  0.2699  0.1186  0.2851
13489TIP3    H161958   4.057   3.085  16.783  0.3784  0.2099 -0.9503
13489TIP3    H261959   3.940   3.115  16.691 -0.9309  0.2488  0.6729
13490TIP3   OH261960   1.613   2.124  12.722 -0.0669  0.1930  0.2503
13490TIP3    H161961   1.540   2.182  12.742  0.8684  1.0588  1.3003
13490TIP3    H261962   1.601   2.050  12.781  0.4254  0.8038  1.1432
13491TIP3   OH261963   2.803   1.897   4.172 -0.3884 -0.0587  0.2680
13491TIP3    H161964   2.864   1.887   4.245 -0.8450  2.6343  1.1015
13491TIP3    H261965   2.859   1.919   4.097  0.0143 -2.1659 -0.1124
13492TIP3   OH261966   4.037   6.569  12.480 -0.1002  0.0987  0.0351
13492TIP3    H161967   3.973   6.536  12.417  0.7632 -1.0146 -0.3077
13492TIP3    H261968   4.122   6.554  12.438  0.5310 -1.1003  1.6257
13493TIP3   OH261969   6.494   3.210  11.121 -0.1709  0.0410  0.9654
13493TIP3    H161970   6.468   3.136  11.066  1.0967  0.2093  0.0989
13493TIP3    H261971   6.437   3.281  11.094 -1.4767 -0.6160  1.8820
13494TIP3   OH261972   0.418   5.430  14.666  0.3891 -0.4718 -0.5705
13494TIP3    H161973   0.356   5.362  14.637  1.5396 -1.8218  0.0160
13494TIP3    H261974   0.495   5.381  14.694  0.9562  1.0468  0.6446
13495TIP3   OH261975   2.840   3.902  16.813 -0.1467 -0.1196  0.8458
13495TIP3    H161976   2.887   3.935  16.736 -2.5396 -0.0503 -0.6866
13495TIP3    H261977   2.808   3.816  16.786  1.9109 -1.7306  3.0869
13496TIP3   OH261978   1.485   0.686   6.478 -0.0371  0.3932 -0.0618
13496TIP3    H161979   1.570   0.710   6.515  0.2745 -1.4500  0.5272
13496TIP3    H261980   1.422   0.740   6.525  0.5136 -0.7073  2.0675
13497TIP3   OH261981   4.000   4.222   0.643  0.0882  0.3114 -0.1711
13497TIP3    H161982   3.920   4.200   0.596 -0.4940  1.3074  0.3289
13497TIP3    H261983   4.027   4.140   0.685  0.2205 -0.4176 -1.6122
13498TIP3   OH261984   0.627   5.980   2.012 -0.1446 -0.1151  0.2750
13498TIP3    H161985   0.612   6.064   1.967  1.0153  0.8309  1.5591
13498TIP3    H261986   0.548   5.967   2.065  0.0011  0.5750  0.6734
13499TIP3   OH261987   6.492   1.672   4.567  0.2077  0.0061  0.1778
13499TIP3    H161988   6.522   1.743   4.623 -0.3427  0.0381  0.4403
13499TIP3    H261989   6.411   1.705   4.527  0.9103  0.2147 -1.1107
13500TIP3   OH261990   4.545   2.518   0.751 -0.2054 -0.3585 -0.5464
13500TIP3    H161991   4.527   2.598   0.800  2.4392  0.3842 -0.6690
13500TIP3    H261992   4.542   2.448   0.816 -1.0951  0.0086 -0.1774
13501TIP3   OH261993   4.108   6.214   1.768  0.5171  0.2323  0.7218
13501TIP3    H161994   4.163   6.245   1.840  1.5458 -0.3059  0.1905
13501TIP3    H261995   4.171   6.186   1.701 -0.3861 -1.5126  0.5661
13502TIP3   OH261996   1.831   3.273   4.377  0.3995  0.3946 -0.3170
13502TIP3    H161997   1.760   3.226   4.421  1.1342 -1.0259 -0.5654
13502TIP3    H261998   1.834   3.235   4.289  0.0606  1.9956 -1.0604
13503TIP3   OH261999   3.573   5.708   1.260  0.0361 -0.0118  0.5486
13503TIP3    H162000   3.626   5.628   1.262  0.0842  0.0030  0.0585
13503TIP3    H262001   3.483   5.677   1.262  0.0571 -0.0722  0.5622
13504TIP3   OH262002   2.605   0.022   0.185  0.4533 -0.4296 -0.0071
13504TIP3    H162003   2.641   0.066   0.262  0.0571 -4.2782  2.6606
13504TIP3    H262004   2.680   0.006   0.129  1.0758  0.8098  0.4229
13505TIP3   OH262005   3.838   2.548  11.156  0.3900  0.1808  0.1911
13505TIP3    H162006   3.929   2.560  11.129 -0.3472  3.1827 -1.4930
13505TIP3    H262007   3.794   2.518  11.076 -0.1835 -0.8976  0.8932
13506TIP3   OH262008   3.451   2.126  14.648 -0.2251 -0.0659 -0.8344
13506TIP3    H162009   3.369   2.124  14.696 -0.1062  0.8441 -0.5859
13506TIP3    H262010   3.502   2.194  14.690  0.3186 -0.0249 -1.5448
13507TIP3   OH262011   4.954   1.783   2.225 -0.3809 -0.0134  0.4986
13507TIP3    H162012   5.009   1.829   2.287  0.0691  0.3120 -0.1300
13507TIP3    H262013   4.981   1.691   2.233  0.6653  0.2154 -0.2001
13508TIP3   OH262014   1.663   1.546  14.677  0.4009 -0.0490  0.5614
13508TIP3    H162015   1.751   1.581  14.680  0.9421 -1.4251  1.6002
13508TIP3    H262016   1.673   1.453  14.699 -1.2049 -0.4119 -0.0901
13509TIP3   OH262017   0.393   4.969  11.834  0.6194  0.3528  0.4656
13509TIP3    H162018   0.383   4.875  11.849  0.1870  0.7145  2.7543
13509TIP3    H262019   0.315   4.994  11.785  0.9632 -0.5432 -0.5689
13510TIP3   OH262020   3.916   4.449   5.064  0.1962 -0.3877  0.1617
13510TIP3    H162021   3.866   4.399   5.000 -1.2428  0.5086  0.5313
13510TIP3    H262022   4.001   4.462   5.023 -0.4437 -0.4867 -1.2478
13511TIP3   OH262023   0.084   2.778  16.512  0.0747 -0.5533 -0.5301
13511TIP3    H162024   0.058   2.819  16.430  0.9058 -0.4238 -0.7364
13511TIP3    H262025   0.088   2.850  16.575 -2.8473 -0.9475  0.2564
13512TIP3   OH262026   4.445   5.954  13.959 -0.0079  0.4068 -0.2462
13512TIP3    H162027   4.353   5.980  13.965 -0.0979  0.7304 -2.2821
13512TIP3    H262028   4.451   5.875  14.013 -1.3941  0.5923  0.2203
13513TIP3   OH262029   3.308   3.944   5.464  0.5516  0.2302 -0.1133
13513TIP3    H162030   3.383   3.914   5.516  0.8286 -0.3103 -0.8080
13513TIP3    H262031   3.233   3.935   5.522  0.6796 -1.4927 -0.1612
13514TIP3   OH262032   2.205   4.822   2.664 -0.2830 -0.6666  0.2919
13514TIP3    H162033   2.220   4.912   2.635  1.5256 -0.5345  1.4809
13514TIP3    H262034   2.116   4.802   2.634  0.1553  0.6462 -2.1614
13515TIP3   OH262035   0.628   3.135   2.285  0.0447 -0.6470 -0.5753
13515TIP3    H162036   0.665   3.185   2.213 -0.3350 -1.6023 -1.4718
13515TIP3    H262037   0.703   3.101   2.333  0.3184  1.1288  0.3529
13516TIP3   OH262038   4.044   2.087  14.533 -0.2642 -0.2335 -0.2699
13516TIP3    H162039   4.114   2.146  14.561 -0.2238 -0.3009 -0.2310
13516TIP3    H262040   3.968   2.113  14.586  0.7538 -2.8548  2.7626
13517TIP3   OH262041   2.521   5.895   2.572 -0.1638  0.3784  0.9065
13517TIP3    H162042   2.593   5.843   2.609 -0.7460 -0.2443  1.2088
13517TIP3    H262043   2.456   5.829   2.547 -0.0420  0.8419 -0.6767
13518TIP3   OH262044   6.371   5.030   0.903 -0.0285  0.0186  0.6306
13518TIP3    H162045   6.308   4.963   0.926  0.3340 -0.6595 -0.2842
13518TIP3    H262046   6.347   5.057   0.814  2.0048 -1.5583 -0.4973
13519TIP3   OH262047   5.618   4.331  13.984  0.3490 -0.2234  0.0992
13519TIP3    H162048   5.646   4.315  14.074  0.0826 -1.2220  0.0260
13519TIP3    H262049   5.553   4.401  13.991  0.0714 -0.5294  0.7355
13520TIP3   OH262050   5.592   4.593   1.110 -0.0629  0.0461 -0.2078
13520TIP3    H162051   5.683   4.568   1.123  0.0503 -0.0650 -1.1800
13520TIP3    H262052   5.590   4.687   1.130  0.3785  0.1694 -0.7339
13521TIP3   OH262053   4.078   0.245   0.723  0.1492 -0.1167  0.1173
13521TIP3    H162054   4.049   0.196   0.800 -6.0164  1.0813 -0.8516
13521TIP3    H262055   4.085   0.179   0.654  0.4775 -0.5748  0.5804
13522TIP3   OH262056   1.503   3.567  11.495  0.2256 -0.0900  0.2785
13522TIP3    H162057   1.524   3.619  11.572 -1.5044  3.2558 -1.3326
13522TIP3    H262058   1.567   3.595  11.429 -1.1967  0.6233 -0.8403
13523TIP3   OH262059   5.091   1.026   5.500 -0.2318  0.8328  0.2189
13523TIP3    H162060   5.088   1.105   5.554 -1.5068  0.5795  0.5716
13523TIP3    H262061   5.178   1.025   5.462  0.3977  1.4882  1.5946
13524TIP3   OH262062   0.033   3.172  15.600 -0.7483 -0.5859 -0.5973
13524TIP3    H162063   0.104   3.207  15.546 -0.9275  1.5895  0.4650
13524TIP3    H262064  -0.047   3.209  15.562 -0.8639  1.1061  1.1820
13525TIP3   OH262065   1.504   1.516   4.566 -0.3904 -0.5771  0.1078
13525TIP3    H162066   1.465   1.582   4.509 -3.3489 -1.2354  1.2177
13525TIP3    H262067   1.599   1.531   4.558 -0.8411  1.9042 -1.8464
13526TIP3   OH262068   3.787   2.725   0.231 -0.5971  0.7323  0.1515
13526TIP3    H162069   3.723   2.794   0.247  0.3999  1.2860  2.0961
13526TIP3    H262070   3.752   2.648   0.276 -1.0335  0.3336 -0.8384
13527TIP3   OH262071   4.772   1.575   5.484  0.4578 -0.3734  0.0188
13527TIP3    H162072   4.806   1.663   5.499  1.7589 -0.1443 -3.2884
13527TIP3    H262073   4.677   1.586   5.481  0.6114  1.0398 -0.6693
13528TIP3   OH262074   3.237   5.471  16.839 -0.1304 -0.5846 -0.0085
13528TIP3    H162075   3.257   5.454  16.747  1.2274  0.8282 -0.0141
13528TIP3    H262076   3.313   5.437  16.886 -0.3478 -0.3857  0.4850
13529TIP3   OH262077   0.251   0.324  14.466 -0.1897  0.2031 -0.4500
13529TIP3    H162078   0.306   0.402  14.467  0.0087  0.0797  1.1966
13529TIP3    H262079   0.169   0.352  14.507  0.3902 -0.7432  1.5102
13530TIP3   OH262080   5.868   6.169  14.799 -0.0257 -0.4364  0.7276
13530TIP3    H162081   5.877   6.189  14.706  2.4258  0.8195  1.1429
13530TIP3    H262082   5.778   6.141  14.809 -1.2107  2.1131 -1.5617
13531TIP3   OH262083   3.331   4.485  12.432  0.4317  0.1553  0.1360
13531TIP3    H162084   3.320   4.580  12.439  2.9848  0.5862 -0.6939
13531TIP3    H262085   3.369   4.458  12.515 -1.5628 -0.4376  0.9215
13532TIP3   OH262086   2.488   0.255  15.360 -0.1171 -0.2378 -0.0616
13532TIP3    H162087   2.420   0.312  15.325 -0.4375  0.5508  1.7191
13532TIP3    H262088   2.464   0.167  15.331 -1.7193  0.0801  0.2364
13533TIP3   OH262089   4.726   3.496   6.675  0.2715  0.2038  0.4294
13533TIP3    H162090   4.695   3.481   6.586 -1.2664  0.6854  0.8369
13533TIP3    H262091   4.738   3.409   6.712 -0.1994 -0.0114  0.0897
13534TIP3   OH262092   0.640   3.994   2.726  0.2594 -0.0125 -0.2218
13534TIP3    H162093   0.727   4.026   2.704  0.6367 -0.6147  0.3905
13534TIP3    H262094   0.642   3.977   2.820 -0.3919 -0.4024 -0.2663
13535TIP3   OH262095   5.775   4.417  13.535 -0.4292 -0.1277 -0.0172
13535TIP3    H162096   5.796   4.383  13.622 -0.1129  1.2062  0.4487
13535TIP3    H262097   5.696   4.369  13.509  0.2434 -1.5178  0.4069
13536TIP3   OH262098   5.554   2.284  12.099  0.1285  0.2210 -1.0729
13536TIP3    H162099   5.545   2.379  12.093 -0.5711  0.0967 -2.1574
13536TIP3    H262100   5.465   2.251  12.093  0.3833 -0.5235 -0.8872
13537TIP3   OH262101   1.239   4.734  13.298 -0.2417  0.1752 -0.1055
13537TIP3    H162102   1.266   4.804  13.359  0.6210 -0.2346 -0.0045
13537TIP3    H262103   1.320   4.687  13.279 -0.7623 -0.5890 -0.4476
13538TIP3   OH262104   2.657   2.457  14.390  0.1190  0.0838 -0.2982
13538TIP3    H162105   2.630   2.473  14.481 -1.5029  1.1802 -0.9269
13538TIP3    H262106   2.700   2.371  14.393  2.5582  1.2317  1.9468
13539TIP3   OH262107   3.410   4.744  12.759  0.9855 -0.6773  0.4181
13539TIP3    H162108   3.328   4.723  12.804  0.7545 -0.3429  0.1615
13539TIP3    H262109   3.383   4.799  12.685  1.6299  1.2984  1.5732
13540TIP3   OH262110   0.292   0.939  12.331 -0.2493  0.6203 -0.3422
13540TIP3    H162111   0.344   0.944  12.412 -0.1203  0.4682 -0.4145
13540TIP3    H262112   0.330   0.866  12.283 -0.4362  0.6035 -0.4647
13541TIP3   OH262113   3.820   4.829  12.899  0.0376 -0.0561  0.0822
13541TIP3    H162114   3.841   4.922  12.908  0.2559 -0.3031  2.8080
13541TIP3    H262115   3.733   4.820  12.937 -0.8066 -0.7413 -1.8596
13542TIP3   OH262116   2.648   3.854  10.435 -0.0945  0.8372 -0.2463
13542TIP3    H162117   2.703   3.777  10.449 -2.3156 -0.3744  3.1414
13542TIP3    H262118   2.600   3.834  10.355  0.6557 -0.4779 -0.3964
13543TIP3   OH262119   2.766   1.915  11.603 -0.1275  0.0245 -0.2939
13543TIP3    H162120   2.809   1.968  11.670 -0.8913 -0.0476  0.2679
13543TIP3    H262121   2.673   1.915  11.628 -0.4940  0.3562 -1.6023
13544TIP3   OH262122   2.888   3.170   0.930  0.0951  0.4510  0.1666
13544TIP3    H162123   2.929   3.100   0.879  0.0356  0.2999  0.3244
13544TIP3    H262124   2.799   3.177   0.894 -0.0892  0.0494  0.5349
13545TIP3   OH262125   6.540   3.374  11.476  0.7350  0.7087  0.3858
13545TIP3    H162126   6.593   3.309  11.430 -0.6358  0.3889 -0.7934
13545TIP3    H262127   6.477   3.323  11.526  0.6516  1.1131  0.7003
13546TIP3   OH262128   4.576   5.982  15.850 -0.1476  0.2278 -0.4344
13546TIP3    H162129   4.599   5.931  15.772  3.1381 -0.1318  0.6100
13546TIP3    H262130   4.561   6.071  15.817 -0.0735 -0.1725 -1.6001
13547TIP3   OH262131   6.145   4.742  11.736  0.5726 -0.0095  0.5072
13547TIP3    H162132   6.059   4.782  11.723  0.9629  0.6825 -0.0954
13547TIP3    H262133   6.156   4.682  11.662  0.2626 -0.7357  1.0466
13548TIP3   OH262134   2.013   6.501  15.214 -0.2352 -0.5585 -0.3063
13548TIP3    H162135   2.023   6.588  15.175 -2.0227  0.3643  1.1139
13548TIP3    H262136   2.057   6.507  15.299  0.4092 -1.3547 -0.5686
13549TIP3   OH262137   2.960   0.844   1.992  0.2178  0.0306  0.1930
13549TIP3    H162138   2.974   0.841   2.086  0.1531  0.5972  0.2234
13549TIP3    H262139   2.942   0.753   1.967 -1.0991  0.0677  0.9328
13550TIP3   OH262140   2.718   0.842   1.605 -0.5632 -0.5310 -0.2216
13550TIP3    H162141   2.788   0.799   1.556  0.8056  1.8542 -0.5097
13550TIP3    H262142   2.754   0.857   1.692 -2.0118 -2.2847  0.7621
13551TIP3   OH262143   3.346   1.500  13.806  0.0255 -0.8408  0.4561
13551TIP3    H162144   3.335   1.449  13.887  0.5821  0.9487  1.7284
13551TIP3    H262145   3.438   1.526  13.807  0.2990 -1.6055 -1.3130
13552TIP3   OH262146   1.593   2.911  14.350  0.7850  0.0818 -0.4463
13552TIP3    H162147   1.661   2.843  14.352  3.0642  2.2082 -0.4011
13552TIP3    H262148   1.537   2.886  14.276  2.0213 -1.4076 -0.9459
13553TIP3   OH262149   3.823   2.623   5.050 -0.2489 -0.0101  0.1368
13553TIP3    H162150   3.819   2.611   4.955 -2.0887  1.4817 -0.0251
13553TIP3    H262151   3.838   2.535   5.084 -0.2046 -0.6812 -1.4979
13554TIP3   OH262152   6.244   6.306  14.869  0.0492  0.1144  0.2051
13554TIP3    H162153   6.214   6.324  14.779 -2.3049  1.7726  1.1997
13554TIP3    H262154   6.226   6.213  14.882  0.1409 -0.0825 -0.9411
13555TIP3   OH262155   6.662   1.324   3.772 -0.4965 -0.0794 -0.3714
13555TIP3    H162156   6.737   1.382   3.782  0.0753 -0.4484 -2.2314
13555TIP3    H262157   6.683   1.248   3.827  0.1271  0.1609 -0.2730
13556TIP3   OH262158   3.139   0.962   1.604  0.5527  0.5085 -0.5381
13556TIP3    H162159   3.095   1.040   1.637 -0.0129 -0.1921  0.4480
13556TIP3    H262160   3.130   0.967   1.509  0.0098  1.3351 -0.4534
13557TIP3   OH262161   4.566   2.816   0.062 -0.3440  0.2493 -0.6410
13557TIP3    H162162   4.544   2.724   0.050  0.2996 -0.0271  0.1941
13557TIP3    H262163   4.659   2.816   0.082 -0.9128  0.7484  2.5854
13558TIP3   OH262164   3.079   1.496  15.241 -0.0732  0.0826 -0.2556
13558TIP3    H162165   3.116   1.409  15.258 -2.3374 -0.8591  0.1513
13558TIP3    H262166   2.985   1.481  15.231 -0.4522  2.4240 -0.7740
13559TIP3   OH262167   0.416   0.604  12.375  0.1731  0.3516  0.0299
13559TIP3    H162168   0.413   0.588  12.280  0.8897 -1.5501  0.3004
13559TIP3    H262169   0.329   0.579  12.406 -0.4791  2.1117 -0.2375
13560TIP3   OH262170   4.585   3.763   4.750 -0.2358 -0.4348 -0.6858
13560TIP3    H162171   4.632   3.682   4.771  1.4257  0.0816 -2.1210
13560TIP3    H262172   4.567   3.803   4.835  1.1349 -1.1226 -0.0384
13561TIP3   OH262173   5.014   3.716  14.997 -0.2877 -0.1303  0.2812
13561TIP3    H162174   4.940   3.659  15.015  2.0904 -2.8248  2.5242
13561TIP3    H262175   5.038   3.752  15.082  0.7664  0.9588 -0.4377
13562TIP3   OH262176   3.344   1.770  12.012  0.5594 -0.1588  0.3336
13562TIP3    H162177   3.353   1.740  11.922 -0.9422 -0.2398  0.1757
13562TIP3    H262178   3.428   1.811  12.033  0.7143  0.4414 -1.3253
13563TIP3   OH262179   1.288   2.498   5.223 -0.0057 -0.0460  0.5258
13563TIP3    H162180   1.267   2.405   5.235 -1.0920  0.4193  2.9221
13563TIP3    H262181   1.248   2.541   5.299 -0.2790  2.5106 -0.9560
13564TIP3   OH262182   5.055   2.379   5.755 -0.0737  0.6745 -0.3323
13564TIP3    H162183   5.047   2.323   5.832 -0.3970  1.4856  0.2438
13564TIP3    H262184   5.141   2.360   5.719  0.3080  0.7024  0.5630
13565TIP3   OH262185   6.658   0.835   3.512 -0.0513 -0.6104 -0.1145
13565TIP3    H162186   6.671   0.902   3.579 -4.7346 -0.9914  1.5574
13565TIP3    H262187   6.653   0.884   3.429  1.5364  0.3923  0.3331
13566TIP3   OH262188   0.635   0.085  17.467 -0.8542 -0.6751  0.5282
13566TIP3    H162189   0.554   0.035  17.466 -1.5808  0.4257  1.4277
13566TIP3    H262190   0.610   0.172  17.434  0.3224 -0.8044 -0.7895
13567TIP3   OH262191   5.571   2.169   2.187  0.5954 -0.1145 -0.2828
13567TIP3    H162192   5.593   2.180   2.095  3.2981 -0.1703  0.2758
13567TIP3    H262193   5.557   2.075   2.197  2.0419 -0.3511 -0.3302
13568TIP3   OH262194   1.325   3.869  15.562  0.0541  0.0499  0.3843
13568TIP3    H162195   1.232   3.855  15.579 -0.0333  1.5323  1.2349
13568TIP3    H262196   1.331   3.874  15.466 -0.4646 -1.6593  0.2136
13569TIP3   OH262197   3.878   5.672   1.562 -0.2320  0.1173 -0.4915
13569TIP3    H162198   3.941   5.702   1.628  2.8489 -1.6606 -2.3773
13569TIP3    H262199   3.812   5.741   1.558  2.1094  2.6233  0.9855
13570TIP3   OH262200   2.848   4.929   2.679 -0.1721  0.1862 -0.0179
13570TIP3    H162201   2.794   4.897   2.751 -0.7305  0.6683 -0.2188
13570TIP3    H262202   2.822   4.876   2.603 -2.0736  1.9265 -0.6849
13571TIP3   OH262203   3.755   4.616  12.063 -0.6295 -0.1246  0.3683
13571TIP3    H162204   3.845   4.634  12.091 -0.6408  1.1004 -0.3272
13571TIP3    H262205   3.710   4.589  12.143  0.4071 -1.0222  0.6868
13572TIP3   OH262206   6.450   5.966   4.880 -0.7856 -0.1714  0.3181
13572TIP3    H162207   6.366   5.943   4.918 -0.5988 -0.1346  0.7588
13572TIP3    H262208   6.461   5.906   4.807 -0.1777 -1.7202  1.6155
13573TIP3   OH262209   3.787   1.988   2.465 -0.1265 -0.3333 -0.0271
13573TIP3    H162210   3.871   1.966   2.424 -0.6700 -1.3250 -0.6381
13573TIP3    H262211   3.808   2.060   2.524  1.2039 -0.7175  0.0080
13574TIP3   OH262212   0.739   1.767  14.183  0.3503  0.2628 -0.1220
13574TIP3    H162213   0.757   1.857  14.211  1.2348  0.3392 -0.8651
13574TIP3    H262214   0.803   1.751  14.113 -0.4486 -0.6012 -0.6796
13575TIP3   OH262215   2.991   1.287  15.591  0.4543 -0.2252 -0.6158
13575TIP3    H162216   2.896   1.280  15.586  0.2768  1.1813  0.3057
13575TIP3    H262217   3.009   1.381  15.587  1.6313 -0.2955  1.5043
13576TIP3   OH262218   4.624   2.771   1.447  0.3891  0.0657  0.2403
13576TIP3    H162219   4.699   2.805   1.397  0.7055 -1.3331 -0.2666
13576TIP3    H262220   4.660   2.750   1.533  0.3269  0.3874  0.3491
13577TIP3   OH262221   4.374   1.539  11.552  0.2531  0.3224  0.6030
13577TIP3    H162222   4.394   1.519  11.460  2.6814 -1.6151  1.4479
13577TIP3    H262223   4.395   1.458  11.599 -2.1204  0.8351  2.7772
13578TIP3   OH262224   3.740   3.314   1.346 -0.7615  0.1829  0.5192
13578TIP3    H162225   3.711   3.258   1.419  0.0913 -0.9355  0.0421
13578TIP3    H262226   3.660   3.351   1.310 -1.3437 -0.5847  0.9977
13579TIP3   OH262227   4.315   5.471  14.022  0.0514 -0.4680 -0.1297
13579TIP3    H162228   4.252   5.401  14.037 -0.1253 -0.3676 -0.3892
13579TIP3    H262229   4.342   5.459  13.930 -2.2338  1.5816 -1.1805
13580TIP3   OH262230   1.584   3.131   2.411 -0.2062 -0.4333  0.2015
13580TIP3    H162231   1.523   3.109   2.481  0.3195  1.0164  1.1523
13580TIP3    H262232   1.657   3.174   2.455  0.8508 -0.8469 -1.0754
13581TIP3   OH262233   1.238   5.269   1.722 -0.3652 -0.1039  0.6687
13581TIP3    H162234   1.265   5.177   1.720  0.4696  0.1385 -0.8762
13581TIP3    H262235   1.154   5.271   1.677 -0.6196 -0.1745  1.1378
13582TIP3   OH262236   4.907   5.252  12.449 -0.1095 -0.1334  0.0068
13582TIP3    H162237   4.818   5.271  12.420 -0.6923  0.4048  1.9532
13582TIP3    H262238   4.928   5.168  12.410 -1.0604  0.2154 -1.3219
13583TIP3   OH262239   6.070   4.538   2.947  0.0314 -0.0282  0.3183
13583TIP3    H162240   5.990   4.571   2.987  0.8681  2.1447  0.3055
13583TIP3    H262241   6.084   4.593   2.870  1.2109 -0.7828 -0.0467
13584TIP3   OH262242   0.046   3.541  11.551 -0.0662  0.2706 -0.2709
13584TIP3    H162243   0.094   3.512  11.474 -0.7178 -1.8203  0.0659
13584TIP3    H262244   0.106   3.526  11.624 -0.6153 -0.8667 -0.0290
13585TIP3   OH262245   0.237   2.754   2.542 -0.0407  0.1471  0.3730
13585TIP3    H162246   0.306   2.804   2.584 -1.1032  0.7675  1.4258
13585TIP3    H262247   0.283   2.682   2.498  1.2606  0.5347  1.0513
13586TIP3   OH262248   1.462   6.586  10.675 -0.2759 -0.0229  0.0965
13586TIP3    H162249   1.394   6.638  10.719  0.4290  1.4922 -0.5525
13586TIP3    H262250   1.504   6.647  10.615  2.9491 -0.3574  1.8015
13587TIP3   OH262251   0.983   3.175  11.189 -0.3504 -0.2301  0.5054
13587TIP3    H162252   0.959   3.133  11.106 -1.7984 -0.2624  0.9160
13587TIP3    H262253   1.015   3.261  11.163  1.5041 -1.0848 -0.2510
13588TIP3   OH262254   0.992   1.662   0.690  0.2832 -0.4379 -0.4546
13588TIP3    H162255   0.902   1.693   0.695 -0.8654 -3.0546 -2.4750
13588TIP3    H262256   0.992   1.580   0.741  2.0959  0.5163  1.2201
13589TIP3   OH262257   4.136   6.476  16.544 -0.6093  0.5022  0.2686
13589TIP3    H162258   4.181   6.398  16.513  0.2323  1.2063 -0.3371
13589TIP3    H262259   4.055   6.443  16.583  0.1278 -0.7376  0.8187
13590TIP3   OH262260   0.645   2.179  13.754  0.3353  0.7647 -0.0363
13590TIP3    H162261   0.550   2.193  13.759  0.2599 -0.0899  2.5236
13590TIP3    H262262   0.655   2.101  13.699 -0.5938 -0.0745  0.9362
13591TIP3   OH262263   5.354   1.218  16.022  0.5692 -0.3047  0.1603
13591TIP3    H162264   5.371   1.312  16.016 -1.1349  0.0087 -0.1540
13591TIP3    H262265   5.320   1.205  16.111 -0.4866 -0.3772 -0.2377
13592TIP3   OH262266   2.515   5.438  13.597 -0.0511  0.3312 -0.1715
13592TIP3    H162267   2.528   5.385  13.676  0.2271  1.0802  0.2954
13592TIP3    H262268   2.524   5.376  13.525  0.0998 -0.2884  0.3717
13593TIP3   OH262269   3.738   3.880   6.476  0.1373  0.4502  0.6363
13593TIP3    H162270   3.653   3.891   6.518  0.5158  0.5711  1.3845
13593TIP3    H262271   3.727   3.918   6.389 -0.4086  0.9739  0.9299
13594TIP3   OH262272   3.911   4.712  15.433  0.0598  0.3980  0.0352
13594TIP3    H162273   3.959   4.785  15.393  0.7816 -0.2620 -0.3316
13594TIP3    H262274   3.956   4.634  15.403 -0.9001 -0.2291  0.1634
13595TIP3   OH262275   3.089   6.674  15.772 -0.1136 -0.2168 -0.1728
13595TIP3    H162276   3.092   6.613  15.698 -0.1774 -1.7683  1.0454
13595TIP3    H262277   3.046   6.625  15.842 -1.1714  1.6243  0.5485
13596TIP3   OH262278   3.437   1.817  16.385 -0.5183 -0.4919 -0.0655
13596TIP3    H162279   3.515   1.860  16.349  0.2615 -2.7324 -1.2398
13596TIP3    H262280   3.431   1.850  16.475  1.0140  0.7054 -0.3513
13597TIP3   OH262281   6.009   1.006   3.775 -0.6281 -0.9979 -0.3718
13597TIP3    H162282   6.007   0.925   3.826 -1.1466 -2.0745 -2.0122
13597TIP3    H262283   5.917   1.022   3.752 -0.5379  0.0990 -0.0494
13598TIP3   OH262284   3.316   1.882   2.858 -1.0485  0.0890 -0.0230
13598TIP3    H162285   3.294   1.791   2.876 -2.3122 -0.0063 -1.7204
13598TIP3    H262286   3.308   1.890   2.763 -1.1978  2.0257  0.1089
13599TIP3   OH262287   2.470   0.797   4.886  0.2047 -0.2648 -0.1083
13599TIP3    H162288   2.510   0.740   4.951  0.4076 -0.4628 -0.4056
13599TIP3    H262289   2.541   0.854   4.857 -0.2475  0.9247  1.0181
13600TIP3   OH262290   5.586   1.308  13.784 -0.3019 -0.3758  0.0291
13600TIP3    H162291   5.597   1.340  13.874 -0.1770 -1.8934  0.5836
13600TIP3    H262292   5.676   1.291  13.754 -0.3549 -0.0355 -0.3318
13601TIP3   OH262293   0.095   5.872  13.420  0.5080 -0.2108  0.2839
13601TIP3    H162294   0.148   5.931  13.366  0.9385 -0.2364  0.6747
13601TIP3    H262295   0.101   5.787  13.375  1.4500 -0.4014  0.7496
13602TIP3   OH262296   4.103   3.924  15.939  0.7396 -0.1922  0.0314
13602TIP3    H162297   4.021   3.880  15.962  0.5598  1.0077  1.8902
13602TIP3    H262298   4.084   3.966  15.855 -0.0679 -1.1221 -0.2692
13603TIP3   OH262299   6.539   1.912   4.727  0.1671  0.1503 -0.0240
13603TIP3    H162300   6.463   1.970   4.719  0.5842  0.7485  0.3109
13603TIP3    H262301   6.542   1.891   4.821  0.5944  0.3628  0.0071
13604TIP3   OH262302   5.107   1.652   2.526 -0.3700  0.2423  0.2792
13604TIP3    H162303   5.162   1.730   2.534  0.8880 -0.6702  0.8341
13604TIP3    H262304   5.131   1.613   2.442 -0.4951  0.0791  0.3178
13605TIP3   OH262305   1.664   1.084  11.959  0.2446  0.3817  0.1867
13605TIP3    H162306   1.572   1.084  11.932  0.2610  2.4348 -0.0389
13605TIP3    H262307   1.692   1.175  11.947  2.7728 -0.5079 -1.2523
13606TIP3   OH262308   0.244   4.763   1.488 -0.6427 -0.3386  0.6879
13606TIP3    H162309   0.186   4.827   1.528  0.0623  1.9269 -1.6468
13606TIP3    H262310   0.236   4.778   1.394  2.3534 -1.0829  0.1937
13607TIP3   OH262311   1.548   5.151  12.070 -0.4181  0.2545 -0.0121
13607TIP3    H162312   1.625   5.180  12.119 -0.1070  0.0538 -0.3832
13607TIP3    H262313   1.505   5.089  12.129  1.8025 -2.6646 -1.2599
13608TIP3   OH262314   1.788   0.833  10.524  0.2697 -0.3046  0.2660
13608TIP3    H162315   1.844   0.853  10.450 -1.1165  0.9997 -0.4752
13608TIP3    H262316   1.717   0.781  10.487  0.1644 -0.6244  0.8994
13609TIP3   OH262317   5.596   1.644   1.681  0.6783  0.1204  0.6000
13609TIP3    H162318   5.622   1.552   1.671 -0.1471 -0.1215  0.6012
13609TIP3    H262319   5.525   1.656   1.617 -1.0644  0.0083  2.4331
13610TIP3   OH262320   1.656   2.616   4.596 -0.4723 -0.0113  0.0162
13610TIP3    H162321   1.727   2.598   4.658  0.1365 -0.2666 -0.7353
13610TIP3    H262322   1.645   2.711   4.599  3.6583  0.9752 -3.7032
13611TIP3   OH262323   2.154   2.973  16.350 -0.4685  0.4294  0.0446
13611TIP3    H162324   2.116   2.927  16.275 -0.5612  0.4700  0.0673
13611TIP3    H262325   2.247   2.956  16.344 -0.2163  1.9789 -1.1620
13612TIP3   OH262326   5.140   3.385   5.905 -0.6624  0.1429  0.3447
13612TIP3    H162327   5.127   3.338   5.987 -1.5092  1.6362  1.1048
13612TIP3    H262328   5.234   3.381   5.889 -0.4303  0.1955  1.6274
13613TIP3   OH262329   5.457   5.394  17.463  0.1541 -0.0319  0.2494
13613TIP3    H162330   5.518   5.342  17.410  1.7222 -0.3324  2.2088
13613TIP3    H262331   5.371   5.367  17.434  0.9436 -1.0583 -1.2838
13614TIP3   OH262332   4.601   2.444  12.259 -0.7914 -0.2971 -0.0720
13614TIP3    H162333   4.551   2.463  12.179 -0.4566 -0.2921 -0.2798
13614TIP3    H262334   4.545   2.384  12.308 -1.5099  0.5919  0.2258
13615TIP3   OH262335   2.678   0.144   0.455 -0.1172  0.4913 -0.2264
13615TIP3    H162336   2.773   0.142   0.442 -0.0110 -0.0026  0.5415
13615TIP3    H262337   2.667   0.170   0.547 -0.7358  0.9961 -0.4405
13616TIP3   OH262338   5.004   5.248  12.126  0.0004 -0.1173  0.6331
13616TIP3    H162339   5.043   5.172  12.170 -0.0098 -0.7201 -0.3844
13616TIP3    H262340   4.910   5.238  12.140  0.0184 -0.1207  0.7572
13617TIP3   OH262341   2.186   2.513  13.777 -0.0831 -0.0802 -0.7887
13617TIP3    H162342   2.201   2.461  13.856 -1.7634  1.4074  0.6008
13617TIP3    H262343   2.260   2.574  13.775  0.4367 -0.6936 -0.8977
13618TIP3   OH262344   2.452   1.891   0.807 -0.1320  0.1507 -0.4476
13618TIP3    H162345   2.453   1.979   0.845  1.6963 -0.1077  0.2173
13618TIP3    H262346   2.419   1.835   0.877 -4.2333  0.5626 -1.7858
13619TIP3   OH262347   3.519   0.828  14.673  0.3478 -0.0570  0.3985
13619TIP3    H162348   3.591   0.863  14.726  1.1857 -0.3632 -0.4949
13619TIP3    H262349   3.561   0.763  14.617 -0.6303 -0.2201 -0.1652
13620TIP3   OH262350   1.725   4.995  15.327 -0.2453  0.0515 -0.8295
13620TIP3    H162351   1.792   5.061  15.307  0.2393 -0.6676 -1.6334
13620TIP3    H262352   1.767   4.935  15.388  0.5405 -1.4428 -2.7089
13621TIP3   OH262353   3.665   6.494  14.261  0.4324  0.8213 -0.1900
13621TIP3    H162354   3.696   6.535  14.180  1.0575 -1.7739 -1.3544
13621TIP3    H262355   3.744   6.462  14.304 -0.0977 -0.1250  0.1068
13622TIP3   OH262356   5.886   4.833  10.857 -0.3015 -0.0164 -0.4330
13622TIP3    H162357   5.907   4.871  10.943 -1.9715  0.1905 -0.0896
13622TIP3    H262358   5.796   4.801  10.866 -0.3998 -0.2728 -2.0201
13623TIP3   OH262359   4.713   3.423   1.692 -0.4052  1.0031  0.1479
13623TIP3    H162360   4.623   3.416   1.661 -0.6551 -0.1845  1.0715
13623TIP3    H262361   4.762   3.455   1.616 -1.1202 -1.0532 -1.2749
13624TIP3   OH262362   2.344   3.532   2.140  0.2574 -0.1041  0.0869
13624TIP3    H162363   2.292   3.524   2.220  0.4386 -0.0460  0.2106
13624TIP3    H262364   2.292   3.591   2.085  0.7781  0.9692  0.7011
13625TIP3   OH262365   3.250   1.378  10.934  0.3135 -0.3007  0.3755
13625TIP3    H162366   3.280   1.452  10.883  0.1389 -0.8307 -0.5102
13625TIP3    H262367   3.156   1.393  10.946  0.2640 -0.4108  0.1332
13626TIP3   OH262368   6.022   6.650  16.896  0.2572 -0.2707 -0.5032
13626TIP3    H162369   6.000   6.641  16.803  0.4376  1.3290 -0.7377
13626TIP3    H262370   5.974   6.729  16.924 -0.4531 -1.1874  0.9826
13627TIP3   OH262371   5.545   3.905  13.237 -0.3651  0.0955  0.6744
13627TIP3    H162372   5.574   3.850  13.309 -1.1307  0.4332  1.2503
13627TIP3    H262373   5.479   3.853  13.192 -1.3587  0.6548  1.4382
13628TIP3   OH262374   6.317   3.052  12.093  0.8402 -0.0746  0.9217
13628TIP3    H162375   6.405   3.059  12.058 -0.0215  1.2826 -1.1613
13628TIP3    H262376   6.307   3.127  12.151  0.4169  0.9455 -0.4384
13629TIP3   OH262377   0.774   2.828  12.579  0.2456  0.5022  0.0814
13629TIP3    H162378   0.746   2.886  12.508  1.1824  0.8578 -0.0090
13629TIP3    H262379   0.836   2.880  12.629  1.6786 -0.6468 -0.4272
13630TIP3   OH262380   1.853   3.307  17.222  0.0481  0.3046 -0.4767
13630TIP3    H162381   1.765   3.270  17.227 -0.2251  0.6120 -2.3072
13630TIP3    H262382   1.905   3.254  17.282 -1.1777 -0.4875 -0.0856
13631TIP3   OH262383   2.817   6.398   5.063  0.7160 -0.2706  0.2760
13631TIP3    H162384   2.755   6.356   5.123  0.2324  1.5225  1.1206
13631TIP3    H262385   2.769   6.473   5.028  1.0907 -1.0956 -2.2010
13632TIP3   OH262386   4.745   1.931   4.954  0.9658  0.3928  0.1619
13632TIP3    H162387   4.830   1.970   4.932  1.8717 -2.0145 -1.0847
13632TIP3    H262388   4.756   1.838   4.932 -0.5321 -0.9253  4.2050
13633TIP3   OH262389   2.081   5.297  17.343 -0.1640 -0.3713 -0.5904
13633TIP3    H162390   2.126   5.225  17.388  1.4832  1.0661  0.1927
13633TIP3    H262391   2.103   5.285  17.251 -0.1242 -1.0101 -0.5020
13634TIP3   OH262392   3.997   0.239   2.844 -0.1765  0.0694  0.3556
13634TIP3    H162393   4.087   0.218   2.867 -0.4826 -1.5656  0.1657
13634TIP3    H262394   3.945   0.203   2.915 -0.7202  0.6684  0.2718
13635TIP3   OH262395   2.145   2.144   2.060  0.1042  0.2385 -0.0861
13635TIP3    H162396   2.070   2.191   2.096  0.3493 -0.9482  2.1101
13635TIP3    H262397   2.109   2.093   1.987 -1.3394 -0.5719  1.1419
13636TIP3   OH262398   3.937   5.433   2.119 -0.9040  0.3870 -0.1716
13636TIP3    H162399   3.970   5.475   2.198  0.2705 -0.4259 -0.1955
13636TIP3    H262400   3.967   5.489   2.047 -0.2950  0.1049 -0.1423
13637TIP3   OH262401   3.522   4.691  11.538  0.3496  0.5154 -0.4070
13637TIP3    H162402   3.532   4.634  11.614 -0.5492  1.7949  0.6947
13637TIP3    H262403   3.433   4.675  11.507 -0.3365  2.1009  0.6154
13638TIP3   OH262404   5.655   5.850   6.029  0.1836 -0.0839  0.2443
13638TIP3    H162405   5.741   5.873   6.064  0.7199 -1.3136 -0.2057
13638TIP3    H262406   5.674   5.788   5.958 -1.1327 -1.5959  1.1508
13639TIP3   OH262407   5.949   4.495   3.912 -0.8326  0.2802  0.5580
13639TIP3    H162408   5.921   4.427   3.850  0.9653  0.9571 -1.1265
13639TIP3    H262409   6.044   4.482   3.919 -0.8708  0.8186  2.5163
13640TIP3   OH262410   4.035   1.163  12.268 -0.0382  0.2371 -0.0603
13640TIP3    H162411   3.951   1.197  12.237  0.7415  0.1721 -2.4164
13640TIP3    H262412   4.087   1.242  12.286 -0.4157  0.2705  0.9941
13641TIP3   OH262413   2.835   6.534   5.367 -0.0841 -0.2504  0.3351
13641TIP3    H162414   2.878   6.571   5.290 -2.1943  0.3114 -0.6581
13641TIP3    H262415   2.863   6.442   5.369 -2.0022 -1.0650 -2.7957
13642TIP3   OH262416   0.987   3.458  16.579 -0.0052  0.6455 -0.5067
13642TIP3    H162417   0.939   3.535  16.546  0.4862  1.5767  0.8372
13642TIP3    H262418   1.073   3.463  16.537  0.5824  1.7686  0.7402
13643TIP3   OH262419   5.142   6.146  17.101  0.2325  0.2091 -0.3092
13643TIP3    H162420   5.065   6.117  17.150  0.9106  0.2842  0.8593
13643TIP3    H262421   5.212   6.150  17.167  1.7926 -1.9616 -1.6892
13644TIP3   OH262422   1.394   2.034   2.258 -0.0936  0.2390  0.0571
13644TIP3    H162423   1.352   1.952   2.230  1.8345 -0.7577 -0.0335
13644TIP3    H262424   1.327   2.101   2.242 -0.9424 -0.9960 -1.9278
13645TIP3   OH262425   0.532   6.420   5.811  0.1823 -0.1067 -0.7925
13645TIP3    H162426   0.621   6.425   5.775  0.4221  1.4058 -0.0796
13645TIP3    H262427   0.532   6.341   5.864  1.2636  0.1225 -0.4262
13646TIP3   OH262428   2.773   3.632   5.239 -0.3079 -0.2314  0.0359
13646TIP3    H162429   2.717   3.710   5.244 -0.9532 -0.7534  2.1953
13646TIP3    H262430   2.711   3.559   5.240  0.3093 -0.8117 -1.6065
13647TIP3   OH262431   2.115   6.098  13.090  0.0716  0.1899  0.2670
13647TIP3    H162432   2.138   6.009  13.115 -0.6953 -0.1866 -0.3314
13647TIP3    H262433   2.196   6.148  13.103  1.2991 -1.0889 -1.8420
13648TIP3   OH262434   4.937   1.615  15.862  0.1710  0.1279  0.0063
13648TIP3    H162435   4.963   1.696  15.907  0.5954  0.6261 -1.0766
13648TIP3    H262436   4.999   1.549  15.893 -0.4602  0.1030  1.2400
13649TIP3   OH262437   5.355   5.164   3.566  0.6223 -0.1972  0.2804
13649TIP3    H162438   5.381   5.192   3.479 -0.4370 -1.0582 -0.3331
13649TIP3    H262439   5.262   5.185   3.572 -0.1748 -3.1917 -0.1277
13650TIP3   OH262440   4.856   3.910  17.387 -0.3309 -0.5884  0.6430
13650TIP3    H162441   4.849   3.988  17.333  0.1981 -1.5237 -0.8548
13650TIP3    H262442   4.785   3.918  17.451  0.7585  1.9094  1.6587
13651TIP3   OH262443   1.795   3.496   0.460 -0.0784 -0.2997 -0.3846
13651TIP3    H162444   1.723   3.502   0.398 -0.3667  0.1938 -0.0171
13651TIP3    H262445   1.768   3.428   0.522 -0.6521  0.4916  0.2654
13652TIP3   OH262446   2.713   3.183  13.489  0.1295  0.2776 -0.0741
13652TIP3    H162447   2.786   3.241  13.469 -0.1177  0.2947 -0.9537
13652TIP3    H262448   2.752   3.095  13.492  0.1918  0.2931 -0.4780
13653TIP3   OH262449   1.799   4.955  17.282 -0.1996  0.7704  0.0467
13653TIP3    H162450   1.866   4.965  17.214  0.9430  0.1982  1.0525
13653TIP3    H262451   1.846   4.966  17.364 -1.1441 -0.6022  0.8160
13654TIP3   OH262452   4.567   2.135   4.345  0.1105 -0.1437 -0.1753
13654TIP3    H162453   4.635   2.124   4.411 -1.3326 -0.5593  1.2855
13654TIP3    H262454   4.587   2.218   4.302  1.9458 -0.6153 -0.3049
13655TIP3   OH262455   4.294   2.333   5.587 -0.0373 -0.6714 -0.1157
13655TIP3    H162456   4.201   2.320   5.568  0.2150 -2.0432 -0.5127
13655TIP3    H262457   4.297   2.356   5.680 -0.8150 -0.0259 -0.2456
13656TIP3   OH262458   2.361   2.312   5.072  0.0526  0.3923  0.4959
13656TIP3    H162459   2.309   2.235   5.095 -0.0383  0.7697  1.6429
13656TIP3    H262460   2.410   2.286   4.994 -0.5057 -0.5770  0.4538
13657TIP3   OH262461   3.049   2.678   4.269  1.1039 -0.3314 -0.0562
13657TIP3    H162462   3.091   2.731   4.336  0.9074  1.3854 -1.2152
13657TIP3    H262463   3.018   2.741   4.204 -1.1966 -1.6852 -0.4147
13658TIP3   OH262464   5.220   2.972   4.487 -0.2362  0.3578  0.0577
13658TIP3    H162465   5.303   2.924   4.480 -0.0303  0.8729 -1.2256
13658TIP3    H262466   5.236   3.038   4.554  0.5010  0.6414 -0.3824
13659TIP3   OH262467   5.491   3.658   4.033 -0.1671 -0.3473 -0.8410
13659TIP3    H162468   5.426   3.717   3.994  0.5105  0.9316 -0.1012
13659TIP3    H262469   5.575   3.691   4.001  0.3022 -0.1510  0.5240
13660TIP3   OH262470   1.305   4.221  11.376  0.2839  0.2898 -0.3388
13660TIP3    H162471   1.363   4.175  11.315  1.7938  1.4475  0.1918
13660TIP3    H262472   1.362   4.280  11.425 -1.0664  0.2046  1.4389
13661TIP3   OH262473   4.304   3.597   4.064  0.1961  0.3001  0.1572
13661TIP3    H162474   4.356   3.617   4.142 -2.0143  1.7182  1.3828
13661TIP3    H262475   4.303   3.678   4.014  0.6408 -0.2644 -0.8035
13662TIP3   OH262476   3.513   0.575  14.210 -1.1447  0.2546  0.0252
13662TIP3    H162477   3.548   0.490  14.237  1.8804  0.8228 -1.5635
13662TIP3    H262478   3.421   0.573  14.235 -0.7171 -2.6870  1.8127
13663TIP3   OH262479   5.894   3.400   3.863  0.3499  0.2252 -0.7365
13663TIP3    H162480   5.973   3.455   3.857 -0.8021  1.8974 -1.4289
13663TIP3    H262481   5.892   3.370   3.954  1.5875  0.4293 -0.6233
13664TIP3   OH262482   5.356   1.571  12.729  0.5466 -0.3084 -1.2953
13664TIP3    H162483   5.445   1.603  12.743  0.5961 -1.0008  0.1548
13664TIP3    H262484   5.300   1.649  12.739  0.7755 -0.3582  0.8054
13665TIP3   OH262485   0.768   1.744  13.829 -0.4843  0.0181 -0.3738
13665TIP3    H162486   0.766   1.666  13.773 -0.0535 -1.2236  1.2535
13665TIP3    H262487   0.849   1.735  13.879 -1.3158  0.5698  1.1255
13666TIP3   OH262488   4.807   6.164   4.028 -0.3822 -0.1384 -0.2179
13666TIP3    H162489   4.841   6.246   4.064 -1.5281 -0.0819  0.7717
13666TIP3    H262490   4.740   6.137   4.090  0.9296 -2.5810  0.2414
13667TIP3   OH262491   2.374   2.229  16.226 -0.2632  0.1395  0.1871
13667TIP3    H162492   2.308   2.169  16.260  0.3165  0.7768  2.6772
13667TIP3    H262493   2.438   2.173  16.183 -2.2574 -0.5076 -2.1485
13668TIP3   OH262494   1.177   2.100  15.930  0.1455  0.0780 -0.0627
13668TIP3    H162495   1.236   2.033  15.964 -0.0355 -0.7135 -1.2565
13668TIP3    H262496   1.151   2.150  16.007  0.2470 -1.2416  0.8669
13669TIP3   OH262497   0.348   1.249  13.797  0.0074  0.0846 -0.0184
13669TIP3    H162498   0.293   1.281  13.868 -0.8202 -0.7278 -0.2609
13669TIP3    H262499   0.319   1.299  13.720 -0.2627 -0.2010 -0.1057
13670TIP3   OH262500   1.501   0.966  10.973 -0.0623 -0.2410 -1.2988
13670TIP3    H162501   1.532   0.914  10.899  2.0173 -0.0989 -0.6069
13670TIP3    H262502   1.533   1.055  10.955  1.2012 -0.3715  0.0998
13671TIP3   OH262503   1.285   4.567   5.708 -0.1208  0.5330 -0.4688
13671TIP3    H162504   1.271   4.498   5.644  2.3369  1.9934 -2.7654
13671TIP3    H262505   1.210   4.626   5.698 -0.5557 -0.0769 -0.8323
13672TIP3   OH262506   4.977   3.536  13.745  0.0316 -0.1759 -0.0208
13672TIP3    H162507   4.944   3.462  13.796  1.2437 -1.0962 -0.5248
13672TIP3    H262508   5.053   3.567  13.793 -0.2578  0.5184 -0.0044
13673TIP3   OH262509   1.775   1.985   5.517 -0.4435  0.2955  0.4662
13673TIP3    H162510   1.698   1.927   5.518  0.0418 -0.4092 -0.7878
13673TIP3    H262511   1.739   2.071   5.496 -0.7498 -0.3709 -2.0718
13674TIP3   OH262512   5.156   4.284   1.944 -0.3151 -0.1069  0.1707
13674TIP3    H162513   5.157   4.376   1.917 -0.9060  0.0256  0.5651
13674TIP3    H262514   5.087   4.280   2.010  0.3658 -0.6333  0.8768
13675TIP3   OH262515   6.596   4.604   2.793  0.0900  0.7577 -0.6418
13675TIP3    H162516   6.519   4.549   2.808  1.2063 -0.1692  2.3195
13675TIP3    H262517   6.658   4.547   2.747  0.9271 -0.3164  1.6781
13676TIP3   OH262518   2.985   5.313   2.572  0.4412  0.2827  0.5025
13676TIP3    H162519   2.951   5.351   2.652 -0.1494  0.5085  0.1500
13676TIP3    H262520   3.001   5.221   2.593 -2.1489 -0.3084  0.1729
13677TIP3   OH262521   0.141   0.040   6.176  0.2743  0.1917  0.0803
13677TIP3    H162522   0.154   0.075   6.264 -0.8583 -0.8545  0.7019
13677TIP3    H262523   0.176  -0.049   6.180 -0.6156 -0.1928 -0.2235
13678TIP3   OH262524   1.195   5.252   2.937  0.7092 -0.5078  0.5376
13678TIP3    H162525   1.180   5.240   2.844 -0.5781  1.6460  0.4054
13678TIP3    H262526   1.224   5.166   2.968 -0.7374 -1.8096 -1.4696
13679TIP3   OH262527   3.421   3.796   2.866  0.2570 -0.0435  0.2385
13679TIP3    H162528   3.449   3.824   2.778  1.2445  0.7208  0.7712
13679TIP3    H262529   3.333   3.832   2.876  1.7888  3.9186  1.2525
13680TIP3   OH262530   5.918   3.617  16.321  0.1467  0.0434  0.2968
13680TIP3    H162531   5.912   3.627  16.225  1.0492 -0.5747  0.1645
13680TIP3    H262532   6.007   3.644  16.342 -0.5680  1.8701  1.2131
13681TIP3   OH262533   0.651   4.274  12.837 -0.0718  0.1595 -1.0908
13681TIP3    H162534   0.712   4.202  12.824  0.1357  0.2248 -0.5027
13681TIP3    H262535   0.681   4.318  12.916 -1.4306 -0.3832 -0.2336
13682TIP3   OH262536   0.091   4.246  17.017  0.5874 -0.0500 -0.2073
13682TIP3    H162537   0.091   4.236  17.113 -1.9697 -0.2932 -0.1690
13682TIP3    H262538   0.129   4.165  16.985 -0.8217 -1.0714  0.5882
13683TIP3   OH262539   5.879   4.755   4.895  0.2852 -0.1073  0.3192
13683TIP3    H162540   5.919   4.738   4.810 -0.2364  0.1968  0.0085
13683TIP3    H262541   5.923   4.695   4.955  0.3508 -0.6314 -0.2494
13684TIP3   OH262542   2.496   3.280   3.565  0.4952 -0.0628  0.4596
13684TIP3    H162543   2.558   3.353   3.558  0.8478 -0.3591  0.4547
13684TIP3    H262544   2.439   3.291   3.489 -1.1704  1.7548  1.8593
13685TIP3   OH262545   4.883   5.406   0.646 -0.7161  0.1216 -0.1435
13685TIP3    H162546   4.803   5.360   0.617 -0.6240 -1.0692  1.3619
13685TIP3    H262547   4.853   5.494   0.667 -1.8883 -0.6086  1.4259
13686TIP3   OH262548   3.589   0.070  13.635  0.7559  0.4608  0.1646
13686TIP3    H162549   3.495   0.053  13.629  0.8014  0.6848 -1.7813
13686TIP3    H262550   3.594   0.156  13.677  0.2330 -0.5219  2.4171
13687TIP3   OH262551   0.638   4.736  17.190 -0.2341  0.1684  0.1660
13687TIP3    H162552   0.585   4.704  17.117 -1.3834 -0.5763  1.2856
13687TIP3    H262553   0.726   4.703  17.172 -0.8722 -1.5571  0.0074
13688TIP3   OH262554   2.092   4.944   4.562  0.0505 -0.2293 -0.4306
13688TIP3    H162555   2.145   4.865   4.572  2.2270  1.0108 -1.4168
13688TIP3    H262556   2.086   4.980   4.650  3.5523  1.1728 -0.6310
13689TIP3   OH262557   2.171   4.015   6.218  0.0097 -0.3392  0.0595
13689TIP3    H162558   2.128   3.938   6.180  0.9798 -1.0339  0.3091
13689TIP3    H262559   2.132   4.090   6.174  0.4790 -1.0766 -1.6738
13690TIP3   OH262560   0.870   0.814  16.940 -0.0648 -0.4628  0.2061
13690TIP3    H162561   0.814   0.742  16.970  0.5409 -0.7379  0.6937
13690TIP3    H262562   0.841   0.889  16.991 -1.4182 -0.0815 -1.0483
13691TIP3   OH262563   6.231   1.348   0.996  0.1371 -0.1494  0.6008
13691TIP3    H162564   6.227   1.443   0.994 -2.4273 -0.1944 -0.2785
13691TIP3    H262565   6.248   1.323   0.905 -1.6156 -0.4989  0.3194
13692TIP3   OH262566   4.954   1.424   2.927 -0.5620 -0.2362  0.5713
13692TIP3    H162567   4.961   1.497   2.988 -0.3796  1.1040 -0.9793
13692TIP3    H262568   4.992   1.456   2.845  0.9413 -2.6004  0.2400
13693TIP3   OH262569   2.314   3.703  15.310  0.3446 -0.6756  0.6271
13693TIP3    H162570   2.380   3.656  15.259  1.8600  2.2584 -0.2752
13693TIP3    H262571   2.293   3.643  15.383  3.1077 -2.1720  0.3130
13694TIP3   OH262572   4.272   2.728  12.383 -0.0995 -0.2569  0.0156
13694TIP3    H162573   4.252   2.821  12.384  2.3046  0.3291 -0.5281
13694TIP3    H262574   4.240   2.695  12.467 -1.3439  0.9537  0.0382
13695TIP3   OH262575   1.522   0.479  11.739 -0.1519  0.5894 -0.4119
13695TIP3    H162576   1.543   0.491  11.647  1.2282  0.3469 -0.1575
13695TIP3    H262577   1.603   0.500  11.785 -0.0804 -1.5757  0.5695
13696TIP3   OH262578   2.073   4.417  13.730 -0.1746 -0.5267 -0.3251
13696TIP3    H162579   2.001   4.442  13.788 -1.9268  1.0639 -3.0158
13696TIP3    H262580   2.055   4.327  13.706  0.8421 -1.3863  1.8358
13697TIP3   OH262581   4.602   0.717  17.351  0.1499 -0.1302  0.2836
13697TIP3    H162582   4.568   0.799  17.387 -1.9149 -0.2147 -1.3068
13697TIP3    H262583   4.667   0.744  17.286  1.0317  0.1344  1.2440
13698TIP3   OH262584   2.379   3.529  16.707  0.2626 -0.1789 -0.4989
13698TIP3    H162585   2.418   3.442  16.701 -0.1905 -0.3091 -4.0736
13698TIP3    H262586   2.289   3.513  16.734  0.3027 -0.7911 -0.7126
13699TIP3   OH262587   3.626   1.582   0.293 -0.7139  0.7997  0.3866
13699TIP3    H162588   3.699   1.556   0.349 -0.0771  0.7004 -0.4686
13699TIP3    H262589   3.662   1.651   0.238 -1.5981  1.5443  0.7163
13700TIP3   OH262590   0.375   1.019   1.097 -0.8051 -0.1078  0.9358
13700TIP3    H162591   0.330   1.038   1.179 -0.1423  0.7097  1.1251
13700TIP3    H262592   0.343   0.932   1.071  0.3443 -1.2442  3.0308
13701TIP3   OH262593   5.074   6.433   2.995 -0.2026  0.4267  0.0589
13701TIP3    H162594   5.142   6.499   3.009  0.7412 -0.3348 -0.7640
13701TIP3    H262595   5.105   6.382   2.920 -0.2706 -1.7529  1.4160
13702TIP3   OH262596   0.200   5.084  14.442  0.2635  0.5909 -0.4352
13702TIP3    H162597   0.141   5.152  14.411  0.7283  0.8185 -0.8229
13702TIP3    H262598   0.226   5.113  14.530  0.2119  0.7484 -0.4730
13703TIP3   OH262599   5.915   4.915   5.543  0.2213 -0.2520 -0.5627
13703TIP3    H162600   5.873   4.993   5.580  1.0635 -0.3951  0.7268
13703TIP3    H262601   5.981   4.950   5.483 -0.7819 -0.0147 -1.5608
13704TIP3   OH262602   2.445   2.497   1.652 -0.1048  0.4898  0.3777
13704TIP3    H162603   2.450   2.424   1.590 -0.8861  1.3648 -0.7484
13704TIP3    H262604   2.526   2.490   1.703 -0.5129 -1.6260  0.8716
13705TIP3   OH262605   2.775   3.240  15.111  0.3326 -0.0519  0.2622
13705TIP3    H162606   2.854   3.286  15.137 -0.1154 -0.1038  1.8189
13705TIP3    H262607   2.803   3.150  15.097  0.1224 -0.8539  3.9299
13706TIP3   OH262608   1.106   1.138  11.987 -0.7460 -0.0827 -0.2403
13706TIP3    H162609   1.070   1.209  12.041 -0.1008 -0.0217  0.1164
13706TIP3    H262610   1.042   1.127  11.917 -0.4244  1.4903 -0.8315
13707TIP3   OH262611   0.682   4.614   3.383 -0.1240 -0.0130 -0.1865
13707TIP3    H162612   0.679   4.702   3.418  0.7074  0.2207 -0.6751
13707TIP3    H262613   0.592   4.595   3.356 -0.8585 -0.3208  2.2970
13708TIP3   OH262614   1.119   3.083   2.197 -0.2041  0.3486  0.1576
13708TIP3    H162615   1.136   3.071   2.291  1.7781  1.4868  0.0093
13708TIP3    H262616   1.177   3.020   2.154 -1.3481 -0.4017 -0.3319
13709TIP3   OH262617   4.532   5.983   1.221  0.0851 -0.1843 -0.1720
13709TIP3    H162618   4.463   6.050   1.213 -0.3599 -0.3946  1.4575
13709TIP3    H262619   4.558   5.987   1.313  0.6991 -1.6292 -0.2616
13710TIP3   OH262620   4.388   0.427   1.203  0.5424 -0.1469  1.0828
13710TIP3    H162621   4.376   0.519   1.226 -0.8369 -0.4299  1.6150
13710TIP3    H262622   4.299   0.394   1.190  0.9830 -1.5451  1.4515
13711TIP3   OH262623   3.307   3.734  16.322 -0.3752  0.4311  0.1586
13711TIP3    H162624   3.231   3.678  16.306 -0.2780 -0.0071  1.0994
13711TIP3    H262625   3.331   3.715  16.413 -0.9624  2.7915  0.8582
13712TIP3   OH262626   6.720   1.212  15.058  0.3302 -0.0066 -1.0992
13712TIP3    H162627   6.664   1.272  15.107  2.6656  1.4351 -0.0094
13712TIP3    H262628   6.712   1.242  14.967  1.7433  2.3727 -0.5384
13713TIP3   OH262629   1.899   5.060   0.805  0.4265  0.4467  0.2924
13713TIP3    H162630   1.879   4.999   0.734  1.5038  0.4910 -0.0688
13713TIP3    H262631   1.942   5.006   0.871 -0.2994  0.4659  0.8019
13714TIP3   OH262632   1.257   3.346   3.352  0.2029 -0.0772  0.1744
13714TIP3    H162633   1.196   3.283   3.391  0.5420  0.1625  1.1243
13714TIP3    H262634   1.248   3.333   3.258  0.0557 -1.3507  0.3439
13715TIP3   OH262635   3.014   4.728   0.676 -0.1764  0.1958  0.2419
13715TIP3    H162636   2.988   4.652   0.729  2.8191 -2.1041 -1.2464
13715TIP3    H262637   3.100   4.752   0.710 -0.7118  2.5020  0.1234
13716TIP3   OH262638   0.497   2.939   6.198 -0.4781 -0.5187 -0.1604
13716TIP3    H162639   0.519   2.996   6.125 -1.9134  0.2687 -0.0196
13716TIP3    H262640   0.498   2.996   6.275 -0.7739 -0.9310  0.1560
13717TIP3   OH262641   5.769   1.448   5.634 -0.7100  0.5289 -0.0458
13717TIP3    H162642   5.829   1.457   5.708  0.6277 -0.0203 -1.0402
13717TIP3    H262643   5.760   1.354   5.621 -4.1299  0.4309  1.8849
13718TIP3   OH262644   3.117   3.061  12.078 -0.2933 -0.1696  0.4666
13718TIP3    H162645   3.171   3.070  12.157 -1.6226 -0.3364  1.4298
13718TIP3    H262646   3.091   3.150  12.056  0.7769 -0.0276 -0.3265
13719TIP3   OH262647   5.006   6.595  15.733  0.6243 -0.2524 -0.2642
13719TIP3    H162648   5.047   6.645  15.804 -0.1322 -0.4552  0.3237
13719TIP3    H262649   5.011   6.504  15.762 -0.0109 -0.3028 -0.2970
13720TIP3   OH262650   3.960   5.518  12.467  0.6889  0.0571 -0.0624
13720TIP3    H162651   3.873   5.551  12.486  0.7967 -0.2833  1.0891
13720TIP3    H262652   4.001   5.587  12.414 -0.6933 -0.3485 -1.7414
13721TIP3   OH262653   4.590   3.068  17.123  0.8943 -0.1596 -0.2776
13721TIP3    H162654   4.540   3.118  17.187  0.0301 -2.3282  0.8638
13721TIP3    H262655   4.524   3.037  17.060  0.8927 -2.0902  0.5951
13722TIP3   OH262656   0.160   2.837   6.837  0.3539 -0.0912  0.4690
13722TIP3    H162657   0.146   2.747   6.866 -0.5481 -0.4526 -0.9971
13722TIP3    H262658   0.130   2.838   6.746 -0.2605  1.8581  0.6521
13723TIP3   OH262659   6.564   3.648  16.722  0.1924  0.1130 -0.5048
13723TIP3    H162660   6.604   3.592  16.656 -1.1148 -0.3947 -0.9062
13723TIP3    H262661   6.592   3.611  16.806 -0.5560 -1.1083 -0.7663
13724TIP3   OH262662   2.552   1.439   2.273 -0.7435  0.0643 -0.4862
13724TIP3    H162663   2.554   1.363   2.331  0.3719 -0.1457 -0.7910
13724TIP3    H262664   2.595   1.409   2.193  2.3512  1.7991  0.3811
13725TIP3   OH262665   5.610   4.979  12.878 -0.4579  0.1711  0.3717
13725TIP3    H162666   5.684   4.994  12.937  0.1129 -0.9818 -0.0074
13725TIP3    H262667   5.577   4.893  12.905 -2.5787  1.2559  1.4665
13726TIP3   OH262668   1.879   0.199   2.956  0.3097  0.9807 -0.3607
13726TIP3    H162669   1.810   0.252   2.994  1.2351  1.2297  1.0731
13726TIP3    H262670   1.903   0.137   3.026  0.2429 -0.3523 -1.4880
13727TIP3   OH262671   3.343   6.495  15.906 -0.0020  0.8997  0.2635
13727TIP3    H162672   3.279   6.453  15.849  0.7016 -0.0279  0.1254
13727TIP3    H262673   3.426   6.452  15.885  0.3974  1.0079  1.4903
13728TIP3   OH262674   0.760   1.414   1.782  0.3102  0.3361 -0.0013
13728TIP3    H162675   0.713   1.418   1.865 -0.9101 -0.7701 -0.6037
13728TIP3    H262676   0.756   1.322   1.756  0.4191  0.6987 -1.4161
13729TIP3   OH262677   5.868   5.028   3.837 -0.1821  0.2381  0.1179
13729TIP3    H162678   5.855   4.933   3.834 -2.1718  0.4232  1.2725
13729TIP3    H262679   5.910   5.044   3.922 -1.3104  0.4914  0.6529
13730TIP3   OH262680   3.935   6.135  16.571 -0.2056 -0.0820 -0.1143
13730TIP3    H162681   3.902   6.224  16.562  1.3923  0.6169  0.4862
13730TIP3    H262682   3.895   6.102  16.651  1.4312  1.2216  1.3299
13731TIP3   OH262683   0.381   5.767  11.067 -0.0637  0.2398 -0.2474
13731TIP3    H162684   0.416   5.803  10.985  0.1927  1.5456  0.4033
13731TIP3    H262685   0.286   5.768  11.055 -0.0000 -2.5981 -1.7246
13732TIP3   OH262686   2.879   6.186  11.483  0.3539  0.0811 -0.3660
13732TIP3    H162687   2.964   6.204  11.523  0.4840 -3.0960  1.1623
13732TIP3    H262688   2.853   6.101  11.520 -3.0788  0.4849 -1.4652
13733TIP3   OH262689   6.301   2.068   5.628 -0.1139 -0.1037  0.0169
13733TIP3    H162690   6.243   2.016   5.573  2.2274  0.0245 -2.8139
13733TIP3    H262691   6.270   2.158   5.618 -0.8575 -0.2989  0.5022
13734TIP3   OH262692   2.881   3.841  16.514 -0.2175  0.6670 -0.2181
13734TIP3    H162693   2.956   3.783  16.524  1.3130  2.3446 -1.2790
13734TIP3    H262694   2.806   3.782  16.507  0.9859 -1.0710  0.8007
13735TIP3   OH262695   4.939   0.941   5.293  0.4387 -0.6005  0.0379
13735TIP3    H162696   4.986   0.989   5.360  1.8507 -0.8392 -0.7430
13735TIP3    H262697   4.965   0.982   5.211  0.2825 -1.5465 -0.5039
13736TIP3   OH262698   0.771   5.415  11.522 -0.0515  0.2444 -0.0188
13736TIP3    H162699   0.756   5.361  11.444 -2.2212  1.5405 -0.5751
13736TIP3    H262700   0.833   5.364  11.575  1.2639 -0.8086 -2.4302
13737TIP3   OH262701   6.016   1.982  10.799 -0.0928  0.2144  0.1055
13737TIP3    H162702   5.921   1.984  10.792 -0.1763  1.9077  1.1091
13737TIP3    H262703   6.045   1.928  10.726 -1.8698 -1.3322  0.4653
13738TIP3   OH262704   3.512   0.337  11.564  0.1226  0.4346  0.1943
13738TIP3    H162705   3.494   0.320  11.656  0.0281  2.8452  0.6948
13738TIP3    H262706   3.563   0.261  11.535 -1.2333 -1.1558  1.7535
13739TIP3   OH262707   2.727   1.516  12.830  0.3346  0.5263 -0.7436
13739TIP3    H162708   2.687   1.563  12.757 -0.0386  0.0689 -0.8413
13739TIP3    H262709   2.674   1.437  12.839  0.4175  0.5491 -0.0172
13740TIP3   OH262710   1.852   6.684   0.626  0.0401  0.1140 -0.4073
13740TIP3    H162711   1.828   6.631   0.702  0.4574  0.7607  0.2029
13740TIP3    H262712   1.846   6.625   0.551  0.2622 -0.7189  0.2202
13741TIP3   OH262713   6.081   5.527   1.829 -0.4213  0.3616 -0.1386
13741TIP3    H162714   6.127   5.457   1.875  0.4494  0.3911 -0.9421
13741TIP3    H262715   6.031   5.483   1.761 -1.6255  0.3303  0.7276
13742TIP3   OH262716   3.652   0.742   3.362 -0.3550 -0.3943 -0.1548
13742TIP3    H162717   3.630   0.657   3.325 -1.2478 -0.6820  0.9507
13742TIP3    H262718   3.678   0.796   3.288  0.1782 -1.6220 -0.8675
13743TIP3   OH262719   3.039   0.603   4.571 -0.5640 -0.3965  0.3432
13743TIP3    H162720   3.092   0.549   4.513  0.8726  1.2853  0.0045
13743TIP3    H262721   3.015   0.545   4.643  1.7636 -1.2518  0.5009
13744TIP3   OH262722   6.179   6.494  11.833  0.2136  0.1544  0.4558
13744TIP3    H162723   6.257   6.443  11.857 -0.8243 -0.7432  2.1146
13744TIP3    H262724   6.106   6.433  11.842 -0.9909  1.6793  1.6796
13745TIP3   OH262725   5.222   6.399   0.900  0.5497 -0.1151  0.3549
13745TIP3    H162726   5.196   6.328   0.958  0.9395  0.0392  0.7210
13745TIP3    H262727   5.189   6.478   0.943  0.0341 -0.0771 -0.0979
13746TIP3   OH262728   3.927   2.765   3.546  0.7245  0.4012 -0.0425
13746TIP3    H162729   3.890   2.811   3.621 -0.9916  1.3109 -1.3573
13746TIP3    H262730   3.964   2.685   3.583 -0.8704  0.3767  1.6743
13747TIP3   OH262731   5.329   6.484  12.053 -0.2305 -0.2577  0.7611
13747TIP3    H162732   5.292   6.462  11.968  2.3251  1.4753 -0.9509
13747TIP3    H262733   5.337   6.580  12.052  0.7863 -0.2614  2.5240
13748TIP3   OH262734   3.952   2.049  11.262 -0.1409 -0.1444 -0.4300
13748TIP3    H162735   3.868   2.010  11.235 -1.2435  0.7344  1.5452
13748TIP3    H262736   3.949   2.137  11.226 -1.2224  0.7279  1.6369
13749TIP3   OH262737   2.777   4.851  14.489 -0.2785  0.1850  0.8176
13749TIP3    H162738   2.810   4.900  14.414  0.6949  0.9762  1.7388
13749TIP3    H262739   2.776   4.914  14.561 -2.5079 -0.1661  1.1901
13750TIP3   OH262740   3.538   4.373   4.591 -0.0097  0.7611 -0.0517
13750TIP3    H162741   3.470   4.420   4.543 -2.2861  0.1832  2.3988
13750TIP3    H262742   3.605   4.439   4.607 -1.3974  2.2067  0.0663
13751TIP3   OH262743   4.577   3.565   0.562 -0.4103  0.1713 -0.2557
13751TIP3    H162744   4.539   3.616   0.490  0.1504  0.2369 -0.5148
13751TIP3    H262745   4.666   3.601   0.572  1.1775 -2.6730 -2.4860
13752TIP3   OH262746   0.105   2.476  14.846  0.2118  0.8093  0.1049
13752TIP3    H162747   0.115   2.386  14.815 -2.0462  0.2895  0.6948
13752TIP3    H262748   0.162   2.527  14.788 -0.6105 -0.6537 -2.1571
13753TIP3   OH262749   5.425   0.833  16.275  0.8733 -0.3570 -0.0571
13753TIP3    H162750   5.486   0.759  16.275  1.3160  0.0124  0.5625
13753TIP3    H262751   5.424   0.862  16.184  1.8668 -0.1633 -0.0171
13754TIP3   OH262752   5.602   2.735  14.921 -0.1328 -0.4325  0.2893
13754TIP3    H162753   5.636   2.824  14.910 -0.5140 -0.4244 -0.8736
13754TIP3    H262754   5.510   2.740  14.894 -0.3704 -1.0299  0.9253
13755TIP3   OH262755   5.293   4.197  16.365  0.0404  0.1328 -0.1821
13755TIP3    H162756   5.348   4.228  16.292  0.6343 -1.1763 -0.3284
13755TIP3    H262757   5.302   4.264  16.432  2.1638 -0.1927 -0.0662
13756TIP3   OH262758   2.526   5.943   0.261  0.2558 -0.3858 -0.2880
13756TIP3    H162759   2.437   5.908   0.269  0.0137  0.5095  1.4361
13756TIP3    H262760   2.575   5.874   0.214 -1.0236 -1.4564 -0.1105
13757TIP3   OH262761   6.496   1.043  12.920 -0.3003 -0.0361 -0.0754
13757TIP3    H162762   6.494   0.970  12.859  0.8317 -0.5262  0.4495
13757TIP3    H262763   6.544   1.010  12.996 -1.2217  0.7299  0.8604
13758TIP3   OH262764   4.289   2.882   2.810 -0.2739  0.3931 -0.1497
13758TIP3    H162765   4.227   2.817   2.844 -1.1561  0.9741 -0.5803
13758TIP3    H262766   4.242   2.966   2.820  1.0153  1.0330  0.8247
13759TIP3   OH262767   1.782   0.364   0.697  0.4816  0.2427  0.6914
13759TIP3    H162768   1.748   0.453   0.687 -0.1911  0.1371  1.8696
13759TIP3    H262769   1.850   0.371   0.764 -0.9749 -0.4287  2.3250
13760TIP3   OH262770   6.701   6.298   5.088  0.8352  0.4106 -0.0018
13760TIP3    H162771   6.719   6.209   5.118  1.9379  0.7792  0.4750
13760TIP3    H262772   6.784   6.329   5.053  0.3764  1.1435 -0.4750
13761TIP3   OH262773   4.824   4.145  17.272  0.1057  0.1107  0.0535
13761TIP3    H162774   4.784   4.182  17.194  0.1449 -0.4912 -0.2637
13761TIP3    H262775   4.844   4.220  17.328  0.5962  0.6008 -0.7595
13762TIP3   OH262776   2.681   0.448   1.184  0.1190  0.0854  0.4561
13762TIP3    H162777   2.736   0.428   1.260  0.2771  0.4492  0.4379
13762TIP3    H262778   2.742   0.449   1.110 -0.1164 -0.8253  0.2328
13763TIP3   OH262779   3.583   6.606   3.238 -0.3140 -0.0010 -0.1973
13763TIP3    H162780   3.663   6.626   3.286 -0.4416  2.3830 -0.8365
13763TIP3    H262781   3.611   6.544   3.170  0.8321  0.1848  0.0812
13764TIP3   OH262782   3.273   2.040   3.610  0.2938 -0.1846  0.6569
13764TIP3    H162783   3.320   2.054   3.528 -1.3389  2.5863  0.0587
13764TIP3    H262784   3.323   2.091   3.675  1.4483 -2.1801  1.4289
13765TIP3   OH262785   1.905   2.390  15.484 -0.0204 -0.1145  0.7702
13765TIP3    H162786   1.896   2.481  15.509 -0.9212  0.0729 -0.1719
13765TIP3    H262787   1.820   2.351  15.504  0.1275 -0.5776  0.5123
13766TIP3   OH262788   5.789   4.863  16.027  0.1490 -0.0708  0.5247
13766TIP3    H162789   5.804   4.907  15.944  0.7063 -0.7811  0.2347
13766TIP3    H262790   5.702   4.823  16.018 -0.8983  1.9402  1.2487
13767TIP3   OH262791   5.522   3.866  12.304 -0.0412 -0.0506 -0.6223
13767TIP3    H162792   5.588   3.807  12.269 -0.2989  0.2501 -1.6344
13767TIP3    H262793   5.573   3.939  12.341  0.2132 -0.0472 -0.9719
13768TIP3   OH262794   5.649   0.571   0.802  0.2542 -0.8350 -0.5037
13768TIP3    H162795   5.610   0.484   0.800 -1.7334 -0.0066  0.0082
13768TIP3    H262796   5.663   0.589   0.895 -1.2386  0.1619 -0.4511
13769TIP3   OH262797   0.255   5.084  15.916 -0.2576  0.0493 -0.3432
13769TIP3    H162798   0.235   4.993  15.940  0.9032 -0.2394 -0.4035
13769TIP3    H262799   0.171   5.129  15.921 -0.5924 -0.6891  1.1778
13770TIP3   OH262800   0.881   0.957   3.330  0.1739 -0.0142  0.0456
13770TIP3    H162801   0.891   0.866   3.301 -0.0906 -0.2065  0.5487
13770TIP3    H262802   0.821   0.952   3.403 -0.6128  0.6839 -0.5373
13771TIP3   OH262803   1.255   5.565   2.090  0.1221  0.2249 -0.4649
13771TIP3    H162804   1.175   5.572   2.141 -0.4580  1.0736 -1.4485
13771TIP3    H262805   1.278   5.472   2.093 -0.3416  0.1284  0.6334
13772TIP3   OH262806   1.306   3.386  11.417  0.1529  0.0034  0.3569
13772TIP3    H162807   1.286   3.311  11.474 -0.1347  0.9702  1.5600
13772TIP3    H262808   1.368   3.439  11.466  1.2996 -0.0235 -0.9865
13773TIP3   OH262809   3.708   5.193  10.543 -0.8094  0.2430 -0.2458
13773TIP3    H162810   3.799   5.222  10.548 -0.8403  0.6185 -1.5435
13773TIP3    H262811   3.714   5.097  10.540 -0.5497  0.2018  1.0901
13774TIP3   OH262812   1.890   2.349   3.751 -0.2096  0.0502 -0.1782
13774TIP3    H162813   1.974   2.308   3.730 -1.0054 -0.8784 -1.6807
13774TIP3    H262814   1.876   2.413   3.682 -1.3706 -0.7726 -0.7255
13775TIP3   OH262815   1.094   4.489   0.576 -0.7625 -0.0231  0.0184
13775TIP3    H162816   1.156   4.544   0.527 -0.2959  0.3212  0.9744
13775TIP3    H262817   1.134   4.402   0.576 -0.7357 -0.0118 -0.1540
13776TIP3   OH262818   6.218   0.531  12.091 -0.9548 -0.0060 -0.0321
13776TIP3    H162819   6.234   0.451  12.041 -0.8658 -0.5570  0.8706
13776TIP3    H262820   6.186   0.501  12.176  0.1001  0.8761  0.6993
13777TIP3   OH262821   4.974   2.545  17.152  0.5240  0.1775 -0.0982
13777TIP3    H162822   4.937   2.627  17.186 -0.7329 -0.6153  0.5258
13777TIP3    H262823   4.941   2.539  17.063  1.7360  0.9937 -0.6366
13778TIP3   OH262824   4.489   2.901  13.094 -0.3043  0.2485  0.6096
13778TIP3    H162825   4.451   2.871  13.012  0.5876 -0.1585  0.3344
13778TIP3    H262826   4.577   2.929  13.071 -0.3979  1.1227  1.2441
13779TIP3   OH262827   4.007   6.467   1.140  0.3640 -0.2942 -0.2786
13779TIP3    H162828   3.998   6.421   1.224 -1.6930  0.8846  0.2203
13779TIP3    H262829   4.060   6.544   1.161 -1.1569  0.6391  0.2576
13780TIP3   OH262830   5.596   3.345  12.518  0.6423  0.4104 -0.2854
13780TIP3    H162831   5.634   3.365  12.432 -0.1510 -0.2029 -0.7992
13780TIP3    H262832   5.519   3.292  12.498  0.7652 -0.2178  0.8467
13781TIP3   OH262833   4.101   1.213  14.750 -0.0882 -0.4111 -0.7160
13781TIP3    H162834   4.141   1.158  14.683 -1.8022 -1.3304 -1.0412
13781TIP3    H262835   4.022   1.247  14.709 -0.8569 -0.4905  0.6305
13782TIP3   OH262836   6.367   4.091   0.303 -0.1152 -0.2976  0.5422
13782TIP3    H162837   6.405   4.161   0.356  1.2276 -0.8643  0.3945
13782TIP3    H262838   6.414   4.012   0.330 -0.8028 -0.9419 -0.0878
13783TIP3   OH262839   6.629   6.533   1.532 -0.1659 -0.0734  0.3689
13783TIP3    H162840   6.584   6.590   1.469 -0.1896 -0.6202 -0.1151
13783TIP3    H262841   6.603   6.568   1.618 -1.4538 -0.3129  0.1048
13784TIP3   OH262842   3.734   0.021  11.658 -0.2859 -0.1914  0.2362
13784TIP3    H162843   3.729   0.081  11.584  0.7205 -1.9824 -1.3839
13784TIP3    H262844   3.649  -0.024  11.658  0.2941 -1.3743 -0.9740
13785TIP3   OH262845   6.367   5.766  11.861 -0.9930 -0.3919  0.0348
13785TIP3    H162846   6.289   5.756  11.807 -2.5232  2.5179  1.5084
13785TIP3    H262847   6.335   5.794  11.946  1.6058 -0.4376  1.1301
13786TIP3   OH262848   0.422   5.537   5.818 -0.4838  0.0736 -0.3015
13786TIP3    H162849   0.334   5.520   5.851  1.0055 -0.5185  3.9202
13786TIP3    H262850   0.420   5.630   5.793 -3.0429 -0.6682 -3.5474
13787TIP3   OH262851   5.898   1.019  16.954  0.5736  0.1998 -0.1231
13787TIP3    H162852   5.963   1.075  16.997  2.3534 -0.9627 -1.2443
13787TIP3    H262853   5.861   0.967  17.026 -1.9254  3.3484  1.1788
13788TIP3   OH262854   0.517   4.707   0.715  0.0490 -0.2641 -0.0093
13788TIP3    H162855   0.423   4.690   0.714 -0.1773  0.9173 -0.1267
13788TIP3    H262856   0.557   4.620   0.707 -1.0176 -0.8219  0.5558
13789TIP3   OH262857   3.003   2.946   2.325 -0.0380 -0.6614 -0.2375
13789TIP3    H162858   2.932   2.930   2.388  0.9319  0.5725  1.2329
13789TIP3    H262859   2.971   3.020   2.272  0.7625  1.0414  1.5364
13790TIP3   OH262860   1.909   3.788   0.901  0.0566  0.5245 -0.1437
13790TIP3    H162861   1.917   3.697   0.873 -1.9953 -0.1610  1.2775
13790TIP3    H262862   1.924   3.786   0.996 -1.2580  1.4312  0.1156
13791TIP3   OH262863   1.178   1.027  15.851 -0.1047 -0.4036 -0.3312
13791TIP3    H162864   1.151   0.936  15.835  0.3981 -0.5255 -0.4995
13791TIP3    H262865   1.099   1.070  15.883 -0.0449 -1.2387  1.0669
13792TIP3   OH262866   2.259   3.239   2.011  0.4175  0.0297  0.5552
13792TIP3    H162867   2.274   3.153   1.973 -0.2315  0.0768  0.1833
13792TIP3    H262868   2.329   3.250   2.075  2.4406  0.5465 -1.6151
13793TIP3   OH262869   0.442   5.045   0.943 -0.2642  1.0347  0.1108
13793TIP3    H162870   0.366   4.988   0.937 -1.2825  2.0603  2.3446
13793TIP3    H262871   0.427   5.113   0.878 -0.0858  0.0024 -1.0557
13794TIP3   OH262872   2.805   6.335   2.043  0.2853 -0.6036 -0.1840
13794TIP3    H162873   2.774   6.391   2.115  1.9664  0.6335 -0.3538
13794TIP3    H262874   2.871   6.389   1.998 -0.0285 -1.7160 -2.0706
13795TIP3   OH262875   1.133   6.446   5.096  0.6462 -1.0587  0.4578
13795TIP3    H162876   1.162   6.487   5.014 -1.3613  1.7136  0.9571
13795TIP3    H262877   1.118   6.354   5.073 -1.9603  0.0020 -3.0114
13796TIP3   OH262878   2.757   5.381  17.301  0.2585 -0.4279 -0.2608
13796TIP3    H162879   2.776   5.473  17.317  0.5496 -0.3374 -1.0723
13796TIP3    H262880   2.764   5.339  17.386 -0.6315  0.4295  0.2524
13797TIP3   OH262881   2.734   4.276  13.894 -0.6535 -0.1871 -0.3011
13797TIP3    H162882   2.654   4.287  13.842 -0.8824 -2.1235 -0.4309
13797TIP3    H262883   2.702   4.265  13.984 -0.4794 -0.3220 -0.2565
13798TIP3   OH262884   3.178   4.852   4.647 -0.6562  0.2687 -0.2733
13798TIP3    H162885   3.225   4.930   4.674  1.1992 -0.9817  0.3124
13798TIP3    H262886   3.107   4.844   4.711 -1.0151  1.5594 -0.4783
13799TIP3   OH262887   1.260   0.862   5.352 -0.0291  0.0001 -0.2372
13799TIP3    H162888   1.342   0.815   5.367  1.2915  1.6779 -1.8452
13799TIP3    H262889   1.241   0.848   5.259 -0.0241  1.9396 -0.5650
13800TIP3   OH262890   4.487   6.209  11.996 -0.5047 -0.2377 -0.0020
13800TIP3    H162891   4.539   6.242  12.070  0.2952 -1.3169 -0.0444
13800TIP3    H262892   4.465   6.287  11.945  0.1366  0.3740  0.6234
13801TIP3   OH262893   3.038   1.522  12.297 -0.1042 -0.2543 -0.2494
13801TIP3    H162894   3.035   1.598  12.239  0.9431  0.2998  0.3856
13801TIP3    H262895   3.109   1.468  12.264  1.2296  0.5930  1.0868
13802TIP3   OH262896   0.927   0.944  14.211  0.5289 -0.0505  0.2527
13802TIP3    H162897   0.877   0.866  14.234 -2.0580  0.8542 -1.7128
13802TIP3    H262898   0.966   0.923  14.126  2.8040 -0.3687  1.2983
13803TIP3   OH262899   3.475   1.705   6.129  0.4366  0.2055  0.3715
13803TIP3    H162900   3.457   1.615   6.156 -0.5490  0.3979  0.3804
13803TIP3    H262901   3.471   1.756   6.209  1.0201  0.2613  0.3699
13804TIP3   OH262902   0.259   1.593   2.268 -0.0331 -0.4768  0.0090
13804TIP3    H162903   0.297   1.664   2.321  2.7918 -0.1264 -2.2398
13804TIP3    H262904   0.216   1.638   2.195  0.6580 -1.0133 -0.7434
13805TIP3   OH262905   2.187   0.168  17.361  0.2924  0.2562  0.1038
13805TIP3    H162906   2.165   0.081  17.328  1.1757 -0.2940  0.9221
13805TIP3    H262907   2.242   0.152  17.437  0.1222  1.5319  0.5221
13806TIP3   OH262908   4.284   3.204  11.841  0.8832  0.7333  0.4128
13806TIP3    H162909   4.347   3.138  11.871 -1.6114 -0.7899  2.7496
13806TIP3    H262910   4.307   3.220  11.750  3.8123 -0.6729  0.7979
13807TIP3   OH262911   5.800   0.939  15.382  0.1510 -0.5700 -0.7284
13807TIP3    H162912   5.887   0.978  15.376 -0.2589  0.4842 -0.1243
13807TIP3    H262913   5.775   0.919  15.292 -0.7547  3.1985 -1.4827
13808TIP3   OH262914   5.165   6.753  14.288  0.0135 -0.1311 -0.3701
13808TIP3    H162915   5.169   6.841  14.250 -0.5750 -1.0089 -2.6344
13808TIP3    H262916   5.141   6.768  14.379 -0.0679  2.0561 -0.6757
13809TIP3   OH262917   3.118   3.162  15.225 -0.4483  0.0752  0.0923
13809TIP3    H162918   3.109   3.120  15.140  1.9824  1.0082 -0.7064
13809TIP3    H262919   3.061   3.239  15.219  0.7814  0.9255 -1.2780
13810TIP3   OH262920   3.073   3.255   0.517 -0.0585  0.2666  0.3939
13810TIP3    H162921   3.080   3.290   0.605 -2.2203  2.5626 -0.2243
13810TIP3    H262922   3.151   3.201   0.506  0.7814  0.7241  3.3232
13811TIP3   OH262923   3.162   6.662  14.868  0.1502  0.5283 -0.3445
13811TIP3    H162924   3.208   6.687  14.788  0.3831  0.9619 -0.0826
13811TIP3    H262925   3.080   6.713  14.864 -0.7506 -0.9160 -1.2526
13812TIP3   OH262926   0.111   2.171  11.722 -0.5190 -0.0452 -0.4178
13812TIP3    H162927   0.196   2.132  11.701 -0.7041 -1.2069  0.8510
13812TIP3    H262928   0.048   2.119  11.673 -0.5973  0.0332 -0.4003
13813TIP3   OH262929   2.635   3.992   0.945 -0.1819  0.3174 -0.5267
13813TIP3    H162930   2.613   4.069   0.998 -0.3703 -0.0261 -0.1068
13813TIP3    H262931   2.553   3.944   0.937  0.0642 -0.1550 -0.2721
13814TIP3   OH262932   1.333   5.418   4.779  0.8428  0.3232 -0.3566
13814TIP3    H162933   1.402   5.479   4.804  0.3123  0.3730  1.0807
13814TIP3    H262934   1.366   5.332   4.805  0.3777  0.3488  0.3567
13815TIP3   OH262935   2.842   0.719  16.397  0.0378 -0.0412 -0.1949
13815TIP3    H162936   2.834   0.675  16.482  0.8395 -2.2696 -1.1816
13815TIP3    H262937   2.931   0.754  16.396 -0.0898  0.2965  0.0012
13816TIP3   OH262938   4.371   5.251  14.456  0.1273 -0.1017 -0.1500
13816TIP3    H162939   4.379   5.344  14.434 -1.8699  0.1402 -0.0136
13816TIP3    H262940   4.444   5.234  14.515  1.5190  0.9391 -1.4805
13817TIP3   OH262941   5.276   1.978   2.007 -0.2887 -0.3835  0.3851
13817TIP3    H162942   5.337   1.904   1.999 -0.3769 -0.2891 -1.5920
13817TIP3    H262943   5.312   2.045   1.949 -1.3548  0.3170  0.5092
13818TIP3   OH262944   2.857   6.306  15.397 -0.6384  0.1015 -0.0246
13818TIP3    H162945   2.914   6.250  15.449  0.4545  0.3373 -0.9233
13818TIP3    H262946   2.887   6.395  15.414 -1.6930  0.3525  0.6019
13819TIP3   OH262947   0.628   0.264  14.544 -0.3380  0.6051 -0.5989
13819TIP3    H162948   0.654   0.195  14.483  1.0520 -0.8353  1.4711
13819TIP3    H262949   0.703   0.273  14.603 -0.6887  3.5719 -0.4537
13820TIP3   OH262950   1.470   4.305   5.706 -0.7732  0.7386 -0.3632
13820TIP3    H162951   1.553   4.342   5.675 -1.0103  0.9710 -0.7359
13820TIP3    H262952   1.458   4.225   5.655 -0.5052  0.4067  0.0890
13821TIP3   OH262953   1.373   2.123  14.045  0.4387 -0.4642  0.2691
13821TIP3    H162954   1.468   2.118  14.043  0.4658  0.0979 -0.4435
13821TIP3    H262955   1.351   2.181  13.972 -0.4015  0.1019  0.9501
13822TIP3   OH262956   2.916   2.964   0.746 -0.0740 -0.1081  0.0487
13822TIP3    H162957   2.845   2.993   0.689  0.3824  1.5190  0.2459
13822TIP3    H262958   2.930   2.872   0.723 -1.7579 -0.2708 -0.4780
13823TIP3   OH262959   3.446   2.164   6.657  0.2401  0.8215 -0.5107
13823TIP3    H162960   3.352   2.174   6.670  0.4466  0.7470  1.2424
13823TIP3    H262961   3.482   2.251   6.676  0.5591  0.7692 -0.8682
13824TIP3   OH262962   1.983   1.744  13.378 -0.0902 -0.1668  0.9552
13824TIP3    H162963   2.057   1.716  13.325 -1.4924 -0.8343 -0.7670
13824TIP3    H262964   1.985   1.688  13.456  0.9564 -0.4410  0.7341
13825TIP3   OH262965   5.617   2.634  11.875  0.0610  0.4438 -0.0001
13825TIP3    H162966   5.671   2.641  11.795  0.9244 -0.7301  0.4477
13825TIP3    H262967   5.561   2.711  11.872  0.4621  0.7257 -1.4636
13826TIP3   OH262968   5.937   4.211  17.119  0.2302  0.4148  0.2372
13826TIP3    H162969   5.857   4.175  17.156  0.2692  0.5635  0.4692
13826TIP3    H262970   6.005   4.191  17.184  0.2382  0.9643  0.4057
13827TIP3   OH262971   1.039   3.001   5.234  0.1776 -0.4100 -0.2713
13827TIP3    H162972   0.995   3.084   5.252  0.5983 -0.3253  0.3954
13827TIP3    H262973   1.128   3.025   5.211  0.5542 -0.7076  0.7929
13828TIP3   OH262974   1.529   3.735   3.983 -0.0435  0.3182 -0.1992
13828TIP3    H162975   1.572   3.816   3.956  0.1822 -0.0409 -0.9674
13828TIP3    H262976   1.437   3.759   3.997 -0.3785  0.3712 -2.1892
13829TIP3   OH262977   0.202   6.672   3.988  0.5172  1.1006  0.0721
13829TIP3    H162978   0.131   6.613   4.014  1.6832  0.6206  2.4233
13829TIP3    H262979   0.161   6.732   3.925 -1.6195  0.0308  0.3402
13830TIP3   OH262980   3.003   4.536   0.883 -0.8400 -0.6044  0.4078
13830TIP3    H162981   3.070   4.494   0.939 -0.3429  0.9802  1.0569
13830TIP3    H262982   2.925   4.539   0.938 -1.0553 -1.1956  0.1443
13831TIP3   OH262983   2.747   1.478  15.555 -0.2948 -0.7501  0.3181
13831TIP3    H162984   2.799   1.557  15.559  2.2310 -2.3538  1.4225
13831TIP3    H262985   2.712   1.467  15.644 -1.5884 -0.3228 -0.1140
13832TIP3   OH262986   1.390   1.375  16.896  0.3207  0.2536  0.1166
13832TIP3    H162987   1.301   1.380  16.931  0.7921  1.4416  1.2465
13832TIP3    H262988   1.381   1.328  16.813 -1.4107  0.6721  0.0308
13833TIP3   OH262989   2.320   3.593  12.473  0.4443 -0.0548  0.8335
13833TIP3    H162990   2.352   3.524  12.414 -0.8906 -0.9952  1.1446
13833TIP3    H262991   2.289   3.545  12.550  0.8599  1.0388  1.7028
13834TIP3   OH262992   1.235   1.205   6.065 -0.1775 -0.5465  0.2093
13834TIP3    H162993   1.310   1.242   6.111  0.0642 -1.4993  0.6090
13834TIP3    H262994   1.174   1.278   6.055  1.1502  0.4469 -0.8823
13835TIP3   OH262995   6.333   5.831  12.625 -0.1995  0.0736  0.3265
13835TIP3    H162996   6.381   5.765  12.574  0.7172 -0.2207  1.5051
13835TIP3    H262997   6.241   5.816  12.604  0.1617  0.2794 -1.5734
13836TIP3   OH262998   5.116   1.227   2.603 -0.1241 -0.3373 -0.3307
13836TIP3    H162999   5.174   1.241   2.528 -2.2270 -3.5306 -2.8454
13836TIP3    H263000   5.044   1.288   2.589  0.9287  1.2295  0.8849
13837TIP3   OH263001   5.625   4.805  13.506  0.4144 -0.1563  0.5079
13837TIP3    H163002   5.632   4.767  13.594  1.0072  1.8994  1.4129
13837TIP3    H263003   5.610   4.898  13.522  0.3314  0.2297 -1.5917
13838TIP3   OH263004   2.825   4.555  13.393  0.4636 -0.7544  0.0012
13838TIP3    H163005   2.735   4.523  13.402  1.0130 -1.7382  2.6822
13838TIP3    H263006   2.825   4.637  13.442  0.4459  0.7174 -2.2768
13839TIP3   OH263007   2.011   2.806  14.793  0.4296  0.1238 -0.1205
13839TIP3    H163008   1.964   2.889  14.797  0.3899  0.1801 -1.5035
13839TIP3    H263009   2.104   2.831  14.794  0.4267  0.1328  0.2159
13840TIP3   OH263010   6.324   1.881  16.905 -0.3526  0.5659 -0.6529
13840TIP3    H163011   6.373   1.917  16.831 -1.5615 -1.0663 -2.3213
13840TIP3    H263012   6.234   1.912  16.891 -0.3051  1.6816  1.1470
13841TIP3   OH263013   1.809   1.163  13.356  0.2574  0.6364 -0.5027
13841TIP3    H163014   1.855   1.216  13.421 -2.0191  0.5428  1.3049
13841TIP3    H263015   1.832   1.073  13.378 -1.9867  0.4645  1.5482
13842TIP3   OH263016   4.299   5.260   4.010 -0.0109 -0.5949  0.1210
13842TIP3    H163017   4.297   5.173   4.048 -1.3931 -0.3573  0.6904
13842TIP3    H263018   4.365   5.308   4.061 -0.9341 -0.6490  1.4241
13843TIP3   OH263019   3.030   4.117   4.032 -0.2074  0.4791  0.2293
13843TIP3    H163020   2.944   4.159   4.033  0.4791  1.9258  0.6738
13843TIP3    H263021   3.077   4.155   4.106  0.1258 -1.8786  1.3563
13844TIP3   OH263022   2.131   6.182   3.072 -0.0713 -0.4620 -0.3306
13844TIP3    H163023   2.172   6.267   3.088 -0.9352 -0.2662  1.0435
13844TIP3    H263024   2.043   6.204   3.043  0.3902 -0.8861 -2.1159
13845TIP3   OH263025   4.003   6.093   5.064 -0.0803  0.1508 -0.4014
13845TIP3    H163026   4.000   6.175   5.113 -0.0945 -0.7677  1.1993
13845TIP3    H263027   4.007   6.025   5.131 -0.2918 -1.1777 -1.6868
13846TIP3   OH263028   3.166   1.619   3.465  0.6246  0.0032 -0.0424
13846TIP3    H163029   3.174   1.543   3.522  1.5678 -1.0937 -1.5600
13846TIP3    H263030   3.176   1.694   3.523 -0.3897 -1.0081  1.5032
13847TIP3   OH263031   3.304   4.635  11.821 -0.1093  0.1756 -0.5317
13847TIP3    H163032   3.324   4.725  11.797  1.6955 -0.3776 -1.2889
13847TIP3    H263033   3.221   4.640  11.867 -0.1827  2.1833 -0.8089
13848TIP3   OH263034   2.372   4.887  14.557  0.0616 -0.0622 -0.2161
13848TIP3    H163035   2.392   4.803  14.598  0.2330 -0.8275 -1.7968
13848TIP3    H263036   2.379   4.950  14.628 -1.2590 -1.5135  1.2989
13849TIP3   OH263037   5.546   4.986  14.700  0.3224  0.5787  0.3280
13849TIP3    H163038   5.481   5.055  14.699  1.3920  1.7564  3.1318
13849TIP3    H263039   5.630   5.032  14.704  1.1745 -0.8887  0.2153
13850TIP3   OH263040   0.354   5.465  13.094 -0.2692  0.8192 -0.4609
13850TIP3    H163041   0.332   5.498  13.006  0.2958  3.2247  0.2280
13850TIP3    H263042   0.377   5.543  13.143 -1.0826 -0.4088  2.0175
13851TIP3   OH263043   3.321   1.599   0.789  0.3188 -0.4636 -0.8381
13851TIP3    H163044   3.366   1.669   0.836 -0.3297 -0.3266 -0.4020
13851TIP3    H263045   3.332   1.622   0.697 -0.0725  0.3415 -0.6985
13852TIP3   OH263046   1.491   2.692   4.233  0.3035 -0.4846  0.4717
13852TIP3    H163047   1.421   2.729   4.286  1.2942 -0.9644  2.1840
13852TIP3    H263048   1.453   2.683   4.145 -2.0514 -1.6003  1.5454
13853TIP3   OH263049   6.316   2.077   4.726  0.1043 -0.2476  0.6925
13853TIP3    H163050   6.241   2.112   4.677  0.5513 -0.3543 -0.0774
13853TIP3    H263051   6.369   2.155   4.746 -0.1948 -0.1740  1.2246
13854TIP3   OH263052   3.221   5.112   0.162 -0.4546  0.0274  0.1867
13854TIP3    H163053   3.220   5.059   0.083  0.5812  1.8335 -1.1028
13854TIP3    H263054   3.251   5.052   0.231  1.4886 -0.8745 -1.3596
13855TIP3   OH263055   1.877   1.532  13.075  0.7345  0.3158  0.1882
13855TIP3    H163056   1.807   1.485  13.119  0.3721 -0.1440 -0.8399
13855TIP3    H263057   1.832   1.591  13.014  1.2214 -0.2664 -0.7644
13856TIP3   OH263058   6.385   3.690   3.789  0.5222  0.2576 -0.1137
13856TIP3    H163059   6.381   3.724   3.879  1.5961 -0.6474  0.3106
13856TIP3    H263060   6.336   3.753   3.737 -0.5570  0.5427  1.1888
13857TIP3   OH263061   6.472   5.528   1.702 -1.0676 -0.5530 -0.0912
13857TIP3    H163062   6.422   5.484   1.633  0.6011 -2.1415 -0.3498
13857TIP3    H263063   6.539   5.578   1.655 -0.7389 -0.5829  0.3394
13858TIP3   OH263064   2.491   4.950  14.286 -0.8720 -0.1440 -0.2563
13858TIP3    H163065   2.501   4.856  14.299  1.2231  0.0617 -0.1731
13858TIP3    H263066   2.505   4.988  14.373 -0.1275  0.3428 -0.5834
13859TIP3   OH263067   4.131   4.135   4.920 -0.0729  0.7711 -0.5238
13859TIP3    H163068   4.202   4.197   4.936 -0.8895  1.7631 -0.6101
13859TIP3    H263069   4.082   4.132   5.002  0.4169 -0.3822 -0.2647
13860TIP3   OH263070   6.718   6.394   4.793  0.5078 -0.1681  0.2900
13860TIP3    H163071   6.701   6.473   4.740  0.5909 -1.6155 -2.0357
13860TIP3    H263072   6.811   6.378   4.782  1.1641  1.0478  3.2788
13861TIP3   OH263073   3.961   3.533   7.027 -0.2189 -0.0500 -0.1958
13861TIP3    H163074   3.921   3.581   6.954 -1.6173 -1.3278 -0.3266
13861TIP3    H263075   3.975   3.444   6.993 -0.0964 -0.4427  0.8251
13862TIP3   OH263076   4.569   1.307  13.082  0.3146 -0.0889  0.3733
13862TIP3    H163077   4.563   1.224  13.035  0.9182  0.2826 -0.4056
13862TIP3    H263078   4.479   1.339  13.086  0.4546  1.3180 -3.3296
13863TIP3   OH263079   1.079   2.681   6.356 -0.2010  0.1154 -0.4142
13863TIP3    H163080   1.055   2.736   6.431  0.4122 -1.5723  1.0772
13863TIP3    H263081   1.172   2.662   6.369  0.3577  1.0615 -2.5039
13864TIP3   OH263082   4.722   4.317  15.787  0.1327 -1.0132 -0.3550
13864TIP3    H163083   4.775   4.240  15.769 -1.8179 -2.0933 -1.8628
13864TIP3    H263084   4.659   4.289  15.854  1.9720  0.5543  2.2142
13865TIP3   OH263085   0.474   1.526  12.678  0.0096 -0.1749 -0.1383
13865TIP3    H163086   0.550   1.499  12.730  0.8959  1.4026 -0.5515
13865TIP3    H263087   0.405   1.542  12.742  0.5252 -0.0304  0.3845
13866TIP3   OH263088   3.345   4.402   6.198 -0.3629  0.9524 -0.4887
13866TIP3    H163089   3.319   4.445   6.117 -3.0874 -0.0167 -0.2131
13866TIP3    H263090   3.264   4.397   6.250  1.0747  0.6356  1.8799
13867TIP3   OH263091   0.402   6.120   1.388 -0.0151 -0.7278  0.1749
13867TIP3    H163092   0.409   6.044   1.330 -1.9271  0.7291 -2.1954
13867TIP3    H263093   0.424   6.194   1.332  1.0434  0.5894  2.2033
13868TIP3   OH263094   0.174   4.789   3.801  0.1823 -0.0939  0.0348
13868TIP3    H163095   0.254   4.803   3.850  0.0783  1.6018 -0.2023
13868TIP3    H263096   0.105   4.830   3.854  0.0573  1.6829 -1.3820
13869TIP3   OH263097   1.989   4.545  14.862 -0.7601  0.4414  0.0070
13869TIP3    H163098   1.978   4.631  14.901 -2.1591  0.2941 -0.0174
13869TIP3    H263099   1.906   4.528  14.817 -0.3837 -0.7712 -0.2707
13870TIP3   OH263100   5.695   0.625  15.640 -0.4437  0.1756 -0.3128
13870TIP3    H163101   5.670   0.718  15.641  2.0637  0.9440 -0.6173
13870TIP3    H263102   5.612   0.578  15.638 -1.8064  2.4124 -0.4621
13871TIP3   OH263103   3.675   5.936  15.763 -0.2838  0.2979 -0.2301
13871TIP3    H163104   3.728   6.015  15.753  0.2010 -0.1639 -1.5562
13871TIP3    H263105   3.597   5.965  15.811  0.3872  1.3371  0.2685
13872TIP3   OH263106   2.316   3.650  12.923 -0.0122 -0.1950 -0.2312
13872TIP3    H163107   2.279   3.719  12.867 -0.1573  1.8082  2.1449
13872TIP3    H263108   2.387   3.693  12.970  1.1959 -2.2549 -0.0607
13873TIP3   OH263109   0.401   1.041  13.490  0.3655  0.0892  0.3488
13873TIP3    H163110   0.333   1.099  13.453  0.4133 -0.9326 -1.4547
13873TIP3    H263111   0.352   0.976  13.540  0.0805 -0.0937 -0.1634
13874TIP3   OH263112   3.886   0.362  11.962  0.4248  0.4390  0.0601
13874TIP3    H163113   3.921   0.373  11.874  1.8988 -0.6502  0.4711
13874TIP3    H263114   3.953   0.398  12.019  0.7876 -1.3661  0.8529
13875TIP3   OH263115   5.252   4.291  13.312  0.5257  0.1452 -0.5126
13875TIP3    H163116   5.276   4.266  13.223  0.9484  1.0361 -0.6614
13875TIP3    H263117   5.274   4.384  13.318 -1.1669  0.5622 -0.0604
13876TIP3   OH263118   0.702   5.800   0.244  0.3737 -0.1803 -0.5926
13876TIP3    H163119   0.655   5.717   0.238  1.8586 -1.0643 -0.2840
13876TIP3    H263120   0.707   5.831   0.153  0.9061 -1.0584 -0.8697
13877TIP3   OH263121   5.724   4.698  13.750 -0.6550 -0.0024  0.3871
13877TIP3    H163122   5.814   4.665  13.753 -0.2649  1.0709  0.9075
13877TIP3    H263123   5.703   4.717  13.841 -0.7189  1.5393  0.0655
13878TIP3   OH263124   5.265   2.369  15.241  0.1077 -0.0865 -0.3707
13878TIP3    H163125   5.198   2.373  15.173  0.0798 -1.4845 -0.4428
13878TIP3    H263126   5.284   2.276  15.251  1.5117  0.2437  0.1781
13879TIP3   OH263127   2.972   5.840   1.078  0.5455 -0.3819 -0.2338
13879TIP3    H163128   3.054   5.861   1.122  0.7531  0.0968 -0.8360
13879TIP3    H263129   2.923   5.922   1.078  0.8541 -0.1747 -1.5252
13880TIP3   OH263130   0.393   6.297  10.623 -0.1395 -0.1315 -1.2665
13880TIP3    H163131   0.446   6.275  10.546  0.3839  0.0106 -0.9521
13880TIP3    H263132   0.341   6.218  10.640  1.5751 -1.1133 -0.2669
13881TIP3   OH263133   1.248   0.915   6.263  0.3107  0.5865  0.5660
13881TIP3    H163134   1.192   0.950   6.193 -0.2353  1.2508  1.3191
13881TIP3    H263135   1.321   0.976   6.268 -0.6880  1.7319  1.9425
13882TIP3   OH263136   4.474   0.021   3.929 -0.3845  0.1033 -0.1891
13882TIP3    H163137   4.524  -0.017   4.001 -0.9751  1.1585  0.7958
13882TIP3    H263138   4.421   0.089   3.969 -3.5244 -1.6884 -0.9659
13883TIP3   OH263139   3.097   4.321   3.196 -0.3139 -0.2133  0.0945
13883TIP3    H163140   3.022   4.308   3.139 -0.5132 -0.8774  0.5070
13883TIP3    H263141   3.073   4.280   3.279  0.1687  0.3053  0.5040
13884TIP3   OH263142   0.432   1.962  10.770  0.5915 -0.8819  0.1233
13884TIP3    H163143   0.512   1.967  10.822 -0.0031  0.2875  0.9725
13884TIP3    H263144   0.448   2.021  10.696  0.6665 -0.9436  0.0903
13885TIP3   OH263145   1.925   1.803   3.095  0.4293 -0.1816 -0.3127
13885TIP3    H163146   1.956   1.760   3.015  0.4462 -0.0823 -0.3601
13885TIP3    H263147   1.870   1.738   3.138 -1.3331  0.4939 -1.4634
13886TIP3   OH263148   4.836   2.490   0.132  0.1995  0.1268 -0.8241
13886TIP3    H163149   4.816   2.488   0.225 -1.0533  1.3209 -1.0296
13886TIP3    H263150   4.754   2.518   0.090  0.3178 -1.7279 -2.4250
13887TIP3   OH263151   1.397   4.818   2.351 -0.2180  0.6767 -0.6350
13887TIP3    H163152   1.405   4.809   2.256  0.3765  0.2563 -0.5503
13887TIP3    H263153   1.476   4.776   2.386 -0.5368  0.6378  0.0536
13888TIP3   OH263154   3.673   4.030   2.812 -0.1244 -0.1307  0.1812
13888TIP3    H163155   3.734   4.103   2.812 -1.0391  0.7107  2.0701
13888TIP3    H263156   3.724   3.956   2.845  0.6681 -0.2591 -1.2522
13889TIP3   OH263157   5.007   0.054  16.571 -0.2213  0.4938 -0.1486
13889TIP3    H163158   5.042   0.142  16.558 -3.3521  1.6120 -2.3981
13889TIP3    H263159   5.079  -0.004  16.549  1.2298  2.5370 -1.1034
13890TIP3   OH263160   3.787   5.888  15.473  0.0803  0.3870  0.2613
13890TIP3    H163161   3.871   5.849  15.452 -0.4393 -0.5849 -0.0836
13890TIP3    H263162   3.789   5.902  15.567  1.3078  2.0665  0.0280
13891TIP3   OH263163   3.886   0.193  13.260 -0.8264  0.1876  0.1529
13891TIP3    H163164   3.965   0.239  13.286  0.4450 -1.8524  0.1144
13891TIP3    H263165   3.826   0.204  13.334  0.6481 -0.8023  1.5597
13892TIP3   OH263166   5.973   3.283  14.775  0.3217  0.9053 -0.6050
13892TIP3    H163167   5.878   3.286  14.766  0.0993 -2.4072 -0.6946
13892TIP3    H263168   6.005   3.266  14.687  1.0985  2.5892 -0.6803
13893TIP3   OH263169   5.119   6.639   0.021 -0.0854  0.0293  0.2748
13893TIP3    H163170   5.085   6.641  -0.068 -2.3795  0.9920  1.0940
13893TIP3    H263171   5.149   6.728   0.037 -0.2416  0.0174  0.6459
13894TIP3   OH263172   4.837   2.787   3.781  0.1700 -0.1925 -0.2176
13894TIP3    H163173   4.926   2.812   3.805  0.0885 -0.5724  0.5220
13894TIP3    H263174   4.829   2.696   3.812 -0.0167 -0.6398 -1.5156
13895TIP3   OH263175   3.162   2.749   3.698  0.2757 -0.5173 -0.1400
13895TIP3    H163176   3.092   2.776   3.758  0.0513  1.3440 -1.1563
13895TIP3    H263177   3.200   2.671   3.739 -2.1981 -1.4492  0.5956
13896TIP3   OH263178   0.798   5.844  11.069 -0.0956 -0.1125  0.4231
13896TIP3    H163179   0.829   5.928  11.101  0.8328 -0.5236  0.6330
13896TIP3    H263180   0.849   5.779  11.117  1.2557 -0.7653 -1.7562
13897TIP3   OH263181   4.892   1.185  15.899  0.1085 -0.4172  0.1103
13897TIP3    H163182   4.956   1.129  15.942  1.3880 -1.2170 -2.6266
13897TIP3    H263183   4.875   1.142  15.815 -1.7787  1.3364 -0.4830
13898TIP3   OH263184   6.112   6.382   4.270  0.2567 -0.0308 -0.0022
13898TIP3    H163185   6.163   6.369   4.190 -1.1905  2.2973 -1.4246
13898TIP3    H263186   6.024   6.401   4.239 -0.0686  2.2613  2.0606
13899TIP3   OH263187   3.048   3.592   0.598 -0.1172  0.6528 -0.1252
13899TIP3    H163188   2.973   3.645   0.570 -1.6731 -0.3637  1.8237
13899TIP3    H263189   3.019   3.551   0.680  2.1560 -0.7410  0.0749
13900TIP3   OH263190   1.297   0.334   2.611  0.0808 -0.1633  0.2394
13900TIP3    H163191   1.386   0.306   2.590  0.7634  0.0870  2.5261
13900TIP3    H263192   1.255   0.255   2.645 -0.3409 -0.1105 -0.1555
13901TIP3   OH263193   1.046   0.197  17.016  0.4282  0.1923  0.1154
13901TIP3    H163194   1.105   0.139  17.065 -0.7739 -1.5990 -0.4501
13901TIP3    H263195   1.075   0.190  16.925  0.0601  0.1962 -0.0048
13902TIP3   OH263196   6.020   2.416   2.716  0.0853  0.0628 -0.1160
13902TIP3    H163197   6.040   2.491   2.771 -1.3431 -1.3032  2.4795
13902TIP3    H263198   6.105   2.385   2.686  0.8533  1.4228  0.5551
13903TIP3   OH263199   3.954   0.887   3.188  0.3458  0.1145 -0.3768
13903TIP3    H163200   4.017   0.821   3.161 -0.4260 -0.9655  0.3509
13903TIP3    H263201   3.877   0.870   3.133 -0.3108 -0.4542  0.6640
13904TIP3   OH263202   0.683   1.846   4.896  0.0803 -0.0269  0.5866
13904TIP3    H163203   0.668   1.851   4.802  0.1863 -0.1529  0.5624
13904TIP3    H263204   0.775   1.866   4.907 -0.5230  2.9341  0.9466
13905TIP3   OH263205   6.615   3.023  11.301 -0.3654 -0.4764  0.4244
13905TIP3    H163206   6.688   3.061  11.350 -1.5354  1.0844  1.0371
13905TIP3    H263207   6.581   3.096  11.249 -2.1808 -0.8371  1.0253
13906TIP3   OH263208   4.611   5.075   1.819  0.2331  0.2379 -0.2469
13906TIP3    H163209   4.572   5.062   1.733 -0.0934 -0.2092 -0.0388
13906TIP3    H263210   4.582   5.162   1.847 -0.3946  0.0192 -0.2109
13907TIP3   OH263211   0.871   5.239  16.840 -0.3610  0.0057 -0.5859
13907TIP3    H163212   0.834   5.165  16.791 -2.4259  2.5969 -3.3487
13907TIP3    H263213   0.891   5.304  16.773 -3.2289  3.8050  1.8033
13908TIP3   OH263214   3.201   1.298  16.338 -0.6500 -0.1236  0.8189
13908TIP3    H163215   3.161   1.351  16.268  0.4938  0.9074  0.9109
13908TIP3    H263216   3.267   1.355  16.377  0.8666 -1.7153  0.7239
13909TIP3   OH263217   5.462   5.478  15.614  0.2631  0.2830  0.2823
13909TIP3    H163218   5.428   5.389  15.608  0.4844  0.2417 -0.6006
13909TIP3    H263219   5.422   5.514  15.693 -0.5587 -0.2944  0.1447
13910TIP3   OH263220   3.165   4.436  15.810  0.0816  0.1525 -0.4979
13910TIP3    H163221   3.096   4.441  15.744 -2.1887  0.7234  1.7793
13910TIP3    H263222   3.222   4.510  15.790 -0.4649  0.2334 -1.8684
13911TIP3   OH263223   5.428   4.057   5.928 -0.0826 -0.0807 -0.3589
13911TIP3    H163224   5.353   4.103   5.966  0.8157 -0.0483  1.5035
13911TIP3    H263225   5.439   4.098   5.842 -1.2796  0.9452 -0.0686
13912TIP3   OH263226   2.578   3.198   4.020  0.1925  0.3240  0.2664
13912TIP3    H163227   2.504   3.188   3.962  1.6401  2.2496 -2.1041
13912TIP3    H263228   2.573   3.289   4.050  0.6100 -0.0548  1.5733
13913TIP3   OH263229   3.496   4.526   3.348  0.2118  0.3032  0.5931
13913TIP3    H163230   3.460   4.572   3.424  2.2954  0.0816  1.7878
13913TIP3    H263231   3.524   4.595   3.289  1.9645  0.6215  1.7208
13914TIP3   OH263232   3.437   3.064   3.660  0.9900 -0.5104 -0.3814
13914TIP3    H163233   3.392   3.133   3.708  1.3183 -0.5045 -0.0807
13914TIP3    H263234   3.467   3.003   3.728  0.6473 -0.9854 -0.6430
13915TIP3   OH263235   6.268   3.839   2.525 -0.0023 -0.3853 -0.2920
13915TIP3    H163236   6.301   3.749   2.526 -0.5426 -0.7003 -2.7744
13915TIP3    H263237   6.233   3.850   2.437 -0.6666  2.0281  0.2016
13916TIP3   OH263238   3.683   1.477   3.650  0.2048  0.1034  0.2589
13916TIP3    H163239   3.756   1.502   3.594 -1.6288  2.1656 -1.3987
13916TIP3    H263240   3.606   1.483   3.594 -1.3936 -1.0274  2.1724
13917TIP3   OH263241   0.997   1.452   3.145 -0.5147 -0.1920 -0.3315
13917TIP3    H163242   1.088   1.459   3.117  1.0873  4.2362  4.5689
13917TIP3    H263243   0.998   1.384   3.212 -0.8232 -0.0655 -0.1989
13918TIP3   OH263244   3.761   0.438   1.835  0.4322 -0.4782  0.0740
13918TIP3    H163245   3.743   0.529   1.813 -0.1280 -0.4499  0.6336
13918TIP3    H263246   3.680   0.392   1.813  1.2273 -1.1270 -1.7259
13919TIP3   OH263247   3.244   5.452   0.841  0.0900 -0.6840  0.2037
13919TIP3    H163248   3.305   5.466   0.768  0.4196 -1.9120  0.2137
13919TIP3    H263249   3.241   5.536   0.887  0.9375 -0.2886 -0.4376
13920TIP3   OH263250   3.190   3.557  15.749  0.1631  0.4115  0.4159
13920TIP3    H163251   3.149   3.557  15.836 -2.7557 -2.0398 -0.7805
13920TIP3    H263252   3.242   3.476  15.748  0.7746  0.8031  0.1015
13921TIP3   OH263253   2.323   1.302   0.254 -0.6749  0.3421 -0.3805
13921TIP3    H163254   2.275   1.223   0.280 -0.6498  0.7736  1.0891
13921TIP3    H263255   2.282   1.372   0.305  1.0980  0.8268  0.4478
13922TIP3   OH263256   5.741   2.197  13.220  0.0733  0.3132  0.0388
13922TIP3    H163257   5.672   2.136  13.194 -0.1617 -0.0582  1.4767
13922TIP3    H263258   5.789   2.151  13.289  1.5068  0.7427 -0.6315
13923TIP3   OH263259   5.684   0.919   0.849  0.3964  0.7560 -0.0897
13923TIP3    H163260   5.592   0.944   0.852  0.4030  0.9043 -0.9344
13923TIP3    H263261   5.730   0.999   0.824  0.6604  0.4692 -0.5274
13924TIP3   OH263262   5.891   1.169  11.750 -0.0817 -0.2896  0.1718
13924TIP3    H163263   5.970   1.127  11.784 -0.9230 -2.9059 -0.8889
13924TIP3    H263264   5.917   1.260  11.735  1.7936 -0.3178  2.7107
13925TIP3   OH263265   2.527   5.366  16.615  0.3072  0.2737 -0.3243
13925TIP3    H163266   2.584   5.407  16.680  0.3927 -0.1257 -0.1478
13925TIP3    H263267   2.496   5.439  16.561 -0.1665  0.6839  0.4780
13926TIP3   OH263268   2.272   0.833  12.976 -0.7584  0.1428 -0.0176
13926TIP3    H163269   2.262   0.877  13.060  1.5692  1.2457 -0.2238
13926TIP3    H263270   2.237   0.895  12.912 -0.1052  0.4732 -0.0635
13927TIP3   OH263271   6.604   3.576   0.056  0.2035  0.3815 -0.5279
13927TIP3    H163272   6.557   3.582  -0.027 -0.2655  1.3010 -0.2060
13927TIP3    H263273   6.661   3.499   0.046 -1.0293 -0.4889 -1.0975
13928TIP3   OH263274   0.824   2.695   4.846 -0.9796 -0.3652 -0.0470
13928TIP3    H163275   0.779   2.746   4.779 -2.7322 -0.4081  1.0095
13928TIP3    H263276   0.822   2.752   4.924  0.5122 -0.5293  0.1340
13929TIP3   OH263277   4.404   2.669   5.206  0.3559  0.0494  0.2957
13929TIP3    H163278   4.429   2.578   5.220  0.7858  0.2130  0.6249
13929TIP3    H263279   4.389   2.704   5.294 -3.7356 -0.7463  0.0855
13930TIP3   OH263280   4.585   4.204   1.541 -0.1115 -0.0257 -0.1376
13930TIP3    H163281   4.570   4.298   1.542  0.5501  0.1011 -1.0426
13930TIP3    H263282   4.643   4.189   1.467 -2.0553 -1.4217 -1.4952
13931TIP3   OH263283   6.451   4.318  16.150  0.1137 -0.1654 -0.1329
13931TIP3    H163284   6.447   4.222  16.146  0.0813 -0.1952  0.5104
13931TIP3    H263285   6.365   4.347  16.119  0.0603 -0.3468 -0.1566
13932TIP3   OH263286   4.551   3.109   4.089  0.2225 -0.0275  0.1060
13932TIP3    H163287   4.550   3.145   4.178 -2.3631  1.6985 -0.5463
13932TIP3    H263288   4.606   3.169   4.039 -2.1374  1.7856 -0.4398
13933TIP3   OH263289   6.366   3.158   2.780 -0.7652  0.1106  0.6335
13933TIP3    H163290   6.313   3.079   2.781 -0.0880 -0.3537  0.6621
13933TIP3    H263291   6.317   3.219   2.724 -0.5132 -0.8908 -0.7422
13934TIP3   OH263292   3.959   5.117   3.357 -0.7636  0.0725 -0.2273
13934TIP3    H163293   3.945   5.024   3.345 -0.1744 -0.0490 -0.0106
13934TIP3    H263294   4.010   5.124   3.438 -0.5594  0.5597 -0.3916
13935TIP3   OH263295   5.252   1.914   4.907 -0.1357  0.7857  0.2725
13935TIP3    H163296   5.300   1.843   4.949 -1.3181 -0.4169 -0.3282
13935TIP3    H263297   5.260   1.896   4.813  0.0331  1.7930  0.0781
13936TIP3   OH263298   6.762   3.574   2.178 -0.1578 -0.4469 -0.2006
13936TIP3    H163299   6.823   3.618   2.238 -1.0854 -0.7203  0.9894
13936TIP3    H263300   6.681   3.569   2.228  0.3407 -5.2132  0.5629
13937TIP3   OH263301   6.090   6.248  12.201 -0.7718 -0.4401 -0.2750
13937TIP3    H163302   6.140   6.231  12.122  0.1824  0.1027  0.1915
13937TIP3    H263303   6.054   6.163  12.227  0.1402 -0.8951 -0.4712
13938TIP3   OH263304   3.477   0.013   0.911 -0.1313 -0.4178  0.5107
13938TIP3    H163305   3.471  -0.040   0.991  2.2317 -1.2424  0.2268
13938TIP3    H263306   3.543   0.079   0.931  1.0415 -1.0767 -0.9304
13939TIP3   OH263307   5.646   6.468  11.715  0.0483  0.3306 -0.7163
13939TIP3    H163308   5.647   6.373  11.703 -0.3411  0.2212  0.0569
13939TIP3    H263309   5.605   6.502  11.635 -2.1635 -0.3496  0.0545
13940TIP3   OH263310   5.949   0.240   5.625 -0.0297  0.5598 -0.3483
13940TIP3    H163311   5.975   0.184   5.552  0.6642  0.7025 -0.2152
13940TIP3    H263312   5.858   0.263   5.606 -0.8522 -1.8401  0.3607
13941TIP3   OH263313   3.657   2.158  13.596  0.2501  0.4130 -0.0138
13941TIP3    H163314   3.730   2.110  13.558  0.9453  0.9565  0.5999
13941TIP3    H263315   3.671   2.153  13.690  0.6607  2.2666  0.0620
13942TIP3   OH263316   5.237   3.700  16.466 -0.0860 -0.2688  0.6045
13942TIP3    H163317   5.285   3.625  16.502  1.2991 -0.4779 -1.4663
13942TIP3    H263318   5.289   3.726  16.389 -0.7680  2.5470  1.0068
13943TIP3   OH263319   5.267   4.040   4.478  0.2631 -0.0659 -0.4073
13943TIP3    H163320   5.253   3.949   4.450  2.3959 -1.0579  1.3720
13943TIP3    H263321   5.341   4.070   4.426  1.4100 -0.4055  0.9533
13944TIP3   OH263322   1.052   3.386  14.976  0.4798 -0.3992  0.3170
13944TIP3    H163323   1.088   3.415  15.060 -1.1047  1.2519  0.4982
13944TIP3    H263324   1.101   3.436  14.910  1.4070 -1.3526  0.2614
13945TIP3   OH263325   2.945   3.102  12.999  0.0431  0.0014  0.3095
13945TIP3    H163326   3.038   3.100  13.021  0.0163  1.2182  0.6318
13945TIP3    H263327   2.929   3.193  12.974 -0.9196 -0.3435 -0.3939
13946TIP3   OH263328   1.714   1.772  13.003  0.0515 -0.0520  0.6901
13946TIP3    H163329   1.803   1.802  12.987  0.7196 -1.5687  1.3776
13946TIP3    H263330   1.705   1.775  13.098 -0.0128 -1.5130  0.7493
13947TIP3   OH263331   4.403   3.235   3.682  0.1000  0.9862  0.2044
13947TIP3    H163332   4.323   3.262   3.636 -1.6367 -0.6050  2.1037
13947TIP3    H263333   4.411   3.142   3.664  1.5611  1.1291  0.0422
13948TIP3   OH263334   5.072   4.643  15.695  0.0230 -0.5647  0.2083
13948TIP3    H163335   5.136   4.712  15.677  0.0906 -0.7840 -0.4034
13948TIP3    H263336   5.028   4.672  15.775 -0.6066  0.6730 -0.5551
13949TIP3   OH263337   3.947   2.809   4.632  0.2651  0.3943 -0.0279
13949TIP3    H163338   3.930   2.765   4.549 -1.8343  0.7781  0.1447
13949TIP3    H263339   3.889   2.885   4.631 -0.3213  0.0325  2.0605
13950TIP3   OH263340   0.454   1.826   4.682  0.1394  0.4966  0.4754
13950TIP3    H163341   0.419   1.821   4.593 -0.1968  0.8974  0.5799
13950TIP3    H263342   0.382   1.796   4.737  0.7480 -0.9349  0.5429
13951TIP3   OH263343   4.921   5.470  17.179  0.1476  0.0744 -0.5889
13951TIP3    H163344   4.947   5.519  17.256 -0.9945  0.7976 -0.6399
13951TIP3    H263345   4.993   5.482  17.117  0.4569  0.5970 -0.1321
13952TIP3   OH263346   4.443   4.112  15.019 -0.1423  0.4401  0.6571
13952TIP3    H163347   4.388   4.097  14.942  0.4172  1.2629  0.0805
13952TIP3    H263348   4.415   4.198  15.052  0.9498  0.9837  0.2097
13953TIP3   OH263349   3.515   6.550   0.316 -0.4636  0.2468 -0.0267
13953TIP3    H163350   3.514   6.493   0.392  2.0819 -0.4547 -0.4550
13953TIP3    H263351   3.540   6.636   0.350 -0.9070  0.3204  0.1256
13954TIP3   OH263352   0.282   6.229   1.047 -0.5229  0.0431  0.7315
13954TIP3    H163353   0.322   6.294   1.106 -0.9299 -1.2989  2.5893
13954TIP3    H263354   0.220   6.280   0.994  0.4710  1.4412  0.8536
13955TIP3   OH263355   1.805   3.760   0.527 -0.1524 -0.0724  0.3186
13955TIP3    H163356   1.802   3.671   0.561  0.7365 -0.2149  0.0335
13955TIP3    H263357   1.898   3.782   0.525 -0.4213  1.6784  2.4824
13956TIP3   OH263358   0.211   4.930  16.267 -0.6733 -0.0218  0.8334
13956TIP3    H163359   0.217   5.022  16.241  0.5935 -0.2737  0.1392
13956TIP3    H263360   0.120   4.906  16.250 -1.0879  1.1743  1.2871
13957TIP3   OH263361   4.209   0.803   1.614  0.1593  0.7435  0.3617
13957TIP3    H163362   4.228   0.854   1.693  1.7627  1.6537 -0.5601
13957TIP3    H263363   4.216   0.866   1.542 -0.6119 -0.2045 -0.5831
13958TIP3   OH263364   6.253   6.554  16.221  0.6396  0.0107  0.3599
13958TIP3    H163365   6.316   6.484  16.236 -0.5999 -0.9379  1.3188
13958TIP3    H263366   6.191   6.547  16.293  0.1973  1.8063  0.2184
13959TIP3   OH263367   5.573   2.755  12.284 -0.6844  0.6351  0.5677
13959TIP3    H163368   5.554   2.772  12.377  1.3066  0.3622  1.0618
13959TIP3    H263369   5.544   2.834  12.239  0.3384  1.7037  1.7147
13960TIP3   OH263370   1.639   3.961   2.756 -0.5634  0.3270  0.5478
13960TIP3    H163371   1.608   3.872   2.769  0.8863 -0.3320 -0.3380
13960TIP3    H263372   1.572   4.003   2.702 -0.6267 -0.6203 -0.1250
13961TIP3   OH263373   0.656   0.541  14.092  0.0673  0.0727  0.4465
13961TIP3    H163374   0.743   0.514  14.063  0.0578  1.1517 -0.7235
13961TIP3    H263375   0.621   0.466  14.139  1.7896 -0.2239  1.3201
13962TIP3   OH263376   3.503   1.891  16.058  0.2240  0.1167 -0.4344
13962TIP3    H163377   3.522   1.936  16.141 -1.8605  1.5952 -0.6691
13962TIP3    H263378   3.449   1.816  16.084  0.6089 -0.1296 -0.3479
13963TIP3   OH263379   3.985   1.501   2.409 -0.5729 -0.4706 -0.2318
13963TIP3    H163380   3.999   1.486   2.502  2.0054  1.3067 -0.2427
13963TIP3    H263381   4.073   1.508   2.372 -1.5235 -0.7596 -2.7589
13964TIP3   OH263382   3.483   0.783   5.580 -0.0782 -0.0502  0.2144
13964TIP3    H163383   3.422   0.727   5.626  0.7233 -1.0821  0.0587
13964TIP3    H263384   3.499   0.738   5.497  1.5806 -0.2927  0.6303
13965TIP3   OH263385   2.337   4.463  15.210  0.5875 -0.0766 -0.4018
13965TIP3    H163386   2.401   4.513  15.159 -0.6763 -0.6715 -2.7252
13965TIP3    H263387   2.292   4.409  15.145 -0.5116 -1.6121  1.5213
13966TIP3   OH263388   6.351   0.481   5.752  0.5792 -0.2066  0.0599
13966TIP3    H163389   6.348   0.574   5.776  1.2675 -0.6149  1.8830
13966TIP3    H263390   6.260   0.458   5.733  0.4068  0.8399 -0.4568
13967TIP3   OH263391   3.693   3.775  12.898  0.0537  0.0554  0.6225
13967TIP3    H163392   3.747   3.819  12.833 -0.4225 -0.1097  0.1146
13967TIP3    H263393   3.739   3.693  12.916 -0.9264 -0.9433 -1.1565
13968TIP3   OH263394   5.412   0.136  13.017 -0.1514 -0.1212  0.1687
13968TIP3    H163395   5.433   0.050  12.981  1.2508  0.3398 -0.1820
13968TIP3    H263396   5.348   0.119  13.086  0.9894 -1.5816  0.9169
13969TIP3   OH263397   0.391   3.534   0.809  0.6243 -0.1843  0.5249
13969TIP3    H163398   0.448   3.592   0.859 -0.5402  0.5388  1.0625
13969TIP3    H263399   0.331   3.498   0.875 -0.8456  0.6684 -0.2988
13970TIP3   OH263400   3.145   5.947  12.872 -0.1471 -0.2048  0.0617
13970TIP3    H163401   3.222   5.897  12.898  0.0688  0.8221  1.4948
13970TIP3    H263402   3.076   5.917  12.931 -0.3966  0.1121 -0.0678
13971TIP3   OH263403   3.676   1.702   4.726  0.5499 -0.5743  0.7411
13971TIP3    H163404   3.710   1.783   4.763  1.3136 -0.4513 -0.2031
13971TIP3    H263405   3.718   1.633   4.777  1.0822 -0.3989  0.5434
13972TIP3   OH263406   1.638   5.480   3.901  0.1324 -0.0147  0.1161
13972TIP3    H163407   1.694   5.549   3.939  1.8548 -1.1517 -0.2115
13972TIP3    H263408   1.700   5.416   3.867 -1.3748 -2.2832  1.3860
13973TIP3   OH263409   6.363   0.121   0.324  0.1014  0.4605  0.4733
13973TIP3    H163410   6.325   0.096   0.240  2.1941 -2.9004  0.3625
13973TIP3    H263411   6.430   0.186   0.302  2.7395 -2.4987 -1.1111
13974TIP3   OH263412   4.827   4.102  14.413 -0.0214  0.0543  0.0034
13974TIP3    H163413   4.888   4.070  14.347 -0.6080  0.8152 -0.9326
13974TIP3    H263414   4.742   4.064  14.388  0.0193 -0.9109  1.2330
13975TIP3   OH263415   3.557   0.901   4.507  0.4804 -0.0023 -0.1728
13975TIP3    H163416   3.482   0.855   4.468  0.5095 -0.1973 -0.0005
13975TIP3    H263417   3.577   0.971   4.445  0.5251 -0.3109 -0.5059
13976TIP3   OH263418   3.240   2.902  15.928 -0.0213 -0.2409 -0.4367
13976TIP3    H163419   3.158   2.922  15.972 -0.3149 -0.3264 -0.9381
13976TIP3    H263420   3.303   2.891  15.999 -0.5803 -0.8229 -0.0218
13977TIP3   OH263421   1.397   2.852   5.190 -0.5208 -0.4892 -0.3906
13977TIP3    H163422   1.418   2.849   5.097 -0.7018 -0.3619 -0.4366
13977TIP3    H263423   1.482   2.855   5.234 -0.4240  1.0378 -0.6129
13978TIP3   OH263424   6.347   1.297   1.833 -0.2577 -0.6693  0.4779
13978TIP3    H163425   6.401   1.295   1.755 -0.5010 -0.0887  0.2896
13978TIP3    H263426   6.271   1.350   1.809 -0.7392 -1.1696  0.8474
13979TIP3   OH263427   2.993   2.429  16.155  0.1055  0.0844 -0.8869
13979TIP3    H163428   2.901   2.410  16.173  0.2725  0.6538  0.7623
13979TIP3    H263429   3.033   2.343  16.141 -0.7525 -0.1308 -2.0949
13980TIP3   OH263430   2.350   4.707  11.312  0.1569 -0.3506  0.7187
13980TIP3    H163431   2.262   4.744  11.323 -0.5242 -1.8365  0.5386
13980TIP3    H263432   2.381   4.741  11.228  0.6011  1.7553  1.6713
13981TIP3   OH263433   1.942   0.270  14.544  0.0311 -0.4254  0.3487
13981TIP3    H163434   2.001   0.284  14.470 -1.7942 -1.7844 -1.4664
13981TIP3    H263435   1.892   0.351  14.551  0.6207 -0.0674  0.5208
13982TIP3   OH263436   1.786   0.367   1.814 -0.0964  1.0158  0.5985
13982TIP3    H163437   1.878   0.377   1.789  0.2859  0.2527  1.6249
13982TIP3    H263438   1.743   0.445   1.779  0.9350  1.3722  0.0847
13983TIP3   OH263439   5.120   2.443  13.439  0.1049 -0.3443  0.3052
13983TIP3    H163440   5.099   2.529  13.476  0.5843 -1.1641  2.6222
13983TIP3    H263441   5.119   2.383  13.513 -2.1630 -2.8017 -1.4816
13984TIP3   OH263442   0.785   6.258  16.557 -0.8933  0.8065 -0.0298
13984TIP3    H163443   0.844   6.185  16.570  0.8690  2.1407 -0.2029
13984TIP3    H263444   0.706   6.219  16.520  0.0205 -0.9786 -0.1673
13985TIP3   OH263445   4.242   2.476  16.395  0.2720 -0.2810 -0.2099
13985TIP3    H163446   4.260   2.490  16.302 -0.4761  0.5329 -0.2532
13985TIP3    H263447   4.169   2.414  16.397 -0.0163  0.0552 -0.1855
13986TIP3   OH263448   4.085   3.042   2.528 -0.2141 -0.6384  0.5411
13986TIP3    H163449   4.089   3.040   2.432 -0.5171 -1.8443  0.5421
13986TIP3    H263450   4.153   2.981   2.556 -0.7210 -0.9714  1.0708
13987TIP3   OH263451   1.027   5.695   4.107  0.0234  0.2751  0.7843
13987TIP3    H163452   1.064   5.608   4.122 -0.8198  0.0417  1.6243
13987TIP3    H263453   1.063   5.748   4.178 -1.7932 -0.1467  2.1033
13988TIP3   OH263454   3.385   0.020  12.081 -0.5243 -0.3539 -0.0919
13988TIP3    H163455   3.408   0.110  12.062 -0.4323 -0.1473  0.9364
13988TIP3    H263456   3.362   0.020  12.174 -0.1169 -1.4661  0.0258
13989TIP3   OH263457   2.311   2.083   2.804  0.3176  0.2651  0.8699
13989TIP3    H163458   2.286   2.156   2.747 -0.5375  0.0184  0.9187
13989TIP3    H263459   2.228   2.052   2.841  0.4683 -1.8071 -0.4378
13990TIP3   OH263460   3.035   3.445   4.154  0.4115 -0.0415 -0.0501
13990TIP3    H163461   3.054   3.537   4.134 -0.5260  0.4162  1.0050
13990TIP3    H263462   2.957   3.426   4.102  0.5927 -0.2353 -0.2508
13991TIP3   OH263463   2.929   4.108  13.924  0.3411 -0.3935  0.4980
13991TIP3    H163464   2.967   4.141  14.006  2.0581  0.9933 -0.8025
13991TIP3    H263465   2.864   4.174  13.899  1.1360  0.1339 -0.1962
13992TIP3   OH263466   1.465   5.858   2.200  0.2790  0.1569 -0.1923
13992TIP3    H163467   1.522   5.934   2.183  0.8810 -0.0977  0.6519
13992TIP3    H263468   1.405   5.888   2.268  1.0821 -0.3815  0.7791
13993TIP3   OH263469   5.433   6.325  15.251 -0.2208 -0.3511 -0.4360
13993TIP3    H163470   5.350   6.310  15.206  0.2244  0.3720 -1.5254
13993TIP3    H263471   5.494   6.352  15.182 -0.3145  4.0556  0.8943
13994TIP3   OH263472   2.807   0.202   6.208  0.2302 -0.1280  0.0012
13994TIP3    H163473   2.749   0.130   6.229 -0.2166  0.5313  1.1242
13994TIP3    H263474   2.752   0.266   6.163 -0.1429  0.7914  1.6537
13995TIP3   OH263475   6.007   4.995  12.851 -0.6522 -0.0780  0.3106
13995TIP3    H163476   6.006   4.952  12.937 -0.8716 -0.1123  0.2918
13995TIP3    H263477   6.094   4.974  12.816 -0.7583 -0.5210  0.2985
13996TIP3   OH263478   6.281   6.614   4.070 -0.0930 -0.1280 -0.1468
13996TIP3    H163479   6.206   6.652   4.024  0.1652  0.7242  0.1103
13996TIP3    H263480   6.259   6.521   4.079 -0.4932 -0.1664 -1.3009
13997TIP3   OH263481   3.085   4.218  15.560 -0.0399 -0.5076  0.2836
13997TIP3    H163482   3.043   4.303  15.549 -0.2985 -0.6746 -0.0276
13997TIP3    H263483   3.042   4.180  15.637 -0.5597 -0.7383 -0.1200
13998TIP3   OH263484   4.689   3.504   4.864  0.0881  0.0892  0.2699
13998TIP3    H163485   4.702   3.433   4.801 -0.1351  0.0939  0.2184
13998TIP3    H263486   4.610   3.479   4.912 -2.5156  2.2727 -2.4650
13999TIP3   OH263487   5.759   4.606  16.710  0.2117  0.2734 -0.2484
13999TIP3    H163488   5.788   4.568  16.793 -1.6530 -1.5635 -0.3613
13999TIP3    H263489   5.823   4.575  16.645 -0.6662 -1.8394 -0.1526
14000TIP3   OH263490   3.316   6.637  14.610 -0.4034  0.0738 -0.1129
14000TIP3    H163491   3.400   6.642  14.564 -0.3068  0.1225  0.0690
14000TIP3    H263492   3.254   6.680  14.551 -0.2035  0.4897 -0.0190
14001TIP3   OH263493   5.192   0.111   1.406 -0.0146 -0.2795 -0.6734
14001TIP3    H163494   5.269   0.062   1.376  1.1001  0.6910  0.4933
14001TIP3    H263495   5.220   0.203   1.405 -1.6794  0.2667 -1.6755
14002TIP3   OH263496   4.432   4.189  12.282  0.1974  0.7592  0.0697
14002TIP3    H163497   4.526   4.173  12.292  0.1089 -0.2164 -0.4957
14002TIP3    H263498   4.427   4.275  12.241  0.9249  0.2420 -1.1763
14003TIP3   OH263499   3.244   3.178   3.842 -0.1042  1.3002  0.2084
14003TIP3    H163500   3.292   3.260   3.853  2.4359  0.1463 -1.3378
14003TIP3    H263501   3.250   3.135   3.927  1.6092  1.2460  0.0912
14004TIP3   OH263502   5.694   6.346   3.828  0.4149  0.2090 -0.4825
14004TIP3    H163503   5.752   6.272   3.809 -0.0441  0.1625 -1.8582
14004TIP3    H263504   5.752   6.422   3.834  0.8054 -0.1359  0.1504
14005TIP3   OH263505   1.541   4.677   2.768 -0.1816  0.2074  0.2085
14005TIP3    H163506   1.513   4.624   2.842  0.4120  1.2536  1.1953
14005TIP3    H263507   1.607   4.736   2.803  0.7798  0.1108 -1.3514
14006TIP3   OH263508   4.583   6.307  12.236 -0.5748 -0.5189 -0.2300
14006TIP3    H163509   4.565   6.400  12.252 -1.7944 -0.9726  1.2244
14006TIP3    H263510   4.652   6.285  12.298  0.9219 -0.2299 -1.7146
14007TIP3   OH263511   3.171   0.708  13.904 -0.4692  0.3761  0.0622
14007TIP3    H163512   3.248   0.744  13.949  1.2896  0.5757 -2.8260
14007TIP3    H263513   3.159   0.765  13.828 -2.4562 -0.6829 -0.4968
14008TIP3   OH263514   3.678   4.301   3.422 -0.2059  0.0912  0.2010
14008TIP3    H163515   3.713   4.328   3.337 -1.1661 -0.7911 -0.4950
14008TIP3    H263516   3.619   4.373   3.448  0.3595  0.5254  0.3001
14009TIP3   OH263517   4.621   6.120   4.222 -0.1750  0.0485 -0.4170
14009TIP3    H163518   4.572   6.111   4.304 -1.2459 -2.5708 -1.2574
14009TIP3    H263519   4.554   6.135   4.155  0.5668  0.7184 -1.0323
14010TIP3   OH263520   5.849   0.712   4.449  0.5526  0.4792  0.1804
14010TIP3    H163521   5.761   0.694   4.484  0.2872  1.2126 -0.0855
14010TIP3    H263522   5.908   0.693   4.521  0.1514  0.2272  0.4455
14011TIP3   OH263523   3.398   3.714   1.836  0.2628 -0.3144 -0.2026
14011TIP3    H163524   3.376   3.651   1.905  0.8550  0.1403  0.4057
14011TIP3    H263525   3.369   3.671   1.755  1.3565 -1.7336  0.1080
14012TIP3   OH263526   1.330   0.705  15.892 -0.1998 -0.0271 -0.8323
14012TIP3    H163527   1.346   0.709  15.798 -0.9688 -1.1418 -1.0179
14012TIP3    H263528   1.406   0.750  15.931  1.7939 -2.3333 -1.8180
14013TIP3   OH263529   4.185   5.496   3.667 -0.2067 -0.1437  0.0699
14013TIP3    H163530   4.099   5.473   3.631 -0.6272  0.1356  0.8764
14013TIP3    H263531   4.231   5.413   3.675 -0.7888 -0.4248  0.6052
14014TIP3   OH263532   2.369   0.281  11.618 -0.1575  0.6762  0.1253
14014TIP3    H163533   2.373   0.189  11.642 -0.3828  1.0066  1.4817
14014TIP3    H263534   2.369   0.280  11.522 -1.9566 -0.8084  0.0878
14015TIP3   OH263535   1.585   1.213  14.104 -0.0134  0.2764  0.1101
14015TIP3    H163536   1.669   1.208  14.059  1.3014 -1.4489  2.5342
14015TIP3    H263537   1.603   1.184  14.194 -3.1754 -0.1186  0.7582
14016TIP3   OH263538   4.792   3.182   5.079 -0.2044  0.2498 -0.4857
14016TIP3    H163539   4.778   3.146   5.167  0.8712 -0.9803 -0.7767
14016TIP3    H263540   4.764   3.273   5.086  0.4747  0.3767  1.3273
14017TIP3   OH263541   5.979   4.956   2.834 -0.0364 -1.0023 -0.1587
14017TIP3    H163542   5.987   5.013   2.758  0.7782 -3.4317 -2.0117
14017TIP3    H263543   5.915   4.890   2.808 -0.3063 -1.4925  1.5816
14018TIP3   OH263544   6.726   2.783  13.759 -0.0116 -0.3009 -0.6280
14018TIP3    H163545   6.639   2.749  13.779 -0.2627  0.2935 -0.7008
14018TIP3    H263546   6.778   2.705  13.739 -0.2269 -0.7634  0.5203
14019TIP3   OH263547   5.699   2.952  11.712 -0.2069 -0.0407  0.4687
14019TIP3    H163548   5.723   2.862  11.694 -1.0884 -0.3047  0.5374
14019TIP3    H263549   5.780   2.995  11.738  0.1590 -0.8889  0.7300
14020TIP3   OH263550   0.881   2.628   4.070 -0.4534 -0.4290 -0.2668
14020TIP3    H163551   0.931   2.708   4.054 -1.6453  0.6314  1.0073
14020TIP3    H263552   0.825   2.618   3.993 -1.4836  0.9297  0.2711
14021TIP3   OH263553   0.696   0.675   2.124 -0.1572 -0.0256 -0.0698
14021TIP3    H163554   0.783   0.662   2.087  0.0769 -1.1300  0.8096
14021TIP3    H263555   0.712   0.707   2.213 -0.6500  0.1076 -0.0269
14022TIP3   OH263556   1.295   2.290  11.368 -0.5390  0.3429  0.0351
14022TIP3    H163557   1.374   2.236  11.373 -0.9105 -0.2829 -0.7854
14022TIP3    H263558   1.241   2.259  11.440 -0.4581  0.0848 -0.0124
14023TIP3   OH263559   1.159   0.599  13.812  0.2359  0.6004  0.1401
14023TIP3    H163560   1.169   0.513  13.851  0.6245  1.4497  2.0034
14023TIP3    H263561   1.117   0.652  13.879  0.7588  2.0802 -0.6383
14024TIP3   OH263562   4.723   4.948  15.808  0.1089 -0.3107  0.2626
14024TIP3    H163563   4.703   4.963  15.716 -0.8253  2.5091  0.8294
14024TIP3    H263564   4.640   4.916  15.845 -0.7019  2.1709  0.7678
14025TIP3   OH263565   6.055   0.316  16.361  0.3687  0.0461  0.2642
14025TIP3    H163566   5.965   0.305  16.330  1.1203 -3.0406 -1.1356
14025TIP3    H263567   6.045   0.355  16.448 -2.2622  0.5856 -0.1948
14026TIP3   OH263568   2.307   1.774  10.873 -0.1331 -0.1890 -0.2726
14026TIP3    H163569   2.350   1.852  10.910 -0.6479 -0.3454  0.6742
14026TIP3    H263570   2.377   1.710  10.863 -0.2951 -0.9483  2.5989
14027TIP3   OH263571   2.557   5.405   4.449 -0.3577 -0.0012 -0.2961
14027TIP3    H163572   2.548   5.494   4.482  0.9149 -0.0129  0.1150
14027TIP3    H263573   2.613   5.361   4.512  0.6101 -0.5495 -1.4918
14028TIP3   OH263574   2.582   6.452   3.770  0.2046  0.1042 -0.3736
14028TIP3    H163575   2.613   6.534   3.732  0.0178 -0.1826 -1.1616
14028TIP3    H263576   2.517   6.479   3.835  0.2851  0.5842 -0.4852
14029TIP3   OH263577   0.056   4.835  11.749  0.1132  0.7637  0.5068
14029TIP3    H163578  -0.001   4.764  11.779  0.0761  0.7976  0.5176
14029TIP3    H263579   0.082   4.809  11.661  0.9420  0.2284  0.8947
14030TIP3   OH263580   0.325   4.151  14.680  0.1374  0.6930 -0.4267
14030TIP3    H163581   0.371   4.159  14.596  3.3172  3.2189  1.3221
14030TIP3    H263582   0.388   4.183  14.745 -2.3299 -0.6538  2.9276
14031TIP3   OH263583   6.764   3.251   0.475 -0.1844 -0.9600  0.3074
14031TIP3    H163584   6.852   3.255   0.513  0.8777 -0.3513 -1.9907
14031TIP3    H263585   6.714   3.196   0.535  1.8007 -1.4089  1.6403
14032TIP3   OH263586   6.763   0.304  16.074 -0.5446  0.0790 -0.1031
14032TIP3    H163587   6.725   0.354  16.002 -0.4675  1.0017  0.4771
14032TIP3    H263588   6.704   0.321  16.148  0.6761  1.1178  0.6785
14033TIP3   OH263589   4.285   6.562  14.939 -0.5958  0.4174 -0.3934
14033TIP3    H163590   4.200   6.517  14.930 -0.2136 -0.1054 -1.6652
14033TIP3    H263591   4.275   6.617  15.017 -2.7452  1.7523 -1.5073
14034TIP3   OH263592   4.241   0.586  14.992  0.6263  0.5449  0.3261
14034TIP3    H163593   4.247   0.526  14.917 -0.2005 -0.9020  1.3707
14034TIP3    H263594   4.332   0.595  15.022  0.6645 -0.9549  0.7202
14035TIP3   OH263595   4.941   0.635  15.570  0.5062 -0.2830 -0.2499
14035TIP3    H163596   5.002   0.600  15.635 -1.1167 -1.3881  0.7737
14035TIP3    H263597   4.945   0.574  15.497  0.1665 -0.7455  0.1067
14036TIP3   OH263598   5.005   1.653   3.984 -0.3569  0.0444 -0.9206
14036TIP3    H163599   5.044   1.593   4.048 -0.8860  1.0967  0.4336
14036TIP3    H263600   4.946   1.598   3.932  0.2851 -0.8796 -0.6995
14037TIP3   OH263601   5.777   2.651  15.308  0.7156  0.3866  0.2173
14037TIP3    H163602   5.717   2.587  15.346  1.1643 -0.5415 -0.5629
14037TIP3    H263603   5.793   2.618  15.219 -0.0983  2.3310 -0.6893
14038TIP3   OH263604   2.731   6.166   0.703 -0.1529  0.0739  0.6313
14038TIP3    H163605   2.795   6.168   0.632 -0.6827 -0.8164  0.1127
14038TIP3    H263606   2.687   6.251   0.698 -1.0508 -0.4380 -0.9357
14039TIP3   OH263607   6.438   1.675  15.393 -0.0382 -0.1619  0.6171
14039TIP3    H163608   6.493   1.612  15.346 -2.0456 -0.8352 -1.0111
14039TIP3    H263609   6.495   1.713  15.459  1.8142 -2.2026  0.2941
14040TIP3   OH263610   5.944   5.090  13.602  0.8970  0.3361 -0.3966
14040TIP3    H163611   5.987   5.172  13.624  1.3460 -0.0570  0.2041
14040TIP3    H263612   5.977   5.027  13.665 -1.7859  0.3645  1.2069
14041TIP3   OH263613   5.874   2.156  15.459  0.4454 -0.1039 -0.0378
14041TIP3    H163614   5.872   2.084  15.522 -1.0759  0.1447  0.2429
14041TIP3    H263615   5.871   2.113  15.373  0.0579 -0.3851  0.1160
14042TIP3   OH263616   2.160   3.981   5.386 -0.5428  0.4726  0.4409
14042TIP3    H163617   2.131   3.924   5.314  0.7022  3.2974 -2.5793
14042TIP3    H263618   2.082   4.033   5.408 -0.3427  1.2231 -0.5836
14043TIP3   OH263619   1.751   0.652  12.967  0.0344  0.3605 -0.5801
14043TIP3    H163620   1.798   0.723  13.011 -0.0462 -0.0266  0.1477
14043TIP3    H263621   1.679   0.631  13.026  0.7405 -1.1123 -0.2189
14044TIP3   OH263622   6.428   1.657  12.632  0.6003  0.2995 -0.5953
14044TIP3    H163623   6.460   1.713  12.561  1.7835 -1.7920 -1.7894
14044TIP3    H263624   6.508   1.622  12.672 -0.1106 -1.0273 -0.2926
14045TIP3   OH263625   5.523   2.184  15.618  0.2435 -0.1234 -0.9150
14045TIP3    H163626   5.553   2.105  15.572  0.8915  0.1149 -0.8966
14045TIP3    H263627   5.586   2.197  15.688  0.9143  1.1583 -1.7109
14046TIP3   OH263628   3.055   4.170  10.240  0.1045 -0.1055 -0.1357
14046TIP3    H163629   3.002   4.250  10.241  0.8272  0.3757  0.4077
14046TIP3    H263630   3.019   4.118  10.313 -0.4434 -0.3468 -0.5633
14047TIP3   OH263631   4.661   3.278  13.090  0.1200 -0.1490  0.3063
14047TIP3    H163632   4.678   3.185  13.077  1.2100  0.1654 -0.6654
14047TIP3    H263633   4.747   3.317  13.104 -0.2596  0.8116  0.0776
14048TIP3   OH263634   1.949   4.553  10.644 -0.1093 -0.4564 -0.1328
14048TIP3    H163635   2.019   4.603  10.601 -1.5466  0.3535 -1.6667
14048TIP3    H263636   1.904   4.617  10.699 -1.1374 -0.3442 -1.0716
14049TIP3   OH263637   0.174   1.891  10.750  0.1112  0.3811 -0.1843
14049TIP3    H163638   0.210   1.803  10.736  0.2913  0.1190  1.6453
14049TIP3    H263639   0.251   1.946  10.766 -0.0336  0.7661 -0.7989
14050TIP3   OH263640   0.380   3.885  15.568 -0.1839  0.5739 -0.4515
14050TIP3    H163641   0.313   3.817  15.565  0.2994 -0.0447  1.3492
14050TIP3    H263642   0.412   3.891  15.478 -0.0875 -1.7663 -0.6417
14051TIP3   OH263643   5.434   3.601  14.375  1.0591 -0.2688  0.4632
14051TIP3    H163644   5.483   3.605  14.457  0.1825  2.1580  0.9378
14051TIP3    H263645   5.473   3.670  14.321 -0.7837  0.6453  0.2582
14052TIP3   OH263646   0.482   5.104   0.386 -0.6381  0.0333  0.2414
14052TIP3    H163647   0.554   5.102   0.449 -0.8897 -0.6514  0.5211
14052TIP3    H263648   0.500   5.031   0.327  0.4697  1.6398 -1.4987
14053TIP3   OH263649   2.122   1.479  11.836  0.2431 -0.6746 -0.1109
14053TIP3    H163650   2.189   1.519  11.891 -2.0597  0.1751  2.2891
14053TIP3    H263651   2.136   1.385  11.848  2.2419 -0.5992 -1.3662
14054TIP3   OH263652   3.765   5.649  13.499 -0.1575  0.4719  0.2520
14054TIP3    H163653   3.850   5.667  13.458 -1.1205  2.7155 -0.9600
14054TIP3    H263654   3.726   5.580  13.445 -0.0519  1.1040 -0.6525
14055TIP3   OH263655   6.451   4.991  15.306 -0.0531  0.7539 -0.2568
14055TIP3    H163656   6.489   4.977  15.219 -0.8758 -1.0286 -0.3820
14055TIP3    H263657   6.527   4.997  15.365  0.5555  2.9792 -1.1621
14056TIP3   OH263658   1.534   0.797  14.941  0.3031  0.2416 -0.4041
14056TIP3    H163659   1.595   0.799  14.867  0.1242 -1.3257 -0.6159
14056TIP3    H263660   1.578   0.745  15.008  0.0065  0.7523  0.2030
14057TIP3   OH263661   2.179   2.910  16.072 -0.8338  0.0869  0.0420
14057TIP3    H163662   2.258   2.872  16.032 -0.9602 -1.0508  0.8117
14057TIP3    H263663   2.170   2.996  16.031  0.9531  0.3510  0.1197
14058TIP3   OH263664   6.432   0.431  12.669 -0.3348  0.1764 -0.0050
14058TIP3    H163665   6.360   0.486  12.699 -0.0993  0.1483  0.6483
14058TIP3    H263666   6.511   0.484  12.687 -0.0036 -0.8805  1.8956
14059TIP3   OH263667   0.193   1.327   2.352  0.5241  0.3997 -0.1901
14059TIP3    H163668   0.099   1.329   2.371  0.5531  0.0436 -0.0065
14059TIP3    H263669   0.218   1.419   2.342 -0.2523  0.4413 -2.2059
14060TIP3   OH263670   0.323   0.450  13.968  0.2592  0.7799  0.2725
14060TIP3    H163671   0.297   0.391  13.898  2.6784  0.0315 -0.0827
14060TIP3    H263672   0.314   0.398  14.048 -1.4358  1.2875  0.4704
14061TIP3   OH263673   6.328   3.787   4.047  0.2037 -0.0962  0.5455
14061TIP3    H163674   6.318   3.880   4.026  0.0459 -0.3270 -0.4523
14061TIP3    H263675   6.239   3.756   4.062  0.1632 -0.2913 -0.0671
14062TIP3   OH263676   4.157   6.507   3.804 -0.3188 -0.2748  0.0812
14062TIP3    H163677   4.116   6.524   3.720 -0.5432 -0.7835  0.0847
14062TIP3    H263678   4.095   6.452   3.851 -0.3638  0.3134  0.7282
14063TIP3   OH263679   2.638   6.296   5.250  0.5518 -1.2126  0.2217
14063TIP3    H163680   2.639   6.254   5.336 -0.4032 -2.3979 -0.3126
14063TIP3    H263681   2.591   6.378   5.264  0.1799 -1.5149  0.7869
14064TIP3   OH263682   1.466   6.724  17.167 -0.0504  0.2270 -0.3111
14064TIP3    H163683   1.466   6.629  17.171 -0.1851  0.2669  1.2579
14064TIP3    H263684   1.559   6.748  17.158  0.1650 -0.0144  1.1329
14065TIP3   OH263685   4.856   2.636  11.334 -0.1783 -0.2133 -0.0822
14065TIP3    H163686   4.897   2.721  11.316  0.3034 -0.6369 -1.0356
14065TIP3    H263687   4.868   2.586  11.253 -2.1399 -0.5316 -0.2361
14066TIP3   OH263688   5.280   2.831   0.216 -0.2478 -0.3315  0.3787
14066TIP3    H163689   5.322   2.746   0.215 -0.4116 -0.4141 -0.3323
14066TIP3    H263690   5.209   2.823   0.280 -1.2754 -1.2484 -0.8185
14067TIP3   OH263691   3.176   3.074  16.617 -0.0494  0.1045 -0.1096
14067TIP3    H163692   3.269   3.087  16.638  0.2262 -0.3540 -1.0074
14067TIP3    H263693   3.152   3.152  16.567 -0.1515  0.2195  0.1166
14068TIP3   OH263694   4.242   3.782   4.735 -0.2657  0.1765  0.4062
14068TIP3    H163695   4.156   3.824   4.744 -0.1037  0.5066  0.3947
14068TIP3    H263696   4.279   3.821   4.656  0.0349  0.2703  0.5945
14069TIP3   OH263697   5.862   3.382  16.158 -0.0205 -0.5807 -0.2112
14069TIP3    H163698   5.786   3.436  16.179  0.4183 -0.9280  2.6519
14069TIP3    H263699   5.826   3.293  16.150 -0.0183 -0.6442  0.4584
14070TIP3   OH263700   4.034   6.460   4.099 -0.2859 -0.2594  0.1510
14070TIP3    H163701   4.010   6.370   4.077 -1.4680 -0.2216  1.1827
14070TIP3    H263702   3.952   6.501   4.125  0.1532  1.2625 -0.7071
14071TIP3   OH263703   4.654   5.809   2.633 -0.0338 -0.3553  0.7384
14071TIP3    H163704   4.703   5.892   2.637 -1.9461  0.8298  1.1618
14071TIP3    H263705   4.697   5.753   2.698  1.6166  0.0888  0.0849
14072TIP3   OH263706   3.623   4.699  15.330  0.3663 -0.5035 -0.0183
14072TIP3    H163707   3.701   4.646  15.312 -0.0225 -1.8458  1.9578
14072TIP3    H263708   3.636   4.731  15.419 -0.2306  1.3472 -0.5606
14073TIP3   OH263709   0.971   1.991   0.591  0.2380 -0.3079 -0.4168
14073TIP3    H163710   0.905   2.035   0.537  0.5293  2.9608  1.6062
14073TIP3    H263711   0.938   1.997   0.680  1.2396 -2.6760  0.1974
14074TIP3   OH263712   3.726   0.067  17.364  0.0239 -0.4776 -0.3088
14074TIP3    H163713   3.811   0.095  17.397  0.0847 -0.3939 -0.5416
14074TIP3    H263714   3.729  -0.029  17.368 -0.8301 -0.4715  2.1740
14075TIP3   OH263715   4.035   3.751   0.486 -0.3191  1.1495 -0.1594
14075TIP3    H163716   3.965   3.786   0.432 -0.3064  1.3230 -0.0651
14075TIP3    H263717   3.996   3.741   0.573 -0.8761 -0.8410 -0.5934
14076TIP3   OH263718   2.802   1.133   0.552  0.2061 -0.0271 -0.5132
14076TIP3    H163719   2.858   1.057   0.538  0.3386  0.0298 -0.3063
14076TIP3    H263720   2.720   1.096   0.586  0.7999  0.0189  1.0575
14077TIP3   OH263721   3.895   5.881  12.551 -0.0255  0.6380  0.1720
14077TIP3    H163722   3.987   5.885  12.575  1.1572 -1.4390 -3.1820
14077TIP3    H263723   3.889   5.934  12.471 -1.2578 -0.7500 -0.7065
14078TIP3   OH263724   3.814   3.583  16.554 -0.1409 -0.0847 -0.1412
14078TIP3    H163725   3.907   3.587  16.577  1.0633  2.2751 -4.3814
14078TIP3    H263726   3.773   3.650  16.609  0.8142 -0.5091  1.1295
14079TIP3   OH263727   2.592   2.690  15.337 -0.2222  0.2183 -0.2810
14079TIP3    H163728   2.676   2.714  15.297  0.0459  2.0092  1.2182
14079TIP3    H263729   2.614   2.666  15.427 -1.3073  0.9197  0.1955
14080TIP3   OH263730   5.496   2.642   4.251  0.2137 -0.1936 -0.1784
14080TIP3    H163731   5.575   2.692   4.267  0.3577 -0.1966 -0.8476
14080TIP3    H263732   5.524   2.550   4.253  0.4267 -0.1770 -1.3340
14081TIP3   OH263733   0.491   6.699   3.770  0.3913  0.4803 -0.3161
14081TIP3    H163734   0.457   6.727   3.685 -2.3822  0.9002  0.8101
14081TIP3    H263735   0.462   6.608   3.778 -1.2809  1.0790  0.9984
14082TIP3   OH263736   4.674   1.451  14.756 -0.0562 -0.6400 -0.2803
14082TIP3    H163737   4.684   1.355  14.759  0.0524 -0.6149  0.5871
14082TIP3    H263738   4.764   1.484  14.767  0.1584 -0.4306 -2.3791
14083TIP3   OH263739   0.743   2.730   0.401 -0.1030 -0.3060  0.0407
14083TIP3    H163740   0.686   2.684   0.462 -0.3986  0.3349  0.2458
14083TIP3    H263741   0.684   2.774   0.341  0.1748 -1.6904 -1.3136
14084TIP3   OH263742   0.828   2.861  11.580 -0.3464 -0.0648 -0.2357
14084TIP3    H163743   0.812   2.939  11.632 -1.6332  0.6416 -1.6114
14084TIP3    H263744   0.899   2.886  11.520 -1.2031  0.3018 -1.1223
14085TIP3   OH263745   1.570   6.315  10.943  0.0572  0.0203  0.3637
14085TIP3    H163746   1.494   6.368  10.966 -0.1959  0.5604 -1.5015
14085TIP3    H263747   1.599   6.351  10.859  1.4097 -1.1920  0.2782
14086TIP3   OH263748   2.449   2.917   1.203  0.0417  0.2957 -0.4886
14086TIP3    H163749   2.460   3.011   1.221  0.2006 -0.0076  1.1205
14086TIP3    H263750   2.538   2.888   1.180  0.1608  0.3668 -0.1240
14087TIP3   OH263751   4.610   5.588   2.046 -0.0961 -0.5507 -0.3461
14087TIP3    H163752   4.682   5.638   2.008 -1.5561  1.0368 -1.1450
14087TIP3    H263753   4.631   5.581   2.139  0.8740  0.2568 -0.4949
14088TIP3   OH263754   5.745   2.119   6.927  0.0178 -0.0489  0.3546
14088TIP3    H163755   5.719   2.055   6.860 -1.5211  0.8018  0.0948
14088TIP3    H263756   5.835   2.095   6.949 -0.0188 -1.3915 -0.7935
14089TIP3   OH263757   2.540   6.537  16.028 -0.7826 -0.3152  0.0432
14089TIP3    H163758   2.524   6.593  16.104 -2.3063 -0.8397  0.1484
14089TIP3    H263759   2.600   6.587  15.973 -2.1540  1.4788  0.0893
14090TIP3   OH263760   0.591   0.673  15.837 -0.3794  0.1406  0.5388
14090TIP3    H163761   0.686   0.668  15.836 -0.4104 -0.5252 -0.1494
14090TIP3    H263762   0.571   0.757  15.879  0.4965  0.1055  1.0349
14091TIP3   OH263763   0.332   1.838  12.048  0.0682  0.7812 -0.2900
14091TIP3    H163764   0.239   1.857  12.064 -0.2713  0.3888 -1.7137
14091TIP3    H263765   0.336   1.742  12.048  0.7639  0.7719  1.2144
14092TIP3   OH263766   2.115   4.531   5.793 -0.4251 -0.7579  0.0193
14092TIP3    H163767   2.066   4.487   5.724  0.5950  0.0738 -1.2719
14092TIP3    H263768   2.143   4.613   5.754 -1.4207  0.6305  2.0476
14093TIP3   OH263769   4.548   0.524   0.337 -0.9214  0.0218 -0.0305
14093TIP3    H163770   4.501   0.538   0.255 -2.6469 -1.0110  0.7338
14093TIP3    H263771   4.486   0.547   0.405  0.5223  0.9583  1.0298
14094TIP3   OH263772   4.806   1.574   1.867  0.4347  0.0009 -0.1784
14094TIP3    H163773   4.831   1.507   1.930 -1.1948 -0.4069  0.0748
14094TIP3    H263774   4.759   1.640   1.918 -1.4662 -0.6454 -1.0090
14095TIP3   OH263775   6.186   2.313   5.677 -0.6609 -0.0383 -0.0965
14095TIP3    H163776   6.114   2.259   5.711  0.2479  0.0747  2.1823
14095TIP3    H263777   6.143   2.390   5.640 -1.7195  0.6999  2.4670
14096TIP3   OH263778   2.426   6.192  16.228  0.8625 -0.2839  0.4119
14096TIP3    H163779   2.342   6.150  16.212  0.9866 -1.2331  1.9762
14096TIP3    H263780   2.475   6.182  16.146  0.3053 -1.8295  0.2405
14097TIP3   OH263781   1.449   0.431   0.758 -0.6709 -0.4239 -0.2241
14097TIP3    H163782   1.494   0.494   0.814 -1.3272  0.6142 -0.8272
14097TIP3    H263783   1.485   0.346   0.784 -2.1793 -0.2432  3.0333
14098TIP3   OH263784   5.352   4.159  11.154  0.4128 -0.1330  0.0867
14098TIP3    H163785   5.351   4.254  11.164 -1.9015 -0.1780  0.9555
14098TIP3    H263786   5.351   4.144  11.060  1.5544  0.6681 -0.0711
14099TIP3   OH263787   0.876   0.908  12.299 -0.1054 -0.4124 -0.0244
14099TIP3    H163788   0.920   0.904  12.214 -0.5641 -0.2260 -0.2733
14099TIP3    H263789   0.824   0.829  12.304 -0.8172  0.0285 -0.3300
14100TIP3   OH263790   6.699   6.220   0.895 -0.4256  0.4586  0.1086
14100TIP3    H163791   6.671   6.238   0.806  0.7091  0.6914 -0.2146
14100TIP3    H263792   6.785   6.262   0.903 -0.2873  0.0235  1.1483
14101TIP3   OH263793   2.159   4.470   3.304 -0.2028 -0.2948  0.9003
14101TIP3    H163794   2.234   4.418   3.276 -0.0075 -0.1894  1.2273
14101TIP3    H263795   2.086   4.437   3.251 -0.0019 -0.6431  0.8372
14102TIP3   OH263796   4.914   6.238   0.740  0.1258  0.3051  0.1434
14102TIP3    H163797   4.947   6.282   0.661  0.0801 -1.3064 -0.8016
14102TIP3    H263798   4.878   6.310   0.793  1.5637  1.6273 -0.5616
14103TIP3   OH263799   3.504   4.259  15.979 -0.1835 -0.0478 -0.0187
14103TIP3    H163800   3.574   4.217  16.029 -1.4359 -1.8493  0.3410
14103TIP3    H263801   3.539   4.344  15.954  2.1471 -0.9218  0.0626
14104TIP3   OH263802   5.385   0.504  15.343 -0.6900  0.2195 -0.1901
14104TIP3    H163803   5.422   0.434  15.289  1.6004  1.8190 -0.8996
14104TIP3    H263804   5.337   0.459  15.412  1.5981 -2.1211  0.0435
14105TIP3   OH263805   5.939   1.693  14.747  0.2090  0.0004 -0.0841
14105TIP3    H163806   5.879   1.674  14.819 -1.2509  0.9657 -0.9946
14105TIP3    H263807   5.943   1.612  14.697  1.6584 -0.8552  1.3093
14106TIP3   OH263808   4.131   2.112  11.864 -0.4188 -0.0848  0.4132
14106TIP3    H163809   4.220   2.126  11.897 -0.4519 -0.5334  0.6982
14106TIP3    H263810   4.074   2.132  11.939 -0.5950  0.8045  0.0563
14107TIP3   OH263811   4.537   2.243   5.039 -0.4443 -0.1483  0.8037
14107TIP3    H163812   4.628   2.262   5.060  0.1297 -0.0844 -1.4273
14107TIP3    H263813   4.506   2.188   5.111  1.1720  0.2844  1.8804
14108TIP3   OH263814   0.996   4.862   3.690  0.1449 -0.3286 -0.4249
14108TIP3    H163815   0.948   4.941   3.666 -2.1783 -1.0947  1.3864
14108TIP3    H263816   1.075   4.895   3.734  0.3916  0.9522 -1.7429
14109TIP3   OH263817   0.915   3.370   5.078 -0.0378 -0.5043  0.6645
14109TIP3    H163818   1.010   3.380   5.084 -0.1490  1.0662  0.2483
14109TIP3    H263819   0.887   3.349   5.167  0.6581 -0.4933  0.8888
14110TIP3   OH263820   0.191   3.172   2.511  0.2739 -0.0209 -0.5733
14110TIP3    H163821   0.126   3.106   2.535 -0.0211  0.6433  0.5314
14110TIP3    H263822   0.220   3.147   2.424 -0.3386 -1.2137 -0.4546
14111TIP3   OH263823   3.923   2.119  16.176 -0.1301 -0.6668  0.1588
14111TIP3    H163824   3.996   2.059  16.161  0.5315  0.2092 -0.2162
14111TIP3    H263825   3.860   2.096  16.107 -0.0203 -1.1287  0.2044
14112TIP3   OH263826   6.249   5.096   3.632 -0.5027 -0.2842  0.1157
14112TIP3    H163827   6.245   5.117   3.538  1.0419  1.2258  0.3530
14112TIP3    H263828   6.268   5.002   3.634 -1.4884 -0.5337 -1.0611
14113TIP3   OH263829   0.524   3.702   0.976 -0.0151 -0.3358 -0.0375
14113TIP3    H163830   0.587   3.772   0.959 -1.5470  0.7199 -1.9355
14113TIP3    H263831   0.495   3.717   1.066  0.5380  0.7826 -0.0282
14114TIP3   OH263832   4.715   5.182   1.561 -0.3266 -0.0504 -0.0066
14114TIP3    H163833   4.640   5.214   1.510  0.5688 -0.2482 -1.5076
14114TIP3    H263834   4.786   5.242   1.538  1.3268 -2.7394 -2.6387
14115TIP3   OH263835   4.805   2.749  12.919  0.0865 -0.4684 -0.8333
14115TIP3    H163836   4.867   2.774  12.850 -1.7311 -0.9007 -2.7286
14115TIP3    H263837   4.744   2.689  12.876 -3.3466  2.0369  0.0898
14116TIP3   OH263838   6.403   0.111  10.581  0.4363 -0.0417  0.1613
14116TIP3    H163839   6.457   0.185  10.553  0.1091  0.1233 -0.0428
14116TIP3    H263840   6.453   0.070  10.651  0.7178  0.2513  0.1344
14117TIP3   OH263841   1.005   3.946  15.015 -0.0859 -0.0254 -0.3830
14117TIP3    H163842   0.945   3.877  14.988  1.0037 -1.3127  0.3877
14117TIP3    H263843   1.037   3.985  14.933 -0.2423 -0.8515 -0.8401
14118TIP3   OH263844   3.397   0.483  13.878 -0.8679 -0.2764 -0.4344
14118TIP3    H163845   3.420   0.565  13.922 -0.7592 -0.2965 -0.4534
14118TIP3    H263846   3.366   0.426  13.949  1.0192 -0.9393 -0.0947
14119TIP3   OH263847   2.265   4.398   2.787 -0.1577 -0.2138  0.4225
14119TIP3    H163848   2.217   4.476   2.815  0.2638 -0.5773  2.2850
14119TIP3    H263849   2.212   4.325   2.817  1.0193 -0.6196  1.6468
14120TIP3   OH263850   1.151   3.164  16.673 -0.0909 -0.2564 -0.3427
14120TIP3    H163851   1.150   3.211  16.756 -0.6976 -0.4979 -0.2047
14120TIP3    H263852   1.060   3.136  16.660 -0.1839  0.5387 -1.5234
14121TIP3   OH263853   5.688   3.677   4.400 -0.6644 -0.1426 -0.6090
14121TIP3    H163854   5.711   3.662   4.492 -0.8083  0.6829 -0.4284
14121TIP3    H263855   5.771   3.668   4.353 -0.6409 -0.8632 -0.4422
14122TIP3   OH263856   5.450   4.329   0.759  0.5752 -0.6779 -0.5603
14122TIP3    H163857   5.405   4.244   0.761  0.5703 -0.6637 -0.0485
14122TIP3    H263858   5.542   4.306   0.752  0.4444 -0.7036 -3.1204
14123TIP3   OH263859   0.692   1.415   5.745 -0.1856 -0.3826 -0.3433
14123TIP3    H163860   0.700   1.474   5.819  1.0924  2.0385 -2.2918
14123TIP3    H263861   0.610   1.367   5.762 -1.5377  2.2295  1.1579
14124TIP3   OH263862   6.160   0.830   6.789  0.0179  0.3273 -0.4109
14124TIP3    H163863   6.148   0.834   6.694  0.0171 -2.0460 -0.5828
14124TIP3    H263864   6.191   0.917   6.813 -2.7220  1.9345 -2.1265
14125TIP3   OH263865   1.911   0.933   4.119  0.2192 -0.1248  0.4010
14125TIP3    H163866   1.840   0.998   4.114  0.1245 -0.2156  0.5432
14125TIP3    H263867   1.895   0.887   4.202  1.0452  0.5510  0.9584
14126TIP3   OH263868   2.001   3.046  12.871 -0.3454 -0.2498 -0.0099
14126TIP3    H163869   2.086   3.078  12.841 -0.5564  1.3737  1.0088
14126TIP3    H263870   2.022   2.981  12.938  0.1044  0.5584  0.6444
14127TIP3   OH263871   2.067   4.058  16.533  0.1719 -0.1185 -0.1872
14127TIP3    H163872   2.160   4.039  16.520  0.1808  0.0582 -0.3953
14127TIP3    H263873   2.065   4.137  16.587  0.1396 -0.2945  0.0722
14128TIP3   OH263874   2.681   3.640   2.508  0.4078 -0.7998  0.2609
14128TIP3    H163875   2.637   3.709   2.458  0.6445 -0.5560  0.3862
14128TIP3    H263876   2.771   3.641   2.477  0.6171 -0.4803  0.8670
14129TIP3   OH263877   5.491   3.574  13.537 -0.1324 -0.0418  0.1239
14129TIP3    H163878   5.455   3.643  13.593  2.6968 -0.0850  2.1801
14129TIP3    H263879   5.557   3.619  13.484  0.1254 -0.7578 -0.1717
14130TIP3   OH263880   3.271   0.043   2.382  0.0872  0.1600  0.2423
14130TIP3    H163881   3.311   0.026   2.467  1.0322  0.2650 -0.1714
14130TIP3    H263882   3.178   0.058   2.401  0.1230 -0.7047  1.1445
14131TIP3   OH263883   5.638   2.976   0.197 -0.0029 -0.3069 -0.5423
14131TIP3    H163884   5.608   3.058   0.158 -1.4482 -0.5673 -0.0445
14131TIP3    H263885   5.641   2.914   0.124 -0.9072 -0.3202 -0.5803
14132TIP3   OH263886   1.338   6.751  13.198 -0.2805 -0.0275 -0.2349
14132TIP3    H163887   1.352   6.727  13.107 -2.9163 -1.4782 -0.3451
14132TIP3    H263888   1.286   6.680  13.235  1.3869  0.0929  2.6806
14133TIP3   OH263889   3.494   4.457  15.464 -0.3208 -0.1850 -0.0171
14133TIP3    H163890   3.525   4.433  15.377  2.1627  1.3899  0.3184
14133TIP3    H263891   3.509   4.552  15.470 -1.0619 -0.1431  1.8800
14134TIP3   OH263892   6.312   4.364  15.044  0.0079  0.6285 -0.0403
14134TIP3    H163893   6.257   4.309  14.988 -0.5451  0.9837  0.1444
14134TIP3    H263894   6.382   4.394  14.986 -0.1669  0.4185 -0.3633
14135TIP3   OH263895   6.319   2.268   5.196  0.4309 -0.2920  0.2129
14135TIP3    H163896   6.229   2.263   5.230  0.8747 -0.9315  1.3656
14135TIP3    H263897   6.346   2.358   5.213  0.1345 -0.2016  0.2117
14136TIP3   OH263898   3.999   0.729   6.421  0.6276 -0.5492 -0.3556
14136TIP3    H163899   3.932   0.711   6.486 -0.3990 -2.3607 -1.8270
14136TIP3    H263900   4.018   0.823   6.431  0.3413 -0.7086  2.3134
14137TIP3   OH263901   2.514   3.534   0.037 -0.1932 -0.4657 -0.7444
14137TIP3    H163902   2.592   3.481   0.050 -0.7798 -1.2457 -0.3448
14137TIP3    H263903   2.493   3.567   0.124 -0.0852  0.0808 -0.9187
14138TIP3   OH263904   3.380   5.695  15.698  0.7593  0.4761 -0.5373
14138TIP3    H163905   3.424   5.675  15.616  2.4964  1.2982  0.1499
14138TIP3    H263906   3.439   5.663  15.766  1.4274  3.4868  0.4581
14139TIP3   OH263907   4.588   6.017   1.548  0.1663  0.6705  0.4914
14139TIP3    H163908   4.523   6.020   1.619  1.1419  1.0918  1.3892
14139TIP3    H263909   4.653   6.083   1.572  0.6567  0.6413 -0.6725
14140TIP3   OH263910   2.990   5.718   3.168 -0.2532  0.1881 -0.1315
14140TIP3    H163911   3.067   5.668   3.143 -0.5067  0.4884 -1.6474
14140TIP3    H263912   2.929   5.653   3.202 -0.2292 -0.4185 -1.1936
14141TIP3   OH263913   6.353   2.718   4.472  0.3741 -0.0837  0.2657
14141TIP3    H163914   6.276   2.716   4.529  0.1046 -2.7664 -0.0213
14141TIP3    H263915   6.318   2.727   4.384  0.3740 -0.9336  0.1658
14142TIP3   OH263916   3.193   1.652   6.245 -0.5722  0.2268  0.4612
14142TIP3    H163917   3.254   1.579   6.255 -0.4824  0.1984 -0.2329
14142TIP3    H263918   3.249   1.730   6.242 -0.3330  0.0281 -2.5185
14143TIP3   OH263919   2.714   5.062   4.485  0.7447 -0.0235  0.7255
14143TIP3    H163920   2.803   5.029   4.471  1.1603  0.9385  1.0056
14143TIP3    H263921   2.668   5.044   4.403  1.6531  0.8980 -0.0037
14144TIP3   OH263922   3.942   0.275  13.633  0.2270 -0.5002 -0.3747
14144TIP3    H163923   3.849   0.280  13.654  0.2105 -2.6313  0.3131
14144TIP3    H263924   3.969   0.190  13.668  2.3355 -0.1047 -0.9517
14145TIP3   OH263925   1.114   2.214  12.296 -0.4540  0.5973 -0.2004
14145TIP3    H163926   1.195   2.165  12.308 -0.6972  0.0780 -0.6197
14145TIP3    H263927   1.142   2.299  12.263 -0.0270  0.7363  0.5012
14146TIP3   OH263928   6.616   3.064   1.788  0.1233  0.0187 -0.5506
14146TIP3    H163929   6.668   3.039   1.864 -0.5185 -1.3987 -0.5527
14146TIP3    H263930   6.534   3.097   1.826  0.5891  1.2676 -0.5818
14147TIP3   OH263931   2.596   0.046   0.901  0.0103 -0.1413 -0.4602
14147TIP3    H163932   2.680   0.043   0.855  1.0112 -0.3397  1.3105
14147TIP3    H263933   2.546  -0.027   0.864  0.9359 -0.5431 -0.9519
14148TIP3   OH263934   5.338   5.983   4.708 -0.3253 -0.2430  0.7425
14148TIP3    H163935   5.308   6.068   4.678 -0.1477 -0.0647  1.0618
14148TIP3    H263936   5.429   5.998   4.735  0.9515 -1.2965 -2.5410
14149TIP3   OH263937   0.783   4.814  12.751 -0.6910  0.2675  0.2771
14149TIP3    H163938   0.818   4.800  12.839 -2.3295  0.3434  0.9901
14149TIP3    H263939   0.782   4.726  12.711  0.0378  0.2301  0.3390
14150TIP3   OH263940   2.437   1.046  15.382 -0.1531 -0.0367  0.2305
14150TIP3    H163941   2.351   1.013  15.358  0.0454 -0.2311 -0.2292
14150TIP3    H263942   2.425   1.085  15.468 -0.6919 -0.0909  0.1814
14151TIP3   OH263943   5.049   1.038   2.345  0.2492 -0.5540 -0.8808
14151TIP3    H163944   5.088   1.078   2.424  2.2890 -1.4678 -1.3642
14151TIP3    H263945   4.963   1.081   2.337  1.9464  3.2698 -0.9656
14152TIP3   OH263946   1.564   2.239   5.669  0.5625  0.1408  0.4635
14152TIP3    H163947   1.521   2.244   5.754 -0.5899 -1.8189  0.0332
14152TIP3    H263948   1.514   2.298   5.613  0.3042  0.1616  0.7162
14153TIP3   OH263949   0.065   5.225   1.571 -0.0364 -0.0242  0.4889
14153TIP3    H163950   0.133   5.236   1.637 -0.3498 -0.9756  0.9891
14153TIP3    H263951   0.056   5.130   1.561  0.3279  0.0911 -1.2687
14154TIP3   OH263952   1.730   3.253   1.942 -0.2994  0.4545  0.1365
14154TIP3    H163953   1.685   3.325   1.987 -1.2974  0.1607 -0.3802
14154TIP3    H263954   1.766   3.200   2.012 -1.9180 -0.0495  0.6210
14155TIP3   OH263955   1.747   2.061   5.110 -0.0096 -0.0184  0.0215
14155TIP3    H163956   1.758   2.156   5.119 -1.3042  0.0574  1.1799
14155TIP3    H263957   1.812   2.023   5.169 -1.7006  0.2708  2.1952
14156TIP3   OH263958   3.229   4.566   3.043 -0.6966  0.2287 -0.0422
14156TIP3    H163959   3.189   4.480   3.055 -0.7853 -0.0427 -1.9587
14156TIP3    H263960   3.314   4.547   3.005  0.4320  0.9083  2.0145
14157TIP3   OH263961   5.719   3.002   1.607  0.6695 -0.3605  0.4011
14157TIP3    H163962   5.783   2.997   1.537  1.3026  0.0359  0.9377
14157TIP3    H263963   5.754   3.067   1.668 -1.5419  1.9779 -0.6320
14158TIP3   OH263964   5.122   5.735  17.104 -0.6332 -0.1275  0.4020
14158TIP3    H163965   5.068   5.777  17.171 -0.8610 -0.6245  0.5422
14158TIP3    H263966   5.124   5.797  17.031 -1.1721  0.0145  0.5051
14159TIP3   OH263967   6.519   3.986  15.082 -0.6963 -1.2238 -0.3981
14159TIP3    H163968   6.460   3.914  15.060  0.5469 -2.1236 -0.8852
14159TIP3    H263969   6.594   3.974  15.024 -1.1184  1.3948 -1.6333
14160TIP3   OH263970   2.383   4.582  16.438 -0.4864  0.3698  0.5099
14160TIP3    H163971   2.416   4.495  16.457 -0.7269  0.4235  1.1759
14160TIP3    H263972   2.457   4.626  16.395 -0.5568 -0.3379 -0.3728
14161TIP3   OH263973   2.334   4.918   1.068 -0.0079  0.0708  0.1252
14161TIP3    H163974   2.316   4.970   0.990 -1.5869 -1.3428 -0.5199
14161TIP3    H263975   2.255   4.926   1.122 -0.2905 -1.5965  0.0113
14162TIP3   OH263976   1.070   1.485   6.321  0.5108 -0.1079 -0.1143
14162TIP3    H163977   1.067   1.464   6.414 -0.1380  1.9578  0.3788
14162TIP3    H263978   0.978   1.502   6.298  0.9081  1.5086 -0.5892
14163TIP3   OH263979   0.880   4.515  15.711 -0.0746 -0.1574  0.7270
14163TIP3    H163980   0.933   4.437  15.695 -1.1541 -0.9282  0.7879
14163TIP3    H263981   0.935   4.588  15.682  0.2878 -1.0753 -1.0381
14164TIP3   OH263982   2.441   0.255  14.149 -0.7299  0.3156 -0.7736
14164TIP3    H163983   2.432   0.300  14.065  2.7629 -0.1144 -1.5179
14164TIP3    H263984   2.513   0.300  14.193  0.4202 -2.1653  0.0644
14165TIP3   OH263985   3.005   6.292  14.149 -0.3572  0.0349 -0.5456
14165TIP3    H163986   3.012   6.197  14.152  1.1121  0.1097 -0.5161
14165TIP3    H263987   2.937   6.314  14.212  0.0562 -0.9434  0.2683
14166TIP3   OH263988   4.457   1.173   4.324 -0.0997 -0.3612 -0.1581
14166TIP3    H163989   4.410   1.256   4.312  2.6842  1.3469  0.0491
14166TIP3    H263990   4.439   1.124   4.244 -1.1078  0.7917 -0.6778
14167TIP3   OH263991   3.818   1.258  13.389  0.4924  0.3573 -0.2289
14167TIP3    H163992   3.767   1.338  13.405  1.1575  0.4713  1.5594
14167TIP3    H263993   3.846   1.230  13.476 -0.4297 -2.3342 -0.7068
14168TIP3   OH263994   0.206   2.645  15.051 -0.4500 -0.0829 -0.1741
14168TIP3    H163995   0.166   2.579  14.994  1.6503 -2.0338  0.4875
14168TIP3    H263996   0.298   2.645  15.028  0.2163  0.1164  2.2031
14169TIP3   OH263997   4.318   3.941   1.313 -0.4608 -0.2559 -0.1776
14169TIP3    H163998   4.257   3.900   1.252  0.4662 -1.1007 -0.5614
14169TIP3    H263999   4.351   3.868   1.366 -0.2779  0.2860  0.4745
14170TIP3   OH264000   1.434   2.831   1.904  0.0993  0.0913  0.2125
14170TIP3    H164001   1.397   2.805   1.820  0.1729  0.8200 -0.0568
14170TIP3    H264002   1.528   2.813   1.896  0.0184 -0.4181  0.3710
14171TIP3   OH264003   5.322   4.704   5.222  0.4860 -0.2112  0.3753
14171TIP3    H164004   5.245   4.673   5.271  0.7075 -0.5408  0.5149
14171TIP3    H264005   5.387   4.635   5.233  0.3436 -0.5583 -0.8830
14172TIP3   OH264006   3.578   1.889   3.483 -0.1937 -0.0421 -0.0694
14172TIP3    H164007   3.670   1.863   3.492  0.1937  1.4080  0.4905
14172TIP3    H264008   3.545   1.834   3.413  1.6016  0.6344 -1.5363
14173TIP3   OH264009   1.702   0.842   0.405  0.2892 -1.1106  0.0604
14173TIP3    H164010   1.670   0.835   0.495  1.8313 -0.1368  0.7177
14173TIP3    H264011   1.640   0.902   0.363 -0.0541 -1.0301  0.6641
14174TIP3   OH264012   4.020   4.073   0.109 -0.0315  0.1845 -0.5375
14174TIP3    H164013   4.082   4.137   0.144 -0.8910  0.7578 -0.0109
14174TIP3    H264014   4.050   3.989   0.141  0.3181  0.4861 -0.0634
14175TIP3   OH264015   0.394   3.061   2.371 -0.0684  0.0243  0.1349
14175TIP3    H164016   0.411   3.039   2.463  0.8066  3.6527  0.9948
14175TIP3    H264017   0.476   3.099   2.340 -0.7826  0.1178 -1.7279
14176TIP3   OH264018   1.558   5.273   2.161 -0.2778  0.5339  0.0200
14176TIP3    H164019   1.627   5.222   2.118  0.7890  1.7126  0.3080
14176TIP3    H264020   1.497   5.294   2.090 -0.1389 -0.1520 -0.3178
14177TIP3   OH264021   5.419   6.416  12.905  0.0657  0.4658 -0.0219
14177TIP3    H164022   5.411   6.342  12.965 -0.0685  0.2428 -0.3157
14177TIP3    H264023   5.350   6.476  12.932 -0.1280  0.2727 -0.0872
14178TIP3   OH264024   6.455   5.257   2.912  0.4296 -0.4542 -0.5518
14178TIP3    H164025   6.388   5.324   2.917  2.3624  1.5749 -0.1274
14178TIP3    H264026   6.508   5.281   2.836  1.1292 -1.5299 -0.4328
14179TIP3   OH264027   3.363   0.554   4.097  0.0564  0.0401  0.6418
14179TIP3    H164028   3.360   0.650   4.103 -0.1409  0.0968 -0.2253
14179TIP3    H264029   3.272   0.528   4.086  0.2219 -0.1444 -0.4022
14180TIP3   OH264030   4.037   0.063  16.332  0.3658  0.1319  0.4348
14180TIP3    H164031   3.968   0.130  16.328  1.1081  0.9872  1.2950
14180TIP3    H264032   4.110   0.102  16.285  0.0255 -1.1284 -1.2350
14181TIP3   OH264033   4.199   5.348  15.957 -0.3645  0.3071 -0.4376
14181TIP3    H164034   4.108   5.379  15.952 -0.5846 -0.3057 -0.3801
14181TIP3    H264035   4.211   5.325  16.049  0.6722  2.7449  0.1118
14182TIP3   OH264036   3.546   6.253  16.026 -0.2093 -0.2851 -0.5012
14182TIP3    H164037   3.540   6.167  15.986 -1.0409  0.6929 -2.6470
14182TIP3    H264038   3.606   6.302  15.969  0.0689  0.6193  0.5362
14183TIP3   OH264039   3.536   5.365  11.492 -0.2904  0.1721  0.5584
14183TIP3    H164040   3.563   5.277  11.518 -1.0122 -0.2201  0.0241
14183TIP3    H264041   3.449   5.376  11.532 -0.4867  0.3857  0.0808
14184TIP3   OH264042   0.608   4.029   1.884  0.9250 -0.2335  0.3056
14184TIP3    H164043   0.682   4.015   1.943  0.8519  0.6097  0.6138
14184TIP3    H264044   0.564   4.107   1.920  0.2703 -0.3432 -0.2511
14185TIP3   OH264045   0.199   6.683  11.701  0.5064 -0.0081  0.0424
14185TIP3    H164046   0.260   6.619  11.663 -0.5605 -1.9582  1.3950
14185TIP3    H264047   0.195   6.659  11.794 -1.7517  0.4981  0.1345
14186TIP3   OH264048   1.795   3.276  13.344 -0.6472  0.2950 -0.0176
14186TIP3    H164049   1.769   3.283  13.252 -3.7270  0.8325  0.7661
14186TIP3    H264050   1.840   3.192  13.350 -0.7011  0.0723 -1.9385
14187TIP3   OH264051   4.199   5.699  16.871  0.2788  0.2743 -0.1447
14187TIP3    H164052   4.269   5.688  16.807 -0.3911  0.9835 -1.0325
14187TIP3    H264053   4.173   5.791  16.863  0.7171  0.6008  1.7349
14188TIP3   OH264054   4.343   3.435   5.269 -0.1735  0.2284 -0.2608
14188TIP3    H164055   4.353   3.420   5.363 -0.2965  0.2935 -0.2362
14188TIP3    H264056   4.265   3.491   5.263 -0.0935  0.3244 -0.3925
14189TIP3   OH264057   0.393   1.676  12.461 -0.0410  0.0276  0.3578
14189TIP3    H164058   0.321   1.708  12.515 -0.8208 -0.2131 -0.5097
14189TIP3    H264059   0.447   1.625  12.521 -1.7161 -1.5469  0.6022
14190TIP3   OH264060   2.986   0.234  13.194  0.1087  0.2381 -0.2463
14190TIP3    H164061   2.912   0.245  13.253  1.2510  0.0202  1.3127
14190TIP3    H264062   2.978   0.144  13.160 -0.6585  0.4287 -0.5711
14191TIP3   OH264063   3.933   4.361  12.635  0.1955 -0.0527 -0.8751
14191TIP3    H164064   3.855   4.401  12.596 -0.5785 -0.7819 -0.1128
14191TIP3    H264065   3.963   4.426  12.698  0.9030  0.7272 -1.9792
14192TIP3   OH264066   5.366   0.613  13.728  0.8289 -0.3442 -0.5968
14192TIP3    H164067   5.443   0.624  13.783  0.8491 -0.2251 -0.6477
14192TIP3    H264068   5.338   0.703  13.708 -0.0432 -0.3631  0.4223
14193TIP3   OH264069   4.298   2.182  17.334  0.3445  0.1854  0.4539
14193TIP3    H164070   4.304   2.244  17.261 -1.2386 -0.0253  0.1099
14193TIP3    H264071   4.346   2.105  17.304  1.0288  0.6753  0.2686
14194TIP3   OH264072   2.885   2.496  13.020  0.5481  0.0320 -0.6937
14194TIP3    H164073   2.849   2.429  13.079  0.4882 -1.0004 -1.8733
14194TIP3    H264074   2.942   2.549  13.076 -0.1913 -0.3736  0.4817
14195TIP3   OH264075   1.167   3.567   2.113  0.2810  0.3708  0.5835
14195TIP3    H164076   1.089   3.538   2.161  0.0934  0.7996  0.5438
14195TIP3    H264077   1.228   3.494   2.120 -0.8300 -0.7605 -1.0163
14196TIP3   OH264078   1.346   2.191  15.210 -0.1910  0.4439  0.9382
14196TIP3    H164079   1.395   2.109  15.209 -1.2649 -0.2398  1.3431
14196TIP3    H264080   1.336   2.211  15.303  1.3955  1.8965  0.8377
14197TIP3   OH264081   3.316   5.569   1.286 -0.0163  0.2821 -0.0120
14197TIP3    H164082   3.294   5.638   1.349  0.8132  1.7959 -1.2994
14197TIP3    H264083   3.231   5.534   1.258 -0.6682  2.7546 -1.4028
14198TIP3   OH264084   5.153   2.147   2.887  0.2128 -0.0716  0.0009
14198TIP3    H164085   5.105   2.176   2.810  1.9010  0.8182 -0.7532
14198TIP3    H264086   5.245   2.157   2.864  0.7882  1.2712  2.5153
14199TIP3   OH264087   1.139   1.209   5.093 -0.1959  0.0469  0.3978
14199TIP3    H164088   1.207   1.148   5.067 -1.0771 -1.3439  1.2294
14199TIP3    H264089   1.093   1.230   5.012  1.8778  1.9720 -0.4020
14200TIP3   OH264090   5.699   6.191  17.398  0.2718 -0.0142  0.1523
14200TIP3    H164091   5.677   6.124  17.333 -2.2641  0.5890  0.3046
14200TIP3    H264092   5.639   6.175  17.471  1.1356  1.0779  1.1385
14201TIP3   OH264093   6.529   2.863  11.525  0.0476  0.5507 -0.0101
14201TIP3    H164094   6.441   2.895  11.543 -0.2777  0.7886 -1.8952
14201TIP3    H264095   6.556   2.910  11.447  0.7518 -1.5414 -1.0819
14202TIP3   OH264096   1.516   3.305  10.847 -0.4743 -0.0285 -0.9014
14202TIP3    H164097   1.451   3.278  10.912 -1.2737  0.6499 -1.3975
14202TIP3    H264098   1.558   3.223  10.820  0.6340 -0.2275  1.2316
14203TIP3   OH264099   0.006   0.156  11.133 -0.6292 -0.1765  0.2779
14203TIP3    H164100  -0.066   0.184  11.076  0.6760  2.1076 -0.4006
14203TIP3    H264101   0.070   0.118  11.073 -0.3270 -0.1488  0.5825
14204TIP3   OH264102   3.476   6.607   2.023 -0.0915  0.2566  0.0334
14204TIP3    H164103   3.428   6.599   1.940  1.2221  2.3107 -0.9909
14204TIP3    H264104   3.560   6.564   2.006 -0.3674 -0.6130  0.8079
14205TIP3   OH264105   0.985   2.321  12.828  0.0519  0.1245  0.1960
14205TIP3    H164106   0.984   2.318  12.733 -0.6387 -0.2836  0.2072
14205TIP3    H264107   0.959   2.232  12.855  0.2945  0.2189  0.7627
14206TIP3   OH264108   1.397   3.574  12.477 -0.0187  0.2902 -1.2206
14206TIP3    H164109   1.307   3.563  12.509 -0.3182  2.5710 -1.0994
14206TIP3    H264110   1.414   3.495  12.426 -1.7009 -0.6883 -0.3734
14207TIP3   OH264111   6.260   1.143  12.739 -0.0032  0.1037  0.4455
14207TIP3    H164112   6.214   1.062  12.762  0.1096 -0.1499 -0.2074
14207TIP3    H264113   6.216   1.173  12.659 -0.2460  0.8527  0.8572
14208TIP3   OH264114   2.710   2.369  12.586 -0.1217 -0.3762  0.4066
14208TIP3    H164115   2.622   2.402  12.607 -0.1591 -0.2772  0.1084
14208TIP3    H264116   2.694   2.286  12.541 -0.0563 -0.4335  0.4895
14209TIP3   OH264117   3.197   0.130  14.648  0.2865  0.4828  0.7492
14209TIP3    H164118   3.287   0.156  14.630 -0.3849  2.1610 -0.3964
14209TIP3    H264119   3.148   0.213  14.652 -1.4311 -0.4381  0.0261
14210TIP3   OH264120   6.281   5.709   4.246  0.0323  0.2245 -0.1821
14210TIP3    H164121   6.318   5.792   4.278 -0.8524  0.3849  0.4531
14210TIP3    H264122   6.201   5.735   4.201 -1.1151 -0.4087  1.4227
14211TIP3   OH264123   3.808   4.497   4.735 -0.5737 -0.1316 -0.2827
14211TIP3    H164124   3.788   4.420   4.788 -0.0889  0.1671  0.3443
14211TIP3    H264125   3.792   4.572   4.793 -2.3005  0.3290 -1.2656
14212TIP3   OH264126   3.275   2.256  16.853 -0.2300 -0.3595  0.0443
14212TIP3    H164127   3.329   2.208  16.916  0.1186  0.1034  0.1082
14212TIP3    H264128   3.317   2.240  16.768  0.9883  1.2902  0.2842
14213TIP3   OH264129   5.242   2.237  14.620 -0.4587 -0.3628 -0.6144
14213TIP3    H164130   5.297   2.208  14.547  0.2580 -0.5628 -0.0183
14213TIP3    H264131   5.302   2.288  14.676 -1.3006  0.8770 -0.8015
14214TIP3   OH264132   0.387   4.863  14.411 -0.5550  0.3449 -0.4880
14214TIP3    H164133   0.400   4.821  14.326  3.4991  1.2324 -0.5049
14214TIP3    H264134   0.320   4.929  14.395 -0.3584  0.0655 -2.8427
14215TIP3   OH264135   4.592   5.339   2.175  0.5713 -0.2308 -0.0607
14215TIP3    H164136   4.603   5.378   2.089  1.2589 -1.3291 -0.4839
14215TIP3    H264137   4.502   5.361   2.200  0.0972 -0.5605 -1.4048
14216TIP3   OH264138   6.738   1.873   4.288  0.6225 -0.0403  0.5227
14216TIP3    H164139   6.678   1.946   4.269  1.4565  0.7156  0.7122
14216TIP3    H264140   6.685   1.795   4.275 -0.8868  0.6082  2.2044
14217TIP3   OH264141   3.532   4.967  12.596  0.6819 -0.5022 -0.0788
14217TIP3    H164142   3.519   4.924  12.680  2.4906 -0.1098  0.4548
14217TIP3    H264143   3.493   5.054  12.606  0.2562 -0.7139  0.0992
14218TIP3   OH264144   1.472   0.660   0.233 -0.0140 -0.1339  0.3613
14218TIP3    H164145   1.432   0.633   0.315 -0.7792  0.7146  0.2767
14218TIP3    H264146   1.483   0.754   0.241 -0.6437  0.0537 -0.7367
14219TIP3   OH264147   4.072   2.021   2.112 -0.1411  0.0929  0.2154
14219TIP3    H164148   3.981   1.994   2.119 -0.0691  0.0158  0.9166
14219TIP3    H264149   4.105   1.974   2.035 -1.5764  2.6837 -2.1808
14220TIP3   OH264150   4.446   3.750   6.568 -0.6388  0.0235  0.2295
14220TIP3    H164151   4.494   3.697   6.504  0.2776 -0.8426  1.6031
14220TIP3    H264152   4.510   3.815   6.598 -1.1704  0.6536  0.0263
14221TIP3   OH264153   1.940   5.897  11.467  0.1885  0.4610 -0.0978
14221TIP3    H164154   1.848   5.911  11.487  0.1957 -0.6027  0.7526
14221TIP3    H264155   1.943   5.895  11.371 -0.9365 -1.0346 -0.1332
14222TIP3   OH264156   3.016   2.879   4.712  0.0644  0.1413 -0.3564
14222TIP3    H164157   2.922   2.863   4.721 -0.0682  1.3898  0.6426
14222TIP3    H264158   3.056   2.797   4.739 -0.7330 -1.1912 -2.8229
14223TIP3   OH264159   2.554   1.692   1.830 -0.0470  0.2209 -0.1496
14223TIP3    H164160   2.540   1.776   1.787  1.0273 -0.9942 -3.1276
14223TIP3    H264161   2.597   1.714   1.912  0.9031  2.5586 -1.1929
14224TIP3   OH264162   1.414   1.953   4.243 -0.0321 -0.2947 -0.2323
14224TIP3    H164163   1.482   2.020   4.241 -0.0013 -0.2775  0.9242
14224TIP3    H264164   1.367   1.968   4.325 -1.5184 -0.2326 -1.0404
14225TIP3   OH264165   5.990   2.665  12.579 -0.5190  0.2286  0.4116
14225TIP3    H164166   6.011   2.680  12.671  2.8383 -2.4283  0.2686
14225TIP3    H264167   6.056   2.713  12.530 -2.1143  1.4178 -0.7095
14226TIP3   OH264168   3.170   6.084   0.177 -0.5149 -0.0444  0.2500
14226TIP3    H164169   3.126   6.021   0.119 -0.9715 -0.0387  0.5916
14226TIP3    H264170   3.209   6.148   0.117  1.2376 -1.4385 -0.2022
14227TIP3   OH264171   5.457   2.566  15.589 -0.0539 -0.6924 -0.0459
14227TIP3    H164172   5.472   2.550  15.496 -0.7166 -0.7497 -0.1508
14227TIP3    H264173   5.387   2.505  15.613  0.6734 -1.2759  0.6942
14228TIP3   OH264174   6.370   2.419   1.213  0.0381  0.7957 -0.2625
14228TIP3    H164175   6.427   2.456   1.146  1.7379 -0.0855  0.6525
14228TIP3    H264176   6.399   2.329   1.223  1.0250  1.3259  2.8191
14229TIP3   OH264177   2.782   3.955  10.806  0.4779 -0.3365  0.1577
14229TIP3    H164178   2.743   3.942  10.892  0.1504 -1.0158 -0.0910
14229TIP3    H264179   2.870   3.919  10.813  0.4271 -0.4536  0.1875
14230TIP3   OH264180   4.351   5.755   2.172  0.0684  0.3206  0.1683
14230TIP3    H164181   4.323   5.679   2.223 -0.1386  0.9293  0.9949
14230TIP3    H264182   4.418   5.722   2.113 -0.0372 -0.5041  0.5083
14231TIP3   OH264183   0.084   4.035   2.837  0.4238 -1.2739  0.3438
14231TIP3    H164184   0.172   4.008   2.808  0.5500 -0.8307  0.3193
14231TIP3    H264185   0.095   4.125   2.868  0.0921 -1.4115  0.8756
14232TIP3   OH264186   5.131   4.143   5.425  0.1720  0.9953  0.8396
14232TIP3    H164187   5.108   4.063   5.377 -0.6083  1.6904  0.0355
14232TIP3    H264188   5.088   4.213   5.377  2.1482  2.1041  0.5979
14233TIP3   OH264189   4.601   5.112  15.068  0.2791 -0.3886 -0.2484
14233TIP3    H164190   4.579   5.037  15.012 -0.9440 -0.1087 -0.1595
14233TIP3    H264191   4.544   5.103  15.144  0.4518  0.3827 -0.0175
14234TIP3   OH264192   3.229   1.909   1.143 -0.6388  0.5046  0.2197
14234TIP3    H164193   3.163   1.867   1.198 -0.7604  2.2326  1.4748
14234TIP3    H264194   3.180   1.954   1.075 -0.6014  0.0304 -0.1299
14235TIP3   OH264195   3.221   4.201  10.518  0.4181 -0.3658 -0.5452
14235TIP3    H164196   3.142   4.235  10.477  0.2503 -1.2393 -0.9835
14235TIP3    H264197   3.201   4.109  10.535  0.3834  0.0144  1.7771
14236TIP3   OH264198   5.606   1.879   1.421 -0.4209 -0.2566 -0.1783
14236TIP3    H164199   5.612   1.795   1.375  0.3517  0.3830 -1.2833
14236TIP3    H264200   5.523   1.874   1.468 -0.0231 -1.9659  0.4654
14237TIP3   OH264201   0.050   0.676   2.643  0.8320 -0.5502  0.0341
14237TIP3    H164202   0.101   0.730   2.582  0.0636 -1.6282 -1.6320
14237TIP3    H264203   0.112   0.609   2.673  1.2707  0.1077  0.6299
14238TIP3   OH264204   5.027   4.801   1.842  0.9756 -0.5380 -0.1829
14238TIP3    H164205   5.119   4.823   1.826  1.0516  0.4178  1.3668
14238TIP3    H264206   4.978   4.855   1.780  1.4321 -0.6849 -0.6779
14239TIP3   OH264207   5.840   6.138   5.679  0.4721  0.1352 -0.2471
14239TIP3    H164208   5.880   6.144   5.766  3.2988 -0.8452 -1.3604
14239TIP3    H264209   5.754   6.101   5.695  0.9961 -0.2614  2.1197
14240TIP3   OH264210   0.085   5.080   2.019  0.6585  0.2008  0.1661
14240TIP3    H164211  -0.009   5.080   2.032  0.3841 -0.6333 -1.4972
14240TIP3    H264212   0.121   5.051   2.103 -0.7122 -1.5494  0.2173
14241TIP3   OH264213   5.843   5.327   5.740  0.2646 -0.1844 -0.5723
14241TIP3    H164214   5.780   5.399   5.743  0.0379 -0.4028  0.9251
14241TIP3    H264215   5.900   5.342   5.816  1.2089 -0.7108 -1.1581
14242TIP3   OH264216   6.233   1.068  13.378  0.6928  0.3656 -0.0492
14242TIP3    H164217   6.241   1.159  13.408  0.8210  0.4258 -0.2670
14242TIP3    H264218   6.217   1.075  13.284  1.8981  0.1418 -0.2873
14243TIP3   OH264219   3.847   1.345  16.961  0.3055  0.0593  1.0511
14243TIP3    H164220   3.862   1.375  16.872  3.6829  1.4861  1.9685
14243TIP3    H264221   3.895   1.263  16.968 -0.9719 -0.7049  1.2773
14244TIP3   OH264222   6.043   5.111  15.759  0.0211  0.0332  0.1384
14244TIP3    H164223   5.982   5.039  15.773 -0.1910  0.1830 -0.0145
14244TIP3    H264224   6.128   5.069  15.747 -0.2714 -0.2509 -1.0229
14245TIP3   OH264225   1.145   0.366   3.849  0.6621  0.2451  1.1701
14245TIP3    H164226   1.142   0.335   3.758 -1.5551  2.7249  0.2540
14245TIP3    H264227   1.053   0.383   3.871  1.3746  2.3260  2.8831
14246TIP3   OH264228   4.443   0.429  16.350 -0.0166 -0.3535  0.4643
14246TIP3    H164229   4.413   0.338  16.358 -0.6277 -0.2207 -0.2332
14246TIP3    H264230   4.539   0.422  16.348 -0.0361 -0.9256  1.0260
14247TIP3   OH264231   1.322   6.430  15.987 -0.2214  0.2794  0.4024
14247TIP3    H164232   1.277   6.362  16.036  0.5224 -0.3393  0.2506
14247TIP3    H264233   1.365   6.484  16.054 -0.0521  0.0466  0.4816
14248TIP3   OH264234   0.324   5.646   4.574  0.1683  0.3951  0.4372
14248TIP3    H164235   0.352   5.591   4.646  1.6891 -0.5546 -0.8147
14248TIP3    H264236   0.263   5.592   4.524  1.1741  0.0442 -0.4420
14249TIP3   OH264237   0.210   4.280   2.832  0.1557 -0.0272  0.2642
14249TIP3    H164238   0.284   4.243   2.784  0.0543  0.5670 -0.3586
14249TIP3    H264239   0.189   4.361   2.785 -0.6154  0.0229  0.6878
14250TIP3   OH264240   2.181   1.331  13.534  0.1087  0.1014 -0.5311
14250TIP3    H164241   2.262   1.286  13.559 -0.2784 -1.1751 -1.5194
14250TIP3    H264242   2.114   1.295  13.592  0.1140  0.6848 -0.1543
14251TIP3   OH264243   5.632   3.674   3.800 -0.0568  0.1153  0.3077
14251TIP3    H164244   5.715   3.700   3.839  0.9700 -1.6992 -0.5281
14251TIP3    H264245   5.642   3.693   3.707  0.0632 -1.5198 -0.0497
14252TIP3   OH264246   3.638   6.699  16.308  0.0768  0.2801  0.0819
14252TIP3    H164247   3.552   6.730  16.281  0.4484  0.7899 -0.5465
14252TIP3    H264248   3.666   6.641  16.237  0.7391  1.0268 -0.2804
14253TIP3   OH264249   1.224   2.292   6.076 -0.6125 -0.3230 -0.0532
14253TIP3    H164250   1.141   2.268   6.033 -0.9299  0.1722  0.2660
14253TIP3    H264251   1.200   2.363   6.135 -0.2381 -1.1778  1.1691
14254TIP3   OH264252   1.308   0.024   2.116  0.0251 -0.5224 -0.6217
14254TIP3    H164253   1.326   0.053   2.026 -0.3037  0.2371 -0.4579
14254TIP3    H264254   1.256  -0.055   2.106 -0.8785  0.1097 -1.1254
14255TIP3   OH264255   1.940   3.560   0.773 -0.5371 -0.1188  0.4137
14255TIP3    H164256   1.909   3.480   0.730 -0.7216  0.4926 -0.6290
14255TIP3    H264257   2.021   3.581   0.728 -1.2519  1.0904 -0.3578
14256TIP3   OH264258   4.026   2.543   0.121  0.3495 -0.0718 -0.8177
14256TIP3    H164259   4.027   2.529   0.216 -0.4610 -2.2821 -1.0699
14256TIP3    H264260   3.941   2.582   0.103  1.2251  2.1276 -0.4897
14257TIP3   OH264261   0.375   6.566  11.061 -0.4344 -0.0577 -0.2091
14257TIP3    H164262   0.439   6.506  11.100  0.1316  0.1947 -0.7504
14257TIP3    H264263   0.395   6.566  10.968 -0.4062  1.0092 -0.2088
14258TIP3   OH264264   4.323   6.391   1.443  0.2502 -0.4652 -0.4999
14258TIP3    H164265   4.317   6.485   1.427 -1.3112 -0.5891 -0.7243
14258TIP3    H264266   4.385   6.384   1.515  0.6006  0.7105 -0.6544
14259TIP3   OH264267   0.906   2.677   2.561 -0.2779 -0.3613  0.4964
14259TIP3    H164268   0.978   2.718   2.609 -0.2182  2.2758 -1.6322
14259TIP3    H264269   0.835   2.742   2.564 -1.1810 -1.2483 -0.7231
14260TIP3   OH264270   6.493   6.580  12.449  0.1186 -0.1396 -0.1984
14260TIP3    H164271   6.526   6.668  12.429 -0.0512  0.1079  0.5566
14260TIP3    H264272   6.520   6.565  12.540  1.0289 -1.2890 -0.6358
14261TIP3   OH264273   0.499   4.471  17.268  0.3996 -0.0198  0.2916
14261TIP3    H164274   0.497   4.418  17.189  0.6827  1.5613 -0.8325
14261TIP3    H264275   0.514   4.560  17.236  1.7905  0.4874  2.2164
14262TIP3   OH264276   5.665   1.053   1.321 -0.1819  0.1019  0.3576
14262TIP3    H164277   5.576   1.086   1.333 -0.3185  0.0369 -0.4078
14262TIP3    H264278   5.700   1.103   1.247 -0.7860 -2.1542 -1.5797
14263TIP3   OH264279   2.660   6.276  13.814  0.4070 -0.3082  0.4734
14263TIP3    H164280   2.657   6.372  13.818 -0.4356 -0.1987 -1.4587
14263TIP3    H264281   2.664   6.257  13.720  1.4427 -2.1690  0.8662
14264TIP3   OH264282   6.309   2.642   3.537  0.6194  0.4305  0.1961
14264TIP3    H164283   6.275   2.697   3.466  0.9822  0.0302 -0.2950
14264TIP3    H264284   6.233   2.622   3.590  0.2661  0.3914 -0.3144
14265TIP3   OH264285   3.357   3.681  16.577  0.6824  0.0854 -0.0576
14265TIP3    H164286   3.424   3.741  16.609  1.2603  0.4068 -1.7756
14265TIP3    H264287   3.392   3.594  16.594  1.3182  0.2535 -0.4883
14266TIP3   OH264288   4.308   3.317  11.571 -0.3801 -0.1452 -0.3104
14266TIP3    H164289   4.263   3.335  11.489  0.4912 -1.5847 -1.1475
14266TIP3    H264290   4.389   3.273  11.545  0.5688  0.5848  1.2571
14267TIP3   OH264291   5.797   6.680   0.595 -0.3665  0.1037 -0.0898
14267TIP3    H164292   5.793   6.678   0.691  0.3956 -0.2287 -0.0622
14267TIP3    H264293   5.868   6.620   0.573 -1.6347 -1.1795 -0.9389
14268TIP3   OH264294   5.897   4.314   3.713  0.6980 -0.7784 -0.2373
14268TIP3    H164295   5.939   4.269   3.639  1.1933 -0.4557 -0.1488
14268TIP3    H264296   5.807   4.329   3.683  0.7236 -1.1922 -0.5400
14269TIP3   OH264297   4.754   6.052  11.546  0.1509 -1.0748 -0.7148
14269TIP3    H164298   4.795   6.105  11.615 -0.0117 -1.2069 -0.5197
14269TIP3    H264299   4.814   5.978  11.534 -0.4575 -1.7291  0.1750
14270TIP3   OH264300   0.366   2.646  11.689 -0.0123 -0.9043  0.6976
14270TIP3    H164301   0.324   2.731  11.688  0.9703 -0.3948  0.8916
14270TIP3    H264302   0.316   2.594  11.752 -0.8420 -0.5976  0.2931
14271TIP3   OH264303   4.334   5.202   0.081  0.0889  0.4892 -0.1415
14271TIP3    H164304   4.304   5.180   0.169  1.5481  1.3339  0.5973
14271TIP3    H264305   4.370   5.290   0.089  0.9041  0.2976 -1.4292
14272TIP3   OH264306   5.463   3.122   1.507  0.4657  0.6507 -0.1975
14272TIP3    H164307   5.462   3.175   1.586  1.2601  1.9725 -1.0444
14272TIP3    H264308   5.552   3.086   1.502 -0.0225 -0.7080  0.2995
14273TIP3   OH264309   6.495   0.856  12.699  0.4921  0.1436 -0.0004
14273TIP3    H164310   6.482   0.850  12.604  1.4841 -2.4901 -0.0731
14273TIP3    H264311   6.590   0.845  12.711  0.3595  0.2237  1.3084
14274TIP3   OH264312   5.631   6.507  11.233  0.1070  0.0050  0.1779
14274TIP3    H164313   5.710   6.544  11.194 -0.8831  1.5590 -0.4321
14274TIP3    H264314   5.579   6.583  11.259 -1.7480 -0.9502 -0.5772
14275TIP3   OH264315   1.298   6.184   1.793 -0.6065 -0.7154  0.0410
14275TIP3    H164316   1.304   6.114   1.857  0.6902 -3.1273 -2.5077
14275TIP3    H264317   1.210   6.220   1.804 -1.5994 -3.2345  1.0185
14276TIP3   OH264318   0.618   4.417  10.530 -0.0798  0.6895 -0.0519
14276TIP3    H164319   0.691   4.363  10.500 -0.8057  0.1792 -0.9654
14276TIP3    H264320   0.613   4.400  10.625  0.5620  0.2220 -0.0981
14277TIP3   OH264321   0.634   5.230   1.921  0.2585 -0.1379  0.1618
14277TIP3    H164322   0.661   5.322   1.916  2.2577 -0.7503 -2.5079
14277TIP3    H264323   0.669   5.200   2.005 -0.4382  1.5008  1.0935
14278TIP3   OH264324   1.341   0.800   4.239  0.2588  0.5299 -0.3675
14278TIP3    H164325   1.336   0.861   4.165  3.4286  1.9313  0.4436
14278TIP3    H264326   1.433   0.778   4.246 -0.1543 -0.7099  2.2852
14279TIP3   OH264327   2.241   6.452  16.026  0.1625 -0.1183 -0.1643
14279TIP3    H164328   2.297   6.472  16.101 -0.9708  1.1642  0.3791
14279TIP3    H264329   2.197   6.535  16.006 -4.2226 -1.6954  1.7005
14280TIP3   OH264330   1.681   1.489  13.907  0.8321  0.4076 -1.1382
14280TIP3    H164331   1.649   1.407  13.869  0.1220  0.1936 -0.1356
14280TIP3    H264332   1.641   1.558  13.853 -1.5623  0.1488  0.1899
14281TIP3   OH264333   2.788   1.550   3.617  0.4985  0.4483 -0.2881
14281TIP3    H164334   2.772   1.581   3.528  1.1241  1.0594 -0.1931
14281TIP3    H264335   2.702   1.546   3.657  0.4406  2.6752 -0.1056
14282TIP3   OH264336   2.543   3.448  11.881 -0.1836 -0.5897 -0.6132
14282TIP3    H164337   2.604   3.391  11.928 -0.3274  0.8355  1.4417
14282TIP3    H264338   2.470   3.461  11.941  0.3002  2.5349 -0.5122
14283TIP3   OH264339   6.497   5.857  17.164 -0.2483  0.6240 -0.3006
14283TIP3    H164340   6.416   5.815  17.192  0.8370 -1.3645  0.0441
14283TIP3    H264341   6.548   5.866  17.245  1.5612 -2.1233 -0.9935
14284TIP3   OH264342   1.973   4.124   2.142 -0.3836  0.5001 -0.3381
14284TIP3    H164343   2.027   4.197   2.174 -0.2212  0.2563 -0.0560
14284TIP3    H264344   2.022   4.046   2.165 -0.8106  0.2780 -0.1658
14285TIP3   OH264345   0.390   4.105  17.027  0.3251  0.0657 -0.0885
14285TIP3    H164346   0.415   4.197  17.030 -0.4987  0.2998 -0.2205
14285TIP3    H264347   0.424   4.067  17.108 -0.2112  0.7116  0.4406
14286TIP3   OH264348   2.583   1.385  15.373  0.7670 -0.3273  0.7360
14286TIP3    H164349   2.559   1.296  15.400 -2.8268  0.7700  1.6831
14286TIP3    H264350   2.647   1.414  15.438  0.4130 -1.5209  1.6559
14287TIP3   OH264351   4.706   6.501   5.614  0.2062 -0.5038 -0.1051
14287TIP3    H164352   4.738   6.579   5.661  0.3333 -1.4567  1.4726
14287TIP3    H264353   4.753   6.428   5.654 -0.4225 -1.4721 -1.0748
14288TIP3   OH264354   2.924   3.549   1.207  0.1673 -0.0102 -0.2847
14288TIP3    H164355   2.957   3.461   1.192  1.6567  0.6844 -1.3647
14288TIP3    H264356   2.881   3.574   1.125 -0.0516  0.3375 -0.0696
14289TIP3   OH264357   1.006   5.901  14.091  0.0041 -0.5139  0.0928
14289TIP3    H164358   0.956   5.974  14.127  2.3564  0.8654  0.8088
14289TIP3    H264359   0.992   5.906  13.997 -0.6957  0.2213  0.2286
14290TIP3   OH264360   3.113   6.659   4.508  0.2036 -0.2620 -0.2988
14290TIP3    H164361   3.056   6.583   4.510 -0.2628  0.0795  1.5732
14290TIP3    H264362   3.119   6.687   4.599 -0.5037  2.5786 -1.0169
14291TIP3   OH264363   6.526   6.365  13.075  0.1009 -0.6719 -0.4265
14291TIP3    H164364   6.540   6.460  13.066 -1.4561 -0.0557  2.4672
14291TIP3    H264365   6.442   6.349  13.031 -0.1872 -0.4566  0.0288
14292TIP3   OH264366   0.994   5.962   2.245  0.1243  0.1919  0.0052
14292TIP3    H164367   0.971   5.885   2.193 -0.4784  0.5050 -0.2033
14292TIP3    H264368   0.957   5.944   2.332  0.6149 -0.0716  0.1595
14293TIP3   OH264369   0.496   1.185   2.969 -0.3528  0.0274  0.2907
14293TIP3    H164370   0.572   1.157   3.020  0.4147 -0.9320 -1.2980
14293TIP3    H264371   0.444   1.106   2.957 -0.0859  0.0415 -1.0933
14294TIP3   OH264372   6.163   5.188   5.533 -0.4386  0.0242  0.2195
14294TIP3    H164373   6.182   5.100   5.567 -0.4912  0.0266  0.2549
14294TIP3    H264374   6.243   5.238   5.551  0.7433 -0.7696 -2.4095
14295TIP3   OH264375   5.625   3.584  14.595  0.9878 -0.9420  0.5779
14295TIP3    H164376   5.667   3.523  14.656  2.8412  0.3369  0.6569
14295TIP3    H264377   5.684   3.588  14.520  0.5602  0.2239  0.2830
14296TIP3   OH264378   1.657   2.774   6.261 -0.3198  0.3067 -0.5472
14296TIP3    H164379   1.599   2.699   6.277  1.3288 -0.5955  1.5360
14296TIP3    H264380   1.735   2.735   6.222  0.7550  0.8218  1.0213
14297TIP3   OH264381   1.200   0.873   3.888  0.0509 -0.0442  0.1635
14297TIP3    H164382   1.221   0.781   3.903 -1.4959 -0.2919  1.0458
14297TIP3    H264383   1.110   0.883   3.921 -0.0832  1.6122 -0.5917
14298TIP3   OH264384   0.157   2.889  15.139  0.5648  0.0206  0.4227
14298TIP3    H164385   0.159   2.799  15.106  0.9481 -0.2827  1.2413
14298TIP3    H264386   0.240   2.927  15.110 -0.5193  0.8569 -1.8528
14299TIP3   OH264387   1.294   4.760   3.609  0.6515 -0.0256  0.6165
14299TIP3    H164388   1.368   4.770   3.670  0.9346  1.1493  0.1052
14299TIP3    H264389   1.270   4.850   3.586 -2.9957 -0.0975  3.1858
14300TIP3   OH264390   1.696   4.780  16.819 -0.1362  0.9839  0.3155
14300TIP3    H164391   1.776   4.733  16.842 -0.8455  0.7428  2.4841
14300TIP3    H264392   1.664   4.734  16.741  1.1185  0.2336  0.2075
14301TIP3   OH264393   0.199   1.270   4.928 -0.0689 -0.3141  0.5566
14301TIP3    H164394   0.133   1.329   4.890 -1.0877 -0.4977  1.9482
14301TIP3    H264395   0.259   1.328   4.974  0.4178 -0.1912 -0.2153
14302TIP3   OH264396   4.414   0.621   1.691  0.8802 -0.2150 -0.7132
14302TIP3    H164397   4.385   0.617   1.782  0.6540 -0.8883 -0.8053
14302TIP3    H264398   4.361   0.691   1.652 -0.0575 -0.8886 -0.6741
14303TIP3   OH264399   3.236   5.456   4.996 -0.0875 -0.1653  0.4887
14303TIP3    H164400   3.276   5.376   5.032 -0.8301 -0.8367 -0.1319
14303TIP3    H264401   3.155   5.466   5.047  1.1392  1.5680  2.2117
14304TIP3   OH264402   1.342   6.316   4.971 -0.3462 -0.0686  0.7428
14304TIP3    H164403   1.345   6.363   5.054  0.3190  2.1234 -0.4409
14304TIP3    H264404   1.331   6.384   4.905  1.9233 -1.4241 -1.2073
14305TIP3   OH264405   5.301   2.611  11.695 -0.0847 -0.1264 -0.3792
14305TIP3    H164406   5.232   2.577  11.639 -1.3128 -0.6781  1.3950
14305TIP3    H264407   5.288   2.568  11.780  1.7931  0.5469  0.3136
14306TIP3   OH264408   6.293   4.531  15.672  0.1572  0.0573  0.4481
14306TIP3    H164409   6.288   4.435  15.678 -0.3518  0.1359  1.3367
14306TIP3    H264410   6.370   4.554  15.724  0.8773  0.0656 -0.5920
14307TIP3   OH264411   5.054   3.564  11.677 -0.3715  0.0172  0.1138
14307TIP3    H164412   4.992   3.581  11.606 -0.7816 -1.0707  0.1880
14307TIP3    H264413   4.999   3.544  11.752 -0.0435 -3.1041 -0.3189
14308TIP3   OH264414   0.060   2.944   2.437  0.1026 -0.3000 -0.1012
14308TIP3    H164415   0.089   2.876   2.497  1.2666  1.0273  0.8875
14308TIP3    H264416   0.089   2.914   2.351 -1.5774 -2.2171 -0.0990
14309TIP3   OH264417   2.092   3.093   3.641  0.3454  0.4373  0.0330
14309TIP3    H164418   2.024   3.035   3.606 -0.7775  0.7551  1.5846
14309TIP3    H264419   2.076   3.177   3.598  2.6014 -0.5157 -2.9952
14310TIP3   OH264420   5.338   3.901  16.051 -0.6817  0.4280  0.7712
14310TIP3    H164421   5.322   3.833  15.985 -1.8544  0.7231  0.7374
14310TIP3    H264422   5.354   3.981  16.000  2.1945 -0.0395  0.7484
14311TIP3   OH264423   2.831   4.458  17.317  0.4811  0.0096 -0.8473
14311TIP3    H164424   2.911   4.485  17.271  0.0926  0.8670 -1.0305
14311TIP3    H264425   2.839   4.362  17.324  2.5689  0.2468  1.0568
14312TIP3   OH264426   1.934   1.633  14.707 -0.0790  0.0376 -0.3415
14312TIP3    H164427   1.960   1.711  14.756  2.4963 -0.5622 -0.5839
14312TIP3    H264428   1.983   1.639  14.625  0.0415 -1.7308 -0.4397
14313TIP3   OH264429   1.714   1.013   6.031 -0.1877  0.3913 -0.4504
14313TIP3    H164430   1.710   1.087   6.092 -1.1141  0.5119 -0.6438
14313TIP3    H264431   1.683   0.938   6.082 -1.6423  0.6291 -0.9657
14314TIP3   OH264432   6.557   0.312  16.466  0.4208  0.0677  0.5130
14314TIP3    H164433   6.581   0.227  16.429  0.9170 -0.7057  2.4695
14314TIP3    H264434   6.633   0.336  16.520  0.1841  1.6527  0.1758
14315TIP3   OH264435   2.535   1.343   0.711 -0.2449 -0.0535  0.7326
14315TIP3    H164436   2.536   1.294   0.629 -0.9195  0.1258  0.6084
14315TIP3    H264437   2.623   1.380   0.718 -0.5628  1.0485 -0.6111
14316TIP3   OH264438   5.463   2.338   3.952 -0.5707 -0.3994 -0.7598
14316TIP3    H164439   5.495   2.428   3.941 -0.2205 -0.6063 -1.4851
14316TIP3    H264440   5.368   2.346   3.950 -0.5996  0.1649  0.9313
14317TIP3   OH264441   2.993   1.662   5.323  0.1058 -0.4103 -0.0138
14317TIP3    H164442   2.991   1.748   5.367  1.1272 -1.4642  2.2606
14317TIP3    H264443   3.085   1.650   5.300  0.2069 -1.3873  0.8287
14318TIP3   OH264444   6.755   3.906   5.916  0.4547  0.0319 -0.1734
14318TIP3    H164445   6.839   3.870   5.887 -0.1658 -1.7388  0.0867
14318TIP3    H264446   6.760   3.902   6.012 -0.8734 -2.6277 -0.1228
14319TIP3   OH264447   6.062   1.399  16.153 -0.1155 -0.0042 -0.1620
14319TIP3    H164448   6.066   1.304  16.163 -0.2494  0.1526  1.7190
14319TIP3    H264449   6.122   1.433  16.220 -0.1352  1.2411 -0.7428
14320TIP3   OH264450   2.471   3.028   1.734 -0.1249 -0.0381  0.0250
14320TIP3    H164451   2.545   3.008   1.675  0.2704 -2.3238  1.1658
14320TIP3    H264452   2.399   2.975   1.699 -1.6740  2.9753 -1.7147
14321TIP3   OH264453   1.206   4.031   4.361 -0.2311 -0.2563  0.0680
14321TIP3    H164454   1.167   4.101   4.310 -1.7831  1.6151  3.4864
14321TIP3    H264455   1.139   3.962   4.363 -0.3417 -0.1525 -0.0694
14322TIP3   OH264456   0.609   6.659   4.482 -0.0040  0.2966 -0.1922
14322TIP3    H164457   0.624   6.585   4.423 -1.4174 -0.0617 -0.1486
14322TIP3    H264458   0.594   6.619   4.568 -0.5491  0.6424 -0.1203
14323TIP3   OH264459   6.513   0.500  14.165  0.0134 -0.3572 -0.1336
14323TIP3    H164460   6.523   0.459  14.079  0.6841 -0.1905 -0.1389
14323TIP3    H264461   6.497   0.593  14.146  2.9598  0.2507 -0.0633
14324TIP3   OH264462   4.850   2.271  11.707 -0.1251  0.2883  0.4517
14324TIP3    H164463   4.844   2.316  11.623  1.9107 -0.5853 -0.2162
14324TIP3    H264464   4.794   2.194  11.698  0.6707 -0.2017 -0.4004
14325TIP3   OH264465   0.064   3.154   4.990 -0.1006 -0.2186 -0.6765
14325TIP3    H164466   0.060   3.201   5.073  3.0622 -0.4008 -0.3262
14325TIP3    H264467   0.078   3.062   5.015 -0.1637 -0.4374 -1.4127
14326TIP3   OH264468   3.076   1.622   0.083  0.6116  0.4823 -0.2299
14326TIP3    H164469   3.040   1.595  -0.001 -1.5010  0.8152  0.4962
14326TIP3    H264470   3.170   1.632   0.068  0.5675 -1.3837 -2.0118
14327TIP3   OH264471   0.085   5.711  16.465 -0.9357 -0.1172 -0.6695
14327TIP3    H164472   0.148   5.694  16.535 -0.3952 -0.9589 -1.3389
14327TIP3    H264473   0.024   5.637  16.469 -0.8032 -0.2591 -1.1836
14328TIP3   OH264474   3.437   0.332  15.476 -0.2080 -0.0927 -0.0314
14328TIP3    H164475   3.398   0.245  15.476  0.0480 -0.2088  0.0625
14328TIP3    H264476   3.477   0.341  15.562 -0.7469  0.3537  0.1764
14329TIP3   OH264477   2.059   6.343   1.103  0.2271  0.1359 -0.0967
14329TIP3    H164478   2.001   6.380   1.170 -0.6489 -0.6584 -0.3973
14329TIP3    H264479   2.017   6.261   1.078  1.1242 -0.1096 -0.8343
14330TIP3   OH264480   5.376   2.879   0.850  0.3630 -0.6618  0.2919
14330TIP3    H164481   5.387   2.930   0.931  0.1012  2.0521 -1.2474
14330TIP3    H264482   5.464   2.873   0.813  0.1277  0.5355 -0.5270
14331TIP3   OH264483   6.600   1.401  14.178  0.4711  0.2114  0.5078
14331TIP3    H164484   6.604   1.341  14.253 -0.7749  0.5711  0.8792
14331TIP3    H264485   6.687   1.442  14.176  1.5132 -1.8497  0.0046
14332TIP3   OH264486   1.166   2.301   4.989 -0.4124 -0.1975 -0.2406
14332TIP3    H164487   1.187   2.275   4.899  2.5523 -1.0118  0.5802
14332TIP3    H264488   1.118   2.226   5.025  0.9895 -1.1731 -0.3174
14333TIP3   OH264489   1.755   6.288   0.593  0.3068  0.5309 -0.0252
14333TIP3    H164490   1.736   6.380   0.575 -0.8162  0.4715  0.7385
14333TIP3    H264491   1.672   6.252   0.623  0.1552 -1.2749 -2.3288
14334TIP3   OH264492   5.441   4.867  12.659 -0.2562  0.1263  0.4313
14334TIP3    H164493   5.535   4.851  12.662 -0.0216  0.5644 -2.1964
14334TIP3    H264494   5.418   4.896  12.748  1.9430 -0.5842  1.2823
14335TIP3   OH264495   3.424   6.166   3.302  0.3070 -0.1205 -0.1029
14335TIP3    H164496   3.342   6.159   3.253 -0.3426  0.5006  0.8703
14335TIP3    H264497   3.466   6.080   3.290  0.8271  0.4033 -2.8170
14336TIP3   OH264498   2.006   5.720   3.214  0.7349 -0.1772 -0.3151
14336TIP3    H164499   2.067   5.794   3.204 -2.6670  2.8388 -0.9840
14336TIP3    H264500   2.012   5.697   3.306  1.5110  1.3396  0.0628
14337TIP3   OH264501   0.284   6.120  12.437  0.1658 -0.2721 -0.8447
14337TIP3    H164502   0.342   6.045  12.442  3.0179  1.8229 -0.0548
14337TIP3    H264503   0.281   6.142  12.344  0.3645 -0.6023 -0.9301
14338TIP3   OH264504   2.869   1.442  14.401 -0.3517  0.0175 -0.6454
14338TIP3    H164505   2.822   1.448  14.318  0.3863  0.2400 -1.0590
14338TIP3    H264506   2.863   1.530  14.439 -0.0631  0.1110 -0.8151
14339TIP3   OH264507   0.225   4.021   6.074 -0.4830  0.2406  0.3979
14339TIP3    H164508   0.312   4.060   6.072 -0.0100 -0.8101 -0.4252
14339TIP3    H264509   0.180   4.066   6.146  1.0084  0.2122  1.3781
14340TIP3   OH264510   0.326   5.794  13.961 -0.2249  0.1020 -0.3951
14340TIP3    H164511   0.380   5.723  13.925 -0.0136 -0.1418  0.3902
14340TIP3    H264512   0.317   5.773  14.054 -1.2148  0.4419 -0.4068
14341TIP3   OH264513   6.470   0.320  13.934  0.3388 -0.0691  0.0808
14341TIP3    H164514   6.412   0.308  13.859  0.8930 -3.9376  0.0733
14341TIP3    H264515   6.557   0.297  13.901  1.3529  2.1938  0.9773
14342TIP3   OH264516   0.621   3.240  12.992  0.0488  0.0926  0.1304
14342TIP3    H164517   0.607   3.325  13.035 -0.0140 -1.2457  3.0139
14342TIP3    H264518   0.712   3.244  12.961  0.0804  1.1839  0.3199
14343TIP3   OH264519   1.818   4.981  16.657 -0.7831  0.0858  0.1214
14343TIP3    H164520   1.761   4.942  16.723 -0.1215 -1.4527 -0.1785
14343TIP3    H264521   1.760   4.997  16.582 -1.4366  1.4118  0.8610
14344TIP3   OH264522   0.180   5.485   4.921 -0.4004 -0.2151  0.1576
14344TIP3    H164523   0.156   5.566   4.967 -0.0392  1.3208 -2.1701
14344TIP3    H264524   0.264   5.505   4.880  0.7781 -2.5616  1.2093
14345TIP3   OH264525   2.196   6.227   0.286 -0.4470  0.3632  0.0252
14345TIP3    H164526   2.123   6.273   0.327  0.6509  0.3851  2.1173
14345TIP3    H264527   2.156   6.156   0.237 -1.9532  1.3837 -0.2825
14346TIP3   OH264528   5.297   5.887   5.445  0.3684 -0.0194 -0.3196
14346TIP3    H164529   5.262   5.942   5.516 -0.3486 -0.9523  0.0755
14346TIP3    H264530   5.224   5.877   5.384  0.2960 -1.0086 -0.0872
14347TIP3   OH264531   5.546   3.833  14.722 -0.1996  0.5793 -0.2108
14347TIP3    H164532   5.563   3.756  14.668 -0.1142  1.3598 -1.3335
14347TIP3    H264533   5.451   3.832  14.736 -0.1505  0.0702  0.0999
14348TIP3   OH264534   6.575   3.451  15.195  0.3742  0.8755  0.5145
14348TIP3    H164535   6.588   3.489  15.108  2.2181 -1.0804 -0.1658
14348TIP3    H264536   6.503   3.501  15.233  1.1272  3.4545 -1.1517
14349TIP3   OH264537   6.614   0.037  16.451 -0.0787  0.1976 -0.1463
14349TIP3    H164538   6.700  -0.005  16.460  0.2143  0.8237  0.0242
14349TIP3    H264539   6.552  -0.026  16.488  0.4167  0.1546  0.6360
14350TIP3   OH264540   6.157   3.163  11.327  0.1440  0.0961  0.5204
14350TIP3    H164541   6.126   3.222  11.259 -1.9634 -1.5577 -0.0730
14350TIP3    H264542   6.220   3.214  11.377 -0.2239  2.2066 -1.0653
14351TIP3   OH264543   2.084   2.503  12.111  0.2220 -0.0962 -0.4861
14351TIP3    H164544   2.110   2.559  12.038 -0.3496 -1.4537 -1.7983
14351TIP3    H264545   2.163   2.454  12.133  0.2645 -0.0409 -0.5160
14352TIP3   OH264546   6.724   3.009  17.180  0.5177  0.9300  0.6206
14352TIP3    H164547   6.645   2.959  17.203 -0.5683  2.5921  0.6373
14352TIP3    H264548   6.715   3.027  17.086  1.8482 -0.4505  0.1716
14353TIP3   OH264549   5.132   3.426   2.335  0.2984 -0.5862 -0.6570
14353TIP3    H164550   5.102   3.516   2.322  1.4917 -0.2186 -1.0119
14353TIP3    H264551   5.058   3.371   2.309 -1.2402  0.2887  1.5973
14354TIP3   OH264552   2.391   2.745   1.401  0.1333 -0.9523 -0.1258
14354TIP3    H164553   2.368   2.820   1.346  1.7398 -0.7411 -0.5624
14354TIP3    H264554   2.341   2.758   1.482 -0.0556  0.2836 -0.4265
14355TIP3   OH264555   2.577   6.535   4.662 -0.1062  0.3832  0.1100
14355TIP3    H164556   2.568   6.631   4.661 -2.4828  0.2173  0.1547
14355TIP3    H264557   2.488   6.503   4.652  0.6219 -1.8525  0.3740
14356TIP3   OH264558   4.748   2.050   4.163 -0.7197  0.0969 -0.6158
14356TIP3    H164559   4.669   2.067   4.214 -0.4346 -1.2489  0.3384
14356TIP3    H264560   4.716   2.006   4.084 -1.0432  0.9833 -0.9949
14357TIP3   OH264561   6.120   2.755   1.184 -0.1939 -0.2227  0.4240
14357TIP3    H164562   6.026   2.772   1.189 -0.0835  0.7653 -0.3917
14357TIP3    H264563   6.155   2.830   1.135  0.9836 -0.6954  0.5058
14358TIP3   OH264564   0.149   0.891   0.893  0.1520  0.0164  0.2263
14358TIP3    H164565   0.219   0.842   0.936 -0.7893 -0.6956  0.9962
14358TIP3    H264566   0.076   0.829   0.888 -0.4351  0.7403 -0.5525
14359TIP3   OH264567   2.947   6.668   2.368  0.5704 -0.4497  0.8871
14359TIP3    H164568   2.947   6.763   2.376  0.2939 -0.5473  2.6584
14359TIP3    H264569   2.950   6.637   2.459  1.1905 -2.1351  0.3297
14360TIP3   OH264570   4.079   3.125  15.926  0.0824  0.3430  0.1260
14360TIP3    H164571   4.069   3.031  15.914 -3.1431  0.4173  1.3018
14360TIP3    H264572   4.061   3.140  16.019 -1.4800  2.2953 -0.4233
14361TIP3   OH264573   4.513   3.815   3.586 -0.0304 -0.2330 -0.5033
14361TIP3    H164574   4.500   3.817   3.681 -0.7645 -0.7834 -0.5866
14361TIP3    H264575   4.484   3.728   3.559  3.2331 -1.3675 -0.8281
14362TIP3   OH264576   6.327   0.745   5.611  0.3886  0.1631  0.1557
14362TIP3    H164577   6.236   0.772   5.606  0.5806  0.8405  0.1796
14362TIP3    H264578   6.363   0.796   5.684  0.3757 -1.3482  1.2710
14363TIP3   OH264579   0.537   3.370  16.090  0.3317  0.0464  0.1038
14363TIP3    H164580   0.625   3.364  16.126  0.9442 -2.0365 -1.5184
14363TIP3    H264581   0.484   3.314  16.146  0.6740 -0.9120 -0.5004
14364TIP3   OH264582   3.900   5.756   3.662 -0.9353  0.0252 -0.3861
14364TIP3    H164583   3.898   5.833   3.719  0.3942  1.0373 -1.6350
14364TIP3    H264584   3.989   5.753   3.628 -1.1117 -1.7632 -0.8134
14365TIP3   OH264585   3.501   5.160   6.253  0.0180 -0.1973  0.2210
14365TIP3    H164586   3.441   5.202   6.315 -0.1007  1.3172 -0.8499
14365TIP3    H264587   3.449   5.091   6.212 -0.4283 -0.1048  0.6259
14366TIP3   OH264588   0.502   3.026   1.563 -0.1249 -0.7454 -0.7751
14366TIP3    H164589   0.597   3.023   1.554 -0.1018 -1.2393 -0.4000
14366TIP3    H264590   0.477   2.939   1.594 -0.5342 -0.1462  0.6714
14367TIP3   OH264591   5.723   5.130  14.087  1.4599  0.2356 -0.2474
14367TIP3    H164592   5.654   5.154  14.150  2.1975 -0.0611  0.6922
14367TIP3    H264593   5.726   5.034  14.091  2.0279  0.2547 -0.1705
14368TIP3   OH264594   0.948   2.549   5.139 -0.5956  0.1598 -0.7062
14368TIP3    H164595   0.865   2.508   5.161 -1.6100  2.7642  0.7313
14368TIP3    H264596   0.925   2.620   5.079  0.7226  0.3700 -1.0035
14369TIP3   OH264597   5.459   2.299  16.021  0.7540  0.0374  0.9941
14369TIP3    H164598   5.404   2.263  15.952  1.2789  1.7709 -0.4078
14369TIP3    H264599   5.408   2.371  16.057  0.9267 -0.1773  1.6875
14370TIP3   OH264600   0.252   4.166  10.587  0.2376  0.6509 -0.1746
14370TIP3    H164601   0.329   4.113  10.610 -0.6652 -1.3633 -1.5592
14370TIP3    H264602   0.260   4.179  10.493 -1.0103  0.5998 -0.2951
14371TIP3   OH264603   3.528   1.409  16.341 -0.6388 -0.0954  0.1506
14371TIP3    H164604   3.619   1.427  16.363  0.1320  3.6842 -4.4541
14371TIP3    H264605   3.531   1.329  16.290  0.1979  0.1601 -0.2222
14372TIP3   OH264606   4.484   4.081   6.395 -0.3284 -0.3280 -0.5275
14372TIP3    H164607   4.536   4.087   6.475  0.2290 -1.1122 -0.8228
14372TIP3    H264608   4.420   4.151   6.403  0.7120  0.5954 -0.1160
14373TIP3   OH264609   6.088   6.188  11.436  0.8547  0.2901  0.7394
14373TIP3    H164610   6.071   6.278  11.409  0.6482 -0.0317 -0.2251
14373TIP3    H264611   6.162   6.160  11.383 -0.7173 -0.9600 -0.8972
14374TIP3   OH264612   1.515   2.589   1.197  0.0525 -0.1924  0.4193
14374TIP3    H164613   1.482   2.604   1.285  0.7425  0.6565  0.5497
14374TIP3    H264614   1.535   2.496   1.194  1.2858  0.0034  1.6289
14375TIP3   OH264615   0.600   4.897   2.077  0.0309 -0.3300 -0.6058
14375TIP3    H164616   0.655   4.842   2.021  1.0763 -0.9167  0.9105
14375TIP3    H264617   0.661   4.934   2.141 -1.2069 -0.1999  0.5426
14376TIP3   OH264618   1.755   2.038  14.841 -0.3962  0.1112 -0.4262
14376TIP3    H164619   1.668   2.000  14.824 -0.5880 -0.1096  0.9896
14376TIP3    H264620   1.743   2.089  14.921  0.7435  0.2517 -0.3403
14377TIP3   OH264621   5.063   2.385   1.406  0.2216  0.5280  0.6455
14377TIP3    H164622   5.004   2.341   1.467 -1.0919 -0.4356 -1.2330
14377TIP3    H264623   5.146   2.339   1.416 -0.3858 -0.5909  0.6662
14378TIP3   OH264624   5.506   5.461   3.100 -0.6511  0.7968  0.2450
14378TIP3    H164625   5.481   5.525   3.033 -3.3822  0.2400  0.6126
14378TIP3    H264626   5.459   5.381   3.075 -1.0607  0.3325  2.3450
14379TIP3   OH264627   3.299   6.124  13.837 -0.3859 -0.4793 -0.5387
14379TIP3    H164628   3.215   6.085  13.862 -1.1378  1.0936 -0.4888
14379TIP3    H264629   3.287   6.149  13.746 -0.6190  1.2987 -0.0563
14380TIP3   OH264630   0.813   3.416  13.892 -0.1519  0.1087 -0.4746
14380TIP3    H164631   0.895   3.369  13.881 -0.6371 -0.6598 -0.9305
14380TIP3    H264632   0.777   3.422  13.803 -0.3785  0.8306 -0.3412
14381TIP3   OH264633   5.062   2.257   2.642 -0.0721 -0.3849  0.0785
14381TIP3    H164634   5.132   2.322   2.639 -0.0085 -0.4748 -0.4421
14381TIP3    H264635   5.082   2.197   2.570 -1.5485  0.4951 -1.1376
14382TIP3   OH264636   2.493   4.093  11.571 -0.1099 -1.0268 -0.1513
14382TIP3    H164637   2.421   4.047  11.614  0.0460  0.2716  1.5958
14382TIP3    H264638   2.561   4.101  11.638 -0.2345  1.9403 -0.2361
14383TIP3   OH264639   2.089   0.734   4.026 -0.5354 -0.1970 -0.0935
14383TIP3    H164640   2.028   0.803   4.051 -1.7908 -1.2853 -0.0638
14383TIP3    H264641   2.090   0.736   3.930  0.2843  0.5596 -0.0857
14384TIP3   OH264642   2.196   6.447  12.328 -0.8267  0.1160  0.4959
14384TIP3    H164643   2.258   6.497  12.380 -2.5260  0.0611  2.7334
14384TIP3    H264644   2.127   6.509  12.305 -1.5467 -0.5115  0.8785
14385TIP3   OH264645   5.994   4.973   5.068 -0.3200  0.1515 -1.0254
14385TIP3    H164646   5.952   4.920   5.000  1.0474 -0.4647 -1.4107
14385TIP3    H264647   5.921   4.998   5.125 -1.0508 -2.1285 -0.8299
14386TIP3   OH264648   3.241   0.455  16.905  0.3207  0.5160  0.3044
14386TIP3    H164649   3.259   0.389  16.972 -1.6347 -0.1692  0.2341
14386TIP3    H264650   3.269   0.415  16.823 -0.2009  0.0354  0.3519
14387TIP3   OH264651   5.419   5.773  17.045 -0.0001  0.3706  0.1087
14387TIP3    H164652   5.431   5.859  17.004  0.3032  0.3676  0.1918
14387TIP3    H264653   5.327   5.773  17.073 -0.7102 -0.2270 -1.9800
14388TIP3   OH264654   4.824   1.515  17.143 -0.0912  0.3339  0.0860
14388TIP3    H164655   4.730   1.507  17.128  0.2643 -0.3135 -2.1840
14388TIP3    H264656   4.838   1.477  17.230 -1.8195 -0.3293  0.1103
14389TIP3   OH264657   6.758   2.543   2.916  0.1261 -0.7513  0.1278
14389TIP3    H164658   6.848   2.567   2.893 -0.6982  1.0679 -1.4163
14389TIP3    H264659   6.760   2.447   2.920  2.2078 -0.7499  0.5452
14390TIP3   OH264660   0.837   5.283   2.767 -0.3385 -0.4756 -0.0116
14390TIP3    H164661   0.747   5.252   2.778 -0.6383 -0.0326 -1.0854
14390TIP3    H264662   0.882   5.210   2.725  0.4823 -1.6753  2.7420
14391TIP3   OH264663   2.148   1.453  15.094 -0.4812 -0.1824 -0.2565
14391TIP3    H164664   2.100   1.388  15.043 -1.7153  0.4821  0.0151
14391TIP3    H264665   2.231   1.411  15.115 -0.5292 -0.9899 -1.6014
14392TIP3   OH264666   1.670   4.553   4.400  0.1586  0.1238  0.1038
14392TIP3    H164667   1.757   4.575   4.431 -0.0595  0.0478  0.7909
14392TIP3    H264668   1.641   4.482   4.457 -1.1955  1.5643  1.3117
14393TIP3   OH264669   1.574   3.437  13.312  0.3439 -0.3310  0.0739
14393TIP3    H164670   1.514   3.367  13.286 -0.6710  1.0192 -1.3947
14393TIP3    H264671   1.658   3.393  13.326 -0.3348 -1.8703 -0.5071
14394TIP3   OH264672   0.355   4.916   4.252 -0.0034  0.4170  0.5733
14394TIP3    H164673   0.264   4.945   4.246 -0.0524  0.2609  0.5581
14394TIP3    H264674   0.350   4.831   4.295  0.0906  0.1499  0.0542
14395TIP3   OH264675   5.953   5.327   3.438  0.3664  0.3373  0.6535
14395TIP3    H164676   5.890   5.397   3.454  2.0764  2.2879 -0.5437
14395TIP3    H264677   6.021   5.341   3.504  0.5848 -0.3974  0.5959
14396TIP3   OH264678   4.484   0.731   5.558 -0.1579  0.1325  0.1614
14396TIP3    H164679   4.521   0.817   5.541 -1.2263  0.7732  0.9123
14396TIP3    H264680   4.538   0.695   5.629  0.1115  0.3007  0.0436
14397TIP3   OH264681   1.582   0.684  11.975 -0.2267  0.4029  1.0352
14397TIP3    H164682   1.606   0.591  11.970 -0.4114  0.3851  0.3311
14397TIP3    H264683   1.486   0.683  11.984 -0.0987  0.4953  2.9456
14398TIP3   OH264684   3.941   5.693   0.083 -0.3247 -0.3614 -0.1904
14398TIP3    H164685   3.942   5.730  -0.005  2.6825 -0.2887 -0.2412
14398TIP3    H264686   3.929   5.767   0.141 -1.6263 -0.3225 -0.4784
14399TIP3   OH264687   3.140   2.105   3.880  0.1394 -0.5172 -0.3037
14399TIP3    H164688   3.148   2.171   3.949 -1.6856 -0.9185  0.3444
14399TIP3    H264689   3.212   2.044   3.898 -0.2200 -0.5440  1.2111
14400TIP3   OH264690   1.196   3.063   6.180 -0.2840  0.0890 -0.1045
14400TIP3    H164691   1.276   3.114   6.188  0.1278 -0.4215 -0.9261
14400TIP3    H264692   1.201   2.998   6.250 -0.2182  0.3689  0.1511
14401TIP3   OH264693   1.133   3.037  15.740  0.0787 -0.0382 -0.5783
14401TIP3    H164694   1.058   3.012  15.794 -0.9814  4.6251  0.4791
14401TIP3    H264695   1.097   3.047  15.652 -0.0269  0.0590 -0.5238
14402TIP3   OH264696   5.557   0.962   0.572  0.2412 -0.0105  0.0841
14402TIP3    H164697   5.612   0.888   0.598  2.0984  0.9103 -0.9301
14402TIP3    H264698   5.592   0.987   0.486 -0.2885  2.0491  0.4282
14403TIP3   OH264699   6.486   1.099  17.028  0.3831  0.3945 -0.5666
14403TIP3    H164700   6.421   1.104  16.958  0.2940 -1.7870 -0.7012
14403TIP3    H264701   6.501   1.190  17.053 -0.1807  1.1780 -2.8452
14404TIP3   OH264702   0.220   3.304  13.625 -0.1290 -0.2138  0.1950
14404TIP3    H164703   0.282   3.360  13.671 -1.6118 -0.3463  2.5325
14404TIP3    H264704   0.253   3.215  13.639 -0.0981 -0.1937  0.2496
14405TIP3   OH264705   2.781   4.168  13.014 -0.6692 -0.5227  0.4102
14405TIP3    H164706   2.865   4.156  13.059 -0.5414  0.3410  0.4164
14405TIP3    H264707   2.718   4.181  13.086 -0.6827 -0.4177  0.3790
14406TIP3   OH264708   0.626   0.111  14.839 -0.2673 -0.1991 -0.3346
14406TIP3    H164709   0.545   0.160  14.827  0.9805  1.7910 -1.1715
14406TIP3    H264710   0.686   0.173  14.879  1.4272 -0.9651 -1.5334
14407TIP3   OH264711   4.994   6.012   1.812  0.3733 -0.3940  0.2431
14407TIP3    H164712   5.071   6.033   1.864  0.9679 -2.7736  0.4498
14407TIP3    H264713   5.021   6.025   1.721  0.2283  1.0667  0.3959
14408TIP3   OH264714   4.099   3.951   3.444 -0.2212  0.5240 -0.2576
14408TIP3    H164715   4.132   3.956   3.534  1.2193  1.7846 -0.8161
14408TIP3    H264716   4.084   4.042   3.419 -0.6397  0.1860 -1.3038
14409TIP3   OH264717   4.802   1.231  13.680  0.2682 -0.5148  0.0264
14409TIP3    H164718   4.765   1.161  13.626  1.2932  0.0052 -1.4076
14409TIP3    H264719   4.865   1.275  13.623  0.7893  0.5991  1.3956
14410TIP3   OH264720   2.514   6.518  11.577  0.1346 -0.4069 -0.0032
14410TIP3    H164721   2.579   6.480  11.517  2.3838  1.6127  0.9829
14410TIP3    H264722   2.447   6.555  11.520  0.9950 -0.6245 -1.1919
14411TIP3   OH264723   2.437   6.036  17.190 -0.1623  0.4421  0.0825
14411TIP3    H164724   2.415   5.944  17.176 -0.4055  0.6873 -1.2856
14411TIP3    H264725   2.530   6.041  17.166  0.0793  0.4027  0.9722
14412TIP3   OH264726   5.167   0.778   6.684  0.1512  0.2434 -0.3181
14412TIP3    H164727   5.202   0.867   6.691 -0.8305  0.6905 -0.9367
14412TIP3    H264728   5.196   0.748   6.598 -2.0127  1.1136 -1.4254
14413TIP3   OH264729   4.585   5.224   4.142  0.1897 -0.1120  0.3670
14413TIP3    H164730   4.671   5.258   4.117  0.2942 -1.2510 -0.9719
14413TIP3    H264731   4.536   5.302   4.169  0.5331  1.1235 -2.2106
14414TIP3   OH264732   3.166   6.437  17.300  0.3957 -0.1420  0.1780
14414TIP3    H164733   3.129   6.402  17.219 -0.8456 -0.3099  0.7876
14414TIP3    H264734   3.188   6.359  17.352  0.4901 -0.0270  0.3117
14415TIP3   OH264735   2.353   4.613  17.322  0.1251  0.2571  0.1371
14415TIP3    H164736   2.409   4.536  17.317  0.8030  0.6975  0.7893
14415TIP3    H264737   2.373   4.652  17.407 -0.3667  1.0335 -0.0922
14416TIP3   OH264738   5.542   3.768   0.993  0.3762  0.0226 -0.5259
14416TIP3    H164739   5.575   3.678   0.983  1.2200  0.4277 -1.6317
14416TIP3    H264740   5.481   3.779   0.920  1.3624  0.7933 -1.2585
14417TIP3   OH264741   5.461   1.219  17.360 -0.4129  0.3110  0.1696
14417TIP3    H164742   5.457   1.274  17.282  0.8294  2.0946  1.2952
14417TIP3    H264743   5.504   1.139  17.330 -0.2886  0.8091 -1.0541
14418TIP3   OH264744   5.622   4.545   5.770 -0.0634  0.1544 -0.6548
14418TIP3    H164745   5.630   4.510   5.858 -0.4273  0.2750 -0.5745
14418TIP3    H264746   5.622   4.640   5.782 -2.4961  0.2031 -0.5522
14419TIP3   OH264747   6.450   3.340  14.235 -0.8283 -0.2829 -0.2651
14419TIP3    H164748   6.410   3.277  14.294  0.0572 -0.3453  0.2762
14419TIP3    H264749   6.534   3.301  14.210 -0.8212  0.1163 -0.9070
14420TIP3   OH264750   2.903   1.863   2.372  0.2560  0.1177  0.4474
14420TIP3    H164751   2.886   1.842   2.463  1.5506 -1.7929  0.3026
14420TIP3    H264752   2.934   1.954   2.373  2.2264 -0.5098  2.1881
14421TIP3   OH264753   2.559   4.671   5.220 -0.0144  0.3758 -0.3862
14421TIP3    H164754   2.644   4.661   5.262  0.1339  0.6222 -0.6256
14421TIP3    H264755   2.507   4.597   5.252  0.9013 -0.9026 -1.7274
14422TIP3   OH264756   1.100   1.939  12.288  0.0753 -0.0497  0.0433
14422TIP3    H164757   1.086   1.900  12.375 -2.0601 -0.9851 -0.6483
14422TIP3    H264758   1.089   2.033  12.303 -2.3262 -0.3272  0.5318
14423TIP3   OH264759   0.241   0.779  17.026 -0.5757  0.5329 -0.1429
14423TIP3    H164760   0.306   0.742  16.967 -1.1110  0.3901 -0.6572
14423TIP3    H264761   0.290   0.839  17.081  0.3401 -1.0458  0.8279
14424TIP3   OH264762   6.222   1.646   1.801 -0.2891  0.1955 -0.1228
14424TIP3    H164763   6.265   1.689   1.727 -0.3991 -2.2012 -1.7116
14424TIP3    H264764   6.143   1.699   1.817  0.7382  1.8810 -0.3696
14425TIP3   OH264765   1.645   0.073  11.386  0.6636 -0.1917 -0.1283
14425TIP3    H164766   1.670   0.165  11.387  1.8377 -0.4972 -0.0497
14425TIP3    H264767   1.608   0.057  11.473  2.6820 -0.3611  0.7420
14426TIP3   OH264768   6.528   1.149   5.706  0.8411 -0.1699  0.8314
14426TIP3    H164769   6.597   1.214   5.689 -0.4877  1.1529  0.2433
14426TIP3    H264770   6.568   1.065   5.686  2.5312  0.4812  1.3178
14427TIP3   OH264771   5.027   4.319  14.395  0.1697  0.2254  0.1624
14427TIP3    H164772   5.026   4.276  14.309 -1.1545 -0.0537  0.2948
14427TIP3    H264773   4.972   4.263  14.450 -2.5778  2.6037  0.0681
14428TIP3   OH264774   0.488   6.551   6.301  0.4032 -0.4820 -0.1714
14428TIP3    H164775   0.412   6.558   6.243 -0.2564  0.2382  0.7466
14428TIP3    H264776   0.554   6.606   6.259  0.0858 -0.3191 -0.4701
14429TIP3   OH264777   3.604   1.187   0.431 -0.0672  0.2222 -0.0676
14429TIP3    H164778   3.645   1.124   0.490 -1.3295 -1.5974 -1.0366
14429TIP3    H264779   3.539   1.232   0.485 -1.1495 -1.3669  0.0137
14430TIP3   OH264780   2.450   0.005   2.419 -0.2997 -0.3965  0.2786
14430TIP3    H164781   2.480   0.095   2.404 -1.1300 -0.1337  0.1252
14430TIP3    H264782   2.497  -0.023   2.498 -0.8807  0.5866  1.0061
14431TIP3   OH264783   0.568   2.077  14.810 -0.3522 -0.4559 -0.2271
14431TIP3    H164784   0.574   2.101  14.718 -0.3055 -1.9238 -0.6380
14431TIP3    H264785   0.475   2.075  14.829 -0.3829 -0.6197 -0.3888
14432TIP3   OH264786   6.622   4.032  17.037  0.0514  0.5773  0.3130
14432TIP3    H164787   6.694   4.095  17.045 -0.8143  1.5178  0.9686
14432TIP3    H264788   6.628   3.979  17.116 -0.7012  1.4515  0.9670
14433TIP3   OH264789   2.435   1.669  14.289 -0.3509 -0.1935 -0.2209
14433TIP3    H164790   2.405   1.705  14.372 -1.6776 -2.4839  0.3598
14433TIP3    H264791   2.530   1.681  14.291 -0.5306  1.3019  0.8488
14434TIP3   OH264792   1.814   4.726   0.324 -0.2808 -0.2233  0.3745
14434TIP3    H164793   1.786   4.807   0.366  0.2048 -0.1616  0.5902
14434TIP3    H264794   1.872   4.684   0.388 -0.0762 -0.4582  0.0399
14435TIP3   OH264795   2.681   2.222   2.887  0.0547  0.1090  0.6041
14435TIP3    H164796   2.618   2.294   2.887 -0.6739 -0.5144  0.0911
14435TIP3    H264797   2.631   2.146   2.916  0.0803 -0.7767 -1.4594
14436TIP3   OH264798   5.324   5.275   4.869  0.3912  0.7367 -0.0157
14436TIP3    H164799   5.269   5.226   4.930 -0.0133  0.7706 -0.3428
14436TIP3    H264800   5.262   5.328   4.819  0.5216 -0.5065 -1.5690
14437TIP3   OH264801   2.154   2.897  15.487  0.1033 -0.5893 -0.1671
14437TIP3    H164802   2.063   2.908  15.458  0.8227  0.5087 -2.1645
14437TIP3    H264803   2.195   2.845  15.419  1.2349 -0.1603  0.1678
14438TIP3   OH264804   6.472   3.997  12.201  0.2389  0.6432 -0.1038
14438TIP3    H164805   6.448   3.955  12.119  2.0322 -2.5679  0.8341
14438TIP3    H264806   6.558   4.034  12.185  0.0402  1.1481 -0.0204
14439TIP3   OH264807   2.727   4.750  11.353 -0.0098 -0.4609 -0.0974
14439TIP3    H164808   2.822   4.749  11.356  0.1461  0.4631 -2.6067
14439TIP3    H264809   2.704   4.840  11.328 -1.5923 -0.4962  1.0335
14440TIP3   OH264810   1.670   0.319   6.361 -0.5639  0.7227 -0.2505
14440TIP3    H164811   1.713   0.253   6.415  0.4042  0.8472 -0.8474
14440TIP3    H264812   1.742   0.369   6.323 -1.1083 -0.3090 -2.8615
14441TIP3   OH264813   2.763   1.338   3.248  0.1922 -0.0680 -0.2833
14441TIP3    H164814   2.794   1.285   3.321 -2.6958 -0.8381  0.5061
14441TIP3    H264815   2.798   1.425   3.265  0.4745 -0.4966  1.4546
14442TIP3   OH264816   3.697   0.425  17.407 -0.2813  0.1164 -0.1366
14442TIP3    H164817   3.634   0.480  17.454  1.2791  0.9711  1.1094
14442TIP3    H264818   3.767   0.486  17.382  0.4323 -0.9230 -0.7522
14443TIP3   OH264819   0.476   3.950   5.750  0.0025  0.4109 -0.4458
14443TIP3    H164820   0.553   3.952   5.807 -1.7678 -0.3862  2.1279
14443TIP3    H264821   0.486   4.028   5.695  2.0141  1.0095  0.6363
14444TIP3   OH264822   0.149   5.171   3.439  0.3159 -0.4026 -0.0932
14444TIP3    H164823   0.208   5.185   3.365  0.5421  0.8988  0.3088
14444TIP3    H264824   0.062   5.193   3.404  0.0863 -1.9474 -0.5754
14445TIP3   OH264825   2.901   0.134  13.562 -0.1409 -0.8039 -0.1924
14445TIP3    H164826   2.884   0.159  13.652  0.5253 -0.3653 -0.1805
14445TIP3    H264827   2.911   0.039  13.564 -1.2346 -0.9186  0.0101
14446TIP3   OH264828   6.363   1.981   0.374  0.7561 -0.3248  0.3489
14446TIP3    H164829   6.446   1.936   0.386  0.7924 -0.8610 -1.6510
14446TIP3    H264830   6.361   2.006   0.282 -1.5080 -0.8031  0.1901
14447TIP3   OH264831   2.504   0.790  14.119  0.1015 -0.0359 -0.4069
14447TIP3    H164832   2.558   0.868  14.105 -0.4824  0.4734  0.1253
14447TIP3    H264833   2.545   0.746  14.194  1.2085 -0.9557 -1.5181
14448TIP3   OH264834   2.647   0.452   3.974 -0.2522  0.0491 -0.5148
14448TIP3    H164835   2.704   0.481   4.045 -0.1098 -0.1969 -0.5260
14448TIP3    H264836   2.667   0.511   3.901 -0.1618  0.0950 -0.4533
14449TIP3   OH264837   5.494   3.444   0.297 -0.0119 -0.1089 -0.1437
14449TIP3    H164838   5.495   3.375   0.364  0.4343 -1.3558 -1.3673
14449TIP3    H264839   5.445   3.405   0.224  2.4820 -0.2074 -1.8986
14450TIP3   OH264840   5.158   2.821  12.215  1.3221  0.3351 -0.0774
14450TIP3    H164841   5.146   2.734  12.253  3.1859  0.7119  1.5915
14450TIP3    H264842   5.110   2.819  12.132 -2.8193 -0.6387  2.0870
14451TIP3   OH264843   2.455   2.706  16.481  0.6432 -0.0509 -0.4526
14451TIP3    H164844   2.544   2.675  16.496  0.3530  0.0508  1.8418
14451TIP3    H264845   2.462   2.762  16.403  2.6900  0.3255 -0.0583
14452TIP3   OH264846   3.901   3.450   0.658 -0.2482  0.2687  0.2693
14452TIP3    H164847   3.872   3.360   0.644 -0.0318  0.3403 -0.6987
14452TIP3    H264848   3.989   3.441   0.696  0.5938  0.0489 -1.6362
14453TIP3   OH264849   3.250   6.084   5.473 -0.0510 -0.0392  0.0664
14453TIP3    H164850   3.245   6.129   5.388 -0.1721 -1.3637 -0.6627
14453TIP3    H264851   3.205   6.143   5.534 -2.0873 -0.1030 -1.2566
14454TIP3   OH264852   5.027   6.062  15.816  0.1442 -0.6703 -0.1180
14454TIP3    H164853   5.088   6.026  15.752 -1.2744 -2.0328 -0.8000
14454TIP3    H264854   4.943   6.066  15.769  0.1555  3.6932 -0.0893
14455TIP3   OH264855   6.738   2.432   2.070  0.5256  0.0766  0.1479
14455TIP3    H164856   6.773   2.343   2.081 -0.2266 -0.0022  2.5529
14455TIP3    H264857   6.753   2.473   2.155 -3.7385  0.5180  0.8750
14456TIP3   OH264858   0.993   1.006   2.537  0.1352 -0.4507  0.2829
14456TIP3    H164859   1.030   0.919   2.520  1.3032 -0.3160  1.8289
14456TIP3    H264860   1.039   1.064   2.477 -2.2067 -1.1304 -2.3272
14457TIP3   OH264861   6.621   2.686   1.356 -0.0221  0.8196  0.1441
14457TIP3    H164862   6.550   2.697   1.293 -0.5847 -1.1691  0.3599
14457TIP3    H264863   6.678   2.761   1.341 -1.3822  1.6753 -1.0670
14458TIP3   OH264864   0.890   0.273  14.378 -0.5144  0.2028  0.0917
14458TIP3    H164865   0.886   0.271  14.474 -0.2011 -1.7189  0.1076
14458TIP3    H264866   0.967   0.326  14.359  1.3088 -1.8926  1.0533
14459TIP3   OH264867   4.211   1.026  12.118  0.0601  0.6210  0.0671
14459TIP3    H164868   4.168   1.084  12.180  2.1991  1.2418  1.0975
14459TIP3    H264869   4.270   1.083  12.068  0.8972 -0.3675 -0.1337
14460TIP3   OH264870   0.895   0.978   5.242 -0.3132 -0.6063  0.0420
14460TIP3    H164871   0.924   0.947   5.328 -0.0646 -1.7776 -0.4533
14460TIP3    H264872   0.900   1.074   5.248  1.4496 -0.7123  0.7201
14461TIP3   OH264873   6.454   4.804   0.181 -0.1039  0.1391  0.7915
14461TIP3    H164874   6.525   4.867   0.186 -0.2359  0.5354 -1.3422
14461TIP3    H264875   6.412   4.821   0.097 -1.1254 -1.7737  0.8460
14462TIP3   OH264876   4.299   5.705  10.920  0.0771  0.2435  0.1533
14462TIP3    H164877   4.312   5.615  10.949  0.5713 -0.6442 -2.5587
14462TIP3    H264878   4.207   5.709  10.893  0.5054 -0.0926 -1.5137
14463TIP3   OH264879   3.803   5.517  16.520  0.1658 -0.4529  0.0109
14463TIP3    H164880   3.730   5.472  16.479  0.0117  0.6945 -1.0431
14463TIP3    H264881   3.767   5.602  16.546  0.7428 -0.4562  0.8504
14464TIP3   OH264882   5.828   3.288   2.866  0.3017 -0.1328 -0.8938
14464TIP3    H164883   5.866   3.373   2.891 -1.9433  1.3585 -2.2230
14464TIP3    H264884   5.861   3.273   2.777 -0.1084 -0.1123 -1.0530
14465TIP3   OH264885   1.909   0.976   0.574 -0.5377  0.1271 -0.3993
14465TIP3    H164886   1.949   0.970   0.660 -1.6865  0.0665  0.1533
14465TIP3    H264887   1.818   0.950   0.588 -0.9414  0.8689 -1.4771
14466TIP3   OH264888   3.141   3.194  13.246  0.1110  0.0918 -0.3628
14466TIP3    H164889   3.219   3.174  13.194 -1.3013  1.5312 -3.2884
14466TIP3    H264890   3.150   3.287  13.267  0.7308 -0.4996  2.2796
14467TIP3   OH264891   3.583   3.377  15.358 -0.0400  0.0358  0.2053
14467TIP3    H164892   3.665   3.425  15.348 -0.7062  0.9258 -1.3229
14467TIP3    H264893   3.609   3.285  15.359  0.9177  0.2278 -1.6451
14468TIP3   OH264894   5.392   4.513   4.453 -0.5885  0.0854 -0.7039
14468TIP3    H164895   5.400   4.608   4.467  2.2791 -0.1693 -0.1323
14468TIP3    H264896   5.300   4.501   4.431 -1.4778  2.7813  0.9319
14469TIP3   OH264897   0.855   6.652   3.999 -0.0495  0.7000 -0.5308
14469TIP3    H164898   0.850   6.678   3.907  5.1853  2.1326 -0.7114
14469TIP3    H264899   0.917   6.579   4.000 -2.0631 -1.1708  1.7412
14470TIP3   OH264900   4.186   2.911   3.805  0.0768 -0.2618  0.0994
14470TIP3    H164901   4.251   2.842   3.812  0.7757  0.3188 -0.4641
14470TIP3    H264902   4.109   2.876   3.849  1.1907 -0.4365  2.0467
14471TIP3   OH264903   0.338   3.028   4.053  0.7862  0.4614  0.1053
14471TIP3    H164904   0.263   2.986   4.011 -0.0483  1.4645  0.5568
14471TIP3    H264905   0.405   3.031   3.985 -0.1334  0.9902 -0.8081
14472TIP3   OH264906   1.912   3.953   3.780 -0.4943 -0.0039 -0.2757
14472TIP3    H164907   1.865   4.033   3.755 -2.3798 -1.0542 -0.3170
14472TIP3    H264908   1.846   3.883   3.772  0.9374 -1.4863  0.2860
14473TIP3   OH264909   6.243   4.269  12.982  0.0518 -0.3840 -0.7395
14473TIP3    H164910   6.320   4.253  12.927  0.4733  0.1145 -0.2971
14473TIP3    H264911   6.276   4.317  13.057 -0.7332  0.0422 -0.6555
14474TIP3   OH264912   6.465   6.185   0.215  0.2597 -0.1558 -0.6523
14474TIP3    H164913   6.523   6.151   0.146  0.6014  0.0520 -0.4743
14474TIP3    H264914   6.511   6.164   0.296  0.6514  1.0085 -0.5487
14475TIP3   OH264915   0.132   5.957  16.587  0.1040  0.4596  0.1506
14475TIP3    H164916   0.118   5.965  16.493  0.7181 -0.7683 -0.0621
14475TIP3    H264917   0.047   5.929  16.622 -0.0246  0.5549 -0.0914
14476TIP3   OH264918   3.629   1.872  13.115  0.2784 -0.0114  0.1086
14476TIP3    H164919   3.593   1.812  13.049  0.0583  2.6803 -2.4470
14476TIP3    H264920   3.563   1.873  13.185 -1.0798 -0.6293 -1.0997
14477TIP3   OH264921   2.953   2.678  12.272 -0.1370  0.4490 -0.3326
14477TIP3    H164922   2.914   2.760  12.301 -1.9840 -1.1154  1.9034
14477TIP3    H264923   3.021   2.659  12.336 -1.7208 -1.1665  0.9796
14478TIP3   OH264924   6.268   5.327   1.964  0.1318  0.1863  0.1987
14478TIP3    H164925   6.314   5.250   1.999 -0.8625 -0.1681  0.7912
14478TIP3    H264926   6.300   5.400   2.016 -1.1101 -0.2921  1.7232
14479TIP3   OH264927   5.460   5.924   5.656  0.3376 -0.5743 -0.4304
14479TIP3    H164928   5.415   5.900   5.576 -0.3429 -2.5609  0.4738
14479TIP3    H264929   5.516   5.848   5.676  3.6094  1.4438 -1.0870
14480TIP3   OH264930   5.911   0.187  17.190  0.2303 -0.3880  0.0675
14480TIP3    H164931   5.919   0.159  17.099 -0.6181 -1.1430  0.2047
14480TIP3    H264932   5.826   0.153  17.218 -1.0985  2.6442  0.1470
14481TIP3   OH264933   0.518   6.328  11.470 -0.1370  0.0107  0.5148
14481TIP3    H164934   0.568   6.374  11.403 -0.8551  0.4737  0.2916
14481TIP3    H264935   0.543   6.236  11.459 -1.0903 -0.0842 -1.1596
14482TIP3   OH264936   3.530   6.585  17.366 -0.1222 -0.3695  0.3997
14482TIP3    H164937   3.465   6.583  17.437  0.0503 -0.4917  0.5556
14482TIP3    H264938   3.554   6.677  17.358 -1.3740 -0.0984 -0.6350
14483TIP3   OH264939   2.515   3.237  13.241  0.3306  0.5417  0.3469
14483TIP3    H164940   2.562   3.184  13.304  0.1848  0.2735  0.2296
14483TIP3    H264941   2.583   3.283  13.192  0.4562  0.4372  0.4256
14484TIP3   OH264942   5.018   0.297   6.553 -0.0900  0.1913  0.4370
14484TIP3    H164943   5.112   0.284   6.563 -0.2491 -0.9957  0.4605
14484TIP3    H264944   4.995   0.356   6.625  0.2706 -1.2823  1.8246
14485TIP3   OH264945   1.916   1.461  14.091  0.2160 -0.5571 -0.4362
14485TIP3    H164946   1.839   1.471  14.035 -0.0674 -2.2333 -0.4138
14485TIP3    H264947   1.916   1.368  14.114 -0.1722  0.2019  3.0896
14486TIP3   OH264948   5.224   0.829   1.789 -0.0138 -0.5883 -0.4325
14486TIP3    H164949   5.253   0.892   1.724  2.3011 -0.8167  0.2782
14486TIP3    H264950   5.167   0.879   1.848 -0.0431  0.2518 -1.1604
14487TIP3   OH264951   1.561   1.420  15.498  0.2070 -0.2080 -0.0515
14487TIP3    H164952   1.646   1.388  15.526  0.9135  1.6612  0.0892
14487TIP3    H264953   1.511   1.341  15.476  1.1156 -1.4831  2.1937
14488TIP3   OH264954   3.526   5.137  11.233 -0.1438  0.4468 -0.2468
14488TIP3    H164955   3.460   5.108  11.297 -0.9176  1.1006 -0.7277
14488TIP3    H264956   3.503   5.091  11.152  0.0327  0.6160 -0.3937
14489TIP3   OH264957   6.460   3.962  12.476 -0.0838 -0.4301 -0.4517
14489TIP3    H164958   6.429   3.994  12.391  0.0417  0.7301 -0.0751
14489TIP3    H264959   6.514   3.886  12.454 -1.2747 -1.0729 -1.2877
14490TIP3   OH264960   5.391   0.187   5.060  0.3477 -0.1033 -0.8509
14490TIP3    H164961   5.482   0.157   5.057  0.0886 -0.8879 -1.0360
14490TIP3    H264962   5.341   0.110   5.086 -0.1834  0.5122 -0.0005
14491TIP3   OH264963   0.893   5.462   2.955 -0.1398  0.4308 -0.2831
14491TIP3    H164964   0.864   5.542   2.911 -0.3182  0.5736  0.0904
14491TIP3    H264965   0.865   5.391   2.898 -0.7946  0.5899 -0.1698
14492TIP3   OH264966   0.782   1.740   6.386  0.5149  0.5025 -0.1118
14492TIP3    H164967   0.796   1.653   6.348  1.9537  1.5712 -2.2379
14492TIP3    H264968   0.867   1.782   6.381 -0.2707  2.2287  0.3540
14493TIP3   OH264969   6.750   1.636   6.330 -0.7049 -0.2545 -0.4868
14493TIP3    H164970   6.719   1.616   6.418  0.5310 -1.1732 -0.2344
14493TIP3    H264971   6.670   1.641   6.277 -1.4176 -0.3070  0.5571
14494TIP3   OH264972   2.061   0.141  16.114  0.0152 -0.3239 -0.1434
14494TIP3    H164973   1.998   0.201  16.155  0.5320  0.6195 -0.6874
14494TIP3    H264974   2.143   0.190  16.112  1.1185 -1.9624  1.6131
14495TIP3   OH264975   2.825   3.363   2.417  0.1765 -0.5854 -0.3786
14495TIP3    H164976   2.811   3.281   2.370 -1.8979 -0.0601 -0.7738
14495TIP3    H264977   2.802   3.431   2.353 -1.8700  0.1776  1.0411
14496TIP3   OH264978   4.886   5.799  17.305  0.2658  0.2356  0.5240
14496TIP3    H164979   4.853   5.747  17.231  1.5993 -1.6597  1.1782
14496TIP3    H264980   4.809   5.812  17.361 -0.8519  2.0041 -1.2701
14497TIP3   OH264981   5.797   1.146   3.630 -0.1080 -0.4244  0.1291
14497TIP3    H164982   5.866   1.195   3.586  1.0462 -1.4438  0.7243
14497TIP3    H264983   5.750   1.102   3.559 -0.1867  0.3152 -0.2869
14498TIP3   OH264984   0.714   5.355  16.115 -0.7570 -0.2207  0.2594
14498TIP3    H164985   0.761   5.275  16.091 -0.3359  0.1527 -0.1767
14498TIP3    H264986   0.627   5.343  16.078 -0.4663 -0.1577 -0.4617
14499TIP3   OH264987   5.554   5.457  15.178 -0.0423  0.1496  0.0124
14499TIP3    H164988   5.530   5.393  15.111 -0.2231 -1.1510  1.2824
14499TIP3    H264989   5.643   5.485  15.154 -0.1997 -0.1070 -0.8960
14500TIP3   OH264990   1.286   0.626  15.547 -0.3871  0.0425 -0.3660
14500TIP3    H164991   1.244   0.543  15.525 -0.8431  0.1460  0.0853
14500TIP3    H264992   1.213   0.689  15.551  0.0070  0.5651 -1.1750
14501TIP3   OH264993   5.280   0.234   6.551  0.6064 -0.2533  0.0213
14501TIP3    H164994   5.292   0.223   6.646  0.2482  0.4639  0.1563
14501TIP3    H264995   5.368   0.250   6.518  0.8602 -1.4008  0.0967
14502TIP3   OH264996   4.279   4.141  13.573  0.5651  0.5201 -0.0774
14502TIP3    H164997   4.292   4.220  13.626 -1.4480 -1.3861  3.7066
14502TIP3    H264998   4.342   4.078  13.607 -1.0223 -0.8734  0.4626
14503TIP3   OH264999   2.576   0.021   1.171 -0.0988 -0.0226  0.1413
14503TIP3    H165000   2.581   0.044   1.079  1.6154  1.9166  0.6536
14503TIP3    H265001   2.564  -0.074   1.172 -2.7137  0.1871 -2.0507
14504TIP3   OH265002   6.772   3.104  16.904  0.0305 -0.2224  0.2166
14504TIP3    H165003   6.863   3.115  16.931  0.8609 -1.3711 -1.9008
14504TIP3    H265004   6.776   3.098  16.808 -2.5454  2.1015 -0.1511
14505TIP3   OH265005   5.621   0.469  11.519 -0.4132 -0.8075  0.3008
14505TIP3    H165006   5.558   0.489  11.449 -0.7791  0.3576  0.9263
14505TIP3    H265007   5.567   0.459  11.598  0.0078 -1.9669  0.4624
14506TIP3   OH265008   2.936   5.650   4.899  0.0576  0.9376  0.4795
14506TIP3    H165009   2.995   5.623   4.970  0.2284  2.0604  0.7976
14506TIP3    H265010   2.895   5.730   4.932 -0.2797  1.1698 -0.4745
14507TIP3   OH265011   5.395   0.957   0.834  0.1993  0.2232  0.2760
14507TIP3    H165012   5.369   1.043   0.799  1.1440  1.1260  1.6840
14507TIP3    H265013   5.419   0.906   0.757 -0.6906  1.1030 -0.6203
14508TIP3   OH265014   3.604   0.030   0.319  0.5650 -0.0484 -0.2432
14508TIP3    H165015   3.521   0.076   0.333  0.3302  0.0077 -1.7416
14508TIP3    H265016   3.655   0.088   0.263  1.0115 -0.7590 -0.5942
14509TIP3   OH265017   3.744   6.032  12.850 -0.1193  0.0113  0.4218
14509TIP3    H165018   3.818   6.092  12.841  0.8840 -1.3091 -0.6058
14509TIP3    H265019   3.685   6.056  12.779 -0.3772  0.6498  0.8459
14510TIP3   OH265020   5.993   4.237  15.963 -0.0473 -0.4977  0.2673
14510TIP3    H165021   5.953   4.247  16.050 -0.3484 -1.9136  0.3077
14510TIP3    H265022   5.996   4.326  15.928 -2.4133 -0.2324  0.6141
14511TIP3   OH265023   2.719   4.207   3.506  0.2023 -0.4024  0.1474
14511TIP3    H165024   2.629   4.175   3.509 -0.1878  0.6752  0.8653
14511TIP3    H265025   2.721   4.279   3.570  1.0696  0.8311 -1.2017
14512TIP3   OH265026   0.663   5.316  14.768 -0.4830 -0.5376  0.3369
14512TIP3    H165027   0.738   5.307  14.709 -0.4768 -0.9052  0.3980
14512TIP3    H265028   0.636   5.226  14.785 -0.1748 -0.4594  1.2916
14513TIP3   OH265029   2.722   4.863   1.442  0.2158 -0.0703  0.7269
14513TIP3    H165030   2.753   4.939   1.492 -2.0453  1.5445 -0.1538
14513TIP3    H265031   2.738   4.886   1.351 -1.5378 -0.1143  0.3793
14514TIP3   OH265032   0.498   2.230  11.405  0.7613  0.1723 -0.2477
14514TIP3    H165033   0.426   2.292  11.406  1.6487  1.2221  0.4194
14514TIP3    H265034   0.485   2.180  11.324 -0.2747  0.8596 -0.5274
14515TIP3   OH265035   2.528   4.814   0.034  0.1717  0.5364  0.3975
14515TIP3    H165036   2.558   4.761  -0.040 -0.1350 -1.2808  1.5360
14515TIP3    H265037   2.479   4.886  -0.007 -1.6798 -1.4695 -1.1740
14516TIP3   OH265038   1.503   1.347  13.732 -0.0698 -0.1209 -0.3463
14516TIP3    H165039   1.557   1.268  13.726 -0.2745 -0.2054 -1.2934
14516TIP3    H265040   1.493   1.376  13.642 -0.6362  0.5583 -0.0750
14517TIP3   OH265041   5.853   0.863  17.180 -0.2976 -0.2755 -0.8886
14517TIP3    H165042   5.879   0.895  17.266 -4.2640  1.8770 -0.2648
14517TIP3    H265043   5.859   0.768  17.187  0.8880 -0.0990  1.2262
14518TIP3   OH265044   5.929   2.296  14.405 -0.0312 -0.1195 -0.1937
14518TIP3    H165045   5.879   2.217  14.425  0.4768 -0.0917  1.2755
14518TIP3    H265046   6.009   2.264  14.362  0.6144 -0.5040  1.2460
14519TIP3   OH265047   3.663   4.048   5.442 -0.3277 -0.2091  0.5505
14519TIP3    H165048   3.632   3.987   5.375 -0.9468  0.2419  0.4134
14519TIP3    H265049   3.583   4.092   5.473  0.2943  2.2428 -1.0419
14520TIP3   OH265050   0.714   4.112   0.185 -0.6581 -0.0067  0.4994
14520TIP3    H165051   0.688   4.040   0.128  1.4578  1.1323 -2.1190
14520TIP3    H265052   0.633   4.161   0.200 -1.7597 -1.7868  0.7461
14521TIP3   OH265053   1.841   1.758  13.740  0.0480 -1.1246 -0.2241
14521TIP3    H165054   1.794   1.805  13.809  1.0902 -3.0254  1.9120
14521TIP3    H265055   1.797   1.674  13.734  0.9358 -1.5653 -0.7624
14522TIP3   OH265056   4.726   6.506  10.767 -0.0041 -0.0615 -0.0413
14522TIP3    H165057   4.775   6.528  10.687 -1.1368  1.4700 -0.3623
14522TIP3    H265058   4.686   6.589  10.794 -1.5675 -1.0437  0.7970
14523TIP3   OH265059   2.704   2.084  15.893  0.3752 -0.5265  0.1021
14523TIP3    H165060   2.783   2.115  15.937 -0.7860 -0.6495  2.4265
14523TIP3    H265061   2.717   1.989  15.885  0.7449 -0.4577 -0.1453
14524TIP3   OH265062   2.820   0.007  16.125  0.1638  0.1337  0.1080
14524TIP3    H165063   2.881  -0.061  16.154 -0.9434 -1.0677 -0.3019
14524TIP3    H265064   2.835   0.014  16.031  0.3422  0.5425  0.1638
14525TIP3   OH265065   5.753   2.011  12.017 -0.0895  0.0948 -0.0689
14525TIP3    H165066   5.660   2.025  11.999 -0.1519 -0.8516 -0.5416
14525TIP3    H265067   5.799   2.051  11.943 -0.1022  0.6794  0.2306
14526TIP3   OH265068   4.824   5.229   2.495  0.4104 -0.2393 -0.2212
14526TIP3    H165069   4.816   5.192   2.408 -3.0599 -0.2736 -0.0195
14526TIP3    H265070   4.742   5.276   2.509  2.2628  2.8132  1.7104
14527TIP3   OH265071   4.631   0.573   4.775 -0.7237 -0.3255  0.1003
14527TIP3    H165072   4.669   0.536   4.695 -0.7047 -1.3135  0.5572
14527TIP3    H265073   4.606   0.662   4.750  1.2984  0.1502 -0.4025
14528TIP3   OH265074   1.837   6.078  10.560  0.0361 -0.3750 -0.8740
14528TIP3    H165075   1.857   6.172  10.557 -1.9218  0.1026 -0.7045
14528TIP3    H265076   1.922   6.035  10.558  0.9723  1.3954 -1.3670
14529TIP3   OH265077   1.937   2.321   1.652  0.1427  0.5209  0.0178
14529TIP3    H165078   2.032   2.333   1.659  0.2044 -0.0850  0.3339
14529TIP3    H265079   1.928   2.237   1.606 -0.2435  0.7807 -0.3861
14530TIP3   OH265080   6.467   1.116  11.504 -0.0366  0.2944  0.2011
14530TIP3    H165081   6.379   1.124  11.468  0.2703 -2.4999 -1.4863
14530TIP3    H265082   6.468   1.029  11.545  1.8324  0.4138  0.4869
14531TIP3   OH265083   6.366   6.127  14.484 -0.3341 -0.2049  0.4773
14531TIP3    H165084   6.441   6.069  14.477 -1.3480 -1.4385 -0.6306
14531TIP3    H265085   6.370   6.183  14.406  0.3591  0.9244  1.2867
14532TIP3   OH265086   0.447   2.342  17.141  0.9008  0.0137 -0.2961
14532TIP3    H165087   0.428   2.384  17.225  0.3774  1.0185 -0.8908
14532TIP3    H265088   0.364   2.305  17.112  1.2722 -1.0973  0.0262
14533TIP3   OH265089   1.331   3.310  14.428  0.0432  0.0379 -0.0765
14533TIP3    H165090   1.297   3.293  14.340  0.2101  0.0875 -0.1530
14533TIP3    H265091   1.328   3.405  14.437 -1.0047 -0.0280  0.3938
14534TIP3   OH265092   5.713   3.543  12.896 -0.6012  0.1634 -0.3470
14534TIP3    H165093   5.753   3.573  12.978  0.7490  0.1336 -0.9631
14534TIP3    H265094   5.634   3.595  12.888 -0.9126 -0.0332  1.1129
14535TIP3   OH265095   5.258   4.777  10.936  0.2007  0.1465  0.1413
14535TIP3    H165096   5.245   4.843  10.869 -1.7075 -0.0607  0.2562
14535TIP3    H265097   5.204   4.703  10.908  0.0236 -0.2594  1.4706
14536TIP3   OH265098   4.806   5.295  11.903 -0.0862 -0.0556  0.2416
14536TIP3    H165099   4.797   5.203  11.878 -0.5859  0.5474 -2.0418
14536TIP3    H265100   4.880   5.296  11.964 -0.0120 -1.9465  0.2498
14537TIP3   OH265101   5.068   3.551   5.691  0.3355  0.0544  0.1982
14537TIP3    H165102   5.135   3.539   5.624  0.6151 -1.5013  0.7080
14537TIP3    H265103   5.097   3.496   5.764 -1.1127 -0.0545  0.7218
14538TIP3   OH265104   5.687   2.812   2.549 -0.5459 -0.4647  0.2108
14538TIP3    H165105   5.707   2.825   2.641  0.0623  2.4201 -0.2235
14538TIP3    H265106   5.722   2.725   2.529  2.0802  0.0334  2.0238
14539TIP3   OH265107   6.775   1.388   1.574  0.0099  0.0073 -0.3658
14539TIP3    H165108   6.701   1.398   1.633 -0.2012  0.5565 -0.7165
14539TIP3    H265109   6.738   1.348   1.495  0.1354  0.0462 -0.4446
14540TIP3   OH265110   4.211   4.075   2.238  0.1697  0.2066  0.0275
14540TIP3    H165111   4.159   4.017   2.182  0.6927 -0.2305 -0.0059
14540TIP3    H265112   4.302   4.054   2.217  0.3737 -0.1060  1.1973
14541TIP3   OH265113   2.780   3.059   4.140 -0.6063 -0.0079 -0.3500
14541TIP3    H165114   2.844   3.089   4.075 -0.0138 -0.5260 -0.0203
14541TIP3    H265115   2.695   3.083   4.103 -0.2686 -0.1047 -1.2089
14542TIP3   OH265116   6.663   5.622   1.533 -0.0171  0.2983  0.0917
14542TIP3    H165117   6.758   5.631   1.539  0.4102 -2.2355 -1.2383
14542TIP3    H265118   6.642   5.648   1.443 -0.6122  0.8508  0.3798
14543TIP3   OH265119   6.692   0.626  14.759 -0.5680  0.2693 -0.3100
14543TIP3    H165120   6.716   0.685  14.830 -0.7009  0.0046 -0.0435
14543TIP3    H265121   6.640   0.680  14.700 -0.4624  0.4886 -0.2032
14544TIP3   OH265122   0.077   4.570  17.461 -0.9876  0.2139  0.1653
14544TIP3    H165123   0.112   4.568  17.373  0.7649  1.5274  0.7808
14544TIP3    H265124   0.073   4.663  17.484  1.1587 -0.1257  2.3793
14545TIP3   OH265125   2.403   2.182  14.597 -0.9814  0.5740 -0.2988
14545TIP3    H165126   2.321   2.147  14.633 -0.7232  1.9229  1.7651
14545TIP3    H265127   2.374   2.244  14.529 -1.7234  1.3300  0.6766
14546TIP3   OH265128   6.753   1.912   0.171  0.0813 -0.5077 -0.1946
14546TIP3    H165129   6.690   1.894   0.102 -0.2872  2.0749 -0.6429
14546TIP3    H265130   6.838   1.897   0.131 -0.1501  0.4538 -1.0903
14547TIP3   OH265131   1.169   4.908   5.655 -0.6737 -0.3985 -0.7091
14547TIP3    H165132   1.089   4.957   5.636 -1.0668 -1.4717 -1.8937
14547TIP3    H265133   1.222   4.916   5.576  0.4211  0.2823  0.0506
14548TIP3   OH265134   5.963   3.307   6.132 -0.4526 -0.7049  0.3847
14548TIP3    H165135   5.881   3.351   6.153  0.1643  0.0004  1.5027
14548TIP3    H265136   5.990   3.344   6.048 -0.3138  0.5419  0.9586
14549TIP3   OH265137   3.102   1.688  15.048 -0.1601  0.4890 -0.0197
14549TIP3    H165138   3.186   1.688  15.001 -0.4775 -0.3460 -0.6091
14549TIP3    H265139   3.114   1.625  15.119 -0.2666  0.4072 -0.0735
14550TIP3   OH265140   1.281   5.634  11.563 -0.0747 -0.2247  0.2150
14550TIP3    H165141   1.191   5.616  11.534  0.3535  0.3039 -1.5291
14550TIP3    H265142   1.274   5.718  11.609 -0.6625 -0.7776  1.1696
14551TIP3   OH265143   5.034   2.610  14.892 -0.1073  0.1289 -0.7850
14551TIP3    H165144   4.975   2.684  14.877 -0.9844 -0.6320 -1.1650
14551TIP3    H265145   5.048   2.573  14.804  0.6162  0.0596 -0.6457
14552TIP3   OH265146   0.217   5.220   4.659  0.2578  0.4816  0.0542
14552TIP3    H165147   0.144   5.209   4.598  1.3839 -1.9848 -0.9794
14552TIP3    H265148   0.282   5.269   4.609  0.2421  0.6015  0.1509
14553TIP3   OH265149   6.271   2.236  15.616 -0.4859  0.3121 -0.3873
14553TIP3    H165150   6.246   2.258  15.706  2.6977  0.1941  0.6583
14553TIP3    H265151   6.249   2.314  15.565  0.2336  1.5081  1.0748
14554TIP3   OH265152   0.493   6.406   0.936 -0.4542  0.1675 -0.3857
14554TIP3    H165153   0.530   6.423   0.849  0.4359 -0.6286 -0.1858
14554TIP3    H265154   0.430   6.477   0.950 -0.2867  0.5535 -1.4937
14555TIP3   OH265155   2.052   3.909  17.409 -0.6638 -0.2434  0.0422
14555TIP3    H165156   2.001   3.855  17.470 -0.8717 -0.8442 -0.6580
14555TIP3    H265157   2.120   3.850  17.377  0.8149  0.6728  1.3282
14556TIP3   OH265158   2.038   5.707  11.689  0.1490  0.4232  0.6020
14556TIP3    H165159   2.003   5.771  11.627  1.9001  0.7035 -0.1524
14556TIP3    H265160   2.092   5.758  11.749  2.5238 -0.3842 -0.6989
14557TIP3   OH265161   1.997   6.576  10.588 -0.3369 -0.1219 -0.3432
14557TIP3    H165162   1.947   6.638  10.640 -0.7315 -0.4215 -0.3604
14557TIP3    H265163   2.086   6.612  10.585 -0.9624  1.4332 -1.9422
14558TIP3   OH265164   5.674   6.426  13.364 -0.7742  0.2401  0.4629
14558TIP3    H165165   5.640   6.472  13.441 -0.6436 -0.5843  1.0203
14558TIP3    H265166   5.651   6.483  13.291  0.0716  1.5832  1.2033
14559TIP3   OH265167   2.856   6.164  12.670  0.4338  0.1390 -0.4008
14559TIP3    H165168   2.941   6.177  12.713  0.2005 -3.9376  1.8126
14559TIP3    H265169   2.870   6.090  12.611 -0.9954  1.2604 -2.2737
14560TIP3   OH265170   6.594   2.110  15.106  0.1747 -0.5102 -0.0877
14560TIP3    H165171   6.584   2.058  15.026  0.1435  1.0369 -1.1352
14560TIP3    H265172   6.552   2.058  15.174 -0.5579 -1.4896 -1.2454
14561TIP3   OH265173   2.662   1.287  17.365  0.1809 -0.4537 -0.1854
14561TIP3    H165174   2.577   1.265  17.327 -0.0078  0.3186 -0.2379
14561TIP3    H265175   2.653   1.266  17.458 -0.2142  0.0157 -0.1133
14562TIP3   OH265176   6.556   4.125   1.773 -0.4695  0.5813  0.0316
14562TIP3    H165177   6.517   4.048   1.815  0.9465 -1.0203 -1.3938
14562TIP3    H265178   6.650   4.106   1.771 -0.0933  2.3144 -0.4857
14563TIP3   OH265179   5.472   3.817  15.138 -0.3577  0.3997 -0.3903
14563TIP3    H165180   5.544   3.776  15.089  0.4279  2.5488 -1.1546
14563TIP3    H265181   5.515   3.853  15.216 -1.0897 -0.4730  0.4338
14564TIP3   OH265182   1.583   5.342  15.378  0.4706 -0.1866 -0.3247
14564TIP3    H165183   1.545   5.407  15.438 -1.3640 -1.1857 -0.3243
14564TIP3    H265184   1.665   5.315  15.421  1.4245  2.2461 -0.4567
14565TIP3   OH265185   3.147   2.102  14.740  0.9025  0.0187  0.3289
14565TIP3    H165186   3.130   2.099  14.834  1.9985 -1.2053  0.5061
14565TIP3    H265187   3.111   2.187  14.712 -1.4315 -0.5357  1.4378
14566TIP3   OH265188   6.301   0.333   4.761  0.3370  0.1548  0.5540
14566TIP3    H165189   6.211   0.327   4.795 -0.1763  2.9975 -0.0493
14566TIP3    H265190   6.355   0.337   4.840 -0.3296  0.9639  0.9922
14567TIP3   OH265191   2.633   3.081  15.944  0.4010 -0.0167  0.1160
14567TIP3    H165192   2.706   3.023  15.922 -0.2513 -0.9798  0.4189
14567TIP3    H265193   2.665   3.130  16.020  2.0446  2.1617 -1.8391
14568TIP3   OH265194   1.246   2.187  16.785  0.0859 -0.2057  0.3217
14568TIP3    H165195   1.187   2.197  16.860 -1.5336 -1.1058 -0.7845
14568TIP3    H265196   1.245   2.093  16.766  0.5583  0.0012 -0.7714
14569TIP3   OH265197   6.308   0.063  11.361 -0.3886 -0.1242  0.1411
14569TIP3    H165198   6.331   0.156  11.351  1.5414 -0.5703  0.0902
14569TIP3    H265199   6.369   0.030  11.426 -1.2746 -1.3110  0.4164
14570TIP3   OH265200   3.437   2.654   4.815 -0.0798  0.4292 -0.5102
14570TIP3    H165201   3.342   2.653   4.828 -0.2647 -3.0145 -1.2682
14570TIP3    H265202   3.469   2.578   4.863  1.9816  0.1881 -2.1245
14571TIP3   OH265203   1.196   5.297  13.354  0.7684 -0.1461  0.1487
14571TIP3    H165204   1.114   5.255  13.381  1.9977 -2.0016  1.2361
14571TIP3    H265205   1.219   5.254  13.271  0.9172 -0.0416  0.1357
14572TIP3   OH265206   6.681   5.280   1.829  0.0617 -0.1428 -0.0160
14572TIP3    H165207   6.762   5.286   1.779 -0.6094  1.0211 -1.0060
14572TIP3    H265208   6.615   5.249   1.766 -0.7939  1.3466  0.0846
14573TIP3   OH265209   1.511   3.207   5.546  0.1394 -0.8341 -0.3333
14573TIP3    H165210   1.420   3.224   5.569 -0.1103 -0.7645 -1.3353
14573TIP3    H265211   1.561   3.234   5.624 -0.6227 -0.0998 -0.0825
14574TIP3   OH265212   3.007   2.803   3.170  0.3611 -0.2423  0.3329
14574TIP3    H165213   3.003   2.769   3.259  2.1196 -0.2349  0.4430
14574TIP3    H265214   2.982   2.895   3.179  1.6714  0.0705  1.0310
14575TIP3   OH265215   3.527   2.216  16.460 -0.1292  0.1628 -0.2565
14575TIP3    H165216   3.433   2.231  16.465  0.4073  4.0349  1.8386
14575TIP3    H265217   3.550   2.238  16.370 -1.1629 -0.7207 -0.7604
14576TIP3   OH265218   0.062   5.404  11.533  0.0266  0.0873  0.1049
14576TIP3    H165219   0.085   5.382  11.623 -1.3346  0.8216  0.6680
14576TIP3    H265220  -0.032   5.384  11.527  0.0590  0.2326 -1.0904
14577TIP3   OH265221   6.670   6.312  12.030 -0.0868 -0.0520  0.1372
14577TIP3    H165222   6.629   6.396  12.010  1.1813  0.5612  0.0065
14577TIP3    H265223   6.690   6.317  12.124  0.0614 -0.1715  0.1125
14578TIP3   OH265224   0.451   4.673   3.266 -0.5025  0.1874  0.1865
14578TIP3    H165225   0.463   4.647   3.174 -1.1515  0.4386  0.0250
14578TIP3    H265226   0.361   4.647   3.287 -0.1061 -0.5610  0.9961
14579TIP3   OH265227   2.114   6.662   1.272  0.1961 -0.4360  0.1821
14579TIP3    H165228   2.103   6.628   1.183  0.7804 -0.4722  0.1203
14579TIP3    H265229   2.028   6.651   1.312  0.0367 -0.8026 -0.2453
14580TIP3   OH265230   6.587   3.139  13.596 -0.1604 -0.4427 -0.1319
14580TIP3    H165231   6.668   3.093  13.576  0.6269  1.4020 -1.4272
14580TIP3    H265232   6.613   3.208  13.658 -1.1571 -1.1115  1.0892
14581TIP3   OH265233   4.507   2.819  13.660  0.0214  0.3503 -0.0410
14581TIP3    H165234   4.449   2.895  13.666 -1.7437 -0.9188 -0.2938
14581TIP3    H265235   4.556   2.832  13.579 -1.3972  0.4594 -0.9045
14582TIP3   OH265236   3.183   0.409   0.148 -0.2023 -0.0224 -0.4306
14582TIP3    H165237   3.151   0.493   0.115 -0.1656  0.4028  0.6010
14582TIP3    H265238   3.180   0.417   0.243 -0.7279 -1.3948 -0.3042
14583TIP3   OH265239   5.497   4.492  12.220  0.4038  0.0338 -0.1219
14583TIP3    H165240   5.449   4.497  12.302 -0.4707  0.6901 -0.6490
14583TIP3    H265241   5.437   4.529  12.155  1.4175  0.3740 -0.8965
14584TIP3   OH265242   3.588   0.627  15.310 -0.5213  0.1908 -0.3330
14584TIP3    H165243   3.509   0.634  15.364 -0.2951 -1.5384  0.2752
14584TIP3    H265244   3.557   0.634  15.220 -1.2479  0.3552 -0.0732
14585TIP3   OH265245   5.705   5.424  11.600  0.5090  0.2246 -0.4008
14585TIP3    H165246   5.660   5.451  11.520 -1.1008 -0.3855  0.2594
14585TIP3    H265247   5.699   5.501  11.658 -0.3819 -0.1024 -0.0415
14586TIP3   OH265248   6.320   2.960  17.000  0.4153  0.5884 -0.3202
14586TIP3    H165249   6.385   2.999  17.058 -0.0506  0.2138  0.4779
14586TIP3    H265250   6.248   3.022  16.999  0.3951  0.5644 -0.4557
14587TIP3   OH265251   2.215   6.383  14.357 -0.1887  0.4855 -0.3832
14587TIP3    H165252   2.189   6.301  14.314  2.0584  0.7773 -2.5493
14587TIP3    H265253   2.301   6.404  14.318  1.9894  1.0112  4.1187
14588TIP3   OH265254   3.701   4.988   6.103 -0.5266  0.7588  0.1697
14588TIP3    H165255   3.677   4.905   6.143 -1.3037  0.6362 -0.5232
14588TIP3    H265256   3.736   5.040   6.176 -0.8849  0.1588  0.7886
14589TIP3   OH265257   4.912   6.169   0.328 -1.0371  0.0269 -0.1478
14589TIP3    H165258   4.841   6.119   0.368  0.2835 -2.0621 -0.2467
14589TIP3    H265259   4.992   6.130   0.363  0.1016  1.5925 -0.8529
14590TIP3   OH265260   1.205   1.615   4.883  0.2629 -0.5258  0.0187
14590TIP3    H165261   1.293   1.600   4.918  1.0372 -0.4043 -1.7859
14590TIP3    H265262   1.211   1.697   4.835 -1.2115  0.1869  0.9623
14591TIP3   OH265263   2.057   0.489   4.396 -0.5522  0.0780  0.5727
14591TIP3    H165264   2.093   0.411   4.438  0.1367 -0.4019 -0.8640
14591TIP3    H265265   2.068   0.558   4.461  1.6830 -0.3681  0.7428
14592TIP3   OH265266   2.146   5.230  16.245 -0.2684 -0.3473  0.2233
14592TIP3    H165267   2.100   5.185  16.315  0.3924 -0.6652  0.4598
14592TIP3    H265268   2.178   5.311  16.286  1.2971 -1.1693  0.6804
14593TIP3   OH265269   5.181   2.887  14.384  0.1153  0.4086 -0.7306
14593TIP3    H165270   5.101   2.926  14.418 -0.1961  0.2168 -1.2304
14593TIP3    H265271   5.152   2.814  14.330  0.7842 -1.9260  1.8968
14594TIP3   OH265272   4.538   2.242   3.978 -0.1857  0.2330 -0.2209
14594TIP3    H165273   4.532   2.147   3.968  1.4110  0.0398  0.4887
14594TIP3    H265274   4.461   2.265   4.030 -0.8957 -0.5849 -0.8827
14595TIP3   OH265275   3.839   3.826   3.829  0.7566 -0.1325 -0.2617
14595TIP3    H165276   3.845   3.910   3.783  0.1952  0.2202  0.2783
14595TIP3    H265277   3.881   3.843   3.914 -1.1013  0.2161  0.6430
14596TIP3   OH265278   4.992   3.107  15.367  0.1366  0.5777 -0.0754
14596TIP3    H165279   4.937   3.179  15.336 -1.1621 -0.0558  0.6511
14596TIP3    H265280   4.952   3.082  15.450 -0.3208 -1.9057 -0.9800
14597TIP3   OH265281   5.226   6.521  13.475  0.4143 -0.1249 -0.4650
14597TIP3    H165282   5.253   6.440  13.520  1.2805  1.0239  1.1862
14597TIP3    H265283   5.205   6.581  13.546 -3.0597  0.2678 -1.6371
14598TIP3   OH265284   2.503   4.195   1.058 -0.5025 -0.4592  0.0951
14598TIP3    H165285   2.559   4.226   1.129 -1.1811 -0.9426  0.8731
14598TIP3    H265286   2.488   4.271   1.002  1.2481 -0.4254 -0.3620
14599TIP3   OH265287   5.652   1.970  14.992  0.2633 -0.4556  0.2429
14599TIP3    H165288   5.560   1.977  14.967  0.3253  0.3170  0.1987
14599TIP3    H265289   5.660   1.882  15.029 -0.4570 -0.5850  0.1147
14600TIP3   OH265290   2.132   3.584   3.428  0.2689 -0.6901 -0.3740
14600TIP3    H165291   2.193   3.630   3.485 -0.1347 -0.6795  0.0543
14600TIP3    H265292   2.184   3.560   3.351  1.1824 -1.9212  0.5791
14601TIP3   OH265293   4.464   1.920  13.101 -0.1856 -0.0628  0.4022
14601TIP3    H165294   4.392   1.982  13.115 -0.1491 -0.0851  0.6968
14601TIP3    H265295   4.421   1.836  13.085 -0.2182 -0.3285  1.7875
14602TIP3   OH265296   4.270   3.343  12.751  0.7650  0.1261 -0.4012
14602TIP3    H165297   4.364   3.352  12.767  0.8390  0.5901 -1.0886
14602TIP3    H265298   4.255   3.390  12.669 -0.4724  2.1281  0.9087
14603TIP3   OH265299   3.980   4.172   5.192  0.3563 -0.8762  0.4866
14603TIP3    H165300   3.984   4.132   5.279 -2.1526  0.1292  1.1813
14603TIP3    H265301   3.894   4.215   5.191  1.5844  1.7481 -1.3593
14604TIP3   OH265302   3.385   4.054  13.696 -1.1406 -0.0780  0.3823
14604TIP3    H165303   3.319   4.056  13.765 -1.5013 -1.3508  0.0929
14604TIP3    H265304   3.336   4.061  13.615 -0.7010  1.5953  0.2198
14605TIP3   OH265305   0.732   1.436   0.588 -0.0651  0.4047  0.5841
14605TIP3    H165306   0.704   1.347   0.609  1.5633 -0.1116  0.6669
14605TIP3    H265307   0.707   1.448   0.496  1.1055 -0.7364  0.0888
14606TIP3   OH265308   4.759   5.845   1.439  0.3168  0.0143 -0.7602
14606TIP3    H165309   4.712   5.916   1.482  1.4058  0.4449 -0.2649
14606TIP3    H265310   4.690   5.788   1.405 -0.5929 -0.1703  1.2469
14607TIP3   OH265311   1.368   2.515   2.624 -0.3570  0.1662  0.1112
14607TIP3    H165312   1.326   2.431   2.608  0.1766  0.4146 -3.2271
14607TIP3    H265313   1.459   2.493   2.644 -0.0445 -0.0802 -1.4671
14608TIP3   OH265314   1.867   5.956   3.710  0.6300 -0.4989 -0.1537
14608TIP3    H165315   1.823   6.032   3.748  0.3835 -0.2851 -0.8544
14608TIP3    H265316   1.811   5.929   3.637  0.5178 -1.5848  0.3154
14609TIP3   OH265317   5.983   3.514   1.198  0.4252 -0.3946 -0.3652
14609TIP3    H165318   5.967   3.592   1.251  0.8065  0.5741 -1.6261
14609TIP3    H265319   5.945   3.442   1.248  2.2646  0.1994  2.0481
14610TIP3   OH265320   5.138   5.403  12.361  0.2513  0.0889 -0.1817
14610TIP3    H165321   5.080   5.338  12.321  0.7680 -1.3372  1.2630
14610TIP3    H265322   5.091   5.432  12.440 -0.9064  3.1103 -1.8244
14611TIP3   OH265323   0.990   6.054  16.578 -0.1724 -0.1569 -0.3737
14611TIP3    H165324   0.956   5.976  16.534  2.5525 -1.2514 -0.7205
14611TIP3    H265325   1.009   6.026  16.667 -0.4915  0.5207 -0.0843
14612TIP3   OH265326   1.266   3.354   4.836 -0.8105  0.6437 -0.8103
14612TIP3    H165327   1.348   3.324   4.797 -0.7790  1.8140 -1.6950
14612TIP3    H265328   1.244   3.434   4.788 -3.2111 -0.3819 -1.5947
14613TIP3   OH265329   2.405   5.648  15.204  0.0303  0.2104  0.1539
14613TIP3    H165330   2.424   5.679  15.115  0.8851 -0.8488 -0.0439
14613TIP3    H265331   2.474   5.687  15.258  0.1783 -0.0693  0.1660
14614TIP3   OH265332   4.489   0.600  15.073 -0.5393 -0.6331  0.2287
14614TIP3    H165333   4.518   0.655  15.145  2.3380 -0.3473 -1.0175
14614TIP3    H265334   4.543   0.521  15.081 -2.5059 -2.0319  0.2488
14615TIP3   OH265335   2.235   4.665   4.304  0.4889  0.2938  0.2138
14615TIP3    H165336   2.228   4.622   4.389  0.2482 -4.1772 -1.8138
14615TIP3    H265337   2.329   4.676   4.290  0.5700  0.1239  0.6181
14616TIP3   OH265338   6.551   5.905   3.364  0.2176  0.3503 -0.1773
14616TIP3    H165339   6.471   5.908   3.311 -0.2777  1.1669  0.6024
14616TIP3    H265340   6.574   5.812   3.367 -1.2102  0.0000  0.3424
14617TIP3   OH265341   4.363   0.559   6.098  0.1776 -0.0335  0.1708
14617TIP3    H165342   4.438   0.618   6.099  0.7965 -0.8017 -0.0542
14617TIP3    H265343   4.348   0.537   6.190  0.6733 -0.4283  0.1593
14618TIP3   OH265344   0.004   1.278   0.177  0.2513  0.0428  0.0609
14618TIP3    H165345   0.007   1.244   0.087 -2.4454 -1.7396  0.5163
14618TIP3    H265346  -0.003   1.373   0.167  0.2111 -0.1073 -1.6205
14619TIP3   OH265347   0.896   6.687  13.248  0.4652  0.1910  0.1036
14619TIP3    H165348   0.879   6.727  13.334 -0.1712  0.8587 -0.3186
14619TIP3    H265349   0.988   6.708  13.230  0.6373 -0.0491  0.6617
14620TIP3   OH265350   4.987   0.400   1.434 -0.1267  0.3484 -0.5744
14620TIP3    H165351   4.904   0.412   1.389 -0.8036 -1.2940  0.1703
14620TIP3    H265352   5.047   0.462   1.391 -1.6965  1.5276 -1.1468
14621TIP3   OH265353   3.534   5.737  17.124 -0.2307 -0.1700  0.5267
14621TIP3    H165354   3.586   5.665  17.087 -0.2719  0.2429 -0.3781
14621TIP3    H265355   3.450   5.698  17.145 -0.7921 -0.0912 -1.3953
14622TIP3   OH265356   6.755   2.062  13.043  0.2973 -0.7131 -0.7354
14622TIP3    H165357   6.774   1.968  13.052 -0.6819 -1.2057 -3.0722
14622TIP3    H265358   6.682   2.077  13.103 -0.3282 -1.7481 -1.1997
14623TIP3   OH265359   5.593   2.274  14.130 -0.0593 -0.4142  0.0567
14623TIP3    H165360   5.598   2.262  14.225 -0.2495 -0.4359  0.0650
14623TIP3    H265361   5.629   2.193  14.094  1.3406  0.1603  0.1021
14624TIP3   OH265362   5.659   2.001  15.833 -0.5561 -0.0365 -0.0727
14624TIP3    H165363   5.671   1.926  15.891 -0.3407 -1.2145 -1.5700
14624TIP3    H265364   5.748   2.022  15.803 -0.8806 -1.7832 -2.6974
14625TIP3   OH265365   2.038   1.192   2.287 -0.0007 -0.0348 -0.2251
14625TIP3    H165366   1.988   1.265   2.325 -0.3308 -0.2292 -0.2797
14625TIP3    H265367   1.995   1.114   2.321  0.7024 -0.2085  0.2919
14626TIP3   OH265368   1.275   2.796  12.635  0.0664  0.2438  0.5096
14626TIP3    H165369   1.212   2.794  12.706  0.9366  0.7294  1.3249
14626TIP3    H265370   1.360   2.807  12.679  0.6331  0.3814 -0.5896
14627TIP3   OH265371   5.979   5.487  11.620 -0.3355 -0.0480  0.0539
14627TIP3    H165372   6.009   5.431  11.692  0.7585 -0.6079 -0.7982
14627TIP3    H265373   5.884   5.473  11.617 -0.7123  1.3641  2.5082
14628TIP3   OH265374   6.604   1.882   3.687  0.1543 -0.2704  0.1114
14628TIP3    H165375   6.509   1.875   3.688  0.1446 -0.7829  3.0116
14628TIP3    H265376   6.621   1.976   3.678 -0.5874 -0.2074 -0.7655
14629TIP3   OH265377   4.865   6.432   0.265  0.5285 -0.5008  0.0153
14629TIP3    H165378   4.903   6.355   0.308  0.2706 -0.1079  0.9491
14629TIP3    H265379   4.920   6.505   0.291 -0.7816  0.0688  1.3386
14630TIP3   OH265380   0.436   1.968  16.761 -0.3787 -0.3463 -0.4852
14630TIP3    H165381   0.461   2.010  16.679  0.4246 -0.2566 -0.2082
14630TIP3    H265382   0.399   1.884  16.734  0.8656 -0.7890 -0.9159
14631TIP3   OH265383   3.671   5.342  11.107  0.1832 -0.2568 -0.5040
14631TIP3    H165384   3.622   5.353  11.025 -3.3565 -0.3851  1.3648
14631TIP3    H265385   3.623   5.275  11.154  0.8791  1.1598  2.4560
14632TIP3   OH265386   4.491   5.528   5.082 -0.1921 -0.2026 -0.2591
14632TIP3    H165387   4.422   5.532   5.016 -0.0087  1.0320 -0.3930
14632TIP3    H265388   4.572   5.520   5.031  0.0824  2.1437 -0.3017
14633TIP3   OH265389   1.647   2.004   2.685 -0.5465 -0.4149  0.0139
14633TIP3    H165390   1.600   1.924   2.661 -1.1890 -0.5939  1.7167
14633TIP3    H265391   1.601   2.074   2.638 -0.8414 -0.8864 -0.4094
14634TIP3   OH265392   3.292   4.655   5.672 -0.1782 -0.3172  0.1424
14634TIP3    H165393   3.357   4.587   5.691 -1.5318 -1.1063  2.4460
14634TIP3    H265394   3.262   4.684   5.758 -0.8146  2.1102 -0.8099
14635TIP3   OH265395   1.284   1.382  12.072  0.2068 -0.5911 -0.2025
14635TIP3    H165396   1.218   1.370  12.139  0.1497 -0.1871 -0.1896
14635TIP3    H265397   1.367   1.382  12.119  0.0780  1.4259  0.0830
14636TIP3   OH265398   0.447   0.228  12.531 -0.1657 -0.2887  0.2588
14636TIP3    H165399   0.450   0.301  12.469 -0.7237  1.0437  1.7242
14636TIP3    H265400   0.357   0.230  12.564  0.0205 -1.2159  0.8244
14637TIP3   OH265401   4.220   1.465  14.483 -0.7115 -0.4738 -0.3095
14637TIP3    H165402   4.155   1.403  14.450 -1.4241  0.1732 -0.1665
14637TIP3    H265403   4.169   1.543  14.505  0.1910  0.2372 -0.6758
14638TIP3   OH265404   2.051   6.631   4.574  0.0726  0.8758 -0.1012
14638TIP3    H165405   2.130   6.667   4.615 -0.5018  1.4330  0.5486
14638TIP3    H265406   2.066   6.537   4.570  1.0291  1.0405 -0.5604
14639TIP3   OH265407   5.415   4.070   1.411 -0.3570  0.0845  0.7092
14639TIP3    H165408   5.489   4.126   1.435 -1.0250 -0.1752  3.7916
14639TIP3    H265409   5.451   4.009   1.347  1.7151  0.8269  1.0848
14640TIP3   OH265410   6.200   2.399  13.446 -0.4060  0.1958  0.6174
14640TIP3    H165411   6.134   2.351  13.496  1.3356 -1.6636  1.2660
14640TIP3    H265412   6.242   2.455  13.511 -0.9645  1.0038  0.3042
14641TIP3   OH265413   4.202   1.367  12.355 -0.0159  0.0291  0.2107
14641TIP3    H165414   4.258   1.433  12.314 -1.3603  0.7843 -0.4846
14641TIP3    H265415   4.158   1.414  12.426 -1.3367  0.0297 -0.5851
14642TIP3   OH265416   3.066   2.618  16.396  1.1130  0.1421  0.6871
14642TIP3    H165417   3.063   2.563  16.318  2.6730  1.3044 -0.2534
14642TIP3    H265418   3.083   2.557  16.468 -1.0343 -1.0332  0.2790
14643TIP3   OH265419   6.052   0.511   4.500 -0.2801  0.6041 -0.7586
14643TIP3    H165420   6.026   0.419   4.503 -1.5709  0.9553 -0.5452
14643TIP3    H265421   6.084   0.531   4.588  0.3422  0.2750 -0.9054
14644TIP3   OH265422   4.378   5.027  15.248 -0.3375  0.4765  0.1530
14644TIP3    H165423   4.354   5.064  15.333 -3.1509 -0.2259 -0.2465
14644TIP3    H265424   4.296   5.022  15.200  0.0678 -4.4393 -0.5572
14645TIP3   OH265425   6.743   0.749  11.506 -0.2679  0.2504 -0.0721
14645TIP3    H165426   6.747   0.654  11.517  0.0730  0.3239  0.4838
14645TIP3    H265427   6.692   0.762  11.427 -0.9438 -0.3760  0.2556
14646TIP3   OH265428   3.668   2.191   5.161 -0.5412 -0.0709  0.5088
14646TIP3    H165429   3.743   2.250   5.171  1.0834 -2.0663  0.6688
14646TIP3    H265430   3.658   2.150   5.248 -1.2744 -0.4359  0.2572
14647TIP3   OH265431   3.938   1.096  17.340 -0.2774 -0.7274  0.3537
14647TIP3    H165432   3.903   1.027  17.398  0.7216 -0.2455  1.5776
14647TIP3    H265433   4.004   1.052  17.287 -0.5969 -0.9903  0.1664
14648TIP3   OH265434   1.099   0.653  14.665  0.2015 -0.1888  0.0784
14648TIP3    H165435   1.044   0.629  14.740 -0.0305  0.9345  0.2835
14648TIP3    H265436   1.140   0.570  14.638 -2.9122 -1.4919 -1.2100
14649TIP3   OH265437   6.124   4.696  14.682  0.0592  0.1876  0.3659
14649TIP3    H165438   6.037   4.734  14.692 -0.2956 -0.6474  0.5736
14649TIP3    H265439   6.154   4.727  14.596 -1.3059 -1.1477 -0.6533
14650TIP3   OH265440   4.045   0.916   1.128 -0.2735 -0.2054  0.5181
14650TIP3    H165441   4.087   0.959   1.054 -0.8747 -2.2364 -1.0928
14650TIP3    H265442   3.956   0.950   1.130 -0.5629 -0.8785 -0.3630
14651TIP3   OH265443   5.250   0.036  17.175 -0.3833  0.2093  0.4978
14651TIP3    H165444   5.277   0.128  17.169 -0.0300  0.1012  0.3972
14651TIP3    H265445   5.184   0.035  17.244  1.0602  0.2105  1.9385
14652TIP3   OH265446   5.516   5.608  14.375  0.2716 -0.4094 -0.2159
14652TIP3    H165447   5.489   5.676  14.437  0.2926 -1.4747  0.9878
14652TIP3    H265448   5.597   5.642  14.336 -1.2933  1.6415 -1.9681
14653TIP3   OH265449   3.925   5.434   3.569  0.2449 -0.2272 -0.3169
14653TIP3    H165450   3.876   5.353   3.581  0.0155 -0.2713 -1.4535
14653TIP3    H265451   3.892   5.470   3.487 -0.6462  1.7340  0.8250
14654TIP3   OH265452   0.444   1.505   2.632 -0.1529 -0.2789  0.0834
14654TIP3    H165453   0.527   1.472   2.665  1.5530  1.0657 -2.4612
14654TIP3    H265454   0.460   1.599   2.619 -1.5428 -0.2373 -1.7764
14655TIP3   OH265455   2.116   0.316  13.506  0.3878 -0.2117  0.6563
14655TIP3    H165456   2.099   0.395  13.454  1.3237 -0.5323 -0.1679
14655TIP3    H265457   2.056   0.323  13.580 -2.4271 -0.6960 -1.4171
14656TIP3   OH265458   0.879   0.753   2.949 -0.3904  0.1069  0.2388
14656TIP3    H165459   0.893   0.688   3.018 -1.3553 -1.9728 -1.3931
14656TIP3    H265460   0.786   0.775   2.954 -0.4339  0.0645 -0.2661
14657TIP3   OH265461   2.253   4.305  16.312  0.2293 -0.3438  0.3523
14657TIP3    H165462   2.201   4.225  16.299  1.0053 -0.7466 -0.3841
14657TIP3    H265463   2.206   4.353  16.381 -1.3457 -0.4797 -0.5747
14658TIP3   OH265464   1.149   1.830  16.155 -0.5450 -0.2686  0.0866
14658TIP3    H165465   1.219   1.882  16.115  0.9958 -0.5897  2.2136
14658TIP3    H265466   1.185   1.741  16.161 -0.7734 -0.2887  1.8605
14659TIP3   OH265467   4.591   4.430  15.568  0.4786  0.1341 -0.6972
14659TIP3    H165468   4.644   4.508  15.552  1.5044 -1.0661 -3.9568
14659TIP3    H265469   4.625   4.395  15.651  2.3148  1.3199 -0.8866
14660TIP3   OH265470   5.605   0.261   0.404  0.2251  0.2669  0.1461
14660TIP3    H165471   5.544   0.307   0.461 -1.0075 -0.3354 -0.6517
14660TIP3    H265472   5.549   0.212   0.344  1.4377  1.2459 -1.8974
14661TIP3   OH265473   6.546   2.155   3.697  0.3250  0.0714  0.3186
14661TIP3    H165474   6.456   2.169   3.670  0.8436 -0.0704 -1.6535
14661TIP3    H265475   6.541   2.135   3.790 -1.8092 -1.3382 -0.0536
14662TIP3   OH265476   4.961   3.957  13.562  0.2761  0.4853  0.1372
14662TIP3    H165477   5.023   4.025  13.533 -0.6728  1.1706 -0.3582
14662TIP3    H265478   4.929   3.988  13.646 -0.4481  0.8674 -0.2680
14663TIP3   OH265479   0.230   0.156  13.370 -0.6430 -1.0291  0.1737
14663TIP3    H165480   0.191   0.236  13.407 -1.0215 -1.1071 -0.0458
14663TIP3    H265481   0.323   0.163  13.389 -0.0176  1.2167 -2.8816
14664TIP3   OH265482   2.670   4.400   4.493  0.4058 -0.0214  0.3174
14664TIP3    H165483   2.649   4.306   4.491  1.4752 -0.3639  2.0510
14664TIP3    H265484   2.654   4.425   4.584  0.6261  1.3709 -0.0106
14665TIP3   OH265485   2.884   1.655  11.475  0.3421 -0.4661  0.3713
14665TIP3    H165486   2.902   1.739  11.516 -0.7090  0.5005 -1.0743
14665TIP3    H265487   2.953   1.644  11.410 -0.3273 -0.0355 -0.4196
14666TIP3   OH265488   4.639   3.414  12.449  0.0597  0.1481 -0.3202
14666TIP3    H165489   4.555   3.460  12.444 -0.4391 -0.5170  1.2064
14666TIP3    H265490   4.674   3.439  12.535 -0.9440 -3.3561  1.3267
14667TIP3   OH265491   1.622   1.853  15.228  0.4373 -0.1131 -0.3624
14667TIP3    H165492   1.619   1.775  15.171  2.3724  0.5127 -1.4296
14667TIP3    H265493   1.650   1.819  15.313 -0.7133 -0.8344 -0.2548
14668TIP3   OH265494   1.312   2.653   5.773  0.0325 -0.1160  0.5851
14668TIP3    H165495   1.350   2.642   5.860  0.0840 -1.9999  0.3643
14668TIP3    H265496   1.223   2.620   5.782  0.2784 -1.0457 -0.2286
14669TIP3   OH265497   1.220   5.694  15.016  0.1363  0.4846  0.0293
14669TIP3    H165498   1.287   5.633  14.985 -0.1971  1.3211 -2.5370
14669TIP3    H265499   1.152   5.693  14.949 -2.5164 -0.2975  2.5273
14670TIP3   OH265500   4.628   3.696  10.406  0.4808 -0.3466  0.0254
14670TIP3    H165501   4.538   3.664  10.412  0.2148  0.3887  0.0732
14670TIP3    H265502   4.619   3.789  10.385  1.2644 -0.6872 -1.9726
14671TIP3   OH265503   0.196   2.366  13.553 -0.2361  0.2757 -0.3468
14671TIP3    H165504   0.160   2.403  13.635 -1.0768  2.1546 -1.4846
14671TIP3    H265505   0.283   2.334  13.577 -1.0077 -0.5207  1.5822
14672TIP3   OH265506   2.888   3.351   4.680  0.3123  0.3108 -0.3598
14672TIP3    H165507   2.945   3.296   4.627  0.1639 -0.0940 -0.0992
14672TIP3    H265508   2.834   3.290   4.730  0.7209  0.6777  0.5497
14673TIP3   OH265509   0.899   1.761   4.024  0.1802  0.0900 -0.2641
14673TIP3    H165510   0.818   1.810   4.014  0.6121  1.2162  1.4145
14673TIP3    H265511   0.877   1.689   4.084  0.4432  0.4716  0.2957
14674TIP3   OH265512   1.296   2.351  14.356 -0.2036 -0.2979 -0.0543
14674TIP3    H165513   1.357   2.280  14.333  0.7345  0.7508 -0.9531
14674TIP3    H265514   1.225   2.308  14.404  1.9538 -1.3853  2.4125
14675TIP3   OH265515   0.036   0.914  14.682 -0.0058  0.1060 -0.3766
14675TIP3    H165516   0.119   0.927  14.726 -0.1104 -2.4865  0.7663
14675TIP3    H265517   0.059   0.880  14.595  0.1408  0.9641 -0.6749
14676TIP3   OH265518   6.415   0.224   2.646  0.4338  0.2515 -0.2301
14676TIP3    H165519   6.496   0.204   2.693  0.2590  0.8111  0.3282
14676TIP3    H265520   6.431   0.311   2.609  0.6026 -0.2199 -1.2962
14677TIP3   OH265521   2.811   1.063  16.200  0.3182  0.6113 -0.0232
14677TIP3    H165522   2.738   1.011  16.234  0.2189  0.3264 -0.6536
14677TIP3    H265523   2.888   1.032  16.247  0.0702  0.7519  0.4838
14678TIP3   OH265524   1.638   3.622  14.831 -0.4325  0.0741  0.4706
14678TIP3    H165525   1.717   3.676  14.841 -2.2042  2.6556  1.9710
14678TIP3    H265526   1.629   3.611  14.737  1.5024  0.0361  0.2468
14679TIP3   OH265527   1.437   3.270   1.335  0.3022 -0.0478  0.0222
14679TIP3    H165528   1.410   3.291   1.425  0.7910 -1.7897  0.6323
14679TIP3    H265529   1.529   3.297   1.331  0.1318  0.5129 -0.1301
14680TIP3   OH265530   5.540   1.439  15.143  0.0254 -0.0989 -0.2807
14680TIP3    H165531   5.614   1.388  15.174 -0.4631 -0.3654  0.4894
14680TIP3    H265532   5.522   1.407  15.055  1.2405  0.4354 -0.7396
14681TIP3   OH265533   4.838   3.358  16.135  0.3461 -0.0563 -0.3960
14681TIP3    H165534   4.769   3.319  16.081 -1.0558  0.8832  0.6254
14681TIP3    H265535   4.845   3.299  16.210 -1.2871  1.1754  0.8076
14682TIP3   OH265536   5.826   5.624   0.941  0.2903 -0.4257 -0.4363
14682TIP3    H165537   5.797   5.543   0.899 -0.5959 -0.5322  0.3555
14682TIP3    H265538   5.878   5.596   1.016  0.5799 -0.2602 -0.5762
14683TIP3   OH265539   3.870   6.636   0.795  0.0227 -0.0517 -0.0284
14683TIP3    H165540   3.929   6.605   0.726  0.7460  2.2898 -0.5448
14683TIP3    H265541   3.799   6.679   0.748  0.4413  1.4371  0.6352
14684TIP3   OH265542   5.036   0.023  13.057  0.1141 -0.3459 -0.3458
14684TIP3    H165543   4.972   0.087  13.026 -1.5228 -0.8797  1.7095
14684TIP3    H265544   5.082   0.068  13.128  2.4423  0.1963 -2.1017
14685TIP3   OH265545   5.940   4.324  11.353  0.5231  0.8123  1.0231
14685TIP3    H165546   5.859   4.275  11.366 -0.2547  1.4997 -0.8993
14685TIP3    H265547   5.945   4.384  11.427 -1.2099  1.3860  0.7067
14686TIP3   OH265548   6.108   4.088   3.773  0.5808  0.6547 -0.4740
14686TIP3    H165549   6.144   4.161   3.722  0.6277  1.9791  1.3194
14686TIP3    H265550   6.108   4.121   3.863 -0.9530 -0.9828  0.1747
14687TIP3   OH265551   2.334   4.263   5.680 -0.1387 -0.1645  0.1338
14687TIP3    H165552   2.420   4.231   5.653  0.4366  1.8228 -0.4976
14687TIP3    H265553   2.314   4.334   5.619 -2.3931 -0.7762  0.0532
14688TIP3   OH265554   1.272   1.643   5.976  0.2665  0.2731  0.5876
14688TIP3    H165555   1.272   1.630   5.881 -0.5862  0.1215  0.5976
14688TIP3    H265556   1.349   1.596   6.007 -0.2108 -0.8462  0.1203
14689TIP3   OH265557   5.442   5.673   0.661 -0.5369 -0.1702 -0.5670
14689TIP3    H165558   5.381   5.663   0.588  0.3699 -0.6017 -1.2882
14689TIP3    H265559   5.481   5.760   0.648 -0.2393 -0.3229 -0.7123
14690TIP3   OH265560   0.024   6.155   3.616 -0.1177  0.0142  0.5498
14690TIP3    H165561   0.111   6.177   3.649 -0.1083 -0.1398  0.6306
14690TIP3    H265562   0.038   6.132   3.524  0.2281 -1.8033  1.0002
14691TIP3   OH265563   1.815   2.714  14.299  0.3048 -0.2299 -0.0581
14691TIP3    H165564   1.777   2.628  14.279  2.3446 -0.9214 -1.3132
14691TIP3    H265565   1.854   2.704  14.385 -0.2896 -0.2583  0.2099
14692TIP3   OH265566   3.011   5.683   1.890 -0.1039  0.2106  0.1570
14692TIP3    H165567   3.056   5.763   1.865 -0.6600 -0.5569 -4.0645
14692TIP3    H265568   2.922   5.711   1.910 -1.1400  0.6008 -4.1200
14693TIP3   OH265569   0.422   1.768  17.103 -0.4638 -0.3579 -0.5592
14693TIP3    H165570   0.440   1.862  17.104 -1.5305 -0.1419  0.4542
14693TIP3    H265571   0.463   1.734  17.183 -0.7610 -0.6254 -0.5186
14694TIP3   OH265572   3.626   0.445   2.209  0.1298  0.0452 -0.2067
14694TIP3    H165573   3.607   0.476   2.121 -1.5496 -0.1216  0.0627
14694TIP3    H265574   3.684   0.370   2.196 -0.3306 -0.1563 -1.1959
14695TIP3   OH265575   6.165   6.752  15.621 -0.6243  0.2072  0.0333
14695TIP3    H165576   6.187   6.663  15.595  0.3001  0.2981  0.4835
14695TIP3    H265577   6.086   6.773  15.570 -0.1060 -0.3934 -1.0540
14696TIP3   OH265578   3.121   2.663  14.236 -0.1393  0.1061  0.5770
14696TIP3    H165579   3.060   2.592  14.215 -1.0092  0.9591  0.1746
14696TIP3    H265580   3.095   2.735  14.179  1.2571  0.4908  0.3898
14697TIP3   OH265581   0.201   1.753   4.815  0.9667 -0.0893  0.1727
14697TIP3    H165582   0.133   1.810   4.780  0.5727 -0.2732  0.6256
14697TIP3    H265583   0.209   1.778   4.907  1.1176 -0.4452  0.2582
14698TIP3   OH265584   3.840   5.727  15.184 -0.2025 -0.5676  0.1245
14698TIP3    H165585   3.765   5.765  15.231 -0.8823 -0.4356 -1.0147
14698TIP3    H265586   3.916   5.772  15.220 -0.7877  0.2030  0.4341
14699TIP3   OH265587   0.418   1.838   1.598 -0.4127  0.3093 -0.0423
14699TIP3    H165588   0.329   1.847   1.630 -1.0158  0.8690 -1.7711
14699TIP3    H265589   0.442   1.926   1.568 -0.0529 -0.2272 -1.4332
14700TIP3   OH265590   3.410   6.294  13.087  0.1836 -0.2677  0.4644
14700TIP3    H165591   3.445   6.281  12.999  0.3323  0.8402  0.3537
14700TIP3    H265592   3.407   6.389  13.099  1.4218 -0.3996  2.1643
14701TIP3   OH265593   3.894   2.418  16.065 -0.4474  0.4712 -0.7502
14701TIP3    H165594   3.882   2.331  16.104 -2.5279  0.9137 -0.2766
14701TIP3    H265595   3.972   2.452  16.108 -1.0144 -0.2059  0.9246
14702TIP3   OH265596   6.278   2.997   3.158  0.1398  0.4342 -0.1619
14702TIP3    H165597   6.323   3.068   3.113  0.4054 -0.6230 -1.6104
14702TIP3    H265598   6.216   2.962   3.094 -2.4923  1.5330  1.6077
14703TIP3   OH265599   1.252   0.881   1.196  0.3225  0.2827 -0.6156
14703TIP3    H165600   1.181   0.897   1.257  0.7772 -0.2194  0.0563
14703TIP3    H265601   1.222   0.807   1.143  1.2950 -1.5822  1.2773
14704TIP3   OH265602   0.079   3.563  16.303  0.2081  0.1564  0.1040
14704TIP3    H165603   0.080   3.541  16.210  1.0477  0.4108  0.0547
14704TIP3    H265604   0.000   3.616  16.314  0.2682  0.3745 -0.5122
14705TIP3   OH265605   5.820   4.663  13.400  0.4503  0.0091 -0.6619
14705TIP3    H165606   5.734   4.697  13.424 -0.0119 -1.2105 -0.5443
14705TIP3    H265607   5.842   4.600  13.469  0.4697 -1.2727 -1.8040
14706TIP3   OH265608   0.753   0.341  15.793 -0.2842  0.1285  0.1579
14706TIP3    H165609   0.803   0.422  15.804 -1.0223  0.7413 -0.9151
14706TIP3    H265610   0.750   0.326  15.699 -0.1165 -1.1914  0.3350
14707TIP3   OH265611   1.593   4.376  15.628 -0.2032 -0.1966 -0.0823
14707TIP3    H165612   1.672   4.430  15.631 -0.9476  1.0948 -1.9994
14707TIP3    H265613   1.559   4.387  15.540 -2.5078 -0.7435  0.6573
14708TIP3   OH265614   4.316   6.590   0.822  0.0473 -1.0381 -0.5584
14708TIP3    H165615   4.313   6.546   0.737  0.5690 -0.8109 -0.7002
14708TIP3    H265616   4.402   6.566   0.857 -0.5591 -1.9663  0.3589
14709TIP3   OH265617   4.742   3.205  13.664  0.0722 -0.2704 -0.1030
14709TIP3    H165618   4.711   3.202  13.573 -1.6507 -1.8357  0.4821
14709TIP3    H265619   4.837   3.200  13.657  0.0542  0.9227 -1.8550
14710TIP3   OH265620   5.886   4.324   0.897 -0.1534 -0.2358 -0.1297
14710TIP3    H165621   5.804   4.279   0.919  0.3675 -0.6788  0.9874
14710TIP3    H265622   5.932   4.265   0.838  0.1546 -0.8273  0.6766
14711TIP3   OH265623   2.326   1.598   3.941  0.0111  0.5156 -0.0684
14711TIP3    H165624   2.239   1.582   3.905 -0.0118  0.4585  0.0116
14711TIP3    H265625   2.310   1.653   4.018  0.0786  0.8302 -0.2786
14712TIP3   OH265626   6.752   5.793  11.676  0.3263 -0.2577 -0.0361
14712TIP3    H165627   6.830   5.758  11.633 -0.8357 -0.8582 -1.7764
14712TIP3    H265628   6.774   5.884  11.696  0.7145  0.2997 -2.6298
14713TIP3   OH265629   5.151   4.181   3.305 -0.4023  0.2458 -0.0240
14713TIP3    H165630   5.112   4.152   3.387  0.5291  0.7673  0.6144
14713TIP3    H265631   5.101   4.135   3.237  0.0839 -1.7313  0.8970
14714TIP3   OH265632   6.247   0.769  15.280 -0.4232 -0.5251  0.2844
14714TIP3    H165633   6.232   0.692  15.224  0.2208  0.2403 -0.9939
14714TIP3    H265634   6.287   0.734  15.359 -0.3667 -1.5268 -0.1729
14715TIP3   OH265635   4.857   4.968  14.412 -0.0583 -0.4341  0.4286
14715TIP3    H165636   4.873   5.063  14.415  1.3598 -0.6807  1.3527
14715TIP3    H265637   4.915   4.932  14.478  0.4279 -2.1045 -0.8460
14716TIP3   OH265638   0.283   5.828   3.176 -0.2586 -0.1239 -0.1460
14716TIP3    H165639   0.302   5.910   3.131 -1.1929 -1.2144 -2.7218
14716TIP3    H265640   0.263   5.854   3.266  1.0166  2.2711 -0.4645
14717TIP3   OH265641   2.803   2.379   1.367 -0.2595 -0.4090 -0.9091
14717TIP3    H165642   2.834   2.371   1.457  1.0704  0.1261 -1.2940
14717TIP3    H265643   2.838   2.302   1.322  0.7317  0.2927 -1.3890
14718TIP3   OH265644   0.501   0.312   2.137 -0.4201 -0.1243 -0.3921
14718TIP3    H165645   0.416   0.282   2.169 -1.0460  0.2336 -1.6326
14718TIP3    H265646   0.503   0.283   2.046  0.3332  0.7899 -0.6791
14719TIP3   OH265647   2.504   0.959   1.485  0.0438 -0.2978 -0.1083
14719TIP3    H165648   2.540   0.974   1.397  0.9204 -1.1747  0.0839
14719TIP3    H265649   2.578   0.931   1.537 -0.9432 -2.5010  0.2268
14720TIP3   OH265650   2.700   3.235  16.163 -0.2530 -0.6290  0.1258
14720TIP3    H165651   2.663   3.231  16.252  0.2245 -0.6989  0.3228
14720TIP3    H265652   2.793   3.251  16.177  0.2174 -2.6859 -0.2940
14721TIP3   OH265653   4.908   2.508   2.673  0.4164 -0.1501  0.0747
14721TIP3    H165654   4.971   2.438   2.656  0.0140 -0.7750  1.0777
14721TIP3    H265655   4.911   2.520   2.768 -1.5746 -0.7857  0.2612
14722TIP3   OH265656   0.718   4.552   3.817 -0.1920  0.0047 -0.2175
14722TIP3    H165657   0.673   4.635   3.832  1.5493  0.7643  1.1495
14722TIP3    H265658   0.701   4.532   3.725 -1.7004  1.2011 -0.2426
14723TIP3   OH265659   5.069   2.480   1.911  0.0884  0.0166  0.0503
14723TIP3    H165660   5.106   2.562   1.878  0.3549 -0.6038 -1.2345
14723TIP3    H265661   5.090   2.480   2.004 -1.4063  2.2196  0.4703
14724TIP3   OH265662   3.106   3.690  13.493 -0.0522 -0.4588  0.0619
14724TIP3    H165663   3.060   3.751  13.551  0.9186  0.0669  0.3011
14724TIP3    H265664   3.199   3.706  13.510  0.2282 -1.4188 -0.4903
14725TIP3   OH265665   5.804   1.555  11.077  0.2181  0.3130 -0.2637
14725TIP3    H165666   5.843   1.469  11.060  1.3235  0.4728  1.2015
14725TIP3    H265667   5.712   1.536  11.096  0.7973 -0.8267  1.7802
14726TIP3   OH265668   2.870   0.402   6.425  0.3553 -0.7443  0.5465
14726TIP3    H165669   2.947   0.345   6.417  0.0818 -0.9835 -0.5812
14726TIP3    H265670   2.820   0.386   6.345 -0.5057 -0.0507  0.9298
14727TIP3   OH265671   3.885   2.101  14.265 -0.1226  0.1499  0.1750
14727TIP3    H165672   3.912   2.072  14.352  1.3494 -0.8566 -0.5883
14727TIP3    H265673   3.965   2.130  14.222 -0.9703  1.6309 -0.5207
14728TIP3   OH265674   6.258   2.314  14.834  0.7698  0.0450  0.3507
14728TIP3    H165675   6.302   2.391  14.870  0.3122  0.7816 -0.6125
14728TIP3    H265676   6.235   2.339  14.745 -3.1683  0.4307  1.2660
14729TIP3   OH265677   2.719   4.817  15.577 -0.5875 -0.2018 -0.7623
14729TIP3    H165678   2.754   4.784  15.494  1.1777  0.2101 -0.2165
14729TIP3    H265679   2.718   4.912  15.567  0.3837 -0.0991 -0.0630
14730TIP3   OH265680   4.011   6.521  15.589  0.2837  0.7721 -0.0730
14730TIP3    H165681   4.076   6.561  15.531 -0.9680  0.4765 -1.7535
14730TIP3    H265682   4.062   6.465  15.647  1.5586  0.7619 -1.1619
14731TIP3   OH265683   1.835   2.263  12.058  0.2585 -0.2466  0.4276
14731TIP3    H165684   1.817   2.355  12.041  0.3758 -0.4545 -0.9215
14731TIP3    H265685   1.911   2.243  12.003 -0.4727 -1.4319 -0.1878
14732TIP3   OH265686   5.518   5.548  12.576  0.2227  0.9207  0.4440
14732TIP3    H165687   5.563   5.490  12.515 -0.1038  0.1148  0.9441
14732TIP3    H265688   5.553   5.635  12.558  0.5019  0.6165 -0.5345
14733TIP3   OH265689   0.420   4.883  11.415 -0.1566 -0.1860 -0.6249
14733TIP3    H165690   0.415   4.975  11.389  0.2708 -0.4071 -1.5354
14733TIP3    H265691   0.417   4.835  11.332  0.7430 -0.9502 -0.2334
14734TIP3   OH265692   6.333   2.944   4.965 -0.0534 -0.5532  0.2729
14734TIP3    H165693   6.291   2.912   5.046  0.6103 -1.4151  0.2912
14734TIP3    H265694   6.423   2.963   4.991 -0.1600  0.3524  0.0087
14735TIP3   OH265695   5.452   3.814   0.539 -0.0899  0.3534  0.6034
14735TIP3    H165696   5.447   3.762   0.458 -1.6330  1.2530  0.0901
14735TIP3    H265697   5.445   3.905   0.510 -0.8477  0.6857  1.7600
14736TIP3   OH265698   5.974   4.391   0.225 -0.6531  0.0502 -0.2748
14736TIP3    H165699   5.975   4.296   0.215 -1.7447  0.0086 -0.1066
14736TIP3    H265700   6.066   4.416   0.222 -0.2013 -1.2140  1.6495
14737TIP3   OH265701   5.321   3.366   0.106 -0.7137  0.8606  0.5853
14737TIP3    H165702   5.282   3.360   0.019 -1.0994 -3.1383  0.8623
14737TIP3    H265703   5.263   3.315   0.162  0.8289  1.2993  2.6985
14738TIP3   OH265704   2.965   1.823  13.225  0.3883  0.0256 -0.4458
14738TIP3    H165705   3.059   1.829  13.210  0.2422  0.6240 -1.2056
14738TIP3    H265706   2.935   1.753  13.166  0.1964  0.6150 -1.0604
14739TIP3   OH265707   3.676   1.023  16.727 -0.0800 -0.0269  0.2056
14739TIP3    H165708   3.746   0.960  16.709 -1.9926 -2.2221 -0.1197
14739TIP3    H265709   3.680   1.037  16.821  1.6038  0.9538  0.0218
14740TIP3   OH265710   6.546   2.599   3.375 -0.8674  0.4868 -0.2833
14740TIP3    H165711   6.484   2.620   3.445 -1.3824  1.6785 -1.0683
14740TIP3    H265712   6.491   2.573   3.301 -0.3027 -2.8369  0.2931
14741TIP3   OH265713   0.445   1.112   0.858 -0.5548 -0.6640  0.2822
14741TIP3    H165714   0.414   1.085   0.944 -0.1431 -1.6155  0.1411
14741TIP3    H265715   0.461   1.206   0.867 -1.9038 -0.4631  0.8109
14742TIP3   OH265716   3.912   2.380   5.457  0.2391 -0.0800  0.0531
14742TIP3    H165717   3.947   2.294   5.483  1.0247 -0.1400 -1.1494
14742TIP3    H265718   3.962   2.443   5.509 -1.1608 -0.3401  1.8592
14743TIP3   OH265719   5.155   4.242   0.320  0.5185 -0.1787  0.4042
14743TIP3    H165720   5.187   4.321   0.363 -1.3550 -0.2117  2.0078
14743TIP3    H265721   5.077   4.270   0.273  0.6075 -0.8173 -0.1425
14744TIP3   OH265722   1.532   3.196   5.050 -0.5944  0.0475  0.1535
14744TIP3    H165723   1.555   3.227   5.137  2.5078 -1.5691  0.0429
14744TIP3    H265724   1.544   3.272   4.993  0.6014  0.2831  0.7123
14745TIP3   OH265725   2.070   2.311   0.532 -0.2483  0.1310  0.6679
14745TIP3    H165726   2.124   2.237   0.503  0.0959  1.5666 -2.9004
14745TIP3    H265727   1.981   2.287   0.504 -0.4120  0.3517  1.0041
14746TIP3   OH265728   3.490   1.308  11.042  0.0211 -0.2725 -0.0404
14746TIP3    H165729   3.406   1.318  10.998  0.7987 -0.6941 -1.6748
14746TIP3    H265730   3.520   1.398  11.056 -0.1648 -0.1323 -0.5218
14747TIP3   OH265731   2.542   0.321  12.641  0.2210  0.1320  0.1541
14747TIP3    H165732   2.497   0.238  12.626 -3.2304  2.0058 -0.9065
14747TIP3    H265733   2.551   0.326  12.736 -2.0206 -0.3229  0.4533
14748TIP3   OH265734   6.633   0.055  12.113 -0.2406 -1.2381 -0.3524
14748TIP3    H165735   6.601  -0.034  12.106 -0.9861 -1.0043  0.0240
14748TIP3    H265736   6.617   0.080  12.204 -0.6044 -0.5184 -0.6035
14749TIP3   OH265737   4.962   1.920   3.983  0.5258 -0.1089 -0.0901
14749TIP3    H165738   4.984   1.827   3.978  1.9357  0.2349 -0.8822
14749TIP3    H265739   4.873   1.926   3.949  1.4884 -0.8215 -2.9596
14750TIP3   OH265740   0.635   3.423   4.912  0.0116 -0.2410 -0.7576
14750TIP3    H165741   0.634   3.411   5.007 -0.4096  0.1796 -0.7041
14750TIP3    H265742   0.711   3.479   4.895 -0.0952 -0.0583 -0.6349
14751TIP3   OH265743   3.535   5.947  11.820  0.1490 -0.2045  0.5663
14751TIP3    H165744   3.468   5.940  11.752 -0.0081 -1.7524  0.8271
14751TIP3    H265745   3.608   5.991  11.777  0.3431 -1.8083 -0.8819
14752TIP3   OH265746   2.317   3.207   1.563  0.6241 -0.1735 -0.8291
14752TIP3    H165747   2.388   3.146   1.582  0.6516  0.0752 -0.1125
14752TIP3    H265748   2.359   3.292   1.560  0.5266 -0.1419 -1.4841
14753TIP3   OH265749   5.926   3.707  11.189  0.1820 -0.1518 -0.2775
14753TIP3    H165750   5.899   3.617  11.207 -0.4917  0.3965  1.6890
14753TIP3    H265751   5.995   3.699  11.122 -0.7280 -2.0034 -1.0595
14754TIP3   OH265752   1.665   1.664   2.088  0.3929 -0.0667 -0.0438
14754TIP3    H165753   1.628   1.694   2.005  2.1549 -0.8772 -1.1855
14754TIP3    H265754   1.632   1.727   2.153 -1.2310  0.4421 -1.2838
14755TIP3   OH265755   1.300   4.196  17.023  0.2518 -0.1306  0.3494
14755TIP3    H165756   1.274   4.123  17.080 -2.1814  1.2540  1.1806
14755TIP3    H265757   1.263   4.273  17.066  1.2545  1.3895 -1.4033
14756TIP3   OH265758   1.831   4.241  14.759 -0.3023  0.7049  0.0478
14756TIP3    H165759   1.801   4.232  14.849 -1.4737  1.1670 -0.2702
14756TIP3    H265760   1.811   4.332  14.737 -0.3739  0.4946 -0.7857
14757TIP3   OH265761   3.274   6.448   3.988  0.4641 -0.7461 -0.4626
14757TIP3    H165762   3.215   6.439   4.062 -0.2884  0.5449 -0.8748
14757TIP3    H265763   3.253   6.375   3.931  0.9128 -1.6335  0.4783
14758TIP3   OH265764   1.544   1.497  17.163  0.3026 -0.0544  0.2700
14758TIP3    H165765   1.598   1.491  17.084  1.1803  0.0180  0.8504
14758TIP3    H265766   1.455   1.510  17.131  0.8403  1.5555 -0.7076
14759TIP3   OH265767   4.226   2.731   0.279 -0.2164  0.0769 -0.2370
14759TIP3    H165768   4.214   2.636   0.277  0.8441 -0.0640 -1.5853
14759TIP3    H265769   4.170   2.763   0.208 -0.7345  0.4994  0.3491
14760TIP3   OH265770   1.844   6.768  15.490  0.2588  0.0666  0.1289
14760TIP3    H165771   1.750   6.767  15.475 -0.1602  1.4242  2.2172
14760TIP3    H265772   1.853   6.765  15.585  2.3419 -0.2053 -0.0268
14761TIP3   OH265773   1.327   0.039  13.548 -0.2105 -0.4563 -0.1680
14761TIP3    H165774   1.417   0.013  13.566 -0.1327 -0.3259 -0.3613
14761TIP3    H265775   1.278  -0.043  13.543 -0.0864 -0.5316 -0.1489
14762TIP3   OH265776   1.823   1.143  13.975 -0.6675 -0.0913  0.3274
14762TIP3    H165777   1.881   1.068  13.958  0.2550  1.1225 -2.5236
14762TIP3    H265778   1.850   1.176  14.060  0.9547 -1.2108  0.2862
14763TIP3   OH265779   3.880   2.408  13.507 -0.2844 -0.2430  0.2738
14763TIP3    H165780   3.803   2.438  13.459  0.8145  1.6199 -0.4029
14763TIP3    H265781   3.867   2.313  13.516 -1.9603 -0.1767 -1.0493
14764TIP3   OH265782   3.004   4.594  12.365  0.3754  0.0225  0.2854
14764TIP3    H165783   3.050   4.594  12.449  1.2657  0.0632 -0.1984
14764TIP3    H265784   3.067   4.559  12.302  0.6604  2.4952 -0.8906
14765TIP3   OH265785   1.998   3.475  14.150  0.0500  0.1686 -0.8877
14765TIP3    H165786   2.084   3.514  14.166  0.4585 -0.5668 -1.2665
14765TIP3    H265787   2.010   3.418  14.075 -0.8308  0.2334 -1.0971
14766TIP3   OH265788   1.518   1.584  16.265  0.1793 -0.3161  0.4304
14766TIP3    H165789   1.500   1.558  16.175  1.5785 -0.3544  0.1497
14766TIP3    H265790   1.612   1.600  16.268  0.0532  0.3440  1.7236
14767TIP3   OH265791   0.545   2.597   3.161 -0.3568  0.1253  0.1229
14767TIP3    H165792   0.452   2.576   3.161 -0.2373 -0.7971 -2.1641
14767TIP3    H265793   0.549   2.691   3.149 -0.9361  0.5755  2.8832
14768TIP3   OH265794   4.802   6.666  16.399  0.0678 -0.0683 -0.6353
14768TIP3    H165795   4.741   6.597  16.423  0.4000 -0.2075 -0.1666
14768TIP3    H265796   4.862   6.671  16.473  0.9704 -0.3235 -1.3309
14769TIP3   OH265797   0.430   3.525   6.093 -0.4659 -0.2011  0.2282
14769TIP3    H165798   0.471   3.538   6.178 -1.2979 -0.9244  0.7523
14769TIP3    H265799   0.502   3.532   6.030  0.0649  0.8928  0.9364
14770TIP3   OH265800   0.171   2.423   1.404 -0.3115  0.2936  0.7859
14770TIP3    H165801   0.234   2.493   1.423 -0.4910  0.3154  1.3139
14770TIP3    H265802   0.109   2.427   1.477 -0.2125 -0.5449  0.9157
14771TIP3   OH265803   3.447   5.314   2.693  0.2955  0.3056 -0.5014
14771TIP3    H165804   3.517   5.329   2.756 -0.0598 -1.2473  0.2883
14771TIP3    H265805   3.476   5.361   2.614  2.3341 -0.4660 -0.2682
14772TIP3   OH265806   2.430   0.735   3.974  0.2959 -0.2372 -0.5787
14772TIP3    H165807   2.343   0.697   3.987  0.7526 -0.7322  1.3155
14772TIP3    H265808   2.414   0.818   3.928 -1.5111  1.0716  2.1488
14773TIP3   OH265809   1.167   2.716   2.708 -0.5399 -0.5591  0.4974
14773TIP3    H165810   1.124   2.660   2.773  1.1249 -1.2898  1.0301
14773TIP3    H265811   1.233   2.659   2.668  0.3581  0.6825  0.1573
14774TIP3   OH265812   0.544   4.471  12.355 -0.1403 -0.5171 -0.1385
14774TIP3    H165813   0.592   4.550  12.382  1.6608 -1.0369 -1.6128
14774TIP3    H265814   0.531   4.422  12.437 -0.2967  0.7526  0.6356
14775TIP3   OH265815   5.657   6.058  16.758 -0.6373 -0.4592  0.3132
14775TIP3    H165816   5.594   6.045  16.687 -3.0388  0.6379  2.1409
14775TIP3    H265817   5.629   6.139  16.801  0.8555 -0.9773  2.4042
14776TIP3   OH265818   3.163   4.037   6.071  0.0535 -0.2912 -1.3853
14776TIP3    H165819   3.125   4.124   6.085 -0.8024 -0.7033 -1.1119
14776TIP3    H265820   3.114   4.001   5.997  0.4971 -0.4990 -1.5827
14777TIP3   OH265821   3.167   2.274   1.893  0.1786 -0.1048  0.6224
14777TIP3    H165822   3.091   2.330   1.885  0.5600  0.3419  0.0287
14777TIP3    H265823   3.222   2.316   1.959 -0.3236 -0.7160  1.4529
14778TIP3   OH265824   4.043   3.565  15.435  0.1736 -0.3289  0.6406
14778TIP3    H165825   4.047   3.470  15.425 -0.8600 -0.1797 -1.9349
14778TIP3    H265826   4.120   3.587  15.487  1.9512 -2.3269 -1.0035
14779TIP3   OH265827   1.154   2.642   1.456 -0.1814  0.8390  0.2600
14779TIP3    H165828   1.114   2.664   1.372  0.3714 -1.6797 -0.7733
14779TIP3    H265829   1.115   2.557   1.479 -0.1232  1.3621  2.4335
14780TIP3   OH265830   2.400   4.098  12.721 -0.2197 -0.5449 -0.2585
14780TIP3    H165831   2.454   4.177  12.724  0.9182 -1.3053 -0.2902
14780TIP3    H265832   2.408   4.061  12.808  1.1442 -1.8352 -0.8891
14781TIP3   OH265833   5.114   3.399  12.533  0.0189  0.0903 -0.0189
14781TIP3    H165834   5.054   3.327  12.511 -0.6924  0.4426  0.7427
14781TIP3    H265835   5.085   3.472  12.477 -1.1235  0.6640  1.2767
14782TIP3   OH265836   4.346   6.114   6.723 -0.6075  0.2387  0.6606
14782TIP3    H165837   4.274   6.145   6.777 -1.2413 -0.0585 -0.0099
14782TIP3    H265838   4.305   6.080   6.644  0.3866  1.9892 -0.6646
14783TIP3   OH265839   4.219   3.096   4.566  0.2876 -0.3071  0.1891
14783TIP3    H165840   4.230   3.172   4.624 -2.1082  0.6357 -0.4886
14783TIP3    H265841   4.126   3.094   4.546  0.7078 -1.8711 -1.9609
14784TIP3   OH265842   3.225   3.760  13.214 -0.7360 -0.7071 -0.3729
14784TIP3    H165843   3.216   3.735  13.306 -1.3913 -1.2733 -0.5888
14784TIP3    H265844   3.145   3.729  13.173 -0.3719 -0.5975 -1.1722
14785TIP3   OH265845   3.799   6.488  12.352 -0.4813 -0.6371 -0.8517
14785TIP3    H165846   3.749   6.412  12.323 -0.2556 -0.4010 -1.9158
14785TIP3    H265847   3.733   6.556  12.368 -0.6193 -0.8155 -0.6531
14786TIP3   OH265848   6.067   2.311   3.571 -0.3110 -0.4486  0.1019
14786TIP3    H165849   6.150   2.298   3.525  0.7190  0.9757  1.4624
14786TIP3    H265850   6.004   2.262   3.519  1.2597 -1.0890 -1.3195
14787TIP3   OH265851   4.564   4.945  10.499  0.1443  0.4770  0.0052
14787TIP3    H165852   4.615   5.025  10.513 -1.8515  1.7782  0.0971
14787TIP3    H265853   4.477   4.966  10.531  0.2159 -2.7071  2.7609
14788TIP3   OH265854   6.203   1.489   5.059 -0.1862 -0.2335 -0.1728
14788TIP3    H165855   6.248   1.409   5.032 -1.1084 -0.7085 -0.3624
14788TIP3    H265856   6.248   1.516   5.139 -1.4616 -2.4222  1.4111
14789TIP3   OH265857   0.328   3.905   4.336  0.4101  0.3603 -0.5573
14789TIP3    H165858   0.303   3.980   4.282  0.4939  0.2516 -0.7462
14789TIP3    H265859   0.252   3.890   4.393 -0.1739 -0.2983 -1.4916
14790TIP3   OH265860   0.652   2.535   2.022 -0.2627 -0.5686  0.6143
14790TIP3    H165861   0.660   2.597   2.095  1.4015  0.1605 -0.1288
14790TIP3    H265862   0.740   2.499   2.012 -0.9821 -2.3371  0.3768
14791TIP3   OH265863   4.271   3.402   6.267 -0.5736  0.0873 -0.1103
14791TIP3    H165864   4.253   3.333   6.332 -1.8507  0.5661  0.0830
14791TIP3    H265865   4.320   3.469   6.315  0.8531 -0.7432 -0.3478
14792TIP3   OH265866   2.184   6.697  17.232  0.2034  0.2223 -0.5035
14792TIP3    H165867   2.191   6.707  17.137 -2.2785 -0.5029 -0.8615
14792TIP3    H265868   2.260   6.645  17.257  2.8712  3.3653 -1.4601
14793TIP3   OH265869   1.699   0.831   6.562  0.0254 -0.1656 -0.1605
14793TIP3    H165870   1.766   0.763   6.553  0.3640  0.3123 -1.4679
14793TIP3    H265871   1.739   0.910   6.526 -0.1487  0.9042  1.8721
14794TIP3   OH265872   0.247   2.633  16.698  0.2019 -0.0416 -0.2965
14794TIP3    H165873   0.202   2.654  16.780  0.0000 -2.3113  0.2667
14794TIP3    H265874   0.197   2.679  16.631 -1.2290 -0.1814  0.6138
14795TIP3   OH265875   1.065   1.428  13.741 -0.0295 -0.1001 -0.0227
14795TIP3    H165876   1.146   1.479  13.739  0.1741 -0.3647  0.8297
14795TIP3    H265877   1.089   1.342  13.706  0.2721 -0.4368  0.9578
14796TIP3   OH265878   4.359   3.848  12.701  0.3036 -0.2416  0.2717
14796TIP3    H165879   4.358   3.923  12.761 -1.0873 -1.8653  2.4189
14796TIP3    H265880   4.315   3.881  12.622  1.0331  1.5950  0.5689
14797TIP3   OH265881   1.639   6.073  14.871 -0.5447  0.2526 -0.3992
14797TIP3    H165882   1.553   6.099  14.839 -0.3638  0.7734 -0.4737
14797TIP3    H265883   1.647   5.981  14.846 -1.4529 -0.0690  0.4377
14798TIP3   OH265884   1.045   1.131  13.130  0.2007 -0.2777  0.0217
14798TIP3    H165885   1.083   1.044  13.120  0.0416 -0.4091  0.5029
14798TIP3    H265886   1.097   1.172  13.199  0.2211 -0.0221 -0.1454
14799TIP3   OH265887   1.918   4.482   6.041 -0.5737  0.1914 -0.5773
14799TIP3    H165888   1.984   4.514   5.979 -1.4062 -0.0440 -1.6019
14799TIP3    H265889   1.881   4.562   6.079 -1.4322  0.4284 -1.8502
14800TIP3   OH265890   5.251   1.170  12.266  0.2117  0.5090  0.5050
14800TIP3    H165891   5.248   1.098  12.329 -0.2890 -1.3508 -1.5192
14800TIP3    H265892   5.179   1.153  12.206  0.7470  2.1009 -0.6727
14801TIP3   OH265893   6.343   6.267  11.845  0.2617  0.0915  0.7052
14801TIP3    H165894   6.339   6.267  11.749 -0.1383 -1.0745  0.7133
14801TIP3    H265895   6.402   6.195  11.867  1.1087  0.9550  1.3247
14802TIP3   OH265896   5.923   4.261  17.429 -0.4833  0.6925  0.7505
14802TIP3    H165897   6.006   4.262  17.478  0.5354 -2.2434 -0.6609
14802TIP3    H265898   5.865   4.206  17.482 -0.4827  0.2491  0.3010
14803TIP3   OH265899   0.115   6.059   4.479 -0.0208 -0.0783  0.9009
14803TIP3    H165900   0.184   6.123   4.492  1.3864 -1.3374 -0.0780
14803TIP3    H265901   0.142   6.009   4.402 -0.8963 -2.0230  1.7867
14804TIP3   OH265902   6.467   0.184   3.281 -0.1187  0.0197  0.8281
14804TIP3    H165903   6.510   0.196   3.365 -1.0704  1.3885  1.1575
14804TIP3    H265904   6.490   0.262   3.231  0.9016 -1.0405 -0.4270
14805TIP3   OH265905   3.075   6.167  16.137  0.3279 -0.3345  0.7789
14805TIP3    H165906   3.115   6.147  16.221  1.0180  1.9207  1.0638
14805TIP3    H265907   3.147   6.160  16.074  0.2630 -0.1532  0.6838
14806TIP3   OH265908   1.390   1.354  14.369 -0.2906  0.4524 -0.6313
14806TIP3    H165909   1.358   1.267  14.348 -0.0188 -0.4964  2.4005
14806TIP3    H265910   1.313   1.402  14.398  0.0959 -0.1421  1.5655
14807TIP3   OH265911   5.595   2.841   0.658  0.0638  0.1856  0.7270
14807TIP3    H165912   5.527   2.862   0.595 -0.0714  1.7732  1.3510
14807TIP3    H265913   5.673   2.884   0.625 -0.0398  1.1396  1.6899
14808TIP3   OH265914   1.764   0.189   3.923 -0.1608  0.4114  0.0840
14808TIP3    H165915   1.791   0.106   3.885 -1.0720 -0.1082  0.5303
14808TIP3    H265916   1.824   0.254   3.886 -0.0088 -0.3076 -0.9576
14809TIP3   OH265917   2.852   0.985  17.409  0.2038  0.5320  0.0993
14809TIP3    H165918   2.941   0.965  17.439 -0.2230 -1.0434  0.3900
14809TIP3    H265919   2.859   1.073  17.371  1.7428  0.6929  0.6855
14810TIP3   OH265920   6.662   6.411   5.330 -0.2615  0.5612 -0.8917
14810TIP3    H165921   6.674   6.359   5.251 -0.0320 -2.0220  0.7395
14810TIP3    H265922   6.740   6.393   5.383 -0.5501  1.9965  0.0908
14811TIP3   OH265923   4.438   3.624   4.499  0.3450  0.0592 -0.3885
14811TIP3    H165924   4.449   3.629   4.594 -1.3651 -0.4510 -0.1282
14811TIP3    H265925   4.397   3.707   4.475 -3.0954 -1.3561  0.0007
14812TIP3   OH265926   6.524   2.778  12.237  0.1753 -0.3858 -0.0480
14812TIP3    H165927   6.598   2.788  12.296  0.4395  1.3809 -0.6187
14812TIP3    H265928   6.453   2.828  12.279  0.4631  1.1676 -1.3138
14813TIP3   OH265929   5.770   1.021  11.537 -0.0137  0.0298  0.1085
14813TIP3    H165930   5.835   1.071  11.587  2.0085 -1.4847 -0.8182
14813TIP3    H265931   5.732   0.960  11.601 -0.9262  1.2634  0.7721
14814TIP3   OH265932   6.764   0.740   4.191 -0.0917  0.1263  0.0794
14814TIP3    H165933   6.727   0.818   4.231 -1.1896 -0.6623  0.6566
14814TIP3    H265934   6.709   0.668   4.223  0.1537 -0.7464 -1.3871
14815TIP3   OH265935   0.499   3.846  13.632  0.3078 -0.0983 -0.0420
14815TIP3    H165936   0.477   3.772  13.575  0.4405 -0.1651 -0.0059
14815TIP3    H265937   0.449   3.831  13.712  0.2147 -0.0681 -0.0951
14816TIP3   OH265938   6.634   0.233   3.529 -0.1682  0.1630  0.1674
14816TIP3    H165939   6.619   0.278   3.612  0.7840  0.2395  0.3082
14816TIP3    H265940   6.638   0.304   3.464 -1.5437  0.0606 -0.0549
14817TIP3   OH265941   3.490   6.723  11.663  0.2317 -0.8201  0.1055
14817TIP3    H165942   3.434   6.743  11.588 -1.1769 -0.1393  1.2837
14817TIP3    H265943   3.430   6.688  11.729  1.2504 -0.4454  1.2758
14818TIP3   OH265944   3.315   0.665   4.756 -0.8746 -0.1846  0.3575
14818TIP3    H165945   3.292   0.728   4.825 -0.8568 -0.4059  0.5649
14818TIP3    H265946   3.362   0.717   4.691 -0.8722  0.0200  0.5232
14819TIP3   OH265947   3.017   6.523   4.106  0.0336 -0.1882 -0.2395
14819TIP3    H165948   2.996   6.526   4.013 -0.4223 -0.1365 -0.1331
14819TIP3    H265949   2.946   6.571   4.149 -0.8086 -1.8687  0.3239
14820TIP3   OH265950   4.602   0.980   3.237  0.3932 -0.0818  0.1959
14820TIP3    H165951   4.686   1.009   3.274  0.1998 -0.1426  0.6987
14820TIP3    H265952   4.622   0.953   3.148  0.8542  0.1869  0.2169
14821TIP3   OH265953   2.026   5.669   2.239  0.1666 -0.4392  0.2503
14821TIP3    H165954   2.041   5.762   2.225  1.3966 -0.6819 -0.2049
14821TIP3    H265955   1.948   5.649   2.187  1.1137 -0.0680 -1.4027
14822TIP3   OH265956   2.999   0.561   4.850 -0.1108 -0.2979  0.5564
14822TIP3    H165957   3.044   0.640   4.818  0.7131 -1.0345 -0.1784
14822TIP3    H265958   3.056   0.529   4.920 -0.4532 -0.2277  0.8648
14823TIP3   OH265959   1.038   5.741   2.630  0.1108  0.0080  0.2044
14823TIP3    H165960   1.046   5.652   2.665  1.2312 -0.2428 -0.6219
14823TIP3    H265961   1.031   5.797   2.707 -0.0736 -0.7414  0.7469
14824TIP3   OH265962   4.369   3.969  11.677  0.2671  0.0259  0.5736
14824TIP3    H165963   4.402   3.984  11.588  1.2643 -1.7484  0.6054
14824TIP3    H265964   4.426   4.022  11.733  0.6230 -0.0640  0.2981
14825TIP3   OH265965   0.376   2.079   2.260  0.0469  0.1027  0.3075
14825TIP3    H165966   0.284   2.055   2.272  0.3682 -1.6110 -0.4871
14825TIP3    H265967   0.421   2.042   2.336  0.1717  0.5597  0.4652
14826TIP3   OH265968   1.390   4.639   1.485  0.1163 -0.2836 -0.3188
14826TIP3    H165969   1.414   4.720   1.439  1.2841  0.2200  1.1111
14826TIP3    H265970   1.464   4.623   1.544 -1.2815 -0.9676  1.2940
14827TIP3   OH265971   2.769   6.228   3.051  0.8103  0.4902  0.3025
14827TIP3    H165972   2.753   6.249   3.143  0.1471 -0.0253  0.3045
14827TIP3    H265973   2.812   6.143   3.053  0.9133  0.5370  0.1391
14828TIP3   OH265974   2.466   3.921  16.981 -0.1456  0.0858  0.1545
14828TIP3    H165975   2.530   3.877  16.926 -0.4745  0.4619 -0.5335
14828TIP3    H265976   2.407   3.964  16.920 -1.2484 -0.5042  0.7607
14829TIP3   OH265977   1.060   6.545  14.986 -0.0273 -0.0673 -0.2678
14829TIP3    H165978   1.154   6.555  15.003  0.1404 -0.6120 -0.8354
14829TIP3    H265979   1.033   6.473  15.043  0.2065 -0.8503 -1.1192
14830TIP3   OH265980   3.690   1.768   1.848 -0.5348 -0.4113  0.0898
14830TIP3    H165981   3.681   1.862   1.833 -1.2966 -0.2788  1.2483
14830TIP3    H265982   3.633   1.750   1.923  1.7061 -1.2846  1.7137
14831TIP3   OH265983   0.897   1.597  14.343 -0.0636  0.0317  0.4144
14831TIP3    H165984   0.833   1.643  14.289  1.5498  1.1026 -0.6706
14831TIP3    H265985   0.844   1.539  14.398 -1.8529 -0.7080 -1.9079
14832TIP3   OH265986   2.123   2.307   3.524 -0.3709  1.1113 -0.2527
14832TIP3    H165987   2.200   2.308   3.466  0.1217  0.4909  0.3789
14832TIP3    H265988   2.082   2.222   3.508 -0.2666  0.9615  0.2537
14833TIP3   OH265989   5.160   4.022  13.834 -0.9613  0.2676 -0.5208
14833TIP3    H165990   5.160   3.947  13.894 -2.5218  0.7172  0.0969
14833TIP3    H265991   5.230   4.079  13.868 -1.3518  0.1879  0.4670
14834TIP3   OH265992   3.654   1.051   2.389 -0.0973 -0.4551  0.2299
14834TIP3    H165993   3.657   0.955   2.390 -0.4467 -0.4700  1.5052
14834TIP3    H265994   3.707   1.076   2.313 -0.8351 -1.6790 -0.7220
14835TIP3   OH265995   2.958   6.057  12.053  0.9998 -0.1620  0.1880
14835TIP3    H165996   2.983   5.966  12.070  0.0329 -0.6064 -0.6522
14835TIP3    H265997   2.897   6.052  11.979  1.1133  1.1964 -0.0241
14836TIP3   OH265998   2.351   6.266  13.100  0.1612  0.7755  0.7811
14836TIP3    H165999   2.365   6.318  13.020  1.8570 -1.0993 -0.2209
14836TIP3    H266000   2.439   6.244  13.130 -0.3786 -3.2965 -0.1178
14837TIP3   OH266001   3.022   5.147   4.885 -0.0114  0.1831 -0.1012
14837TIP3    H166002   2.934   5.150   4.923 -0.0043 -0.8907  0.0269
14837TIP3    H266003   3.009   5.165   4.792 -0.1686  1.6191  0.1743
14838TIP3   OH266004   5.493   2.522  13.027  0.1506 -0.1311 -0.3949
14838TIP3    H166005   5.431   2.542  13.097  1.5745 -0.4291  1.0111
14838TIP3    H266006   5.455   2.448  12.981 -1.3256  0.7378 -0.6348
14839TIP3   OH266007   5.612   2.158   4.422  0.0127 -0.3726  0.2029
14839TIP3    H166008   5.580   2.241   4.387  0.2693 -0.8834 -1.3160
14839TIP3    H266009   5.642   2.179   4.511  0.3449  1.2213 -0.2563
14840TIP3   OH266010   5.475   5.358   3.747 -0.3762  0.1841  0.2760
14840TIP3    H166011   5.473   5.281   3.690 -0.6532 -0.5284  1.2101
14840TIP3    H266012   5.386   5.393   3.744 -0.0919  0.8667 -0.6483
14841TIP3   OH266013   1.182   3.946   3.187  0.0082 -0.7046 -0.4594
14841TIP3    H166014   1.260   3.911   3.232 -0.7347 -2.2863 -0.3414
14841TIP3    H266015   1.213   3.967   3.099  0.4992 -1.6747 -0.5329
14842TIP3   OH266016   2.676   0.150  12.407  0.0526 -0.1517  0.2330
14842TIP3    H166017   2.652   0.196  12.326 -0.2640 -1.5749 -0.5177
14842TIP3    H266018   2.769   0.169  12.419  0.3663 -0.8035 -1.0728
14843TIP3   OH266019   1.963   3.308  15.319  0.1024 -0.2145  0.2295
14843TIP3    H166020   1.985   3.349  15.235  1.1780  0.3473  0.7733
14843TIP3    H266021   1.928   3.378  15.372 -0.0821 -0.4567  0.4292
14844TIP3   OH266022   5.612   5.843  13.722  0.1662  0.0746 -0.1687
14844TIP3    H166023   5.541   5.823  13.783  0.1668  2.4929  0.7434
14844TIP3    H266024   5.567   5.874  13.643  0.1634  1.2201  0.2640
14845TIP3   OH266025   1.692   1.704   1.524  0.0370  0.3298 -0.0100
14845TIP3    H166026   1.760   1.702   1.591 -0.1205  1.7790  0.2086
14845TIP3    H266027   1.699   1.619   1.480  0.8793 -0.1884  1.0975
14846TIP3   OH266028   1.436   4.128  15.308 -0.7221  0.1747  0.7701
14846TIP3    H166029   1.483   4.049  15.335  1.2226  0.1836 -2.2084
14846TIP3    H266030   1.382   4.100  15.235 -1.0126  1.3550  0.5180
14847TIP3   OH266031   1.079   2.511   5.507  0.0124  0.1673 -0.2529
14847TIP3    H166032   1.144   2.577   5.483 -1.0193  1.0936 -0.5601
14847TIP3    H266033   1.000   2.538   5.461 -0.8101 -0.5086  0.7338
14848TIP3   OH266034   3.015   0.348  17.260 -0.1615  0.4353  0.5350
14848TIP3    H166035   2.926   0.368  17.291 -0.9273  2.7813 -2.6757
14848TIP3    H266036   3.065   0.427  17.281  0.1629  0.6491 -0.9724
14849TIP3   OH266037   5.120   1.770   3.298 -0.0163 -0.1242  0.2126
14849TIP3    H166038   5.068   1.847   3.321 -1.0486 -0.6549 -0.2741
14849TIP3    H266039   5.206   1.787   3.334 -0.7199  0.4702  1.6704
14850TIP3   OH266040   0.469   2.747  10.657 -0.7069 -0.1223 -0.2580
14850TIP3    H166041   0.508   2.827  10.692 -1.3874  0.0372  0.1621
14850TIP3    H266042   0.472   2.758  10.562 -0.1397  0.0733 -0.2235
14851TIP3   OH266043   6.137   4.835   5.806 -0.5012 -0.1987  0.2311
14851TIP3    H166044   6.048   4.802   5.822 -0.6001  0.0962  0.2963
14851TIP3    H266045   6.187   4.806   5.882  0.1860 -2.8892 -1.0952
14852TIP3   OH266046   1.607   1.279  15.071  0.1733  0.8218  0.2611
14852TIP3    H166047   1.625   1.255  14.980  0.2408 -0.0328  0.4840
14852TIP3    H266048   1.678   1.339  15.095 -0.6742  2.2485 -0.6853
14853TIP3   OH266049   3.684   2.474   1.739  0.9269  0.9470 -0.1457
14853TIP3    H166050   3.703   2.550   1.794 -0.1592  1.3256 -0.2812
14853TIP3    H266051   3.673   2.402   1.802  2.0512  0.8665 -0.0239
14854TIP3   OH266052   1.740   4.012  17.022 -0.2420  0.0625  0.3012
14854TIP3    H166053   1.674   4.080  17.017 -0.2470  0.1337  1.2608
14854TIP3    H266054   1.776   4.018  17.110  2.1146  1.0237 -0.6322
14855TIP3   OH266055   3.499   1.721  12.877  0.4201  0.0523  0.2840
14855TIP3    H166056   3.509   1.794  12.816 -1.4800  0.0042 -0.1509
14855TIP3    H266057   3.409   1.691  12.864  0.5257 -1.0958  1.8822
14856TIP3   OH266058   4.776   5.625   2.828  0.4048 -0.3174 -0.0475
14856TIP3    H166059   4.709   5.557   2.815  1.0072 -0.7740 -0.8762
14856TIP3    H266060   4.788   5.628   2.923 -1.3829  0.3819  0.2000
14857TIP3   OH266061   4.104   2.836  16.902 -0.2775 -0.1978 -0.2001
14857TIP3    H166062   4.129   2.926  16.923 -1.6951  0.0984  0.3586
14857TIP3    H266063   4.083   2.838  16.809 -0.7152  0.1591 -0.0967
14858TIP3   OH266064   2.342   1.495  10.813  0.3061 -0.7246 -0.2504
14858TIP3    H166065   2.364   1.412  10.772  0.4863 -0.1605 -1.3469
14858TIP3    H266066   2.246   1.498  10.813  0.3032 -0.8305 -0.4099
14859TIP3   OH266067   5.165   6.292  14.212 -0.1900  0.3035 -0.6687
14859TIP3    H166068   5.089   6.248  14.249  0.7159 -1.2034 -0.5513
14859TIP3    H266069   5.189   6.240  14.135  2.5676 -1.1295  1.0241
14860TIP3   OH266070   4.824   3.225   3.157  0.6790 -0.0972  0.0802
14860TIP3    H166071   4.869   3.284   3.098  0.2608  0.2780  0.1383
14860TIP3    H266072   4.742   3.202   3.113  0.1076  0.6190  0.7409
14861TIP3   OH266073   3.808   1.515   1.362 -0.6926  0.8438  0.2099
14861TIP3    H166074   3.785   1.459   1.288  0.7972 -1.0668  1.0886
14861TIP3    H266075   3.736   1.504   1.424  0.1820 -1.2593  0.9368
14862TIP3   OH266076   3.914   2.034   1.359  0.2450  0.4263  0.0413
14862TIP3    H166077   3.976   2.078   1.418  1.0718  0.1958 -0.6437
14862TIP3    H266078   3.953   2.042   1.272 -0.8802  0.6097 -0.4659
14863TIP3   OH266079   3.255   5.848   4.800  0.3641 -0.1538  0.2165
14863TIP3    H166080   3.159   5.848   4.794  0.3499 -1.2065  0.2419
14863TIP3    H266081   3.274   5.794   4.877  0.9785  0.1337  0.2713
14864TIP3   OH266082   3.056   0.562   5.412 -0.1331  0.1164  0.3626
14864TIP3    H166083   3.029   0.551   5.503  1.3909  0.0514  0.8396
14864TIP3    H266084   3.106   0.483   5.391  1.8577  1.3025  0.3902
14865TIP3   OH266085   5.664   2.493   4.875 -0.1991  0.3827 -0.5421
14865TIP3    H166086   5.588   2.438   4.891  0.4297 -0.1045  0.9613
14865TIP3    H266087   5.628   2.580   4.858 -1.1293 -0.1422 -1.3741
14866TIP3   OH266088   6.170   3.819   0.359 -0.3779 -0.5191  0.0529
14866TIP3    H166089   6.245   3.773   0.398 -0.8017  0.0881  1.6666
14866TIP3    H266090   6.173   3.796   0.266  3.1808  1.3184 -0.4575
14867TIP3   OH266091   5.759   5.985  15.109 -0.3543  0.2822  0.4481
14867TIP3    H166092   5.756   5.917  15.176  1.7866 -0.4862 -0.1529
14867TIP3    H266093   5.687   5.965  15.051 -0.4832 -0.7589  0.9455
14868TIP3   OH266094   5.364   3.507  11.895 -0.3943 -0.3218 -0.0671
14868TIP3    H166095   5.274   3.483  11.919 -0.8542  0.4597 -0.8952
14868TIP3    H266096   5.398   3.551  11.972 -0.9389 -0.0965  0.0536
14869TIP3   OH266097   5.798   2.408  12.557  0.6997 -0.7141 -0.4782
14869TIP3    H166098   5.848   2.460  12.620 -3.3894  0.6377  2.0652
14869TIP3    H266099   5.820   2.318  12.577  1.3934 -0.2154  1.1743
14870TIP3   OH266100   6.153   3.074   2.301 -0.2808  0.1440 -0.3111
14870TIP3    H166101   6.146   3.041   2.211  1.5591  0.3070 -0.5524
14870TIP3    H266102   6.102   3.011   2.353 -1.2836 -0.0195 -1.4291
14871TIP3   OH266103   4.999   2.891  13.320 -0.0723  0.1261  0.5555
14871TIP3    H166104   5.020   2.982  13.339  1.2431 -0.3951  1.7077
14871TIP3    H266105   4.920   2.873  13.371  0.9990 -0.0277  2.2160
14872TIP3   OH266106   4.842   5.204  14.571 -0.1375  0.5101  0.1647
14872TIP3    H166107   4.750   5.226  14.590 -0.0325 -0.2339  1.5701
14872TIP3    H266108   4.854   5.117  14.607  1.2138  0.7136  0.2298
14873TIP3   OH266109   5.996   4.500   0.712 -0.0062 -0.3835 -0.1114
14873TIP3    H166110   5.936   4.465   0.777  1.6503 -1.0649  1.1372
14873TIP3    H266111   5.992   4.438   0.639 -1.4982  0.1107 -0.4845
14874TIP3   OH266112   6.421   0.290   5.482  0.0794 -1.0670  0.2471
14874TIP3    H166113   6.446   0.268   5.393 -0.7441  0.6377 -0.4531
14874TIP3    H266114   6.343   0.237   5.499 -0.2342 -0.8056 -0.3608
14875TIP3   OH266115   3.535   3.231  12.070 -0.0740 -0.3584 -0.5914
14875TIP3    H166116   3.540   3.153  12.125 -3.0526  0.4085  0.9463
14875TIP3    H266117   3.575   3.301  12.123  0.3738 -0.3328 -0.9543
14876TIP3   OH266118   5.063   2.352  13.171 -0.2090  0.3229 -0.0144
14876TIP3    H166119   5.084   2.375  13.261  1.1709  0.2717 -0.2936
14876TIP3    H266120   5.004   2.421  13.141 -1.1499  0.0240  1.0946
14877TIP3   OH266121   1.229   4.546  13.680 -0.2951 -0.1691 -0.4325
14877TIP3    H166122   1.235   4.636  13.713 -1.5149  0.5149 -1.9523
14877TIP3    H266123   1.164   4.551  13.609  0.8566 -1.9041 -1.6855
14878TIP3   OH266124   6.256   6.355   4.038 -0.4490  0.4510 -0.0180
14878TIP3    H166125   6.316   6.291   3.999  0.3942  1.3897 -0.2729
14878TIP3    H266126   6.179   6.352   3.981  0.3020  0.9494 -1.0976
14879TIP3   OH266127   3.716   5.687  16.183  0.5122 -0.5264 -0.1429
14879TIP3    H166128   3.790   5.700  16.243 -0.3623 -1.3113  1.1719
14879TIP3    H266129   3.704   5.771  16.140  1.8921 -0.2710 -0.0513
14880TIP3   OH266130   0.406   0.906  15.164  0.0074  0.0080  0.1713
14880TIP3    H166131   0.336   0.845  15.186  0.3349 -0.7885 -0.9281
14880TIP3    H266132   0.388   0.983  15.218  0.1643 -1.4031  2.3450
14881TIP3   OH266133   5.935   2.017  11.130  0.1723  1.0019 -0.3582
14881TIP3    H166134   5.905   2.101  11.166 -2.3710  0.1758 -0.3800
14881TIP3    H266135   5.892   2.011  11.045  0.2162 -0.3928 -0.2964
14882TIP3   OH266136   1.206   3.106  14.982 -0.1087  0.4634  0.7796
14882TIP3    H166137   1.213   3.090  15.076  1.2228  1.0117  0.7876
14882TIP3    H266138   1.179   3.198  14.976  0.8036  0.7251  0.6187
14883TIP3   OH266139   1.182   5.845   6.358  0.5568  0.0978 -0.2015
14883TIP3    H166140   1.160   5.825   6.449  3.5820  0.4078  0.7111
14883TIP3    H266141   1.098   5.865   6.317 -0.9295 -0.1795  2.4675
14884TIP3   OH266142   2.282   3.663   6.217 -0.4790 -0.0296 -0.8286
14884TIP3    H166143   2.232   3.680   6.137 -1.2675 -0.2976 -0.4060
14884TIP3    H266144   2.216   3.634   6.280  0.2991 -0.9015 -0.4042
14885TIP3   OH266145   5.540   2.631  11.289 -0.2721 -0.0163 -0.2016
14885TIP3    H166146   5.633   2.626  11.268  0.0902  1.3677  0.9060
14885TIP3    H266147   5.535   2.599  11.379 -1.1044 -1.4133 -0.7086
14886TIP3   OH266148   1.562   4.667  14.993  0.1229 -0.1128  0.3739
14886TIP3    H166149   1.648   4.630  14.973 -0.0402 -1.1784  1.5312
14886TIP3    H266150   1.542   4.636  15.081 -1.3952  0.2306  0.1851
14887TIP3   OH266151   4.735   6.454   2.904 -0.1026  0.8594 -0.2575
14887TIP3    H166152   4.739   6.505   2.984  0.5568  0.3884  0.0186
14887TIP3    H266153   4.822   6.413   2.896 -0.8413 -0.8453 -0.0392
14888TIP3   OH266154   4.171   3.688  12.219  0.0211 -0.3350 -0.4137
14888TIP3    H166155   4.211   3.775  12.228  0.1536 -0.5226  1.2242
14888TIP3    H266156   4.244   3.627  12.231  0.0929 -0.7045 -2.4705
14889TIP3   OH266157   0.595   1.751   0.307 -0.0204 -0.4570 -0.2606
14889TIP3    H166158   0.634   1.811   0.370  0.3189 -2.4277  1.4950
14889TIP3    H266159   0.510   1.789   0.286  0.9051  1.5488 -0.6573
14890TIP3   OH266160   0.220   1.420  11.670  0.1660  0.6217  0.3573
14890TIP3    H166161   0.289   1.354  11.674 -0.0206  0.4380  0.5557
14890TIP3    H266162   0.202   1.430  11.576  1.1977  1.4451  0.2365
14891TIP3   OH266163   0.373   6.674  17.300 -0.1532  0.1848  0.4496
14891TIP3    H166164   0.345   6.707  17.386  0.1693  0.3144  0.5083
14891TIP3    H266165   0.326   6.728  17.237 -0.8484 -0.3032  0.5411
14892TIP3   OH266166   6.436   2.950  16.742  0.3311  0.0999  0.1731
14892TIP3    H166167   6.390   2.930  16.824 -0.6472 -0.1014 -0.4019
14892TIP3    H266168   6.428   3.045  16.733  1.8261  0.3412  1.0878
14893TIP3   OH266169   5.088   5.464   3.102 -0.0865 -0.3573 -0.1879
14893TIP3    H166170   5.008   5.433   3.060 -0.5709  2.3630 -1.5485
14893TIP3    H266171   5.158   5.411   3.064 -1.0232 -1.1899 -0.7718
14894TIP3   OH266172   4.873   3.976  16.959  0.3052 -0.2247  0.6672
14894TIP3    H166173   4.828   4.048  17.003  2.2061  0.2387  2.0159
14894TIP3    H266174   4.866   3.997  16.866 -2.1944 -0.2155  0.8120
14895TIP3   OH266175   2.087   1.697   0.405  0.0674 -0.6453 -0.2416
14895TIP3    H166176   2.135   1.627   0.361 -0.1240 -1.4049  0.7200
14895TIP3    H266177   1.997   1.666   0.411 -0.4401  0.5073 -1.4740
14896TIP3   OH266178   4.998   5.374   3.987 -0.3591  0.0885 -0.1296
14896TIP3    H166179   5.052   5.450   3.966  0.1279 -0.1174  0.3424
14896TIP3    H266180   4.909   5.409   3.995 -0.3766  0.3618 -1.3394
14897TIP3   OH266181   4.125   5.982  16.775 -0.3029 -0.4020  0.2214
14897TIP3    H166182   4.172   6.057  16.811  0.5452 -0.7556 -0.1211
14897TIP3    H266183   4.104   6.007  16.686  0.0740 -0.6011  0.0726
14898TIP3   OH266184   4.093   6.477  14.575  0.2539  0.8809 -0.2164
14898TIP3    H166185   4.053   6.397  14.609  0.4754  0.7671 -0.2233
14898TIP3    H266186   4.185   6.471  14.601 -0.1631  2.2131  1.8017
14899TIP3   OH266187   6.683   6.290  15.116 -0.8817 -0.4199 -0.0982
14899TIP3    H166188   6.775   6.303  15.092 -1.0949 -0.6486 -1.1144
14899TIP3    H266189   6.656   6.372  15.156 -0.8088  0.4404 -1.7311
14900TIP3   OH266190   4.715   2.230  14.134 -0.1316 -0.3857 -0.1236
14900TIP3    H166191   4.650   2.298  14.154  0.3815  0.1279 -0.1610
14900TIP3    H266192   4.679   2.184  14.058 -0.8324 -0.6378  0.3431
14901TIP3   OH266193   1.383   3.202  11.994  0.1715  0.5554  0.0785
14901TIP3    H166194   1.358   3.231  11.906  0.4422  1.0392  0.1582
14901TIP3    H266195   1.323   3.250  12.052  0.1251  0.3866  0.1703
14902TIP3   OH266196   5.292   4.848   1.699  0.1630  0.1124  0.4648
14902TIP3    H166197   5.282   4.938   1.668  0.4115 -0.5439 -1.7297
14902TIP3    H266198   5.247   4.795   1.633 -0.0224 -1.3886  1.7385
14903TIP3   OH266199   5.888   3.347   5.415 -0.3921  0.5331  0.1971
14903TIP3    H166200   5.916   3.341   5.323  0.6681  0.9031  0.4891
14903TIP3    H266201   5.967   3.330   5.465 -0.4545  2.5725  1.0525
14904TIP3   OH266202   0.284   1.840   2.503  0.4326  0.0835 -0.2760
14904TIP3    H166203   0.236   1.881   2.431  0.5286  0.5904 -0.0607
14904TIP3    H266204   0.364   1.893   2.511  0.3288  0.1585  0.3282
14905TIP3   OH266205   3.952   0.393   5.485 -0.0913 -0.4946  0.2069
14905TIP3    H166206   3.879   0.399   5.424  0.2441  1.0151 -0.0761
14905TIP3    H266207   3.923   0.440   5.563  1.4673  2.4867 -0.8715
14906TIP3   OH266208   0.934   1.399  12.644  0.2508 -0.4343  0.2162
14906TIP3    H166209   1.007   1.452  12.612 -0.8747  0.1419 -1.5270
14906TIP3    H266210   0.977   1.325  12.687  1.9569 -0.9998 -2.1851
14907TIP3   OH266211   2.772   0.611   2.069  0.0007  0.0463 -0.2907
14907TIP3    H166212   2.685   0.569   2.068  0.0905 -0.3450  2.2351
14907TIP3    H266213   2.832   0.541   2.093  0.8881  0.5806 -0.8841
14908TIP3   OH266214   3.827   3.788  17.330  0.4765 -0.3742 -0.1668
14908TIP3    H166215   3.791   3.804  17.243  0.7147  0.3278 -0.1376
14908TIP3    H266216   3.818   3.871  17.376 -0.0138 -0.8457  0.6212
14909TIP3   OH266217   6.451   4.866   2.246  0.0768 -0.3169 -0.7313
14909TIP3    H166218   6.475   4.774   2.262 -1.1070 -0.8953 -2.0272
14909TIP3    H266219   6.535   4.913   2.248  0.7198 -1.4390 -0.1711
14910TIP3   OH266220   0.312   3.447   3.647 -0.2326  0.3226  0.1541
14910TIP3    H166221   0.385   3.405   3.692 -1.2531 -0.1311  1.4495
14910TIP3    H266222   0.315   3.412   3.558  1.0099  0.1854  0.2423
14911TIP3   OH266223   6.428   2.760  15.793  0.2929  0.0486  0.1179
14911TIP3    H166224   6.475   2.679  15.773  0.1314  0.2194 -1.0166
14911TIP3    H266225   6.379   2.740  15.873  2.1825 -0.1604  1.2850
14912TIP3   OH266226   3.467   6.446   4.703 -0.0949 -0.3702  0.2506
14912TIP3    H166227   3.476   6.369   4.759 -0.2260  0.1428  0.9904
14912TIP3    H266228   3.468   6.411   4.614 -0.6433 -1.2761  0.5899
14913TIP3   OH266229   4.467   6.315   1.638 -0.0213  0.3277 -0.1913
14913TIP3    H166230   4.475   6.304   1.732  2.3619 -0.6506 -0.4286
14913TIP3    H266231   4.427   6.233   1.608 -1.1157  0.7848 -0.0314
14914TIP3   OH266232   6.129   2.151   2.504  0.2751 -0.8094  0.4801
14914TIP3    H166233   6.075   2.203   2.445  0.7347 -1.2737 -0.3704
14914TIP3    H266234   6.218   2.183   2.490  0.2456  0.0057  1.9268
14915TIP3   OH266235   4.646   3.932   1.644  0.1104 -0.7996  0.1619
14915TIP3    H166236   4.701   3.938   1.566 -0.9542 -0.9963 -0.6221
14915TIP3    H266237   4.579   3.999   1.631  0.2345 -0.4551  1.1836
14916TIP3   OH266238   3.323   0.061  14.974  0.7004  0.5071 -0.0482
14916TIP3    H166239   3.412   0.038  15.001  0.6454 -0.1225 -0.3876
14916TIP3    H266240   3.276  -0.022  14.976 -0.1741  1.0098  1.2166
14917TIP3   OH266241   1.762   5.563  16.394  0.4623  0.9480  0.1503
14917TIP3    H166242   1.750   5.530  16.305  1.0438  1.2779 -0.0609
14917TIP3    H266243   1.674   5.585  16.424  0.0891 -0.4961  0.1909
14918TIP3   OH266244   2.322   2.769  15.300 -0.7675  0.2880  0.4623
14918TIP3    H166245   2.326   2.828  15.225  1.0836  0.1873  0.4154
14918TIP3    H266246   2.414   2.750  15.319 -1.2770 -1.4894  1.3307
14919TIP3   OH266247   1.380   5.237  13.556 -0.6836 -0.2420 -0.3890
14919TIP3    H166248   1.450   5.230  13.491  0.6008 -1.3841  1.0626
14919TIP3    H266249   1.302   5.257  13.504  0.4601 -0.2085 -2.1817
14920TIP3   OH266250   5.444   5.137  12.511 -0.1793  0.0998  0.4219
14920TIP3    H166251   5.438   5.060  12.568  0.6466 -1.7983 -1.9067
14920TIP3    H266252   5.379   5.198  12.547 -1.6330 -2.0688  1.7541
14921TIP3   OH266253   6.499   1.036   0.893  0.2077  0.0713 -0.1363
14921TIP3    H166254   6.436   1.074   0.954  0.1360 -1.6091  0.8839
14921TIP3    H266255   6.582   1.034   0.942  0.5916  0.4219 -0.7590
14922TIP3   OH266256   6.565   0.733   2.551 -0.3211  0.5015  0.3168
14922TIP3    H166257   6.498   0.669   2.575 -0.0558  0.3509  0.6755
14922TIP3    H266258   6.646   0.697   2.589 -0.0262  0.6426 -0.1701
14923TIP3   OH266259   5.446   2.005   0.365  0.0114 -0.3584 -0.1231
14923TIP3    H166260   5.486   1.919   0.373 -1.1338 -0.9970 -1.0721
14923TIP3    H266261   5.502   2.052   0.302  0.8289 -0.2607  0.6495
14924TIP3   OH266262   3.900   3.075  17.084 -0.1865  0.1531  0.2775
14924TIP3    H166263   3.928   3.103  16.997 -1.9390  1.0052 -0.0487
14924TIP3    H266264   3.907   3.153  17.139  1.4987 -0.5261  1.0926
14925TIP3   OH266265   1.393   2.584   6.021  0.1835 -0.2416 -0.2300
14925TIP3    H166266   1.303   2.564   6.046  0.3077 -4.0044 -2.0915
14925TIP3    H266267   1.447   2.531   6.080  1.2025  1.0801  0.0985
14926TIP3   OH266268   3.063   5.638   0.143  0.0312 -0.6197 -0.1244
14926TIP3    H166269   3.125   5.670   0.208  0.5367 -0.4550 -0.6811
14926TIP3    H266270   3.094   5.551   0.120 -0.7476 -1.1031  0.6209
14927TIP3   OH266271   2.338   0.315  15.074 -0.4595 -0.4985 -0.0738
14927TIP3    H166272   2.256   0.288  15.115 -0.6654 -0.9420 -0.7480
14927TIP3    H266273   2.331   0.282  14.984 -0.0164  0.4288 -0.4576
14928TIP3   OH266274   3.200   3.519  10.962  0.4697 -0.3334  0.6758
14928TIP3    H166275   3.146   3.577  11.016  2.5190  1.2753  1.1786
14928TIP3    H266276   3.222   3.572  10.885 -1.1843 -2.0738 -1.1064
14929TIP3   OH266277   1.216   0.727   3.465  0.7167 -0.3128 -0.6448
14929TIP3    H166278   1.299   0.699   3.505  1.2373  2.0680  0.1005
14929TIP3    H266279   1.160   0.750   3.539  0.2485  0.3620 -1.1940
14930TIP3   OH266280   5.231   5.815   0.045  0.0966 -0.1606 -0.6413
14930TIP3    H166281   5.162   5.818   0.112  3.3277  0.7099  3.0725
14930TIP3    H266282   5.301   5.765   0.087  2.3340  0.3527 -3.5203
14931TIP3   OH266283   6.746   1.622   1.077 -0.3710  0.3271 -0.3421
14931TIP3    H166284   6.750   1.568   0.998 -0.8540 -0.7805  0.3596
14931TIP3    H266285   6.710   1.705   1.048 -1.2291 -0.3149 -1.1806
14932TIP3   OH266286   3.420   0.760  14.024 -0.4486 -0.0233  0.2118
14932TIP3    H166287   3.461   0.725  14.103 -1.5086  2.1475  1.8511
14932TIP3    H266288   3.485   0.820  13.987 -0.5687  0.2381  0.4191
14933TIP3   OH266289   2.999   2.725  13.237  0.1046  0.1276 -0.1739
14933TIP3    H166290   2.948   2.791  13.190 -0.4293 -0.1125  0.0561
14933TIP3    H266291   2.933   2.674  13.285  0.3905 -1.3328 -1.2803
14934TIP3   OH266292   2.001   2.603  13.045 -0.0360  0.7244 -0.7336
14934TIP3    H166293   2.026   2.597  13.137 -0.3312  0.5252 -0.6637
14934TIP3    H266294   2.022   2.517  13.009  1.1701  1.1730 -1.1365
14935TIP3   OH266295   6.094   4.912   3.283  0.4274  0.0562 -0.0277
14935TIP3    H166296   6.173   4.860   3.277 -0.3441 -1.1256 -0.3500
14935TIP3    H266297   6.045   4.874   3.355 -0.2416  0.1985 -0.3951
14936TIP3   OH266298   4.174   0.364   1.729 -0.4734 -0.0443  0.3632
14936TIP3    H166299   4.123   0.409   1.662  0.9375 -0.6625 -1.1876
14936TIP3    H266300   4.264   0.395   1.716  0.0354 -1.1044  1.1564
14937TIP3   OH266301   5.173   2.087   4.012 -0.1748 -0.1696  0.2232
14937TIP3    H166302   5.101   2.025   4.001  0.5361 -1.2274  1.3178
14937TIP3    H266303   5.145   2.165   3.964 -0.5234 -1.7564 -2.2755
14938TIP3   OH266304   5.081   5.334  14.725 -0.4583 -0.5810  0.4397
14938TIP3    H166305   5.063   5.402  14.790 -1.0371  0.2264 -0.5452
14938TIP3    H266306   5.008   5.272  14.735 -1.2424  0.1893 -0.2555
14939TIP3   OH266307   6.675   0.558  12.718 -0.0108  0.1466  0.3607
14939TIP3    H166308   6.702   0.596  12.802 -1.0529 -1.8747  1.6881
14939TIP3    H266309   6.752   0.512  12.686  0.3723  0.8725  0.2105
14940TIP3   OH266310   5.936   4.850   0.538 -0.2346  0.6391  0.7438
14940TIP3    H166311   5.911   4.817   0.452  0.2142 -0.5620  1.0632
14940TIP3    H266312   6.031   4.856   0.534 -0.1975  0.3838  1.2276
14941TIP3   OH266313   5.418   0.769   1.226  0.6350  0.2176 -0.1257
14941TIP3    H166314   5.430   0.862   1.246 -0.8891 -0.0964  2.7676
14941TIP3    H266315   5.344   0.768   1.164 -0.3365  0.8935  0.9900
14942TIP3   OH266316   6.151   4.695  12.213 -0.2653 -0.1229 -0.3953
14942TIP3    H166317   6.134   4.622  12.272 -2.5381  1.0446  0.5067
14942TIP3    H266318   6.066   4.717  12.176  0.3262  2.1141 -0.5817
14943TIP3   OH266319   1.371   0.415   1.519 -0.0751 -0.4169 -0.1373
14943TIP3    H166320   1.386   0.323   1.498  0.9531 -0.1770 -0.5367
14943TIP3    H266321   1.358   0.416   1.613  1.3071 -0.8297  0.0852
14944TIP3   OH266322   6.456   3.659   4.261 -0.3072  0.0921 -0.3026
14944TIP3    H166323   6.459   3.752   4.242 -2.1720  0.1968 -0.2816
14944TIP3    H266324   6.400   3.621   4.193  1.1180 -1.1794 -0.8298
14945TIP3   OH266325   2.087   5.109  15.355  0.7620 -0.0833  0.3238
14945TIP3    H166326   2.162   5.136  15.408  1.4343  2.4444 -1.7029
14945TIP3    H266327   2.125   5.083  15.271 -0.3044 -3.6301  0.7872
14946TIP3   OH266328   0.256   4.271  16.364  0.4144 -0.7584 -0.4731
14946TIP3    H166329   0.324   4.333  16.338 -1.2099  1.2083 -0.2744
14946TIP3    H266330   0.177   4.302  16.320 -0.3802 -3.0376 -0.7804
14947TIP3   OH266331   1.979   4.744   6.000  0.4604 -0.5673  0.3027
14947TIP3    H166332   2.049   4.804   5.975 -0.8422  0.6183 -0.6911
14947TIP3    H266333   1.955   4.770   6.089 -0.2969  0.6415 -0.2298
14948TIP3   OH266334   5.335   5.513   2.268 -0.3976  0.3019 -0.5256
14948TIP3    H166335   5.332   5.437   2.210  1.1648 -0.5265  0.4116
14948TIP3    H266336   5.258   5.503   2.324 -0.9079  0.1198 -1.2459
14949TIP3   OH266337   5.142   1.535  11.800  0.0331 -0.5858  0.2390
14949TIP3    H166338   5.168   1.580  11.881  0.8637 -1.3617  0.4116
14949TIP3    H266339   5.054   1.501  11.819  0.2714 -0.8668  0.8683
14950TIP3   OH266340   5.368   6.542  15.869  0.2280 -0.7783  0.0278
14950TIP3    H166341   5.318   6.499  15.799 -0.2208 -0.8019  0.3588
14950TIP3    H266342   5.388   6.471  15.930  0.6425 -0.7621 -0.0872
14951TIP3   OH266343   0.316   2.197  14.875 -0.2123 -0.4740  0.4308
14951TIP3    H166344   0.350   2.228  14.959  0.1673 -1.7630  0.7638
14951TIP3    H266345   0.249   2.134  14.898 -1.8210  0.9064 -0.2455
14952TIP3   OH266346   5.782   3.337  11.634  0.1090  0.4379 -0.5378
14952TIP3    H166347   5.800   3.300  11.721  0.6081  2.0541  0.0904
14952TIP3    H266348   5.696   3.378  11.643 -1.2394 -1.8818 -1.7209
14953TIP3   OH266349   4.284   2.157  15.998  0.3360 -0.0427  0.1531
14953TIP3    H166350   4.215   2.222  16.012 -0.1911 -0.3939 -0.7029
14953TIP3    H266351   4.345   2.199  15.937 -0.6040 -0.7329 -1.3177
14954TIP3   OH266352   5.648   1.791  16.461  0.1318 -0.1617  0.3609
14954TIP3    H166353   5.586   1.800  16.533  0.6952 -0.7345  0.9365
14954TIP3    H266354   5.595   1.798  16.381 -0.6091 -0.2577  0.8426
14955TIP3   OH266355   1.400   6.458   4.601  0.7290 -0.0820 -0.4181
14955TIP3    H166356   1.344   6.512   4.657  0.4683  0.4952 -1.2351
14955TIP3    H266357   1.392   6.496   4.514  0.7341 -1.2832 -0.9620
14956TIP3   OH266358   1.982   0.453   1.619 -0.1837 -0.1024 -0.0850
14956TIP3    H166359   1.934   0.526   1.581 -0.4542  0.1619  0.7426
14956TIP3    H266360   2.068   0.489   1.641 -0.2149 -0.1161  0.0569
14957TIP3   OH266361   1.628   6.477   2.061  0.1998  0.3094 -0.2127
14957TIP3    H166362   1.695   6.545   2.056 -0.2650  0.7617 -0.3663
14957TIP3    H266363   1.571   6.494   1.986 -0.2892  0.1487  0.1173
14958TIP3   OH266364   1.724   5.760  17.083  0.3819 -0.0230 -0.0647
14958TIP3    H166365   1.786   5.718  17.142 -0.5821 -0.1793  0.8482
14958TIP3    H266366   1.646   5.706  17.086 -0.6954  1.4977  0.7224
14959TIP3   OH266367   1.159   6.575  12.034 -0.0816  0.2853 -0.2677
14959TIP3    H166368   1.073   6.559  12.073  0.7122  0.4314  1.6653
14959TIP3    H266369   1.219   6.520  12.084  0.9374 -0.0794 -1.8057
14960TIP3   OH266370   0.832   3.863   2.379 -0.0672 -0.0935  0.2662
14960TIP3    H166371   0.749   3.889   2.338 -0.5254 -2.5300 -0.5334
14960TIP3    H266372   0.823   3.769   2.393  2.3713 -0.3258  0.6937
14961TIP3   OH266373   6.044   1.846  13.849  0.3914  0.4827 -0.4223
14961TIP3    H166374   6.111   1.802  13.902  0.6977  0.4776 -0.8116
14961TIP3    H266375   6.011   1.916  13.905 -0.7513 -0.7992  0.5630
14962TIP3   OH266376   2.439   4.647  14.188 -0.0308  0.0598 -0.0481
14962TIP3    H166377   2.396   4.622  14.106 -1.6007 -0.2079  0.8052
14962TIP3    H266378   2.366   4.667  14.247  1.0491  3.7404  0.2491
14963TIP3   OH266379   0.508   1.214  13.232  0.3026  0.6448 -0.0790
14963TIP3    H166380   0.525   1.124  13.260 -0.3572  0.4309 -0.3670
14963TIP3    H266381   0.428   1.209  13.181 -0.6385  1.6457  1.2238
14964TIP3   OH266382   3.751   1.452   2.114 -0.0651  0.5882  0.0659
14964TIP3    H166383   3.761   1.401   2.194 -0.2275 -0.2363 -0.4265
14964TIP3    H266384   3.714   1.390   2.051  0.7628  1.0182 -0.8690
14965TIP3   OH266385   2.334   0.539   3.070 -0.4178 -0.0677 -0.0332
14965TIP3    H166386   2.238   0.542   3.075 -0.4593 -1.3881  0.2785
14965TIP3    H266387   2.355   0.446   3.070  0.8683  0.2046 -0.2943
14966TIP3   OH266388   6.513   3.208   1.279  0.2611 -0.7550  0.0996
14966TIP3    H166389   6.593   3.234   1.234 -0.0711  0.5348  0.1957
14966TIP3    H266390   6.448   3.274   1.253 -0.2619 -0.6779  1.4933
14967TIP3   OH266391   3.493   2.456  12.566 -0.3767  0.2850 -0.0890
14967TIP3    H166392   3.542   2.382  12.530 -0.6888  0.2556 -0.4540
14967TIP3    H266393   3.404   2.444  12.534 -0.4913  0.6634  0.0847
14968TIP3   OH266394   0.652   6.123   5.645  0.0803 -0.1081  0.4019
14968TIP3    H166395   0.702   6.141   5.724 -1.3226  0.6763  1.1416
14968TIP3    H266396   0.700   6.052   5.602  1.5624  0.3197  1.2917
14969TIP3   OH266397   6.217   3.479   0.750  0.0043  0.7748 -0.1890
14969TIP3    H166398   6.207   3.394   0.706  1.1047 -0.0425  1.0957
14969TIP3    H266399   6.137   3.489   0.801 -1.0611  1.5002 -1.9098
14970TIP3   OH266400   4.792   6.728  13.437  0.4611  0.3918  0.5311
14970TIP3    H166401   4.727   6.663  13.464  0.0696  0.1528 -0.9365
14970TIP3    H266402   4.770   6.749  13.347  1.2578  1.7575  0.6272
14971TIP3   OH266403   3.333   2.785   5.432  0.0165  0.4908 -0.2171
14971TIP3    H166404   3.350   2.864   5.380 -0.2601  0.9026  0.2985
14971TIP3    H266405   3.252   2.806   5.480  0.3241  0.1618  0.4449
14972TIP3   OH266406   4.823   4.273   0.547 -0.1527 -0.1652 -0.4973
14972TIP3    H166407   4.895   4.328   0.579  1.3243 -1.8341 -0.7782
14972TIP3    H266408   4.744   4.320   0.573  0.9992  2.0563 -0.6810
14973TIP3   OH266409   5.437   3.383  13.789  0.4132  1.1059 -0.1961
14973TIP3    H166410   5.530   3.399  13.799  0.4231  1.1666 -0.3806
14973TIP3    H266411   5.405   3.368  13.878  0.5665  1.2612 -0.1160
14974TIP3   OH266412   3.387   4.504  16.457  0.6794  0.2721 -0.0101
14974TIP3    H166413   3.394   4.518  16.362 -2.1361 -2.7965 -0.8235
14974TIP3    H266414   3.467   4.456  16.479  1.0807  0.4843 -0.9181
14975TIP3   OH266415   1.333   1.683  12.388 -0.6948  0.7022 -0.1920
14975TIP3    H166416   1.344   1.732  12.470 -1.7878 -1.3130  1.2292
14975TIP3    H266417   1.391   1.728  12.326 -0.7951  3.0780  1.2951
14976TIP3   OH266418   1.501   3.216   4.766  0.6914 -0.0007  0.3401
14976TIP3    H166419   1.536   3.150   4.707 -0.0275 -1.2211  1.2231
14976TIP3    H266420   1.448   3.167   4.829  0.2861  1.3978  1.1529
14977TIP3   OH266421   1.218   1.599  11.591 -0.2473 -0.5012  0.6934
14977TIP3    H166422   1.235   1.561  11.505  1.1154 -0.2483  0.8236
14977TIP3    H266423   1.250   1.534  11.653  1.1039  0.3683  0.9398
14978TIP3   OH266424   1.167   3.804   0.026 -0.1833  0.1202 -0.0581
14978TIP3    H166425   1.253   3.781  -0.010  0.1437  0.3332  0.5756
14978TIP3    H266426   1.166   3.899   0.027  0.2076  0.1205  1.4124
14979TIP3   OH266427   4.690   4.721   2.658  0.7627  0.0527  0.0236
14979TIP3    H166428   4.768   4.755   2.613  1.4717 -2.9755 -1.3004
14979TIP3    H266429   4.628   4.703   2.587  0.4475 -1.2957  0.6117
14980TIP3   OH266430   5.837   6.701  12.073 -0.4578 -0.3047 -0.0573
14980TIP3    H166431   5.769   6.640  12.044 -1.5574  0.4988  0.7359
14980TIP3    H266432   5.900   6.646  12.120 -0.0108 -1.2158 -1.6488
14981TIP3   OH266433   0.837   1.447   4.894  0.1002  0.3412 -0.4834
14981TIP3    H166434   0.809   1.428   4.805  0.2186 -1.5846 -0.1457
14981TIP3    H266435   0.922   1.404   4.903  0.5974  1.4280  0.2411
14982TIP3   OH266436   3.373   0.210  14.362 -0.3865 -0.3495 -0.4509
14982TIP3    H166437   3.294   0.165  14.392  0.2483 -1.1203  0.0881
14982TIP3    H266438   3.411   0.152  14.297  1.5339 -1.6671  1.6944
14983TIP3   OH266439   4.958   3.931   4.756  0.2394  0.0836  0.1158
14983TIP3    H166440   4.938   3.877   4.832 -1.0118 -1.3581 -1.1519
14983TIP3    H266441   4.938   3.874   4.681 -2.0718  2.5571 -1.3456
14984TIP3   OH266442   1.064   3.883  15.511 -0.3372  0.0855 -0.3201
14984TIP3    H166443   1.042   3.914  15.423 -1.6970 -0.0239 -0.0440
14984TIP3    H266444   1.001   3.926  15.568 -1.1391 -1.7945  0.2857
14985TIP3   OH266445   5.322   0.336  16.219  0.4200 -0.3118  0.0923
14985TIP3    H166446   5.260   0.292  16.278 -0.4451 -0.4826 -0.9021
14985TIP3    H266447   5.380   0.384  16.277  0.5093 -1.6308  1.1608
14986TIP3   OH266448   6.522   4.309  15.812 -0.3159  0.1323 -0.7157
14986TIP3    H166449   6.602   4.257  15.811 -0.0893  0.2844  1.8104
14986TIP3    H266450   6.453   4.249  15.784  0.0344 -1.4363  1.5446
14987TIP3   OH266451   2.827   2.954  12.017 -0.2988 -0.0167  0.0128
14987TIP3    H166452   2.817   3.007  11.938 -1.7407 -1.2494 -0.6913
14987TIP3    H266453   2.913   2.978  12.051  0.1609  0.9129 -1.6654
14988TIP3   OH266454   0.140   5.271   4.246 -0.5272 -0.1032 -0.2800
14988TIP3    H166455   0.131   5.215   4.323 -0.2045 -1.1539 -0.9872
14988TIP3    H266456   0.114   5.215   4.172  0.9287  0.2971 -1.1350
14989TIP3   OH266457   0.979   1.220   3.741 -0.4082  0.1723 -0.3835
14989TIP3    H166458   0.921   1.147   3.763 -1.3849  1.4789  1.7722
14989TIP3    H266459   0.944   1.256   3.660 -2.0302  0.2720  0.3189
14990TIP3   OH266460   1.759   5.235  11.506  0.3331  0.1702 -0.1419
14990TIP3    H166461   1.740   5.323  11.538  0.0519 -0.2702  0.9715
14990TIP3    H266462   1.684   5.213  11.450  0.0822  0.3918  0.1031
14991TIP3   OH266463   6.226   4.746  13.050  0.0284 -0.1634 -0.3600
14991TIP3    H166464   6.165   4.780  13.115 -1.2627  0.6248 -1.9215
14991TIP3    H266465   6.287   4.818  13.035  0.4468 -0.4152  0.0926
14992TIP3   OH266466   4.175   5.183   1.848 -0.2055 -0.2283 -0.1892
14992TIP3    H166467   4.200   5.096   1.817  0.6248  0.3366 -1.1636
14992TIP3    H266468   4.140   5.168   1.936  2.8445 -1.2202  1.0107
14993TIP3   OH266469   2.251   4.020  16.040  0.1779 -0.3061 -0.3569
14993TIP3    H166470   2.200   4.021  16.121 -0.6535 -1.4171 -0.8416
14993TIP3    H266471   2.277   3.928  16.030 -0.5855 -0.3684 -1.8711
14994TIP3   OH266472   0.828   4.362   1.407 -0.6393  0.0110  0.0050
14994TIP3    H166473   0.786   4.381   1.490 -0.3461 -1.8702  0.6337
14994TIP3    H266474   0.782   4.285   1.374 -0.0208  0.0725 -1.0472
14995TIP3   OH266475   2.062   6.704  13.558 -0.0747  0.2323 -0.1554
14995TIP3    H166476   2.103   6.632  13.511  0.6933 -0.4911  1.5354
14995TIP3    H266477   2.107   6.706  13.643 -1.4261  1.4393  0.5779
14996TIP3   OH266478   0.459   3.745  17.412 -0.0486  0.0029 -0.1615
14996TIP3    H166479   0.379   3.715  17.456  0.0609 -0.1665 -0.0765
14996TIP3    H266480   0.482   3.673  17.353  0.3260 -0.1730  0.1902
14997TIP3   OH266481   5.482   6.041  12.531 -0.5483 -0.0846 -0.5370
14997TIP3    H166482   5.444   5.963  12.489 -1.4221 -0.2380  0.4941
14997TIP3    H266483   5.576   6.030  12.522 -0.4233 -2.9372  2.3655
14998TIP3   OH266484   1.354   2.957  16.922  0.6877 -0.0546  0.1135
14998TIP3    H166485   1.402   2.957  16.840  2.1892 -1.4913  0.9440
14998TIP3    H266486   1.417   2.987  16.987 -0.8580  2.4198  0.6207
14999TIP3   OH266487   0.633   3.997  10.886  0.4389  0.4392  1.0036
14999TIP3    H166488   0.628   3.908  10.922  0.8656 -1.4484 -3.0699
14999TIP3    H266489   0.702   4.039  10.937  1.7832 -2.3277  1.6709
15000TIP3   OH266490   0.484   5.588   0.923 -0.2210 -0.3929 -0.0443
15000TIP3    H166491   0.565   5.612   0.878 -0.8722  1.1224 -0.4878
15000TIP3    H266492   0.419   5.649   0.890 -0.8937  0.4092  2.4773
15001TIP3   OH266493   6.589   2.247  13.362 -0.3189 -0.1712  0.4387
15001TIP3    H166494   6.510   2.270  13.313  0.7510 -0.9237 -1.7727
15001TIP3    H266495   6.572   2.159  13.395 -0.4652 -0.2590  0.1292
15002TIP3   OH266496   1.420   1.684   0.594  0.4074  0.3751  0.0404
15002TIP3    H166497   1.343   1.731   0.626 -0.6891 -0.6434 -1.0174
15002TIP3    H266498   1.456   1.741   0.526 -0.3032  0.1893 -0.5048
15003TIP3   OH266499   6.749   1.941  13.384 -0.1268 -0.1319 -0.2690
15003TIP3    H166500   6.819   2.005  13.372  0.0741 -0.3319 -0.1476
15003TIP3    H266501   6.781   1.861  13.343  0.1362 -0.5169  0.6662
15004TIP3   OH266502   3.307   1.941  17.315  0.2432 -0.0501 -0.1637
15004TIP3    H166503   3.350   1.900  17.239 -0.5094  0.0177 -0.6360
15004TIP3    H266504   3.222   1.897  17.321 -0.4564  1.2144 -0.4909
15005TIP3   OH266505   1.078   2.752  14.294 -0.1409 -1.2472  0.1959
15005TIP3    H166506   1.007   2.689  14.308 -0.3468 -1.9138 -3.0565
15005TIP3    H266507   1.155   2.699  14.278 -0.0657 -0.7185 -1.4103
15006TIP3   OH266508   5.790   4.235   4.528  0.0814  0.1250 -0.6003
15006TIP3    H166509   5.721   4.288   4.568  0.8972 -0.2152  1.3397
15006TIP3    H266510   5.784   4.256   4.435 -3.1384 -0.4506 -0.6609
15007TIP3   OH266511   5.498   0.038   4.614 -0.1253 -0.4579  0.9781
15007TIP3    H166512   5.455  -0.002   4.690  0.9013 -2.4853  0.5353
15007TIP3    H266513   5.590   0.043   4.638  0.0776 -0.3074  0.1884
15008TIP3   OH266514   4.976   1.966   2.008  0.3432 -0.1127 -0.1474
15008TIP3    H166515   4.965   1.902   2.079  1.5376 -1.2289 -0.9178
15008TIP3    H266516   5.069   1.988   2.011 -0.4638  3.9581  1.9944
15009TIP3   OH266517   0.117   3.446  12.130 -0.1533  0.0781  0.0872
15009TIP3    H166518   0.201   3.491  12.133 -0.1658  0.1497 -0.4947
15009TIP3    H266519   0.054   3.511  12.162  0.0473 -0.0692  0.7907
15010TIP3   OH266520   3.018   6.174   3.951 -0.2248  0.0917  0.3276
15010TIP3    H166521   2.953   6.239   3.978  0.5624  0.8007  0.5472
15010TIP3    H266522   3.044   6.202   3.863 -0.2910 -0.2520  0.1980
15011TIP3   OH266523   1.617   3.043  16.995  0.5948 -0.5513  0.4819
15011TIP3    H166524   1.641   2.954  17.021  0.8730 -0.6367 -0.0495
15011TIP3    H266525   1.689   3.071  16.939 -1.0127 -1.2263 -2.0855
15012TIP3   OH266526   5.528   5.746   2.335  0.1715 -0.6722 -0.2407
15012TIP3    H166527   5.556   5.673   2.279 -0.3072  0.1216 -1.5709
15012TIP3    H266528   5.442   5.720   2.367  0.9334 -1.6395  1.1101
15013TIP3   OH266529   1.022   0.629   3.648  0.0739 -0.1636  0.9224
15013TIP3    H166530   1.059   0.596   3.730 -2.3990 -1.4277  1.6290
15013TIP3    H266531   0.949   0.570   3.629  0.2035  0.4393 -1.9234
15014TIP3   OH266532   3.989   0.310  11.717 -0.3636  0.0275 -0.2504
15014TIP3    H166533   4.047   0.242  11.683 -0.0791 -0.2403  0.7620
15014TIP3    H266534   3.991   0.378  11.649 -0.4803 -0.8528 -1.1676
15015TIP3   OH266535   5.023   0.715   3.740 -0.4519 -0.0708 -0.7329
15015TIP3    H166536   5.059   0.697   3.653 -0.5054 -0.0818 -0.7533
15015TIP3    H266537   4.968   0.792   3.726  0.9204  1.0215 -0.3576
15016TIP3   OH266538   2.563   6.251   1.851 -0.6214  0.1866  0.1142
15016TIP3    H166539   2.497   6.245   1.919 -0.2933  1.3010  0.5606
15016TIP3    H266540   2.559   6.167   1.805 -1.6741 -0.1156  0.7353
15017TIP3   OH266541   5.196   1.601  14.215  0.2330 -0.5303  0.1194
15017TIP3    H166542   5.194   1.547  14.294  0.8679 -1.2356 -0.3352
15017TIP3    H266543   5.269   1.662  14.229  0.6028 -0.9218 -0.0904
15018TIP3   OH266544   1.109   4.843  15.865 -0.5881 -0.2417  0.5391
15018TIP3    H166545   1.128   4.752  15.889  1.4261  0.0730  0.3264
15018TIP3    H266546   1.163   4.895  15.924 -0.1633  0.7239 -0.6517
15019TIP3   OH266547   0.574   2.258   3.774 -0.1888  0.4438  0.4511
15019TIP3    H166548   0.567   2.193   3.705  0.3058  1.2384 -0.3800
15019TIP3    H266549   0.503   2.237   3.835 -1.1105  0.1737 -0.6836
15020TIP3   OH266550   4.263   0.063  12.626 -0.5567 -0.1684  0.0568
15020TIP3    H166551   4.170   0.083  12.619 -0.6791 -0.7617 -0.0886
15020TIP3    H266552   4.302   0.103  12.548 -0.5627  0.7456  0.5101
15021TIP3   OH266553   0.626   0.168   2.594 -0.4569 -0.0793 -0.2140
15021TIP3    H166554   0.649   0.141   2.505 -1.8995 -0.4426 -0.5131
15021TIP3    H266555   0.624   0.264   2.590  0.5602 -0.0589 -0.2748
15022TIP3   OH266556   3.468   5.107  14.620 -0.0616  0.7505 -0.4703
15022TIP3    H166557   3.409   5.182  14.629  0.2787  1.0657 -0.8420
15022TIP3    H266558   3.430   5.057  14.547  0.8811  1.6745 -1.6332
15023TIP3   OH266559   2.768   6.653  10.676 -0.0771  0.4447  0.9728
15023TIP3    H166560   2.691   6.595  10.677  1.4810 -1.7841 -0.1095
15023TIP3    H266561   2.842   6.595  10.693  1.4398  2.4971  1.7838
15024TIP3   OH266562   6.108   1.960   3.542 -0.4519  0.3813 -0.3607
15024TIP3    H166563   6.021   1.956   3.502 -1.5728  0.3221  1.8899
15024TIP3    H266564   6.165   1.915   3.480 -2.3698 -1.1873 -1.1196
15025TIP3   OH266565   4.541   4.413  14.929  0.1067  0.0274 -0.2813
15025TIP3    H166566   4.604   4.342  14.919  0.4976  0.4748 -1.1372
15025TIP3    H266567   4.537   4.454  14.842  0.1158  1.2361  0.2618
15026TIP3   OH266568   4.176   0.261   5.815  0.8786 -0.4439 -0.1008
15026TIP3    H166569   4.223   0.203   5.755 -1.0867 -0.5444 -1.6555
15026TIP3    H266570   4.203   0.349   5.790 -1.9864 -0.2612 -3.2557
15027TIP3   OH266571   4.021   6.456  13.787 -0.0101  0.6472  0.0292
15027TIP3    H166572   3.937   6.490  13.755  0.3188  1.4364 -0.0258
15027TIP3    H266573   4.041   6.510  13.863  0.0909 -0.0416  0.5059
15028TIP3   OH266574   2.007   3.239  14.009 -0.0674 -0.1490  0.0727
15028TIP3    H166575   1.949   3.193  13.949  1.8958 -1.3971 -0.9415
15028TIP3    H266576   2.008   3.185  14.088  0.2454 -0.5001 -0.1693
15029TIP3   OH266577   5.977   6.308  11.770  0.4176  0.5013  0.0960
15029TIP3    H166578   6.057   6.268  11.737  1.0425  0.4362  1.6296
15029TIP3    H266579   5.931   6.237  11.815  0.6723  1.0896  1.3055
15030TIP3   OH266580   3.515   3.953  13.066 -0.1588 -0.3322  0.0045
15030TIP3    H166581   3.546   3.872  13.027  0.7434 -0.6984  1.4162
15030TIP3    H266582   3.563   4.022  13.019  0.3016 -0.7102 -0.0809
15031TIP3   OH266583   5.616   0.665  17.282  0.0178  0.4315  0.6065
15031TIP3    H166584   5.607   0.735  17.347  2.2141  2.2445 -0.8507
15031TIP3    H266585   5.702   0.626  17.301 -0.3712 -0.6448  0.2327
15032TIP3   OH266586   2.601   0.386  16.686  0.5469  0.4768  0.0861
15032TIP3    H166587   2.528   0.330  16.711  0.3927  0.3916 -0.5253
15032TIP3    H266588   2.678   0.330  16.692  0.4974  0.4299  0.2682
15033TIP3   OH266589   0.098   2.195  10.778 -0.2134  0.3457  0.6972
15033TIP3    H166590   0.104   2.100  10.783 -1.5427  0.1640 -0.5761
15033TIP3    H266591   0.006   2.215  10.799 -0.6810  1.0860 -1.7361
15034TIP3   OH266592   4.458   4.714  14.991 -0.6184 -0.8458  0.4754
15034TIP3    H166593   4.489   4.624  14.979 -0.0881 -0.7567  1.0968
15034TIP3    H266594   4.430   4.717  15.083 -0.0569 -0.2103  0.6314
15035TIP3   OH266595   3.558   4.178  10.344  0.5372 -0.1118  0.5278
15035TIP3    H166596   3.549   4.128  10.425 -1.2877  1.4168  1.3573
15035TIP3    H266597   3.477   4.160  10.295  2.4166 -2.5751 -2.0095
15036TIP3   OH266598   4.986   4.589  14.421 -0.3801 -0.1688  0.0525
15036TIP3    H166599   5.029   4.513  14.383  0.5790 -0.0670  0.8888
15036TIP3    H266600   4.905   4.555  14.457 -0.4829 -0.5799 -0.5499
15037TIP3   OH266601   6.174   2.094  12.932  0.0130  0.1373  0.0032
15037TIP3    H166602   6.246   2.086  12.869 -0.1380 -1.0325 -0.0425
15037TIP3    H266603   6.152   2.187  12.931  2.5008  0.8490  1.1070
15038TIP3   OH266604   2.938   1.612   4.976  0.2130 -1.1865  0.6060
15038TIP3    H166605   2.956   1.615   4.882 -1.3437  0.2250  0.3022
15038TIP3    H266606   2.894   1.696   4.995 -0.0639 -1.7015  2.4690
15039TIP3   OH266607   1.074   1.657  14.629  0.1713 -0.2532  0.4397
15039TIP3    H166608   1.166   1.642  14.603  0.3533  0.0022  0.9363
15039TIP3    H266609   1.030   1.574  14.609  0.1674  0.1146 -1.2798
15040TIP3   OH266610   5.547   2.468  12.427 -0.3195  0.6412  0.1442
15040TIP3    H166611   5.551   2.457  12.332  1.0352 -2.0678  0.3999
15040TIP3    H266612   5.639   2.468  12.454 -0.6489 -2.5570  1.6889
15041TIP3   OH266613   1.403   5.426  11.444  0.6309  0.3450 -0.3327
15041TIP3    H166614   1.394   5.508  11.492  1.9820  0.5740 -0.4164
15041TIP3    H266615   1.397   5.452  11.352  4.2500  0.9526 -0.5509
15042TIP3   OH266616   4.332   0.185  15.427  0.6207  0.2871 -0.2732
15042TIP3    H166617   4.405   0.142  15.382  1.7501  2.5742 -0.7523
15042TIP3    H266618   4.265   0.194  15.359  1.2810  1.3031 -0.8188
15043TIP3   OH266619   6.005   5.640  13.146 -0.6199 -0.5067  0.7599
15043TIP3    H166620   6.021   5.585  13.223  2.9979  0.4052  0.8033
15043TIP3    H266621   6.012   5.581  13.072  1.3206 -0.5403  0.9174
15044TIP3   OH266622   0.850   4.594   4.434 -0.0292  0.3826 -0.0410
15044TIP3    H166623   0.816   4.550   4.512  1.0250  1.1120  0.8642
15044TIP3    H266624   0.789   4.570   4.365 -0.9940 -0.2998  1.0021
15045TIP3   OH266625   1.250   1.442  17.294  0.3138 -0.4742  0.3754
15045TIP3    H166626   1.272   1.533  17.313 -0.7834  0.2427 -1.4906
15045TIP3    H266627   1.214   1.444  17.205  1.2618 -2.8957 -0.1426
15046TIP3   OH266628   0.970   6.411  13.430  0.6543 -0.2025 -0.2523
15046TIP3    H166629   0.930   6.347  13.490 -0.9786  0.6038 -0.4216
15046TIP3    H266630   0.985   6.488  13.485 -1.0359  0.6122 -0.8546
15047TIP3   OH266631   6.662   0.422  10.809 -0.2737 -0.9999 -0.8815
15047TIP3    H166632   6.753   0.407  10.785 -0.8150 -3.3565 -1.8113
15047TIP3    H266633   6.660   0.510  10.846  2.5673 -1.3377  0.2745
15048TIP3   OH266634   5.371   3.168   5.471  0.8054  0.0354 -0.2095
15048TIP3    H166635   5.276   3.171   5.478  0.5556 -3.7094 -0.4686
15048TIP3    H266636   5.391   3.231   5.401 -1.4763  0.5956 -0.4532
15049TIP3   OH266637   5.141   3.138   1.339  0.4072  0.1141 -0.3815
15049TIP3    H166638   5.139   3.198   1.414  1.6804 -0.2100 -0.0571
15049TIP3    H266639   5.120   3.192   1.263  0.5456  0.7554  0.0329
15050TIP3   OH266640   3.461   0.905  11.865  0.2643  0.0864  0.0614
15050TIP3    H166641   3.380   0.955  11.868 -0.1626 -0.5749 -0.3043
15050TIP3    H266642   3.528   0.967  11.894 -0.6020  0.1126  2.1325
15051TIP3   OH266643   3.894   0.114  16.594 -0.4834  0.1147  0.0892
15051TIP3    H166644   3.967   0.175  16.583  0.4860 -0.8221  1.0740
15051TIP3    H266645   3.888   0.101  16.689 -2.4120  0.7232  0.0866
15052TIP3   OH266646   3.494   1.585   5.167 -0.0013 -0.2320 -0.1621
15052TIP3    H166647   3.496   1.633   5.250  0.8433 -0.1463 -0.2246
15052TIP3    H266648   3.476   1.651   5.101 -1.4711 -0.4177  0.0189
15053TIP3   OH266649   5.977   6.042  16.425 -0.1658 -0.2847 -0.0608
15053TIP3    H166650   6.040   6.112  16.440 -0.1283 -0.1974 -0.6078
15053TIP3    H266651   5.983   5.987  16.503  0.2854 -0.0496  0.0719
15054TIP3   OH266652   6.165   2.006  15.329 -0.2335 -0.1996 -0.0916
15054TIP3    H166653   6.250   2.048  15.318 -0.7320  0.4281 -1.7960
15054TIP3    H266654   6.101   2.075  15.311 -1.0917 -1.0753 -0.4693
15055TIP3   OH266655   5.569   0.831  16.517 -0.0640 -0.2119 -0.5607
15055TIP3    H166656   5.547   0.869  16.432 -0.0512 -0.3190 -0.6118
15055TIP3    H266657   5.607   0.903  16.566  1.0546 -0.4306 -1.0671
15056TIP3   OH266658   0.288   4.530   5.979 -0.0901 -0.0384 -0.3420
15056TIP3    H166659   0.366   4.484   6.008 -0.6286  0.2403  1.6602
15056TIP3    H266660   0.261   4.583   6.054 -0.4481  2.2908 -2.0066
15057TIP3   OH266661   4.261   1.393   3.563  0.0769  0.0032  0.2909
15057TIP3    H166662   4.297   1.433   3.483  0.1410 -2.8582 -1.2380
15057TIP3    H266663   4.180   1.442   3.579 -0.5825 -0.1071 -2.2861
15058TIP3   OH266664   4.055   4.924  15.304  0.1647  0.0747 -0.7450
15058TIP3    H166665   4.054   4.931  15.209  0.9769  0.4789 -0.7243
15058TIP3    H266666   4.063   5.014  15.335  0.1711 -0.0793 -0.2928
15059TIP3   OH266667   4.657   2.662   2.849  0.3255 -0.4501  0.4609
15059TIP3    H166668   4.725   2.633   2.910  0.4292 -0.9326  0.1233
15059TIP3    H266669   4.620   2.740   2.890  0.4605 -0.7060  1.0926
15060TIP3   OH266670   3.135   6.132  11.647  0.3909  0.6674 -0.3770
15060TIP3    H166671   3.117   6.185  11.724 -0.0212 -0.6843  0.4853
15060TIP3    H266672   3.225   6.154  11.623  1.0780 -0.0141  1.4271
15061TIP3   OH266673   6.211   6.091  12.727 -0.2322  0.2405 -0.3051
15061TIP3    H166674   6.132   6.143  12.741  0.6702  2.6812 -3.1173
15061TIP3    H266675   6.185   6.024  12.664  0.0551  1.6634 -2.0134
15062TIP3   OH266676   1.541   5.001  10.876 -0.3843 -0.1315  0.4473
15062TIP3    H166677   1.630   5.019  10.909 -1.3222 -0.2215  3.2675
15062TIP3    H266678   1.538   4.906  10.868  0.1665 -0.0515 -0.9953
15063TIP3   OH266679   1.242   1.461   3.018  0.0628  0.0950 -0.2665
15063TIP3    H166680   1.215   1.478   2.928 -0.1444  2.3818  0.1626
15063TIP3    H266681   1.329   1.499   3.025 -0.6332  1.6155  0.9231
15064TIP3   OH266682   2.597   3.698   4.774  0.6183  0.5423  0.6053
15064TIP3    H166683   2.606   3.672   4.866  2.0414 -0.0461  0.3282
15064TIP3    H266684   2.602   3.616   4.726 -2.2641  0.5831  0.0622
15065TIP3   OH266685   1.019   3.642  16.792  0.1439  0.2180 -0.5967
15065TIP3    H166686   1.018   3.578  16.720  0.4838 -1.8142  1.1156
15065TIP3    H266687   1.070   3.716  16.757  1.5202 -1.2986 -1.9802
15066TIP3   OH266688   3.547   0.242   1.459 -0.4560  0.4374  0.3502
15066TIP3    H166689   3.641   0.238   1.477 -0.6835 -0.2506  1.4695
15066TIP3    H266690   3.530   0.168   1.401 -0.2103  0.9879 -0.4588
15067TIP3   OH266691   1.017   1.489   5.155  0.0494  0.3483 -0.1323
15067TIP3    H166692   1.018   1.564   5.096 -3.7849  0.2901 -0.5761
15067TIP3    H266693   1.019   1.413   5.097  0.4604  0.1802  0.0978
15068TIP3   OH266694   0.545   4.348  12.594 -0.1479 -0.2174 -0.6536
15068TIP3    H166695   0.527   4.437  12.626  0.2246 -0.4706  0.2715
15068TIP3    H266696   0.564   4.297  12.672  0.2766 -0.9750 -1.2368
15069TIP3   OH266697   2.594   1.693   4.852 -0.1787  0.0875  0.9142
15069TIP3    H166698   2.529   1.761   4.872 -0.2408  0.7357 -1.2348
15069TIP3    H266699   2.676   1.727   4.887 -0.3732  0.9063  0.6165
15070TIP3   OH266700   1.260   0.222  16.518 -0.4553 -0.6616  0.0553
15070TIP3    H166701   1.322   0.286  16.483 -0.9825 -0.1381  0.0587
15070TIP3    H266702   1.289   0.207  16.607  0.1665 -1.0658 -0.2066
15071TIP3   OH266703   0.166   6.456  10.594  0.4873  0.5331 -0.1853
15071TIP3    H166704   0.245   6.404  10.610  0.0818  0.0303  0.2320
15071TIP3    H266705   0.164   6.468  10.499  1.2067  0.7796 -0.1714
15072TIP3   OH266706   4.918   0.554   2.275 -0.3367 -0.3580  0.7431
15072TIP3    H166707   4.957   0.606   2.345 -1.5918  1.9648 -0.1791
15072TIP3    H266708   4.830   0.590   2.263 -0.6027 -1.4826 -1.2251
15073TIP3   OH266709   4.129   2.241   5.120 -0.6785 -0.3615 -0.0704
15073TIP3    H166710   4.200   2.228   5.183 -0.8795 -2.0571 -0.1406
15073TIP3    H266711   4.161   2.309   5.062  0.0047  0.3967  1.1492
15074TIP3   OH266712   5.033   5.843   5.346  0.1988  0.5963  0.0848
15074TIP3    H166713   4.999   5.798   5.269 -0.0624  0.8446  0.0553
15074TIP3    H266714   4.957   5.857   5.402  0.3812  0.4446  0.3786
15075TIP3   OH266715   6.169   0.790  12.061  0.3271 -0.3238  0.0199
15075TIP3    H166716   6.166   0.792  11.965  1.1993 -1.6534 -0.0592
15075TIP3    H266717   6.172   0.697  12.083 -0.5937 -0.0642  1.3859
15076TIP3   OH266718   3.737   1.705  16.040  0.6781  0.2524 -0.3701
15076TIP3    H166719   3.810   1.735  16.094  1.5311 -1.5431 -0.4268
15076TIP3    H266720   3.669   1.771  16.052  1.6544  1.0498  1.1321
15077TIP3   OH266721   0.476   3.587  13.473  0.2142 -0.7579  0.3044
15077TIP3    H166722   0.434   3.525  13.414  1.4619 -0.8547 -0.5233
15077TIP3    H266723   0.525   3.646  13.415  0.4495 -0.0843  1.1683
15078TIP3   OH266724   5.388   1.845  12.162  0.5199  0.1001 -0.0450
15078TIP3    H166725   5.327   1.805  12.100 -0.7127 -0.6536  1.5893
15078TIP3    H266726   5.375   1.939  12.151 -1.0985 -0.0438  0.3723
15079TIP3   OH266727   0.888   3.387   4.534 -0.0098  0.1298 -0.1326
15079TIP3    H166728   0.949   3.323   4.497 -0.0486 -0.4005  0.6947
15079TIP3    H266729   0.827   3.405   4.462  0.3734 -0.2863 -0.5758
15080TIP3   OH266730   6.007   4.173  13.083 -0.5768  0.2541  0.2092
15080TIP3    H166731   6.092   4.185  13.041 -2.1236  1.5793 -2.8614
15080TIP3    H266732   5.988   4.258  13.123 -0.4599 -0.0363  0.8849
15081TIP3   OH266733   5.729   4.272  14.226  0.0941  0.3280  0.5576
15081TIP3    H166734   5.815   4.307  14.202 -0.5116  0.2073 -2.1416
15081TIP3    H266735   5.748   4.203  14.291  1.9829  0.5462  0.2944
15082TIP3   OH266736   6.554   1.492  14.810  0.2783 -0.5308 -0.2324
15082TIP3    H166737   6.628   1.503  14.751 -0.9523  0.3547 -1.6923
15082TIP3    H266738   6.593   1.482  14.897  2.0960 -0.5614 -1.0152
15083TIP3   OH266739   2.679   6.736  13.866 -0.5093  0.2352 -0.3568
15083TIP3    H166740   2.609   6.683  13.827  0.7444 -0.3072 -1.9808
15083TIP3    H266741   2.672   6.820  13.821 -0.6476  0.4580  0.0854
15084TIP3   OH266742   0.376   1.796   4.424  0.3348 -0.0808  0.3823
15084TIP3    H166743   0.392   1.763   4.336 -1.5458 -2.7193  0.9191
15084TIP3    H266744   0.281   1.799   4.432  0.4523  1.5853  1.8580
15085TIP3   OH266745   6.055   4.813   0.215  1.1883 -0.3788  0.5434
15085TIP3    H166746   6.125   4.828   0.279  1.5842 -0.1435  0.0648
15085TIP3    H266747   6.092   4.747   0.155  0.7109 -0.8148  0.7308
15086TIP3   OH266748   4.733   3.160   2.040  0.5122 -0.2126  0.1647
15086TIP3    H166749   4.666   3.217   2.004  0.3289 -0.9820 -0.7723
15086TIP3    H266750   4.686   3.079   2.062  0.8885 -0.2631  0.8156
15087TIP3   OH266751   1.735   4.998  11.902  0.2913 -0.0084 -0.2352
15087TIP3    H166752   1.686   5.012  11.983 -0.7281 -1.1818 -0.6083
15087TIP3    H266753   1.738   5.085  11.861  0.4110  0.5068  0.8265
15088TIP3   OH266754   4.308   2.445   0.257  0.4268  0.1530  0.1123
15088TIP3    H166755   4.363   2.437   0.335  1.2194  0.4021 -0.4125
15088TIP3    H266756   4.220   2.422   0.287  0.8839 -0.6513  0.8773
15089TIP3   OH266757   1.987   4.672  16.246 -0.3512 -0.3897  0.2427
15089TIP3    H166758   1.944   4.657  16.330 -0.9023  0.1107  0.0587
15089TIP3    H266759   2.080   4.656  16.264 -0.3531  0.4638  1.1518
15090TIP3   OH266760   1.572   1.847  17.204 -0.7537  0.1301 -0.1982
15090TIP3    H166761   1.622   1.929  17.197 -1.2369  0.5086  0.6986
15090TIP3    H266762   1.634   1.779  17.177 -0.0341  0.6873  0.0310
15091TIP3   OH266763   6.334   6.546   4.738 -0.2504  0.7852  0.2232
15091TIP3    H166764   6.313   6.614   4.674 -0.4212  0.0688 -0.5057
15091TIP3    H266765   6.359   6.471   4.684 -0.4558  0.1513  1.0035
15092TIP3   OH266766   1.318   5.120  15.043 -0.6506  0.3814  0.2353
15092TIP3    H166767   1.378   5.161  15.104  0.1903  2.7504 -2.0322
15092TIP3    H266768   1.243   5.180  15.038 -2.1162 -1.2575  1.0710
15093TIP3   OH266769   1.795   4.803  15.849 -0.5132 -0.8697  0.2483
15093TIP3    H166770   1.749   4.719  15.861 -1.0226 -0.4285  1.5800
15093TIP3    H266771   1.848   4.812  15.928 -0.6830  0.2002  0.2473
15094TIP3   OH266772   0.906   5.783   5.122  0.1053  0.5329  0.3095
15094TIP3    H166773   0.838   5.722   5.150  0.1854  0.1091 -0.3957
15094TIP3    H266774   0.907   5.777   5.026 -0.1989  1.9826  0.1858
15095TIP3   OH266775   1.730   2.883   1.376 -0.2952 -0.0822  0.0145
15095TIP3    H166776   1.794   2.906   1.443  0.7405 -0.1688 -0.9117
15095TIP3    H266777   1.682   2.808   1.413  1.5906 -1.4122 -0.1079
15096TIP3   OH266778   2.507   1.958   4.986  0.3504  0.4189  0.1327
15096TIP3    H166779   2.552   2.038   4.960 -0.4794  1.0158  0.4926
15096TIP3    H266780   2.414   1.982   4.986  0.2115  0.0532  2.2548
15097TIP3   OH266781   4.050   4.848  13.636  0.7533 -0.1389  0.1118
15097TIP3    H166782   3.965   4.829  13.675  1.3965 -0.1542  1.5735
15097TIP3    H266783   4.034   4.846  13.542 -1.2358  1.4907  0.3276
15098TIP3   OH266784   3.314   5.113   5.196 -0.0246  0.5699  0.1129
15098TIP3    H166785   3.399   5.098   5.238 -0.0806  1.3328  0.5166
15098TIP3    H266786   3.335   5.124   5.103  0.1524 -0.6492 -0.0061
15099TIP3   OH266787   5.339   3.196   2.271  0.0970  0.2293  0.1453
15099TIP3    H166788   5.318   3.167   2.359 -0.9880  0.7987  0.0880
15099TIP3    H266789   5.318   3.289   2.270 -0.3924  0.1285 -0.8482
15100TIP3   OH266790   3.060   6.485   0.932 -0.4963  0.1488  0.7184
15100TIP3    H166791   3.003   6.558   0.956 -1.2298 -0.2950  0.3506
15100TIP3    H266792   3.075   6.439   1.014  2.7351  2.5541  1.6851
15101TIP3   OH266793   5.937   6.228  17.059  0.3339 -0.3841 -0.1560
15101TIP3    H166794   6.004   6.184  17.006 -0.0783 -2.4054  0.8769
15101TIP3    H266795   5.982   6.247  17.142 -0.2022 -1.3564  0.3802
15102TIP3   OH266796   1.651   6.020  10.872  0.2779  0.0422 -0.2387
15102TIP3    H166797   1.634   6.089  10.936 -2.0054 -0.0262 -0.7223
15102TIP3    H266798   1.712   5.962  10.917  0.4010  1.1150  1.0625
15103TIP3   OH266799   2.683   0.895   6.717  0.0986 -0.2936  0.4415
15103TIP3    H166800   2.616   0.937   6.663  2.3199  2.7115 -0.2351
15103TIP3    H266801   2.679   0.941   6.800  0.8371 -0.5642  0.6366
15104TIP3   OH266802   3.297   4.623   3.867  0.0271 -0.4898 -0.3494
15104TIP3    H166803   3.313   4.530   3.852  0.0857 -0.5676  0.1820
15104TIP3    H266804   3.365   4.649   3.928 -0.1517 -0.1589 -0.2900
15105TIP3   OH266805   2.285   2.200  16.502  0.2659  0.4880 -0.0595
15105TIP3    H166806   2.302   2.265  16.434  1.6256  0.9743  0.7203
15105TIP3    H266807   2.336   2.228  16.577 -0.3010 -0.6718  0.8059
15106TIP3   OH266808   0.980   3.764   6.895 -0.2116 -0.0439 -0.2864
15106TIP3    H166809   0.926   3.723   6.963 -1.3217 -0.7301 -1.5318
15106TIP3    H266810   1.069   3.734   6.915 -0.4123  0.2402  1.1864
15107TIP3   OH266811   5.467   4.506   2.015 -0.2163 -0.7232 -0.6783
15107TIP3    H166812   5.488   4.420   1.978  0.4261 -0.6981 -0.3904
15107TIP3    H266813   5.450   4.562   1.940 -1.1252 -1.2170 -0.8556
15108TIP3   OH266814   3.407   1.005  16.122 -0.0248 -0.3808  0.3534
15108TIP3    H166815   3.471   1.073  16.144  0.5152 -0.3960 -1.0164
15108TIP3    H266816   3.453   0.949  16.059 -1.3109 -0.5153 -0.5025
15109TIP3   OH266817   0.235   0.699   4.322  0.0793  0.3386  0.4964
15109TIP3    H166818   0.272   0.627   4.271 -1.1835 -1.2687  1.7548
15109TIP3    H266819   0.161   0.729   4.269 -0.8978 -0.9641  1.0703
15110TIP3   OH266820   0.888   0.307  12.987 -0.0938  0.4766  0.1200
15110TIP3    H166821   0.898   0.290  13.080  0.4108  1.4906  0.2580
15110TIP3    H266822   0.942   0.241  12.944  2.9027  2.3791  0.6756
15111TIP3   OH266823   1.476   1.474   5.152 -0.0397  0.5204 -0.2310
15111TIP3    H166824   1.472   1.479   5.057  3.1627 -0.3473 -0.5387
15111TIP3    H266825   1.447   1.386   5.173 -0.1190  0.4893 -0.4722
15112TIP3   OH266826   6.377   1.288  14.040 -0.4454  0.1863 -0.5070
15112TIP3    H166827   6.381   1.256  13.950  0.6209 -1.0034 -0.0708
15112TIP3    H266828   6.458   1.338  14.052  0.2378 -1.0396  0.2502
15113TIP3   OH266829   3.530   0.525   2.456  0.7967 -0.3691  0.4123
15113TIP3    H166830   3.581   0.507   2.377  0.7875 -1.5295  0.6459
15113TIP3    H266831   3.463   0.457   2.456  0.2762  0.1364  0.9887
15114TIP3   OH266832   1.399   5.849   4.640  0.2982  0.5760  0.6839
15114TIP3    H166833   1.433   5.938   4.631  0.1344  0.5961  0.1944
15114TIP3    H266834   1.443   5.813   4.717  1.2761  0.6712  0.1770
15115TIP3   OH266835   2.189   3.501   3.167  0.3330 -0.2485  0.2720
15115TIP3    H166836   2.100   3.492   3.133 -0.5031 -1.1854  2.5472
15115TIP3    H266837   2.246   3.474   3.094 -0.9634  3.2577 -2.3336
15116TIP3   OH266838   2.580   3.916  12.359  0.0533  0.0790  0.1725
15116TIP3    H166839   2.538   4.001  12.346 -1.8247 -0.7212  0.7428
15116TIP3    H266840   2.532   3.857  12.301  1.0997 -0.6831  0.0588
15117TIP3   OH266841   1.188   6.763   1.015 -0.2924  0.3411  0.1111
15117TIP3    H166842   1.197   6.761   1.110 -0.4983 -1.7748  0.1359
15117TIP3    H266843   1.269   6.724   0.982  0.5687  2.6476 -0.7120
15118TIP3   OH266844   0.014   6.640  12.433 -0.1343  0.4131 -0.0626
15118TIP3    H166845   0.099   6.683  12.447  0.5169 -1.1948  1.2669
15118TIP3    H266846  -0.043   6.678  12.499 -0.7421  2.0786 -1.4640
15119TIP3   OH266847   4.809   4.993  13.019  0.0300  0.5111 -0.3543
15119TIP3    H166848   4.717   4.977  12.998 -0.2689 -0.7497  1.6511
15119TIP3    H266849   4.858   4.947  12.952 -0.8241 -0.2280 -0.4789
15120TIP3   OH266850   5.712   6.006  15.892  0.0563 -0.0615  0.4595
15120TIP3    H166851   5.695   6.072  15.824 -0.5402  1.3319  1.8834
15120TIP3    H266852   5.807   6.001  15.897  0.1104 -0.2412 -0.5181
15121TIP3   OH266853   5.858   2.762   0.895  0.3617 -0.1067 -0.2268
15121TIP3    H166854   5.791   2.718   0.842  0.7793 -0.2751 -0.6233
15121TIP3    H266855   5.841   2.732   0.985  1.5567 -2.3189 -0.6697
15122TIP3   OH266856   0.241   1.353  10.955 -0.1143 -0.4616 -0.5295
15122TIP3    H166857   0.286   1.269  10.965 -0.1514 -0.4423 -0.1801
15122TIP3    H266858   0.277   1.390  10.875  1.3423  0.0797  0.3293
15123TIP3   OH266859   6.175   2.928   4.604  0.6647 -0.0783  0.5783
15123TIP3    H166860   6.181   3.006   4.660  1.6667  0.6290 -0.4627
15123TIP3    H266861   6.185   2.855   4.665  0.3155  0.6241  1.5075
15124TIP3   OH266862   1.674   3.728  13.164  0.4445 -0.1670  0.2049
15124TIP3    H166863   1.641   3.733  13.254 -2.2842 -1.7057 -0.6031
15124TIP3    H266864   1.743   3.662  13.167  0.0979 -0.4974  1.1045
15125TIP3   OH266865   1.153   3.412   6.957  0.6492 -0.4991 -0.2808
15125TIP3    H166866   1.117   3.370   6.879 -1.4708 -0.2036  0.4650
15125TIP3    H266867   1.093   3.387   7.027  1.1730  1.1515  0.8104
15126TIP3   OH266868   6.074   1.979   2.745 -0.2312  0.3986  0.0476
15126TIP3    H166869   6.051   2.020   2.662  0.4472 -0.2646 -0.4799
15126TIP3    H266870   5.991   1.947   2.780 -0.2823 -1.3258 -1.4786
15127TIP3   OH266871   0.669   2.730   6.195  0.6012  0.4501 -0.1721
15127TIP3    H166872   0.614   2.808   6.193  2.3877  1.7827  0.1208
15127TIP3    H266873   0.611   2.659   6.167 -1.5694  1.5434  1.2524
15128TIP3   OH266874   3.265   4.781  12.455  0.0280 -0.0905 -0.3446
15128TIP3    H166875   3.345   4.812  12.413  0.8346 -2.2217 -0.5154
15128TIP3    H266876   3.201   4.851  12.441  2.0559  2.1148  0.5700
15129TIP3   OH266877   0.841   4.408  16.234  0.9910  0.2864 -0.0930
15129TIP3    H166878   0.930   4.443  16.232  0.6601  1.1821 -1.8288
15129TIP3    H266879   0.812   4.414  16.143 -0.2429 -1.5870  0.1384
15130TIP3   OH266880   4.344   0.283  12.150 -0.5493  0.3124  0.3034
15130TIP3    H166881   4.433   0.315  12.167 -0.5626  0.0297  0.9274
15130TIP3    H266882   4.348   0.250  12.060  0.1641 -0.3069  0.5481
15131TIP3   OH266883   4.301   0.226   0.228  0.3611 -0.1988  0.5097
15131TIP3    H166884   4.358   0.151   0.212  1.4302  0.4698  1.0683
15131TIP3    H266885   4.219   0.188   0.261  0.2120 -1.2142 -0.9521
15132TIP3   OH266886   5.150   2.262   0.210 -0.3609 -0.0137 -0.0220
15132TIP3    H166887   5.093   2.252   0.134 -0.9386 -0.1727  0.4197
15132TIP3    H266888   5.090   2.260   0.285  0.2044  0.0609  0.4404
15133TIP3   OH266889   5.223   4.884  14.092 -0.2041 -0.3505 -0.5407
15133TIP3    H166890   5.169   4.961  14.076 -1.2697 -0.8425  0.6062
15133TIP3    H266891   5.217   4.869  14.186 -0.2140 -1.9779 -0.7808
15134TIP3   OH266892   5.566   1.976  14.381 -0.1501  0.4570 -0.0261
15134TIP3    H166893   5.563   1.972  14.286  1.7075 -0.3168 -0.0887
15134TIP3    H266894   5.477   1.956  14.409 -0.5428 -0.0617 -1.5735
15135TIP3   OH266895   6.700   1.072   1.048  0.3342  0.2782 -0.5782
15135TIP3    H166896   6.744   1.024   1.118  0.2449 -0.8598 -1.2827
15135TIP3    H266897   6.769   1.125   1.008  0.7385 -0.3283 -0.6936
15136TIP3   OH266898   4.956   5.655  11.947 -0.1744  0.3811 -0.0619
15136TIP3    H166899   5.000   5.732  11.911  2.0063 -0.7140  0.1425
15136TIP3    H266900   5.026   5.594  11.966 -1.8772 -1.8227 -0.5181
15137TIP3   OH266901   3.008   5.611   5.581 -0.4056  0.3672  0.5524
15137TIP3    H166902   2.934   5.633   5.525 -1.2844 -0.5829  1.3012
15137TIP3    H266903   3.080   5.664   5.547 -1.1382  0.4895 -0.8940
15138TIP3   OH266904   0.472   2.463   6.212  0.3378 -0.1222 -0.0684
15138TIP3    H166905   0.441   2.377   6.240 -0.5971  0.5758  1.1393
15138TIP3    H266906   0.513   2.500   6.290  0.7125  0.5466 -0.5696
15139TIP3   OH266907   2.809   3.438  17.164  0.2385  0.0543  0.4207
15139TIP3    H166908   2.898   3.472  17.165 -0.1939  1.2438  0.3431
15139TIP3    H266909   2.781   3.441  17.256  0.8779 -2.0564  0.7382
15140TIP3   OH266910   6.253   5.791  13.986  0.0585 -0.0902  0.0785
15140TIP3    H166911   6.306   5.800  14.065  0.8841  2.0541 -0.6584
15140TIP3    H266912   6.232   5.697  13.982  0.1616 -0.3038  2.6828
15141TIP3   OH266913   2.379   1.823  16.869 -0.4397  0.0318  0.5684
15141TIP3    H166914   2.328   1.830  16.788  0.9396 -1.4515 -0.4895
15141TIP3    H266915   2.333   1.757  16.920 -0.5125 -0.0818  0.3578
15142TIP3   OH266916   0.721   2.342   1.322  0.0124  0.1774  0.2077
15142TIP3    H166917   0.785   2.279   1.289  0.9717  0.4654  1.4752
15142TIP3    H266918   0.732   2.419   1.266  0.1839 -0.0774 -0.1124
15143TIP3   OH266919   0.369   5.411  17.100 -0.2144 -0.0332  0.4942
15143TIP3    H166920   0.442   5.424  17.039  0.3232 -0.2746  1.0709
15143TIP3    H266921   0.398   5.339  17.157 -0.8801 -0.0934  0.7625
15144TIP3   OH266922   0.517   1.637  16.000  0.6767  0.1077 -1.2636
15144TIP3    H166923   0.519   1.727  15.968 -0.0445  0.5698 -0.0993
15144TIP3    H266924   0.485   1.586  15.926 -1.6186  1.2286 -1.1387
15145TIP3   OH266925   4.002   6.231   0.555  0.3791  0.0698  0.1353
15145TIP3    H166926   3.928   6.209   0.612  0.0576 -0.9189 -0.6289
15145TIP3    H266927   4.069   6.264   0.614 -0.0005 -0.7786  1.0671
15146TIP3   OH266928   3.818   4.210  11.497  0.4680  0.0967  0.4951
15146TIP3    H166929   3.860   4.272  11.437  3.2033 -1.2593  0.8757
15146TIP3    H266930   3.867   4.218  11.578 -0.7046 -0.8558  1.3323
15147TIP3   OH266931   4.958   2.802  12.711 -0.1563  0.1061  0.1503
15147TIP3    H166932   4.914   2.773  12.631  0.5621  0.8749 -0.5445
15147TIP3    H266933   4.991   2.890  12.690 -1.9329  1.3178  2.0489
15148TIP3   OH266934   5.343   0.316  12.346  0.3707 -0.0726 -0.6596
15148TIP3    H166935   5.399   0.238  12.343  0.2035 -0.3129  1.0729
15148TIP3    H266936   5.259   0.286  12.310  0.3757 -0.6395 -0.2200
15149TIP3   OH266937   2.609   0.374  12.221  0.0551 -0.1464 -0.3810
15149TIP3    H166938   2.561   0.342  12.145 -1.2089 -0.5799  0.5619
15149TIP3    H266939   2.631   0.465  12.199  0.1225 -0.4122 -1.4392
15150TIP3   OH266940   5.966   1.567  17.297 -0.2379 -0.6795 -0.0229
15150TIP3    H166941   5.905   1.517  17.351 -0.3554 -1.0293 -0.4717
15150TIP3    H266942   5.915   1.590  17.219  0.4515 -1.7555 -0.8198
15151TIP3   OH266943   3.169   2.653   4.837 -0.3744 -0.0002 -0.2870
15151TIP3    H166944   3.161   2.670   4.931  1.6849  0.5179 -0.1651
15151TIP3    H266945   3.146   2.560   4.828  1.5903 -0.6758  1.0928
15152TIP3   OH266946   5.524   1.199   5.837 -0.2533 -0.7926  0.0966
15152TIP3    H166947   5.591   1.132   5.825 -0.0606 -0.6742  0.5135
15152TIP3    H266948   5.555   1.274   5.785 -0.0404 -0.7215  0.3274
15153TIP3   OH266949   3.506   0.272  15.725  0.0147  0.3335 -0.1570
15153TIP3    H166950   3.572   0.341  15.731  0.2546  0.1459 -0.6468
15153TIP3    H266951   3.527   0.213  15.797  2.4375 -1.5065 -2.2349
15154TIP3   OH266952   1.216   6.694   4.617  0.7380 -0.0259  0.1878
15154TIP3    H166953   1.218   6.744   4.535 -1.4349 -2.6659 -1.7164
15154TIP3    H266954   1.129   6.710   4.652  1.0103 -0.3340  1.0183
15155TIP3   OH266955   1.364   0.954   2.746 -0.1397  0.1648  0.6243
15155TIP3    H166956   1.298   0.903   2.793 -0.2060  0.0305  0.3851
15155TIP3    H266957   1.323   1.040   2.732 -0.3896 -0.0293  0.1754
15156TIP3   OH266958   3.749   5.735  12.265  0.0534 -0.5744  0.2163
15156TIP3    H166959   3.712   5.736  12.353 -1.6161  2.2082 -0.4117
15156TIP3    H266960   3.805   5.813  12.261 -0.1361 -0.4822 -1.2692
15157TIP3   OH266961   3.601   6.441   1.413 -0.2516 -0.5152  0.2333
15157TIP3    H166962   3.612   6.490   1.494 -0.3186  0.0679 -0.1011
15157TIP3    H266963   3.509   6.413   1.413 -0.9488  1.6044 -0.7855
15158TIP3   OH266964   0.153   2.251  12.384 -0.8505  0.2048 -0.5007
15158TIP3    H166965   0.228   2.193  12.376 -2.0032 -1.3634 -0.5172
15158TIP3    H266966   0.131   2.275  12.294 -1.8895 -1.4421 -0.7301
15159TIP3   OH266967   4.011   4.809  15.758  0.2661  0.2821  0.0276
15159TIP3    H166968   3.980   4.838  15.672  0.7308 -0.3545 -0.3555
15159TIP3    H266969   3.992   4.883  15.816 -1.2545  0.2173 -0.3504
15160TIP3   OH266970   6.289   0.001  12.589 -0.1147 -0.1350 -0.1228
15160TIP3    H166971   6.251  -0.063  12.649 -0.7159 -1.3263 -1.6784
15160TIP3    H266972   6.215   0.029  12.535  0.8029 -1.0622 -1.9762
15161TIP3   OH266973   3.826   3.219  10.925  0.4731  0.6533  0.4662
15161TIP3    H166974   3.763   3.252  10.861  0.3033  0.2830  0.4367
15161TIP3    H266975   3.869   3.145  10.881  0.8398  0.8227  0.5318
15162TIP3   OH266976   4.106   5.935  17.074  0.3181  0.3341  0.1607
15162TIP3    H166977   4.115   6.025  17.104  0.3157 -0.2580  2.1138
15162TIP3    H266978   4.036   5.938  17.008  3.1461  2.3609 -3.0777
15163TIP3   OH266979   1.046   3.970  13.411 -0.1161  0.0851  0.4947
15163TIP3    H166980   1.032   4.052  13.458 -0.9392  0.0832  0.2691
15163TIP3    H266981   0.973   3.965  13.349 -0.1483 -0.8766  0.5974
15164TIP3   OH266982   3.371   5.044  16.861 -0.1894  0.2437  0.3080
15164TIP3    H166983   3.439   4.989  16.899 -0.5633 -0.2703  0.2358
15164TIP3    H266984   3.289   5.004  16.888 -0.5012 -0.9202 -2.1049
15165TIP3   OH266985   0.899   5.467  15.834 -0.1033 -0.0483 -0.8572
15165TIP3    H166986   0.924   5.380  15.803 -0.7398 -0.3232 -0.6292
15165TIP3    H266987   0.982   5.510  15.853  0.2367 -0.4502 -1.3793
15166TIP3   OH266988   4.352   1.866  16.479 -0.0957  0.4653 -0.5897
15166TIP3    H166989   4.410   1.925  16.432  0.1560  1.4836  0.9402
15166TIP3    H266990   4.314   1.919  16.549 -0.0044 -1.1161  0.7458
15167TIP3   OH266991   5.241   1.385  16.234 -0.1214  0.1844  0.2874
15167TIP3    H166992   5.228   1.379  16.329 -0.2669  0.5418  0.2906
15167TIP3    H266993   5.184   1.456  16.206  0.4479  0.5460  0.0353
15168TIP3   OH266994   3.235   4.588   2.537 -0.6165 -0.0064 -0.4356
15168TIP3    H166995   3.308   4.536   2.503  1.0045  0.7923  1.6584
15168TIP3    H266996   3.188   4.528   2.595 -1.4605 -0.4052 -1.4904
15169TIP3   OH266997   1.315   1.303   2.595  0.3166  0.0168  0.6904
15169TIP3    H166998   1.263   1.266   2.666 -0.0660 -1.9154 -0.5255
15169TIP3    H266999   1.252   1.358   2.546 -0.8755 -2.6647 -1.0402
15170TIP3   OH267000   5.481   2.887  12.535 -0.1981  0.4606  0.0979
15170TIP3    H167001   5.522   2.954  12.589  2.7370 -0.7138 -0.4979
15170TIP3    H267002   5.463   2.815  12.595 -2.8951  1.4641  0.6382
15171TIP3   OH267003   2.436   0.810   0.252 -0.2314  0.5589  0.4409
15171TIP3    H167004   2.379   0.870   0.301 -0.2715  0.5479  0.4082
15171TIP3    H267005   2.524   0.834   0.279 -0.1786  1.4247 -0.4461
15172TIP3   OH267006   2.810   3.281   0.393  0.5016 -0.2501  0.6231
15172TIP3    H167007   2.883   3.260   0.450 -0.4604 -1.5576  1.4219
15172TIP3    H267008   2.791   3.199   0.346  0.8577  0.6135 -1.1259
15173TIP3   OH267009   3.175   2.884  13.696  0.7320  0.1726  0.1197
15173TIP3    H167010   3.203   2.818  13.632 -0.8750 -0.0789 -0.3719
15173TIP3    H267011   3.231   2.868  13.772 -0.5068 -2.7022  0.5426
15174TIP3   OH267012   5.562   5.650  17.281 -0.4459  0.7054  0.3959
15174TIP3    H167013   5.541   5.689  17.196 -1.6644  0.0509  0.3705
15174TIP3    H267014   5.535   5.559  17.273  1.2887  0.1165  0.8392
15175TIP3   OH267015   4.383   2.414  13.788 -0.6566  0.3045  0.0911
15175TIP3    H167016   4.437   2.430  13.865  0.1004 -0.2677 -0.3031
15175TIP3    H267017   4.427   2.461  13.717 -0.0136 -1.0846 -0.4706
15176TIP3   OH267018   4.343   2.533   0.557 -0.3768 -0.0580  0.2073
15176TIP3    H167019   4.271   2.474   0.578  0.7870 -1.6800 -0.1806
15176TIP3    H267020   4.412   2.509   0.618 -0.1253  1.4860  0.5904
15177TIP3   OH267021   4.483   4.132   1.235  0.5318  0.4710  0.0201
15177TIP3    H167022   4.425   4.184   1.181  1.0986 -0.2651 -1.3437
15177TIP3    H267023   4.425   4.078   1.288 -0.0227  0.8916 -0.1473
15178TIP3   OH267024   4.208   0.332  17.236  0.1027  0.2148 -0.0012
15178TIP3    H167025   4.300   0.311  17.252  0.5460 -0.4970 -2.9670
15178TIP3    H267026   4.189   0.295  17.150 -2.4889  1.8619 -0.2523
15179TIP3   OH267027   6.196   3.780   2.257 -0.5755 -0.6680  0.7900
15179TIP3    H167028   6.133   3.837   2.213 -0.9127  0.1083  2.1997
15179TIP3    H267029   6.166   3.691   2.240 -1.0602 -0.3590  0.0205
15180TIP3   OH267030   0.882   5.371  15.141 -0.3105  0.1740 -0.2135
15180TIP3    H167031   0.869   5.461  15.112 -1.3414 -0.1169 -0.7066
15180TIP3    H267032   0.799   5.327  15.120  0.5036 -1.1164 -0.8815
15181TIP3   OH267033   3.476   3.286   1.172 -0.5341 -0.1734 -0.0206
15181TIP3    H167034   3.447   3.376   1.180  2.0220  0.8131 -0.7436
15181TIP3    H267035   3.480   3.270   1.078 -0.3961 -0.8312  0.0914
15182TIP3   OH267036   0.713   0.703   2.394 -0.3051  0.2585  0.3308
15182TIP3    H167037   0.746   0.740   2.475  0.1497 -0.7793  0.6450
15182TIP3    H267038   0.623   0.678   2.413  0.3668 -1.7194  1.1489
15183TIP3   OH267039   3.271   0.470   4.984 -0.4673  0.4392 -0.5050
15183TIP3    H167040   3.266   0.530   4.909  2.4511 -0.6506 -1.7330
15183TIP3    H267041   3.358   0.484   5.020 -0.2093 -2.0228  0.0329
15184TIP3   OH267042   2.459   2.471   3.846  0.1874 -0.7160  0.3237
15184TIP3    H167043   2.452   2.530   3.921 -2.3975 -0.9607  0.3514
15184TIP3    H267044   2.552   2.446   3.844  0.6202  0.4685  2.4977
15185TIP3   OH267045   3.009   6.487  15.960  0.2341  0.4300 -0.3996
15185TIP3    H167046   2.974   6.400  15.940  0.1553  0.2371  0.5070
15185TIP3    H267047   2.973   6.507  16.046  2.4469  0.1542  0.6593
15186TIP3   OH267048   0.760   5.470  11.902  0.0118  0.1256  0.1376
15186TIP3    H167049   0.687   5.522  11.869 -0.2382 -0.2175  0.1367
15186TIP3    H267050   0.740   5.381  11.872  0.2568 -0.0283  0.4282
15187TIP3   OH267051   1.916   1.815  12.040 -0.1707 -0.1802  0.1258
15187TIP3    H167052   1.999   1.780  12.071  0.6307  1.6202  0.1586
15187TIP3    H267053   1.933   1.839  11.949 -0.6775  0.1502  0.1122
15188TIP3   OH267054   2.979   4.708   5.521  0.0925 -0.1208  0.2904
15188TIP3    H167055   3.046   4.776   5.511 -1.0659  1.0912  0.4982
15188TIP3    H267056   3.029   4.627   5.533  1.5969  1.0673  2.9309
15189TIP3   OH267057   3.866   1.299  14.634 -0.1007  0.2495 -0.0546
15189TIP3    H167058   3.791   1.244  14.656  0.0784 -1.4393 -3.1065
15189TIP3    H267059   3.834   1.389  14.647 -2.2803 -0.4477 -0.1276
15190TIP3   OH267060   3.364   5.053   0.929 -0.9043  0.0990  0.1584
15190TIP3    H167061   3.438   5.090   0.882  0.0005 -1.0449  0.6297
15190TIP3    H267062   3.314   5.128   0.959  0.4241  0.9091  0.4020
15191TIP3   OH267063   3.709   5.478  13.954  0.3111  0.1649 -0.2840
15191TIP3    H167064   3.723   5.540  13.882 -1.7467 -1.4329 -2.1998
15191TIP3    H267065   3.650   5.524  14.014  0.0033  0.6203 -0.9182
15192TIP3   OH267066   6.112   6.607  14.682  0.1595  0.7423 -0.0618
15192TIP3    H167067   6.061   6.644  14.610 -2.1650 -0.8901  0.6337
15192TIP3    H267068   6.100   6.668  14.754  0.6391  1.2421 -0.3980
15193TIP3   OH267069   4.530   6.699  14.884 -0.3855  0.3304 -0.0484
15193TIP3    H167070   4.529   6.759  14.809  0.8970 -1.5300 -1.6660
15193TIP3    H267071   4.442   6.662  14.886 -0.7808  1.2413  0.1367
15194TIP3   OH267072   1.447   2.533  16.379 -0.3237  0.1135  0.1248
15194TIP3    H167073   1.375   2.530  16.317 -0.1086 -0.1045 -0.1159
15194TIP3    H267074   1.418   2.478  16.452 -0.0900 -0.5878 -0.3076
15195TIP3   OH267075   0.506   3.900   4.867 -0.6543 -0.6442  0.1139
15195TIP3    H167076   0.577   3.855   4.823 -0.4826 -0.5898  0.3293
15195TIP3    H267077   0.539   3.989   4.881 -0.7507 -0.6280  0.2464
15196TIP3   OH267078   3.289   2.116   1.696 -0.0837  0.4036 -0.1178
15196TIP3    H167079   3.260   2.184   1.756  1.4468 -0.3751  1.6051
15196TIP3    H267080   3.269   2.034   1.741  2.1963 -0.1828 -0.0572
15197TIP3   OH267081   1.384   4.901   3.979  0.4103 -0.3522  0.0093
15197TIP3    H167082   1.436   4.851   4.041 -0.9950 -1.6624  0.1975
15197TIP3    H267083   1.445   4.963   3.940  1.8524 -1.1407  0.9427
15198TIP3   OH267084   0.528   1.196  14.861  0.2138 -0.2173 -0.0314
15198TIP3    H167085   0.580   1.247  14.923 -1.0130  0.9759  0.0747
15198TIP3    H267086   0.444   1.184  14.906  0.0019 -1.1152 -0.6458
15199TIP3   OH267087   5.280   3.130   1.912  0.0242 -0.4904 -0.4437
15199TIP3    H167088   5.303   3.113   1.821  0.0604  1.6205 -0.8785
15199TIP3    H267089   5.185   3.135   1.913  0.0349 -0.3019 -0.4018
15200TIP3   OH267090   1.289   1.789   2.222  0.2237 -0.3233  0.2700
15200TIP3    H167091   1.234   1.744   2.158  1.3812 -1.6152  0.1351
15200TIP3    H267092   1.328   1.718   2.274  1.7655  0.5369  0.3485
15201TIP3   OH267093   2.961   1.448   3.843  0.2893  0.4373  0.7280
15201TIP3    H167094   2.903   1.488   3.779 -0.7048  0.3595  1.5453
15201TIP3    H267095   2.996   1.522   3.893  1.3187  0.5233 -0.0806
15202TIP3   OH267096   3.762   5.463   1.221 -0.0449  0.1023  0.0791
15202TIP3    H167097   3.770   5.447   1.315  1.5131 -2.4878 -0.4032
15202TIP3    H267098   3.735   5.379   1.185 -0.1042  0.9115 -1.8408
15203TIP3   OH267099   5.413   0.549  10.629 -0.1993  0.3036  0.0421
15203TIP3    H167100   5.373   0.622  10.582 -0.2045 -1.1149 -2.3285
15203TIP3    H267101   5.369   0.548  10.714 -3.3954  0.4240 -1.4734
15204TIP3   OH267102   1.503   2.227  12.254 -0.5802  0.3023  0.0118
15204TIP3    H167103   1.587   2.272  12.257 -0.4575  0.1650 -1.1084
15204TIP3    H267104   1.524   2.138  12.225 -1.1258  0.3204 -0.4655
15205TIP3   OH267105   3.316   1.328   0.804 -0.5334 -0.2666  0.3269
15205TIP3    H167106   3.317   1.420   0.779  1.5138 -0.6715 -1.3330
15205TIP3    H267107   3.270   1.326   0.888 -2.0571  2.0240 -0.3733
15206TIP3   OH267108   1.661   3.362   6.377  0.0116 -0.0625 -0.6679
15206TIP3    H167109   1.670   3.445   6.423  0.2036 -0.2388 -0.3872
15206TIP3    H267110   1.680   3.296   6.443  0.5248 -0.3085 -1.0594
15207TIP3   OH267111   2.329   4.137  11.331  0.6748  0.7908 -0.1295
15207TIP3    H167112   2.388   4.127  11.406 -0.3486 -0.0888  0.5819
15207TIP3    H267113   2.335   4.230  11.309  0.8143  1.1257  1.2099
15208TIP3   OH267114   3.042   3.610  11.153  0.5030  0.3007 -0.2566
15208TIP3    H167115   2.950   3.603  11.181  0.1247 -0.0864 -1.5417
15208TIP3    H267116   3.092   3.574  11.226 -0.4221 -0.2818  0.1081
15209TIP3   OH267117   4.670   0.476  14.353 -0.4101 -0.7357 -0.4658
15209TIP3    H167118   4.683   0.453  14.261 -0.5965  0.2401 -0.7454
15209TIP3    H267119   4.657   0.570  14.352  1.1073 -0.4667  0.7074
15210TIP3   OH267120   3.869   4.883  12.271 -0.1196  0.6033  0.6020
15210TIP3    H167121   3.793   4.918  12.224  0.0119 -0.1008 -0.1697
15210TIP3    H267122   3.839   4.873  12.361 -0.6702  1.1289  0.4844
15211TIP3   OH267123   5.008   5.844   0.187 -0.2759  0.6988  0.3467
15211TIP3    H167124   5.016   5.813   0.276  1.8228  2.0294  0.6883
15211TIP3    H267125   4.929   5.801   0.153  1.3165 -3.3873  1.3142
15212TIP3   OH267126   2.181   6.756  15.911 -0.1928  0.0730  0.4166
15212TIP3    H167127   2.131   6.815  15.969 -1.7670  0.1389 -0.9251
15212TIP3    H267128   2.185   6.803  15.828  0.0007 -1.0078 -0.1981
15213TIP3   OH267129   5.725   2.096  16.390 -0.3508 -0.5348 -0.0541
15213TIP3    H167130   5.717   2.187  16.361  2.5346 -0.4086 -0.7116
15213TIP3    H267131   5.688   2.044  16.318 -0.3626  0.0516 -0.4727
15214TIP3   OH267132   6.352   2.744   0.063 -0.0880  0.3226  0.1462
15214TIP3    H167133   6.359   2.726  -0.031 -0.4275  0.3717  0.1109
15214TIP3    H267134   6.411   2.817   0.078 -0.2943  0.5374 -0.0916
15215TIP3   OH267135   4.427   2.059   1.682  0.1830  0.3242  0.0436
15215TIP3    H167136   4.367   2.040   1.609 -0.3196 -0.5114  0.6575
15215TIP3    H267137   4.378   2.119   1.738  0.1102  0.0539  0.2752
15216TIP3   OH267138   6.231   5.675  14.531 -0.4422 -0.2113  0.1697
15216TIP3    H167139   6.191   5.713  14.453 -1.1931 -0.2682  0.5161
15216TIP3    H267140   6.206   5.583  14.528 -3.7997  0.4329  2.4026
15217TIP3   OH267141   1.283   3.249  14.696 -0.2930  0.0502 -0.0231
15217TIP3    H167142   1.258   3.333  14.735  1.0795 -0.0338  1.1061
15217TIP3    H267143   1.307   3.271  14.606 -1.7181  0.5552 -0.2925
15218TIP3   OH267144   2.884   3.270   1.186 -0.4776  0.6827  0.3089
15218TIP3    H167145   2.935   3.213   1.130  2.1612  1.4733  1.7206
15218TIP3    H267146   2.793   3.242   1.174 -0.1353  0.7634 -4.1957
15219TIP3   OH267147   4.685   2.443   6.893  0.3057  0.3579 -0.7799
15219TIP3    H167148   4.636   2.468   6.814  1.1477 -1.1597 -1.8305
15219TIP3    H267149   4.751   2.512   6.903  0.1765  0.5777 -1.3855
15220TIP3   OH267150   5.613   2.820   1.771 -0.0646 -0.2649 -0.0245
15220TIP3    H167151   5.655   2.887   1.717  0.0403 -0.3282 -0.0225
15220TIP3    H267152   5.644   2.837   1.860 -0.8243  0.3017  0.1433
15221TIP3   OH267153   2.760   0.503   6.852 -0.0340  0.2412  0.2518
15221TIP3    H167154   2.705   0.521   6.776  0.2708  2.5293  0.5157
15221TIP3    H267155   2.711   0.537   6.926  0.6961  0.1492  0.7896
15222TIP3   OH267156   6.223   5.654   6.514 -0.1732 -0.4474  0.0501
15222TIP3    H167157   6.210   5.705   6.434  1.7541  0.6964  0.3880
15222TIP3    H267158   6.169   5.576   6.502  0.4187 -0.5423 -2.5976
15223TIP3   OH267159   4.739   1.575  15.678 -0.3424 -0.2471 -0.2197
15223TIP3    H167160   4.786   1.544  15.600  0.3217 -1.0349  0.4795
15223TIP3    H267161   4.806   1.586  15.745 -1.1236 -1.4285  0.8088
15224TIP3   OH267162   3.831   4.774   3.811  0.0493  0.7138 -0.0868
15224TIP3    H167163   3.812   4.847   3.753  1.0577  1.0386 -0.0326
15224TIP3    H267164   3.834   4.698   3.754 -0.0505  0.8586 -0.2869
15225TIP3   OH267165   4.557   0.837  13.749 -0.0834 -0.0554 -0.5313
15225TIP3    H167166   4.556   0.756  13.800 -0.1948  0.6483  0.6108
15225TIP3    H267167   4.584   0.904  13.811 -1.9962  1.1422 -0.9073
15226TIP3   OH267168   2.070   0.759  12.439  0.3987  0.9839 -0.1701
15226TIP3    H167169   1.978   0.786  12.436  0.1228 -0.0077 -2.3699
15226TIP3    H267170   2.080   0.722  12.527 -1.8855 -0.6374 -0.4918
15227TIP3   OH267171   3.319   1.270   4.993 -0.2982  0.2950 -0.3597
15227TIP3    H167172   3.376   1.205   4.952  0.4418  0.4853  0.3372
15227TIP3    H267173   3.353   1.278   5.082 -1.1321  0.7593 -0.0777
15228TIP3   OH267174   5.325   3.495   2.582  0.8222  0.0585 -0.1966
15228TIP3    H167175   5.390   3.434   2.548 -0.3403 -0.4151 -1.6666
15228TIP3    H267176   5.252   3.490   2.520 -1.6261 -1.1888  2.5238
15229TIP3   OH267177   0.252   5.596  15.684  0.2012  0.3456 -0.4793
15229TIP3    H167178   0.346   5.613  15.678  0.1143  1.5928  0.9488
15229TIP3    H267179   0.238   5.518  15.631  2.4174 -1.2141  1.0392
15230TIP3   OH267180   0.756   3.966  12.018 -0.2967 -0.7946 -0.2934
15230TIP3    H167181   0.704   4.005  11.947 -3.3412 -2.0088  1.1151
15230TIP3    H267182   0.784   4.042  12.070 -0.6134 -0.0969 -1.1006
15231TIP3   OH267183   5.654   6.753   4.375 -0.2731  0.0965  0.4195
15231TIP3    H167184   5.579   6.765   4.435 -0.2068  0.5002  0.4255
15231TIP3    H267185   5.661   6.837   4.329  1.5663  0.8939  2.0007
15232TIP3   OH267186   5.537   5.185   2.539 -0.4172  0.0511  0.4413
15232TIP3    H167187   5.445   5.166   2.522 -0.4662 -0.7018  1.4840
15232TIP3    H267188   5.585   5.129   2.477 -0.6434  0.8261 -0.4658
15233TIP3   OH267189   1.572   5.941  14.328  0.7165  0.3913 -0.8246
15233TIP3    H167190   1.599   5.859  14.287  0.7026 -0.4711  0.8233
15233TIP3    H267191   1.523   5.987  14.260 -1.9578 -2.3035 -0.9171
15234TIP3   OH267192   4.296   4.265   3.732  0.0438 -0.2208 -0.6103
15234TIP3    H167193   4.295   4.292   3.640  0.1520 -1.0711 -0.8637
15234TIP3    H267194   4.264   4.342   3.779 -0.0232  0.2206 -1.3561
15235TIP3   OH267195   4.813   3.548  14.739 -0.2555  0.4562  0.1340
15235TIP3    H167196   4.730   3.547  14.691 -0.1124 -2.1397 -0.2199
15235TIP3    H267197   4.790   3.580  14.826 -2.0224 -1.6123  0.5313
15236TIP3   OH267198   6.283   3.511  12.682 -0.0042 -0.2097  0.0910
15236TIP3    H167199   6.307   3.589  12.732 -0.6310  0.2580 -0.3206
15236TIP3    H267200   6.199   3.483  12.719 -0.5182  0.1922 -0.7270
15237TIP3   OH267201   2.994   4.261  10.707 -0.6434  0.6485 -0.2019
15237TIP3    H167202   3.062   4.196  10.687 -1.4129  0.0913 -1.0886
15237TIP3    H267203   2.982   4.309  10.625 -0.4754  1.5635  0.2917
15238TIP3   OH267204   6.375   4.178   5.705  0.1360  0.0997 -0.0722
15238TIP3    H167205   6.391   4.113   5.636  3.4055  0.6769 -0.0152
15238TIP3    H267206   6.340   4.254   5.659 -1.1954 -0.7289 -0.5057
15239TIP3   OH267207   3.143   0.933  14.712 -0.1900 -0.6657  0.3766
15239TIP3    H167208   3.167   0.947  14.803 -1.5556 -0.1032  0.6766
15239TIP3    H267209   3.163   1.016  14.669  0.6361 -0.9933  0.1054
15240TIP3   OH267210   3.672   0.785   6.330 -0.4529 -0.3035 -0.1582
15240TIP3    H167211   3.689   0.800   6.423 -0.4146 -3.7786  0.5324
15240TIP3    H267212   3.591   0.733   6.328 -0.1900 -0.7344 -1.9959
15241TIP3   OH267213   0.334   4.473   3.599  0.2820 -0.5119 -0.6049
15241TIP3    H167214   0.245   4.501   3.619  0.2730  0.0096 -1.3355
15241TIP3    H267215   0.346   4.393   3.649 -0.4982 -0.4313 -0.2769
15242TIP3   OH267216   6.288   6.597   5.408 -0.6044  0.4747 -0.1926
15242TIP3    H167217   6.357   6.573   5.346  0.8242 -0.2993  1.6254
15242TIP3    H267218   6.281   6.523   5.467  0.0992  2.2625  2.2842
15243TIP3   OH267219   5.300   3.734  14.587  0.2581 -0.7458  0.4203
15243TIP3    H167220   5.239   3.707  14.656 -0.1976 -0.8826 -0.0309
15243TIP3    H267221   5.325   3.652  14.545 -0.7729 -0.5272 -0.6626
15244TIP3   OH267222   2.120   1.963   0.715 -0.0782  0.0461 -0.7839
15244TIP3    H167223   2.124   1.978   0.621  1.1458 -2.6180 -1.2546
15244TIP3    H267224   2.151   1.873   0.727  0.6093  0.5524  2.2556
15245TIP3   OH267225   0.729   6.073   2.276  0.0929  0.1437  0.5594
15245TIP3    H167226   0.762   6.030   2.198  0.5883 -0.1354  0.9182
15245TIP3    H267227   0.799   6.064   2.340 -0.7682 -0.6566  1.4123
15246TIP3   OH267228   3.080   6.720   1.765 -0.2130  0.2620 -0.2724
15246TIP3    H167229   2.987   6.707   1.781 -0.1652 -0.7231 -0.6830
15246TIP3    H267230   3.084   6.760   1.678 -0.2188 -1.0243 -0.8878
15247TIP3   OH267231   0.492   5.004  16.936  0.8985 -0.0788 -0.1110
15247TIP3    H167232   0.483   5.003  17.031 -0.8570  1.1359 -0.2056
15247TIP3    H267233   0.584   5.025  16.920  1.1176  0.1327  1.3225
15248TIP3   OH267234   5.428   2.897  11.008  0.2215 -0.6097  0.2383
15248TIP3    H167235   5.434   2.981  11.054 -0.4571 -0.6478  0.4098
15248TIP3    H267236   5.446   2.918  10.917  1.2203 -0.4732  0.4590
15249TIP3   OH267237   3.187   0.131  13.368 -0.1437 -0.1972 -0.0941
15249TIP3    H167238   3.156   0.162  13.453 -0.0712  1.6644 -0.7014
15249TIP3    H267239   3.124   0.168  13.305 -0.1364 -1.4486 -0.8798
15250TIP3   OH267240   5.617   2.083  16.811  0.2147  0.4132  0.0678
15250TIP3    H167241   5.650   2.123  16.730 -0.2911  3.0680  1.0587
15250TIP3    H267242   5.522   2.079  16.797  0.2607 -0.5109 -0.0166
15251TIP3   OH267243   6.124   2.694  15.049 -0.1560 -0.2858 -0.2618
15251TIP3    H167244   6.043   2.681  15.000 -0.2026  1.3822 -0.6941
15251TIP3    H267245   6.193   2.681  14.984  0.0642 -2.9947  0.3766
15252TIP3   OH267246   2.019   0.232  12.860  0.0343 -0.1352  0.2189
15252TIP3    H167247   1.953   0.179  12.904  1.2546  0.3200  2.7360
15252TIP3    H267248   2.103   0.192  12.884  0.8280  1.1039 -0.3658
15253TIP3   OH267249   3.560   3.843  16.608 -0.2159 -0.4170  0.1086
15253TIP3    H167250   3.647   3.830  16.646 -0.0967 -0.5809 -0.2169
15253TIP3    H267251   3.532   3.929  16.641 -0.3003 -0.7453  0.9190
15254TIP3   OH267252   0.754   5.055  12.214 -0.1039  0.1204 -0.3844
15254TIP3    H167253   0.714   5.140  12.233 -0.5547 -0.1725 -0.0074
15254TIP3    H267254   0.764   5.054  12.119 -1.7698 -0.1314 -0.5899
15255TIP3   OH267255   0.231   3.432   1.032 -0.0527  0.4014 -0.5608
15255TIP3    H167256   0.157   3.490   1.011 -0.7192 -0.6679 -1.2166
15255TIP3    H267257   0.239   3.438   1.128 -0.6951  0.8826 -0.5266
15256TIP3   OH267258   5.639   5.357  13.068 -0.2502 -0.0157  0.4822
15256TIP3    H167259   5.699   5.310  13.010  1.5386  1.7010  0.8348
15256TIP3    H267260   5.581   5.289  13.102  1.0429 -1.6617 -0.4212
15257TIP3   OH267261   2.965   5.273  14.969 -0.1352  0.5461 -0.1206
15257TIP3    H167262   2.973   5.345  15.032 -1.0489  2.4167 -2.0344
15257TIP3    H267263   3.053   5.238  14.961  0.1255  0.7239  1.6484
15258TIP3   OH267264   1.933   2.080   1.541  0.0937  0.1340  0.1502
15258TIP3    H167265   1.988   2.023   1.488  0.5679  0.5721  0.1687
15258TIP3    H267266   1.901   2.024   1.612 -1.3552 -0.7506 -1.1079
15259TIP3   OH267267   1.102   5.672  16.802 -0.0294 -0.0951  0.1759
15259TIP3    H167268   1.181   5.642  16.848 -1.6605 -1.1514  2.5209
15259TIP3    H267269   1.072   5.747  16.853 -2.3378 -1.7901  1.4659
15260TIP3   OH267270   1.236   1.255  16.114  0.3351 -0.0804 -0.2359
15260TIP3    H167271   1.171   1.213  16.058  0.1227  0.1703 -0.1832
15260TIP3    H267272   1.257   1.189  16.180  1.0596 -0.6051 -0.9737
15261TIP3   OH267273   5.879   2.686  16.903  0.4963  0.2526 -0.5963
15261TIP3    H167274   5.962   2.653  16.936  1.0866 -0.9467 -3.0382
15261TIP3    H267275   5.881   2.780  16.923  0.6907 -0.3277  2.6739
15262TIP3   OH267276   0.659   3.554  10.897  0.3285  0.3072  0.0904
15262TIP3    H167277   0.724   3.569  10.966 -0.0017  1.8398  0.1016
15262TIP3    H267278   0.687   3.611  10.826  0.4759 -1.0182 -0.9500
15263TIP3   OH267279   4.219   0.629  12.843  0.0938 -0.1765  0.0239
15263TIP3    H167280   4.190   0.663  12.758 -0.5028  1.8356  0.9758
15263TIP3    H267281   4.145   0.577  12.874  0.1939 -0.6657 -0.5277
15264TIP3   OH267282   5.069   6.681  13.900 -0.7735 -0.8049  0.3153
15264TIP3    H167283   5.074   6.670  13.995 -1.3340 -1.2381  0.2992
15264TIP3    H267284   4.994   6.627  13.874 -0.0229 -1.4712 -0.4965
15265TIP3   OH267285   1.873   3.728  14.908  0.0302 -0.1388 -0.1381
15265TIP3    H167286   1.857   3.808  14.857 -2.9204 -0.8937 -0.5970
15265TIP3    H267287   1.943   3.683  14.861  1.9580  2.2143  0.2819
15266TIP3   OH267288   0.182   5.966  12.943  0.1622  0.6420  0.1092
15266TIP3    H167289   0.093   5.972  12.978 -0.1859 -0.5913 -0.5148
15266TIP3    H267290   0.174   5.994  12.852  0.0235 -1.2571 -0.5024
15267TIP3   OH267291   2.562   5.431  11.669 -0.6271  0.0870 -0.6626
15267TIP3    H167292   2.610   5.376  11.607  1.6216  3.3846 -2.1557
15267TIP3    H267293   2.504   5.484  11.614 -0.9441  0.8812  0.4054
15268TIP3   OH267294   4.401   0.218  15.005  0.6754  0.0872 -0.3658
15268TIP3    H167295   4.384   0.304  14.967  0.9039 -0.2670 -1.2960
15268TIP3    H267296   4.493   0.221  15.031  0.3414  0.5655  0.8193
15269TIP3   OH267297   2.798   2.526   4.294 -0.0499  0.1088 -0.1089
15269TIP3    H167298   2.878   2.579   4.300 -0.8167  1.5022 -1.5068
15269TIP3    H267299   2.829   2.440   4.268  1.0320  0.5652 -0.4143
15270TIP3   OH267300   1.467   1.759  13.530 -0.3304 -0.0233 -0.5384
15270TIP3    H167301   1.416   1.809  13.465  0.8682 -0.4339 -1.8413
15270TIP3    H267302   1.536   1.819  13.557 -1.1215  0.3288  0.7961
15271TIP3   OH267303   0.413   6.108   3.385 -0.2450 -0.2130  0.0584
15271TIP3    H167304   0.504   6.133   3.399 -0.3455 -0.2345  0.7988
15271TIP3    H267305   0.376   6.179   3.333  0.1598 -0.1446 -0.1382
15272TIP3   OH267306   1.189   5.086   2.703  0.2093 -0.0093  0.2887
15272TIP3    H167307   1.176   5.044   2.788 -0.0047  0.0976  0.3102
15272TIP3    H267308   1.162   5.019   2.639  1.2380 -0.4171  0.2685
15273TIP3   OH267309   6.583   1.072   5.384  0.6047  0.2149 -0.3309
15273TIP3    H167310   6.578   1.001   5.321 -0.0223  0.3953 -0.4928
15273TIP3    H267311   6.646   1.042   5.450  0.3711 -0.4738 -0.4142
15274TIP3   OH267312   2.718   2.400  16.991  0.2919  0.1605 -0.3652
15274TIP3    H167313   2.674   2.322  16.957  0.4983 -0.5301  0.8977
15274TIP3    H267314   2.677   2.472  16.943 -0.9148 -0.6110 -0.5608
15275TIP3   OH267315   4.695   6.578  17.184  0.6527  0.5384 -0.2863
15275TIP3    H167316   4.749   6.655  17.204  0.9525  0.4251 -0.6475
15275TIP3    H267317   4.746   6.504  17.218  1.3829  0.2954 -1.8185
15276TIP3   OH267318   4.892   4.513  16.524  0.1166  0.6830  0.1749
15276TIP3    H167319   4.857   4.600  16.507 -1.6897 -0.2239 -1.0532
15276TIP3    H267320   4.958   4.499  16.456 -2.3215 -0.3102 -2.1676
15277TIP3   OH267321   1.987   1.269   0.064  0.0298 -0.1531 -0.4206
15277TIP3    H167322   1.900   1.289   0.032 -0.3029 -0.5856  0.1833
15277TIP3    H267323   1.986   1.174   0.078  0.4508 -0.1021 -0.0070
15278TIP3   OH267324   2.163   1.618  12.849  0.0635  0.5801 -0.1587
15278TIP3    H167325   2.074   1.604  12.819 -0.1681  1.3682  0.1295
15278TIP3    H267326   2.214   1.547  12.808 -0.6493  0.2479 -0.4876
15279TIP3   OH267327   3.700   6.203   1.287  0.3153 -0.0924  0.1065
15279TIP3    H167328   3.642   6.164   1.221 -0.8889 -0.3489  1.2817
15279TIP3    H267329   3.644   6.267   1.332  1.5051  1.0614  0.0055
15280TIP3   OH267330   3.783   4.806   2.238 -0.3093 -0.4453  0.3143
15280TIP3    H167331   3.860   4.815   2.295 -0.3562  0.0690  0.2952
15280TIP3    H267332   3.757   4.714   2.248  0.6865 -0.7932 -0.1717
15281TIP3   OH267333   0.446   1.298  15.993  0.4630 -0.1684  0.1455
15281TIP3    H167334   0.519   1.238  16.013 -0.2333 -1.6077 -1.4149
15281TIP3    H267335   0.483   1.360  15.931  0.3996 -0.8824 -0.6268
15282TIP3   OH267336   2.891   3.813  13.920 -0.8473 -0.2092  0.0248
15282TIP3    H167337   2.885   3.909  13.927 -1.7356 -0.3222  1.1194
15282TIP3    H267338   2.811   3.787  13.874 -0.9859 -0.4701  0.4038
15283TIP3   OH267339   1.353   4.367   1.310 -0.1025 -0.5643  0.2647
15283TIP3    H167340   1.400   4.442   1.274 -0.4562 -0.0691  0.8057
15283TIP3    H267341   1.335   4.392   1.401  0.4365 -1.6158  0.6797
15284TIP3   OH267342   5.444   4.969  17.283 -0.9670  0.2954 -0.1828
15284TIP3    H167343   5.367   4.985  17.229 -1.4182  0.8038  0.5912
15284TIP3    H267344   5.444   4.874  17.296 -1.0758  0.2162 -0.7461
15285TIP3   OH267345   2.005   4.982   4.287  0.1459  0.5347 -0.4552
15285TIP3    H167346   2.061   5.051   4.253  1.2656 -0.6505 -1.0794
15285TIP3    H267347   2.029   4.976   4.380 -0.8555  1.7963 -0.0769
15286TIP3   OH267348   5.239   1.366  12.879 -0.1946 -0.5249  0.2966
15286TIP3    H167349   5.313   1.422  12.855  0.2817 -1.3416 -0.1927
15286TIP3    H267350   5.226   1.383  12.972 -1.5585  2.1144 -0.2785
15287TIP3   OH267351   4.442   4.909  14.022 -0.5475  0.0389  0.1011
15287TIP3    H167352   4.525   4.861  14.012 -1.4284 -2.1857  2.4087
15287TIP3    H267353   4.379   4.859  13.970 -0.6836  1.1948 -0.8900
15288TIP3   OH267354   0.462   5.793   4.378 -0.0875 -0.5803 -0.3742
15288TIP3    H167355   0.546   5.792   4.424 -1.0132 -1.4927  1.4328
15288TIP3    H267356   0.397   5.778   4.447 -1.9675  2.3784 -1.3094
15289TIP3   OH267357   0.143   6.204  14.557  0.1871  0.1842 -0.4480
15289TIP3    H167358   0.064   6.214  14.610  0.3093  0.0658 -0.2389
15289TIP3    H267359   0.210   6.173  14.620  0.7634  1.5946 -0.3400
15290TIP3   OH267360   5.026   1.132   6.106 -0.5384  0.6863 -0.3221
15290TIP3    H167361   5.054   1.132   6.015  0.1715  1.2495 -0.1054
15290TIP3    H267362   5.086   1.072   6.150 -0.1480  1.3018 -0.0061
15291TIP3   OH267363   2.808   5.163  16.796 -0.7153  0.2959  0.1927
15291TIP3    H167364   2.796   5.120  16.880  0.7733  1.0950  0.8446
15291TIP3    H267365   2.897   5.196  16.798  0.0995 -1.3746 -2.5048
15292TIP3   OH267366   4.080   6.475   5.800  0.0237  0.0222 -0.7947
15292TIP3    H167367   4.046   6.408   5.859  0.8444  0.1129 -0.2124
15292TIP3    H267368   4.175   6.463   5.802  0.2306  1.5746 -0.2293
15293TIP3   OH267369   6.529   0.516  13.076 -0.4570  0.0272 -0.0689
15293TIP3    H167370   6.608   0.550  13.118  0.5383  1.4377 -2.7938
15293TIP3    H267371   6.548   0.424  13.059  0.5716  0.3270 -0.5842
15294TIP3   OH267372   1.364   6.343   3.754 -0.2969 -0.0322 -0.1602
15294TIP3    H167373   1.324   6.378   3.674 -0.4780 -0.1548 -0.1246
15294TIP3    H267374   1.393   6.255   3.729  0.3037  0.1978 -0.2969
15295TIP3   OH267375   5.267   0.970  12.500  0.4072 -0.0930  0.5777
15295TIP3    H167376   5.196   0.908  12.515  0.0721  0.3685  0.9259
15295TIP3    H267377   5.287   1.006  12.587  0.2584  0.6419  0.3215
15296TIP3   OH267378   6.541   1.384  17.042 -0.0048  0.4477  0.5091
15296TIP3    H167379   6.622   1.407  17.087  1.4685 -1.6233 -0.8681
15296TIP3    H267380   6.501   1.468  17.018  1.7639  1.5165  1.1432
15297TIP3   OH267381   5.579   6.079   1.081 -0.1091 -0.4083 -0.6524
15297TIP3    H167382   5.642   6.013   1.055  1.7231  0.4691  1.3227
15297TIP3    H267383   5.591   6.150   1.017 -0.3381 -0.9520 -1.3060
15298TIP3   OH267384   4.476   1.516   6.813  0.2206  0.1465  0.1994
15298TIP3    H167385   4.542   1.447   6.811 -0.1673 -0.2258  0.1610
15298TIP3    H267386   4.394   1.472   6.789 -0.3237  0.3031  1.6697
15299TIP3   OH267387   0.659   3.654  11.805  0.3260 -0.2458 -0.5427
15299TIP3    H167388   0.702   3.593  11.745  1.7536  1.0297 -0.8662
15299TIP3    H267389   0.677   3.618  11.892  0.3696 -0.7703 -0.7621
15300TIP3   OH267390   5.763   2.570  15.056 -0.0983 -0.1923  0.1477
15300TIP3    H167391   5.844   2.567  15.005 -0.2946  0.0236 -0.1828
15300TIP3    H267392   5.708   2.634  15.010 -0.3939 -0.2190  0.4588
15301TIP3   OH267393   1.771   6.686  16.716 -0.2118  0.2817  0.1040
15301TIP3    H167394   1.761   6.625  16.789 -0.7883  1.0754  0.6893
15301TIP3    H267395   1.744   6.771  16.750  2.3197  1.2888 -0.1337
15302TIP3   OH267396   6.177   4.506  14.069 -0.5211  0.0202  1.1017
15302TIP3    H167397   6.184   4.598  14.044 -0.5889  0.4535  2.5844
15302TIP3    H267398   6.240   4.496  14.141  1.0773 -1.6427 -0.4374
15303TIP3   OH267399   4.412   4.100  11.971 -0.1039  0.2381  0.0205
15303TIP3    H167400   4.317   4.098  11.959 -0.2146  0.7778  0.7815
15303TIP3    H267401   4.432   4.192  11.987  0.7504  0.3848 -1.6623
15304TIP3   OH267402   6.525   2.158  15.506 -0.7900 -0.5034  0.2958
15304TIP3    H167403   6.437   2.181  15.534 -0.9875 -0.0904 -0.6146
15304TIP3    H267404   6.577   2.237  15.521 -0.7881 -0.4387 -0.0497
15305TIP3   OH267405   3.292   2.729   5.093  0.0117  0.1152 -0.4611
15305TIP3    H167406   3.225   2.691   5.149 -0.8339  0.2392 -1.3586
15305TIP3    H267407   3.350   2.776   5.152  0.3684 -1.5219  0.5412
15306TIP3   OH267408   5.889   0.234  13.565 -0.6906  0.0827 -1.0384
15306TIP3    H167409   5.892   0.196  13.653  0.4735 -0.3625 -1.2485
15306TIP3    H267410   5.819   0.187  13.520  0.0265 -1.1023 -0.9510
15307TIP3   OH267411   0.227   2.784  11.375  0.0209 -0.1553  0.3215
15307TIP3    H167412   0.285   2.708  11.376 -0.8898 -0.8969 -0.4231
15307TIP3    H267413   0.277   2.852  11.330  0.0867 -1.0078 -0.9566
15308TIP3   OH267414   1.514   1.358  12.205 -0.1224 -0.0798 -0.4847
15308TIP3    H167415   1.575   1.356  12.131  1.2563 -0.6419  0.6337
15308TIP3    H267416   1.567   1.338  12.282 -1.2704  1.6913  0.8627
15309TIP3   OH267417   0.623   3.821  17.059 -0.4991 -0.0096  0.1780
15309TIP3    H167418   0.663   3.890  17.111  0.1706  0.6159 -1.1236
15309TIP3    H267419   0.544   3.860  17.023  0.1824  0.2961 -1.0317
15310TIP3   OH267420   2.558   4.895   1.803  0.3848 -0.1394 -0.4008
15310TIP3    H167421   2.608   4.959   1.751  0.0179 -0.1463 -0.7621
15310TIP3    H267422   2.502   4.851   1.739 -2.3451  1.9476  0.3999
15311TIP3   OH267423   0.456   5.696  16.797 -0.3802  0.3401 -0.0477
15311TIP3    H167424   0.375   5.729  16.839 -0.8373  0.4759 -1.0154
15311TIP3    H267425   0.426   5.656  16.716  0.5376  0.4023 -0.4248
15312TIP3   OH267426   4.275   4.703  13.815  0.1578 -0.3651  0.4364
15312TIP3    H167427   4.315   4.704  13.728 -0.0722  0.6651  0.3354
15312TIP3    H267428   4.327   4.640  13.865  1.4070  0.3428  0.0674
15313TIP3   OH267429   4.144   5.850  13.762  0.0775 -0.8243  0.6557
15313TIP3    H167430   4.163   5.905  13.686  0.0041 -0.9726  0.5287
15313TIP3    H267431   4.170   5.902  13.837 -1.7448  0.1655  0.6668
15314TIP3   OH267432   5.261   5.095  16.026  0.8127 -0.0968 -0.2233
15314TIP3    H167433   5.212   5.045  16.091  1.8973  1.1187  1.6281
15314TIP3    H267434   5.211   5.085  15.945 -1.6551 -0.0949  1.2114
15315TIP3   OH267435   2.735   2.829   4.702 -0.0726  0.1008  0.5263
15315TIP3    H167436   2.707   2.742   4.674  0.3686  0.6760 -1.9057
15315TIP3    H267437   2.731   2.883   4.623 -0.0640  2.2425  1.9007
15316TIP3   OH267438   0.261   1.709  14.218  0.0132 -0.9014  0.5279
15316TIP3    H167439   0.283   1.714  14.311 -0.3913  1.6254  0.5651
15316TIP3    H267440   0.334   1.660  14.179  1.1843 -0.3508  1.9145
15317TIP3   OH267441   0.587   3.017   3.435 -0.1587 -0.2858 -0.5638
15317TIP3    H167442   0.507   2.976   3.403 -1.7073  1.5938  0.6242
15317TIP3    H267443   0.559   3.066   3.513  2.1816  0.3258 -0.0323
15318TIP3   OH267444   2.769   0.054  16.870 -0.4490  0.4183 -0.2904
15318TIP3    H167445   2.804   0.064  16.781 -0.8800 -0.5429 -0.5816
15318TIP3    H267446   2.815  -0.023  16.905 -0.9593  0.2296 -0.0275
15319TIP3   OH267447   1.654   0.465  16.605 -0.2064  0.8569 -0.1345
15319TIP3    H167448   1.690   0.486  16.691  1.6464  1.7233 -1.0650
15319TIP3    H267449   1.573   0.417  16.624  3.1536 -4.9906  2.3180
15320TIP3   OH267450   5.069   5.086   1.957  0.0960 -0.4077 -0.7626
15320TIP3    H167451   5.090   5.168   1.912  0.9172 -0.4239 -0.4206
15320TIP3    H267452   4.975   5.074   1.941 -0.0621  0.6482 -0.7238
15321TIP3   OH267453   2.321   2.214  13.175 -0.3728 -0.7247  0.3405
15321TIP3    H167454   2.238   2.169  13.196 -0.6318 -1.3085 -1.6404
15321TIP3    H267455   2.363   2.156  13.111  0.9535  0.2151  0.3272
15322TIP3   OH267456   2.196   0.078  13.004  0.0534  0.1414  0.7231
15322TIP3    H167457   2.289   0.078  12.982 -0.6871  0.3440 -3.2207
15322TIP3    H267458   2.179  -0.008  13.042  1.8650  0.2477  1.8607
15323TIP3   OH267459   3.533   2.561  15.474  0.6326 -0.0374  0.2798
15323TIP3    H167460   3.492   2.580  15.390  0.4871 -0.5346  0.2370
15323TIP3    H267461   3.598   2.631  15.485  1.6054 -0.7207 -0.8817
15324TIP3   OH267462   6.758   6.278  16.479  0.2888 -0.1677  0.3403
15324TIP3    H167463   6.825   6.270  16.411  1.4730 -1.9543  1.6262
15324TIP3    H267464   6.807   6.289  16.560 -1.0441  0.1824  1.1366
15325TIP3   OH267465   4.940   2.974  14.960 -0.2140 -0.5236  0.6270
15325TIP3    H167466   4.853   3.007  14.941 -0.9016 -1.3578  2.1683
15325TIP3    H267467   4.934   2.879  14.947  0.6226 -0.5319  0.2088
15326TIP3   OH267468   5.341   6.540   2.887  0.2583  0.2242  0.3605
15326TIP3    H167469   5.313   6.473   2.825  0.1670  0.6413 -0.0554
15326TIP3    H267470   5.433   6.522   2.902  0.2162 -0.0374  0.3011
15327TIP3   OH267471   3.659   5.095  13.380 -0.0147  0.0217 -0.2128
15327TIP3    H167472   3.591   5.158  13.403 -0.0391  0.7515 -2.0994
15327TIP3    H267473   3.658   5.092  13.284  0.3950 -2.4282 -0.2063
15328TIP3   OH267474   2.583   6.286  15.159  0.0364  0.1202  0.1205
15328TIP3    H167475   2.488   6.294  15.151 -0.0125  0.2272  0.7982
15328TIP3    H267476   2.598   6.192  15.171  0.0685  0.0268 -0.5954
15329TIP3   OH267477   3.838   5.714  15.801 -0.5898 -0.5817 -0.0273
15329TIP3    H167478   3.914   5.733  15.746 -1.0059 -0.1216 -0.4494
15329TIP3    H267479   3.779   5.788  15.787 -1.0891 -0.9052  0.3462
15330TIP3   OH267480   6.002   1.408  14.129  0.0247 -0.5157 -0.4594
15330TIP3    H167481   6.065   1.335  14.127 -0.4736 -0.9300 -1.6839
15330TIP3    H267482   6.003   1.442  14.040 -1.6387 -0.6570 -0.5485
15331TIP3   OH267483   4.931   2.137  13.288 -0.3324 -0.5491  0.4162
15331TIP3    H167484   4.971   2.215  13.250 -0.4810  0.4235  2.1118
15331TIP3    H267485   4.837   2.152  13.279 -0.3515 -1.0978 -0.3114
15332TIP3   OH267486   3.413   5.815  12.659 -0.1855 -0.4192  0.0934
15332TIP3    H167487   3.385   5.725  12.640 -1.7195 -0.3707  1.8777
15332TIP3    H267488   3.392   5.828  12.751  0.9091  1.4780  0.1286
15333TIP3   OH267489   3.737   0.024   2.437  0.1718 -0.2663 -0.4524
15333TIP3    H167490   3.743   0.119   2.441  0.5764 -0.3120  3.6246
15333TIP3    H267491   3.658   0.007   2.385  1.0248  2.1388 -2.7481
15334TIP3   OH267492   0.010   3.942  14.021 -0.0328 -0.4642  0.2669
15334TIP3    H167493   0.038   3.891  13.945  0.1600  0.5464 -0.3482
15334TIP3    H267494  -0.043   4.013  13.985 -0.8082 -0.5630  1.1667
15335TIP3   OH267495   4.666   5.111   2.894  0.3508 -0.0326 -0.1349
15335TIP3    H167496   4.662   5.154   2.979  1.8889  1.6017 -0.8328
15335TIP3    H267497   4.712   5.029   2.912 -0.7392 -0.4620  0.8522
15336TIP3   OH267498   0.717   3.121   4.597  0.7245 -0.0512 -0.2948
15336TIP3    H167499   0.668   3.179   4.538 -0.6999 -0.3394  0.5499
15336TIP3    H267500   0.730   3.174   4.676  2.0899  0.1296 -0.6262
15337TIP3   OH267501   0.176   2.014   4.117 -0.1721 -0.1974 -0.4882
15337TIP3    H167502   0.144   1.994   4.029  0.0118 -1.0360 -0.3722
15337TIP3    H267503   0.106   1.984   4.176  0.5536 -1.5051 -0.2610
15338TIP3   OH267504   2.638   6.444   0.675 -0.9228  0.4870 -0.0383
15338TIP3    H167505   2.633   6.532   0.637 -3.3171  0.6371  0.4527
15338TIP3    H267506   2.635   6.459   0.770 -0.5621 -0.1148  0.0761
15339TIP3   OH267507   4.987   3.393   3.724 -0.6524  0.3731 -0.0644
15339TIP3    H167508   5.032   3.335   3.663 -1.8876  0.0364 -0.6853
15339TIP3    H267509   5.045   3.469   3.732  0.2045 -0.2136 -0.5169
15340TIP3   OH267510   0.696   4.064   5.911 -0.0337 -0.8433 -0.3628
15340TIP3    H167511   0.670   4.155   5.918  0.4235 -0.6252 -1.2604
15340TIP3    H267512   0.680   4.027   5.997  0.7977  0.3528  0.3286
15341TIP3   OH267513   5.130   4.304   4.402 -0.6559  1.0765  0.2684
15341TIP3    H167514   5.183   4.228   4.379  0.4953  1.1196  2.4498
15341TIP3    H267515   5.075   4.320   4.326 -0.0921 -1.2152 -0.6864
15342TIP3   OH267516   4.970   5.207   6.575 -0.0041  0.0211 -0.7018
15342TIP3    H167517   4.896   5.216   6.636  1.1340  0.8400  0.6312
15342TIP3    H267518   4.930   5.204   6.489 -1.6735 -0.9108  0.0484
15343TIP3   OH267519   5.872   5.788   5.334 -0.6291  0.0318 -0.5770
15343TIP3    H167520   5.879   5.757   5.243 -2.6370  3.0301 -1.9085
15343TIP3    H267521   5.938   5.857   5.341  0.1321 -0.7781  0.6009
15344TIP3   OH267522   6.613   4.373   3.056  0.1396 -0.1308  0.1704
15344TIP3    H167523   6.708   4.374   3.068  0.3010  0.7837 -1.0214
15344TIP3    H267524   6.588   4.282   3.072  0.7178  0.2206  3.7961
15345TIP3   OH267525   5.351   5.447  12.926 -0.0598 -0.4381  0.4432
15345TIP3    H167526   5.353   5.352  12.936  1.0795 -0.2562  2.1871
15345TIP3    H267527   5.323   5.480  13.011  0.7011  0.8436  0.2166
15346TIP3   OH267528   0.534   2.554   1.103 -0.5247  0.1511 -0.3245
15346TIP3    H167529   0.477   2.631   1.106 -0.0974  0.4423  0.5345
15346TIP3    H267530   0.599   2.569   1.170 -0.8956 -1.3329  0.4289
15347TIP3   OH267531   5.900   1.591  11.328  0.0541 -0.8343  0.1116
15347TIP3    H167532   5.891   1.571  11.235 -0.2251 -0.1799 -0.0112
15347TIP3    H267533   5.931   1.682  11.330  0.4236 -0.9654  0.6541
15348TIP3   OH267534   0.696   2.555   3.869  0.2859 -0.3220  0.0837
15348TIP3    H167535   0.647   2.488   3.917 -1.7746  1.5472  0.7965
15348TIP3    H267536   0.648   2.565   3.786 -0.8283  1.6822  0.8775
15349TIP3   OH267537   2.071   1.028   6.691 -0.2878 -0.0068 -0.2815
15349TIP3    H167538   2.130   1.063   6.625  0.8393  0.7497  1.0780
15349TIP3    H267539   2.014   1.102   6.713 -0.9976 -0.4040 -0.7529
15350TIP3   OH267540   4.871   0.108   1.376 -0.0426  0.0511  0.4389
15350TIP3    H167541   4.897   0.191   1.417 -0.1869  0.0730  0.4861
15350TIP3    H267542   4.954   0.066   1.352  0.0148  0.6130 -0.3849
15351TIP3   OH267543   5.085   2.588   4.976 -0.5537 -0.3206 -0.3947
15351TIP3    H167544   5.035   2.664   4.946 -0.1910  0.8673  1.7741
15351TIP3    H267545   5.020   2.533   5.020 -0.1471  1.1302  2.2523
15352TIP3   OH267546   2.567   5.703  12.395  0.0718  0.0459  0.1972
15352TIP3    H167547   2.557   5.771  12.462 -2.1647 -0.9408  0.9474
15352TIP3    H267548   2.559   5.750  12.312 -3.6889  0.5918  0.6824
15353TIP3   OH267549   2.044   3.477   4.333 -0.1095  0.6842 -0.2007
15353TIP3    H167550   2.100   3.525   4.394 -0.4000  0.3010  0.3769
15353TIP3    H267551   1.965   3.457   4.384  0.2370 -0.9197 -0.2486
15354TIP3   OH267552   2.549   6.760   2.678  0.0769 -0.0960  0.2845
15354TIP3    H167553   2.564   6.665   2.677  0.5823 -0.0224 -0.8881
15354TIP3    H267554   2.637   6.797   2.691 -0.1565  0.2124  1.0225
15355TIP3   OH267555   4.978   5.564  15.284 -0.1164 -0.4513  0.4417
15355TIP3    H167556   4.899   5.514  15.303  2.1844 -3.9933  1.5418
15355TIP3    H267557   5.002   5.540  15.195 -1.6438  2.9216 -1.0868
15356TIP3   OH267558   5.837   5.982  11.837 -0.1510  0.0500 -0.3644
15356TIP3    H167559   5.779   5.961  11.763 -1.5353  0.0297  0.6903
15356TIP3    H267560   5.879   5.899  11.859  0.4574  0.1013 -1.2557
15357TIP3   OH267561   3.079   6.050   1.522  0.2254  0.0233 -0.0218
15357TIP3    H167562   3.053   5.958   1.526  0.5807 -0.1934 -1.8646
15357TIP3    H267563   3.156   6.056   1.578 -1.0355 -0.2952  1.8585
15358TIP3   OH267564   1.022   5.460   6.818  0.3930 -0.1416  0.2483
15358TIP3    H167565   1.014   5.505   6.734  0.7343  1.3697  0.9833
15358TIP3    H267566   1.034   5.368   6.796 -1.5486 -0.0860 -1.2933
15359TIP3   OH267567   1.316   4.077   1.107 -0.9630 -0.1897 -0.2774
15359TIP3    H167568   1.370   4.093   1.185 -0.7088 -0.3029 -0.4307
15359TIP3    H267569   1.350   4.138   1.042 -0.8662 -0.4252 -0.4476
15360TIP3   OH267570   5.379   3.788   0.792  0.4492  0.1230 -0.4534
15360TIP3    H167571   5.378   3.803   0.698 -0.0174  0.3211 -0.4205
15360TIP3    H267572   5.290   3.759   0.813  0.5967 -0.0807 -0.1018
15361TIP3   OH267573   6.467   5.072  14.788  0.0700 -0.5328 -0.0159
15361TIP3    H167574   6.480   5.087  14.694 -1.6011 -1.3492 -0.4116
15361TIP3    H267575   6.461   5.160  14.826 -1.9892 -0.1314 -1.1220
15362TIP3   OH267576   6.197   2.267   4.083  0.1111 -0.0960 -0.3351
15362TIP3    H167577   6.129   2.238   4.021 -0.5926 -1.4355  1.0172
15362TIP3    H267578   6.180   2.361   4.094 -1.0122 -0.2476 -0.6420
15363TIP3   OH267579   3.333   4.436  16.180  0.1940  0.1499  0.3015
15363TIP3    H167580   3.382   4.355  16.192  0.1434  0.2473  1.2747
15363TIP3    H267581   3.370   4.475  16.101 -0.6653 -1.4399 -0.9357
15364TIP3   OH267582   5.563   3.732   1.455 -0.5956  0.4635  0.4527
15364TIP3    H167583   5.631   3.777   1.505  0.3282 -1.7152  1.3068
15364TIP3    H267584   5.570   3.768   1.367  0.7786  1.2321  0.8474
15365TIP3   OH267585   3.070   0.409  11.484  0.0090 -0.3367 -0.5957
15365TIP3    H167586   3.105   0.333  11.436 -0.0353 -0.8645  0.1804
15365TIP3    H267587   3.146   0.446  11.528 -0.4359 -1.9847  1.7757
15366TIP3   OH267588   2.589   2.614   2.360  0.4867  0.1401  0.3333
15366TIP3    H167589   2.579   2.616   2.265 -1.3348 -0.3329  0.4760
15366TIP3    H267590   2.594   2.520   2.381  2.1284  0.2599  0.6359
15367TIP3   OH267591   0.733   2.859   2.782  0.3137 -0.3927 -0.0624
15367TIP3    H167592   0.722   2.776   2.828 -0.2618 -1.1959 -1.5965
15367TIP3    H267593   0.821   2.887   2.805  0.4483 -1.3290  0.6344
15368TIP3   OH267594   4.532   2.871  14.791 -0.1996 -0.0569  0.3414
15368TIP3    H167595   4.561   2.795  14.742  2.2942 -0.7854  2.6888
15368TIP3    H267596   4.443   2.851  14.818 -0.2155 -1.3093 -0.5908
15369TIP3   OH267597   2.246   1.681  13.332  0.2653 -0.5128 -0.0576
15369TIP3    H167598   2.272   1.602  13.285 -0.9098 -0.5655 -0.6458
15369TIP3    H267599   2.294   1.677  13.415  1.4300 -1.0316 -0.7371
15370TIP3   OH267600   4.947   0.049   3.223  0.4954 -0.2963 -0.9000
15370TIP3    H167601   4.967   0.037   3.315 -0.3877  1.2975 -0.4620
15370TIP3    H267602   5.000  -0.017   3.178  0.8090 -1.2178  0.7365
15371TIP3   OH267603   1.744   5.601   0.306  0.0611  0.4982  0.2648
15371TIP3    H167604   1.718   5.647   0.386  1.5465 -0.8041  1.5833
15371TIP3    H267605   1.690   5.522   0.305  0.3837  0.2754  0.2638
15372TIP3   OH267606   1.843   2.659   3.767  0.1987  0.0007  0.6569
15372TIP3    H167607   1.878   2.722   3.830  2.7515 -1.1486  0.5164
15372TIP3    H267608   1.919   2.633   3.714 -1.7702  0.7972 -2.8885
15373TIP3   OH267609   5.829   2.248  17.010 -0.0548  0.2901 -0.1698
15373TIP3    H167610   5.923   2.241  16.995 -0.7001 -3.2106 -4.5206
15373TIP3    H267611   5.801   2.322  16.957  0.0014 -0.2436 -0.9616
15374TIP3   OH267612   0.039   2.405  13.346  0.4790  0.9618  0.7173
15374TIP3    H167613   0.097   2.378  13.417  1.2145  0.9684  0.1405
15374TIP3    H267614  -0.027   2.336  13.341  1.6042 -0.1330  0.0933
15375TIP3   OH267615   3.533   4.653   4.503  0.0074  0.7694  0.2604
15375TIP3    H167616   3.469   4.690   4.442 -1.0370 -3.0385 -1.2131
15375TIP3    H267617   3.612   4.643   4.450 -0.1919 -0.4086  0.1612
15376TIP3   OH267618   4.758   1.647   1.139 -0.5179 -0.3195  0.2445
15376TIP3    H167619   4.827   1.634   1.074 -0.8148 -1.0934  0.0654
15376TIP3    H267620   4.802   1.644   1.223 -0.2807 -0.4581  0.1157
15377TIP3   OH267621   4.784   3.466   5.143 -0.1499  0.3181 -0.1875
15377TIP3    H167622   4.725   3.515   5.086  1.1973  1.4335 -0.6789
15377TIP3    H267623   4.792   3.520   5.222  0.9537  0.6840 -0.5278
15378TIP3   OH267624   3.533   0.461   0.245 -0.2336  0.5949  0.2106
15378TIP3    H167625   3.474   0.396   0.283  1.0180  0.6630  2.4131
15378TIP3    H267626   3.476   0.531   0.214 -1.5097 -0.8826 -0.9416
15379TIP3   OH267627   6.445   2.591   1.543 -0.1362 -0.0947 -0.7826
15379TIP3    H167628   6.499   2.644   1.485 -1.2560  1.5023 -0.4329
15379TIP3    H267629   6.360   2.585   1.499  0.2982 -2.7356 -1.4275
15380TIP3   OH267630   4.444   2.219  15.792  0.1766  0.6746  0.2166
15380TIP3    H167631   4.534   2.249  15.779 -0.3186  1.8476 -0.7086
15380TIP3    H267632   4.399   2.245  15.711 -0.7968 -0.6654  0.3072
15381TIP3   OH267633   1.652   5.845   4.419 -0.3879  0.3214  0.0935
15381TIP3    H167634   1.566   5.805   4.429 -0.1598 -0.0919  0.4741
15381TIP3    H267635   1.702   5.783   4.366 -0.9329  1.5152 -1.8938
15382TIP3   OH267636   5.106   5.250  13.585  0.2016  0.1167  0.1576
15382TIP3    H167637   5.167   5.275  13.654 -0.6076  0.9010  0.6099
15382TIP3    H267638   5.021   5.284  13.614 -0.3419 -0.4176 -0.7453
15383TIP3   OH267639   1.504   5.847   3.735 -0.2152  0.5725 -0.2650
15383TIP3    H167640   1.569   5.840   3.665  0.5732 -0.9793  0.5654
15383TIP3    H267641   1.464   5.932   3.722  0.5610  0.7136 -2.0381
15384TIP3   OH267642   5.943   2.273  13.542  0.1793 -0.2694  0.0857
15384TIP3    H167643   5.982   2.189  13.518  1.8396  0.3489  0.5252
15384TIP3    H267644   5.849   2.256  13.541  0.2484 -1.2055 -3.3736
15385TIP3   OH267645   4.901   6.180   4.985 -0.1246 -0.4396  0.0893
15385TIP3    H167646   4.826   6.120   4.985  0.3840 -1.1060  1.5043
15385TIP3    H267647   4.970   6.132   4.941  0.5642 -1.3177  2.0244
15386TIP3   OH267648   4.686   5.541  13.782 -0.2322  0.0095 -0.4292
15386TIP3    H167649   4.609   5.484  13.786 -0.0056 -0.2562  2.3987
15386TIP3    H267650   4.716   5.545  13.873  2.4068  1.0580 -1.2824
15387TIP3   OH267651   3.295   6.346  11.426  0.5434  0.3794 -0.3487
15387TIP3    H167652   3.233   6.281  11.392  0.7262 -0.4047  0.7358
15387TIP3    H267653   3.381   6.309  11.407  0.6473  0.2197  0.3960
15388TIP3   OH267654   5.177   0.825  12.820 -0.5356 -0.2845  0.5648
15388TIP3    H167655   5.157   0.791  12.733 -1.0978 -0.2950  0.6931
15388TIP3    H267656   5.128   0.907  12.824  1.9017  1.3350 -0.2856
15389TIP3   OH267657   0.992   5.325   4.892  0.3406 -0.1692  0.1699
15389TIP3    H167658   1.088   5.334   4.892  0.3259  1.3979  3.4105
15389TIP3    H267659   0.961   5.400   4.842  0.8199  0.9290  1.4635
15390TIP3   OH267660   2.549   5.401  11.942 -0.1658  0.6874 -0.0733
15390TIP3    H167661   2.572   5.320  11.986 -1.7241  0.3716  0.2218
15390TIP3    H267662   2.568   5.384  11.849  0.9203  0.5311  0.1705
15391TIP3   OH267663   5.590   5.272   6.390 -0.6839  0.1343 -0.3310
15391TIP3    H167664   5.540   5.292   6.470 -0.3835  0.8088 -0.3044
15391TIP3    H267665   5.671   5.321   6.400 -0.8768  0.6790 -1.3136
15392TIP3   OH267666   2.965   1.302  16.884 -0.2688 -0.3614 -0.2258
15392TIP3    H167667   3.002   1.283  16.970  0.5552 -0.0192 -0.4936
15392TIP3    H267668   2.924   1.220  16.857  1.1208 -1.0576 -0.3135
15393TIP3   OH267669   3.278   2.429  10.994 -0.6446 -0.0889 -0.3315
15393TIP3    H167670   3.242   2.378  10.920  0.2752 -1.2215 -0.0342
15393TIP3    H267671   3.210   2.424  11.061 -0.0631 -2.1162  0.1848
15394TIP3   OH267672   5.613   4.664  15.461 -0.2118  0.0977  0.1362
15394TIP3    H167673   5.700   4.703  15.470  0.2002 -0.3039 -1.6683
15394TIP3    H267674   5.624   4.574  15.492  0.5350 -0.5212 -1.7857
15395TIP3   OH267675   6.361   5.880   1.308 -0.2640  0.0810  0.1147
15395TIP3    H167676   6.357   5.869   1.403  0.3450 -1.0705  0.0298
15395TIP3    H267677   6.429   5.818   1.280  1.0354  1.8732 -0.8606
15396TIP3   OH267678   4.883   4.689  15.030 -0.0724  0.3849 -0.1818
15396TIP3    H167679   4.969   4.650  15.011  1.0501  1.4718  2.2027
15396TIP3    H267680   4.832   4.618  15.068 -0.5429 -0.4423 -2.2063
15397TIP3   OH267681   3.654   6.026  16.490  0.0576  0.4421 -0.4642
15397TIP3    H167682   3.583   6.037  16.426 -0.6139 -1.0470 -0.0131
15397TIP3    H267683   3.670   6.115  16.522 -2.3739  0.7208  0.2079
15398TIP3   OH267684   4.116   4.826   3.906 -0.3461  0.2266  0.0490
15398TIP3    H167685   4.193   4.800   3.854 -1.1266 -0.1434 -0.9717
15398TIP3    H267686   4.049   4.844   3.840 -1.3517 -0.1973  0.9415
15399TIP3   OH267687   0.987   4.827  10.594 -0.4438 -0.1254 -0.6404
15399TIP3    H167688   0.941   4.887  10.653 -0.1721 -0.2087 -0.3351
15399TIP3    H267689   0.920   4.764  10.567 -0.5598 -0.1229 -0.3669
15400TIP3   OH267690   4.674   1.210   2.978 -0.6207 -0.2216  0.4132
15400TIP3    H167691   4.579   1.196   2.974 -0.4548 -1.3723 -0.1124
15400TIP3    H267692   4.688   1.257   3.060 -1.3428 -3.0765  2.3147
15401TIP3   OH267693   3.602   6.420  15.809 -0.1205 -0.1988 -0.1796
15401TIP3    H167694   3.539   6.371  15.757  1.1660 -0.2866 -1.7593
15401TIP3    H267695   3.652   6.471  15.745  0.5139  0.9287  1.1337
15402TIP3   OH267696   0.607   1.571   3.942  0.2249 -0.0111 -0.2692
15402TIP3    H167697   0.684   1.546   3.994  0.4985 -1.2063 -1.2058
15402TIP3    H267698   0.605   1.666   3.947  1.6565  0.0321 -0.0481
15403TIP3   OH267699   5.450   1.661   3.665  0.4687  0.3242 -0.0201
15403TIP3    H167700   5.384   1.723   3.634  0.3668  0.4418  0.4246
15403TIP3    H267701   5.426   1.644   3.756 -0.1739 -1.2647 -0.4524
15404TIP3   OH267702   6.418   5.788   3.725 -0.3144  0.1007  0.6518
15404TIP3    H167703   6.457   5.864   3.681 -1.9789  0.2159 -0.7523
15404TIP3    H267704   6.369   5.825   3.798 -0.4784  0.3164  0.4368
15405TIP3   OH267705   3.665   5.519   3.184  0.6952 -0.3399 -0.7449
15405TIP3    H167706   3.574   5.548   3.188  0.3407 -1.5840  2.1595
15405TIP3    H267707   3.660   5.427   3.157  0.8336 -1.1250  1.7128
15406TIP3   OH267708   5.760   2.032   4.869  0.2428 -0.0363 -0.7425
15406TIP3    H167709   5.756   2.014   4.775  0.4022  1.9443 -1.1744
15406TIP3    H267710   5.669   2.027   4.898  0.2899 -1.5643 -0.7856
15407TIP3   OH267711   3.194   4.610   3.604  0.4957 -0.1996 -0.2156
15407TIP3    H167712   3.218   4.636   3.693  0.0930  0.3835 -0.2768
15407TIP3    H267713   3.274   4.571   3.568  0.7738 -0.0742  0.2656
15408TIP3   OH267714   4.623   5.727   5.605 -0.2772  0.4730 -0.0820
15408TIP3    H167715   4.568   5.769   5.671 -1.2965 -0.3125 -0.3977
15408TIP3    H267716   4.623   5.634   5.630  0.8955  0.4590 -0.1056
15409TIP3   OH267717   2.180   4.637   4.555  0.3565  0.1015 -0.0164
15409TIP3    H167718   2.186   4.573   4.626 -0.5760 -0.8485 -0.7762
15409TIP3    H267719   2.266   4.680   4.555  0.2846  0.3567  1.8698
15410TIP3   OH267720   4.095   1.572  14.131  0.1539  0.2984 -0.3658
15410TIP3    H167721   4.077   1.496  14.075 -0.9075 -0.5791  1.1006
15410TIP3    H267722   4.190   1.570  14.144  0.0368 -1.4295  0.4890
15411TIP3   OH267723   0.268   5.266   6.439  0.6736  0.2263 -0.2397
15411TIP3    H167724   0.331   5.280   6.509 -0.9388 -0.3632  1.4091
15411TIP3    H267725   0.281   5.175   6.412  0.0963 -0.1067  0.5765
15412TIP3   OH267726   6.545   4.057   4.982 -0.4176 -0.1685 -0.1874
15412TIP3    H167727   6.545   4.012   5.066  0.6002  0.5838  0.2365
15412TIP3    H267728   6.484   4.008   4.928 -0.7096 -0.9528  0.8392
15413TIP3   OH267729   1.258   3.908  15.902  0.3204 -0.1262  0.7467
15413TIP3    H167730   1.167   3.936  15.891  0.0421 -1.2323  0.0902
15413TIP3    H267731   1.258   3.816  15.875  1.9613  0.2836 -0.8435
15414TIP3   OH267732   4.377   6.105   2.147  0.1094  0.2582 -0.2703
15414TIP3    H167733   4.373   6.200   2.159 -1.5212  0.1748  0.0606
15414TIP3    H267734   4.301   6.072   2.194  0.6183 -1.2244 -0.4322
15415TIP3   OH267735   5.972   1.151   1.483 -0.8372  0.2209  0.2688
15415TIP3    H167736   5.956   1.104   1.402 -0.2809 -1.2784  0.9897
15415TIP3    H267737   5.997   1.239   1.455  0.5351 -0.5924 -1.2608
15416TIP3   OH267738   2.092   4.862   0.426  0.2231  0.5349  0.3505
15416TIP3    H167739   2.185   4.869   0.448  0.6184 -0.1582 -0.9790
15416TIP3    H267740   2.050   4.831   0.506  1.2079  0.4720  0.8508
15417TIP3   OH267741   4.439   5.499  13.228 -0.5541  0.1723  0.4002
15417TIP3    H167742   4.514   5.503  13.169 -1.8970 -1.2737 -1.5521
15417TIP3    H267743   4.383   5.431  13.190 -2.2557  0.2975  2.5003
15418TIP3   OH267744   5.747   1.447  13.470 -0.2031  0.3862 -0.1686
15418TIP3    H167745   5.665   1.484  13.501 -0.6135  0.0768 -0.8768
15418TIP3    H267746   5.722   1.379  13.408  0.5467 -0.9871  0.9774
15419TIP3   OH267747   3.712   2.297   2.437 -0.1237  0.2332 -0.0785
15419TIP3    H167748   3.774   2.347   2.491 -0.2336 -0.4719  0.7160
15419TIP3    H267749   3.764   2.266   2.363  0.6475 -0.8657  0.8876
15420TIP3   OH267750   5.764   2.419   5.798  0.3485 -0.2895  0.0708
15420TIP3    H167751   5.702   2.492   5.795  0.7718  0.0533 -0.6832
15420TIP3    H267752   5.803   2.423   5.886  0.0479  0.1196  0.1852
15421TIP3   OH267753   4.998   1.443  17.376 -0.0548  0.1329 -0.3896
15421TIP3    H167754   5.091   1.421  17.387 -0.3046 -0.6796  0.2274
15421TIP3    H267755   4.984   1.517  17.435  0.1139  0.0035 -0.1861
15422TIP3   OH267756   2.878   3.761   4.230  0.3249 -0.0614  0.1422
15422TIP3    H167757   2.958   3.793   4.189  0.1598 -1.0808 -1.0393
15422TIP3    H267758   2.810   3.822   4.201  0.2585 -0.6182 -0.9611
15423TIP3   OH267759   5.518   5.923   3.843 -0.0187 -0.2270  0.0195
15423TIP3    H167760   5.498   5.832   3.825 -0.6870 -0.0050 -0.3872
15423TIP3    H267761   5.571   5.952   3.768  3.3653 -1.2490  1.8097
15424TIP3   OH267762   4.056   0.182   1.909  0.3512 -0.4474  0.3593
15424TIP3    H167763   4.086   0.250   1.848 -1.8043  0.4152  0.1654
15424TIP3    H267764   4.048   0.103   1.855  1.0004 -0.3781  0.1485
15425TIP3   OH267765   3.441   4.508  15.110  0.1233  0.0067  0.2082
15425TIP3    H167766   3.516   4.465  15.069  0.2925  0.2176  0.2938
15425TIP3    H267767   3.468   4.599  15.119 -0.6719  0.3818 -1.0114
15426TIP3   OH267768   1.557   6.012   0.483 -0.3354  0.0573 -0.1255
15426TIP3    H167769   1.627   5.948   0.485 -0.6532 -0.2854  0.2129
15426TIP3    H267770   1.501   5.984   0.410 -0.5437 -0.1279  0.1039
15427TIP3   OH267771   2.607   3.882  16.090 -0.6715  0.0371 -0.3995
15427TIP3    H167772   2.681   3.838  16.049 -1.1493  1.4241 -2.9992
15427TIP3    H267773   2.530   3.846  16.045 -1.2651  1.3338 -0.4691
15428TIP3   OH267774   4.168   6.140  14.471  0.0466 -0.9644  0.9139
15428TIP3    H167775   4.101   6.175  14.529 -0.8498 -0.0233 -0.6445
15428TIP3    H267776   4.156   6.045  14.476 -0.7702 -0.8456  1.3570
15429TIP3   OH267777   4.937   3.302   6.438 -0.3792 -0.4577  0.1545
15429TIP3    H167778   4.966   3.275   6.525  0.1134  0.9424  0.4378
15429TIP3    H267779   4.992   3.251   6.378  2.2259  1.5373  0.6767
15430TIP3   OH267780   0.901   6.688   2.883  0.0191 -0.3641  0.0761
15430TIP3    H167781   0.963   6.695   2.811  0.0634 -1.7492 -0.0412
15430TIP3    H267782   0.857   6.773   2.885  3.0012  1.3295  1.2045
15431TIP3   OH267783   0.224   5.225  13.184 -0.2498  0.0514 -0.0682
15431TIP3    H167784   0.292   5.286  13.213  0.5155 -0.5699 -0.5148
15431TIP3    H267785   0.183   5.267  13.109  0.6355 -0.2032 -0.7090
15432TIP3   OH267786   4.434   0.390  15.987  0.6754  0.1974  0.0354
15432TIP3    H167787   4.371   0.322  15.963 -0.8092  1.5153  0.0178
15432TIP3    H267788   4.382   0.470  15.993  2.4511  1.4739 -0.5511
15433TIP3   OH267789   1.772   4.984  15.058 -0.8717  0.2909 -0.1661
15433TIP3    H167790   1.746   4.964  15.148  0.1571  0.5079  0.1911
15433TIP3    H267791   1.727   4.918  15.005  0.9304 -1.8642  0.8075
15434TIP3   OH267792   0.816   2.442  12.284  0.8666  0.7902  0.2561
15434TIP3    H167793   0.765   2.368  12.317 -1.7169  2.2885 -0.1288
15434TIP3    H267794   0.900   2.434  12.328 -0.0221 -1.2370  1.7553
15435TIP3   OH267795   2.108   0.616  15.323  0.5868 -0.0944 -0.0131
15435TIP3    H167796   2.018   0.647  15.318  0.0676 -1.6367 -0.5232
15435TIP3    H267797   2.115   0.578  15.411  0.9902  0.6698  0.3047
15436TIP3   OH267798   1.175   0.360  13.943  1.0204  0.2395  0.2216
15436TIP3    H167799   1.260   0.326  13.972  3.3959  4.2158 -1.1369
15436TIP3    H267800   1.166   0.329  13.853  0.6500 -0.7529  0.5910
15437TIP3   OH267801   3.140   3.593   0.982 -0.5153 -0.6287 -0.4472
15437TIP3    H167802   3.084   3.669   0.964  0.7404 -0.0043 -1.9917
15437TIP3    H267803   3.092   3.519   0.946 -1.3101 -0.4379  0.1940
15438TIP3   OH267804   2.174   2.133  14.789  0.2343  0.1632  0.2701
15438TIP3    H167805   2.239   2.088  14.844  0.0622 -0.7866 -0.2741
15438TIP3    H267806   2.117   2.063  14.758  2.0044  0.1075 -3.4703
15439TIP3   OH267807   4.721   6.623   3.108  0.0376  0.3327 -0.1512
15439TIP3    H167808   4.637   6.629   3.154  0.7030 -0.8225  1.3142
15439TIP3    H267809   4.765   6.705   3.129  0.2121 -0.0500  1.1046
15440TIP3   OH267810   5.310   1.495   3.028  0.4286  0.4883 -0.4756
15440TIP3    H167811   5.375   1.565   3.033  0.1960  0.6598  0.2453
15440TIP3    H267812   5.261   1.513   2.947  0.6672  0.8985 -0.5306
15441TIP3   OH267813   0.765   5.054   1.303  0.2848  0.4073 -0.0432
15441TIP3    H167814   0.697   5.001   1.261  0.7584  1.1019 -1.8038
15441TIP3    H267815   0.799   4.999   1.374 -3.0895  0.6049  1.9171
15442TIP3   OH267816   5.174   3.452  14.329  0.0484 -0.1225  0.2088
15442TIP3    H167817   5.270   3.447  14.328 -0.0154 -4.1034  0.3347
15442TIP3    H267818   5.151   3.479  14.240  1.1929  2.8013  0.6743
15443TIP3   OH267819   3.560   3.053   1.253  0.4133  0.3413 -0.1328
15443TIP3    H167820   3.532   3.130   1.203  1.4014  0.7807 -0.0303
15443TIP3    H267821   3.601   3.089   1.331 -0.9032 -0.3392  0.9085
15444TIP3   OH267822   2.677   5.951  16.460  0.4219 -0.4765 -0.8448
15444TIP3    H167823   2.605   6.008  16.488 -0.5689 -1.8572 -0.4220
15444TIP3    H267824   2.692   5.894  16.536  2.5614  0.3223 -0.6172
15445TIP3   OH267825   6.423   4.348  16.508  0.2594 -0.4642 -0.2945
15445TIP3    H167826   6.394   4.290  16.437  1.0372 -0.1328 -0.8994
15445TIP3    H267827   6.351   4.346  16.571 -1.3758  0.7738 -1.9813
15446TIP3   OH267828   4.117   3.746  12.536 -0.1296 -0.0753 -0.3783
15446TIP3    H167829   4.022   3.753  12.527  0.0615  0.1890 -2.7415
15446TIP3    H267830   4.151   3.828  12.502  0.9415  0.7297  2.3691
15447TIP3   OH267831   1.139   6.341  14.707 -0.1062  0.3284 -0.0689
15447TIP3    H167832   1.046   6.352  14.724 -0.1229  0.9186 -0.5144
15447TIP3    H267833   1.178   6.425  14.730  0.1193  0.5426 -1.1682
15448TIP3   OH267834   1.466   3.194   3.549 -0.9217  0.3800  0.5367
15448TIP3    H167835   1.427   3.281   3.540 -1.0182  0.2561 -0.3885
15448TIP3    H267836   1.470   3.160   3.459 -0.0462 -0.2026  0.7794
15449TIP3   OH267837   0.180   3.925   4.558 -0.2531  0.2225 -0.5311
15449TIP3    H167838   0.091   3.891   4.571 -0.5074  0.8865 -0.5378
15449TIP3    H267839   0.227   3.896   4.635 -1.0119  1.6331  0.5043
15450TIP3   OH267840   2.058   2.896   3.199 -0.8747  0.1813  0.3018
15450TIP3    H167841   1.964   2.898   3.183 -0.6423 -2.5578 -2.3049
15450TIP3    H267842   2.076   2.806   3.229  1.0811  0.0275 -1.0983
15451TIP3   OH267843   2.014   1.136   4.960  0.3094  0.2317 -0.2022
15451TIP3    H167844   2.018   1.089   5.043  2.5557  0.7815  0.0797
15451TIP3    H267845   1.946   1.092   4.910 -2.0959  0.7115  2.3970
15452TIP3   OH267846   3.315   4.853   3.467  0.0020 -0.0751 -0.0356
15452TIP3    H167847   3.269   4.807   3.537 -0.7106  0.3286 -0.2329
15452TIP3    H267848   3.264   4.836   3.388 -0.6088  1.4797 -0.0247
15453TIP3   OH267849   2.269   3.480  14.789  0.0000 -0.2731 -0.1162
15453TIP3    H167850   2.339   3.423  14.756 -1.1693 -1.7738 -0.0848
15453TIP3    H267851   2.316   3.554  14.828  1.6722 -1.8104  0.9980
15454TIP3   OH267852   4.199   1.943  13.264 -0.1358  0.1125 -0.2598
15454TIP3    H167853   4.175   2.035  13.271  0.4426  0.2899 -0.5715
15454TIP3    H267854   4.215   1.915  13.354 -0.6951  0.2090 -0.1260
15455TIP3   OH267855   4.025   5.434  14.080  0.5877  0.4961  0.6099
15455TIP3    H167856   3.980   5.501  14.132  0.8545  0.3689  1.0109
15455TIP3    H267857   4.026   5.357  14.136 -0.3261 -0.0636 -0.1164
15456TIP3   OH267858   2.842   3.972  15.327 -0.1022  0.2138  0.1703
15456TIP3    H167859   2.824   3.977  15.421  1.0225  1.5836  0.3444
15456TIP3    H267860   2.913   4.034  15.313  1.0320 -1.3269 -1.2825
15457TIP3   OH267861   1.714   1.775   2.521 -0.1952  0.4530  0.2991
15457TIP3    H167862   1.809   1.769   2.522 -0.0511  1.0748 -2.6930
15457TIP3    H267863   1.684   1.684   2.530  0.7721 -0.0649 -1.4188
15458TIP3   OH267864   1.438   6.410   0.133  0.2647 -0.1523  0.2912
15458TIP3    H167865   1.368   6.395   0.196  1.3253 -1.2478  1.2727
15458TIP3    H267866   1.414   6.356   0.057  0.2206 -0.8235  0.7730
15459TIP3   OH267867   0.059   0.984  13.793  0.4432 -0.1988 -0.0296
15459TIP3    H167868  -0.014   1.041  13.769  0.6973 -0.3939 -1.3459
15459TIP3    H267869   0.025   0.932  13.866 -0.5334  0.1419 -0.2218
15460TIP3   OH267870   4.724   2.199   2.922 -0.1834 -0.4780  0.1603
15460TIP3    H167871   4.767   2.284   2.932 -1.3904  0.1031  0.6570
15460TIP3    H267872   4.783   2.148   2.867  0.2544  0.9166 -0.7111
15461TIP3   OH267873   1.677   2.772  17.140 -0.0046  0.1254  0.2351
15461TIP3    H167874   1.709   2.728  17.219 -0.7555 -0.9733 -0.0636
15461TIP3    H267875   1.662   2.702  17.077 -0.2094  0.9113 -0.6197
15462TIP3   OH267876   5.787   1.835   2.756 -0.2727  0.3535 -0.1177
15462TIP3    H167877   5.771   1.920   2.716 -1.3247  0.2197 -0.0150
15462TIP3    H267878   5.767   1.772   2.687  1.0687  0.1830 -0.3793
15463TIP3   OH267879   1.049   2.380   1.390  0.2082 -0.3320 -0.3151
15463TIP3    H167880   1.080   2.407   1.303  0.0291 -0.9957 -0.5883
15463TIP3    H267881   1.036   2.286   1.383  0.0940 -0.3753  0.4079
15464TIP3   OH267882   6.316   1.031  10.866  0.0313  0.0456  0.2188
15464TIP3    H167883   6.359   0.967  10.810 -0.1363 -0.0851  0.2397
15464TIP3    H267884   6.349   1.116  10.835  2.6681 -0.1376  2.1689
15465TIP3   OH267885   6.091   4.808   4.085 -0.2013 -0.6492  0.7237
15465TIP3    H167886   6.001   4.839   4.077 -0.4861 -1.3894  0.9407
15465TIP3    H267887   6.115   4.781   3.996  0.0934  0.2881  0.5094
15466TIP3   OH267888   3.730   2.761  12.967  0.0829 -0.1718 -0.5941
15466TIP3    H167889   3.709   2.669  12.953 -0.3349 -0.3902  1.2233
15466TIP3    H267890   3.648   2.801  12.994  0.6809  0.2845  0.6150
15467TIP3   OH267891   5.635   1.902   2.962 -0.2165 -0.0267 -0.2310
15467TIP3    H167892   5.564   1.928   2.903  0.7264  2.0170 -0.5223
15467TIP3    H267893   5.710   1.890   2.904 -0.4443 -3.1459 -0.0642
15468TIP3   OH267894   0.366   5.695  12.049  0.1469  0.2147  0.2492
15468TIP3    H167895   0.403   5.651  11.972 -0.5626  0.0841 -0.0266
15468TIP3    H267896   0.341   5.782  12.018 -0.6574 -0.0289  0.1682
15469TIP3   OH267897   6.335   5.683   1.868  0.3464 -0.0245 -0.2431
15469TIP3    H167898   6.242   5.674   1.846 -0.7326 -0.0055  3.6632
15469TIP3    H267899   6.379   5.616   1.814 -2.5064 -2.9148  0.7231
15470TIP3   OH267900   5.510   6.735   5.890 -0.0410 -0.7805  0.2071
15470TIP3    H167901   5.537   6.711   5.979  0.2955 -0.8064  0.0969
15470TIP3    H267902   5.442   6.801   5.903 -0.8852 -1.6772  0.5115
15471TIP3   OH267903   6.728   0.981   0.178  0.3904 -0.5783 -0.2599
15471TIP3    H167904   6.725   1.076   0.169  3.0144 -0.4333 -0.5181
15471TIP3    H267905   6.737   0.949   0.088 -0.0298 -1.0379 -0.1412
15472TIP3   OH267906   5.887   6.647  13.432  0.7285 -0.6085  0.3222
15472TIP3    H167907   5.949   6.575  13.446  1.4683 -0.1832 -0.5943
15472TIP3    H267908   5.811   6.625  13.486  2.6883  0.1849  3.6998
15473TIP3   OH267909   2.405   3.478   5.895  0.3730  0.4733  0.2217
15473TIP3    H167910   2.381   3.570   5.906  2.5977  1.3346 -1.4537
15473TIP3    H267911   2.423   3.447   5.984  0.0965  1.8056  0.7561
15474TIP3   OH267912   4.925   3.547   0.072 -1.0110  0.4123 -0.1356
15474TIP3    H167913   4.894   3.558  -0.018  0.9489  0.5991 -0.8497
15474TIP3    H267914   4.990   3.477   0.067 -3.7506 -2.5626  1.9479
15475TIP3   OH267915   3.918   6.662  11.086 -0.4365 -0.0781  0.5033
15475TIP3    H167916   3.889   6.698  11.002 -0.4956 -0.7102  0.2499
15475TIP3    H267917   4.005   6.701  11.099  0.4944 -1.5390 -0.8757
15476TIP3   OH267918   0.200   5.613   5.958  0.0277 -0.5424 -0.8918
15476TIP3    H167919   0.148   5.537   5.934 -2.5114  1.8156 -3.5339
15476TIP3    H267920   0.136   5.680   5.981  1.9757  1.7110 -1.6472
15477TIP3   OH267921   1.239   3.594   1.556  0.6421  0.3085 -0.6456
15477TIP3    H167922   1.321   3.641   1.539  0.1122  1.5861  0.1720
15477TIP3    H267923   1.195   3.647   1.623  0.1414 -1.5160  0.5416
15478TIP3   OH267924   5.667   2.426   3.670 -0.0776 -0.7934  0.0653
15478TIP3    H167925   5.648   2.519   3.682  0.8033 -0.5473 -0.3778
15478TIP3    H267926   5.725   2.423   3.594  0.4719 -1.6382  0.5019
15479TIP3   OH267927   0.130   6.382  16.701  0.0899 -0.2509 -0.0858
15479TIP3    H167928   0.216   6.372  16.661  0.4851 -0.1072  0.7135
15479TIP3    H267929   0.132   6.468  16.743  0.0769 -0.8336  1.1503
15480TIP3   OH267930   3.002   2.389  14.208 -0.5022  0.0309  0.1161
15480TIP3    H167931   3.065   2.349  14.148  2.3191  2.4023  1.2198
15480TIP3    H267932   3.007   2.337  14.288  0.2612  0.2966  0.2531
15481TIP3   OH267933   1.085   5.310   5.969 -0.0112 -0.2897  0.2753
15481TIP3    H167934   1.139   5.343   6.041 -2.7335  1.0560  1.8383
15481TIP3    H267935   1.102   5.371   5.897 -0.8798  1.3916  1.4088
15482TIP3   OH267936   0.100   5.531  15.104  0.2154 -0.1958  0.2432
15482TIP3    H167937   0.045   5.609  15.113 -0.4333 -0.4164 -1.4241
15482TIP3    H267938   0.068   5.471  15.171 -1.4048 -0.2065 -0.5115
15483TIP3   OH267939   0.009   3.298   1.171 -0.0904 -0.4341 -0.3177
15483TIP3    H167940   0.067   3.248   1.113  1.6412  1.1515 -0.0647
15483TIP3    H267941   0.019   3.257   1.256  1.6190  0.4583 -0.0288
15484TIP3   OH267942   3.374   5.908   0.870 -0.2946  0.7177  0.4250
15484TIP3    H167943   3.320   5.832   0.891  1.6913 -1.6102 -2.1732
15484TIP3    H267944   3.455   5.894   0.920  1.0472 -0.3282 -1.8766
15485TIP3   OH267945   0.688   0.245  13.873 -0.1109  0.2933 -0.3803
15485TIP3    H167946   0.755   0.271  13.810 -1.0967  1.3569 -1.0183
15485TIP3    H267947   0.635   0.323  13.886 -0.0310  0.0552  1.6696
15486TIP3   OH267948   4.731   2.185   3.767  0.1897 -0.4569  0.2488
15486TIP3    H167949   4.784   2.251   3.722 -0.4081  0.0452  0.2634
15486TIP3    H267950   4.646   2.228   3.780 -0.0434 -1.0519  0.7159
15487TIP3   OH267951   1.757   4.184  14.473  0.2938 -0.7287 -0.2324
15487TIP3    H167952   1.729   4.260  14.424 -0.2886  0.4031  1.7342
15487TIP3    H267953   1.784   4.219  14.559 -1.9054 -2.8796  1.4861
15488TIP3   OH267954   3.029   1.290   1.946  0.3608 -0.2397 -0.2565
15488TIP3    H167955   3.087   1.360   1.974  1.8185 -1.2758 -0.5797
15488TIP3    H267956   2.948   1.335   1.921  1.8325  1.5578 -2.1830
15489TIP3   OH267957   5.639   5.645  11.762 -0.1855  0.0260  0.2336
15489TIP3    H167958   5.708   5.635  11.827 -0.0516 -1.8426 -0.1150
15489TIP3    H267959   5.654   5.732  11.724 -0.0839  1.0221  2.4214
15490TIP3   OH267960   5.411   2.473   1.654 -0.0305 -0.0592 -0.4348
15490TIP3    H167961   5.350   2.402   1.672  0.1408 -0.1409 -0.1698
15490TIP3    H267962   5.376   2.549   1.702  1.1818 -0.6341  1.4687
15491TIP3   OH267963   2.829   3.145  14.209 -0.2473 -0.1106 -0.2281
15491TIP3    H167964   2.910   3.118  14.252 -1.4690 -2.6796  0.6612
15491TIP3    H267965   2.831   3.101  14.124  0.1606  1.4360 -1.0515
15492TIP3   OH267966   3.456   5.299   1.229 -0.0021 -0.2636 -0.0371
15492TIP3    H167967   3.376   5.248   1.235 -0.1730  0.0799  0.7925
15492TIP3    H267968   3.436   5.382   1.273  0.5817  0.1186 -0.4628
15493TIP3   OH267969   3.595   1.524  12.044 -0.3331 -0.1147  0.7734
15493TIP3    H167970   3.662   1.591  12.058 -0.4540  0.1100  0.3072
15493TIP3    H267971   3.639   1.442  12.063 -0.0293  0.0597  0.8312
15494TIP3   OH267972   2.717   2.928  17.268  0.3629 -0.0999  0.0231
15494TIP3    H167973   2.685   3.003  17.218 -0.2323 -0.8031 -0.6593
15494TIP3    H267974   2.693   2.852  17.216  2.2778 -0.7100 -0.0210
15495TIP3   OH267975   0.643   0.443   2.540  0.2189  0.4310 -0.2380
15495TIP3    H167976   0.686   0.461   2.457 -2.4190  0.6969 -1.6546
15495TIP3    H267977   0.570   0.504   2.543 -0.1454 -0.0400  1.9769
15496TIP3   OH267978   5.564   0.311   1.299  0.2426  0.4384  0.0979
15496TIP3    H167979   5.539   0.362   1.222 -0.5033  1.5271  1.0356
15496TIP3    H267980   5.637   0.360   1.338  1.3191 -0.6534 -0.4462
15497TIP3   OH267981   5.746   1.058   2.256  0.1198  0.4730 -0.8429
15497TIP3    H167982   5.735   1.013   2.173 -0.7147  0.2138 -0.5965
15497TIP3    H267983   5.681   1.019   2.314 -0.6351  1.9904 -0.6278
15498TIP3   OH267984   1.223   0.084   2.425 -0.2558 -0.1250 -0.0985
15498TIP3    H167985   1.127   0.085   2.422 -0.2955 -0.6529  0.7564
15498TIP3    H267986   1.244   0.059   2.515  0.6880 -2.2578 -0.8536
15499TIP3   OH267987   4.187   4.611  14.747  0.0528  0.2092 -0.3134
15499TIP3    H167988   4.175   4.530  14.698 -0.0375 -0.0186  0.0806
15499TIP3    H267989   4.236   4.585  14.825  0.6641  0.6552 -0.5364
15500TIP3   OH267990   3.463   0.904  13.566  0.2344  0.6354  0.7270
15500TIP3    H167991   3.487   0.982  13.515  0.9964 -0.9516 -1.5167
15500TIP3    H267992   3.547   0.860  13.582 -0.1994  0.1950  1.8260
15501TIP3   OH267993   4.109   2.399  14.760  0.1717 -0.0689 -0.4108
15501TIP3    H167994   4.167   2.325  14.742 -1.2583 -1.2665 -0.3236
15501TIP3    H267995   4.070   2.419  14.675  2.3587  2.2950 -0.9872
15502TIP3   OH267996   1.179   3.881   6.557 -0.1460 -0.1601 -0.0879
15502TIP3    H167997   1.190   3.972   6.582  1.1677 -0.7036  1.5112
15502TIP3    H267998   1.094   3.856   6.596  0.5120 -0.1836  1.4078
15503TIP3   OH267999   2.514   0.879  17.319  0.5415  0.1926 -0.6763
15503TIP3    H168000   2.520   0.968  17.355  3.8845 -0.0674 -0.3051
15503TIP3    H268001   2.582   0.876  17.252  0.7930 -2.1997 -0.3865
15504TIP3   OH268002   3.549   5.762   1.811 -0.0414 -0.2913  0.4091
15504TIP3    H168003   3.491   5.802   1.875  0.3694 -2.1634  2.0307
15504TIP3    H268004   3.528   5.807   1.729 -2.8963 -0.0467  1.1584
15505TIP3   OH268005   5.063   1.208  15.019 -0.2883  0.0053 -0.1630
15505TIP3    H168006   5.017   1.195  14.936 -0.5904 -1.8834  0.2435
15505TIP3    H268007   5.131   1.140  15.019 -0.8333 -0.5815  1.4812
15506TIP3   OH268008   3.525   0.512  12.133 -0.6129  0.2530  0.5644
15506TIP3    H168009   3.614   0.511  12.167 -0.7997  1.2964  1.1661
15506TIP3    H268010   3.510   0.604  12.108 -1.1170 -0.1363 -0.6411
15507TIP3   OH268011   4.100   6.106   5.819  0.1554 -0.1469  0.1141
15507TIP3    H168012   4.114   6.193   5.857  0.0591 -0.5524  1.1142
15507TIP3    H268013   4.141   6.046   5.882  2.4232 -0.6948 -1.7273
15508TIP3   OH268014   5.620   5.886   2.739 -0.2979 -0.1774 -0.3060
15508TIP3    H168015   5.586   5.801   2.769  0.0934 -0.3599 -0.3794
15508TIP3    H268016   5.659   5.868   2.654 -1.2708  0.3148 -0.8714
15509TIP3   OH268017   2.433   2.547   1.191 -0.0333  0.0139  0.1098
15509TIP3    H168018   2.432   2.585   1.103  0.3495  0.9075  0.4809
15509TIP3    H268019   2.446   2.621   1.250 -0.3710 -0.5598  0.9365
15510TIP3   OH268020   3.388   0.452  11.250  0.2945 -0.0339  0.2181
15510TIP3    H168021   3.365   0.376  11.196 -1.1905 -1.3851  2.6166
15510TIP3    H268022   3.474   0.430  11.286 -0.0768 -0.5573  0.8097
15511TIP3   OH268023   1.989   6.368   4.184  0.3409  0.1447 -0.0771
15511TIP3    H168024   2.059   6.349   4.245  0.1188 -3.2900 -0.7050
15511TIP3    H268025   1.911   6.327   4.222 -0.6017  0.9828 -0.9976
15512TIP3   OH268026   1.959   2.246  11.682  0.1866 -0.4501  0.2342
15512TIP3    H168027   2.037   2.201  11.652  0.6684  1.0264 -0.8133
15512TIP3    H268028   1.888   2.210  11.629  0.9214  1.6204 -2.3480
15513TIP3   OH268029   4.760   4.462   5.188  0.4864 -0.1292 -0.2171
15513TIP3    H168030   4.819   4.417   5.128 -0.8592 -0.3753 -1.3874
15513TIP3    H268031   4.749   4.549   5.149 -2.8444 -1.2481 -2.1815
15514TIP3   OH268032   0.322   1.508   4.443  0.3315  0.5276 -0.2548
15514TIP3    H168033   0.412   1.476   4.438  0.0714 -0.3037  0.2681
15514TIP3    H268034   0.320   1.559   4.525  0.3725  0.7104 -0.3661
15515TIP3   OH268035   6.746   1.939   3.127  0.0904 -0.8394 -0.2379
15515TIP3    H168036   6.779   1.873   3.067 -0.6232 -0.0459 -1.5401
15515TIP3    H268037   6.668   1.974   3.085  0.9691  1.4992 -0.0924
15516TIP3   OH268038   5.637   1.673  15.653 -0.2998 -0.0194  0.7636
15516TIP3    H168039   5.727   1.704  15.638  0.4075 -0.8310  2.8844
15516TIP3    H268040   5.632   1.590  15.606 -0.1238  0.2964  0.1803
15517TIP3   OH268041   1.688   2.746  14.637 -0.4713  0.0943 -0.0380
15517TIP3    H168042   1.672   2.840  14.647  1.0461  0.2687  1.2087
15517TIP3    H268043   1.767   2.741  14.583 -1.1120 -0.5219 -0.9477
15518TIP3   OH268044   5.613   1.484  14.479  0.0727  0.2827 -0.3947
15518TIP3    H168045   5.580   1.532  14.403 -1.2424 -0.6174 -0.4153
15518TIP3    H268046   5.704   1.512  14.487 -0.0547  1.1449 -1.6979
15519TIP3   OH268047   3.455   4.231  12.847 -0.8557  0.0280 -0.0809
15519TIP3    H168048   3.390   4.161  12.847 -1.3936  0.5083 -1.1287
15519TIP3    H268049   3.533   4.191  12.885 -1.3447 -0.9573 -0.0809
15520TIP3   OH268050   1.963   2.011  16.751  0.5498 -0.3491  0.1478
15520TIP3    H168051   1.881   1.967  16.731  0.7850 -0.2248 -1.1399
15520TIP3    H268052   1.974   2.000  16.846 -0.6742 -0.8194  0.2417
15521TIP3   OH268053   4.207   5.766   3.304 -0.2655  0.3436  0.1203
15521TIP3    H168054   4.113   5.778   3.292 -0.7479 -0.4515  2.5613
15521TIP3    H268055   4.247   5.831   3.245 -2.3584  1.9239  0.3182
15522TIP3   OH268056   2.784   4.726  16.614  0.0359 -0.7202 -0.2998
15522TIP3    H168057   2.759   4.635  16.630  1.5784 -1.2406 -0.6606
15522TIP3    H268058   2.704   4.776  16.628 -1.2054 -2.2760 -1.4818
15523TIP3   OH268059   6.693   3.823  12.214 -0.3359 -0.3174  0.4038
15523TIP3    H168060   6.626   3.891  12.225 -0.9556 -0.4718 -1.9760
15523TIP3    H268061   6.675   3.761  12.285 -2.3169 -0.0312  0.2086
15524TIP3   OH268062   5.510   0.514   4.812  0.5453  0.1143 -0.1648
15524TIP3    H168063   5.494   0.565   4.732  0.6215  0.3096 -0.0534
15524TIP3    H268064   5.534   0.579   4.878  1.1374 -0.1120 -0.1524
15525TIP3   OH268065   3.271   0.727   1.967 -0.2803  0.8075  0.3942
15525TIP3    H168066   3.240   0.782   2.039 -1.6348  0.0493  0.4078
15525TIP3    H268067   3.302   0.790   1.902 -0.6733  1.5537  0.9077
15526TIP3   OH268068   0.233   1.786  15.688 -0.0526  0.9163 -0.5600
15526TIP3    H168069   0.181   1.724  15.738  1.3868 -0.6785 -0.9533
15526TIP3    H268070   0.191   1.789  15.602  0.6409 -0.6198 -0.9866
15527TIP3   OH268071   4.490   3.346  14.398 -0.3606  0.1153 -0.1662
15527TIP3    H168072   4.424   3.411  14.421 -0.4396 -0.2079  0.5727
15527TIP3    H268073   4.573   3.386  14.423 -0.3479  0.2103 -0.3618
15528TIP3   OH268074   2.333   0.375   0.130  0.2234  0.4724 -0.2492
15528TIP3    H168075   2.339   0.286   0.097  0.2638  0.9180 -1.4658
15528TIP3    H268076   2.343   0.365   0.225 -1.8368 -1.0354 -0.1214
15529TIP3   OH268077   4.258   1.264  11.643  0.0189 -0.6077 -0.0640
15529TIP3    H168078   4.237   1.271  11.550  0.0367 -1.4416 -0.1395
15529TIP3    H268079   4.200   1.328  11.685 -0.0385 -0.2701 -0.6358
15530TIP3   OH268080   0.233   3.327   0.582 -0.1332 -0.3263 -0.0764
15530TIP3    H168081   0.313   3.313   0.632  0.4120  0.1780 -0.7868
15530TIP3    H268082   0.194   3.406   0.621  1.2564  1.1895 -1.5872
15531TIP3   OH268083   4.541   2.494  14.008 -0.3820 -0.2843 -0.5688
15531TIP3    H168084   4.568   2.556  13.940  2.1354 -0.8606 -0.1871
15531TIP3    H268085   4.570   2.533  14.090 -1.6878 -0.4969  0.0269
15532TIP3   OH268086   2.152   6.658   4.903 -0.3164 -0.3781 -1.0072
15532TIP3    H168087   2.060   6.653   4.877 -0.3455 -0.7430 -0.8493
15532TIP3    H268088   2.190   6.576   4.870 -0.7116 -1.6351  1.4321
15533TIP3   OH268089   5.354   4.622  12.047  0.3442  0.0451  0.1825
15533TIP3    H168090   5.265   4.656  12.052  0.3308 -0.1420  2.2331
15533TIP3    H268091   5.384   4.644  11.959 -1.0100  1.9025  0.1335
15534TIP3   OH268092   1.282   2.398  12.137 -0.0487 -0.5190  0.5861
15534TIP3    H168093   1.278   2.352  12.053  1.1491 -0.1237  0.2915
15534TIP3    H268094   1.367   2.374  12.173  0.6926  1.5209  0.3532
15535TIP3   OH268095   6.545   4.161   1.094 -0.1203  0.4176  0.1008
15535TIP3    H168096   6.513   4.247   1.122 -1.5258 -0.6188  1.9469
15535TIP3    H268097   6.496   4.099   1.148 -0.2010 -1.6311 -2.1617
15536TIP3   OH268098   3.714   3.760  13.288 -0.3174 -0.7999 -0.7137
15536TIP3    H168099   3.726   3.812  13.368 -1.5067 -1.4629 -0.0761
15536TIP3    H268100   3.719   3.669  13.318 -0.2240 -1.0556 -1.4910
15537TIP3   OH268101   2.276   0.634  14.263 -0.2966 -0.0396  0.6787
15537TIP3    H168102   2.331   0.624  14.186 -1.2282  1.1631 -0.1778
15537TIP3    H268103   2.322   0.699  14.317 -0.7596  0.8306  0.0474
15538TIP3   OH268104   2.527   3.800   5.353 -0.6425 -0.0926 -0.0130
15538TIP3    H168105   2.521   3.792   5.448  0.5508  0.8624  0.1673
15538TIP3    H268106   2.598   3.863   5.339  0.0372 -1.1568 -1.5656
15539TIP3   OH268107   4.684   5.635   3.093 -0.5061  0.2055  0.2222
15539TIP3    H168108   4.614   5.586   3.050 -0.4368  0.7113 -0.4869
15539TIP3    H268109   4.700   5.587   3.174  0.2534 -1.5334 -0.8878
15540TIP3   OH268110   2.804   0.445   5.536 -0.3020  0.6407 -0.8017
15540TIP3    H168111   2.724   0.394   5.537 -0.8257  1.3403  2.3250
15540TIP3    H268112   2.776   0.534   5.514 -0.5726  1.0325  0.9658
15541TIP3   OH268113   3.333   1.741  11.752 -0.6210  0.0189  0.3466
15541TIP3    H168114   3.284   1.821  11.732 -0.4994  0.1484  0.5574
15541TIP3    H268115   3.301   1.677  11.688 -0.2455  0.4200 -0.2618
15542TIP3   OH268116   2.935   5.587   2.413  0.3968 -0.6364 -0.0733
15542TIP3    H168117   2.911   5.639   2.336  0.9861 -0.1672  0.0567
15542TIP3    H268118   3.026   5.610   2.431 -0.4618  1.3344  2.3742
15543TIP3   OH268119   4.538   3.360  12.829  0.0023 -0.2368 -0.2170
15543TIP3    H168120   4.577   3.445  12.808 -2.3991  1.1258  0.4699
15543TIP3    H268121   4.590   3.328  12.903 -0.2492  1.6228  0.8380
15544TIP3   OH268122   6.531   3.496  15.587 -0.4175 -0.4909 -0.7426
15544TIP3    H168123   6.537   3.400  15.587 -1.7144 -0.5877 -0.1033
15544TIP3    H268124   6.450   3.515  15.634  0.2896  0.9586 -0.0558
15545TIP3   OH268125   3.064   2.948   3.492 -0.1116  0.4130  0.1459
15545TIP3    H168126   3.121   3.017   3.458  1.3733 -1.8434 -2.3066
15545TIP3    H268127   3.122   2.893   3.544 -0.8865  0.0244  0.6169
15546TIP3   OH268128   3.299   4.528  11.046 -0.3153  0.6833  0.8253
15546TIP3    H168129   3.287   4.585  10.970  0.5857  0.3108  0.3870
15546TIP3    H268130   3.219   4.539  11.097 -1.1925  0.4798 -0.4654
15547TIP3   OH268131   6.679   4.396  16.537  0.2066  0.0467 -0.2740
15547TIP3    H168132   6.584   4.395  16.529  0.2031  0.2424 -0.2765
15547TIP3    H268133   6.696   4.387  16.631  0.1820  0.0873 -0.2654
15548TIP3   OH268134   6.488   4.827   1.157 -0.4067  0.3054 -0.1039
15548TIP3    H168135   6.462   4.770   1.229 -0.4325  0.2442 -0.1619
15548TIP3    H268136   6.449   4.912   1.179 -0.4290  0.2822 -0.0546
15549TIP3   OH268137   3.857   4.087   1.769 -0.0221 -0.5022  0.4723
15549TIP3    H168138   3.843   4.181   1.760  0.2942 -0.3353  1.5151
15549TIP3    H268139   3.938   4.079   1.818 -0.2460 -1.3091  0.7399
15550TIP3   OH268140   5.845   0.024   2.725  0.3945 -0.2995  0.1624
15550TIP3    H168141   5.905   0.045   2.797 -0.6736 -1.3936  1.4254
15550TIP3    H268142   5.854   0.099   2.665 -0.4777  1.9335  2.6049
15551TIP3   OH268143   4.678   2.924  12.301 -0.3191 -0.0753  0.0448
15551TIP3    H168144   4.675   3.020  12.306  0.0653 -0.1213  1.4185
15551TIP3    H268145   4.693   2.906  12.208 -2.6861  1.1119 -0.6563
15552TIP3   OH268146   4.949   0.870   4.116  0.0093  0.0178 -0.1282
15552TIP3    H168147   4.916   0.934   4.180  0.5359 -1.1242  1.3558
15552TIP3    H268148   5.015   0.918   4.067 -1.1623  1.2374 -0.5766
15553TIP3   OH268149   5.729   5.002  12.124  0.2180  0.3178 -0.2684
15553TIP3    H168150   5.646   5.029  12.164 -0.5498 -1.0255 -0.8842
15553TIP3    H268151   5.772   4.950  12.192 -0.0645 -0.0968 -0.4011
15554TIP3   OH268152   2.802   4.425   0.559  0.4535 -0.3636  0.5293
15554TIP3    H168153   2.894   4.424   0.585  0.8805  0.0258 -0.9124
15554TIP3    H268154   2.768   4.340   0.588  1.4062 -0.7410  0.5644
15555TIP3   OH268155   4.740   6.253  17.093 -0.0390  0.6927 -0.6464
15555TIP3    H168156   4.810   6.250  17.158 -0.6992  1.7043  0.1336
15555TIP3    H268157   4.763   6.327  17.037 -0.9242  1.5830  0.1424
15556TIP3   OH268158   6.099   0.072   1.604  0.2173  0.1834 -0.3594
15556TIP3    H168159   6.114   0.075   1.698  0.1819  2.2426 -0.3699
15556TIP3    H268160   6.154   0.142   1.569  2.8782 -2.6019 -2.3196
15557TIP3   OH268161   2.573   3.131   5.899  0.4746 -0.0151  0.1460
15557TIP3    H168162   2.564   3.212   5.950 -1.1751  0.2545 -0.5137
15557TIP3    H268163   2.549   3.157   5.810 -0.6782 -1.3445  0.0383
15558TIP3   OH268164   1.399   1.757   3.173  0.3046  0.0084 -0.4139
15558TIP3    H168165   1.452   1.836   3.184  0.3857 -0.2843  1.7963
15558TIP3    H268166   1.462   1.686   3.165  0.2266  0.0256 -1.2735
15559TIP3   OH268167   3.002   5.804  11.834  0.1640  0.2160  0.7894
15559TIP3    H168168   3.027   5.738  11.770 -0.7301  1.7599 -1.2724
15559TIP3    H268169   3.085   5.841  11.865  0.6131 -0.8600  0.9127
15560TIP3   OH268170   6.449   4.594   1.022  0.1562  0.0261 -0.5320
15560TIP3    H168171   6.365   4.556   0.997 -0.3678  1.3428 -0.8281
15560TIP3    H268172   6.428   4.682   1.054  1.3356  0.0900  0.1485
15561TIP3   OH268173   5.237   4.799  13.664 -0.3963 -0.2949 -0.0541
15561TIP3    H168174   5.200   4.853  13.594 -0.4278 -0.3900 -0.1108
15561TIP3    H268175   5.228   4.709  13.632  0.5104 -0.2852 -0.3843
15562TIP3   OH268176   0.983   5.061   0.475 -0.2414 -0.2006 -0.1382
15562TIP3    H168177   0.969   5.107   0.558 -0.3774 -1.9737  0.8559
15562TIP3    H268178   1.041   5.119   0.426 -1.0194  1.3994  0.7286
15563TIP3   OH268179   1.479   6.755   2.570  0.4480 -0.7160 -0.3023
15563TIP3    H168180   1.442   6.746   2.658 -1.6662 -0.9988 -1.1484
15563TIP3    H268181   1.547   6.822   2.580  1.7298 -2.2209  1.9155
15564TIP3   OH268182   5.921   0.127  16.905 -0.7065 -0.2170 -0.1266
15564TIP3    H168183   5.902   0.140  16.812  1.3159 -0.6592 -0.6530
15564TIP3    H268184   5.992   0.189  16.924  0.0519 -1.2960  0.6752
15565TIP3   OH268185   3.825   3.492  10.997 -0.2582  0.1330  0.1003
15565TIP3    H168186   3.787   3.482  11.084 -2.3478 -1.3320 -0.8892
15565TIP3    H268187   3.819   3.404  10.959 -0.9504  1.0802 -2.1070
15566TIP3   OH268188   5.256   4.740   4.253 -0.6571 -0.0762  0.1811
15566TIP3    H168189   5.284   4.798   4.183 -0.0352  0.0413  0.5225
15566TIP3    H268190   5.325   4.745   4.319 -0.0103 -2.0580 -0.2691
15567TIP3   OH268191   3.677   4.784   6.277  0.0955  0.1143 -0.4335
15567TIP3    H168192   3.688   4.689   6.276 -1.1148 -0.0379 -1.2274
15567TIP3    H268193   3.595   4.798   6.325  1.0925  0.8805  1.1288
15568TIP3   OH268194   0.269   2.772  17.397  0.1537 -0.2425  0.4825
15568TIP3    H168195   0.273   2.838  17.327  0.6179  0.7978  1.4523
15568TIP3    H268196   0.192   2.719  17.375 -1.7269  2.1172  0.9402
15569TIP3   OH268197   4.777   0.205   2.368  0.1146  0.4485 -0.2314
15569TIP3    H168198   4.692   0.247   2.357 -0.5981 -0.4818  1.3470
15569TIP3    H268199   4.806   0.233   2.455 -0.1471 -1.8046  0.6472
15570TIP3   OH268200   6.044   6.625  13.021 -0.2789  0.2399  0.4433
15570TIP3    H168201   6.124   6.588  13.057  0.2531 -0.6797 -1.5208
15570TIP3    H268202   6.059   6.719  13.020  1.0881  0.0464 -0.4786
15571TIP3   OH268203   0.765   2.838  16.301 -0.6525  0.2127  0.0916
15571TIP3    H168204   0.860   2.848  16.314 -0.8251 -0.6296  2.5486
15571TIP3    H268205   0.740   2.914  16.249  1.5831 -0.3529 -2.0180
15572TIP3   OH268206   0.111   0.522   2.362  0.2965  0.2499  0.5102
15572TIP3    H168207   0.104   0.584   2.290 -0.7775 -0.7079 -0.2420
15572TIP3    H268208   0.154   0.446   2.323  0.1771 -0.0786  1.0214
15573TIP3   OH268209   0.804   5.788   2.114  0.1436 -0.6837  0.3333
15573TIP3    H168210   0.763   5.716   2.163  0.8093 -0.9277  0.5449
15573TIP3    H268211   0.731   5.844   2.088 -0.4274 -1.5950 -0.0908
15574TIP3   OH268212   6.561   6.734  15.795  0.0124  0.7438  0.1466
15574TIP3    H168213   6.599   6.754  15.710  0.7571 -0.7138  0.1012
15574TIP3    H268214   6.631   6.755  15.858 -0.6139  2.0399  0.4472
15575TIP3   OH268215   6.520   3.442   5.644 -0.3559 -0.4316 -0.0565
15575TIP3    H168216   6.437   3.410   5.610  0.3850 -0.4735 -1.9528
15575TIP3    H268217   6.498   3.526   5.685 -1.2639 -0.1386 -1.0787
15576TIP3   OH268218   1.803   4.119  15.140  0.3312 -0.1468  0.0467
15576TIP3    H168219   1.780   4.043  15.193 -0.5746  0.6973  0.9108
15576TIP3    H268220   1.840   4.182  15.202 -0.0706  0.5878 -0.4357
15577TIP3   OH268221   0.952   2.286   2.947 -0.0580 -0.2546  0.4020
15577TIP3    H168222   0.954   2.381   2.942 -1.2412 -0.0925  2.1056
15577TIP3    H268223   0.868   2.266   2.989 -0.0309 -2.0728 -0.3281
15578TIP3   OH268224   2.837   5.234   1.767  0.2430 -0.2360  0.0127
15578TIP3    H168225   2.911   5.263   1.714  0.2262  0.9140  0.5892
15578TIP3    H268226   2.783   5.182   1.707  1.8184 -1.6605 -0.2476
15579TIP3   OH268227   4.357   2.050  16.967  0.1748 -0.3562  0.4144
15579TIP3    H168228   4.333   2.067  16.876  1.2663  1.0036  0.3548
15579TIP3    H268229   4.273   2.050  17.014 -0.2024  2.2539 -0.0880
15580TIP3   OH268230   4.687   0.645  15.462 -0.2209 -0.4392  0.3273
15580TIP3    H168231   4.723   0.610  15.544  1.4401 -0.4333 -0.3730
15580TIP3    H268232   4.732   0.597  15.393 -0.0040  1.0626 -0.6164
15581TIP3   OH268233   3.322   6.472  12.358  0.2084 -0.6673  0.4560
15581TIP3    H168234   3.289   6.461  12.447 -0.6734 -1.2791  0.0690
15581TIP3    H268235   3.287   6.556  12.329  0.8961 -0.2419  0.8538
15582TIP3   OH268236   6.752   1.270   6.323 -0.1669 -0.8175 -0.3007
15582TIP3    H168237   6.682   1.335   6.326 -0.5167 -1.2308  1.2919
15582TIP3    H268238   6.825   1.316   6.281 -0.8351  0.1735 -0.4165
15583TIP3   OH268239   0.759   0.183   3.591  0.1043  0.5641 -0.0055
15583TIP3    H168240   0.764   0.112   3.654  1.0581 -2.1488 -2.8516
15583TIP3    H268241   0.683   0.161   3.536  0.1313  2.0176 -0.6823
15584TIP3   OH268242   0.689   0.648  13.055 -0.0814 -0.0794  0.2380
15584TIP3    H168243   0.735   0.624  13.136  0.2377 -1.2256 -0.2657
15584TIP3    H268244   0.601   0.671  13.084  0.1485 -0.0585  0.9596
15585TIP3   OH268245   6.210   6.112   4.499  0.3035 -0.1152  0.0932
15585TIP3    H168246   6.207   6.134   4.406 -0.7698 -2.3039 -0.4581
15585TIP3    H268247   6.284   6.161   4.533  0.7958  0.6482 -1.9445
15586TIP3   OH268248   3.996   2.902  12.902 -0.3753 -0.6795 -0.2625
15586TIP3    H168249   3.909   2.928  12.933 -0.0036 -0.6838  0.8192
15586TIP3    H268250   4.027   2.976  12.851  0.6519  1.1142  2.7224
15587TIP3   OH268251   6.745   2.553   4.472  0.5076  0.2699 -0.2448
15587TIP3    H168252   6.691   2.631   4.486  0.6565  0.6739 -1.7485
15587TIP3    H268253   6.753   2.514   4.559  1.3383  2.5218  0.7751
15588TIP3   OH268254   3.509   5.792  15.278  0.3989  0.3427  0.4207
15588TIP3    H168255   3.575   5.807  15.345  1.1770  0.2437 -0.3033
15588TIP3    H268256   3.477   5.703  15.294 -0.9288  1.0393  1.9149
15589TIP3   OH268257   0.039   5.606  14.162  0.2218 -0.0591  0.6537
15589TIP3    H168258   0.087   5.524  14.149  1.0697  0.3928  0.8550
15589TIP3    H268259  -0.051   5.578  14.180  0.8177 -1.0382  2.3497
15590TIP3   OH268260   2.266   0.352   1.423 -0.4749  0.1292  0.2615
15590TIP3    H168261   2.191   0.296   1.443 -1.8047  2.0623  1.0260
15590TIP3    H268262   2.227   0.437   1.403  1.5146  1.1309  0.4112
15591TIP3   OH268263   5.763   1.712   5.927  0.0537 -0.5911  0.4675
15591TIP3    H168264   5.688   1.767   5.903 -1.4427 -1.6919  2.3798
15591TIP3    H268265   5.782   1.736   6.018  1.4450 -1.0198  0.3173
15592TIP3   OH268266   6.426   2.352   5.833 -0.1160 -0.5926 -0.1224
15592TIP3    H168267   6.487   2.402   5.778 -0.6318 -1.0244 -1.1063
15592TIP3    H268268   6.350   2.337   5.777 -1.9259  1.4214  1.5730
15593TIP3   OH268269   1.591   4.609  16.620  0.2710 -0.1854 -0.4608
15593TIP3    H168270   1.523   4.676  16.612 -0.4677 -0.8053  0.3847
15593TIP3    H268271   1.543   4.526  16.619  1.1022 -0.6758 -0.7252
15594TIP3   OH268272   5.303   0.692  14.644 -0.0516 -0.6522  0.6191
15594TIP3    H168273   5.384   0.698  14.593 -0.4293 -1.0808 -0.0517
15594TIP3    H268274   5.331   0.664  14.731  0.4650 -1.3872  0.2199
15595TIP3   OH268275   5.818   5.296   3.763  0.0467 -0.2050 -0.1838
15595TIP3    H168276   5.848   5.209   3.789 -0.5978 -0.5471 -0.5515
15595TIP3    H268277   5.723   5.290   3.767 -0.0721 -0.1284 -2.1114
15596TIP3   OH268278   4.792   5.638   3.848  0.2546  0.0273 -0.7292
15596TIP3    H168279   4.732   5.627   3.922  1.1048 -0.8121 -0.1359
15596TIP3    H268280   4.741   5.684   3.782 -0.5353  0.8052  0.3786
15597TIP3   OH268281   6.396   4.867   3.469 -0.0141 -0.1898 -0.0339
15597TIP3    H168282   6.488   4.839   3.462  0.5455  1.5622 -0.1016
15597TIP3    H268283   6.358   4.845   3.384  0.1165 -1.5854  0.2362
15598TIP3   OH268284   1.249   1.239  12.443 -0.1891  0.4361 -0.0221
15598TIP3    H168285   1.181   1.175  12.465 -0.0848 -0.6131 -2.4036
15598TIP3    H268286   1.305   1.194  12.380  0.8001  2.3684 -0.6147
15599TIP3   OH268287   5.655   5.728   1.384  0.1299 -0.6580  0.2830
15599TIP3    H168288   5.624   5.773   1.306 -0.4544 -1.2131  0.1875
15599TIP3    H268289   5.602   5.764   1.455 -1.1314 -1.9605  0.0496
15600TIP3   OH268290   1.332   0.544  16.778  0.1278  0.2763  0.1160
15600TIP3    H168291   1.364   0.455  16.795 -0.6231  0.1960  1.2236
15600TIP3    H268292   1.339   0.588  16.862 -2.2558  0.3711  0.3395
15601TIP3   OH268293   0.808   4.292  17.090  0.5543  0.2163 -0.6636
15601TIP3    H168294   0.902   4.279  17.103  0.1340 -1.6910  0.9423
15601TIP3    H268295   0.775   4.317  17.176 -0.7379 -1.6385 -0.5614
15602TIP3   OH268296   1.075   3.052  11.740  0.2358  0.2242  0.0470
15602TIP3    H168297   1.079   3.067  11.835  0.4177  0.7155 -0.0348
15602TIP3    H268298   1.082   2.957  11.731 -0.2303  0.1352  0.5480
15603TIP3   OH268299   5.871   5.134  11.622 -0.4356 -0.1147 -0.5402
15603TIP3    H168300   5.927   5.149  11.546 -0.3055  0.1941 -0.3820
15603TIP3    H268301   5.844   5.221  11.650 -1.3301 -0.2720 -0.8696
15604TIP3   OH268302   5.014   4.893   5.415 -0.1687  0.4555  0.0391
15604TIP3    H168303   4.973   4.961   5.467 -0.7004 -0.8092  1.3369
15604TIP3    H268304   4.946   4.865   5.353 -0.1765  0.6058 -0.0208
15605TIP3   OH268305   4.966   4.434   0.189  0.2214 -0.2540 -0.1500
15605TIP3    H168306   4.966   4.511   0.246  0.0408 -1.1895  1.1654
15605TIP3    H268307   4.874   4.413   0.177  0.2549  0.0512 -0.9590
15606TIP3   OH268308   2.420   1.837   6.854 -0.0136  0.0080 -0.0867
15606TIP3    H168309   2.442   1.746   6.833 -0.9579 -0.1998 -0.2065
15606TIP3    H268310   2.503   1.884   6.842  0.3266 -0.7143 -0.7086
15607TIP3   OH268311   1.168   3.462  13.274  0.3671 -0.1558  0.0930
15607TIP3    H168312   1.076   3.455  13.248 -0.0631  1.1927  1.0790
15607TIP3    H268313   1.213   3.397  13.221 -1.4648 -2.4204  1.1104
15608TIP3   OH268314   0.893   5.999   4.728  0.5344  0.0879 -0.0882
15608TIP3    H168315   0.948   6.077   4.733  0.9706 -0.1649 -0.8130
15608TIP3    H268316   0.813   6.023   4.775  0.7868  0.8650 -0.0459
15609TIP3   OH268317   0.270   2.960   3.752  0.3575 -0.2850  0.4851
15609TIP3    H168318   0.315   3.014   3.687  0.8546 -2.6762 -1.3243
15609TIP3    H268319   0.341   2.912   3.795 -0.0737  0.3823  1.9755
15610TIP3   OH268320   5.047   0.819  16.408  0.4174 -0.4121 -0.7165
15610TIP3    H168321   5.001   0.775  16.480 -0.7095 -0.7817 -1.6405
15610TIP3    H268322   5.128   0.768  16.398  1.3331  0.5334  1.2385
15611TIP3   OH268323   3.472   5.604  12.237  0.2718 -0.7011 -0.0307
15611TIP3    H168324   3.475   5.683  12.182 -1.4822  0.9688  2.1169
15611TIP3    H268325   3.542   5.549  12.202  1.2852  1.5908 -1.9272
15612TIP3   OH268326   4.171   2.850  13.513 -0.3675  0.4803 -0.5753
15612TIP3    H168327   4.247   2.898  13.481  0.5305 -1.5717 -1.6681
15612TIP3    H268328   4.151   2.787  13.444 -3.3732  1.2217 -0.5348
15613TIP3   OH268329   2.317   3.226  15.177  0.3474 -0.1611  0.0355
15613TIP3    H168330   2.243   3.165  15.177 -0.7445  1.0924  0.4135
15613TIP3    H268331   2.338   3.238  15.085 -1.5670  1.2721 -0.3039
15614TIP3   OH268332   3.343   2.281  15.867  0.3493 -0.0100 -0.2056
15614TIP3    H168333   3.252   2.295  15.844  0.4505 -0.6501 -1.0129
15614TIP3    H268334   3.392   2.320  15.795  0.7425  1.0277  0.5938
15615TIP3   OH268335   3.801   1.785   3.587  0.0365  0.1666 -0.2128
15615TIP3    H168336   3.795   1.762   3.680  2.0131  1.7531  0.3782
15615TIP3    H268337   3.867   1.726   3.551  1.8267  1.7916  0.2626
15616TIP3   OH268338   1.534   4.988   5.027  0.6945  0.2529 -1.1928
15616TIP3    H168339   1.524   4.898   4.997 -0.1742 -0.1075  0.0948
15616TIP3    H268340   1.629   5.000   5.035  0.8939 -0.0188 -2.8133
15617TIP3   OH268341   3.304   6.120   4.797 -0.0347  0.4750 -0.2870
15617TIP3    H168342   3.272   6.030   4.807 -0.1087  0.5437  0.1536
15617TIP3    H268343   3.381   6.124   4.854 -0.2114  0.7730 -0.0649
15618TIP3   OH268344   1.403   2.184   1.442 -0.4643 -0.6800 -0.2458
15618TIP3    H168345   1.366   2.230   1.518 -2.1636 -2.0636 -0.1661
15618TIP3    H268346   1.433   2.100   1.477 -1.9987 -1.6724 -1.1656
15619TIP3   OH268347   3.263   4.924  11.747  0.9300 -0.2615  0.1144
15619TIP3    H168348   3.345   4.960  11.780  1.5669 -0.9925 -0.6112
15619TIP3    H268349   3.221   4.996  11.700  2.0517 -0.3657 -1.0924
15620TIP3   OH268350   0.358   1.466   5.049  0.5827 -0.0476  0.0703
15620TIP3    H168351   0.433   1.467   4.989  0.3908 -0.7650 -0.1946
15620TIP3    H268352   0.354   1.555   5.084  0.1738  0.6528 -1.6348
15621TIP3   OH268353   2.979   0.844   4.658  0.1005 -0.4939 -0.1308
15621TIP3    H168354   2.984   0.752   4.634 -0.7972 -1.0252  1.5452
15621TIP3    H268355   2.933   0.885   4.585 -2.6700 -2.0666  0.5478
15622TIP3   OH268356   2.885   6.643   0.456 -0.0163 -0.5256  0.3397
15622TIP3    H168357   2.876   6.584   0.530 -0.6745  0.7579  1.3286
15622TIP3    H268358   2.856   6.592   0.380 -0.2728 -1.5482  1.1090
15623TIP3   OH268359   1.672   0.896  10.759  0.6564  0.3170 -0.0683
15623TIP3    H168360   1.725   0.849  10.695  0.4566  0.8502 -0.6323
15623TIP3    H268361   1.701   0.987  10.753  0.5750  0.3885  0.5419
15624TIP3   OH268362   4.649   5.893  14.524 -0.3051 -0.0286 -0.5482
15624TIP3    H168363   4.597   5.912  14.602 -0.2885 -0.1313 -0.5106
15624TIP3    H268364   4.731   5.941  14.538  0.3458 -1.3127  0.2666
15625TIP3   OH268365   3.399   6.237   1.326  0.3358  0.2888 -0.6040
15625TIP3    H168366   3.402   6.155   1.375  1.2846  0.8296  0.2993
15625TIP3    H268367   3.312   6.240   1.287  0.2993 -1.1480 -0.6683
15626TIP3   OH268368   2.749   0.080   5.315 -0.5793  0.0899 -0.0808
15626TIP3    H168369   2.829   0.028   5.326 -0.0931  0.5803 -1.1100
15626TIP3    H268370   2.683   0.034   5.366  0.5207  0.0385  1.3523
15627TIP3   OH268371   0.491   0.794   4.493  0.8397  0.1273  0.0710
15627TIP3    H168372   0.425   0.746   4.444  2.0950  0.3395 -1.9814
15627TIP3    H268373   0.527   0.731   4.555  0.7661 -0.8501 -0.8633
15628TIP3   OH268374   4.184   0.174  14.606  0.1484 -0.0265 -0.0022
15628TIP3    H168375   4.277   0.155  14.596  0.1014  0.7123 -2.2315
15628TIP3    H268376   4.169   0.252  14.553 -1.5767  0.4357  1.0749
15629TIP3   OH268377   2.799   5.088  14.660  0.5403 -0.3742  0.3450
15629TIP3    H168378   2.746   5.166  14.640  1.4654  0.0186 -0.6932
15629TIP3    H268379   2.889   5.118  14.652  0.9166 -1.6919 -0.6892
15630TIP3   OH268380   0.720   3.287  10.839 -0.5116 -0.1685  0.6081
15630TIP3    H168381   0.633   3.256  10.864  0.4743 -0.7850  3.7913
15630TIP3    H268382   0.737   3.360  10.898  0.8747  0.3934 -0.4431
15631TIP3   OH268383   6.748   0.331   2.546  0.0458  0.7685  0.2763
15631TIP3    H168384   6.736   0.257   2.487 -2.9034  0.5562  1.0094
15631TIP3    H268385   6.777   0.403   2.489 -0.8256  0.0675 -1.0958
15632TIP3   OH268386   2.707   3.183   1.395 -0.2989 -0.9671  0.5045
15632TIP3    H168387   2.629   3.178   1.340 -0.6517  1.4335  0.6959
15632TIP3    H268388   2.725   3.277   1.403  2.0342 -1.4217  1.2846
15633TIP3   OH268389   4.964   0.204  16.931  0.6398 -0.0602 -0.0882
15633TIP3    H168390   4.998   0.291  16.953 -1.4470  1.2220 -1.6111
15633TIP3    H268391   5.031   0.166  16.875  0.1852  1.9968 -2.1993
15634TIP3   OH268392   5.671   2.601   0.799  0.1504 -0.3581  0.0558
15634TIP3    H168393   5.724   2.532   0.759 -0.6811 -1.9416  1.5394
15634TIP3    H268394   5.635   2.650   0.725 -0.9198 -2.8341 -1.1904
15635TIP3   OH268395   5.409   6.061  16.963 -0.0960 -0.1794 -0.3686
15635TIP3    H168396   5.334   6.063  17.023  1.6361  2.1843  1.9563
15635TIP3    H268397   5.385   6.122  16.893 -0.7668 -0.3182 -0.2673
15636TIP3   OH268398   4.933   1.809   5.520  0.6946 -0.1313  0.1390
15636TIP3    H168399   4.878   1.881   5.490  0.6598 -1.0151 -2.1083
15636TIP3    H268400   5.019   1.849   5.532  0.1451  0.7644  1.3872
15637TIP3   OH268401   6.104   3.754  14.970  0.5560 -0.2979 -0.2049
15637TIP3    H168402   6.093   3.671  14.923 -1.1594  0.4046 -1.1088
15637TIP3    H268403   6.029   3.807  14.944  0.5550  0.8246  1.9011
15638TIP3   OH268404   2.664   2.277  12.169  0.8582 -0.5289 -0.0754
15638TIP3    H168405   2.701   2.363  12.152 -1.0876  0.0930 -1.5881
15638TIP3    H268406   2.634   2.247  12.084 -1.1055 -1.4197  0.8708
15639TIP3   OH268407   2.734   2.767  14.446  0.1677 -0.7538 -0.2557
15639TIP3    H168408   2.723   2.727  14.533  2.1100  0.1697  0.4814
15639TIP3    H268409   2.749   2.692  14.388 -2.2643 -1.4711 -0.0678
15640TIP3   OH268410   0.510   4.048  16.390 -0.2681  0.1843  0.5770
15640TIP3    H168411   0.480   3.965  16.353 -2.3358  0.4599  1.4766
15640TIP3    H268412   0.597   4.061  16.353 -0.6085 -1.5041 -0.9673
15641TIP3   OH268413   3.021   3.428  16.856 -0.2180 -0.8758  0.6557
15641TIP3    H168414   3.044   3.361  16.921 -0.0684 -3.6843 -2.0855
15641TIP3    H268415   3.100   3.481  16.846 -0.1118 -0.6508  2.3773
15642TIP3   OH268416   5.460   4.041   0.939 -0.4373 -0.4442  0.1506
15642TIP3    H168417   5.516   3.964   0.947 -3.6920 -2.9253  1.9132
15642TIP3    H268418   5.411   4.026   0.858 -2.3410 -1.3498  1.3690
15643TIP3   OH268419   5.840   3.454   4.602 -0.2141  0.9136  0.2934
15643TIP3    H168420   5.852   3.431   4.510 -1.0464  2.1173 -0.1422
15643TIP3    H268421   5.918   3.420   4.646 -1.3660 -2.7582 -0.2298
15644TIP3   OH268422   0.693   2.637   1.314 -0.7839 -0.4206  0.3301
15644TIP3    H168423   0.721   2.726   1.293 -1.6528 -0.0154  0.8324
15644TIP3    H268424   0.763   2.602   1.369 -0.7560  0.2081  0.7108
15645TIP3   OH268425   0.428   5.693  14.785  0.1052  0.0804 -0.3262
15645TIP3    H168426   0.462   5.761  14.727  0.0486 -0.2980 -0.8048
15645TIP3    H268427   0.458   5.611  14.746 -0.7128 -0.2236 -0.3266
15646TIP3   OH268428   2.573   0.013   4.151  0.0782 -0.4378 -0.1382
15646TIP3    H168429   2.652  -0.026   4.189 -0.8039 -1.4434  0.7297
15646TIP3    H268430   2.533  -0.058   4.102 -0.1614  0.1506 -0.8165
15647TIP3   OH268431   4.697   0.542  16.059 -0.1987 -0.4952 -0.2024
15647TIP3    H168432   4.681   0.602  16.132 -1.8140 -0.6741 -0.3685
15647TIP3    H268433   4.681   0.455  16.096 -1.8248 -0.5390 -0.9221
15648TIP3   OH268434   5.534   6.698   0.096 -0.0817  0.1990  0.1395
15648TIP3    H168435   5.471   6.746   0.149 -0.5562  1.0695 -1.1701
15648TIP3    H268436   5.481   6.653   0.030  0.5735 -0.0052 -0.2625
15649TIP3   OH268437   6.536   1.300   0.760 -0.3179  0.4951 -0.0692
15649TIP3    H168438   6.558   1.217   0.803  1.8408  0.6298 -0.8196
15649TIP3    H268439   6.447   1.287   0.728 -0.3381 -1.2165  0.5676
15650TIP3   OH268440   2.077   0.654   4.590  0.6685 -0.1312  0.1729
15650TIP3    H168441   2.095   0.748   4.591  4.9788 -0.7566  1.2136
15650TIP3    H268442   2.043   0.635   4.677  0.9222  0.2940  0.3648
15651TIP3   OH268443   3.285   4.170   5.869  0.6065  0.4566  0.0202
15651TIP3    H168444   3.348   4.155   5.940 -0.5191 -0.8608  0.7733
15651TIP3    H268445   3.269   4.083   5.832  0.6670  1.0412 -1.4326
15652TIP3   OH268446   4.425   5.572   0.861  0.3218  0.0438 -1.1401
15652TIP3    H168447   4.421   5.555   0.767  1.0044  1.2218 -1.4000
15652TIP3    H268448   4.467   5.494   0.898  0.7994 -0.0752 -1.9167
15653TIP3   OH268449   4.606   2.154  16.676  0.3013  0.6223  0.1362
15653TIP3    H168450   4.598   2.224  16.741 -0.5776  0.6292  0.0325
15653TIP3    H268451   4.614   2.074  16.728 -0.2243  0.6449  0.2571
15654TIP3   OH268452   1.376   5.022   0.333 -0.3679  0.2352 -0.1281
15654TIP3    H168453   1.301   5.079   0.348 -0.5306 -0.1763  0.7345
15654TIP3    H268454   1.337   4.936   0.317 -0.1206  0.3130 -1.2129
15655TIP3   OH268455   4.360   3.405  15.433 -0.1326 -0.4223  0.1578
15655TIP3    H168456   4.435   3.458  15.460  0.2760 -0.5028 -0.7775
15655TIP3    H268457   4.387   3.366  15.350 -1.7076  0.6200 -0.9052
15656TIP3   OH268458   1.869   3.900   4.586  0.6407 -0.1932  0.1002
15656TIP3    H168459   1.794   3.843   4.603 -0.2121  0.7806 -0.2834
15656TIP3    H268460   1.945   3.847   4.608 -0.2086 -0.7390  1.8396
15657TIP3   OH268461   1.891   4.460   1.164 -0.2063 -0.3529 -0.1910
15657TIP3    H168462   1.871   4.496   1.077 -0.2545 -1.9972 -0.9054
15657TIP3    H268463   1.809   4.422   1.194  0.3931 -2.0242 -0.5753
15658TIP3   OH268464   2.037   2.679  14.118  0.7172  0.5209  0.6330
15658TIP3    H168465   2.112   2.621  14.135  0.5665  0.2283  0.3125
15658TIP3    H268466   1.974   2.655  14.185  1.6800  2.1754  2.1976
15659TIP3   OH268467   2.903   3.684  16.144  0.1734 -0.0008 -0.1994
15659TIP3    H168468   2.841   3.618  16.113  0.1255 -0.3281  0.5784
15659TIP3    H268469   2.952   3.641  16.213  1.4442  0.1795 -0.9641
15660TIP3   OH268470   1.226   1.542  15.508 -0.2978 -0.0497  0.4830
15660TIP3    H168471   1.160   1.474  15.496 -0.9252  0.5484  0.4823
15660TIP3    H268472   1.259   1.560  15.420  2.0685 -2.4652  0.7686
15661TIP3   OH268473   2.977   2.180  17.452 -0.4428  0.2076  0.5871
15661TIP3    H168474   2.993   2.198  17.359 -1.1875  0.8470  0.5714
15661TIP3    H268475   2.934   2.094  17.452 -0.3488  0.1586  0.3520
15662TIP3   OH268476   1.217   4.684  12.837 -0.2681 -0.3707  0.1850
15662TIP3    H168477   1.185   4.740  12.908 -0.6638  1.6462 -1.4859
15662TIP3    H268478   1.310   4.704  12.831 -0.3045 -0.2876 -0.0880
15663TIP3   OH268479   5.102   5.648  11.353 -0.3525  0.7177 -0.3452
15663TIP3    H168480   5.133   5.580  11.293  0.9315 -0.8905  1.9638
15663TIP3    H268481   5.024   5.609  11.394  1.6021 -0.5065  2.5895
15664TIP3   OH268482   3.871   2.223   0.322  0.1563 -0.0775 -0.1897
15664TIP3    H168483   3.867   2.173   0.241  0.1438  0.9457 -0.8292
15664TIP3    H268484   3.926   2.169   0.380  1.4401 -0.1260 -1.3858
15665TIP3   OH268485   5.332   1.896   0.650 -0.3299 -0.1705 -0.0005
15665TIP3    H168486   5.283   1.944   0.717 -0.2813 -1.0438  0.6884
15665TIP3    H268487   5.286   1.914   0.568  0.1187  1.6203  0.1001
15666TIP3   OH268488   5.465   1.987   2.636 -0.2449  0.3580  0.2048
15666TIP3    H168489   5.544   2.033   2.609 -0.1484  0.6321  0.9312
15666TIP3    H268490   5.433   1.945   2.556 -0.0064  1.1910 -0.3417
15667TIP3   OH268491   4.037   2.380  11.626 -0.2508  0.0090 -0.5988
15667TIP3    H168492   4.100   2.452  11.628 -4.2176  3.8553  1.9039
15667TIP3    H268493   3.985   2.397  11.547 -0.5104 -0.8971 -0.6291
15668TIP3   OH268494   3.090   2.808  16.174  0.1662 -0.6266 -0.6559
15668TIP3    H168495   3.095   2.767  16.260 -5.1002 -1.6467 -0.4699
15668TIP3    H268496   3.062   2.898  16.192 -0.9379 -0.8379 -1.2305
15669TIP3   OH268497   3.247   0.234  11.693  0.2627 -0.0708 -0.2293
15669TIP3    H168498   3.157   0.256  11.718 -0.1987 -1.1442 -0.8644
15669TIP3    H268499   3.239   0.151  11.646  1.1271  1.4093 -3.2608
15670TIP3   OH268500   1.837   4.746   3.238 -0.4023  0.3548 -0.1464
15670TIP3    H168501   1.919   4.759   3.191 -2.0471  1.3875 -2.9632
15670TIP3    H268502   1.835   4.652   3.256  2.6299  0.6403  2.6796
15671TIP3   OH268503   1.857   6.533  13.809  0.0096 -0.5515 -0.4511
15671TIP3    H168504   1.933   6.521  13.867  1.0568  0.9069 -1.4550
15671TIP3    H268505   1.859   6.458  13.751 -0.5070 -1.5510  0.7709
15672TIP3   OH268506   1.049   2.256  14.443 -0.1306  0.0187  0.5392
15672TIP3    H168507   1.067   2.225  14.531  2.2082  0.0758  0.1297
15672TIP3    H268508   0.995   2.187  14.404 -0.2779 -0.5117  1.6419
15673TIP3   OH268509   5.796   3.653  12.421 -0.3042 -0.4465  0.1142
15673TIP3    H168510   5.805   3.675  12.328  0.2207  2.9459  0.8423
15673TIP3    H268511   5.885   3.631  12.449 -0.1249  0.3504  0.1888
15674TIP3   OH268512   4.657   5.224  16.368  0.4964 -0.5958 -0.3318
15674TIP3    H168513   4.749   5.237  16.343  0.4759 -0.6923 -0.4647
15674TIP3    H268514   4.633   5.303  16.416  0.6782 -0.6124 -0.2118
15675TIP3   OH268515   4.426   2.214   4.802 -0.2340 -0.3329  0.4240
15675TIP3    H168516   4.485   2.233   4.875  0.1875  0.2744 -0.0672
15675TIP3    H268517   4.361   2.154   4.839  0.8188 -1.1947  0.9079
15676TIP3   OH268518   0.877   1.523  12.354  0.2221 -0.0906 -0.5052
15676TIP3    H168519   0.862   1.617  12.351 -0.8552 -0.1251  1.5378
15676TIP3    H268520   0.966   1.514  12.388 -0.3687  0.2691  1.2842
15677TIP3   OH268521   4.844   5.966   2.437  0.3669 -0.9483 -0.0847
15677TIP3    H168522   4.792   5.989   2.359 -0.6831 -0.0277  0.8447
15677TIP3    H268523   4.910   6.035   2.442  0.2297 -0.8215  0.0089
15678TIP3   OH268524   4.121   3.183   3.824 -0.3114  0.1476 -0.7466
15678TIP3    H168525   4.170   3.210   3.902 -1.2504  0.1420 -0.1429
15678TIP3    H268526   4.163   3.102   3.797  0.6025  0.6185 -0.7943
15679TIP3   OH268527   4.435   5.644  14.675 -0.4527 -0.1629 -0.1841
15679TIP3    H168528   4.370   5.643  14.745  0.8971 -1.7635  1.1145
15679TIP3    H268529   4.495   5.715  14.698 -1.3686  0.9391 -1.0813
15680TIP3   OH268530   1.458   5.110  12.494  0.0551 -0.3406  0.2843
15680TIP3    H168531   1.429   5.105  12.403 -0.0663 -0.1083  0.3095
15680TIP3    H268532   1.522   5.039  12.502 -1.5566 -1.7981  0.6281
15681TIP3   OH268533   6.363   5.766   0.944  0.1247  1.0164 -0.0821
15681TIP3    H168534   6.304   5.691   0.949  0.7533  0.4054 -1.2811
15681TIP3    H268535   6.305   5.842   0.948 -0.4831  0.5118  1.6418
15682TIP3   OH268536   1.043   3.955  17.248 -0.1590 -0.5456 -0.2915
15682TIP3    H168537   1.115   4.017  17.242 -3.2447  3.3212 -1.2929
15682TIP3    H268538   1.001   3.974  17.332 -0.2913 -2.4610  0.1192
15683TIP3   OH268539   2.450   1.431  15.736  0.7151 -0.6443 -0.0890
15683TIP3    H168540   2.474   1.509  15.685 -0.6523 -0.1726 -0.0505
15683TIP3    H268541   2.455   1.459  15.827 -0.6992 -0.2881 -0.0970
15684TIP3   OH268542   0.519   1.479  13.330 -0.4712 -0.1423 -0.3820
15684TIP3    H168543   0.519   1.391  13.293 -1.9119 -0.2936 -0.0746
15684TIP3    H268544   0.491   1.535  13.257  2.6375  0.4408 -1.2733
15685TIP3   OH268545   5.768   5.436   2.877  0.4182 -0.0509  0.2931
15685TIP3    H168546   5.706   5.364   2.860 -1.6422  1.1291  2.2186
15685TIP3    H268547   5.850   5.406   2.838 -1.3873 -1.5544 -2.7882
15686TIP3   OH268548   0.809   4.805   4.968 -0.1310 -0.3035 -0.0961
15686TIP3    H168549   0.741   4.811   4.902  0.1341 -0.4614 -0.3862
15686TIP3    H268550   0.795   4.881   5.024 -1.6884 -1.2915  0.9571
15687TIP3   OH268551   0.602   4.739  10.798 -0.2848 -0.7288  0.6904
15687TIP3    H168552   0.617   4.810  10.861  0.7365  0.7686 -1.1577
15687TIP3    H268553   0.530   4.689  10.836 -0.4039  0.7236  2.5389
15688TIP3   OH268554   5.398   2.091  16.213  0.0890 -0.1057 -0.0190
15688TIP3    H168555   5.326   2.097  16.275 -0.8599 -1.3517 -0.9379
15688TIP3    H268556   5.409   2.180  16.179 -1.5182 -0.0327 -0.3933
15689TIP3   OH268557   6.487   1.908   6.844 -0.0172  0.6517 -0.0805
15689TIP3    H168558   6.446   1.988   6.813  0.7927  1.2019  0.2478
15689TIP3    H268559   6.467   1.843   6.776  0.1052  1.3551 -0.8018
15690TIP3   OH268560   5.500   2.950   0.426 -0.8500  0.5109 -0.0427
15690TIP3    H168561   5.586   2.945   0.384 -1.0454 -0.7526 -0.3201
15690TIP3    H268562   5.440   2.911   0.363 -1.1793 -1.2528  1.2902
15691TIP3   OH268563   0.383   3.697   5.639 -0.3389  0.3098 -0.2446
15691TIP3    H168564   0.373   3.791   5.657 -0.4152  0.5404 -1.3767
15691TIP3    H268565   0.304   3.658   5.676  0.6160  0.3761  2.0374
15692TIP3   OH268566   5.401   4.780   4.478 -0.3827 -0.3701  0.0924
15692TIP3    H168567   5.486   4.822   4.492 -0.8899  0.5741  0.4353
15692TIP3    H268568   5.344   4.819   4.545 -0.8665 -1.6518  0.4585
15693TIP3   OH268569   1.277   1.884  13.372 -0.1688  0.1474  0.5114
15693TIP3    H168570   1.222   1.893  13.295  1.0815 -1.4787 -0.6607
15693TIP3    H268571   1.217   1.856  13.442 -0.6619 -4.5178 -1.4023
15694TIP3   OH268572   2.654   2.745  15.910  0.2311 -1.0092 -0.1732
15694TIP3    H168573   2.715   2.808  15.873 -0.8451  0.4348  0.4063
15694TIP3    H268574   2.625   2.692  15.836 -0.5492  0.6601 -1.1069
15695TIP3   OH268575   1.542   0.004  12.744  0.3032 -0.6767 -0.2815
15695TIP3    H168576   1.555   0.061  12.669  0.9223 -1.0482 -0.4650
15695TIP3    H268577   1.540   0.063  12.819  4.1278 -0.5516 -0.0942
15696TIP3   OH268578   6.276   1.627   5.871  0.1674  0.2739  0.4240
15696TIP3    H168579   6.320   1.555   5.826 -0.8814 -1.0873  1.4922
15696TIP3    H268580   6.332   1.703   5.855  1.0191 -0.6417 -1.2013
15697TIP3   OH268581   3.034   6.379   1.461 -0.3032 -0.4630 -0.0558
15697TIP3    H168582   3.114   6.421   1.491  0.2318 -1.3338 -0.2107
15697TIP3    H268583   2.997   6.440   1.396 -1.2558  1.2283  1.9668
15698TIP3   OH268584   2.118   5.747  15.462 -0.5059  0.2041  0.2696
15698TIP3    H168585   2.099   5.838  15.438  0.5912  0.6936  1.1832
15698TIP3    H268586   2.144   5.706  15.379  4.8799  2.2683  0.5043
15699TIP3   OH268587   4.018   5.042  11.236  0.2455 -0.0346  0.2247
15699TIP3    H168588   3.926   5.013  11.239  0.7611 -1.8984 -0.5657
15699TIP3    H268589   4.020   5.120  11.291 -1.4427 -1.0284  1.8170
15700TIP3   OH268590   1.871   5.446  13.139 -0.4103  0.6728  0.0663
15700TIP3    H168591   1.887   5.352  13.147 -0.6878  0.6829  0.7943
15700TIP3    H268592   1.790   5.453  13.088 -0.7652  0.5014  0.6087
15701TIP3   OH268593   3.153   1.211   2.978  0.2589 -0.1574 -0.4782
15701TIP3    H168594   3.125   1.121   2.998  2.2376 -1.1492 -1.8185
15701TIP3    H268595   3.189   1.205   2.890 -0.2654  2.1649 -0.9124
15702TIP3   OH268596   4.397   2.101   0.362 -0.0169 -0.2747 -0.0381
15702TIP3    H168597   4.461   2.169   0.341 -0.3043 -0.0346 -0.1497
15702TIP3    H268598   4.344   2.094   0.283  0.5590 -1.2595 -0.3614
15703TIP3   OH268599   1.262   5.458   0.429  0.3303 -0.0718 -0.2645
15703TIP3    H168600   1.301   5.541   0.401  1.0709  0.1532  1.3342
15703TIP3    H268601   1.200   5.482   0.498  0.6264 -0.8470  0.2858
15704TIP3   OH268602   0.302   5.291   0.391 -0.0007  0.0195  0.3835
15704TIP3    H168603   0.368   5.226   0.368  1.0336  0.8542  0.8867
15704TIP3    H268604   0.222   5.261   0.348  0.9249 -0.5177 -1.0236
15705TIP3   OH268605   3.803   4.568  15.678 -0.4144 -0.2644  0.9737
15705TIP3    H168606   3.842   4.617  15.606 -2.1523 -0.3171 -0.0596
15705TIP3    H268607   3.810   4.476  15.652 -1.6052 -0.2505  0.5315
15706TIP3   OH268608   5.341   1.547  16.765 -0.6446  0.1649 -0.1842
15706TIP3    H168609   5.348   1.462  16.809 -0.2057  0.1903 -0.2005
15706TIP3    H268610   5.412   1.599  16.803  0.3945 -0.1289 -1.6315
15707TIP3   OH268611   5.577   1.669  16.822  0.9654  0.0994  0.2450
15707TIP3    H168612   5.664   1.648  16.790  1.6521  0.9051  1.5437
15707TIP3    H268613   5.590   1.735  16.889 -0.8115  1.9820 -1.0988
15708TIP3   OH268614   2.931   3.224   3.987 -0.7227 -0.3029 -0.4446
15708TIP3    H168615   2.860   3.284   3.963 -0.6737  0.3290  0.8912
15708TIP3    H268616   2.956   3.182   3.905 -1.7599  0.4315 -1.1576
15709TIP3   OH268617   6.659   1.737   3.925 -0.2403  0.0981  0.7077
15709TIP3    H168618   6.751   1.713   3.913 -0.4730 -0.0650 -0.9301
15709TIP3    H268619   6.652   1.824   3.886 -0.9313 -0.1919  0.1834
15710TIP3   OH268620   2.584   2.650   3.048  0.2328  0.5967 -0.2167
15710TIP3    H168621   2.585   2.657   3.143 -1.4727 -2.0602  0.1136
15710TIP3    H268622   2.676   2.649   3.023  0.7928 -0.6984  1.6548
15711TIP3   OH268623   6.511   6.549  15.548  0.6560 -0.9183 -0.2801
15711TIP3    H168624   6.567   6.626  15.561 -1.0064  0.1060  1.3122
15711TIP3    H268625   6.570   6.482  15.514  2.1596  1.0481 -1.7876
15712TIP3   OH268626   6.178   6.634   2.321  0.1594 -0.9132  0.6280
15712TIP3    H168627   6.257   6.660   2.274  0.2409 -2.9244 -0.4495
15712TIP3    H268628   6.107   6.679   2.276  0.2681 -2.6083 -1.3625
15713TIP3   OH268629   2.369   4.364   3.181 -0.0525  0.1851  0.7900
15713TIP3    H168630   2.454   4.354   3.224  0.3721  1.3633  0.2781
15713TIP3    H268631   2.379   4.444   3.129 -1.3348  0.0869  0.3813
15714TIP3   OH268632   6.248   0.140   0.036  0.3168 -0.3260  0.3309
15714TIP3    H168633   6.210   0.203  -0.025  0.7931 -1.1299 -0.8497
15714TIP3    H268634   6.178   0.077   0.052  0.1105  0.0303  0.8154
15715TIP3   OH268635   1.892   0.832   2.066 -0.2830 -0.5016  0.1664
15715TIP3    H168636   1.842   0.849   1.986 -0.7722  0.0221  0.5690
15715TIP3    H268637   1.940   0.751   2.048 -0.6984 -0.6076 -0.5069
15716TIP3   OH268638   0.011   5.004   1.156  0.0624 -0.1125 -0.0095
15716TIP3    H168639  -0.066   5.030   1.206  0.2841 -1.0976  0.8673
15716TIP3    H268640   0.051   5.087   1.129 -0.2455  0.4355  1.1635
15717TIP3   OH268641   6.110   0.860  15.754 -0.2732 -0.1791 -0.2932
15717TIP3    H168642   6.035   0.917  15.769 -0.5507 -0.3086 -1.1610
15717TIP3    H268643   6.165   0.908  15.692 -0.3565 -0.7122 -0.7853
15718TIP3   OH268644   2.064   5.418  14.146 -0.1649 -0.2926  0.3544
15718TIP3    H168645   2.112   5.360  14.086 -0.0627  0.7404 -0.5904
15718TIP3    H268646   2.026   5.359  14.210 -0.0793 -1.4186 -0.5972
15719TIP3   OH268647   0.806   0.905  10.972 -0.6943  0.7313  0.3596
15719TIP3    H168648   0.725   0.910  11.022  0.0849  0.5049  1.6981
15719TIP3    H268649   0.843   0.994  10.977 -0.8520  0.8355 -0.2481
15720TIP3   OH268650   5.671   1.704  11.618  0.3197 -0.2300 -0.7929
15720TIP3    H168651   5.644   1.646  11.690 -1.4464  0.5757 -0.7526
15720TIP3    H268652   5.668   1.649  11.540  0.2635 -0.6063 -0.5287
15721TIP3   OH268653   1.927   6.470  13.342  0.3403  0.5282  0.3990
15721TIP3    H168654   2.020   6.486  13.355 -0.0728  2.2913  1.5851
15721TIP3    H268655   1.923   6.391  13.288  2.5078  0.5619  0.1111
15722TIP3   OH268656   1.014   4.144   4.064  0.1951 -0.5156 -0.0418
15722TIP3    H168657   1.102   4.140   4.026  0.0549 -0.1920 -0.4092
15722TIP3    H268658   0.975   4.222   4.025  0.1594  0.0127  1.0097
15723TIP3   OH268659   4.128   1.645   0.452  0.5053  0.1267 -0.2222
15723TIP3    H168660   4.168   1.674   0.370 -0.8045  1.2180 -0.5113
15723TIP3    H268661   4.186   1.680   0.520  2.2480 -1.7454 -0.6122
15724TIP3   OH268662   0.168   5.218   1.134  0.1171 -0.5543  0.1188
15724TIP3    H168663   0.115   5.285   1.177 -0.7762 -0.5145 -0.9992
15724TIP3    H268664   0.258   5.242   1.154 -0.1645  1.1459 -0.4585
15725TIP3   OH268665   0.994   2.855   4.529 -0.6140  0.3940 -0.0746
15725TIP3    H168666   1.021   2.936   4.571  0.2965 -0.4488  1.0173
15725TIP3    H268667   0.900   2.852   4.541 -0.5133  0.7415  0.8851
15726TIP3   OH268668   5.552   3.987  14.407 -0.3208  0.5439  0.1845
15726TIP3    H168669   5.578   3.923  14.341  1.4693 -0.2381  1.5837
15726TIP3    H268670   5.456   3.984  14.406 -0.3891  0.6868 -2.4470
15727TIP3   OH268671   1.043   4.652   5.592  1.0689 -0.3219  0.0918
15727TIP3    H168672   1.082   4.739   5.583  0.0727 -0.0249 -1.9621
15727TIP3    H268673   0.953   4.669   5.620  0.9825 -0.7258  0.0584
15728TIP3   OH268674   2.667   1.534  13.248  0.0353  0.3470 -0.2911
15728TIP3    H168675   2.737   1.495  13.301  0.3097  1.5603  0.2692
15728TIP3    H268676   2.594   1.473  13.256  0.1606  0.3616  1.2729
15729TIP3   OH268677   2.082   2.179  11.935  0.0614 -0.8942 -0.5830
15729TIP3    H168678   2.085   2.261  11.886  0.5195 -0.3381  0.3497
15729TIP3    H268679   2.142   2.193  12.008 -0.6756 -1.6682  0.1859
15730TIP3   OH268680   1.639   1.264   3.940 -0.0445 -0.2888  0.4464
15730TIP3    H168681   1.547   1.252   3.917 -0.0685  1.0672 -0.2618
15730TIP3    H268682   1.686   1.213   3.874 -0.2395  0.5924 -0.3912
15731TIP3   OH268683   1.687   0.252   1.080 -0.4651  0.1687 -0.0145
15731TIP3    H168684   1.711   0.296   1.161  0.2771 -2.0616  1.0544
15731TIP3    H268685   1.655   0.166   1.108  0.8387 -1.0913 -2.1339
15732TIP3   OH268686   5.206   1.844   3.724  0.1610  0.8022  0.5786
15732TIP3    H168687   5.201   1.794   3.806 -0.1452  0.9801  0.6703
15732TIP3    H268688   5.141   1.803   3.667  1.7771 -0.6460 -0.3200
15733TIP3   OH268689   1.713   3.472  13.929  0.0041  0.8414  0.0772
15733TIP3    H168690   1.682   3.525  14.002 -0.7424  1.2813 -0.5446
15733TIP3    H268691   1.720   3.383  13.965  1.3972  1.3508  1.1699
15734TIP3   OH268692   2.917   4.046  14.540  0.4837  0.4762 -0.0233
15734TIP3    H168693   2.906   3.969  14.596 -1.6434  0.9352  0.2515
15734TIP3    H268694   2.889   4.017  14.453 -0.1836  0.8845  0.0500
15735TIP3   OH268695   2.889   3.455  14.363 -0.0464  0.2428 -0.4407
15735TIP3    H168696   2.805   3.491  14.391 -0.5105 -1.4987  0.5382
15735TIP3    H268697   2.876   3.436  14.270 -1.1656 -1.0919 -0.0409
15736TIP3   OH268698   5.817   3.388  12.690 -0.6342 -0.2166  0.7050
15736TIP3    H168699   5.784   3.442  12.762 -0.5462 -0.2707  0.7859
15736TIP3    H268700   5.743   3.383  12.628 -0.3111  0.8454  0.2078
15737TIP3   OH268701   5.533   1.855   5.826 -0.1676  0.2580 -0.2024
15737TIP3    H168702   5.523   1.938   5.873  1.4221 -0.5251  1.6872
15737TIP3    H268703   5.448   1.812   5.835 -0.4268  0.8772  0.4758
15738TIP3   OH268704   5.598   5.881  16.528 -0.0122  0.2320  0.2128
15738TIP3    H168705   5.549   5.917  16.454  0.6935  1.4934  0.3337
15738TIP3    H268706   5.539   5.815  16.566 -1.0783  0.8009 -0.4165
15739TIP3   OH268707   0.041   4.440  15.871 -0.0142  0.3774  0.3538
15739TIP3    H168708   0.067   4.508  15.808 -1.4421 -0.7190 -1.5266
15739TIP3    H268709   0.102   4.368  15.855 -0.2380  0.1786  0.3932
15740TIP3   OH268710   6.263   5.240  11.828 -0.1438  0.4382  0.5800
15740TIP3    H168711   6.339   5.293  11.802 -0.8967  1.2977  0.0285
15740TIP3    H268712   6.287   5.150  11.805  1.2447  0.4877  1.7043
15741TIP3   OH268713   2.740   0.230   4.751  0.4058 -0.5157  0.8442
15741TIP3    H168714   2.704   0.318   4.738 -0.6776 -0.8674  1.3500
15741TIP3    H268715   2.793   0.214   4.673 -0.2971  0.1415  0.2165
15742TIP3   OH268716   1.460   2.772   2.549  0.0625  0.0696 -0.2083
15742TIP3    H168717   1.539   2.776   2.603  0.2410 -0.9248 -0.3812
15742TIP3    H268718   1.430   2.682   2.558 -0.3910  0.1295 -1.0834
15743TIP3   OH268719   0.201   5.243   1.843  0.0567  0.0169  0.9597
15743TIP3    H168720   0.151   5.181   1.897 -0.2852 -0.1674  0.4425
15743TIP3    H268721   0.287   5.202   1.834  0.6490  0.7960  2.6709
15744TIP3   OH268722   0.393   0.532   4.191 -0.1599  0.6606 -0.0941
15744TIP3    H168723   0.455   0.601   4.166  0.1343  0.1532 -0.8130
15744TIP3    H268724   0.382   0.480   4.111  1.4248 -1.5127  1.0215
15745TIP3   OH268725   3.130   0.598  16.552  0.1712 -0.2090  0.0436
15745TIP3    H168726   3.113   0.627  16.642  0.9351  0.7716 -0.0954
15745TIP3    H268727   3.098   0.670  16.497  1.2503 -0.0142 -0.3692
15746TIP3   OH268728   1.614   1.551   0.728  0.1997  0.3969 -0.1022
15746TIP3    H168729   1.571   1.466   0.715 -1.4341  1.3314 -1.2743
15746TIP3    H268730   1.560   1.613   0.678  1.1426  2.1939  0.9915
15747TIP3   OH268731   3.111   1.747  17.247 -0.7217  0.3796 -0.7365
15747TIP3    H168732   3.043   1.700  17.295  1.4867 -1.2358  0.9979
15747TIP3    H268733   3.149   1.683  17.188  2.4355 -0.3519  1.7713
15748TIP3   OH268734   0.850   5.397  12.384 -0.6552 -0.1838  0.4929
15748TIP3    H168735   0.868   5.488  12.403  2.4966 -0.8313  1.0812
15748TIP3    H268736   0.874   5.386  12.292  1.9141 -0.9698  1.1766
15749TIP3   OH268737   0.560   4.344  17.001  0.0623  0.2304 -0.0609
15749TIP3    H168738   0.652   4.325  17.017 -0.1069 -0.8162 -0.2862
15749TIP3    H268739   0.561   4.404  16.926  0.5039 -1.1041 -1.1642
15750TIP3   OH268740   4.019   6.142  15.137 -1.0114 -0.1563 -0.4460
15750TIP3    H168741   4.003   6.226  15.181 -0.8458  0.5343 -1.6368
15750TIP3    H268742   3.932   6.114  15.107 -0.9349  0.1149 -0.9332
15751TIP3   OH268743   6.185   1.143   4.396 -0.2950 -0.0919  0.4945
15751TIP3    H168744   6.192   1.202   4.471  0.0260  0.6264 -0.0900
15751TIP3    H268745   6.099   1.162   4.358 -0.6751 -0.8136  0.9591
15752TIP3   OH268746   5.459   3.132   4.931  0.5645  0.3462  0.3189
15752TIP3    H168747   5.509   3.058   4.964  1.0045  0.0212 -1.0023
15752TIP3    H268748   5.524   3.200   4.914  0.3441  0.5260  0.1800
15753TIP3   OH268749   5.228   0.662  12.170 -0.2810  0.1296 -0.0394
15753TIP3    H168750   5.213   0.583  12.222 -1.1490  0.4541  0.2061
15753TIP3    H268751   5.304   0.703  12.211 -0.0253 -0.4009  0.0324
15754TIP3   OH268752   3.071   3.555  16.319 -0.4563  0.4816 -0.4976
15754TIP3    H168753   3.053   3.461  16.320  0.3848  0.2612 -1.9220
15754TIP3    H268754   3.063   3.582  16.410 -0.3728 -1.0446 -0.0016
15755TIP3   OH268755   1.359   6.549  15.084  0.4328  0.2886  0.4219
15755TIP3    H168756   1.344   6.484  15.152 -2.9072 -0.5629 -0.9079
15755TIP3    H268757   1.427   6.512  15.029 -0.9517 -1.8883  0.0438
15756TIP3   OH268758   0.041   5.785   6.393 -0.2690 -0.0152  0.9038
15756TIP3    H168759   0.044   5.790   6.489 -1.5375 -1.2064  1.0380
15756TIP3    H268760   0.023   5.693   6.375 -0.4175  0.2729 -0.4730
15757TIP3   OH268761   1.607   6.340   5.586  0.1034 -0.2833  0.7460
15757TIP3    H168762   1.637   6.399   5.516  0.4008 -1.4132 -0.1144
15757TIP3    H268763   1.688   6.304   5.623 -0.0703 -1.7310 -0.1692
15758TIP3   OH268764   3.698   0.812  10.696  0.6181 -0.2873 -0.0833
15758TIP3    H168765   3.621   0.761  10.721 -0.6242  1.7878  0.5497
15758TIP3    H268766   3.664   0.882  10.640  1.8021  1.4698  1.2748
15759TIP3   OH268767   6.539   6.559  17.107  0.2541 -0.1382  0.6443
15759TIP3    H168768   6.558   6.466  17.121  0.4209  0.2058  3.0753
15759TIP3    H268769   6.619   6.593  17.066 -0.4616 -1.3276 -1.9860
15760TIP3   OH268770   2.709   5.477   6.154  0.3140  0.3807  0.0267
15760TIP3    H168771   2.688   5.550   6.211 -1.9519  0.3807 -0.6934
15760TIP3    H268772   2.627   5.460   6.106  1.3546 -1.3269 -1.2592
15761TIP3   OH268773   5.546   4.374   2.388 -0.5085 -0.2758  0.0134
15761TIP3    H168774   5.592   4.292   2.369  2.9369  1.5403 -0.3702
15761TIP3    H268775   5.616   4.435   2.412 -3.0398  2.2218  1.6518
15762TIP3   OH268776   0.774   6.131   4.493  0.1822  0.5030 -0.7047
15762TIP3    H168777   0.800   6.078   4.568  0.5468  2.2068  0.4403
15762TIP3    H268778   0.855   6.145   4.444  0.8036  2.6359  0.7849
15763TIP3   OH268779   0.630   2.741  14.302  0.1293  0.5855 -0.5992
15763TIP3    H168780   0.587   2.753  14.218 -2.2415 -0.9883  0.3075
15763TIP3    H268781   0.618   2.824  14.348 -2.7004 -0.0109 -0.1119
15764TIP3   OH268782   3.550   3.093   2.405  0.3703 -0.7490 -0.1009
15764TIP3    H168783   3.635   3.074   2.365  0.5384  1.3679 -0.8969
15764TIP3    H268784   3.511   3.158   2.347 -0.3751  0.7626  1.9933
15765TIP3   OH268785   6.173   3.141  17.257 -0.0015 -0.5105  0.1168
15765TIP3    H168786   6.126   3.175  17.181  0.8128  0.8345  0.1855
15765TIP3    H268787   6.104   3.124  17.322 -0.5664 -0.4081 -0.4476
15766TIP3   OH268788   0.740   1.726   0.653 -0.0923  0.3399 -0.2039
15766TIP3    H168789   0.690   1.772   0.586 -0.0934 -1.3298 -1.4072
15766TIP3    H268790   0.698   1.640   0.660  0.5985  0.0713  1.1538
15767TIP3   OH268791   2.703   6.483   0.195  0.7792  0.5392 -0.0701
15767TIP3    H168792   2.638   6.552   0.208 -2.0176 -1.2003 -3.2664
15767TIP3    H268793   2.667   6.407   0.240 -0.1462 -0.7458 -2.7647
15768TIP3   OH268794   5.259   1.137   1.993 -0.0285  0.3752 -0.6748
15768TIP3    H168795   5.332   1.075   1.983  0.8646  1.2043  0.4830
15768TIP3    H268796   5.184   1.081   2.013  1.2985 -0.3382  3.3646
15769TIP3   OH268797   2.120   3.832   4.791  0.2180  0.0909  0.3866
15769TIP3    H168798   2.086   3.920   4.775 -0.7647 -0.4716 -0.8083
15769TIP3    H268799   2.074   3.802   4.869 -0.4975  0.1147 -0.0177
15770TIP3   OH268800   3.769   1.709   6.340 -0.0585 -0.3073 -0.1506
15770TIP3    H168801   3.776   1.616   6.316  1.5497 -0.6353  1.3264
15770TIP3    H268802   3.715   1.709   6.419  0.5979 -0.1243  0.3161
15771TIP3   OH268803   5.610   0.015   5.084 -0.3587 -0.5259 -0.0300
15771TIP3    H168804   5.601  -0.016   5.175  0.4139  0.9835  0.5998
15771TIP3    H268805   5.703   0.007   5.066 -0.6105 -1.5013 -0.9805
15772TIP3   OH268806   6.744   2.441   6.387 -0.3847 -0.3045  0.6692
15772TIP3    H168807   6.724   2.388   6.464 -0.7611 -0.4426  0.4803
15772TIP3    H268808   6.833   2.414   6.362 -0.2912 -0.3113  1.0097
15773TIP3   OH268809   2.775   3.542  15.106  0.4574 -0.1040 -0.3602
15773TIP3    H168810   2.696   3.502  15.069  0.7698 -0.3166 -0.8048
15773TIP3    H268811   2.755   3.636  15.107 -1.5477 -0.3522  3.6167
15774TIP3   OH268812   5.232   3.142  15.235  0.2609 -0.7306 -0.4377
15774TIP3    H168813   5.151   3.121  15.282  0.8689 -0.6949  0.6647
15774TIP3    H268814   5.297   3.083  15.273  1.5042  1.4992  1.1091
15775TIP3   OH268815   2.636   1.521  13.839 -0.0530 -0.6120  0.2147
15775TIP3    H168816   2.593   1.499  13.757  0.5458 -1.7516  0.1904
15775TIP3    H268817   2.719   1.560  13.814 -0.2773 -0.0800  0.2802
15776TIP3   OH268818   2.200   2.988   2.434 -0.2315  0.0113 -0.0660
15776TIP3    H168819   2.206   3.083   2.440  1.3603 -0.0999  0.7587
15776TIP3    H268820   2.232   2.967   2.346  0.1050  0.1996  0.0114
15777TIP3   OH268821   6.469   5.835  16.868  0.1617  0.2413  0.1309
15777TIP3    H168822   6.380   5.800  16.875  0.7628 -1.0898  2.0486
15777TIP3    H268823   6.506   5.822  16.955  2.6523 -0.4276 -0.9615
15778TIP3   OH268824   2.847   0.490   2.942 -0.2312  0.6067 -0.6685
15778TIP3    H168825   2.795   0.552   2.993 -0.0197 -1.1802  1.9726
15778TIP3    H268826   2.938   0.511   2.963 -0.1636 -0.8797  0.8221
15779TIP3   OH268827   4.204   1.279  11.375  0.2659  0.0928 -0.1105
15779TIP3    H168828   4.279   1.252  11.322 -0.0387  0.6637 -0.8522
15779TIP3    H268829   4.129   1.273  11.315 -0.2250 -0.1022  0.5136
15780TIP3   OH268830   3.837   3.062   2.698 -0.0802  0.2759 -0.0226
15780TIP3    H168831   3.837   3.151   2.731 -1.3948  0.6212 -0.8613
15780TIP3    H268832   3.913   3.058   2.640 -0.1269  0.9125 -0.1374
15781TIP3   OH268833   2.076   2.549  15.167  0.1062 -0.0470  0.1018
15781TIP3    H168834   2.145   2.613  15.183  0.1914 -0.0850 -0.1121
15781TIP3    H268835   2.025   2.587  15.095  0.7635 -0.6959 -0.7302
15782TIP3   OH268836   0.353   2.751  13.713 -0.3392  0.8437 -0.3800
15782TIP3    H168837   0.317   2.790  13.793 -0.8991 -1.4998  0.6063
15782TIP3    H268838   0.276   2.724  13.663  0.0225  1.7881 -1.4920
15783TIP3   OH268839   2.349   3.850   5.121 -0.0137  0.4158  0.3145
15783TIP3    H168840   2.393   3.879   5.200 -0.1501  1.8462 -0.1029
15783TIP3    H268841   2.360   3.755   5.120 -0.8941  0.2466  2.5641
15784TIP3   OH268842   5.662   1.139  11.060  0.1870 -0.0972 -0.3453
15784TIP3    H168843   5.591   1.085  11.023 -0.5538  0.2667  0.4948
15784TIP3    H268844   5.711   1.078  11.115 -1.2825  0.2626  1.4515
15785TIP3   OH268845   0.226   1.370  14.225 -0.0589  0.7973  0.8427
15785TIP3    H168846   0.280   1.448  14.214  1.0686  0.1380  1.4957
15785TIP3    H268847   0.288   1.297  14.223 -1.0710 -0.0779  0.4237
15786TIP3   OH268848   0.536   2.328   1.912 -0.4913  0.2864  0.1463
15786TIP3    H168849   0.452   2.352   1.873 -0.1551 -1.1090 -1.5131
15786TIP3    H268850   0.573   2.412   1.940 -1.3536  1.2099 -1.3196
15787TIP3   OH268851   6.737   2.014  16.640 -0.7558  0.0716 -0.0300
15787TIP3    H168852   6.777   1.985  16.723  0.5173  0.4794 -0.4789
15787TIP3    H268853   6.808   2.058  16.594 -2.2180  2.6746  0.0026
15788TIP3   OH268854   2.627   3.033  14.395  0.1223  0.1625 -0.6280
15788TIP3    H168855   2.691   2.963  14.408 -0.2007  0.1204  0.9155
15788TIP3    H268856   2.679   3.107  14.365  0.5761 -0.5094 -1.5445
15789TIP3   OH268857   3.102   1.515  16.217 -0.2989 -0.2770  0.2636
15789TIP3    H168858   3.016   1.525  16.257 -0.1002 -0.5049  0.7525
15789TIP3    H268859   3.149   1.596  16.237 -0.6895  0.2250 -0.7519
15790TIP3   OH268860   6.103   1.362   1.290 -0.3985  0.7258 -0.4950
15790TIP3    H168861   6.190   1.334   1.262  0.9297  1.7168  2.3391
15790TIP3    H268862   6.106   1.457   1.290 -2.1768  0.8539 -2.1559
15791TIP3   OH268863   1.829   0.035  12.246  0.1938 -0.6833  0.1520
15791TIP3    H168864   1.818   0.103  12.312  1.2670 -0.5483  0.2044
15791TIP3    H268865   1.760   0.052  12.182 -0.1967 -0.1844  0.7015
15792TIP3   OH268866   1.704   1.155  10.740 -0.1455 -0.0953  0.2458
15792TIP3    H168867   1.759   1.202  10.804  0.7863 -1.4960  0.5178
15792TIP3    H268868   1.741   1.179  10.655 -2.2003  2.8333  0.0149
15793TIP3   OH268869   0.073   0.151   5.930 -0.3527 -0.2254 -0.0385
15793TIP3    H168870   0.148   0.149   5.870  0.1850 -0.4785  0.6249
15793TIP3    H268871   0.107   0.113   6.011 -0.8530  0.8129  0.6786
15794TIP3   OH268872   1.725   4.380  14.245  0.1224 -0.0899  0.4162
15794TIP3    H168873   1.721   4.295  14.200  0.5573  0.9420 -1.7248
15794TIP3    H268874   1.817   4.405  14.239 -0.3943  1.6763 -1.3996
15795TIP3   OH268875   5.077   4.398  11.894  0.0718 -0.0279 -0.4090
15795TIP3    H168876   5.004   4.336  11.884  0.9132 -1.2602  0.8000
15795TIP3    H268877   5.150   4.355  11.849  0.7850 -0.1506  0.8332
15796TIP3   OH268878   6.384   6.012  16.153 -0.8412 -0.1479  0.7091
15796TIP3    H168879   6.411   5.969  16.073 -2.4466 -0.0373  0.0661
15796TIP3    H268880   6.395   6.106  16.135 -0.1838 -0.1638  1.0165
15797TIP3   OH268881   0.480   6.760  16.903 -0.1697 -0.1166  0.2064
15797TIP3    H168882   0.465   6.678  16.857 -0.1930  0.7581 -1.4481
15797TIP3    H268883   0.536   6.810  16.843  0.3533  0.8356  1.4533
15798TIP3   OH268884   1.553   1.021  14.649 -0.3812  0.4092 -0.1351
15798TIP3    H168885   1.617   1.075  14.696 -0.4100 -0.0067  0.3938
15798TIP3    H268886   1.605   0.974  14.583 -0.3423  1.0025 -0.5310
15799TIP3   OH268887   3.057   3.237  16.369  0.8757  0.3462  0.1592
15799TIP3    H168888   3.117   3.197  16.306  0.4436  1.5931 -1.0702
15799TIP3    H268889   2.973   3.195  16.352  0.6289  1.0887 -0.5136
15800TIP3   OH268890   1.301   5.181   3.382  0.2034 -0.3560 -0.0633
15800TIP3    H168891   1.388   5.142   3.370  1.5671  2.1601  0.7474
15800TIP3    H268892   1.272   5.149   3.467  2.2472  1.7780  1.6022
15801TIP3   OH268893   6.698   4.907  15.408 -0.2566  0.3077 -0.4483
15801TIP3    H168894   6.705   4.876  15.318  1.6831  0.5232 -0.4099
15801TIP3    H268895   6.644   4.841  15.452  0.9178 -1.1921 -1.1639
15802TIP3   OH268896   0.131   5.529   4.410  0.0971 -0.2579  0.3346
15802TIP3    H168897   0.114   5.459   4.347  0.1046  0.1805 -0.1668
15802TIP3    H268898   0.062   5.521   4.475  1.9488 -2.8052  2.1646
15803TIP3   OH268899   3.998   0.518   0.704  0.2580 -0.3480 -0.4048
15803TIP3    H168900   4.021   0.426   0.715 -0.7823 -0.5662  0.0440
15803TIP3    H268901   4.020   0.559   0.788  1.6538  0.0402 -0.9265
15804TIP3   OH268902   4.470   0.159  16.371 -0.1516  0.3180 -0.4832
15804TIP3    H168903   4.463   0.086  16.433 -0.2856  0.3425 -0.4678
15804TIP3    H268904   4.563   0.170  16.356 -0.1245  0.2420 -0.3688
15805TIP3   OH268905   2.571   2.131  14.201 -0.3381 -0.6380  0.0130
15805TIP3    H168906   2.539   2.114  14.290 -1.3306 -2.2322 -0.6168
15805TIP3    H268907   2.641   2.067  14.189  0.5149  0.2752 -0.0079
15806TIP3   OH268908   0.546   6.007  13.569  0.5338  0.4872  0.5236
15806TIP3    H168909   0.455   5.980  13.582  0.3495  1.2573  0.8731
15806TIP3    H268910   0.558   6.082  13.627  1.1778  0.8605 -0.0717
15807TIP3   OH268911   1.304   2.335  15.470  0.0746 -0.3155 -0.4918
15807TIP3    H168912   1.232   2.389  15.438  0.7903  2.2378  1.8807
15807TIP3    H268913   1.276   2.307  15.557  2.0885  1.2301  0.7324
15808TIP3   OH268914   1.588   1.565  13.404  0.0526 -0.2774  0.1822
15808TIP3    H168915   1.533   1.629  13.450 -0.7089  0.2667 -1.4010
15808TIP3    H268916   1.641   1.619  13.344  0.6180 -0.9962  0.0263
15809TIP3   OH268917   1.289   2.936  14.546 -0.0467 -0.4612  0.0634
15809TIP3    H168918   1.289   2.977  14.460  3.9335  0.9493  0.5351
15809TIP3    H268919   1.348   2.861  14.537  2.2670  0.9952  1.9425
15810TIP3   OH268920   3.889   3.791   3.154 -0.0908 -0.1363  0.0591
15810TIP3    H168921   3.846   3.874   3.175 -0.8710 -0.3069 -0.7809
15810TIP3    H268922   3.824   3.725   3.175 -0.0122 -0.4411 -0.6450
15811TIP3   OH268923   0.092   6.144  17.398  0.3634 -0.0985 -0.4842
15811TIP3    H168924   0.068   6.089  17.323  1.7709  0.8875 -1.7085
15811TIP3    H268925   0.101   6.232  17.362 -1.5403  0.9582  1.3768
15812TIP3   OH268926   5.969   2.515  14.905  0.0333 -0.3295  0.4044
15812TIP3    H168927   5.984   2.434  14.953  0.9165 -0.2685  0.2335
15812TIP3    H268928   6.019   2.505  14.824  1.7044  1.1366  1.1893
15813TIP3   OH268929   6.711   3.666   2.651  0.0240 -0.4027 -0.1868
15813TIP3    H168930   6.785   3.606   2.656  0.2361 -0.0413  1.8191
15813TIP3    H268931   6.638   3.617   2.690 -0.6979 -0.5888 -1.7229
15814TIP3   OH268932   0.709   2.041   0.785  0.4582 -0.0989 -0.2948
15814TIP3    H168933   0.631   2.036   0.730 -0.4610  0.1352  0.9591
15814TIP3    H268934   0.692   1.980   0.857  1.0495  0.6168  0.4661
15815TIP3   OH268935   0.841   5.994  11.437  0.1133 -0.2516  0.6263
15815TIP3    H168936   0.935   5.975  11.433  0.1994  0.2936 -0.0114
15815TIP3    H268937   0.821   6.036  11.354 -1.1479 -2.2797 -0.1890
15816TIP3   OH268938   4.660   0.687  13.377  0.4218  0.1008 -0.3193
15816TIP3    H168939   4.592   0.689  13.444  1.3550  1.5181  0.6398
15816TIP3    H268940   4.614   0.704  13.295 -0.4068  0.9434  0.2986
15817TIP3   OH268941   6.390   4.115  14.830 -0.3667 -0.0745 -0.5703
15817TIP3    H168942   6.308   4.126  14.877  0.4636  1.3363  0.6578
15817TIP3    H268943   6.457   4.111  14.899  1.0047  3.0550 -1.4933
15818TIP3   OH268944   1.071   2.572   1.740  0.1750 -0.4552 -0.4142
15818TIP3    H168945   1.057   2.655   1.787 -2.1790 -0.5005 -0.9032
15818TIP3    H268946   1.073   2.597   1.648  0.5820 -0.8232 -0.5060
15819TIP3   OH268947   2.684   1.451   2.721 -0.0395  0.3892  0.1212
15819TIP3    H168948   2.716   1.467   2.810 -1.1138  0.8326  0.4408
15819TIP3    H268949   2.622   1.522   2.705 -0.9775 -0.5291 -0.4251
15820TIP3   OH268950   1.282   5.151   4.960  0.1958 -0.6561  0.4263
15820TIP3    H168951   1.251   5.140   4.870 -1.9646 -1.5861  1.2279
15820TIP3    H268952   1.360   5.096   4.965  1.8368  1.2923 -1.5000
15821TIP3   OH268953   3.635   6.708  12.454 -0.1428 -0.6007 -0.0101
15821TIP3    H168954   3.557   6.695  12.400  0.3519 -2.9171 -0.2351
15821TIP3    H268955   3.698   6.750  12.395 -0.7517  0.0406 -0.2185
15822TIP3   OH268956   0.141   1.958  15.897  0.1932 -0.2278  0.2538
15822TIP3    H168957   0.179   1.876  15.865 -0.2960 -0.1045 -0.6663
15822TIP3    H268958   0.049   1.954  15.869  0.3423  0.9709 -0.4694
15823TIP3   OH268959   4.287   4.244  15.689  0.2645  0.3382 -0.3657
15823TIP3    H168960   4.300   4.319  15.747 -0.6602  0.6774 -0.5778
15823TIP3    H268961   4.311   4.168  15.743 -0.2357  0.6762  0.3570
15824TIP3   OH268962   5.357   0.803  15.640 -0.0356  0.0836 -0.0750
15824TIP3    H168963   5.362   0.897  15.622  1.3923  0.1797  0.7013
15824TIP3    H268964   5.448   0.775  15.646 -0.4499 -1.2511  0.2660
15825TIP3   OH268965   0.398   4.826   3.955 -0.8845 -0.4288  0.2785
15825TIP3    H168966   0.435   4.780   4.031  0.5545 -0.6190 -0.5070
15825TIP3    H268967   0.465   4.889   3.931 -0.8135 -1.1391 -1.5241
15826TIP3   OH268968   5.714   6.204  10.687 -0.3167 -0.0360  0.2072
15826TIP3    H168969   5.713   6.111  10.705  2.1390 -0.8086 -2.7636
15826TIP3    H268970   5.806   6.228  10.685 -0.7662  1.9288 -1.2160
15827TIP3   OH268971   4.329   5.185   5.046  0.1539  0.0616  0.6440
15827TIP3    H168972   4.283   5.103   5.028  0.1582  0.6748 -2.8240
15827TIP3    H268973   4.274   5.230   5.111 -1.2604 -1.5116  0.6011
15828TIP3   OH268974   4.087   2.477  15.013  0.4472  0.3539 -0.1354
15828TIP3    H168975   4.090   2.442  14.924 -1.9867 -1.2983  0.3318
15828TIP3    H268976   4.014   2.538  15.012  1.4323  1.5916  0.3797
15829TIP3   OH268977   3.047   0.344  16.583  0.1625  0.7327  0.0165
15829TIP3    H168978   2.981   0.358  16.515  0.7893 -0.1865 -0.8129
15829TIP3    H268979   3.114   0.410  16.566  0.8287 -0.1576 -0.9433
15830TIP3   OH268980   2.933   2.170  11.288 -0.1522  0.0934  0.0409
15830TIP3    H168981   2.919   2.228  11.213  0.9174 -0.0301 -0.2731
15830TIP3    H268982   3.018   2.196  11.323 -0.3579 -0.2735  0.8332
15831TIP3   OH268983   3.906   0.205  12.720  0.1084 -0.2526  0.9051
15831TIP3    H168984   3.939   0.158  12.644  0.1704 -0.0150  0.7860
15831TIP3    H268985   3.983   0.247  12.758 -0.2693  1.6152 -0.2756
15832TIP3   OH268986   6.596   4.572   5.026  0.2915  0.2724  0.2935
15832TIP3    H168987   6.688   4.593   5.043  1.0317 -2.3851 -0.0655
15832TIP3    H268988   6.595   4.478   5.010 -1.9759  0.7345 -3.3397
15833TIP3   OH268989   3.211   3.058   6.036 -0.5690  0.2523  0.3925
15833TIP3    H168990   3.278   3.025   6.095 -1.5665 -0.0048  1.4052
15833TIP3    H268991   3.129   3.018   6.066 -0.9696 -0.7763 -1.8373
15834TIP3   OH268992   0.923   1.810   0.092  0.1713  0.1619 -0.4581
15834TIP3    H168993   0.942   1.899   0.124 -0.2126 -0.2212  0.8739
15834TIP3    H268994   1.008   1.778   0.061  0.8289  0.1353  1.2707
15835TIP3   OH268995   4.955   4.472   1.646  0.1275 -0.2424 -0.4069
15835TIP3    H168996   4.885   4.494   1.707 -0.5217  0.6774 -1.4358
15835TIP3    H268997   5.033   4.461   1.701 -0.4990  0.2661  0.6040
15836TIP3   OH268998   4.617   5.342  15.882 -0.6880 -0.0986 -0.0551
15836TIP3    H168999   4.587   5.322  15.970 -1.4083  0.9048 -0.0575
15836TIP3    H269000   4.543   5.320  15.825 -0.0592 -1.2031 -0.4801
15837TIP3   OH269001   1.098   3.705   1.324 -0.0332  0.4418 -0.2457
15837TIP3    H169002   1.104   3.641   1.254 -0.6941  0.3670 -0.2358
15837TIP3    H269003   1.183   3.699   1.370 -0.3481 -0.9252  0.2030
15838TIP3   OH269004   0.836   3.416  15.127  0.7471  0.0913 -0.2153
15838TIP3    H169005   0.761   3.466  15.095  0.7100 -0.8848 -1.7426
15838TIP3    H269006   0.886   3.396  15.048  0.7577 -2.2495  0.3306
15839TIP3   OH269007   5.630   1.754  15.944  0.2921 -0.4796  0.4520
15839TIP3    H169008   5.670   1.710  15.869 -1.2193 -0.8534 -0.1813
15839TIP3    H269009   5.559   1.695  15.970 -0.9724  0.9518  0.3867
15840TIP3   OH269010   4.075   4.076  11.502  0.2193 -0.2144  0.0378
15840TIP3    H169011   3.980   4.066  11.498  0.0838 -0.9724  3.0846
15840TIP3    H269012   4.109   3.989  11.480 -0.0353 -1.1033  2.8015
15841TIP3   OH269013   0.811   4.533   5.010  0.1580 -0.0120 -0.0586
15841TIP3    H169014   0.830   4.626   5.019 -1.2038  0.3366 -0.5377
15841TIP3    H269015   0.741   4.517   5.074 -0.6204 -0.3763 -0.9859
15842TIP3   OH269016   4.086   6.271   0.952  0.8424  0.1828 -0.9720
15842TIP3    H169017   4.108   6.301   0.864 -0.3885  1.1979 -0.9773
15842TIP3    H269018   4.055   6.350   0.996 -0.5654 -0.6956 -0.3092
15843TIP3   OH269019   4.309   4.396  13.206 -0.1043  0.3449 -0.2856
15843TIP3    H169020   4.358   4.325  13.163 -1.9175 -0.8794 -0.4611
15843TIP3    H269021   4.217   4.371  13.195 -0.8097  2.7750 -0.3698
15844TIP3   OH269022   2.647   6.225  13.537 -0.4714 -0.6608 -0.1559
15844TIP3    H169023   2.616   6.140  13.506 -0.7141 -0.3939 -0.6524
15844TIP3    H269024   2.741   6.223  13.522 -0.7880  0.1562 -2.6682
15845TIP3   OH269025   2.837   2.311   2.625  0.2549  0.2857  0.1286
15845TIP3    H169026   2.838   2.292   2.719 -0.3915  1.0735  0.3066
15845TIP3    H269027   2.751   2.350   2.610  1.2438  2.4584 -0.3127
15846TIP3   OH269028   4.159   1.167   3.198 -0.4817  0.0417  0.0975
15846TIP3    H169029   4.134   1.196   3.286  2.3270  0.7852  0.7510
15846TIP3    H269030   4.160   1.071   3.204  0.1272  0.0935  1.0570
15847TIP3   OH269031   0.909   5.547  17.097 -0.6243 -0.1831  0.1478
15847TIP3    H169032   0.834   5.602  17.077 -1.0769 -0.3706  1.2672
15847TIP3    H269033   0.950   5.531  17.012 -2.5665 -1.1300 -0.6630
15848TIP3   OH269034   5.849   0.130   5.001  0.3602  0.3128 -0.2822
15848TIP3    H169035   5.929   0.171   4.967 -0.1313  1.4832 -0.0592
15848TIP3    H269036   5.786   0.201   5.007 -0.6314 -0.5490 -0.2016
15849TIP3   OH269037   2.189   6.369  15.697 -0.1988 -0.6401 -0.3361
15849TIP3    H169038   2.158   6.342  15.783 -1.6050  1.5567 -0.0758
15849TIP3    H269039   2.284   6.360  15.702 -0.2644 -0.7744  1.3768
15850TIP3   OH269040   5.996   1.312  11.347 -0.3479 -0.1022  0.6500
15850TIP3    H169041   5.944   1.392  11.343  1.3792  1.2292  2.4567
15850TIP3    H269042   6.045   1.311  11.265 -1.2187  0.0556  0.1186
15851TIP3   OH269043   4.455   3.753  16.851  0.2585  0.4856  0.2891
15851TIP3    H169044   4.505   3.835  16.841  1.1516 -0.1941 -1.0862
15851TIP3    H269045   4.457   3.736  16.945 -0.5826  2.4154  0.7118
15852TIP3   OH269046   5.955   2.731  14.691  0.2178  0.1851  0.2738
15852TIP3    H169047   5.970   2.637  14.683  0.9090  0.2856  0.3146
15852TIP3    H269048   5.911   2.742  14.775 -0.2081 -0.1396  0.0957
15853TIP3   OH269049   5.836   6.129   3.733 -0.0323  0.6233 -0.2367
15853TIP3    H169050   5.929   6.107   3.729 -0.0234  0.1987  1.4405
15853TIP3    H269051   5.793   6.063   3.680  0.5462  0.2720 -0.2790
15854TIP3   OH269052   0.636   4.160   4.919 -0.0251  0.1767  0.4459
15854TIP3    H169053   0.638   4.248   4.883 -0.8874  0.0033 -0.0749
15854TIP3    H269054   0.713   4.154   4.975 -0.4654  1.5698  1.2266
15855TIP3   OH269055   1.242   3.570   5.729 -0.3721  0.5363 -0.3657
15855TIP3    H169056   1.318   3.593   5.781 -0.2411  2.2129 -1.2278
15855TIP3    H269057   1.189   3.516   5.786  0.3692  1.2728  1.0651
15856TIP3   OH269058   1.647   1.862   3.072 -0.0940 -0.4513  0.2489
15856TIP3    H169059   1.737   1.884   3.047  0.8880  0.7011  4.1278
15856TIP3    H269060   1.598   1.943   3.055 -0.0586 -0.5528 -0.3627
15857TIP3   OH269061   6.702   3.598  13.981 -0.4231  0.0692 -0.0327
15857TIP3    H169062   6.696   3.685  14.021  0.4479  0.1352 -0.0208
15857TIP3    H269063   6.611   3.568  13.975 -0.7052  0.8220  0.3055
15858TIP3   OH269064   0.461   6.531  12.292 -0.9833  0.0235  0.3956
15858TIP3    H169065   0.499   6.540  12.379 -1.0270  0.7430  0.3480
15858TIP3    H269066   0.371   6.504  12.308 -2.0644  3.3379  0.7740
15859TIP3   OH269067   2.638   5.351   5.688 -0.0752  0.1018  0.6260
15859TIP3    H169068   2.704   5.293   5.651  0.5034  0.7788  0.5741
15859TIP3    H269069   2.602   5.303   5.762 -0.5966 -0.8887 -0.2408
15860TIP3   OH269070   3.373   2.388   4.323  0.4841 -0.7874  0.2715
15860TIP3    H169071   3.432   2.453   4.284  1.8190 -1.8752  0.4029
15860TIP3    H269072   3.403   2.304   4.288 -0.5610 -1.4407  0.8879
15861TIP3   OH269073   1.403   4.420   0.165 -0.6943  0.0635  0.0374
15861TIP3    H169074   1.310   4.446   0.166 -1.0356 -1.0823  0.7391
15861TIP3    H269075   1.429   4.426   0.257 -0.2809 -0.3435 -0.0560
15862TIP3   OH269076   5.436   3.385  11.177  0.3112  0.2295 -0.1023
15862TIP3    H169077   5.499   3.402  11.107  2.3903 -1.7274  1.1158
15862TIP3    H269078   5.384   3.311  11.145  0.6686 -0.0864  0.0290
15863TIP3   OH269079   4.825   4.329   4.289 -0.2687  0.0082 -0.2126
15863TIP3    H169080   4.829   4.422   4.269  1.0635  0.0537  0.1354
15863TIP3    H269081   4.811   4.325   4.384  2.6293 -0.0546  0.3045
15864TIP3   OH269082   3.645   4.690   1.091  0.1341  0.0297 -0.1836
15864TIP3    H169083   3.601   4.746   1.026  1.8520  0.5631 -0.9311
15864TIP3    H269084   3.644   4.603   1.052  1.8117  0.4788 -1.3353
15865TIP3   OH269085   2.392   4.197   0.363 -0.1920  0.4274 -1.1300
15865TIP3    H169086   2.336   4.229   0.293  0.0983 -1.6647 -2.3999
15865TIP3    H269087   2.478   4.233   0.343 -0.0452 -0.4044 -2.0521
15866TIP3   OH269088   0.472   3.871  12.749 -0.5041 -0.0928  0.1537
15866TIP3    H169089   0.519   3.817  12.812 -0.3025 -0.7694 -0.5546
15866TIP3    H269090   0.424   3.934  12.802  0.4841  0.0353  0.9385
15867TIP3   OH269091   6.248   6.551   3.164  0.1649 -0.1435  0.4702
15867TIP3    H169092   6.241   6.645   3.179  0.5327  0.2735 -1.6006
15867TIP3    H269093   6.190   6.534   3.089  0.7176 -1.4078  0.2919
15868TIP3   OH269094   3.549   6.467   3.673 -0.8099  0.0286 -0.4383
15868TIP3    H169095   3.529   6.416   3.751  0.2624  0.6164  0.2601
15868TIP3    H269096   3.633   6.432   3.641  1.7376  3.2426  1.9331
15869TIP3   OH269097   2.047   2.081  15.440 -0.2360 -0.1824 -0.4684
15869TIP3    H169098   2.099   2.157  15.468  0.6356 -1.2428  0.9252
15869TIP3    H269099   2.097   2.005  15.471 -0.8147 -1.3629 -2.2925
15870TIP3   OH269100   1.205   3.441  13.898 -0.2501  0.6673  0.1342
15870TIP3    H169101   1.293   3.469  13.872  0.8234 -0.9550  1.7752
15870TIP3    H269102   1.167   3.407  13.817  0.7192  1.1618 -0.5606
15871TIP3   OH269103   0.144   1.127   4.666  0.3248 -0.3495  0.5846
15871TIP3    H169104   0.154   1.108   4.759  1.9536 -1.2622  0.2749
15871TIP3    H269105   0.229   1.104   4.628  0.6639  2.5426 -0.7298
15872TIP3   OH269106   2.744   3.432   0.622 -0.5292 -0.1338 -0.1831
15872TIP3    H169107   2.743   3.527   0.625  1.4936 -0.0677  3.5402
15872TIP3    H269108   2.768   3.411   0.531 -1.1535  2.8298 -1.1355
15873TIP3   OH269109   4.530   4.943  14.469 -0.8395 -0.2239 -0.2546
15873TIP3    H169110   4.487   4.901  14.544 -0.0271 -1.2841 -0.3595
15873TIP3    H269111   4.605   4.988  14.508 -1.1450  0.3160 -0.2768
15874TIP3   OH269112   1.309   3.385   6.013  0.2900 -0.0301 -0.0419
15874TIP3    H169113   1.350   3.448   5.953 -1.2937  2.1586  1.0352
15874TIP3    H269114   1.353   3.399   6.097 -0.4826  0.0820  0.3518
15875TIP3   OH269115   1.526   4.799  16.321 -0.0004 -0.4566  0.4351
15875TIP3    H169116   1.602   4.756  16.282  0.4712 -0.1818  1.0429
15875TIP3    H269117   1.464   4.728  16.339  0.2103 -0.7075  0.1740
15876TIP3   OH269118   4.391   5.416  15.204  0.2569  0.6096  0.5026
15876TIP3    H169119   4.428   5.368  15.279 -0.6330 -0.3619  0.3403
15876TIP3    H269120   4.468   5.440  15.152  0.8119  0.4129  1.2072
15877TIP3   OH269121   0.903   2.482  13.597  0.3308 -0.1815  0.0315
15877TIP3    H169122   0.877   2.429  13.521  3.2709 -1.3488 -0.2948
15877TIP3    H269123   0.969   2.430  13.641  2.1574  2.4654  0.6836
15878TIP3   OH269124   2.762   5.488   0.917  0.0307 -0.1589  0.4342
15878TIP3    H169125   2.709   5.408   0.912 -0.8610  0.4806 -0.9402
15878TIP3    H269126   2.774   5.514   0.826  1.4120  0.5760  0.8028
15879TIP3   OH269127   2.326   0.762  15.648  0.1293 -0.1343  0.6002
15879TIP3    H169128   2.420   0.771  15.629 -0.5023  0.1069 -3.1454
15879TIP3    H269129   2.306   0.671  15.629 -0.3519 -0.3536  2.0052
15880TIP3   OH269130   2.638   6.192  12.811  0.5114  1.1035  0.6713
15880TIP3    H169131   2.636   6.097  12.820 -0.3031  0.8774 -1.3025
15880TIP3    H269132   2.718   6.210  12.762  0.0834  1.2995  0.0241
15881TIP3   OH269133   4.577   5.360   1.857  0.0344 -0.2061  0.9125
15881TIP3    H169134   4.547   5.384   1.769  0.4220 -1.7323  0.3475
15881TIP3    H269135   4.657   5.410   1.870  0.5352 -0.7524 -0.0243
15882TIP3   OH269136   6.430   3.073   0.973 -0.0331  0.0837  0.4546
15882TIP3    H169137   6.445   3.167   0.957  1.1423  0.0669  1.3084
15882TIP3    H269138   6.513   3.032   0.949  0.1056 -0.5010  1.8657
15883TIP3   OH269139   2.036   4.182  15.598 -0.4959  0.2823  0.6840
15883TIP3    H169140   2.078   4.213  15.678  0.8388  2.2580 -0.7001
15883TIP3    H269141   2.108   4.169  15.536 -1.5589 -0.5537 -0.4353
15884TIP3   OH269142   6.237   0.059   3.189  0.5151 -0.5460  0.5021
15884TIP3    H169143   6.332   0.076   3.194  0.6288 -0.8312 -0.5059
15884TIP3    H269144   6.201   0.139   3.152  0.7226 -1.4102 -1.7138
15885TIP3   OH269145   4.014   4.128  10.665  0.2819 -0.1452 -0.0772
15885TIP3    H169146   3.956   4.070  10.616  1.5905 -1.1897 -0.4410
15885TIP3    H269147   4.020   4.207  10.612 -1.5211  0.3735  0.4181
15886TIP3   OH269148   6.679   5.543  17.401  0.0893 -0.2172  0.6707
15886TIP3    H169149   6.605   5.552  17.342 -0.4999 -0.6628  1.3367
15886TIP3    H269150   6.752   5.518  17.344 -0.7493 -1.8873  0.2760
15887TIP3   OH269151   1.754   1.241   5.215 -0.0056  0.2613  0.7536
15887TIP3    H169152   1.814   1.310   5.189 -1.7092  0.3314 -3.8843
15887TIP3    H269153   1.676   1.287   5.245 -1.1524  0.5762 -2.3623
15888TIP3   OH269154   3.814   3.740  13.824 -0.5145 -0.4845  0.1469
15888TIP3    H169155   3.737   3.790  13.796  0.1006 -0.6087 -1.9135
15888TIP3    H269156   3.814   3.663  13.768  0.0589 -1.4664  1.4576
15889TIP3   OH269157   1.579   6.190  16.638 -0.6597 -0.1136 -0.3374
15889TIP3    H169158   1.616   6.116  16.686 -1.2095 -0.5280 -0.5450
15889TIP3    H269159   1.628   6.192  16.556  1.7625  1.8756  0.9930
15890TIP3   OH269160   2.980   1.492  11.982 -0.2105 -0.7798 -0.0938
15890TIP3    H169161   2.986   1.582  12.012  0.5283 -1.1814  1.0586
15890TIP3    H269162   2.980   1.498  11.886 -1.2795  0.4775 -0.0381
15891TIP3   OH269163   2.135   1.339  12.725 -0.3403  0.5768 -0.0634
15891TIP3    H169164   2.155   1.247  12.741 -1.0529  0.4134 -0.0972
15891TIP3    H269165   2.042   1.349  12.747 -0.3903  1.1816 -0.4908
15892TIP3   OH269166   1.747   2.527   3.493 -0.3270 -0.4773 -0.2141
15892TIP3    H169167   1.728   2.436   3.469 -0.1792 -0.4052 -0.6053
15892TIP3    H269168   1.803   2.560   3.423  1.1172 -0.6330  0.8206
15893TIP3   OH269169   2.669   0.463  14.103  0.3178 -0.1135 -0.3122
15893TIP3    H169170   2.644   0.514  14.180 -1.7275 -1.5951  0.1111
15893TIP3    H269171   2.731   0.398  14.136 -1.1114 -1.2267  0.3522
15894TIP3   OH269172   4.227   3.079  16.927 -0.1039  0.0889 -0.2742
15894TIP3    H169173   4.226   3.080  17.023  1.7428  1.0233 -0.2207
15894TIP3    H269174   4.264   3.164  16.903  2.3116 -1.2365 -1.6913
15895TIP3   OH269175   2.655   3.488   4.623  0.2712  0.9375  0.4627
15895TIP3    H169176   2.736   3.458   4.665  1.4066  1.0387 -1.5644
15895TIP3    H269177   2.683   3.524   4.539 -2.0142 -0.1683 -0.8545
15896TIP3   OH269178   2.645   1.170   5.531  0.1495  0.2829  0.0746
15896TIP3    H169179   2.606   1.084   5.516  0.2689  0.2869 -0.2794
15896TIP3    H269180   2.572   1.225   5.558  0.0965  0.0395  0.4216
15897TIP3   OH269181   5.350   1.304  16.877  0.6427  0.1885 -0.6399
15897TIP3    H169182   5.289   1.290  16.805 -1.2877 -0.6531  1.0394
15897TIP3    H269183   5.393   1.220  16.890  0.1978  0.0310 -0.1527
15898TIP3   OH269184   2.077   4.396   0.667  0.2860  0.6382 -0.0589
15898TIP3    H169185   2.110   4.459   0.730 -0.1898 -0.2815  1.1572
15898TIP3    H269186   2.152   4.373   0.613  1.8689 -1.7080  2.8694
15899TIP3   OH269187   0.933   3.223   6.010  0.2932  0.2831  0.2312
15899TIP3    H169188   0.859   3.227   6.071 -0.4848 -1.3166 -0.5473
15899TIP3    H269189   0.952   3.129   6.002  2.1178  0.6339  0.0492
15900TIP3   OH269190   4.684   4.290   2.017 -0.8217 -0.3151 -0.1936
15900TIP3    H169191   4.595   4.322   2.006 -0.8586 -0.6472 -0.9118
15900TIP3    H269192   4.735   4.337   1.950 -0.6590 -0.8831 -0.4751
15901TIP3   OH269193   6.632   0.896  15.507 -0.4435  0.0869  0.3633
15901TIP3    H169194   6.675   0.811  15.509  0.4962  0.5383 -0.0080
15901TIP3    H269195   6.605   0.907  15.416  0.9751  0.9145  0.0206
15902TIP3   OH269196   6.150   2.861   2.960 -0.0005 -0.0513 -0.1067
15902TIP3    H169197   6.061   2.878   2.931 -0.9056 -2.8003  0.7929
15902TIP3    H269198   6.193   2.821   2.884  0.2795  0.5652 -0.2880
15903TIP3   OH269199   3.871   3.115   1.201 -0.4313 -0.4813  0.1025
15903TIP3    H169200   3.834   3.175   1.266 -0.3178 -1.3028  0.9504
15903TIP3    H269201   3.895   3.171   1.128 -1.5028  0.3398  0.3455
15904TIP3   OH269202   5.547   3.242  17.034  0.2062 -0.2954 -0.8400
15904TIP3    H169203   5.453   3.237  17.021 -0.4124 -0.6015  2.6453
15904TIP3    H269204   5.577   3.151  17.028 -0.1587 -0.5054  0.3032
15905TIP3   OH269205   2.223   4.091   0.143 -0.2023 -0.1718 -0.7942
15905TIP3    H169206   2.152   4.035   0.112 -1.1964 -0.8400  2.2806
15905TIP3    H269207   2.296   4.032   0.160 -0.7963 -0.4032  1.1671
15906TIP3   OH269208   5.130   5.014   6.468 -0.2149  0.0174 -0.2733
15906TIP3    H169209   5.155   5.071   6.396  1.0558  0.9260  0.8277
15906TIP3    H269210   5.083   5.072   6.528 -3.5411 -1.2620 -1.4499
15907TIP3   OH269211   2.591   0.618   5.214 -0.0923 -0.0486 -1.0495
15907TIP3    H169212   2.499   0.602   5.234 -0.2853 -0.6520 -2.2964
15907TIP3    H269213   2.613   0.550   5.150  1.7153 -1.0463  0.5136
15908TIP3   OH269214   2.229   4.944   3.565 -0.9598  0.1356  0.0750
15908TIP3    H169215   2.264   4.941   3.654 -1.1180  2.2374  0.2630
15908TIP3    H269216   2.274   4.873   3.519 -1.3496 -1.4075  1.9548
15909TIP3   OH269217   3.390   5.473   5.308  0.2519 -0.1904  0.0110
15909TIP3    H169218   3.304   5.430   5.308  0.1531 -0.0182  1.1531
15909TIP3    H269219   3.391   5.524   5.389  0.8779  0.9376 -0.6800
15910TIP3   OH269220   1.807   5.418   1.086  0.6046 -0.0162  0.5240
15910TIP3    H169221   1.834   5.397   1.176  2.7515  1.2346  0.2294
15910TIP3    H269222   1.779   5.334   1.050  1.4881 -0.9008  1.7845
15911TIP3   OH269223   3.858   5.426  13.650  0.0214 -0.2588 -0.4895
15911TIP3    H169224   3.847   5.474  13.568 -3.3569  2.8450  1.4516
15911TIP3    H269225   3.933   5.468  13.692  1.6723 -1.7650 -1.8043
15912TIP3   OH269226   2.508   2.876   2.896 -0.3932 -0.1196  0.3354
15912TIP3    H169227   2.544   2.790   2.918  0.0225  0.4069  1.8113
15912TIP3    H269228   2.585   2.932   2.884 -0.6818  0.4752  1.2115
15913TIP3   OH269229   4.773   4.578   1.829 -0.6224  0.6256  0.1946
15913TIP3    H169230   4.812   4.608   1.911 -1.9971 -2.9850  2.4080
15913TIP3    H269231   4.678   4.586   1.843 -0.8965 -0.4886 -0.8549
15914TIP3   OH269232   5.578   5.211  17.261 -0.2747  0.2394  0.0976
15914TIP3    H169233   5.526   5.135  17.289  2.0059 -0.6703  2.1975
15914TIP3    H269234   5.606   5.189  17.172 -0.1109 -1.1647  0.4684
15915TIP3   OH269235   5.256   4.802  14.343  0.1387  0.1141  0.4431
15915TIP3    H169236   5.264   4.711  14.316 -0.2030  0.2294 -0.0602
15915TIP3    H269237   5.246   4.798  14.438  0.1284 -0.3739  0.4219
15916TIP3   OH269238   3.163   4.911   5.501 -0.0535  0.4528  0.3697
15916TIP3    H169239   3.221   4.920   5.425 -1.6569  0.6308 -0.8729
15916TIP3    H269240   3.210   4.955   5.572  2.2242 -1.0787 -0.0629
15917TIP3   OH269241   2.789   5.393  13.769 -0.6252  0.8246 -0.5683
15917TIP3    H169242   2.837   5.381  13.687  1.8997  0.5044  0.8537
15917TIP3    H269243   2.847   5.358  13.836 -2.0617  2.1746  1.5004
15918TIP3   OH269244   5.138   2.102   0.723 -0.2182  0.5883  0.3184
15918TIP3    H169245   5.048   2.082   0.748  0.0250  0.1728  0.8783
15918TIP3    H269246   5.161   2.179   0.775  0.1815 -0.0878  1.1661
15919TIP3   OH269247   2.627   1.624   0.870  0.7549  0.4255 -0.2570
15919TIP3    H169248   2.668   1.661   0.948 -0.3831  2.7209 -0.6537
15919TIP3    H269249   2.534   1.644   0.880  0.5130  0.2814 -1.9340
15920TIP3   OH269250   0.534   0.042  15.408  0.1976 -0.1323 -0.2184
15920TIP3    H169251   0.599  -0.025  15.430 -0.5807 -0.3742  1.5007
15920TIP3    H269252   0.451  -0.006  15.404 -0.5155  0.7809  1.8949
15921TIP3   OH269253   2.836   5.238   2.852 -0.0071 -0.6544 -0.4156
15921TIP3    H169254   2.907   5.182   2.882  0.6616 -0.2329 -1.1841
15921TIP3    H269255   2.791   5.186   2.785  0.1979 -0.5321 -0.6480
15922TIP3   OH269256   5.236   2.201  10.733 -0.4079  0.4999 -0.2172
15922TIP3    H169257   5.154   2.183  10.688 -0.3107  0.8656 -0.5446
15922TIP3    H269258   5.248   2.296  10.725 -0.7201  0.6854  1.1373
15923TIP3   OH269259   5.527   2.313  11.253 -0.0142  0.2175  0.0737
15923TIP3    H169260   5.568   2.342  11.335  1.2049 -1.8292  0.2629
15923TIP3    H269261   5.436   2.295  11.276  0.2527 -0.0794  0.9286
15924TIP3   OH269262   6.025   3.102  12.132  0.4385 -0.0814  0.3675
15924TIP3    H169263   6.081   3.026  12.147 -0.6235 -0.7954  0.9188
15924TIP3    H269264   6.084   3.171  12.104  1.3161 -1.3918 -1.1931
15925TIP3   OH269265   1.540   1.169   4.741  0.0572  0.5866 -0.2809
15925TIP3    H169266   1.570   1.259   4.725 -0.2647  0.6387 -0.6058
15925TIP3    H269267   1.583   1.117   4.673  0.7454  0.3893  0.2956
15926TIP3   OH269268   4.003   5.313   0.208 -0.5229  0.0879  0.0256
15926TIP3    H169269   3.914   5.348   0.198 -1.3037 -1.9691 -0.5708
15926TIP3    H269270   4.059   5.391   0.208 -1.8008  1.3033 -4.7460
15927TIP3   OH269271   1.223   0.993  16.189  0.4049  0.3540 -0.0418
15927TIP3    H169272   1.207   0.902  16.164  1.1142  0.2949 -0.3100
15927TIP3    H269273   1.290   0.987  16.257 -0.6663  0.5864  1.0607
15928TIP3   OH269274   2.648   2.339   0.369  0.1613  0.0104  0.1419
15928TIP3    H169275   2.673   2.248   0.355 -0.0963 -0.2204  1.1190
15928TIP3    H269276   2.730   2.387   0.369  0.3943 -0.3790  0.7104
15929TIP3   OH269277   4.231   6.146  13.820 -0.4245  0.1852 -0.2939
15929TIP3    H169278   4.235   6.182  13.909  0.5726  0.2107 -0.3407
15929TIP3    H269279   4.161   6.195  13.778  1.2393  2.5238 -0.5246
15930TIP3   OH269280   6.486   6.450   4.950 -0.2608  0.4089 -0.1129
15930TIP3    H169281   6.429   6.480   4.879  0.1366 -3.2951 -2.2524
15930TIP3    H269282   6.557   6.404   4.906  0.1488 -1.8966  2.6565
15931TIP3   OH269283   2.746   4.288   1.182  0.3440  0.3637 -0.6113
15931TIP3    H169284   2.780   4.247   1.262  1.3531  0.1821 -1.1124
15931TIP3    H269285   2.813   4.269   1.116  0.1955  1.6990 -1.1688
15932TIP3   OH269286   5.507   1.517  13.567 -0.7025  0.1837  0.5264
15932TIP3    H169287   5.536   1.443  13.620 -2.0783  0.0718  1.1555
15932TIP3    H269288   5.418   1.535  13.598  0.1047  3.0446  1.4318
15933TIP3   OH269289   3.609   1.042   4.268 -0.1530 -0.5190  0.5869
15933TIP3    H169290   3.606   1.138   4.263  0.6774 -0.5141 -0.0520
15933TIP3    H269291   3.518   1.015   4.253 -0.7522  0.2092  2.5020
15934TIP3   OH269292   1.984   5.485   5.112  0.9495  0.4892 -0.2792
15934TIP3    H169293   2.036   5.441   5.180 -0.2438 -0.8702 -0.1861
15934TIP3    H269294   2.049   5.523   5.053  2.0231  0.2335  0.6919
15935TIP3   OH269295   6.211   3.000   0.543 -0.1834 -0.6367  0.5519
15935TIP3    H169296   6.282   3.049   0.501  0.9321 -1.7166  1.0952
15935TIP3    H269297   6.146   3.067   0.567  0.7344  0.4087  0.2071
15936TIP3   OH269298   3.936   0.534   2.844 -0.5050  0.1840 -0.3083
15936TIP3    H169299   3.954   0.444   2.814 -0.6177  1.0332 -3.2681
15936TIP3    H269300   3.875   0.569   2.779 -1.5514  2.0187  1.5395
15937TIP3   OH269301   3.422   3.758  14.059 -0.1801  0.2392 -0.3012
15937TIP3    H169302   3.339   3.738  14.016 -0.3139  0.0671  0.0353
15937TIP3    H269303   3.462   3.673  14.075 -2.3814 -0.2228  4.4448
15938TIP3   OH269304   2.882   4.845  13.735 -0.2325 -0.5737  0.5109
15938TIP3    H169305   2.799   4.834  13.782  0.0077  0.6660  1.2633
15938TIP3    H269306   2.927   4.762  13.746 -2.3618 -2.2425 -2.0047
15939TIP3   OH269307   6.399   1.920   4.077 -0.3810  0.3060  0.0605
15939TIP3    H169308   6.462   1.988   4.053  0.4741 -0.9840 -1.4990
15939TIP3    H269309   6.452   1.849   4.111 -1.1666 -0.0999  0.4620
15940TIP3   OH269310   0.397   3.468  12.967 -0.0036 -0.0668  0.8799
15940TIP3    H169311   0.313   3.423  12.960 -0.5507  1.0936 -0.7782
15940TIP3    H269312   0.378   3.549  13.015 -0.0639  0.6252 -0.2659
15941TIP3   OH269313   2.012   4.135   1.757 -0.5809 -0.0508  0.2514
15941TIP3    H169314   2.092   4.098   1.795 -0.1484  1.0533  0.4749
15941TIP3    H269315   1.942   4.105   1.815 -0.1403  0.1562  0.9105
15942TIP3   OH269316   3.788   4.133   0.493  0.2285  0.7187  0.3004
15942TIP3    H169317   3.781   4.038   0.492  0.7948  0.6757 -0.2351
15942TIP3    H269318   3.712   4.162   0.543 -0.0650 -0.0011  0.2869
15943TIP3   OH269319   1.877   6.239  12.827  0.1199  0.0805 -0.4353
15943TIP3    H169320   1.946   6.267  12.887 -0.4486 -1.7251  1.1558
15943TIP3    H269321   1.898   6.147  12.809 -0.5467  0.1915 -1.8731
15944TIP3   OH269322   2.107   5.148   6.334  0.2072 -0.3445 -0.1896
15944TIP3    H169323   2.075   5.237   6.320  1.1598  0.3414  1.6506
15944TIP3    H269324   2.032   5.102   6.373  0.4000  0.3509  1.0692
15945TIP3   OH269325   5.941   3.627   0.088 -0.1404  0.0497 -0.8323
15945TIP3    H169326   5.859   3.583   0.065 -0.6617  0.9923 -0.8503
15945TIP3    H269327   5.915   3.718   0.105  0.7630  0.1568  0.0751
15946TIP3   OH269328   3.894   0.843  16.751  0.8602  0.7031  0.1324
15946TIP3    H169329   3.976   0.812  16.713 -0.4160 -2.9119 -0.0880
15946TIP3    H269330   3.849   0.763  16.779 -1.6489  2.6797  2.2794
15947TIP3   OH269331   1.390   1.090  16.392  0.0028 -0.0520  0.0165
15947TIP3    H169332   1.454   1.159  16.406  1.3856 -0.5871 -2.9633
15947TIP3    H269333   1.437   1.009  16.415 -0.6983 -0.2521  0.8227
15948TIP3   OH269334   0.405   0.397   3.064 -0.1183 -0.1564  0.4668
15948TIP3    H169335   0.403   0.340   2.986 -1.5835 -0.3322  0.6059
15948TIP3    H269336   0.326   0.450   3.057 -0.4445 -0.3985  2.0139
15949TIP3   OH269337   2.925   2.818   3.873 -0.0465  0.0715  0.2347
15949TIP3    H169338   2.847   2.869   3.852  0.3332  0.6831  0.3077
15949TIP3    H269339   2.891   2.732   3.899 -0.8379  0.8925  2.0936
15950TIP3   OH269340   1.363   1.686   6.689 -0.2311  0.1675 -0.5995
15950TIP3    H169341   1.282   1.719   6.726  0.3538 -0.8883  1.8380
15950TIP3    H269342   1.426   1.758   6.700  0.3214 -0.6303  2.0369
15951TIP3   OH269343   5.754   6.624   3.563 -0.6972  0.0832 -0.2680
15951TIP3    H169344   5.823   6.676   3.523  0.7923 -0.9221  0.8860
15951TIP3    H269345   5.711   6.580   3.490  1.7610 -1.5100 -0.8748
15952TIP3   OH269346   2.422   1.790   3.197 -0.0056  0.3239 -0.5239
15952TIP3    H169347   2.465   1.867   3.160 -0.0479  0.3094 -0.6038
15952TIP3    H269348   2.333   1.819   3.217  0.3576  0.6823  0.7038
15953TIP3   OH269349   2.709   5.310  15.097  0.4129 -0.1938  0.4727
15953TIP3    H169350   2.726   5.401  15.121 -2.0557 -0.5246  4.3111
15953TIP3    H269351   2.783   5.261  15.134  1.5911  0.0887 -1.3470
15954TIP3   OH269352   5.666   6.022   5.142  0.7856  0.3484 -0.0792
15954TIP3    H169353   5.612   6.101   5.144 -0.0050 -0.1358 -1.0124
15954TIP3    H269354   5.663   5.988   5.231  2.7193  2.3478  0.8750
15955TIP3   OH269355   2.538   6.563   5.165 -0.0172  0.7099  0.6755
15955TIP3    H169356   2.445   6.557   5.189  0.4864  0.4642  2.7391
15955TIP3    H269357   2.580   6.602   5.241  1.7713 -0.3385  0.2743
15956TIP3   OH269358   6.491   0.572  12.129  0.8734 -0.0989  0.2062
15956TIP3    H169359   6.404   0.575  12.088  1.1417  0.9944 -0.3296
15956TIP3    H269360   6.535   0.497  12.088  0.7318  0.2959 -0.6799
15957TIP3   OH269361   1.831   4.792   4.203 -0.3504  0.1802  0.5674
15957TIP3    H169362   1.862   4.709   4.240  0.7960 -0.0099 -0.7395
15957TIP3    H269363   1.903   4.853   4.219 -1.3513  1.0649  1.8855
15958TIP3   OH269364   6.251   5.674  16.307 -0.1594  0.6938 -0.5741
15958TIP3    H169365   6.212   5.762  16.305 -1.4465  0.1499 -0.5209
15958TIP3    H269366   6.234   5.640  16.219 -2.0349 -0.4496  0.1579
15959TIP3   OH269367   1.901   2.724  15.039 -0.2822  0.2357 -0.2532
15959TIP3    H169368   1.806   2.740  15.037 -0.6154 -1.6159 -1.7077
15959TIP3    H269369   1.929   2.741  14.949  0.6445  0.0931  0.0052
15960TIP3   OH269370   2.151   5.944   3.690 -0.0911 -0.6600  0.6915
15960TIP3    H169371   2.059   5.966   3.704 -0.4691 -2.4485  1.4222
15960TIP3    H269372   2.185   6.013   3.633 -1.8666  0.0595  0.4459
15961TIP3   OH269373   6.027   4.919   1.884 -0.1306  0.7830  0.6189
15961TIP3    H169374   6.027   4.862   1.961  0.1103 -0.9966 -0.6248
15961TIP3    H269375   5.960   4.984   1.902  0.3486  0.7884  2.5868
15962TIP3   OH269376   3.013   4.578   5.852  0.0838 -0.2271  0.1975
15962TIP3    H169377   3.027   4.525   5.931  1.5510 -0.3750 -0.1342
15962TIP3    H269378   3.063   4.658   5.867 -0.7797  0.3680 -0.0031
15963TIP3   OH269379   1.088   0.055  12.988  0.4368 -0.1744 -0.1407
15963TIP3    H169380   1.093   0.058  12.892  1.1708  0.0529 -0.1046
15963TIP3    H269381   1.133   0.135  13.017  1.5751 -0.9797  0.4137
15964TIP3   OH269382   0.473   3.421   4.672  0.0094  0.1536 -0.7836
15964TIP3    H169383   0.485   3.385   4.760  2.5013 -1.1027 -1.5522
15964TIP3    H269384   0.490   3.515   4.682 -0.2298  0.1071  0.1512
15965TIP3   OH269385   3.441   5.094  12.868  0.1058 -0.6772 -0.6866
15965TIP3    H169386   3.432   5.179  12.826 -1.9936 -0.4125  0.1694
15965TIP3    H269387   3.376   5.039  12.825 -0.3755 -1.0825  0.5063
15966TIP3   OH269388   0.140   1.661  13.430 -0.0599 -0.3996  0.3158
15966TIP3    H169389   0.056   1.616  13.429 -0.1790 -0.1772 -0.5346
15966TIP3    H269390   0.172   1.652  13.520 -0.6312 -1.1521  0.4467
15967TIP3   OH269391   6.204   4.153  15.409  0.0093 -0.3273  0.1829
15967TIP3    H169392   6.275   4.094  15.386  0.2072 -0.0096 -0.0363
15967TIP3    H269393   6.217   4.229  15.352  0.5619  0.5252  1.4136
15968TIP3   OH269394   1.827   0.635   4.042  0.0504 -0.0137  0.3756
15968TIP3    H169395   1.806   0.707   3.983 -1.3504 -0.6097  0.0920
15968TIP3    H269396   1.919   0.615   4.025 -0.3421 -0.2172 -1.6780
15969TIP3   OH269397   6.623   1.290   4.380 -0.0469  0.8332  0.3741
15969TIP3    H169398   6.636   1.222   4.446 -1.5816  0.2019  0.0747
15969TIP3    H269399   6.711   1.319   4.358  0.5758 -0.1074  1.4846
15970TIP3   OH269400   2.821   5.283   5.218  0.1828  0.2114 -0.2264
15970TIP3    H169401   2.781   5.325   5.294 -0.2634  1.7596 -1.2612
15970TIP3    H269402   2.903   5.247   5.252  0.9622  2.5700  0.6545
15971TIP3   OH269403   6.201   0.065  17.068 -0.2524  0.1128 -0.5116
15971TIP3    H169404   6.182  -0.021  17.032 -0.7421  0.1019 -0.2381
15971TIP3    H269405   6.241   0.048  17.153  2.2223  0.1002 -1.5828
15972TIP3   OH269406   5.022   6.642   1.323  0.1279 -0.1301  0.1935
15972TIP3    H169407   4.997   6.636   1.415 -0.7264 -1.7054 -0.1150
15972TIP3    H269408   5.110   6.605   1.320  0.3771  0.4216  0.4371
15973TIP3   OH269409   1.116   2.372   6.332 -0.2340 -0.5935 -0.4057
15973TIP3    H169410   1.134   2.457   6.292  0.9565 -0.6566 -0.0346
15973TIP3    H269411   1.046   2.390   6.396  0.9051  0.3938  0.6129
15974TIP3   OH269412   0.964   3.303  12.594  0.0912 -0.0453 -0.6940
15974TIP3    H169413   1.046   3.350  12.608 -0.5893  0.4371  2.3407
15974TIP3    H269414   0.896   3.367  12.612 -0.9248 -1.1148 -0.5768
15975TIP3   OH269415   3.310   3.277  14.543  0.0455 -0.2251 -0.0370
15975TIP3    H169416   3.236   3.337  14.547  0.9092  0.8351  0.5305
15975TIP3    H269417   3.384   3.330  14.512  0.1116 -1.7794 -2.9461
15976TIP3   OH269418   3.326   3.331  16.493 -0.1341 -0.1175 -0.1650
15976TIP3    H169419   3.335   3.279  16.413 -1.1890 -0.9115  0.2017
15976TIP3    H269420   3.393   3.296  16.552  0.7410  0.5650 -0.7248
15977TIP3   OH269421   2.303   0.874   3.608 -0.2260 -0.3577  0.3722
15977TIP3    H169422   2.394   0.844   3.605  0.6903  2.1974  0.0519
15977TIP3    H269423   2.274   0.870   3.517  0.7417  1.8713 -0.1156
15978TIP3   OH269424   1.524   3.650  15.845  0.4174 -0.2395 -0.0068
15978TIP3    H169425   1.468   3.658  15.922  2.5473 -0.0100  1.5880
15978TIP3    H269426   1.537   3.740  15.815  0.3116 -0.2545 -0.0983
15979TIP3   OH269427   2.119   2.157   3.177 -0.3688 -0.8153  0.6650
15979TIP3    H169428   2.044   2.215   3.169  0.3967 -0.0465 -1.9725
15979TIP3    H269429   2.184   2.207   3.226  0.5679  1.0482 -2.2005
15980TIP3   OH269430   3.765   1.591  13.592 -0.2415 -0.4368  0.0837
15980TIP3    H169431   3.752   1.520  13.655  1.3620 -0.7540  0.0824
15980TIP3    H269432   3.688   1.586  13.534 -0.5625 -1.6204  0.5902
15981TIP3   OH269433   3.431   1.706   5.420  0.1135  0.2267 -0.6599
15981TIP3    H169434   3.520   1.719   5.454 -0.4718  1.2497  0.5691
15981TIP3    H269435   3.418   1.777   5.357  0.0263  0.3123 -0.5454
15982TIP3   OH269436   3.080   5.364   2.229  0.2481  0.0074 -0.2835
15982TIP3    H169437   3.109   5.366   2.138 -1.8048 -0.3904 -1.0147
15982TIP3    H269438   3.101   5.276   2.259 -4.1282 -2.0710 -2.3409
15983TIP3   OH269439   6.115   5.910  16.196 -0.0403 -0.8918 -0.0356
15983TIP3    H169440   6.077   5.991  16.229 -3.2941 -1.8878 -0.9627
15983TIP3    H269441   6.189   5.938  16.143 -0.0408  1.3168  1.0146
15984TIP3   OH269442   3.406   4.212  12.369  0.0876  0.1943 -0.1510
15984TIP3    H169443   3.382   4.180  12.282  0.4445  0.2775 -0.2829
15984TIP3    H269444   3.389   4.306  12.365 -0.1462  0.1572 -0.0432
15985TIP3   OH269445   1.118   2.290  17.030 -0.1248 -0.2486  0.0610
15985TIP3    H169446   1.131   2.372  17.077  1.9587 -0.2923 -0.3705
15985TIP3    H269447   1.168   2.225  17.079  0.3716 -0.7130 -1.0164
15986TIP3   OH269448   6.601   5.941  14.552 -0.1183  0.3080 -0.1469
15986TIP3    H169449   6.575   5.851  14.569 -0.6607  0.5050  0.0770
15986TIP3    H269450   6.672   5.934  14.488 -0.3532 -0.2591 -0.3502
15987TIP3   OH269451   4.185   2.366   2.756 -0.2185 -0.4323 -0.3106
15987TIP3    H169452   4.197   2.271   2.754 -0.2127 -0.4376 -0.0666
15987TIP3    H269453   4.254   2.400   2.699  1.0869 -0.4479  1.1910
15988TIP3   OH269454   5.889   1.879   3.411  0.0347  0.4135  0.0112
15988TIP3    H169455   5.876   1.968   3.377  0.5564  0.2544 -0.6219
15988TIP3    H269456   5.832   1.824   3.358 -0.7261  0.4322  0.7819
15989TIP3   OH269457   2.903   1.721  15.552  0.2336  0.3819  0.0997
15989TIP3    H169458   2.829   1.781  15.546  0.0751  0.0515 -2.1414
15989TIP3    H269459   2.980   1.778  15.546  0.1040  0.5192 -0.3256
15990TIP3   OH269460   4.747   3.324  15.011  0.2858  0.0597 -1.0965
15990TIP3    H169461   4.724   3.253  14.951 -0.4046  0.1882 -0.9848
15990TIP3    H269462   4.672   3.383  15.009  0.0556 -0.1693  0.2533
15991TIP3   OH269463   1.184   5.196  15.598 -0.3052  0.1162  0.1708
15991TIP3    H169464   1.137   5.183  15.516  0.9566  0.0474 -0.5723
15991TIP3    H269465   1.273   5.164  15.580 -0.0091  0.0796  1.5735
15992TIP3   OH269466   4.963   2.199  16.587  0.1995 -0.3222 -0.3489
15992TIP3    H169467   4.997   2.288  16.598  0.7552 -0.2865 -2.1087
15992TIP3    H269468   4.924   2.198  16.500 -4.1012 -0.5089  1.3631
15993TIP3   OH269469   1.200   0.263  13.681  0.2913  0.2797  0.1514
15993TIP3    H169470   1.201   0.318  13.602  1.7582 -0.3164 -0.2724
15993TIP3    H269471   1.234   0.179  13.652 -0.8478 -0.5251  1.0546
15994TIP3   OH269472   1.977   1.152   3.865 -0.1703 -0.1861  0.4135
15994TIP3    H169473   2.006   1.192   3.947 -0.3053 -0.9050  0.8217
15994TIP3    H269474   1.974   1.225   3.803  1.6234  0.0672  0.5739
15995TIP3   OH269475   0.513   2.615   5.020  0.5518 -0.0229  0.3641
15995TIP3    H169476   0.513   2.609   4.924 -1.3982  0.0529  0.3149
15995TIP3    H269477   0.501   2.708   5.039 -0.4302 -0.1912  0.6355
15996TIP3   OH269478   4.546   6.044  16.113 -0.3109  0.0940 -0.0559
15996TIP3    H169479   4.460   6.024  16.150 -0.4874  0.3886 -0.3020
15996TIP3    H269480   4.541   6.016  16.022 -0.8073  1.8575 -0.6182
15997TIP3   OH269481   2.327   4.117  14.653 -0.2139 -0.0795 -0.1206
15997TIP3    H169482   2.309   4.201  14.694 -2.0416 -0.7193  0.4517
15997TIP3    H269483   2.341   4.057  14.725 -0.2339 -0.5555 -0.5077
15998TIP3   OH269484   4.252   3.975   4.225 -0.0395 -0.4267  0.3627
15998TIP3    H169485   4.263   4.054   4.172 -0.8344 -1.3984 -1.3129
15998TIP3    H269486   4.173   3.933   4.191 -0.1677 -1.4872  1.8392
15999TIP3   OH269487   3.152   5.126   4.554  0.8252  0.1009 -0.3950
15999TIP3    H169488   3.238   5.120   4.596  1.3512 -0.8791 -1.5459
15999TIP3    H269489   3.138   5.220   4.541 -0.3502  0.7130  3.7838
16000TIP3   OH269490   4.953   1.887  17.267  0.5457 -0.5440  0.4764
16000TIP3    H169491   4.937   1.947  17.195  1.7345 -2.4178 -1.4922
16000TIP3    H269492   4.970   1.943  17.342  1.1406  1.5528 -1.1260
16001TIP3   OH269493   4.861   4.395   3.718  0.2700 -0.3950  0.1420
16001TIP3    H169494   4.890   4.480   3.686  1.8448 -0.6607  0.7793
16001TIP3    H269495   4.803   4.363   3.649  0.3837  0.7959 -0.5360
16002TIP3   OH269496   2.322   5.609   4.070  0.1853  0.5919  0.6261
16002TIP3    H169497   2.264   5.582   4.141  2.5390 -4.2693  1.1357
16002TIP3    H269498   2.391   5.659   4.113 -0.9231  2.0428  0.8086
16003TIP3   OH269499   1.882   0.291   0.191  0.0296  0.2362  0.7534
16003TIP3    H169500   1.810   0.353   0.204 -2.4916 -2.4449  0.7276
16003TIP3    H269501   1.934   0.296   0.271 -0.9818  1.3059  1.3685
16004TIP3   OH269502   0.959   1.504   0.263 -0.8251  0.9316 -0.4615
16004TIP3    H169503   0.926   1.579   0.214 -1.2177  0.7718 -0.4464
16004TIP3    H269504   1.000   1.542   0.341 -2.2676  1.0607  0.2559
16005TIP3   OH269505   6.170   3.154  15.896  0.4610 -0.7730 -0.3947
16005TIP3    H169506   6.213   3.167  15.811 -0.6430  1.0283 -0.7337
16005TIP3    H269507   6.207   3.221  15.953  1.0158 -1.8149  0.5100
16006TIP3   OH269508   1.429   1.791   6.158 -0.3022 -0.3523 -0.2815
16006TIP3    H169509   1.364   1.853   6.125 -0.3891 -0.4298 -0.2570
16006TIP3    H269510   1.454   1.825   6.243  0.4355  0.2290 -0.7164
16007TIP3   OH269511   3.126   2.757  14.492 -0.5533 -0.3320 -0.2260
16007TIP3    H169512   3.103   2.849  14.487 -1.4244 -0.5056  0.4096
16007TIP3    H269513   3.112   2.723  14.403  0.0510  0.2041 -0.5294
16008TIP3   OH269514   1.908   0.858  14.484  0.4608 -0.0090  0.0546
16008TIP3    H169515   1.886   0.903  14.565  0.6541 -1.9695  1.2544
16008TIP3    H269516   1.843   0.891  14.421 -1.5653 -0.5278  1.7395
16009TIP3   OH269517   4.741   3.093  16.811  0.2326  0.0329  0.5500
16009TIP3    H169518   4.671   3.070  16.873 -0.0866  1.9647  0.9626
16009TIP3    H269519   4.710   3.172  16.768  1.3228 -0.1861 -0.6945
16010TIP3   OH269520   0.600   1.840   3.636 -0.1099 -0.1218 -0.0247
16010TIP3    H169521   0.626   1.925   3.601  0.3837  0.3161  1.3427
16010TIP3    H269522   0.625   1.843   3.729 -0.4394 -1.6081  0.1451
16011TIP3   OH269523   6.326   0.271  14.173 -0.4685 -0.2077 -0.4472
16011TIP3    H169524   6.358   0.335  14.236 -2.6174  0.3099  0.1648
16011TIP3    H269525   6.386   0.280  14.098  1.2874  0.1171  0.9246
16012TIP3   OH269526   0.456   0.777  16.300 -0.3716 -0.1310  0.2687
16012TIP3    H169527   0.532   0.751  16.352  0.7344 -0.7278 -1.5472
16012TIP3    H269528   0.440   0.868  16.324  0.9326  0.0066  0.6861
16013TIP3   OH269529   1.628   5.925  12.796 -0.3013  0.3548  0.6084
16013TIP3    H169530   1.689   5.945  12.725  0.9377  1.6714  1.9688
16013TIP3    H269531   1.568   5.999  12.798 -1.1283 -0.2918  0.1358
16014TIP3   OH269532   2.426   0.859  12.714 -0.1716 -0.1527  0.4140
16014TIP3    H169533   2.438   0.835  12.622 -0.2164 -2.1148  0.8727
16014TIP3    H269534   2.515   0.872  12.747 -0.1764  1.1171 -0.0089
16015TIP3   OH269535   4.018   5.371  15.627  0.6736 -0.0406  0.0345
16015TIP3    H169536   4.013   5.297  15.687 -1.6251 -0.0658 -0.0952
16015TIP3    H269537   4.092   5.423  15.659 -0.2455 -0.2164  2.7444
16016TIP3   OH269538   1.825   0.875  17.192 -0.4172 -0.4169 -0.4852
16016TIP3    H169539   1.820   0.780  17.201 -0.5852 -0.4616 -1.0162
16016TIP3    H269540   1.766   0.896  17.120 -1.7247  0.2820  0.7401
16017TIP3   OH269541   4.521   0.325  17.197 -0.0737 -0.1955  0.2360
16017TIP3    H169542   4.512   0.326  17.293  0.8931 -1.7677  0.3860
16017TIP3    H269543   4.613   0.349  17.182 -0.5360  1.3037 -0.4057
16018TIP3   OH269544   4.757   1.190  14.721 -0.2233  0.0572 -0.2397
16018TIP3    H169545   4.845   1.172  14.687 -0.3922 -0.7226 -0.2743
16018TIP3    H269546   4.716   1.104  14.729  0.1900  0.0291  2.9956
16019TIP3   OH269547   1.352   3.512   0.429 -1.0811  0.0196 -0.8688
16019TIP3    H169548   1.359   3.461   0.349 -0.0014 -0.6662 -0.3614
16019TIP3    H269549   1.416   3.582   0.420 -1.9901  0.8368 -1.2128
16020TIP3   OH269550   5.930   1.227   5.638 -0.3699  0.3836  0.0845
16020TIP3    H169551   5.946   1.138   5.605 -1.7095 -0.2657  1.0496
16020TIP3    H269552   5.987   1.283   5.586 -0.4602 -0.8917 -1.4699
16021TIP3   OH269553   1.571   0.033   1.209  0.1048  0.1173  0.4676
16021TIP3    H169554   1.654  -0.005   1.181  0.4823  0.4488  1.1042
16021TIP3    H269555   1.518  -0.041   1.238  0.4667 -0.0305  0.7656
16022TIP3   OH269556   0.641   4.339   5.911 -0.3017  0.0402 -0.5816
16022TIP3    H169557   0.612   4.370   5.826 -2.5897  0.2377  0.1856
16022TIP3    H269558   0.688   4.412   5.950 -2.1107  1.1720 -0.4105
16023TIP3   OH269559   1.398   6.522   2.422 -0.1774 -1.0719  0.4445
16023TIP3    H169560   1.483   6.522   2.376 -0.0159  1.1480  0.6633
16023TIP3    H269561   1.411   6.580   2.497 -2.0118 -0.3523  0.2418
16024TIP3   OH269562   5.791   2.420  14.003  0.1023 -0.2590  0.8486
16024TIP3    H169563   5.797   2.344  13.945 -1.2995  0.8239 -0.8225
16024TIP3    H269564   5.720   2.398  14.063 -0.7665 -0.0375 -0.0686
16025TIP3   OH269565   3.293   2.409  12.413  0.4550 -0.1134 -0.0585
16025TIP3    H169566   3.201   2.400  12.387  0.6088  2.0021 -1.6021
16025TIP3    H269567   3.338   2.340  12.365 -0.3522 -1.7023  1.3285
16026TIP3   OH269568   3.093   1.036  15.491 -0.3920  0.4704  0.2654
16026TIP3    H169569   3.182   1.040  15.527 -0.3022  1.2314 -0.0104
16026TIP3    H269570   3.049   1.112  15.529 -0.6990  0.5137 -0.1658
16027TIP3   OH269571   0.987   5.189   1.083  0.0490 -0.5011  0.8327
16027TIP3    H169572   0.895   5.211   1.097  0.0368 -0.6061  0.9185
16027TIP3    H269573   0.988   5.094   1.070 -0.0444 -0.3184 -0.7244
16028TIP3   OH269574   3.828   1.385  14.176 -0.2104 -0.0319  0.1798
16028TIP3    H169575   3.908   1.367  14.226  0.5112  1.5140 -0.3551
16028TIP3    H269576   3.782   1.450  14.228 -0.1401  0.5491 -0.4722
16029TIP3   OH269577   6.657   1.456   3.323  0.2351 -0.1833 -0.1370
16029TIP3    H169578   6.702   1.448   3.239 -1.8186 -0.9758 -1.2168
16029TIP3    H269579   6.609   1.539   3.317  1.7973  0.9006  1.1924
16030TIP3   OH269580   0.448   5.313  11.498 -0.5409  0.0359 -0.3430
16030TIP3    H169581   0.419   5.252  11.430 -0.4767  0.1227 -0.4484
16030TIP3    H269582   0.541   5.325  11.482 -0.3336 -0.6379  0.3078
16031TIP3   OH269583   2.446   6.483  14.216  0.1543  0.3792 -0.1164
16031TIP3    H169584   2.436   6.578  14.212  0.0940  0.4870  1.7218
16031TIP3    H269585   2.540   6.469  14.225  0.3905  0.1199 -2.4218
16032TIP3   OH269586   4.597   6.415  16.473 -0.1209  0.1541  0.0156
16032TIP3    H169587   4.601   6.342  16.535  0.1317 -0.3858 -0.6205
16032TIP3    H269588   4.644   6.383  16.396  0.3587  1.1445 -0.1214
16033TIP3   OH269589   1.332   6.622  16.247  0.1410 -0.7130  0.3683
16033TIP3    H169590   1.341   6.706  16.293 -0.6582 -0.9467  0.9696
16033TIP3    H269591   1.391   6.563  16.294 -1.0478 -1.0839  1.4573
16034TIP3   OH269592   2.828   5.694  12.090  0.1177  0.3893 -0.2853
16034TIP3    H169593   2.756   5.757  12.094 -0.0206  0.2953 -1.2771
16034TIP3    H269594   2.877   5.718  12.012  0.8181  0.0699  0.0508
16035TIP3   OH269595   5.809   6.429  14.248 -0.2864  0.0049 -0.2537
16035TIP3    H169596   5.795   6.443  14.155 -0.6259  0.7246 -0.1001
16035TIP3    H269597   5.729   6.461  14.289 -1.1950 -2.4821  0.1249
16036TIP3   OH269598   5.511   0.260  14.590 -0.3839  0.2076 -0.0478
16036TIP3    H169599   5.587   0.292  14.542  0.2029 -1.4461 -0.2942
16036TIP3    H269600   5.436   0.303  14.548  0.3978  2.2964  0.5523
16037TIP3   OH269601   5.595   0.702  13.867  0.6445  0.4024  0.1159
16037TIP3    H169602   5.646   0.632  13.907 -0.4471 -0.6306 -0.2587
16037TIP3    H269603   5.634   0.713  13.780 -1.5505 -2.5165 -1.4122
16038TIP3   OH269604   1.187   4.364   0.979  0.0003 -0.2964 -0.0525
16038TIP3    H169605   1.223   4.430   1.037 -1.2743  1.6594 -1.3623
16038TIP3    H269606   1.263   4.322   0.938  0.8376  1.5279 -0.4334
16039TIP3   OH269607   6.488   3.111   5.637 -0.1729 -0.3289 -0.2369
16039TIP3    H169608   6.564   3.054   5.653  0.0831 -0.0883 -0.5796
16039TIP3    H269609   6.484   3.168   5.714  0.3946  0.0986 -0.5182
16040TIP3   OH269610   3.354   0.438  12.417 -0.2173 -0.2217 -0.1867
16040TIP3    H169611   3.403   0.413  12.495 -1.7596  0.1330  0.9536
16040TIP3    H269612   3.293   0.365  12.404  0.8197 -0.8553 -1.8192
16041TIP3   OH269613   1.055   0.826   4.286 -0.3691 -0.1152  0.8676
16041TIP3    H169614   1.150   0.837   4.282 -0.4927  0.9960  0.6024
16041TIP3    H269615   1.023   0.860   4.202 -0.9907 -0.6240  0.8904
16042TIP3   OH269616   0.179   6.471  13.006  0.4006 -0.7528  0.0571
16042TIP3    H169617   0.089   6.491  12.979 -0.1804 -1.3814  1.4607
16042TIP3    H269618   0.222   6.556  13.006 -0.6870 -0.1768  1.1022
16043TIP3   OH269619   5.291   4.971  11.448 -0.4782  0.2872 -0.1701
16043TIP3    H169620   5.302   4.896  11.390  1.4747 -1.5383  2.3068
16043TIP3    H269621   5.381   4.998  11.469 -1.1420  2.1208  0.4580
16044TIP3   OH269622   6.132   2.167  14.288 -0.3743 -0.2951  0.0752
16044TIP3    H169623   6.125   2.079  14.326  1.1581  0.2637  1.8169
16044TIP3    H269624   6.226   2.185  14.287 -0.5793  0.9030 -1.3428
16045TIP3   OH269625   6.028   5.343  11.834  0.1218  0.4603  0.2173
16045TIP3    H169626   6.101   5.285  11.853  0.3207  0.6110 -0.0922
16045TIP3    H269627   5.954   5.306  11.883 -0.1323 -0.9155 -1.1402
16046TIP3   OH269628   6.748   3.504  13.601 -0.0283 -0.5194 -0.5433
16046TIP3    H169629   6.828   3.455  13.583  1.5164  1.5851  0.2916
16046TIP3    H269630   6.752   3.580  13.543 -1.1742 -0.0922 -0.0988
16047TIP3   OH269631   0.001   3.695  11.249 -0.4175  0.1011  0.0803
16047TIP3    H169632   0.090   3.727  11.236 -0.4783  0.1164 -0.3066
16047TIP3    H269633  -0.034   3.684  11.160 -1.5437  2.1422  0.1914
16048TIP3   OH269634   6.002   0.593  15.195 -0.0899 -0.4960 -0.0131
16048TIP3    H169635   6.009   0.666  15.134 -0.5672  0.3932  0.9646
16048TIP3    H269636   5.952   0.527  15.148 -0.2079  0.0614 -0.6903
16049TIP3   OH269637   3.187   0.228   3.830  0.0635  0.2118  0.3498
16049TIP3    H169638   3.168   0.289   3.902 -0.7005  1.6226 -0.9905
16049TIP3    H269639   3.110   0.171   3.828  0.1775  0.0374  0.7729
16050TIP3   OH269640   6.053   3.270  12.781  0.1537 -0.0868 -0.6048
16050TIP3    H169641   5.978   3.301  12.730 -0.4614 -0.0621  0.2825
16050TIP3    H269642   6.028   3.182  12.809 -0.5730  0.7518  1.6069
16051TIP3   OH269643   2.277   5.698   3.799  0.9421  0.0434  0.2854
16051TIP3    H169644   2.219   5.774   3.807  0.4405 -0.4050  0.8946
16051TIP3    H269645   2.293   5.669   3.889  1.1541 -0.5638  0.0594
16052TIP3   OH269646   2.557   2.989  14.109  0.4580  0.5180 -0.0587
16052TIP3    H169647   2.605   3.026  14.183 -0.7684  0.2782  0.8976
16052TIP3    H269648   2.498   3.059  14.081 -2.1141 -0.6397  1.9704
16053TIP3   OH269649   6.449   4.463  13.147  0.5369  0.0346  0.0362
16053TIP3    H169650   6.480   4.540  13.195  0.3490  0.1977 -0.0990
16053TIP3    H269651   6.508   4.455  13.072  0.0270  0.5732 -0.4324
16054TIP3   OH269652   2.591   4.217   5.600 -0.8118 -0.2765 -0.0831
16054TIP3    H169653   2.599   4.286   5.534 -2.6204 -0.2983 -0.3742
16054TIP3    H269654   2.681   4.202   5.629 -0.2428  1.4402 -0.7832
16055TIP3   OH269655   4.078   5.177  15.424 -0.0479 -0.5935 -0.0634
16055TIP3    H169656   4.040   5.257  15.460  0.3891 -0.3602 -0.1195
16055TIP3    H269657   4.135   5.144  15.493  1.7344  0.4943 -0.9193
16056TIP3   OH269658   4.934   6.095  17.276 -0.2509  0.5832  0.1210
16056TIP3    H169659   4.958   6.109  17.367 -0.2403  1.0498  0.0471
16056TIP3    H269660   4.885   6.012  17.277  0.2772  0.2661  0.4530
16057TIP3   OH269661   3.238   0.788   4.995 -0.3124  0.8571 -0.1322
16057TIP3    H169662   3.259   0.744   5.077 -0.6694  1.5224  0.3355
16057TIP3    H269663   3.155   0.833   5.013  0.1166  1.8405 -0.5302
16058TIP3   OH269664   0.868   2.625   5.978 -0.5368  0.1017 -0.2067
16058TIP3    H169665   0.794   2.621   5.917 -0.9608  1.9660  0.1263
16058TIP3    H269666   0.837   2.680   6.050 -0.1095 -2.1886  1.8648
16059TIP3   OH269667   4.548   0.063  11.435 -0.7999  0.0362  0.8075
16059TIP3    H169668   4.524   0.134  11.494  0.6100  0.9234  0.3553
16059TIP3    H269669   4.616   0.015  11.481 -0.4335  0.1080  0.3533
16060TIP3   OH269670   4.312   3.596  11.379  0.3496  0.8786 -0.2986
16060TIP3    H169671   4.316   3.680  11.333 -1.4592  1.4041  0.4220
16060TIP3    H269672   4.328   3.530  11.312 -0.5384  1.6995 -1.3435
16061TIP3   OH269673   1.400   2.602  14.821  0.9735  0.1878 -0.0802
16061TIP3    H169674   1.404   2.534  14.754  0.7847 -0.1416  0.2379
16061TIP3    H269675   1.477   2.656  14.805  2.4149 -1.4189  1.0588
16062TIP3   OH269676   0.829   5.045   2.633  0.5524 -0.0870  0.1030
16062TIP3    H169677   0.817   4.974   2.697 -3.4887 -0.8043 -1.1976
16062TIP3    H269678   0.865   5.001   2.556  0.4920 -0.2406  0.1611
16063TIP3   OH269679   2.315   4.955  16.201 -0.5509 -0.0831 -0.0596
16063TIP3    H169680   2.322   4.992  16.113  0.6723 -2.3216 -0.9936
16063TIP3    H269681   2.341   4.863  16.190 -3.5769 -1.3554  2.0449
16064TIP3   OH269682   3.249   5.188  12.022 -0.1202  0.4650  0.3506
16064TIP3    H169683   3.315   5.214  12.088 -0.5172  2.6642 -0.0243
16064TIP3    H269684   3.298   5.184  11.940 -0.2808  1.3191  0.2036
16065TIP3   OH269685   6.239   4.457   0.328  0.2654  0.2353 -0.3582
16065TIP3    H169686   6.311   4.420   0.379 -0.0039  0.7613  0.4227
16065TIP3    H269687   6.279   4.483   0.246  0.2444 -2.9352 -1.5290
16066TIP3   OH269688   3.745   6.184  15.331 -0.5079  0.0958  0.1812
16066TIP3    H169689   3.769   6.138  15.412  0.2003  1.4011  0.7592
16066TIP3    H269690   3.741   6.116  15.264  0.8016 -0.7473  0.9266
16067TIP3   OH269691   3.103   4.147  16.272  0.3743 -0.3475 -0.2909
16067TIP3    H169692   3.016   4.182  16.290 -0.2117 -1.4521 -0.8607
16067TIP3    H269693   3.137   4.202  16.202  0.5736  0.7332  0.6225
16068TIP3   OH269694   2.782   6.205  16.120  0.3331 -0.3743 -0.0088
16068TIP3    H169695   2.739   6.124  16.150  0.0123 -0.9249 -1.8072
16068TIP3    H269696   2.875   6.188  16.130  0.2307 -0.2533  1.3082
16069TIP3   OH269697   3.709   4.826  17.081 -0.3143 -0.4720  0.5828
16069TIP3    H169698   3.663   4.788  17.007  1.2339 -0.1786 -0.5853
16069TIP3    H269699   3.704   4.921  17.067  1.2681 -0.4466 -0.0166
16070TIP3   OH269700   5.845   5.206  12.896  0.4525 -0.3210  0.0909
16070TIP3    H169701   5.804   5.221  12.811 -2.0092 -1.5563  0.9778
16070TIP3    H269702   5.911   5.138  12.879 -0.7154 -1.3012 -0.6793
16071TIP3   OH269703   2.930   2.615   5.393  0.6809 -0.2594 -0.5451
16071TIP3    H169704   2.994   2.577   5.333  0.8642 -0.1820 -0.4008
16071TIP3    H269705   2.910   2.544   5.454  1.9733  0.2338  0.4917
16072TIP3   OH269706   1.376   5.274   2.351 -0.3208 -0.1937 -0.3926
16072TIP3    H169707   1.449   5.270   2.289 -0.4153  1.0090 -0.6062
16072TIP3    H269708   1.378   5.364   2.384  0.9566 -1.2526  2.8523
16073TIP3   OH269709   3.608   5.582   4.621 -0.0802 -0.2676  0.0294
16073TIP3    H169710   3.632   5.606   4.710 -0.7562 -0.3843  0.2455
16073TIP3    H269711   3.532   5.636   4.601  0.4366  0.2083 -0.7035
16074TIP3   OH269712   4.212   3.752  15.605  0.0396 -0.3096  0.0300
16074TIP3    H169713   4.234   3.821  15.541 -1.6399 -0.9289 -1.3010
16074TIP3    H269714   4.296   3.731  15.647  1.1335  0.4645 -1.6334
16075TIP3   OH269715   3.884   3.830  11.112 -0.2283 -0.1285  0.3764
16075TIP3    H169716   3.922   3.837  11.025  0.3669 -1.6123  0.4886
16075TIP3    H269717   3.950   3.784  11.164  0.8196  3.3581  2.5167
16076TIP3   OH269718   0.403   5.178   5.119 -0.1483  0.5419 -0.4597
16076TIP3    H169719   0.360   5.147   5.040  1.8427 -3.9593 -0.0733
16076TIP3    H269720   0.334   5.180   5.185 -0.7996 -1.3107 -1.0457
16077TIP3   OH269721   6.418   1.453   4.426 -0.8841 -0.4538 -0.3883
16077TIP3    H169722   6.485   1.389   4.403 -0.8993 -1.2025  1.5188
16077TIP3    H269723   6.464   1.517   4.480 -1.4627 -0.3307 -0.0380
16078TIP3   OH269724   0.614   5.641  11.563  0.2737  0.1776  0.4160
16078TIP3    H169725   0.622   5.672  11.473  2.5147  0.0745  0.5177
16078TIP3    H269726   0.672   5.564  11.567 -3.8955 -3.3067  0.5669
16079TIP3   OH269727   5.699   2.742  16.020  0.6317 -0.1653  0.2169
16079TIP3    H169728   5.773   2.763  16.078  0.3726  1.1083  0.1152
16079TIP3    H269729   5.737   2.688  15.951  1.3174 -0.1386  0.5647
16080TIP3   OH269730   1.546   5.132  13.288 -0.2152 -0.3290  0.0958
16080TIP3    H169731   1.626   5.097  13.248 -0.3329 -0.3661 -0.1090
16080TIP3    H269732   1.493   5.161  13.214  0.3562  1.3224  0.3113
16081TIP3   OH269733   3.373   0.911   6.319  0.4054  0.1658 -0.0363
16081TIP3    H169734   3.388   0.832   6.267  2.7456  0.8618 -0.5166
16081TIP3    H269735   3.362   0.879   6.409 -0.7817 -0.8199 -0.4955
16082TIP3   OH269736   3.258   3.847  11.217 -0.5230 -0.3481  0.0562
16082TIP3    H169737   3.306   3.927  11.237  0.8750 -0.9169 -0.8653
16082TIP3    H269738   3.251   3.802  11.302  1.9475 -0.9407  0.0269
16083TIP3   OH269739   6.222   6.337   1.375  0.5425 -0.4991 -0.2138
16083TIP3    H169740   6.258   6.352   1.463  1.7671  1.3566 -0.9868
16083TIP3    H269741   6.138   6.293   1.391  1.0248 -0.7820  1.8435
16084TIP3   OH269742   6.682   2.431  15.506 -0.2296 -0.4937 -0.1440
16084TIP3    H169743   6.652   2.492  15.439 -0.2698  0.7145  0.9313
16084TIP3    H269744   6.765   2.398  15.474 -0.1152  0.2839 -0.6740
16085TIP3   OH269745   3.049   6.196  12.273  0.2110 -0.1425 -0.4807
16085TIP3    H169746   3.137   6.160  12.269 -0.1206 -0.8743 -1.7790
16085TIP3    H269747   3.008   6.170  12.190 -1.0528  0.6311 -0.1377
16086TIP3   OH269748   3.356   5.953  14.415 -0.0412 -0.1687  0.0210
16086TIP3    H169749   3.314   5.892  14.475 -1.1471  1.3126  0.8412
16086TIP3    H269750   3.318   6.038  14.438 -0.1466  0.5362 -2.4638
16087TIP3   OH269751   0.820   4.890  15.905  0.1890 -0.2395  0.9853
16087TIP3    H169752   0.833   4.982  15.930 -0.4736  0.2618 -0.4019
16087TIP3    H269753   0.908   4.859  15.883  0.3591  0.1856  1.0449
16088TIP3   OH269754   5.345   0.130   0.349  0.2728 -0.5698 -0.5069
16088TIP3    H169755   5.343   0.045   0.393  0.5410  0.3386  1.3182
16088TIP3    H269756   5.280   0.182   0.394 -0.1260  0.1219 -1.8357
16089TIP3   OH269757   5.191   3.537  13.393  0.3672 -0.4869 -0.0532
16089TIP3    H169758   5.228   3.492  13.469 -1.9437  1.1487  2.2200
16089TIP3    H269759   5.226   3.625  13.397 -1.7257  0.3840  0.7476
16090TIP3   OH269760   1.926   0.261  16.342 -0.4195 -0.5469  0.0904
16090TIP3    H169761   1.927   0.188  16.404  0.1596 -2.0280 -1.5991
16090TIP3    H269762   1.954   0.337  16.394  0.3035 -1.7856  1.5743
16091TIP3   OH269763   3.677   6.495   1.683 -0.5361 -0.2918 -0.5182
16091TIP3    H169764   3.747   6.432   1.668 -1.0563 -0.7589 -1.0336
16091TIP3    H269765   3.603   6.442   1.712 -0.5658  0.2414  0.4316
16092TIP3   OH269766   3.394   6.504   3.451 -0.0425 -0.4564  0.6071
16092TIP3    H169767   3.444   6.491   3.532 -0.6821  0.3403  1.1362
16092TIP3    H269768   3.461   6.517   3.384  0.4816 -0.4118  1.1289
16093TIP3   OH269769   6.743   2.033  13.929 -0.5399 -0.0398  0.1491
16093TIP3    H169770   6.811   2.048  13.863 -0.9073  0.4417 -0.1268
16093TIP3    H269771   6.790   1.995  14.003 -0.1372 -0.6780 -0.4254
16094TIP3   OH269772   5.024   5.439   4.377 -0.3526  0.3989 -0.4215
16094TIP3    H169773   5.052   5.529   4.392 -0.8168  0.5784 -0.6055
16094TIP3    H269774   5.101   5.395   4.341 -0.0428  0.6487 -0.0657
16095TIP3   OH269775   5.862   2.680   5.034  0.0332  0.0397 -0.4149
16095TIP3    H169776   5.831   2.616   5.099 -0.3594 -0.2181 -0.8548
16095TIP3    H269777   5.846   2.638   4.950  0.9652  0.1805 -0.6706
16096TIP3   OH269778   1.228   2.915   4.050  0.5763  0.5469 -0.8319
16096TIP3    H169779   1.207   2.850   3.983  1.8316  0.3226 -1.0213
16096TIP3    H269780   1.253   2.993   4.001  2.0236  0.2161 -0.6543
16097TIP3   OH269781   4.984   4.909  16.771 -0.2322 -0.1727 -0.1009
16097TIP3    H169782   5.003   4.938  16.860 -0.4816 -1.6638  0.4777
16097TIP3    H269783   5.033   4.827  16.761 -1.2849 -0.7466 -0.8233
16098TIP3   OH269784   3.634   6.296  16.564  0.2477  0.0980 -0.2638
16098TIP3    H169785   3.557   6.347  16.588 -1.4593 -2.5619  0.2711
16098TIP3    H269786   3.649   6.317  16.471 -2.6748 -1.0784 -1.1167
16099TIP3   OH269787   2.929   0.238  12.881  0.3490  0.4859 -0.3264
16099TIP3    H169788   2.916   0.154  12.838 -0.9123  1.2819 -1.5483
16099TIP3    H269789   3.018   0.232  12.917 -0.0491 -1.7063  0.4601
16100TIP3   OH269790   0.539   2.328   2.885  0.1866 -0.2054 -0.0136
16100TIP3    H169791   0.613   2.297   2.937 -1.2236 -0.6967  1.8359
16100TIP3    H269792   0.554   2.294   2.797  2.1092 -0.3060  0.3145
16101TIP3   OH269793   2.189   0.593   0.080 -0.5866  0.2033 -0.0170
16101TIP3    H169794   2.250   0.520   0.091 -0.4830  0.3454  0.3685
16101TIP3    H269795   2.117   0.556   0.028 -0.5681 -0.1955  0.2291
16102TIP3   OH269796   1.828   6.709  13.414  0.1353 -0.0545  0.0328
16102TIP3    H169797   1.835   6.620  13.379  1.5667 -0.3680  1.0124
16102TIP3    H269798   1.912   6.724  13.457 -0.5177  1.3584  0.8783
16103TIP3   OH269799   4.294   3.497  13.753 -0.0695  0.2489 -0.5494
16103TIP3    H169800   4.356   3.506  13.681  0.5958  0.0547 -0.0082
16103TIP3    H269801   4.348   3.477  13.829 -0.7209  1.0248  0.1270
16104TIP3   OH269802   3.092   3.360   3.454 -0.1502  0.4796 -0.1036
16104TIP3    H169803   3.154   3.287   3.449 -1.3569 -0.6310  0.5679
16104TIP3    H269804   3.084   3.378   3.548  0.3478  1.7005 -0.2709
16105TIP3   OH269805   3.725   1.384   1.139 -0.2338 -0.0149  0.4052
16105TIP3    H169806   3.674   1.435   1.076  0.0601  0.9304  0.9137
16105TIP3    H269807   3.792   1.341   1.086  0.3026  1.1370  0.1079
16106TIP3   OH269808   2.846   2.674   1.800 -0.6443  0.5394  0.3306
16106TIP3    H169809   2.896   2.741   1.754 -0.3037  0.4158  0.5175
16106TIP3    H269810   2.824   2.713   1.885  1.4929 -0.3675  1.3681
16107TIP3   OH269811   2.488   2.395  14.158  0.3340  0.6599  0.2115
16107TIP3    H169812   2.505   2.301  14.149 -0.8664  0.5425 -1.1085
16107TIP3    H269813   2.558   2.426  14.216  2.2413 -0.5832 -1.3027
16108TIP3   OH269814   1.952   2.838   3.964 -0.1528  0.3390 -0.3209
16108TIP3    H169815   2.018   2.886   4.013  0.0507  1.3467 -1.5263
16108TIP3    H269816   1.870   2.855   4.011 -0.2665  2.7350 -1.2216
16109TIP3   OH269817   6.021   6.476  11.398 -0.3382 -0.5077 -0.4353
16109TIP3    H169818   6.007   6.533  11.323 -0.7555 -1.4812 -1.1110
16109TIP3    H269819   6.008   6.533  11.474 -0.5356  0.3426 -1.0967
16110TIP3   OH269820   4.169   3.608  11.852 -0.2872 -0.3504  0.3868
16110TIP3    H169821   4.207   3.527  11.886 -0.8632 -0.8983 -0.2488
16110TIP3    H269822   4.240   3.673  11.861 -0.5788 -0.2913  3.1443
16111TIP3   OH269823   4.605   0.280   3.879  0.8385 -0.2351 -0.0196
16111TIP3    H169824   4.614   0.302   3.786  0.2377 -0.9593 -0.2619
16111TIP3    H269825   4.574   0.189   3.879  0.2116 -0.0303  0.8687
16112TIP3   OH269826   3.334   6.266   0.715  1.0196  0.1831 -0.1601
16112TIP3    H169827   3.394   6.250   0.787 -1.0464  0.3506  1.7300
16112TIP3    H269828   3.267   6.198   0.724 -1.5028  2.5893  0.7049
16113TIP3   OH269829   3.474   1.915   3.109 -0.3295 -0.1402 -0.0352
16113TIP3    H169830   3.445   1.840   3.161 -0.4203 -0.1840 -0.1506
16113TIP3    H269831   3.438   1.900   3.022  0.2978 -0.3518 -0.2594
16114TIP3   OH269832   4.993   4.454  11.191  0.4411  0.1471  0.1933
16114TIP3    H169833   5.078   4.480  11.155  0.1722 -0.0314 -0.6064
16114TIP3    H269834   5.007   4.366  11.226  0.3442 -0.3160 -0.8928
16115TIP3   OH269835   5.500   2.738  11.557 -0.0882  0.0823 -0.2273
16115TIP3    H169836   5.456   2.676  11.616 -0.9735  0.6895 -0.2413
16115TIP3    H269837   5.586   2.751  11.597 -0.5475  0.2119  0.7485
16116TIP3   OH269838   0.270   6.742  12.470 -0.1436  0.0543 -0.4408
16116TIP3    H169839   0.245   6.812  12.529  1.4321 -0.2102  0.5959
16116TIP3    H269840   0.345   6.700  12.512  0.5415 -0.6472 -2.2430
16117TIP3   OH269841   5.075   2.620   3.835  0.2630 -0.1929  0.1585
16117TIP3    H169842   5.087   2.628   3.740 -0.5654  1.5286  0.1536
16117TIP3    H269843   5.107   2.703   3.870  0.5361 -0.7992  1.4045
16118TIP3   OH269844   4.872   4.493   2.427 -0.8132 -0.1463  0.3441
16118TIP3    H169845   4.820   4.421   2.389 -0.7481 -0.0643  0.1010
16118TIP3    H269846   4.839   4.572   2.385 -0.6300 -0.0710  0.3411
16119TIP3   OH269847   4.429   1.297  14.579  0.0964  0.0626  0.8040
16119TIP3    H169848   4.371   1.229  14.613  1.0907 -1.3506 -0.2214
16119TIP3    H269849   4.373   1.350  14.522 -0.4322 -0.6337  0.6649
16120TIP3   OH269850   1.549   5.086   4.169 -0.0784 -0.4669 -0.0877
16120TIP3    H169851   1.527   5.009   4.221 -0.8497 -0.3339 -0.2026
16120TIP3    H269852   1.645   5.090   4.171 -0.0960 -0.4093  1.3788
16121TIP3   OH269853   3.834   6.224   3.012  0.1841 -0.3272 -0.1363
16121TIP3    H169854   3.925   6.244   3.035  0.5064 -1.6131 -0.2397
16121TIP3    H269855   3.839   6.148   2.955 -1.0878 -2.3944  2.2899
16122TIP3   OH269856   5.003   1.249   4.831 -0.1338 -0.0925 -0.5501
16122TIP3    H169857   5.007   1.342   4.854 -1.8389  0.2329 -1.4124
16122TIP3    H269858   5.094   1.224   4.814  0.1748  1.9106 -2.1881
16123TIP3   OH269859   5.827   2.713   3.389 -0.1750 -0.1883 -0.1556
16123TIP3    H169860   5.906   2.758   3.418  0.1452  1.1044 -2.7635
16123TIP3    H269861   5.773   2.781   3.350 -1.0330 -1.5961 -1.5334
16124TIP3   OH269862   0.223   0.101  11.331  0.5312  0.8452  0.4628
16124TIP3    H169863   0.300   0.151  11.304  0.6275  2.0609  2.7476
16124TIP3    H269864   0.148   0.150  11.295  0.7489 -0.2518 -1.6234
16125TIP3   OH269865   5.280   3.200  10.731  0.4941  0.1926 -0.0867
16125TIP3    H169866   5.212   3.197  10.663  0.3863  1.3864 -0.0585
16125TIP3    H269867   5.239   3.246  10.804  0.5589 -1.2298  0.8731
16126TIP3   OH269868   2.389   3.399  12.096 -0.1659  0.5654 -0.1990
16126TIP3    H169869   2.425   3.310  12.094  0.6054  0.8748 -0.7726
16126TIP3    H269870   2.300   3.389  12.130 -0.4246 -0.5409 -1.1703
16127TIP3   OH269871   3.423   2.541  14.206  0.5490 -0.0520  0.0984
16127TIP3    H169872   3.499   2.590  14.173  0.6728  1.2274  2.1283
16127TIP3    H269873   3.347   2.593  14.180  0.4790 -0.3124 -0.2323
16128TIP3   OH269874   6.191   2.196  13.932  0.7757  0.0959 -0.5462
16128TIP3    H169875   6.220   2.229  13.847  0.1984 -0.6970 -1.0656
16128TIP3    H269876   6.256   2.131  13.956  1.4321  0.9453  0.0641
16129TIP3   OH269877   0.660   0.752   1.042  0.3512  0.0833  0.3365
16129TIP3    H169878   0.657   0.795   0.956 -1.4200 -2.1311 -0.8267
16129TIP3    H269879   0.737   0.695   1.037  0.9032  0.7856  0.6824
16130TIP3   OH269880   6.686   6.307  10.599 -0.4163  0.1944 -0.4759
16130TIP3    H169881   6.651   6.243  10.661  0.9216 -1.5440 -1.3972
16130TIP3    H269882   6.744   6.362  10.651 -3.7321  2.6672  0.9221
16131TIP3   OH269883   2.504   1.602  16.297  0.2980  0.2650  0.0714
16131TIP3    H169884   2.446   1.639  16.363 -1.0211  0.4278 -1.1231
16131TIP3    H269885   2.457   1.525  16.264  2.4713 -1.9357  1.6939
16132TIP3   OH269886   3.391   4.975   0.400  0.0604 -0.3686  0.0346
16132TIP3    H169887   3.374   4.892   0.446 -0.3644 -0.4945 -0.3376
16132TIP3    H269888   3.439   4.949   0.321  0.2545 -0.2206  0.1042
16133TIP3   OH269889   5.196   2.656  14.242  0.1002 -1.0694  0.0760
16133TIP3    H169890   5.157   2.578  14.282  1.2299 -1.4940  0.3755
16133TIP3    H269891   5.290   2.640  14.244  0.3732  0.4652  0.4587
16134TIP3   OH269892   0.700   4.006  13.027 -0.2714 -0.4069  0.9837
16134TIP3    H169893   0.647   3.931  13.053 -0.9350 -0.8004 -1.2265
16134TIP3    H269894   0.648   4.082  13.053 -1.0778 -0.7813  0.5243
16135TIP3   OH269895   1.077   3.196  17.116  0.0342 -0.2626 -0.2575
16135TIP3    H169896   1.104   3.236  17.198 -0.9752  0.0322 -0.0592
16135TIP3    H269897   1.081   3.266  17.051 -1.6794  0.1970  0.0799
16136TIP3   OH269898   6.532   5.563  16.103  0.3990  0.7789 -0.3473
16136TIP3    H169899   6.443   5.542  16.131  0.3271  1.8561  0.3206
16136TIP3    H269900   6.530   5.657  16.087  1.2811  0.7210 -0.8657
16137TIP3   OH269901   2.853   5.012  12.588  0.2546 -0.5436  0.2873
16137TIP3    H169902   2.802   4.935  12.615 -0.2557 -0.8734 -1.4802
16137TIP3    H269903   2.818   5.084  12.641  0.7960 -1.5093  2.0245
16138TIP3   OH269904   2.267   1.963   1.211  0.1939 -0.3026  0.3826
16138TIP3    H169905   2.238   2.013   1.135 -2.2001  1.9008  2.5650
16138TIP3    H269906   2.355   1.997   1.229  0.2757  0.0592 -0.6073
16139TIP3   OH269907   2.997   6.576  15.234 -0.1168 -0.5298  0.3902
16139TIP3    H169908   2.926   6.618  15.185 -1.6073 -1.4605  1.6516
16139TIP3    H269909   3.042   6.522  15.170 -1.7145 -1.3556 -0.0995
16140TIP3   OH269910   1.482   2.951   3.288 -0.3562  0.3238  0.0774
16140TIP3    H169911   1.551   3.008   3.253  1.6168 -1.0972  1.3798
16140TIP3    H269912   1.506   2.864   3.256 -1.9764 -0.1272  0.0198
16141TIP3   OH269913   1.930   3.106   5.794  0.1196 -0.0096  0.1633
16141TIP3    H169914   1.873   3.078   5.865  0.8085 -0.9740  0.3528
16141TIP3    H269915   1.946   3.199   5.811  1.8592 -0.6411  2.4378
16142TIP3   OH269916   0.771   3.523  12.625 -0.0867  0.3288  0.1783
16142TIP3    H169917   0.710   3.489  12.689 -0.8319  0.1057 -0.6337
16142TIP3    H269918   0.716   3.565  12.559  0.7178  1.5499  0.2526
16143TIP3   OH269919   6.356   1.337   0.288 -1.0414  0.5033 -0.3276
16143TIP3    H169920   6.432   1.279   0.294 -1.5800 -0.2753 -0.8524
16143TIP3    H269921   6.378   1.411   0.344  1.2549  1.6023 -2.4849
16144TIP3   OH269922   0.313   2.161   1.981  0.1311  0.0024 -0.3683
16144TIP3    H169923   0.352   2.074   1.983 -0.9710 -0.5298 -1.2543
16144TIP3    H269924   0.303   2.185   2.073  2.3438  0.1031 -0.0855
16145TIP3   OH269925   3.106   2.857   0.040  0.9015  0.0592  0.0419
16145TIP3    H169926   3.142   2.936   0.081  0.2036  0.5455 -0.2602
16145TIP3    H269927   3.172   2.790   0.055  1.4554  0.6741  0.4042
16146TIP3   OH269928   1.370   0.568   2.296  0.0693  0.5169 -0.7202
16146TIP3    H169929   1.358   0.621   2.375 -0.7796 -1.4894  0.5680
16146TIP3    H269930   1.450   0.602   2.257  0.0692  2.1065  0.5558
16147TIP3   OH269931   3.503   3.566   2.988 -0.1733  0.1828  0.1755
16147TIP3    H169932   3.426   3.510   2.999 -1.4397  1.5048 -1.4158
16147TIP3    H269933   3.470   3.642   2.941  2.5972 -0.4230 -3.1782
16148TIP3   OH269934   5.665   1.718   0.330  0.2962 -0.1249  0.1833
16148TIP3    H169935   5.674   1.733   0.424  1.4245  0.0496  0.0701
16148TIP3    H269936   5.595   1.654   0.322  0.3445 -0.3121  1.1589
16149TIP3   OH269937   0.614   2.486   4.537 -0.4341 -0.3517  0.3551
16149TIP3    H169938   0.558   2.478   4.460 -0.6390  2.3081  0.1346
16149TIP3    H269939   0.698   2.447   4.511  0.5060  3.0640 -2.3820
16150TIP3   OH269940   2.995   0.091  11.526 -0.4176 -0.2093  0.0371
16150TIP3    H169941   3.027   0.022  11.584  2.4556  1.8866  1.2001
16150TIP3    H269942   2.960   0.158  11.585  0.4220  0.9754 -0.7728
16151TIP3   OH269943   2.083   0.371  11.726 -0.4881 -0.0526  0.4900
16151TIP3    H169944   2.098   0.282  11.760  2.6595  0.3555  0.4678
16151TIP3    H269945   2.076   0.359  11.631  0.3761 -0.2592  0.4440
16152TIP3   OH269946   2.565   3.933  14.454 -0.0671 -0.0569 -0.9863
16152TIP3    H169947   2.523   4.019  14.451 -0.2425  0.0433  1.8036
16152TIP3    H269948   2.497   3.875  14.488  0.7835 -0.7870 -0.5101
16153TIP3   OH269949   5.991   2.103   5.729  0.3204 -0.0162 -0.1951
16153TIP3    H169950   5.958   2.101   5.639 -3.6497  0.0499  1.0741
16153TIP3    H269951   6.020   2.014   5.747 -1.0336 -0.6210 -0.8796
16154TIP3   OH269952   1.525   0.456   4.370  0.1706 -0.6722 -0.1567
16154TIP3    H169953   1.613   0.464   4.333 -0.5668  0.7781 -1.7784
16154TIP3    H269954   1.471   0.425   4.296 -0.7269 -1.3202  0.7405
16155TIP3   OH269955   0.525   3.251   2.548 -0.0359 -0.9049 -0.2115
16155TIP3    H169956   0.438   3.228   2.515 -1.4548  3.0022  0.3188
16155TIP3    H269957   0.558   3.315   2.485  2.1556 -1.6942  0.0506
16156TIP3   OH269958   1.890   4.561   0.864  0.6028 -0.1611  0.1055
16156TIP3    H169959   1.985   4.566   0.875  0.6056  1.8209 -0.5607
16156TIP3    H269960   1.869   4.628   0.800 -1.4400  0.5321  1.4138
16157TIP3   OH269961   1.593   4.883  14.839 -0.2603 -0.3504 -0.9224
16157TIP3    H169962   1.517   4.925  14.880  1.1499  1.6332 -0.1784
16157TIP3    H269963   1.592   4.793  14.871 -1.5470  0.0075  0.1047
16158TIP3   OH269964   5.552   4.180   4.786  0.4759  0.0741 -0.4756
16158TIP3    H169965   5.634   4.194   4.832 -0.0744  0.6232  0.3818
16158TIP3    H269966   5.555   4.241   4.712  0.7274  0.2837 -0.2941
16159TIP3   OH269967   1.665   1.260  14.392  0.0267 -0.2812  0.0661
16159TIP3    H169968   1.593   1.322  14.404  0.7425  0.5003  0.3718
16159TIP3    H269969   1.691   1.236  14.481  0.8593  0.2959 -0.0082
16160TIP3   OH269970   6.477   0.192  12.770 -0.8417  0.4584  0.2038
16160TIP3    H169971   6.426   0.136  12.712  1.4799 -1.4465 -0.1547
16160TIP3    H269972   6.473   0.279  12.729 -1.6690 -0.1865 -1.1499
16161TIP3   OH269973   0.751   2.802   6.933 -0.5668 -0.3596 -0.2651
16161TIP3    H169974   0.733   2.825   6.842 -2.3649 -0.6833 -0.0248
16161TIP3    H269975   0.752   2.707   6.935  2.3392 -0.4142 -0.4201
16162TIP3   OH269976   1.804   5.987  17.458 -0.0796  0.2654 -0.3088
16162TIP3    H169977   1.893   5.998  17.425  0.5822 -1.1617  0.8623
16162TIP3    H269978   1.791   5.892  17.460 -0.9403  0.3792  1.2287
16163TIP3   OH269979   3.636   0.528  11.425  0.2962 -0.6361 -0.0547
16163TIP3    H169980   3.582   0.465  11.474 -1.1742 -1.8776 -3.0171
16163TIP3    H269981   3.688   0.474  11.365 -0.8246  0.8536 -2.5239
16164TIP3   OH269982   0.804   1.536   4.138  0.9707 -0.3025  0.4295
16164TIP3    H169983   0.768   1.504   4.221  1.1047  0.4506  0.7846
16164TIP3    H269984   0.860   1.464   4.107  0.3200 -0.8969  0.5989
16165TIP3   OH269985   1.570   6.593  14.209  0.3901 -0.0868  0.2256
16165TIP3    H169986   1.479   6.575  14.232  0.5407 -1.9955 -0.4765
16165TIP3    H269987   1.619   6.569  14.287  0.3010  1.1755  0.6912
16166TIP3   OH269988   1.911   2.812   0.928  0.4461 -0.5701 -0.2507
16166TIP3    H169989   1.991   2.864   0.920  0.2781 -0.2691  0.0004
16166TIP3    H269990   1.849   2.870   0.973 -0.1074 -0.5751 -0.9772
16167TIP3   OH269991   3.965   3.517   2.523  0.5432  0.0094 -0.1985
16167TIP3    H169992   3.936   3.534   2.433  0.8530 -0.0161 -0.3062
16167TIP3    H269993   3.885   3.517   2.575  0.2069 -1.2516 -0.6697
16168TIP3   OH269994   4.825   0.472   4.304  0.1669  0.0824  0.0095
16168TIP3    H169995   4.792   0.454   4.216 -1.5664  0.7108  0.5010
16168TIP3    H269996   4.890   0.403   4.319  0.4598 -0.0655 -1.7282
16169TIP3   OH269997   0.777   6.206   3.963 -0.5064 -0.2866 -0.1320
16169TIP3    H169998   0.757   6.161   3.881 -1.4228 -0.4644  0.1886
16169TIP3    H269999   0.721   6.284   3.962  0.6867  0.6092 -0.4436
16170TIP3   OH270000   1.726   2.191  15.894 -0.3622  0.3059  0.0943
16170TIP3    H170001   1.689   2.279  15.896 -0.5116  0.2411  0.2858
16170TIP3    H270002   1.659   2.138  15.851  0.0796  0.4393 -0.7926
16171TIP3   OH270003   1.998   5.136  12.801 -0.0601  0.5161 -0.5818
16171TIP3    H170004   2.087   5.105  12.785 -0.4737 -0.3862 -1.2151
16171TIP3    H270005   1.997   5.225  12.766  1.4077  1.7105  2.0848
16172TIP3   OH270006   4.375   3.309  16.056  0.2026 -0.1500 -0.7905
16172TIP3    H170007   4.296   3.257  16.069  0.1390 -0.6508 -2.7773
16172TIP3    H270008   4.346   3.400  16.062  0.2759 -0.2299  2.5046
16173TIP3   OH270009   1.147   0.927   5.987  0.1690  0.2175  0.0080
16173TIP3    H170010   1.216   0.868   5.958 -0.1906  0.0932 -0.6113
16173TIP3    H270011   1.187   1.014   5.985  0.7086  0.0072  0.9554
16174TIP3   OH270012   1.947   3.202   3.917 -0.2714  0.1322  0.2348
16174TIP3    H170013   1.965   3.148   3.840  0.1461 -0.3387  0.6623
16174TIP3    H270014   2.023   3.259   3.925  0.8745 -1.4909  1.7232
16175TIP3   OH270015   0.882   0.610   1.047 -0.1639 -0.6801 -0.5035
16175TIP3    H170016   0.867   0.532   0.993 -0.9073  0.6361 -2.2779
16175TIP3    H270017   0.976   0.608   1.065 -0.2142 -2.1199 -0.2640
16176TIP3   OH270018   2.757   3.816   1.484 -0.4195  0.1701  0.5906
16176TIP3    H170019   2.795   3.731   1.464  0.4317  0.5070  0.7548
16176TIP3    H270020   2.804   3.846   1.562  0.9464  1.8192 -0.7937
16177TIP3   OH270021   2.632   2.721   1.500  0.3106 -0.0440  0.1183
16177TIP3    H170022   2.568   2.747   1.434 -0.8895  0.7538  1.5308
16177TIP3    H270023   2.586   2.655   1.553  1.1620 -0.4873  0.3203
16178TIP3   OH270024   2.727   3.752   1.081 -0.5900 -0.0188 -0.0350
16178TIP3    H170025   2.697   3.779   1.168  0.0911  1.3730 -0.2126
16178TIP3    H270026   2.727   3.833   1.029 -0.4268 -0.7283 -1.1724
16179TIP3   OH270027   4.331   5.599   5.795 -0.1947  0.5071  0.3082
16179TIP3    H170028   4.355   5.614   5.887 -0.0965  0.5750  0.2722
16179TIP3    H270029   4.262   5.663   5.778 -1.3400 -0.5804  0.7911
16180TIP3   OH270030   0.186   6.563   4.304 -0.3209  0.0281  0.0110
16180TIP3    H170031   0.153   6.653   4.312  0.8236  0.4264  0.5346
16180TIP3    H270032   0.218   6.542   4.392  1.1371 -0.1848 -0.5468
16181TIP3   OH270033   0.124   6.102  14.315 -0.2301 -0.0752 -0.0816
16181TIP3    H170034   0.140   6.138  14.402  0.5069 -0.0815 -0.2123
16181TIP3    H270035   0.173   6.020  14.314  1.5947  0.9564 -1.2423
16182TIP3   OH270036   6.528   2.027   4.346 -0.0926 -0.4699 -0.0798
16182TIP3    H170037   6.565   2.060   4.428  1.4381 -0.7124 -0.6501
16182TIP3    H270038   6.449   2.080   4.333 -0.9611 -1.1028  2.0558
16183TIP3   OH270039   2.262   2.402  13.517  0.4212 -0.2695  0.0213
16183TIP3    H170040   2.320   2.400  13.593 -0.6468 -2.6508  0.8803
16183TIP3    H270041   2.183   2.446  13.548  0.3589 -0.3664  0.0015
16184TIP3   OH270042   5.214   0.358   0.005 -0.4992  0.1916  0.2501
16184TIP3    H170043   5.188   0.427   0.065  2.0403  1.0966  0.4382
16184TIP3    H270044   5.282   0.398  -0.050 -0.9073 -1.3573 -1.5123
16185TIP3   OH270045   5.136   2.078   3.234 -0.3559 -0.6479 -0.0961
16185TIP3    H170046   5.184   2.012   3.185 -0.8303 -2.3281  1.6142
16185TIP3    H270047   5.196   2.105   3.303 -1.4013 -1.9668  1.3891
16186TIP3   OH270048   5.624   3.102   4.459 -0.0519 -0.2245 -0.0517
16186TIP3    H170049   5.530   3.110   4.445  0.0722  0.8352 -0.3797
16186TIP3    H270050   5.634   3.029   4.521 -1.0460 -0.6644 -0.3934
16187TIP3   OH270051   2.938   5.493  14.459 -0.0810 -0.2811  0.0151
16187TIP3    H170052   2.956   5.400  14.450  1.9548  0.1009 -0.5429
16187TIP3    H270053   3.025   5.533  14.471 -0.5076  1.7961 -2.6274
16188TIP3   OH270054   3.464   6.618  16.872 -0.1232 -0.5697  0.7630
16188TIP3    H170055   3.420   6.544  16.830 -1.2707  0.7801 -0.5653
16188TIP3    H270056   3.396   6.658  16.927 -0.9771  1.9299 -1.8223
16189TIP3   OH270057   1.593   3.470   2.586 -0.1659  0.3043  0.4811
16189TIP3    H170058   1.603   3.490   2.679  0.1820  1.4138  0.2205
16189TIP3    H270059   1.659   3.403   2.569  0.0281  0.3707  0.9526
16190TIP3   OH270060   5.714   6.527  15.279 -0.2135 -0.5030  0.4463
16190TIP3    H170061   5.724   6.613  15.320 -2.2254 -0.2981  0.6209
16190TIP3    H270062   5.763   6.468  15.336 -0.5515  0.2271  1.5329
16191TIP3   OH270063   1.727   2.849   2.037 -0.2864  0.7370  0.2930
16191TIP3    H170064   1.728   2.789   2.111  0.1586 -0.1393 -0.3913
16191TIP3    H270065   1.731   2.936   2.075 -1.9535  0.3849  1.3546
16192TIP3   OH270066   2.948   0.843  11.105  0.3752 -0.2182  0.4109
16192TIP3    H170067   2.904   0.869  11.024  1.6053  0.4080 -0.0886
16192TIP3    H270068   3.035   0.814  11.077  1.1602  0.8864  1.5782
16193TIP3   OH270069   5.809   1.010   4.070 -0.1236 -0.4099 -0.0951
16193TIP3    H170070   5.860   0.958   4.131 -0.7898 -1.5204 -0.4577
16193TIP3    H270071   5.720   0.974   4.076 -0.3743  0.0062 -1.1129
16194TIP3   OH270072   3.392   4.628   4.777  0.3137 -0.2140  0.0788
16194TIP3    H170073   3.413   4.637   4.684 -0.8788  1.4232 -0.0922
16194TIP3    H270074   3.296   4.630   4.780  0.3366  1.2902  1.4098
16195TIP3   OH270075   5.319   2.155  15.818  0.1323  0.3084  0.0295
16195TIP3    H170076   5.337   2.062  15.805 -0.3998 -0.0903  1.8795
16195TIP3    H270077   5.345   2.196  15.735  0.8788 -1.4002 -0.6326
16196TIP3   OH270078   2.850   2.455   3.414 -0.5618  0.0013  0.3898
16196TIP3    H170079   2.935   2.495   3.437 -0.2082 -1.2969  1.5133
16196TIP3    H270080   2.856   2.438   3.320  1.1468 -1.6264  0.7366
16197TIP3   OH270081   0.017   1.181  17.402 -0.6477  0.2332  0.0327
16197TIP3    H170082  -0.036   1.110  17.366  0.6336 -0.9065  0.2994
16197TIP3    H270083   0.063   1.217  17.327 -0.4788  0.0433  0.0420
16198TIP3   OH270084   0.018   5.728  15.995  0.5170 -0.2721 -0.0441
16198TIP3    H170085  -0.009   5.737  16.086 -0.3167  0.0723 -0.3178
16198TIP3    H270086  -0.041   5.786  15.946  1.3143 -0.0244 -0.7415
16199TIP3   OH270087   3.572   5.883  15.010  0.1965 -1.2094  0.4218
16199TIP3    H170088   3.540   5.825  14.940 -0.6090 -1.3822  0.9284
16199TIP3    H270089   3.519   5.861  15.086  0.2947 -0.2152  0.7865
16200TIP3   OH270090   2.596   6.040   1.229  0.2717 -0.1535 -0.1683
16200TIP3    H170091   2.542   5.963   1.249  0.7073 -0.8828 -1.6395
16200TIP3    H270092   2.575   6.060   1.138  0.7956  0.9656 -0.0536
16201TIP3   OH270093   0.804   1.152   0.535  0.3944  0.5543 -0.1195
16201TIP3    H170094   0.837   1.160   0.446  0.9408 -0.4916 -0.0176
16201TIP3    H270095   0.709   1.157   0.526  0.4836  1.5672 -0.6272
16202TIP3   OH270096   0.208   2.049  13.322 -0.0166 -0.0517 -0.2844
16202TIP3    H170097   0.297   2.015  13.314  0.2139 -0.2437  2.1246
16202TIP3    H270098   0.205   2.125  13.265  0.7588 -1.6887 -2.6364
16203TIP3   OH270099   5.732   1.311   2.724 -0.5072  0.0214 -0.8207
16203TIP3    H170100   5.658   1.268   2.680 -1.1151  0.3667 -0.1583
16203TIP3    H270101   5.693   1.387   2.767  0.1815  0.0221 -0.1853
16204TIP3   OH270102   6.088   6.402   1.617  0.4075 -0.1931 -0.5957
16204TIP3    H170103   6.051   6.457   1.685  0.0741  0.0619 -0.9772
16204TIP3    H270104   6.033   6.323   1.616  0.3390 -0.1449 -0.6495
16205TIP3   OH270105   2.969   5.244   1.286  0.0686  0.0541  0.2487
16205TIP3    H170106   2.947   5.199   1.204  0.3511  1.3739 -0.5839
16205TIP3    H270107   2.884   5.265   1.325 -0.0831  0.1411 -0.1181
16206TIP3   OH270108   4.923   5.182  17.291 -0.2201 -0.3572 -0.0303
16206TIP3    H170109   4.890   5.263  17.252 -2.3664 -0.7563  0.7934
16206TIP3    H270110   4.844   5.134  17.317  1.0354 -1.8674  1.2220
16207TIP3   OH270111   1.546   6.478  14.834  0.3432  0.2659  0.6009
16207TIP3    H170112   1.517   6.389  14.813  0.0569  0.6020 -0.5009
16207TIP3    H270113   1.634   6.484  14.796  0.8093  0.1091  1.6263
16208TIP3   OH270114   2.592   0.371  10.686 -0.7333 -0.5546  0.5131
16208TIP3    H170115   2.511   0.323  10.673  0.3756 -1.6236 -5.8805
16208TIP3    H270116   2.661   0.307  10.667  1.2472  1.6975 -0.3943
16209TIP3   OH270117   1.205   2.806  14.804 -0.8425 -0.3835 -0.2424
16209TIP3    H170118   1.151   2.748  14.750 -2.7490 -0.1001  1.2725
16209TIP3    H270119   1.274   2.749  14.839  1.6461 -0.2760 -4.2136
16210TIP3   OH270120   3.993   1.321  16.161 -0.4373 -0.3158 -0.5059
16210TIP3    H170121   3.979   1.408  16.199  1.2720  0.5273 -1.6738
16210TIP3    H270122   3.919   1.309  16.102 -0.0739  0.9330 -1.2670
16211TIP3   OH270123   1.555   3.370  11.845  0.1085 -0.6945  0.3732
16211TIP3    H170124   1.584   3.345  11.933  0.6098  0.5721  0.5962
16211TIP3    H270125   1.480   3.428  11.860  0.8140  0.3351  0.0256
16212TIP3   OH270126   4.126   2.371   0.640 -0.6544  0.0300  0.8115
16212TIP3    H170127   4.071   2.429   0.692  0.3089  1.5456  0.2266
16212TIP3    H270128   4.129   2.289   0.689 -2.8983  0.0878  1.1515
16213TIP3   OH270129   3.368   6.408  10.722 -0.3089 -0.1518  0.6354
16213TIP3    H170130   3.364   6.346  10.650  0.0498  0.1547  0.3483
16213TIP3    H270131   3.290   6.463  10.711 -0.2963 -0.1561  0.5317
16214TIP3   OH270132   6.018   0.540   3.127  0.6703  0.0149  0.4907
16214TIP3    H170133   5.954   0.596   3.083  0.6915  0.6269  1.1986
16214TIP3    H270134   6.026   0.463   3.071  0.3515  0.5547 -0.3167
16215TIP3   OH270135   0.273   4.592  15.034  0.7051 -0.9219 -0.2285
16215TIP3    H170136   0.293   4.680  15.066  0.3024 -0.6984 -0.5724
16215TIP3    H270137   0.313   4.588  14.947  1.8014 -1.5294  0.2857
16216TIP3   OH270138   0.916   4.309  14.829 -0.5930 -0.5680  0.1490
16216TIP3    H170139   1.003   4.323  14.866 -1.3958 -0.3207  2.0288
16216TIP3    H270140   0.872   4.251  14.891 -1.7008 -0.8755 -0.8881
16217TIP3   OH270141   1.815   0.693  15.109 -0.2645 -0.1108 -0.1359
16217TIP3    H170142   1.825   0.698  15.204 -2.5275 -1.0040  0.2197
16217TIP3    H270143   1.834   0.782  15.078 -1.6693  0.7832  1.4253
16218TIP3   OH270144   0.800   5.344   0.849  0.0571 -0.0935  0.8885
16218TIP3    H170145   0.793   5.343   0.944 -1.3015  2.2667  0.8827
16218TIP3    H270146   0.771   5.431   0.823 -1.5466 -1.2903 -1.8322
16219TIP3   OH270147   1.558   5.784   3.249  0.5770  0.3503 -0.0632
16219TIP3    H170148   1.519   5.798   3.163  0.7831 -0.6295 -0.3302
16219TIP3    H270149   1.637   5.733   3.231  0.5196 -0.0293  0.7130
16220TIP3   OH270150   5.939   2.924  16.533 -0.1022  0.6425  0.3989
16220TIP3    H170151   6.001   2.972  16.589 -0.3662  0.8586  0.5116
16220TIP3    H270152   5.863   2.909  16.590  0.0988 -0.1829  0.4595
16221TIP3   OH270153   6.555   2.472  17.381 -0.1078  0.0906 -0.0756
16221TIP3    H170154   6.479   2.524  17.354  0.3855  0.1146 -1.4833
16221TIP3    H270155   6.536   2.383  17.349  0.2809  0.0157 -0.1070
16222TIP3   OH270156   2.737   2.509  16.541 -0.3846 -0.0833 -0.0222
16222TIP3    H170157   2.678   2.449  16.495 -0.7366  0.6110 -0.4983
16222TIP3    H270158   2.824   2.473  16.526 -0.5795 -0.4017 -0.4243
16223TIP3   OH270159   1.737   3.423  12.906  0.2797 -0.1775  0.7011
16223TIP3    H170160   1.761   3.335  12.937 -1.3851 -0.8125  0.2843
16223TIP3    H270161   1.702   3.408  12.818 -0.1101  0.8984  0.6670
16224TIP3   OH270162   1.307   3.607   4.669 -0.3302 -0.1384 -0.7211
16224TIP3    H170163   1.332   3.531   4.616  0.1030  1.1994 -2.5222
16224TIP3    H270164   1.226   3.639   4.629 -0.3648  0.5166 -0.1496
16225TIP3   OH270165   0.201   6.340   5.063 -0.5050 -0.0595  0.3142
16225TIP3    H170166   0.214   6.360   5.156 -0.4388 -0.2318  0.3430
16225TIP3    H270167   0.279   6.375   5.020 -0.6465  0.2289  0.2928
16226TIP3   OH270168   5.725   3.121   5.798  1.2445  0.0542 -0.7194
16226TIP3    H170169   5.739   3.028   5.813 -0.6272 -0.4018 -1.4804
16226TIP3    H270170   5.712   3.129   5.704 -0.1894  0.8217 -0.4866
16227TIP3   OH270171   3.580   2.353  14.761 -0.1006 -0.2918  0.0554
16227TIP3    H170172   3.570   2.448  14.747 -0.6613 -0.3354  0.1378
16227TIP3    H270173   3.612   2.345  14.850 -0.3241 -0.1929  0.1446
16228TIP3   OH270174   6.162   2.982   0.200 -0.4037 -0.0747 -0.1631
16228TIP3    H170175   6.231   2.983   0.267  0.0919  2.3623 -0.6099
16228TIP3    H270176   6.098   2.919   0.233  0.2703  0.3426  2.1592
16229TIP3   OH270177   4.290   2.631  14.710  0.2888  0.1093 -0.4015
16229TIP3    H170178   4.287   2.587  14.625 -0.7905 -1.5791  0.4400
16229TIP3    H270179   4.250   2.568  14.770  0.6609  1.4205  1.2902
16230TIP3   OH270180   4.321   1.823   6.897 -0.4207  0.0557 -0.2547
16230TIP3    H170181   4.241   1.814   6.846  0.0684 -1.0652 -0.8652
16230TIP3    H270182   4.314   1.910   6.937 -2.2243 -0.2627  0.2232
16231TIP3   OH270183   1.695   0.884  13.136 -0.0160  0.8945 -0.1756
16231TIP3    H170184   1.620   0.921  13.182  0.1428  0.3363  0.5419
16231TIP3    H270185   1.757   0.860  13.205  1.3694  2.4858 -0.8015
16232TIP3   OH270186   3.443   4.735   3.111  0.2239  0.0908  0.1301
16232TIP3    H170187   3.476   4.747   3.022 -0.3469  0.1585 -0.0774
16232TIP3    H270188   3.357   4.696   3.099  0.3706 -0.4144  0.6737
16233TIP3   OH270189   2.572   3.891   2.407  0.0345  0.4463 -0.2943
16233TIP3    H170190   2.477   3.875   2.403  0.0975 -0.4795  1.1839
16233TIP3    H270191   2.584   3.949   2.482  0.6531  0.4312 -0.3747
16234TIP3   OH270192   0.008   5.800   3.686 -0.0072 -0.1958  0.0218
16234TIP3    H170193  -0.003   5.870   3.751 -1.8102  0.5390 -0.9631
16234TIP3    H270194   0.066   5.737   3.727 -1.0425  0.2565  2.3227
16235TIP3   OH270195   5.690   5.946  10.808  0.3152 -0.1178 -0.2728
16235TIP3    H170196   5.782   5.950  10.782  0.4313 -0.6530  0.0268
16235TIP3    H270197   5.688   5.881  10.878 -0.3993 -0.6259 -0.7476
16236TIP3   OH270198   6.422   5.030   5.893  0.4541  0.2140  0.1176
16236TIP3    H170199   6.397   4.989   5.811  0.6456 -0.9211  0.6039
16236TIP3    H270200   6.472   5.107   5.868  0.5781 -0.1655 -0.8288
16237TIP3   OH270201   3.126   2.440   4.394 -0.1869  0.3751 -0.0130
16237TIP3    H170202   3.217   2.432   4.364 -0.0635  1.8799 -0.0870
16237TIP3    H270203   3.094   2.521   4.355 -1.8867 -0.5943 -0.7428
16238TIP3   OH270204   1.075   5.570   3.153 -0.1352 -0.2729  0.4240
16238TIP3    H170205   1.099   5.495   3.207 -1.7738 -1.3456 -0.2647
16238TIP3    H270206   1.024   5.532   3.081  1.7800  1.0996 -1.8169
16239TIP3   OH270207   4.902   3.734   5.607  0.1782 -0.3806  0.4331
16239TIP3    H170208   4.850   3.755   5.685  0.5497  0.9967  0.3299
16239TIP3    H270209   4.960   3.664   5.636  0.4364  0.2274  1.4624
16240TIP3   OH270210   1.239   4.333  13.275 -0.0733 -0.1550 -0.4617
16240TIP3    H170211   1.307   4.337  13.208 -0.9382 -1.9088 -1.5133
16240TIP3    H270212   1.177   4.402  13.250 -0.0999 -0.4183 -1.1299
16241TIP3   OH270213   4.143   5.380   5.737  0.2567 -0.2804  0.6043
16241TIP3    H170214   4.185   5.463   5.759 -1.4244  0.7484  0.1103
16241TIP3    H270215   4.065   5.377   5.794 -0.4760 -0.8140 -0.3930
16242TIP3   OH270216   3.271   1.110  14.452  0.1315 -0.1749 -0.2032
16242TIP3    H170217   3.298   1.201  14.468 -1.7940  0.3938  0.0530
16242TIP3    H270218   3.353   1.062  14.443  1.2022  1.4630  0.3623
16243TIP3   OH270219   2.422   0.973  12.108  0.1465 -0.5563  0.6499
16243TIP3    H170220   2.410   0.880  12.123  1.7716 -0.7007  1.1449
16243TIP3    H270221   2.515   0.984  12.087 -0.6657  0.4122 -3.6318
16244TIP3   OH270222   0.442   0.065   0.428 -0.7173 -0.2936 -0.0718
16244TIP3    H170223   0.532   0.095   0.444 -1.0491  0.1960  1.0029
16244TIP3    H270224   0.395   0.089   0.508 -1.6040 -1.3515 -0.2614
16245TIP3   OH270225   3.931   3.993  16.922 -0.1909 -0.0632  0.6040
16245TIP3    H170226   3.968   3.910  16.953 -0.2507 -0.3738 -0.1293
16245TIP3    H270227   3.970   4.005  16.835 -2.1315 -0.6189 -0.3872
16246TIP3   OH270228   5.717   2.287  16.607 -0.5121  0.0239 -0.1059
16246TIP3    H170229   5.802   2.243  16.612 -1.0567 -0.9439  1.7963
16246TIP3    H270230   5.724   2.359  16.670 -1.2934 -0.4814  0.5858
16247TIP3   OH270231   6.547   0.195   6.251  0.4179 -0.2528  0.0398
16247TIP3    H170232   6.582   0.158   6.170  1.1665  0.3556  0.0735
16247TIP3    H270233   6.452   0.194   6.239  0.4095 -2.0440 -0.0154
16248TIP3   OH270234   3.360   6.348   2.919 -0.7510 -0.3142  0.0167
16248TIP3    H170235   3.423   6.368   2.849  0.1095 -2.7516 -0.0081
16248TIP3    H270236   3.406   6.370   2.999 -0.7891  0.1595 -0.0898
16249TIP3   OH270237   5.050   0.028  13.465  0.1437 -0.3833 -0.4111
16249TIP3    H170238   4.965  -0.008  13.440  0.5717 -0.7582 -1.3758
16249TIP3    H270239   5.079  -0.028  13.538  0.5253 -1.6529 -1.4950
16250TIP3   OH270240   3.882   0.694   0.509  0.6155  0.5325  0.4647
16250TIP3    H170241   3.967   0.727   0.479  0.6145  0.2831  0.1732
16250TIP3    H270242   3.904   0.627   0.574  0.5899  2.0819  2.1330
16251TIP3   OH270243   1.597   2.117   0.878  0.4833  0.2490  0.6712
16251TIP3    H170244   1.629   2.107   0.968 -0.5938  0.4860  1.1036
16251TIP3    H270245   1.551   2.035   0.859 -1.8738  1.2990  1.4699
16252TIP3   OH270246   5.157   6.137   1.993  0.3533 -0.1588 -0.5604
16252TIP3    H170247   5.119   6.076   2.057  0.4976  1.5708  1.2683
16252TIP3    H270248   5.250   6.113   1.991  0.2856 -0.4495 -0.3793
16253TIP3   OH270249   5.553   1.404  11.350 -0.2803  0.4451 -0.1764
16253TIP3    H170250   5.586   1.314  11.349 -2.3234 -0.4067  1.5702
16253TIP3    H270251   5.545   1.428  11.258 -0.9440 -1.6695 -0.7077
16254TIP3   OH270252   5.206   5.407   0.977 -0.0945  0.4701 -0.5656
16254TIP3    H170253   5.245   5.405   0.890  2.4526 -0.9509  0.4813
16254TIP3    H270254   5.235   5.491   1.014  0.5571  0.1831 -0.4057
16255TIP3   OH270255   5.501   4.216  12.676  0.0217  0.6016 -0.2419
16255TIP3    H170256   5.565   4.277  12.711  2.7335 -2.0952 -0.0356
16255TIP3    H270257   5.422   4.229  12.730  1.2808  2.2161  1.3114
16256TIP3   OH270258   2.893   6.620  13.596 -0.0666  0.1533 -0.4036
16256TIP3    H170259   2.854   6.565  13.529 -0.2301 -0.5821  0.2789
16256TIP3    H270260   2.955   6.563  13.641 -0.4132  0.4490  0.4719
16257TIP3   OH270261   0.501   4.355  11.700  0.4733  0.3382  0.4827
16257TIP3    H170262   0.595   4.372  11.693  0.3207  0.7960 -0.6806
16257TIP3    H270263   0.461   4.421  11.643 -0.3060 -2.4143 -2.4100
16258TIP3   OH270264   0.625   3.722  12.930  0.0517 -0.0542  0.4546
16258TIP3    H170265   0.706   3.671  12.925  0.0070 -0.0779 -0.1764
16258TIP3    H270266   0.590   3.703  13.017  0.9960  0.3844  0.9453
16259TIP3   OH270267   2.831   3.072   4.861 -0.2277 -0.1738 -0.4565
16259TIP3    H170268   2.915   3.032   4.882  0.1834  1.5976  1.6079
16259TIP3    H270269   2.776   2.999   4.832  1.0502 -1.8868  1.2099
16260TIP3   OH270270   1.644   4.229  12.160  0.1972 -0.0079  0.2223
16260TIP3    H170271   1.722   4.214  12.213  0.1299 -3.3410 -0.4143
16260TIP3    H270272   1.671   4.292  12.093  2.1292 -0.5045  0.4983
16261TIP3   OH270273   4.556   1.759  13.922  0.1128  0.1966  0.5374
16261TIP3    H170274   4.491   1.713  13.868 -0.8781  1.7670  0.3059
16261TIP3    H270275   4.618   1.691  13.948 -1.2939 -1.2615  0.2750
16262TIP3   OH270276   2.928   3.892   3.423 -0.0394 -0.3139 -0.3387
16262TIP3    H170277   2.878   3.844   3.357 -0.5147  1.6248 -1.4583
16262TIP3    H270278   2.892   3.862   3.506 -1.4436 -0.6925 -1.0529
16263TIP3   OH270279   6.167   4.741   5.103  0.1740 -0.1389 -0.0302
16263TIP3    H170280   6.089   4.691   5.126  0.2184 -0.2952 -0.2145
16263TIP3    H270281   6.136   4.831   5.090  0.3944  0.3386  2.2615
16264TIP3   OH270282   6.116   2.141   1.790 -0.7155  0.6147 -0.2504
16264TIP3    H170283   6.149   2.087   1.719  0.5553 -0.1727  0.8896
16264TIP3    H270284   6.164   2.224   1.782 -1.3357  0.9289 -0.8988
16265TIP3   OH270285   2.332   1.142   0.794  0.2871  0.2062  0.2399
16265TIP3    H170286   2.383   1.084   0.850 -0.0143 -1.2727 -0.9662
16265TIP3    H270287   2.387   1.219   0.783  1.2507 -0.3767  0.8558
16266TIP3   OH270288   5.149   2.024  14.322  0.2921  0.3921 -0.2829
16266TIP3    H170289   5.210   2.097  14.312  0.8760 -0.0367  0.0586
16266TIP3    H270290   5.071   2.050  14.273  1.2073  0.4443 -1.7830
16267TIP3   OH270291   3.292   2.512  12.074 -0.2711 -0.0813  0.4689
16267TIP3    H170292   3.362   2.482  12.131 -0.2612 -2.9111 -0.8853
16267TIP3    H270293   3.268   2.598  12.108  0.7742 -0.9697  3.7331
16268TIP3   OH270294   1.959   4.363   1.952  0.1350  0.3943  0.1406
16268TIP3    H170295   2.035   4.421   1.960  0.5326  0.0327 -0.8832
16268TIP3    H270296   1.954   4.343   1.858 -0.5321 -0.5067  0.3587
16269TIP3   OH270297   5.509   4.282  17.382 -0.4750  0.9761  0.0940
16269TIP3    H170298   5.432   4.226  17.388 -0.4096  0.9492  0.8210
16269TIP3    H270299   5.490   4.356  17.440  0.0563  0.9539  0.3079
16270TIP3   OH270300   0.688   1.703  17.002 -0.2022  0.0286 -0.5487
16270TIP3    H170301   0.603   1.742  16.980  0.3299  2.0169  0.6055
16270TIP3    H270302   0.668   1.644  17.075 -0.4718  1.3151  0.4507
16271TIP3   OH270303   3.876   3.857  15.520 -0.3473  0.0799 -0.2486
16271TIP3    H170304   3.933   3.780  15.513 -0.2307  0.2038 -0.6623
16271TIP3    H270305   3.789   3.821  15.534 -0.4297 -0.1560 -1.3089
16272TIP3   OH270306   0.951   2.352   4.080  0.3394 -0.3659  0.1138
16272TIP3    H170307   0.886   2.423   4.074  1.1600  0.6379  2.2659
16272TIP3    H270308   0.911   2.280   4.032 -2.0269  0.4631  0.6747
16273TIP3   OH270309   4.185   6.042  16.479  0.1485 -0.1867  0.1735
16273TIP3    H170310   4.228   6.115  16.524 -0.8588  2.2247 -2.4402
16273TIP3    H270311   4.092   6.062  16.484 -0.3324 -2.2786  0.8066
16274TIP3   OH270312   5.288   6.083   3.132 -0.3301  0.1796 -0.4276
16274TIP3    H170313   5.296   5.992   3.162  2.3257  0.4666  0.0403
16274TIP3    H270314   5.215   6.119   3.182 -0.5428 -1.3365  0.4097
16275TIP3   OH270315   3.940   0.312  17.229  0.5380  0.6170  0.4583
16275TIP3    H170316   3.915   0.309  17.321  1.5592 -2.2119  0.7123
16275TIP3    H270317   4.033   0.334  17.229  0.4538  1.0144  0.0375
16276TIP3   OH270318   6.136   0.086  14.504  0.9268  0.4383  0.4882
16276TIP3    H170319   6.090   0.010  14.468  0.5160  1.0494 -0.3074
16276TIP3    H270320   6.215   0.093  14.450  1.5072 -0.0600  1.2592
16277TIP3   OH270321   1.793   6.482  14.711 -0.0538 -0.4863 -0.0220
16277TIP3    H170322   1.860   6.508  14.774  0.4525  0.6084 -0.9552
16277TIP3    H270323   1.829   6.404  14.668 -0.8452 -1.8340  1.6864
16278TIP3   OH270324   1.998   1.012   5.217 -0.5208 -0.1162  0.0523
16278TIP3    H170325   2.041   0.933   5.248 -1.6798 -0.8074 -0.0295
16278TIP3    H270326   1.904   0.994   5.227 -0.8521  0.6507 -1.3928
16279TIP3   OH270327   6.340   0.516   2.622  0.2471 -0.1642 -0.0703
16279TIP3    H170328   6.300   0.523   2.535  0.4444 -0.7116 -0.2081
16279TIP3    H270329   6.266   0.522   2.682 -0.0998 -1.4953 -0.3328
16280TIP3   OH270330   2.151   4.877   6.222 -0.1149 -0.2050  0.2094
16280TIP3    H170331   2.104   4.861   6.304  0.2650 -1.3856  0.2137
16280TIP3    H270332   2.242   4.892   6.249 -0.2770  1.0923  0.1205
16281TIP3   OH270333   4.531   5.513  11.021  0.3743 -0.0176  0.7607
16281TIP3    H170334   4.519   5.569  10.944 -0.6097 -1.8896 -0.5389
16281TIP3    H270335   4.460   5.449  11.015  1.0905 -1.0441  2.5098
16282TIP3   OH270336   3.678   0.956   1.546 -0.3361 -0.2829  0.2364
16282TIP3    H170337   3.757   0.926   1.501 -0.4543  0.8109 -0.7387
16282TIP3    H270338   3.650   1.033   1.497 -1.6298 -0.2515  0.9798
16283TIP3   OH270339   4.980   2.743   5.236  0.1419 -0.1852  0.3080
16283TIP3    H170340   4.909   2.712   5.179  0.0029  0.8769 -0.1367
16283TIP3    H270341   5.059   2.736   5.182  0.5585 -2.1778  1.0891
16284TIP3   OH270342   6.096   3.437  17.440 -0.3502  0.6764  0.4931
16284TIP3    H170343   6.124   3.454  17.350 -2.7079  1.8062 -0.0922
16284TIP3    H270344   6.052   3.518  17.468 -0.0459  0.2039  2.5329
16285TIP3   OH270345   3.235   1.052   2.259 -0.1080  0.1037  0.5068
16285TIP3    H170346   3.235   1.057   2.163  2.6654  0.9545  0.4506
16285TIP3    H270347   3.280   0.971   2.279 -1.7226 -0.6740  1.1554
16286TIP3   OH270348   3.969   0.771  17.142 -0.1248 -0.1069 -0.2824
16286TIP3    H170349   4.027   0.698  17.118  0.5834  0.2148  0.4321
16286TIP3    H270350   4.022   0.849  17.130  0.0493  0.1178  1.6602
16287TIP3   OH270351   5.606   0.309  14.867 -0.2046  1.2317 -0.2723
16287TIP3    H170352   5.567   0.343  14.787  1.2099  0.8261 -1.1723
16287TIP3    H270353   5.626   0.218  14.847 -0.2510  1.0013  0.7037
16288TIP3   OH270354   5.730   1.599   2.171  0.3634  0.3643 -0.6575
16288TIP3    H170355   5.805   1.621   2.225  0.6785  1.5178 -1.5196
16288TIP3    H270356   5.765   1.597   2.081 -0.3974 -0.2438 -0.9537
16289TIP3   OH270357   2.095   1.449   5.939 -0.1601  0.7455  0.1950
16289TIP3    H170358   2.090   1.457   6.035  1.8561  3.0092  0.2031
16289TIP3    H270359   2.152   1.521   5.912 -1.6246  0.9082 -2.8644
16290TIP3   OH270360   2.158   0.519   1.032  0.1608  0.1276  0.1912
16290TIP3    H170361   2.079   0.465   1.021 -0.0967  0.3119  1.0871
16290TIP3    H270362   2.228   0.455   1.048  0.3085 -0.0689 -1.1635
16291TIP3   OH270363   5.768   6.297  11.535  0.3058  0.2653  0.0030
16291TIP3    H170364   5.801   6.320  11.621  0.2576 -0.3716  0.1912
16291TIP3    H270365   5.828   6.340  11.474 -0.9605  2.6735  0.3150
16292TIP3   OH270366   0.038   4.509  12.487  0.2099  0.1719  0.0639
16292TIP3    H170367   0.115   4.507  12.430 -0.6349 -2.3265 -1.1265
16292TIP3    H270368  -0.036   4.525  12.428 -0.3992  0.7360  0.9429
16293TIP3   OH270369   0.077   2.853  12.947 -0.5009 -0.3443 -0.1032
16293TIP3    H170370   0.168   2.863  12.920 -0.1629 -0.3972  0.9630
16293TIP3    H270371   0.079   2.861  13.043 -1.7334  0.4993 -0.1191
16294TIP3   OH270372   3.624   4.441  10.238 -0.2389 -0.3172 -1.1145
16294TIP3    H170373   3.553   4.462  10.177 -2.2082 -0.8217  0.8767
16294TIP3    H270374   3.604   4.352  10.268 -0.2607  0.4895  1.4331
16295TIP3   OH270375   2.745   3.284   3.777  0.0300 -0.1866 -0.2089
16295TIP3    H170376   2.810   3.227   3.735 -0.3632  0.2021 -1.3866
16295TIP3    H270377   2.672   3.226   3.798  0.3267 -0.4286  0.1678
16296TIP3   OH270378   6.504   0.887  10.635  0.1718  0.0168  0.3181
16296TIP3    H170379   6.521   0.797  10.664  3.3064  0.2973 -0.2992
16296TIP3    H270380   6.437   0.878  10.567 -1.0146 -1.5774  1.6166
16297TIP3   OH270381   1.599   6.511   3.184 -0.3662  0.3596  0.4078
16297TIP3    H170382   1.554   6.426   3.188  1.1231 -0.4648  0.4459
16297TIP3    H270383   1.666   6.505   3.252 -0.8884  1.9824  1.1008
16298TIP3   OH270384   3.342   5.403   5.878  0.0008 -0.5557 -0.6612
16298TIP3    H170385   3.344   5.499   5.873  0.1855 -0.5642 -0.7276
16298TIP3    H270386   3.407   5.381   5.945  0.3601 -0.6670 -1.0447
16299TIP3   OH270387   5.702   4.098  13.089  0.0060  0.3900  0.4427
16299TIP3    H170388   5.687   4.031  13.156  1.8392 -0.2700  0.2711
16299TIP3    H270389   5.796   4.116  13.094  0.2147  0.3546 -1.8833
16300TIP3   OH270390   0.176   5.768  16.821 -0.4026  0.0784  0.2811
16300TIP3    H170391   0.213   5.835  16.879  0.9994  0.0662 -0.5533
16300TIP3    H270392   0.165   5.812  16.737 -1.5429 -0.1596  0.2944
16301TIP3   OH270393   2.444   1.355  13.219 -0.2868 -0.1167  0.2893
16301TIP3    H170394   2.351   1.377  13.219 -1.2388 -3.0768 -3.4062
16301TIP3    H270395   2.448   1.266  13.253  1.0577 -0.3549 -0.4022
16302TIP3   OH270396   6.212   5.165   3.356 -0.0102 -0.2838  0.0099
16302TIP3    H170397   6.169   5.090   3.315  1.1348 -0.2624 -1.3200
16302TIP3    H270398   6.178   5.241   3.309 -0.4856 -0.0309  0.7445
16303TIP3   OH270399   5.095   3.976   1.355  0.0675  0.3899  0.7415
16303TIP3    H170400   5.150   3.909   1.313 -2.8431 -2.4462  1.0791
16303TIP3    H270401   5.029   3.997   1.289 -1.6374 -0.4288  2.1226
16304TIP3   OH270402   5.666   4.676  10.903  0.1991  0.1821 -0.3592
16304TIP3    H170403   5.735   4.611  10.915 -0.2240 -0.0693  0.8340
16304TIP3    H270404   5.584   4.628  10.916 -0.1980  0.5369 -1.4647
16305TIP3   OH270405   0.246   6.022   5.461 -0.0909  0.3137 -0.6830
16305TIP3    H170406   0.301   6.058   5.531  0.0785 -0.0636 -0.6233
16305TIP3    H270407   0.295   6.039   5.381 -0.0802  0.3518 -0.6683
16306TIP3   OH270408   3.719   2.293  12.058 -0.0841  0.3490 -0.4774
16306TIP3    H170409   3.769   2.311  11.979  0.0205  1.5075 -0.1691
16306TIP3    H270410   3.784   2.297  12.129 -0.1764 -0.6678 -0.3252
16307TIP3   OH270411   6.642   3.284   0.810  0.1519 -0.6164 -0.1894
16307TIP3    H170412   6.688   3.272   0.893 -0.2253 -0.0191  0.1044
16307TIP3    H270413   6.569   3.341   0.830 -0.2534 -0.8940 -0.8288
16308TIP3   OH270414   5.824   1.709  12.776  0.2521 -0.3849  0.6291
16308TIP3    H170415   5.846   1.747  12.862 -0.8208 -0.5540  0.9884
16308TIP3    H270416   5.892   1.743  12.717  0.5665  0.3424  1.3903
16309TIP3   OH270417   3.729   2.064   3.981 -0.1301  0.1012  0.6225
16309TIP3    H170418   3.659   2.102   4.033  0.5781  0.1278  1.5768
16309TIP3    H270419   3.799   2.046   4.044  1.3482  1.5360 -0.5311
16310TIP3   OH270420   2.501   4.460   1.175 -0.6964 -0.2394  0.1811
16310TIP3    H170421   2.596   4.450   1.170 -0.5637  1.2028 -1.0592
16310TIP3    H270422   2.474   4.473   1.084 -1.9831  0.1935  0.6000
16311TIP3   OH270423   5.827   4.348   5.209  0.1817  0.0729  0.5984
16311TIP3    H170424   5.748   4.351   5.264  0.9408 -0.0812  1.7446
16311TIP3    H270425   5.860   4.259   5.221  0.9451  0.3700  0.7618
16312TIP3   OH270426   3.776   6.665   5.912  0.4437  0.2142  0.8595
16312TIP3    H170427   3.843   6.725   5.945 -0.3119  0.7847  1.3953
16312TIP3    H270428   3.714   6.657   5.984  0.3593 -0.9638  0.6728
16313TIP3   OH270429   2.718   6.448  14.256 -0.1787 -0.3978 -0.3586
16313TIP3    H170430   2.760   6.460  14.341  2.2153  0.7311 -1.6128
16313TIP3    H270431   2.757   6.515  14.200 -2.3995 -0.4696 -2.1393
16314TIP3   OH270432   0.013   5.804  15.195 -0.0545  0.1019  0.1987
16314TIP3    H170433  -0.069   5.852  15.185  0.6671  0.8068 -4.5509
16314TIP3    H270434   0.065   5.857  15.255 -1.5878  1.8809  0.0266
16315TIP3   OH270435   0.902   3.561   0.700 -0.4432  0.4222 -0.0124
16315TIP3    H170436   0.825   3.586   0.648 -0.3119  2.2629  0.6226
16315TIP3    H270437   0.972   3.551   0.636 -1.1996 -1.5028 -0.6291
16316TIP3   OH270438   5.426   1.128  11.770  0.4049 -0.3515  0.2186
16316TIP3    H170439   5.381   1.045  11.781 -0.0187 -0.2776 -0.7847
16316TIP3    H270440   5.517   1.109  11.793  0.3094 -1.0868  0.0260
16317TIP3   OH270441   3.861   0.333  15.177 -0.1652 -0.2562 -0.5855
16317TIP3    H170442   3.904   0.285  15.106 -0.1240  1.2135 -1.6117
16317TIP3    H270443   3.808   0.399  15.132 -0.5947  0.3373  0.7539
16318TIP3   OH270444   6.185   3.016   1.051 -0.3695  0.2635 -0.2993
16318TIP3    H170445   6.206   3.095   1.102  0.6237 -1.8063  2.7612
16318TIP3    H270446   6.268   2.991   1.011 -0.6852  0.6875 -1.2666
16319TIP3   OH270447   1.565   4.642  15.316 -0.0386  0.5111  0.3497
16319TIP3    H170448   1.487   4.697  15.304 -0.6521 -0.6764 -1.4186
16319TIP3    H270449   1.531   4.558  15.346  0.5167 -0.1417 -0.8105
16320TIP3   OH270450   5.827   1.277  14.306  0.5111  0.1732  0.2556
16320TIP3    H170451   5.868   1.308  14.225  0.0615  0.9573  0.3181
16320TIP3    H270452   5.848   1.345  14.371 -1.0095  0.6759  0.2466
16321TIP3   OH270453   5.082   3.926  13.223 -0.2420 -0.4732 -0.1196
16321TIP3    H170454   5.142   4.000  13.216  1.1904 -1.6115 -0.3572
16321TIP3    H270455   4.995   3.965  13.217  0.4880  1.0944 -1.0345
16322TIP3   OH270456   3.500   0.327   1.928  0.2562  0.0810  0.5999
16322TIP3    H170457   3.551   0.272   1.987 -0.8515 -0.9524  0.6204
16322TIP3    H270458   3.427   0.272   1.900 -0.5952  1.3626  0.1995
16323TIP3   OH270459   3.872   0.992  11.522  0.1849 -0.4089  0.4945
16323TIP3    H170460   3.958   0.953  11.542 -0.3056 -1.0876  1.3911
16323TIP3    H270461   3.810   0.940  11.574 -0.6527  0.7448  0.6907
16324TIP3   OH270462   0.194   1.078  15.836 -0.2472 -0.1864  0.5636
16324TIP3    H170463   0.104   1.098  15.861 -0.8485  0.0019 -1.5252
16324TIP3    H270464   0.220   1.151  15.780  1.4952  0.1173  1.6991
16325TIP3   OH270465   3.151   6.538   0.410 -0.3789 -0.1811 -0.2392
16325TIP3    H170466   3.080   6.542   0.474 -0.8844  0.1451 -0.8067
16325TIP3    H270467   3.207   6.613   0.431  0.0485 -0.6850  0.4808
16326TIP3   OH270468   4.374   4.257   4.936 -0.2894  0.0480  0.0612
16326TIP3    H170469   4.442   4.271   4.870 -1.3807 -0.4253 -1.2219
16326TIP3    H270470   4.353   4.344   4.969 -0.1552  0.3687 -0.6812
16327TIP3   OH270471   1.992   3.623  17.235 -0.4602 -0.0074  0.5975
16327TIP3    H170472   1.987   3.618  17.139 -0.2630  0.0127  0.5857
16327TIP3    H270473   2.073   3.672  17.252  0.1462 -1.0500  0.7881
16328TIP3   OH270474   0.679   0.194   0.469  0.0234  0.0829 -0.7622
16328TIP3    H170475   0.691   0.286   0.491 -1.0004  0.3440 -1.2690
16328TIP3    H270476   0.755   0.173   0.414  0.4207  0.5305 -0.3965
16329TIP3   OH270477   0.984   3.796   2.603  0.3909 -0.5160  0.3631
16329TIP3    H170478   0.936   3.740   2.664 -0.4730  0.3465  0.4988
16329TIP3    H270479   0.935   3.790   2.521 -0.2617  0.7547  0.6382
16330TIP3   OH270480   2.346   3.105  14.400  0.4383  0.2861 -0.3177
16330TIP3    H170481   2.432   3.071  14.424  0.3491  0.6780  0.6031
16330TIP3    H270482   2.304   3.033  14.353  0.5878 -0.5664  0.8165
16331TIP3   OH270483   3.350   1.642   0.294  0.0612 -0.6511 -0.0328
16331TIP3    H170484   3.340   1.657   0.200  0.7099  2.2968  0.2940
16331TIP3    H270485   3.445   1.640   0.308 -0.0276 -1.3048  0.5692
16332TIP3   OH270486   3.894   4.892   3.240 -0.2966 -0.3450 -0.0473
16332TIP3    H170487   3.897   4.886   3.144  2.1791 -0.0924 -0.0557
16332TIP3    H270488   3.831   4.824   3.266 -1.9277  0.3664 -1.8504
16333TIP3   OH270489   2.543   5.544  16.135  0.2385  0.2345 -0.1210
16333TIP3    H170490   2.489   5.465  16.145  0.4831 -0.1679 -1.6513
16333TIP3    H270491   2.630   5.510  16.114  0.7225  0.9067  0.7497
16334TIP3   OH270492   3.242   1.085  16.520 -0.0583  0.8624  0.1827
16334TIP3    H170493   3.216   1.158  16.463 -0.5281  0.4505 -0.1414
16334TIP3    H270494   3.337   1.080  16.510 -0.1393  0.7746 -0.5983
16335TIP3   OH270495   4.223   4.186   0.273  0.2451  0.4098  0.0053
16335TIP3    H170496   4.181   4.128   0.337 -2.8730  3.3396  0.9498
16335TIP3    H270497   4.259   4.257   0.326  1.4973  0.7517 -1.2540
16336TIP3   OH270498   2.734   1.922  15.050 -0.5861  0.3310  0.0015
16336TIP3    H170499   2.822   1.928  15.013 -0.5870 -0.8419 -0.2319
16336TIP3    H270500   2.739   1.850  15.113 -0.8612  1.6035  1.5452
16337TIP3   OH270501   2.153   3.728  15.074 -0.4142  0.2242  0.0030
16337TIP3    H170502   2.202   3.741  15.155  1.0088 -0.4572 -0.7100
16337TIP3    H270503   2.110   3.812  15.058 -0.3100  0.5216  1.1952
16338TIP3   OH270504   1.576   2.517  12.679  0.3464 -0.6383 -0.6041
16338TIP3    H170505   1.671   2.514  12.690  0.2249 -2.2838  0.2334
16338TIP3    H270506   1.542   2.538  12.766 -0.0996 -1.4651 -0.5653
16339TIP3   OH270507   5.129   0.830  15.857 -0.5030  0.0986 -0.2730
16339TIP3    H170508   5.206   0.859  15.807 -1.4382  1.0583 -1.2207
16339TIP3    H270509   5.150   0.741  15.884  0.7216  0.1516 -0.9655
16340TIP3   OH270510   4.959   2.296  14.648  0.8397  0.2243 -0.0778
16340TIP3    H170511   5.052   2.301  14.628  0.7127 -3.3873 -2.5614
16340TIP3    H270512   4.916   2.301  14.562 -1.1962  0.8092  0.9205
16341TIP3   OH270513   4.422   4.097   5.224  0.2191  0.3150 -0.0293
16341TIP3    H170514   4.457   4.156   5.290 -0.3587  1.1322 -0.4288
16341TIP3    H270515   4.421   4.149   5.143 -0.4846 -0.1638 -0.3457
16342TIP3   OH270516   2.063   0.761   3.275 -0.0960  0.2668  0.8628
16342TIP3    H170517   2.058   0.708   3.354  0.6315 -0.5684  0.3703
16342TIP3    H270518   2.034   0.703   3.205  0.0071  0.7560  0.4066
16343TIP3   OH270519   5.916   3.659  10.816 -0.0355 -0.4283 -0.1923
16343TIP3    H170520   5.920   3.672  10.722  3.9170 -2.1141 -0.4542
16343TIP3    H270521   5.885   3.569  10.827 -0.5522 -0.2156  0.1433
16344TIP3   OH270522   5.596   6.310   6.645 -0.2690 -0.5158 -0.1946
16344TIP3    H170523   5.583   6.405   6.645  0.2207 -0.4446 -0.0902
16344TIP3    H270524   5.654   6.294   6.720 -1.4332 -1.0557  0.6141
16345TIP3   OH270525   0.669   0.541   4.125 -0.0532 -0.2017  0.0587
16345TIP3    H170526   0.746   0.517   4.177 -0.9419 -0.9854  1.0543
16345TIP3    H270527   0.671   0.637   4.123  0.8594 -0.2030  0.1852
16346TIP3   OH270528   2.659   3.952   1.278  0.1049  0.0439  0.3040
16346TIP3    H170529   2.669   3.892   1.353 -1.3568 -2.3798 -1.2809
16346TIP3    H270530   2.566   3.976   1.280  0.0678  0.0080 -0.6584
16347TIP3   OH270531   3.340   3.254   2.978 -0.3834  0.0449 -0.2805
16347TIP3    H170532   3.346   3.231   2.885 -0.1963  3.3739 -1.2208
16347TIP3    H270533   3.252   3.291   2.987 -0.6658 -0.9089  1.0691
16348TIP3   OH270534   3.953   4.788  13.396 -0.1977 -0.0337 -0.0402
16348TIP3    H170535   3.865   4.823  13.411  0.0870  0.2888  0.9769
16348TIP3    H270536   3.950   4.751  13.308 -1.4362 -0.3002  0.0988
16349TIP3   OH270537   6.054   2.839   2.696  0.4437  0.2861  0.0431
16349TIP3    H170538   6.076   2.932   2.707  1.0605 -0.0099  1.6649
16349TIP3    H270539   5.965   2.832   2.730  0.0693  0.4191 -0.8852
16350TIP3   OH270540   1.193   0.364   3.062  0.4245 -0.4080  0.5366
16350TIP3    H170541   1.140   0.434   3.023 -0.7643 -0.8990  1.2220
16350TIP3    H270542   1.263   0.410   3.108 -0.1800  0.3290  0.7413
16351TIP3   OH270543   5.473   4.557   6.081  0.1115 -0.1629  0.2946
16351TIP3    H170544   5.463   4.645   6.117  0.5209 -0.3550  0.8985
16351TIP3    H270545   5.394   4.543   6.029  1.5795  1.8914 -2.7856
16352TIP3   OH270546   5.271   6.385  13.933  0.1038 -0.3288 -0.2966
16352TIP3    H170547   5.214   6.455  13.966 -0.5230 -0.4063 -1.1917
16352TIP3    H270548   5.340   6.378  14.000 -1.6134 -1.1399  1.5033
16353TIP3   OH270549   6.637   6.453  14.249 -0.3940  0.7827 -0.1319
16353TIP3    H170550   6.654   6.364  14.218  0.6824  0.9532 -0.0525
16353TIP3    H270551   6.606   6.441  14.339  3.8261  0.6362  1.4833
16354TIP3   OH270552   2.163   1.033  13.743 -0.1844  0.3659  0.2974
16354TIP3    H170553   2.257   1.047  13.747 -0.1798  1.0293 -1.4589
16354TIP3    H270554   2.125   1.120  13.757 -0.5546  0.0856  1.0961
16355TIP3   OH270555   4.972   2.923  16.948  0.3242  0.8326 -0.1918
16355TIP3    H170556   4.934   2.981  17.014  0.2781  1.1679 -0.5079
16355TIP3    H270557   4.924   2.840  16.958  0.8961  0.5963  0.7620
16356TIP3   OH270558   0.829   1.018   3.936  0.4019  0.4672  0.1916
16356TIP3    H170559   0.758   1.038   3.997  0.1893  0.8760 -0.1794
16356TIP3    H270560   0.815   0.926   3.913  0.2001  0.4453  0.3945
16357TIP3   OH270561   5.916   1.989  13.010 -0.1839 -0.0297  0.0984
16357TIP3    H170562   6.010   2.000  12.992 -0.5441 -0.5706 -2.4656
16357TIP3    H270563   5.872   2.041  12.943 -1.7312 -0.5303  0.6783
16358TIP3   OH270564   2.425   2.628   5.372 -0.3185  0.1462 -0.6212
16358TIP3    H170565   2.376   2.644   5.291 -0.7873  0.2498 -0.3195
16358TIP3    H270566   2.393   2.694   5.433  2.4528  2.3301 -1.3349
16359TIP3   OH270567   2.236   2.454  14.113  0.5268 -0.1498  0.2867
16359TIP3    H170568   2.181   2.387  14.155  1.4204 -0.3999  1.0854
16359TIP3    H270569   2.324   2.417  14.115  0.6903  0.1060 -1.2859
16360TIP3   OH270570   4.445   2.065  15.168  0.7708  0.5373 -0.4967
16360TIP3    H170571   4.384   2.133  15.195 -2.5300 -2.5869  0.7965
16360TIP3    H270572   4.425   1.991  15.226  2.4779 -2.2982 -3.1933
16361TIP3   OH270573   4.575   6.070  11.023  0.4235  0.2503  0.1592
16361TIP3    H170574   4.514   6.059  10.951 -0.1035 -0.2182  0.6664
16361TIP3    H270575   4.660   6.047  10.986  0.0724 -0.6087 -0.1536
16362TIP3   OH270576   2.554   2.307   2.431  0.7234 -0.0339 -0.8185
16362TIP3    H170577   2.565   2.244   2.502 -1.6682  0.7264  0.3249
16362TIP3    H270578   2.471   2.282   2.390 -0.5886  2.6278  0.0230
16363TIP3   OH270579   4.637   5.551  11.566 -0.2251 -0.5209  0.0000
16363TIP3    H170580   4.622   5.628  11.621 -1.2239 -1.0441  0.4780
16363TIP3    H270581   4.581   5.565  11.490 -0.3325 -0.7289  0.0411
16364TIP3   OH270582   4.308   0.863   6.196  0.0161 -0.0624  0.4148
16364TIP3    H170583   4.356   0.857   6.114 -2.1439  0.1161 -0.9503
16364TIP3    H270584   4.223   0.901   6.172 -0.7460 -0.1319  2.7034
16365TIP3   OH270585   1.327   0.257  16.787  0.3249  0.0595  0.0170
16365TIP3    H170586   1.240   0.217  16.787  0.8751 -1.1757  0.0099
16365TIP3    H270587   1.356   0.253  16.879 -0.0527  1.5005  0.2339
16366TIP3   OH270588   0.247   1.723   5.088  0.0860 -0.6059 -0.1267
16366TIP3    H170589   0.307   1.740   5.160 -0.0747 -0.3359 -0.0523
16366TIP3    H270590   0.164   1.763   5.116  0.2537  0.2717 -0.8199
16367TIP3   OH270591   1.008   5.799  11.293 -1.0876  0.0891  0.1371
16367TIP3    H170592   0.986   5.757  11.376  0.4849 -0.2624  0.4138
16367TIP3    H270593   1.001   5.730  11.228 -1.4919  0.1614  0.0991
16368TIP3   OH270594   2.043   6.336   4.619  0.1430  0.1711 -0.0125
16368TIP3    H170595   2.032   6.318   4.712 -0.0950 -1.4223 -0.3224
16368TIP3    H270596   1.954   6.335   4.583  0.2389  0.7075 -0.2827
16369TIP3   OH270597   0.158   6.343  16.259  0.4156 -0.0004  0.2092
16369TIP3    H170598   0.113   6.427  16.253 -0.5231 -0.4636  0.5508
16369TIP3    H270599   0.249   6.363  16.239 -0.2520  0.6467 -2.6880
16370TIP3   OH270600   5.152   0.013  14.596 -0.2509  0.3941 -0.1323
16370TIP3    H170601   5.176   0.099  14.631  0.2975 -0.1472  0.8604
16370TIP3    H270602   5.066  -0.005  14.633  0.8196 -0.7040  2.0476
16371TIP3   OH270603   6.745   5.159  15.047  0.4714 -0.2020 -0.0517
16371TIP3    H170604   6.702   5.149  14.962  1.7860 -1.3617 -0.6324
16371TIP3    H270605   6.774   5.070  15.069  3.4595  0.6134 -0.2322
16372TIP3   OH270606   3.460   2.410  15.674  0.1786  0.3243 -0.6097
16372TIP3    H170607   3.496   2.448  15.594 -0.7412 -0.2077 -1.3011
16372TIP3    H270608   3.517   2.442  15.744  2.4443 -1.0833 -1.6879
16373TIP3   OH270609   3.761   1.996  16.005 -0.3893  0.2727  0.4005
16373TIP3    H170610   3.816   1.969  15.932 -1.3674  0.4762 -0.4462
16373TIP3    H270611   3.672   1.978  15.975 -0.7632 -0.8596  2.0684
16374TIP3   OH270612   0.901   2.961  12.128  0.6267  0.0958 -0.2907
16374TIP3    H170613   0.882   2.902  12.201 -1.5322 -1.5385 -2.0215
16374TIP3    H270614   0.995   2.949  12.112  0.8307 -0.6386  1.2273
16375TIP3   OH270615   1.379   4.299   1.617  0.2757  0.7299  0.5001
16375TIP3    H170616   1.384   4.222   1.673 -2.5191 -0.5829 -0.8341
16375TIP3    H270617   1.287   4.326   1.621  0.6749  2.5365 -0.9230
16376TIP3   OH270618   0.493   3.028   1.070 -0.0063 -0.3116 -0.2342
16376TIP3    H170619   0.487   2.935   1.050  1.3532 -0.2802 -0.8926
16376TIP3    H270620   0.582   3.040   1.103 -0.7471  0.4410  1.6686
16377TIP3   OH270621   0.530   0.340   1.217 -0.1860 -0.2342  0.3225
16377TIP3    H170622   0.485   0.318   1.136 -3.4903  1.6853  1.4767
16377TIP3    H270623   0.515   0.265   1.274  0.4670 -0.7441 -0.1560
16378TIP3   OH270624   5.066   3.709   2.865 -0.1396 -0.1813 -0.1023
16378TIP3    H170625   5.085   3.782   2.923 -1.0936 -1.7841  2.4081
16378TIP3    H270626   5.067   3.747   2.777 -0.9637  2.9066  1.0789
16379TIP3   OH270627   6.018   1.390  12.015  0.7270  0.1332  0.4848
16379TIP3    H170628   6.112   1.402  12.004  0.7368 -0.6652 -0.5013
16379TIP3    H270629   6.007   1.296  12.030 -0.0010  0.0146 -0.6467
16380TIP3   OH270630   6.748   4.764   5.497 -0.6170 -0.4442  0.0681
16380TIP3    H170631   6.790   4.815   5.429  1.6209 -1.4661  0.5997
16380TIP3    H270632   6.712   4.688   5.451 -0.7336 -0.2169 -0.2184
16381TIP3   OH270633   4.306   2.714  15.883 -0.5525 -0.1959 -0.0198
16381TIP3    H170634   4.389   2.716  15.930 -1.3514 -2.5430  1.7074
16381TIP3    H270635   4.325   2.663  15.804 -0.1073  0.2559 -0.2068
16382TIP3   OH270636   3.700   3.631  12.001  0.0557  0.6322  0.0575
16382TIP3    H170637   3.738   3.612  12.087  1.4409 -0.1606 -0.6923
16382TIP3    H270638   3.717   3.552  11.950  0.0890  1.4458 -1.2301
16383TIP3   OH270639   1.560   6.206   1.995 -0.7525  0.0276 -0.7524
16383TIP3    H170640   1.586   6.295   2.018 -1.9178 -0.1452  1.5427
16383TIP3    H270641   1.509   6.216   1.914 -0.9804  1.4680 -0.4573
16384TIP3   OH270642   1.643   2.062  14.100  0.1597 -0.0985  0.8028
16384TIP3    H170643   1.684   1.998  14.159 -1.9704 -3.2651 -0.8370
16384TIP3    H270644   1.666   2.031  14.013 -1.3327  1.1528 -0.0689
16385TIP3   OH270645   4.212   5.486  12.630 -0.6962 -0.1756 -0.2275
16385TIP3    H170646   4.196   5.441  12.547  1.0966  0.6255 -1.0667
16385TIP3    H270647   4.285   5.438  12.670 -0.8696  0.0668  0.3901
16386TIP3   OH270648   6.005   3.427   4.904  0.6430  0.6457  0.8467
16386TIP3    H170649   6.071   3.481   4.860  1.2035 -1.0885 -0.5647
16386TIP3    H270650   5.926   3.481   4.904  1.4487  1.8738  0.4826
16387TIP3   OH270651   6.048   1.567   0.134 -0.2652  0.2629 -0.4807
16387TIP3    H170652   6.076   1.653   0.165 -1.2520  0.1318  0.8541
16387TIP3    H270653   5.996   1.585   0.056  1.0028  0.7103 -1.2729
16388TIP3   OH270654   5.115   2.584  14.618  0.4149  0.1060 -0.1354
16388TIP3    H170655   5.119   2.511  14.556  0.4877 -0.2380  0.2668
16388TIP3    H270656   5.043   2.639  14.586  0.5088 -0.0233 -0.5706
16389TIP3   OH270657   4.904   5.322   6.009 -0.2028 -0.3727  0.0462
16389TIP3    H170658   4.895   5.404   5.960  0.2080 -0.5548 -0.3469
16389TIP3    H270659   4.873   5.343   6.097 -0.1488  0.1923 -0.0637
16390TIP3   OH270660   6.675   5.813  12.346 -0.0707 -0.1966  0.2709
16390TIP3    H170661   6.734   5.760  12.399  1.1673  1.5788  0.7628
16390TIP3    H270662   6.593   5.765  12.345  1.2881 -2.6523 -0.2448
16391TIP3   OH270663   0.827   1.624  16.703  0.1308 -0.0957  0.0711
16391TIP3    H170664   0.909   1.649  16.660  0.0880 -0.7616 -0.4229
16391TIP3    H270665   0.760   1.639  16.636  0.1703 -2.0303 -0.4786
16392TIP3   OH270666   0.431   3.107  12.305  0.3249 -0.0117 -0.1902
16392TIP3    H170667   0.462   3.131  12.217  0.3566  0.3347 -0.0855
16392TIP3    H270668   0.344   3.070  12.289  0.6524 -0.6942 -0.4488
16393TIP3   OH270669   4.572   2.225  16.171 -0.5527  0.0020 -0.2175
16393TIP3    H170670   4.499   2.282  16.149  1.2711  2.9697  0.7938
16393TIP3    H270671   4.619   2.214  16.088 -0.2097  1.1489 -0.1976
16394TIP3   OH270672   4.447   2.283  14.410  0.4498  0.0271 -0.4179
16394TIP3    H170673   4.524   2.249  14.455 -1.5584 -2.2086  1.6315
16394TIP3    H270674   4.417   2.211  14.355 -2.4501 -0.8199  2.0244
16395TIP3   OH270675   5.349   5.039  13.771  0.1919  1.1062  0.0297
16395TIP3    H170676   5.328   4.956  13.729  1.5966 -0.1356  1.6096
16395TIP3    H270677   5.266   5.086  13.775 -0.8455 -0.6492 -0.0446
16396TIP3   OH270678   6.304   5.256   4.436 -0.0010 -0.0936 -0.0345
16396TIP3    H170679   6.228   5.263   4.494 -0.2517 -2.0992 -0.0386
16396TIP3    H270680   6.272   5.207   4.360  1.1972 -0.6932 -0.1883
16397TIP3   OH270681   3.472   6.017   0.633  0.9882 -0.0457  0.0783
16397TIP3    H170682   3.430   5.972   0.706 -0.4543 -0.7191 -1.1066
16397TIP3    H270683   3.445   6.108   0.641  0.3312 -0.2357  0.0460
16398TIP3   OH270684   1.314   4.025  13.297  0.5596 -0.0265 -0.5190
16398TIP3    H170685   1.290   4.111  13.262  0.7555 -0.3422 -1.4565
16398TIP3    H270686   1.238   3.970  13.280  0.3592  0.0075  0.2581
16399TIP3   OH270687   6.397   2.768   1.187  0.0189 -0.5194 -0.1389
16399TIP3    H170688   6.395   2.845   1.244 -2.0998  0.2484 -1.1393
16399TIP3    H270689   6.306   2.741   1.181 -0.4086  1.0227 -5.1328
16400TIP3   OH270690   0.941   4.912   1.105  0.1099 -0.0958 -0.0134
16400TIP3    H170691   0.976   4.859   1.177 -0.0119  0.0878  0.1826
16400TIP3    H270692   0.861   4.951   1.141  0.0266 -0.0386 -0.2638
16401TIP3   OH270693   2.397   1.926  17.132  0.3523  0.8327 -0.3317
16401TIP3    H170694   2.329   1.980  17.092 -0.8999 -0.3729  0.0594
16401TIP3    H270695   2.434   1.876  17.058 -0.0040  0.6473 -0.3869
16402TIP3   OH270696   0.192   6.619   4.859  0.7037 -0.2462 -0.9797
16402TIP3    H170697   0.274   6.656   4.891  0.5762 -0.2172 -0.6811
16402TIP3    H270698   0.132   6.625   4.934  0.0386  0.9523 -1.5775
16403TIP3   OH270699   6.015   2.785   4.036  0.3356  0.1149 -0.6454
16403TIP3    H170700   5.964   2.732   3.976 -0.1392 -0.4504  0.2325
16403TIP3    H270701   6.012   2.873   4.000  0.5591 -0.3250 -1.7555
16404TIP3   OH270702   2.733   6.057  17.421 -0.2221 -0.4132  0.1362
16404TIP3    H170703   2.769   6.010  17.346  0.4293 -0.9166  0.7496
16404TIP3    H270704   2.794   6.039  17.493  0.0557  1.3914  0.4022
16405TIP3   OH270705   5.115   1.985   5.715 -0.0785  0.1893  0.4811
16405TIP3    H170706   5.181   2.039   5.672  0.3671 -0.1943  0.6678
16405TIP3    H270707   5.148   1.976   5.805 -0.2928 -0.1546  0.5244
16406TIP3   OH270708   5.120   0.236   4.899  0.1946  0.0025  0.5034
16406TIP3    H170709   5.113   0.231   4.994 -3.2532  1.9358  0.5061
16406TIP3    H270710   5.037   0.202   4.867  0.5815  1.0152 -1.7361
16407TIP3   OH270711   1.536   5.045   3.452  0.1208 -0.6437 -0.3689
16407TIP3    H170712   1.628   5.021   3.437  0.7730  1.4387 -0.0133
16407TIP3    H270713   1.533   5.071   3.544 -0.7189 -0.2042 -0.5174
16408TIP3   OH270714   4.008   3.153   4.898  0.3919 -0.6127  0.4330
16408TIP3    H170715   4.074   3.218   4.875  0.5091  0.7016  3.9076
16408TIP3    H270716   3.925   3.197   4.884  0.4275 -0.2992  1.1716
16409TIP3   OH270717   6.387   5.460  12.649 -0.6484 -0.3597  0.5505
16409TIP3    H170718   6.331   5.500  12.582 -0.2613  1.0065  1.0206
16409TIP3    H270719   6.326   5.412  12.706 -1.4558  1.5866  1.4005
16410TIP3   OH270720   2.189   4.611  10.970  0.0071  0.1236  0.7372
16410TIP3    H170721   2.169   4.556  10.894  1.0346  0.5984  0.0949
16410TIP3    H270722   2.124   4.681  10.966  1.3060  1.3237 -0.9765
16411TIP3   OH270723   6.070   1.244  13.774  0.3464 -0.2245 -0.7491
16411TIP3    H170724   6.058   1.332  13.810  2.1162 -0.3431  0.2401
16411TIP3    H270725   5.982   1.217  13.748 -0.5725  1.0047  0.8633
16412TIP3   OH270726   4.341   4.112  16.580 -0.7651 -0.0205 -0.0318
16412TIP3    H170727   4.275   4.048  16.606 -1.3863  0.3073 -0.7550
16412TIP3    H270728   4.298   4.164  16.512  0.8055 -0.8770 -1.7458
16413TIP3   OH270729   1.208   6.073   0.149  0.6836 -0.5683 -0.0620
16413TIP3    H170730   1.233   6.071   0.241  2.2753 -0.0434 -0.4583
16413TIP3    H270731   1.223   6.163   0.121  0.9380 -0.8948 -1.0253
16414TIP3   OH270732   5.254   2.367   6.071  0.3171 -0.0045 -0.0370
16414TIP3    H170733   5.345   2.338   6.063  0.3015 -0.5221  1.3649
16414TIP3    H270734   5.254   2.423   6.149 -0.4378  0.5582 -0.4315
16415TIP3   OH270735   1.852   3.903  16.498  0.4605  0.4580 -0.1782
16415TIP3    H170736   1.801   3.938  16.572  0.9078  1.3793 -0.2946
16415TIP3    H270737   1.935   3.951  16.501  0.3172  0.8224 -1.5403
16416TIP3   OH270738   0.893   1.834  11.967 -0.3385 -0.6574 -0.4468
16416TIP3    H170739   0.946   1.777  12.022 -1.3798 -1.1783  0.0596
16416TIP3    H270740   0.890   1.790  11.882 -0.8446 -1.1918 -0.1592
16417TIP3   OH270741   1.776   0.108  12.982  0.2632  0.0569  1.0520
16417TIP3    H170742   1.724   0.044  13.030 -0.9261  0.7158  0.6636
16417TIP3    H270743   1.754   0.192  13.021  0.0615  0.4835  0.0417
16418TIP3   OH270744   5.769   5.822  12.508 -0.1643 -0.1207 -0.5459
16418TIP3    H170745   5.732   5.807  12.594  1.3353  0.6421  0.2691
16418TIP3    H270746   5.789   5.734  12.474 -2.7717 -0.5684 -1.1050
16419TIP3   OH270747   4.202   6.737  14.097  0.0350 -0.1085  0.8067
16419TIP3    H170748   4.125   6.693  14.063 -0.2577  0.2597  0.9907
16419TIP3    H270749   4.197   6.723  14.192 -1.3116  2.2668  1.1521
16420TIP3   OH270750   4.072   6.152   4.426 -0.7289 -0.0805  0.1081
16420TIP3    H170751   3.990   6.126   4.383 -1.5232  0.2023  1.3886
16420TIP3    H270752   4.055   6.241   4.457 -0.5651 -0.6375  1.8752
16421TIP3   OH270753   4.210   0.472  11.798 -0.4829  0.4966  0.3762
16421TIP3    H170754   4.140   0.466  11.733 -1.2413  1.0714  1.1111
16421TIP3    H270755   4.209   0.388  11.843  0.4454 -0.1322 -0.7219
16422TIP3   OH270756   1.235   3.807   4.093  0.4019  0.6963  0.2930
16422TIP3    H170757   1.142   3.814   4.071  0.1911 -0.8958  0.5028
16422TIP3    H270758   1.237   3.744   4.165  1.7227 -0.1677 -0.4601
16423TIP3   OH270759   2.521   3.846   0.515 -0.1219  1.0238  0.2059
16423TIP3    H170760   2.571   3.901   0.454  0.4627  1.2624  0.8936
16423TIP3    H270761   2.435   3.887   0.519  0.3412  1.9470  0.7875
16424TIP3   OH270762   4.476   0.252   0.968  0.1328  0.4552 -1.0096
16424TIP3    H170763   4.449   0.168   1.003 -0.5648  0.5517 -1.3002
16424TIP3    H270764   4.468   0.313   1.042  1.8729  0.0443 -0.4437
16425TIP3   OH270765   3.913   5.028   0.662 -0.0134  0.2969 -0.4446
16425TIP3    H170766   3.897   5.080   0.740 -2.6815 -0.3798 -0.4465
16425TIP3    H270767   3.923   5.092   0.592 -0.3237  0.8557  0.0161
16426TIP3   OH270768   1.902   0.646   6.602 -0.2603 -0.1573  0.8648
16426TIP3    H170769   1.868   0.567   6.643  2.0594 -0.8608  1.5470
16426TIP3    H270770   1.942   0.695   6.673 -1.4025  1.5302  0.4019
16427TIP3   OH270771   0.886   0.009  16.688  0.2774 -0.3782  0.1047
16427TIP3    H170772   0.876   0.023  16.594 -1.3872 -1.7366  0.0221
16427TIP3    H270773   0.864  -0.084  16.701  1.2756 -0.4345  1.7391
16428TIP3   OH270774   5.540   3.515   6.397 -0.5376 -0.5182 -0.0499
16428TIP3    H170775   5.583   3.438   6.435  1.5414  0.3111 -0.6011
16428TIP3    H270776   5.591   3.589   6.428 -1.6660  0.5519 -0.6689
16429TIP3   OH270777   6.476   1.253  10.861  0.2902  0.1239  0.1834
16429TIP3    H170778   6.521   1.321  10.910 -0.4130  1.4493 -0.9395
16429TIP3    H270779   6.535   1.233  10.788  0.7448 -0.8991  0.8086
16430TIP3   OH270780   1.434   3.191   4.281 -0.0836 -0.6525 -0.5090
16430TIP3    H170781   1.340   3.209   4.274 -0.3657 -1.6345  0.4439
16430TIP3    H270782   1.474   3.250   4.217 -1.3390 -0.1918 -0.9161
16431TIP3   OH270783   0.495   2.849   3.860  0.0312 -0.6034 -0.3368
16431TIP3    H170784   0.523   2.761   3.834 -0.6208 -1.1183  0.6310
16431TIP3    H270785   0.576   2.895   3.883  0.4640 -0.6438 -1.7059
16432TIP3   OH270786   3.850   0.382  11.245  0.0924 -0.2059 -0.4781
16432TIP3    H170787   3.899   0.425  11.176  0.8866  0.6242  0.5736
16432TIP3    H270788   3.891   0.296  11.254  0.3472 -0.1017 -0.6518
16433TIP3   OH270789   0.600   5.679  17.295  0.0453  0.1978 -1.0583
16433TIP3    H170790   0.588   5.774  17.294  0.1397  0.2210 -2.7738
16433TIP3    H270791   0.676   5.665  17.352  0.4870  1.2052 -1.3825
16434TIP3   OH270792   0.082   4.806   6.185  0.3099 -0.3027  1.0125
16434TIP3    H170793   0.078   4.809   6.089  2.1382  0.0033  0.9040
16434TIP3    H270794   0.137   4.730   6.203 -1.1896 -1.2283  1.9083
16435TIP3   OH270795   0.852   2.843   5.084 -0.0704 -0.3809 -0.1825
16435TIP3    H170796   0.913   2.891   5.140 -0.9522  1.2175 -0.5191
16435TIP3    H270797   0.767   2.851   5.128 -0.5209 -0.2403 -1.0441
16436TIP3   OH270798   5.117   6.522  16.282 -0.0196  0.2124 -0.5918
16436TIP3    H170799   5.028   6.550  16.261 -0.8619 -1.7312  0.1690
16436TIP3    H270800   5.129   6.441  16.233  0.2256 -1.1065  1.5132
16437TIP3   OH270801   1.604   3.406  15.963 -0.5706  0.2230  0.5330
16437TIP3    H170802   1.605   3.433  16.055 -0.3196  2.7113 -0.1431
16437TIP3    H270803   1.572   3.483  15.915  0.9893 -0.3900 -1.6366
16438TIP3   OH270804   0.706   1.250  12.266 -0.3555  0.1009  0.1810
16438TIP3    H170805   0.681   1.292  12.184  1.3668  0.4525 -0.2132
16438TIP3    H270806   0.800   1.233  12.256  0.0786  0.9366  2.4177
16439TIP3   OH270807   1.730   6.508  10.798  0.3787 -0.0512 -0.2808
16439TIP3    H170808   1.656   6.548  10.754  0.7431 -0.7254 -1.5353
16439TIP3    H270809   1.797   6.577  10.800  0.9369 -0.4780 -2.2722
16440TIP3   OH270810   2.072   1.587  15.854 -0.3948  0.0667  0.1322
16440TIP3    H170811   2.099   1.609  15.765 -1.2909 -0.0652 -0.1854
16440TIP3    H270812   1.991   1.537  15.843 -1.4859  1.5358  1.0896
16441TIP3   OH270813   2.551   6.628  12.210 -0.3125  0.2311 -0.2678
16441TIP3    H170814   2.491   6.681  12.263 -1.6130 -0.7096 -0.7363
16441TIP3    H270815   2.586   6.563  12.271 -1.6463 -0.7176 -0.4499
16442TIP3   OH270816   4.553   6.395   0.839 -0.3148 -0.3782 -0.2837
16442TIP3    H170817   4.588   6.311   0.811 -0.1436 -0.6072  0.6082
16442TIP3    H270818   4.630   6.449   0.856 -0.3990 -0.5226  0.5868
16443TIP3   OH270819   3.932   3.321  12.203 -0.2734  0.5637 -0.4364
16443TIP3    H170820   3.972   3.238  12.175  0.6184  0.4580  1.0214
16443TIP3    H270821   3.971   3.338  12.289 -2.6240  0.9825  0.6299
16444TIP3   OH270822   5.997   5.668   4.339  0.1767 -0.1026 -0.3297
16444TIP3    H170823   5.951   5.590   4.309 -0.9676  0.3191  0.2685
16444TIP3    H270824   5.935   5.713   4.396  1.6446  0.0379  1.2604
16445TIP3   OH270825   2.790   5.667  17.343  0.3637  0.7437  0.3409
16445TIP3    H170826   2.810   5.743  17.398 -1.6849  1.6564 -0.0914
16445TIP3    H270827   2.824   5.690  17.257 -1.2345  1.7085 -0.0654
16446TIP3   OH270828   6.560   0.152   1.722  0.5686 -0.8306 -0.0445
16446TIP3    H170829   6.565   0.166   1.627  3.2780  1.5777  0.3375
16446TIP3    H270830   6.554   0.239   1.759  0.9428 -1.6501  2.0701
16447TIP3   OH270831   5.977   5.750   2.414  0.3215 -0.1158  0.2241
16447TIP3    H170832   6.038   5.761   2.487 -0.1204 -0.4330  0.6455
16447TIP3    H270833   5.891   5.752   2.454  0.1171 -2.6913  0.0736
16448TIP3   OH270834   0.569   6.379  14.872 -0.4538 -0.1899  0.8779
16448TIP3    H170835   0.562   6.465  14.831  1.8246 -0.0454  0.6680
16448TIP3    H270836   0.566   6.317  14.800 -1.0367 -0.2499  0.9424
16449TIP3   OH270837   0.614   2.696  17.127  0.1492 -0.3447  0.0093
16449TIP3    H170838   0.551   2.685  17.056 -1.6156 -0.4488  1.5482
16449TIP3    H270839   0.661   2.613  17.130 -0.8062 -0.8936 -0.0493
16450TIP3   OH270840   0.516   2.116  16.509 -0.4574 -0.0848  0.3059
16450TIP3    H170841   0.524   2.145  16.418 -0.9715  1.0078  0.5936
16450TIP3    H270842   0.599   2.070  16.527 -0.4832 -0.5864 -0.7950
16451TIP3   OH270843   6.576   2.093   5.998 -0.1722 -0.3244 -0.4259
16451TIP3    H170844   6.608   2.145   6.072  0.2590  0.0261 -0.8523
16451TIP3    H270845   6.483   2.115   5.991 -0.1514 -0.1473 -0.1658
16452TIP3   OH270846   0.319   0.920  15.655  0.3938 -0.0044 -0.0780
16452TIP3    H170847   0.305   0.825  15.663  1.1791 -0.0534  0.9314
16452TIP3    H270848   0.271   0.958  15.727  1.1055  0.2481  0.2758
16453TIP3   OH270849   3.554   0.683  13.381  0.8090 -0.2531 -0.3732
16453TIP3    H170850   3.630   0.650  13.429  1.6915  1.6268 -0.4221
16453TIP3    H270851   3.534   0.613  13.318  0.8973 -1.8662  1.3053
16454TIP3   OH270852   3.056   5.163  14.396  0.3273 -0.1947 -0.5029
16454TIP3    H170853   3.122   5.096  14.416  0.2114 -0.3050 -0.4910
16454TIP3    H270854   2.985   5.115  14.353 -0.9393 -0.5590  1.8293
16455TIP3   OH270855   6.062   5.342   3.157  0.5369  0.3710  0.1347
16455TIP3    H170856   5.994   5.278   3.135  0.7405  0.0087  0.5505
16455TIP3    H270857   6.017   5.405   3.214  0.9483 -0.8222  1.8625
16456TIP3   OH270858   1.358   4.832  15.153 -0.3710  0.2128  0.0507
16456TIP3    H170859   1.345   4.788  15.070 -1.6183  0.7415 -0.0582
16456TIP3    H270860   1.374   4.924  15.129  0.8691  0.0846  0.3304
16457TIP3   OH270861   0.004   0.648   0.023 -0.2739 -0.0809  0.0150
16457TIP3    H170862   0.094   0.683   0.029 -0.3041 -0.1372  1.0859
16457TIP3    H270863  -0.021   0.661  -0.068 -0.1997  2.5323  0.2968
16458TIP3   OH270864   5.059   5.690  13.616  0.1767  0.1173  0.4772
16458TIP3    H170865   5.049   5.596  13.601 -0.4193  0.2090  0.2770
16458TIP3    H270866   4.974   5.718  13.649 -0.4739  1.0375 -1.8015
16459TIP3   OH270867   4.838   6.404  17.329 -0.3912  0.3382 -0.0623
16459TIP3    H170868   4.859   6.318  17.366  0.0503  0.2933 -0.4154
16459TIP3    H270869   4.895   6.465  17.375  0.8636  0.1606 -1.3240
16460TIP3   OH270870   0.254   4.281  13.242  0.4147  0.3938 -0.0454
16460TIP3    H170871   0.293   4.252  13.324 -0.9888 -1.5872 -0.0149
16460TIP3    H270872   0.296   4.365  13.224  1.3590  0.4841  2.2536
16461TIP3   OH270873   1.616   2.331   6.432 -0.2651  0.0562 -0.0442
16461TIP3    H170874   1.660   2.261   6.384  2.4755 -0.1396  2.4391
16461TIP3    H270875   1.546   2.288   6.480  0.3256 -0.7052  0.1531
16462TIP3   OH270876   4.541   3.003   2.636  0.4975 -0.0232  0.1792
16462TIP3    H170877   4.464   3.055   2.616  0.6601  0.8225  1.6383
16462TIP3    H270878   4.600   3.063   2.681  1.5761 -0.9256  0.0228
16463TIP3   OH270879   1.363   3.487  14.106 -0.2212 -0.1131 -0.6953
16463TIP3    H170880   1.290   3.452  14.056  1.2037 -0.6171 -2.5507
16463TIP3    H270881   1.323   3.529  14.182 -2.3294 -1.3545 -1.0489
16464TIP3   OH270882   6.030   6.062   5.483 -0.3280 -0.3935 -0.3576
16464TIP3    H170883   6.050   6.102   5.398  3.4164  1.1978  1.0709
16464TIP3    H270884   5.966   6.121   5.523 -1.1780 -0.4852 -1.5338
16465TIP3   OH270885   5.209   1.624  14.564 -0.2437  0.1609 -0.1895
16465TIP3    H170886   5.203   1.680  14.642  0.7926 -0.8112  0.6189
16465TIP3    H270887   5.242   1.541  14.597  2.7242  0.4794 -1.9866
16466TIP3   OH270888   5.296   6.427  14.427  0.3775  0.7521  0.4819
16466TIP3    H170889   5.335   6.368  14.492 -0.1940  1.1923  1.2360
16466TIP3    H270890   5.243   6.370  14.372  0.9878  0.3509  0.2944
16467TIP3   OH270891   1.708   1.832   5.837 -0.0877 -0.0826  0.1856
16467TIP3    H170892   1.681   1.802   5.751 -0.5646  0.7407  0.0476
16467TIP3    H270893   1.677   1.763   5.897  0.3554 -0.7141 -0.2960
16468TIP3   OH270894   2.702   0.400  15.833  0.4540  0.3311  0.1740
16468TIP3    H170895   2.669   0.484  15.802 -0.4827  0.1468  0.6146
16468TIP3    H270896   2.797   0.408  15.829  0.3968  0.3366 -2.5999
16469TIP3   OH270897   2.026   2.915   1.675 -0.0187 -0.6219  0.3360
16469TIP3    H170898   2.045   2.950   1.762  1.0606 -0.4263  0.0334
16469TIP3    H270899   1.941   2.872   1.685 -1.3896  1.9564  0.7689
16470TIP3   OH270900   2.447   2.617  17.457  0.5170 -0.1304  0.2737
16470TIP3    H170901   2.542   2.608  17.447  0.7482 -0.2839  2.1674
16470TIP3    H270902   2.433   2.612  17.552 -1.5367 -1.5288 -0.0411
16471TIP3   OH270903   0.015   1.396  14.435  0.5443 -0.2259  0.0237
16471TIP3    H170904   0.053   1.483  14.446  1.2285 -0.3002 -1.5406
16471TIP3    H270905   0.059   1.342  14.502  1.1562  0.3142  0.0610
16472TIP3   OH270906   2.045   2.132   4.436 -0.0079  0.0374 -0.2755
16472TIP3    H170907   2.110   2.203   4.436 -0.0435  0.1758  2.6325
16472TIP3    H270908   1.963   2.175   4.412  0.1109  0.8739  0.7372
16473TIP3   OH270909   0.888   0.206   1.635 -0.0781  0.5543 -0.0842
16473TIP3    H170910   0.828   0.274   1.664  0.7839  1.2780  0.0492
16473TIP3    H270911   0.834   0.127   1.628 -1.0925  1.2472 -0.2472
16474TIP3   OH270912   5.730   1.409   3.330 -0.1464 -0.2748 -0.5753
16474TIP3    H170913   5.803   1.377   3.383 -0.3469  0.9900  0.4853
16474TIP3    H270914   5.657   1.416   3.391 -0.5587  0.5941 -1.1514
16475TIP3   OH270915   0.104   4.479  14.751 -0.3338 -0.0414  0.7315
16475TIP3    H170916   0.087   4.435  14.834 -1.4063  0.3583  0.7414
16475TIP3    H270917   0.047   4.436  14.688  1.7137 -1.5193 -0.2304
16476TIP3   OH270918   4.549   4.316   3.356 -0.5242 -0.5692 -0.1672
16476TIP3    H170919   4.610   4.325   3.283  0.9257 -0.8359  0.9585
16476TIP3    H270920   4.528   4.223   3.358 -2.4219 -0.2317 -1.6306
16477TIP3   OH270921   0.791   0.373   2.119  0.1813 -0.5217  0.0884
16477TIP3    H170922   0.816   0.448   2.065  0.6257  0.4231  1.5332
16477TIP3    H270923   0.702   0.392   2.148 -0.0739 -1.0442 -0.3437
16478TIP3   OH270924   0.308   0.074  15.979  0.0599  0.1036 -0.3347
16478TIP3    H170925   0.372   0.144  15.989 -1.7934  1.7235  1.3076
16478TIP3    H270926   0.242   0.111  15.919 -0.8926 -0.2343  0.4802
16479TIP3   OH270927   6.765   1.752   1.548 -0.3168 -0.2483 -0.1078
16479TIP3    H170928   6.720   1.805   1.481  0.7744  0.8169 -0.0214
16479TIP3    H270929   6.726   1.665   1.538  0.0267 -0.2079 -2.3561
16480TIP3   OH270930   5.914   4.480  16.496 -0.4830  0.1959 -0.4467
16480TIP3    H170931   5.905   4.405  16.437 -0.8927  0.2761 -0.4854
16480TIP3    H270932   5.896   4.556  16.442  0.1668  0.3460 -0.4630
16481TIP3   OH270933   2.491   1.050  14.398 -0.0308 -0.0312  0.4814
16481TIP3    H170934   2.477   1.141  14.373 -0.1778 -0.0016  0.6651
16481TIP3    H270935   2.585   1.035  14.385  0.0462  0.2322  0.7242
16482TIP3   OH270936   3.883   0.219   3.082  0.1304 -0.4330 -0.2792
16482TIP3    H170937   3.836   0.213   3.165 -1.4490 -0.1824 -1.1135
16482TIP3    H270938   3.960   0.272   3.102 -1.4233  1.6981  0.5796
16483TIP3   OH270939   3.004   4.845   2.209  0.2934 -0.4781  0.6969
16483TIP3    H170940   3.066   4.917   2.216  1.3442 -1.3259  0.2618
16483TIP3    H270941   3.035   4.780   2.272 -0.2014 -0.8840  0.5333
16484TIP3   OH270942   2.163   1.577  15.601  0.0335 -0.3763 -0.0710
16484TIP3    H170943   2.093   1.582  15.536  3.1268  1.9724 -3.6874
16484TIP3    H270944   2.203   1.491  15.587  0.9993  0.2997 -1.8752
16485TIP3   OH270945   3.473   0.245  15.222 -0.5798 -0.1919  0.0589
16485TIP3    H170946   3.413   0.180  15.187  1.0069 -1.8147  0.2317
16485TIP3    H270947   3.429   0.280  15.299 -2.2652  0.3465 -1.0773
16486TIP3   OH270948   6.230   2.295  12.369  0.1791  0.6340 -0.2289
16486TIP3    H170949   6.195   2.346  12.442 -1.5268 -0.5498 -0.1714
16486TIP3    H270950   6.283   2.358  12.320  0.6220  1.6816  1.5020
16487TIP3   OH270951   1.039   2.521   4.794  0.4140  0.0612 -0.1424
16487TIP3    H170952   1.027   2.428   4.772 -0.9860  0.1715  0.1179
16487TIP3    H270953   0.962   2.565   4.758  1.0963  1.1422 -0.3217
16488TIP3   OH270954   0.870   3.057   2.375 -0.2822  0.0860  0.1432
16488TIP3    H170955   0.899   3.083   2.287  0.0598  0.4525  0.3582
16488TIP3    H270956   0.950   3.058   2.427 -0.4086 -0.5889  0.3543
16489TIP3   OH270957   3.989   0.681  16.319  0.1374  0.7567 -0.1016
16489TIP3    H170958   3.951   0.599  16.350 -0.9382  2.8300  5.0071
16489TIP3    H270959   4.083   0.666  16.320 -0.0271 -0.3755  1.0092
16490TIP3   OH270960   1.209   3.610   1.845 -0.4088  0.0960 -0.2572
16490TIP3    H170961   1.303   3.628   1.854  0.2128 -1.8584 -1.9443
16490TIP3    H270962   1.183   3.578   1.931  0.0471  2.1237  0.6962
16491TIP3   OH270963   0.833   0.831  14.942 -0.0393  0.2128  0.6909
16491TIP3    H170964   0.865   0.882  15.017 -1.0803  1.1419  0.5335
16491TIP3    H270965   0.840   0.891  14.868  1.1877 -0.7701 -0.0396
16492TIP3   OH270966   0.696   3.368   1.149  0.0539  0.1017  0.2558
16492TIP3    H170967   0.678   3.363   1.055 -1.1212 -0.4447  0.4911
16492TIP3    H270968   0.791   3.363   1.155  0.1008 -1.0551 -0.8508
16493TIP3   OH270969   4.745   2.053   1.856  0.3898 -0.2055  0.0149
16493TIP3    H170970   4.820   2.014   1.901  0.5287 -2.1579 -1.7631
16493TIP3    H270971   4.781   2.128   1.808  1.3994 -1.4801 -1.3132
16494TIP3   OH270972   4.504   6.229   3.177  0.3621  0.7624 -0.0690
16494TIP3    H170973   4.500   6.149   3.230  3.9263  0.3661 -0.1218
16494TIP3    H270974   4.486   6.300   3.238 -0.7108  0.0572  0.4605
16495TIP3   OH270975   0.824   5.009   0.089  0.0243 -0.3526  0.7835
16495TIP3    H170976   0.789   4.923   0.067 -1.2192  0.2197  0.4090
16495TIP3    H270977   0.917   5.004   0.067 -0.0318 -1.5941  0.7787
16496TIP3   OH270978   4.033   3.893  14.169 -0.0397 -0.4575 -0.3249
16496TIP3    H170979   4.100   3.850  14.222 -1.2973 -0.2627  1.5209
16496TIP3    H270980   3.960   3.830  14.168 -0.2656 -0.2004 -1.3539
16497TIP3   OH270981   1.246   5.515  12.602  0.1863 -0.3927  0.0438
16497TIP3    H170982   1.311   5.462  12.555 -0.5154 -1.3376  0.1063
16497TIP3    H270983   1.193   5.554  12.532 -0.4473 -1.2704  0.0231
16498TIP3   OH270984   6.047   2.732   0.073  0.5948  0.3049 -0.0786
16498TIP3    H170985   6.142   2.748   0.075  0.1950  3.4712 -0.8363
16498TIP3    H270986   6.019   2.769  -0.011 -1.2553 -1.4525 -0.3175
16499TIP3   OH270987   3.759   3.073   3.060  0.1412 -0.0563 -0.0239
16499TIP3    H170988   3.844   3.118   3.059 -0.2155  0.6263 -0.5074
16499TIP3    H270989   3.714   3.105   2.982 -2.2599  2.9518  2.3212
16500TIP3   OH270990   6.342   4.035  13.147 -0.6036  0.4431  0.5614
16500TIP3    H170991   6.291   4.061  13.070 -3.0187  1.1824  2.3053
16500TIP3    H270992   6.314   4.095  13.216  2.5847  0.8090  1.7336
16501TIP3   OH270993   4.520   1.554  15.830 -0.0023 -0.3240 -0.1685
16501TIP3    H170994   4.556   1.611  15.898 -1.2979  0.1946  0.1020
16501TIP3    H270995   4.588   1.553  15.762 -0.2089  2.1749 -0.5329
16502TIP3   OH270996   3.283   3.197   5.313 -0.0943  0.2621  0.1022
16502TIP3    H170997   3.267   3.272   5.255  2.7193 -0.6039 -2.0182
16502TIP3    H270998   3.240   3.221   5.395 -0.2055  3.7050 -0.7948
16503TIP3   OH270999   2.171   6.082   6.101  0.0589 -0.1077  0.1341
16503TIP3    H171000   2.176   6.112   6.191  0.2940  1.6613 -0.4298
16503TIP3    H271001   2.077   6.072   6.084  0.0418 -1.8487  0.9524
16504TIP3   OH271002   0.566   1.375  17.105 -0.1360  0.2950  0.3815
16504TIP3    H171003   0.607   1.298  17.065 -0.7411  0.0740  0.1633
16504TIP3    H271004   0.491   1.393  17.048  0.1034  1.1609  0.3278
16505TIP3   OH271005   4.904   5.239  15.934  0.2383  0.0909 -0.1254
16505TIP3    H171006   4.956   5.203  15.861  0.5644 -0.0720  0.1818
16505TIP3    H271007   4.813   5.227  15.907  0.3416  1.4411 -1.1997
16506TIP3   OH271008   3.285   3.359  12.684  0.2507 -0.0636 -0.1036
16506TIP3    H171009   3.250   3.390  12.600  0.1530 -0.9809 -0.4063
16506TIP3    H271010   3.360   3.416  12.701 -0.6784  1.1792 -0.0167
16507TIP3   OH271011   1.179   3.385   3.078  0.9999 -0.6062  0.0954
16507TIP3    H171012   1.101   3.341   3.111 -0.1835  0.0098 -1.7523
16507TIP3    H271013   1.177   3.472   3.119  0.8779 -0.6932  0.2725
16508TIP3   OH271014   1.980   3.252   3.276  0.2065  0.2713  0.0358
16508TIP3    H171015   1.913   3.185   3.263 -0.4760  0.9983 -0.2864
16508TIP3    H271016   2.058   3.216   3.235 -0.7481  0.6349 -2.2232
16509TIP3   OH271017   2.458   1.049   3.222  0.1527 -0.2747 -0.2823
16509TIP3    H171018   2.524   1.031   3.154  1.8095 -0.3363  1.2714
16509TIP3    H271019   2.441   1.143   3.214  1.2664 -0.0378  0.0075
16510TIP3   OH271020   5.906   1.030  16.285  0.0305 -0.1609 -0.3065
16510TIP3    H171021   5.819   1.066  16.269  0.7530  1.0364 -1.7559
16510TIP3    H271022   5.900   0.939  16.257 -0.8802 -0.2333  0.0933
16511TIP3   OH271023   1.696   4.158   3.057  0.3704 -0.4780 -0.0979
16511TIP3    H171024   1.725   4.208   2.981 -0.1733  0.1972  0.1245
16511TIP3    H271025   1.776   4.129   3.099  0.6837 -0.4127 -0.6439
16512TIP3   OH271026   1.719   3.673   1.246  0.2508 -0.1621 -0.0413
16512TIP3    H171027   1.687   3.597   1.199 -1.0611  0.5079 -0.2818
16512TIP3    H271028   1.695   3.748   1.191  1.8264  0.4372  0.0063
16513TIP3   OH271029   3.606   6.650  13.312 -0.0413  1.1503  0.1930
16513TIP3    H171030   3.549   6.577  13.336  1.3559  0.1614  0.5843
16513TIP3    H271031   3.606   6.706  13.389  0.8094  0.3151  0.8055
16514TIP3   OH271032   3.269   3.924   4.428 -0.3789 -0.1857 -0.6116
16514TIP3    H171033   3.177   3.918   4.455  0.2863  2.1581  2.9197
16514TIP3    H271034   3.306   3.838   4.448 -1.2154 -0.2450  0.8122
16515TIP3   OH271035   3.060   2.847   5.499 -0.6417  0.1491  0.3803
16515TIP3    H171036   3.062   2.911   5.570 -0.9629  0.6952 -0.0938
16515TIP3    H271037   2.995   2.783   5.527  0.0190 -0.2320  1.0729
16516TIP3   OH271038   4.877   1.354   2.536 -0.5516  0.0362  0.1388
16516TIP3    H171039   4.855   1.438   2.575 -2.1994 -0.3229  0.0534
16516TIP3    H271040   4.853   1.362   2.444  1.1742  0.1108 -0.3469
16517TIP3   OH271041   6.368   6.427   6.274  0.0149 -0.1906 -0.2462
16517TIP3    H171042   6.277   6.397   6.272 -0.9782  2.5236  0.3244
16517TIP3    H271043   6.418   6.354   6.237 -2.3261 -1.8909 -0.2933
16518TIP3   OH271044   5.951   4.886  13.093 -0.4308 -0.1192  0.6493
16518TIP3    H171045   5.984   4.902  13.181 -0.5667 -1.7014  1.0263
16518TIP3    H271046   5.862   4.921  13.093  0.4701  2.3037  0.2736
16519TIP3   OH271047   2.240   5.431  15.842 -0.2959  0.0177 -0.1770
16519TIP3    H171048   2.190   5.450  15.921 -1.1072  1.0021 -0.9068
16519TIP3    H271049   2.174   5.413  15.775  0.3676 -0.3602 -0.7416
16520TIP3   OH271050   4.097   3.405  13.584 -0.1656  0.4088 -0.3778
16520TIP3    H171051   4.156   3.435  13.653 -0.9757  0.2030  0.4351
16520TIP3    H271052   4.102   3.309  13.590  1.3605  0.3380 -2.0353
16521TIP3   OH271053   2.129   3.333  16.489  0.3807 -0.2260  0.2742
16521TIP3    H171054   2.127   3.286  16.573 -2.7867  1.7667  1.4959
16521TIP3    H271055   2.052   3.301  16.442  1.4226 -0.3978 -1.3898
16522TIP3   OH271056   1.548   6.395  13.167  0.2055 -0.0510  0.4750
16522TIP3    H171057   1.509   6.372  13.083 -0.2460  0.5832  0.5064
16522TIP3    H271058   1.585   6.482  13.153  0.5709 -0.1537  0.7920
16523TIP3   OH271059   4.398   6.060   0.741 -0.3141  0.4785 -0.8078
16523TIP3    H171060   4.452   5.983   0.755 -2.1492 -0.9413 -1.1463
16523TIP3    H271061   4.353   6.073   0.825 -0.9143  0.4321 -1.1143
16524TIP3   OH271062   2.185   1.637  16.998  0.1224  0.5348  0.0856
16524TIP3    H171063   2.213   1.546  17.000  1.6261  0.9754 -0.1786
16524TIP3    H271064   2.092   1.633  16.974  0.2396 -0.9014 -0.1851
16525TIP3   OH271065   0.765   3.719   3.650 -0.0784 -0.3279  0.1565
16525TIP3    H171066   0.710   3.791   3.682  1.3828 -0.0054  2.0453
16525TIP3    H271067   0.702   3.656   3.615 -1.6329  0.2630  1.7474
16526TIP3   OH271068   2.354   0.188   2.634 -0.3487  0.0610  0.2118
16526TIP3    H171069   2.378   0.136   2.557 -1.6975 -1.7430  0.9235
16526TIP3    H271070   2.360   0.126   2.707 -1.8328  0.9530  1.1386
16527TIP3   OH271071   5.986   1.873  17.449 -0.4944 -0.3264 -0.7635
16527TIP3    H171072   6.050   1.926  17.496  0.1902 -1.1944 -0.7163
16527TIP3    H271073   5.954   1.931  17.380 -0.8658  0.6648  0.2054
16528TIP3   OH271074   6.058   6.533  12.526 -0.1922 -0.2561  0.4923
16528TIP3    H171075   6.046   6.622  12.492  0.3284 -0.1501  0.5752
16528TIP3    H271076   6.077   6.546  12.619  0.9178 -0.3816  0.2962
16529TIP3   OH271077   5.020   6.745   0.566  0.6642  0.1051 -0.7115
16529TIP3    H171078   4.933   6.784   0.564  0.3973 -0.3107  1.0735
16529TIP3    H271079   5.070   6.801   0.626  0.8201 -1.1666  0.3887
16530TIP3   OH271080   1.250   2.783  16.473 -0.4228  0.1827  0.1330
16530TIP3    H171081   1.282   2.693  16.485 -0.5590  0.2550  1.1209
16530TIP3    H271082   1.300   2.834  16.537  0.8120  1.1120 -1.4932
16531TIP3   OH271083   1.487   2.402   2.961  0.1510  0.1812 -1.1554
16531TIP3    H171084   1.508   2.365   3.046 -0.4132 -2.2264 -1.9804
16531TIP3    H271085   1.402   2.364   2.939 -1.8513  4.0869 -0.9930
16532TIP3   OH271086   3.979   0.972  12.455  0.5421 -0.0687 -0.0746
16532TIP3    H171087   4.002   1.041  12.393 -0.3527  0.8632  0.6135
16532TIP3    H271088   3.915   0.918  12.408 -0.5991  0.9878  0.2339
16533TIP3   OH271089   6.010   1.453  14.951 -0.2207  0.2065 -0.2291
16533TIP3    H171090   6.072   1.453  15.024  0.6170 -0.9717 -0.9109
16533TIP3    H271091   5.960   1.534  14.962  0.9461  0.8224  0.7536
16534TIP3   OH271092   3.116   1.517  17.049  0.1692  0.2148  0.0991
16534TIP3    H171093   3.133   1.537  16.957  2.0274 -2.3018 -0.2454
16534TIP3    H271094   3.023   1.496  17.052  0.0426  0.4710 -1.2059
16535TIP3   OH271095   4.017   3.912   4.815 -0.3914 -0.6244 -0.7350
16535TIP3    H171096   3.932   3.945   4.841 -0.4697 -1.3002 -0.0962
16535TIP3    H271097   4.079   3.979   4.843 -0.6050 -0.6960 -0.0864
16536TIP3   OH271098   5.393   0.208  11.414 -0.4809 -0.4524  0.3383
16536TIP3    H171099   5.478   0.240  11.385 -0.7845 -1.4009 -1.7619
16536TIP3    H271100   5.338   0.210  11.335 -2.8906  1.5213  1.8937
16537TIP3   OH271101   2.959   3.713   2.790 -0.0372  0.3051  0.1323
16537TIP3    H171102   2.883   3.770   2.805 -0.1592 -0.2672  1.8815
16537TIP3    H271103   2.922   3.636   2.747 -0.5712 -0.2094  1.4654
16538TIP3   OH271104   0.392   2.343   5.901  0.1542 -0.0263  0.0272
16538TIP3    H171105   0.384   2.380   5.813 -0.4095  0.0088  0.0850
16538TIP3    H271106   0.391   2.419   5.959 -2.9029 -0.1071  0.2767
16539TIP3   OH271107   1.676   2.702  13.134  0.0228 -0.4594 -0.0533
16539TIP3    H171108   1.751   2.724  13.079 -0.6892 -0.2679 -0.9684
16539TIP3    H271109   1.630   2.785  13.147 -0.7986 -0.8072 -0.6689
16540TIP3   OH271110   2.450   4.611  13.153 -0.4386 -0.1708  0.5176
16540TIP3    H171111   2.543   4.634  13.144 -0.4988 -0.2284 -0.4060
16540TIP3    H271112   2.417   4.614  13.063 -1.8342  1.9006  1.0520
16541TIP3   OH271113   5.613   3.330  12.225  0.3030 -0.0423 -0.5325
16541TIP3    H171114   5.685   3.267  12.227  1.2008  0.7163 -3.5294
16541TIP3    H271115   5.534   3.277  12.233  1.0912 -1.3483 -1.0846
16542TIP3   OH271116   3.144   3.211  11.692 -0.3489  0.5532 -0.0772
16542TIP3    H171117   3.102   3.175  11.614 -1.3927  0.8228  0.3522
16542TIP3    H271118   3.080   3.271  11.728 -0.4728 -0.6482  1.8073
16543TIP3   OH271119   2.420   4.589  11.638  0.3053 -0.0182  0.3211
16543TIP3    H171120   2.342   4.580  11.583 -0.2073 -1.2533  1.1899
16543TIP3    H271121   2.387   4.623  11.721  0.7068 -0.4120  0.6483
16544TIP3   OH271122   3.602   2.769   1.312 -0.1649  0.7339 -0.9575
16544TIP3    H171123   3.597   2.862   1.289 -0.3156  0.5335 -1.7700
16544TIP3    H271124   3.514   2.746   1.341  0.2025  1.1656  0.5726
16545TIP3   OH271125   5.826   6.582   4.275  0.3419 -0.0073 -0.1487
16545TIP3    H171126   5.911   6.609   4.310 -0.1257 -0.9058  1.8121
16545TIP3    H271127   5.763   6.643   4.314 -0.0489 -0.0347 -0.7132
16546TIP3   OH271128   1.360   1.240  15.352 -0.1743 -0.1487  0.0589
16546TIP3    H171129   1.357   1.260  15.258 -0.9375  1.2938  0.3753
16546TIP3    H271130   1.352   1.145  15.356 -0.6238 -0.1923 -1.3227
16547TIP3   OH271131   4.535   0.309   2.065  0.3930 -0.0185  0.7227
16547TIP3    H171132   4.461   0.254   2.093  1.4097 -1.5736  0.4998
16547TIP3    H271133   4.519   0.325   1.973 -0.4346  0.9485  1.0189
16548TIP3   OH271134   2.521   3.448   4.144 -0.4035  0.3407 -0.0442
16548TIP3    H171135   2.427   3.441   4.132 -0.5056  0.7709  0.4436
16548TIP3    H271136   2.537   3.413   4.232 -0.3816  2.1251  0.6967
16549TIP3   OH271137   0.272   2.036   3.191  0.3108  0.0311  0.9364
16549TIP3    H171138   0.269   1.974   3.264 -0.5330  2.4423  3.1321
16549TIP3    H271139   0.189   2.025   3.146  0.0915 -0.2935  1.4135
16550TIP3   OH271140   5.832   4.361  11.075 -0.3782  0.2988 -0.2487
16550TIP3    H171141   5.893   4.401  11.136  2.1324 -1.4560 -1.4376
16550TIP3    H271142   5.855   4.398  10.990 -1.9716  0.6457 -0.5610
16551TIP3   OH271143   3.579   4.778  14.006 -0.0123  0.2176  0.0983
16551TIP3    H171144   3.599   4.709  13.942  0.0802  0.8967 -0.6214
16551TIP3    H271145   3.663   4.797  14.047  0.3481  1.1862 -1.0236
16552TIP3   OH271146   0.923   5.820  14.583 -0.1958 -0.0894  0.0898
16552TIP3    H171147   0.854   5.881  14.556 -1.3540 -0.1916  2.4932
16552TIP3    H271148   0.914   5.746  14.523 -1.8046  0.1781 -0.0608
16553TIP3   OH271149   4.870   5.069   6.187  0.5327  0.3875 -0.1844
16553TIP3    H171150   4.810   5.106   6.253 -0.3736 -1.1424 -0.0788
16553TIP3    H271151   4.957   5.087   6.221  0.0902 -0.8118  1.7741
16554TIP3   OH271152   3.897   1.682   5.326 -0.5795  0.1078 -0.1668
16554TIP3    H171153   3.820   1.735   5.305 -2.1928 -2.7367 -2.0915
16554TIP3    H271154   3.877   1.644   5.411 -0.3952  0.8408  0.2154
16555TIP3   OH271155   3.465   2.568  15.970 -0.0241  0.0427  0.0736
16555TIP3    H171156   3.487   2.654  16.006 -0.2571  0.9600 -1.8846
16555TIP3    H271157   3.370   2.565  15.969 -0.0466  0.4449 -1.3156
16556TIP3   OH271158   5.853   1.753  12.050 -0.4037 -0.2026  0.0836
16556TIP3    H171159   5.946   1.754  12.030 -0.0056 -0.6218  1.7632
16556TIP3    H271160   5.819   1.834  12.012  0.0266 -1.3767 -3.0734
16557TIP3   OH271161   3.189   5.236   0.983  0.2371  0.0095  0.2554
16557TIP3    H171162   3.199   5.317   0.933  1.9759 -0.8217 -0.8503
16557TIP3    H271163   3.098   5.211   0.971 -0.8097  2.5969  1.9802
16558TIP3   OH271164   4.717   2.194   4.728 -0.5183 -0.1463 -0.0988
16558TIP3    H171165   4.742   2.285   4.744 -0.3561 -0.3813  1.0294
16558TIP3    H271166   4.645   2.178   4.789  0.0155 -1.0322  0.3038
16559TIP3   OH271167   5.148   0.540   6.255 -0.1018  0.1568  0.0576
16559TIP3    H171168   5.147   0.603   6.183 -0.6354 -0.5523 -0.5735
16559TIP3    H271169   5.059   0.543   6.290 -0.5535 -1.2267 -0.8758
16560TIP3   OH271170   4.846   4.438  16.204 -0.0153  0.0089 -0.0478
16560TIP3    H171171   4.842   4.507  16.137 -0.7726  0.3853  0.3674
16560TIP3    H271172   4.935   4.443  16.239  0.3271 -0.0673 -0.8935
16561TIP3   OH271173   0.378   3.624  11.547 -0.7858  0.0337  0.2763
16561TIP3    H171174   0.355   3.712  11.578 -0.2997  0.3406 -0.2232
16561TIP3    H271175   0.343   3.620  11.458  1.7953  0.8538 -0.8773
16562TIP3   OH271176   0.408   2.780  16.151  0.3823 -0.0423 -0.0344
16562TIP3    H171177   0.368   2.840  16.089  0.4738 -0.2467 -0.2921
16562TIP3    H271178   0.429   2.834  16.227  0.8994  0.3442 -0.4505
16563TIP3   OH271179   5.226   5.411  14.204 -0.4211 -0.9562  0.2258
16563TIP3    H171180   5.247   5.416  14.298 -0.4881 -1.4297  0.2711
16563TIP3    H271181   5.137   5.377  14.202 -0.8643  0.1856  0.0134
16564TIP3   OH271182   1.369   1.470   0.420 -0.0516  0.5375  0.0949
16564TIP3    H171183   1.373   1.525   0.498 -1.6303  1.8100 -0.6691
16564TIP3    H271184   1.375   1.532   0.347  0.3120 -0.5290 -0.8147
16565TIP3   OH271185   4.749   1.244  16.765  0.1609  0.1121  0.1073
16565TIP3    H171186   4.691   1.294  16.823  1.5369  0.6270  1.1012
16565TIP3    H271187   4.824   1.302  16.751  0.9009 -0.9183 -0.3047
16566TIP3   OH271188   1.242   2.347  13.367 -0.4848  0.5184  0.0648
16566TIP3    H171189   1.327   2.364  13.407 -0.4633  1.8066 -0.4720
16566TIP3    H271190   1.192   2.427  13.383 -1.0509  0.3905 -0.9734
16567TIP3   OH271191   6.546   4.291  12.838  0.0068 -0.0965  0.2225
16567TIP3    H171192   6.640   4.290  12.854  0.2020  0.0873 -0.8624
16567TIP3    H271193   6.530   4.375  12.795 -0.7060  0.0121  0.6869
16568TIP3   OH271194   0.038   0.547   0.923  0.1151 -0.2788 -0.0702
16568TIP3    H171195  -0.025   0.504   0.980  0.5118 -3.2241 -1.6223
16568TIP3    H271196   0.119   0.498   0.935  0.3014 -0.8007 -2.7925
16569TIP3   OH271197   3.555   6.571  16.539  0.1924 -0.0376 -0.3151
16569TIP3    H171198   3.523   6.657  16.566 -0.3512 -0.9402  2.1758
16569TIP3    H271199   3.615   6.590  16.466 -0.7203  2.3191 -0.5525
16570TIP3   OH271200   3.168   4.018  13.854 -0.0036 -0.8722  0.1159
16570TIP3    H171201   3.078   4.042  13.872  0.6144  0.7338  1.2089
16570TIP3    H271202   3.180   3.934  13.898 -0.9025 -1.0202  0.0955
16571TIP3   OH271203   1.644   2.529   0.650 -0.1473  0.4651 -0.1850
16571TIP3    H171204   1.548   2.528   0.654 -0.1308 -0.0165  0.3120
16571TIP3    H271205   1.669   2.614   0.686 -0.4258  1.2526 -1.7770
16572TIP3   OH271206   6.534   2.626   4.774  0.2615 -0.9539  0.5351
16572TIP3    H171207   6.584   2.707   4.769  1.2785 -1.2925  3.3383
16572TIP3    H271208   6.562   2.576   4.698  0.2030  0.9593 -0.8232
16573TIP3   OH271209   6.667   1.333   4.778  0.1794  0.5751  0.7817
16573TIP3    H171210   6.688   1.423   4.755 -0.0481  0.3927 -0.1902
16573TIP3    H271211   6.732   1.280   4.730 -0.4961  0.1671  0.3000
16574TIP3   OH271212   5.400   3.099   3.400  0.4756  0.5734  0.1335
16574TIP3    H171213   5.400   3.005   3.380  2.4814  0.6381 -0.4287
16574TIP3    H271214   5.389   3.141   3.315 -0.9165  0.8686  0.4452
16575TIP3   OH271215   0.156   1.087  11.122  0.1359 -0.4398 -0.2587
16575TIP3    H171216   0.236   1.096  11.071  0.5535 -1.0154  0.2856
16575TIP3    H271217   0.185   1.062  11.209 -0.6865 -2.6045 -0.5303
16576TIP3   OH271218   5.296   1.646   0.920  0.2129 -0.3672  0.1146
16576TIP3    H171219   5.370   1.589   0.900  0.1123  0.7081 -4.3745
16576TIP3    H271220   5.326   1.700   0.993  2.4662 -2.2302  0.7047
16577TIP3   OH271221   0.360   4.813   4.974  0.2323  0.6415 -0.9506
16577TIP3    H171222   0.408   4.856   5.045 -0.9425  1.1516 -0.4285
16577TIP3    H271223   0.349   4.723   5.005  1.2200  0.3957 -1.2792
16578TIP3   OH271224   0.108   5.073   5.726  0.1399  0.4077  0.1028
16578TIP3    H171225   0.026   5.022   5.724 -0.6790  1.7067 -0.9816
16578TIP3    H271226   0.110   5.110   5.814  0.2753 -0.7159  0.5974
16579TIP3   OH271227   5.885   4.509   1.106 -0.1537 -0.1120 -0.1244
16579TIP3    H171228   5.891   4.459   1.025  2.2435  0.1574 -0.1831
16579TIP3    H271229   5.861   4.445   1.172 -0.6489 -0.6308 -0.7952
16580TIP3   OH271230   0.440   6.354  12.039 -0.0466  0.1283  0.1408
16580TIP3    H171231   0.487   6.426  11.996  1.6799  0.6305  2.6288
16580TIP3    H271232   0.353   6.389  12.057  0.0106  0.7440 -0.7315
16581TIP3   OH271233   6.136   1.373   5.506 -0.6605 -0.0023  0.1908
16581TIP3    H171234   6.172   1.355   5.419 -1.0663 -0.9197  0.1914
16581TIP3    H271235   6.097   1.460   5.499 -1.5326 -0.4463 -0.8531
16582TIP3   OH271236   5.063   0.170   1.710 -0.2734  0.4752  1.0649
16582TIP3    H171237   5.046   0.093   1.657 -1.7657  0.5894  1.3542
16582TIP3    H271238   4.994   0.171   1.776  0.8233  1.0186  2.2534
16583TIP3   OH271239   4.337   2.034   2.360  0.1110 -0.1294 -0.1397
16583TIP3    H171240   4.387   2.035   2.441 -0.6267  0.2082  0.3159
16583TIP3    H271241   4.277   2.108   2.368 -2.1673 -1.9451  0.3879
16584TIP3   OH271242   0.462   0.400   0.142 -0.4387 -0.3231 -0.3718
16584TIP3    H171243   0.534   0.450   0.181 -0.8710 -0.1633  0.2297
16584TIP3    H271244   0.493   0.379   0.053  0.6495 -0.8827  0.1181
16585TIP3   OH271245   3.672   2.504  11.764  0.4536 -0.5917  0.2958
16585TIP3    H171246   3.729   2.581  11.762 -0.0487 -0.2255 -1.0685
16585TIP3    H271247   3.733   2.430  11.757  0.8048 -0.2133 -0.9765
16586TIP3   OH271248   6.480   6.732  15.267 -0.3337 -0.1591  0.4145
16586TIP3    H171249   6.523   6.798  15.321 -1.0831 -0.3393  1.2509
16586TIP3    H271250   6.462   6.660  15.327  0.0537 -0.9341 -0.3842
16587TIP3   OH271251   1.166   3.331  12.086  0.1933 -0.0189  0.3595
16587TIP3    H171252   1.121   3.414  12.075 -0.7094 -0.4670  0.6118
16587TIP3    H271253   1.106   3.266  12.051  1.8183 -0.3827 -2.0054
16588TIP3   OH271254   4.197   4.600  13.561 -0.4847 -0.2195 -0.4079
16588TIP3    H171255   4.109   4.634  13.578  0.0025 -0.0207  2.1384
16588TIP3    H271256   4.232   4.655  13.491 -1.6982  0.9187 -0.1538
16589TIP3   OH271257   1.810   0.350  15.417 -0.1656 -0.4367 -0.4980
16589TIP3    H171258   1.884   0.294  15.440 -2.0663 -3.0346 -0.2650
16589TIP3    H271259   1.751   0.344  15.493 -1.7923 -0.6274 -1.7240
16590TIP3   OH271260   5.501   1.935   4.236  0.1930 -0.3815 -0.3529
16590TIP3    H171261   5.515   1.841   4.248 -2.8220 -0.9627 -0.7331
16590TIP3    H271262   5.567   1.977   4.293  1.5874 -2.6753 -0.1696
16591TIP3   OH271263   6.371   1.028   3.314 -0.2524  0.0745  0.7977
16591TIP3    H171264   6.305   0.966   3.343  2.0531 -1.8284  2.3811
16591TIP3    H271265   6.394   1.000   3.225  1.1593 -1.8162  1.6949
16592TIP3   OH271266   6.154   6.694  13.373 -0.1919  0.4493  0.4279
16592TIP3    H171267   6.172   6.616  13.426 -2.2068 -0.6095 -0.3509
16592TIP3    H271268   6.059   6.699  13.370 -0.1089  2.7930  0.1857
16593TIP3   OH271269   1.498   4.058   5.639 -0.3031  0.2865  0.3159
16593TIP3    H171270   1.445   3.995   5.591  0.3310 -0.6247  0.8015
16593TIP3    H271271   1.588   4.037   5.617  0.0089 -0.1395  1.8538
16594TIP3   OH271272   5.973   3.415   0.366  0.0174  0.0071 -0.2109
16594TIP3    H171273   5.950   3.487   0.307  0.7372  1.3573  1.1044
16594TIP3    H271274   6.006   3.347   0.308 -0.1497  0.9419 -1.4515
16595TIP3   OH271275   6.314   2.588  16.527  0.4710  0.1414  0.1034
16595TIP3    H171276   6.380   2.655  16.547  0.8360 -0.2529  0.2312
16595TIP3    H271277   6.322   2.574  16.433  0.4545  0.2117  0.0910
16596TIP3   OH271278   3.968   5.459  14.562  0.1700 -0.1680  0.6594
16596TIP3    H171279   4.011   5.527  14.508 -0.5473 -0.6986 -0.6308
16596TIP3    H271280   3.876   5.483  14.561  0.1911  0.0267  2.0186
16597TIP3   OH271281   4.223   0.156  11.908  0.2722 -0.0156  0.5885
16597TIP3    H171282   4.258   0.080  11.954  0.6396  0.4819  1.1557
16597TIP3    H271283   4.145   0.124  11.863  0.9003 -0.9145  0.1297
16598TIP3   OH271284   4.554   2.535   0.070  0.6286  0.0278 -0.3429
16598TIP3    H171285   4.536   2.485  -0.010  0.3876 -2.1539  1.0022
16598TIP3    H271286   4.502   2.491   0.138  4.7339 -1.5969  2.1062
16599TIP3   OH271287   3.071   4.635   1.691  0.3253  0.1300 -0.3913
16599TIP3    H171288   3.068   4.590   1.775  0.7409 -1.1348 -1.0277
16599TIP3    H271289   3.037   4.723   1.709  0.7380 -0.0099  1.1520
16600TIP3   OH271290   0.309   4.818  16.509 -0.1696 -0.0869  0.4657
16600TIP3    H171291   0.287   4.847  16.421  0.0321 -0.0710  0.4213
16600TIP3    H271292   0.378   4.877  16.538  2.1225 -2.0988 -0.6170
16601TIP3   OH271293   5.911   4.780  11.326  0.5508 -0.1032  0.0381
16601TIP3    H171294   5.827   4.735  11.311  0.6348 -0.1549 -0.2878
16601TIP3    H271295   5.887   4.872  11.337  0.2347 -0.3788  2.0496
16602TIP3   OH271296   2.314   5.249   4.490  0.0471  0.1934 -0.5961
16602TIP3    H171297   2.393   5.302   4.479  0.5316 -0.3588  0.1376
16602TIP3    H271298   2.305   5.202   4.407  0.6415  0.0627 -0.5910
16603TIP3   OH271299   3.265   5.323  13.797  0.4096 -0.0643  0.4434
16603TIP3    H171300   3.324   5.383  13.844  0.6644  0.3967 -0.4476
16603TIP3    H271301   3.181   5.334  13.841  0.6439  0.3511  0.8074
16604TIP3   OH271302   1.003   2.742  15.471 -0.1159 -0.1139  0.0134
16604TIP3    H171303   1.016   2.746  15.376  0.2055  0.6338  0.0784
16604TIP3    H271304   1.085   2.775  15.508 -0.3108 -0.2138  0.5502
16605TIP3   OH271305   0.917   5.049  14.428  0.2315 -0.1171 -0.3045
16605TIP3    H171306   0.842   4.991  14.430  0.1809 -0.1121 -1.4094
16605TIP3    H271307   0.993   4.991  14.436  0.1317 -0.0446  1.8541
16606TIP3   OH271308   5.846   3.091  13.195 -0.4989 -0.1243  1.0717
16606TIP3    H171309   5.763   3.135  13.177 -1.0658 -0.7618  2.0037
16606TIP3    H271310   5.913   3.147  13.155 -1.1869  1.5299  2.1297
16607TIP3   OH271311   2.080   3.790   5.227 -0.1458 -0.0063 -0.3913
16607TIP3    H171312   2.167   3.801   5.188 -0.1829  0.7177 -0.2790
16607TIP3    H271313   2.024   3.761   5.155  0.1424 -0.2817 -0.5065
16608TIP3   OH271314   1.427   4.132  11.949 -0.2653  0.3697 -0.4283
16608TIP3    H171315   1.470   4.157  12.031 -2.3595 -0.7270  1.1215
16608TIP3    H271316   1.476   4.056  11.919  0.0063  0.2449  0.2918
16609TIP3   OH271317   6.539   2.234   1.960  0.1419  0.3687 -0.2429
16609TIP3    H171318   6.601   2.286   2.011 -1.0457  3.3750 -1.6613
16609TIP3    H271319   6.594   2.186   1.898  1.2948 -0.5132  1.3683
16610TIP3   OH271320   2.738   5.586   4.310 -0.7637  0.5786 -0.1105
16610TIP3    H171321   2.698   5.590   4.397 -1.8618 -0.1596 -0.5611
16610TIP3    H271322   2.700   5.508   4.270  0.4578  0.3688 -0.9087
16611TIP3   OH271323   3.598   2.866   4.802  0.3256 -0.2458 -0.2312
16611TIP3    H171324   3.547   2.791   4.833 -0.7259  0.9754  1.1427
16611TIP3    H271325   3.545   2.903   4.731  0.6169 -0.5213 -0.5958
16612TIP3   OH271326   1.670   6.035   2.162 -0.1617  0.0058 -0.0621
16612TIP3    H171327   1.732   6.004   2.096  1.3633 -1.5986  1.9644
16612TIP3    H271328   1.641   6.121   2.130  2.4522  0.4402 -1.5592
16613TIP3   OH271329   1.208   2.888   5.621 -0.5572  0.1652  0.3950
16613TIP3    H171330   1.235   2.833   5.695 -0.0476 -0.3589 -0.1618
16613TIP3    H271331   1.135   2.940   5.654 -1.5016 -1.3372  0.7621
16614TIP3   OH271332   3.879   0.866   3.779 -0.2408 -0.4478  0.3023
16614TIP3    H171333   3.974   0.868   3.764 -0.1456 -2.3277  0.4448
16614TIP3    H271334   3.851   0.956   3.761  1.5618  0.1727  0.2967
16615TIP3   OH271335   5.995   2.007   3.069  0.1308  0.6035 -0.8494
16615TIP3    H171336   6.015   2.029   2.978  2.6401 -2.5043 -1.2550
16615TIP3    H271337   5.929   1.938   3.063  1.7175 -1.0415 -0.5859
16616TIP3   OH271338   6.470   5.017  11.319 -0.1079  0.1775  0.2702
16616TIP3    H171339   6.442   5.109  11.316  1.0130  0.5820  1.2722
16616TIP3    H271340   6.390   4.968  11.335 -0.6706  1.0240  0.1110
16617TIP3   OH271341   3.755   0.488   1.519  0.6046 -0.2503 -0.0106
16617TIP3    H171342   3.803   0.521   1.595 -1.3624 -1.0351  1.6797
16617TIP3    H271343   3.764   0.393   1.523  1.7173 -0.2531 -1.6793
16618TIP3   OH271344   3.243   4.825  15.455  0.0281  0.2377  0.1537
16618TIP3    H171345   3.209   4.737  15.437  0.7589 -0.3087  1.3013
16618TIP3    H271346   3.293   4.848  15.377  0.5185 -0.7294  0.1741
16619TIP3   OH271347   1.556   5.310   1.318 -0.0067  0.0257 -0.3181
16619TIP3    H171348   1.530   5.302   1.410 -0.1138 -0.8600 -0.4202
16619TIP3    H271349   1.482   5.354   1.276 -0.4753 -0.6302 -0.1997
16620TIP3   OH271350   3.434   5.966  15.610 -0.0661 -0.5908  0.1205
16620TIP3    H171351   3.528   5.954  15.594 -0.0969  0.5275 -1.1537
16620TIP3    H271352   3.409   5.892  15.665  1.5084 -1.0527  0.2700
16621TIP3   OH271353   1.090   6.012   6.013 -0.1184 -0.2262 -0.2590
16621TIP3    H171354   1.055   5.993   6.100  0.6479  0.4777  0.2175
16621TIP3    H271355   1.179   6.042   6.030  1.2241 -3.1089 -1.4911
16622TIP3   OH271356   4.777   0.004  12.199 -0.0232 -0.3578 -0.2311
16622TIP3    H171357   4.833   0.080  12.213 -0.3540  0.3364 -2.3398
16622TIP3    H271358   4.837  -0.064  12.168 -0.0210 -0.3292 -0.2892
16623TIP3   OH271359   1.572   0.520   0.979  0.0944  0.2935  0.3353
16623TIP3    H171360   1.589   0.454   1.047  0.3340 -0.5785 -0.5417
16623TIP3    H271361   1.628   0.594   1.002  0.6332 -0.2365  0.7450
16624TIP3   OH271362   0.715   4.181  12.210  0.8168 -0.6664 -0.4395
16624TIP3    H171363   0.659   4.230  12.150  1.3504 -0.9098 -1.1486
16624TIP3    H271364   0.660   4.167  12.288  1.3582  2.9820  0.7664
16625TIP3   OH271365   1.387   4.249   0.843 -0.2064  0.2830 -0.4272
16625TIP3    H171366   1.344   4.177   0.797  0.3075  0.9205 -1.9661
16625TIP3    H271367   1.427   4.302   0.774  1.7068  0.5914  0.8199
16626TIP3   OH271368   4.856   4.620  16.980 -0.3312  0.6063  0.0233
16626TIP3    H171369   4.795   4.577  17.041  0.7226  0.5829  1.0892
16626TIP3    H271370   4.925   4.556  16.965 -0.2579  0.8466 -0.7135
16627TIP3   OH271371   3.265   5.392  16.568 -0.4967  0.3199  0.0358
16627TIP3    H171372   3.245   5.300  16.585 -3.5647  1.2280  2.1012
16627TIP3    H271373   3.229   5.410  16.482  2.2447 -0.8437 -1.4961
16628TIP3   OH271374   4.909   2.614  11.766 -0.0011 -0.1326  0.3448
16628TIP3    H171375   4.868   2.541  11.812  2.3679 -0.6296  1.8668
16628TIP3    H271376   4.957   2.573  11.694 -1.4877  0.3651 -0.9896
16629TIP3   OH271377   4.665   2.125   1.076 -0.1623  0.0950  0.6670
16629TIP3    H171378   4.731   2.147   1.141  0.2381 -1.3172  0.7851
16629TIP3    H271379   4.650   2.031   1.089 -0.5863 -0.0633 -0.8150
16630TIP3   OH271380   5.076   1.547  13.168  0.2693 -0.2809  0.0131
16630TIP3    H171381   5.053   1.590  13.085 -1.7266 -0.5973  0.3584
16630TIP3    H271382   5.067   1.616  13.233  1.5567 -0.1056  0.0141
16631TIP3   OH271383   1.526   4.753  13.613 -0.4428  0.4183 -0.0520
16631TIP3    H171384   1.445   4.800  13.635 -1.7003 -1.5387 -0.1851
16631TIP3    H271385   1.586   4.774  13.685 -1.3582  1.2852  0.4833
16632TIP3   OH271386   3.895   2.229   2.224 -0.2448  0.2129 -0.0773
16632TIP3    H171387   3.881   2.135   2.207 -1.4925  0.4253 -0.3825
16632TIP3    H271388   3.977   2.233   2.271  0.0693 -1.0027 -0.4742
16633TIP3   OH271389   1.109   5.762  15.240  0.4255  0.3235  0.4113
16633TIP3    H171390   1.131   5.770  15.147  1.0338  0.7220  0.5783
16633TIP3    H271391   1.086   5.670  15.251 -2.5809  0.8225 -0.7165
16634TIP3   OH271392   1.271   6.682   2.747 -0.9048 -0.2716  0.1530
16634TIP3    H171393   1.185   6.659   2.713 -2.1040  0.3043  2.5582
16634TIP3    H271394   1.258   6.768   2.789  0.8192 -0.2008  0.6260
16635TIP3   OH271395   6.072   5.454  13.856 -0.0944 -0.2357  0.2120
16635TIP3    H171396   6.102   5.541  13.828  0.1842 -0.2328  0.5194
16635TIP3    H271397   6.122   5.436  13.936  0.7735 -1.1984 -0.5111
16636TIP3   OH271398   3.331   6.760  15.863 -0.2756  0.4925 -0.6059
16636TIP3    H171399   3.337   6.668  15.886 -0.9653  0.3049 -1.1524
16636TIP3    H271400   3.266   6.764  15.793  0.2515  1.3030 -1.0747
16637TIP3   OH271401   6.329   6.638  11.169  0.2627  0.3224 -0.0563
16637TIP3    H171402   6.335   6.697  11.244  1.3083  1.4036 -0.9460
16637TIP3    H271403   6.236   6.641  11.144  0.0779  0.6382  0.6568
16638TIP3   OH271404   6.597   0.859   4.357 -0.2668  0.0115  0.1528
16638TIP3    H171405   6.612   0.909   4.437 -1.0000  1.5427 -0.6298
16638TIP3    H271406   6.569   0.924   4.293  0.9310 -1.0765 -1.5557
16639TIP3   OH271407   5.460   2.420   6.645 -0.8412 -0.3126  0.1724
16639TIP3    H171408   5.549   2.399   6.614 -1.3632 -1.8593 -0.3527
16639TIP3    H271409   5.455   2.382   6.732 -0.1034  2.1941  1.4106
16640TIP3   OH271410   5.893   2.595  13.044  0.2000 -0.5785 -0.0344
16640TIP3    H171411   5.838   2.621  12.970  0.3956  0.7344  0.2696
16640TIP3    H271412   5.879   2.500  13.051 -1.8053 -0.3360 -0.1286
16641TIP3   OH271413   3.628   5.708   3.595 -0.0353 -0.2065 -0.0651
16641TIP3    H171414   3.650   5.616   3.610 -1.4919 -0.6290 -0.3842
16641TIP3    H271415   3.713   5.753   3.595  0.7481 -1.6169 -0.4273
16642TIP3   OH271416   3.116   0.673   0.396 -0.3192 -0.2348  0.3098
16642TIP3    H171417   3.175   0.743   0.370  0.8689 -1.8048 -1.4679
16642TIP3    H271418   3.168   0.593   0.387 -2.6392 -1.6803 -1.1502
16643TIP3   OH271419   1.552   4.867  11.765 -0.5959 -0.2958  0.2894
16643TIP3    H171420   1.629   4.904  11.808  0.1375 -2.0963  0.6130
16643TIP3    H271421   1.479   4.920  11.797  0.4773  1.4766 -0.0633
16644TIP3   OH271422   5.393   1.676  10.939 -0.7472 -0.6265  0.3235
16644TIP3    H171423   5.383   1.580  10.936 -0.6151 -0.6202 -1.9758
16644TIP3    H271424   5.309   1.708  10.971 -1.7222 -1.4257 -1.3027
16645TIP3   OH271425   3.265   4.027  13.169  0.2497  0.1581 -0.7017
16645TIP3    H171426   3.233   3.947  13.211 -2.1820  1.3661 -0.0976
16645TIP3    H271427   3.336   3.997  13.112 -1.0310 -2.5353 -1.0301
16646TIP3   OH271428   6.191   0.115  15.217  0.5549  0.5442 -0.6658
16646TIP3    H171429   6.203   0.171  15.140  0.4691  0.7111 -0.5569
16646TIP3    H271430   6.243   0.037  15.198 -0.6893 -0.0976 -1.5883
16647TIP3   OH271431   4.354   0.328   0.729 -0.0472  0.0533 -0.2160
16647TIP3    H171432   4.359   0.294   0.819  1.5263 -1.4398 -0.8199
16647TIP3    H271433   4.262   0.318   0.705  0.1339 -3.0204 -0.0090
16648TIP3   OH271434   0.270   4.022   3.865 -0.7550 -0.1505  0.1558
16648TIP3    H171435   0.254   4.005   3.773 -0.6878  1.9847 -0.3109
16648TIP3    H271436   0.233   4.109   3.880  0.0833 -0.0510  1.8969
16649TIP3   OH271437   4.568   3.604   0.056 -0.1534  0.7365 -0.0606
16649TIP3    H171438   4.594   3.694   0.078 -1.4734  1.2107 -0.3259
16649TIP3    H271439   4.481   3.594   0.095 -0.4068 -0.1131 -0.8110
16650TIP3   OH271440   3.510   6.337  15.426 -0.0039  0.6189  0.3799
16650TIP3    H171441   3.521   6.429  15.402 -2.2110  0.8106 -0.0222
16650TIP3    H271442   3.588   6.294  15.390 -0.0333  1.9703 -1.4091
16651TIP3   OH271443   2.336   3.971  16.525 -0.0362  0.1178 -0.4528
16651TIP3    H171444   2.345   3.876  16.517 -2.3881 -0.1111 -1.3902
16651TIP3    H271445   2.389   4.007  16.453  0.5870 -0.4906 -0.3055
16652TIP3   OH271446   4.485   1.940  17.324  0.1030 -0.4600  0.0098
16652TIP3    H171447   4.518   1.977  17.406  1.3838  1.6870 -1.3599
16652TIP3    H271448   4.478   1.846  17.341  1.0222 -0.1858  2.3257
16653TIP3   OH271449   0.538   1.564  14.260  0.1285  0.6042 -0.2608
16653TIP3    H171450   0.592   1.597  14.332 -2.1594  0.4591  1.6571
16653TIP3    H271451   0.595   1.500  14.215  1.1908 -0.4881  2.4033
16654TIP3   OH271452   5.105   6.078  13.420 -0.0327 -0.2141  0.1543
16654TIP3    H171453   5.046   6.148  13.393  0.1245  0.0340  0.4481
16654TIP3    H271454   5.192   6.119  13.420 -0.1269  0.0738  1.9610
16655TIP3   OH271455   1.255   2.493  17.216 -0.1916  0.4771  0.2873
16655TIP3    H171456   1.293   2.573  17.180  0.5670  0.6177  1.3147
16655TIP3    H271457   1.186   2.524  17.275 -0.8131  0.2965 -0.3328
16656TIP3   OH271458   3.369   1.112  13.366  0.0752 -0.2978  0.3579
16656TIP3    H171459   3.307   1.124  13.294  0.9172  1.5006 -0.1023
16656TIP3    H271460   3.438   1.057  13.329  0.2943  0.2713 -0.1070
16657TIP3   OH271461   6.370   3.759  12.876 -0.1781 -0.0489  0.1396
16657TIP3    H171462   6.332   3.752  12.964 -0.8043 -0.5604 -0.1560
16657TIP3    H271463   6.463   3.741  12.888 -0.3387 -0.5824  0.6445
16658TIP3   OH271464   1.371   1.863   2.502 -0.1110  0.2621  0.0477
16658TIP3    H171465   1.349   1.917   2.426 -3.1436 -0.5603  0.1894
16658TIP3    H271466   1.382   1.775   2.466  1.1533  0.3178  0.2629
16659TIP3   OH271467   4.543   2.953  12.562  0.0410 -0.0505  0.0415
16659TIP3    H171468   4.471   3.010  12.535  0.4388  0.8067  0.7690
16659TIP3    H271469   4.569   2.909  12.481 -1.0800 -0.1341 -0.2949
16660TIP3   OH271470   0.802   0.529   3.116  0.4414 -0.1677 -0.1379
16660TIP3    H171471   0.855   0.571   3.185 -0.0478  1.5354 -0.7385
16660TIP3    H271472   0.732   0.484   3.164  0.6540  0.1903  0.5244
16661TIP3   OH271473   4.065   1.044  11.834  0.5018 -0.1187 -0.1209
16661TIP3    H171474   3.981   1.013  11.802  0.3035 -2.7086  2.4988
16661TIP3    H271475   4.121   1.048  11.757 -1.6045  0.3344 -1.6953
16662TIP3   OH271476   4.386   2.135   5.247 -0.3648  0.1381  0.3881
16662TIP3    H171477   4.359   2.052   5.207  0.2804  0.5031 -0.8444
16662TIP3    H271478   4.420   2.109   5.333  0.5549 -0.9848 -0.2841
16663TIP3   OH271479   3.210   5.992  14.938 -0.2912 -0.1739 -0.5104
16663TIP3    H171480   3.117   5.987  14.957 -0.1088  0.4852  0.6506
16663TIP3    H271481   3.253   5.962  15.019  0.5213 -2.8890 -1.8136
16664TIP3   OH271482   5.854   4.876  15.745  0.9395 -0.3020 -0.4588
16664TIP3    H171483   5.819   4.850  15.660  0.2248  0.2016 -0.3308
16664TIP3    H271484   5.930   4.820  15.758  0.5745 -0.9562 -1.0565
16665TIP3   OH271485   5.945   2.735  13.484 -0.2666 -0.3519 -0.8598
16665TIP3    H171486   5.879   2.734  13.554 -1.7648 -1.3914 -2.2024
16665TIP3    H271487   6.024   2.768  13.526 -1.5068  0.5069  0.9490
16666TIP3   OH271488   5.941   4.068   3.043 -0.2065  0.1742  0.0774
16666TIP3    H171489   5.996   4.101   2.972 -1.3530 -0.2683 -1.0579
16666TIP3    H271490   5.860   4.118   3.035 -0.0865  0.6609  1.5821
16667TIP3   OH271491   1.891   2.518  16.047  0.1995 -0.0705 -0.5124
16667TIP3    H171492   1.951   2.493  16.117 -0.6570 -1.9844 -0.4106
16667TIP3    H271493   1.886   2.613  16.052  2.7470  0.1167 -0.1513
16668TIP3   OH271494   3.037   0.951  13.470 -0.5802  0.0240  0.5112
16668TIP3    H171495   2.997   0.864  13.482 -0.0061 -0.2060  0.7908
16668TIP3    H271496   3.082   0.968  13.553 -0.7455  0.6211  0.4798
16669TIP3   OH271497   5.518   4.585   0.842 -0.1593 -0.3548 -0.1702
16669TIP3    H171498   5.503   4.504   0.794  0.2634  0.6978 -2.2028
16669TIP3    H271499   5.548   4.557   0.928  1.4362 -2.3619 -1.2917
16670TIP3   OH271500   1.146   1.065   0.352 -0.2379 -0.2072 -0.5240
16670TIP3    H171501   1.135   1.046   0.259  0.0104 -0.6338 -0.4724
16670TIP3    H271502   1.189   0.987   0.387 -1.3763 -0.5600  0.1682
16671TIP3   OH271503   6.703   4.945  16.890 -0.4557  0.3252  0.0282
16671TIP3    H171504   6.747   4.935  16.806 -2.4916 -0.3690 -1.0369
16671TIP3    H271505   6.719   5.037  16.915  0.5536  0.4089 -0.8708
16672TIP3   OH271506   3.024   5.664   3.461  0.1470 -0.0651  0.1694
16672TIP3    H171507   3.108   5.661   3.414 -0.0180  0.5077 -0.1709
16672TIP3    H271508   3.032   5.740   3.519 -0.8096  1.1194 -1.1856
16673TIP3   OH271509   0.142   4.597   1.678 -0.1715  0.1265 -0.2102
16673TIP3    H171510   0.050   4.572   1.669 -0.2566  0.0255  0.8211
16673TIP3    H271511   0.159   4.653   1.602 -1.8809  2.4138  0.9487
16674TIP3   OH271512   6.536   4.906  11.991  0.0941  0.3188 -0.2179
16674TIP3    H171513   6.496   4.988  12.020 -0.7015 -0.6397  1.5013
16674TIP3    H271514   6.480   4.837  12.026 -0.9860 -1.0525 -4.0622
16675TIP3   OH271515   4.333   4.535  14.479 -0.8811  0.4775  0.1587
16675TIP3    H171516   4.299   4.450  14.506 -0.8657  0.7547  1.0843
16675TIP3    H271517   4.256   4.592  14.478 -0.5712  0.9815  1.7521
16676TIP3   OH271518   0.228   3.232   4.682  0.0061  0.1209  0.3581
16676TIP3    H171519   0.259   3.314   4.644  1.3316 -0.5698 -0.1244
16676TIP3    H271520   0.228   3.247   4.777  1.1419  0.3928  0.3270
16677TIP3   OH271521   0.757   1.685  15.801  0.3055 -0.0728 -0.3228
16677TIP3    H171522   0.724   1.608  15.848 -1.4596  0.5562 -0.4475
16677TIP3    H271523   0.751   1.661  15.708 -2.1411  0.8366 -0.4760
16678TIP3   OH271524   0.697   2.957  12.883 -0.2819  0.0334 -0.2681
16678TIP3    H171525   0.698   2.922  12.972  0.5626 -0.0227 -0.2856
16678TIP3    H271526   0.641   2.897  12.834  0.0729 -0.5327  0.0016
16679TIP3   OH271527   4.740   4.303   2.295 -0.0695  0.2367 -0.0426
16679TIP3    H171528   4.707   4.249   2.367  1.9395 -2.2854 -0.8449
16679TIP3    H271529   4.672   4.298   2.227  0.4098 -2.1127 -0.4273
16680TIP3   OH271530   1.782   5.065   5.044  0.0093  0.6577  0.1003
16680TIP3    H171531   1.830   4.983   5.037  0.4889  0.8302  1.2283
16680TIP3    H271532   1.842   5.124   5.090 -0.8994  1.1850  0.6309
16681TIP3   OH271533   1.659   3.941  11.285 -0.6173  0.1067 -0.3610
16681TIP3    H171534   1.684   3.895  11.205 -1.5154  0.7313 -1.0176
16681TIP3    H271535   1.739   3.945  11.337 -0.1909 -0.9195 -0.9202
16682TIP3   OH271536   3.491   5.102   5.891 -0.3602  0.4556  0.0816
16682TIP3    H171537   3.460   5.036   5.952  1.0898 -0.0990  0.2595
16682TIP3    H271538   3.514   5.177   5.946 -0.6515  0.5811  0.0333
16683TIP3   OH271539   6.116   0.252   2.725  0.3237 -0.0183 -0.5787
16683TIP3    H171540   6.211   0.261   2.714 -0.1044  1.7750 -4.0909
16683TIP3    H271541   6.094   0.168   2.686  0.3077  0.2260 -1.0956
16684TIP3   OH271542   5.595   6.028  17.174 -0.3318 -0.1217 -0.4215
16684TIP3    H171543   5.522   6.029  17.113 -2.0846  0.6552  1.5734
16684TIP3    H271544   5.659   5.968  17.134 -1.2498  0.5365 -3.0710
16685TIP3   OH271545   3.441   5.529   0.051 -0.5947  0.3310 -0.2130
16685TIP3    H171546   3.484   5.467   0.111  0.6211  1.7673  0.4597
16685TIP3    H271547   3.353   5.494   0.041  0.0514 -1.5290  0.1085
16686TIP3   OH271548   2.192   1.916   6.719  0.4007  0.1167 -0.1239
16686TIP3    H171549   2.174   1.824   6.700  1.1311  0.3915 -2.5587
16686TIP3    H271550   2.282   1.917   6.752  1.4364  0.1046 -2.6724
16687TIP3   OH271551   1.718   2.570   5.613  0.1552 -0.1146 -0.3593
16687TIP3    H171552   1.685   2.540   5.698 -1.4116 -1.3010 -1.3292
16687TIP3    H271553   1.641   2.608   5.570  0.6454 -0.5625 -1.6850
16688TIP3   OH271554   1.500   6.114   4.603  0.0442 -0.2136 -0.1298
16688TIP3    H171555   1.516   6.149   4.691  1.9128 -0.6834 -0.2298
16688TIP3    H271556   1.496   6.191   4.547 -0.2004  0.0426  0.2380
16689TIP3   OH271557   5.273   5.614  11.616 -0.5420 -0.5544  0.0385
16689TIP3    H171558   5.323   5.583  11.692 -0.6423  0.2273  0.4285
16689TIP3    H271559   5.189   5.641  11.652 -0.8780 -0.9002 -0.4695
16690TIP3   OH271560   2.795   6.265   3.701  0.3277  0.0983 -0.0239
16690TIP3    H171561   2.787   6.197   3.769 -0.0053 -0.0186 -0.1787
16690TIP3    H271562   2.748   6.340   3.737  0.3423  0.1106 -0.0306
16691TIP3   OH271563   5.521   3.742  12.842 -0.8306  0.0891  0.2682
16691TIP3    H171564   5.528   3.837  12.851 -0.9789  0.0880  0.3869
16691TIP3    H271565   5.529   3.727  12.747  2.5935 -0.0496  0.4570
16692TIP3   OH271566   2.980   6.619  12.542  0.5435  0.4330 -0.3422
16692TIP3    H171567   2.927   6.540  12.535  2.6540 -1.2124  0.8655
16692TIP3    H271568   3.017   6.631  12.454  0.2030  0.0736 -0.5351
16693TIP3   OH271569   2.449   4.020   4.018 -0.8250  0.1910 -0.2942
16693TIP3    H171570   2.355   4.017   4.003 -0.9533 -1.0032  0.5658
16693TIP3    H271571   2.460   4.084   4.088 -0.7212  2.0789 -1.9533
16694TIP3   OH271572   0.446   6.773   6.043 -0.3030 -0.2686 -0.4960
16694TIP3    H171573   0.526   6.758   6.094  0.0455  0.4826 -0.8057
16694TIP3    H271574   0.376   6.737   6.098  0.2485 -1.0582 -0.2788
16695TIP3   OH271575   1.957   3.427   4.862 -0.2062 -0.0843  0.2460
16695TIP3    H171576   1.996   3.466   4.783 -0.9141 -1.8116 -1.0057
16695TIP3    H271577   1.867   3.407   4.837 -0.7539  0.2321  1.8356
16696TIP3   OH271578   2.832   3.319   1.771  0.2578  0.4323 -0.1848
16696TIP3    H171579   2.791   3.404   1.784  0.0301  0.6533 -2.1256
16696TIP3    H271580   2.902   3.335   1.708  0.4966 -0.7439 -0.2481
16697TIP3   OH271581   5.156   1.602   1.895  0.0018 -0.0266 -0.5452
16697TIP3    H171582   5.091   1.532   1.897  0.8869 -0.9049 -1.5701
16697TIP3    H271583   5.110   1.676   1.854 -0.6854 -0.2557 -0.2024
16698TIP3   OH271584   5.918   2.899  14.973 -0.6376  0.0469  0.0616
16698TIP3    H171585   5.916   2.880  15.066  2.8736 -1.9607 -0.0852
16698TIP3    H271586   5.983   2.969  14.964 -0.9083  0.1984 -0.9098
16699TIP3   OH271587   3.325   2.581   2.074 -0.8359 -0.8638 -0.2586
16699TIP3    H171588   3.358   2.611   1.989  0.5440 -1.3274  0.0921
16699TIP3    H271589   3.330   2.486   2.069 -1.3582 -0.9133  0.1200
16700TIP3   OH271590   1.356   6.179  12.027 -0.0996  0.0745 -0.1742
16700TIP3    H171591   1.371   6.227  12.108 -0.4677  0.1074 -0.1247
16700TIP3    H271592   1.320   6.095  12.055  0.5842 -0.2586 -0.2550
16701TIP3   OH271593   6.614   6.767  12.610 -0.2011 -0.0135 -0.3297
16701TIP3    H171594   6.687   6.785  12.669  0.1067 -0.8536 -0.4346
16701TIP3    H271595   6.542   6.742  12.667  0.5953 -2.5848 -0.3018
16702TIP3   OH271596   0.749   3.363   0.597 -0.2620  0.6024  0.4354
16702TIP3    H171597   0.699   3.424   0.651  0.9192  1.7027  0.3103
16702TIP3    H271598   0.829   3.347   0.646 -0.6619 -1.0945  0.5950
16703TIP3   OH271599   0.437   6.215   0.537  0.3012 -0.0799 -0.0200
16703TIP3    H171600   0.367   6.163   0.576  0.1331  1.1958  1.5018
16703TIP3    H271601   0.407   6.234   0.449 -0.6341 -0.7130  0.1469
16704TIP3   OH271602   4.241   1.896  15.876  0.8290  0.0129 -0.4972
16704TIP3    H171603   4.259   1.830  15.943 -0.3405 -0.0158 -0.1921
16704TIP3    H271604   4.285   1.975  15.907  0.1258  0.0551  0.4203
16705TIP3   OH271605   4.731   1.981  12.651 -0.7402 -0.9371 -0.3968
16705TIP3    H171606   4.709   1.900  12.606  0.4297 -1.5520  0.0979
16705TIP3    H271607   4.801   1.957  12.711  0.5485  0.6867 -1.1557
16706TIP3   OH271608   4.242   3.378  11.183 -0.0123 -0.3926 -0.1982
16706TIP3    H171609   4.174   3.314  11.205 -0.3330  0.2793  0.8135
16706TIP3    H271610   4.323   3.328  11.187 -0.2656 -0.7645  0.4952
16707TIP3   OH271611   0.575   3.426  12.785 -0.2712  0.0128  0.3694
16707TIP3    H171612   0.557   3.332  12.774  1.4520 -0.8155  3.2989
16707TIP3    H271613   0.514   3.454  12.853 -1.1912  1.2401 -0.9081
16708TIP3   OH271614   4.210   3.305  12.374  0.0539  0.0966  0.4047
16708TIP3    H171615   4.293   3.258  12.383  0.0430  0.2658  1.5092
16708TIP3    H271616   4.227   3.390  12.414 -0.0177  0.9502 -1.2980
16709TIP3   OH271617   4.151   5.942   2.202  0.0853 -0.4426  0.1865
16709TIP3    H171618   4.221   5.877   2.205 -0.9814 -1.7022 -0.9848
16709TIP3    H271619   4.078   5.901   2.249 -0.7657 -0.3496 -0.9975
16710TIP3   OH271620   3.555   2.495  13.094 -0.3121  0.2883 -0.6251
16710TIP3    H171621   3.553   2.499  12.999  0.0486  0.8524 -0.6103
16710TIP3    H271622   3.465   2.513  13.121 -0.7692 -1.3825 -0.9001
16711TIP3   OH271623   3.449   1.332   5.263 -0.0093  0.2879 -0.2030
16711TIP3    H171624   3.475   1.420   5.235  0.0270  0.3013 -0.1284
16711TIP3    H271625   3.504   1.314   5.340  0.3342 -0.0025 -0.5169
16712TIP3   OH271626   2.054   2.613   0.698 -0.1744  0.2965 -0.8576
16712TIP3    H171627   2.026   2.588   0.787 -1.0201  0.7106 -0.9995
16712TIP3    H271628   2.132   2.667   0.712  0.8550 -1.2167 -0.4711
16713TIP3   OH271629   2.967   1.779   6.151  0.2408  0.1056  0.1733
16713TIP3    H171630   2.943   1.843   6.219  0.1239  0.3485 -0.0930
16713TIP3    H271631   3.023   1.716   6.196 -0.2701 -0.0348  0.6201
16714TIP3   OH271632   5.363   2.039   3.816 -0.0190  0.7614  0.0503
16714TIP3    H171633   5.296   2.057   3.882 -1.4062 -1.2107 -0.7227
16714TIP3    H271634   5.335   1.957   3.775  1.9414  0.8069 -1.5326
16715TIP3   OH271635   2.383   2.773  13.199 -0.1973 -0.4985  0.0630
16715TIP3    H171636   2.401   2.683  13.225  1.6405  0.0076  0.7240
16715TIP3    H271637   2.470   2.812  13.184 -0.9725  0.9227 -1.0685
16716TIP3   OH271638   5.576   4.130  14.801 -0.2697  0.1957  0.0004
16716TIP3    H171639   5.483   4.153  14.794 -0.8675 -1.9632  0.1697
16716TIP3    H271640   5.577   4.035  14.794  1.7183 -0.0123  2.2232
16717TIP3   OH271641   6.716   4.626  14.123 -0.4854  0.6606  0.2803
16717TIP3    H171642   6.742   4.672  14.203 -0.6491 -1.5305  1.7069
16717TIP3    H271643   6.790   4.639  14.063  1.1439 -0.2603  1.9892
16718TIP3   OH271644   5.859   0.400   1.595  0.4368 -0.0029 -0.0362
16718TIP3    H171645   5.928   0.361   1.648 -0.7059 -1.4804  0.4496
16718TIP3    H271646   5.790   0.420   1.658  0.9752  2.9414 -0.2657
16719TIP3   OH271647   5.760   5.761  12.182 -0.0378 -0.4576 -0.0898
16719TIP3    H171648   5.713   5.679  12.193  0.9042 -0.8071  1.7091
16719TIP3    H271649   5.769   5.795  12.271 -0.8436  1.8780 -0.8103
16720TIP3   OH271650   3.286   3.527  16.911 -0.2235  0.2665 -0.2111
16720TIP3    H171651   3.310   3.611  16.950  3.5264 -0.6211 -0.2631
16720TIP3    H271652   3.286   3.466  16.985 -1.0594 -0.0664 -0.4696
16721TIP3   OH271653   0.390   1.829  13.425 -0.1093  0.4202  0.7601
16721TIP3    H171654   0.298   1.806  13.441 -0.2117  0.6870  0.5597
16721TIP3    H271655   0.439   1.780  13.492 -0.3798  0.1351  0.7523
16722TIP3   OH271656   2.121   5.752  14.501 -0.2219 -0.0610  0.6743
16722TIP3    H171657   2.176   5.687  14.546  2.2324  0.7216 -0.9857
16722TIP3    H271658   2.088   5.706  14.424  0.5475  0.2801  0.1270
16723TIP3   OH271659   2.921   4.413  10.961 -0.3401 -0.4304  0.0394
16723TIP3    H171660   2.971   4.332  10.956 -0.7554 -0.6365 -1.2821
16723TIP3    H271661   2.965   4.465  11.028  0.5756 -1.3095  0.1390
16724TIP3   OH271662   5.533   6.222   0.648  0.3153  0.5545 -0.0152
16724TIP3    H171663   5.549   6.129   0.664  0.6397  0.2547 -1.8985
16724TIP3    H271664   5.592   6.267   0.710 -0.4489 -0.4402  1.5004
16725TIP3   OH271665   2.077   3.435   2.625 -0.3714 -0.1930 -0.2743
16725TIP3    H171666   2.011   3.405   2.689 -0.3133  1.1568  0.4426
16725TIP3    H271667   2.037   3.511   2.583  0.2463 -0.1051 -0.7165
16726TIP3   OH271668   1.577   2.334   1.265  0.4020 -0.0274  1.2055
16726TIP3    H171669   1.515   2.275   1.310  0.3069 -0.7706  0.1488
16726TIP3    H271670   1.662   2.293   1.279  0.3433 -0.3915  0.5213
16727TIP3   OH271671   3.065   2.017   0.891 -0.2714 -0.0401 -0.2363
16727TIP3    H171672   3.041   1.927   0.871 -0.0270 -0.2450  0.3471
16727TIP3    H271673   3.082   2.057   0.806 -1.0619 -0.3440 -0.5477
16728TIP3   OH271674   1.239   3.460  11.789 -0.2045  0.3635  0.1236
16728TIP3    H171675   1.307   3.521  11.760  0.6345  0.0202  1.2721
16728TIP3    H271676   1.192   3.507  11.858 -0.2119  0.0862  0.3110
16729TIP3   OH271677   0.339   2.493   5.163 -0.0010  0.0647  0.0047
16729TIP3    H171678   0.412   2.532   5.115  0.3923  2.0630  2.0846
16729TIP3    H271679   0.261   2.532   5.125  0.3345  2.0705  1.2550
16730TIP3   OH271680   2.107   2.961  11.809  0.3193  0.3300 -0.0430
16730TIP3    H171681   2.051   3.013  11.867  3.6144  2.1913  1.7251
16730TIP3    H271682   2.087   2.993  11.721 -2.2993 -0.1105  0.2955
16731TIP3   OH271683   2.156   6.416  15.441 -0.1258 -0.1708  0.3699
16731TIP3    H171684   2.159   6.322  15.422 -0.1174 -0.0609 -0.1928
16731TIP3    H271685   2.169   6.422  15.536  1.1173 -0.6758  0.2522
16732TIP3   OH271686   2.985   0.642  13.228  0.0483  0.3125  0.1494
16732TIP3    H171687   3.008   0.734  13.216 -0.3242  0.2992 -0.7285
16732TIP3    H271688   3.046   0.611  13.295 -0.4554  1.4353  1.1825
16733TIP3   OH271689   6.767   4.850   0.278  0.1214  0.0614  0.4338
16733TIP3    H171690   6.823   4.907   0.332 -2.1999  3.0570 -0.0723
16733TIP3    H271691   6.709   4.808   0.341 -1.4688  2.2620  0.5563
16734TIP3   OH271692   0.373   3.910  13.925 -0.4199  0.3725 -0.0767
16734TIP3    H171693   0.290   3.873  13.895  1.0639 -2.1298 -1.4619
16734TIP3    H271694   0.392   3.864  14.006 -0.7337  1.5506  0.6887
16735TIP3   OH271695   5.169   1.278   1.384 -0.4687  0.6636 -0.6299
16735TIP3    H171696   5.148   1.323   1.303  0.1910  1.1384 -0.5461
16735TIP3    H271697   5.177   1.348   1.450 -1.8445  0.2209  0.0463
16736TIP3   OH271698   4.998   5.332   2.675  0.8668 -0.0153  0.0728
16736TIP3    H171699   4.908   5.321   2.643  0.9562  1.1924 -0.6574
16736TIP3    H271700   5.039   5.389   2.611  1.7269  0.6478  1.1745
16737TIP3   OH271701   4.907   0.109   4.018  0.1425 -0.6537 -0.2732
16737TIP3    H171702   4.887   0.200   4.039  0.6213 -0.2414 -1.4748
16737TIP3    H271703   4.842   0.085   3.952 -0.1638 -1.2831  0.2503
16738TIP3   OH271704   4.712   4.465  13.384 -0.2419  0.1325  0.2114
16738TIP3    H171705   4.693   4.409  13.459  1.0300 -0.7770 -0.1006
16738TIP3    H271706   4.627   4.499  13.357 -0.7586  0.2668  1.8745
16739TIP3   OH271707   6.157   0.802   0.948 -0.5489 -0.1806 -0.4528
16739TIP3    H171708   6.247   0.773   0.934 -0.1954  1.0683 -0.9353
16739TIP3    H271709   6.166   0.878   1.007 -1.3190 -0.2791 -0.2015
16740TIP3   OH271710   3.602   1.196  14.687 -0.6421 -0.1380  0.3864
16740TIP3    H171711   3.550   1.218  14.611 -0.2126  0.8389  0.3545
16740TIP3    H271712   3.562   1.246  14.759  0.5816  1.1117  0.2394
16741TIP3   OH271713   5.052   1.868  11.704  0.0697 -0.0489  0.1061
16741TIP3    H171714   5.132   1.899  11.663  0.2194 -2.0434 -1.2695
16741TIP3    H271715   5.009   1.813  11.638 -1.9933  0.2262  1.1031
16742TIP3   OH271716   5.127   6.551  14.131 -0.1188  0.3145 -0.4486
16742TIP3    H171717   5.133   6.621  14.197  0.8129  0.5760 -0.7969
16742TIP3    H271718   5.170   6.476  14.172 -1.6643 -0.2700  0.1695
16743TIP3   OH271719   5.588   0.985  12.959 -0.3969  0.0012  0.0509
16743TIP3    H171720   5.516   0.946  13.009 -0.6290 -0.0702 -0.3329
16743TIP3    H271721   5.666   0.944  12.995 -0.5833 -0.2695  0.1542
16744TIP3   OH271722   1.922   3.138  11.955 -0.1362  0.3349 -0.0295
16744TIP3    H171723   1.857   3.151  11.886  0.2543 -0.0228 -0.4716
16744TIP3    H271724   1.870   3.121  12.034 -0.5844 -1.0725 -0.5971
16745TIP3   OH271725   1.541   0.592   3.986  0.3445  0.1765  0.4840
16745TIP3    H171726   1.543   0.508   3.939 -0.8772 -0.2844  1.2038
16745TIP3    H271727   1.619   0.590   4.042 -0.1152 -0.8600  1.1122
16746TIP3   OH271728   5.065   3.144  16.761 -0.0752 -1.0423 -0.0080
16746TIP3    H171729   5.021   3.210  16.815  1.6139 -0.9301  1.2966
16746TIP3    H271730   5.012   3.065  16.773 -0.6691 -0.5830  0.4846
16747TIP3   OH271731   3.939   1.214   1.379  0.8517 -0.6602  0.0799
16747TIP3    H171732   3.972   1.202   1.468 -0.8103  1.2077  1.0307
16747TIP3    H271733   4.001   1.275   1.339  0.2114  0.5570  0.8774
16748TIP3   OH271734   5.887   0.731  16.607  0.2788  0.1471 -0.9265
16748TIP3    H171735   5.967   0.776  16.580  0.6415  0.1810  0.1704
16748TIP3    H271736   5.899   0.712  16.700 -1.5446  1.3604 -0.3862
16749TIP3   OH271737   5.081   4.073  15.023 -0.5311  0.0255 -0.3097
16749TIP3    H171738   5.133   4.011  15.073  0.2246  1.6789  1.0661
16749TIP3    H271739   4.991   4.054  15.048 -0.3108 -0.4966  0.1057
16750TIP3   OH271740   5.777   1.844   5.673 -0.6849 -0.0012  0.4126
16750TIP3    H171741   5.704   1.802   5.720 -1.4332  1.1309  0.3030
16750TIP3    H271742   5.849   1.844   5.737 -0.3728 -2.1559  0.1415
16751TIP3   OH271743   4.256   0.785   4.731 -0.9004  0.9137 -0.2379
16751TIP3    H171744   4.228   0.854   4.672  0.3143  0.6295 -1.1870
16751TIP3    H271745   4.178   0.734   4.748 -2.1690  3.2386  1.5597
16752TIP3   OH271746   3.670   4.741   0.355 -0.1568  0.4573  0.0808
16752TIP3    H171747   3.619   4.778   0.284  0.0821 -0.8319 -0.8050
16752TIP3    H271748   3.761   4.745   0.324 -0.1286 -0.8378 -0.0573
16753TIP3   OH271749   6.668   2.839   3.351  0.0271 -0.7356 -0.1223
16753TIP3    H171750   6.602   2.898   3.387  0.6163 -0.0625 -0.1254
16753TIP3    H271751   6.625   2.753   3.349 -1.2149 -0.1383 -1.0774
16754TIP3   OH271752   3.028   1.942  17.082 -0.0185  0.3183  0.3164
16754TIP3    H171753   2.938   1.909  17.080 -0.0366  0.3646  0.3707
16754TIP3    H271754   3.081   1.865  17.101 -0.0736  0.3435  0.5827
16755TIP3   OH271755   2.114   0.037  12.487 -0.2765  0.5985  0.5383
16755TIP3    H171756   2.113   0.129  12.512 -2.2769  0.5569  0.7721
16755TIP3    H271757   2.025   0.006  12.506 -0.5947 -0.6028 -2.3997
16756TIP3   OH271758   1.989   4.073  14.300 -0.0248  0.5654  0.2382
16756TIP3    H171759   2.046   4.149  14.292  0.9296 -0.0385  1.0153
16756TIP3    H271760   1.932   4.093  14.374  0.0645  0.6287  0.2895
16757TIP3   OH271761   2.099   3.901   5.850  0.7563  0.3785 -0.1559
16757TIP3    H171762   2.038   3.882   5.921  0.2562  1.3784 -0.2908
16757TIP3    H271763   2.109   3.997   5.852 -0.7337  0.6731 -2.5733
16758TIP3   OH271764   5.008   0.664   0.496  0.0869 -0.3026 -0.0630
16758TIP3    H171765   4.935   0.636   0.441 -0.3315 -1.2789  0.9489
16758TIP3    H271766   5.031   0.586   0.547 -0.1463  0.8000  1.8198
16759TIP3   OH271767   2.762   5.582  15.141 -0.3963  0.1365 -0.8596
16759TIP3    H171768   2.833   5.622  15.090 -0.1024  0.1067 -0.4762
16759TIP3    H271769   2.716   5.657  15.180 -0.1142  0.1222 -0.4973
16760TIP3   OH271770   5.880   2.180   0.179 -0.5309 -0.2597 -0.2443
16760TIP3    H171771   5.907   2.267   0.210 -1.6721  0.2564 -0.6291
16760TIP3    H271772   5.962   2.132   0.169  0.3594  1.4954 -2.1683
16761TIP3   OH271773   0.464   6.247   2.830 -0.2046 -0.1049  0.2677
16761TIP3    H171774   0.534   6.305   2.802 -0.4578 -0.1391 -0.4799
16761TIP3    H271775   0.499   6.200   2.905 -0.0791  1.1569  1.0137
16762TIP3   OH271776   3.422   2.866  12.510 -0.3557  0.4275  0.0149
16762TIP3    H171777   3.499   2.871  12.452 -0.4566 -2.2015 -0.4754
16762TIP3    H271778   3.421   2.950  12.556  1.9565  1.1123 -1.0336
16763TIP3   OH271779   5.393   2.780   5.382  0.2646  0.0326  0.1920
16763TIP3    H171780   5.477   2.735   5.383  0.6597  0.7331 -0.6270
16763TIP3    H271781   5.360   2.768   5.293 -1.1533 -1.3830  0.8389
16764TIP3   OH271782   3.780   5.928   1.180 -0.1211 -0.3380  0.1152
16764TIP3    H171783   3.743   6.013   1.205  0.2490  0.3505 -1.5576
16764TIP3    H271784   3.756   5.869   1.252 -2.5500  0.5893  0.1471
16765TIP3   OH271785   6.203   1.754  13.080  1.0404  0.0892  0.0331
16765TIP3    H171786   6.196   1.767  12.986  0.8772  0.4417  0.0913
16765TIP3    H271787   6.113   1.741  13.110  0.8916  1.6247  0.3606
16766TIP3   OH271788   1.408   2.878   0.909 -0.0017  0.6149 -0.6085
16766TIP3    H171789   1.392   2.786   0.932  1.3302  0.4588 -0.1639
16766TIP3    H271790   1.351   2.928   0.967 -0.5316  0.0709 -0.6533
16767TIP3   OH271791   0.863   2.510  16.803  0.0477  0.7132 -0.1745
16767TIP3    H171792   0.919   2.442  16.765 -0.3793  0.6865 -0.7585
16767TIP3    H271793   0.870   2.584  16.742 -0.7864  0.6047 -0.4103
16768TIP3   OH271794   6.347   2.302   3.507  0.0919 -0.3303  0.5938
16768TIP3    H171795   6.423   2.272   3.458 -0.7170  0.1328 -1.0283
16768TIP3    H271796   6.378   2.378   3.557  0.5025  0.4458 -0.7859
16769TIP3   OH271797   2.909   6.204  13.493  0.0871 -0.2029 -0.2784
16769TIP3    H171798   2.957   6.123  13.474 -2.1703 -1.6661 -0.1134
16769TIP3    H271799   2.961   6.247  13.560  3.6797  0.7685 -3.3201
16770TIP3   OH271800   6.568   2.512  12.097  0.3753  0.4163 -0.3611
16770TIP3    H171801   6.567   2.587  12.157  0.4836 -0.5692  0.8903
16770TIP3    H271802   6.639   2.532  12.035  1.3130  0.7088  0.7790
16771TIP3   OH271803   6.224   6.418  17.239 -0.6492  0.2490  0.2981
16771TIP3    H171804   6.267   6.335  17.218  0.2689  0.4410  1.3122
16771TIP3    H271805   6.219   6.465  17.156 -1.7773 -1.0688 -0.4215
16772TIP3   OH271806   3.681   1.884  12.503  0.3825  0.4274 -0.0553
16772TIP3    H171807   3.775   1.868  12.513  0.5046  1.2942  0.2986
16772TIP3    H271808   3.644   1.857  12.587  0.6149  2.0855  0.6184
16773TIP3   OH271809   5.164   5.077   3.291  0.4095  0.2628 -0.3799
16773TIP3    H171810   5.149   5.004   3.352  3.5148  0.5636  0.9727
16773TIP3    H271811   5.083   5.085   3.241 -0.8972 -2.5302  1.0921
16774TIP3   OH271812   2.455   3.301  14.249  0.0051  0.0854 -0.6315
16774TIP3    H171813   2.405   3.263  14.176 -4.5039  1.1214  1.5490
16774TIP3    H271814   2.420   3.256  14.326 -0.0081  3.2794  1.3654
16775TIP3   OH271815   0.457   0.823  12.548  0.2610  0.5801  0.4405
16775TIP3    H171816   0.437   0.758  12.481 -0.6028  1.1851  0.0857
16775TIP3    H271817   0.549   0.844  12.534  0.0604  0.7944 -0.6643
16776TIP3   OH271818   1.905   1.534   1.253  0.2546 -0.0395  0.1322
16776TIP3    H171819   1.978   1.557   1.310  0.6583  1.6060 -0.9862
16776TIP3    H271820   1.946   1.501   1.173 -0.2607 -0.1950 -0.0757
16777TIP3   OH271821   0.151   2.397  10.340  0.1533  0.3408  0.3729
16777TIP3    H171822   0.106   2.405  10.424 -0.0307  1.0035  0.2128
16777TIP3    H271823   0.177   2.305  10.336  2.0339  0.7333  2.1013
16778TIP3   OH271824   0.820   3.164   4.844  0.6831 -0.0106  0.3681
16778TIP3    H171825   0.858   3.239   4.889  0.6090  0.0063  0.4021
16778TIP3    H271826   0.886   3.095   4.853  0.4130 -0.1964  1.0370
16779TIP3   OH271827   4.657   1.781  12.444  0.0449  0.1443 -0.7090
16779TIP3    H171828   4.621   1.700  12.480  0.9245 -0.4750 -1.1868
16779TIP3    H271829   4.749   1.761  12.428  0.3325  1.3133 -0.6286
16780TIP3   OH271830   4.883   2.378  12.322  0.1982 -0.1234  0.2543
16780TIP3    H171831   4.811   2.420  12.275  0.3293 -0.3953 -0.1913
16780TIP3    H271832   4.844   2.298  12.359 -0.1047  0.4772  1.2777
16781TIP3   OH271833   5.040   3.301  10.559 -0.0808  0.2084  0.1173
16781TIP3    H171834   5.033   3.392  10.532  2.1456  0.7773  1.2391
16781TIP3    H271835   4.995   3.297  10.644  1.0499  0.6543  0.7676
16782TIP3   OH271836   1.402   0.062  16.066  0.1345  0.3385  0.0721
16782TIP3    H171837   1.474   0.088  16.123  0.7762  0.9775 -0.9766
16782TIP3    H271838   1.369  -0.020  16.103  0.4901  0.7511  1.3560
16783TIP3   OH271839   0.405   0.248   0.977 -0.0549  0.1907 -0.1604
16783TIP3    H171840   0.326   0.225   0.928  0.3681  1.1619 -1.3382
16783TIP3    H271841   0.478   0.218   0.921  0.4321  1.1306 -0.0523
16784TIP3   OH271842   3.881   3.061   0.259  0.0544  0.5742  0.0059
16784TIP3    H171843   3.847   3.124   0.195 -0.5411 -1.7059 -2.0810
16784TIP3    H271844   3.936   3.001   0.208 -3.3045 -3.5639  0.6256
16785TIP3   OH271845   4.685   5.071   3.169  0.0260  0.0266  0.1351
16785TIP3    H171846   4.687   5.109   3.257 -0.9212 -0.7477  0.5220
16785TIP3    H271847   4.777   5.059   3.145  0.3819  2.8426 -0.1795
16786TIP3   OH271848   2.536   1.274   3.544  0.1739  0.0076  0.0503
16786TIP3    H171849   2.556   1.182   3.560 -0.1001 -0.2210 -0.8269
16786TIP3    H271850   2.619   1.312   3.515  0.0488 -0.2410 -0.6774
16787TIP3   OH271851   4.112   3.246   1.929 -0.4686 -0.3593  0.1775
16787TIP3    H171852   4.121   3.152   1.940 -2.1756 -0.2897  3.1187
16787TIP3    H271853   4.048   3.256   1.859  1.5038 -1.2307 -1.8803
16788TIP3   OH271854   2.037   5.292   1.441 -0.3075 -1.1476 -0.1823
16788TIP3    H171855   2.065   5.279   1.350  0.2637  1.0407 -0.3831
16788TIP3    H271856   1.961   5.350   1.434 -0.9369 -1.8403  0.7016
16789TIP3   OH271857   5.649   3.199   6.065  0.7834  0.1755 -0.0855
16789TIP3    H171858   5.660   3.189   5.970 -2.2893  2.2728 -0.8090
16789TIP3    H271859   5.577   3.140   6.088  1.2724 -0.0594  0.9060
16790TIP3   OH271860   4.631   2.414  12.647 -0.7040 -0.7247 -0.5701
16790TIP3    H171861   4.589   2.337  12.609  0.1115 -0.4841 -2.0418
16790TIP3    H271862   4.714   2.381  12.682  1.2154 -0.1028 -4.1008
16791TIP3   OH271863   4.443   0.226  14.317 -0.3013  0.3067  0.2855
16791TIP3    H171864   4.356   0.259  14.338 -1.0001 -0.2804 -1.4692
16791TIP3    H271865   4.481   0.292  14.259 -0.2271 -0.1837 -0.2415
16792TIP3   OH271866   3.492   3.904   0.926 -0.0824 -0.3362  0.2279
16792TIP3    H171867   3.506   3.999   0.934  1.8866 -0.7653  3.2076
16792TIP3    H271868   3.400   3.892   0.949 -0.3427  0.8251 -0.0941
16793TIP3   OH271869   6.485   4.942   1.482  0.0996  0.2335 -0.3562
16793TIP3    H171870   6.397   4.972   1.460 -0.0280 -0.6234 -1.1028
16793TIP3    H271871   6.542   5.017   1.464 -0.5145  0.9580  0.6031
16794TIP3   OH271872   4.141   5.539   0.226  0.2368  0.4211 -0.2781
16794TIP3    H171873   4.072   5.586   0.178 -1.2108  0.6845  1.8954
16794TIP3    H271874   4.132   5.571   0.316  3.0548  0.2205  0.1500
16795TIP3   OH271875   4.851   3.412   1.400  0.1756 -0.2771  0.1166
16795TIP3    H171876   4.892   3.331   1.369 -1.3470 -1.3406  0.8022
16795TIP3    H271877   4.814   3.452   1.321 -0.8096 -1.2833  0.0550
16796TIP3   OH271878   2.516   1.085  16.694 -0.2559 -0.6899 -0.1685
16796TIP3    H171879   2.591   1.086  16.754  0.2416  1.6630 -0.7214
16796TIP3    H271880   2.552   1.050  16.612 -0.0522 -0.6236 -0.1094
16797TIP3   OH271881   4.251   6.265   3.342 -0.4449 -0.1035  0.1509
16797TIP3    H171882   4.219   6.208   3.411 -1.6623  1.3147  0.8207
16797TIP3    H271883   4.279   6.344   3.388 -0.1245  0.3898 -0.8676
16798TIP3   OH271884   6.173   1.078   6.864 -0.1603  0.0078  0.2261
16798TIP3    H171885   6.217   1.134   6.799  0.0471 -0.2791  0.1153
16798TIP3    H271886   6.121   1.139   6.916  1.2106  0.5256  1.0638
16799TIP3   OH271887   1.635   0.966  13.549  0.1828  0.2599  1.0257
16799TIP3    H171888   1.710   0.908  13.531  0.0990  1.1752 -3.3662
16799TIP3    H271889   1.569   0.908  13.586  1.4397 -1.6262  0.4793
16800TIP3   OH271890   1.261   6.231  13.945 -0.1466 -0.5661 -0.2083
16800TIP3    H171891   1.203   6.276  13.883 -1.8603 -1.6824  0.5091
16800TIP3    H271892   1.277   6.295  14.014 -2.3435 -0.9009  0.6703
16801TIP3   OH271893   0.874   1.072  11.791  0.1257  0.0751 -0.0991
16801TIP3    H171894   0.908   1.013  11.724  0.3102  2.3131 -2.1325
16801TIP3    H271895   0.779   1.071  11.777  0.1500  0.4063 -0.3113
16802TIP3   OH271896   6.630   2.952   3.660 -0.4153  0.3366  0.2127
16802TIP3    H171897   6.597   2.921   3.575 -0.5965 -0.4532  0.5565
16802TIP3    H271898   6.676   3.033   3.640  1.0895 -0.7503 -0.9178
16803TIP3   OH271899   2.408   4.780  12.104  0.1090 -0.3745 -0.0846
16803TIP3    H171900   2.433   4.854  12.049 -0.6724 -0.1278 -0.1164
16803TIP3    H271901   2.333   4.812  12.155  1.3207 -0.3111  1.7404
16804TIP3   OH271902   6.422   2.948   1.383 -0.0299  0.6777 -0.3459
16804TIP3    H171903   6.488   2.954   1.452 -1.0232  0.2648  0.6512
16804TIP3    H271904   6.427   3.033   1.339 -0.2517  1.4306  1.0356
16805TIP3   OH271905   0.882   2.391   1.883 -0.2848  0.1168  0.4862
16805TIP3    H171906   0.946   2.319   1.889 -1.3123 -0.9128 -0.3726
16805TIP3    H271907   0.918   2.448   1.815 -1.0675 -1.3755 -1.2891
16806TIP3   OH271908   0.140   0.160   6.417  0.2430 -0.0069 -0.2445
16806TIP3    H171909   0.221   0.126   6.457 -0.0405 -0.1280  0.2421
16806TIP3    H271910   0.070   0.115   6.464 -0.1124  0.2375 -0.5361
16807TIP3   OH271911   0.414   3.195  16.256 -0.1914  0.0797 -0.0792
16807TIP3    H171912   0.347   3.131  16.232 -1.0564  0.7990  0.3484
16807TIP3    H271913   0.368   3.257  16.314 -0.2443  2.8348 -2.7905
16808TIP3   OH271914   2.500   2.541  13.401 -0.6184  0.2694  0.4469
16808TIP3    H171915   2.496   2.515  13.308 -1.2920  1.2174  0.2012
16808TIP3    H271916   2.437   2.483  13.444  1.2993 -1.7416  0.7350
16809TIP3   OH271917   3.436   4.824   5.488 -0.3369  1.0342 -0.4742
16809TIP3    H171918   3.420   4.906   5.535 -0.8392 -0.2521  1.7609
16809TIP3    H271919   3.368   4.765   5.519  0.2659 -0.3665 -1.7064
16810TIP3   OH271920   4.240   1.947   4.854 -0.2843  0.1740  0.5397
16810TIP3    H171921   4.156   1.993   4.854 -1.1514 -1.3280 -0.3955
16810TIP3    H271922   4.269   1.948   4.763  0.1746 -0.2710  0.6747
16811TIP3   OH271923   3.636   6.709  15.144  0.4212  0.2589  0.6115
16811TIP3    H171924   3.602   6.669  15.224 -0.8076 -0.8526 -0.4003
16811TIP3    H271925   3.731   6.698  15.149  0.2280 -1.3646  1.1146
16812TIP3   OH271926   6.686   4.818  17.366 -0.2542 -0.5398 -0.2417
16812TIP3    H171927   6.674   4.832  17.272  1.6542 -2.2177 -0.8139
16812TIP3    H271928   6.615   4.760  17.392 -2.7033  2.4039  0.1475
16813TIP3   OH271929   1.120   5.331  14.510  0.7793  0.1135 -0.3811
16813TIP3    H171930   1.189   5.271  14.481 -0.0072 -1.3220  0.5388
16813TIP3    H271931   1.141   5.348  14.602 -0.4482 -0.9719  0.1450
16814TIP3   OH271932   4.552   0.141   5.380  0.5168  0.0142  0.1063
16814TIP3    H171933   4.639   0.182   5.383  0.3360  0.3855  0.4566
16814TIP3    H271934   4.570   0.047   5.377  0.9402  0.0217  1.4480
16815TIP3   OH271935   2.906   5.634  15.574  0.2471 -0.1368 -0.3972
16815TIP3    H171936   2.951   5.691  15.637 -0.2509 -0.6472  0.4362
16815TIP3    H271937   2.820   5.675  15.562  0.4133  0.0682 -0.9030
16816TIP3   OH271938   1.963   3.911   4.303  0.0398 -0.0345 -0.0643
16816TIP3    H171939   1.926   3.889   4.388 -0.3117  0.1387 -0.1715
16816TIP3    H271940   1.901   3.974   4.265  0.2099 -0.0869 -0.4345
16817TIP3   OH271941   6.284   2.950  13.346  0.2116  0.6831 -0.6307
16817TIP3    H171942   6.203   2.929  13.301  0.7061  0.6064 -1.5025
16817TIP3    H271943   6.262   3.026  13.401 -0.4638  0.6056 -0.7856
16818TIP3   OH271944   0.640   5.218   2.554 -0.1072  0.0250  0.3857
16818TIP3    H171945   0.571   5.199   2.617  1.7678 -1.3785  2.1214
16818TIP3    H271946   0.707   5.152   2.570  1.6162  1.2373 -1.3200
16819TIP3   OH271947   5.107   3.617   1.678  0.2326  0.0009 -0.3107
16819TIP3    H171948   5.046   3.689   1.662  1.2904  0.9071 -0.4090
16819TIP3    H271949   5.093   3.594   1.770  0.4753  0.9207 -0.0291
16820TIP3   OH271950   1.628   4.350   4.603 -0.0470  0.0634  0.5123
16820TIP3    H171951   1.536   4.328   4.589 -0.2298  1.2372 -0.2736
16820TIP3    H271952   1.635   4.368   4.697 -0.4783 -0.5870  0.6765
16821TIP3   OH271953   1.530   4.441   0.697 -0.1575  0.2662 -0.3389
16821TIP3    H171954   1.526   4.475   0.608 -1.9179 -0.0414 -0.4022
16821TIP3    H271955   1.623   4.427   0.713  0.3517  2.0363 -1.4637
16822TIP3   OH271956   5.444   4.642   1.772 -0.0937  0.3608 -0.2313
16822TIP3    H171957   5.376   4.708   1.761 -0.3263 -0.1210 -1.8518
16822TIP3    H271958   5.526   4.689   1.761 -0.2324  0.5500 -0.4578
16823TIP3   OH271959   4.112   0.691   5.980  0.6003  0.4682 -0.1021
16823TIP3    H171960   4.064   0.717   6.058 -0.1595  0.6704 -0.6286
16823TIP3    H271961   4.195   0.657   6.013  1.2282  2.6331  0.6627
16824TIP3   OH271962   6.103   5.755   3.814  0.4779  0.5017  0.2413
16824TIP3    H171963   6.082   5.723   3.727  0.3183  0.1369  0.4108
16824TIP3    H271964   6.127   5.847   3.801 -1.5322  1.0690  0.0610
16825TIP3   OH271965   6.181   3.813   1.942 -0.1208 -0.3311 -0.2541
16825TIP3    H171966   6.107   3.774   1.988  0.0823 -1.8741 -1.1617
16825TIP3    H271967   6.181   3.770   1.857  1.3508  0.2186 -0.5574
16826TIP3   OH271968   6.052   4.333  16.898 -0.4104  0.1618 -0.3546
16826TIP3    H171969   5.998   4.305  16.972 -0.5770 -1.0847 -0.9377
16826TIP3    H271970   6.000   4.314  16.821  0.8229 -1.0294 -0.9268
16827TIP3   OH271971   3.847   0.684  14.702  0.0264  0.7539 -0.0791
16827TIP3    H171972   3.843   0.729  14.787  2.6805  3.5741 -1.2567
16827TIP3    H271973   3.895   0.603  14.721  0.7898  1.4525  1.1165
16828TIP3   OH271974   2.848   3.416  15.987  0.7341  0.3183  0.1094
16828TIP3    H171975   2.841   3.431  15.892  0.4011 -2.7038 -0.4639
16828TIP3    H271976   2.762   3.439  16.021  0.1758 -0.4576 -0.7038
16829TIP3   OH271977   2.069   3.831  16.247  0.0491 -0.0901  0.3255
16829TIP3    H171978   2.110   3.764  16.192 -1.5633 -0.8655  0.0047
16829TIP3    H271979   2.085   3.801  16.336 -2.3856 -2.1128  0.1954
16830TIP3   OH271980   2.976   0.812  15.471 -0.6351  0.0666  0.2304
16830TIP3    H171981   3.016   0.773  15.548  3.4961 -1.4130 -2.3441
16830TIP3    H271982   3.018   0.898  15.462 -0.8101  0.0803 -0.5564
16831TIP3   OH271983   4.446   2.200   2.573  0.0516  0.4055  0.0656
16831TIP3    H171984   4.534   2.186   2.538  1.2039  2.7862  1.7607
16831TIP3    H271985   4.450   2.167   2.663 -1.2048 -0.5751 -0.1993
16832TIP3   OH271986   6.759   6.708   3.767  0.5089 -0.0079 -0.4141
16832TIP3    H171987   6.678   6.706   3.716 -0.3505 -0.8958  0.9512
16832TIP3    H271988   6.807   6.630   3.738  0.6667  0.2459 -0.8563
16833TIP3   OH271989   6.009   2.579  15.651  0.9824  0.1044  0.0137
16833TIP3    H171990   6.052   2.643  15.708 -0.0914  0.8367  0.0467
16833TIP3    H271991   5.915   2.595  15.664  0.6977 -1.0009 -0.5318
16834TIP3   OH271992   4.702   4.965  16.223  0.2417  0.2625 -0.4222
16834TIP3    H171993   4.686   5.026  16.295 -0.2841 -0.8800  0.4795
16834TIP3    H271994   4.776   5.002  16.176  0.2533  1.3292  0.3849
16835TIP3   OH271995   6.278   1.364   6.008 -0.3426  0.3085  0.2602
16835TIP3    H171996   6.299   1.376   5.916  0.1970 -0.6930  0.2330
16835TIP3    H271997   6.297   1.449   6.049 -0.3288  0.6756 -0.4992
16836TIP3   OH271998   1.926   6.428  12.648  0.4268  0.5246 -0.1620
16836TIP3    H171999   1.985   6.481  12.702  2.6557 -2.7592  0.8890
16836TIP3    H272000   1.892   6.362  12.708 -2.8234  1.0004 -1.2561
16837TIP3   OH272001   1.319   5.451   6.407 -0.6517 -0.0374  0.2214
16837TIP3    H172002   1.414   5.440   6.415 -0.2459  2.8271  0.4425
16837TIP3    H272003   1.282   5.379   6.458  1.4341 -0.1977  1.6287
16838TIP3   OH272004   0.813   6.195   1.909  0.0617  0.1519  0.2986
16838TIP3    H172005   0.856   6.114   1.881  0.9442 -0.7079  3.6755
16838TIP3    H272006   0.735   6.200   1.854  0.3621 -2.5767 -0.5687
16839TIP3   OH272007   4.013   5.148  15.769 -0.3980 -0.1318 -0.1226
16839TIP3    H172008   3.925   5.142  15.805 -0.1897 -2.8920  0.1519
16839TIP3    H272009   4.070   5.126  15.843  0.6454  2.3459 -0.0931
16840TIP3   OH272010   6.672   5.503   4.258 -0.0434  0.7327  0.0097
16840TIP3    H172011   6.581   5.510   4.288 -0.8376  0.4602 -2.1934
16840TIP3    H272012   6.669   5.440   4.187  2.1060 -0.1907  0.6585
16841TIP3   OH272013   5.111   4.229  13.038  0.4771  0.1390 -0.0711
16841TIP3    H172014   5.112   4.317  13.075 -0.8285  0.2310 -0.2019
16841TIP3    H272015   5.022   4.218  13.006  0.6093 -1.2666  0.0001
16842TIP3   OH272016   1.689   1.938   0.055  0.5191 -0.6159 -0.2496
16842TIP3    H172017   1.730   1.881  -0.010 -0.3608 -1.4383 -0.0957
16842TIP3    H272018   1.603   1.958   0.019  0.8582  0.7505 -0.3650
16843TIP3   OH272019   2.311   2.692  16.930 -0.0623 -0.5071  0.3320
16843TIP3    H172020   2.237   2.752  16.947 -0.4969 -1.2214  1.0033
16843TIP3    H272021   2.379   2.721  16.990  0.0740 -0.0928 -0.0142
16844TIP3   OH272022   1.612   3.579  12.300 -0.4085 -0.7011  0.3781
16844TIP3    H172023   1.659   3.553  12.379  1.3197  0.7579 -0.0899
16844TIP3    H272024   1.524   3.600  12.330  0.9251  2.5810  2.5530
16845TIP3   OH272025   4.258   4.367  13.730 -0.1642  0.6265  0.2773
16845TIP3    H172026   4.208   4.361  13.811 -0.7319 -0.9855 -0.1478
16845TIP3    H272027   4.208   4.428  13.675  0.1013  1.5381  1.0318
16846TIP3   OH272028   4.234   0.675   5.443 -0.3140 -0.0503  0.0381
16846TIP3    H172029   4.226   0.757   5.493  1.0383  0.0531  0.1264
16846TIP3    H272030   4.313   0.687   5.390 -0.8593 -0.7788 -0.9674
16847TIP3   OH272031   4.809   5.297  15.224  0.1876 -0.0572 -0.1864
16847TIP3    H172032   4.747   5.352  15.177 -0.8459  0.3148  1.5489
16847TIP3    H272033   4.809   5.214  15.176 -0.2256  0.5578 -1.2826
16848TIP3   OH272034   3.694   3.197  16.282 -0.8325 -0.3058  0.2856
16848TIP3    H172035   3.687   3.172  16.189 -2.8127  0.9260  0.0572
16848TIP3    H272036   3.742   3.279  16.281  0.2726 -0.9242  0.5052
16849TIP3   OH272037   1.401   4.310   2.317  0.1221 -0.1021 -0.4198
16849TIP3    H172038   1.463   4.307   2.245  0.2471 -0.0677 -0.3139
16849TIP3    H272039   1.420   4.392   2.362 -0.6628  0.4018 -0.9749
16850TIP3   OH272040   5.708   4.680   0.561  0.1465  0.0280 -0.5487
16850TIP3    H172041   5.781   4.731   0.527 -0.0039  0.8145  0.2796
16850TIP3    H272042   5.630   4.726   0.528  0.0069  0.5256  0.4553
16851TIP3   OH272043   5.918   5.115   3.081 -0.0856  0.0256  0.2206
16851TIP3    H172044   5.922   5.054   3.007 -0.8620 -0.4207  0.5280
16851TIP3    H272045   5.825   5.138   3.088 -0.0724 -0.1661  1.2301
16852TIP3   OH272046   0.966   1.737  14.026 -0.3823  0.3675 -0.0983
16852TIP3    H172047   1.019   1.660  14.009  0.0421  0.3552  1.1215
16852TIP3    H272048   1.029   1.809  14.032 -0.7353  0.7536 -0.8540
16853TIP3   OH272049   6.283   5.719   1.556 -0.5009  0.2345  0.0203
16853TIP3    H172050   6.374   5.731   1.585  0.5567  1.4614 -3.2091
16853TIP3    H272051   6.269   5.625   1.559  1.0781 -0.0334  0.1578
16854TIP3   OH272052   2.170   4.095   5.125  0.3568 -0.1775 -0.2097
16854TIP3    H172053   2.131   4.091   5.038 -0.3658  0.1192  0.0900
16854TIP3    H272054   2.233   4.023   5.127 -0.9721 -1.3843 -0.3388
16855TIP3   OH272055   4.066   1.682   6.153  0.3785 -0.1655 -0.3674
16855TIP3    H172056   4.095   1.764   6.113  1.8366 -0.3949  0.1427
16855TIP3    H272057   3.987   1.658   6.105  0.6919  0.8459 -1.4319
16856TIP3   OH272058   2.927   2.149   1.719 -0.0689 -0.0179  0.5534
16856TIP3    H172059   2.905   2.071   1.770  0.4088 -0.5713 -0.0658
16856TIP3    H272060   2.986   2.117   1.650  3.5468  1.4968  2.6698
16857TIP3   OH272061   5.932   4.154  15.445  0.0467  0.5277 -0.9467
16857TIP3    H172062   5.927   4.161  15.540 -2.3601 -2.1872 -0.7098
16857TIP3    H272063   6.020   4.122  15.427 -0.3276 -1.7064  0.7385
16858TIP3   OH272064   6.382   5.962   2.535  0.0922 -0.3421 -0.0524
16858TIP3    H172065   6.420   5.992   2.618  1.7145 -3.7977  0.6641
16858TIP3    H272066   6.458   5.946   2.478 -0.7573 -1.0852 -1.0167
16859TIP3   OH272067   3.755   4.749   4.079  0.1340 -0.6214  0.0517
16859TIP3    H172068   3.752   4.841   4.053 -1.5317 -0.4883  0.5885
16859TIP3    H272069   3.749   4.701   3.997 -0.6052 -0.2270 -0.1369
16860TIP3   OH272070   5.812   5.132   5.257 -0.3790 -0.2877 -0.2565
16860TIP3    H172071   5.721   5.164   5.262 -0.3291 -0.2382  0.3170
16860TIP3    H272072   5.850   5.155   5.341 -0.2773 -1.7096  0.1067
16861TIP3   OH272073   6.085   3.572   3.793  0.0570 -0.5368  0.2393
16861TIP3    H172074   6.177   3.550   3.809  0.1457 -0.7339 -0.5380
16861TIP3    H272075   6.088   3.661   3.758 -0.0158 -0.7298 -0.2510
16862TIP3   OH272076   5.671   1.823  13.258  0.0348 -0.5350 -0.5007
16862TIP3    H172077   5.618   1.830  13.337 -0.9471 -0.2317 -1.1694
16862TIP3    H272078   5.624   1.875  13.193  0.6928 -0.9849 -1.3555
16863TIP3   OH272079   1.019   0.305   2.245 -0.1933 -0.6081  0.1734
16863TIP3    H172080   0.927   0.318   2.226 -0.1845 -0.5526  0.1708
16863TIP3    H272081   1.023   0.216   2.281 -0.3967 -0.2321  1.1472
16864TIP3   OH272082   3.563   3.453   0.746  0.2750 -0.1671 -0.3090
16864TIP3    H172083   3.601   3.442   0.659 -0.8291 -1.7069 -0.6341
16864TIP3    H272084   3.481   3.500   0.730  0.3648  0.0950 -0.0113
16865TIP3   OH272085   1.257   1.779   5.682  0.3070  0.0745 -0.3536
16865TIP3    H172086   1.165   1.792   5.707  0.6617  0.9668  0.5464
16865TIP3    H272087   1.269   1.684   5.684 -0.2405  0.0171  0.8589
16866TIP3   OH272088   4.515   0.813  11.662 -0.0088 -0.0497  0.0499
16866TIP3    H172089   4.478   0.901  11.656  1.4475  0.5388 -0.8108
16866TIP3    H272090   4.602   0.826  11.700  0.1075 -1.1677  0.2074
16867TIP3   OH272091   5.275   0.770  16.810  0.4933  0.1410 -0.1312
16867TIP3    H172092   5.272   0.769  16.906 -1.3719  0.4468 -0.1528
16867TIP3    H272093   5.313   0.855  16.789  1.0807  0.0012  0.3266
16868TIP3   OH272094   5.214   2.609  16.793 -0.2082  0.8045  0.1060
16868TIP3    H172095   5.282   2.559  16.838  0.6857  1.9495  0.0904
16868TIP3    H272096   5.133   2.586  16.838  0.1779 -0.5832  0.1375
16869TIP3   OH272097   6.672   0.998  10.856  0.1082 -0.1199 -0.3078
16869TIP3    H172098   6.642   0.963  10.772 -1.2583  0.3145 -0.0394
16869TIP3    H272099   6.668   0.923  10.916  0.6174 -0.3190 -0.5236
16870TIP3   OH272100   6.324   2.196   4.318 -0.3540  0.0370 -0.1901
16870TIP3    H172101   6.312   2.265   4.383  0.3624 -0.3067  0.3285
16870TIP3    H272102   6.269   2.222   4.244 -0.9222  0.6102  0.4198
16871TIP3   OH272103   5.626   3.615   0.615  0.0150 -0.3014 -1.0879
16871TIP3    H172104   5.571   3.537   0.607 -0.6693  0.2176 -1.6333
16871TIP3    H272105   5.564   3.688   0.615  0.5294  0.1919  1.1136
16872TIP3   OH272106   0.654   0.940   1.967  0.0545  0.3541  0.0288
16872TIP3    H172107   0.566   0.921   1.935  0.6624  0.0497 -1.5576
16872TIP3    H272108   0.681   0.860   2.013  0.0322 -0.1086 -0.7383
16873TIP3   OH272109   0.072   6.060  10.601 -0.2254  0.3245  0.0201
16873TIP3    H172110   0.000   6.123  10.595 -0.5787  0.0798  1.2898
16873TIP3    H272111   0.035   5.977  10.572 -0.0534  0.4875 -0.6682
16874TIP3   OH272112   1.658   3.210   3.795 -0.4442  0.3265  0.1351
16874TIP3    H172113   1.743   3.205   3.838 -0.3213  1.1792  0.0099
16874TIP3    H272114   1.626   3.119   3.794  1.5531 -0.4362 -2.0286
16875TIP3   OH272115   0.941   5.982  15.243 -0.4490  0.2855 -0.1405
16875TIP3    H172116   0.978   5.898  15.271 -1.0236 -0.1406 -0.6164
16875TIP3    H272117   0.892   6.013  15.319 -0.5193  0.0143 -0.0721
16876TIP3   OH272118   5.878   1.837  16.212 -0.3094 -0.0334 -0.2116
16876TIP3    H172119   5.904   1.817  16.302 -0.5744  0.3756 -0.0406
16876TIP3    H272120   5.785   1.858  16.218  0.3172  3.1871 -0.0373
16877TIP3   OH272121   2.718   2.636  17.366 -0.2388  0.3016 -0.7646
16877TIP3    H172122   2.770   2.558  17.387 -0.7281  0.5248  1.5807
16877TIP3    H272123   2.783   2.703  17.346  0.2053 -0.5205 -2.1898
16878TIP3   OH272124   1.547   2.744  15.346 -0.1959  0.1994 -0.0670
16878TIP3    H172125   1.528   2.681  15.416 -3.2950  1.1807  0.1368
16878TIP3    H272126   1.604   2.696  15.286  0.4793 -1.5383  1.8433
16879TIP3   OH272127   2.808   4.108  12.226  0.4757 -0.2293 -0.0114
16879TIP3    H172128   2.837   4.192  12.262  1.3657 -1.4033  2.1547
16879TIP3    H272129   2.742   4.077  12.287 -0.1178 -0.9420 -0.9939
16880TIP3   OH272130   0.270   6.145  13.869 -0.1859  0.4794  0.5279
16880TIP3    H172131   0.266   6.234  13.904 -1.1357 -0.1364  2.0812
16880TIP3    H272132   0.317   6.094  13.935 -0.3647 -0.3325  0.0473
16881TIP3   OH272133   1.850   5.040   3.005  0.7483 -0.3671  0.0411
16881TIP3    H172134   1.775   5.089   3.039  1.0152  0.0325  0.0635
16881TIP3    H272135   1.919   5.054   3.070  0.6775 -1.1901  0.3027
16882TIP3   OH272136   2.092   2.409  17.005 -0.0569  0.2493 -0.4061
16882TIP3    H172137   2.038   2.332  17.022  1.5095 -0.6219  0.8643
16882TIP3    H272138   2.061   2.475  17.067  0.5830 -0.3944  0.6243
16883TIP3   OH272139   0.790   3.892  11.551 -0.1408  0.3561 -0.4011
16883TIP3    H172140   0.713   3.854  11.510  0.2826 -1.2020  0.1690
16883TIP3    H272141   0.845   3.817  11.574  0.1812  1.2148  1.9045
16884TIP3   OH272142   0.288   1.353   2.961 -0.1412  0.1400  0.2538
16884TIP3    H172143   0.330   1.434   2.991  0.3340  0.3675 -0.9587
16884TIP3    H272144   0.353   1.285   2.979 -0.4617  0.0469  1.0936
16885TIP3   OH272145   0.630   3.518   3.478 -0.3501 -0.2646  0.0631
16885TIP3    H172146   0.556   3.469   3.442 -1.0565 -0.3546  1.5563
16885TIP3    H272147   0.677   3.549   3.402 -2.5399  0.7185 -0.9876
16886TIP3   OH272148   5.620   3.560  13.947  0.3245 -0.4411  0.3634
16886TIP3    H172149   5.581   3.646  13.960 -1.2322 -0.9059 -0.9179
16886TIP3    H272150   5.688   3.573  13.881  0.0468 -0.2097  0.1258
16887TIP3   OH272151   3.991   5.783  16.247 -0.4882 -0.0644  0.4515
16887TIP3    H172152   4.019   5.697  16.279 -1.0004 -0.3338  0.1823
16887TIP3    H272153   3.964   5.830  16.327  0.2864  0.0432  0.6607
16888TIP3   OH272154   1.028   0.712   4.853 -0.4491  0.3805 -0.1053
16888TIP3    H172155   1.109   0.720   4.802 -0.0336 -2.7467 -0.1082
16888TIP3    H272156   0.959   0.707   4.787 -0.8199  3.4832 -0.0980
16889TIP3   OH272157   2.886   6.262   4.247 -0.3257 -0.0390 -0.3333
16889TIP3    H172158   2.881   6.337   4.189  0.5596 -0.6182 -1.1887
16889TIP3    H272159   2.847   6.292   4.329 -1.3306  0.8816 -1.1236
16890TIP3   OH272160   1.763   2.495  17.255  0.3495 -0.5077 -0.7727
16890TIP3    H172161   1.737   2.406  17.279  0.6377 -0.1438  1.0351
16890TIP3    H272162   1.828   2.520  17.321 -2.4575  2.4153  1.1887
16891TIP3   OH272163   6.281   0.022  14.271 -0.7272 -0.0981  0.0134
16891TIP3    H172164   6.359  -0.028  14.293 -0.3700  0.2614 -0.4239
16891TIP3    H272165   6.313   0.108  14.243 -1.3186  0.3129  0.5451
16892TIP3   OH272166   2.045   1.650  14.448  0.4702  0.6444  0.0462
16892TIP3    H172167   1.978   1.628  14.383  0.1770  1.7264 -0.0410
16892TIP3    H272168   2.064   1.743  14.432  3.2103 -0.0109 -1.0317
16893TIP3   OH272169   0.553   0.875  14.515  0.0512  0.4580 -0.1027
16893TIP3    H172170   0.623   0.932  14.484 -0.4777  0.7863 -0.7064
16893TIP3    H272171   0.595   0.790  14.528  0.7385  0.8563  0.3393
16894TIP3   OH272172   3.309   3.067  13.513  0.1823  0.1905  0.4813
16894TIP3    H172173   3.347   3.123  13.446  0.4366 -0.4862  0.0530
16894TIP3    H272174   3.375   3.065  13.583  0.2823  0.2144  0.3873
16895TIP3   OH272175   0.158   4.344  15.263  0.1294 -0.4192 -0.2725
16895TIP3    H172176   0.180   4.322  15.353 -0.0218  0.1617 -0.0962
16895TIP3    H272177   0.072   4.305  15.249  0.1386 -0.4809 -0.1574
16896TIP3   OH272178   4.694   0.171   3.238  0.0833 -0.2389 -0.3052
16896TIP3    H172179   4.720   0.152   3.329 -1.2051 -0.1323  0.1052
16896TIP3    H272180   4.771   0.149   3.186  1.0309  0.1936  0.8659
16897TIP3   OH272181   0.578   0.815   5.061  0.5858  0.5672 -0.4278
16897TIP3    H172182   0.512   0.758   5.101 -0.1606  1.7125  0.0335
16897TIP3    H272183   0.662   0.778   5.088  0.1093  0.7487  1.4500
16898TIP3   OH272184   6.737   3.218   4.731 -0.1757 -0.0216 -0.5251
16898TIP3    H172185   6.807   3.205   4.667 -0.6060 -2.4636 -0.5759
16898TIP3    H272186   6.782   3.220   4.815  0.1155  0.2610 -0.6847
16899TIP3   OH272187   5.142   3.204  14.679 -0.2543 -0.1009 -0.3557
16899TIP3    H172188   5.161   3.206  14.773 -0.0123  0.3665 -0.4103
16899TIP3    H272189   5.174   3.288  14.647  2.0332 -1.2509 -1.3150
16900TIP3   OH272190   5.691   5.854  14.836 -0.0520 -0.0618 -0.4632
16900TIP3    H172191   5.654   5.769  14.860 -1.1162  0.8351  1.2308
16900TIP3    H272192   5.742   5.836  14.756 -1.3297 -2.0130 -0.9082
16901TIP3   OH272193   0.210   5.375  15.524 -0.3040 -0.4179  0.3766
16901TIP3    H172194   0.206   5.400  15.431 -1.8608  0.0601  0.5326
16901TIP3    H272195   0.183   5.283  15.525 -2.1180  0.0743  0.4864
16902TIP3   OH272196   3.538   4.238  14.845 -0.1813  1.0387 -0.2153
16902TIP3    H172197   3.555   4.146  14.867  0.0990  1.4601  1.4534
16902TIP3    H272198   3.457   4.259  14.891 -0.9128  1.3111 -1.5858
16903TIP3   OH272199   6.700   4.702  14.847 -0.0647  0.3267  0.8177
16903TIP3    H172200   6.725   4.690  14.939 -0.0715  0.5061  0.8422
16903TIP3    H272201   6.663   4.617  14.822 -0.5743  0.4487  1.1413
16904TIP3   OH272202   4.816   6.602   2.509 -0.3866 -0.6259  0.0549
16904TIP3    H172203   4.794   6.530   2.569 -0.0044 -0.5127  0.3329
16904TIP3    H272204   4.742   6.663   2.516 -2.1296 -2.2569 -2.2546
16905TIP3   OH272205   4.231   3.594   0.658 -0.3701 -0.5913  0.2522
16905TIP3    H172206   4.228   3.514   0.710 -0.6338 -0.6826  0.0982
16905TIP3    H272207   4.147   3.596   0.612 -0.0966 -0.5613 -0.2504
16906TIP3   OH272208   5.842   4.131   4.154  0.4929  0.4817  0.0491
16906TIP3    H172209   5.796   4.078   4.219 -3.2959 -0.7847 -3.2928
16906TIP3    H272210   5.864   4.212   4.201 -1.1535 -0.6710  3.0918
16907TIP3   OH272211   6.264   0.863  13.740 -0.6836  0.1454  0.4462
16907TIP3    H172212   6.353   0.844  13.770 -0.1224 -0.6797 -1.5189
16907TIP3    H272213   6.220   0.778  13.740 -0.2686 -0.1604 -2.0459
16908TIP3   OH272214   0.011   4.182   0.533  0.2767 -0.6135 -0.2812
16908TIP3    H172215  -0.071   4.134   0.527 -0.5198  0.3441  1.9812
16908TIP3    H272216  -0.010   4.259   0.584  2.0548  0.9900 -1.8244
16909TIP3   OH272217   0.622   4.731  12.177 -0.2891 -0.6749 -0.8128
16909TIP3    H172218   0.707   4.689  12.162 -0.4495 -0.9591 -0.9435
16909TIP3    H272219   0.637   4.824  12.158 -0.2965 -0.9022 -2.0178
16910TIP3   OH272220   6.546   3.316  14.875  0.1513 -0.5795 -0.2896
16910TIP3    H172221   6.625   3.271  14.844 -0.7166 -1.1719 -1.7470
16910TIP3    H272222   6.573   3.407  14.884  1.2442 -0.9195  0.1733
16911TIP3   OH272223   0.411   4.062   1.363 -0.1782  0.4825 -0.4522
16911TIP3    H172224   0.349   4.130   1.389  1.6730  2.3726 -0.7021
16911TIP3    H272225   0.413   4.002   1.437  0.9739  2.8348  1.5613
16912TIP3   OH272226   3.713   1.862   1.444 -0.4520  0.1793 -0.4609
16912TIP3    H172227   3.637   1.874   1.387 -0.1552  0.3167 -0.8286
16912TIP3    H272228   3.787   1.899   1.395 -0.3453  1.1354  0.3845
16913TIP3   OH272229   1.137   6.074  16.839 -0.1285 -0.5058 -1.0341
16913TIP3    H172230   1.193   6.028  16.901 -0.9089  0.8706  0.7691
16913TIP3    H272231   1.191   6.146  16.807 -0.3524 -0.0539 -0.4212
16914TIP3   OH272232   6.422   0.839   5.886 -0.5403  0.0818 -0.4497
16914TIP3    H172233   6.383   0.922   5.911 -0.0008 -0.2856  1.8357
16914TIP3    H272234   6.516   0.850   5.903 -0.4208 -0.8759 -0.4034
16915TIP3   OH272235   5.503   0.917  17.130 -0.3549 -0.0182 -0.8600
16915TIP3    H172236   5.466   0.833  17.101  0.7767 -1.1209  0.6691
16915TIP3    H272237   5.586   0.892  17.172 -0.6108  1.7315  0.7968
16916TIP3   OH272238   4.444   5.177  13.922  0.1248 -0.4709  0.2137
16916TIP3    H172239   4.410   5.088  13.931 -2.8256  0.6059  0.5999
16916TIP3    H272240   4.461   5.206  14.012  1.0888 -0.6103  0.0874
16917TIP3   OH272241   4.238   0.654  14.607  0.5111 -0.1340 -0.4281
16917TIP3    H172242   4.192   0.570  14.614 -0.1079  0.2450  0.2744
16917TIP3    H272243   4.307   0.639  14.542  0.6320 -1.2818 -0.0568
16918TIP3   OH272244   1.167   5.287  11.868 -0.2999  0.1043  0.2426
16918TIP3    H172245   1.161   5.285  11.773 -0.0009  1.0670  0.1938
16918TIP3    H272246   1.097   5.228  11.898 -0.7779  0.2487 -0.5601
16919TIP3   OH272247   4.541   6.088   6.244  0.0428  0.0551 -0.2690
16919TIP3    H172248   4.620   6.035   6.253 -0.7049 -1.4289 -1.8564
16919TIP3    H272249   4.572   6.179   6.248  1.5954 -0.4910  0.6681
16920TIP3   OH272250   1.256   2.529   4.002 -0.3192  0.7795 -0.2489
16920TIP3    H172251   1.181   2.546   3.946  0.8198  0.5838 -1.9095
16920TIP3    H272252   1.223   2.471   4.071 -1.7610  1.0246 -0.7154
16921TIP3   OH272253   1.759   1.349   5.989  0.2812 -0.0687  0.3861
16921TIP3    H172254   1.767   1.408   5.914  1.5419 -1.2084 -0.4327
16921TIP3    H272255   1.803   1.396   6.060  2.4150 -0.4958 -0.5796
16922TIP3   OH272256   1.350   3.700  14.593 -0.0424  0.6263  0.4993
16922TIP3    H172257   1.428   3.648  14.610  0.2555  0.8413 -0.1601
16922TIP3    H272258   1.331   3.744  14.676 -1.0565 -1.4801  1.4693
16923TIP3   OH272259   0.710   3.199  11.906 -0.0831 -0.0450  0.4017
16923TIP3    H172260   0.650   3.126  11.921 -1.2737  0.6590 -0.7212
16923TIP3    H272261   0.708   3.213  11.812  0.9507  0.7718  0.4758
16924TIP3   OH272262   4.821   0.504  12.039  0.2489  0.3811  0.7084
16924TIP3    H172263   4.904   0.460  12.056 -0.3649 -0.3030  2.0132
16924TIP3    H272264   4.791   0.468  11.955  2.2189  2.1408 -0.8783
16925TIP3   OH272265   1.541   5.770  12.540 -0.2465 -0.5121  0.0156
16925TIP3    H172266   1.555   5.678  12.517 -2.8304 -0.6803 -1.3430
16925TIP3    H272267   1.510   5.767  12.631 -0.2200 -0.9739  0.0151
16926TIP3   OH272268   0.687   6.739   6.545  0.5680  0.1829 -0.3460
16926TIP3    H172269   0.762   6.774   6.498  2.0612 -0.8985  1.0967
16926TIP3    H272270   0.646   6.815   6.586  0.4460  0.8628 -1.6794
16927TIP3   OH272271   4.201   3.361   2.170 -0.2337 -0.2377 -0.3650
16927TIP3    H172272   4.177   3.357   2.078  0.9908  1.5620 -0.8253
16927TIP3    H272273   4.294   3.384   2.169 -0.0540 -0.7971  1.3165
16928TIP3   OH272274   5.056   2.078   5.044 -0.5670 -0.2259  0.2510
16928TIP3    H172275   5.031   2.095   4.953 -1.1639 -0.1571  0.4236
16928TIP3    H272276   5.142   2.037   5.038  0.2621  1.4634 -0.2580
16929TIP3   OH272277   4.618   2.819   5.036 -0.0891 -0.4989 -0.2609
16929TIP3    H172278   4.536   2.790   5.077  0.0048 -1.7081 -0.8871
16929TIP3    H272279   4.668   2.859   5.107 -1.4182  0.7144  0.0306
16930TIP3   OH272280   3.811   1.862  13.549 -0.4058 -0.0980  0.5069
16930TIP3    H172281   3.809   1.861  13.453 -1.1804  1.8868  0.4615
16930TIP3    H272282   3.796   1.770  13.573 -1.9107 -0.4036 -1.2774
16931TIP3   OH272283   1.043   0.960   1.342 -0.3396 -0.5016 -0.2042
16931TIP3    H172284   1.026   1.044   1.385 -1.2941 -0.7814  0.0076
16931TIP3    H272285   0.963   0.909   1.358 -0.0840 -1.1706 -0.9884
16932TIP3   OH272286   1.111   6.763  17.237  0.2031 -0.5310 -0.0122
16932TIP3    H172287   1.045   6.819  17.278 -1.0901 -1.1983 -1.0919
16932TIP3    H272288   1.137   6.702  17.305 -0.6585 -0.5574  0.3032
16933TIP3   OH272289   5.646   0.537   3.774 -0.1954 -0.7402 -0.2341
16933TIP3    H172290   5.730   0.504   3.806  0.2853  1.6443  1.1933
16933TIP3    H272291   5.665   0.626   3.744 -2.4294  0.4148  1.4804
16934TIP3   OH272292   4.416   6.149   0.413  0.3420 -0.0632 -0.7064
16934TIP3    H172293   4.493   6.196   0.445  1.5201 -2.6181  0.5530
16934TIP3    H272294   4.382   6.104   0.491 -1.6586 -0.0442 -1.5157
16935TIP3   OH272295   4.281   3.638  12.863 -0.4054  0.5729 -0.2684
16935TIP3    H172296   4.373   3.614  12.858 -0.2326  1.3039 -0.6920
16935TIP3    H272297   4.273   3.717  12.809 -1.2450  0.6113 -0.1076
16936TIP3   OH272298   5.761   3.951  16.944  0.2784  0.2613  0.2223
16936TIP3    H172299   5.684   3.941  16.888 -1.0761  0.2990  2.0053
16936TIP3    H272300   5.729   4.000  17.020  2.0494  0.1826  1.0612
16937TIP3   OH272301   2.967   4.468   1.203 -0.3691 -0.0154 -0.5663
16937TIP3    H172302   2.895   4.493   1.145 -0.7723  0.1892  0.0202
16937TIP3    H272303   2.950   4.513   1.285  0.2102 -0.2886 -0.2847
16938TIP3   OH272304   6.609   1.794  11.772  0.3586 -0.4276  0.4498
16938TIP3    H172305   6.702   1.790  11.794  0.6256 -0.7131 -0.6452
16938TIP3    H272306   6.600   1.875  11.722 -0.4649  0.8337  2.5249
16939TIP3   OH272307   2.589   5.722   2.137 -0.0973 -0.0888 -0.1673
16939TIP3    H172308   2.667   5.771   2.110 -0.0690 -0.2478 -0.3878
16939TIP3    H272309   2.531   5.726   2.061  0.4950 -1.5881 -0.7487
16940TIP3   OH272310   3.825   3.802   2.888 -0.1343 -0.0039  0.6418
16940TIP3    H172311   3.841   3.710   2.868  0.0636 -0.2443  1.8169
16940TIP3    H272312   3.878   3.819   2.966 -0.4200  1.0180  0.6269
16941TIP3   OH272313   0.480   6.394   2.051 -0.5740 -0.8453 -0.0617
16941TIP3    H172314   0.432   6.437   2.122 -0.1214  1.2699 -0.9890
16941TIP3    H272315   0.570   6.390   2.081 -0.2296  0.7953 -0.8152
16942TIP3   OH272316   1.135   3.099  13.314  0.3004 -0.0266 -0.5669
16942TIP3    H172317   1.225   3.132  13.314  0.6393 -0.9014 -1.5833
16942TIP3    H272318   1.099   3.125  13.230 -0.8487  1.4109  0.3201
16943TIP3   OH272319   2.046   0.314  11.434  0.2884  0.6043 -0.3029
16943TIP3    H172320   2.016   0.226  11.456 -2.5003  1.7264  0.7563
16943TIP3    H272321   1.987   0.343  11.364  0.6023  1.9553 -0.0255
16944TIP3   OH272322   6.722   6.093   4.750 -0.5395  0.5239  0.1363
16944TIP3    H172323   6.650   6.133   4.799  0.1008  1.6386  0.1841
16944TIP3    H272324   6.794   6.155   4.757 -0.1528  0.3082 -1.4924
16945TIP3   OH272325   1.704   6.232  14.518  0.0280  0.4086  0.1053
16945TIP3    H172326   1.703   6.247  14.424 -0.0313  4.4737  0.5993
16945TIP3    H272327   1.619   6.191  14.537 -0.8397  1.4613 -1.3805
16946TIP3   OH272328   5.123   2.582   4.146  0.0847 -0.2192  1.0546
16946TIP3    H172329   5.210   2.588   4.105  0.0009 -1.2499  0.7017
16946TIP3    H272330   5.062   2.585   4.073 -0.0777 -1.7708  1.0911
16947TIP3   OH272331   1.283   2.057  12.837  0.6588 -0.2878 -0.7856
16947TIP3    H172332   1.308   2.142  12.871 -2.7073  0.1915  0.8996
16947TIP3    H272333   1.351   1.997  12.868  1.3052  1.2594  0.9364
16948TIP3   OH272334   6.705   4.968  14.772  0.0281  0.2900  0.6470
16948TIP3    H172335   6.616   5.000  14.785 -0.9519 -2.0568  0.1486
16948TIP3    H272336   6.700   4.875  14.792  2.1009 -0.1490 -0.5907
16949TIP3   OH272337   4.916   0.759   5.521  0.4920 -0.0454 -0.2571
16949TIP3    H172338   4.957   0.825   5.577  0.9410  0.0947 -0.7466
16949TIP3    H272339   4.920   0.796   5.433 -1.2069  0.2323 -0.2598
16950TIP3   OH272340   4.389   4.955  15.837 -0.0583  0.4758 -0.4461
16950TIP3    H172341   4.384   4.997  15.752 -2.2965  1.3291  0.0537
16950TIP3    H272342   4.334   4.877  15.829 -0.9231  0.9768  0.4089
16951TIP3   OH272343   3.583   6.636  14.508 -0.3760  0.3127 -0.4319
16951TIP3    H172344   3.598   6.592  14.424 -0.6553  1.9957 -1.4113
16951TIP3    H272345   3.655   6.608  14.563  0.0407 -0.5149 -1.3647
16952TIP3   OH272346   0.219   5.152   5.331  0.2642  0.2900  0.0029
16952TIP3    H172347   0.211   5.247   5.336  2.0966  0.4573  0.8636
16952TIP3    H272348   0.286   5.131   5.397 -0.6989 -1.6859  0.4168
16953TIP3   OH272349   3.992   2.062  16.602  0.5070  0.0662  0.1289
16953TIP3    H172350   3.981   2.143  16.551 -0.9643 -1.2127 -1.7449
16953TIP3    H272351   3.907   2.018  16.593  0.9594 -1.2358  1.9401
16954TIP3   OH272352   1.055   0.348   1.957  0.3048  0.1043  0.0293
16954TIP3    H172353   1.046   0.389   2.043 -1.2271  0.1048 -0.1097
16954TIP3    H272354   0.991   0.277   1.957  0.3277  0.0606 -1.0856
16955TIP3   OH272355   5.393   0.494  17.322  0.7323 -0.1599 -0.2339
16955TIP3    H172356   5.365   0.586  17.314  0.5967 -0.1418  0.3624
16955TIP3    H272357   5.487   0.500  17.342  0.7385 -0.1546 -0.2647
16956TIP3   OH272358   5.941   2.455   1.864 -0.5237 -0.3532 -0.1851
16956TIP3    H172359   6.018   2.511   1.868 -2.1573  1.9704  2.3878
16956TIP3    H272360   5.936   2.427   1.772  1.2587  2.4873 -1.2791
16957TIP3   OH272361   2.537   6.146   2.471 -0.2226  0.3470  0.0523
16957TIP3    H172362   2.473   6.200   2.519  2.3400  0.2556  4.0336
16957TIP3    H272363   2.528   6.059   2.511  2.3147  0.3559  0.7814
16958TIP3   OH272364   4.009   0.457  14.643  0.0291 -0.5180 -0.0084
16958TIP3    H172365   3.989   0.492  14.556  0.7654 -0.9461 -0.3699
16958TIP3    H272366   3.932   0.406  14.668 -0.4477  0.1391 -0.1220
16959TIP3   OH272367   1.247   6.137  13.262  0.3043  0.7485  0.5870
16959TIP3    H172368   1.284   6.069  13.319 -1.7003 -0.3524  0.6564
16959TIP3    H272369   1.159   6.106  13.241  0.0359  2.4016 -0.9970
16960TIP3   OH272370   6.012   5.045   4.744  0.4832  0.0855  0.1868
16960TIP3    H172371   6.019   5.095   4.825  2.3482 -0.6108  0.5015
16960TIP3    H272372   5.993   5.110   4.676  1.9526  1.0966  0.7140
16961TIP3   OH272373   3.964   5.214  16.178  0.2482 -0.4084 -0.3561
16961TIP3    H172374   3.918   5.294  16.154 -1.1522 -1.6058 -1.9628
16961TIP3    H272375   4.053   5.242  16.197 -0.1484  1.4964 -1.0727
16962TIP3   OH272376   2.673   3.248  15.556  0.2084 -0.2938 -0.8792
16962TIP3    H172377   2.586   3.252  15.518 -0.4271 -1.4635  0.3526
16962TIP3    H272378   2.715   3.174  15.511  0.0855 -0.5662 -0.5487
16963TIP3   OH272379   3.196   4.381   1.081  0.0828  0.1477 -0.1789
16963TIP3    H172380   3.134   4.383   1.154 -0.8004 -0.4552 -0.8897
16963TIP3    H272381   3.247   4.302   1.095  0.3159  0.3472  0.1042
16964TIP3   OH272382   3.766   1.171  12.602 -0.1385  0.2570  0.1441
16964TIP3    H172383   3.823   1.099  12.579  0.4447  0.3246  1.2999
16964TIP3    H272384   3.743   1.156  12.694  0.9776  2.1552  0.7934
16965TIP3   OH272385   2.893   6.325  14.609 -0.2586 -0.0040 -0.0558
16965TIP3    H172386   2.910   6.357  14.698  1.1950 -1.4935  0.2523
16965TIP3    H272387   2.977   6.334  14.564 -0.1815 -1.9517 -0.3792
16966TIP3   OH272388   1.094   3.355  16.858 -0.2438 -0.2051  0.6178
16966TIP3    H172389   1.084   3.426  16.921 -0.4425  0.1811  0.1544
16966TIP3    H272390   1.006   3.323  16.843 -0.8732  2.4753 -2.6262
16967TIP3   OH272391   0.180   5.223  16.258  0.6939 -0.0183 -0.8586
16967TIP3    H172392   0.092   5.242  16.225  0.0991 -0.9186  0.1259
16967TIP3    H272393   0.177   5.248  16.350  1.9941  1.4653 -1.1791
16968TIP3   OH272394   0.791   4.132  16.222 -0.1562  0.1951 -0.2936
16968TIP3    H172395   0.842   4.213  16.227  0.1165 -0.0285  0.7022
16968TIP3    H272396   0.732   4.146  16.147  1.2750  0.4922 -1.4202
16969TIP3   OH272397   3.041   4.589   2.354  0.5429  0.7201  0.4449
16969TIP3    H172398   3.076   4.528   2.289  2.1125  2.0468 -0.0292
16969TIP3    H272399   3.109   4.594   2.421  0.2814  1.6389  0.6618
16970TIP3   OH272400   2.426   6.037   2.157  0.3023  0.7820 -0.4002
16970TIP3    H172401   2.399   5.981   2.085  2.5593 -0.7260 -0.1934
16970TIP3    H272402   2.393   5.992   2.235  0.9900  0.4147 -0.3116
16971TIP3   OH272403   5.151   4.372  11.482 -0.1021  0.3417  0.0731
16971TIP3    H172404   5.216   4.312  11.519  0.2042  0.2320 -0.6196
16971TIP3    H272405   5.203   4.444  11.447 -0.1805 -0.5884 -2.0790
16972TIP3   OH272406   2.214   6.235  13.377 -0.7611  0.2384 -0.1041
16972TIP3    H172407   2.251   6.165  13.431  1.2046  0.4914 -1.0657
16972TIP3    H272408   2.266   6.235  13.297 -1.6409  1.8875 -0.7320
16973TIP3   OH272409   1.364   5.422  13.759 -0.3243  0.7056 -0.2306
16973TIP3    H172410   1.403   5.347  13.714 -1.6421 -1.0574  1.3959
16973TIP3    H272411   1.285   5.442  13.708 -1.1449 -0.4818  0.5151
16974TIP3   OH272412   1.666   1.655   6.055  0.2817 -0.4522  0.6420
16974TIP3    H172413   1.582   1.678   6.095 -0.5769 -1.0709 -0.6994
16974TIP3    H272414   1.702   1.587   6.111 -0.4407 -0.6536  0.8706
16975TIP3   OH272415   4.509   1.044   1.459  0.7103 -0.6923 -0.2382
16975TIP3    H172416   4.435   0.994   1.424  1.0034  1.2802 -4.3792
16975TIP3    H272417   4.586   0.994   1.431  0.9316  0.2901 -1.5199
16976TIP3   OH272418   4.607   3.778   3.279  0.0001 -0.1463 -0.5742
16976TIP3    H172419   4.657   3.738   3.349  1.2423  2.1414 -0.0666
16976TIP3    H272420   4.533   3.718   3.264 -0.4825 -0.5736  2.8710
16977TIP3   OH272421   5.610   4.867   1.150 -0.4375 -0.2310 -0.0026
16977TIP3    H172422   5.527   4.893   1.110  0.2011 -0.4442 -1.5228
16977TIP3    H272423   5.677   4.911   1.097  0.4693 -1.0237  0.4565
16978TIP3   OH272424   3.296   5.694  11.381 -0.0630 -0.0831 -0.0025
16978TIP3    H172425   3.304   5.765  11.318  0.6054 -0.2970 -0.1626
16978TIP3    H272426   3.271   5.737  11.462 -1.1143  0.1763 -0.4488
16979TIP3   OH272427   3.556   4.854   0.894 -0.4444  0.1248  0.3158
16979TIP3    H172428   3.565   4.833   0.801  0.1850  1.4511  0.0427
16979TIP3    H272429   3.471   4.897   0.901 -0.8061 -0.6076  0.4922
16980TIP3   OH272430   5.780   2.670  17.239  0.0561 -0.3392  0.1541
16980TIP3    H172431   5.828   2.589  17.252  2.3789  1.1132  1.3195
16980TIP3    H272432   5.845   2.731  17.205 -1.5687  1.0983 -0.5133
16981TIP3   OH272433   2.530   2.541   2.688 -0.0805  0.3066  0.1724
16981TIP3    H172434   2.599   2.594   2.648 -1.2877  2.4478  0.7595
16981TIP3    H272435   2.484   2.502   2.613  0.4897  0.5429 -0.3123
16982TIP3   OH272436   2.039   5.443  13.821  0.3914  0.3267  0.1195
16982TIP3    H172437   2.052   5.378  13.890  0.5483  0.3572  0.1186
16982TIP3    H272438   2.123   5.488  13.814  0.2835  0.5298  0.1184
16983TIP3   OH272439   1.727   5.954  13.498 -0.5508 -0.6276  0.5136
16983TIP3    H172440   1.711   6.038  13.540  0.9320 -1.1642  2.3161
16983TIP3    H272441   1.806   5.967  13.446 -0.2335 -0.9274  0.9147
16984TIP3   OH272442   2.747   5.953   4.367  0.0659  0.2816 -0.8426
16984TIP3    H172443   2.724   5.966   4.459  2.2025  0.2124 -0.2449
16984TIP3    H272444   2.780   5.864   4.364  0.5210  0.4742 -1.5754
16985TIP3   OH272445   0.085   2.069  13.659 -0.3738 -0.6436 -0.5545
16985TIP3    H172446   0.100   2.089  13.566 -0.2143  0.8140 -0.2300
16985TIP3    H272447   0.170   2.083  13.700 -0.2793 -1.9214 -0.2686
16986TIP3   OH272448   0.190   5.794   0.163 -0.2825 -0.5391 -0.0882
16986TIP3    H172449   0.231   5.854   0.226 -2.2692  1.4233 -0.5602
16986TIP3    H272450   0.258   5.779   0.097  0.5394  0.5611  0.4693
16987TIP3   OH272451   3.931   6.432   0.090 -0.0011 -0.4840  0.2228
16987TIP3    H172452   3.879   6.377   0.031 -1.2212 -2.4845  2.9614
16987TIP3    H272453   3.878   6.510   0.103  0.1869 -0.1127 -1.0978
16988TIP3   OH272454   1.682   5.331  16.828 -0.4262  0.3296  0.0271
16988TIP3    H172455   1.750   5.308  16.764 -0.2846  1.7731 -0.4031
16988TIP3    H272456   1.716   5.301  16.912  0.5317  0.5827 -0.2532
16989TIP3   OH272457   2.197   5.974   2.364  0.1691 -0.2721  0.1587
16989TIP3    H172458   2.134   6.011   2.425 -1.0759 -3.1387  0.7617
16989TIP3    H272459   2.225   5.893   2.405  2.6544 -0.1666 -1.1293
16990TIP3   OH272460   5.611   1.681  12.167 -0.0280  0.2749  0.0167
16990TIP3    H172461   5.530   1.727  12.147  0.0251 -0.1258 -1.1935
16990TIP3    H272462   5.678   1.725  12.115 -0.0495 -1.3788 -1.4814
16991TIP3   OH272463   1.884   5.281  15.304  0.0623 -0.1458  0.4520
16991TIP3    H172464   1.953   5.218  15.322 -0.7832 -1.4199 -0.5931
16991TIP3    H272465   1.900   5.309  15.214  0.2577  0.9356  0.8072
16992TIP3   OH272466   3.402   3.494  11.982 -0.1720  0.1017 -0.2600
16992TIP3    H172467   3.495   3.481  12.004  0.5152  2.1461 -1.6208
16992TIP3    H272468   3.388   3.441  11.904 -0.5631 -1.3130  0.7470
16993TIP3   OH272469   4.384   1.848  12.393  0.0682  0.2473 -0.7207
16993TIP3    H172470   4.361   1.941  12.404  2.0791  0.7634 -0.5636
16993TIP3    H272471   4.479   1.845  12.404 -0.1316 -2.1230  1.1268
16994TIP3   OH272472   1.002   0.634   0.269 -0.2419  0.2723 -0.2654
16994TIP3    H172473   1.079   0.578   0.282 -0.2495 -0.1012 -1.6381
16994TIP3    H272474   0.929   0.573   0.262 -0.1690  0.3237 -2.4098
16995TIP3   OH272475   0.515   0.463  16.113 -0.7046  0.4046  0.4077
16995TIP3    H172476   0.464   0.529  16.065 -0.8524  0.1858  0.2624
16995TIP3    H272477   0.588   0.512  16.150 -0.2877  0.4914 -0.5043
16996TIP3   OH272478   2.686   0.974  12.099  0.0884 -0.7157  0.2280
16996TIP3    H172479   2.730   1.057  12.118 -1.1349  0.3375 -1.2718
16996TIP3    H272480   2.716   0.914  12.168  0.5422  1.1193  1.7045
16997TIP3   OH272481   2.526   4.836  11.515  0.3744 -0.0601  0.0698
16997TIP3    H172482   2.614   4.802  11.495 -0.0810 -0.3707 -1.6076
16997TIP3    H272483   2.467   4.764  11.489 -0.3449 -0.4893  2.6611
16998TIP3   OH272484   2.390   5.969   4.097 -0.4554 -0.2775 -0.8656
16998TIP3    H172485   2.390   5.898   4.161 -0.6530  0.9975  0.6018
16998TIP3    H272486   2.371   5.926   4.014 -0.4106 -1.9589 -0.0516
16999TIP3   OH272487   3.813   0.657   2.588 -0.3493  0.5822  0.4089
16999TIP3    H172488   3.752   0.679   2.518 -0.4106 -1.4817 -0.2522
16999TIP3    H272489   3.899   0.657   2.546 -0.4222 -0.9999  0.1947
17000TIP3   OH272490   2.835   1.249  13.757  0.0510 -0.2067  0.4145
17000TIP3    H172491   2.757   1.280  13.711  0.9223  2.4177  0.5228
17000TIP3    H272492   2.906   1.259  13.693  0.3260 -3.1526  0.0954
17001TIP3   OH272493   0.719   5.171  13.494  0.0717  0.1398 -0.1535
17001TIP3    H172494   0.659   5.113  13.447 -0.1836  1.4510 -1.5175
17001TIP3    H272495   0.665   5.213  13.561 -0.0025 -0.3063  0.0734
17002TIP3   OH272496   2.341   2.504  12.373 -0.6128  0.0206  0.4038
17002TIP3    H172497   2.369   2.423  12.416 -0.7796 -0.6001 -0.6242
17002TIP3    H272498   2.403   2.516  12.301 -1.2148  0.2422 -0.0834
17003TIP3   OH272499   0.467   4.429  15.928  0.3642 -0.0322 -0.3425
17003TIP3    H172500   0.381   4.386  15.928  0.5911 -0.4953 -0.3237
17003TIP3    H272501   0.529   4.356  15.931  0.7604  0.2951 -0.5744
17004TIP3   OH272502   1.540   6.437   3.526  0.1557  0.0534 -0.2283
17004TIP3    H172503   1.551   6.443   3.620 -1.1273  0.1818 -0.0690
17004TIP3    H272504   1.593   6.361   3.500  1.3709  0.6497  0.4191
17005TIP3   OH272505   6.072   5.373   5.913 -0.5860  0.0710 -0.0944
17005TIP3    H172506   6.088   5.279   5.916 -0.4053  0.0191 -1.6562
17005TIP3    H272507   6.136   5.411   5.973  0.6346 -0.6773 -0.8692
17006TIP3   OH272508   4.022   6.546  14.931 -0.0245 -0.3455 -0.1094
17006TIP3    H172509   4.010   6.464  14.882 -0.2770  0.4257 -1.3757
17006TIP3    H272510   4.061   6.607  14.868  4.2667 -0.6336  1.8908
17007TIP3   OH272511   6.425   0.984   0.117  0.0351  0.2313 -0.5600
17007TIP3    H172512   6.411   0.894   0.145  1.5084  0.2630  0.3677
17007TIP3    H272513   6.469   1.026   0.191  1.6893  1.0328 -1.9252
17008TIP3   OH272514   0.206   1.717  12.641 -0.2592 -0.1452 -0.4180
17008TIP3    H172515   0.193   1.630  12.680 -1.3192  0.2321  0.1253
17008TIP3    H272516   0.143   1.773  12.687  0.8831  1.0719 -0.2795
17009TIP3   OH272517   1.182   6.286  14.406  0.5763  0.1708 -0.4598
17009TIP3    H172518   1.182   6.327  14.493  1.4666 -0.5300 -0.1128
17009TIP3    H272519   1.184   6.192  14.425 -0.1369 -0.0096 -1.2457
17010TIP3   OH272520   0.337   5.857   6.496 -0.2148  0.0440  0.1332
17010TIP3    H172521   0.290   5.940   6.506 -1.1029 -0.2698 -1.2167
17010TIP3    H272522   0.417   5.868   6.548 -1.7407  0.6031  2.5361
17011TIP3   OH272523   6.724   1.579   4.699  0.4415 -0.5836  0.3302
17011TIP3    H172524   6.653   1.619   4.649  0.6466 -0.6571 -0.0247
17011TIP3    H272525   6.789   1.553   4.633  0.8860 -0.3466  0.6613
17012TIP3   OH272526   1.634   6.676  13.215  1.1308  0.1048  0.2046
17012TIP3    H172527   1.557   6.727  13.242  1.0811  0.0973  0.0803
17012TIP3    H272528   1.705   6.707  13.271  0.6313 -1.1974  1.6385
17013TIP3   OH272529   0.777   4.776  11.302  0.0010 -0.2832 -0.2119
17013TIP3    H172530   0.716   4.707  11.327  0.7929 -1.0775 -0.4104
17013TIP3    H272531   0.786   4.829  11.381 -2.4407  1.0572 -0.7226
17014TIP3   OH272532   3.911   1.788  12.067 -0.0591 -0.3226 -0.2607
17014TIP3    H172533   3.948   1.699  12.068 -0.6417 -0.5800  1.1145
17014TIP3    H272534   3.980   1.842  12.105  0.8783  0.1071 -2.4370
17015TIP3   OH272535   5.014   5.687   4.696  0.3704  0.3742 -0.0529
17015TIP3    H172536   5.029   5.741   4.619 -0.8117 -0.1923 -0.7063
17015TIP3    H272537   5.027   5.747   4.770  0.4896  1.1802 -0.7114
17016TIP3   OH272538   1.268   4.113  12.656 -0.5840 -0.5303 -0.3032
17016TIP3    H172539   1.230   4.174  12.719 -0.7097  0.4179 -1.2493
17016TIP3    H272540   1.229   4.028  12.677 -0.4784 -0.2774  0.9874
17017TIP3   OH272541   3.574   2.942   3.851 -0.5538  0.4791  0.2538
17017TIP3    H172542   3.556   2.930   3.945 -0.2437 -2.2507  0.0676
17017TIP3    H272543   3.651   2.887   3.835 -1.1279  0.1934 -1.7413
17018TIP3   OH272544   0.061   3.367  15.248  0.3836  0.3676 -0.4842
17018TIP3    H172545   0.045   3.278  15.280 -0.0938  1.5097  2.8665
17018TIP3    H272546  -0.027   3.404  15.237  0.5948  0.8011 -0.7200
17019TIP3   OH272547   1.803   3.136   5.533 -0.1241 -0.1278  0.3139
17019TIP3    H172548   1.712   3.141   5.563 -0.2946  2.0566 -0.3539
17019TIP3    H272549   1.853   3.116   5.612 -0.7949  3.0528  1.7048
17020TIP3   OH272550   3.441   5.775  16.130  0.2736  0.3887 -0.1548
17020TIP3    H172551   3.509   5.778  16.198 -0.0386 -1.2520  0.2714
17020TIP3    H272552   3.453   5.691  16.087  0.5273  1.4378 -2.2659
17021TIP3   OH272553   2.889   0.623  10.738  0.5294 -0.0599 -0.1031
17021TIP3    H172554   2.839   0.634  10.658  1.1623  3.0367 -0.1917
17021TIP3    H272555   2.823   0.622  10.808  0.0321 -2.0170 -0.5499
17022TIP3   OH272556   0.555   1.983   2.494 -0.1318 -0.0229  0.1203
17022TIP3    H172557   0.584   1.908   2.443 -0.8543  0.3306 -0.8390
17022TIP3    H272558   0.609   2.056   2.463 -0.3700  0.1331  0.0717
17023TIP3   OH272559   5.793   2.793   2.802 -0.0177  0.4971  0.0384
17023TIP3    H172560   5.798   2.863   2.867  2.3260  0.7721 -0.3347
17023TIP3    H272561   5.783   2.713   2.853  0.3799  0.8407  0.6705
17024TIP3   OH272562   5.968   1.553   2.338 -0.6219  0.6590  0.8158
17024TIP3    H172563   5.977   1.481   2.277 -0.6524  0.7951  0.6492
17024TIP3    H272564   5.985   1.515   2.424 -0.4692  0.4920  0.7100
17025TIP3   OH272565   4.344   2.292   4.427 -0.5080 -0.3842  0.1866
17025TIP3    H172566   4.373   2.378   4.398 -1.0150 -0.3856 -0.3330
17025TIP3    H272567   4.413   2.232   4.397 -0.6216 -0.2805 -0.2912
17026TIP3   OH272568   5.967   2.650   2.176  0.2687  0.3956  0.2450
17026TIP3    H172569   5.963   2.683   2.086 -1.3984  1.9768  0.8277
17026TIP3    H272570   6.057   2.666   2.204  0.3799  1.3615 -0.6260
17027TIP3   OH272571   5.523   3.313   2.498 -0.5603  0.1024  0.3583
17027TIP3    H172572   5.511   3.257   2.422 -1.4459  1.2061 -0.3287
17027TIP3    H272573   5.586   3.265   2.553  0.9660 -0.2078 -1.5510
17028TIP3   OH272574   5.707   0.398  13.831  0.2751 -0.6668  0.6757
17028TIP3    H172575   5.766   0.438  13.894 -0.0282 -0.0774  0.5923
17028TIP3    H272576   5.729   0.440  13.748 -0.2840 -0.4164  0.6512
17029TIP3   OH272577   2.861   0.101   1.224 -0.0597  0.0636 -0.1151
17029TIP3    H172578   2.767   0.089   1.236 -0.3416  0.7654 -1.4511
17029TIP3    H272579   2.877   0.193   1.246  0.6570 -0.4780  1.8669
17030TIP3   OH272580   3.001   0.015   2.857  0.2714  0.0932 -0.6445
17030TIP3    H172581   3.026   0.105   2.877 -0.5429  0.1572  0.1238
17030TIP3    H272582   3.074  -0.038   2.889  0.4784  0.4301 -0.5536
17031TIP3   OH272583   0.661   1.019   4.686 -0.4562 -0.0047  0.1227
17031TIP3    H172584   0.593   0.955   4.666  0.9532 -1.2631 -0.7806
17031TIP3    H272585   0.698   1.042   4.601  0.1882  0.7441  0.5928
17032TIP3   OH272586   4.844   1.498   5.013  0.3898 -0.0832 -0.3001
17032TIP3    H172587   4.911   1.452   5.063  1.8725  2.0194 -0.1916
17032TIP3    H272588   4.892   1.565   4.965 -1.4309  0.2367 -1.7949
17033TIP3   OH272589   0.030   4.426  11.879  0.1204 -0.3164  0.2321
17033TIP3    H172590   0.088   4.429  11.802 -1.7703 -0.3961 -1.2738
17033TIP3    H272591   0.032   4.334  11.906  0.8030 -0.2892  0.2987
17034TIP3   OH272592   1.657   5.320  12.972 -0.4568  0.2546  0.0363
17034TIP3    H172593   1.710   5.243  12.952  1.3095  1.2421  0.6953
17034TIP3    H272594   1.569   5.298  12.940  0.3627 -1.3847 -1.2137
17035TIP3   OH272595   1.930   4.544  11.751  0.5842  0.0800 -0.4026
17035TIP3    H172596   1.863   4.555  11.683  0.2169 -2.2257 -0.5017
17035TIP3    H272597   1.908   4.609  11.817 -2.3235 -1.0754 -0.0705
17036TIP3   OH272598   2.332   1.274  12.963  0.1370 -0.1188 -0.3913
17036TIP3    H172599   2.242   1.307  12.971 -0.0313 -0.7395  0.4035
17036TIP3    H272600   2.375   1.304  13.043  0.5303 -0.1654 -0.5838
17037TIP3   OH272601   3.298   6.066  12.119  0.1500 -0.0963  0.1247
17037TIP3    H172602   3.369   6.051  12.182 -0.8776 -0.4792  1.2043
17037TIP3    H272603   3.238   5.994  12.133 -0.6539  0.4378 -0.5226
17038TIP3   OH272604   5.016   2.223   4.227 -0.2404  0.4712 -0.5808
17038TIP3    H172605   5.006   2.298   4.168  0.0016  0.0319 -1.1914
17038TIP3    H272606   5.020   2.147   4.169 -0.6749 -0.0368  0.0443
17039TIP3   OH272607   6.433   5.669  15.065  0.6335 -0.3457 -0.5686
17039TIP3    H172608   6.504   5.634  15.012  1.4442  0.8568 -0.3201
17039TIP3    H272609   6.459   5.760  15.084  0.0470 -0.5114  1.2789
17040TIP3   OH272610   0.257   3.539  17.389  0.4332 -0.2622  0.2930
17040TIP3    H172611   0.297   3.476  17.329 -1.4841  0.1438 -1.5088
17040TIP3    H272612   0.225   3.485  17.462 -0.1056 -1.2410 -0.6345
17041TIP3   OH272613   1.122   5.055  10.482  0.0043  0.0117  0.0051
17041TIP3    H172614   1.030   5.033  10.499 -0.2565 -0.2544 -1.6323
17041TIP3    H272615   1.126   5.150  10.493 -0.5232  0.0585 -0.1920
17042TIP3   OH272616   2.336   0.323  12.831  0.3793  0.0371 -0.1211
17042TIP3    H172617   2.409   0.354  12.885  0.3257  0.4605 -0.2835
17042TIP3    H272618   2.365   0.239  12.797  1.1266  0.5603 -0.8280
17043TIP3   OH272619   1.624   1.482   4.270 -0.3618 -0.1149 -0.4822
17043TIP3    H172620   1.607   1.576   4.265 -0.3342  0.0808  2.0235
17043TIP3    H272621   1.682   1.464   4.196 -1.6495  1.4984 -1.9454
17044TIP3   OH272622   6.003   2.305  15.676  0.2052  0.5095 -0.1894
17044TIP3    H172623   5.976   2.260  15.596 -2.1549  1.6697 -0.1269
17044TIP3    H272624   6.000   2.398  15.654 -0.0283  0.8374  1.1142
17045TIP3   OH272625   2.230   5.204  13.085 -0.0914 -1.0582 -0.0038
17045TIP3    H172626   2.312   5.189  13.038  1.4458  0.6430  1.9379
17045TIP3    H272627   2.187   5.275  13.038 -0.2249 -1.5977 -0.7161
17046TIP3   OH272628   3.138   1.254  17.111  0.2436  0.7141 -0.4885
17046TIP3    H172629   3.220   1.216  17.079 -0.2145 -0.4584 -0.3235
17046TIP3    H272630   3.146   1.347  17.092  1.4528  0.5608 -0.8237
17047TIP3   OH272631   6.213   3.369   2.724 -0.5418 -0.1740  0.5604
17047TIP3    H172632   6.285   3.432   2.719 -0.8389  0.2532  1.4629
17047TIP3    H272633   6.139   3.420   2.757 -1.1020 -0.7396  0.1878
17048TIP3   OH272634   1.075   0.694  13.531 -0.2117 -0.3351  0.1831
17048TIP3    H172635   1.012   0.764  13.513 -0.2544 -0.2042  0.8195
17048TIP3    H272636   1.086   0.695  13.626 -0.8976 -1.7745  0.3082
17049TIP3   OH272637   4.775   2.331  12.917  0.0241  0.0162  0.3203
17049TIP3    H172638   4.859   2.296  12.886  0.3841 -0.9665  2.2316
17049TIP3    H272639   4.714   2.257  12.909  0.1350 -0.2781  1.8824
17050TIP3   OH272640   3.464   5.757   3.811 -0.0285 -0.1823 -0.4764
17050TIP3    H172641   3.527   5.795   3.872  0.3521 -1.4582 -0.0658
17050TIP3    H272642   3.512   5.752   3.728  1.3988 -3.5362  0.3964
17051TIP3   OH272643   1.245   6.122   6.271  0.6494 -1.0336  0.5506
17051TIP3    H172644   1.222   6.032   6.296 -0.9642 -0.8029  0.0016
17051TIP3    H272645   1.198   6.177   6.334 -0.5791 -0.5363 -0.7613
17052TIP3   OH272646   6.041   0.778  12.508 -0.3515  0.2774  0.1313
17052TIP3    H172647   6.037   0.824  12.592  0.1810  1.4406 -0.4583
17052TIP3    H272648   6.011   0.842  12.443 -1.6348 -0.8890 -0.4852
17053TIP3   OH272649   1.822   3.260  15.748 -0.2779 -0.1256 -0.4199
17053TIP3    H172650   1.790   3.331  15.804  1.0410  0.0710  0.1162
17053TIP3    H272651   1.917   3.272  15.746  0.1795 -2.8390  1.0236
17054TIP3   OH272652   1.039   4.508   5.332 -0.4700 -0.2389 -0.1589
17054TIP3    H172653   0.949   4.477   5.343 -1.0002  0.3854 -2.3382
17054TIP3    H272654   1.044   4.587   5.385 -0.6735 -1.1700  1.2986
17055TIP3   OH272655   3.280   0.056   2.018  0.3074 -0.0257  0.5318
17055TIP3    H172656   3.221  -0.006   2.061  0.9932 -0.5978  0.6708
17055TIP3    H272657   3.347   0.001   1.978 -0.8576  0.3796 -2.2252
17056TIP3   OH272658   2.993   2.587   3.011 -0.4010  1.0715 -0.3287
17056TIP3    H172659   2.930   2.592   2.939 -0.0322 -0.1566 -0.7639
17056TIP3    H272660   2.980   2.668   3.059 -0.3747  2.1226 -2.0014
17057TIP3   OH272661   3.949   0.055  17.113 -0.3324 -0.4561 -0.1888
17057TIP3    H172662   3.953   0.143  17.150  0.3699 -0.5713  0.0290
17057TIP3    H272663   3.958  -0.004  17.188 -0.8726 -0.7189 -0.3217
17058TIP3   OH272664   3.540   1.325  13.281  0.1437  0.0297 -0.3212
17058TIP3    H172665   3.474   1.257  13.296 -1.2322  1.4137  0.2341
17058TIP3    H272666   3.587   1.295  13.203 -0.7734 -1.2811 -0.4174
17059TIP3   OH272667   2.056   6.473  13.991 -0.0827  0.3142  0.2330
17059TIP3    H172668   2.141   6.432  14.005  1.1482  2.1617 -1.3197
17059TIP3    H272669   2.006   6.452  14.070  2.3939  0.6021  1.9966
17060TIP3   OH272670   6.024   2.271   5.282 -0.3219 -0.5717 -0.2553
17060TIP3    H172671   5.957   2.254   5.216 -0.2874 -1.8034  0.0020
17060TIP3    H272672   5.986   2.339   5.337 -0.6483 -0.0478 -1.1133
17061TIP3   OH272673   3.149   6.534   4.748  0.6325  0.6063  0.6799
17061TIP3    H172674   3.083   6.481   4.794  0.2356  1.4019  1.0447
17061TIP3    H272675   3.201   6.574   4.818  1.1690  0.4073  0.4008
17062TIP3   OH272676   4.474   3.726  15.712 -0.1553  0.3935  0.0552
17062TIP3    H172677   4.570   3.722  15.707 -0.0304  0.8819  1.5511
17062TIP3    H272678   4.457   3.798  15.773 -1.4308 -1.0185  1.4271
17063TIP3   OH272679   2.661   4.947  11.164  0.2164  0.4041 -0.9080
17063TIP3    H172680   2.745   4.975  11.128  0.6512  0.2408 -0.0332
17063TIP3    H272681   2.625   4.889  11.096  0.8471  0.4010 -1.2499
17064TIP3   OH272682   0.551   0.068   3.423  0.2445 -0.7131  0.0894
17064TIP3    H172683   0.531   0.103   3.336  0.9619  0.8330  0.5103
17064TIP3    H272684   0.467   0.069   3.469  0.2707  0.6730  0.1445
17065TIP3   OH272685   2.504   2.099   1.267  0.1563 -0.1547  0.3725
17065TIP3    H172686   2.520   2.159   1.341  2.9807 -0.5762  0.2219
17065TIP3    H272687   2.575   2.035   1.272 -2.2562 -3.0873  0.0060
17066TIP3   OH272688   5.507   4.392   0.486 -0.8034 -0.1564 -0.0821
17066TIP3    H172689   5.418   4.418   0.509 -0.7519 -0.5137  0.5549
17066TIP3    H272690   5.539   4.347   0.564 -0.2273 -0.4440 -0.4816
17067TIP3   OH272691   4.015   4.973   4.115  0.1096  0.1488 -0.7739
17067TIP3    H172692   4.054   4.930   4.039  1.8207 -0.9386  0.6441
17067TIP3    H272693   3.930   5.004   4.084  0.5138 -0.7375 -2.9569
17068TIP3   OH272694   5.388   4.813  15.415 -0.1072  0.3907 -0.1229
17068TIP3    H172695   5.404   4.807  15.321 -0.5058 -0.1343 -0.1583
17068TIP3    H272696   5.475   4.803  15.454 -0.2312 -1.9840 -0.3343
17069TIP3   OH272697   3.825   2.258  11.099 -0.2292 -0.0065  0.0522
17069TIP3    H172698   3.854   2.324  11.036 -2.1041 -2.1741 -3.3999
17069TIP3    H272699   3.760   2.303  11.153 -1.3298  1.0708 -2.0790
17070TIP3   OH272700   2.164   5.249  15.106 -0.6341  0.1083 -0.0416
17070TIP3    H172701   2.259   5.243  15.115 -0.3765  0.3453 -2.0280
17070TIP3    H272702   2.140   5.172  15.054 -1.4245  0.4400 -0.1827
17071TIP3   OH272703   1.494   4.023  12.472 -0.3532  0.4783  0.4198
17071TIP3    H172704   1.479   3.996  12.562 -1.5252  0.0580  0.1164
17071TIP3    H272705   1.456   4.110  12.466  0.8144  1.0266  0.6306
17072TIP3   OH272706   0.350   2.388   2.591  0.5044  0.1876  0.1259
17072TIP3    H172707   0.355   2.299   2.628 -2.3191 -0.3923 -0.6324
17072TIP3    H272708   0.404   2.441   2.650 -0.7233 -1.3562  2.8648
17073TIP3   OH272709   0.593   3.959   6.156 -0.0193  0.0477  0.2961
17073TIP3    H172710   0.572   3.868   6.176 -0.7354  0.4103  1.2717
17073TIP3    H272711   0.561   4.008   6.231  0.1034  1.1440 -0.3439
17074TIP3   OH272712   1.953   1.987   5.864  0.2448 -0.5219  0.5074
17074TIP3    H172713   1.870   1.941   5.856 -0.8424  0.9379  2.5713
17074TIP3    H272714   2.001   1.941   5.933  1.1353 -1.2583 -0.5599
17075TIP3   OH272715   4.936   5.086  11.720 -0.3101  0.2062  0.3309
17075TIP3    H172716   4.874   5.097  11.647  0.0861 -2.0058 -0.4088
17075TIP3    H272717   4.958   4.993  11.719  3.8017  0.9849 -0.0742
17076TIP3   OH272718   4.626   3.914   0.831 -0.1723 -0.2830 -0.1984
17076TIP3    H172719   4.577   3.968   0.893  0.3108 -0.3384  0.2459
17076TIP3    H272720   4.642   3.971   0.756  0.6431  0.3248  0.4143
17077TIP3   OH272721   2.608   5.641  16.993  0.3210 -0.7176 -0.4612
17077TIP3    H172722   2.610   5.712  17.056 -0.0136 -1.3360  0.2639
17077TIP3    H272723   2.523   5.650  16.949  0.4080 -0.4864 -0.5789
17078TIP3   OH272724   1.533   6.233  13.895  0.0499  0.1030  0.7433
17078TIP3    H172725   1.573   6.317  13.914  0.8990 -0.1404  0.0815
17078TIP3    H272726   1.439   6.250  13.899  0.2020  1.3055 -0.3268
17079TIP3   OH272727   4.152   3.644  16.116  0.0614 -0.0604 -0.5650
17079TIP3    H172728   4.221   3.602  16.063 -0.5681  1.1695 -2.4797
17079TIP3    H272729   4.140   3.729  16.075 -1.1867  0.5662  1.0198
17080TIP3   OH272730   6.196   3.247  14.566  0.3502  0.1579  0.3882
17080TIP3    H172731   6.246   3.295  14.630  0.1396  1.5391 -0.4480
17080TIP3    H272732   6.261   3.212  14.505  0.3647  2.3348 -0.9609
17081TIP3   OH272733   1.229   6.281  13.602  0.1070 -0.3283 -0.0949
17081TIP3    H172734   1.296   6.277  13.534 -0.5196 -0.1183 -0.7404
17081TIP3    H272735   1.234   6.196  13.645  0.3421 -0.5657 -0.5781
17082TIP3   OH272736   3.322   4.150   1.147 -0.8558  0.2807  0.1028
17082TIP3    H172737   3.298   4.060   1.126 -0.8864  0.3331 -0.0925
17082TIP3    H272738   3.410   4.144   1.184 -0.8062  0.1825 -0.0294
17083TIP3   OH272739   3.452   6.249   3.809 -0.4578  0.2927  0.1826
17083TIP3    H172740   3.416   6.200   3.883  1.0568  2.3787  2.4678
17083TIP3    H272741   3.376   6.293   3.771 -1.0347  0.8409  1.8630
17084TIP3   OH272742   2.909   6.660  17.041 -0.8300 -0.7180  0.3676
17084TIP3    H172743   2.930   6.726  17.107 -0.8598  0.3643 -0.6639
17084TIP3    H272744   2.847   6.601  17.084 -0.3967 -0.3705  1.4811
17085TIP3   OH272745   2.967   6.042  17.100 -0.2562  0.5764  0.0162
17085TIP3    H172746   3.027   5.988  17.048 -0.4715 -1.1109  1.4080
17085TIP3    H272747   2.998   6.131  17.088  2.2316 -0.1822  0.2544
17086TIP3   OH272748   1.350   3.390   2.163  0.2514  0.0673  0.0117
17086TIP3    H172749   1.404   3.314   2.140 -1.4900 -1.0841 -0.4991
17086TIP3    H272750   1.345   3.388   2.258 -0.3686 -0.9010 -0.0344
17087TIP3   OH272751   5.647   2.930   1.079  0.1825 -0.3240 -0.0279
17087TIP3    H172752   5.558   2.961   1.059  0.9839  2.3664  0.1543
17087TIP3    H272753   5.654   2.939   1.174  0.1244 -2.1721  0.1755
17088TIP3   OH272754   4.501   2.086   2.812  0.3500  0.4879  0.0002
17088TIP3    H172755   4.445   2.045   2.878  1.3072 -1.0709 -0.0933
17088TIP3    H272756   4.586   2.096   2.855  1.4578 -1.9810 -1.3264
17089TIP3   OH272757   1.652   2.464  12.987 -0.0047 -0.0868 -0.1158
17089TIP3    H172758   1.746   2.452  12.975  0.2279 -0.8589  2.0062
17089TIP3    H272759   1.645   2.544  13.039 -0.6239  0.6419 -1.2913
17090TIP3   OH272760   1.511   1.396   2.118  0.1252 -0.3559 -0.8103
17090TIP3    H172761   1.563   1.368   2.042  0.7778 -1.1928 -0.0689
17090TIP3    H272762   1.539   1.486   2.134  0.3632 -0.3486 -1.2386
17091TIP3   OH272763   6.752   2.586   3.551 -0.2554 -0.2466 -0.0761
17091TIP3    H172764   6.704   2.513   3.591 -0.0038 -0.4118 -0.0731
17091TIP3    H272765   6.690   2.623   3.488 -0.7802  0.2406  0.7162
17092TIP3   OH272766   4.509   4.053  16.166  0.0136 -0.2157  0.1615
17092TIP3    H172767   4.437   4.039  16.229  0.6123 -0.7797  0.7281
17092TIP3    H272768   4.559   4.125  16.204  0.7718 -1.0056  0.7150
17093TIP3   OH272769   1.688   3.622  11.725 -0.1067 -0.2173 -0.0900
17093TIP3    H172770   1.772   3.645  11.685 -0.6040 -0.2705 -1.2205
17093TIP3    H272771   1.695   3.528  11.744 -1.2696 -1.2848 -3.9512
17094TIP3   OH272772   1.371   0.561   5.974 -0.2268  0.2239  0.1024
17094TIP3    H172773   1.364   0.655   5.957  0.5236 -0.0088 -1.6396
17094TIP3    H272774   1.437   0.553   6.043  0.8362  0.8993 -0.8150
17095TIP3   OH272775   5.088   1.081  16.497 -0.2599 -0.7828 -0.2049
17095TIP3    H172776   5.032   1.123  16.431  1.0905  0.3913 -0.6716
17095TIP3    H272777   5.081   0.987  16.479  0.8210 -0.4739 -2.7291
17096TIP3   OH272778   4.259   4.903   3.152 -0.1486 -1.2774  0.3839
17096TIP3    H172779   4.332   4.858   3.110 -0.1928  0.3397 -1.5896
17096TIP3    H272780   4.199   4.923   3.081 -1.2007 -0.1404  1.5385
17097TIP3   OH272781   6.136   2.457   1.054 -0.4190  0.2177 -0.0533
17097TIP3    H172782   6.079   2.533   1.037  1.1334  1.4078 -0.2133
17097TIP3    H272783   6.202   2.490   1.116 -1.2887 -1.8073  2.1002
17098TIP3   OH272784   4.455   6.642   3.188  0.0864 -0.5416 -0.6552
17098TIP3    H172785   4.368   6.606   3.203  0.0387 -0.1856 -0.0530
17098TIP3    H272786   4.481   6.680   3.272  0.1415  0.8003 -1.2472
17099TIP3   OH272787   0.582   4.634   4.546 -0.1155 -0.1758 -0.2586
17099TIP3    H172788   0.496   4.673   4.529 -0.6284 -0.5075  1.4585
17099TIP3    H272789   0.626   4.696   4.604 -0.0831 -1.0671  0.6993
17100TIP3   OH272790   2.593   0.783   1.945  1.0390 -0.6477 -0.1106
17100TIP3    H172791   2.555   0.784   2.033  0.3506  1.2661 -0.3718
17100TIP3    H272792   2.688   0.779   1.960  0.9981  0.9203  0.7907
17101TIP3   OH272793   1.787   5.391   1.808  0.5099  0.4941  0.3128
17101TIP3    H172794   1.867   5.372   1.760 -0.6958 -1.3497 -1.0906
17101TIP3    H272795   1.802   5.353   1.895  1.2139  0.3443  0.1301
17102TIP3   OH272796   0.356   4.417   4.739 -0.4390  0.2155  0.0926
17102TIP3    H172797   0.322   4.484   4.680 -1.6364  0.5367  1.1108
17102TIP3    H272798   0.450   4.435   4.744 -0.1915 -0.1644 -2.1142
17103TIP3   OH272799   2.158   4.376  10.370 -0.1753  0.1840  0.4005
17103TIP3    H172800   2.151   4.449  10.431  0.5181  1.1649 -0.6404
17103TIP3    H272801   2.104   4.402  10.295  1.5381  0.5272 -0.7835
17104TIP3   OH272802   3.304   2.610   1.626  0.4675  0.7400 -0.7642
17104TIP3    H172803   3.215   2.646   1.619  0.5051  0.6017 -2.2837
17104TIP3    H272804   3.340   2.652   1.704 -1.2254  0.1262  0.4125
17105TIP3   OH272805   2.127   6.578   3.283 -0.1527 -0.1727 -0.3560
17105TIP3    H172806   2.170   6.614   3.205 -0.6584 -0.5169 -0.8008
17105TIP3    H272807   2.140   6.644   3.351  0.6060 -0.0362 -0.6370
17106TIP3   OH272808   5.049   4.747  17.165  1.0370  0.5689  0.1335
17106TIP3    H172809   5.113   4.681  17.142  1.6200  1.2262 -0.1687
17106TIP3    H272810   4.968   4.717  17.124  1.5578  0.6138 -0.9671
17107TIP3   OH272811   2.671   5.769  15.317  0.3382 -0.0473  0.3032
17107TIP3    H172812   2.652   5.728  15.401  1.0337 -1.9968 -0.4454
17107TIP3    H272813   2.701   5.857  15.340  0.8119 -0.6348  2.1063
17108TIP3   OH272814   0.299   1.282   3.678 -0.0443 -0.8190 -0.4490
17108TIP3    H172815   0.324   1.346   3.745  0.2143 -1.8300  0.4513
17108TIP3    H272816   0.240   1.330   3.620  0.8823  0.4892 -0.3393
17109TIP3   OH272817   0.651   4.180   4.226  0.1811  0.1194  0.3497
17109TIP3    H172818   0.622   4.271   4.218  1.8155  0.5755 -0.9627
17109TIP3    H272819   0.622   4.138   4.145  2.9010  0.5762 -0.9845
17110TIP3   OH272820   6.196   4.623   5.422  0.0983 -0.0406 -0.6458
17110TIP3    H172821   6.139   4.602   5.349  0.0205  1.2979 -0.9929
17110TIP3    H272822   6.284   4.626   5.385 -0.0601  1.7053 -0.9399
17111TIP3   OH272823   3.614   5.293   4.062 -0.1321 -0.7108  0.2738
17111TIP3    H172824   3.674   5.317   4.133  0.7073 -0.6674 -0.4374
17111TIP3    H272825   3.533   5.341   4.082  0.4003  0.0293  0.6971
17112TIP3   OH272826   5.765   6.215   4.709  0.6214 -0.3506 -0.3234
17112TIP3    H172827   5.815   6.169   4.642  0.2058 -1.6353  0.2165
17112TIP3    H272828   5.710   6.148   4.749 -1.8689  1.0267 -1.1418
17113TIP3   OH272829   4.435   3.456  11.901 -0.1735 -0.3264  0.3042
17113TIP3    H172830   4.398   3.370  11.881 -0.1421 -0.1823 -0.3953
17113TIP3    H272831   4.444   3.499  11.815 -0.9648  0.6948  0.7125
17114TIP3   OH272832   1.348   1.575   0.862  0.5205 -0.5392  0.7599
17114TIP3    H172833   1.417   1.632   0.827 -0.2068 -0.1936 -0.1454
17114TIP3    H272834   1.383   1.486   0.853  0.2269 -0.4874 -1.1875
17115TIP3   OH272835   1.744   3.873   4.976 -0.4133 -0.4593  0.2072
17115TIP3    H172836   1.705   3.863   5.063  0.5556  0.9268  0.8446
17115TIP3    H272837   1.719   3.960   4.948  1.4757  0.1622  0.2913
17116TIP3   OH272838   2.231   3.138   0.623  0.2498  0.3412  0.3981
17116TIP3    H172839   2.183   3.149   0.705  1.4580  1.2079  1.0054
17116TIP3    H272840   2.173   3.084   0.569 -0.9966  0.5891  1.4439
17117TIP3   OH272841   1.672   3.792   5.751  0.1445  0.9567 -0.0492
17117TIP3    H172842   1.736   3.854   5.715  0.8802  0.3864  0.2446
17117TIP3    H272843   1.717   3.753   5.826  0.1364 -0.7647 -0.9025
17118TIP3   OH272844   2.979   1.725  14.051  0.0567 -0.7232  0.0781
17118TIP3    H172845   3.011   1.680  13.972 -0.4014 -0.5998 -0.1868
17118TIP3    H272846   3.055   1.773  14.084 -0.1295  0.5321 -1.2206
17119TIP3   OH272847   3.910   5.140   0.909 -0.2657 -0.0174 -0.0285
17119TIP3    H172848   3.934   5.064   0.962 -1.3396 -0.3332  0.0381
17119TIP3    H272849   3.893   5.210   0.972 -2.5926 -0.6860  0.1848
17120TIP3   OH272850   5.146   6.363  16.558 -0.1446  0.1098 -0.4872
17120TIP3    H172851   5.062   6.355  16.602  0.6485 -0.4295  1.0035
17120TIP3    H272852   5.178   6.450  16.582 -0.0857  0.1433 -0.6887
17121TIP3   OH272853   3.153   0.353   1.407  0.5398 -0.8913  0.0152
17121TIP3    H172854   3.228   0.344   1.349  1.0330 -0.8862  0.6418
17121TIP3    H272855   3.174   0.428   1.463 -0.0099 -0.7789  0.0779
17122TIP3   OH272856   1.760   2.305  12.335 -0.3683 -0.0826 -0.2113
17122TIP3    H172857   1.794   2.347  12.414 -2.3213  2.2356 -0.4815
17122TIP3    H272858   1.795   2.358  12.263 -1.4122 -0.0109 -0.6792
17123TIP3   OH272859   1.142   3.661   3.116 -0.0212 -0.1938 -0.1244
17123TIP3    H172860   1.125   3.692   3.204 -1.2736 -0.1721 -0.3597
17123TIP3    H272861   1.057   3.665   3.072  0.5048 -0.5722 -1.2143
17124TIP3   OH272862   5.252   3.894  12.344  0.3519 -0.2646  0.1861
17124TIP3    H172863   5.222   3.823  12.401  1.2678 -0.4069  0.5046
17124TIP3    H272864   5.345   3.876  12.330  0.8935  1.4840  1.1985
17125TIP3   OH272865   0.011   4.858   4.561 -0.3781 -0.0430 -0.8115
17125TIP3    H172866   0.048   4.860   4.649 -0.1918  2.3823 -0.8818
17125TIP3    H272867  -0.073   4.813   4.571  0.1460 -0.7954  0.3742
17126TIP3   OH272868   6.295   5.259   6.264  0.0583  0.1536 -0.6808
17126TIP3    H172869   6.286   5.200   6.339  1.5842  1.0076  0.2226
17126TIP3    H272870   6.224   5.323   6.275  0.0372  0.0476 -0.1698
17127TIP3   OH272871   1.699   5.332   5.270  0.5296 -0.6635 -0.0601
17127TIP3    H172872   1.724   5.246   5.304  2.0048 -1.5311 -3.0523
17127TIP3    H272873   1.606   5.324   5.250  0.3373 -1.0682  0.8990
17128TIP3   OH272874   2.481   1.876   0.313  0.5061  0.4594  0.3842
17128TIP3    H172875   2.435   1.863   0.396  1.2128  1.2131  0.9064
17128TIP3    H272876   2.455   1.801   0.260  0.0016 -0.0103  1.2655
17129TIP3   OH272877   4.489   1.810   1.763 -0.5579 -0.1166  0.0573
17129TIP3    H172878   4.502   1.904   1.749  0.0137 -0.2309 -0.2013
17129TIP3    H272879   4.544   1.789   1.839  0.0311 -0.4160 -0.4439
17130TIP3   OH272880   2.520   0.986  15.888 -0.4347  0.4631 -0.3172
17130TIP3    H172881   2.609   1.020  15.893 -0.1934 -0.1557 -0.3838
17130TIP3    H272882   2.504   0.977  15.794 -1.0272  1.7586 -0.3606
17131TIP3   OH272883   2.129   0.693   3.748  0.5068 -0.2608 -0.2463
17131TIP3    H172884   2.160   0.604   3.762  0.5451 -0.2820 -0.4752
17131TIP3    H272885   2.177   0.724   3.672 -1.3874 -0.9439 -1.7928
17132TIP3   OH272886   3.176   4.343  17.100  0.1428 -0.6036  0.4986
17132TIP3    H172887   3.134   4.395  17.168 -1.4020 -0.3660 -0.5837
17132TIP3    H272888   3.105   4.291  17.063  0.9123 -0.6094 -1.0255
17133TIP3   OH272889   4.545   5.943  13.393 -0.1985 -0.9560 -0.0250
17133TIP3    H172890   4.503   5.947  13.479 -0.1848 -1.6558  0.0225
17133TIP3    H272891   4.588   5.858  13.392 -0.9177 -1.3231 -1.0518
17134TIP3   OH272892   2.773   1.260   0.847 -0.2570 -0.2934  0.0731
17134TIP3    H172893   2.678   1.244   0.853 -0.1428 -1.2120 -0.3498
17134TIP3    H272894   2.799   1.213   0.768  0.7798 -1.1338  0.8906
17135TIP3   OH272895   1.476   1.928   5.179  0.3687  0.0650 -0.1266
17135TIP3    H172896   1.559   1.924   5.132  1.8180  0.9698  2.1649
17135TIP3    H272897   1.431   2.004   5.142  0.6682 -0.2626 -1.2054
17136TIP3   OH272898   4.867   1.918   0.949  0.1302 -0.3877 -0.7368
17136TIP3    H172899   4.787   1.873   0.922 -0.5986 -0.4032  1.2809
17136TIP3    H272900   4.846   2.011   0.943  0.8334 -0.3123 -2.5906
17137TIP3   OH272901   2.071   5.796   4.250 -0.3777 -0.4263  0.6496
17137TIP3    H172902   1.989   5.842   4.268 -0.5594 -0.9443  1.1813
17137TIP3    H272903   2.102   5.834   4.168 -0.9636  0.0305  0.6298
17138TIP3   OH272904   0.113   2.782  11.949  0.4144 -0.2847  0.6126
17138TIP3    H172905   0.173   2.752  12.017  0.7599  0.3469  0.5949
17138TIP3    H272906   0.149   2.866  11.921 -0.0662 -0.2517  0.0779
17139TIP3   OH272907   4.307   0.506   0.180 -0.3034 -0.2491 -0.4630
17139TIP3    H172908   4.236   0.519   0.117 -0.0485 -0.6804 -0.8421
17139TIP3    H272909   4.308   0.412   0.196  1.7678 -0.6314 -2.3425
17140TIP3   OH272910   5.959   0.603  15.788  0.0726 -0.9817 -0.1038
17140TIP3    H172911   5.888   0.623  15.726  0.2831 -1.3037 -0.4575
17140TIP3    H272912   6.027   0.666  15.767  1.2644 -2.7879 -2.1042
17141TIP3   OH272913   4.732   6.480   1.211 -0.3157  0.0157 -0.0264
17141TIP3    H172914   4.657   6.438   1.168  0.3393 -1.7710  0.5357
17141TIP3    H272915   4.694   6.559   1.250 -2.1499 -1.2949  1.0374
17142TIP3   OH272916   1.040   1.753  13.605  0.3278  0.6291  0.5380
17142TIP3    H172917   0.968   1.743  13.542  1.4560  1.9006 -1.0108
17142TIP3    H272918   1.074   1.664  13.616 -1.2625  0.0402  1.0917
17143TIP3   OH272919   2.875   0.761   0.873  0.2395 -0.6553  0.1393
17143TIP3    H172920   2.919   0.710   0.940  1.3434 -1.0669 -0.8556
17143TIP3    H272921   2.930   0.839   0.861  0.2203 -0.7254 -0.4745
17144TIP3   OH272922   1.732   5.133   2.347  0.4407  0.4512 -0.7986
17144TIP3    H172923   1.810   5.160   2.395 -0.2986  0.3294  0.5122
17144TIP3    H272924   1.694   5.216   2.315  0.4744  0.6177 -0.4168
17145TIP3   OH272925   2.739   1.562   5.993 -0.4551 -0.0759  0.1202
17145TIP3    H172926   2.834   1.551   5.981 -0.8627 -2.7146 -1.4027
17145TIP3    H272927   2.708   1.595   5.908 -0.9052  1.2074  0.7516
17146TIP3   OH272928   3.444   0.620   6.359  0.2078  0.4829  0.0424
17146TIP3    H172929   3.384   0.566   6.308  1.2686 -0.1568 -0.5696
17146TIP3    H272930   3.388   0.668   6.420 -0.7648 -1.5193  0.8258
17147TIP3   OH272931   5.096   0.403  14.990 -0.3429  0.8282  0.9137
17147TIP3    H172932   5.110   0.357  15.072  1.2545  0.8245  0.6743
17147TIP3    H272933   5.101   0.496  15.013  1.0332  0.8299  0.7204
17148TIP3   OH272934   1.772   1.006   1.418 -0.0210  0.1803  0.6527
17148TIP3    H172935   1.764   1.089   1.371 -1.3317  0.8522  1.9906
17148TIP3    H272936   1.816   0.948   1.356 -1.8198  0.9592 -1.4885
17149TIP3   OH272937   0.714   6.681  11.065  0.6556  0.1276 -0.5219
17149TIP3    H172938   0.689   6.773  11.071 -0.3766 -0.1321 -0.5570
17149TIP3    H272939   0.763   6.675  10.983 -0.5511  0.3911 -1.2988
17150TIP3   OH272940   1.183   1.480  12.915  0.1506  0.1270  0.0474
17150TIP3    H172941   1.127   1.558  12.911 -0.1578 -0.0591  0.5777
17150TIP3    H272942   1.271   1.512  12.898 -0.1756  0.3371 -1.4210
17151TIP3   OH272943   6.707   1.151   6.077  0.1666  0.0783  0.3294
17151TIP3    H172944   6.612   1.139   6.070  0.1217  0.4436  0.2896
17151TIP3    H272945   6.720   1.192   6.162  0.3381 -0.4418  0.5601
17152TIP3   OH272946   5.360   1.451   5.158  0.3315  0.3339 -0.3584
17152TIP3    H172947   5.424   1.381   5.166  0.3570  0.2516 -1.2785
17152TIP3    H272948   5.404   1.527   5.197  0.3574 -0.1077  0.5041
17153TIP3   OH272949   3.577   5.860  12.978 -0.0572 -0.6078  0.5484
17153TIP3    H172950   3.515   5.824  12.915 -0.1653  0.2535  0.1479
17153TIP3    H272951   3.635   5.916  12.925 -0.1063  0.0722  1.1976
17154TIP3   OH272952   1.222   3.496  14.793  0.1626  0.1951 -0.0500
17154TIP3    H172953   1.216   3.583  14.753 -0.8865  0.4924  0.7266
17154TIP3    H272954   1.283   3.508  14.867 -0.1737  0.3276  0.2060
17155TIP3   OH272955   2.777   2.611   1.081 -0.3183  0.1445  0.1628
17155TIP3    H172956   2.741   2.584   1.165  0.7444 -2.5388 -0.1454
17155TIP3    H272957   2.766   2.534   1.025 -0.2819  1.5984 -1.9507
17156TIP3   OH272958   1.881   2.526   2.081  0.0342 -0.1254  0.2143
17156TIP3    H172959   1.835   2.442   2.079 -0.6465  0.2249 -1.9286
17156TIP3    H272960   1.952   2.514   2.144 -0.9426 -1.8083  1.0533
17157TIP3   OH272961   4.853   6.429   0.954  0.2595  0.2695 -0.2419
17157TIP3    H172962   4.814   6.430   1.042  1.6274 -0.1546  0.3961
17157TIP3    H272963   4.858   6.521   0.929 -0.0683  0.4024  0.1692
17158TIP3   OH272964   6.475   4.363   1.299 -0.5677 -0.0097  0.4921
17158TIP3    H172965   6.397   4.377   1.245  0.6359  1.2092 -1.0458
17158TIP3    H272966   6.443   4.316   1.376 -3.0777  1.7823  0.6764
17159TIP3   OH272967   5.423   4.404   2.630 -0.0512 -0.2017  0.7002
17159TIP3    H172968   5.443   4.382   2.539 -1.2624  0.2385  0.3135
17159TIP3    H272969   5.331   4.381   2.641  0.1577 -0.5437  1.9143
17160TIP3   OH272970   2.643   0.971   2.641 -0.3746  0.2129  0.0470
17160TIP3    H172971   2.724   0.920   2.633 -0.8465 -0.9270  1.8649
17160TIP3    H272972   2.667   1.058   2.610  0.7857 -0.7755 -2.0236
17161TIP3   OH272973   0.349   3.653   4.063 -0.0447  0.4228  0.3608
17161TIP3    H172974   0.312   3.674   4.149  0.2764  1.4333  0.2656
17161TIP3    H272975   0.361   3.558   4.064 -1.4746  0.2207  0.8619
17162TIP3   OH272976   5.042   0.642   4.268  0.1841  0.8327  0.3537
17162TIP3    H172977   4.958   0.602   4.293  0.2142 -0.5530 -1.5177
17162TIP3    H272978   5.018   0.723   4.223 -0.0781  1.0271  0.8342
17163TIP3   OH272979   0.916   6.126   2.614  0.6860  0.4174  0.1391
17163TIP3    H172980   0.855   6.161   2.679 -1.3513 -0.2402 -1.3219
17163TIP3    H272981   0.875   6.046   2.582  1.8961  0.3940 -1.5322
17164TIP3   OH272982   1.196   2.449  13.998 -0.5311 -0.2698  0.1350
17164TIP3    H172983   1.271   2.459  14.057 -1.3905  0.4038  1.1254
17164TIP3    H272984   1.120   2.465  14.052 -1.3554  0.3590 -1.1691
17165TIP3   OH272985   4.085   4.311  10.470  0.1369 -0.1043  0.5988
17165TIP3    H172986   4.064   4.405  10.471 -1.3970 -0.4041  1.4461
17165TIP3    H272987   4.029   4.275  10.401  1.1612 -0.3181 -0.1292
17166TIP3   OH272988   2.813   2.397  11.781 -0.3053  0.1695 -0.0184
17166TIP3    H172989   2.820   2.487  11.812  0.1720 -0.3077  1.2984
17166TIP3    H272990   2.727   2.369  11.812 -0.1267 -0.0802  0.2480
17167TIP3   OH272991   6.480   6.195  13.911 -0.7619  0.6475  0.5143
17167TIP3    H172992   6.386   6.180  13.898 -0.6285 -0.3002  0.5709
17167TIP3    H272993   6.516   6.200  13.822 -0.7440  0.1546  0.4901
17168TIP3   OH272994   2.363   6.635   1.412  0.3337 -0.3785 -0.6558
17168TIP3    H172995   2.418   6.710   1.434 -1.5746  0.5112  1.4657
17168TIP3    H272996   2.303   6.668   1.345  0.6519 -0.5577 -1.0316
17169TIP3   OH272997   0.096   0.794  16.129 -0.0371  0.9215 -0.0623
17169TIP3    H172998   0.096   0.885  16.157 -2.5267  1.1283 -0.4878
17169TIP3    H272999   0.005   0.765  16.141  0.4459 -1.1741 -0.9651
17170TIP3   OH273000   3.282   4.039   2.115 -0.1289  0.3984 -0.0889
17170TIP3    H173001   3.364   4.017   2.071 -0.9045 -1.1893 -0.8375
17170TIP3    H273002   3.307   4.098   2.186  1.3927  1.5967 -1.5491
17171TIP3   OH273003   4.218   0.387   5.342  0.5521 -0.2835  0.4070
17171TIP3    H173004   4.247   0.478   5.356  1.2124 -0.3878 -0.2273
17171TIP3    H273005   4.124   0.393   5.330  0.3831  0.1617  1.7269
17172TIP3   OH273006   3.299   3.905  14.278 -0.0515  0.1352 -0.2146
17172TIP3    H173007   3.240   3.979  14.294  1.5494  1.3199  0.4929
17172TIP3    H273008   3.307   3.902  14.182 -0.4534  0.5910 -0.2676
17173TIP3   OH273009   1.571   3.431  15.430  0.0369  0.3351  0.3275
17173TIP3    H173010   1.476   3.438  15.446 -0.0007 -2.0207  1.5066
17173TIP3    H273011   1.608   3.507  15.475 -1.1344  0.0367  1.8900
17174TIP3   OH273012   4.137   4.040  13.160  0.2096 -0.3636 -0.0807
17174TIP3    H173013   4.076   4.104  13.124  1.4223  0.1383 -1.2906
17174TIP3    H273014   4.094   3.956  13.147 -0.3816  0.0133 -0.6081
17175TIP3   OH273015   1.690   6.205  13.665 -0.6448  0.3651  0.2450
17175TIP3    H173016   1.612   6.217  13.719 -0.8715  2.4406 -0.4510
17175TIP3    H273017   1.759   6.183  13.727 -1.3888  0.2862  1.0689
17176TIP3   OH273018   3.583   0.543   2.920  0.4234 -0.2656  0.2254
17176TIP3    H173019   3.624   0.456   2.918 -0.6056 -0.7629 -1.4246
17176TIP3    H273020   3.639   0.594   2.979  1.0343 -2.0360  1.2708
17177TIP3   OH273021   0.807   5.467  13.430  0.2282 -0.3458  0.2775
17177TIP3    H173022   0.868   5.393  13.439 -0.2444 -0.6532  1.0368
17177TIP3    H273023   0.724   5.433  13.463  0.1311  0.6935  1.1154
17178TIP3   OH273024   5.412   0.145   0.712  0.0087  0.2650 -0.5652
17178TIP3    H173025   5.470   0.069   0.720  1.4360  1.5136  2.7983
17178TIP3    H273026   5.458   0.204   0.653  1.0841  0.2996  0.2849
17179TIP3   OH273027   4.085   4.780  12.566  0.3606 -0.2247 -0.0215
17179TIP3    H173028   4.002   4.737  12.545  0.6159 -0.0783 -1.4342
17179TIP3    H273029   4.149   4.741  12.505  1.3441 -0.3779  1.0806
17180TIP3   OH273030   3.709   2.241   4.880 -0.2385  0.3873 -0.1236
17180TIP3    H173031   3.637   2.298   4.853 -1.4871 -1.1708 -0.2303
17180TIP3    H273032   3.707   2.244   4.976 -0.1561  0.6866 -0.1302
17181TIP3   OH273033   5.861   1.290  15.780 -0.3974 -0.0134  0.0482
17181TIP3    H173034   5.905   1.369  15.811  1.7052 -1.4408  0.8845
17181TIP3    H273035   5.797   1.270  15.848 -1.9394  1.6582 -0.8186
17182TIP3   OH273036   2.788   0.635  15.368  0.1488  0.2394  0.7548
17182TIP3    H173037   2.820   0.708  15.422 -1.1629  2.7758 -1.6177
17182TIP3    H273038   2.850   0.631  15.295 -1.0208  0.5772 -0.3001
17183TIP3   OH273039   1.464   6.240  16.972  0.1692  0.6462 -0.6976
17183TIP3    H173040   1.515   6.168  17.007 -0.6613  0.6283  0.5324
17183TIP3    H273041   1.392   6.199  16.925 -0.3052  0.6637  0.0055
17184TIP3   OH273042   6.482   4.554  12.762  0.2909  0.0632  0.3363
17184TIP3    H173043   6.403   4.523  12.717  0.0143  0.5344  0.4903
17184TIP3    H273044   6.538   4.587  12.692 -0.4414  1.4630  0.3872
17185TIP3   OH273045   0.475   3.116   6.401 -0.0070 -0.1568  0.3601
17185TIP3    H173046   0.516   3.151   6.480 -0.8142  0.6980  0.4117
17185TIP3    H273047   0.410   3.181   6.376  0.2568 -0.3934 -1.0357
17186TIP3   OH273048   1.051   3.275  16.121  0.6302 -0.2153  0.1134
17186TIP3    H173049   1.066   3.361  16.162  1.7475 -0.6189  0.5852
17186TIP3    H273050   1.136   3.249  16.087  0.0015 -0.5142 -1.3097
17187TIP3   OH273051   2.250   5.547   2.105  0.3759  0.2005  0.4023
17187TIP3    H173052   2.290   5.629   2.073  1.0647 -0.4645 -0.5067
17187TIP3    H273053   2.176   5.576   2.158 -0.9881  1.4312 -1.9669
17188TIP3   OH273054   2.120   2.050   2.372 -0.4718  0.2728  0.4116
17188TIP3    H173055   2.097   2.060   2.465  0.7942  0.6400  0.7025
17188TIP3    H273056   2.057   2.105   2.326 -1.4987 -0.3714  0.9788
17189TIP3   OH273057   4.389   4.478  12.180 -0.3450  0.1469  0.4594
17189TIP3    H173058   4.475   4.485  12.223 -0.1819 -0.3974  0.2257
17189TIP3    H273059   4.389   4.550  12.116  0.3334 -0.4312 -0.2136
17190TIP3   OH273060   0.198   3.316  17.066 -0.2186  0.6244  0.0756
17190TIP3    H173061   0.248   3.283  16.992 -0.3066  1.1297 -0.2149
17190TIP3    H273062   0.196   3.411  17.054  0.6512  0.8123  1.2804
17191TIP3   OH273063   2.171   1.938  16.344 -0.2674  0.2846 -0.0371
17191TIP3    H173064   2.076   1.952  16.345 -0.3378 -0.1188 -0.5447
17191TIP3    H273065   2.185   1.877  16.272  0.3381  0.0372  0.2825
17192TIP3   OH273066   0.875   2.553   1.493  0.1549 -0.0461  0.3904
17192TIP3    H173067   0.935   2.489   1.453  0.4411  0.4648 -0.0048
17192TIP3    H273068   0.807   2.499   1.533 -1.3042 -0.5833 -2.5396
17193TIP3   OH273069   4.455   1.388  13.385 -0.3433 -0.3792  0.5239
17193TIP3    H173070   4.501   1.393  13.468 -0.2308 -1.4546  0.5368
17193TIP3    H273071   4.513   1.433  13.323 -0.7779  1.0977  1.1536
17194TIP3   OH273072   4.317   1.447   4.120 -1.1124  0.0773 -0.4016
17194TIP3    H173073   4.303   1.541   4.123  0.1517  0.3236 -1.1613
17194TIP3    H273074   4.341   1.423   4.210  2.0884  1.1578 -0.8220
17195TIP3   OH273075   5.085   1.188   2.879 -0.1669 -0.3077 -0.2120
17195TIP3    H173076   5.021   1.249   2.914 -1.3794 -1.7315  0.1807
17195TIP3    H273077   5.094   1.213   2.787  0.8727  1.6600  0.3765
17196TIP3   OH273078   5.106   5.899   0.801  0.3294 -0.7817 -0.2409
17196TIP3    H173079   5.032   5.839   0.798 -1.0475  0.8836 -0.6482
17196TIP3    H273080   5.080   5.969   0.860  1.2261  0.2599 -1.0125
17197TIP3   OH273081   2.735   2.329  13.217  0.0281  0.3899 -0.4957
17197TIP3    H173082   2.646   2.298  13.232  0.5859 -1.6709 -1.0611
17197TIP3    H273083   2.791   2.256  13.244  1.3719  0.0558 -3.6756
17198TIP3   OH273084   2.447   3.510   3.375  0.8556  0.4791  0.6767
17198TIP3    H173085   2.411   3.553   3.453  0.0227  0.7261  0.1686
17198TIP3    H273086   2.389   3.434   3.361  0.7662  0.6498  0.0870
17199TIP3   OH273087   0.802   3.636   0.063 -0.5433  0.2567  0.4953
17199TIP3    H173088   0.828   3.638   0.155  1.7286  0.5699 -0.1136
17199TIP3    H273089   0.715   3.595   0.064 -0.5753  0.2723  2.7603
17200TIP3   OH273090   0.697   4.569   1.576 -0.2101 -0.3698  0.9132
17200TIP3    H173091   0.606   4.586   1.602 -1.3478 -1.1666 -2.0513
17200TIP3    H273092   0.731   4.509   1.642 -1.7205  0.2207  2.2838
17201TIP3   OH273093   5.784   2.826  14.503  0.0951 -0.1736 -0.3598
17201TIP3    H173094   5.726   2.757  14.468 -1.6232 -0.3449  2.5211
17201TIP3    H273095   5.842   2.780  14.564 -0.3633  0.7332  0.7944
17202TIP3   OH273096   4.305   0.933   4.178 -0.0764  0.5285  0.6644
17202TIP3    H173097   4.290   0.839   4.163 -2.5297  0.5641  2.3267
17202TIP3    H273098   4.308   0.971   4.090 -0.5304 -0.9153 -0.0104
17203TIP3   OH273099   5.062   0.958   2.655  0.0266 -0.2127  0.6051
17203TIP3    H173100   4.972   0.954   2.689 -0.1700  1.0603  0.2922
17203TIP3    H273101   5.082   1.052   2.652  0.3002 -0.2985 -2.0471
17204TIP3   OH273102   3.981   3.063  10.724  0.5624  0.0004  0.1228
17204TIP3    H173103   3.942   3.109  10.650 -1.1938  0.5683  1.3218
17204TIP3    H273104   3.985   2.972  10.696  1.5827  0.4631 -1.3015
17205TIP3   OH273105   0.353   1.804  12.941 -0.1742  0.0194 -0.2307
17205TIP3    H173106   0.322   1.884  12.982  0.5082  0.6365 -0.8993
17205TIP3    H273107   0.408   1.833  12.868  1.1123 -1.0405  0.2782
17206TIP3   OH273108   2.908   1.570  17.344 -0.1308  0.0175 -0.3858
17206TIP3    H173109   2.886   1.508  17.274  1.4064  0.3020 -1.1651
17206TIP3    H273110   2.825   1.587  17.387 -0.4777 -3.6375  0.7787
17207TIP3   OH273111   2.685   0.666   3.071 -0.7021  0.0365  0.2772
17207TIP3    H173112   2.648   0.754   3.066 -0.0285  0.4375  1.8712
17207TIP3    H273113   2.667   0.638   3.161  2.2545 -0.0031  0.9500
17208TIP3   OH273114   5.527   2.377   0.160  0.2505  0.0570 -0.1174
17208TIP3    H173115   5.539   2.403   0.069  1.3239  0.1857  0.0408
17208TIP3    H273116   5.548   2.283   0.162 -0.1932 -0.0436 -0.0753
17209TIP3   OH273117   5.419   0.875  12.263 -0.7651 -0.1600 -0.1225
17209TIP3    H173118   5.389   0.890  12.352 -0.0936 -1.2160  0.2940
17209TIP3    H273119   5.490   0.813  12.271  1.8407  2.4533 -1.0471
17210TIP3   OH273120   5.117   0.414  15.614 -0.1188 -0.2919  0.1002
17210TIP3    H173121   5.157   0.393  15.698  2.5520 -0.5363 -1.1512
17210TIP3    H273122   5.083   0.331  15.581  1.1465 -0.7102 -0.1886
17211TIP3   OH273123   0.951   1.117  10.970 -0.4158  0.0751  0.0319
17211TIP3    H173124   1.032   1.149  10.932 -0.5649  0.4194 -0.0031
17211TIP3    H273125   0.890   1.191  10.964 -0.8417 -0.2917 -0.2673
17212TIP3   OH273126   1.686   0.556   2.611 -0.2398  0.0164 -0.1955
17212TIP3    H173127   1.649   0.623   2.667  0.9366  0.5674 -0.0432
17212TIP3    H273128   1.712   0.603   2.531  1.6287  0.0097  0.3533
17213TIP3   OH273129   1.366   1.742   1.643  0.3706  0.2853  0.0935
17213TIP3    H173130   1.281   1.764   1.605 -0.6583 -3.1581  0.0774
17213TIP3    H273131   1.397   1.668   1.592  1.7068 -0.8028  2.3125
17214TIP3   OH273132   3.076   5.303  13.605 -0.9259  0.2432  0.1899
17214TIP3    H173133   3.085   5.208  13.600 -1.0580  0.2395  0.0288
17214TIP3    H273134   3.155   5.332  13.651 -0.0636  0.2203 -1.2475
17215TIP3   OH273135   6.281   4.312   1.125 -0.2509  0.0075  0.4610
17215TIP3    H173136   6.233   4.312   1.042 -2.6229  2.2801  1.6876
17215TIP3    H273137   6.215   4.287   1.190  0.9096  0.6755  1.9452
17216TIP3   OH273138   5.931   1.384  15.309 -0.0687 -0.5446  0.1104
17216TIP3    H173139   5.894   1.318  15.366  2.5686 -0.7125  1.8175
17216TIP3    H273140   5.980   1.334  15.243  0.0705 -0.3309  0.0492
17217TIP3   OH273141   5.842   3.946  11.050 -0.3324  0.5235  0.2155
17217TIP3    H173142   5.779   3.973  11.117  0.0193 -0.9073  1.1684
17217TIP3    H273143   5.857   3.853  11.067  0.0067  0.1920 -1.6821
17218TIP3   OH273144   5.642   4.689  12.932  0.0837  0.0259 -0.1434
17218TIP3    H173145   5.622   4.711  13.023 -1.3452 -0.2005 -0.3862
17218TIP3    H273146   5.712   4.625  12.938  1.3694  1.4291  0.7208
17219TIP3   OH273147   0.967   0.824  15.187 -0.8047  0.2899 -0.1892
17219TIP3    H173148   0.941   0.889  15.252 -2.1602  0.7578 -1.1468
17219TIP3    H273149   1.028   0.870  15.129 -0.7127  0.3038 -0.0809
17220TIP3   OH273150   5.555   0.914   5.248 -0.4625 -0.1080  0.3075
17220TIP3    H173151   5.532   0.920   5.155  1.1621 -1.0217 -0.2017
17220TIP3    H273152   5.588   1.000   5.270  1.6467 -0.5895 -0.7348
17221TIP3   OH273153   1.555   3.894  15.695 -0.9148  0.0346  0.2938
17221TIP3    H173154   1.464   3.875  15.674 -1.4132 -1.1836  3.0543
17221TIP3    H273155   1.558   3.989  15.708 -1.5521  0.2019 -0.7638
17222TIP3   OH273156   4.076   6.343   3.141  0.1828 -0.0479  0.3632
17222TIP3    H173157   4.149   6.310   3.194  0.9430  0.5037 -0.3059
17222TIP3    H273158   4.100   6.434   3.121  0.2392 -0.4000 -1.4001
17223TIP3   OH273159   1.786   0.647  16.839  0.3118 -0.3223  0.0648
17223TIP3    H173160   1.851   0.690  16.895  1.4259 -1.5772 -0.2078
17223TIP3    H273161   1.773   0.561  16.879 -1.3246 -0.0422  0.1964
17224TIP3   OH273162   3.131   5.662   5.843 -0.1168 -0.0281  0.0966
17224TIP3    H173163   3.054   5.631   5.892 -1.0755 -1.2667 -2.0320
17224TIP3    H273164   3.123   5.619   5.758  2.1736  0.9984 -0.7017
17225TIP3   OH273165   3.718   4.994   1.108 -0.4043  0.7222 -0.1054
17225TIP3    H173166   3.679   4.974   1.023  0.1479  1.2409 -0.4955
17225TIP3    H273167   3.800   4.945   1.108  0.2952  1.8488 -0.4936
17226TIP3   OH273168   0.767   2.723   0.941 -0.7971  0.1801 -0.0924
17226TIP3    H173169   0.719   2.748   0.862 -1.5852  1.7387  0.8173
17226TIP3    H273170   0.777   2.628   0.935 -1.9278  0.1189 -1.4558
17227TIP3   OH273171   5.727   3.913   2.249  0.4033  0.1852 -0.0759
17227TIP3    H173172   5.633   3.894   2.258 -0.1384  2.3878 -0.2813
17227TIP3    H273173   5.740   3.926   2.156  0.5101  1.5251  0.1045
17228TIP3   OH273174   4.491   2.628   5.567 -0.1452 -0.5530 -0.4752
17228TIP3    H173175   4.568   2.575   5.545 -0.5613 -1.1359 -0.5486
17228TIP3    H273176   4.512   2.666   5.653 -0.8187 -2.8195  0.7702
17229TIP3   OH273177   3.974   1.868  15.864 -0.5286  0.0765  0.3307
17229TIP3    H173178   3.971   1.816  15.944 -0.8799  0.4907  0.5910
17229TIP3    H273179   4.067   1.882  15.847 -0.2224 -3.1970 -1.4289
17230TIP3   OH273180   6.698   2.105  12.556  0.1518  0.9223 -0.0136
17230TIP3    H173181   6.699   2.113  12.652  1.4968  0.2921  0.0542
17230TIP3    H273182   6.783   2.139  12.528 -0.0917  0.7770 -0.9574
17231TIP3   OH273183   0.735   3.764  16.705  0.4735  0.0840  0.2979
17231TIP3    H173184   0.749   3.757  16.610  0.1686  0.7033  0.2052
17231TIP3    H273185   0.641   3.753  16.716  0.2671  1.7736  0.3555
17232TIP3   OH273186   6.654   3.886  17.253 -0.3326 -0.5767 -0.4408
17232TIP3    H173187   6.571   3.850  17.285 -0.0206 -0.1578  0.9165
17232TIP3    H273188   6.711   3.886  17.330  0.0988  1.5673 -0.7001
17233TIP3   OH273189   3.088   4.974  16.942 -0.4293  0.3654 -0.3005
17233TIP3    H173190   3.067   4.963  16.849  1.9168  2.6573 -1.2140
17233TIP3    H273191   3.025   5.040  16.972  0.8654  2.1329 -1.2400
17234TIP3   OH273192   3.393   3.564   2.620 -0.2086  0.0777 -0.1875
17234TIP3    H173193   3.343   3.537   2.698  0.5903  0.6866  0.5586
17234TIP3    H273194   3.355   3.649   2.596  0.0119  0.2209 -0.0324
17235TIP3   OH273195   0.097   0.349   5.250  0.1045  0.5983 -0.0365
17235TIP3    H173196   0.098   0.295   5.172 -0.0581  0.5034  0.0266
17235TIP3    H273197   0.172   0.408   5.239 -0.0100  0.6901 -0.3354
17236TIP3   OH273198   0.177   0.504   5.044 -0.5436 -0.3328  0.0447
17236TIP3    H173199   0.104   0.483   4.985 -1.9821 -2.1746  2.3091
17236TIP3    H273200   0.231   0.565   4.993 -2.8255 -0.0586 -2.3219
17237TIP3   OH273201   3.346   5.659  16.619  0.4569 -0.0298 -0.4165
17237TIP3    H173202   3.285   5.732  16.609  0.2470 -0.1850 -0.2778
17237TIP3    H273203   3.290   5.582  16.622  0.6894 -0.2085 -0.7166
17238TIP3   OH273204   6.351   6.250  15.995 -0.4534 -0.5635  0.7093
17238TIP3    H173205   6.399   6.281  15.918 -0.5734  0.1329  0.9076
17238TIP3    H273206   6.264   6.288  15.986 -0.7918 -1.3189  0.6706
17239TIP3   OH273207   5.675   6.000   3.179 -0.4008 -0.1743 -0.2736
17239TIP3    H173208   5.617   5.940   3.132 -0.6729  0.4697 -0.7650
17239TIP3    H273209   5.729   5.942   3.234  0.3640 -1.0082 -1.8296
17240TIP3   OH273210   5.788   3.998   4.715  0.3924  0.5409 -0.0999
17240TIP3    H173211   5.789   4.073   4.655 -3.4225  0.9878  0.1650
17240TIP3    H273212   5.777   4.037   4.802 -0.0654 -0.3001  0.2280
17241TIP3   OH273213   2.676   0.481  12.463  0.3140 -0.1936  0.5095
17241TIP3    H173214   2.665   0.436  12.379  0.1410 -0.0069  0.4295
17241TIP3    H273215   2.646   0.419  12.528  3.1801 -1.5107  0.7342
17242TIP3   OH273216   5.356   0.674  14.919 -0.3285  0.0389  0.5065
17242TIP3    H173217   5.294   0.627  14.975  0.7877 -0.7083  1.1579
17242TIP3    H273218   5.400   0.736  14.979  0.0366  0.0715  0.2076
17243TIP3   OH273219   1.581   6.093   4.281 -0.0621  0.0659  0.0119
17243TIP3    H173220   1.488   6.113   4.295 -0.3531  1.0758 -2.7215
17243TIP3    H273221   1.602   6.028   4.347 -2.1085  1.4267  2.1613
17244TIP3   OH273222   5.672   2.777   2.083  0.0667  0.9017 -0.7456
17244TIP3    H173223   5.605   2.799   2.148  0.4481  0.1580 -0.0872
17244TIP3    H273224   5.663   2.682   2.071  0.3578  0.9512 -1.3772
17245TIP3   OH273225   4.444   5.414  13.780  0.1546 -0.0242  0.3935
17245TIP3    H173226   4.395   5.400  13.699 -0.2937  0.1626  0.6226
17245TIP3    H273227   4.467   5.326  13.811  2.6924 -0.0474 -1.3142
17246TIP3   OH273228   1.351   5.751   3.443  0.1347  0.3073  0.0708
17246TIP3    H173229   1.434   5.768   3.398  0.4641  0.2571  0.6446
17246TIP3    H273230   1.322   5.667   3.408  0.2287  0.4133 -0.2708
17247TIP3   OH273231   3.256   2.699  12.375 -0.4063  0.0107  0.3343
17247TIP3    H173232   3.305   2.749  12.440 -0.5391  0.2471  0.2505
17247TIP3    H273233   3.274   2.607  12.397  0.7579  0.0916 -0.1997
17248TIP3   OH273234   1.081   0.167  14.737  0.0533  0.5694 -0.5982
17248TIP3    H173235   1.019   0.132  14.802  0.7728 -1.5935 -1.0109
17248TIP3    H273236   1.162   0.179  14.787  0.2518  0.1106 -0.8067
17249TIP3   OH273237   2.112   6.568   1.548  0.6093 -0.6772 -0.3586
17249TIP3    H173238   2.109   6.472   1.542 -1.2682 -0.5741 -2.4178
17249TIP3    H273239   2.161   6.595   1.470 -2.7369  0.0787 -2.3953
17250TIP3   OH273240   0.379   2.432  17.382 -0.2851 -0.1155 -0.1106
17250TIP3    H173241   0.437   2.484  17.438 -0.5511  1.1109 -0.9470
17250TIP3    H273242   0.299   2.421  17.434 -0.9593  1.9689 -0.6162
17251TIP3   OH273243   1.055   4.606  13.933  0.5650  0.0915 -0.2605
17251TIP3    H173244   1.069   4.657  14.013 -1.2419  0.3799 -0.0979
17251TIP3    H273245   1.101   4.656  13.865 -0.2310  1.3602  0.0975
17252TIP3   OH273246   0.796   4.343   4.557  1.1810  0.3892 -0.0356
17252TIP3    H173247   0.865   4.337   4.623  0.2239  0.2867  0.9861
17252TIP3    H273248   0.735   4.273   4.580  1.2537 -0.2036 -1.5578
17253TIP3   OH273249   2.250   3.376   4.635 -0.3402  0.5024 -0.3858
17253TIP3    H173250   2.281   3.357   4.546  0.8686  1.5194 -0.2021
17253TIP3    H273251   2.323   3.352   4.692 -1.8251 -2.1952  0.6015
17254TIP3   OH273252   5.826   3.177  14.260  0.5561  0.4670 -0.1416
17254TIP3    H173253   5.850   3.145  14.347 -0.1096 -0.6669 -0.3503
17254TIP3    H273254   5.823   3.098  14.205 -0.7146  0.9266 -0.7839
17255TIP3   OH273255   3.255   2.672  11.206 -0.3896  0.0310  0.0451
17255TIP3    H173256   3.228   2.722  11.129 -0.4541  0.6159  0.4384
17255TIP3    H273257   3.207   2.590  11.199  3.4770 -2.3029 -3.3257
17256TIP3   OH273258   1.098   6.663   3.390 -0.2500  0.0678 -0.4511
17256TIP3    H173259   1.011   6.630   3.410 -0.7796 -0.3429 -3.0364
17256TIP3    H273260   1.155   6.587   3.402 -0.7486 -0.5367 -1.6994
17257TIP3   OH273261   4.385   4.896   2.048 -0.6561  0.5184  0.2941
17257TIP3    H173262   4.379   4.981   2.091  1.1393  0.5452  0.5805
17257TIP3    H273263   4.312   4.894   1.986 -0.2125  2.6629 -0.3610
17258TIP3   OH273264   2.959   1.542   3.279 -0.5665  0.0788  0.4495
17258TIP3    H173265   3.022   1.525   3.350 -0.0294  0.9915  0.2147
17258TIP3    H273266   2.910   1.618   3.308  0.9348  1.6567 -0.9321
17259TIP3   OH273267   0.689   4.922  15.303 -0.2118  0.2767  0.1376
17259TIP3    H173268   0.737   4.842  15.323  0.8151  0.3233 -1.8984
17259TIP3    H273269   0.687   4.970  15.386 -0.1886 -1.4687  1.2154
17260TIP3   OH273270   4.479   1.144  11.343 -0.5324 -0.2587 -0.1436
17260TIP3    H173271   4.534   1.203  11.396 -1.4946  1.2534 -0.7675
17260TIP3    H273272   4.535   1.119  11.270 -0.1945  0.0914 -0.0128
17261TIP3   OH273273   3.073   0.402  12.689 -0.1771 -0.2603 -0.1673
17261TIP3    H173274   3.139   0.461  12.726  2.3450 -2.5183 -0.7807
17261TIP3    H273275   3.037   0.357  12.766 -0.9890  0.9080  0.1632
17262TIP3   OH273276   4.436   0.006   0.132  0.4932 -0.2419  0.2434
17262TIP3    H173277   4.425  -0.039   0.048 -1.2818 -0.2671  0.4554
17262TIP3    H273278   4.506  -0.043   0.176  2.5436  0.6761 -1.7716
17263TIP3   OH273279   1.360   4.529   6.121 -0.2209  0.4393 -0.2983
17263TIP3    H173280   1.452   4.555   6.128  0.3606 -0.4433 -3.2836
17263TIP3    H273281   1.340   4.488   6.206  2.3958 -0.1566  0.1198
17264TIP3   OH273282   3.840   5.438   4.150 -0.4550  0.2645 -0.2200
17264TIP3    H173283   3.920   5.396   4.118  0.9254  2.0660  0.6587
17264TIP3    H273284   3.813   5.497   4.080 -1.0915 -0.4145 -0.5560
17265TIP3   OH273285   0.763   3.603   2.451  0.5040 -0.7718  0.3045
17265TIP3    H173286   0.801   3.584   2.537  0.8437 -0.6839  0.1745
17265TIP3    H273287   0.676   3.564   2.455  0.1023  0.1765  1.0787
17266TIP3   OH273288   4.200   5.304  12.418  0.1930 -0.0656 -0.4427
17266TIP3    H173289   4.164   5.230  12.466  1.5437 -0.2048  0.4177
17266TIP3    H273290   4.161   5.297  12.331 -0.3279 -1.3157 -0.1350
17267TIP3   OH273291   0.246   2.330  11.389  0.3276 -0.5112 -0.2180
17267TIP3    H173292   0.195   2.402  11.424 -1.4005 -0.9617 -1.6750
17267TIP3    H273293   0.236   2.259  11.452  0.6645 -0.0197  0.3909
17268TIP3   OH273294   6.528   6.685  14.401  0.0346 -0.0179  0.2606
17268TIP3    H173295   6.580   6.620  14.353  1.1317 -1.1957  2.8360
17268TIP3    H273296   6.466   6.633  14.451  0.2983  0.9582  1.6531
17269TIP3   OH273297   5.427   6.562  16.946 -0.5361  0.2542 -0.0343
17269TIP3    H173298   5.512   6.596  16.972 -1.3908  3.1399 -0.6624
17269TIP3    H273299   5.382   6.543  17.029  0.2443 -0.0769  0.3225
17270TIP3   OH273300   3.029   3.001  13.476 -0.5405  0.0848 -0.1427
17270TIP3    H173301   3.023   3.047  13.391 -0.0826  1.9493  0.7773
17270TIP3    H273302   3.123   2.989  13.490 -0.6168 -0.2575  0.0750
17271TIP3   OH273303   3.191   5.788   5.473  0.0633 -0.0440  0.4065
17271TIP3    H173304   3.174   5.804   5.380  2.3028 -0.1401 -0.1007
17271TIP3    H273305   3.170   5.870   5.517  0.6687  0.6104 -0.4854
17272TIP3   OH273306   3.623   4.984   2.887  0.0484 -0.2627  0.2923
17272TIP3    H173307   3.528   4.990   2.899  0.2598  0.7689  1.7689
17272TIP3    H273308   3.635   4.988   2.792 -1.4050 -1.1759  0.0264
17273TIP3   OH273309   4.134   5.597   0.819  0.2248 -0.4974  0.3023
17273TIP3    H173310   4.158   5.625   0.907 -1.2293  0.5198  0.4063
17273TIP3    H273311   4.099   5.675   0.777 -1.5067 -1.5273 -0.3027
17274TIP3   OH273312   5.787   3.563   5.203  0.6657 -0.0053  0.1067
17274TIP3    H173313   5.766   3.480   5.161 -0.3960 -1.8195  3.8109
17274TIP3    H273314   5.880   3.557   5.224  0.6331 -0.1925  0.2012
17275TIP3   OH273315   4.420   1.194  16.096  0.2211 -0.2796 -0.3439
17275TIP3    H173316   4.442   1.121  16.039 -0.1720 -1.0622  0.4751
17275TIP3    H273317   4.504   1.225  16.131  0.2471 -2.0111  1.2847
17276TIP3   OH273318   2.453   0.101  16.744 -0.4199 -0.7791  0.7135
17276TIP3    H173319   2.528   0.089  16.802 -0.8995 -0.9535  1.3149
17276TIP3    H273320   2.465   0.037  16.674 -0.1498 -0.9954  0.9588
17277TIP3   OH273321   0.658   4.440  13.079  0.4871 -0.0144  0.3217
17277TIP3    H173322   0.662   4.517  13.023 -0.2611 -0.5651 -0.5166
17277TIP3    H273323   0.745   4.436  13.120  0.6387  1.0826  0.1425
17278TIP3   OH273324   1.964   4.657   1.705 -0.1854 -0.0636  0.3089
17278TIP3    H173325   1.960   4.568   1.672 -0.0375 -0.2418  0.7714
17278TIP3    H273326   2.047   4.662   1.751  1.4294  1.2578 -2.4463
17279TIP3   OH273327   5.263   2.899   1.320  0.3894 -0.1177 -0.3787
17279TIP3    H173328   5.196   2.831   1.312 -1.7702  1.4183  2.6058
17279TIP3    H273329   5.215   2.977   1.349  3.0398  2.1284 -1.5299
17280TIP3   OH273330   3.228   6.669   2.960  0.3284 -0.2500  0.4756
17280TIP3    H173331   3.245   6.595   2.902  0.4835 -1.5561  2.0813
17280TIP3    H273332   3.314   6.699   2.988  0.2518  0.1709  0.2642
17281TIP3   OH273333   3.540   2.404   1.185 -0.2779 -0.4194  0.7155
17281TIP3    H173334   3.526   2.452   1.267  0.9202  0.3152  0.4990
17281TIP3    H273335   3.622   2.357   1.199  0.2472  0.1829 -0.2801
17282TIP3   OH273336   2.402   4.803   2.889 -0.0173  0.3320  0.6103
17282TIP3    H173337   2.344   4.792   2.814  1.0842 -0.1109 -0.2062
17282TIP3    H273338   2.481   4.754   2.866  0.2013 -0.1550  2.2373
17283TIP3   OH273339   4.966   1.946   4.777  0.2139 -0.0701 -0.5684
17283TIP3    H173340   4.924   1.861   4.784  0.4764 -0.0898  4.1956
17283TIP3    H273341   5.052   1.928   4.739 -0.8808 -1.3313 -2.5782
17284TIP3   OH273342   3.998   2.393  14.180 -0.0674 -0.3526  0.1231
17284TIP3    H173343   3.954   2.469  14.141  0.1152 -0.0214  0.5479
17284TIP3    H273344   4.075   2.379  14.125  0.5578  0.5343  0.7232
17285TIP3   OH273345   2.435   0.188   3.243 -0.3256  0.0024  0.6289
17285TIP3    H173346   2.493   0.115   3.264 -3.4979 -3.0860 -0.2073
17285TIP3    H273347   2.473   0.228   3.165  0.4349 -2.2566 -0.2301
17286TIP3   OH273348   1.322   5.183   5.490  0.4158  0.2418  0.0308
17286TIP3    H173349   1.398   5.178   5.547  0.5677  0.9465 -0.1055
17286TIP3    H273350   1.355   5.160   5.403  0.1727 -0.8915  0.2164
17287TIP3   OH273351   2.318   4.668   0.197  0.1532 -0.0933 -0.1562
17287TIP3    H173352   2.346   4.758   0.213  1.2140 -0.6315  1.2875
17287TIP3    H273353   2.399   4.622   0.174 -0.3853 -0.6799 -0.9311
17288TIP3   OH273354   5.565   1.410  11.080 -0.4090  0.1491 -0.4778
17288TIP3    H173355   5.594   1.319  11.082 -0.0466  0.2280 -1.3231
17288TIP3    H273356   5.485   1.409  11.028 -1.0707  0.1579  0.5127
17289TIP3   OH273357   6.607   4.470  14.331 -0.0562 -0.0711 -0.2539
17289TIP3    H173358   6.689   4.419  14.333 -0.6630 -1.0653  0.1788
17289TIP3    H273359   6.600   4.501  14.241  0.3686 -0.7125 -0.5146
17290TIP3   OH273360   2.199   2.838  15.745 -0.3424  0.2098  0.2248
17290TIP3    H173361   2.293   2.855  15.756 -0.5609  1.7475 -0.1035
17290TIP3    H273362   2.181   2.856  15.653 -1.0581  0.4598  0.4036
17291TIP3   OH273363   6.517   3.766  15.440  0.0413 -0.0634  0.0333
17291TIP3    H173364   6.465   3.736  15.365 -0.5576 -1.6106  1.0251
17291TIP3    H273365   6.537   3.686  15.489  2.7825  0.5760  0.0819
17292TIP3   OH273366   5.989   1.084  16.563 -0.4685 -0.1647  0.0626
17292TIP3    H173367   6.052   1.014  16.576  0.3890  0.6302  0.2847
17292TIP3    H273368   5.979   1.091  16.468 -0.3740 -0.4157  0.0350
17293TIP3   OH273369   4.041   5.564  14.902 -0.4061  0.6705  0.6173
17293TIP3    H173370   4.109   5.617  14.859  0.8682  0.5258  2.3360
17293TIP3    H273371   4.090   5.506  14.961 -2.0504  0.9753  2.3753
17294TIP3   OH273372   4.821   0.885  11.459  0.4435 -0.0063 -0.0018
17294TIP3    H173373   4.914   0.874  11.478  0.4428  0.1036  0.0626
17294TIP3    H273374   4.803   0.821  11.390  0.7459  0.5252 -0.5756
17295TIP3   OH273375   0.698   5.397  14.388 -0.1304  0.3105 -0.8311
17295TIP3    H173376   0.638   5.323  14.395 -2.3868  2.1646  1.2202
17295TIP3    H273377   0.774   5.370  14.439 -0.5857 -0.8605 -0.7288
17296TIP3   OH273378   0.560   0.303  12.153 -0.5179  0.3809 -0.5278
17296TIP3    H173379   0.471   0.306  12.187  0.1855  0.1564  1.4593
17296TIP3    H273380   0.613   0.270  12.226  0.9455 -1.3005 -2.2137
17297TIP3   OH273381   4.728   0.299   1.711 -0.4852 -0.5289 -0.2279
17297TIP3    H173382   4.747   0.231   1.775 -1.9444 -0.4958  0.2820
17297TIP3    H273383   4.790   0.369   1.731  0.9737 -1.6166 -0.7011
17298TIP3   OH273384   2.459   3.763  15.619 -0.0712  0.2399 -0.0801
17298TIP3    H173385   2.523   3.733  15.554  0.8721 -3.2384  2.1375
17298TIP3    H273386   2.385   3.703  15.609 -0.5195  0.5716  1.0939
17299TIP3   OH273387   2.904   2.086   0.311  0.6661  0.0663 -0.3674
17299TIP3    H173388   2.809   2.080   0.300  0.9067 -1.2125 -2.3058
17299TIP3    H273389   2.920   2.177   0.338 -0.9788  0.9196 -2.0263
17300TIP3   OH273390   2.821   5.808  14.051 -0.3669  0.6409 -0.2169
17300TIP3    H173391   2.849   5.738  13.992  2.8824  1.3611  0.3115
17300TIP3    H273392   2.836   5.889  14.002 -0.5425  1.1281  0.5198
17301TIP3   OH273393   5.010   0.865  11.089 -0.4407 -0.5273  0.0806
17301TIP3    H173394   4.917   0.840  11.093 -0.3500 -0.8276  0.3959
17301TIP3    H273395   5.034   0.852  10.997 -1.0503  0.8269 -0.2903
17302TIP3   OH273396   3.734   1.269  15.089  0.0070  0.1419 -0.0796
17302TIP3    H173397   3.739   1.284  15.183 -0.3669 -0.5108  0.0527
17302TIP3    H273398   3.806   1.320  15.052 -0.4725  1.2168  0.4570
17303TIP3   OH273399   5.207   3.846   4.125  0.3231 -0.0685 -0.2176
17303TIP3    H173400   5.272   3.855   4.195 -0.1811  0.8204  0.1568
17303TIP3    H273401   5.160   3.929   4.125  0.9422  0.3350 -2.2822
17304TIP3   OH273402   1.053   5.873  12.795  0.3838 -0.5524  0.1548
17304TIP3    H173403   1.044   5.781  12.820  0.4765 -0.4167  0.7026
17304TIP3    H273404   1.020   5.922  12.870  2.7335 -0.0988  1.0000
17305TIP3   OH273405   3.750   4.199  15.571  0.0124 -0.0995 -0.3752
17305TIP3    H173406   3.657   4.214  15.588 -0.1334 -1.4247  0.1014
17305TIP3    H273407   3.752   4.117  15.522  0.8191  0.9248 -2.1571
17306TIP3   OH273408   3.341   5.555  15.244  0.1824  0.4721  0.2386
17306TIP3    H173409   3.371   5.464  15.250  0.5806  0.4497 -1.4439
17306TIP3    H273410   3.293   5.571  15.325 -0.6634 -1.5211  0.1642
17307TIP3   OH273411   5.134   2.571  12.300 -0.5937  0.2037 -0.2633
17307TIP3    H173412   5.048   2.542  12.328 -0.0249 -1.5239 -0.1677
17307TIP3    H273413   5.160   2.509  12.231  1.8251 -1.3345  1.8376
17308TIP3   OH273414   5.011   6.124  16.837 -0.7321 -0.3192  0.3523
17308TIP3    H173415   5.018   6.050  16.777  0.1557 -0.4991  0.6612
17308TIP3    H273416   5.065   6.099  16.912 -1.5959  0.0213  1.1105
17309TIP3   OH273417   4.771   2.887  16.633  0.5289  0.3807 -0.5351
17309TIP3    H173418   4.770   2.944  16.710  0.1850  0.5483 -0.6610
17309TIP3    H273419   4.796   2.801  16.667  1.0158  0.5963 -0.3368
17310TIP3   OH273420   1.584   4.456   2.573 -0.9979  0.6395 -0.3379
17310TIP3    H173421   1.559   4.390   2.637  1.6577  0.4245  0.6239
17310TIP3    H273422   1.579   4.539   2.621  1.4137  0.4353  0.3983
17311TIP3   OH273423   2.112   5.822  17.211 -0.3479  0.0956 -0.1080
17311TIP3    H173424   2.059   5.744  17.230 -0.1974 -0.2453 -1.0140
17311TIP3    H273425   2.109   5.830  17.116  1.3146  0.0045 -0.2041
17312TIP3   OH273426   2.451   1.226   1.890  0.5690 -0.1111  0.3746
17312TIP3    H173427   2.417   1.136   1.887  0.4009 -0.0237 -1.7293
17312TIP3    H273428   2.510   1.232   1.814  1.2540  1.3067  0.9847
17313TIP3   OH273429   1.594   0.972   2.285  0.1476  0.1586 -0.4911
17313TIP3    H173430   1.528   1.022   2.335  0.1987 -0.0683 -0.1916
17313TIP3    H273431   1.610   1.025   2.207 -0.6871  0.0250 -0.7675
17314TIP3   OH273432   1.901   4.654   2.052  0.1552 -0.0151 -0.0721
17314TIP3    H173433   1.975   4.595   2.065 -0.2043 -0.1273  1.8004
17314TIP3    H273434   1.854   4.619   1.976  0.2781 -1.8096  0.6365
17315TIP3   OH273435   3.790   0.592   0.964  0.5186  0.2019  0.5045
17315TIP3    H173436   3.829   0.534   1.030 -1.8999  1.1399  2.9276
17315TIP3    H273437   3.750   0.663   1.015 -0.7350  1.4675 -2.0616
17316TIP3   OH273438   6.046   6.080  11.970  0.1152 -0.0483  0.4325
17316TIP3    H173439   6.126   6.091  11.918  0.4470  0.0534  0.9601
17316TIP3    H273440   5.988   6.028  11.914  0.7067 -0.4835  0.2215
17317TIP3   OH273441   2.252   6.252  16.999  0.4966  0.1890  0.6051
17317TIP3    H173442   2.249   6.272  17.093  2.9210 -1.5363  1.1390
17317TIP3    H273443   2.197   6.175  16.990 -0.3653  0.8088  0.4334
17318TIP3   OH273444   3.234   1.031  11.367  0.1824  0.1723 -0.3610
17318TIP3    H173445   3.191   0.946  11.355 -1.3553  0.9530 -0.5191
17318TIP3    H273446   3.178   1.093  11.320  0.3098  1.5498  1.2420
17319TIP3   OH273447   6.354   5.994   4.244 -0.0694  0.1498  0.2359
17319TIP3    H173448   6.423   5.997   4.178  0.1545 -0.0608  0.4589
17319TIP3    H273449   6.273   6.011   4.195  0.2957  2.0487  0.2203
17320TIP3   OH273450   3.687   2.660  12.396 -0.4318 -0.0622 -0.0429
17320TIP3    H173451   3.658   2.659  12.487  0.5679 -1.5447  0.2955
17320TIP3    H273452   3.763   2.718  12.395  0.1010 -0.7317  0.2814
17321TIP3   OH273453   2.901   3.888  15.975  0.4425 -0.2856  0.5111
17321TIP3    H173454   2.988   3.887  15.935 -0.3493 -1.6076 -1.3411
17321TIP3    H273455   2.908   3.827  16.048  0.9087 -1.0100 -0.1170
17322TIP3   OH273456   2.673   1.828  14.360  0.0177  0.3327 -0.1401
17322TIP3    H173457   2.694   1.826  14.267  1.2105 -2.3150  0.0893
17322TIP3    H273458   2.758   1.818  14.404 -0.2918  3.2166  1.3711
17323TIP3   OH273459   6.441   3.271  13.397 -0.0241 -0.4676 -0.5441
17323TIP3    H173460   6.357   3.245  13.435  0.0639  2.0939  1.7282
17323TIP3    H273461   6.506   3.223  13.448 -0.0253  0.0251 -0.0733
17324TIP3   OH273462   0.558   4.389   4.395 -0.2453 -0.2639 -0.3128
17324TIP3    H173463   0.653   4.378   4.400 -0.2730 -2.1544 -2.3614
17324TIP3    H273464   0.540   4.469   4.444  2.5099  0.6221 -0.5998
17325TIP3   OH273465   0.157   1.707  15.074  0.0422 -0.0859 -0.6379
17325TIP3    H173466   0.244   1.675  15.049  0.8709  1.9749 -0.5467
17325TIP3    H273467   0.127   1.645  15.140  0.9251 -1.4926 -1.5022
17326TIP3   OH273468   5.707   5.526   2.218 -0.4894  0.3390  0.2163
17326TIP3    H173469   5.690   5.539   2.311 -0.2559  0.0061  0.3060
17326TIP3    H273470   5.791   5.569   2.202 -0.9293  1.1246 -0.0198
17327TIP3   OH273471   3.216   2.527   2.768 -0.2484 -0.4323  0.1597
17327TIP3    H173472   3.231   2.598   2.830 -2.2291 -0.8489  1.2081
17327TIP3    H273473   3.174   2.570   2.693  1.9936  0.0429 -0.9096
17328TIP3   OH273474   1.596   4.435   5.179  0.1243  0.4058 -0.5457
17328TIP3    H173475   1.548   4.353   5.186 -0.4204  0.7933  0.4434
17328TIP3    H273476   1.657   4.421   5.106  1.3451 -1.5205  0.7479
17329TIP3   OH273477   3.960   3.343   3.184  0.4466 -0.0432  0.1293
17329TIP3    H173478   3.908   3.406   3.133 -2.0143 -1.6564  0.4576
17329TIP3    H273479   3.976   3.388   3.267 -2.0763 -0.0408  0.7198
17330TIP3   OH273480   6.562   6.104  10.785 -0.2188  0.1418 -0.3014
17330TIP3    H173481   6.523   6.150  10.860  0.4899  0.0149  0.1555
17330TIP3    H273482   6.550   6.011  10.805 -1.3840  0.1065 -1.0844
17331TIP3   OH273483   5.937   4.905   2.320 -0.0596 -0.6170 -0.0698
17331TIP3    H173484   6.030   4.926   2.315 -0.4362  0.8022 -2.0392
17331TIP3    H273485   5.926   4.866   2.407  2.2814 -0.4721  0.3527
17332TIP3   OH273486   2.427   1.568   0.391 -0.1885  0.9444  0.3521
17332TIP3    H173487   2.425   1.647   0.446  0.6879  1.6588 -0.6186
17332TIP3    H273488   2.505   1.578   0.337  0.2473 -0.8561  0.5737
17333TIP3   OH273489   3.762   4.419  12.893  0.1698  0.0064  0.3757
17333TIP3    H173490   3.834   4.472  12.861  0.0101 -1.2225 -2.2627
17333TIP3    H273491   3.700   4.482  12.930  1.2461  1.3408 -0.0246
17334TIP3   OH273492   6.352   1.564   2.030 -0.1080  1.0358  0.2633
17334TIP3    H173493   6.343   1.586   1.937  0.8054 -0.6851 -0.2764
17334TIP3    H273494   6.446   1.550   2.042 -0.4381 -0.9711  0.8784
17335TIP3   OH273495   0.046   1.325  12.541 -0.4014 -0.2785  0.0935
17335TIP3    H173496   0.076   1.244  12.500  0.3907  0.2057 -0.2944
17335TIP3    H273497  -0.004   1.369  12.472  0.8813  0.5084 -0.3562
17336TIP3   OH273498   4.883   4.297  14.793  0.0465 -0.1452  0.0809
17336TIP3    H173499   4.809   4.266  14.846 -0.5962 -0.5388 -0.9951
17336TIP3    H273500   4.938   4.220  14.782 -0.6824 -0.5233 -1.1803
17337TIP3   OH273501   1.721   6.265   6.211 -0.0503  0.4478 -0.9187
17337TIP3    H173502   1.729   6.175   6.180 -2.2039  1.0843 -3.7904
17337TIP3    H273503   1.809   6.289   6.241  0.9446 -2.0391 -1.6286
17338TIP3   OH273504   1.180   0.390  14.562 -0.4017 -0.2507 -0.5263
17338TIP3    H173505   1.143   0.309  14.596  0.0810 -0.8828 -1.4762
17338TIP3    H273506   1.275   0.376  14.565 -0.2656  0.7045  0.3067
17339TIP3   OH273507   4.875   5.806   0.985  0.0674  0.3008  0.2109
17339TIP3    H173508   4.913   5.872   1.043 -1.7418  0.0701  1.7853
17339TIP3    H273509   4.920   5.725   1.008  0.5627  0.5324  0.0560
17340TIP3   OH273510   1.399   3.713  16.121 -0.4371  0.0968  0.2863
17340TIP3    H173511   1.310   3.744  16.138 -0.5626 -0.2566  0.2848
17340TIP3    H273512   1.454   3.766  16.178 -0.6045  0.5979 -0.0058
17341TIP3   OH273513   1.311   3.222  15.974 -0.1244  0.6948 -0.4725
17341TIP3    H173514   1.365   3.145  15.958  0.4521  1.5305 -3.1190
17341TIP3    H273515   1.370   3.296  15.960 -1.1118  1.6241  0.0854
17342TIP3   OH273516   1.518   2.444   0.090  0.3039  0.1135  0.5275
17342TIP3    H173517   1.440   2.399   0.060  2.0642 -2.7536 -0.1094
17342TIP3    H273518   1.489   2.495   0.166 -2.0737 -1.2352  0.6023
17343TIP3   OH273519   6.191   2.072  10.995  0.3508  0.5255  0.2930
17343TIP3    H173520   6.148   2.026  10.923  1.1296 -1.4800  1.0529
17343TIP3    H273521   6.122   2.083  11.061  0.3506 -0.3781  0.4590
17344TIP3   OH273522   4.533   0.841   1.955 -0.6852  0.0749 -0.0759
17344TIP3    H173523   4.508   0.868   1.867  1.1136 -3.4442 -1.8797
17344TIP3    H273524   4.468   0.774   1.979  1.3929 -2.4253 -0.9141
17345TIP3   OH273525   6.517   2.232   2.930 -0.2112  0.3318 -0.4500
17345TIP3    H173526   6.451   2.169   2.901  0.1148 -0.0430 -0.3679
17345TIP3    H273527   6.466   2.312   2.949 -0.6085  0.1252 -0.6331
17346TIP3   OH273528   6.125   5.283  13.647 -0.6990 -0.1356  0.0684
17346TIP3    H173529   6.197   5.232  13.683 -0.4975 -0.7769 -1.1889
17346TIP3    H273530   6.097   5.339  13.720  0.0510 -0.9642  1.0345
17347TIP3   OH273531   1.075   3.420  12.848 -0.2341 -0.3286 -0.0709
17347TIP3    H173532   1.045   3.330  12.859 -0.6089  0.0638  2.7024
17347TIP3    H273533   1.160   3.423  12.891 -0.0982  0.5848 -0.3638
17348TIP3   OH273534   2.231   1.407  12.463 -0.5506 -0.3668  0.3402
17348TIP3    H173535   2.166   1.388  12.530  0.5158 -1.1046  1.1934
17348TIP3    H273536   2.306   1.351  12.485  0.0505 -0.1850 -1.1172
17349TIP3   OH273537   1.748   2.291  16.478  0.0039 -0.3118 -0.2203
17349TIP3    H173538   1.725   2.310  16.387  0.1500  1.3133  0.0682
17349TIP3    H273539   1.840   2.262  16.474  0.6763  1.7193 -0.3932
17350TIP3   OH273540   4.142   4.638   1.756 -0.0185 -0.4063  0.2060
17350TIP3    H173541   4.230   4.609   1.731  0.7086 -0.0000  2.0960
17350TIP3    H273542   4.083   4.594   1.695  1.4403 -1.4037 -0.5236
17351TIP3   OH273543   5.626   3.236  13.166  0.1382 -0.3825  0.2065
17351TIP3    H173544   5.633   3.328  13.194  0.5721 -0.2038 -0.4603
17351TIP3    H273545   5.540   3.231  13.123 -0.0979 -0.4140  0.6738
17352TIP3   OH273546   6.235   1.336  15.676  0.3727  0.0290  0.1048
17352TIP3    H173547   6.180   1.415  15.671  0.7171  0.2589 -0.0770
17352TIP3    H273548   6.187   1.271  15.624  0.4624  0.3462 -0.3788
17353TIP3   OH273549   2.774   2.118   5.004  0.0546 -0.2307  0.2178
17353TIP3    H173550   2.812   2.137   5.090  0.8309 -1.2908  0.1217
17353TIP3    H273551   2.843   2.141   4.942  0.4771 -1.9166  0.0273
17354TIP3   OH273552   1.241   4.540   1.990 -0.2847  0.0859 -0.0315
17354TIP3    H173553   1.253   4.567   2.081 -0.0423 -0.4081  0.0861
17354TIP3    H273554   1.295   4.461   1.981 -2.4907 -1.5281  0.1715
17355TIP3   OH273555   3.728   0.599   5.568 -0.2992 -0.7824 -0.1889
17355TIP3    H173556   3.802   0.656   5.548  0.1059 -0.8148  1.1524
17355TIP3    H273557   3.651   0.654   5.553  0.0563 -0.1727  0.1787
17356TIP3   OH273558   0.994   1.316  13.487  0.3134 -0.6126 -0.1675
17356TIP3    H173559   0.931   1.289  13.420  0.8326 -0.2981 -0.7920
17356TIP3    H273560   0.978   1.409  13.499  0.2488 -0.6603  0.1161
17357TIP3   OH273561   2.294   5.900   5.052  0.0894 -0.1330 -0.8211
17357TIP3    H173562   2.237   5.867   5.122 -0.4066 -0.2744 -1.2836
17357TIP3    H273563   2.366   5.837   5.049  0.1360 -0.1036 -0.4107
17358TIP3   OH273564   3.943   1.997  12.941 -0.1051 -0.3272  0.8129
17358TIP3    H173565   4.008   1.944  12.987  0.3771  0.4759  1.0701
17358TIP3    H273566   3.969   1.994  12.849 -0.5410 -1.1814  0.7089
17359TIP3   OH273567   1.609   5.623  14.847  0.4938  0.3712  0.1698
17359TIP3    H173568   1.641   5.534  14.859  1.0997  0.7722  1.9260
17359TIP3    H273569   1.689   5.676  14.840  0.1426  0.7129 -1.6657
17360TIP3   OH273570   3.828   3.185   3.836 -0.4896  0.4404 -0.0503
17360TIP3    H173571   3.920   3.202   3.853 -0.2100  1.5203 -2.1806
17360TIP3    H273572   3.793   3.152   3.918  2.0869 -1.3342  0.4393
17361TIP3   OH273573   4.615   3.182  16.047  0.1821 -0.1113 -0.4525
17361TIP3    H173574   4.544   3.246  16.046  1.2709  1.3078  2.0668
17361TIP3    H273575   4.593   3.124  16.120  0.8661 -0.5769 -0.6110
17362TIP3   OH273576   6.056   5.242  12.627  0.5806  0.4394  0.3752
17362TIP3    H173577   6.104   5.232  12.709 -1.5951 -1.7477  1.4965
17362TIP3    H273578   6.002   5.320  12.640  1.4646  1.0716  0.3311
17363TIP3   OH273579   2.131   5.455  13.060 -0.0632 -0.4554  0.1379
17363TIP3    H173580   2.040   5.459  13.091 -0.2069 -2.4254  0.1065
17363TIP3    H273581   2.131   5.508  12.980 -0.9168  0.4436  0.7062
17364TIP3   OH273582   1.780   6.560  16.956  0.0362  0.2817 -0.2940
17364TIP3    H173583   1.774   6.636  17.013 -1.4759  0.6107 -0.8422
17364TIP3    H273584   1.868   6.526  16.970 -1.0359 -1.2777  4.2857
17365TIP3   OH273585   5.508   4.478  16.711  0.0529 -0.1789  0.2213
17365TIP3    H173586   5.457   4.491  16.792 -2.0135  1.0746 -1.1887
17365TIP3    H273587   5.581   4.540  16.719 -0.5098  0.4187  0.8424
17366TIP3   OH273588   1.194   5.759   0.820 -0.7313 -0.5869  0.4356
17366TIP3    H173589   1.166   5.818   0.750  2.4287 -0.8309 -1.2133
17366TIP3    H273590   1.252   5.812   0.875 -0.5640 -1.2936  0.9568
17367TIP3   OH273591   0.870   5.292  14.574 -0.5723 -0.6473  0.3472
17367TIP3    H173592   0.867   5.205  14.535 -1.8727 -1.7044  2.6193
17367TIP3    H273593   0.964   5.312  14.582 -0.2556 -2.0320  0.2409
17368TIP3   OH273594   5.525   5.301  11.100 -0.4876 -0.3226 -0.3013
17368TIP3    H173595   5.496   5.380  11.056 -1.7522 -0.2641  0.5744
17368TIP3    H273596   5.446   5.247  11.109 -0.4393 -0.0988  2.2978
17369TIP3   OH273597   6.263   2.091   3.732 -0.6239 -0.2108 -0.3028
17369TIP3    H173598   6.206   2.061   3.662 -0.4027  0.2334 -0.6785
17369TIP3    H273599   6.225   2.174   3.761  0.7430  0.9579 -1.7019
17370TIP3   OH273600   0.445   2.349   1.570 -0.0032  0.0746 -0.2308
17370TIP3    H173601   0.392   2.377   1.645  0.0502 -0.5833  0.0563
17370TIP3    H273602   0.536   2.363   1.598  0.0401 -0.7841  0.0833
17371TIP3   OH273603   3.052   1.023  14.979 -0.1612 -0.6851 -0.1205
17371TIP3    H173604   2.987   1.032  15.048 -1.4237 -0.6036 -1.2839
17371TIP3    H273605   3.108   1.100  14.987 -2.0683  0.8731 -0.9704
17372TIP3   OH273606   4.484   1.205  13.732  0.3391  0.0227  0.4498
17372TIP3    H173607   4.574   1.174  13.736  0.0160 -0.8737  1.1206
17372TIP3    H273608   4.492   1.300  13.722  1.3517 -0.2233 -1.4127
17373TIP3   OH273609   0.026   5.520   2.310  0.2314 -0.0612  0.1049
17373TIP3    H173610  -0.064   5.510   2.339 -0.3412  1.3823 -1.0529
17373TIP3    H273611   0.033   5.464   2.233  0.9092 -1.6358  1.2581
17374TIP3   OH273612   3.036   4.511  11.385 -0.2832  0.6336  0.2864
17374TIP3    H173613   2.956   4.459  11.396 -0.4369  1.1552  1.7704
17374TIP3    H273614   3.105   4.445  11.374 -0.9105  0.1813 -1.3022
17375TIP3   OH273615   2.620   4.696  13.788  0.1863  0.4594  0.0602
17375TIP3    H173616   2.623   4.736  13.875 -0.7392 -0.1295  0.3828
17375TIP3    H273617   2.674   4.617  13.796  0.1839  0.4587  0.0699
17376TIP3   OH273618   2.114   0.918   4.670  0.1072 -1.0049  0.8170
17376TIP3    H173619   2.110   0.928   4.765 -0.3125 -0.0397  0.7101
17376TIP3    H273620   2.154   0.999   4.639  0.2215 -1.3051  0.1650
17377TIP3   OH273621   2.425   6.352  14.622  0.3762 -0.3013  0.7610
17377TIP3    H173622   2.407   6.295  14.696 -1.1931 -1.3543 -0.3523
17377TIP3    H273623   2.350   6.340  14.564  1.3664  0.7682 -0.8334
17378TIP3   OH273624   1.179   5.767  17.191  0.1623  0.4800 -0.1911
17378TIP3    H173625   1.207   5.843  17.242 -1.4406  1.6581 -0.9854
17378TIP3    H273626   1.085   5.779  17.179  0.2903 -0.3143 -2.4596
17379TIP3   OH273627   5.850   2.068   1.789 -0.8062  0.1406 -0.3499
17379TIP3    H173628   5.807   2.000   1.737  0.3575 -1.5737  0.8315
17379TIP3    H273629   5.915   2.105   1.729 -0.8617 -0.3839 -0.7462
17380TIP3   OH273630   1.893   4.305  12.416  0.7119  0.0257 -0.0973
17380TIP3    H173631   1.953   4.333  12.485  3.9001 -0.1361 -2.5670
17380TIP3    H273632   1.885   4.210  12.427  0.5702  0.0969  0.4553
17381TIP3   OH273633   0.199   2.135  16.548 -0.1808  0.2039  0.1444
17381TIP3    H173634   0.264   2.103  16.485  0.2794 -0.3970  0.8918
17381TIP3    H273635   0.228   2.224  16.569  1.5831 -0.7157  1.9244
17382TIP3   OH273636   2.889   1.100   3.380  0.4021  0.1362 -0.0427
17382TIP3    H173637   2.960   1.057   3.333  0.3591  1.2291 -1.1397
17382TIP3    H273638   2.885   1.054   3.464  2.2217 -0.1303 -0.0618
17383TIP3   OH273639   4.249   5.407  16.782 -0.1662  0.0709  0.6064
17383TIP3    H173640   4.315   5.469  16.751 -0.0072  1.3976  3.2984
17383TIP3    H273641   4.201   5.382  16.704  2.1016  0.7674 -1.1185
17384TIP3   OH273642   4.652   6.252   0.517  0.0589 -0.5308 -0.1011
17384TIP3    H173643   4.662   6.165   0.554 -0.0119 -0.2144  0.6682
17384TIP3    H273644   4.715   6.307   0.564  1.1571 -0.4486 -1.5789
17385TIP3   OH273645   3.561   4.934   0.159 -0.1108  0.9175 -0.2804
17385TIP3    H173646   3.611   5.012   0.184  0.9295  0.1271  0.1928
17385TIP3    H273647   3.593   4.913   0.071 -1.9728  2.2587 -1.3335
17386TIP3   OH273648   0.319   4.529   3.034 -0.3903  0.0331 -0.2188
17386TIP3    H173649   0.386   4.501   2.971  0.2402 -2.0696  1.2875
17386TIP3    H273650   0.261   4.454   3.043  0.1671 -0.1753  2.4871
17387TIP3   OH273651   0.708   4.305  11.230  0.3839 -0.3403  0.3262
17387TIP3    H173652   0.659   4.258  11.297  0.7099 -0.2814  0.6031
17387TIP3    H273653   0.720   4.241  11.160  1.0771 -0.7601  0.8224
17388TIP3   OH273654   0.582   4.896   1.164  0.6299 -0.0271  0.4771
17388TIP3    H173655   0.538   4.895   1.079  0.2728  0.4994  0.6531
17388TIP3    H273656   0.566   4.809   1.200 -2.0550  0.7747  1.4347
17389TIP3   OH273657   2.763   6.676   3.054 -0.0442  0.9710 -0.1838
17389TIP3    H173658   2.820   6.636   2.989 -0.8406  2.1975 -1.7121
17389TIP3    H273659   2.817   6.745   3.093  0.7824 -0.4493  1.2642
17390TIP3   OH273660   3.328   0.413   1.206  0.2192  0.3435  0.2879
17390TIP3    H173661   3.355   0.381   1.120  0.4072 -0.4211  0.6261
17390TIP3    H273662   3.288   0.499   1.188  1.3451  0.7420 -0.4123
17391TIP3   OH273663   5.625   2.215  17.219 -0.1770  0.4327  0.1068
17391TIP3    H173664   5.678   2.208  17.139 -2.1698 -0.6624 -1.2115
17391TIP3    H273665   5.543   2.255  17.190 -0.7939  0.3989  1.7058
17392TIP3   OH273666   3.742   2.484   2.676 -0.7432 -0.3622  0.0595
17392TIP3    H173667   3.747   2.426   2.752 -0.6023 -0.9001 -0.3557
17392TIP3    H273668   3.650   2.479   2.649 -0.7688 -0.2567  0.1262
17393TIP3   OH273669   2.695   0.319  11.868 -0.1435  0.2988  0.0459
17393TIP3    H173670   2.706   0.314  11.963 -0.4036  1.0555  0.1232
17393TIP3    H273671   2.653   0.236  11.845  1.3742 -0.5975  0.3614
17394TIP3   OH273672   3.176   2.252   5.772 -0.2380  0.0199 -0.2871
17394TIP3    H173673   3.087   2.215   5.767 -0.4120  0.4597 -0.4526
17394TIP3    H273674   3.167   2.331   5.824 -0.1233  0.5929 -1.1145
17395TIP3   OH273675   3.560   2.850  10.798  0.2608  0.3076  0.2956
17395TIP3    H173676   3.577   2.904  10.720  0.1125 -0.8364 -0.5547
17395TIP3    H273677   3.513   2.774  10.765  2.8462 -1.7386  0.9641
17396TIP3   OH273678   2.108   5.005   3.319  0.5723 -0.2463  0.7878
17396TIP3    H173679   2.108   4.936   3.253  1.6435  0.4854 -0.0191
17396TIP3    H273680   2.121   4.959   3.402 -0.3318 -1.1394  0.4505
17397TIP3   OH273681   0.388   4.912   2.777 -0.3757 -0.4654  0.8642
17397TIP3    H173682   0.471   4.895   2.823 -0.2329  0.5367  0.9999
17397TIP3    H273683   0.403   4.995   2.732 -0.2042 -1.8406 -1.7865
17398TIP3   OH273684   6.138   0.310  17.309  0.1690 -0.3469  0.1185
17398TIP3    H173685   6.190   0.338  17.233 -0.7811  1.5601  0.1033
17398TIP3    H273686   6.054   0.283  17.273  0.1234 -0.5610  0.3839
17399TIP3   OH273687   5.403   2.153   1.858 -0.1427  0.0132  0.0036
17399TIP3    H173688   5.355   2.229   1.891 -0.4221  0.8010 -2.0858
17399TIP3    H273689   5.489   2.186   1.835  0.6329 -0.8890  1.4497
17400TIP3   OH273690   4.596   6.765   2.581 -0.2842 -0.0571  0.0102
17400TIP3    H173691   4.516   6.732   2.540  1.1381  1.1033 -4.1718
17400TIP3    H273692   4.575   6.854   2.608 -0.1825  0.7169 -2.2679
17401TIP3   OH273693   5.322   2.136   5.595  0.3155 -0.2286  0.9727
17401TIP3    H173694   5.267   2.153   5.519  0.4140 -1.4182  0.6055
17401TIP3    H273695   5.402   2.097   5.559  0.9083  0.3844  1.5914
17402TIP3   OH273696   5.053   3.350  13.560 -0.7657 -0.0896  0.1412
17402TIP3    H173697   5.010   3.345  13.645 -0.4293 -0.1391  0.3080
17402TIP3    H273698   5.023   3.432  13.522 -0.8105 -0.0048  0.3615
17403TIP3   OH273699   5.185   3.530   4.970  0.1076 -0.4258  0.0982
17403TIP3    H173700   5.192   3.620   4.940 -1.6172  0.0231  0.8965
17403TIP3    H273701   5.107   3.496   4.926 -0.3741 -0.9018  1.2574
17404TIP3   OH273702   6.529   2.069   0.921  0.7706 -0.7105 -0.6982
17404TIP3    H173703   6.473   2.073   0.998  0.0636 -1.9104 -1.1264
17404TIP3    H273704   6.492   2.133   0.861  0.9659 -0.2004 -0.2809
17405TIP3   OH273705   5.096   4.296  10.451  0.3207 -0.4442 -0.4798
17405TIP3    H173706   5.122   4.382  10.485 -0.4727  0.0289 -1.0378
17405TIP3    H273707   5.177   4.257  10.420  0.4150  0.9979 -2.1965
17406TIP3   OH273708   1.911   6.117   2.739  0.3627 -0.0456  0.4429
17406TIP3    H173709   1.997   6.154   2.761 -1.3149  3.9335  1.1628
17406TIP3    H273710   1.887   6.065   2.816  1.4009  0.1781  0.9372
17407TIP3   OH273711   4.575   4.619   4.960 -0.0252 -0.4671  0.0652
17407TIP3    H173712   4.498   4.574   4.995  0.6820 -2.8887 -1.3140
17407TIP3    H273713   4.618   4.554   4.905  2.1721  1.3247 -0.4588
17408TIP3   OH273714   3.282   2.967  15.072  0.9621  0.0081 -0.1583
17408TIP3    H173715   3.377   2.970  15.079  0.8523  0.2518  1.6359
17408TIP3    H273716   3.255   2.901  15.135 -0.0545 -0.1597 -0.7502
17409TIP3   OH273717   2.438   2.976  15.750  0.7017  0.4755 -0.2045
17409TIP3    H173718   2.493   3.034  15.803  0.5756  2.1226 -1.7533
17409TIP3    H273719   2.501   2.927  15.697  1.0203 -3.1753  3.1178
17410TIP3   OH273720   4.644   2.279  13.523  0.6566  0.4924 -0.8208
17410TIP3    H173721   4.588   2.356  13.535  2.0479  1.6163 -1.2340
17410TIP3    H273722   4.663   2.277  13.429 -0.3392 -1.1007 -1.0285
17411TIP3   OH273723   3.418   0.569  17.186 -0.0543  0.1685  0.1494
17411TIP3    H173724   3.323   0.566  17.191 -0.1134  2.1962  1.1407
17411TIP3    H273725   3.438   0.549  17.094 -1.5404  1.2535 -0.4480
17412TIP3   OH273726   5.835   5.213   2.372  0.2327  0.3458  0.3040
17412TIP3    H173727   5.916   5.240   2.416  2.4912 -1.9618 -2.0561
17412TIP3    H273728   5.797   5.147   2.430 -0.2590  1.7081  1.6106
17413TIP3   OH273729   6.273   2.944  15.236  0.2907 -0.1530 -0.5078
17413TIP3    H173730   6.182   2.933  15.206  0.2208  0.5217 -0.5676
17413TIP3    H273731   6.325   2.899  15.170 -0.1233 -2.6706  0.7973
17414TIP3   OH273732   1.490   0.321  13.733  0.4036 -0.1438 -0.2140
17414TIP3    H173733   1.407   0.321  13.685  1.2731 -0.5657 -1.7979
17414TIP3    H273734   1.467   0.292  13.821 -0.8048 -2.6383 -1.2531
17415TIP3   OH273735   3.051   1.685  10.920 -0.0551  0.1580  0.0812
17415TIP3    H173736   3.061   1.692  11.015  0.3838 -1.5337  0.1962
17415TIP3    H273737   3.030   1.593  10.905 -1.0092  0.5818 -1.4059
17416TIP3   OH273738   3.807   5.436   6.147 -0.2341 -0.4910 -0.5796
17416TIP3    H173739   3.796   5.494   6.222 -0.4103 -0.3192 -0.7367
17416TIP3    H273740   3.839   5.354   6.185 -1.8424 -0.9432 -0.1029
17417TIP3   OH273741   6.420   0.224  13.224 -0.7905 -0.3163  0.0747
17417TIP3    H173742   6.385   0.171  13.295  1.1865  0.5299  1.7978
17417TIP3    H273743   6.513   0.200  13.221 -0.2955  1.5565 -0.4441
17418TIP3   OH273744   4.347   6.241  15.031 -0.4467  0.1457 -0.2279
17418TIP3    H173745   4.395   6.271  14.954  0.2302  0.3302  0.2594
17418TIP3    H273746   4.398   6.167  15.065 -2.7464 -2.5534 -2.1631
17419TIP3   OH273747   6.028   4.313  14.215  0.2943  0.5980 -0.1729
17419TIP3    H173748   6.055   4.289  14.304  0.4224 -1.9853 -0.8506
17419TIP3    H273749   6.098   4.369  14.183  1.2339 -0.0654  0.6654
17420TIP3   OH273750   2.910   0.880   0.542 -0.7821  0.3032 -0.0306
17420TIP3    H173751   2.965   0.830   0.482 -0.6285 -1.0881  1.2146
17420TIP3    H273752   2.899   0.823   0.618 -0.6829  2.1328  1.4329
17421TIP3   OH273753   2.898   0.906   2.907 -0.2968  0.3388  0.4542
17421TIP3    H173754   2.970   0.940   2.961  1.3861  0.1834 -1.5924
17421TIP3    H273755   2.822   0.909   2.965  1.0310  1.9032  2.2511
17422TIP3   OH273756   4.354   0.312   5.044  0.1482 -0.1656  0.1623
17422TIP3    H173757   4.336   0.400   5.012  0.1586 -0.8849 -1.9597
17422TIP3    H273758   4.406   0.326   5.124 -2.0046  1.7523  1.3356
17423TIP3   OH273759   2.220   4.048   1.946  0.2546  0.0621 -0.2831
17423TIP3    H173760   2.305   4.059   1.989  1.0039  1.1331 -1.9427
17423TIP3    H273761   2.173   4.129   1.966  0.2568  0.1667 -0.6954
17424TIP3   OH273762   5.254   1.717   4.273  0.1792  0.4881  0.1708
17424TIP3    H173763   5.229   1.704   4.364 -0.1006 -1.1816 -0.1014
17424TIP3    H273764   5.182   1.768   4.235 -0.2841  0.1720  0.6161
17425TIP3   OH273765   6.583   2.638   5.462  0.6499 -0.9097 -0.2580
17425TIP3    H173766   6.612   2.615   5.550 -0.4342 -1.1868  0.0462
17425TIP3    H273767   6.498   2.595   5.453  1.0251 -1.4169 -1.6835
17426TIP3   OH273768   0.266   2.981   4.591  0.0206  0.2870 -0.0348
17426TIP3    H173769   0.312   2.941   4.664  0.6612  1.0062 -0.0352
17426TIP3    H273770   0.251   3.071   4.618 -0.7445  0.2628 -0.3353
17427TIP3   OH273771   5.944   5.065  11.345  0.2150  0.3842  0.4471
17427TIP3    H173772   5.856   5.100  11.358 -0.4995 -0.6507 -1.2808
17427TIP3    H273773   5.995   5.138  11.309 -0.8004  0.1544 -1.5305
17428TIP3   OH273774   3.532   2.781  17.108 -0.0749 -0.1113 -0.0362
17428TIP3    H173775   3.508   2.823  17.025  0.4904 -0.4659 -0.3846
17428TIP3    H273776   3.627   2.785  17.110 -0.0320 -1.0098  0.1178
17429TIP3   OH273777   4.504   4.196  10.276 -0.3232 -0.0162  0.3955
17429TIP3    H173778   4.533   4.269  10.330 -0.3639  0.8737 -0.7392
17429TIP3    H273779   4.417   4.174  10.308  0.0418 -0.1544  1.3117
17430TIP3   OH273780   0.435   0.262   5.112 -0.2637 -0.0258 -0.4676
17430TIP3    H173781   0.432   0.166   5.116  1.6748 -0.1632 -1.2494
17430TIP3    H273782   0.431   0.282   5.019  0.5036  0.5889 -0.3729
17431TIP3   OH273783   6.401   5.212  14.069  0.3680  0.8533 -0.3903
17431TIP3    H173784   6.332   5.278  14.069 -0.6061 -0.0888 -1.9276
17431TIP3    H273785   6.481   5.260  14.048 -0.1677  1.6742 -0.6065
17432TIP3   OH273786   6.102   2.300   0.575 -0.2398 -0.2906 -0.0780
17432TIP3    H173787   6.147   2.311   0.658 -1.5038  0.4521  0.5363
17432TIP3    H273788   6.086   2.206   0.568 -0.0214 -0.3673  0.4494
17433TIP3   OH273789   0.445   2.595   4.748  0.2382 -0.1967  0.3913
17433TIP3    H173790   0.514   2.565   4.688 -1.0303 -0.0158 -1.2135
17433TIP3    H273791   0.401   2.515   4.775  0.4893 -0.2380  0.6805
17434TIP3   OH273792   4.789   4.007  13.345  0.0862  0.3451 -0.0427
17434TIP3    H173793   4.719   4.041  13.400 -0.2942 -0.8967  0.2777
17434TIP3    H273794   4.853   3.972  13.407 -0.9476 -2.2605 -0.3228
17435TIP3   OH273795   5.539   5.368  15.963  0.6050 -0.3740  0.1574
17435TIP3    H173796   5.489   5.353  16.043 -0.2088 -0.4407 -0.3577
17435TIP3    H273797   5.490   5.434  15.915  1.6762  0.4941  0.2082
17436TIP3   OH273798   5.882   2.857   4.778  0.1112 -0.5233  0.6815
17436TIP3    H173799   5.941   2.806   4.834  0.7579 -3.2827 -2.2376
17436TIP3    H273800   5.821   2.793   4.742 -1.6080  1.4690 -0.1984
17437TIP3   OH273801   0.718   2.181  12.607 -0.0084 -0.4225  0.2210
17437TIP3    H173802   0.683   2.169  12.519 -1.6770  0.4276  0.7210
17437TIP3    H273803   0.799   2.231  12.594 -0.6203  0.3392 -0.7932
17438TIP3   OH273804   5.138   5.014  12.220  0.2626 -0.4216  0.8771
17438TIP3    H173805   5.203   4.990  12.285 -0.4917 -0.2563  1.7083
17438TIP3    H273806   5.145   4.945  12.153  1.8248  0.0304  0.5356
17439TIP3   OH273807   5.319   4.147   3.785  0.6111 -0.6984  1.0869
17439TIP3    H173808   5.414   4.137   3.778  0.4707 -1.9887  0.8629
17439TIP3    H273809   5.305   4.242   3.784  1.9372 -0.4706  1.7245
17440TIP3   OH273810   0.615   6.129   3.030  0.0548 -0.1327  0.3893
17440TIP3    H173811   0.703   6.166   3.025  0.1839 -0.2552  1.5301
17440TIP3    H273812   0.628   6.035   3.023 -0.1352 -0.0908 -0.8879
17441TIP3   OH273813   3.279   5.711   0.295  0.3187 -0.0063  0.4392
17441TIP3    H173814   3.348   5.763   0.334 -0.7174  1.2472  0.6602
17441TIP3    H273815   3.299   5.621   0.321 -0.0974  0.6926  3.5585
17442TIP3   OH273816   3.095   1.902   0.185  0.0506  0.3651 -0.1753
17442TIP3    H173817   3.058   1.824   0.144  0.3651  1.4215 -2.6128
17442TIP3    H273818   3.019   1.957   0.204 -0.1105 -0.2007  0.9046
17443TIP3   OH273819   5.788   3.617  13.724 -0.1719  0.0443  0.1790
17443TIP3    H173820   5.809   3.576  13.640 -2.9331 -1.1774 -0.0260
17443TIP3    H273821   5.809   3.709  13.712  0.2593 -0.2568 -1.5672
17444TIP3   OH273822   0.949   1.622  16.142  0.4191  0.3932  0.6776
17444TIP3    H173823   0.898   1.557  16.095 -0.3947  2.6260 -1.7314
17444TIP3    H273824   1.038   1.613  16.108  0.1055  1.1474 -0.3589
17445TIP3   OH273825   1.754   1.227   3.540  0.1216  0.6527  0.5222
17445TIP3    H173826   1.731   1.172   3.466 -0.0306 -0.2047  1.1897
17445TIP3    H273827   1.670   1.250   3.580  0.0748  2.5639 -0.5520
17446TIP3   OH273828   3.861   1.454   0.427 -0.5169  0.4363  0.2014
17446TIP3    H173829   3.934   1.503   0.464  1.1920 -1.2006 -0.7865
17446TIP3    H273830   3.895   1.419   0.345 -2.3330 -0.6185 -0.1556
17447TIP3   OH273831   6.014   1.232  13.340 -0.0700 -0.1742 -0.1486
17447TIP3    H173832   5.967   1.157  13.376  0.1285 -0.8780 -1.3057
17447TIP3    H273833   6.050   1.276  13.416 -1.0554 -0.6635  0.6281
17448TIP3   OH273834   0.767   6.013   5.226 -0.6335  0.1944 -0.5898
17448TIP3    H173835   0.817   5.944   5.181  0.7311  1.9617 -1.9684
17448TIP3    H273836   0.676   5.982   5.224 -0.4039 -0.5682 -3.2251
17449TIP3   OH273837   5.942   0.857   4.250  0.1420  0.0924  0.5578
17449TIP3    H173838   6.026   0.838   4.293 -0.3349 -1.0518  1.0183
17449TIP3    H273839   5.876   0.824   4.311 -0.6481  0.9179  0.1640
17450TIP3   OH273840   5.258   4.207   4.111 -0.1880 -0.1644 -0.0839
17450TIP3    H173841   5.285   4.177   4.024 -0.5271  0.4069 -0.3959
17450TIP3    H273842   5.216   4.292   4.095  1.8144  1.0829  0.8953
17451TIP3   OH273843   1.128   2.800  11.780 -0.0228 -0.0025 -0.1453
17451TIP3    H173844   1.080   2.720  11.757 -0.9176  0.3301  0.5106
17451TIP3    H273845   1.118   2.807  11.875 -1.0950  1.6036 -0.3444
17452TIP3   OH273846   2.576   5.248  11.173 -0.2171 -0.0534  0.1111
17452TIP3    H173847   2.542   5.254  11.084 -1.2208 -0.7816  0.4274
17452TIP3    H273848   2.594   5.155  11.185 -0.2023  0.0245  0.7149
17453TIP3   OH273849   4.537   5.808  15.075 -0.4808  0.0785 -0.4344
17453TIP3    H173850   4.464   5.751  15.096  0.2053 -0.7603 -0.2577
17453TIP3    H273851   4.504   5.897  15.089 -1.5711 -0.2703 -0.7514
17454TIP3   OH273852   3.371   2.002   2.088  0.1113 -0.1317 -0.1658
17454TIP3    H173853   3.442   2.018   2.151  0.3152  0.5385 -0.5561
17454TIP3    H273854   3.298   2.054   2.121 -1.2947 -3.2151  1.9960
17455TIP3   OH273855   2.019   3.941  11.002  0.0789  0.1241 -0.0165
17455TIP3    H173856   2.106   3.974  10.981  0.7826 -0.6784  1.4820
17455TIP3    H273857   2.003   3.872  10.939  0.9329 -0.3378  0.2578
17456TIP3   OH273858   4.782   5.940   3.597 -0.3358 -0.2945  0.4196
17456TIP3    H173859   4.742   5.854   3.610  0.1339 -0.6092 -0.2228
17456TIP3    H273860   4.824   5.959   3.681 -0.3383 -0.7401  0.5251
17457TIP3   OH273861   5.706   1.357  16.033 -0.2319  0.1506  0.4275
17457TIP3    H173862   5.774   1.423  16.021 -0.9875  1.0750  1.0935
17457TIP3    H273863   5.657   1.386  16.110 -0.1784 -1.5422  1.1545
17458TIP3   OH273864   5.700   1.454  12.802 -0.6991  0.4432  0.8472
17458TIP3    H173865   5.713   1.438  12.896  1.2344 -0.7010  0.4484
17458TIP3    H273866   5.751   1.533  12.784  1.6568 -1.1087  0.2440
17459TIP3   OH273867   5.435   5.845  15.209 -0.0133 -0.8597  0.3115
17459TIP3    H173868   5.342   5.839  15.232 -0.0317  0.5652  0.6653
17459TIP3    H273869   5.477   5.778  15.263 -0.6876 -0.7478  0.9974
17460TIP3   OH273870   2.621   5.548   0.241 -0.1451  0.0639  0.0717
17460TIP3    H173871   2.646   5.549   0.149  0.4979 -0.2015  0.2317
17460TIP3    H273872   2.656   5.630   0.276 -1.5476  0.7977 -0.1985
17461TIP3   OH273873   1.096   0.489   2.474  0.5477 -0.4070  0.3037
17461TIP3    H173874   1.165   0.429   2.499  1.1958 -0.8698 -2.2634
17461TIP3    H273875   1.071   0.462   2.386 -3.0667 -0.3585  1.1541
17462TIP3   OH273876   1.630   2.548  11.410  0.9266 -0.5300 -0.5801
17462TIP3    H173877   1.620   2.486  11.337  1.8406  0.1232 -1.2807
17462TIP3    H273878   1.637   2.493  11.488 -0.7799 -1.2295 -0.8716
17463TIP3   OH273879   2.737   2.785   5.282 -0.3960 -0.5640  0.3317
17463TIP3    H173880   2.699   2.743   5.205 -1.1617 -1.4111  1.1429
17463TIP3    H273881   2.795   2.717   5.319  0.0156 -0.1434  0.4670
17464TIP3   OH273882   2.738   4.619  13.127  0.0306  0.5276  0.3812
17464TIP3    H173883   2.784   4.613  13.211  1.3922 -0.3777 -0.3989
17464TIP3    H273884   2.742   4.531  13.090 -1.2433  0.7291 -0.3058
17465TIP3   OH273885   1.051   4.798   5.316 -1.0061  0.4085  0.2981
17465TIP3    H173886   1.016   4.861   5.252 -2.0575 -2.1934 -1.9137
17465TIP3    H273887   1.145   4.795   5.298 -0.7788  1.9374  1.0680
17466TIP3   OH273888   4.904   6.660   5.027  0.2695  0.2398 -0.5804
17466TIP3    H173889   4.918   6.584   5.083  1.2605  2.1086  1.8606
17466TIP3    H273890   4.890   6.622   4.940  1.2101 -2.6987  0.4079
17467TIP3   OH273891   6.568   1.810  13.901  0.8788  0.1356 -0.6787
17467TIP3    H173892   6.602   1.897  13.924 -2.5242  1.6902 -0.9413
17467TIP3    H273893   6.585   1.802  13.807  0.4351  0.9539 -0.8404
17468TIP3   OH273894   0.441   4.883  14.662  0.2797  0.4019  0.3800
17468TIP3    H173895   0.355   4.914  14.690  0.0532  1.0867 -0.9542
17468TIP3    H273896   0.434   4.876  14.567  1.1539 -1.2790  0.4074
17469TIP3   OH273897   0.224   2.812  13.927 -0.1865  0.4803  0.3835
17469TIP3    H173898   0.215   2.900  13.964 -0.8616  1.3038 -1.5978
17469TIP3    H273899   0.177   2.756  13.989 -1.4404  1.8026  0.7202
17470TIP3   OH273900   5.345   3.369  15.929 -0.1974  0.1620 -0.0061
17470TIP3    H173901   5.330   3.299  15.866  0.0173 -0.4210  0.5776
17470TIP3    H273902   5.258   3.391  15.962 -0.0822 -1.4447  1.4987
17471TIP3   OH273903   2.020   4.727  12.974 -0.5050 -0.1959 -0.4211
17471TIP3    H173904   2.092   4.689  12.922 -0.6620 -1.7201  0.4160
17471TIP3    H273905   2.022   4.678  13.056 -1.2508  1.1143  0.4004
17472TIP3   OH273906   4.681   3.860  11.208 -0.6059 -0.0819  0.2028
17472TIP3    H173907   4.624   3.929  11.175 -0.3481  0.1949  0.3313
17472TIP3    H273908   4.690   3.799  11.135 -1.1098 -0.1563  0.2016
17473TIP3   OH273909   5.253   3.931   1.130  0.5741  0.3825 -0.0989
17473TIP3    H173910   5.291   3.972   1.053 -0.6215  0.5850 -0.6078
17473TIP3    H273911   5.275   3.838   1.122 -0.1311  0.2907 -1.0558
17474TIP3   OH273912   5.352   3.194  12.451 -0.6478  0.2157 -0.8127
17474TIP3    H173913   5.297   3.251  12.504  1.6418  0.7444  1.2199
17474TIP3    H273914   5.316   3.106  12.465 -1.3885  0.6155 -0.1053
17475TIP3   OH273915   2.016   0.770  16.980  0.8129 -0.3063 -0.0524
17475TIP3    H173916   2.104   0.752  17.013  0.2379 -0.2567  1.6008
17475TIP3    H273917   1.968   0.802  17.056 -1.1629 -2.0909 -0.4607
17476TIP3   OH273918   2.782   5.660   0.673  0.1522  0.2523 -0.1488
17476TIP3    H173919   2.791   5.737   0.616 -0.7437 -0.9876 -2.1080
17476TIP3    H273920   2.818   5.588   0.621 -0.7875 -0.9656  0.8279
17477TIP3   OH273921   1.050   4.901  15.225 -0.1622 -0.1146 -0.5246
17477TIP3    H173922   1.132   4.877  15.181  1.0777 -0.5674  1.9071
17477TIP3    H273923   1.073   4.974  15.281 -1.9098  0.9993 -1.1710
17478TIP3   OH273924   4.529   2.561  16.161 -0.4986  0.3555 -0.3576
17478TIP3    H173925   4.617   2.523  16.166 -0.2153  0.8982 -1.0262
17478TIP3    H273926   4.543   2.648  16.125 -1.2764  0.5960 -0.0880
17479TIP3   OH273927   5.609   3.706   3.155 -0.1234 -0.1984 -0.4586
17479TIP3    H173928   5.543   3.774   3.165 -0.4217  0.0902 -3.3744
17479TIP3    H273929   5.693   3.751   3.166 -0.3069 -0.3384  2.0793
17480TIP3   OH273930   0.758   2.475  17.039 -0.0573  0.3484 -0.3902
17480TIP3    H173931   0.755   2.380  17.027  0.0450  0.5186 -2.0384
17480TIP3    H273932   0.805   2.507  16.962 -0.9485  1.8152 -0.3609
17481TIP3   OH273933   1.498   1.333  12.906 -0.1410 -0.6877 -0.6203
17481TIP3    H173934   1.442   1.259  12.927 -1.6949  0.3940 -0.8221
17481TIP3    H273935   1.469   1.362  12.820 -0.5920  1.0754  0.0835
17482TIP3   OH273936   3.096   2.746   1.548 -0.0320 -0.2255  0.0532
17482TIP3    H173937   3.079   2.814   1.612 -0.4276 -0.1469 -0.1320
17482TIP3    H273938   3.018   2.744   1.493 -0.0323 -0.8441  0.0695
17483TIP3   OH273939   0.580   1.283  12.510 -0.1998 -0.5234  0.4146
17483TIP3    H173940   0.643   1.254  12.444  1.4799 -2.4156  2.6325
17483TIP3    H273941   0.605   1.373  12.530  0.3076 -0.4739 -0.4140
17484TIP3   OH273942   6.589   6.546  13.512 -0.1694 -0.4230 -0.3868
17484TIP3    H173943   6.592   6.454  13.485 -1.3301 -0.3849 -0.7133
17484TIP3    H273944   6.648   6.552  13.587  0.6655 -1.2228 -0.9660
17485TIP3   OH273945   5.743   1.724   3.714  0.0633 -0.0302 -0.1001
17485TIP3    H173946   5.650   1.713   3.697 -0.0191 -0.3889  0.5611
17485TIP3    H273947   5.748   1.786   3.787  0.2346 -1.8464  1.4916
17486TIP3   OH273948   4.347   3.032  14.131 -0.3771  0.1989  0.1085
17486TIP3    H173949   4.420   3.032  14.192 -1.9490  1.0416  2.1363
17486TIP3    H273950   4.285   2.969  14.168 -1.3689  0.7268 -0.6030
17487TIP3   OH273951   4.647   3.426   2.711  0.3543 -0.1903 -0.0598
17487TIP3    H173952   4.649   3.423   2.807  0.1529  2.1950  0.0599
17487TIP3    H273953   4.555   3.436   2.689  0.5486  0.8387 -0.4222
17488TIP3   OH273954   6.707   0.079   4.280 -0.2430  0.5030 -0.1204
17488TIP3    H173955   6.752   0.032   4.350 -0.2364  0.0241 -0.4422
17488TIP3    H273956   6.621   0.100   4.316 -1.6656 -2.9452 -1.1680
17489TIP3   OH273957   2.875   1.538   0.760  0.2880  0.4836  0.2772
17489TIP3    H173958   2.797   1.591   0.775 -0.4094  0.2811 -2.2081
17489TIP3    H273959   2.842   1.458   0.720  1.7265  0.1510 -0.2952
17490TIP3   OH273960   3.899   5.865   0.949 -0.2354 -0.0323  0.2188
17490TIP3    H173961   3.857   5.883   1.033 -2.5170  0.3445 -0.9188
17490TIP3    H273962   3.958   5.791   0.966  0.2009  0.7555  2.3451
17491TIP3   OH273963   0.775   6.191  13.919 -0.5275  0.2768 -0.3298
17491TIP3    H173964   0.744   6.108  13.957  0.2865  1.0293  2.1640
17491TIP3    H273965   0.797   6.245  13.995  1.9617  1.6485 -1.9010
17492TIP3   OH273966   1.684   1.331  11.248 -0.8241 -0.0863 -0.1532
17492TIP3    H173967   1.766   1.296  11.285 -1.3477 -2.2117 -0.8350
17492TIP3    H273968   1.655   1.397  11.311  0.4934 -0.5764  1.0260
17493TIP3   OH273969   4.155   0.607   0.386  0.1376 -0.2329  0.5721
17493TIP3    H173970   4.173   0.699   0.403  0.7500 -0.0966 -0.6974
17493TIP3    H273971   4.225   0.579   0.327 -0.6482 -1.2198  0.0681
17494TIP3   OH273972   1.845   0.872  16.309  0.1614  0.3632  0.0488
17494TIP3    H173973   1.849   0.810  16.382  1.7720  1.0957  0.6270
17494TIP3    H273974   1.752   0.893  16.301 -0.6300 -2.8502 -0.8397
17495TIP3   OH273975   3.493   3.827   0.670 -0.0875 -0.3611 -0.0899
17495TIP3    H173976   3.527   3.868   0.750 -0.2372  0.4619 -0.4391
17495TIP3    H273977   3.404   3.862   0.661  0.3609  0.5503 -1.2892
17496TIP3   OH273978   5.403   1.422  17.149  0.1983  0.3476 -0.4254
17496TIP3    H173979   5.405   1.385  17.061 -0.4699  0.1904 -0.3735
17496TIP3    H273980   5.354   1.503  17.141 -1.1917 -0.4186  0.0810
17497TIP3   OH273981   5.226   4.348  12.124  0.0280  0.0060  0.7843
17497TIP3    H173982   5.170   4.353  12.047  0.8973 -1.3564  0.0153
17497TIP3    H273983   5.238   4.439  12.152  0.5127  0.6261 -1.2927
17498TIP3   OH273984   6.657   0.744   0.817  0.2042 -0.1634  0.4807
17498TIP3    H173985   6.694   0.690   0.887 -0.1474  0.3103  1.0392
17498TIP3    H273986   6.570   0.768   0.849 -0.1678 -0.3688 -0.3478
17499TIP3   OH273987   3.986   5.993   1.452  0.8766 -0.4442 -0.0443
17499TIP3    H173988   4.070   5.952   1.473  0.7956 -0.9042 -0.5925
17499TIP3    H273989   4.008   6.085   1.436  1.3193 -0.6158 -0.4513
17500TIP3   OH273990   6.494   1.626  17.274  0.0263  0.3605  0.2449
17500TIP3    H173991   6.411   1.609  17.318 -0.0806 -0.4512 -0.2490
17500TIP3    H273992   6.497   1.721  17.263 -1.3826  0.3175 -0.7693
17501TIP3   OH273993   5.382   5.242  15.733 -0.4878 -0.1434  0.2421
17501TIP3    H173994   5.295   5.222  15.768 -1.4506  0.8224 -1.4422
17501TIP3    H273995   5.436   5.260  15.810 -1.9437 -0.1236  1.2941
17502TIP3   OH273996   0.615   5.129   2.940  0.1357  0.2143 -0.2028
17502TIP3    H173997   0.532   5.170   2.962  0.0051 -1.1789  2.3350
17502TIP3    H273998   0.613   5.045   2.987  2.2202 -0.6774 -1.5558
17503TIP3   OH273999   6.020   2.479  14.610  0.2184 -0.0866 -0.5133
17503TIP3    H174000   6.090   2.502  14.549 -0.9149  0.9313 -1.4840
17503TIP3    H274001   5.976   2.404  14.569 -0.1416  0.1853 -0.6283
17504TIP3   OH274002   4.133   0.905  11.547 -0.1954 -0.4139 -0.2912
17504TIP3    H174003   4.201   0.969  11.524 -0.9466  0.3024 -0.5486
17504TIP3    H274004   4.181   0.834  11.589  0.8419 -0.3888 -1.3734
17505TIP3   OH274005   3.520   1.267  12.372 -0.5218  0.2143 -0.7669
17505TIP3    H174006   3.596   1.267  12.314  0.9185 -0.0516  1.0088
17505TIP3    H274007   3.500   1.175  12.386  2.6812 -0.1783  3.3082
17506TIP3   OH274008   6.051   6.681   3.943  0.0912 -0.1771  0.5292
17506TIP3    H174009   5.984   6.746   3.969  0.7659  1.2910 -1.1788
17506TIP3    H274010   6.005   6.622   3.884  0.2103  0.6675 -0.4269
17507TIP3   OH274011   3.805   0.195   1.536 -0.3641 -0.1980 -0.0896
17507TIP3    H174012   3.876   0.164   1.480 -0.4377 -0.3550 -0.0952
17507TIP3    H274013   3.797   0.128   1.604 -0.8000 -0.3948 -0.3364
17508TIP3   OH274014   6.186   4.064  15.018  0.0843  0.7750  0.6712
17508TIP3    H174015   6.139   4.068  15.101  0.4691 -2.2824  1.1435
17508TIP3    H274016   6.126   4.021  14.957  0.8250  0.3936  0.1849
17509TIP3   OH274017   5.295   2.316  14.018 -0.4915  0.2080 -0.0048
17509TIP3    H174018   5.301   2.401  13.975 -0.3864 -0.7984 -2.1503
17509TIP3    H274019   5.386   2.293  14.037 -0.2368 -0.5583 -1.9322
17510TIP3   OH274020   2.312   6.222  15.928 -0.1272  0.3969  0.3160
17510TIP3    H174021   2.377   6.235  15.859  0.4039 -1.0333  0.5138
17510TIP3    H274022   2.303   6.308  15.969 -0.3678  1.2518 -1.4290
17511TIP3   OH274023   6.112   6.072  16.842  0.3067 -0.0581 -0.4555
17511TIP3    H174024   6.130   6.038  16.930  1.3647 -1.0985 -1.0412
17511TIP3    H274025   6.174   6.144  16.831 -0.1890  0.4188 -0.1603
17512TIP3   OH274026   0.177   5.649   1.546  0.0950 -0.2233  0.0488
17512TIP3    H174027   0.227   5.621   1.469  0.4353 -0.2662  0.2833
17512TIP3    H274028   0.243   5.683   1.606 -0.4224  2.5084 -0.7936
17513TIP3   OH274029   6.557   5.430  12.016 -0.0631 -0.0709  0.2225
17513TIP3    H174030   6.526   5.372  11.947 -1.6485  0.2892  0.5989
17513TIP3    H274031   6.561   5.516  11.975 -0.4973  0.0522  0.4375
17514TIP3   OH274032   5.005   1.030   3.821 -0.1016 -0.1927  0.3227
17514TIP3    H174033   5.089   1.038   3.775  0.8068 -2.6129  1.3861
17514TIP3    H274034   5.010   1.095   3.891 -0.2944  1.5065 -1.1434
17515TIP3   OH274035   3.318   1.987   0.298  0.5307 -0.0468 -0.1944
17515TIP3    H174036   3.379   1.921   0.331 -1.3080 -1.6288  0.2948
17515TIP3    H274037   3.253   1.936   0.249 -1.3109  1.2888  0.7275
17516TIP3   OH274038   3.159   2.255   4.162  0.0846  0.2100  0.1082
17516TIP3    H174039   3.243   2.210   4.167  1.3050  2.3422 -0.3254
17516TIP3    H274040   3.160   2.317   4.235 -0.5886  1.0797 -0.6021
17517TIP3   OH274041   2.191   0.958  15.315  0.4534  0.0806  0.3267
17517TIP3    H174042   2.169   0.875  15.357  2.9400 -0.9037 -0.1393
17517TIP3    H274043   2.150   1.024  15.371 -0.6642 -1.3912  1.3377
17518TIP3   OH274044   0.025   5.181  17.318 -0.3027 -0.1585 -0.8948
17518TIP3    H174045   0.037   5.110  17.254  1.9130 -0.7332  0.0795
17518TIP3    H274046   0.021   5.261  17.264 -1.5681 -0.8641 -1.9142
17519TIP3   OH274047   1.163   5.972   4.544  0.1321  0.5646  0.0474
17519TIP3    H174048   1.234   5.919   4.581  0.2290  0.4117 -0.3434
17519TIP3    H274049   1.138   6.032   4.614  0.1701  0.1473  0.4256
17520TIP3   OH274050   3.577   3.122  15.173 -0.1486 -0.2088 -0.0922
17520TIP3    H174051   3.668   3.137  15.149 -0.0803 -2.6661 -1.6856
17520TIP3    H274052   3.531   3.202  15.145  1.0869 -0.0829 -1.9341
17521TIP3   OH274053   1.318   6.095   4.352  0.7394  0.4738  0.1149
17521TIP3    H174054   1.291   6.063   4.438 -1.2112  0.0510 -0.6080
17521TIP3    H274055   1.297   6.024   4.292  1.2128  1.1221 -0.8398
17522TIP3   OH274056   2.259   1.978  15.586  0.6146 -0.4311 -0.0169
17522TIP3    H174057   2.291   2.040  15.651  0.5388 -0.2783 -0.1235
17522TIP3    H274058   2.280   1.892  15.622  1.4009 -0.3286 -0.2196
17523TIP3   OH274059   0.601   0.877   0.800  0.0707  0.1489  0.3580
17523TIP3    H174060   0.562   0.964   0.811 -3.5841 -1.0041 -1.7807
17523TIP3    H274061   0.663   0.888   0.728 -0.6598  0.9244 -0.1675
17524TIP3   OH274062   0.834   3.648  16.435  0.3952 -0.0133  0.7098
17524TIP3    H174063   0.856   3.703  16.360 -1.0513 -1.7931 -1.1376
17524TIP3    H274064   0.739   3.642  16.432  0.4222 -1.2940  1.8482
17525TIP3   OH274065   1.851   5.884   0.361  0.2938  0.1223  0.0357
17525TIP3    H174066   1.946   5.880   0.373  0.2671 -1.1046 -0.0329
17525TIP3    H274067   1.815   5.856   0.445  0.0168 -0.8009 -0.3760
17526TIP3   OH274068   6.653   6.309   2.042 -0.0090 -0.2963  0.5702
17526TIP3    H174069   6.587   6.240   2.052  1.7301 -2.0172  0.8530
17526TIP3    H274070   6.667   6.315   1.947 -1.0885  0.6607  0.4407
17527TIP3   OH274071   5.695   0.792  16.082  0.1857 -0.4500 -0.3385
17527TIP3    H174072   5.678   0.881  16.051 -1.1421 -0.8067 -0.7091
17527TIP3    H274073   5.733   0.803  16.169  1.6763  0.5029 -1.0595
17528TIP3   OH274074   1.515   3.348   4.081 -0.3962 -0.1935 -0.1076
17528TIP3    H174075   1.523   3.357   3.986 -0.0863 -0.4669 -0.1078
17528TIP3    H274076   1.551   3.430   4.116 -2.6365  0.9512 -0.2906
17529TIP3   OH274077   2.963   1.054   2.346 -0.0836 -0.8532 -0.1870
17529TIP3    H174078   2.970   1.041   2.440 -0.0104 -0.9696 -0.2081
17529TIP3    H274079   3.049   1.028   2.312 -0.2278 -1.1508 -0.3243
17530TIP3   OH274080   0.192   6.532   2.384 -0.0235 -0.4188  0.0073
17530TIP3    H174081   0.113   6.482   2.402  0.2742 -0.9462 -0.1330
17530TIP3    H274082   0.165   6.597   2.319 -0.6922  0.3793  1.0499
17531TIP3   OH274083   4.385   2.735   3.226  0.4702 -0.2765  0.5155
17531TIP3    H174084   4.381   2.744   3.322 -0.3038  1.6520  0.3325
17531TIP3    H274085   4.295   2.748   3.197  0.5847 -1.5378 -0.4515
17532TIP3   OH274086   4.713   2.810  11.495  0.5369  0.3802  0.1886
17532TIP3    H174087   4.704   2.888  11.439  1.9852  0.8894  0.6274
17532TIP3    H274088   4.772   2.753  11.447  0.2289 -0.0449  0.3113
17533TIP3   OH274089   1.922   1.986  17.025 -0.1130  0.3021  0.0968
17533TIP3    H174090   1.993   2.022  17.077 -0.4296  1.5045 -0.2655
17533TIP3    H274091   1.845   2.037  17.051 -0.3701  0.5928 -1.1666
17534TIP3   OH274092   0.663   2.465   5.202  0.2995 -0.1324 -0.1134
17534TIP3    H174093   0.617   2.507   5.129 -2.4006 -2.0710  0.2991
17534TIP3    H274094   0.627   2.506   5.280  0.1142 -0.8452  0.1903
17535TIP3   OH274095   1.827   1.467  15.173  0.2593  0.4033 -0.6226
17535TIP3    H174096   1.856   1.405  15.107 -0.3494 -0.1499 -0.3814
17535TIP3    H274097   1.827   1.552  15.129 -0.0970  0.0456 -1.3213
17536TIP3   OH274098   1.811   6.209  11.291  0.3387  0.0643 -0.1685
17536TIP3    H174099   1.757   6.270  11.240  2.1481  1.7483 -0.1919
17536TIP3    H274100   1.853   6.154  11.226  0.1134  0.0124 -0.2722
17537TIP3   OH274101   2.528   5.170   2.673  0.0086  0.0186  0.2105
17537TIP3    H174102   2.450   5.211   2.636 -0.4992 -1.1529 -0.0805
17537TIP3    H274103   2.504   5.153   2.765  0.4262  0.8601  0.4843
17538TIP3   OH274104   6.363   0.608   4.824 -0.0175  0.3274  0.2555
17538TIP3    H174105   6.271   0.624   4.804  0.0711 -0.0692 -0.5062
17538TIP3    H274106   6.411   0.643   4.749  0.6994  3.2866  1.9276
17539TIP3   OH274107   4.802   4.721  12.956 -0.3899 -0.1100  0.8621
17539TIP3    H174108   4.826   4.715  12.864 -0.2778 -2.5562  0.9887
17539TIP3    H274109   4.714   4.683  12.961 -2.1011  3.4866  1.2747
17540TIP3   OH274110   1.097   4.594   4.275 -0.2268  0.3301  0.4817
17540TIP3    H174111   1.109   4.516   4.330  0.3440  0.0260 -0.0623
17540TIP3    H274112   1.007   4.621   4.292 -0.4565 -0.4812  0.6379
17541TIP3   OH274113   6.424   6.719  16.905 -0.1415 -0.4401 -0.1076
17541TIP3    H174114   6.439   6.808  16.871  3.3586 -1.0993 -0.6269
17541TIP3    H274115   6.431   6.728  17.000 -0.3118 -0.0890 -0.1248
17542TIP3   OH274116   5.647   0.306  15.647 -0.2380 -0.2863  0.4704
17542TIP3    H174117   5.623   0.397  15.667  0.7478 -0.2935  1.8911
17542TIP3    H274118   5.566   0.265  15.619 -1.2255  0.4451  2.1394
17543TIP3   OH274119   3.936   2.626  13.115  0.7181 -0.1603 -0.0456
17543TIP3    H174120   3.992   2.697  13.148  0.5713 -0.4526  0.8520
17543TIP3    H274121   3.864   2.671  13.071  0.5662  0.2584  0.6157
17544TIP3   OH274122   4.558   0.979   0.013  0.0976  0.0613 -0.3005
17544TIP3    H174123   4.531   1.061   0.054 -0.4685 -0.3936  0.2572
17544TIP3    H274124   4.653   0.977   0.023  0.2026  0.9618 -0.9317
17545TIP3   OH274125   3.255   5.456   4.710 -0.2574 -0.0382 -0.1691
17545TIP3    H174126   3.265   5.454   4.805 -0.8863 -1.3569 -0.1204
17545TIP3    H274127   3.311   5.529   4.683 -0.4889  0.7119  1.2512
17546TIP3   OH274128   1.822   4.536  13.770  0.0856  0.1436  0.3739
17546TIP3    H174129   1.778   4.618  13.747 -1.5895 -0.5694  0.9211
17546TIP3    H274130   1.818   4.532  13.865  0.5569 -0.3845  0.3788
17547TIP3   OH274131   5.247   2.293   0.873 -0.0844 -0.9232 -0.0400
17547TIP3    H174132   5.247   2.310   0.967  1.3027 -1.1335  0.0183
17547TIP3    H274133   5.271   2.376   0.833  0.7284 -1.1831 -0.1113
17548TIP3   OH274134   1.056   0.054  15.186  0.4348 -0.6142  0.7870
17548TIP3    H174135   1.104   0.131  15.155 -0.9787  0.1363  0.3759
17548TIP3    H274136   1.000   0.029  15.112  0.2179 -1.4863  1.2307
17549TIP3   OH274137   3.673   4.252   5.160 -0.0024  0.1419 -0.3184
17549TIP3    H174138   3.670   4.311   5.236 -0.0163  0.8258 -0.8381
17549TIP3    H274139   3.582   4.232   5.141 -0.0151  0.2127 -0.3338
17550TIP3   OH274140   5.372   5.076   3.085 -0.2180 -0.0516 -0.5211
17550TIP3    H174141   5.303   5.079   3.151 -0.8641  2.8126 -1.1748
17550TIP3    H274142   5.355   4.995   3.037 -2.6647  0.1437 -0.1447
17551TIP3   OH274143   4.119   0.382  13.826  0.2073 -0.5859  0.4529
17551TIP3    H174144   4.058   0.374  13.752  0.3747  2.4613 -0.1776
17551TIP3    H274145   4.086   0.457  13.875  2.9485  0.6944  0.5337
17552TIP3   OH274146   6.712   1.375   2.358 -0.4308 -0.1144 -0.3390
17552TIP3    H174147   6.647   1.333   2.303 -1.4200  0.7361  0.1368
17552TIP3    H274148   6.669   1.455   2.389  0.6094  0.1486  0.4978
17553TIP3   OH274149   3.441   5.499  11.269 -0.0900 -0.4215  0.1008
17553TIP3    H174150   3.495   5.486  11.346 -0.2817  0.8058  0.4729
17553TIP3    H274151   3.385   5.573  11.292  0.1389  0.2353 -1.3684
17554TIP3   OH274152   1.685   4.789   2.406  0.1401 -0.7068 -0.1556
17554TIP3    H174153   1.727   4.832   2.331  3.3047 -1.6422  0.9242
17554TIP3    H274154   1.688   4.696   2.385  3.0898 -1.2145  1.8798
17555TIP3   OH274155   2.940   5.003   0.653  0.5229  0.4885 -0.4873
17555TIP3    H174156   2.965   4.926   0.603  0.9362  1.2121 -1.4183
17555TIP3    H274157   2.845   5.000   0.657  0.5375 -0.0487 -0.5480
17556TIP3   OH274158   3.654   5.743  16.573 -0.0156 -0.2296  0.3348
17556TIP3    H174159   3.653   5.837  16.555  0.5104 -0.0700  1.0992
17556TIP3    H274160   3.564   5.722  16.597 -0.1878  0.0248 -0.0757
17557TIP3   OH274161   6.726   5.404   5.065 -0.1470 -0.2824  0.5695
17557TIP3    H174162   6.801   5.367   5.019 -0.6670 -1.5944  0.7201
17557TIP3    H274163   6.671   5.441   4.996  0.2553 -0.0309  0.3833
17558TIP3   OH274164   3.876   2.347   5.181 -0.3266  0.1128 -0.4641
17558TIP3    H174165   3.966   2.314   5.172 -0.2838 -0.0496  0.4848
17558TIP3    H274166   3.874   2.387   5.268 -1.0164  0.6229 -0.7060
17559TIP3   OH274167   0.036   6.395   1.243 -0.5190  0.5431 -0.1142
17559TIP3    H174168  -0.005   6.401   1.157 -0.0048 -3.6935 -0.8634
17559TIP3    H274169  -0.037   6.397   1.305 -1.2019  0.1355 -0.8998
17560TIP3   OH274170   5.425   5.277   5.719  0.0623 -0.0931 -0.1190
17560TIP3    H174171   5.338   5.317   5.712  0.3638  0.2771 -2.3489
17560TIP3    H274172   5.486   5.345   5.690  1.3251  0.1652  2.7876
17561TIP3   OH274173   1.701   3.991   0.798  0.1353  0.0488  0.5205
17561TIP3    H174174   1.777   3.934   0.785  0.4383  0.5941 -0.1615
17561TIP3    H274175   1.739   4.076   0.820 -0.1448  0.9747 -2.1901
17562TIP3   OH274176   3.723   0.190   5.593  0.8593 -0.1308 -0.0296
17562TIP3    H174177   3.684   0.260   5.541 -1.0127  0.2991  1.8461
17562TIP3    H274178   3.672   0.112   5.571  1.3023 -0.3645 -0.2394
17563TIP3   OH274179   4.982   0.163  11.887 -0.0438 -0.2564 -0.3905
17563TIP3    H174180   5.066   0.119  11.876  0.3922  0.4595  0.0177
17563TIP3    H274181   4.985   0.200  11.975 -0.1457  1.0891 -0.9194
17564TIP3   OH274182   3.766   4.241   1.023  0.2868  0.3842  0.2887
17564TIP3    H174183   3.858   4.237   0.999  0.9131  1.3190  2.2962
17564TIP3    H274184   3.766   4.279   1.111 -2.0009  0.1412  0.4519
17565TIP3   OH274185   0.312   1.731   2.877  0.0858  0.1994 -0.8141
17565TIP3    H174186   0.229   1.700   2.840 -0.9964  1.1654  0.6405
17565TIP3    H274187   0.326   1.675   2.954  0.5752  0.3057 -0.8211
17566TIP3   OH274188   0.093   1.445   3.873 -0.2062  0.1722 -0.4927
17566TIP3    H174189   0.078   1.403   3.957 -0.5316  1.7490  0.2716
17566TIP3    H274190   0.183   1.476   3.877  0.3978 -1.3257 -1.4813
17567TIP3   OH274191   5.278   6.644  16.507  1.0410  0.2222  0.0935
17567TIP3    H174192   5.373   6.647  16.498  1.0739  1.5048  0.5509
17567TIP3    H274193   5.249   6.577  16.446  2.1779  0.3682 -0.6304
17568TIP3   OH274194   2.489   0.744  16.009  0.0081  0.5560 -0.2438
17568TIP3    H174195   2.557   0.709  16.067  1.0268 -1.4523 -2.4946
17568TIP3    H274196   2.530   0.820  15.967  0.6779 -0.2630 -1.1132
17569TIP3   OH274197   4.234   2.170  12.204  0.4363 -0.5498  0.0158
17569TIP3    H174198   4.300   2.175  12.134  1.0854 -1.1595  0.5614
17569TIP3    H274199   4.280   2.202  12.282 -0.1789 -0.1823  0.2312
17570TIP3   OH274200   3.944   4.258  15.190  0.5407 -0.2683  0.4482
17570TIP3    H174201   3.932   4.167  15.215  0.8051 -0.6664 -0.8147
17570TIP3    H274202   3.950   4.257  15.094  0.1912  1.1151  0.3818
17571TIP3   OH274203   4.137   2.857   6.709  0.2961  0.1547  0.2735
17571TIP3    H174204   4.096   2.941   6.688  3.2738  1.4290 -1.0919
17571TIP3    H274205   4.169   2.868   6.799 -0.4104 -0.0157  0.5492
17572TIP3   OH274206   0.362   5.360  11.783  0.9041  0.3919  0.1238
17572TIP3    H174207   0.436   5.302  11.765  0.9825 -0.0783  1.8334
17572TIP3    H274208   0.329   5.384  11.696  2.6620  0.1163 -0.6589
17573TIP3   OH274209   5.624   4.257   1.013 -0.6899  0.2993  0.6781
17573TIP3    H174210   5.560   4.311   1.059 -1.1661  0.8844 -0.6338
17573TIP3    H274211   5.572   4.189   0.970 -0.4212  0.6287 -0.1922
17574TIP3   OH274212   1.228   4.588  15.943 -0.4102 -0.1076  0.0664
17574TIP3    H174213   1.260   4.513  15.893 -1.0028 -0.4409  0.1724
17574TIP3    H274214   1.307   4.634  15.971 -0.0476  1.5883 -3.3421
17575TIP3   OH274215   1.416   6.476   2.859  0.3985  0.1191  0.5210
17575TIP3    H174216   1.372   6.560   2.848 -0.1146 -0.1032  0.8275
17575TIP3    H274217   1.488   6.478   2.796 -0.5181  0.1843 -0.5452
17576TIP3   OH274218   2.472   0.330  11.176  0.1725 -0.2008 -0.2730
17576TIP3    H174219   2.388   0.287  11.156  0.5454 -1.0985  0.0534
17576TIP3    H274220   2.453   0.423  11.167 -0.8572 -0.3909 -0.2398
17577TIP3   OH274221   2.024   5.854  13.582 -0.1562  0.4138 -0.2168
17577TIP3    H174222   1.994   5.903  13.505  0.2926  0.2553 -0.4921
17577TIP3    H274223   1.969   5.775  13.583 -1.0707  1.0263  0.3811
17578TIP3   OH274224   5.341   4.838   5.920  0.3031 -0.1864  0.3453
17578TIP3    H174225   5.337   4.867   6.011  1.2170 -0.3624  0.4509
17578TIP3    H274226   5.253   4.806   5.901  0.6026 -2.0663  1.8325
17579TIP3   OH274227   3.500   5.941  13.715  0.3577 -0.3446  0.4005
17579TIP3    H174228   3.421   5.994  13.716  1.3207  1.1310  0.5410
17579TIP3    H274229   3.470   5.854  13.743 -1.7491 -0.6680 -2.4650
17580TIP3   OH274230   5.022   0.806  13.196  0.1670 -0.1299 -0.1719
17580TIP3    H174231   4.986   0.801  13.285 -1.6289 -3.8682 -0.9246
17580TIP3    H274232   5.108   0.848  13.208 -0.5067  0.6298  3.0919
17581TIP3   OH274233   1.513   2.467  14.037 -0.6201 -0.4011  0.4304
17581TIP3    H174234   1.518   2.561  14.023 -1.7748 -0.2786  0.7455
17581TIP3    H274235   1.580   2.450  14.104 -0.3451  0.1779  0.3111
17582TIP3   OH274236   3.119   5.696  14.818 -0.2107 -0.0230 -0.3210
17582TIP3    H174237   3.203   5.675  14.858  0.9178  0.5192 -2.2942
17582TIP3    H274238   3.082   5.610  14.795 -0.8832 -0.3423  1.7794
17583TIP3   OH274239   3.755   2.519  17.430 -0.3847 -0.2156  0.1243
17583TIP3    H174240   3.745   2.598  17.378  0.0868 -0.5458 -0.4850
17583TIP3    H274241   3.679   2.518  17.488 -0.9673  0.1121 -0.6186
17584TIP3   OH274242   2.432   3.874   4.371  0.3147 -0.4222  0.3401
17584TIP3    H174243   2.343   3.904   4.390 -0.0242 -0.3847 -1.1614
17584TIP3    H274244   2.489   3.936   4.416 -0.4087  0.6744 -0.2106
17585TIP3   OH274245   3.542   0.429   5.114 -0.2474  0.4484  0.3378
17585TIP3    H174246   3.555   0.464   5.203  2.0756  0.2401  0.1324
17585TIP3    H274247   3.526   0.336   5.127 -1.6853  0.7014  0.5977
17586TIP3   OH274248   5.456   3.418   0.604 -0.1596 -0.1860 -0.0323
17586TIP3    H174249   5.419   3.379   0.683 -1.8351 -0.4894 -0.8979
17586TIP3    H274250   5.503   3.346   0.562 -2.6084 -1.2083 -1.2405
17587TIP3   OH274251   3.684   1.631  16.362  0.2059  0.8630  0.9492
17587TIP3    H174252   3.686   1.702  16.298 -0.6410  0.4558  0.4538
17587TIP3    H274253   3.601   1.642  16.408 -0.0229  0.1033  0.7460
17588TIP3   OH274254   1.927   6.175   0.766  0.2723 -0.0147 -0.5140
17588TIP3    H174255   1.890   6.238   0.704 -0.8752  1.0199  1.1117
17588TIP3    H274256   1.851   6.137   0.811  1.0534  0.0097  0.9141
17589TIP3   OH274257   0.595   6.565  16.730  0.2683  0.1047  0.0529
17589TIP3    H174258   0.529   6.497  16.711 -0.4457  0.8406 -0.1516
17589TIP3    H274259   0.679   6.519  16.721 -0.2020 -0.8372  0.2512
17590TIP3   OH274260   5.768   6.046   2.894  0.6414 -0.5195 -0.1973
17590TIP3    H174261   5.710   5.988   2.844 -0.4521  0.6422 -0.3228
17590TIP3    H274262   5.733   6.044   2.983 -0.7211  1.5215 -0.6234
17591TIP3   OH274263   3.519   5.973   1.263  0.5647 -0.2585  0.0723
17591TIP3    H174264   3.519   5.881   1.289  1.2713  0.2123  1.8845
17591TIP3    H274265   3.570   5.975   1.182  0.7790 -1.4118  0.1599
17592TIP3   OH274266   6.051   6.118  13.299  0.1406  0.3465  0.1816
17592TIP3    H174267   6.106   6.164  13.363  0.2835  0.4607 -0.0251
17592TIP3    H274268   6.014   6.187  13.244  0.9784  0.1676 -0.6324
17593TIP3   OH274269   5.786   1.696   5.094  0.3259 -0.3304  0.0507
17593TIP3    H174270   5.802   1.601   5.093 -0.6503 -0.4955 -0.5445
17593TIP3    H274271   5.785   1.722   5.002  0.3106  0.2119  0.1997
17594TIP3   OH274272   1.120   2.696   1.191  0.0182  0.1971  0.5296
17594TIP3    H174273   1.088   2.735   1.110  0.1669  0.1582  0.4524
17594TIP3    H274274   1.151   2.609   1.165 -1.5431 -0.5074  0.9290
17595TIP3   OH274275   5.367   2.429  16.226 -0.1717 -0.1110 -0.4525
17595TIP3    H174276   5.417   2.504  16.194 -0.3348 -0.2661 -1.1033
17595TIP3    H274277   5.407   2.406  16.309 -0.3561  0.9317 -0.0630
17596TIP3   OH274278   1.386   4.051  13.752  0.1417 -0.5287 -0.1231
17596TIP3    H174279   1.431   4.057  13.667 -0.0133  0.4721 -0.1529
17596TIP3    H274280   1.299   4.018  13.730  0.4341 -1.2541 -0.2210
17597TIP3   OH274281   5.802   4.886  11.842  0.1222 -0.3246  0.1284
17597TIP3    H174282   5.886   4.930  11.829  1.0191 -2.1794 -0.7955
17597TIP3    H274283   5.747   4.950  11.887  0.3540  2.7917 -3.5544
17598TIP3   OH274284   2.956   5.762   2.808  0.7004 -0.4757  0.2606
17598TIP3    H174285   2.927   5.680   2.848  1.7457 -0.8963  0.1851
17598TIP3    H274286   3.038   5.740   2.764  0.5188  0.4072 -0.5496
17599TIP3   OH274287   6.279   6.680  13.973  0.4637 -0.2034 -0.2917
17599TIP3    H174288   6.266   6.773  13.993  0.7115 -0.2279 -0.0150
17599TIP3    H274289   6.365   6.659  14.010 -0.2323 -0.9168  0.9560
17600TIP3   OH274290   3.142   5.938   1.853 -0.7770 -0.2797  0.6200
17600TIP3    H174291   3.107   6.012   1.902  0.1936  0.0279  0.8863
17600TIP3    H274292   3.217   5.974   1.805  0.0088 -1.1657  1.1175
17601TIP3   OH274293   0.848   6.683  13.808  0.0046  0.4827  0.2354
17601TIP3    H174294   0.833   6.724  13.893  2.1265  0.7532  0.5487
17601TIP3    H274295   0.783   6.613  13.803 -0.6475  0.9466  1.7524
17602TIP3   OH274296   1.335   1.779  12.683 -0.4937 -0.6390 -0.3807
17602TIP3    H174297   1.359   1.746  12.770  0.3316  0.5857 -0.1132
17602TIP3    H274298   1.419   1.801  12.642 -0.8771 -1.1606 -1.4880
17603TIP3   OH274299   6.673   3.507   0.515  0.5264 -0.0139  0.3683
17603TIP3    H174300   6.629   3.522   0.599  1.0450  2.5972  0.2376
17603TIP3    H274301   6.695   3.414   0.517 -0.3162 -0.2409  2.7089
17604TIP3   OH274302   4.860   1.899   0.447  0.7647 -0.7905 -0.2586
17604TIP3    H174303   4.956   1.904   0.439  0.7177  2.9393 -0.2942
17604TIP3    H274304   4.845   1.865   0.535  2.0944 -1.6156 -0.3173
17605TIP3   OH274305   5.407   1.038   4.477  0.2580  0.2925  0.0346
17605TIP3    H174306   5.364   1.108   4.526 -0.7934 -0.0743 -0.3457
17605TIP3    H274307   5.335   0.985   4.444  1.0373 -0.8009  0.0665
17606TIP3   OH274308   4.781   4.039  10.488 -0.6626  0.3672 -0.2777
17606TIP3    H174309   4.738   4.013  10.406 -2.0456  1.0366  0.2107
17606TIP3    H274310   4.710   4.066  10.545  0.2521 -0.3688  1.2842
17607TIP3   OH274311   1.368   0.780   2.473 -0.2203 -0.0011 -0.6807
17607TIP3    H174312   1.411   0.794   2.558 -2.9313  0.3970  0.7378
17607TIP3    H274313   1.404   0.849   2.417  0.6685  0.5756  0.5354
17608TIP3   OH274314   2.271   2.333   0.718  0.0831 -0.1358 -0.1654
17608TIP3    H174315   2.187   2.328   0.673  0.5969 -1.6592 -1.0526
17608TIP3    H274316   2.255   2.388   0.795 -1.6875 -0.3108 -0.3757
17609TIP3   OH274317   5.312   5.431   4.230 -0.1575  0.3239  0.3933
17609TIP3    H174318   5.394   5.423   4.279 -0.2741  0.1593  0.5643
17609TIP3    H274319   5.319   5.367   4.160  0.1135  0.7316  0.0426
17610TIP3   OH274320   6.694   6.338  15.503 -0.8570  0.4976  0.5467
17610TIP3    H174321   6.644   6.261  15.475 -0.6438  1.3125 -2.4694
17610TIP3    H274322   6.784   6.319  15.478 -0.7235  1.4936  0.2097
17611TIP3   OH274323   6.286   0.206   3.573  0.6564 -0.3369 -0.5017
17611TIP3    H174324   6.305   0.298   3.554 -0.3083  0.1418  0.6600
17611TIP3    H274325   6.290   0.200   3.668 -2.1218 -0.7814 -0.3155
17612TIP3   OH274326   5.984   3.033   6.084 -0.1894  0.7101 -0.7297
17612TIP3    H174327   5.973   3.120   6.124  3.4315  0.6321  0.8525
17612TIP3    H274328   6.029   3.051   6.001  1.5848  0.4252  0.1040
17613TIP3   OH274329   4.872   1.011   1.229  0.0905 -0.5604 -0.0522
17613TIP3    H174330   4.864   1.105   1.245  0.5341 -0.7978  1.7892
17613TIP3    H274331   4.786   0.975   1.251 -0.3489 -0.5209 -1.5790
17614TIP3   OH274332   5.596   5.599  13.996  0.1935  0.2236 -0.4629
17614TIP3    H174333   5.543   5.519  13.989 -0.2383  0.5985 -1.8504
17614TIP3    H274334   5.681   5.574  13.961  1.0441 -0.3910  1.8098
17615TIP3   OH274335   6.625   0.228  16.819 -0.2680 -0.3913  0.3295
17615TIP3    H174336   6.661   0.277  16.745 -0.3200 -0.9190 -0.0489
17615TIP3    H274337   6.666   0.141  16.813  0.0100 -0.3232  1.1329
17616TIP3   OH274338   4.221   5.312   0.829  0.2440  0.0715  0.3722
17616TIP3    H174339   4.250   5.402   0.842  1.1893  0.0407 -1.2768
17616TIP3    H274340   4.152   5.318   0.763 -1.4434 -0.1994  2.0176
17617TIP3   OH274341   5.539   3.467  11.707  0.1499  0.2974  0.3509
17617TIP3    H174342   5.487   3.514  11.643  1.2140  0.8361 -0.1480
17617TIP3    H274343   5.488   3.470  11.788 -0.4911  0.9618 -0.0735
17618TIP3   OH274344   2.656   0.395  11.601 -0.3173  0.3410  0.2069
17618TIP3    H174345   2.637   0.428  11.688 -0.7155  0.4877  0.0662
17618TIP3    H274346   2.620   0.306  11.601  1.3338 -0.3601  0.8031
17619TIP3   OH274347   4.223   0.860  16.684  0.1224 -0.3339 -0.2467
17619TIP3    H174348   4.212   0.829  16.774  1.5295 -0.0220  0.0479
17619TIP3    H274349   4.305   0.822  16.654  0.4705  0.8425 -0.8486
17620TIP3   OH274350   2.210   5.284  10.904 -0.0624 -0.0927 -0.0917
17620TIP3    H174351   2.247   5.335  10.976 -0.4114 -1.3573  1.0250
17620TIP3    H274352   2.116   5.283  10.921 -0.3219  0.8214 -1.3933
17621TIP3   OH274353   1.842   4.263  16.317  0.4756 -0.0729  0.5863
17621TIP3    H174354   1.747   4.255  16.307  0.2865  1.4181  0.9666
17621TIP3    H274355   1.856   4.285  16.409  1.1750  0.0029  0.4724
17622TIP3   OH274356   4.350   3.870   0.754 -0.3197 -0.1203 -0.0344
17622TIP3    H174357   4.338   3.787   0.708  0.7673 -2.0724  2.9035
17622TIP3    H274358   4.440   3.866   0.787 -0.6219  1.7218  1.1391
17623TIP3   OH274359   0.362   4.709   2.141 -0.1090  0.2124 -0.1590
17623TIP3    H174360   0.440   4.754   2.176 -0.0101  1.6417 -2.0666
17623TIP3    H274361   0.372   4.714   2.046 -2.5310  0.4539 -0.4675
17624TIP3   OH274362   6.333   4.260   4.494  0.3235  0.0132 -0.5223
17624TIP3    H174363   6.382   4.188   4.455  2.8646  1.9594 -1.2086
17624TIP3    H274364   6.247   4.255   4.453  1.0648 -1.4436 -2.0209
17625TIP3   OH274365   3.681   6.048   1.712 -0.6662  0.4957 -0.1886
17625TIP3    H174366   3.591   6.035   1.681 -0.9668 -3.1222  1.6811
17625TIP3    H274367   3.733   5.986   1.660  0.5556  1.5663 -0.2934
17626TIP3   OH274368   4.540   4.550   4.373  0.6352  0.5016  0.1448
17626TIP3    H174369   4.543   4.503   4.290  1.4911  1.6970 -0.5137
17626TIP3    H274370   4.616   4.607   4.372  0.2736  1.0529  1.4546
17627TIP3   OH274371   2.613   1.078   1.257 -0.2050 -0.4159 -0.0758
17627TIP3    H174372   2.702   1.068   1.224  0.5591  0.5436  1.5504
17627TIP3    H274373   2.560   1.093   1.179  1.0981 -0.7032 -1.0574
17628TIP3   OH274374   1.290   0.723   1.660 -0.1676 -0.3036 -0.0791
17628TIP3    H174375   1.219   0.735   1.596 -0.2734  0.1231  0.1165
17628TIP3    H274376   1.293   0.628   1.674  1.0684 -0.5969 -2.0784
17629TIP3   OH274377   4.373   4.761  14.289  0.1337 -0.3473 -0.4428
17629TIP3    H174378   4.391   4.675  14.329  1.1264  0.5927  1.2392
17629TIP3    H274379   4.278   4.761  14.274 -0.5479 -0.3655  3.0607
17630TIP3   OH274380   5.658   0.108  13.435 -0.0872  0.0547  0.0921
17630TIP3    H174381   5.645   0.136  13.345 -0.7779  2.0733  0.7572
17630TIP3    H274382   5.695   0.020  13.428 -1.4359 -0.4156 -2.1172
17631TIP3   OH274383   2.541   1.671  12.349 -0.1335 -0.2723 -1.0281
17631TIP3    H174384   2.630   1.707  12.347 -0.8549  1.8141  0.4050
17631TIP3    H274385   2.486   1.743  12.318 -1.5114 -0.7095  0.2698
17632TIP3   OH274386   3.727   1.733   2.173 -0.0266  0.2037 -0.0629
17632TIP3    H174387   3.643   1.721   2.129 -1.2620  1.9714  1.6192
17632TIP3    H274388   3.765   1.645   2.176 -1.0722 -0.3966 -2.1990
17633TIP3   OH274389   2.026   4.822  15.375  1.3163 -0.6309 -0.2830
17633TIP3    H174390   1.965   4.815  15.448  0.0129  0.9085 -1.1482
17633TIP3    H274391   2.047   4.916  15.370  2.7591 -0.9462 -0.8160
17634TIP3   OH274392   0.158   1.751   5.603  0.1084 -0.0333  1.0116
17634TIP3    H174393   0.125   1.820   5.661  1.4796  0.8196  0.7984
17634TIP3    H274394   0.186   1.681   5.663  1.8627  0.9898  1.4530
17635TIP3   OH274395   4.723   0.632  11.786  0.2315 -0.2740 -0.1512
17635TIP3    H174396   4.686   0.590  11.709 -0.5234  1.0111 -0.5166
17635TIP3    H274397   4.650   0.638  11.848 -0.5264  2.9528 -1.1616
17636TIP3   OH274398   1.399   4.386  16.571 -0.0542 -0.0225  0.1837
17636TIP3    H174399   1.329   4.366  16.634 -0.5091  1.5765  0.2349
17636TIP3    H274400   1.466   4.320  16.587 -1.0194 -0.8299  0.9953
17637TIP3   OH274401   2.825   0.481   1.689  0.2642 -0.1640 -0.1733
17637TIP3    H174402   2.881   0.517   1.757 -0.2674 -2.0928  1.3543
17637TIP3    H274403   2.756   0.547   1.677  1.0098  0.7176  0.2836
17638TIP3   OH274404   4.433   3.550   3.261 -0.0508 -0.1381  0.1787
17638TIP3    H174405   4.359   3.611   3.271 -0.5060 -0.0379 -2.9206
17638TIP3    H274406   4.397   3.465   3.284 -0.7717  0.1013 -0.0213
17639TIP3   OH274407   5.942   5.523   4.636 -0.5758 -0.2455 -0.1020
17639TIP3    H174408   5.871   5.461   4.651 -0.7654  0.2397  1.1066
17639TIP3    H274409   5.902   5.609   4.650 -0.5824  0.2654 -2.7766
17640TIP3   OH274410   2.528   2.372   1.404  0.3650  0.2178  0.3935
17640TIP3    H174411   2.622   2.388   1.396  0.1795  2.0483  1.3563
17640TIP3    H274412   2.493   2.395   1.318  0.8328 -0.8654 -0.0973
17641TIP3   OH274413   6.049   3.689  13.029 -0.1349 -0.0159 -0.2901
17641TIP3    H174414   6.114   3.742  13.075 -1.1355  0.6671  0.3758
17641TIP3    H274415   6.035   3.614  13.086 -0.4371  0.1838 -0.1023
17642TIP3   OH274416   3.909   1.222   0.993  0.1410  0.4820 -0.2538
17642TIP3    H174417   3.974   1.153   0.981 -0.8859 -1.0171  2.0642
17642TIP3    H274418   3.954   1.287   1.047 -0.2832 -0.6920  1.5982
17643TIP3   OH274419   3.574   2.569  16.575  0.1501  0.3330 -0.3001
17643TIP3    H174420   3.547   2.655  16.607 -0.0772 -0.2111  1.0231
17643TIP3    H274421   3.518   2.553  16.499  1.0235  1.8547 -1.2904
17644TIP3   OH274422   3.766   0.812   6.592  0.3855 -0.0120  0.0319
17644TIP3    H174423   3.682   0.846   6.622  1.0075  2.5867 -0.8891
17644TIP3    H274424   3.813   0.791   6.672  0.3564  2.5109  0.7952
17645TIP3   OH274425   1.448   1.133   5.822  0.0639  0.2806 -0.1615
17645TIP3    H174426   1.431   1.098   5.734 -0.6412 -2.1331  0.8728
17645TIP3    H274427   1.542   1.117   5.836 -0.1516 -0.8588  0.1128
17646TIP3   OH274428   1.869   6.398   1.288 -0.6081 -0.0323  0.2869
17646TIP3    H174429   1.841   6.478   1.333 -4.0678 -1.2524  0.6371
17646TIP3    H274430   1.864   6.330   1.355  0.3914 -0.8778 -0.4715
17647TIP3   OH274431   1.586   1.980   1.526  0.0387  0.2132 -0.0601
17647TIP3    H174432   1.616   1.903   1.575  0.3102  0.0363 -0.4916
17647TIP3    H274433   1.658   2.001   1.467 -1.1667 -1.1227 -2.1824
17648TIP3   OH274434   5.734   2.691  13.992 -0.0070  0.1319  0.0033
17648TIP3    H174435   5.642   2.665  13.999 -0.5200  2.1231  2.4803
17648TIP3    H274436   5.783   2.609  13.992 -1.7240 -0.9504  0.8844
17649TIP3   OH274437   4.220   0.484   5.663 -0.3666 -0.2292  0.4804
17649TIP3    H174438   4.125   0.490   5.663 -0.3169  0.8821  1.2685
17649TIP3    H274439   4.249   0.548   5.599 -0.1235  0.1424  0.9568
17650TIP3   OH274440   1.439   5.626   1.438  0.2238  0.0108 -0.9697
17650TIP3    H174441   1.515   5.679   1.413 -0.9361  2.3219  0.1098
17650TIP3    H274442   1.404   5.670   1.515 -1.7631 -1.4696 -0.9531
17651TIP3   OH274443   3.685   4.621  11.801 -0.3707 -0.5317  0.2543
17651TIP3    H174444   3.727   4.707  11.793 -2.8446  0.6894 -0.4736
17651TIP3    H274445   3.691   4.601  11.894  1.2867 -0.1866  0.2711
17652TIP3   OH274446   2.498   5.200  15.892 -0.1273  0.0087 -0.1354
17652TIP3    H174447   2.444   5.128  15.860 -0.6579  0.7973 -1.0842
17652TIP3    H274448   2.517   5.252  15.814 -2.6423  2.7825  0.9013
17653TIP3   OH274449   5.981   2.296   6.621 -0.7859  0.1649 -0.2234
17653TIP3    H174450   6.024   2.376   6.591 -0.7467 -0.0023 -0.6327
17653TIP3    H274451   5.982   2.239   6.544 -0.3989 -0.4004  0.1912
17654TIP3   OH274452   1.701   1.548   1.006  0.4387  0.4763 -0.3832
17654TIP3    H174453   1.688   1.581   0.917 -0.0559  1.5141  0.0546
17654TIP3    H274454   1.769   1.481   0.997  0.0643  0.2368 -1.6082
17655TIP3   OH274455   3.005   4.643  14.718 -0.3625  0.9573 -0.2410
17655TIP3    H174456   3.099   4.646  14.732 -0.2283 -2.4296  0.4748
17655TIP3    H274457   2.973   4.728  14.746  2.5172  2.5212 -1.2954
17656TIP3   OH274458   6.140   0.422  14.011 -0.0462  0.3628 -0.3048
17656TIP3    H174459   6.063   0.447  14.062 -0.9136  1.4293 -2.0187
17656TIP3    H274460   6.192   0.368  14.070 -1.4306  0.7660  1.3636
17657TIP3   OH274461   2.647   6.774  12.637 -0.2279  0.7163 -0.5062
17657TIP3    H174462   2.732   6.753  12.674  0.1953  0.6628 -1.4809
17657TIP3    H274463   2.665   6.834  12.565 -1.0063  0.7018 -0.7305
17658TIP3   OH274464   1.259   3.954  14.008 -0.0312 -0.3479 -0.5543
17658TIP3    H174465   1.298   3.995  13.931 -0.0137 -0.3617 -0.5524
17658TIP3    H274466   1.269   3.860  13.994 -1.9663 -0.4682 -1.5781
17659TIP3   OH274467   3.992   6.505  12.756  0.1575  0.0598 -0.8530
17659TIP3    H174468   4.003   6.589  12.799  1.5703  0.2072 -1.4583
17659TIP3    H274469   4.001   6.524  12.662 -0.8463 -0.5661 -1.1046
17660TIP3   OH274470   1.653   5.522  17.348 -0.1869 -0.0176 -0.2372
17660TIP3    H174471   1.593   5.545  17.277  0.2744  1.7512 -0.0974
17660TIP3    H274472   1.637   5.429  17.363 -1.5858 -0.0124 -1.4228
17661TIP3   OH274473   0.091   1.571  14.823 -0.4659 -0.2681  0.3956
17661TIP3    H174474   0.107   1.625  14.900 -0.5014 -0.0257  0.2348
17661TIP3    H274475   0.142   1.612  14.754  0.2354 -0.9786  0.4883
17662TIP3   OH274476   0.017   3.331  11.310 -0.9056  0.8774  0.5327
17662TIP3    H174477  -0.004   3.313  11.218  0.5020 -0.4285  0.4122
17662TIP3    H274478   0.090   3.393  11.306  0.8248 -1.0429  0.6284
17663TIP3   OH274479   2.265   6.711   5.980  0.2694  0.2112 -0.0244
17663TIP3    H174480   2.202   6.774   5.945  1.3148  1.0060 -0.5642
17663TIP3    H274481   2.280   6.740   6.070  1.4309  1.3459 -0.5444
17664TIP3   OH274482   6.097   0.461   5.707  0.1646  0.2588 -0.5420
17664TIP3    H174483   6.040   0.383   5.704  2.2832 -1.3880 -0.0026
17664TIP3    H274484   6.077   0.507   5.625  0.5081 -2.1155 -2.0652
17665TIP3   OH274485   2.786   6.271   2.487 -0.1336 -0.2634 -0.0512
17665TIP3    H174486   2.699   6.245   2.457 -0.2502 -1.0413  0.8922
17665TIP3    H274487   2.781   6.267   2.582 -0.0086  2.8707  0.1993
17666TIP3   OH274488   5.751   3.973   4.353 -0.0758 -0.7111 -0.0208
17666TIP3    H174489   5.804   3.900   4.382 -0.9349 -1.8148 -1.1101
17666TIP3    H274490   5.679   3.978   4.416  1.9971  1.7935  2.4027
17667TIP3   OH274491   0.338   2.711  12.540  0.1279 -0.1096 -0.0363
17667TIP3    H174492   0.265   2.754  12.585  0.9125  0.0339  1.1479
17667TIP3    H274493   0.297   2.640  12.490 -0.8398  0.0567  0.5016
17668TIP3   OH274494   2.483   4.582  12.888 -0.2593 -0.0457  0.1890
17668TIP3    H174495   2.546   4.640  12.844  2.5783 -0.9898  2.6647
17668TIP3    H274496   2.507   4.494  12.857 -0.3479 -0.4224  1.1621
17669TIP3   OH274497   3.574   3.756   3.173  0.3519  0.7266 -0.1166
17669TIP3    H174498   3.555   3.678   3.122 -0.4884  0.8125  0.0515
17669TIP3    H274499   3.563   3.728   3.264  1.8506  0.5683  0.0400
17670TIP3   OH274500   5.381   5.574   1.360  0.0101 -0.3700 -0.0697
17670TIP3    H174501   5.427   5.507   1.310  0.4092 -0.9187  1.0016
17670TIP3    H274502   5.413   5.657   1.324  0.6492 -0.7477 -0.3868
17671TIP3   OH274503   2.202   5.340  12.546 -0.0402 -0.2819  0.5083
17671TIP3    H174504   2.118   5.365  12.585 -0.4320 -0.6600 -0.0677
17671TIP3    H274505   2.263   5.339  12.619 -0.1719  1.5703  0.6795
17672TIP3   OH274506   5.671   3.123   4.023  0.8513  0.2600  0.0843
17672TIP3    H174507   5.590   3.096   4.067 -1.1919  3.4667 -1.3417
17672TIP3    H274508   5.727   3.154   4.094 -0.4801  0.9039  0.9118
17673TIP3   OH274509   5.811   4.537   1.425  0.1709  0.2969 -0.6956
17673TIP3    H174510   5.875   4.608   1.424 -1.3273  1.7138 -1.2763
17673TIP3    H274511   5.727   4.581   1.411 -1.0389 -1.3959  0.8332
17674TIP3   OH274512   1.073   2.609   3.809  0.2365 -0.2942 -0.3368
17674TIP3    H174513   1.033   2.598   3.723 -0.0238 -0.0658 -0.2490
17674TIP3    H274514   1.027   2.685   3.847 -1.9053 -2.2258  1.2539
17675TIP3   OH274515   4.830   1.957   1.306 -0.2818 -0.3668  0.2153
17675TIP3    H174516   4.883   1.898   1.361 -0.4819 -3.2038 -2.3879
17675TIP3    H274517   4.741   1.946   1.339 -0.0435  0.1100  1.0535
17676TIP3   OH274518   3.090   3.968  10.680 -0.4272  0.2541  0.1280
17676TIP3    H174519   3.146   3.927  10.614 -2.1721 -2.0851 -0.0071
17676TIP3    H274520   3.115   3.925  10.762 -1.3269 -0.1241  0.2194
17677TIP3   OH274521   1.093   4.644   6.019 -0.4450  0.5972  0.1805
17677TIP3    H174522   1.150   4.581   6.062  0.2409  1.5101  0.6404
17677TIP3    H274523   1.153   4.701   5.969 -0.9104  1.7350  0.8832
17678TIP3   OH274524   0.784   2.213   6.992 -0.2737  0.0456 -0.1715
17678TIP3    H174525   0.852   2.178   6.936 -0.5294  1.4811 -1.4422
17678TIP3    H274526   0.723   2.257   6.932 -1.6120 -0.0662  1.0470
17679TIP3   OH274527   4.230   2.882   5.841 -0.1850 -0.0631 -0.4520
17679TIP3    H174528   4.292   2.812   5.864 -1.2381 -0.6952  0.6169
17679TIP3    H274529   4.257   2.910   5.754  1.2802 -0.6685 -0.2280
17680TIP3   OH274530   0.224   3.282   5.334 -0.0372  0.5651  0.8265
17680TIP3    H174531   0.264   3.235   5.407 -1.3222 -0.7418  0.7421
17680TIP3    H274532   0.135   3.302   5.365 -1.3292 -1.7889 -1.0336
17681TIP3   OH274533   0.699   6.254   0.477 -0.5318  0.4426  0.3388
17681TIP3    H174534   0.722   6.330   0.424 -1.5201  0.0818 -0.6315
17681TIP3    H274535   0.603   6.257   0.484 -0.4775  0.0687  1.4838
17682TIP3   OH274536   1.885   1.972   3.947 -0.0662 -0.4443 -0.3632
17682TIP3    H174537   1.876   1.917   4.025 -0.9208 -1.0366 -0.8575
17682TIP3    H274538   1.847   1.920   3.877 -1.0493  0.8335 -0.8276
17683TIP3   OH274539   1.572   3.529   2.842 -0.0560 -0.2262 -0.0591
17683TIP3    H174540   1.533   3.445   2.868 -0.4903  0.1159  0.4215
17683TIP3    H274541   1.532   3.593   2.900 -0.0431  0.3774 -0.6969
17684TIP3   OH274542   5.006   2.196   0.467  0.3428 -0.8087  0.5846
17684TIP3    H174543   4.972   2.152   0.545 -2.3665  0.4618  0.2635
17684TIP3    H274544   5.051   2.273   0.501 -0.5701 -0.4158  0.9431
17685TIP3   OH274545   6.007   4.709  16.123 -0.4411 -0.8793 -0.3557
17685TIP3    H174546   6.011   4.715  16.218  1.7780 -2.9638 -0.2243
17685TIP3    H274547   5.921   4.743  16.100 -0.3359  1.4833  2.1963
17686TIP3   OH274548   0.258   2.047  13.024  0.0964 -0.4299  0.4038
17686TIP3    H174549   0.164   2.059  13.011  0.1890  0.6387  0.6811
17686TIP3    H274550   0.287   2.126  13.070  1.4358  0.0081 -1.0992
17687TIP3   OH274551   1.284   6.190   1.511  0.0471 -0.1288 -0.6960
17687TIP3    H174552   1.308   6.281   1.491  0.0996 -0.3920 -1.9636
17687TIP3    H274553   1.298   6.181   1.605  2.6587  0.4036 -0.9553
17688TIP3   OH274554   4.491   3.510  17.009 -0.0082 -0.8610  0.2638
17688TIP3    H174555   4.497   3.478  17.100  1.5167 -0.0007  0.5001
17688TIP3    H274556   4.575   3.553  16.994 -0.6568 -0.0756 -1.2253
17689TIP3   OH274557   2.382   3.272   0.057  0.0061  0.1032  0.3367
17689TIP3    H174558   2.446   3.206   0.084 -0.7776 -0.8910 -0.1405
17689TIP3    H274559   2.426   3.356   0.071  0.2617 -0.4037  2.9974
17690TIP3   OH274560   0.044   3.199  11.064  0.4041  0.0317  0.2160
17690TIP3    H174561  -0.017   3.128  11.042 -0.1312  0.0413  1.5685
17690TIP3    H274562   0.113   3.193  10.999  0.1990 -1.5394  0.1146
17691TIP3   OH274563   2.267   0.939   0.576  0.3334 -0.3630  0.3776
17691TIP3    H174564   2.270   1.001   0.649  1.0533 -0.0490  0.0928
17691TIP3    H274565   2.220   0.985   0.507  1.4264  0.1368 -0.0611
17692TIP3   OH274566   3.018   5.994   2.965  0.2927 -0.0401 -0.1938
17692TIP3    H174567   3.017   6.064   2.900  1.7569  0.1745 -0.0267
17692TIP3    H274568   2.993   5.916   2.917  0.2194  0.3203 -0.7510
17693TIP3   OH274569   6.708   2.836  12.443 -0.2690  0.2285  0.1786
17693TIP3    H174570   6.753   2.787  12.511  1.5068  0.7228 -0.5762
17693TIP3    H274571   6.658   2.903  12.490  0.4973  0.2237  1.0201
17694TIP3   OH274572   6.210   1.697  10.836  0.1992 -0.1184 -0.0835
17694TIP3    H174573   6.289   1.724  10.882  1.0269 -2.8317  0.2615
17694TIP3    H274574   6.141   1.702  10.902  0.6059 -0.1656  0.3500
17695TIP3   OH274575   5.519   5.633  16.147 -0.0986  0.4306  0.1295
17695TIP3    H174576   5.568   5.621  16.065 -1.2772  1.1974 -0.7152
17695TIP3    H274577   5.441   5.682  16.121 -1.9286 -1.7462  1.2019
17696TIP3   OH274578   5.131   3.896  17.330  0.2922  0.3460  0.0958
17696TIP3    H174579   5.039   3.895  17.357  0.6054 -0.5741  1.2307
17696TIP3    H274580   5.144   3.811  17.288  1.0837 -0.3808  1.7193
17697TIP3   OH274581   5.466   4.667  13.965 -0.1077  0.4474  0.4828
17697TIP3    H174582   5.429   4.742  14.012  0.6656  1.2058 -0.0884
17697TIP3    H274583   5.430   4.590  14.010  0.5801  1.1357  2.2998
17698TIP3   OH274584   5.016   5.298  15.430  0.2671 -0.4023 -0.6884
17698TIP3    H174585   5.058   5.224  15.388 -0.4164 -0.9593 -0.4175
17698TIP3    H274586   4.949   5.327  15.367  0.8447  0.2908 -0.9955
17699TIP3   OH274587   0.522   2.327  10.771 -0.6863  0.8072  0.4931
17699TIP3    H174588   0.520   2.250  10.713  0.3200 -1.9792  3.8328
17699TIP3    H274589   0.614   2.351  10.776 -1.0214  2.5400 -0.7438
17700TIP3   OH274590   4.016   1.861   1.857 -0.0949  0.2891 -0.7195
17700TIP3    H174591   3.977   1.773   1.849 -2.6988  1.2441  0.2033
17700TIP3    H274592   3.951   1.919   1.816  0.5644  1.9871  0.5384
17701TIP3   OH274593   0.679   6.268   0.747  0.0578 -0.2113 -0.3568
17701TIP3    H174594   0.644   6.349   0.711  0.6936  0.3761  0.3121
17701TIP3    H274595   0.693   6.212   0.671  0.6065  0.6958 -0.9549
17702TIP3   OH274596   6.763   1.934  17.344 -0.3702 -0.3283  0.0076
17702TIP3    H174597   6.790   1.843  17.329 -0.1703 -0.0213 -1.6964
17702TIP3    H274598   6.845   1.981  17.361 -0.4495 -0.4083  0.6425
17703TIP3   OH274599   6.347   2.645   1.979  0.4410 -0.0081 -0.7854
17703TIP3    H174600   6.373   2.606   2.062  1.7739  1.3923 -0.4920
17703TIP3    H274601   6.428   2.651   1.929 -0.1560  0.1597 -1.7618
17704TIP3   OH274602   4.155   2.235   3.607 -0.2777  0.1980 -0.0439
17704TIP3    H174603   4.158   2.288   3.528 -0.0876  0.1260 -0.0842
17704TIP3    H274604   4.084   2.173   3.592 -0.1144  0.0565 -0.2392
17705TIP3   OH274605   4.783   0.606   5.716 -1.1387 -0.1859 -0.5458
17705TIP3    H174606   4.718   0.661   5.760 -0.4637 -0.0102  0.2604
17705TIP3    H274607   4.828   0.665   5.655  0.3312  0.4908  1.0924
17706TIP3   OH274608   1.644   5.157   3.143 -0.4125  0.1782  0.4680
17706TIP3    H174609   1.558   5.117   3.155  0.3098 -1.3026  1.0598
17706TIP3    H274610   1.666   5.194   3.228 -0.5548  0.7816  0.2495
17707TIP3   OH274611   4.197   3.417   3.070  0.2250 -0.0058 -0.1461
17707TIP3    H174612   4.179   3.505   3.103 -0.4192  0.1048 -0.7650
17707TIP3    H274613   4.167   3.359   3.140  0.3070  0.2528  0.1090
17708TIP3   OH274614   4.540   1.041   1.758  0.0729  0.6095  0.0795
17708TIP3    H174615   4.528   1.067   1.666  0.8532  1.8547  0.2984
17708TIP3    H274616   4.533   1.123   1.807 -0.2106 -0.0257  1.1297
17709TIP3   OH274617   4.493   4.430   1.838  0.7816 -0.2729  0.7043
17709TIP3    H174618   4.444   4.452   1.758  1.3942  0.3691  0.4915
17709TIP3    H274619   4.442   4.470   1.908  1.4247  1.1365  0.4029
17710TIP3   OH274620   3.576   5.693  11.609 -0.2799 -0.2308  0.5097
17710TIP3    H174621   3.671   5.703  11.602 -0.4117  0.2021 -0.9396
17710TIP3    H274622   3.564   5.619  11.669  0.9885 -0.7892  0.1084
17711TIP3   OH274623   6.238   2.793   0.729  0.0501 -0.1002  0.1117
17711TIP3    H174624   6.192   2.726   0.679  1.3894 -1.0460  0.0866
17711TIP3    H274625   6.279   2.849   0.663 -0.5462  0.3769  0.1393
17712TIP3   OH274626   3.129   0.778   3.486 -0.8004 -0.3813 -0.0645
17712TIP3    H174627   3.094   0.689   3.493  0.4015 -0.9040 -0.4068
17712TIP3    H274628   3.191   0.785   3.558 -0.4646 -0.0156 -0.3879
17713TIP3   OH274629   1.116   6.220  12.784  0.4737 -0.4099  0.2128
17713TIP3    H174630   1.204   6.209  12.747  0.6831  3.8236 -1.1193
17713TIP3    H274631   1.057   6.208  12.710  0.1663 -0.4495  0.4605
17714TIP3   OH274632   4.345   3.756  10.620  0.3146 -0.3346  0.0430
17714TIP3    H174633   4.309   3.669  10.637 -0.3222 -0.1040 -0.1171
17714TIP3    H274634   4.306   3.812  10.687  0.6505 -0.1508  0.0879
17715TIP3   OH274635   5.757   0.048  16.693 -0.4603  0.3336  0.2506
17715TIP3    H174636   5.688   0.010  16.746 -0.3424 -1.3942 -0.7437
17715TIP3    H274637   5.711   0.088  16.619 -0.4215 -1.7584 -0.9828
17716TIP3   OH274638   0.052   2.747  12.674 -0.3305 -0.5631  0.5456
17716TIP3    H174639   0.039   2.660  12.712  0.0878 -0.3330  1.2334
17716TIP3    H274640   0.054   2.806  12.750 -0.7675  0.0662  0.0764
17717TIP3   OH274641   5.151   1.518   4.701 -0.3163  0.4500 -0.1101
17717TIP3    H174642   5.245   1.503   4.715 -0.5927 -0.0447  1.4472
17717TIP3    H274643   5.146   1.565   4.618  0.9950 -3.8262 -2.9496
17718TIP3   OH274644   2.519   4.626   4.385 -0.2999 -0.0957 -0.1261
17718TIP3    H174645   2.582   4.556   4.401 -0.9623 -1.1130 -1.7672
17718TIP3    H274646   2.534   4.688   4.457  0.9411 -1.4407  0.8394
17719TIP3   OH274647   6.289   3.843   5.992  0.5570 -0.4765  0.0906
17719TIP3    H174648   6.353   3.856   6.062 -0.0349 -2.0518  0.9790
17719TIP3    H274649   6.269   3.750   5.996  1.2917 -0.8594 -2.9118
17720TIP3   OH274650   0.710   5.632   5.699 -0.6474  0.3352 -0.1583
17720TIP3    H174651   0.762   5.671   5.629  1.2308 -0.1439  0.8936
17720TIP3    H274652   0.687   5.705   5.755 -1.1032  0.5512 -0.6243
17721TIP3   OH274653   1.422   5.041  11.366 -0.7746  0.1789  0.0769
17721TIP3    H174654   1.388   5.109  11.425 -0.3174  0.5648 -0.0919
17721TIP3    H274655   1.446   5.088  11.286 -1.0345 -0.2842 -0.2774
17722TIP3   OH274656   3.471   1.355   1.255  0.3948 -0.1988 -0.1690
17722TIP3    H174657   3.560   1.345   1.224  0.7848  0.4899  0.6934
17722TIP3    H274658   3.439   1.435   1.214  0.0604 -0.5928 -0.7006
17723TIP3   OH274659   4.679   2.433   1.160 -0.5710 -0.5567  0.3785
17723TIP3    H174660   4.758   2.392   1.196 -1.1714 -2.4021 -0.2710
17723TIP3    H274661   4.620   2.441   1.234  0.4695  1.6597  1.0642
17724TIP3   OH274662   3.548   3.617  12.453 -0.1334  0.4546 -0.0589
17724TIP3    H174663   3.467   3.591  12.410  0.2260 -1.4901  0.3604
17724TIP3    H274664   3.520   3.676  12.523 -1.1620  0.0371 -0.1071
17725TIP3   OH274665   1.415   4.998   6.607  0.6889  0.3181  0.1171
17725TIP3    H174666   1.372   4.927   6.559  0.1253  0.3591  0.5557
17725TIP3    H274667   1.364   5.076   6.585 -0.1977  0.1798  1.5361
17726TIP3   OH274668   1.245   3.201   0.305  0.7523  0.3970  0.1806
17726TIP3    H174669   1.207   3.147   0.235  0.2137  0.4749  0.4045
17726TIP3    H274670   1.289   3.273   0.259 -1.0804  1.4345 -0.0856
17727TIP3   OH274671   2.630   2.207  11.906  0.8563 -0.1330  0.0405
17727TIP3    H174672   2.618   2.112  11.919  2.1463 -0.2729  0.2941
17727TIP3    H274673   2.568   2.229  11.836 -1.1684 -0.7013  1.5761
17728TIP3   OH274674   6.745   3.753   1.944 -0.1678 -0.0171  0.1901
17728TIP3    H174675   6.763   3.827   2.003 -2.2271 -0.4607  1.4740
17728TIP3    H274676   6.719   3.682   2.002 -0.0908 -1.1873 -1.1567
17729TIP3   OH274677   2.368   0.978  16.270  0.0998 -0.3827  0.3094
17729TIP3    H174678   2.303   0.969  16.200  1.0624 -0.1133 -0.6556
17729TIP3    H274679   2.330   0.932  16.344  0.0111 -2.6541 -1.0620
17730TIP3   OH274680   0.800   4.306   1.708  0.0581 -0.0145 -0.3487
17730TIP3    H174681   0.748   4.226   1.711  2.1995 -1.4682 -0.5074
17730TIP3    H274682   0.822   4.324   1.800 -0.2959  0.3242 -0.3267
17731TIP3   OH274683   6.146   0.281  16.896  0.1287  0.0787  0.0622
17731TIP3    H174684   6.178   0.195  16.924  2.7996  1.0087  0.2190
17731TIP3    H274685   6.220   0.340  16.913 -0.7036  1.9773 -2.3082
17732TIP3   OH274686   5.889   5.640   0.469  0.1735 -0.1717 -0.0401
17732TIP3    H174687   5.979   5.610   0.458  0.4754 -0.3101  2.3137
17732TIP3    H274688   5.895   5.712   0.532 -1.2366  0.6770 -0.8236
17733TIP3   OH274689   5.793   2.448   3.436 -0.1515  0.0728  0.1392
17733TIP3    H174690   5.805   2.402   3.353 -2.8477 -0.2894 -0.1103
17733TIP3    H274691   5.825   2.537   3.418 -0.8397  0.0481 -1.3620
17734TIP3   OH274692   6.658   5.763   4.434 -0.7923  0.2953 -0.2367
17734TIP3    H174693   6.702   5.703   4.374  2.1235  0.8106  1.2061
17734TIP3    H274694   6.587   5.712   4.472  1.0089 -1.9849  0.2473
17735TIP3   OH274695   2.751   1.723   3.382  0.1327 -0.0854 -0.7008
17735TIP3    H174696   2.742   1.736   3.287 -0.7822  0.9325 -0.5010
17735TIP3    H274697   2.712   1.802   3.420  1.0485 -0.1944  0.5192
17736TIP3   OH274698   2.763   1.873  14.090  0.1617  0.0846 -0.3814
17736TIP3    H174699   2.847   1.828  14.081  0.2325  0.3983 -1.4987
17736TIP3    H274700   2.786   1.964  14.107  0.0731  0.2985 -1.3432
17737TIP3   OH274701   5.592   6.537   3.355  0.3149 -0.4094 -0.3718
17737TIP3    H174702   5.572   6.620   3.312  2.4603  0.6899  0.6070
17737TIP3    H274703   5.507   6.494   3.364 -0.7039  1.1061 -2.0058
17738TIP3   OH274704   3.241   5.927   2.596 -0.2372 -0.3254  0.0696
17738TIP3    H174705   3.158   5.969   2.570  0.1863  0.0038 -0.8244
17738TIP3    H274706   3.308   5.988   2.566  0.3532 -0.9714  0.0545
17739TIP3   OH274707   1.874   1.655  17.084 -0.2391  0.2105 -0.3600
17739TIP3    H174708   1.866   1.573  17.035 -0.2115 -0.7848  1.2180
17739TIP3    H274709   1.814   1.715  17.040 -3.0443 -1.7309  0.5393
17740TIP3   OH274710   0.095   2.697   6.327  0.2125  0.2536 -0.6367
17740TIP3    H174711   0.038   2.622   6.311 -0.6543  0.0937  2.4970
17740TIP3    H274712   0.111   2.734   6.240 -0.5388 -2.6250 -2.1484
17741TIP3   OH274713   6.460   0.684  14.389  0.3180  0.0694 -0.4294
17741TIP3    H174714   6.435   0.697  14.297  1.8138  0.9900 -0.7354
17741TIP3    H274715   6.457   0.589  14.401 -0.5560 -0.0239 -1.2141
17742TIP3   OH274716   5.946   0.836  13.789 -0.1024  0.4637 -0.5571
17742TIP3    H174717   5.874   0.825  13.727 -0.8123  1.7054  0.0052
17742TIP3    H274718   6.014   0.776  13.758 -1.5857 -1.2004 -0.7622
17743TIP3   OH274719   1.355   5.943  16.992 -0.0213 -0.0712  0.0786
17743TIP3    H174720   1.301   5.866  17.007 -0.8640  0.3936 -0.5105
17743TIP3    H274721   1.444   5.914  17.013 -0.0868 -1.6628 -1.5893
17744TIP3   OH274722   6.210   2.732   3.276 -0.4942  0.4532 -0.4001
17744TIP3    H174723   6.149   2.772   3.339  0.8704  1.6792  0.2021
17744TIP3    H274724   6.257   2.806   3.238  3.6320 -0.4412  2.2945
17745TIP3   OH274725   5.555   4.972   0.724  0.7524  0.4952  0.9120
17745TIP3    H174726   5.571   4.878   0.728  0.6312  0.0819 -3.5786
17745TIP3    H274727   5.489   4.982   0.655  2.7070  3.9800 -0.6915
17746TIP3   OH274728   0.075   6.677  16.467  0.5839 -0.4365  0.4996
17746TIP3    H174729   0.119   6.761  16.485  0.5388  0.0040 -1.2778
17746TIP3    H274730   0.096   6.659  16.375 -1.0041 -1.4059  0.3083
17747TIP3   OH274731   1.939   4.354  15.242  0.1801 -0.7737  0.7136
17747TIP3    H174732   1.994   4.403  15.302 -0.5852  0.4623  0.4409
17747TIP3    H274733   1.999   4.317  15.177  0.6816  0.7855  0.2517
17748TIP3   OH274734   1.017   6.075  12.999 -0.4558 -0.0419  0.1600
17748TIP3    H174735   0.939   6.130  13.001 -0.7898 -0.4853 -0.3743
17748TIP3    H274736   1.078   6.122  12.943 -0.4941  0.1002  0.2360
17749TIP3   OH274737   1.672   6.034   0.847 -0.0059 -0.0656 -0.1248
17749TIP3    H174738   1.687   6.101   0.913  0.6534 -1.4425  1.2067
17749TIP3    H274739   1.603   5.979   0.884  1.1773 -1.5363  0.0044
17750TIP3   OH274740   2.551   6.663   0.509 -0.9145 -0.2533  0.2027
17750TIP3    H174741   2.580   6.749   0.478  1.2817 -1.0910 -0.2769
17750TIP3    H274742   2.511   6.621   0.433  0.6207 -0.6920 -0.4085
17751TIP3   OH274743   0.412   6.378  16.565 -0.2271 -0.0651 -0.2476
17751TIP3    H174744   0.448   6.444  16.506 -1.5266  0.4606 -0.4991
17751TIP3    H274745   0.456   6.297  16.541  1.6471  0.7508  0.2924
17752TIP3   OH274746   0.057   3.082  12.713  0.0952  0.0531  0.0330
17752TIP3    H174747   0.086   3.080  12.622 -1.1080 -2.0128 -0.3363
17752TIP3    H274748   0.112   3.017  12.757  2.0506  2.3776  1.3106
17753TIP3   OH274749   6.703   3.869   1.567 -0.6707  0.8682  0.3776
17753TIP3    H174750   6.677   3.947   1.517  1.2187  1.1553 -0.2748
17753TIP3    H274751   6.778   3.899   1.619  1.5597 -0.9996 -1.5624
17754TIP3   OH274752   1.732   6.555  17.289  0.0917  0.2418 -0.0180
17754TIP3    H174753   1.743   6.541  17.383 -0.5963 -0.7690 -0.0706
17754TIP3    H274754   1.782   6.635  17.271  0.7815  0.0872  1.0775
17755TIP3   OH274755   2.142   1.967  15.877  0.2290  0.3212 -0.6711
17755TIP3    H174756   2.102   1.880  15.881 -0.4161  0.6124 -0.6666
17755TIP3    H274757   2.086   2.016  15.818 -0.3552  1.2216  0.5974
17756TIP3   OH274758   4.380   5.894  13.165  0.2222 -0.1546  0.2074
17756TIP3    H174759   4.425   5.903  13.081 -0.2645  3.0446  0.1313
17756TIP3    H274760   4.446   5.917  13.231 -0.1116  0.1838  0.4357
17757TIP3   OH274761   0.802   1.908   2.797 -0.1101  0.6680 -0.1663
17757TIP3    H174762   0.818   1.948   2.883 -2.1979  0.4085  0.4022
17757TIP3    H274763   0.788   1.982   2.738 -0.0362  0.8242  0.0090
17758TIP3   OH274764   3.792   2.260   1.252  0.6470 -0.3294 -0.0191
17758TIP3    H174765   3.838   2.182   1.284 -1.3893 -1.7192 -0.2684
17758TIP3    H274766   3.851   2.297   1.186  2.9091  0.0175  2.0523
17759TIP3   OH274767   5.937   3.814   3.443 -0.1393  0.8434 -0.2557
17759TIP3    H174768   5.994   3.741   3.418 -1.1666 -0.1650  0.2551
17759TIP3    H274769   5.890   3.783   3.520  0.4962  2.6328  0.9302
17760TIP3   OH274770   3.655   4.373   3.792 -1.0124  0.2179 -0.2845
17760TIP3    H174771   3.694   4.289   3.816  0.8402  1.0908 -0.0680
17760TIP3    H274772   3.563   4.365   3.819 -0.6300 -1.3376  0.7158
17761TIP3   OH274773   3.276   4.759  16.586  0.2468 -0.3380 -0.6145
17761TIP3    H174774   3.301   4.679  16.541  1.3985  0.8053 -2.1200
17761TIP3    H274775   3.359   4.802  16.607 -0.3079 -0.0715  1.2465
17762TIP3   OH274776   4.175   4.777   3.367 -0.1431  0.1907 -0.2373
17762TIP3    H174777   4.180   4.843   3.299 -2.3927 -0.5963 -1.2499
17762TIP3    H274778   4.260   4.732   3.363  0.6388  1.6701 -0.8784
17763TIP3   OH274779   3.094   1.012  16.914 -0.2966  0.0771 -0.2121
17763TIP3    H174780   3.090   0.991  17.007  0.8412  1.7549  0.2580
17763TIP3    H274781   3.019   0.967  16.876 -0.7050 -0.7569  1.4810
17764TIP3   OH274782   4.163   6.301  14.832  0.1897  0.2331  0.7703
17764TIP3    H174783   4.239   6.333  14.880 -0.8268  1.8244  1.3749
17764TIP3    H274784   4.167   6.206  14.842  2.4450  0.2030  0.2213
17765TIP3   OH274785   5.140   2.678  15.493 -0.4310  0.0750  0.5740
17765TIP3    H174786   5.113   2.620  15.422 -2.0946  0.4991  0.8105
17765TIP3    H274787   5.235   2.666  15.500 -0.2467 -0.1361 -1.5788
17766TIP3   OH274788   1.959   3.509  14.503 -0.2292 -0.5445 -0.4898
17766TIP3    H174789   2.045   3.504  14.461 -0.3634 -1.5809 -0.6702
17766TIP3    H274790   1.932   3.600  14.493  0.2382 -0.5206 -1.6786
17767TIP3   OH274791   3.775   5.871   4.900  0.2682 -0.0538  0.0634
17767TIP3    H174792   3.713   5.867   4.827 -2.0022  1.5193  1.7456
17767TIP3    H274793   3.836   5.940   4.877 -0.4465  0.4459 -0.3787
17768TIP3   OH274794   2.163   3.011   4.058 -0.2395 -0.0303 -0.2331
17768TIP3    H174795   2.166   3.081   4.123 -0.3858 -1.1631  1.0485
17768TIP3    H274796   2.254   3.002   4.029 -0.3501  1.2269 -1.0425
17769TIP3   OH274797   0.874   3.203  16.870  0.3674  0.1483 -0.1081
17769TIP3    H174798   0.821   3.216  16.948  2.1386  1.8009  0.8901
17769TIP3    H274799   0.891   3.109  16.868 -2.0726 -0.3611 -0.1866
17770TIP3   OH274800   4.086   0.186  15.026 -0.4767  0.2549  0.1664
17770TIP3    H174801   4.159   0.234  14.987  0.3591 -1.0957  0.0124
17770TIP3    H274802   4.068   0.115  14.964  1.4270 -2.4627  2.4154
17771TIP3   OH274803   5.404   1.508  15.800 -0.5139 -0.6902 -0.6652
17771TIP3    H174804   5.337   1.522  15.733 -0.5159  0.7042 -0.3862
17771TIP3    H274805   5.477   1.563  15.773 -1.5876  2.3357  1.9781
17772TIP3   OH274806   0.673   4.828   2.885  0.4352 -0.2309 -0.1022
17772TIP3    H174807   0.729   4.790   2.818  0.0428  0.8010 -1.0471
17772TIP3    H274808   0.733   4.857   2.954  0.7531 -2.3022  0.5464
17773TIP3   OH274809   6.264   0.779   5.341 -0.6162 -0.5692 -0.4826
17773TIP3    H174810   6.333   0.798   5.277  0.0401 -1.1131  0.0495
17773TIP3    H274811   6.309   0.782   5.426 -1.5706  0.6122  0.0008
17774TIP3   OH274812   3.092   0.842  16.422 -0.1837 -0.2198  0.2018
17774TIP3    H174813   3.117   0.913  16.482 -0.9915 -0.7299  1.1685
17774TIP3    H274814   3.162   0.840  16.357  0.8502  0.2081  1.2614
17775TIP3   OH274815   2.945   6.759  16.439  0.2598  0.0269 -0.2165
17775TIP3    H174816   2.997   6.760  16.520  1.6491 -0.7548 -1.0482
17775TIP3    H274817   2.869   6.813  16.458  1.7213  1.8215  0.8433
17776TIP3   OH274818   1.456   4.372  13.071 -0.0325  0.1526 -0.4860
17776TIP3    H174819   1.496   4.301  13.020  1.2804  0.7827 -0.3846
17776TIP3    H274820   1.482   4.452  13.024  1.2138  0.7486  1.1398
17777TIP3   OH274821   1.341   6.205   3.378  0.0679  0.4299 -0.5362
17777TIP3    H174822   1.371   6.224   3.289 -0.6715  0.8701 -0.7002
17777TIP3    H274823   1.272   6.140   3.366 -0.8005  1.3175 -0.3794
17778TIP3   OH274824   3.681   6.396   5.591 -0.0384 -0.0607  0.6882
17778TIP3    H174825   3.757   6.454   5.600 -1.2126  1.9548 -1.2968
17778TIP3    H274826   3.612   6.441   5.641 -0.5161 -0.6877  0.5926
17779TIP3   OH274827   0.305   4.638  14.774  0.0382  0.0598  0.2170
17779TIP3    H174828   0.277   4.727  14.795  2.2466  1.9968 -3.8437
17779TIP3    H274829   0.226   4.596  14.739 -0.2883  1.7879 -1.2710
17780TIP3   OH274830   3.882   0.623  17.377  0.1211 -0.1157 -0.0391
17780TIP3    H174831   3.893   0.654  17.288 -1.3111 -1.5283 -0.7534
17780TIP3    H274832   3.844   0.698  17.424 -1.2325 -0.0571 -1.1850
17781TIP3   OH274833   1.103   6.221   2.450  0.1604 -0.2735 -0.2620
17781TIP3    H174834   1.027   6.187   2.498  0.6021 -0.2849  0.4420
17781TIP3    H274835   1.109   6.313   2.477 -0.2035 -0.0000 -1.0963
17782TIP3   OH274836   2.632   3.703   0.720  0.3572 -0.1080  0.2029
17782TIP3    H174837   2.577   3.753   0.659  0.5476  0.2305  0.3070
17782TIP3    H274838   2.583   3.702   0.802  0.8263  0.8070  0.5025
17783TIP3   OH274839   6.169   2.600   5.341  0.3152 -0.3294  0.3277
17783TIP3    H174840   6.102   2.650   5.294  1.5092  1.6115  0.5613
17783TIP3    H274841   6.166   2.633   5.431  2.1472  0.4870  0.1392
17784TIP3   OH274842   2.704   5.980  16.757 -0.2393 -0.2425  0.4363
17784TIP3    H174843   2.679   6.069  16.733 -0.3931 -0.2412  0.5966
17784TIP3    H274844   2.662   5.966  16.843  0.2957 -0.2464  0.6985
17785TIP3   OH274845   2.735   6.279   2.763  0.2795  0.1351 -0.0620
17785TIP3    H174846   2.775   6.322   2.840  0.6058 -2.1588  1.1256
17785TIP3    H274847   2.734   6.186   2.786  1.5354 -0.8165 -3.3501
17786TIP3   OH274848   3.169   2.590  15.999  0.6281  0.4845 -0.2775
17786TIP3    H174849   3.157   2.659  16.065 -0.0663  1.2202 -1.1585
17786TIP3    H274850   3.107   2.522  16.024 -0.0356  1.0046 -0.4827
17787TIP3   OH274851   4.379   3.163   4.880  0.1774 -0.3288  0.0325
17787TIP3    H174852   4.445   3.113   4.832 -1.4949 -0.8037 -1.8895
17787TIP3    H274853   4.307   3.174   4.818 -1.7119 -0.1174  2.1312
17788TIP3   OH274854   2.257   2.825  13.993  0.2095 -0.4031  0.6739
17788TIP3    H174855   2.227   2.891  13.932  2.0087 -0.5143 -0.4094
17788TIP3    H274856   2.184   2.764  14.001  0.3556 -1.1815 -2.5495
17789TIP3   OH274857   5.986   5.640   2.963  0.2513 -0.1461  0.4528
17789TIP3    H174858   5.916   5.705   2.959 -0.4321 -0.7840  1.6064
17789TIP3    H274859   6.038   5.656   2.884 -0.9436  0.6093 -0.2102
17790TIP3   OH274860   0.298   5.489   0.102  0.2024  0.0225  0.4337
17790TIP3    H174861   0.328   5.510   0.190 -3.3052  0.8305  1.6091
17790TIP3    H274862   0.217   5.440   0.115 -0.0381 -0.5296 -2.3838
17791TIP3   OH274863   5.998   5.068  14.459  0.1063 -0.3764  0.6564
17791TIP3    H174864   6.035   5.152  14.431 -0.1444  0.5040  2.7457
17791TIP3    H274865   6.059   5.036  14.526 -0.6327 -1.0658  1.0254
17792TIP3   OH274866   0.988   0.093   5.520  0.5492 -0.1520  0.1637
17792TIP3    H174867   0.894   0.112   5.517  0.2929 -1.1763  1.0838
17792TIP3    H274868   1.030   0.175   5.492 -0.6109  0.2640 -0.4444
17793TIP3   OH274869   5.353   5.870  13.079 -0.6154  0.3336 -0.3739
17793TIP3    H174870   5.375   5.800  13.142 -0.2516 -1.3103 -2.2390
17793TIP3    H274871   5.263   5.894  13.101 -0.4037  0.0388  0.9557
17794TIP3   OH274872   0.264   4.677   1.044 -0.1422  0.2516 -0.2838
17794TIP3    H174873   0.229   4.631   0.968  0.6146  0.2119 -0.6066
17794TIP3    H274874   0.345   4.631   1.065 -0.3784  0.2030  0.6052
17795TIP3   OH274875   4.547   5.677  16.809  0.4098 -0.7586 -0.0368
17795TIP3    H174876   4.623   5.728  16.780 -0.8605  0.1785 -1.9334
17795TIP3    H274877   4.508   5.643  16.728 -2.3688  0.5854  0.6048
17796TIP3   OH274878   2.602   0.422   4.969 -0.2555 -0.3112  0.3515
17796TIP3    H174879   2.514   0.416   4.934 -0.2387  0.3070  0.1968
17796TIP3    H274880   2.627   0.331   4.987  0.3683 -0.9022 -2.8111
17797TIP3   OH274881   5.738   6.376  17.206  0.2866  0.0669 -0.5975
17797TIP3    H174882   5.787   6.304  17.167  2.0891  0.8950  0.0685
17797TIP3    H274883   5.727   6.350  17.298  0.5720  0.4439 -0.4550
17798TIP3   OH274884   6.088   5.260  14.255 -0.0679  0.1141 -0.5998
17798TIP3    H174885   6.019   5.295  14.198 -1.3547 -1.9406 -0.4145
17798TIP3    H274886   6.125   5.188  14.205 -0.4325 -0.9833  0.6772
17799TIP3   OH274887   5.964   2.994  11.845 -0.3783 -0.8173  0.4850
17799TIP3    H174888   6.027   2.923  11.846 -0.7568 -1.1644  0.0413
17799TIP3    H274889   6.017   3.073  11.855  0.2516 -1.0245 -0.9523
17800TIP3   OH274890   5.075   5.123   1.256  0.4519  0.2609 -0.0425
17800TIP3    H174891   5.039   5.166   1.334  1.2861  1.4745 -0.2928
17800TIP3    H274892   4.998   5.092   1.209 -0.0551 -1.0679  1.5405
17801TIP3   OH274893   0.069   6.757  13.209  0.6274  0.1607  0.0213
17801TIP3    H174894   0.086   6.767  13.116 -1.9259  0.2078 -0.5270
17801TIP3    H274895   0.124   6.824  13.251  1.4630  0.4568 -1.4686
17802TIP3   OH274896   3.728   6.106  13.640  0.7845  0.4339 -0.1015
17802TIP3    H174897   3.700   6.014  13.649  0.4312  0.5796  0.3043
17802TIP3    H274898   3.679   6.153  13.707  1.2627  0.8603 -0.0438
17803TIP3   OH274899   1.992   4.961  17.082  0.5844  0.1858 -0.2117
17803TIP3    H174900   2.073   4.934  17.127  0.7676 -0.5274 -0.9482
17803TIP3    H274901   2.009   4.943  16.990  0.2266  1.6685 -0.5833
17804TIP3   OH274902   4.182   1.818  12.572 -0.1023  0.0582  0.2295
17804TIP3    H174903   4.217   1.850  12.655 -0.4724 -0.9581  0.7966
17804TIP3    H274904   4.258   1.816  12.514  0.3302 -0.0150  0.7842
17805TIP3   OH274905   1.837   4.972   0.449  0.0386 -0.5681  0.4258
17805TIP3    H174906   1.780   5.037   0.407  0.8643  1.5388  2.3788
17805TIP3    H274907   1.925   4.994   0.417  0.5499  0.4587  2.3770
17806TIP3   OH274908   0.142   3.702   1.382 -0.7477  0.9301  0.0396
17806TIP3    H174909   0.102   3.654   1.455 -0.1725 -2.5697 -1.7102
17806TIP3    H274910   0.117   3.652   1.304 -0.1247  3.6459 -2.0695
17807TIP3   OH274911   0.970   3.966  12.881 -0.4865  0.2316  0.1018
17807TIP3    H174912   0.948   4.050  12.841 -0.2007  0.4804  0.4602
17807TIP3    H274913   0.886   3.923  12.895 -0.5633 -0.1819 -1.4400
17808TIP3   OH274914   2.356   4.975  16.910  0.1521  0.1122  0.3138
17808TIP3    H174915   2.381   4.912  16.977  1.1809  1.4573  1.2288
17808TIP3    H274916   2.434   5.029  16.896 -0.7319  1.2734 -0.3370
17809TIP3   OH274917   0.421   4.486  13.214 -0.1998  0.6276 -0.3250
17809TIP3    H174918   0.477   4.517  13.285  0.5529 -2.4667  0.5624
17809TIP3    H274919   0.481   4.456  13.146 -0.7542 -1.0641 -0.1149
17810TIP3   OH274920   2.176   0.844  13.526  0.2653 -0.1334 -0.6013
17810TIP3    H174921   2.088   0.829  13.491  0.0916 -1.4981  0.3493
17810TIP3    H274922   2.164   0.913  13.591 -0.3068 -1.0204  0.2528
17811TIP3   OH274923   0.019   1.543   3.616  0.5963  0.0217  0.1801
17811TIP3    H174924   0.051   1.509   3.700 -0.1838  0.9364  0.8664
17811TIP3    H274925   0.072   1.620   3.599 -0.1258  0.6156  0.5254
17812TIP3   OH274926   5.196   2.388   4.450  0.2909  0.1533 -0.3179
17812TIP3    H174927   5.145   2.331   4.508 -1.1915  1.1742 -0.5682
17812TIP3    H274928   5.164   2.368   4.362  1.7674 -0.6181 -0.7148
17813TIP3   OH274929   4.104   0.052  15.259 -0.2312 -0.3627  0.8502
17813TIP3    H174930   4.155   0.062  15.179 -0.9536 -0.2414  0.3890
17813TIP3    H274931   4.053   0.133  15.265 -1.0301 -0.8542  0.8061
17814TIP3   OH274932   1.391   2.147   3.606 -0.0093 -0.0435 -0.1298
17814TIP3    H174933   1.363   2.063   3.571  0.1221  0.3694 -1.2582
17814TIP3    H274934   1.486   2.139   3.612 -0.0267 -0.0934  0.0886
17815TIP3   OH274935   1.922   1.059  12.875 -0.0050 -0.1744 -0.3320
17815TIP3    H174936   1.868   1.134  12.849 -1.8849 -0.4703  2.3101
17815TIP3    H274937   2.002   1.099  12.909  0.1257  0.4457 -1.3052
17816TIP3   OH274938   2.858   2.947  13.994 -0.2181 -0.5664 -0.7194
17816TIP3    H174939   2.870   2.990  13.909  0.1140 -2.1760 -1.5240
17816TIP3    H274940   2.785   2.886  13.980 -1.1827  0.2391  0.6092
17817TIP3   OH274941   0.874   0.552  13.278  0.3493 -0.1416  0.1769
17817TIP3    H174942   0.891   0.458  13.285  0.5890 -0.1250 -0.1588
17817TIP3    H274943   0.842   0.577  13.365  0.5864 -0.4710  0.3630
17818TIP3   OH274944   5.800   4.602   4.631  0.1546  0.3317 -0.4831
17818TIP3    H174945   5.877   4.658   4.628  0.1239  0.3422 -2.7373
17818TIP3    H274946   5.729   4.658   4.598 -0.8896  0.3767  1.7006
17819TIP3   OH274947   5.336   6.301  13.613 -0.0236  0.2957  1.0233
17819TIP3    H174948   5.428   6.304  13.639  0.7945  0.7457 -1.6309
17819TIP3    H274949   5.288   6.325  13.692  2.1301  0.2264  2.4319
17820TIP3   OH274950   1.304   3.841   2.199 -0.7825 -0.4958  0.0484
17820TIP3    H174951   1.279   3.749   2.198 -1.7505 -0.2476  0.1657
17820TIP3    H274952   1.223   3.887   2.224 -0.1661  0.3345  0.5434
17821TIP3   OH274953   0.678   1.479   2.392 -0.1016  0.6499  0.2443
17821TIP3    H174954   0.750   1.429   2.353 -0.8823  0.4372 -0.9631
17821TIP3    H274955   0.665   1.437   2.478 -1.4660 -2.0501 -1.1494
17822TIP3   OH274956   5.497   3.851  11.746 -0.0311 -1.0019 -0.3548
17822TIP3    H174957   5.561   3.789  11.713 -1.0239 -2.8685  1.0365
17822TIP3    H274958   5.421   3.797  11.770 -0.6008  0.5919  1.7785
17823TIP3   OH274959   0.569   3.620   6.317 -0.2407 -0.4573 -0.0982
17823TIP3    H174960   0.650   3.647   6.274 -0.5490  0.7520  0.0453
17823TIP3    H274961   0.597   3.564   6.388  0.5479  0.5820  0.4447
17824TIP3   OH274962   4.687   5.953   4.667  0.1596  0.0922  0.2290
17824TIP3    H174963   4.621   5.965   4.599 -0.6123  0.1645  0.9701
17824TIP3    H274964   4.762   6.005   4.639 -0.0394 -0.1199 -0.7032
17825TIP3   OH274965   6.006   6.315  15.239  0.0677  0.0462 -0.2759
17825TIP3    H174966   6.007   6.244  15.175 -0.3964 -0.9008  0.7203
17825TIP3    H274967   5.941   6.287  15.304  0.1657  1.2063  0.3440
17826TIP3   OH274968   1.465   6.460   5.203  0.2538  0.0655  0.1509
17826TIP3    H174969   1.498   6.534   5.152 -1.1814  1.5070  1.2008
17826TIP3    H274970   1.433   6.499   5.284  2.2338 -2.0989  2.1481
17827TIP3   OH274971   0.414   5.036   1.434  0.1328  0.4933 -1.0642
17827TIP3    H174972   0.376   5.112   1.478  0.5257  0.1782 -0.1531
17827TIP3    H274973   0.338   4.988   1.400 -0.3478 -0.2373  0.9104
17828TIP3   OH274974   5.584   2.935   3.050 -0.2791  0.2138 -0.8277
17828TIP3    H174975   5.505   2.880   3.049  0.2016 -0.4781 -1.1435
17828TIP3    H274976   5.654   2.878   3.019  0.5685  0.5049  0.4527
17829TIP3   OH274977   2.279   3.143  11.322 -0.3647  0.1864  0.0560
17829TIP3    H174978   2.320   3.229  11.325  0.4622 -0.1962  0.1047
17829TIP3    H274979   2.250   3.134  11.231 -1.4373  0.9420  0.3002
17830TIP3   OH274980   4.968   5.876   6.640  0.4647 -0.1991  0.4367
17830TIP3    H174981   5.010   5.959   6.616  1.8573 -0.6718  1.1294
17830TIP3    H274982   4.892   5.902   6.692  0.4045  0.6553 -0.0498
17831TIP3   OH274983   2.381   2.243   3.334 -0.6134  0.0053 -0.0588
17831TIP3    H174984   2.404   2.217   3.423 -0.5526 -2.1703 -0.6473
17831TIP3    H274985   2.463   2.232   3.284 -0.3652  2.1654 -0.2614
17832TIP3   OH274986   4.806   1.676   5.797 -0.1513  0.0096  0.2544
17832TIP3    H174987   4.898   1.669   5.775  0.6541  0.2361  3.1288
17832TIP3    H274988   4.792   1.610   5.865 -1.9486  0.4182  0.3470
17833TIP3   OH274989   1.354   4.872   1.309 -0.1070  0.2976 -0.1714
17833TIP3    H174990   1.269   4.915   1.298  0.1517  0.8419 -0.0845
17833TIP3    H274991   1.371   4.831   1.224 -1.2725 -1.3430  0.3439
17834TIP3   OH274992   4.383   1.841  11.519  0.1132 -0.2184  0.5630
17834TIP3    H174993   4.318   1.906  11.494  0.0179 -0.0518  1.2160
17834TIP3    H274994   4.349   1.758  11.484  1.0712  0.2952 -1.7621
17835TIP3   OH274995   0.945   6.691  12.427 -0.2952  0.2541  0.0626
17835TIP3    H174996   1.022   6.726  12.471 -0.5460  2.1129 -0.8926
17835TIP3    H274997   0.962   6.597  12.420  0.3307  0.0707  2.8692
17836TIP3   OH274998   3.502   4.256  16.345  0.0168  0.0471 -0.0852
17836TIP3    H174999   3.555   4.182  16.317 -0.9805 -0.4033 -0.8338
17836TIP3    H275000   3.434   4.218  16.402 -0.8901  0.2720 -0.9883
17837TIP3   OH275001   6.575   2.486  11.493 -0.3432 -0.0046 -0.1113
17837TIP3    H175002   6.555   2.404  11.538  0.4964 -0.4287 -0.4911
17837TIP3    H275003   6.491   2.518  11.463 -0.6664 -0.7966 -0.0745
17838TIP3   OH275004   3.613   5.118  13.090 -0.4226  0.4088 -0.5771
17838TIP3    H175005   3.694   5.080  13.056 -0.9749 -0.3764 -1.0365
17838TIP3    H275006   3.548   5.101  13.022 -2.0275 -2.9058  1.5192
17839TIP3   OH275007   6.229   1.320  16.440 -0.6806  0.0527 -0.3486
17839TIP3    H175008   6.285   1.316  16.518  0.7191 -1.3070 -1.3686
17839TIP3    H275009   6.252   1.242  16.390  0.0347  1.9119 -3.1759
17840TIP3   OH275010   0.657   0.202   1.878 -0.6894 -0.3472 -0.4765
17840TIP3    H175011   0.666   0.278   1.821 -2.3158  0.1505 -0.1087
17840TIP3    H275012   0.740   0.199   1.927 -0.4980  1.0412 -0.6666
17841TIP3   OH275013   1.885   4.445  17.139 -0.0857 -0.3944 -0.4261
17841TIP3    H175014   1.949   4.515  17.153  2.7858 -2.9288  0.3483
17841TIP3    H275015   1.843   4.433  17.224  0.9495 -0.9502  0.0222
17842TIP3   OH275016   0.367   6.428   3.811 -0.2430  0.6100 -0.4927
17842TIP3    H175017   0.386   6.338   3.784  0.4025  0.6356 -0.1399
17842TIP3    H275018   0.318   6.418   3.893 -0.9251  0.5672 -0.8959
17843TIP3   OH275019   5.791   3.130  12.314 -0.6431 -0.3475  0.5309
17843TIP3    H175020   5.774   3.048  12.362 -1.5056 -0.7352 -0.4079
17843TIP3    H275021   5.866   3.109  12.258  0.4690  0.1536  1.7768
17844TIP3   OH275022   2.143   2.727  12.343  0.2738  0.5439  0.3874
17844TIP3    H175023   2.128   2.681  12.261  2.5446  2.2888 -1.1344
17844TIP3    H275024   2.224   2.691  12.377  0.1565  0.8964  1.0655
17845TIP3   OH275025   5.133   5.704  14.620 -0.6941 -0.4092  0.4194
17845TIP3    H175026   5.129   5.658  14.536 -1.3736  0.7419 -0.2103
17845TIP3    H275027   5.047   5.743  14.631 -0.2458  0.4509  1.0629
17846TIP3   OH275028   4.505   6.609   2.783  1.0287 -0.4813  0.6689
17846TIP3    H175029   4.528   6.634   2.693 -0.3265 -1.1843  0.1082
17846TIP3    H275030   4.573   6.546   2.808  0.2836 -1.9075 -0.6703
17847TIP3   OH275031   4.506   5.435   1.607  0.4181  0.1966 -0.2159
17847TIP3    H175032   4.503   5.381   1.528  1.1566  0.7365 -0.6158
17847TIP3    H275033   4.562   5.509   1.584  2.8050 -0.9380  1.6159
17848TIP3   OH275034   4.551   1.824   1.125  0.0274 -0.2825 -0.5717
17848TIP3    H175035   4.560   1.850   1.216 -0.9339  1.0243 -0.8276
17848TIP3    H275036   4.628   1.769   1.108  0.0043 -0.9048  1.1234
17849TIP3   OH275037   4.475   6.323  16.859  0.1978  0.4232  0.0988
17849TIP3    H175038   4.466   6.418  16.870 -1.0368  0.3031  0.2088
17849TIP3    H275039   4.507   6.292  16.943 -1.3784  0.5075  0.7587
17850TIP3   OH275040   3.723   0.635   4.643  0.5374 -0.2971 -0.3208
17850TIP3    H175041   3.698   0.562   4.586  1.4719  0.7371 -2.1671
17850TIP3    H275042   3.740   0.595   4.728  0.0164 -2.0605 -1.0045
17851TIP3   OH275043   5.371   0.577  13.180  0.4836 -0.1768  0.0082
17851TIP3    H175044   5.458   0.553  13.213  0.0917  1.0065  2.0823
17851TIP3    H275045   5.316   0.580  13.258 -1.4031 -0.7056 -1.2392
17852TIP3   OH275046   5.829   3.631  11.828 -0.2470  0.7166 -0.2465
17852TIP3    H175047   5.849   3.712  11.875  1.4354  0.6174 -0.7151
17852TIP3    H275048   5.773   3.582  11.887 -0.6423  1.8716  0.3784
17853TIP3   OH275049   5.602   1.838  10.804 -0.1944  0.6899 -0.3872
17853TIP3    H175050   5.661   1.784  10.750  1.1858  1.3844  0.3817
17853TIP3    H275051   5.542   1.775  10.843  1.6619 -0.4148  0.8445
17854TIP3   OH275052   4.761   2.523   3.660 -0.1199 -0.3135 -0.2500
17854TIP3    H175053   4.832   2.473   3.700 -0.1750 -0.3317 -0.1731
17854TIP3    H275054   4.754   2.490   3.571  0.1923 -0.0749 -0.3638
17855TIP3   OH275055   0.670   2.463   2.414 -0.0041 -0.2759 -0.0207
17855TIP3    H175056   0.735   2.422   2.472 -0.2021  0.4675  0.7374
17855TIP3    H275057   0.711   2.462   2.328 -0.0501 -2.2043 -0.0776
17856TIP3   OH275058   0.597   1.219  15.370  0.5723  0.5659  0.5939
17856TIP3    H175059   0.508   1.186  15.381  1.5064 -2.1793  0.7796
17856TIP3    H275060   0.629   1.177  15.290  2.0697  0.5323  1.1724
17857TIP3   OH275061   0.265   4.197   2.193 -0.1438  0.4933  0.3368
17857TIP3    H175062   0.350   4.237   2.211 -0.3084  1.2837 -0.5471
17857TIP3    H275063   0.277   4.151   2.110 -0.4300  0.1660  0.4745
17858TIP3   OH275064   4.157   4.885  15.033  0.2047  1.0994  0.1281
17858TIP3    H175065   4.161   4.791  15.049  0.4460  1.0298 -0.2952
17858TIP3    H275066   4.229   4.901  14.971  1.3087  1.8499  1.5368
17859TIP3   OH275067   1.812   4.490  13.221  0.7979 -0.6601  0.1439
17859TIP3    H175068   1.845   4.496  13.132  0.3517  1.3732  0.0520
17859TIP3    H275069   1.890   4.491  13.276  1.0380 -0.3240 -0.1941
17860TIP3   OH275070   2.319   2.429   3.145  0.0556 -0.1010 -0.0930
17860TIP3    H175071   2.342   2.369   3.216  1.7992 -0.7994 -1.1766
17860TIP3    H275072   2.380   2.407   3.074 -1.9085  0.2289 -2.0112
17861TIP3   OH275073   4.228   3.978   0.456 -0.5436 -0.3964  0.1085
17861TIP3    H175074   4.270   4.018   0.533 -0.8341 -0.1405  0.1376
17861TIP3    H275075   4.204   3.890   0.485 -1.2541 -0.0666  0.5246
17862TIP3   OH275076   1.033   2.634  10.486 -0.3348 -0.8495  0.2079
17862TIP3    H175077   0.997   2.703  10.430  1.6193 -0.7341 -0.9845
17862TIP3    H275078   0.956   2.598  10.531 -1.5205  1.5277  0.2747
17863TIP3   OH275079   6.369   5.215  14.478  0.2599  1.1165 -1.2582
17863TIP3    H175080   6.319   5.148  14.432 -1.0408  1.8443 -0.9590
17863TIP3    H275081   6.458   5.179  14.483 -0.5446 -0.9149 -0.4517
17864TIP3   OH275082   0.124   1.491  11.907  0.1526  0.1048  0.3936
17864TIP3    H175083   0.169   1.431  11.967  1.2902  1.7636  1.2542
17864TIP3    H275084   0.152   1.462  11.820 -0.2980 -1.3630  0.7039
17865TIP3   OH275085   2.104   4.869   5.077  0.4871  0.1362  0.8580
17865TIP3    H175086   2.169   4.825   5.132  0.6975 -1.2016 -0.4200
17865TIP3    H275087   2.027   4.814   5.081 -0.3731  1.3515  1.7867
17866TIP3   OH275088   6.439   0.874  13.334 -0.4328  0.1503 -0.6572
17866TIP3    H175089   6.394   0.942  13.385  0.7992 -0.8170  1.9293
17866TIP3    H275090   6.418   0.793  13.380 -0.2878 -0.9951 -2.5163
17867TIP3   OH275091   4.215   1.832   5.894 -0.5897 -0.2256  0.4378
17867TIP3    H175092   4.219   1.900   5.961 -0.3096  0.6933 -0.4850
17867TIP3    H275093   4.199   1.879   5.813 -0.7823 -1.3045 -0.1692
17868TIP3   OH275094   5.206   5.914   3.908  0.3169 -0.6189  0.0363
17868TIP3    H175095   5.193   5.921   4.002 -1.2830 -0.2315 -0.1947
17868TIP3    H275096   5.293   5.952   3.894  0.4917 -0.4902  1.3292
17869TIP3   OH275097   0.903   0.816  13.166  0.3330  0.1601 -0.0603
17869TIP3    H175098   0.912   0.725  13.196 -2.4806 -0.3782 -0.4760
17869TIP3    H275099   0.932   0.869  13.239  1.4077 -1.0757  0.4485
17870TIP3   OH275100   2.518   0.082   1.543 -0.1422  0.0787  0.1783
17870TIP3    H175101   2.508   0.070   1.637  1.0155  0.3498  0.3496
17870TIP3    H275102   2.567   0.163   1.534 -0.0930 -0.0356 -0.6512
17871TIP3   OH275103   5.411   0.499   2.461 -0.3260 -0.0683 -0.4906
17871TIP3    H175104   5.496   0.461   2.482 -1.0683 -0.9627  1.0221
17871TIP3    H275105   5.431   0.574   2.404  1.2228 -2.3746 -3.2576
17872TIP3   OH275106   4.228   3.481  14.272 -0.0774  0.4219  0.5334
17872TIP3    H175107   4.207   3.527  14.192 -0.6778  1.4170  1.2505
17872TIP3    H275108   4.238   3.389  14.245 -0.9929  0.6194 -0.5436
17873TIP3   OH275109   4.444   4.491   4.648  0.0063  0.6086 -0.0359
17873TIP3    H175110   4.425   4.500   4.554  0.6176 -0.1945 -0.2529
17873TIP3    H275111   4.367   4.447   4.684  0.8187 -1.4787 -0.6748
17874TIP3   OH275112   0.018   0.547  13.794 -0.0050  0.4172  0.1412
17874TIP3    H175113  -0.011   0.456  13.790  2.9279 -0.8473  2.9126
17874TIP3    H275114   0.034   0.562  13.887  0.4569  3.5228 -0.3558
17875TIP3   OH275115   6.163   2.088  13.510  0.2356  0.2483 -0.2697
17875TIP3    H175116   6.166   2.057  13.419 -0.6123  0.0298 -0.2308
17875TIP3    H275117   6.131   2.013  13.560 -0.2242  0.6650  0.0693
17876TIP3   OH275118   6.351   5.111   1.719 -0.2617  0.2342 -0.4520
17876TIP3    H175119   6.270   5.147   1.754 -0.2533  0.8403 -1.0238
17876TIP3    H275120   6.410   5.107   1.795 -0.0670  2.0301 -0.4601
17877TIP3   OH275121   5.155   3.259   3.072  0.0497  0.3399 -0.1269
17877TIP3    H175122   5.235   3.210   3.055  0.2839  1.1106 -1.4413
17877TIP3    H275123   5.135   3.302   2.988 -0.2324  2.3511  0.9054
17878TIP3   OH275124   6.195   4.305  13.639  0.6657 -0.3104 -0.1448
17878TIP3    H175125   6.284   4.303  13.605  0.6734  0.9435 -0.2572
17878TIP3    H275126   6.139   4.286  13.564  0.7869  0.0517 -0.3260
17879TIP3   OH275127   3.451   2.462   1.444  0.5203 -0.0927 -0.0528
17879TIP3    H175128   3.445   2.524   1.517  1.8191  0.8201 -0.6830
17879TIP3    H275129   3.375   2.405   1.455  0.2729  0.4855  1.5781
17880TIP3   OH275130   5.551   0.177  13.856  0.7989 -0.0203  0.1356
17880TIP3    H175131   5.615   0.247  13.868  0.6559  0.0207  0.7167
17880TIP3    H275132   5.520   0.187  13.766  0.8698  0.5863  0.1736
17881TIP3   OH275133   1.938   4.529  15.843 -0.3002 -0.1376  0.3624
17881TIP3    H175134   1.922   4.457  15.905 -1.7531 -1.1412 -1.1100
17881TIP3    H275135   1.933   4.488  15.757  0.8437  1.3904 -0.4783
17882TIP3   OH275136   0.488   5.968   1.155 -0.2428 -0.9875  0.6037
17882TIP3    H175137   0.486   6.059   1.128 -1.3809 -1.0861  0.2839
17882TIP3    H275138   0.578   5.953   1.184 -0.3202  0.5180  1.6928
17883TIP3   OH275139   0.271   0.980   6.022  0.2100  0.2128 -0.5805
17883TIP3    H175140   0.265   1.035   6.100 -1.5537 -0.7143 -0.0119
17883TIP3    H275141   0.196   0.921   6.028  0.7166 -0.6932 -2.3711
17884TIP3   OH275142   6.622   3.538  11.779 -0.5218 -0.6598  1.0894
17884TIP3    H175143   6.608   3.468  11.716  0.4996  0.5010 -0.5179
17884TIP3    H275144   6.710   3.570  11.760 -0.6400  0.4999  2.3289
17885TIP3   OH275145   5.174   2.214  11.227 -0.3090  0.1710  0.0472
17885TIP3    H175146   5.119   2.240  11.153 -0.4000 -1.9388 -0.6963
17885TIP3    H275147   5.241   2.158  11.188 -0.5632 -1.2737  1.5948
17886TIP3   OH275148   4.180   2.111  15.285 -0.2797 -0.6664  0.2283
17886TIP3    H175149   4.162   2.132  15.377 -3.5674  2.7175 -0.9257
17886TIP3    H275150   4.099   2.072  15.253  0.4129 -0.7703 -1.4911
17887TIP3   OH275151   2.540   0.081  14.773 -0.4871  0.3730  0.1833
17887TIP3    H175152   2.554   0.117  14.861 -0.6699  0.0187  0.3580
17887TIP3    H275153   2.453   0.041  14.777  0.7351 -2.4823  0.8178
17888TIP3   OH275154   5.526   5.326  14.501  0.1139 -0.1689 -0.1407
17888TIP3    H175155   5.530   5.414  14.463  1.6513 -0.3027 -0.3686
17888TIP3    H275156   5.574   5.271  14.439  0.3844 -0.8891  0.6851
17889TIP3   OH275157   5.285   2.928  11.581 -0.0558 -0.3734  0.2121
17889TIP3    H175158   5.357   2.866  11.577  0.6229  0.4524 -0.7362
17889TIP3    H275159   5.212   2.877  11.617  0.5690 -1.6248 -0.2260
17890TIP3   OH275160   6.761   5.694   3.229  0.5662 -0.3113 -0.5195
17890TIP3    H175161   6.846   5.735   3.242  1.3378 -2.0594  0.1164
17890TIP3    H275162   6.734   5.667   3.317 -0.7744  0.4042 -0.6763
17891TIP3   OH275163   2.898   0.257   4.535 -0.1637  0.0507 -0.9078
17891TIP3    H175164   2.969   0.231   4.476  0.3326  0.1338 -0.3580
17891TIP3    H275165   2.839   0.309   4.479  1.8161  2.7576 -0.7292
17892TIP3   OH275166   1.249   4.089   4.621 -0.1382 -0.1789  0.5026
17892TIP3    H175167   1.254   4.074   4.527 -0.6021  2.0021  0.0867
17892TIP3    H275168   1.157   4.079   4.643 -0.4566  1.8133  0.2177
17893TIP3   OH275169   4.335   2.462  13.300  0.4605 -0.0600 -0.2885
17893TIP3    H175170   4.240   2.458  13.312  0.3662 -0.9002 -1.1598
17893TIP3    H275171   4.351   2.409  13.222  1.6598 -0.0274 -0.0782
17894TIP3   OH275172   6.371   0.651   0.855 -0.4370 -0.2119 -0.1118
17894TIP3    H175173   6.349   0.646   0.762  0.2079 -0.4236 -0.2588
17894TIP3    H275174   6.322   0.580   0.896 -0.0625 -0.6488 -0.4225
17895TIP3   OH275175   3.953   5.634   1.089 -0.2474 -0.0485  0.4190
17895TIP3    H175176   4.018   5.630   1.159 -1.7172 -1.0059  1.7730
17895TIP3    H275177   3.872   5.602   1.128 -0.8316 -1.9102 -2.0521
17896TIP3   OH275178   0.908   3.642   1.879  0.0678  0.1012 -0.7219
17896TIP3    H175179   0.826   3.615   1.837 -0.6515  0.1337  0.5791
17896TIP3    H275180   0.935   3.566   1.930  0.7958  0.1331 -1.0519
17897TIP3   OH275181   2.228   4.111   0.669  0.3980  0.2164 -0.1913
17897TIP3    H175182   2.211   4.069   0.753  0.8494 -1.4197 -0.8845
17897TIP3    H275183   2.164   4.183   0.665 -1.1400 -1.0463  0.5826
17898TIP3   OH275184   2.718   3.797  15.171  0.0380  0.7425 -0.6098
17898TIP3    H175185   2.760   3.837  15.095  3.0585  0.1733  0.6236
17898TIP3    H275186   2.747   3.849  15.245 -0.5200 -0.3812  0.4404
17899TIP3   OH275187   4.727   3.025  12.756 -0.1052  0.0663  0.1201
17899TIP3    H175188   4.707   3.119  12.763 -2.2058 -0.4079  1.3191
17899TIP3    H275189   4.657   2.990  12.700 -0.8877 -1.1500  1.7664
17900TIP3   OH275190   3.053   3.347  13.531 -0.0982  0.0043 -0.1602
17900TIP3    H175191   3.078   3.257  13.548 -0.4288 -0.4394 -1.8386
17900TIP3    H275192   3.128   3.384  13.484 -0.1800  0.4537  0.0540
17901TIP3   OH275193   1.043   4.386   4.722  0.0357 -0.2050  0.1222
17901TIP3    H175194   1.081   4.302   4.749  0.5218  0.3102  1.0894
17901TIP3    H275195   1.049   4.441   4.800  0.7442  1.0880 -0.8190
17902TIP3   OH275196   1.129   1.176   2.369  0.1513  0.5321 -0.0103
17902TIP3    H175197   1.122   1.263   2.408 -2.0939  0.8248 -0.9104
17902TIP3    H275198   1.182   1.188   2.290  0.4299  0.9374  0.2373
17903TIP3   OH275199   2.562   6.526   1.132 -0.4104 -0.3439  0.1411
17903TIP3    H175200   2.617   6.471   1.188  0.2229 -0.7882 -0.8860
17903TIP3    H275201   2.476   6.483   1.133 -0.5609 -0.0416  1.1920
17904TIP3   OH275202   5.907   4.933  17.027 -0.0134 -0.3672  0.6276
17904TIP3    H175203   5.820   4.901  17.050 -1.2960  2.0742 -0.3667
17904TIP3    H275204   5.894   4.980  16.945  2.4722 -0.7286 -0.0526
17905TIP3   OH275205   0.194   5.517  12.847 -0.2701  0.0131  0.0506
17905TIP3    H175206   0.220   5.461  12.773  1.5940  0.2921  0.4348
17905TIP3    H275207   0.184   5.604  12.808  2.3593  0.5156  0.3154
17906TIP3   OH275208   5.960   5.229  13.981  0.1429 -0.6443 -0.1543
17906TIP3    H175209   6.001   5.154  13.938 -0.3828 -0.5625 -0.8162
17906TIP3    H275210   5.873   5.198  14.005  0.4777 -0.7424  1.0288
17907TIP3   OH275211   1.388   1.356  14.762 -0.3965 -0.3142 -0.0744
17907TIP3    H175212   1.482   1.342  14.772 -0.5900 -1.7640  0.0075
17907TIP3    H275213   1.363   1.297  14.691 -1.0474  0.9902 -0.9561
17908TIP3   OH275214   5.425   3.052  14.986 -0.4197 -0.2189 -0.3124
17908TIP3    H175215   5.492   3.075  14.922 -0.6643  0.5365 -0.3009
17908TIP3    H275216   5.392   2.967  14.956  2.0898 -1.7568  0.9155
17909TIP3   OH275217   5.406   1.911  14.729  0.0489  0.1616 -0.1961
17909TIP3    H175218   5.336   1.847  14.727  0.7832 -0.6289 -1.5444
17909TIP3    H275219   5.480   1.868  14.688  1.1972  1.1535  0.7339
17910TIP3   OH275220   0.507   1.450  15.752 -0.2161 -0.0152 -0.2540
17910TIP3    H175221   0.497   1.512  15.680 -0.8431 -0.5747 -0.6648
17910TIP3    H275222   0.507   1.364  15.710 -1.6437 -0.4114  0.4985
17911TIP3   OH275223   4.698   1.269  14.206  0.1381 -0.3830  0.8105
17911TIP3    H175224   4.677   1.297  14.295 -1.4181 -0.4352  0.4901
17911TIP3    H275225   4.654   1.184  14.196  0.1673 -0.3101 -0.0472
17912TIP3   OH275226   2.867   4.570  14.939  0.0527  1.0053 -0.0990
17912TIP3    H175227   2.927   4.570  14.865 -0.1133  0.6829 -0.2333
17912TIP3    H275228   2.780   4.564  14.900 -0.1209  2.2987  0.0573
17913TIP3   OH275229   6.291   5.738  17.317  0.6259 -0.0393  0.4528
17913TIP3    H175230   6.236   5.815  17.305 -0.8899 -0.8781  1.5896
17913TIP3    H275231   6.306   5.733  17.412  1.7930 -0.4318  0.2710
17914TIP3   OH275232   2.988   2.430  12.525 -0.5541 -0.0024 -0.6838
17914TIP3    H175233   2.897   2.458  12.523 -0.5271  0.2099  0.2968
17914TIP3    H275234   3.018   2.453  12.613  0.7074  0.7183 -1.2733
17915TIP3   OH275235   4.177   3.490   2.800  0.3312  0.4944 -0.4035
17915TIP3    H175236   4.186   3.441   2.881  2.0128 -1.0030 -1.4088
17915TIP3    H275237   4.113   3.559   2.819 -3.7887 -3.1779  0.5720
17916TIP3   OH275238   3.471   4.694   4.088 -0.4804  0.1843 -0.0196
17916TIP3    H175239   3.436   4.775   4.050 -1.3004 -0.9837 -1.8674
17916TIP3    H275240   3.565   4.710   4.095 -0.4695  0.9180 -1.4043
17917TIP3   OH275241   6.700   1.143  13.170 -0.1654 -0.0303  0.3027
17917TIP3    H175242   6.677   1.167  13.260 -1.6036  0.7140 -0.2182
17917TIP3    H275243   6.687   1.048  13.167  4.1033 -0.8726  1.9831
17918TIP3   OH275244   0.835   3.448   3.702 -0.3349  0.8192  0.4239
17918TIP3    H175245   0.884   3.528   3.720  0.9731  0.0497  0.4090
17918TIP3    H275246   0.840   3.438   3.607 -1.5650  1.3564  0.2811
17919TIP3   OH275247   2.114   0.304   2.916  0.2908  0.2582 -0.0031
17919TIP3    H175248   2.021   0.282   2.926 -0.1821  2.3098  0.6147
17919TIP3    H275249   2.148   0.304   3.006  0.7725 -0.0074 -0.1841
17920TIP3   OH275250   3.876   6.420  16.609 -0.6459 -0.1866  0.1858
17920TIP3    H175251   3.864   6.514  16.594  0.7098  0.3271  1.9842
17920TIP3    H275252   3.789   6.383  16.595 -0.8953  1.0659 -2.1124
17921TIP3   OH275253   5.415   6.266  14.600 -0.0661 -0.2482 -0.3193
17921TIP3    H175254   5.405   6.267  14.695  1.0214  0.8901 -0.1863
17921TIP3    H275255   5.486   6.204  14.584  0.8051  0.7046 -0.2409
17922TIP3   OH275256   5.592   1.481   3.974  0.0598  0.2185 -0.1807
17922TIP3    H175257   5.517   1.422   3.960  1.3529 -1.4819 -0.3097
17922TIP3    H275258   5.558   1.549   4.032 -1.6324 -0.3861 -0.3916
17923TIP3   OH275259   4.338   3.748  14.825 -0.5724 -0.1964 -0.4180
17923TIP3    H175260   4.315   3.840  14.830  0.5896  0.1076 -0.2890
17923TIP3    H275261   4.429   3.744  14.855 -0.8882 -1.5058  0.4692
17924TIP3   OH275262   1.675   0.463   0.169 -0.1908 -0.2816 -0.0901
17924TIP3    H175263   1.662   0.433   0.079  1.7658 -1.7029  0.0633
17924TIP3    H275264   1.586   0.480   0.201 -0.9645 -0.3089 -2.0754
17925TIP3   OH275265   3.869   6.202  17.401 -0.1986  0.3405 -0.1990
17925TIP3    H175266   3.820   6.177  17.323 -0.5678  0.9054 -0.1513
17925TIP3    H275267   3.959   6.173  17.384 -0.6881 -1.4265  0.0455
17926TIP3   OH275268   4.591   6.172  16.606  0.6902 -0.3252 -0.0385
17926TIP3    H175269   4.669   6.120  16.590  1.1256 -0.2125  1.5560
17926TIP3    H275270   4.559   6.142  16.691  0.6751  1.6538  0.7005
17927TIP3   OH275271   6.162   0.050   1.886 -0.1673  0.7577 -0.1253
17927TIP3    H175272   6.186   0.142   1.876 -1.2107  0.9853 -0.6127
17927TIP3    H275273   6.101   0.049   1.959  1.1694  0.1955  1.0281
17928TIP3   OH275274   4.612   1.499   4.079  0.4676 -0.4306 -0.4374
17928TIP3    H175275   4.661   1.544   4.148 -0.6851 -1.1573  0.9068
17928TIP3    H275276   4.638   1.407   4.088  1.2558 -0.3715 -1.8240
17929TIP3   OH275277   5.155   0.850   4.459 -0.2490  0.0261 -0.1833
17929TIP3    H175278   5.089   0.788   4.427  0.7748 -0.1141 -2.1335
17929TIP3    H275279   5.105   0.913   4.512 -1.5071 -1.6491  0.7130
17930TIP3   OH275280   5.980   3.893  11.395  0.1757  0.0310  0.5118
17930TIP3    H175281   5.938   3.856  11.317  2.3071 -1.8127  0.1301
17930TIP3    H275282   5.997   3.817  11.451  0.5450  1.0742  1.8624
17931TIP3   OH275283   2.022   1.158  12.509 -0.1424 -0.1862 -1.0466
17931TIP3    H175284   2.040   1.066  12.526  0.6684  0.1696  0.0819
17931TIP3    H275285   2.088   1.183  12.444  0.4195 -0.0845 -0.4345
17932TIP3   OH275286   4.303   5.165  16.212 -0.1996  0.0487 -0.2445
17932TIP3    H175287   4.295   5.073  16.184  2.0413 -0.2956  0.0743
17932TIP3    H275288   4.318   5.160  16.306  0.4960  0.7062 -0.3147
17933TIP3   OH275289   5.583   1.305   4.903  0.0418  0.2554 -0.1636
17933TIP3    H175290   5.668   1.349   4.903  0.9849 -1.3052 -3.4891
17933TIP3    H275291   5.601   1.216   4.875 -2.7614  0.1455 -2.0201
17934TIP3   OH275292   3.764   4.655   3.285 -0.3280 -0.5119 -0.1314
17934TIP3    H175293   3.733   4.624   3.200 -0.4752  0.9249 -0.6205
17934TIP3    H275294   3.732   4.589   3.347 -0.2929 -1.5326 -1.1536
17935TIP3   OH275295   1.239   1.911   1.224  0.3641 -0.1301  0.0224
17935TIP3    H175296   1.308   1.866   1.175 -0.0037 -0.3920 -0.2586
17935TIP3    H275297   1.158   1.888   1.178  0.2048  1.1878 -0.4262
17936TIP3   OH275298   4.972   1.395   5.387  0.1035  0.0262 -0.0688
17936TIP3    H175299   4.924   1.463   5.434  0.1008 -0.3950  0.5461
17936TIP3    H275300   4.960   1.316   5.440  0.9723 -0.2183 -0.2220
17937TIP3   OH275301   1.450   5.124   2.561  0.3316 -0.1651  0.3835
17937TIP3    H175302   1.432   5.165   2.477 -0.8637 -2.0089 -0.3247
17937TIP3    H275303   1.364   5.097   2.594  0.9819 -1.5971  1.0321
17938TIP3   OH275304   1.051   4.618  12.621 -0.5208  0.6756  0.0440
17938TIP3    H175305   1.097   4.629  12.704  0.0862 -0.2779 -0.1447
17938TIP3    H275306   0.965   4.582  12.645  0.5059 -1.9263  0.1783
17939TIP3   OH275307   1.733   3.335  13.590  0.0125  0.3272 -0.2024
17939TIP3    H175308   1.752   3.296  13.505  2.4061 -0.4288  0.6083
17939TIP3    H275309   1.728   3.429  13.574 -0.2231  0.1398 -1.2749
17940TIP3   OH275310   1.310   3.135   1.915  0.9134  0.1887 -0.2355
17940TIP3    H175311   1.358   3.138   1.998  2.4255  1.7929 -1.0962
17940TIP3    H275312   1.378   3.133   1.848 -0.2756 -0.5265 -1.4570
17941TIP3   OH275313   1.793   2.827  11.185  0.1961  0.5378  0.4803
17941TIP3    H175314   1.803   2.818  11.279 -0.3753  0.6455  0.5530
17941TIP3    H275315   1.736   2.754  11.159 -0.3261  0.9889  0.3438
17942TIP3   OH275316   4.555   2.338   0.399 -0.3771 -0.2035  0.6632
17942TIP3    H175317   4.593   2.425   0.383 -3.5616  1.1113 -0.6397
17942TIP3    H275318   4.596   2.309   0.480  1.7243  1.9303  0.4927
17943TIP3   OH275319   3.302   2.075  11.970 -0.2542  0.0822  0.7137
17943TIP3    H175320   3.247   2.147  11.939 -0.8298 -0.4716  0.4169
17943TIP3    H275321   3.257   1.996  11.939  1.0216 -0.3684 -0.0503
17944TIP3   OH275322   3.389   1.721   2.032  0.1369  0.1360 -0.3216
17944TIP3    H175323   3.365   1.812   2.012 -0.2553 -0.3376 -2.1403
17944TIP3    H275324   3.383   1.675   1.949 -2.9819 -2.3320  1.0679
17945TIP3   OH275325   5.365   2.230  16.809  0.3518  0.5019  0.4026
17945TIP3    H175326   5.285   2.179  16.820 -0.5035  1.5624 -0.5996
17945TIP3    H275327   5.368   2.287  16.887  1.1728 -0.8379  1.3903
17946TIP3   OH275328   5.644   4.850   4.582  0.6247 -0.0582 -0.0531
17946TIP3    H175329   5.630   4.872   4.674  0.9768 -0.1789  0.0304
17946TIP3    H275330   5.663   4.935   4.540 -1.4808  0.2840 -0.3935
17947TIP3   OH275331   5.524   0.626  12.686 -0.0598 -0.3375  0.2021
17947TIP3    H175332   5.530   0.722  12.677 -3.0732  0.0809  1.4194
17947TIP3    H275333   5.488   0.597  12.602  0.0752 -0.2918  0.1281
17948TIP3   OH275334   3.483   0.412   6.084 -0.4535  0.3325  0.7360
17948TIP3    H175335   3.409   0.422   6.144 -0.8726 -0.7112  0.4154
17948TIP3    H275336   3.537   0.344   6.123 -0.8015 -0.4559 -0.1109
17949TIP3   OH275337   2.348   2.216  12.800  0.4237 -0.5048  0.4565
17949TIP3    H175338   2.280   2.159  12.763  0.5221  0.0268 -0.5823
17949TIP3    H275339   2.386   2.164  12.870  1.4243 -2.3012 -1.2999
17950TIP3   OH275340   0.113   5.989   1.950  0.4932  0.0667  0.2138
17950TIP3    H175341   0.082   5.899   1.946 -0.2081  0.2156  1.6692
17950TIP3    H275342   0.087   6.027   1.866 -0.0012 -0.8288 -0.0502
17951TIP3   OH275343   6.106   1.839   4.195 -0.4612  0.8041  0.1657
17951TIP3    H175344   6.177   1.870   4.138  1.4739  0.3425  2.1792
17951TIP3    H275345   6.116   1.744   4.195 -3.3026  0.3546 -2.1264
17952TIP3   OH275346   5.086   1.517  17.058 -0.2161  0.1606 -0.2641
17952TIP3    H175347   5.104   1.423  17.047 -0.2022  0.0962  0.3112
17952TIP3    H275348   4.997   1.521  17.094 -0.4482  0.3955 -0.8400
17953TIP3   OH275349   1.706   0.496  12.269 -0.5830  0.1231 -0.3971
17953TIP3    H175350   1.765   0.554  12.221 -1.1095 -0.3377 -1.6481
17953TIP3    H275351   1.760   0.459  12.339 -0.3771  2.4940  0.7915
17954TIP3   OH275352   1.940   6.055   3.352  0.0891 -0.2852  0.6630
17954TIP3    H175353   1.967   5.967   3.328 -0.6143 -0.1526 -0.7008
17954TIP3    H275354   2.000   6.113   3.304 -0.2024 -0.0261  0.6034
17955TIP3   OH275355   4.914   4.535  11.507  0.2527  0.6750 -0.3738
17955TIP3    H175356   4.990   4.481  11.526 -0.0067  0.6331  0.5833
17955TIP3    H275357   4.910   4.537  11.411  0.2975 -0.9614 -0.4432
17956TIP3   OH275358   2.503   5.587   4.998  0.3240  0.1435 -0.0592
17956TIP3    H175359   2.446   5.530   4.946 -1.1212 -0.9817  2.5277
17956TIP3    H275360   2.541   5.529   5.064  4.4575  0.9070 -1.4665
17957TIP3   OH275361   1.928   0.164   5.680 -0.2321 -0.3760 -0.1820
17957TIP3    H175362   1.874   0.097   5.721 -0.5554  0.2923  0.5162
17957TIP3    H275363   1.993   0.186   5.747 -0.7693  0.7354 -0.0062
17958TIP3   OH275364   2.759   1.426   1.825 -0.0658  0.1267  0.6220
17958TIP3    H175365   2.809   1.493   1.873  0.6035 -0.2184  0.4236
17958TIP3    H275366   2.727   1.472   1.748 -1.1464  0.6863  1.3759
17959TIP3   OH275367   5.668   4.674   2.093  0.3441  0.4061 -0.3163
17959TIP3    H175368   5.619   4.596   2.065  1.8469 -0.0438 -1.8407
17959TIP3    H275369   5.633   4.745   2.039  1.0057  0.1728 -1.0780
17960TIP3   OH275370   3.906   1.327   4.168 -0.4436  0.0788 -0.0595
17960TIP3    H175371   3.855   1.345   4.247  0.6738 -0.6331  0.8654
17960TIP3    H275372   3.936   1.412   4.138  1.6890  0.1979  2.1024
17961TIP3   OH275373   1.909   4.316   3.495 -0.2449 -0.4265 -0.4875
17961TIP3    H175374   1.897   4.382   3.427  0.5242 -0.5659 -0.7733
17961TIP3    H275375   1.826   4.269   3.498 -0.1990 -0.5990 -1.5247
17962TIP3   OH275376   5.490   3.009  13.958 -0.9251 -0.6794  0.2421
17962TIP3    H175377   5.444   2.998  13.875 -2.5678  0.8663  0.8962
17962TIP3    H275378   5.439   2.959  14.021 -1.9989  1.3328  1.0429
17963TIP3   OH275379   1.166   6.347   0.136  0.3859 -0.2119  0.3324
17963TIP3    H175380   1.111   6.393   0.072  1.4864  1.1419  0.3217
17963TIP3    H275381   1.106   6.323   0.207 -0.4823 -0.0678 -0.3432
17964TIP3   OH275382   2.711   0.630  12.099  0.0891  0.0882  0.1760
17964TIP3    H175383   2.712   0.710  12.047  0.9020 -0.0813 -0.0889
17964TIP3    H275384   2.803   0.605  12.106 -0.2109 -1.4559 -0.7539
17965TIP3   OH275385   3.927   3.864  13.151 -0.4254  0.1195  0.3157
17965TIP3    H175386   3.950   3.802  13.082  1.3891 -0.3570  1.2795
17965TIP3    H275387   3.843   3.831  13.185 -0.0824 -1.1101  0.0124
17966TIP3   OH275388   2.089   1.880   1.435  0.7421  0.0415  0.1928
17966TIP3    H175389   2.115   1.868   1.344 -0.6764 -1.2440 -0.1053
17966TIP3    H275390   2.064   1.792   1.464 -1.0446  0.7879  1.0790
17967TIP3   OH275391   3.886   2.838  12.245 -0.4868 -0.3311  0.2006
17967TIP3    H175392   3.960   2.896  12.261 -1.6404  1.1534  0.4543
17967TIP3    H275393   3.809   2.889  12.272 -1.5265 -2.2308  1.0556
17968TIP3   OH275394   3.348   1.150   0.253  0.7096  0.2781  0.4838
17968TIP3    H175395   3.423   1.180   0.303  0.9369  3.3330 -1.4634
17968TIP3    H275396   3.276   1.208   0.278  0.4129  0.8204 -1.4864
17969TIP3   OH275397   1.798   5.433   2.601  0.4847 -0.5457 -0.1342
17969TIP3    H175398   1.757   5.445   2.516 -0.5710 -0.8651  0.3148
17969TIP3    H275399   1.725   5.420   2.662  1.2807 -2.2860  0.5111
17970TIP3   OH275400   3.303   3.391  14.235  0.5174  0.0400  0.1506
17970TIP3    H175401   3.274   3.480  14.218 -1.4616 -0.3242  1.3782
17970TIP3    H275402   3.329   3.390  14.327 -1.2861 -1.0487  0.6948
17971TIP3   OH275403   1.959   5.367  12.115  0.3381  0.2658 -0.2303
17971TIP3    H175404   1.953   5.438  12.051 -2.0263  1.2667  0.9775
17971TIP3    H275405   1.995   5.408  12.194 -0.9200  0.1276  0.4337
17972TIP3   OH275406   2.644   0.794   6.391  0.3696  0.3123 -0.0614
17972TIP3    H175407   2.606   0.719   6.436  0.1700  0.7929  0.5893
17972TIP3    H275408   2.689   0.843   6.460  0.1430  1.0113 -0.3995
17973TIP3   OH275409   0.633   4.088  11.805  0.4922  0.2678 -0.5696
17973TIP3    H175410   0.580   4.012  11.781  0.7720 -0.3334  0.6057
17973TIP3    H275411   0.589   4.162  11.764 -0.0261 -0.4802 -1.4012
17974TIP3   OH275412   1.169   5.771   3.682  0.0681  0.6107  0.1445
17974TIP3    H175413   1.211   5.740   3.602  1.0240 -0.5438  1.0727
17974TIP3    H275414   1.184   5.702   3.746 -1.9392  0.8545  0.9491
17975TIP3   OH275415   1.569   4.525   3.937 -0.6916  0.3204 -0.4685
17975TIP3    H175416   1.614   4.583   4.000  1.1586 -0.7744 -0.6924
17975TIP3    H275417   1.555   4.580   3.860  0.8388  0.5863 -0.6013
17976TIP3   OH275418   1.435   3.778  16.949  0.4844  0.4054 -0.0364
17976TIP3    H175419   1.384   3.713  16.997 -1.6053  3.1302  1.7637
17976TIP3    H275420   1.526   3.759  16.971 -0.1427 -1.1899  1.3842
17977TIP3   OH275421   0.377   3.043   0.264  0.0283 -0.0836  0.0254
17977TIP3    H175422   0.366   3.059   0.170  0.2768 -0.9360 -0.1577
17977TIP3    H275423   0.407   3.127   0.299  0.9797 -0.0351 -0.8433
17978TIP3   OH275424   6.026   1.843   5.804  0.5049  0.0158 -0.3334
17978TIP3    H175425   6.107   1.797   5.780 -0.0201 -1.1546  0.0519
17978TIP3    H275426   6.030   1.852   5.899 -0.2655 -0.9888 -0.1816
17979TIP3   OH275427   3.974   2.584   3.295  0.3060  0.1045  0.2310
17979TIP3    H175428   3.986   2.675   3.267 -2.0424  0.9478  1.6744
17979TIP3    H275429   3.937   2.541   3.218 -0.1202  0.7907  0.0376
17980TIP3   OH275430   0.889   0.626  15.820 -0.7455 -0.0656 -0.0521
17980TIP3    H175431   0.903   0.641  15.914  1.7599 -0.0518 -0.3448
17980TIP3    H275432   0.939   0.546  15.802 -1.2571 -0.1032 -1.3859
17981TIP3   OH275433   4.544   4.579  16.087 -0.3178  0.6201 -0.1348
17981TIP3    H175434   4.578   4.600  16.000  0.2692  0.2181 -0.0059
17981TIP3    H275435   4.465   4.632  16.095  0.7048  2.2059 -0.0991
17982TIP3   OH275436   0.613   2.171  11.836 -0.7626  0.0479 -0.3857
17982TIP3    H175437   0.627   2.161  11.742  2.8917  0.2329  0.0256
17982TIP3    H275438   0.631   2.264  11.853  0.4457 -0.3635  0.7190
17983TIP3   OH275439   1.281   5.061   3.624  0.8893 -0.3383  0.3674
17983TIP3    H175440   1.357   5.041   3.679  0.8571 -0.2975  0.4251
17983TIP3    H275441   1.214   5.093   3.684 -0.2453 -3.1945  0.7757
17984TIP3   OH275442   1.748   4.293  11.449 -0.1553 -0.3865 -0.1663
17984TIP3    H175443   1.809   4.276  11.377  1.4058  1.5419  0.5903
17984TIP3    H275444   1.711   4.379  11.428 -2.0860 -1.1881 -0.2133
17985TIP3   OH275445   6.296   0.159   5.968  0.2228  0.0871 -0.8661
17985TIP3    H175446   6.373   0.135   6.020  0.3203  0.2943 -0.9130
17985TIP3    H275447   6.331   0.175   5.880  0.1021  0.0282 -0.9246
17986TIP3   OH275448   6.606   4.100   3.873  0.0041  0.0549  0.3448
17986TIP3    H175449   6.622   4.169   3.937 -1.5695 -0.4451  1.3310
17986TIP3    H275450   6.684   4.045   3.876  0.3848  0.6311  1.0843
17987TIP3   OH275451   1.425   6.340  16.360  0.3716  0.1207  0.0529
17987TIP3    H175452   1.384   6.276  16.418 -0.0380  0.6310  0.3303
17987TIP3    H275453   1.519   6.326  16.373  0.3213 -1.3758 -0.9495
17988TIP3   OH275454   3.035   6.536   3.178 -0.2119 -0.4938 -0.3498
17988TIP3    H175455   2.994   6.461   3.135  1.6925 -1.0804 -1.2582
17988TIP3    H275456   3.091   6.575   3.111  0.7732  0.2230  0.8327
17989TIP3   OH275457   5.346   1.939  15.055 -0.3062 -0.2777 -0.5221
17989TIP3    H175458   5.278   1.876  15.078  0.2629 -0.8643 -0.4144
17989TIP3    H275459   5.306   1.994  14.987 -0.6088 -1.1247 -1.0359
17990TIP3   OH275460   4.994   3.893   5.381 -0.1875  0.7634 -0.4454
17990TIP3    H175461   5.011   3.830   5.452 -0.6433  0.0855 -0.9198
17990TIP3    H275462   4.915   3.939   5.410  0.6771  1.7885  0.3402
17991TIP3   OH275463   6.287   2.418   4.945 -0.3403 -0.0731 -0.1030
17991TIP3    H175464   6.272   2.334   4.987  1.0881 -1.1299 -1.5946
17991TIP3    H275465   6.262   2.483   5.012 -1.3503 -1.6443  1.1170
17992TIP3   OH275466   0.423   4.745  14.082 -0.1840  0.4517 -0.5307
17992TIP3    H175467   0.498   4.758  14.024  0.0145 -1.0074 -0.6529
17992TIP3    H275468   0.347   4.755  14.025 -0.0064 -0.2384 -0.9043
17993TIP3   OH275469   4.580   5.955  16.387 -0.0306  0.6005  0.2252
17993TIP3    H175470   4.579   5.991  16.298 -1.3477  1.3789  0.5353
17993TIP3    H275471   4.521   6.011  16.436 -0.1261 -0.4535  1.3530
17994TIP3   OH275472   3.577   6.552  12.085  1.0179 -0.2897 -0.3233
17994TIP3    H175473   3.566   6.475  12.141  1.1114  0.0707  0.1971
17994TIP3    H275474   3.616   6.618  12.143 -1.5116  1.0324  0.0229
17995TIP3   OH275475   4.873   0.143  14.830  0.3190  0.4943  0.2477
17995TIP3    H175476   4.902   0.053  14.813  0.1027 -0.1569  2.8827
17995TIP3    H275477   4.953   0.194  14.838  0.4616  0.3889 -0.4322
17996TIP3   OH275478   0.938   1.126   4.418  0.5988 -0.6545  0.6004
17996TIP3    H175479   0.900   1.040   4.433  1.4411 -1.0053  0.7944
17996TIP3    H275480   0.946   1.132   4.322  1.4184 -1.2001  0.6216
17997TIP3   OH275481   4.557   5.414  17.276 -0.4717  0.1281 -0.2415
17997TIP3    H175482   4.528   5.324  17.260 -0.0251  0.0671 -0.7396
17997TIP3    H275483   4.556   5.455  17.190  1.2427  0.0110 -0.3616
17998TIP3   OH275484   1.766   1.616   0.190 -0.0369  0.0308 -0.0164
17998TIP3    H175485   1.747   1.612   0.096 -2.8299 -2.7652  0.4763
17998TIP3    H275486   1.722   1.695   0.220 -2.0024 -0.7556 -0.6623
17999TIP3   OH275487   4.096   1.592  15.481  0.1760  0.1925 -0.0819
17999TIP3    H175488   4.060   1.675  15.511  0.6757  0.1301  0.7406
17999TIP3    H275489   4.161   1.569  15.548  0.5258 -0.5190 -0.6539
18000TIP3   OH275490   0.529   1.714  16.262 -0.7102  0.4246  0.1240
18000TIP3    H175491   0.441   1.685  16.288  0.2550 -1.5806  1.3597
18000TIP3    H275492   0.539   1.680  16.173 -0.6368 -0.6580  0.5380
18001TIP3   OH275493   5.055   4.644   0.349  0.1485 -0.5982  0.1414
18001TIP3    H175494   4.986   4.689   0.397 -0.3442 -1.6419  0.4466
18001TIP3    H275495   5.102   4.714   0.303  0.7812  0.4827  2.2772
18002TIP3   OH275496   6.732   3.867   5.123  0.4682 -0.0224  0.8059
18002TIP3    H175497   6.777   3.849   5.041 -0.3522  0.5942  0.2024
18002TIP3    H275498   6.798   3.850   5.191  1.8504  1.5183 -0.0699
18003TIP3   OH275499   1.053   4.916   4.595 -0.4819 -0.7561 -0.0012
18003TIP3    H175500   1.073   4.824   4.614  1.1028 -0.8000 -1.5847
18003TIP3    H275501   1.023   4.915   4.504  1.0582  0.4433 -0.5628
18004TIP3   OH275502   0.896   3.076  10.915  0.4058 -0.0217  0.9631
18004TIP3    H175503   0.971   3.063  10.857  1.0224  1.2550  1.4396
18004TIP3    H275504   0.844   3.143  10.872  1.5337  1.9065  2.4295
18005TIP3   OH275505   0.663   5.582  11.130 -0.0791 -0.2205  0.1756
18005TIP3    H175506   0.758   5.585  11.143 -0.2238  0.6247  1.2009
18005TIP3    H275507   0.652   5.550  11.040  1.2784  2.2194 -0.9762
18006TIP3   OH275508   1.079   2.955   0.648 -0.7689 -0.6774  0.3385
18006TIP3    H175509   1.027   3.032   0.671 -3.1294 -2.2072  0.5271
18006TIP3    H275510   1.025   2.881   0.676 -0.3917 -2.5052 -3.2025
18007TIP3   OH275511   2.932   4.056  11.397  0.1726 -0.5920  0.4393
18007TIP3    H175512   2.862   4.122  11.400  1.3335  0.6688  1.4075
18007TIP3    H275513   2.965   4.061  11.308  2.4946  2.7456  1.2677
18008TIP3   OH275514   0.657   0.892  17.422  0.0975 -0.0270 -0.1856
18008TIP3    H175515   0.652   0.946  17.501 -1.8366 -0.3094 -0.0791
18008TIP3    H275516   0.632   0.804  17.451 -0.2305 -0.2218 -1.0234
18009TIP3   OH275517   3.993   0.144  10.685  0.0501 -0.1482  0.0455
18009TIP3    H175518   3.934   0.152  10.610 -0.8136  2.5495  0.8828
18009TIP3    H275519   3.957   0.072  10.736  0.7051 -2.0894 -2.0882
18010TIP3   OH275520   4.200   1.923   6.451  0.3366  0.0087  0.1915
18010TIP3    H175521   4.155   1.839   6.439  0.3006  0.0106  0.3147
18010TIP3    H275522   4.130   1.988   6.446  0.4319  0.0675 -0.4145
18011TIP3   OH275523   5.018   6.625  17.243 -0.4220  0.1564  0.4957
18011TIP3    H175524   5.042   6.596  17.155 -2.0908 -0.1568  0.1085
18011TIP3    H275525   4.956   6.696  17.229 -2.1550 -1.1098  1.3548
18012TIP3   OH275526   2.402   5.433  17.437  0.0188  0.5109  0.2761
18012TIP3    H175527   2.419   5.396  17.524  0.1652  0.7633  0.3595
18012TIP3    H275528   2.369   5.521  17.455  0.9395  0.9175  0.0651
18013TIP3   OH275529   2.572   2.656  11.702 -0.0828  0.3283  0.2627
18013TIP3    H175530   2.633   2.662  11.775 -2.0362 -0.0208  2.0260
18013TIP3    H275531   2.499   2.713  11.727 -1.4884 -0.9742 -0.6938
18014TIP3   OH275532   5.598   4.062   6.608  0.6592  0.0777  0.2418
18014TIP3    H175533   5.657   3.989   6.624  0.4848 -0.2729 -0.6544
18014TIP3    H275534   5.656   4.137   6.593  0.8297  0.2851  1.7990
18015TIP3   OH275535   4.106   1.983   3.833  0.1282  0.4437 -0.0130
18015TIP3    H175536   4.147   1.921   3.772 -0.3869 -1.4559  1.4684
18015TIP3    H275537   4.048   2.035   3.778  0.4918 -0.4647 -1.3269
18016TIP3   OH275538   1.022   1.977   1.680 -0.9873 -0.4814  0.2068
18016TIP3    H175539   1.052   1.902   1.628 -2.0731 -0.3417 -0.6700
18016TIP3    H275540   0.992   1.939   1.762 -0.6992 -0.9032  0.1176
18017TIP3   OH275541   2.517   2.558  12.193  0.4831 -0.0496  0.5586
18017TIP3    H175542   2.492   2.620  12.125  0.5770 -2.0052 -1.3796
18017TIP3    H275543   2.611   2.546  12.181  0.3114 -1.2619  0.2215
18018TIP3   OH275544   5.138   2.889   2.862  0.3340  0.0164  0.0419
18018TIP3    H175545   5.172   2.878   2.951  1.3928 -1.6731 -0.5370
18018TIP3    H275546   5.056   2.937   2.874  0.3072 -0.4205  1.9583
18019TIP3   OH275547   2.485   6.026   1.752  0.1391 -0.2188  0.0794
18019TIP3    H175548   2.465   5.950   1.807 -0.0335 -0.7938 -0.7544
18019TIP3    H275549   2.501   5.989   1.665 -0.3399  0.7401 -0.4340
18020TIP3   OH275550   0.954   0.203  11.173  0.7810  0.0706  0.1775
18020TIP3    H175551   0.927   0.183  11.084 -1.6624  0.2557  0.8183
18020TIP3    H275552   0.892   0.155  11.229  0.5028  2.1329  1.7496
18021TIP3   OH275553   0.921   0.952  16.230 -0.1987 -0.7982  0.1117
18021TIP3    H175554   0.996   0.992  16.186 -1.0613 -0.8413 -1.4878
18021TIP3    H275555   0.850   1.014  16.217 -0.5759 -0.9735  1.2067
18022TIP3   OH275556   1.267   4.039   0.716 -0.3087  0.2070  0.3683
18022TIP3    H175557   1.296   3.948   0.705  2.1376  0.9435  0.2316
18022TIP3    H275558   1.175   4.031   0.741 -0.7666 -2.2300 -1.6599
18023TIP3   OH275559   4.696   0.050  16.959  0.3737  0.1392  0.2832
18023TIP3    H175560   4.711  -0.020  17.023 -0.9708 -0.5884 -0.1420
18023TIP3    H275561   4.783   0.076  16.930  0.9382 -3.3204 -1.6308
18024TIP3   OH275562   0.994   6.270   0.384  0.0872  0.4404  0.0175
18024TIP3    H175563   0.951   6.187   0.366 -0.4365  0.4816  1.0055
18024TIP3    H275564   0.937   6.314   0.447  0.9773  1.0078  0.4571
18025TIP3   OH275565   5.898   0.516  11.541 -0.1062 -0.7389  0.1565
18025TIP3    H175566   5.804   0.508  11.524 -0.1147  0.0826 -0.2300
18025TIP3    H275567   5.937   0.531  11.455  0.2780 -0.2423  0.4068
18026TIP3   OH275568   4.648   5.744  14.835  0.3984 -0.3684  0.1699
18026TIP3    H175569   4.596   5.749  14.914 -0.1172 -1.6243 -0.0696
18026TIP3    H275570   4.684   5.655  14.835  2.2566  0.3335  0.1460
18027TIP3   OH275571   0.306   5.834  16.026  0.3095  0.3793 -0.4874
18027TIP3    H175572   0.222   5.816  15.983  0.2988 -1.5476  0.2489
18027TIP3    H275573   0.282   5.857  16.116  0.5277  0.3546 -0.4226
18028TIP3   OH275574   5.788   1.249   5.291 -0.0092 -0.1291  0.2557
18028TIP3    H175575   5.759   1.230   5.380  1.7976 -0.3826  0.8293
18028TIP3    H275576   5.883   1.241   5.295  0.0781 -0.5558 -1.8031
18029TIP3   OH275577   4.700   4.163  14.958 -0.4918 -0.2614  0.2406
18029TIP3    H175578   4.749   4.083  14.975 -0.0755 -0.1567 -0.4531
18029TIP3    H275579   4.609   4.141  14.981 -0.7351 -1.5403 -1.7757
18030TIP3   OH275580   2.232   2.090   5.193  0.1301  0.1094  0.1848
18030TIP3    H175581   2.144   2.109   5.162 -0.5697  1.2237  2.5983
18030TIP3    H275582   2.235   1.994   5.199 -0.6271  0.0243 -0.6559
18031TIP3   OH275583   5.438   1.459   4.715 -0.2454  0.1549 -0.6343
18031TIP3    H175584   5.523   1.453   4.760 -0.4245 -0.4328 -0.3725
18031TIP3    H275585   5.462   1.472   4.623  0.1281  0.3944 -0.5070
18032TIP3   OH275586   3.901   1.332  16.493  0.2079  0.0803  0.0830
18032TIP3    H175587   3.989   1.362  16.470  0.5151 -0.0484  1.0444
18032TIP3    H275588   3.889   1.251  16.443  0.8401 -0.1683  0.3204
18033TIP3   OH275589   0.350   2.159   0.105 -0.1907  0.2592 -0.2243
18033TIP3    H175590   0.263   2.171   0.066  0.3576  0.2792 -1.4740
18033TIP3    H275591   0.406   2.132   0.032  0.7951 -0.0512  0.6219
18034TIP3   OH275592   3.289   2.159   6.165 -0.3201 -0.1363 -0.4276
18034TIP3    H175593   3.316   2.251   6.174 -1.6270  0.2086  0.1558
18034TIP3    H275594   3.199   2.157   6.196 -0.5258 -1.5120 -1.0351
18035TIP3   OH275595   4.463   0.399   5.536  0.1606 -0.0351 -0.4470
18035TIP3    H175596   4.476   0.493   5.524  0.3015  0.4282  2.6687
18035TIP3    H275597   4.504   0.378   5.620 -0.9365 -2.6435 -0.4404
18036TIP3   OH275598   5.892   3.162  13.467 -0.2834 -0.1213  0.4900
18036TIP3    H175599   5.902   3.166  13.372  0.4950  0.8868  0.5966
18036TIP3    H275600   5.801   3.189  13.482  0.2174  1.8871  0.1428
18037TIP3   OH275601   1.145   0.910  14.856  0.0214 -0.1251  0.4395
18037TIP3    H175602   1.150   0.872  14.769  0.8600  0.6070  0.1476
18037TIP3    H275603   1.182   0.843  14.914 -2.6125 -1.5741  0.6186
18038TIP3   OH275604   6.289   4.980  11.745  0.1687  0.3423 -0.6797
18038TIP3    H175605   6.378   4.955  11.724  0.4860 -1.4145  2.2387
18038TIP3    H275606   6.239   4.899  11.744 -0.4650  0.6250  1.6414
18039TIP3   OH275607   5.152   2.638   6.607  0.6862 -0.5903 -0.2285
18039TIP3    H175608   5.224   2.699   6.596  1.5004 -1.6938 -1.2789
18039TIP3    H275609   5.083   2.672   6.549  0.5805  0.0915  0.2764
18040TIP3   OH275610   2.893   4.409  15.673  0.1570  0.5825 -0.3042
18040TIP3    H175611   2.829   4.407  15.745 -0.2022 -0.5825 -0.6264
18040TIP3    H275612   2.839   4.410  15.594  0.5018 -1.0908 -0.5950
18041TIP3   OH275613   3.012   3.025  16.860 -0.6848 -0.1314  0.3670
18041TIP3    H175614   3.050   3.059  16.779 -0.1063  0.5175  0.8956
18041TIP3    H275615   3.030   2.931  16.858  0.4570  0.0736  0.3273
18042TIP3   OH275616   1.124   3.048  14.315 -0.0688  0.4532  0.1108
18042TIP3    H175617   1.088   3.072  14.400 -1.4980 -0.2012 -0.2652
18042TIP3    H275618   1.073   2.971  14.289 -0.5493  1.3972 -1.8999
18043TIP3   OH275619   2.111   4.244   2.943  0.3673  0.7373 -0.1796
18043TIP3    H175620   2.037   4.192   2.912 -0.8432  2.1562  0.1783
18043TIP3    H275621   2.140   4.201   3.023  2.2524 -1.8361 -2.0695
18044TIP3   OH275622   1.310   1.116  14.288  0.0432  0.0816 -0.6924
18044TIP3    H175623   1.318   1.076  14.202 -0.8960  0.2149 -0.8430
18044TIP3    H275624   1.282   1.044  14.345  1.6833 -0.2642 -0.2637
18045TIP3   OH275625   1.411   6.736   0.733 -1.1183  0.1400 -0.4047
18045TIP3    H175626   1.470   6.800   0.772 -0.7445  0.7917 -1.9627
18045TIP3    H275627   1.464   6.656   0.725 -1.0929  0.1065  0.0813
18046TIP3   OH275628   4.889   6.231  13.759  0.3059 -0.0328  0.1672
18046TIP3    H175629   4.839   6.296  13.709  0.5987 -0.9201 -1.3431
18046TIP3    H275630   4.971   6.274  13.780 -0.7439  1.1915  2.0487
18047TIP3   OH275631   1.436   0.785   1.384 -0.5284  0.4026  0.1592
18047TIP3    H175632   1.374   0.820   1.321 -0.9061 -0.0344  0.2872
18047TIP3    H275633   1.389   0.715   1.429  0.0646  0.0374  0.2267
18048TIP3   OH275634   1.973   5.040  11.484  0.2408 -0.1416 -0.0211
18048TIP3    H175635   1.889   5.076  11.514  0.6254  0.3378  0.4991
18048TIP3    H275636   2.036   5.067  11.551  0.4928 -2.0662  0.5752
18049TIP3   OH275637   0.416   3.125   3.149 -0.0391  0.9801  0.0149
18049TIP3    H175638   0.321   3.122   3.134  0.0208  2.1356 -0.7111
18049TIP3    H275639   0.445   3.036   3.131 -1.0883  0.3875  1.0944
18050TIP3   OH275640   2.876   6.010   1.721  0.4043 -0.0871  0.1407
18050TIP3    H175641   2.850   5.984   1.632 -1.4157  2.2305 -0.0825
18050TIP3    H275642   2.889   5.926   1.766 -0.0056 -1.3454 -1.9062
18051TIP3   OH275643   4.580   5.324  11.716 -0.4569 -0.3507  0.8366
18051TIP3    H175644   4.656   5.303  11.769 -1.4166 -1.7405  1.7173
18051TIP3    H275645   4.608   5.398  11.662  1.6543 -1.1433  0.7784
18052TIP3   OH275646   1.317   1.126  12.990 -0.2061 -0.3982 -0.1542
18052TIP3    H175647   1.330   1.033  13.005  0.6841 -0.1661  0.6095
18052TIP3    H275648   1.278   1.131  12.903 -0.2502 -1.4765 -0.2088
18053TIP3   OH275649   5.868   3.137   2.214 -0.1587 -0.0833  0.4203
18053TIP3    H175650   5.938   3.146   2.149 -1.1678 -1.9029 -1.0012
18053TIP3    H275651   5.886   3.053   2.257 -1.4340 -0.5658  0.0412
18054TIP3   OH275652   4.373   1.978   3.022  0.4938 -0.3056 -0.0668
18054TIP3    H175653   4.392   1.884   3.029 -2.0599 -0.8360  1.0223
18054TIP3    H275654   4.278   1.982   3.011  0.6559  2.1457 -1.0644
18055TIP3   OH275655   4.134   6.336  15.781  0.0146  0.7516 -0.0939
18055TIP3    H175656   4.165   6.308  15.867 -0.6669  0.8120  0.1757
18055TIP3    H275657   4.214   6.349  15.730  0.4420  1.1240  0.6544
18056TIP3   OH275658   1.960   5.063   2.732  0.1648  0.0549 -0.2618
18056TIP3    H175659   1.939   5.030   2.820  1.3410  0.9498  0.3821
18056TIP3    H275660   1.875   5.066   2.687 -0.7444  1.1403  1.3966
18057TIP3   OH275661   4.535   2.259  11.217 -0.3269 -0.2420 -0.0532
18057TIP3    H175662   4.492   2.181  11.253  0.0928 -0.9158 -0.9729
18057TIP3    H275663   4.622   2.229  11.193  0.3883  0.9054  1.0000
18058TIP3   OH275664   6.216   6.683  11.646  0.6459  0.1520 -0.4658
18058TIP3    H175665   6.300   6.728  11.655  0.3505  0.6986 -0.3797
18058TIP3    H275666   6.214   6.621  11.718  0.2576  1.3120  0.5459
18059TIP3   OH275667   5.472   6.410  17.197 -0.3703  0.0088 -0.1228
18059TIP3    H175668   5.441   6.320  17.185  0.0506  0.2402 -5.1274
18059TIP3    H275669   5.567   6.401  17.209 -0.7005 -0.1917  3.3410
18060TIP3   OH275670   5.823   4.938   1.004 -0.2508  0.2708 -0.1572
18060TIP3    H175671   5.795   4.865   0.949 -2.1733  1.4771 -0.8937
18060TIP3    H275672   5.854   5.005   0.942  1.1575  0.2522  0.4822
18061TIP3   OH275673   1.898   0.306  12.387  0.0356 -0.0461  0.4350
18061TIP3    H175674   1.938   0.317  12.301  0.0566 -0.3559  0.4048
18061TIP3    H275675   1.972   0.309  12.448  0.4004 -2.6071  0.2439
18062TIP3   OH275676   2.347   2.664  12.925 -0.0334  0.2109 -0.0232
18062TIP3    H175677   2.377   2.723  12.995  0.8154  0.8886 -0.9075
18062TIP3    H275678   2.374   2.709  12.845 -1.3964 -0.3223 -0.8028
18063TIP3   OH275679   5.516   0.806   5.511 -0.2801 -0.2405  0.1467
18063TIP3    H175680   5.609   0.827   5.520 -0.5186  1.0969 -0.2965
18063TIP3    H275681   5.498   0.818   5.418 -0.9149 -0.4145  0.2451
18064TIP3   OH275682   2.108   3.792  11.315 -0.3232  0.2049  0.1361
18064TIP3    H175683   2.061   3.786  11.232  2.4643  2.1220 -1.7282
18064TIP3    H275684   2.146   3.705  11.327  0.3439  0.2674 -1.3319
18065TIP3   OH275685   3.780   3.590   2.173  0.3667 -0.1195 -0.3124
18065TIP3    H175686   3.775   3.497   2.193  2.8495 -0.5665 -1.4437
18065TIP3    H275687   3.873   3.612   2.180  0.0033  2.0003 -1.2380
18066TIP3   OH275688   0.338   4.156  16.123 -0.1088  0.1423  0.4947
18066TIP3    H175689   0.307   4.201  16.202 -1.3470  1.7644 -0.8293
18066TIP3    H275690   0.432   4.176  16.121 -0.6963  3.4702 -0.3931
18067TIP3   OH275691   5.266   6.312  10.822  0.2531  0.2696  0.0245
18067TIP3    H175692   5.189   6.262  10.851 -0.1100  0.9129  0.1878
18067TIP3    H275693   5.244   6.403  10.842  0.9177  0.4935 -0.2511
18068TIP3   OH275694   2.545   1.922  17.361  0.0452 -0.3162 -0.5824
18068TIP3    H175695   2.480   1.940  17.293 -0.2370 -1.5522 -0.6572
18068TIP3    H275696   2.533   1.830  17.382  1.7766 -0.5670 -0.5656
18069TIP3   OH275697   2.511   1.414  14.857  0.0978 -0.4355  0.2463
18069TIP3    H175698   2.416   1.405  14.848  0.2529 -1.0096 -1.0140
18069TIP3    H275699   2.532   1.495  14.811  0.0310  0.6780  2.0848
18070TIP3   OH275700   2.083   0.076  17.009  0.2623  0.3246 -0.3486
18070TIP3    H175701   2.073   0.145  16.943 -0.5196 -0.0472 -0.6302
18070TIP3    H275702   2.051   0.116  17.090  0.8225  0.6416 -0.2777
18071TIP3   OH275703   4.689   4.495  10.714 -0.1150 -0.3071 -0.4228
18071TIP3    H175704   4.758   4.549  10.676  0.5189  0.0794  1.1842
18071TIP3    H275705   4.614   4.553  10.722  0.0799 -0.0914 -0.1376
18072TIP3   OH275706   5.695   5.622   0.247 -0.3269 -0.2079 -0.4585
18072TIP3    H175707   5.729   5.533   0.237 -1.4851 -0.9979  1.8669
18072TIP3    H275708   5.755   5.663   0.309  0.1467  0.6309 -1.4522
18073TIP3   OH275709   0.423   0.697   1.769  0.3207  0.1557  0.1693
18073TIP3    H175710   0.338   0.657   1.749 -0.5037  1.2313  1.3599
18073TIP3    H275711   0.452   0.653   1.849  2.1790 -2.0223 -1.5608
18074TIP3   OH275712   0.190   2.248  13.889  0.4875  0.1775  0.5577
18074TIP3    H175713   0.133   2.282  13.820 -0.5246  0.0459  1.3020
18074TIP3    H275714   0.278   2.256  13.854 -0.1043 -1.9948 -1.7032
18075TIP3   OH275715   3.840   5.088  12.935 -0.1341 -0.1453 -0.7371
18075TIP3    H175716   3.802   5.148  12.871 -0.9033 -0.4713 -0.5977
18075TIP3    H275717   3.909   5.138  12.978 -1.9235  1.2934  0.6514
18076TIP3   OH275718   4.828   0.207  11.549  0.4114  0.0619 -0.5150
18076TIP3    H175719   4.791   0.121  11.572  1.1198  0.0214  0.5653
18076TIP3    H275720   4.915   0.187  11.514  2.0350  0.4344  2.8868
18077TIP3   OH275721   2.879   5.884  15.011  0.4001  0.3252  0.0285
18077TIP3    H175722   2.890   5.803  14.961  0.0895  0.4452 -0.2378
18077TIP3    H275723   2.919   5.866  15.096  1.6050  0.3689 -0.5081
18078TIP3   OH275724   0.621   4.915   1.577  0.0164  0.3480 -0.3159
18078TIP3    H175725   0.666   4.996   1.600  0.8186  0.8195 -3.1433
18078TIP3    H275726   0.553   4.942   1.515 -1.0344 -0.9331  0.2316
18079TIP3   OH275727   3.429   1.227  17.441 -0.4489 -0.1277 -0.5793
18079TIP3    H175728   3.441   1.279  17.520  0.7184 -1.5932  0.2656
18079TIP3    H275729   3.360   1.165  17.463 -1.7943  0.9629 -1.5608
18080TIP3   OH275730   1.541   1.680  13.793 -0.2064 -0.6669 -0.2465
18080TIP3    H175731   1.492   1.658  13.715 -0.2656  2.9659 -1.4467
18080TIP3    H275732   1.476   1.712  13.855  0.1510 -0.4231  0.0128
18081TIP3   OH275733   0.411   6.256   4.254  0.2138 -0.3210  0.5330
18081TIP3    H175734   0.367   6.301   4.182  0.4710 -0.0976  0.5160
18081TIP3    H275735   0.452   6.180   4.213  2.9074  1.3421 -0.1618
18082TIP3   OH275736   2.994   1.320  13.187  0.2295  0.0694 -0.2849
18082TIP3    H175737   2.924   1.345  13.248 -0.0025 -0.6849 -0.2370
18082TIP3    H275738   2.967   1.358  13.104 -0.8432 -1.1821 -0.5357
18083TIP3   OH275739   3.993   4.787  14.671  0.3378  0.3093  0.7367
18083TIP3    H175740   4.066   4.736  14.706 -0.0843  0.3611  1.7253
18083TIP3    H275741   4.033   4.870  14.644  0.5894  0.5110  1.6786
18084TIP3   OH275742   5.155   2.014   4.409 -0.2533  0.4052  0.4561
18084TIP3    H175743   5.107   2.097   4.409 -0.8569  0.0716 -0.4319
18084TIP3    H275744   5.194   2.009   4.322  0.1227 -0.0459  0.6489
18085TIP3   OH275745   4.247   0.471  14.107 -0.0694  0.0681  0.0648
18085TIP3    H175746   4.167   0.499  14.062 -0.6172  0.0295  1.0063
18085TIP3    H275747   4.277   0.395  14.057 -0.1061  0.6269 -0.8398
18086TIP3   OH275748   1.304   4.038  17.289 -0.1068  0.4736  0.1443
18086TIP3    H175749   1.346   3.954  17.306  0.2316  0.8232  1.0598
18086TIP3    H275750   1.329   4.094  17.362 -1.7973  0.8353  0.5061
18087TIP3   OH275751   1.740   4.314  10.926  0.0458 -0.8027 -0.5017
18087TIP3    H175752   1.690   4.325  11.006  0.4803 -3.8337  0.2938
18087TIP3    H275753   1.830   4.330  10.951  0.4456 -3.6494  0.2223
18088TIP3   OH275754   0.811   3.217  15.992 -0.5545  0.4031 -0.0638
18088TIP3    H175755   0.775   3.137  16.032 -1.1404  0.9455  0.5225
18088TIP3    H275756   0.895   3.230  16.037  1.1241 -1.5879 -2.3316
18089TIP3   OH275757   4.302   1.378  17.465  0.1886  0.0145 -0.5048
18089TIP3    H175758   4.381   1.330  17.489  0.3977 -0.5312 -2.1513
18089TIP3    H275759   4.230   1.317  17.482 -0.2389  1.3051  3.2840
18090TIP3   OH275760   6.471   4.780  15.585  0.1407 -0.0447  0.8439
18090TIP3    H175761   6.497   4.692  15.611 -0.1943 -0.8310 -1.2766
18090TIP3    H275762   6.483   4.833  15.664  1.2265 -1.7879  1.9174
18091TIP3   OH275763   3.321   1.449  11.374 -0.7098 -0.1095 -0.4615
18091TIP3    H175764   3.230   1.449  11.344 -0.4946 -0.3291 -1.1210
18091TIP3    H275765   3.371   1.480  11.299 -0.0261 -1.9462 -0.8087
18092TIP3   OH275766   5.826   5.570  12.396 -0.0433  0.5748 -0.0370
18092TIP3    H175767   5.879   5.526  12.329 -1.3905 -0.6460 -0.3520
18092TIP3    H275768   5.778   5.499  12.439 -1.9262  1.6774 -0.2342
18093TIP3   OH275769   0.062   1.830   2.736  0.1976 -1.0735  0.3324
18093TIP3    H175770   0.118   1.906   2.719 -1.4203 -0.1246 -1.1934
18093TIP3    H275771   0.048   1.791   2.649 -0.6852 -1.8596  0.8103
18094TIP3   OH275772   2.990   3.392  15.206 -0.1736  0.7502 -0.1648
18094TIP3    H175773   2.909   3.434  15.177 -0.4727 -0.0922 -0.5745
18094TIP3    H275774   3.044   3.464  15.240 -0.5294  1.5177 -1.1778
18095TIP3   OH275775   4.851   3.986  16.114 -0.0779 -0.1315  0.3247
18095TIP3    H175776   4.805   4.024  16.189 -1.6827  2.1131 -1.6867
18095TIP3    H275777   4.796   3.912  16.087 -0.2953 -0.0057  0.4256
18096TIP3   OH275778   2.618   3.408   5.311  0.5212  0.3434 -0.3776
18096TIP3    H175779   2.698   3.358   5.292  0.5139  0.6133 -1.1747
18096TIP3    H275780   2.550   3.366   5.258  0.4533  1.0166 -0.8360
18097TIP3   OH275781   3.230   4.228  15.993  0.2826  0.2346  0.1428
18097TIP3    H175782   3.188   4.304  15.953 -0.3141  0.2020  0.6821
18097TIP3    H275783   3.324   4.243  15.981  0.1140 -0.0123 -1.6701
18098TIP3   OH275784   0.720   0.136   5.370 -0.2325  0.1345  0.1850
18098TIP3    H175785   0.763   0.170   5.292 -0.3302  1.1929  0.5699
18098TIP3    H275786   0.634   0.179   5.370 -0.4223 -0.2423  0.6008
18099TIP3   OH275787   6.158   4.119  12.070 -0.1939  0.0261 -0.7446
18099TIP3    H175788   6.250   4.108  12.047 -0.2501 -0.1118 -0.9043
18099TIP3    H275789   6.131   4.199  12.025 -0.3847 -0.4059 -1.4100
18100TIP3   OH275790   2.844   5.699  16.193  0.1692 -0.3002  0.4151
18100TIP3    H175791   2.915   5.661  16.141 -1.7680 -0.6543 -2.2117
18100TIP3    H275792   2.824   5.632  16.258  1.9171 -0.3767  0.9169
18101TIP3   OH275793   3.421   1.953  12.259 -0.5490 -0.2708 -0.3060
18101TIP3    H175794   3.449   2.045  12.267 -0.7384 -0.1428 -1.0119
18101TIP3    H275795   3.332   1.952  12.295 -1.6629  0.4396 -2.8030
18102TIP3   OH275796   4.585   1.030   5.594 -0.6287  0.8941  0.4725
18102TIP3    H175797   4.635   1.039   5.512 -1.7819 -0.9058 -0.4976
18102TIP3    H275798   4.651   1.012   5.661  0.2036  0.7746 -0.3602
18103TIP3   OH275799   5.379   3.799  15.575  0.4970  0.4163  0.1695
18103TIP3    H175800   5.420   3.731  15.522  0.3404 -0.9251  1.6992
18103TIP3    H275801   5.394   3.880  15.527 -3.0249 -1.0478 -4.0851
18104TIP3   OH275802   4.624   2.177   2.311  0.2788 -0.2070 -0.4725
18104TIP3    H175803   4.537   2.143   2.290 -0.8693  0.3534  2.7806
18104TIP3    H275804   4.677   2.098   2.326  0.0411 -0.5371 -1.2856
18105TIP3   OH275805   0.387   1.654  17.401  0.2116 -0.3014 -0.4572
18105TIP3    H175806   0.475   1.668  17.437  0.1504  0.7437 -0.6643
18105TIP3    H275807   0.374   1.559  17.404  1.1494 -0.4262  0.0341
18106TIP3   OH275808   0.579   0.236  15.964  0.1186 -0.1501 -0.1467
18106TIP3    H175809   0.644   0.277  15.907 -2.0134  2.0484 -1.1740
18106TIP3    H275810   0.585   0.284  16.046  0.1271 -0.2931 -0.0630
18107TIP3   OH275811   2.851   0.967  14.747 -0.6641 -0.0457  0.1021
18107TIP3    H175812   2.939   0.968  14.708 -0.6863 -1.6193 -0.0542
18107TIP3    H275813   2.867   0.958  14.841 -0.6514  0.0932  0.1133
18108TIP3   OH275814   2.409   4.841   4.560 -0.2645  0.0228  0.5305
18108TIP3    H175815   2.395   4.905   4.491 -0.0936 -1.0180 -0.4936
18108TIP3    H275816   2.464   4.886   4.624  0.7514  0.5524 -0.6819
18109TIP3   OH275817   2.356   5.416  14.904 -0.4324  0.3690  0.0330
18109TIP3    H175818   2.413   5.369  14.965 -0.4917  0.3614  0.0835
18109TIP3    H275819   2.413   5.479  14.861 -0.7548  1.7257  1.4807
18110TIP3   OH275820   6.122   4.706  13.487  0.0660  0.1019  0.6725
18110TIP3    H175821   6.046   4.717  13.430  1.4168 -0.8286 -1.4276
18110TIP3    H275822   6.176   4.639  13.444  0.5902 -1.6582  3.7190
18111TIP3   OH275823   6.043   3.318  15.169  0.0604 -0.2611 -0.0003
18111TIP3    H175824   6.125   3.342  15.126  0.3148  0.7440  0.9944
18111TIP3    H275825   6.019   3.234  15.130  3.0540 -2.0804  1.7116
18112TIP3   OH275826   2.379   0.493  15.302  0.3478  0.1072  0.2247
18112TIP3    H175827   2.317   0.465  15.235 -0.0968 -1.3959  1.2134
18112TIP3    H275828   2.429   0.564  15.261 -0.7209  0.0442 -1.2491
18113TIP3   OH275829   3.922   2.445   4.471  0.1870 -0.2286  0.4837
18113TIP3    H175830   3.854   2.422   4.407  0.9915 -1.9806  0.1834
18113TIP3    H275831   3.996   2.473   4.418 -0.5359  2.6760  0.8327
18114TIP3   OH275832   1.386   3.911  11.371 -0.0086 -0.3319  0.8171
18114TIP3    H175833   1.474   3.903  11.336 -0.2015 -0.2577  0.3072
18114TIP3    H275834   1.395   3.971  11.445  0.1997  0.5285  0.1097
18115TIP3   OH275835   2.890   4.985  14.262 -0.0758  0.3431  0.0842
18115TIP3    H175836   2.844   5.060  14.224 -0.0700 -0.1215 -0.8713
18115TIP3    H275837   2.911   4.929  14.187  1.2148  0.0908  0.6172
18116TIP3   OH275838   1.251   4.182  12.936 -0.4313 -0.6132 -0.0343
18116TIP3    H175839   1.208   4.268  12.940 -0.4315 -0.6473  1.1255
18116TIP3    H275840   1.262   4.157  13.028  0.1028 -1.5931 -0.3535
18117TIP3   OH275841   6.060   5.479   5.566 -0.2956 -0.0125  0.1651
18117TIP3    H175842   6.115   5.406   5.594 -2.8677 -1.9865  0.4665
18117TIP3    H275843   6.051   5.466   5.471  2.5324  2.4275 -0.5646
18118TIP3   OH275844   3.344   5.386  16.261  0.6508 -0.4087 -0.1422
18118TIP3    H175845   3.356   5.439  16.182  2.8030 -0.3476  0.1576
18118TIP3    H275846   3.269   5.425  16.305  1.1470  1.3601 -0.7735
18119TIP3   OH275847   4.580   0.934   7.157 -0.1869  0.6628  0.0736
18119TIP3    H175848   4.597   0.981   7.075 -0.7409  1.0930  0.1942
18119TIP3    H275849   4.508   0.875   7.135 -0.3890  0.8342  0.2628
18120TIP3   OH275850   1.955   3.306   6.640  0.5418  0.1327  0.0616
18120TIP3    H175851   1.884   3.327   6.701  2.0128  2.3389  1.1495
18120TIP3    H275852   1.928   3.345   6.557 -0.6375 -1.3113 -0.2830
18121TIP3   OH275853   0.111   2.535   5.026  0.3774 -0.4653 -0.1183
18121TIP3    H175854   0.112   2.613   4.972 -1.1098  0.5278  1.1985
18121TIP3    H275855   0.021   2.502   5.020  0.2254 -0.4500  1.5197
18122TIP3   OH275856   6.557   2.771   2.996 -0.0284 -0.0172 -0.0351
18122TIP3    H175857   6.517   2.717   3.064  0.0491 -0.1356 -0.0833
18122TIP3    H275858   6.601   2.709   2.938  1.5938  0.1983  0.9057
18123TIP3   OH275859   6.072   1.074  11.937  0.1080 -0.2069  0.3996
18123TIP3    H175860   6.061   0.997  11.993  0.7313 -1.9256 -1.6654
18123TIP3    H275861   6.161   1.064  11.902  0.0724  1.2994 -0.1577
18124TIP3   OH275862   2.307   6.523   3.781  0.4906  0.5485 -0.5535
18124TIP3    H175863   2.339   6.510   3.691 -0.6479 -2.3744 -0.6464
18124TIP3    H275864   2.260   6.443   3.801  2.4840  0.1299  3.4554
18125TIP3   OH275865   1.164   6.467  12.613  0.2847 -0.1164  0.7213
18125TIP3    H175866   1.236   6.483  12.551  0.6748 -0.8150  0.9888
18125TIP3    H275867   1.124   6.386  12.581  0.2353 -0.2582  1.1450
18126TIP3   OH275868   4.140   3.713   1.900 -0.2481 -0.5072  0.2120
18126TIP3    H175869   4.171   3.739   1.813  0.6826  0.4569  0.8078
18126TIP3    H275870   4.050   3.683   1.885  0.4625 -2.0564 -1.3522
18127TIP3   OH275871   2.877   3.358   2.052  0.2501 -0.0220  0.0573
18127TIP3    H175872   2.959   3.394   2.084  0.5335  1.5005 -2.1213
18127TIP3    H275873   2.903   3.292   1.988 -0.2034 -0.0894 -0.0644
18128TIP3   OH275874   3.847   5.100  12.001  0.6206 -0.7586  0.4081
18128TIP3    H175875   3.789   5.025  12.014  0.5421 -1.0696 -1.5003
18128TIP3    H275876   3.934   5.062  11.989  0.9547 -0.3921  1.4990
18129TIP3   OH275877   6.025   0.142   0.883 -0.7464 -0.3971 -0.0241
18129TIP3    H175878   6.058   0.183   0.803  0.0754  2.8340  1.8121
18129TIP3    H275879   6.103   0.126   0.936 -1.4478 -0.1685  1.1122
18130TIP3   OH275880   1.319   6.601   3.844  0.0850 -0.0236 -0.3179
18130TIP3    H175881   1.392   6.657   3.818 -0.1693  0.5954  0.2684
18130TIP3    H275882   1.346   6.513   3.820  1.0378  0.1959 -0.0796
18131TIP3   OH275883   1.254   6.247  12.389 -0.0703  0.0685  0.0454
18131TIP3    H175884   1.216   6.179  12.444 -0.1048 -0.6038 -0.7755
18131TIP3    H275885   1.344   6.218  12.373  0.0404  0.4182  0.0172
18132TIP3   OH275886   2.379   1.040   5.718  0.5725  0.4671 -0.1290
18132TIP3    H175887   2.410   1.009   5.633  2.4131  1.2983  0.1810
18132TIP3    H275888   2.288   1.066   5.703  0.6584 -0.0479 -1.6617
18133TIP3   OH275889   1.239   3.119   5.905 -0.3905 -0.2480 -0.0550
18133TIP3    H175890   1.218   3.094   5.995  0.6382  0.4366  0.3952
18133TIP3    H275891   1.265   3.211   5.911 -2.2708  0.4386 -1.3788
18134TIP3   OH275892   6.097   0.939  14.002 -0.1434  0.0182  0.2266
18134TIP3    H175893   6.087   0.873  14.070  1.6143 -1.9433 -1.2889
18134TIP3    H275894   6.054   0.902  13.925  1.3827  0.2943 -0.8261
18135TIP3   OH275895   3.550   6.009  14.003  0.0046  0.4728  0.3132
18135TIP3    H175896   3.460   5.997  13.972  0.3578  0.3090 -0.7229
18135TIP3    H275897   3.604   5.975  13.931  0.9045  1.0285  0.7060
18136TIP3   OH275898   2.722   0.566   0.725  0.1372 -0.6445 -0.0704
18136TIP3    H175899   2.653   0.623   0.692  0.6756 -0.7794 -1.5275
18136TIP3    H275900   2.788   0.626   0.759  0.1358 -0.4386 -0.4257
18137TIP3   OH275901   5.634   0.038  11.159  0.5208  0.1053  0.3522
18137TIP3    H175902   5.685   0.085  11.225  0.6146  0.9106 -0.2691
18137TIP3    H275903   5.700  -0.007  11.106  0.8106  2.4837 -1.4875
18138TIP3   OH275904   5.170   5.591  16.701 -0.0426 -0.5105 -0.2249
18138TIP3    H175905   5.199   5.500  16.697 -0.3028 -0.8278  2.5813
18138TIP3    H275906   5.078   5.586  16.728 -0.2250  0.5779 -0.5975
18139TIP3   OH275907   3.598   2.001  15.690 -0.0556 -0.1191  0.3206
18139TIP3    H175908   3.512   1.986  15.650  0.7357 -0.5644 -1.3219
18139TIP3    H275909   3.619   1.919  15.733  0.8590 -1.1719 -1.9628
18140TIP3   OH275910   2.068   4.893  14.736  0.5071 -0.2453  0.0716
18140TIP3    H175911   1.979   4.861  14.717  0.9696 -1.1086 -0.7214
18140TIP3    H275912   2.109   4.822  14.785  1.3573 -0.6480 -1.1897
18141TIP3   OH275913   3.901   6.626  15.174  0.2326  0.5717  0.2591
18141TIP3    H175914   3.964   6.673  15.228 -1.3040 -0.8560  3.5757
18141TIP3    H275915   3.953   6.592  15.101  2.0467  4.2646 -0.3867
18142TIP3   OH275916   3.465   6.084   5.632 -0.1710 -0.1029  0.2304
18142TIP3    H175917   3.404   6.082   5.558 -0.8398  0.5230  0.7589
18142TIP3    H275918   3.534   6.022   5.607 -1.0139 -0.8177 -0.3675
18143TIP3   OH275919   2.759   0.723  12.577 -0.6101  0.2744  0.7103
18143TIP3    H175920   2.731   0.749  12.665 -1.5767  0.0375  0.4838
18143TIP3    H275921   2.719   0.637  12.563 -1.2855  0.7410 -0.3396
18144TIP3   OH275922   1.463   4.486  14.123  0.1807 -0.4841 -0.4584
18144TIP3    H175923   1.519   4.443  14.188 -2.1841 -1.1752  1.2349
18144TIP3    H275924   1.437   4.416  14.063 -1.0824 -0.7971  0.4180
18145TIP3   OH275925   3.817   2.334   3.914 -0.4239  0.2927  0.9593
18145TIP3    H175926   3.758   2.260   3.927 -0.9663  1.0137  3.0092
18145TIP3    H275927   3.896   2.311   3.963  0.0441  0.3796  0.2530
18146TIP3   OH275928   4.546   6.663   2.223 -0.1090 -0.3473  0.9031
18146TIP3    H175929   4.589   6.717   2.290  2.2829  0.5695 -1.2213
18146TIP3    H275930   4.469   6.714   2.198 -1.3348 -0.9288  3.1792
18147TIP3   OH275931   4.642   0.519   2.722  0.4725 -0.8554 -0.1357
18147TIP3    H175932   4.557   0.491   2.687 -0.5675  0.0037  1.5845
18147TIP3    H275933   4.652   0.468   2.802 -0.9073  2.5209  2.4354
18148TIP3   OH275934   5.589   2.756   4.834  0.4333 -0.1775 -0.3255
18148TIP3    H175935   5.643   2.737   4.758  2.3530  0.0546  0.9295
18148TIP3    H275936   5.500   2.763   4.799  1.1719 -0.6860 -2.4288
18149TIP3   OH275937   5.155   0.832   1.089 -0.1889 -0.2128  0.0586
18149TIP3    H175938   5.061   0.838   1.107 -0.2747 -1.2240 -0.0372
18149TIP3    H275939   5.195   0.892   1.153 -0.9542  1.0068 -0.5614
18150TIP3   OH275940   3.750   4.776  14.455 -1.1458  0.3099 -0.2943
18150TIP3    H175941   3.778   4.846  14.514 -2.2870  0.8253 -0.3311
18150TIP3    H275942   3.682   4.729  14.504  0.0879 -1.2638  0.0176
18151TIP3   OH275943   1.050   3.697  12.375  0.0983 -0.3807 -0.5745
18151TIP3    H175944   1.115   3.765  12.394 -0.5064 -0.3342  1.5877
18151TIP3    H275945   0.966   3.741  12.387 -0.3033 -1.5086  0.9706
18152TIP3   OH275946   6.087   5.584  11.962  0.2245  0.1101  0.1561
18152TIP3    H175947   6.150   5.557  12.029 -0.4163 -0.6723  0.4674
18152TIP3    H275948   6.067   5.504  11.914 -0.8952  0.2275  0.3814
18153TIP3   OH275949   0.883   5.247  13.985 -0.2697 -0.2042 -0.2294
18153TIP3    H175950   0.916   5.255  14.075 -1.9928 -1.1814  0.5543
18153TIP3    H275951   0.935   5.309  13.935  1.9424 -0.8651  1.0817
18154TIP3   OH275952   4.821   0.368   2.091 -0.1809  0.0446 -0.1729
18154TIP3    H175953   4.851   0.451   2.129  0.4072 -1.0454  1.9213
18154TIP3    H275954   4.728   0.365   2.111 -0.2301  0.2444 -0.3647
18155TIP3   OH275955   4.102   5.330   3.221  0.3314  0.1599 -0.4240
18155TIP3    H175956   4.109   5.278   3.301  2.4558 -1.2785 -1.4445
18155TIP3    H275957   4.055   5.409   3.248  0.7083 -0.3951  2.1606
18156TIP3   OH275958   5.704   0.313  11.799  0.3579  0.0176  0.0461
18156TIP3    H175959   5.754   0.232  11.810 -0.7136 -0.8008 -0.8777
18156TIP3    H275960   5.770   0.382  11.802  1.2446 -0.8397  1.3350
18157TIP3   OH275961   3.767   6.379  12.929  0.2545  0.1605  0.1324
18157TIP3    H175962   3.775   6.316  12.999  2.0480  1.9151  1.6244
18157TIP3    H275963   3.780   6.464  12.971  1.4808  1.2892 -2.3093
18158TIP3   OH275964   0.685   2.255  15.650 -0.4625 -0.2139 -0.2875
18158TIP3    H175965   0.698   2.337  15.698 -1.1563 -0.8751  1.0874
18158TIP3    H275966   0.751   2.195  15.686  0.7260 -0.0240 -1.9922
18159TIP3   OH275967   3.331   1.057  14.092 -0.1507  0.0614  0.0216
18159TIP3    H175968   3.253   1.024  14.047 -1.1589  0.5226  1.3766
18159TIP3    H275969   3.322   1.026  14.182  2.8658 -2.6354 -0.4324
18160TIP3   OH275970   3.714   4.581   3.031 -0.1925  0.1359 -0.2171
18160TIP3    H175971   3.628   4.537   3.030 -0.9804  1.6271 -0.8337
18160TIP3    H275972   3.739   4.587   2.939  1.5935 -2.0834  0.0375
18161TIP3   OH275973   5.601   4.034  11.176  0.0062 -0.3955  0.4175
18161TIP3    H175974   5.510   4.064  11.176  0.1735  0.1199 -0.0203
18161TIP3    H275975   5.632   4.053  11.264  0.0583  0.5632  0.1956
18162TIP3   OH275976   3.433   2.973   6.195 -0.5222  0.2410 -0.3517
18162TIP3    H175977   3.486   2.893   6.191 -2.7995 -1.3952  0.1934
18162TIP3    H275978   3.470   3.022   6.269 -2.5060 -3.1127  3.2605
18163TIP3   OH275979   2.754   2.047  15.407  0.3054 -0.2064  0.6129
18163TIP3    H175980   2.779   1.991  15.333 -0.5067  1.5740 -1.0905
18163TIP3    H275981   2.714   1.986  15.470  1.6447 -1.8736 -0.0526
18164TIP3   OH275982   5.311   3.233  13.521  0.2093 -0.1211  0.2271
18164TIP3    H175983   5.337   3.215  13.611 -0.4463 -3.4515 -0.1122
18164TIP3    H275984   5.236   3.292  13.529  0.8197  0.4779  1.7765
18165TIP3   OH275985   3.280   4.820   2.694  0.1415 -0.3422 -0.4469
18165TIP3    H175986   3.360   4.773   2.717  0.3691 -0.1669 -0.8618
18165TIP3    H275987   3.229   4.758   2.642 -0.2892 -0.6757  0.3574
18166TIP3   OH275988   0.264   1.091   2.496 -0.6448  0.0148  0.1776
18166TIP3    H175989   0.323   1.147   2.547  0.4429 -0.6441 -0.3079
18166TIP3    H275990   0.227   1.149   2.429 -0.6822  0.4764  0.5904
18167TIP3   OH275991   5.233   1.320  13.317 -0.3155 -0.9822  0.5708
18167TIP3    H175992   5.185   1.387  13.269 -0.7630 -0.2732  1.9586
18167TIP3    H275993   5.263   1.259  13.250 -0.9062 -0.0246 -0.5937
18168TIP3   OH275994   5.457   6.443  16.146 -0.0988  0.0033 -0.6171
18168TIP3    H175995   5.429   6.359  16.109  3.0616 -0.8794 -1.2774
18168TIP3    H275996   5.515   6.418  16.218  1.1710  1.5935 -1.0423
18169TIP3   OH275997   4.004   0.074   6.426 -0.2630 -0.1117  0.2145
18169TIP3    H175998   3.922   0.102   6.468  0.5046  0.7630  1.1998
18169TIP3    H275999   4.042   0.155   6.391 -0.4033 -0.6960 -1.3465
18170TIP3   OH276000   4.767   3.159   1.229 -0.2286 -0.9723  0.6733
18170TIP3    H176001   4.713   3.212   1.172 -1.2061 -1.5844  1.0071
18170TIP3    H276002   4.723   3.161   1.314  0.9304 -0.4846  1.2965
18171TIP3   OH276003   3.533   1.136   1.758 -0.2721  0.3997  0.0546
18171TIP3    H176004   3.561   1.101   1.673 -1.1127  0.7854 -0.3880
18171TIP3    H276005   3.470   1.073   1.791  0.1511  0.1816  0.4683
18172TIP3   OH276006   6.147   1.702  11.600 -0.1167  0.2318 -0.2633
18172TIP3    H176007   6.182   1.734  11.517  0.4396  0.8328  0.1919
18172TIP3    H276008   6.222   1.662  11.644 -0.6991 -1.3880 -0.6337
18173TIP3   OH276009   4.033   0.816  12.142 -0.5147 -0.7293  0.2998
18173TIP3    H176010   4.037   0.777  12.055  0.9072 -3.1577  1.3238
18173TIP3    H276011   4.087   0.895  12.135  0.0191 -1.1681 -0.9143
18174TIP3   OH276012   6.235   4.781  15.970  0.1995 -0.4368 -0.3784
18174TIP3    H176013   6.169   4.744  16.028  0.9527  0.0281  0.8099
18174TIP3    H276014   6.200   4.767  15.882 -0.9250 -1.2384  0.1713
18175TIP3   OH276015   0.049   5.630  15.476 -0.3163  0.5252 -0.1619
18175TIP3    H176016   0.080   5.684  15.549  1.0158  0.1844 -0.4545
18175TIP3    H276017   0.117   5.637  15.410 -0.2227 -1.3176 -0.3117
18176TIP3   OH276018   3.096   2.777  13.982 -0.2845  0.0564  0.0500
18176TIP3    H176019   3.077   2.726  13.903  0.7353  0.8876 -0.7570
18176TIP3    H276020   3.023   2.838  13.989 -0.8675 -0.6498  0.3103
18177TIP3   OH276021   4.852   4.563   2.094 -0.2117  0.1514  0.4846
18177TIP3    H176022   4.864   4.639   2.152  1.5187 -0.3039  0.7620
18177TIP3    H276023   4.798   4.503   2.145 -2.7314  1.6562 -0.2195
18178TIP3   OH276024   4.926   6.759   5.383  0.0719  0.1956 -0.0334
18178TIP3    H176025   4.912   6.854   5.386 -1.9462 -0.0669 -0.0385
18178TIP3    H276026   4.855   6.726   5.330  0.9480 -1.3209 -0.3073
18179TIP3   OH276027   5.505   5.997   2.251  0.2983 -0.2051 -0.5270
18179TIP3    H176028   5.486   6.040   2.334  0.8697  0.7058 -0.8585
18179TIP3    H276029   5.516   5.905   2.274 -1.0587 -0.2192  0.1716
18180TIP3   OH276030   6.057   5.310  15.542 -0.1701 -0.1261  0.2803
18180TIP3    H176031   6.023   5.340  15.458 -0.3761 -1.2362 -0.0451
18180TIP3    H276032   6.017   5.224  15.555 -0.1723  0.0470  1.5355
18181TIP3   OH276033   1.836   6.190  12.038 -1.2913 -0.1480 -0.3184
18181TIP3    H176034   1.812   6.165  11.948 -0.5074 -0.2885 -0.4940
18181TIP3    H276035   1.905   6.255  12.027  0.6003 -1.9490  0.1615
18182TIP3   OH276036   3.898   6.621   5.050  0.2739  0.2087 -0.0946
18182TIP3    H176037   3.935   6.708   5.063  1.7005 -0.5098  1.0242
18182TIP3    H276038   3.972   6.568   5.018 -0.4190 -0.7165 -0.2196
18183TIP3   OH276039   3.017   4.862   4.871 -0.0508 -0.6669  0.0080
18183TIP3    H176040   3.028   4.950   4.906  1.3650 -0.1476 -1.5766
18183TIP3    H276041   2.923   4.854   4.857 -0.2841  0.2917  0.8921
18184TIP3   OH276042   4.968   0.672  14.200  0.2149  0.5104  0.0854
18184TIP3    H176043   5.010   0.611  14.140 -0.1699  1.6693 -1.4337
18184TIP3    H276044   4.883   0.690  14.159  0.7867  2.9476 -0.1547
18185TIP3   OH276045   2.263   0.931  16.611  0.3438 -0.0761 -0.3863
18185TIP3    H176046   2.220   0.868  16.554  0.0758  0.0835 -0.3640
18185TIP3    H276047   2.355   0.907  16.609  0.6595  1.1309 -2.4318
18186TIP3   OH276048   4.575   1.941   5.174 -0.1370  0.1044 -0.6887
18186TIP3    H176049   4.639   1.957   5.105  0.7303 -0.2082  0.0230
18186TIP3    H276050   4.511   1.882   5.134  0.5622 -0.3801 -1.1135
18187TIP3   OH276051   0.311   5.502   1.795  0.2840 -0.3878 -0.1182
18187TIP3    H176052   0.294   5.408   1.796  0.6219 -0.4492  0.2509
18187TIP3    H276053   0.406   5.509   1.799  0.2344 -0.0287  1.7372
18188TIP3   OH276054   4.793   0.765  12.111 -0.1171  0.0099  0.3979
18188TIP3    H176055   4.822   0.678  12.087 -0.0487 -0.5458  2.3606
18188TIP3    H276056   4.715   0.751  12.165 -2.4535  1.3502 -2.3650
18189TIP3   OH276057   3.176   3.243   5.845 -0.1225  0.6311  0.3000
18189TIP3    H176058   3.167   3.201   5.930 -3.0551 -0.4856 -0.4358
18189TIP3    H276059   3.093   3.287   5.830 -0.0739  0.0426 -2.3184
18190TIP3   OH276060   3.871   5.831  16.952  0.3494  0.2858  0.2097
18190TIP3    H176061   3.911   5.744  16.959 -0.4057 -0.0618  0.3433
18190TIP3    H276062   3.806   5.833  17.021 -0.5508  0.4592 -0.6197
18191TIP3   OH276063   0.348   4.825   5.323  0.7191  0.0395 -0.0427
18191TIP3    H176064   0.424   4.883   5.322 -1.0598  2.5817  0.7319
18191TIP3    H276065   0.367   4.761   5.391  1.6597  1.3759  0.9873
18192TIP3   OH276066   2.991   4.652   1.412  0.0029 -0.2990 -0.6655
18192TIP3    H176067   2.999   4.747   1.403 -2.9468  0.0822 -0.2782
18192TIP3    H276068   3.036   4.632   1.494  1.0167  0.6734 -0.9564
18193TIP3   OH276069   1.529   0.771  17.267  0.1159 -0.6223  0.1765
18193TIP3    H176070   1.544   0.804  17.356  1.4899 -1.4689  0.2978
18193TIP3    H276071   1.457   0.824  17.233  0.6435  0.8313  1.2153
18194TIP3   OH276072   6.250   2.288   0.274  0.3884  0.1095 -0.7382
18194TIP3    H176073   6.213   2.276   0.362 -1.1253  0.2498 -1.3255
18194TIP3    H276074   6.200   2.361   0.237  0.5423 -0.3782 -1.9481
18195TIP3   OH276075   2.676   4.619   5.567  1.0272 -0.4146 -0.5417
18195TIP3    H176076   2.666   4.524   5.560  0.3854 -0.3739 -0.2257
18195TIP3    H276077   2.767   4.635   5.544  0.7279 -0.9453 -2.2832
18196TIP3   OH276078   5.979   1.502   4.346 -0.0594 -0.1198 -0.8709
18196TIP3    H176079   6.067   1.537   4.358 -0.6299  1.1487 -0.1937
18196TIP3    H276080   5.990   1.430   4.284  1.3770  0.2996 -1.1375
18197TIP3   OH276081   6.543   1.602  16.587 -0.4736 -0.5297 -0.4532
18197TIP3    H176082   6.546   1.541  16.660 -0.8970 -0.4469 -0.3626
18197TIP3    H276083   6.525   1.548  16.510  1.9558 -0.8947 -0.8392
18198TIP3   OH276084   4.313   4.978  10.583  0.2645  0.0922  0.2631
18198TIP3    H176085   4.231   4.994  10.536  0.6919 -0.9687 -0.8886
18198TIP3    H276086   4.317   5.049  10.648 -0.1175  1.9303 -1.5983
18199TIP3   OH276087   0.034   3.800   0.774 -0.3367  0.3766 -0.0069
18199TIP3    H176088   0.061   3.874   0.830 -0.0788 -0.2660  0.7421
18199TIP3    H276089  -0.012   3.841   0.701  2.2917  1.5393 -1.1778
18200TIP3   OH276090   4.706   5.775  16.012  0.3042  0.4411  0.1698
18200TIP3    H176091   4.674   5.865  16.003 -0.2674  0.2758  0.5362
18200TIP3    H276092   4.651   5.725  15.952  0.8782  0.3889 -0.3242
18201TIP3   OH276093   1.032   1.460  15.007 -0.6864  0.0569  0.4351
18201TIP3    H176094   1.042   1.402  15.083 -0.3525  1.2966  1.3751
18201TIP3    H276095   1.028   1.401  14.932 -1.6358 -1.2459  1.4557
18202TIP3   OH276096   2.689   1.196  13.348 -0.4519 -0.1954  0.1183
18202TIP3    H176097   2.712   1.137  13.421 -0.7671  0.2393  0.5780
18202TIP3    H276098   2.594   1.204  13.353 -0.4344  0.1564 -0.0886
18203TIP3   OH276099   2.400   1.785  12.731 -0.4794 -0.0244  0.2642
18203TIP3    H176100   2.341   1.823  12.796 -1.9905 -2.4302  0.4237
18203TIP3    H276101   2.343   1.750  12.663  0.9491  0.1943 -1.1098
18204TIP3   OH276102   0.187   1.755  11.549  0.3389  0.2738  0.7993
18204TIP3    H176103   0.170   1.785  11.638 -0.2168  0.2271  0.7091
18204TIP3    H276104   0.124   1.685  11.534  0.1714  0.5356  0.2346
18205TIP3   OH276105   4.858   5.373   2.159  0.4399 -0.4405  0.0460
18205TIP3    H176106   4.769   5.340   2.170  0.2591 -0.1146 -0.3938
18205TIP3    H276107   4.869   5.437   2.229  0.1926 -0.2040 -0.1289
18206TIP3   OH276108   2.839   0.062  15.415  0.6034  0.8137  0.1842
18206TIP3    H176109   2.835   0.137  15.474  0.1410  1.6028 -0.8103
18206TIP3    H276110   2.798  -0.009  15.464 -0.3780  1.6218  0.5856
18207TIP3   OH276111   6.615   5.666   6.144  0.4298  0.1140  0.9118
18207TIP3    H176112   6.617   5.606   6.219  1.0510  0.6474  1.3361
18207TIP3    H276113   6.523   5.692   6.137  0.2142 -0.5935  0.9478
18208TIP3   OH276114   0.855   5.630  15.023  0.3518 -0.6709 -0.0453
18208TIP3    H176115   0.830   5.684  15.098 -0.1566 -0.6017 -0.2646
18208TIP3    H276116   0.774   5.588  14.995  0.6881 -1.3499 -0.0415
18209TIP3   OH276117   6.055   2.450   0.074 -0.4189 -0.0969 -0.5154
18209TIP3    H176118   6.089   2.540   0.080 -0.1358 -0.1626 -1.0307
18209TIP3    H276119   5.992   2.443   0.146 -0.4705  0.5271 -0.4925
18210TIP3   OH276120   1.925   1.120   1.118 -0.1554  0.6819  0.5969
18210TIP3    H176121   1.998   1.134   1.178  0.6338 -0.1972 -0.1106
18210TIP3    H276122   1.905   1.026   1.125  1.2702  0.0704 -1.8344
18211TIP3   OH276123   1.313   4.817  13.783  0.4843  0.6272  0.1172
18211TIP3    H176124   1.341   4.787  13.870  1.7278  2.2969  0.3407
18211TIP3    H276125   1.290   4.909  13.796 -2.3634  0.1253 -0.7272
18212TIP3   OH276126   1.889   3.471   2.309 -0.5669  0.2674 -0.1833
18212TIP3    H176127   1.963   3.410   2.307 -1.6379 -1.4735  3.6066
18212TIP3    H276128   1.920   3.544   2.363 -1.4965 -0.5602  1.5895
18213TIP3   OH276129   2.349   4.328  16.732  0.0325 -0.4086  0.0454
18213TIP3    H176130   2.391   4.374  16.805  0.0417 -2.4559  1.4228
18213TIP3    H276131   2.400   4.355  16.655  0.6941  1.0059  0.9292
18214TIP3   OH276132   2.138   4.004   0.900 -0.2704  0.0165  0.4272
18214TIP3    H176133   2.054   3.960   0.884 -0.4147 -0.2054  1.6944
18214TIP3    H276134   2.113   4.088   0.940  0.0698  0.5564 -0.4694
18215TIP3   OH276135   1.638   6.233  15.121  0.0897 -0.6161  0.1491
18215TIP3    H176136   1.645   6.200  15.032 -0.8575 -1.2377  0.2945
18215TIP3    H276137   1.679   6.320  15.118  1.2560 -1.1606 -0.5819
18216TIP3   OH276138   5.576   5.162  13.820  0.1386 -0.2271 -0.6840
18216TIP3    H176139   5.489   5.123  13.807 -0.1725  0.2857 -0.2158
18216TIP3    H276140   5.613   5.114  13.894  1.0699 -1.7607 -2.0801
18217TIP3   OH276141   1.291   2.930   0.460 -0.0612 -0.2077 -0.0588
18217TIP3    H176142   1.275   2.872   0.386 -2.6620  0.5959 -0.2258
18217TIP3    H276143   1.207   2.938   0.503  0.7694  1.5402  1.3685
18218TIP3   OH276144   1.805   1.309  12.849  0.3564  0.0766  0.1763
18218TIP3    H176145   1.712   1.311  12.873  0.0715 -3.1461 -0.1708
18218TIP3    H276146   1.846   1.374  12.906 -1.4426 -1.7282  3.9038
18219TIP3   OH276147   2.708   5.687  11.773  0.3006 -0.2574 -0.2727
18219TIP3    H176148   2.782   5.644  11.814 -1.1874 -1.2746  1.4647
18219TIP3    H276149   2.672   5.622  11.712 -1.1241 -1.0775  1.3543
18220TIP3   OH276150   3.591   0.840   0.784 -0.2921 -0.0509  0.2202
18220TIP3    H176151   3.670   0.877   0.823  0.0574 -0.3123 -0.2445
18220TIP3    H276152   3.568   0.901   0.714  0.3222 -0.7442 -0.5892
18221TIP3   OH276153   5.325   3.834   3.885 -0.2715 -0.7324  0.4695
18221TIP3    H176154   5.260   3.853   3.952  0.9129  0.5743  1.3065
18221TIP3    H276155   5.373   3.916   3.874  0.2013 -1.1922 -1.2961
18222TIP3   OH276156   1.992   4.219   6.084 -0.3118 -0.3943 -0.6998
18222TIP3    H176157   1.961   4.308   6.064 -1.1038 -0.5237 -0.1158
18222TIP3    H276158   2.023   4.185   6.001  1.7855  1.0906 -0.6064
18223TIP3   OH276159   2.771   1.100  16.797  0.2976 -0.1511  0.6929
18223TIP3    H176160   2.810   1.017  16.770 -0.1986 -0.1847  0.0572
18223TIP3    H276161   2.756   1.147  16.716 -0.7220 -0.0215  0.9412
18224TIP3   OH276162   6.383   0.423  12.357  0.4441  0.1976  0.0974
18224TIP3    H176163   6.438   0.437  12.434  0.8702  1.9638 -0.4844
18224TIP3    H276164   6.428   0.470  12.287 -0.5338 -0.4119 -0.9691
18225TIP3   OH276165   0.540   1.547  13.581 -0.3729 -0.4781  0.1740
18225TIP3    H176166   0.625   1.535  13.624 -0.1078  1.9807  0.4810
18225TIP3    H276167   0.558   1.529  13.489  0.9026  1.4058 -0.0038
18226TIP3   OH276168   0.652   4.094   3.845 -0.5713  0.1888  0.6007
18226TIP3    H176169   0.747   4.077   3.845 -0.4639  0.7863  0.3179
18226TIP3    H276170   0.619   4.042   3.771 -0.6499 -0.9852  1.4294
18227TIP3   OH276171   3.488   1.180  15.003 -0.3522 -0.0574 -0.2176
18227TIP3    H176172   3.579   1.212  15.002 -0.5873  0.8280  1.8285
18227TIP3    H276173   3.494   1.092  15.040 -0.4859  0.8750  2.2051
18228TIP3   OH276174   5.282   2.478   5.398  0.0241 -0.1411 -0.0859
18228TIP3    H176175   5.236   2.394   5.403 -0.3546  0.0573 -0.1965
18228TIP3    H276176   5.222   2.541   5.437 -0.2208  0.2893 -1.1263
18229TIP3   OH276177   0.398   0.017   4.373  0.6850  0.0568 -0.1359
18229TIP3    H176178   0.407  -0.018   4.284 -0.9555 -0.7461 -0.0096
18229TIP3    H276179   0.484   0.002   4.413  1.3533  0.1511 -1.4695
18230TIP3   OH276180   0.266   4.166   0.051 -0.2908  0.7977 -0.2970
18230TIP3    H176181   0.199   4.197   0.112  0.6418 -0.0178  1.2000
18230TIP3    H276182   0.331   4.236   0.048 -1.5676  1.9978 -2.4639
18231TIP3   OH276183   1.261   1.698   0.251  0.1707  0.1847  0.4199
18231TIP3    H176184   1.321   1.765   0.283 -0.4048  0.3075  1.2792
18231TIP3    H276185   1.176   1.722   0.288 -0.2708 -0.3828 -0.1969
18232TIP3   OH276186   2.659   1.854  16.811  0.0172 -0.5483 -0.2089
18232TIP3    H176187   2.573   1.887  16.838  0.0439  1.0794 -1.8928
18232TIP3    H276188   2.640   1.770  16.769 -1.2310  1.0970 -3.1976
18233TIP3   OH276189   0.350   0.632  16.839  0.0566 -0.4320  0.1569
18233TIP3    H176190   0.420   0.632  16.774  0.0415  0.2824  0.1346
18233TIP3    H276191   0.344   0.541  16.868  0.4393 -0.6492 -0.4348
18234TIP3   OH276192   6.662   2.394   3.706 -0.9971 -0.0931 -0.3076
18234TIP3    H176193   6.631   2.309   3.674 -1.9140 -0.1633  0.7138
18234TIP3    H276194   6.614   2.408   3.788 -0.1179  0.9544  0.0511
18235TIP3   OH276195   2.178   2.073   0.957 -0.1733  0.1616  0.3380
18235TIP3    H176196   2.160   2.066   0.863 -0.4882  0.2161  0.3923
18235TIP3    H276197   2.107   2.127   0.990 -1.1823 -1.4872  0.9546
18236TIP3   OH276198   3.453   0.143   6.352 -0.4101  0.2858 -0.5248
18236TIP3    H176199   3.458   0.069   6.413  1.1950  0.3421 -0.5447
18236TIP3    H276200   3.401   0.208   6.398  1.5821  0.7225  1.2882
18237TIP3   OH276201   5.570   3.449   4.575 -0.0012  0.1654 -0.0772
18237TIP3    H176202   5.554   3.402   4.493 -0.2071  0.0739  0.0150
18237TIP3    H276203   5.664   3.468   4.574 -0.0562  0.4399 -0.4831
18238TIP3   OH276204   6.541   6.577  11.904 -0.6818 -0.3173 -0.0248
18238TIP3    H176205   6.478   6.649  11.902 -0.7211 -0.3475  0.1150
18238TIP3    H276206   6.554   6.553  11.812  0.9247  1.2754 -0.2841
18239TIP3   OH276207   1.717   4.816  13.798  0.1225  0.0560 -0.4609
18239TIP3    H176208   1.808   4.832  13.823  0.4657 -0.3993 -1.3740
18239TIP3    H276209   1.673   4.899  13.815  0.7177  0.3015 -0.0664
18240TIP3   OH276210   6.259   6.637  12.292 -0.3847  0.5154  0.1435
18240TIP3    H176211   6.298   6.603  12.373  1.8463 -0.7149 -1.3414
18240TIP3    H276212   6.334   6.666  12.240 -1.8656  2.4894 -0.9836
18241TIP3   OH276213   0.372   1.724  10.506  0.0660  0.0683 -0.8164
18241TIP3    H176214   0.353   1.679  10.589  0.7644 -1.6179 -1.5310
18241TIP3    H276215   0.457   1.765  10.520 -0.3060  0.7084 -0.3560
18242TIP3   OH276216   1.366   3.750   6.704 -0.1297  0.5297 -0.7486
18242TIP3    H176217   1.443   3.803   6.726  0.4733 -0.5655 -0.1052
18242TIP3    H276218   1.314   3.806   6.647  0.4583  1.8273 -0.0622
18243TIP3   OH276219   2.198   5.069   2.581  0.1539  0.4555 -0.4409
18243TIP3    H176220   2.110   5.083   2.616 -0.1381  1.8321 -1.6446
18243TIP3    H276221   2.216   5.147   2.528  1.8637 -0.0768 -0.7130
18244TIP3   OH276222   2.865   6.553  11.330 -0.7757 -0.1065 -0.2499
18244TIP3    H176223   2.830   6.467  11.357 -2.0569  0.6589  0.6504
18244TIP3    H276224   2.837   6.613  11.399  3.3901  0.4575  1.2545
18245TIP3   OH276225   2.657   2.828  13.003 -0.3233 -0.0147 -0.3203
18245TIP3    H176226   2.640   2.737  12.978  0.7716  0.0908 -1.5647
18245TIP3    H276227   2.752   2.836  13.002 -0.4103  1.1665 -0.3563
18246TIP3   OH276228   5.612   5.723   4.645 -0.0603 -0.3453 -0.1303
18246TIP3    H176229   5.523   5.717   4.613 -0.4691  0.8957  0.7217
18246TIP3    H276230   5.666   5.724   4.566 -0.7891 -0.9757 -0.6520
18247TIP3   OH276231   2.601   3.533   5.556  0.4576 -0.0127 -0.4311
18247TIP3    H176232   2.668   3.599   5.571  1.0631 -0.9193  1.0739
18247TIP3    H276233   2.614   3.506   5.465  0.9305  1.1115 -0.7189
18248TIP3   OH276234   6.667   0.565  13.364  0.6125 -0.1714  0.1715
18248TIP3    H176235   6.689   0.624  13.437  0.7866 -1.4708  1.2048
18248TIP3    H276236   6.722   0.595  13.292  0.5334  1.0724  0.5936
18249TIP3   OH276237   0.293   1.018   1.521  0.2197  0.2392 -0.3034
18249TIP3    H176238   0.387   1.001   1.526  0.7066  2.6062 -0.4524
18249TIP3    H276239   0.273   1.068   1.600 -0.9746 -0.3171 -0.2151
18250TIP3   OH276240   5.152   4.157   4.721  0.3116  0.1654  0.5890
18250TIP3    H176241   5.198   4.155   4.637  2.2105  0.1375  1.5673
18250TIP3    H276242   5.079   4.096   4.711  0.8777 -0.3083 -0.8287
18251TIP3   OH276243   5.230   4.573  13.497 -0.1840  0.1576  0.0957
18251TIP3    H176244   5.284   4.609  13.427  0.0546 -1.8210 -0.7916
18251TIP3    H276245   5.140   4.582  13.466 -0.1712  0.6050  0.1862
18252TIP3   OH276246   0.657   1.893  11.397  0.4406 -0.0928 -0.0340
18252TIP3    H176247   0.692   1.861  11.479  0.4372  0.3298  0.1335
18252TIP3    H276248   0.564   1.871  11.400  0.6558 -1.0774 -0.4129
18253TIP3   OH276249   3.900   4.648   1.913 -0.2430 -0.0092 -0.1811
18253TIP3    H176250   3.916   4.579   1.977 -1.9761  0.0777  0.4155
18253TIP3    H276251   3.979   4.650   1.859  0.7845 -0.8733  1.2213
18254TIP3   OH276252   5.702   3.211  16.533  0.4503  0.0529 -0.4965
18254TIP3    H176253   5.698   3.301  16.499 -0.2511  0.0555 -0.4244
18254TIP3    H276254   5.760   3.165  16.472 -0.8135  0.0498 -1.7310
18255TIP3   OH276255   2.734   4.913   4.846  0.2862 -0.2638 -0.0492
18255TIP3    H176256   2.733   5.003   4.879  0.7881  0.3895 -1.7227
18255TIP3    H276257   2.660   4.871   4.889  0.7884  0.5740  1.7202
18256TIP3   OH276258   0.785   5.543  13.782 -0.1227  0.1470 -0.2115
18256TIP3    H176259   0.809   5.592  13.703  1.0185  0.6625  0.4271
18256TIP3    H276260   0.861   5.551  13.839 -0.7603 -0.5835  0.7774
18257TIP3   OH276261   1.940   3.967  11.413 -0.0289  0.2660  0.1518
18257TIP3    H176262   1.972   4.049  11.376 -1.0344 -0.5139 -2.7410
18257TIP3    H276263   1.996   3.900  11.373 -1.2795 -0.6367 -0.1503
18258TIP3   OH276264   0.177   5.874   3.423 -0.0328  0.0889 -0.1063
18258TIP3    H176265   0.117   5.886   3.497  1.9395  2.7761  1.2715
18258TIP3    H276266   0.250   5.824   3.460 -0.1971 -0.8022 -0.9781
18259TIP3   OH276267   2.929   6.092   5.524  0.2656 -0.4426 -0.7174
18259TIP3    H176268   2.964   6.047   5.601 -3.7533 -0.2392  1.5491
18259TIP3    H276269   2.852   6.040   5.499 -1.3147  2.0800 -1.5008
18260TIP3   OH276270   6.633   1.952   1.377  0.7524 -0.1783  0.4499
18260TIP3    H176271   6.624   2.022   1.441  0.5032 -0.2973  0.5488
18260TIP3    H276272   6.645   1.996   1.293  0.5912 -0.0190  0.5115
18261TIP3   OH276273   5.742   2.679   4.601 -0.2896 -0.3007 -0.0324
18261TIP3    H176274   5.751   2.725   4.517 -0.1412  0.2467  0.2788
18261TIP3    H276275   5.758   2.587   4.579  0.7436 -0.0434 -0.4408
18262TIP3   OH276276   4.820   0.239   5.440 -0.0928 -0.7002 -0.2802
18262TIP3    H176277   4.853   0.323   5.409  1.6679 -0.9812  0.7044
18262TIP3    H276278   4.787   0.257   5.528 -2.4242 -0.4839 -1.1504
18263TIP3   OH276279   0.704   0.930   3.538  0.1239 -0.3524 -0.6459
18263TIP3    H176280   0.646   0.979   3.596 -1.5576  0.0414 -2.5740
18263TIP3    H276281   0.686   0.838   3.558 -0.0576 -0.2204 -0.1969
18264TIP3   OH276282   2.239   3.258   0.327  0.4131 -0.0772 -0.2332
18264TIP3    H176283   2.173   3.305   0.379  0.0119  0.1632 -0.9417
18264TIP3    H276284   2.198   3.174   0.307  1.6122 -1.3226  2.1043
18265TIP3   OH276285   2.978   1.113  14.444  0.3811 -0.1261 -0.0418
18265TIP3    H176286   2.942   1.200  14.464 -1.9466 -1.3789  1.6934
18265TIP3    H276287   3.073   1.126  14.445  0.1508  2.1085  1.6541
18266TIP3   OH276288   1.779   1.146  15.257  0.2880  0.0838 -0.1750
18266TIP3    H176289   1.725   1.110  15.327  1.6611 -0.3236  0.7121
18266TIP3    H276290   1.739   1.231  15.237 -0.0407  0.2863  1.2231
18267TIP3   OH276291   6.307   2.494  12.166 -0.3747 -0.7075  0.1023
18267TIP3    H176292   6.395   2.497  12.129 -0.1353 -0.9717  0.6316
18267TIP3    H276293   6.249   2.485  12.091  0.0904 -1.1545 -0.2070
18268TIP3   OH276294   0.898   0.075  14.132  0.3427 -0.0633  0.0407
18268TIP3    H176295   0.936   0.161  14.119  0.7761 -0.3178 -0.4265
18268TIP3    H276296   0.813   0.092  14.172  0.9794  0.5114  1.1997
18269TIP3   OH276297   5.847   5.913  17.125  0.1417 -0.6103 -0.4747
18269TIP3    H176298   5.849   5.901  17.220  1.6439 -1.2491 -0.5610
18269TIP3    H276299   5.908   5.847  17.092 -0.6208 -0.6248 -1.9162
18270TIP3   OH276300   1.645   5.035   1.113  0.2767 -0.4468  0.3124
18270TIP3    H176301   1.609   4.957   1.071  0.5956  0.7482 -2.3796
18270TIP3    H276302   1.568   5.082   1.147 -0.1254 -0.8067 -0.0929
18271TIP3   OH276303   5.581   4.980  16.369 -0.2532 -0.3298  0.5126
18271TIP3    H176304   5.526   5.009  16.296  0.9411 -0.0081 -0.2821
18271TIP3    H276305   5.668   5.014  16.349  0.7947 -2.8119  0.5185
18272TIP3   OH276306   4.642   5.842   2.298 -0.2573  0.4687  0.4672
18272TIP3    H176307   4.551   5.869   2.306 -0.2418  0.4018  0.9014
18272TIP3    H276308   4.676   5.847   2.387  0.2464  0.7831  0.2647
18273TIP3   OH276309   2.172   6.534   0.714  0.7450 -1.0221  0.7472
18273TIP3    H176310   2.168   6.511   0.621 -1.2942 -0.0744  0.5512
18273TIP3    H276311   2.084   6.517   0.747  1.1054 -0.1903  2.2143
18274TIP3   OH276312   6.396   2.336   3.900  0.0441  0.4648 -0.0686
18274TIP3    H176313   6.434   2.255   3.932  1.1478 -0.5614 -3.4793
18274TIP3    H276314   6.306   2.335   3.932  0.5880 -1.1249  1.5287
18275TIP3   OH276315   5.166   4.911   0.829 -0.1051  0.4091 -0.2591
18275TIP3    H176316   5.259   4.917   0.852 -0.3511 -0.3325  1.0238
18275TIP3    H276317   5.143   4.999   0.800  0.7164  0.9244  0.5767
18276TIP3   OH276318   4.564   4.839   5.567  0.0266  0.1982  0.2951
18276TIP3    H176319   4.654   4.859   5.595  0.5661 -0.3489 -0.9552
18276TIP3    H276320   4.575   4.783   5.490 -1.3906 -2.7729  2.0799
18277TIP3   OH276321   3.356   1.892  15.574  0.1461  0.0572 -0.2126
18277TIP3    H176322   3.358   1.798  15.554  0.0278  0.2481 -1.1692
18277TIP3    H276323   3.304   1.930  15.504 -2.1795  0.5165  1.6331
18278TIP3   OH276324   2.097   2.593  13.320 -0.0428  0.2962 -0.3233
18278TIP3    H176325   2.087   2.678  13.363 -0.1304  0.3565 -0.4600
18278TIP3    H276326   2.181   2.560  13.352  0.4093  0.8246 -0.9330
18279TIP3   OH276327   1.359   2.713  17.059 -0.2279  0.4619  0.1175
18279TIP3    H176328   1.344   2.791  17.006  2.4209  1.5977  0.8721
18279TIP3    H276329   1.454   2.700  17.057 -0.4958 -2.2460  0.7700
18280TIP3   OH276330   2.839   5.340  12.927 -0.2956  0.2182  0.2635
18280TIP3    H176331   2.909   5.377  12.980  0.5772 -0.7414 -0.1990
18280TIP3    H276332   2.768   5.323  12.990 -1.1033  3.3919  0.3962
18281TIP3   OH276333   0.634   4.085   5.531 -0.0524  0.0324  0.3858
18281TIP3    H176334   0.698   4.019   5.561  0.0573  0.3621  0.8833
18281TIP3    H276335   0.562   4.033   5.495 -0.5265 -0.4182  1.8832
18282TIP3   OH276336   3.988   0.855   4.677  0.1233 -0.0785 -0.0647
18282TIP3    H176337   3.949   0.778   4.719 -0.0751 -1.4938 -2.6120
18282TIP3    H276338   3.913   0.912   4.658 -0.3071 -1.0900 -1.6141
18283TIP3   OH276339   4.773   1.403   2.290 -0.4810 -0.5267  0.6513
18283TIP3    H176340   4.810   1.371   2.207 -1.2938  0.0354  0.0585
18283TIP3    H276341   4.678   1.398   2.277 -0.6183 -0.6436  1.6413
18284TIP3   OH276342   2.837   0.924   5.097  0.4989  0.2031  0.2927
18284TIP3    H176343   2.910   0.984   5.083  0.0049  1.2489  1.8346
18284TIP3    H276344   2.873   0.853   5.149  0.4111  0.8290  1.2424
18285TIP3   OH276345   2.199   0.287   3.187 -0.2124  0.1539 -0.4884
18285TIP3    H176346   2.163   0.326   3.266 -0.8492 -0.4621 -0.4647
18285TIP3    H276347   2.265   0.226   3.218 -1.0074 -0.6727 -0.3668
18286TIP3   OH276348   4.841   6.753   5.719 -0.2014 -0.3616 -0.0131
18286TIP3    H176349   4.837   6.840   5.760 -0.1613 -0.4043  0.0841
18286TIP3    H276350   4.867   6.770   5.629 -1.8766 -0.1296 -0.4874
18287TIP3   OH276351   3.265   0.089  16.562 -0.1927 -0.4374  0.2282
18287TIP3    H176352   3.202   0.072  16.632 -0.6550  0.6857  0.1168
18287TIP3    H276353   3.280   0.004  16.521 -0.8464 -0.8985  0.9210
18288TIP3   OH276354   4.061   5.991  11.947 -0.3353  0.0343  0.4589
18288TIP3    H176355   4.124   6.006  11.877  1.7946 -0.2724  2.2156
18288TIP3    H276356   4.069   6.067  12.004 -1.8431  0.1554  0.5659
18289TIP3   OH276357   2.300   2.642   2.263 -0.0574 -0.1553  0.4225
18289TIP3    H176358   2.353   2.609   2.190 -0.2499 -1.2259  0.7441
18289TIP3    H276359   2.305   2.737   2.256 -1.4387 -0.1866 -2.0170
18290TIP3   OH276360   1.336   1.212  16.676 -0.2763  0.2935 -0.1138
18290TIP3    H176361   1.411   1.170  16.633  1.6649  1.7015  1.6567
18290TIP3    H276362   1.274   1.141  16.692  0.7832 -0.9766 -1.4110
18291TIP3   OH276363   2.724   5.632  12.935 -0.2647  0.0759  0.6794
18291TIP3    H176364   2.653   5.606  12.994  2.0614 -0.0739  3.6861
18291TIP3    H276365   2.750   5.552  12.891 -3.0742  0.4674 -2.0167
18292TIP3   OH276366   6.097   6.707  14.946  0.4876  0.1017 -0.4658
18292TIP3    H176367   6.125   6.622  14.979 -0.1531  0.2899  0.6278
18292TIP3    H276368   6.003   6.710  14.965  0.8944  1.9976  1.7852
18293TIP3   OH276369   6.586   0.237  15.744  0.3886 -0.6595  0.0965
18293TIP3    H176370   6.577   0.314  15.800 -0.5683 -1.3620  0.9519
18293TIP3    H276371   6.501   0.228  15.702  0.9353 -0.4457 -1.1215
18294TIP3   OH276372   3.020   5.238  14.645  0.3180 -0.2589 -0.4641
18294TIP3    H176373   3.101   5.256  14.692  0.1980 -1.5114  0.2582
18294TIP3    H276374   3.048   5.207  14.559  0.5377  2.4489 -1.4917
18295TIP3   OH276375   0.909   1.640   2.799 -0.2791  0.0633 -0.1446
18295TIP3    H176376   0.992   1.670   2.760 -1.0199 -0.0043 -1.8519
18295TIP3    H276377   0.854   1.719   2.800 -0.5162 -0.1051  0.1066
18296TIP3   OH276378   6.174   4.001   0.859  0.4466 -0.2148 -0.4266
18296TIP3    H176379   6.176   4.006   0.955  1.1853 -1.9723 -0.3084
18296TIP3    H276380   6.168   3.908   0.841 -1.0078  0.1605 -2.1092
18297TIP3   OH276381   6.198   5.804   4.989 -0.5359 -0.3749  0.8300
18297TIP3    H176382   6.112   5.795   5.031 -0.2057 -1.9082  1.2284
18297TIP3    H276383   6.193   5.751   4.910 -0.5536  1.0613 -0.1702
18298TIP3   OH276384   0.074   4.849  15.833 -0.6884 -0.2714  0.4403
18298TIP3    H176385   0.145   4.810  15.884 -0.2094 -0.2871 -0.2119
18298TIP3    H276386   0.060   4.788  15.761  1.1767  1.4360 -1.5257
18299TIP3   OH276387   3.294   5.255  15.903 -0.7496 -0.9241 -0.2525
18299TIP3    H176388   3.380   5.226  15.874  0.0570  0.5350  0.5449
18299TIP3    H276389   3.257   5.300  15.827 -0.1050 -0.1345 -0.1131
18300TIP3   OH276390   4.575   3.232   0.105 -0.3727  0.3930 -0.1489
18300TIP3    H176391   4.615   3.155   0.146  0.2278  0.1343 -1.1771
18300TIP3    H276392   4.570   3.297   0.175  2.2055  0.5708 -0.0175
18301TIP3   OH276393   1.482   2.996   1.279  0.2536 -0.5786 -0.0942
18301TIP3    H176394   1.474   3.091   1.290  0.7523 -0.4607 -0.6705
18301TIP3    H276395   1.547   2.970   1.345  1.6422 -0.1945 -1.2362
18302TIP3   OH276396   4.727   0.227  13.941 -0.0232 -0.2349 -0.4102
18302TIP3    H176397   4.655   0.168  13.916 -0.2421  0.1656 -0.7371
18302TIP3    H276398   4.788   0.222  13.868 -0.2761  0.3132 -0.6675
18303TIP3   OH276399   2.029   4.477   3.047 -0.1097  0.3234 -0.0592
18303TIP3    H176400   2.078   4.400   3.018  2.1770  1.0243  1.6435
18303TIP3    H276401   2.060   4.548   2.990 -2.0633  0.1122 -1.4939
18304TIP3   OH276402   3.077   1.221   3.992 -0.2346  0.2276  0.0746
18304TIP3    H176403   3.091   1.179   3.907  1.5462 -0.5076  0.6680
18304TIP3    H276404   3.047   1.310   3.970 -0.0730 -0.0325 -1.3155
18305TIP3   OH276405   6.701   6.651  11.667  0.3713  0.2974 -0.9316
18305TIP3    H176406   6.796   6.641  11.666  0.6172  2.1151  0.1152
18305TIP3    H276407   6.686   6.737  11.704 -1.7785 -0.7986  0.9885
18306TIP3   OH276408   0.389   2.448   2.337  0.4269 -0.1779 -0.1866
18306TIP3    H176409   0.482   2.464   2.352 -0.1247  1.5362  1.8176
18306TIP3    H276410   0.358   2.406   2.418 -0.6127 -0.4273 -0.6884
18307TIP3   OH276411   5.603   5.455   5.603  0.3790 -0.4774 -0.1179
18307TIP3    H176412   5.686   5.468   5.556 -0.3388  0.7301 -1.1129
18307TIP3    H276413   5.540   5.508   5.554 -1.3245 -2.5507 -0.3021
18308TIP3   OH276414   6.741   2.833   2.717 -0.4049 -0.5186 -0.0578
18308TIP3    H176415   6.815   2.890   2.738 -1.9550  0.4448  3.7408
18308TIP3    H276416   6.676   2.891   2.678 -0.6620 -0.4037  0.5213
18309TIP3   OH276417   6.615   0.506   1.122 -0.1313  0.1329 -0.3497
18309TIP3    H176418   6.547   0.497   1.055  1.3610 -2.0403 -1.7081
18309TIP3    H276419   6.604   0.429   1.178  0.8756 -0.0177 -0.3257
18310TIP3   OH276420   2.005   3.380   6.372  0.3749 -0.2080  0.0859
18310TIP3    H176421   1.978   3.434   6.298 -1.7223 -0.4877  0.5656
18310TIP3    H276422   2.080   3.426   6.410  0.2622  0.9667 -1.0434
18311TIP3   OH276423   2.476   1.589  12.960  0.0617 -0.2016 -0.0654
18311TIP3    H176424   2.569   1.575  12.980  0.1157 -1.7150 -1.1697
18311TIP3    H276425   2.475   1.605  12.865 -0.7290  0.7536  0.0908
18312TIP3   OH276426   0.898   1.465  16.945  0.4183  0.0831  0.1324
18312TIP3    H176427   0.859   1.541  16.902  0.4367 -0.6502 -1.2256
18312TIP3    H276428   0.838   1.445  17.017 -1.3242 -0.5180 -1.4025
18313TIP3   OH276429   2.828   1.379  14.904  0.0705  0.3389  0.2319
18313TIP3    H176430   2.876   1.355  14.826  0.4670 -0.2087  0.6431
18313TIP3    H276431   2.742   1.337  14.894  0.0459  0.4424  0.0011
18314TIP3   OH276432   4.603   2.633  14.578  0.0219 -0.4938  0.3075
18314TIP3    H176433   4.569   2.575  14.510 -3.1027  0.2929  1.0464
18314TIP3    H276434   4.575   2.593  14.660 -0.9671  1.2773  0.8830
18315TIP3   OH276435   2.422   2.898   3.933 -0.0057  0.0432  0.1951
18315TIP3    H176436   2.462   2.875   4.016 -0.7271 -0.5424  0.3866
18315TIP3    H276437   2.358   2.828   3.916  0.1557  0.1247 -0.8640
18316TIP3   OH276438   5.081   3.282   0.279  0.4385  0.5023 -0.2918
18316TIP3    H176439   5.043   3.227   0.210 -0.4278  0.0271  0.5403
18316TIP3    H276440   5.034   3.256   0.359  2.6147 -0.2429  0.8349
18317TIP3   OH276441   1.196   3.135  12.350  0.3415  0.4059  0.4695
18317TIP3    H176442   1.159   3.046  12.352  0.4176  0.1551 -2.9911
18317TIP3    H276443   1.126   3.188  12.311  1.8733  0.8521 -1.8515
18318TIP3   OH276444   4.238   3.815   3.929  0.1544 -0.0126 -0.3848
18318TIP3    H176445   4.246   3.856   3.843 -1.0019  0.4297 -0.3091
18318TIP3    H276446   4.157   3.852   3.965  1.5125  1.1425  1.6447
18319TIP3   OH276447   1.411   2.186  14.608  0.4219 -0.3299 -0.4881
18319TIP3    H176448   1.455   2.142  14.534  3.9955 -0.1030  1.2745
18319TIP3    H276449   1.433   2.279  14.596 -0.5843 -0.0387 -0.1159
18320TIP3   OH276450   4.513   1.590  15.485  0.4056 -0.6906 -0.3494
18320TIP3    H176451   4.534   1.516  15.427  0.3477 -0.9728 -0.0139
18320TIP3    H276452   4.595   1.606  15.532  0.7630  0.2160 -1.2474
18321TIP3   OH276453   5.295   0.854   4.981 -0.0322  0.0164 -0.2157
18321TIP3    H176454   5.221   0.798   4.956 -0.5059  0.0360  1.0775
18321TIP3    H276455   5.372   0.798   4.972 -0.7217 -1.9804  3.9187
18322TIP3   OH276456   4.476   3.454  13.530  0.5127  0.4032  0.0203
18322TIP3    H176457   4.451   3.361  13.528 -0.0197  0.5493 -1.3564
18322TIP3    H276458   4.563   3.455  13.489  0.4076  0.5374 -0.2018
18323TIP3   OH276459   3.348   5.069   2.100 -0.3466  0.2234  0.0821
18323TIP3    H176460   3.287   5.122   2.048 -1.3004 -1.1484 -0.2387
18323TIP3    H276461   3.397   5.018   2.035 -1.0512 -0.9803  0.4611
18324TIP3   OH276462   6.461   1.204   2.323 -0.1080  0.1690  0.2147
18324TIP3    H176463   6.491   1.119   2.353  3.0627  0.9930 -0.2741
18324TIP3    H276464   6.470   1.202   2.228  1.1926  1.3597  0.2636
18325TIP3   OH276465   3.833   4.261   5.405  0.6931 -0.6296 -0.1221
18325TIP3    H176466   3.815   4.298   5.491  1.6508 -2.0679  0.7521
18325TIP3    H276467   3.774   4.186   5.398  0.2422 -0.2205 -0.9728
18326TIP3   OH276468   6.272   6.039  11.286 -0.3076  0.0728  0.2523
18326TIP3    H176469   6.353   5.996  11.258  0.7509  0.6798  2.1756
18326TIP3    H276470   6.277   6.127  11.249 -0.5456 -0.1715 -0.3767
18327TIP3   OH276471   2.177   3.969  11.778  0.0621  0.1342  0.1049
18327TIP3    H176472   2.084   3.961  11.799 -0.1569 -0.4753 -1.0580
18327TIP3    H276473   2.189   3.917  11.699  1.0558  1.5685 -0.7458
18328TIP3   OH276474   4.424   5.702  11.999 -0.0564  0.3127 -0.1777
18328TIP3    H176475   4.385   5.666  12.079 -2.2480  0.6533 -1.0139
18328TIP3    H276476   4.478   5.631  11.965 -1.3167 -0.8522  0.1606
18329TIP3   OH276477   1.329   1.898  15.234  0.1132  0.0557  0.0314
18329TIP3    H176478   1.292   1.899  15.146 -1.1062 -2.4402  0.4383
18329TIP3    H276479   1.415   1.858  15.223 -0.7280 -1.8995  0.1249
18330TIP3   OH276480   2.469   4.422   0.921  0.0009  0.0916  0.3100
18330TIP3    H176481   2.385   4.467   0.913  0.3600  0.6893 -0.2169
18330TIP3    H276482   2.532   4.482   0.881  0.6597 -0.4005  0.5946
18331TIP3   OH276483   2.094   3.287  14.327 -0.1004 -0.4687 -0.2668
18331TIP3    H176484   2.184   3.303  14.299 -0.0415 -0.5003 -0.0945
18331TIP3    H276485   2.041   3.349  14.275  0.2489  1.2621  1.3361
18332TIP3   OH276486   6.095   5.935  17.344  0.3765  0.6756  0.6677
18332TIP3    H176487   6.082   6.012  17.399 -1.6137  0.1774  0.9629
18332TIP3    H276488   6.009   5.894  17.340  0.6763  0.1463 -2.0068
18333TIP3   OH276489   5.515   0.010   2.052  0.2668  0.0616  0.0778
18333TIP3    H176490   5.486   0.099   2.073 -0.0833 -0.4250  1.7145
18333TIP3    H276491   5.601   0.003   2.094  0.5511 -0.1982 -0.5340
18334TIP3   OH276492   6.773   5.416   5.990  0.4568  0.5107 -0.1554
18334TIP3    H176493   6.694   5.443   6.036 -0.0154 -1.1389  0.0782
18334TIP3    H276494   6.742   5.360   5.919  1.4154 -0.7403  0.3670
18335TIP3   OH276495   5.569   3.383   2.961 -0.0499 -0.5501 -0.0943
18335TIP3    H176496   5.534   3.472   2.954  1.1843  0.0304  0.6678
18335TIP3    H276497   5.655   3.388   2.919 -0.2094 -1.5377 -0.5533
18336TIP3   OH276498   6.725   1.548  12.098 -0.0390  0.2802 -0.1365
18336TIP3    H176499   6.789   1.595  12.152 -0.2367  1.0409 -0.5578
18336TIP3    H276500   6.775   1.522  12.020  0.3709 -1.2258  0.5898
18337TIP3   OH276501   5.687   5.168  11.319 -0.0278  0.1715 -0.1767
18337TIP3    H176502   5.641   5.209  11.245 -0.8642  0.5835  0.5508
18337TIP3    H276503   5.621   5.162  11.388  1.0358  0.8619  0.9418
18338TIP3   OH276504   4.399   1.808  14.124 -0.1273  0.3615 -0.8339
18338TIP3    H176505   4.392   1.900  14.147  2.0572  0.4378 -0.2336
18338TIP3    H276506   4.449   1.807  14.042  1.0914 -0.3081 -0.1124
18339TIP3   OH276507   5.267   5.294   2.994  0.8042  0.3158  0.1021
18339TIP3    H176508   5.288   5.200   3.000 -0.7582 -0.0778 -0.1940
18339TIP3    H276509   5.305   5.321   2.910  0.3769 -0.3040 -0.2976
18340TIP3   OH276510   5.090   0.103   2.348  0.8321 -0.7749  0.0688
18340TIP3    H176511   5.024   0.166   2.375  1.1464 -0.3480 -0.1483
18340TIP3    H276512   5.144   0.089   2.426  1.2837 -0.1138 -0.1139
18341TIP3   OH276513   4.920   1.278   0.555  0.0892 -0.0153  0.1970
18341TIP3    H176514   4.891   1.202   0.605 -0.1990 -0.3054 -0.3934
18341TIP3    H276515   4.978   1.242   0.488  2.9920  0.6813  2.1523
18342TIP3   OH276516   6.208   6.311  12.441  0.0275 -0.0273  0.3607
18342TIP3    H176517   6.136   6.373  12.458 -2.7630 -3.0537  0.5031
18342TIP3    H276518   6.200   6.290  12.348  0.0418 -1.1515  0.5974
18343TIP3   OH276519   2.668   0.256  11.349  0.6495  0.2129  0.1895
18343TIP3    H176520   2.597   0.273  11.286 -0.6417 -2.2187  0.8539
18343TIP3    H276521   2.706   0.342  11.366 -1.3646  1.4525 -1.1201
18344TIP3   OH276522   3.338   2.381   0.976 -0.4418  0.3752 -0.5048
18344TIP3    H176523   3.245   2.382   0.998 -0.2901  0.0657  0.1866
18344TIP3    H276524   3.382   2.392   1.060  0.1522  0.2400 -0.7955
18345TIP3   OH276525   3.489   4.396  11.375 -0.1092 -0.2514 -0.1309
18345TIP3    H176526   3.500   4.469  11.313  0.7281 -0.3859 -0.1527
18345TIP3    H276527   3.536   4.425  11.453 -0.8233 -0.2544  0.3101
18346TIP3   OH276528   6.442   5.445  13.177  0.3059 -0.5655 -0.0289
18346TIP3    H176529   6.451   5.443  13.273 -0.9781  1.2183  0.1948
18346TIP3    H276530   6.518   5.495  13.147 -0.4592  0.8883  0.3319
18347TIP3   OH276531   6.584   1.322  13.006  0.3816  0.1549 -0.4021
18347TIP3    H176532   6.601   1.413  13.032  1.7408 -0.1807 -0.0450
18347TIP3    H276533   6.616   1.270  13.079 -1.6984 -0.6024  0.0541
18348TIP3   OH276534   3.206   1.427  13.396 -0.1276  0.0603  0.2419
18348TIP3    H176535   3.246   1.443  13.310 -0.6744  1.3593  0.2035
18348TIP3    H276536   3.136   1.364  13.378  0.3297 -0.3531 -0.1101
18349TIP3   OH276537   0.496   1.640  11.017  0.1863  0.4970  0.2384
18349TIP3    H176538   0.487   1.625  11.111  0.2398 -0.3229  0.1219
18349TIP3    H276539   0.583   1.679  11.007 -0.7637  2.9559  0.7613
18350TIP3   OH276540   4.253   2.042   6.092 -0.2677  0.2408  0.1594
18350TIP3    H176541   4.181   2.051   6.155 -0.1152 -0.1761  0.4031
18350TIP3    H276542   4.298   2.126   6.093 -0.8544  0.5597 -0.1213
18351TIP3   OH276543   5.494   2.355   4.223  0.2705 -0.5469  0.1889
18351TIP3    H176544   5.525   2.356   4.132 -1.1104  0.3760 -0.3021
18351TIP3    H276545   5.424   2.290   4.224  0.2383 -0.5092  0.5678
18352TIP3   OH276546   4.240   0.369  13.145 -0.4306 -0.1179 -0.1736
18352TIP3    H176547   4.195   0.374  13.230 -1.1545  0.7595 -0.5881
18352TIP3    H276548   4.313   0.430  13.153  0.4050 -1.1582  0.3210
18353TIP3   OH276549   2.318   5.513  11.063  0.2864  0.4120  0.2989
18353TIP3    H176550   2.309   5.602  11.027 -0.1848 -0.7267 -2.7420
18353TIP3    H276551   2.385   5.521  11.130  2.3447  2.6228 -1.7945
18354TIP3   OH276552   5.584   4.235   5.311  0.6139 -0.3265 -0.4551
18354TIP3    H176553   5.579   4.209   5.218 -2.4865 -1.8255 -0.0116
18354TIP3    H276554   5.599   4.152   5.357  0.9424  0.2386  0.4628
18355TIP3   OH276555   4.058   0.135  12.250 -0.0364 -0.5125  0.0789
18355TIP3    H176556   4.130   0.088  12.208  0.9109 -0.5322  1.6587
18355TIP3    H276557   4.083   0.227  12.243 -0.9377 -0.3286 -1.2562
18356TIP3   OH276558   6.527   1.521  15.672 -0.3309  0.0155 -0.2129
18356TIP3    H176559   6.539   1.485  15.584  0.9662  0.6448 -0.3097
18356TIP3    H276560   6.444   1.569  15.667  0.4893  1.3738 -1.5623
18357TIP3   OH276561   4.003   6.222  15.463 -0.3304 -0.2314 -0.0332
18357TIP3    H176562   4.051   6.297  15.496 -0.8391  0.2808 -0.4476
18357TIP3    H276563   3.913   6.236  15.490 -0.7209  0.0894 -1.4182
18358TIP3   OH276564   6.659   3.316  16.349  0.0430  0.3224 -0.5848
18358TIP3    H176565   6.587   3.286  16.405 -0.1659  1.3366 -0.2990
18358TIP3    H276566   6.689   3.397  16.389  2.1594 -0.6746 -0.0051
18359TIP3   OH276567   3.162   1.985   0.534 -0.3327 -0.0197 -0.0267
18359TIP3    H176568   3.164   2.071   0.575  0.4467 -0.2033  0.3549
18359TIP3    H276569   3.217   1.994   0.456  0.4799 -0.3845  0.4877
18360TIP3   OH276570   2.511   4.069  17.210  0.0847 -0.0435  0.8491
18360TIP3    H176571   2.456   4.142  17.183  0.9413 -0.2179 -1.5792
18360TIP3    H276572   2.493   4.000  17.147  0.3228 -1.4745  2.2707
18361TIP3   OH276573   1.180   3.513   1.140  0.0812  0.4006  0.6528
18361TIP3    H176574   1.267   3.477   1.121 -0.2378 -0.1879  0.3112
18361TIP3    H276575   1.126   3.487   1.065 -0.2204  1.3696  0.5130
18362TIP3   OH276576   0.011   2.411  13.760 -0.2142  0.0050 -0.2611
18362TIP3    H176577  -0.075   2.406  13.717  0.0345  0.7788 -0.8702
18362TIP3    H276578  -0.009   2.434  13.851 -0.6105  1.0391 -0.5999
18363TIP3   OH276579   3.483   4.672   1.409 -0.4852 -0.0166 -0.1429
18363TIP3    H176580   3.464   4.622   1.330 -0.6504 -0.4226  0.1489
18363TIP3    H276581   3.510   4.758   1.377 -0.4612 -0.2048 -0.6421
18364TIP3   OH276582   1.430   3.855   3.336  0.3219 -0.8237  0.3230
18364TIP3    H176583   1.510   3.815   3.302  0.8344  0.6343 -0.2882
18364TIP3    H276584   1.455   3.945   3.356 -1.1811 -0.3290  0.1108
18365TIP3   OH276585   3.521   1.911   0.730  0.2770  0.4340  0.1650
18365TIP3    H176586   3.488   1.926   0.642 -0.2906  1.3772  0.5182
18365TIP3    H276587   3.573   1.831   0.723  1.1911  1.1077 -1.2640
18366TIP3   OH276588   2.451   0.523   5.710  0.0917  0.3420  0.2663
18366TIP3    H176589   2.527   0.556   5.759  0.3214  0.4297 -0.1406
18366TIP3    H276590   2.476   0.435   5.684 -1.3164 -1.0318  3.0943
18367TIP3   OH276591   2.646   5.425  14.845  1.0966 -0.0871 -0.3600
18367TIP3    H176592   2.635   5.381  14.930  0.1175 -0.4614 -0.6618
18367TIP3    H276593   2.704   5.499  14.863  1.8876 -0.8714  0.3846
18368TIP3   OH276594   5.588   1.424   2.334  0.8199 -0.2973  0.3235
18368TIP3    H176595   5.632   1.494   2.285 -1.7284  0.6880 -0.7422
18368TIP3    H276596   5.515   1.398   2.277 -0.9065 -0.7250  2.5987
18369TIP3   OH276597   3.105   5.445   1.140  0.5813 -0.6723 -0.0989
18369TIP3    H176598   3.160   5.377   1.101  0.0687 -1.6021  0.7346
18369TIP3    H276599   3.058   5.400   1.211  0.9135  0.7641  1.0860
18370TIP3   OH276600   0.669   4.299  14.293  0.0697 -0.5296  0.0134
18370TIP3    H176601   0.759   4.332  14.287 -0.0254 -0.5612 -1.9027
18370TIP3    H276602   0.675   4.207  14.270 -0.3805 -0.6950  0.5243
18371TIP3   OH276603   0.592   3.302  16.946  0.8961 -0.3735  0.0479
18371TIP3    H176604   0.507   3.284  16.986  0.4287  1.0734 -0.2595
18371TIP3    H276605   0.576   3.293  16.852  1.2860 -0.8805  0.0265
18372TIP3   OH276606   5.663   4.647   2.404 -0.1296  0.2225  0.0632
18372TIP3    H176607   5.667   4.669   2.311  0.1606 -0.9547 -0.2280
18372TIP3    H276608   5.742   4.685   2.442 -1.2157  2.4355  0.2648
18373TIP3   OH276609   0.875   5.845  15.737  0.0315  0.5994 -0.1778
18373TIP3    H176610   0.916   5.810  15.816 -0.7633  0.8107  0.3361
18373TIP3    H276611   0.933   5.816  15.666  0.0059 -0.7966  0.3336
18374TIP3   OH276612   3.871   4.474  11.658  0.6675  0.4325  0.7303
18374TIP3    H176613   3.800   4.522  11.701  0.4359  0.2441  0.5539
18374TIP3    H276614   3.902   4.412  11.725 -1.2102 -1.4876 -0.0622
18375TIP3   OH276615   2.317   3.441  17.022  0.3077  0.2084  0.3974
18375TIP3    H176616   2.371   3.394  16.958  0.8086  0.0149  0.9567
18375TIP3    H276617   2.229   3.405  17.009  0.5950 -0.5522  0.4987
18376TIP3   OH276618   6.260   0.272  11.954 -0.1437 -0.0261 -0.7239
18376TIP3    H176619   6.246   0.192  11.902  1.1019 -0.5875 -0.2250
18376TIP3    H276620   6.208   0.257  12.033  2.1400 -1.5921  0.5963
18377TIP3   OH276621   6.491   0.004   4.492  0.5747  0.2231  0.2273
18377TIP3    H176622   6.435   0.017   4.568  1.2950 -2.0635  1.2169
18377TIP3    H276623   6.432   0.010   4.417 -0.4318  0.8475  1.0396
18378TIP3   OH276624   3.348   3.999   3.511 -0.3478 -0.3032  0.0621
18378TIP3    H176625   3.285   4.054   3.557 -0.3012 -0.5468  0.4309
18378TIP3    H276626   3.297   3.956   3.443 -0.2938  0.5161 -0.5085
18379TIP3   OH276627   1.861   4.781  12.237 -0.5631 -0.1248 -0.7474
18379TIP3    H176628   1.930   4.724  12.271  0.3244  1.4023  0.1077
18379TIP3    H276629   1.868   4.861  12.289 -3.0909  0.0346 -0.5555
18380TIP3   OH276630   2.300   4.814  13.877 -0.0678  0.3186  0.0832
18380TIP3    H176631   2.212   4.807  13.915  0.3196 -1.6740  0.7266
18380TIP3    H276632   2.335   4.725  13.880  0.5627  0.2690 -3.6752
18381TIP3   OH276633   1.059   0.486   5.008  0.1253  0.2629  0.0018
18381TIP3    H176634   1.010   0.427   4.950 -0.1293  1.0850 -0.6454
18381TIP3    H276635   1.055   0.571   4.964 -0.3754  1.0038  1.3999
18382TIP3   OH276636   3.169   3.922   5.216 -0.6168 -0.5777 -0.6771
18382TIP3    H176637   3.181   3.929   5.310 -1.1254  0.3506 -0.6685
18382TIP3    H276638   3.084   3.963   5.199 -1.5079 -2.5404 -1.2997
18383TIP3   OH276639   1.742   3.042   5.988 -0.3580 -0.4457 -0.1639
18383TIP3    H176640   1.655   3.017   6.019 -0.3314 -0.8747 -0.4262
18383TIP3    H276641   1.782   3.087   6.062 -0.2380 -1.5782  0.4791
18384TIP3   OH276642   3.213   2.452   3.127 -0.3468  0.4945 -0.1490
18384TIP3    H176643   3.227   2.499   3.209 -1.4172 -0.9928  0.9247
18384TIP3    H276644   3.148   2.504   3.080  1.4214  2.2131 -0.8391
18385TIP3   OH276645   4.889   3.797  12.481 -0.1198  0.1392  0.2993
18385TIP3    H176646   4.955   3.865  12.473  1.0719 -0.5360  3.1023
18385TIP3    H276647   4.806   3.841  12.463  0.8715  1.4966 -1.1722
18386TIP3   OH276648   6.372   1.950  11.157  0.2054  0.3024 -0.2378
18386TIP3    H176649   6.325   1.998  11.089  0.7839  1.0565 -0.1167
18386TIP3    H276650   6.401   1.869  11.114 -0.5087  0.2012 -0.5320
18387TIP3   OH276651   0.872   5.441   5.454 -0.4323  0.3464 -0.2433
18387TIP3    H176652   0.786   5.438   5.497 -1.2967 -2.0234 -1.9466
18387TIP3    H276653   0.923   5.374   5.499  0.7460  1.9813  0.9973
18388TIP3   OH276654   0.185   4.935  12.227  0.6516 -0.1958 -0.7229
18388TIP3    H176655   0.112   4.934  12.165  0.3086 -3.4871 -0.4352
18388TIP3    H276656   0.254   4.982  12.181 -1.3126  2.4127 -1.2887
18389TIP3   OH276657   4.223   3.632   0.950  0.0353  0.1061 -0.4503
18389TIP3    H176658   4.234   3.626   0.855  0.6489 -0.1504 -0.3654
18389TIP3    H276659   4.152   3.571   0.970 -1.4514  1.6067 -0.9797
18390TIP3   OH276660   3.079   2.486   5.212 -0.6286 -0.0634  0.1527
18390TIP3    H176661   3.023   2.533   5.150 -3.0996 -2.1191  0.6891
18390TIP3    H276662   3.148   2.448   5.158 -2.3490 -1.2509 -1.3029
18391TIP3   OH276663   5.669   2.365  15.429  0.5144 -0.0422  1.0509
18391TIP3    H176664   5.713   2.280  15.423 -1.0462 -0.7982 -1.8768
18391TIP3    H276665   5.602   2.353  15.496  1.0780 -0.7454  1.4979
18392TIP3   OH276666   4.641   0.015  14.254  0.3544 -0.7243 -0.4549
18392TIP3    H176667   4.588   0.091  14.278  0.0113 -0.6125 -1.5284
18392TIP3    H276668   4.728   0.034  14.291  0.1341 -0.0622 -0.2590
18393TIP3   OH276669   6.183   6.275   6.114 -0.2209 -0.3036  0.1662
18393TIP3    H176670   6.115   6.315   6.168  0.9018  0.7738  0.8523
18393TIP3    H276671   6.185   6.183   6.142 -0.1827  0.0582  1.4487
18394TIP3   OH276672   3.291   0.248  16.334  0.7729  0.6172  0.8497
18394TIP3    H176673   3.198   0.255  16.310  1.3680  1.9824 -1.3249
18394TIP3    H276674   3.290   0.210  16.422 -1.7766 -0.8477  0.2888
18395TIP3   OH276675   1.346   4.439  17.145 -0.9847 -0.0538 -0.0271
18395TIP3    H176676   1.296   4.516  17.169 -0.5376 -0.0487  0.9182
18395TIP3    H276677   1.414   4.432  17.212 -0.7818 -1.0442 -0.3167
18396TIP3   OH276678   0.341   6.609   2.145 -0.1675 -0.5380  0.1063
18396TIP3    H176679   0.352   6.657   2.063 -1.0972 -0.6905 -0.1223
18396TIP3    H276680   0.395   6.656   2.208 -2.2530  1.8663  0.2980
18397TIP3   OH276681   3.826   1.531   2.811  0.3723  0.6713 -0.7516
18397TIP3    H176682   3.821   1.436   2.805  1.0429  0.5246  0.8124
18397TIP3    H276683   3.873   1.549   2.892 -2.3548  2.3624  0.6001
18398TIP3   OH276684   6.622   0.459  15.903  0.2512 -0.0254  0.4421
18398TIP3    H176685   6.546   0.497  15.947  0.0236 -0.2547  0.2498
18398TIP3    H276686   6.665   0.533  15.861 -0.2818  0.0014 -0.0684
18399TIP3   OH276687   3.831   0.808  14.950 -0.3920  0.2210 -0.4766
18399TIP3    H176688   3.799   0.889  14.990  1.0619  0.8694 -0.5275
18399TIP3    H276689   3.925   0.808  14.970 -0.5330 -2.0252  0.4554
18400TIP3   OH276690   4.721   1.529  13.993  0.2340 -0.1126  0.0541
18400TIP3    H176691   4.773   1.496  13.920 -0.1951  0.8149 -0.6906
18400TIP3    H276692   4.696   1.451  14.042  1.5690 -0.6443 -0.0726
18401TIP3   OH276693   1.628   3.252   5.785  0.1191  0.2901 -0.2023
18401TIP3    H176694   1.631   3.338   5.828  1.5259  0.7494 -1.1665
18401TIP3    H276695   1.666   3.192   5.848  1.8181  0.8969 -0.5846
18402TIP3   OH276696   0.722   2.222  16.718 -0.1169  0.0388  0.5216
18402TIP3    H176697   0.780   2.192  16.789 -1.4282 -0.9396  1.2172
18402TIP3    H276698   0.718   2.148  16.658 -0.5937  0.1261  0.4457
18403TIP3   OH276699   4.341   5.411   2.277 -0.5091  0.1042 -0.1395
18403TIP3    H176700   4.327   5.374   2.190 -0.1288 -1.0131  0.2612
18403TIP3    H276701   4.261   5.461   2.295  0.0886  1.7553 -1.7958
18404TIP3   OH276702   2.469   5.762   1.265  0.2665  0.1673  0.6597
18404TIP3    H176703   2.520   5.683   1.279 -0.9693 -0.2833  3.0098
18404TIP3    H276704   2.434   5.752   1.176  1.3663 -1.1513  0.3394
18405TIP3   OH276705   5.723   2.933  15.253  0.5469  0.0123  0.3059
18405TIP3    H176706   5.716   2.840  15.274  1.0361 -0.6372 -2.0431
18405TIP3    H276707   5.815   2.954  15.268  0.6074 -0.1051  0.1087
18406TIP3   OH276708   6.633   6.437  13.922 -0.4808  0.0156 -0.3547
18406TIP3    H176709   6.586   6.355  13.908 -2.2638  1.0322 -0.7856
18406TIP3    H276710   6.675   6.456  13.838 -0.7375 -0.0705 -0.5036
18407TIP3   OH276711   2.114   1.644   1.825  0.0669  0.1412 -0.8291
18407TIP3    H176712   2.189   1.584   1.823 -0.6472 -0.7434 -2.1091
18407TIP3    H276713   2.152   1.727   1.855  1.5290 -0.3183 -1.3044
18408TIP3   OH276714   2.248   3.785  17.209  0.2961 -0.3762  0.6172
18408TIP3    H176715   2.341   3.805  17.197  0.4412 -1.3409  0.0255
18408TIP3    H276716   2.203   3.841  17.147  0.5805 -0.7326  0.0796
18409TIP3   OH276717   5.378   2.721   3.014 -0.4183 -0.0386 -0.3586
18409TIP3    H176718   5.411   2.634   3.040  0.0040  0.6460  1.6023
18409TIP3    H276719   5.293   2.727   3.057 -0.5087  0.4528 -0.6093
18410TIP3   OH276720   2.693   2.871   1.094  0.2829 -0.1039 -0.7648
18410TIP3    H176721   2.723   2.783   1.069  2.2322  0.6450 -1.1786
18410TIP3    H276722   2.653   2.906   1.014  0.1108 -0.3512 -0.7887
18411TIP3   OH276723   3.880   4.461   4.451  0.1139  0.4023 -0.0080
18411TIP3    H176724   3.855   4.477   4.542  3.2217  0.5777  0.9531
18411TIP3    H276725   3.843   4.536   4.403 -1.1490  0.5784  1.1799
18412TIP3   OH276726   3.828   3.479  15.806  0.6603  0.2283 -0.3660
18412TIP3    H176727   3.857   3.471  15.897 -1.1003  0.3911  0.2474
18412TIP3    H276728   3.823   3.388  15.775 -1.3951 -0.0631  0.6319
18413TIP3   OH276729   3.330   5.482   0.400  0.2758  0.1489 -0.2067
18413TIP3    H176730   3.340   5.391   0.370  0.7482 -0.0590  0.5617
18413TIP3    H276731   3.375   5.484   0.484 -1.3320  0.6276  0.6838
18414TIP3   OH276732   0.331   6.685  15.755 -0.1377  0.1256 -0.5748
18414TIP3    H176733   0.367   6.708  15.840 -0.4246 -0.8535 -0.1670
18414TIP3    H276734   0.238   6.667  15.772  0.0156 -1.0580 -0.8907
18415TIP3   OH276735   1.620   3.656   0.812 -0.0071 -0.3736  0.8179
18415TIP3    H176736   1.716   3.663   0.814  0.0348 -0.8043  0.3305
18415TIP3    H276737   1.601   3.568   0.845 -0.2141 -0.4626  0.4621
18416TIP3   OH276738   1.472   5.468  13.231 -0.1750 -0.0754  0.8603
18416TIP3    H176739   1.516   5.383  13.238  0.3850 -0.1325 -2.0608
18416TIP3    H276740   1.383   5.446  13.203  0.2066  0.2621 -0.7235
18417TIP3   OH276741   5.052   1.670   4.456  0.1608  0.1755 -0.3104
18417TIP3    H176742   5.014   1.739   4.402 -0.3131  0.8512  0.8360
18417TIP3    H276743   4.990   1.660   4.529  0.8200 -0.6366  0.1551
18418TIP3   OH276744   4.951   1.204  16.262 -0.4048 -0.3710  0.2874
18418TIP3    H176745   4.968   1.298  16.254 -1.3025 -0.3780 -3.2551
18418TIP3    H276746   4.981   1.167  16.180  0.1363 -3.2974  1.6835
18419TIP3   OH276747   1.382   5.019   1.957  0.3661 -0.0655 -0.0135
18419TIP3    H176748   1.470   5.056   1.965  1.3442 -1.9231 -1.3739
18419TIP3    H276749   1.375   4.994   1.865 -0.6085 -2.2260  0.5823
18420TIP3   OH276750   4.283   1.675   2.437 -0.0818 -0.8068 -0.7633
18420TIP3    H176751   4.258   1.693   2.528 -1.9073  0.2294 -1.4286
18420TIP3    H276752   4.377   1.655   2.442 -0.4821 -2.6451  1.5965
18421TIP3   OH276753   4.614   6.302   4.897 -0.6020 -0.7236  0.0112
18421TIP3    H176754   4.587   6.272   4.984 -0.0674 -0.9435  0.1045
18421TIP3    H276755   4.681   6.368   4.914 -2.3569  1.2185 -0.1558
18422TIP3   OH276756   2.771   3.861   3.950 -0.0027 -0.1536 -0.2717
18422TIP3    H176757   2.692   3.812   3.928 -0.7268  1.1324 -0.6422
18422TIP3    H276758   2.753   3.899   4.036  0.1391  0.2836 -0.4318
18423TIP3   OH276759   0.434   0.963  13.946  0.3738  0.1777  0.0199
18423TIP3    H176760   0.390   1.014  13.878 -0.1649 -1.7277 -1.1216
18423TIP3    H276761   0.442   0.875  13.910  2.1228 -0.3622  1.5488
18424TIP3   OH276762   4.740   4.220  16.988 -0.1815  0.4351 -0.0907
18424TIP3    H176763   4.656   4.223  16.942  0.4352  2.3749 -1.1951
18424TIP3    H276764   4.769   4.311  16.992  2.2496 -0.2469 -0.4562
18425TIP3   OH276765   0.061   3.566   3.587 -0.1379  0.6689 -0.0924
18425TIP3    H176766   0.128   3.529   3.644  0.6711  0.0720 -1.3916
18425TIP3    H276767   0.015   3.629   3.642  0.8683  0.3925  1.0991
18426TIP3   OH276768   1.808   4.456  12.950  0.4477 -0.0517 -0.1429
18426TIP3    H176769   1.719   4.467  12.918  1.2963  0.0180 -2.6682
18426TIP3    H276770   1.813   4.364  12.976 -0.5763  0.1587  0.9002
18427TIP3   OH276771   5.052   0.827  15.250  1.5851  0.1615  0.1855
18427TIP3    H176772   4.995   0.893  15.211  0.8889 -0.4123  0.2023
18427TIP3    H276773   5.017   0.814  15.339  0.5725 -1.5077 -0.4037
18428TIP3   OH276774   1.809   4.383   2.165 -0.0952  0.7024  0.9568
18428TIP3    H176775   1.863   4.372   2.087  0.3931 -0.0445  1.3900
18428TIP3    H276776   1.777   4.295   2.186  0.4179  0.7604  2.0477
18429TIP3   OH276777   2.508   1.323  12.748 -0.1257  0.0418 -0.0501
18429TIP3    H176778   2.450   1.273  12.691 -1.4927  0.7284  0.6992
18429TIP3    H276779   2.464   1.324  12.833  1.0815  0.4154  0.5951
18430TIP3   OH276780   4.279   3.347  16.878 -0.4827  0.3897 -0.0715
18430TIP3    H176781   4.254   3.357  16.786 -0.9824  0.5907  0.0798
18430TIP3    H276782   4.353   3.407  16.890  1.8434 -2.0615 -1.1567
18431TIP3   OH276783   0.930   2.884  15.873  0.2276 -0.1559 -0.2963
18431TIP3    H176784   0.945   2.790  15.879  0.9995 -0.0521 -0.4784
18431TIP3    H276785   0.840   2.896  15.902  0.6331 -0.7695  1.3833
18432TIP3   OH276786   5.083   3.717   0.843 -0.4290  0.1477  0.0074
18432TIP3    H176787   5.060   3.771   0.767  0.7966  1.1170  0.2954
18432TIP3    H276788   4.999   3.692   0.881 -1.0773 -0.9455 -2.0559
18433TIP3   OH276789   1.331   3.996  16.810 -0.3140 -0.6630  0.2007
18433TIP3    H176790   1.356   3.934  16.878 -1.9589  0.9165  2.3848
18433TIP3    H276791   1.308   4.076  16.857 -0.4964  0.8818 -2.3122
18434TIP3   OH276792   1.916   0.718   5.722 -0.0167  0.3284 -0.0347
18434TIP3    H176793   1.869   0.647   5.766 -0.8987  1.0131  0.1717
18434TIP3    H276794   1.966   0.675   5.653 -0.4500 -0.5050  0.1560
18435TIP3   OH276795   1.754   0.389   3.175  0.1942  0.0942 -0.3138
18435TIP3    H176796   1.664   0.374   3.145 -0.8443  0.1234  2.4272
18435TIP3    H276797   1.747   0.465   3.233  2.1825  0.6575 -0.7533
18436TIP3   OH276798   1.412   3.714  12.783 -0.2672  0.2192  0.5071
18436TIP3    H176799   1.359   3.710  12.703  0.2624  0.5280  0.1393
18436TIP3    H276800   1.440   3.624  12.797  1.6001  0.5069 -0.9970
18437TIP3   OH276801   2.240   2.712   3.884 -0.1997  0.8413 -0.3467
18437TIP3    H176802   2.159   2.731   3.932  0.4161 -0.2082  1.1816
18437TIP3    H276803   2.216   2.642   3.824 -0.5996  1.0836 -0.4790
18438TIP3   OH276804   4.372   3.998  15.921  0.2089  0.3844  0.4986
18438TIP3    H176805   4.285   3.966  15.944  0.3708 -0.1884  0.3134
18438TIP3    H276806   4.416   4.011  16.006 -0.5425  2.0920  0.6653
18439TIP3   OH276807   6.163   4.454   1.500  0.2118  0.5592 -0.0224
18439TIP3    H176808   6.131   4.495   1.420 -2.2172  1.3722  1.2665
18439TIP3    H276809   6.213   4.523   1.544 -2.2410  1.6917  1.2094
18440TIP3   OH276810   1.268   4.815   2.609  0.2328 -0.4130  0.1890
18440TIP3    H176811   1.295   4.816   2.517 -1.2201  0.6052 -0.2717
18440TIP3    H276812   1.348   4.829   2.658  0.9971 -0.6987 -0.9344
18441TIP3   OH276813   3.332   3.751  14.516 -0.6379 -0.0315 -0.1475
18441TIP3    H176814   3.395   3.799  14.571  1.5867 -2.3789 -0.4811
18441TIP3    H276815   3.326   3.803  14.436  2.7884 -0.8012 -1.0709
18442TIP3   OH276816   5.869   2.585  11.439 -1.2366  0.1454 -0.0209
18442TIP3    H176817   5.867   2.585  11.343 -0.3392  1.9966 -0.0880
18442TIP3    H276818   5.960   2.604  11.461 -1.4318 -0.2653  1.2105
18443TIP3   OH276819   2.155   2.481  12.762 -0.0387  0.4192  0.9520
18443TIP3    H176820   2.177   2.551  12.824  0.7854  0.9995  0.0247
18443TIP3    H276821   2.165   2.401  12.813  3.3190  0.6863  0.9440
18444TIP3   OH276822   4.094   5.169   6.078 -0.2043 -0.1244 -0.2114
18444TIP3    H176823   4.153   5.245   6.076 -0.7213  0.3128  0.3324
18444TIP3    H276824   4.050   5.176   6.163  0.2679 -1.4549  0.1656
18445TIP3   OH276825   1.308   6.747  13.886 -0.2949  0.1915 -0.0011
18445TIP3    H176826   1.382   6.697  13.852 -0.7835 -2.3248  2.2998
18445TIP3    H276827   1.232   6.712  13.839 -0.7217 -1.9059  2.0628
18446TIP3   OH276828   4.693   3.154   2.798  0.2976  0.1889  0.3638
18446TIP3    H176829   4.655   3.145   2.885 -1.8445 -0.6453 -0.6087
18446TIP3    H276830   4.662   3.239   2.767  0.2641  0.0581  0.0407
18447TIP3   OH276831   6.508   3.553   3.330  0.1476  0.2751 -0.2463
18447TIP3    H176832   6.513   3.550   3.425  0.2897 -0.7459 -0.2756
18447TIP3    H276833   6.531   3.643   3.307  2.0782  0.0310  0.5688
18448TIP3   OH276834   1.132   6.332   4.174 -0.0672  0.0327  0.0204
18448TIP3    H176835   1.205   6.304   4.119 -0.3394  1.1191 -0.9258
18448TIP3    H276836   1.151   6.423   4.196 -1.1249  0.3403 -0.2495
18449TIP3   OH276837   4.472   1.215   0.605 -0.7187  0.0003  0.2093
18449TIP3    H176838   4.458   1.293   0.552  1.3459  2.0479  2.4614
18449TIP3    H276839   4.546   1.236   0.661 -0.0704 -3.5969  0.9937
18450TIP3   OH276840   4.507   5.120   3.789 -0.1623 -0.6592  0.5341
18450TIP3    H176841   4.414   5.106   3.769 -0.3788  0.5040  0.6826
18450TIP3    H276842   4.532   5.043   3.840 -1.1042 -0.8672  0.7019
18451TIP3   OH276843   1.688   3.949   5.469  0.2036  0.7737 -0.1236
18451TIP3    H176844   1.770   3.954   5.518  1.6576 -0.6346 -2.2340
18451TIP3    H276845   1.712   3.907   5.387 -3.0864 -2.0816  0.1491
18452TIP3   OH276846   5.185   4.826  12.445 -0.1995  0.6548  0.1367
18452TIP3    H176847   5.204   4.750  12.500 -1.4680  0.2181 -0.0061
18452TIP3    H276848   5.180   4.899  12.507 -2.3300  0.0546  0.7562
18453TIP3   OH276849   0.285   2.411   4.830  0.0378  0.7695 -0.0007
18453TIP3    H176850   0.254   2.323   4.809  3.3147 -0.5161  0.0273
18453TIP3    H276851   0.258   2.425   4.921  0.9372 -0.9514  0.5749
18454TIP3   OH276852   0.387   1.121  11.357  0.5720 -0.2555  0.6237
18454TIP3    H176853   0.465   1.126  11.412  1.1461  1.5747 -0.2521
18454TIP3    H276854   0.407   1.178  11.283 -1.3978 -0.1752  0.0973
18455TIP3   OH276855   0.601   3.583  17.208 -0.3585 -0.8904 -0.2507
18455TIP3    H176856   0.613   3.635  17.129 -1.8556  0.4711  0.3501
18455TIP3    H276857   0.676   3.605  17.263  0.6976 -1.8602 -1.2746
18456TIP3   OH276858   1.951   1.528   2.050 -0.1817  0.7794  0.0969
18456TIP3    H176859   1.875   1.579   2.023 -0.3351  1.0077  0.9320
18456TIP3    H276860   2.008   1.527   1.972 -1.1829  0.3020 -0.6450
18457TIP3   OH276861   5.515   0.119  11.749  0.3521 -0.1330 -0.0689
18457TIP3    H176862   5.439   0.170  11.777  0.7160  1.8368 -2.3319
18457TIP3    H276863   5.590   0.174  11.771  0.9033 -0.5883 -0.7602
18458TIP3   OH276864   5.708   4.726  15.180 -0.0588  0.5561  0.4656
18458TIP3    H176865   5.690   4.637  15.148 -1.8581  0.9166  0.3415
18458TIP3    H276866   5.737   4.714  15.270  2.5689 -0.3163 -0.4231
18459TIP3   OH276867   0.196   1.308  13.142 -0.2293  0.5844  0.9087
18459TIP3    H176868   0.203   1.401  13.164 -1.4390  1.0254 -0.3749
18459TIP3    H276869   0.148   1.270  13.216 -2.5918  1.6603  0.0551
18460TIP3   OH276870   4.917   0.497  15.286  0.7275  0.4976  0.2040
18460TIP3    H176871   4.970   0.558  15.235  0.8080 -0.1484 -0.4874
18460TIP3    H276872   4.974   0.423  15.303  0.8933  0.9511  1.7479
18461TIP3   OH276873   0.591   0.035  12.375  0.5218 -0.3464  0.8048
18461TIP3    H176874   0.534   0.105  12.407  1.5781  1.3811 -0.8957
18461TIP3    H276875   0.549  -0.046  12.406 -1.5148  0.9434  1.6308
18462TIP3   OH276876   4.464   1.722   2.940 -0.1691  0.1454  0.3177
18462TIP3    H176877   4.518   1.754   2.867  0.7736  1.2818  1.4509
18462TIP3    H276878   4.384   1.689   2.899  1.2855 -1.4617 -1.4310
18463TIP3   OH276879   2.894   0.557  11.644 -0.3184  0.0763 -0.3883
18463TIP3    H176880   2.826   0.492  11.627 -0.5161 -0.2474  1.4008
18463TIP3    H276881   2.974   0.518  11.608 -0.6814 -0.5751 -0.5095
18464TIP3   OH276882   4.084   3.903  13.448  0.2805 -0.0319 -0.0329
18464TIP3    H176883   4.104   3.996  13.439  1.5946 -0.3003 -0.1059
18464TIP3    H276884   4.017   3.886  13.382  0.0264  0.8603 -0.0104
18465TIP3   OH276885   5.490   0.141   1.539 -0.0814 -0.1093  0.0193
18465TIP3    H176886   5.509   0.188   1.458 -0.2336  0.5053  0.3279
18465TIP3    H276887   5.546   0.064   1.536  0.9246  0.5965 -0.0425
18466TIP3   OH276888   3.753   6.514  11.886 -0.7180  0.4391  0.1546
18466TIP3    H176889   3.689   6.524  11.957 -0.2226  1.3974  0.4799
18466TIP3    H276890   3.783   6.603  11.867 -0.0463  0.0842 -0.5213
18467TIP3   OH276891   2.275   6.746   4.664  0.1697 -0.5429  0.2949
18467TIP3    H176892   2.292   6.760   4.757 -2.3142 -2.8708  1.2298
18467TIP3    H276893   2.352   6.783   4.620  1.3192  0.8661  3.2073
18468TIP3   OH276894   5.919   6.576   1.736 -0.4441  0.0980 -0.0812
18468TIP3    H176895   5.827   6.555   1.724 -0.8896  0.6115  1.9497
18468TIP3    H276896   5.920   6.671   1.750  0.4085  0.1167 -0.2249
18469TIP3   OH276897   2.981   3.776  10.930 -0.4199  0.1180  0.4695
18469TIP3    H176898   3.033   3.857  10.927  0.5363 -0.4966 -0.7460
18469TIP3    H276899   2.995   3.742  11.018  0.9316  0.1969  0.3191
18470TIP3   OH276900   2.009   0.037   2.232  0.5930 -0.0307 -0.0827
18470TIP3    H176901   2.056  -0.020   2.293 -2.3179 -1.4104  1.0719
18470TIP3    H276902   1.940   0.077   2.284 -2.1446 -1.3900 -2.3600
18471TIP3   OH276903   4.902   0.566  13.136  0.2926  0.3833  0.1951
18471TIP3    H176904   4.971   0.632  13.141  0.0276  0.7191 -0.3641
18471TIP3    H276905   4.821   0.617  13.144  0.1240 -0.1115  1.7885
18472TIP3   OH276906   4.254   2.391   3.783  0.2793 -0.0323 -0.0447
18472TIP3    H176907   4.260   2.347   3.868 -2.4347  0.3718  0.4442
18472TIP3    H276908   4.221   2.323   3.724  3.0437 -0.5771 -1.0886
18473TIP3   OH276909   5.972   0.926   1.870 -0.3362  0.2072 -0.8381
18473TIP3    H176910   6.031   0.965   1.807 -0.8356 -0.5885 -1.8386
18473TIP3    H276911   5.911   0.874   1.817 -0.9641 -0.2365  0.2726
18474TIP3   OH276912   2.278   1.741  12.504 -0.1576  0.1629 -0.1274
18474TIP3    H176913   2.211   1.772  12.443  0.0096  0.6911 -0.0477
18474TIP3    H276914   2.309   1.658  12.466 -0.9073 -0.1226 -0.1193
18475TIP3   OH276915   1.735   3.062  15.989 -0.2199  0.5218 -0.0504
18475TIP3    H176916   1.727   3.100  15.902  1.0403  1.9503  0.4248
18475TIP3    H276917   1.664   2.998  15.993 -0.0593  0.1024 -2.2648
18476TIP3   OH276918   6.368   2.058  16.145  0.3026  0.1962  0.1297
18476TIP3    H176919   6.306   2.063  16.217 -0.1140 -0.0395 -0.2005
18476TIP3    H276920   6.326   1.999  16.082  0.6919  0.3370 -0.2677
18477TIP3   OH276921   4.883   3.539   4.352  0.5707  0.6131 -0.3566
18477TIP3    H176922   4.799   3.562   4.313  0.0335 -0.9877 -0.2235
18477TIP3    H276923   4.868   3.548   4.446  0.3314 -0.3073 -0.3002
18478TIP3   OH276924   0.814   0.763  10.713 -0.1087 -0.1592  0.1119
18478TIP3    H176925   0.764   0.799  10.639  1.6307  0.7497 -0.6877
18478TIP3    H276926   0.803   0.827  10.783 -0.5924 -0.3069  0.1769
18479TIP3   OH276927   3.719   0.979   3.048 -0.0656  0.3536 -0.2435
18479TIP3    H176928   3.628   0.966   3.075  0.4062  0.0379  1.2726
18479TIP3    H276929   3.715   0.985   2.953 -1.9143  2.2405 -0.1151
18480TIP3   OH276930   4.682   4.772  15.334  0.2876 -0.3103  0.3795
18480TIP3    H176931   4.587   4.774  15.319 -0.2676  1.0246  3.3494
18480TIP3    H276932   4.711   4.692  15.290 -2.1721 -0.7096 -0.7167
18481TIP3   OH276933   2.403   3.614   1.309  0.0264  0.0419 -0.3424
18481TIP3    H176934   2.366   3.661   1.235  3.0295  1.6933 -0.9848
18481TIP3    H276935   2.379   3.667   1.386  1.4810  1.5110 -0.8255
18482TIP3   OH276936   4.129   3.487   1.276  0.1229  0.6013 -0.3624
18482TIP3    H176937   4.149   3.411   1.330 -2.9887 -0.0258  0.0862
18482TIP3    H276938   4.130   3.453   1.186 -0.9407  0.0374 -0.1861
18483TIP3   OH276939   5.866   2.204   2.835 -0.0165 -0.4047  0.6773
18483TIP3    H176940   5.930   2.274   2.818 -0.7170 -0.2925 -1.8454
18483TIP3    H276941   5.803   2.243   2.896  2.1799 -0.5069  3.2008
18484TIP3   OH276942   1.191   1.588  14.000  0.1212 -0.4877 -0.3984
18484TIP3    H176943   1.268   1.643  14.014  0.3703 -1.0693  0.6144
18484TIP3    H276944   1.226   1.500  13.989 -0.4277 -0.9268  1.0841
18485TIP3   OH276945   4.864   5.877  12.567  0.0135  0.4703  0.1594
18485TIP3    H176946   4.901   5.883  12.479 -1.9539 -1.8232 -0.9451
18485TIP3    H276947   4.779   5.920  12.561 -0.5086 -0.4539  0.6758
18486TIP3   OH276948   5.544   6.362  13.754  0.2551  0.3714 -0.3021
18486TIP3    H176949   5.517   6.451  13.775 -0.8815 -0.1607  0.6003
18486TIP3    H276950   5.614   6.342  13.816 -0.5546  0.1048  0.5403
18487TIP3   OH276951   6.622   4.665  11.825  0.1861 -0.1256  0.1606
18487TIP3    H176952   6.628   4.579  11.866 -1.1008 -1.1469 -1.6712
18487TIP3    H276953   6.574   4.719  11.888 -1.8424 -1.6729  0.0386
18488TIP3   OH276954   0.167   4.091   2.468 -0.2966  0.5169  0.1053
18488TIP3    H176955   0.258   4.061   2.468 -0.7091 -0.8290  0.7481
18488TIP3    H276956   0.153   4.123   2.379  0.7051  0.4178 -0.1099
18489TIP3   OH276957   0.865   6.093   5.846 -0.3270  0.0985  0.3763
18489TIP3    H176958   0.947   6.069   5.889 -1.2359 -1.3989  1.3449
18489TIP3    H276959   0.815   6.012   5.841 -2.1733  1.1465  0.7207
18490TIP3   OH276960   2.338   1.655  15.013  0.2527  0.1175  0.1528
18490TIP3    H176961   2.257   1.624  15.052  0.7897 -1.3923  0.1223
18490TIP3    H276962   2.402   1.650  15.085  0.6265 -0.0569 -0.1885
18491TIP3   OH276963   2.729   5.158   4.975 -0.1650  0.2542  0.0989
18491TIP3    H176964   2.660   5.221   4.957 -0.4575 -0.3009 -0.7866
18491TIP3    H276965   2.769   5.189   5.056  0.1868  1.9794 -0.6886
18492TIP3   OH276966   1.739   4.092  16.045  0.3247  0.3073  1.0337
18492TIP3    H176967   1.760   4.070  15.954  2.3979  2.0895  1.0201
18492TIP3    H276968   1.704   4.011  16.081 -0.8703 -0.3621 -1.4207
18493TIP3   OH276969   4.472   5.081  12.122 -0.6310 -0.1976 -0.4573
18493TIP3    H176970   4.379   5.064  12.131 -0.3024 -1.8944  0.1096
18493TIP3    H276971   4.510   5.048  12.204  0.4941  0.2537 -0.7762
18494TIP3   OH276972   1.620   3.181  12.702 -0.2116  0.6755  0.4741
18494TIP3    H176973   1.600   3.100  12.750  0.0951 -0.3569 -1.0560
18494TIP3    H276974   1.716   3.185  12.700 -0.1439 -0.5538 -1.9517
18495TIP3   OH276975   6.051   4.077   1.852  0.3919 -0.5093  0.2415
18495TIP3    H176976   6.106   3.999   1.855  0.7800 -0.2320  0.4683
18495TIP3    H276977   6.091   4.132   1.784  0.3220 -0.3659  0.3148
18496TIP3   OH276978   5.437   1.551   1.189 -0.4537  0.0285  0.3755
18496TIP3    H176979   5.501   1.561   1.259 -1.4831 -0.6439  1.4447
18496TIP3    H276980   5.480   1.494   1.125  0.0544 -0.3343  1.0290
18497TIP3   OH276981   1.275   5.621   2.825  0.1062  0.4739 -0.1071
18497TIP3    H176982   1.293   5.572   2.905 -1.2626  1.6257  0.9507
18497TIP3    H276983   1.359   5.658   2.800  0.4919  0.3598  0.9822
18498TIP3   OH276984   3.564   2.609   0.528 -0.1507 -0.2255  0.7337
18498TIP3    H176985   3.594   2.536   0.475  0.6176 -0.1287  1.0201
18498TIP3    H276986   3.520   2.568   0.603 -0.3453 -0.3760  0.5392
18499TIP3   OH276987   4.520   4.359  14.279 -0.2147  0.1783 -0.3113
18499TIP3    H176988   4.598   4.397  14.241  0.2266  0.8167  1.1654
18499TIP3    H276989   4.513   4.399  14.366 -0.4562 -2.1239  0.8105
18500TIP3   OH276990   6.697   4.346  16.807  0.5939 -0.0284  0.8664
18500TIP3    H176991   6.605   4.350  16.831  0.5842 -0.1937  0.8570
18500TIP3    H276992   6.741   4.316  16.887  0.8261  1.4538  1.3400
18501TIP3   OH276993   0.523   0.448   5.819  0.2770 -0.0136 -0.4560
18501TIP3    H176994   0.523   0.401   5.736 -1.7638 -0.9812  0.0243
18501TIP3    H276995   0.571   0.390   5.879 -0.0157 -0.2874 -0.4819
18502TIP3   OH276996   3.594   3.778   4.113 -0.3858 -0.1067  0.5239
18502TIP3    H176997   3.530   3.744   4.176 -0.0753 -1.2167  0.2626
18502TIP3    H276998   3.545   3.841   4.062 -1.0560 -0.3229  0.8785
18503TIP3   OH276999   0.781   5.085  17.055 -0.4643  0.0826  0.7132
18503TIP3    H177000   0.819   5.142  16.988  1.4022 -1.1995  0.6176
18503TIP3    H277001   0.830   5.105  17.135 -0.9180 -0.2320  1.0740
18504TIP3   OH277002   4.320   3.200   2.643 -0.1644  0.3220 -0.0612
18504TIP3    H177003   4.342   3.283   2.601 -0.3008 -0.6301 -2.1091
18504TIP3    H277004   4.226   3.190   2.629 -0.4794  0.5873  1.6602
18505TIP3   OH277005   6.012   5.976  13.090  0.2066 -0.0702  0.0884
18505TIP3    H177006   6.012   5.900  13.149 -0.7226 -0.3011 -0.1955
18505TIP3    H277007   6.027   6.051  13.148 -3.2662  0.0122  1.0913
18506TIP3   OH277008   6.651   4.561   1.207  0.0632  0.6638  0.2842
18506TIP3    H177009   6.614   4.491   1.261 -0.8878  0.9523  0.0243
18506TIP3    H277010   6.588   4.574   1.137  1.5493 -0.1011 -1.2801
18507TIP3   OH277011   4.946   1.581  12.930  0.5796 -0.2285 -0.5467
18507TIP3    H177012   4.861   1.606  12.966 -0.2698 -3.2461 -0.1862
18507TIP3    H277013   4.927   1.508  12.872  2.8913 -0.6923 -0.8266
18508TIP3   OH277014   1.498   4.177  11.199  0.6214 -0.5138 -0.1803
18508TIP3    H177015   1.564   4.245  11.189 -0.5094  0.5676 -0.4817
18508TIP3    H277016   1.549   4.096  11.205  1.9916  0.3272  0.0959
18509TIP3   OH277017   2.986   1.988   3.297 -0.1677 -0.1530 -0.3131
18509TIP3    H177018   3.035   2.049   3.243 -0.4865 -0.0874 -0.5308
18509TIP3    H277019   2.943   1.929   3.235  0.0013 -0.4942 -0.1104
18510TIP3   OH277020   2.078   0.355   4.946  0.1632 -0.1550  0.2781
18510TIP3    H177021   2.081   0.285   5.011  0.3088 -1.5032 -1.1307
18510TIP3    H277022   2.069   0.310   4.862 -0.5317  1.5511 -0.6128
18511TIP3   OH277023   3.786   6.500  14.611  0.0630 -0.0266 -0.1086
18511TIP3    H177024   3.877   6.484  14.584  0.8071  1.2371  1.4697
18511TIP3    H277025   3.780   6.462  14.698 -0.9781 -0.2063 -0.2450
18512TIP3   OH277026   4.659   3.105   4.557 -0.4519 -0.3319  0.0298
18512TIP3    H177027   4.587   3.163   4.580 -0.1255  0.4437 -0.8260
18512TIP3    H277028   4.657   3.101   4.461 -1.2367 -2.7579  0.0822
18513TIP3   OH277029   6.754   1.279   1.982  0.5101  0.6751  0.3086
18513TIP3    H177030   6.838   1.277   2.028  0.7629 -2.6148 -0.0511
18513TIP3    H277031   6.776   1.305   1.893  1.2103 -0.2174  0.2058
18514TIP3   OH277032   6.713   3.877  16.828  0.0988 -0.3363 -0.5031
18514TIP3    H177033   6.639   3.820  16.805  0.1737 -1.1389  1.0527
18514TIP3    H277034   6.681   3.929  16.902  0.8528 -0.1787 -0.2744
18515TIP3   OH277035   4.999   6.753   6.291  0.0734  0.0734  0.8908
18515TIP3    H177036   5.050   6.727   6.368 -2.6410 -0.2469  2.7449
18515TIP3    H277037   4.943   6.824   6.322 -0.0692  0.9478 -1.2251
18516TIP3   OH277038   0.657   5.100  12.939 -0.3373 -0.3846 -0.4181
18516TIP3    H177039   0.724   5.062  12.995  0.4797  0.2185 -0.9603
18516TIP3    H277040   0.698   5.106  12.853 -0.4846  1.5564 -0.3998
18517TIP3   OH277041   4.734   6.068  15.323  0.1110  0.0353  0.1785
18517TIP3    H177042   4.740   5.973  15.317  0.1424  0.0822 -0.5696
18517TIP3    H277043   4.824   6.097  15.337  0.0424 -0.0727  0.8544
18518TIP3   OH277044   5.315   4.298  14.558  0.0818 -0.0121  0.4567
18518TIP3    H177045   5.231   4.334  14.588  0.6463 -0.3125  2.5212
18518TIP3    H277046   5.309   4.204  14.576  0.5217 -0.1875 -0.2585
18519TIP3   OH277047   2.308   1.532   3.283 -0.4598  0.4443 -0.0502
18519TIP3    H177048   2.289   1.565   3.195  2.6207  0.4040 -0.8563
18519TIP3    H277049   2.304   1.610   3.339  2.0270  1.4735 -1.1228
18520TIP3   OH277050   0.215   3.537   4.618 -1.0616  0.2418 -0.2118
18520TIP3    H177051   0.238   3.484   4.541 -0.8791 -0.2354  0.1610
18520TIP3    H277052   0.286   3.601   4.625 -0.5769 -0.3054  0.0892
18521TIP3   OH277053   6.640   6.393  16.735  0.0505  0.4808 -0.2154
18521TIP3    H177054   6.650   6.405  16.829 -0.1970  1.1371 -0.2603
18521TIP3    H277055   6.723   6.356  16.705  1.2057  2.7996 -0.1356
18522TIP3   OH277056   2.268   3.217  14.636  0.3021  0.2318  0.4317
18522TIP3    H177057   2.273   3.207  14.541  1.2782  2.6163  0.1710
18522TIP3    H277058   2.187   3.265  14.651  1.6938  2.7281  0.4398
18523TIP3   OH277059   6.763   4.719   2.501  0.2557 -0.1233  0.3646
18523TIP3    H177060   6.677   4.690   2.473  0.8766 -0.4862 -1.2395
18523TIP3    H277061   6.814   4.728   2.421  1.7732 -0.0703  1.2785
18524TIP3   OH277062   4.431   0.546  13.055  0.2422 -0.5075  0.1556
18524TIP3    H177063   4.387   0.532  12.971  0.0146 -0.8523  0.3309
18524TIP3    H277064   4.499   0.479  13.058  0.2282 -0.5174  0.2625
18525TIP3   OH277065   1.550   0.396   6.605 -0.1464 -0.7512  0.3471
18525TIP3    H177066   1.509   0.482   6.615  1.9272  0.2236  1.1795
18525TIP3    H277067   1.569   0.388   6.512 -1.7158 -1.0318  0.0173
18526TIP3   OH277068   0.978   4.599  13.093 -0.4391  0.5577  0.3262
18526TIP3    H177069   0.935   4.684  13.081  0.7228  1.1486  0.2075
18526TIP3    H277070   1.058   4.620  13.141 -0.0013 -0.4331  0.0414
18527TIP3   OH277071   5.892   2.010  13.357  0.2958  0.2367  0.2956
18527TIP3    H177072   5.841   1.931  13.342 -0.1984  0.7655 -0.8851
18527TIP3    H277073   5.923   2.002  13.448  1.6078 -2.0502 -0.3013
18528TIP3   OH277074   1.709   4.742  13.213  0.7759  0.3961  0.4009
18528TIP3    H177075   1.623   4.741  13.254  1.3041  2.5674  1.7098
18528TIP3    H277076   1.739   4.651  13.218 -0.9444 -0.1781  0.9554
18529TIP3   OH277077   5.241   2.421   2.916 -0.6109 -0.0640 -0.5822
18529TIP3    H177078   5.265   2.444   2.826 -0.5958  1.9100 -0.1146
18529TIP3    H277079   5.275   2.332   2.928  0.9769  0.3121 -1.9450
18530TIP3   OH277080   4.785   5.499  14.873 -1.1173  0.4369 -0.6192
18530TIP3    H177081   4.874   5.536  14.877 -1.1237  0.4531  2.8804
18530TIP3    H277082   4.796   5.417  14.824  1.1085 -0.0472  0.5084
18531TIP3   OH277083   2.680   5.628   5.230 -0.2362 -0.1283 -0.6418
18531TIP3    H177084   2.667   5.559   5.296 -0.2837  0.8777  0.4410
18531TIP3    H277085   2.599   5.679   5.233 -0.4233 -0.3466 -1.8296
18532TIP3   OH277086   4.359   3.140  13.168  0.1050 -0.6717 -0.1092
18532TIP3    H177087   4.307   3.188  13.104  0.6240 -0.1870 -0.1735
18532TIP3    H277088   4.389   3.063  13.120  0.6924 -0.1903 -0.5339
18533TIP3   OH277089   6.580   6.216  13.668 -0.1221  0.5406  0.3281
18533TIP3    H177090   6.651   6.152  13.668  0.2006  0.8934  0.1315
18533TIP3    H277091   6.546   6.214  13.578 -1.9622 -1.3596  0.9758
18534TIP3   OH277092   6.467   1.825   2.161 -0.0486  0.0759  0.3563
18534TIP3    H177093   6.514   1.777   2.228  0.0338  0.0970  0.3134
18534TIP3    H277094   6.374   1.810   2.181 -0.0271  0.3056  0.6384
18535TIP3   OH277095   0.744   2.907  13.387 -0.5040 -0.4360  0.2734
18535TIP3    H177096   0.808   2.855  13.435 -0.7502 -1.3469 -0.3597
18535TIP3    H277097   0.744   2.870  13.299 -0.7681  0.5764 -0.1658
18536TIP3   OH277098   4.921   0.926  13.598 -0.6753  0.3183  0.3420
18536TIP3    H177099   4.827   0.942  13.601 -0.7326 -0.0001  0.3330
18536TIP3    H277100   4.949   0.925  13.689 -0.9232 -0.9304  0.4274
18537TIP3   OH277101   5.063   2.244  11.863  0.0712 -0.0875 -0.3894
18537TIP3    H177102   4.974   2.250  11.826 -0.6579  0.1031  1.3243
18537TIP3    H277103   5.102   2.170  11.817 -1.2299 -0.6552 -0.6455
18538TIP3   OH277104   1.739   2.259   2.891  0.4636  0.2070 -0.7583
18538TIP3    H177105   1.661   2.291   2.936  0.5569  0.5577 -0.8428
18538TIP3    H277106   1.800   2.239   2.962  0.2307 -0.2493 -0.6842
18539TIP3   OH277107   6.159   2.030  12.459 -0.1463  0.0846 -0.3843
18539TIP3    H177108   6.185   1.962  12.398  0.2137  0.2949 -0.4674
18539TIP3    H277109   6.190   2.111  12.420 -1.4864  0.4223 -0.7972
18540TIP3   OH277110   3.591   1.659  14.095 -1.0122 -0.2324 -0.4447
18540TIP3    H177111   3.577   1.650  14.000 -0.6996 -1.6363 -0.3683
18540TIP3    H277112   3.639   1.742  14.103  2.3383 -1.8278 -1.9041
18541TIP3   OH277113   0.203   5.817   0.602 -0.1553 -0.6672  0.0506
18541TIP3    H177114   0.263   5.775   0.540 -0.3953 -2.1402  0.7671
18541TIP3    H277115   0.178   5.747   0.662 -1.4469  0.2672  0.6496
18542TIP3   OH277116   4.717   4.694   4.603 -0.0121  0.2453 -0.2311
18542TIP3    H177117   4.656   4.701   4.677  1.1975  1.6245  0.6911
18542TIP3    H277118   4.684   4.621   4.551 -0.5450 -1.1940  2.0139
18543TIP3   OH277119   5.099   0.761  12.556  0.6596  0.6149 -0.6930
18543TIP3    H177120   5.009   0.793  12.553  0.5020  0.4594  0.9585
18543TIP3    H277121   5.110   0.712  12.475 -1.2463 -0.5873 -0.2916
18544TIP3   OH277122   2.103   4.605   2.330  0.4455 -0.6541  0.2183
18544TIP3    H177123   2.137   4.556   2.256  1.0093 -3.4022  2.1521
18544TIP3    H277124   2.008   4.591   2.327  0.3302  0.1923 -0.5669
18545TIP3   OH277125   3.290   5.331   1.547 -0.5263  0.2760  0.8803
18545TIP3    H177126   3.372   5.351   1.592  0.5357  0.9326 -1.2245
18545TIP3    H277127   3.312   5.260   1.486 -1.7856 -0.2476  0.9966
18546TIP3   OH277128   1.688   5.613   1.654 -0.2089 -0.8717 -0.2626
18546TIP3    H177129   1.699   5.529   1.699 -0.0027 -0.9702 -0.4963
18546TIP3    H277130   1.597   5.638   1.672  0.0186 -0.6559  0.6338
18547TIP3   OH277131   6.017   5.955   2.832 -0.2832  0.7223  0.6432
18547TIP3    H177132   5.927   5.989   2.828 -0.6877 -0.3841 -0.2007
18547TIP3    H277133   6.071   6.034   2.839 -1.2813  1.4405  0.6473
18548TIP3   OH277134   4.609   3.688   6.836 -0.0729 -0.0471  0.3434
18548TIP3    H177135   4.517   3.665   6.829  0.3876 -1.6898 -0.8550
18548TIP3    H277136   4.656   3.613   6.799  1.7436  0.8003  0.8007
18549TIP3   OH277137   3.386   6.286  12.636  0.3020 -0.3766  0.3093
18549TIP3    H177138   3.304   6.335  12.648 -0.7734 -1.5495 -1.6914
18549TIP3    H277139   3.455   6.349  12.658 -1.0896  1.0251  0.8778
18550TIP3   OH277140   4.780   6.526  15.349 -0.4450  0.4103 -0.3362
18550TIP3    H177141   4.825   6.567  15.423 -0.9711  0.5441 -0.0914
18550TIP3    H277142   4.840   6.539  15.275 -0.5293  1.4667 -0.2289
18551TIP3   OH277143   6.221   6.081   1.189  0.0559  0.0937 -0.2817
18551TIP3    H177144   6.171   6.097   1.269  0.1047 -1.5514  0.1172
18551TIP3    H277145   6.281   6.010   1.212  1.6333  1.0697 -1.1557
18552TIP3   OH277146   0.869   4.630  12.106  0.3509 -0.2806 -0.1275
18552TIP3    H177147   0.926   4.673  12.170  1.1019 -0.1424 -0.8778
18552TIP3    H277148   0.884   4.536  12.121  1.6629 -0.2491 -1.0735
18553TIP3   OH277149   2.818   5.036  15.031 -0.3093  0.3322 -0.2574
18553TIP3    H177150   2.881   4.964  15.029  0.5892  1.0779  0.4794
18553TIP3    H277151   2.865   5.112  14.998 -0.4589  1.1499  1.3128
18554TIP3   OH277152   0.880   1.172   5.766  0.4215 -0.0270  0.2831
18554TIP3    H177153   0.826   1.246   5.738 -1.1658 -1.4353 -0.5599
18554TIP3    H277154   0.832   1.095   5.736  3.2583 -1.3701 -1.1747
18555TIP3   OH277155   3.230   2.778  16.511  0.1766  0.6769 -0.2563
18555TIP3    H177156   3.191   2.803  16.595  2.0232  4.5641 -0.3375
18555TIP3    H277157   3.162   2.726  16.467 -1.1797 -0.7328  3.1987
18556TIP3   OH277158   2.702   1.479  14.163  0.2938  0.2877 -0.5830
18556TIP3    H177159   2.706   1.558  14.110 -0.5013  0.4287 -0.4305
18556TIP3    H277160   2.652   1.417  14.110 -1.0458  0.6287  0.2413
18557TIP3   OH277161   5.323   0.552  10.883  0.0881 -0.1295 -0.4137
18557TIP3    H177162   5.359   0.594  10.961 -2.0765  0.9689  0.0808
18557TIP3    H277163   5.306   0.462  10.910 -1.2690  0.4092  0.6869
18558TIP3   OH277164   2.704   3.979   6.769  0.0723  0.1495  0.2776
18558TIP3    H177165   2.704   4.033   6.690  0.3666 -0.0384  0.1495
18558TIP3    H277166   2.796   3.963   6.788 -0.0045 -0.0545  0.4872
18559TIP3   OH277167   0.434   2.583   6.934 -0.0806  0.0244  0.0813
18559TIP3    H177168   0.381   2.543   6.865 -1.1081 -0.3813  1.0751
18559TIP3    H277169   0.393   2.669   6.948  1.4716  1.0644 -1.3097
18560TIP3   OH277170   5.757   6.362   6.240 -0.6058 -0.4516 -0.0632
18560TIP3    H177171   5.768   6.391   6.149  3.1128 -0.1151  0.3120
18560TIP3    H277172   5.685   6.300   6.237 -1.4112  0.4618 -3.0004
18561TIP3   OH277173   5.992   3.606   5.780  0.6455 -0.4134 -0.0086
18561TIP3    H177174   5.979   3.649   5.696  1.9959  0.2354  0.0945
18561TIP3    H277175   5.916   3.548   5.789  0.2842 -0.2101 -1.4859
18562TIP3   OH277176   3.950   5.253   6.298 -0.4083 -0.5528  0.0522
18562TIP3    H177177   3.920   5.164   6.313  1.8101 -1.5171 -0.8359
18562TIP3    H277178   3.992   5.279   6.380 -0.2527 -0.6837  0.0150
18563TIP3   OH277179   2.722   3.573   1.860 -0.0353  0.4443  0.1557
18563TIP3    H177180   2.733   3.574   1.955 -0.8846 -1.1515  0.3093
18563TIP3    H277181   2.641   3.621   1.844  0.8346  1.9457  0.0793
18564TIP3   OH277182   5.508   2.592   6.937 -0.7096  0.1617  0.0703
18564TIP3    H177183   5.496   2.655   6.866  2.4991 -0.9734 -1.6720
18564TIP3    H277184   5.444   2.523   6.918 -1.3646  0.8844 -0.4287
18565TIP3   OH277185   3.517   2.526  11.090  0.0667  0.6393  0.2830
18565TIP3    H177186   3.431   2.511  11.050  0.0609  0.2865  0.4214
18565TIP3    H277187   3.580   2.505  11.021  0.0540  0.1860  0.4080
18566TIP3   OH277188   1.893   2.741  16.748 -0.1542 -0.8106  0.7335
18566TIP3    H177189   1.975   2.698  16.725 -0.7122 -1.6503  0.2717
18566TIP3    H277190   1.913   2.789  16.828  0.3618 -2.3504  1.5730
18567TIP3   OH277191   4.204   5.975  12.387 -0.5081 -0.2426 -0.1072
18567TIP3    H177192   4.251   6.036  12.331 -0.0408  1.9762  2.4755
18567TIP3    H277193   4.143   6.030  12.437 -2.3580 -2.3608  0.1430
18568TIP3   OH277194   4.462   2.910   1.258 -0.5707 -0.6770 -0.2665
18568TIP3    H177195   4.546   2.867   1.276  0.1323  0.2911 -1.1106
18568TIP3    H277196   4.451   2.902   1.164 -0.6048  0.6386 -0.3913
18569TIP3   OH277197   1.653   0.451  16.304  0.5976  0.0297 -0.7608
18569TIP3    H177198   1.716   0.498  16.359 -0.2973  1.9274 -1.2797
18569TIP3    H277199   1.654   0.497  16.220  0.0993 -1.2622 -1.5009
18570TIP3   OH277200   5.293   5.821  11.437 -0.5534  0.7709 -0.0987
18570TIP3    H177201   5.223   5.776  11.388  1.8782 -0.9011 -2.3129
18570TIP3    H277202   5.318   5.759  11.505  2.0069 -1.0066 -2.4321
18571TIP3   OH277203   6.759   5.512   6.365 -0.2048 -0.3792  0.1378
18571TIP3    H177204   6.704   5.475   6.433 -3.2116 -1.2194 -2.5154
18571TIP3    H277205   6.777   5.438   6.306 -0.6282  0.9606 -1.7557
18572TIP3   OH277206   6.239   3.860   2.788 -0.0713  0.4600  0.4078
18572TIP3    H177207   6.174   3.924   2.817 -1.4304 -1.1000  0.9774
18572TIP3    H277208   6.243   3.870   2.693 -0.1875  1.4398  0.5003
18573TIP3   OH277209   0.066   3.001  14.231 -0.4935 -0.3599 -0.0704
18573TIP3    H177210   0.124   2.937  14.272 -0.3231  0.1311  0.4698
18573TIP3    H277211   0.051   2.967  14.143 -0.8178 -1.4081  0.3745
18574TIP3   OH277212   0.588   0.943  11.135  0.5759  0.2554  0.1869
18574TIP3    H177213   0.591   0.959  11.229  1.9284 -0.3986  0.2838
18574TIP3    H277214   0.507   0.893  11.122  0.0952  0.8293  0.9098
18575TIP3   OH277215   4.162   4.717   1.437 -0.1989 -0.1784 -0.1420
18575TIP3    H177216   4.079   4.760   1.457 -1.7004 -1.3363 -3.2807
18575TIP3    H277217   4.220   4.788   1.409  0.2185  0.7292  2.7090
18576TIP3   OH277218   2.484   6.766  13.327  0.0440 -0.2579 -0.7134
18576TIP3    H177219   2.496   6.795  13.237  0.7379  0.0049 -0.5436
18576TIP3    H277220   2.411   6.819  13.360 -0.3447 -0.4993 -1.1795
18577TIP3   OH277221   3.789   2.851  17.154  0.3272 -0.0866  0.0621
18577TIP3    H177222   3.844   2.926  17.130 -1.3166  1.2679  0.3865
18577TIP3    H277223   3.788   2.852  17.249 -2.1544  1.4314  0.1069
18578TIP3   OH277224   0.303   6.456  13.857  0.1400  0.1808  0.2382
18578TIP3    H177225   0.341   6.502  13.782  0.3863 -0.2388  0.0987
18578TIP3    H277226   0.374   6.453  13.921  0.4425 -0.8282 -0.1218
18579TIP3   OH277227   4.422   1.965  16.089 -0.2000  0.5369  0.0423
18579TIP3    H177228   4.441   1.979  16.182 -1.5018  2.2925  0.0967
18579TIP3    H277229   4.384   2.048  16.060 -2.7326 -0.9424 -1.2583
18580TIP3   OH277230   0.769   2.157   4.001  0.7079  0.6943 -0.3541
18580TIP3    H177231   0.715   2.095   3.952  0.7651 -0.3600  0.8383
18580TIP3    H277232   0.706   2.216   4.042  0.4899  0.0191  0.3119
18581TIP3   OH277233   2.589   1.597   3.842  0.2336  0.3986 -0.4351
18581TIP3    H177234   2.624   1.616   3.929  1.0810 -0.1904 -0.6358
18581TIP3    H277235   2.494   1.599   3.853  0.3381  0.6112  0.4413
18582TIP3   OH277236   1.151   0.313  15.080  0.1343  0.2949  0.3961
18582TIP3    H177237   1.105   0.395  15.100  0.9490  1.1369 -0.9899
18582TIP3    H277238   1.220   0.339  15.019  1.4734 -1.1800  1.2082
18583TIP3   OH277239   1.511   1.739   1.872  0.9264  0.0832 -0.0484
18583TIP3    H177240   1.478   1.719   1.785  0.2163  0.1803  0.1979
18583TIP3    H277241   1.490   1.832   1.885  0.0018 -0.2159  0.6744
18584TIP3   OH277242   3.894   0.172   3.948 -0.1558  0.1899 -0.3345
18584TIP3    H177243   3.981   0.138   3.927 -0.0961  1.1839 -1.8613
18584TIP3    H277244   3.911   0.248   4.003 -0.1567 -0.4850  0.6290
18585TIP3   OH277245   4.567   1.494   5.096 -0.5268 -0.0039 -0.0168
18585TIP3    H177246   4.634   1.543   5.143 -1.3245  0.2821  0.8423
18585TIP3    H277247   4.500   1.559   5.074  0.8190  0.4231 -3.6556
18586TIP3   OH277248   5.515   2.455   1.955 -0.4700  0.7825  0.4252
18586TIP3    H177249   5.528   2.470   1.862  1.2308 -1.1520  0.2805
18586TIP3    H277250   5.598   2.416   1.985 -1.2830  0.5474  2.5577
18587TIP3   OH277251   6.024   0.872  11.492  0.0088 -0.1000  0.0832
18587TIP3    H177252   6.058   0.809  11.427 -0.4351  0.9497 -1.2128
18587TIP3    H277253   5.965   0.820  11.546  2.6374 -1.7135  1.6514
18588TIP3   OH277254   2.526   5.108   5.459 -0.6989 -0.2615 -1.0734
18588TIP3    H177255   2.503   5.016   5.470  1.1892 -0.6913 -0.4063
18588TIP3    H277256   2.608   5.119   5.507 -0.8313  1.7587 -1.2048
18589TIP3   OH277257   2.749   3.506  11.225  0.0775 -0.3532  0.0362
18589TIP3    H177258   2.690   3.555  11.282 -0.4007 -0.2801 -0.5136
18589TIP3    H277259   2.698   3.487  11.146  0.0956 -2.1056  0.3908
18590TIP3   OH277260   2.604   2.114  16.185 -0.2947  0.1330  0.4355
18590TIP3    H177261   2.691   2.140  16.155 -0.8583 -0.4378 -1.9084
18590TIP3    H277262   2.613   2.022  16.209 -0.1940  0.1348  0.4044
18591TIP3   OH277263   4.139   1.953  11.431  0.6124  0.3981 -0.2268
18591TIP3    H177264   4.058   1.979  11.387  0.3268 -1.0675 -0.6392
18591TIP3    H277265   4.119   1.959  11.524  0.4415  1.2345 -0.3137
18592TIP3   OH277266   3.299   6.223  13.566 -0.7374  0.2952  0.0998
18592TIP3    H177267   3.381   6.183  13.537 -1.6753 -0.9059 -1.0485
18592TIP3    H277268   3.274   6.282  13.495 -1.5679 -0.4392 -0.2458
18593TIP3   OH277269   6.151   4.956   5.382  0.0317  0.1529 -0.2732
18593TIP3    H177270   6.216   5.021   5.354  0.3857  0.1280  0.4630
18593TIP3    H277271   6.097   4.941   5.304 -0.5179  1.8607 -0.2484
18594TIP3   OH277272   3.453   5.318  13.226 -0.1052  0.1051  0.0309
18594TIP3    H177273   3.370   5.278  13.202 -0.4777  0.7896  0.1336
18594TIP3    H277274   3.519   5.267  13.179 -0.4839 -1.0911  0.7557
18595TIP3   OH277275   3.665   3.257   2.858 -0.5883  0.2205 -0.2333
18595TIP3    H177276   3.607   3.273   2.933 -0.5598 -1.9098  0.2983
18595TIP3    H277277   3.613   3.204   2.797 -0.0127  0.3851 -0.8888
18596TIP3   OH277278   2.424   3.889   5.602 -1.0151 -1.1055 -0.3189
18596TIP3    H177279   2.448   3.932   5.684 -2.5501 -0.4439 -0.1744
18596TIP3    H277280   2.375   3.811   5.629 -2.6111 -0.2320 -0.5632
18597TIP3   OH277281   1.368   5.772   0.453 -0.0688 -0.0136  0.2399
18597TIP3    H177282   1.390   5.790   0.362 -0.3576  1.0383  0.3610
18597TIP3    H277283   1.450   5.743   0.493  0.6826  1.9096  0.2108
18598TIP3   OH277284   0.579   0.888  16.013 -0.0803  0.0248 -0.4659
18598TIP3    H177285   0.521   0.892  16.089 -0.8664  1.0152 -1.0872
18598TIP3    H277286   0.639   0.961  16.025  1.1039 -1.0184  0.1907
18599TIP3   OH277287   6.615   2.086   2.655 -0.4687  0.0314  0.4898
18599TIP3    H177288   6.691   2.111   2.709 -0.6188  0.3090  0.5699
18599TIP3    H277289   6.592   1.998   2.687  0.4169 -0.4645 -0.1877
18600TIP3   OH277290   1.693   3.577   4.134 -0.1455  0.1320  0.0463
18600TIP3    H177291   1.655   3.662   4.110 -0.4043  0.2653  0.8893
18600TIP3    H277292   1.739   3.548   4.055  0.0151  1.0915 -0.2256
18601TIP3   OH277293   4.573   3.881   1.202  0.3120 -0.3463  0.3795
18601TIP3    H177294   4.500   3.833   1.163  1.9433 -2.6205 -0.0888
18601TIP3    H277295   4.541   3.971   1.210 -1.9296 -0.8977 -1.3141
18602TIP3   OH277296   1.960   0.537  11.002 -0.3651  0.3618 -0.5274
18602TIP3    H177297   1.940   0.482  11.078 -0.5820  0.4715 -0.5034
18602TIP3    H277298   2.054   0.524  10.987 -0.2929  0.4476 -0.1571
18603TIP3   OH277299   5.684   6.400  14.779  0.2383  0.4207  0.7334
18603TIP3    H177300   5.599   6.361  14.801 -0.5771  1.1447 -0.9413
18603TIP3    H277301   5.694   6.472  14.842 -1.4258  1.6424 -0.2906
18604TIP3   OH277302   2.076   5.663   1.441 -0.2098 -0.1740 -0.3347
18604TIP3    H177303   2.085   5.705   1.527  1.7016 -0.1289 -0.4977
18604TIP3    H277304   1.983   5.666   1.423 -0.6436 -0.0018  1.6465
18605TIP3   OH277305   2.882   5.452  15.375  0.4610  0.1045 -0.4676
18605TIP3    H177306   2.809   5.493  15.329  0.1447 -1.0221 -1.0075
18605TIP3    H277307   2.911   5.517  15.438  0.2829  1.3391 -1.6170
18606TIP3   OH277308   1.091   4.066  14.777 -0.2003 -0.2866 -0.3865
18606TIP3    H177309   1.145   4.069  14.699 -0.4350 -0.2289 -0.5490
18606TIP3    H277310   1.138   4.119  14.842 -0.1638 -0.0731 -0.5880
18607TIP3   OH277311   1.059   1.591  15.842  0.0389 -0.3804 -0.8870
18607TIP3    H177312   1.020   1.516  15.796 -0.1199 -0.6226 -0.3570
18607TIP3    H277313   0.992   1.659  15.838 -0.4341 -0.7843 -0.0069
18608TIP3   OH277314   6.323   3.120  14.316  0.6318  0.3577  0.0359
18608TIP3    H177315   6.352   3.029  14.328  1.0455  0.7024  1.9621
18608TIP3    H277316   6.246   3.113  14.260  0.1447 -1.2834  0.8476
18609TIP3   OH277317   6.705   6.676  11.184 -0.0077 -0.5889 -0.1083
18609TIP3    H177318   6.658   6.665  11.266  0.3424 -2.0878 -0.0679
18609TIP3    H277319   6.718   6.770  11.176  0.2853 -0.4232  1.7549
18610TIP3   OH277320   3.882   3.492  13.244 -0.4444 -0.0152  0.5047
18610TIP3    H177321   3.799   3.500  13.196 -0.8869 -0.6782  1.1368
18610TIP3    H277322   3.903   3.399  13.241  0.3897  0.1719  0.1908
18611TIP3   OH277323   5.123   2.453   2.220  0.2815  0.0881  0.1972
18611TIP3    H177324   5.205   2.498   2.199 -1.4703  3.1553 -0.6856
18611TIP3    H277325   5.084   2.507   2.289 -1.6664 -0.3799 -0.4780
18612TIP3   OH277326   3.551   0.364   4.113  0.4152  0.4396 -0.1082
18612TIP3    H177327   3.523   0.272   4.115 -1.6239  0.9196 -2.3600
18612TIP3    H277328   3.471   0.414   4.127  1.1730  1.9014 -0.7506
18613TIP3   OH277329   4.441   4.931  16.115  0.2648  0.0935  0.5767
18613TIP3    H177330   4.428   4.957  16.024 -0.3778 -0.8700  0.3900
18613TIP3    H277331   4.535   4.941  16.130  0.5062 -0.5835 -0.4503
18614TIP3   OH277332   3.423   1.582  11.111 -0.0226  0.5046  0.1947
18614TIP3    H177333   3.442   1.664  11.156 -0.2013  0.5341  0.2151
18614TIP3    H277334   3.439   1.601  11.019 -0.6967  0.7492  0.1230
18615TIP3   OH277335   2.050   4.239  17.362 -0.4201 -0.0072 -0.0514
18615TIP3    H177336   2.139   4.264  17.339  0.3863 -2.5438  0.0555
18615TIP3    H277337   2.037   4.154  17.322 -2.4157 -0.2110  0.8729
18616TIP3   OH277338   1.213   2.227  11.634  0.7943  0.0472  0.2584
18616TIP3    H177339   1.305   2.200  11.632  1.5521  2.4257 -1.1959
18616TIP3    H277340   1.199   2.259  11.723  1.8494  1.0523  0.0842
18617TIP3   OH277341   4.309   4.750  13.369 -0.1923  0.1679 -0.1126
18617TIP3    H177342   4.263   4.719  13.291 -0.2838  0.6404 -0.2500
18617TIP3    H277343   4.381   4.804  13.334  1.1964 -1.4895  0.0478
18618TIP3   OH277344   0.736   0.172   4.348  0.1685 -0.2638  0.4495
18618TIP3    H177345   0.713   0.087   4.311 -2.3547  0.4861  0.1015
18618TIP3    H277346   0.703   0.235   4.284  0.9286  0.9848  1.2525
18619TIP3   OH277347   1.330   3.677  13.673 -0.6800 -0.2762  0.3031
18619TIP3    H177348   1.250   3.654  13.625 -1.1409 -0.7345  1.2682
18619TIP3    H277349   1.375   3.594  13.686  0.5908  0.1135 -1.2916
18620TIP3   OH277350   2.026   4.937   2.418  0.0820 -0.0349 -0.0278
18620TIP3    H177351   2.121   4.947   2.431  0.0435 -1.1436  1.3068
18620TIP3    H277352   1.992   5.026   2.425  1.0117  0.3807 -0.5113
18621TIP3   OH277353   0.340   4.128  13.458 -0.3853 -0.2473  0.0603
18621TIP3    H177354   0.431   4.104  13.446 -0.3417 -1.6126  2.4799
18621TIP3    H277355   0.339   4.176  13.542 -1.6957  1.1334 -0.6848
18622TIP3   OH277356   5.535   6.674  12.957  0.0699 -0.1321 -0.1636
18622TIP3    H177357   5.627   6.701  12.963 -0.4367  1.7773 -0.1302
18622TIP3    H277358   5.538   6.580  12.945  1.9949 -0.3034  1.1939
18623TIP3   OH277359   6.482   1.386  11.648  0.3025  0.0213 -0.3100
18623TIP3    H177360   6.487   1.324  11.576 -0.2203 -0.0490 -0.2907
18623TIP3    H277361   6.562   1.371  11.699  0.4801 -0.1977 -0.6547
18624TIP3   OH277362   5.281   3.867  10.609 -0.0721  0.7222 -0.4924
18624TIP3    H177363   5.220   3.926  10.565 -0.5470  0.4150 -0.2535
18624TIP3    H277364   5.249   3.779  10.588  0.5293  0.5495 -0.7026
18625TIP3   OH277365   3.809   5.767   4.056 -0.4023 -0.2233  0.5630
18625TIP3    H177366   3.726   5.801   4.089  0.8541  1.0236  2.6866
18625TIP3    H277367   3.867   5.768   4.132  1.7153 -0.5476 -0.9642
18626TIP3   OH277368   4.136   4.678  16.747  0.3559 -0.0546  0.1816
18626TIP3    H177369   4.198   4.751  16.755 -0.6331  0.8883 -0.6052
18626TIP3    H277370   4.135   4.639  16.834  2.5083 -0.4918  0.0877
18627TIP3   OH277371   2.582   1.260   0.162 -0.2580  0.1699 -0.4726
18627TIP3    H177372   2.492   1.287   0.182  0.1963  0.9992  0.4565
18627TIP3    H277373   2.636   1.334   0.188  0.6266  0.1197 -2.0443
18628TIP3   OH277374   3.391   0.312  12.015 -0.2810  0.1343 -0.2888
18628TIP3    H177375   3.437   0.281  11.937  0.4586 -0.6755  0.4360
18628TIP3    H277376   3.455   0.370  12.058 -0.4065 -0.0127  0.0939
18629TIP3   OH277377   5.923   0.005   5.398 -0.1908  0.1305  0.6113
18629TIP3    H177378   5.840   0.043   5.372 -1.3492 -3.1719 -1.0382
18629TIP3    H277379   5.901  -0.053   5.471  0.8881  0.0245  0.8716
18630TIP3   OH277380   2.434   4.931  10.767  0.4414 -0.3801  0.0304
18630TIP3    H177381   2.428   4.895  10.679 -2.0039  2.1184 -0.9894
18630TIP3    H277382   2.499   5.001  10.761 -1.3504  1.3691 -0.5833
18631TIP3   OH277383   1.702   2.168   2.180 -0.1013 -0.6983  0.1794
18631TIP3    H177384   1.759   2.191   2.106 -1.4593  1.3109 -0.3248
18631TIP3    H277385   1.687   2.074   2.171  0.6245 -0.6849 -1.4776
18632TIP3   OH277386   6.371   0.538  15.965  0.0290 -0.4169  0.6863
18632TIP3    H177387   6.392   0.629  15.987 -0.3242  0.1255 -1.1303
18632TIP3    H277388   6.285   0.523  16.004 -0.9236  0.7689 -0.8440
18633TIP3   OH277389   4.783   0.874   2.443  0.3188  0.3632  0.3262
18633TIP3    H177390   4.764   0.853   2.352 -0.3530  1.6365  0.1523
18633TIP3    H277391   4.722   0.945   2.464  0.6172  0.2337  1.6987
18634TIP3   OH277392   5.760   2.714   1.204  0.4239  0.6711 -0.3591
18634TIP3    H177393   5.715   2.715   1.288 -0.0850  0.5957 -0.6245
18634TIP3    H277394   5.691   2.733   1.140  0.5392 -0.5352 -0.8738
18635TIP3   OH277395   6.524   3.218  12.319  0.4725 -0.0207 -0.1790
18635TIP3    H177396   6.572   3.162  12.258 -0.5415 -0.7681 -0.3133
18635TIP3    H277397   6.469   3.158  12.369 -0.2046  0.7986  0.0862
18636TIP3   OH277398   6.237   6.501  15.508 -0.6509 -0.2211 -0.0705
18636TIP3    H177399   6.257   6.494  15.415 -1.0519  1.8916 -0.3752
18636TIP3    H277400   6.323   6.498  15.551 -0.5685 -3.6186 -0.2069
18637TIP3   OH277401   3.188   5.770  16.279  0.1546  0.1486  0.0318
18637TIP3    H177402   3.171   5.848  16.331 -1.9855 -0.5675  0.5061
18637TIP3    H277403   3.275   5.784  16.241 -0.2329  2.8016 -0.0293
18638TIP3   OH277404   3.471   1.352   0.573  0.5215  0.4956 -0.2526
18638TIP3    H177405   3.426   1.373   0.491  0.5556 -0.9320 -0.6629
18638TIP3    H277406   3.401   1.320   0.631  0.7677 -0.3654 -0.4107
18639TIP3   OH277407   6.401   2.970  14.719 -0.1886 -0.0879 -0.1588
18639TIP3    H177408   6.437   2.908  14.656  1.3590  0.1945  0.4025
18639TIP3    H277409   6.443   3.053  14.697  0.4392 -0.0030  1.2657
18640TIP3   OH277410   0.702   2.386   1.668 -0.4151  0.1997 -0.1939
18640TIP3    H177411   0.729   2.305   1.625 -0.6533  0.0206 -0.0109
18640TIP3    H277412   0.728   2.375   1.760 -0.0893  0.4962 -0.2488
18641TIP3   OH277413   5.815   2.244   4.175 -0.2310  0.6764 -0.4373
18641TIP3    H177414   5.769   2.214   4.253 -1.5739 -0.4003 -1.5766
18641TIP3    H277415   5.838   2.163   4.129 -0.5599  1.3026 -1.7410
18642TIP3   OH277416   6.006   2.368   2.313 -0.2907 -0.3440 -0.2627
18642TIP3    H177417   5.965   2.449   2.282  2.5056  2.1561  1.9635
18642TIP3    H277418   6.069   2.345   2.245  0.8558  1.0212  0.2992
18643TIP3   OH277419   4.363   1.174  11.942 -0.1600  0.2973 -0.1157
18643TIP3    H177420   4.446   1.222  11.942 -0.0480  0.1240 -1.2632
18643TIP3    H277421   4.330   1.183  11.853  0.1870 -2.2896 -0.5589
18644TIP3   OH277422   1.062   5.187  15.351 -0.6064 -0.0754  0.8255
18644TIP3    H177423   0.986   5.243  15.369  0.4870  2.1145 -0.8911
18644TIP3    H277424   1.138   5.244  15.364  0.6673 -1.6276  0.5450
18645TIP3   OH277425   5.335   3.400  15.160 -0.1157  0.0460  0.1889
18645TIP3    H177426   5.292   3.321  15.126  0.1597 -0.6519  1.4355
18645TIP3    H277427   5.401   3.368  15.221  0.0930  1.2444  0.6193
18646TIP3   OH277428   1.693   6.439  11.159 -0.0629  0.4062  0.5527
18646TIP3    H177429   1.664   6.439  11.068  1.4919  0.2235  0.0264
18646TIP3    H277430   1.779   6.481  11.157 -0.4297  1.2959  2.0980
18647TIP3   OH277431   5.169   4.074  15.787  0.8964 -0.4068 -0.6590
18647TIP3    H177432   5.174   4.059  15.693  3.4297 -1.0562 -0.5065
18647TIP3    H277433   5.258   4.102  15.811  0.3247 -0.3157  1.5441
18648TIP3   OH277434   3.331   3.154  16.270  0.5685 -0.1044  0.5852
18648TIP3    H177435   3.336   3.203  16.188  0.0027  0.4795  0.8926
18648TIP3    H277436   3.384   3.075  16.254 -0.5196 -0.5950 -0.7543
18649TIP3   OH277437   6.295   6.269   3.606 -0.3056 -0.3543  0.1173
18649TIP3    H177438   6.264   6.360   3.604  0.6302 -0.0294  0.0866
18649TIP3    H277439   6.316   6.249   3.515  1.6887  0.1900  0.4200
18650TIP3   OH277440   6.115   5.707  12.266  0.3095 -0.5359 -0.1276
18650TIP3    H177441   6.085   5.633  12.213  0.8330 -1.3349  0.6601
18650TIP3    H277442   6.167   5.760  12.205 -1.0287 -0.1691 -1.0000
18651TIP3   OH277443   2.695   0.213   2.400 -0.0309  0.3567 -0.0450
18651TIP3    H177444   2.767   0.257   2.354  1.9059 -1.5952  0.9639
18651TIP3    H277445   2.736   0.171   2.475 -1.7435 -2.8474 -0.7237
18652TIP3   OH277446   3.865   1.922  13.277 -0.4753 -0.6830 -0.1107
18652TIP3    H177447   3.799   1.938  13.210 -0.3508  0.0812 -0.0639
18652TIP3    H277448   3.919   1.852  13.242 -0.8868 -0.8332 -0.4546
18653TIP3   OH277449   3.692   4.633  13.263 -0.4890  0.0278 -0.0376
18653TIP3    H177450   3.760   4.679  13.213 -0.3815  0.3998  0.4403
18653TIP3    H277451   3.615   4.689  13.254 -0.4800  0.0732  0.1806
18654TIP3   OH277452   1.920   3.976  13.275  0.2523 -0.3212 -0.8619
18654TIP3    H177453   1.947   3.965  13.183 -1.7417  0.7295 -1.6420
18654TIP3    H277454   1.830   4.008  13.269  0.2963  0.3768  1.4818
18655TIP3   OH277455   5.623   4.211   1.493  0.1866 -0.5398  0.1183
18655TIP3    H177456   5.596   4.273   1.561  2.8104  2.3142 -1.2170
18655TIP3    H277457   5.706   4.176   1.524  0.2603 -1.0041 -0.5903
18656TIP3   OH277458   1.680   1.442   5.684  0.0625 -0.1789 -0.2263
18656TIP3    H177459   1.776   1.444   5.686  0.0959 -0.0950 -1.1873
18656TIP3    H277460   1.654   1.534   5.691  0.0428 -0.2168  0.2175
18657TIP3   OH277461   4.458   3.251   0.619 -0.5134  0.1663 -0.1100
18657TIP3    H177462   4.517   3.205   0.679 -0.2516 -0.3551 -0.7528
18657TIP3    H277463   4.514   3.314   0.574 -0.9996  1.6158  1.2399
18658TIP3   OH277464   0.311   6.114   5.981  0.5294 -0.1211 -0.0367
18658TIP3    H177465   0.347   6.075   6.060  0.8152 -1.8677 -0.9726
18658TIP3    H277466   0.274   6.198   6.010  0.6593 -0.6891  1.9198
18659TIP3   OH277467   0.576   0.690   3.264 -0.9054 -0.3194  0.1035
18659TIP3    H177468   0.630   0.709   3.341 -2.9316  0.2306  1.4976
18659TIP3    H277469   0.579   0.595   3.255  0.9206 -0.2424 -0.3850
18660TIP3   OH277470   4.553   4.532  13.001 -0.7974  0.1572  0.1205
18660TIP3    H177471   4.588   4.447  13.028  0.2161  0.2149 -0.8765
18660TIP3    H277472   4.555   4.586  13.080 -0.8410 -0.5560  0.6145
18661TIP3   OH277473   5.358   6.603   6.196  0.4966 -0.4275 -0.3852
18661TIP3    H177474   5.350   6.658   6.275  1.5008  0.5707 -0.9560
18661TIP3    H277475   5.310   6.651   6.129  3.0171  0.8626 -1.4114
18662TIP3   OH277476   2.733   0.380  11.043 -0.3307  0.3464 -0.3927
18662TIP3    H177477   2.716   0.468  11.009  0.6844  0.5470 -0.4220
18662TIP3    H277478   2.698   0.381  11.132 -0.5423  0.7032 -0.4782
18663TIP3   OH277479   3.560   6.054   2.373  0.0930 -0.0269 -0.5045
18663TIP3    H177480   3.606   6.119   2.426  2.5897 -0.0064 -2.5399
18663TIP3    H277481   3.509   6.106   2.310 -0.1848 -0.0595 -0.3095
18664TIP3   OH277482   1.434   4.261  13.966 -0.0378 -0.1029  0.8274
18664TIP3    H177483   1.459   4.302  13.883  0.2347  1.8415  1.8153
18664TIP3    H277484   1.361   4.203  13.943  1.3809 -1.2412 -1.0894
18665TIP3   OH277485   4.390   3.197  14.945  0.0774  0.2954 -0.5051
18665TIP3    H177486   4.411   3.235  14.859  1.6538 -0.2980 -0.4089
18665TIP3    H277487   4.380   3.103  14.928  2.4871 -0.1594  0.2531
18666TIP3   OH277488   5.505   5.869  13.478  0.3735  0.1663 -0.1603
18666TIP3    H177489   5.513   5.777  13.452  2.3013 -1.0675  3.8374
18666TIP3    H277490   5.412   5.881  13.495  0.1641 -1.3225 -0.0884
18667TIP3   OH277491   3.138   3.660  12.736 -0.2280 -0.2641  0.0573
18667TIP3    H177492   3.058   3.712  12.729 -1.1977 -1.5092  1.2989
18667TIP3    H277493   3.176   3.662  12.648 -2.6006 -1.1461 -1.0684
18668TIP3   OH277494   0.741   6.332   2.151 -0.0091  0.1275  0.0992
18668TIP3    H177495   0.774   6.307   2.064 -0.0540  1.8014 -0.4290
18668TIP3    H277496   0.725   6.248   2.195  1.7365 -0.7635 -0.8342
18669TIP3   OH277497   6.015   4.794  17.299  0.1165 -0.3588 -1.0746
18669TIP3    H177498   5.991   4.775  17.208 -0.6804 -0.8421 -0.7730
18669TIP3    H277499   5.937   4.837  17.335  0.4154 -0.2118 -0.6078
18670TIP3   OH277500   4.882   4.827  13.258  0.4176  0.2836  0.2434
18670TIP3    H177501   4.844   4.801  13.174 -0.4352 -0.6920  0.9009
18670TIP3    H277502   4.944   4.896  13.237 -2.2795  2.5521 -0.8270
18671TIP3   OH277503   5.176   2.224   5.378  0.6605 -0.6257 -0.1072
18671TIP3    H177504   5.087   2.202   5.406 -0.3410  1.6387 -1.2860
18671TIP3    H277505   5.187   2.179   5.295  1.0492 -1.7642  0.5403
18672TIP3   OH277506   3.998   2.877   2.162 -0.1126  0.6652  0.1776
18672TIP3    H177507   4.034   2.957   2.199  1.1511  0.5464 -0.7305
18672TIP3    H277508   4.041   2.806   2.209 -0.9977  0.5069  0.7654
18673TIP3   OH277509   4.608   6.634  15.814  0.8199 -0.3606  0.3993
18673TIP3    H177510   4.592   6.684  15.894  0.1692 -0.7560  0.5173
18673TIP3    H277511   4.522   6.619  15.776  1.2457  2.1234 -1.8335
18674TIP3   OH277512   2.693   0.866  12.785  0.4521 -0.0261  0.2400
18674TIP3    H177513   2.721   0.956  12.769 -0.7550  0.4705  0.7845
18674TIP3    H277514   2.738   0.841  12.866  1.2283 -0.1246 -0.2127
18675TIP3   OH277515   3.897   4.352  16.760 -0.9697  0.0908 -0.1087
18675TIP3    H177516   3.881   4.283  16.695  0.7507  1.1138 -1.7412
18675TIP3    H277517   3.987   4.339  16.788 -1.0989  0.7944  0.6827
18676TIP3   OH277518   5.160   2.880  15.676 -0.1641 -0.9269  0.0545
18676TIP3    H177519   5.100   2.870  15.750 -0.5356 -0.0777 -0.1162
18676TIP3    H277520   5.175   2.790  15.646  1.0929 -1.4238  1.9891
18677TIP3   OH277521   0.789   1.841  13.434  0.4307  0.4872 -0.1183
18677TIP3    H177522   0.739   1.782  13.377  1.4036  0.2729 -0.7839
18677TIP3    H277523   0.836   1.899  13.373  2.2135 -0.3372  0.3892
18678TIP3   OH277524   5.917   5.941  16.669 -0.3104  0.0098 -0.9368
18678TIP3    H177525   5.972   5.984  16.734  0.6284 -0.3418 -1.4722
18678TIP3    H277526   5.827   5.959  16.697  0.0749  0.5269  0.0027
18679TIP3   OH277527   4.391   1.827  15.317  0.2929 -0.6921  0.1556
18679TIP3    H177528   4.478   1.787  15.310  0.7874 -0.0716  2.0874
18679TIP3    H277529   4.364   1.809  15.407 -1.4874 -0.6199 -0.3223
18680TIP3   OH277530   6.232   1.611   1.009 -0.1743  0.0950  0.1140
18680TIP3    H177531   6.290   1.622   1.084 -0.4201 -1.3907  0.5691
18680TIP3    H277532   6.204   1.699   0.986  1.0528  0.6944  0.8567
18681TIP3   OH277533   5.476   1.184  15.439  0.1725 -0.0285 -0.1906
18681TIP3    H177534   5.403   1.144  15.486  0.2610  0.5339  0.4519
18681TIP3    H277535   5.467   1.153  15.349 -2.0172  1.5492 -0.6047
18682TIP3   OH277536   6.659   3.006  13.925  0.2220 -0.0235 -0.8394
18682TIP3    H177537   6.684   2.943  13.858 -2.3000 -1.0700 -0.9201
18682TIP3    H277538   6.674   3.092  13.885 -0.1214 -0.6225 -2.3220
18683TIP3   OH277539   2.484   4.662   4.104 -0.4019 -0.2712  0.2818
18683TIP3    H177540   2.483   4.666   4.200  4.3363 -0.1320  0.5606
18683TIP3    H277541   2.522   4.577   4.084 -1.7319 -0.4933 -1.6087
18684TIP3   OH277542   4.632   1.043  12.362  0.6270 -0.3297 -0.1530
18684TIP3    H177543   4.554   1.090  12.334  1.6320  0.7473 -1.2669
18684TIP3    H277544   4.608   1.006  12.447 -0.2782  2.0870  0.7383
18685TIP3   OH277545   5.134   4.698   1.531  0.2596  0.1390  0.2700
18685TIP3    H177546   5.067   4.646   1.575  0.3617 -1.0553 -0.8947
18685TIP3    H277547   5.125   4.674   1.438  0.9591  1.4990 -0.1708
18686TIP3   OH277548   1.543   6.256   1.719  0.0089 -0.4710 -0.4102
18686TIP3    H177549   1.541   6.352   1.713 -0.5018 -0.5359 -1.4355
18686TIP3    H277550   1.451   6.230   1.712 -0.1392 -0.9330  2.2645
18687TIP3   OH277551   3.474   1.492   2.856 -0.2363  0.0976  0.2715
18687TIP3    H177552   3.482   1.398   2.837 -1.6500 -0.0371  0.2472
18687TIP3    H277553   3.527   1.505   2.935  0.4916 -0.5923 -0.0906
18688TIP3   OH277554   5.028   5.659   3.258  0.1041  0.5120  0.3247
18688TIP3    H177555   5.035   5.627   3.348 -0.9627 -0.5013  0.0663
18688TIP3    H277556   5.057   5.586   3.204 -0.9884  0.4814 -0.2284
18689TIP3   OH277557   0.986   3.525  16.197  0.4270  0.1216  0.5035
18689TIP3    H177558   0.980   3.602  16.141 -1.4324 -0.3093  0.0345
18689TIP3    H277559   0.988   3.560  16.286  2.5135  0.7793  0.2515
18690TIP3   OH277560   6.735   6.223  12.990 -0.0297 -0.3042 -0.4130
18690TIP3    H177561   6.745   6.229  12.895  0.3847  1.0429 -0.2962
18690TIP3    H277562   6.664   6.284  13.010  0.5942  0.2130  0.2533
18691TIP3   OH277563   3.503   3.857   3.675 -0.1935 -0.1690  0.2361
18691TIP3    H177564   3.447   3.924   3.636  0.3830  0.2396  0.0940
18691TIP3    H277565   3.510   3.881   3.767 -1.0556 -0.7864  0.4704
18692TIP3   OH277566   4.015   3.459   4.572  0.4054 -0.4769  0.0972
18692TIP3    H177567   4.032   3.517   4.498  1.8866  0.9311  1.4725
18692TIP3    H277568   3.989   3.518   4.643 -1.3848 -1.8253  0.6452
18693TIP3   OH277569   5.541   1.466  11.802  0.0737  0.1577  0.3357
18693TIP3    H177570   5.501   1.396  11.853  0.6480  0.1961  0.8458
18693TIP3    H277571   5.635   1.457  11.817  0.3758 -0.6993 -1.8545
18694TIP3   OH277572   6.115   3.795   1.679  0.0568  0.2036 -0.0823
18694TIP3    H177573   6.162   3.833   1.605  0.5698 -1.6985 -0.8032
18694TIP3    H277574   6.023   3.801   1.655  0.2024 -0.0801 -0.7428
18695TIP3   OH277575   4.924   3.246   2.226 -0.1971  0.3765  0.1724
18695TIP3    H177576   4.856   3.259   2.159 -0.6967  1.1047  0.8055
18695TIP3    H277577   4.886   3.182   2.286 -0.2211  0.6047  0.3983
18696TIP3   OH277578   4.751   4.837   2.942  0.0656 -0.3051  0.0709
18696TIP3    H177579   4.844   4.821   2.960  0.4220  1.8826  0.5635
18696TIP3    H277580   4.736   4.801   2.855  1.1601 -1.4124  0.3222
18697TIP3   OH277581   6.179   1.122  11.452 -0.1837  0.0442  0.2085
18697TIP3    H177582   6.151   1.034  11.478 -1.1531  0.3216  0.1349
18697TIP3    H277583   6.100   1.162  11.415  0.4210  0.7072 -0.3899
18698TIP3   OH277584   4.114   1.189   1.610 -0.2740 -0.6704  0.2250
18698TIP3    H177585   4.145   1.279   1.596 -1.4733 -0.2055  0.4267
18698TIP3    H277586   4.083   1.188   1.700 -1.6620 -0.8407 -0.2248
18699TIP3   OH277587   1.445   4.392  15.361 -0.4921  0.1781 -0.8258
18699TIP3    H177588   1.455   4.302  15.332  1.0480  0.2042 -0.4602
18699TIP3    H277589   1.351   4.409  15.356 -0.5950 -0.7758 -2.8705
18700TIP3   OH277590   5.164   5.041  12.659 -0.2783  0.1451 -0.7881
18700TIP3    H177591   5.130   5.011  12.743  0.5553 -0.7975 -0.7774
18700TIP3    H277592   5.169   5.137  12.668  0.7794 -0.0166  0.6201
18701TIP3   OH277593   0.540   4.351   3.241  0.2664 -0.4359 -0.8466
18701TIP3    H177594   0.557   4.411   3.168 -1.7630 -0.7171 -1.6169
18701TIP3    H277595   0.622   4.302   3.251  1.2244  0.9028 -1.6674
18702TIP3   OH277596   0.350   0.154  16.249 -0.4822  0.0117 -0.7958
18702TIP3    H177597   0.314   0.126  16.165 -1.6134 -0.2665 -0.2372
18702TIP3    H277598   0.317   0.243  16.261 -0.3390  0.0447 -0.6413
18703TIP3   OH277599   5.028   1.128   7.111  0.3313  0.0125 -0.1248
18703TIP3    H177600   4.941   1.102   7.144 -0.5866  0.9443 -1.7050
18703TIP3    H277601   5.067   1.177   7.184 -0.6872  0.0440  0.4217
18704TIP3   OH277602   1.911   0.029  13.824  0.1069  0.1682  0.1338
18704TIP3    H177603   1.847  -0.037  13.801 -1.3263  1.4384  0.3281
18704TIP3    H277604   1.924   0.080  13.744 -1.0605  1.4610  0.7364
18705TIP3   OH277605   1.095   6.608  13.768  0.1048  0.2381  0.1996
18705TIP3    H177606   1.000   6.624  13.767  0.0926  0.6542  2.5811
18705TIP3    H277607   1.105   6.525  13.814  0.9377  1.1140  1.7033
18706TIP3   OH277608   6.346   4.968  12.691 -0.3224 -0.3781 -0.0196
18706TIP3    H177609   6.339   4.981  12.785  2.4313 -0.2460  0.2464
18706TIP3    H277610   6.438   4.984  12.671 -0.8501 -0.2467 -2.7762
18707TIP3   OH277611   6.321   5.735  15.311  0.0316 -0.1089  0.2975
18707TIP3    H177612   6.277   5.813  15.278  1.2264  0.0907 -0.8720
18707TIP3    H277613   6.356   5.692  15.233  0.7936 -0.9524  1.0803
18708TIP3   OH277614   2.655   3.937  11.043  0.8380  0.1554  0.6542
18708TIP3    H177615   2.566   3.945  11.079  1.2371  2.3302  1.3366
18708TIP3    H277616   2.697   4.019  11.068  3.0341 -0.8028  0.2653
18709TIP3   OH277617   5.755   4.362  14.642 -0.5927 -0.0583  0.3148
18709TIP3    H177618   5.763   4.273  14.609  0.2639 -0.2348  0.9671
18709TIP3    H277619   5.838   4.404  14.620 -1.1699  0.7465 -0.4221
18710TIP3   OH277620   0.385   1.625  14.957  0.5973 -0.6593  0.1159
18710TIP3    H177621   0.454   1.676  14.915  1.5903 -1.0311  1.2569
18710TIP3    H277622   0.377   1.545  14.905 -1.3104  0.7629 -1.9924
18711TIP3   OH277623   3.801   3.038   5.359  0.1667  0.2082  0.1200
18711TIP3    H177624   3.745   3.003   5.429 -1.3682  0.0440 -1.1369
18711TIP3    H277625   3.817   2.964   5.301  0.0396  0.7111 -0.5666
18712TIP3   OH277626   1.956   0.732  15.763  0.8292  0.0080 -0.9422
18712TIP3    H177627   2.048   0.756  15.758  0.0740  3.0970 -2.0073
18712TIP3    H277628   1.937   0.729  15.857  1.7060  0.6639 -0.7324
18713TIP3   OH277629   2.905   1.893   0.513 -0.2658  0.1754  0.1391
18713TIP3    H177630   2.882   1.921   0.424  0.3503  0.1891 -0.0243
18713TIP3    H277631   2.980   1.948   0.537  0.3418 -0.6467  0.1922
18714TIP3   OH277632   4.380   5.478   3.209 -0.3511  0.2913 -0.2339
18714TIP3    H177633   4.386   5.504   3.117  1.9698 -0.4445 -0.3717
18714TIP3    H277634   4.323   5.401   3.208  1.7551 -1.3629 -1.5412
18715TIP3   OH277635   1.639   3.630   2.362 -0.7485  0.1928  0.1651
18715TIP3    H177636   1.659   3.580   2.440  1.4253  0.8401  0.0916
18715TIP3    H277637   1.701   3.599   2.296 -1.4656  0.7744 -0.8295
18716TIP3   OH277638   0.462   5.197   4.262 -0.1446 -0.6643 -0.6588
18716TIP3    H177639   0.457   5.261   4.191  1.5041 -0.4541 -0.6242
18716TIP3    H277640   0.412   5.122   4.230  0.6922 -0.6364 -2.1395
18717TIP3   OH277641   5.449   0.436  11.720 -0.3740 -0.4629 -0.2368
18717TIP3    H177642   5.393   0.493  11.773  0.3336  1.6277 -1.5783
18717TIP3    H277643   5.526   0.421  11.774  0.7334  2.3559 -0.8306
18718TIP3   OH277644   1.313   4.925  14.853 -0.0217  0.4054  0.0797
18718TIP3    H177645   1.305   4.992  14.921  0.2271 -1.3546  1.9787
18718TIP3    H277646   1.225   4.886  14.847  0.2743 -0.3478  0.4243
18719TIP3   OH277647   4.603   6.689   1.842 -0.1977 -0.2128  0.2824
18719TIP3    H177648   4.633   6.705   1.752 -1.2754 -1.1766 -0.2774
18719TIP3    H277649   4.684   6.685   1.894  0.3714  2.5459 -0.2131
18720TIP3   OH277650   3.422   0.171  16.943  0.3296  0.7531  0.0558
18720TIP3    H177651   3.358   0.235  16.975  0.0700  0.9549 -0.8274
18720TIP3    H277652   3.503   0.194  16.988 -0.0909  0.8435  0.7740
18721TIP3   OH277653   4.729   6.016  13.752 -0.1855 -0.7278  0.2188
18721TIP3    H177654   4.634   6.024  13.740 -0.3795  1.2670  2.3191
18721TIP3    H277655   4.762   6.105  13.743  1.0739 -0.9290  2.1538
18722TIP3   OH277656   4.896   0.481   6.344  0.0330 -0.3842 -0.2000
18722TIP3    H177657   4.858   0.557   6.388 -1.9350 -1.2448 -0.2906
18722TIP3    H277658   4.916   0.420   6.414  1.7743  0.2215 -0.1113
18723TIP3   OH277659   5.124   2.389  14.396 -0.1342  0.2289  0.1923
18723TIP3    H177660   5.194   2.350  14.343 -1.0517 -1.8608  0.4079
18723TIP3    H277661   5.051   2.328  14.387 -0.9381  0.7830  2.3459
18724TIP3   OH277662   0.596   2.217   5.493  0.3069  0.0676  0.4275
18724TIP3    H177663   0.542   2.164   5.552 -0.4835 -0.8248 -1.0152
18724TIP3    H277664   0.537   2.286   5.462  0.3852 -0.0972 -0.1088
18725TIP3   OH277665   6.681   6.628   4.611 -0.0974  0.3561 -0.2571
18725TIP3    H177666   6.613   6.671   4.559 -2.2007 -1.2119  1.0135
18725TIP3    H277667   6.704   6.550   4.561 -0.2820  0.1604 -0.0431
18726TIP3   OH277668   5.532   5.528  11.400  0.4190  0.5805 -0.9611
18726TIP3    H177669   5.478   5.607  11.394 -0.1411  0.3222  0.3818
18726TIP3    H277670   5.469   5.455  11.397  0.6779  0.2735  0.4553
18727TIP3   OH277671   2.833   4.267  15.397  0.2891  0.4036 -0.5912
18727TIP3    H177672   2.844   4.184  15.443  1.0442  0.9462  0.2562
18727TIP3    H277673   2.752   4.304  15.432  0.3247  0.3382 -0.4393
18728TIP3   OH277674   4.364   5.570  15.985  0.3282 -0.6029  0.0773
18728TIP3    H177675   4.407   5.520  16.055 -1.6284  0.3432  2.0924
18728TIP3    H277676   4.284   5.522  15.966 -0.8872  0.9072  1.0635
18729TIP3   OH277677   1.697   6.327  12.504  0.1030  0.2671  0.2524
18729TIP3    H177678   1.776   6.377  12.484  1.4567  0.3961  4.9305
18729TIP3    H277679   1.641   6.388  12.551 -1.4050 -0.7601 -0.1289
18730TIP3   OH277680   2.872   2.090  11.781 -0.1407 -0.3576  0.5051
18730TIP3    H177681   2.933   2.161  11.760  0.3983 -1.1340 -0.6415
18730TIP3    H277682   2.813   2.128  11.846  0.5310  0.9337  0.3974
18731TIP3   OH277683   1.074   2.133   3.269 -0.0226 -0.1284 -0.1859
18731TIP3    H177684   1.072   2.190   3.347 -1.1920  2.4167 -1.9184
18731TIP3    H277685   1.116   2.053   3.299 -0.7642  0.5749  3.1639
18732TIP3   OH277686   6.325   4.460  14.288  0.2268 -0.0972 -0.2466
18732TIP3    H177687   6.258   4.447  14.355 -0.1818 -2.0262 -0.9341
18732TIP3    H277688   6.406   4.474  14.336 -0.5349  1.7006  0.6001
18733TIP3   OH277689   2.505   5.029   3.485 -0.1132  0.1174  0.3285
18733TIP3    H177690   2.513   5.009   3.578 -0.5950  1.5057  0.6990
18733TIP3    H277691   2.454   5.110   3.483 -1.4621 -0.7302 -1.2209
18734TIP3   OH277692   5.003   0.170   2.099 -0.3521 -0.4398 -0.1656
18734TIP3    H177693   5.035   0.148   2.187 -0.1476  1.2468  0.2277
18734TIP3    H277694   4.926   0.224   2.115 -2.3723 -2.8703 -1.1004
18735TIP3   OH277695   2.524   4.870  12.405 -0.0642  0.6060  0.6394
18735TIP3    H177696   2.619   4.884  12.406  0.6431 -2.9215 -1.0702
18735TIP3    H277697   2.504   4.845  12.315 -2.3229 -0.4273  1.3471
18736TIP3   OH277698   5.038   6.180   2.402 -0.0026 -0.5099  0.2477
18736TIP3    H177699   5.093   6.249   2.438  0.0712 -0.7086  0.5223
18736TIP3    H277700   5.072   6.165   2.314  1.3313 -1.6190  0.9027
18737TIP3   OH277701   2.487   3.073  13.009 -0.2019  0.6067 -0.1777
18737TIP3    H177702   2.494   3.104  13.099 -0.4276 -0.9305  0.4054
18737TIP3    H277703   2.537   2.991  13.009 -0.5198  0.4016 -1.3540
18738TIP3   OH277704   0.633   1.172  11.487  0.0250 -0.4386  0.2408
18738TIP3    H177705   0.658   1.080  11.484  0.3439 -0.3328 -1.0365
18738TIP3    H277706   0.668   1.209  11.406 -0.9286  0.5887  0.2669
18739TIP3   OH277707   1.157   2.143  14.676  0.6069  0.2213 -0.4311
18739TIP3    H177708   1.168   2.166  14.769  1.3853  0.4100 -0.5687
18739TIP3    H277709   1.245   2.147  14.640  0.1759  1.2131 -1.4243
18740TIP3   OH277710   2.247   4.461  12.314  0.2139  0.1436  0.2423
18740TIP3    H177711   2.221   4.369  12.320 -0.5696  0.3267 -0.1663
18740TIP3    H277712   2.223   4.498  12.398 -1.3424  0.4120 -0.2792
18741TIP3   OH277713   3.919   1.698   2.575 -0.5813  0.1603  0.0965
18741TIP3    H177714   3.928   1.632   2.507 -0.1845 -0.5799  0.8593
18741TIP3    H277715   3.872   1.655   2.646 -2.0415  1.2681 -0.1418
18742TIP3   OH277716   1.342   5.209  14.415 -0.4278  0.0334 -0.8262
18742TIP3    H177717   1.364   5.164  14.496  2.3158  3.8678  0.8850
18742TIP3    H277718   1.422   5.258  14.392 -2.5748  2.8819 -3.1147
18743TIP3   OH277719   3.124   3.579  14.502 -0.4555 -0.3564  0.0651
18743TIP3    H177720   3.208   3.624  14.512 -1.1124  0.7394  0.7858
18743TIP3    H277721   3.109   3.577  14.408  0.5755 -0.9611 -0.1076
18744TIP3   OH277722   2.788   2.010   3.485 -0.4184  0.2709 -0.0748
18744TIP3    H177723   2.847   2.014   3.410  0.9020  1.8406  0.9683
18744TIP3    H277724   2.839   2.046   3.557 -2.1213  0.1184  1.2736
18745TIP3   OH277725   1.109   2.415   0.158 -0.2900  0.0852 -0.1737
18745TIP3    H177726   1.096   2.504   0.127  3.5335  0.0315 -2.5216
18745TIP3    H277727   1.090   2.359   0.083  2.7626 -0.5521 -0.6053
18746TIP3   OH277728   1.502   0.712  12.372  0.2723  0.0532  0.0508
18746TIP3    H177729   1.580   0.700  12.317  0.7544 -1.0206  0.9190
18746TIP3    H277730   1.486   0.626  12.409 -1.6244  0.1619 -0.4526
18747TIP3   OH277731   5.880   5.659   5.572  0.2672 -0.1926  0.4851
18747TIP3    H177732   5.890   5.705   5.488 -0.2717 -1.2003 -0.1469
18747TIP3    H277733   5.937   5.583   5.565 -1.2424 -1.3547  0.2191
18748TIP3   OH277734   0.240   3.094   2.094  0.9080 -0.6693  0.2007
18748TIP3    H177735   0.258   3.175   2.046 -0.5690  0.9298  2.1461
18748TIP3    H277736   0.296   3.098   2.171 -1.6529  0.3744  2.1469
18749TIP3   OH277737   4.299   0.044   0.985 -0.1179 -0.1359 -0.2940
18749TIP3    H177738   4.212   0.075   0.958 -1.4221  0.1299  3.5507
18749TIP3    H277739   4.305  -0.045   0.951 -2.9581 -0.9896  1.0751
18750TIP3   OH277740   1.688   0.634   0.730  0.4206  0.7012  0.0242
18750TIP3    H177741   1.678   0.729   0.719 -0.0362  0.8433  1.4882
18750TIP3    H277742   1.680   0.620   0.824 -0.3346 -0.9019 -0.2526
18751TIP3   OH277743   3.901   5.569   4.503  0.2081 -0.4663  0.6561
18751TIP3    H177744   3.985   5.580   4.548  0.5715  0.3498 -0.1810
18751TIP3    H277745   3.835   5.596   4.567  0.4810 -2.1479  1.7021
18752TIP3   OH277746   2.141   0.204   0.445 -0.3911  0.2625  0.2701
18752TIP3    H177747   2.104   0.118   0.466 -0.2772  0.5999  1.9918
18752TIP3    H277748   2.086   0.266   0.491  0.5929  0.9862  0.5131
18753TIP3   OH277749   4.733   1.019  16.172 -0.1986  0.2119  0.3599
18753TIP3    H177750   4.824   0.997  16.151 -0.6735 -1.2879 -0.2719
18753TIP3    H277751   4.727   1.007  16.267  1.0703  3.6194  1.0040
18754TIP3   OH277752   4.034   1.238   0.609  0.0416 -0.4067 -0.0569
18754TIP3    H177753   3.982   1.309   0.573  1.4320 -0.2895 -2.0129
18754TIP3    H277754   4.081   1.277   0.683 -1.5053 -0.1624  0.8429
18755TIP3   OH277755   4.158   4.603  15.040 -0.5405 -0.2506  0.0370
18755TIP3    H177756   4.065   4.583  15.050 -0.0943 -1.8029  1.4189
18755TIP3    H277757   4.197   4.581  15.124  1.3230 -1.0682 -0.9884
18756TIP3   OH277758   1.226   0.012   5.612 -0.3272 -0.2033 -0.2866
18756TIP3    H177759   1.269   0.091   5.646  1.5024 -0.4343 -1.8637
18756TIP3    H277760   1.152   0.046   5.561  0.9586  0.6423 -1.7088
18757TIP3   OH277761   1.077   1.289  15.210  0.2683 -0.3819  0.0326
18757TIP3    H177762   1.040   1.342  15.281  0.0218  0.5911 -0.7897
18757TIP3    H277763   1.170   1.314  15.209  0.2977 -0.4897  0.0952
18758TIP3   OH277764   0.552   0.295   4.175  0.1494  0.8891  0.4206
18758TIP3    H177765   0.485   0.280   4.242 -0.4490 -3.1256 -0.8150
18758TIP3    H277766   0.562   0.390   4.172 -3.4065  1.5269  2.6607
18759TIP3   OH277767   5.337   3.249   6.408  0.4271 -0.3276  0.1548
18759TIP3    H177768   5.431   3.266   6.401  0.3179  0.5155  0.6651
18759TIP3    H277769   5.331   3.159   6.440  1.0590 -0.3591  0.1953
18760TIP3   OH277770   2.269   4.159  14.260 -0.2986 -0.5276 -0.1840
18760TIP3    H177771   2.326   4.132  14.188  0.9819 -0.9653  0.9540
18760TIP3    H277772   2.262   4.254  14.251 -1.0388 -0.6850 -1.4963
18761TIP3   OH277773   4.807   3.909   3.634  0.0103 -0.0083 -0.0510
18761TIP3    H177774   4.852   3.826   3.620  1.4645  0.6532  0.4312
18761TIP3    H277775   4.714   3.887   3.636  0.2702 -1.3922 -1.4869
18762TIP3   OH277776   2.829   4.926  17.313 -0.2707  0.2795  0.2801
18762TIP3    H177777   2.850   5.010  17.353  0.8490 -0.3354  1.0477
18762TIP3    H277778   2.914   4.890  17.286 -0.7251 -0.6009 -0.0336
18763TIP3   OH277779   2.851   6.622  14.564 -0.1110 -0.3211  0.2915
18763TIP3    H177780   2.788   6.571  14.614  0.3318 -1.4761 -0.2836
18763TIP3    H277781   2.884   6.687  14.626  0.3886 -1.6853  1.5009
18764TIP3   OH277782   3.276   1.557   3.756 -0.1906  0.0592 -0.4464
18764TIP3    H177783   3.201   1.602   3.794  0.7790  0.5522  0.9617
18764TIP3    H277784   3.335   1.627   3.728  0.3578 -0.3174 -0.2510
18765TIP3   OH277785   0.902   0.998   0.996  0.0834 -0.2396  0.1331
18765TIP3    H177786   0.919   1.017   0.904  0.6010 -1.5457 -0.0588
18765TIP3    H277787   0.947   0.915   1.012 -0.3106 -0.2143  1.4671
18766TIP3   OH277788   2.045   3.063  15.217  0.2599 -0.7128 -0.2441
18766TIP3    H177789   1.993   2.988  15.248 -2.9409  1.2980 -0.2298
18766TIP3    H277790   2.010   3.138  15.266 -0.6088  1.6346 -4.0142
18767TIP3   OH277791   0.061   2.322   0.761  0.8163 -0.4759  0.1497
18767TIP3    H177792   0.067   2.282   0.674  0.7167  0.1934 -0.1761
18767TIP3    H277793   0.047   2.415   0.743 -0.0126 -0.4430  0.8822
18768TIP3   OH277794   6.756   4.308   2.151 -0.3661  0.4500  0.6162
18768TIP3    H177795   6.842   4.351   2.154 -0.9096  1.7599 -1.0036
18768TIP3    H277796   6.774   4.216   2.173  1.5989  0.5092 -0.4936
18769TIP3   OH277797   5.185   1.214  15.784  0.3019  0.0751 -0.4196
18769TIP3    H177798   5.218   1.298  15.752 -0.4925  0.8530  0.7410
18769TIP3    H277799   5.200   1.216  15.878 -0.6666 -0.6550 -0.2337
18770TIP3   OH277800   1.216   2.830  11.424 -0.2875 -0.2181 -0.6715
18770TIP3    H177801   1.296   2.789  11.391  1.0330  0.9149  0.9588
18770TIP3    H277802   1.166   2.758  11.461  0.5005 -0.7972 -0.7106
18771TIP3   OH277803   2.728   2.728   2.592 -0.1720 -0.1379 -0.5705
18771TIP3    H177804   2.707   2.698   2.504 -1.6508  0.6955 -0.5311
18771TIP3    H277805   2.769   2.814   2.579  2.9347 -1.4773 -0.6093
18772TIP3   OH277806   6.488   3.940   6.166  0.4118 -0.3744 -0.3872
18772TIP3    H177807   6.496   4.018   6.221 -0.6625 -0.1687 -0.5011
18772TIP3    H277808   6.563   3.886   6.189 -0.2148 -0.4746  1.5881
18773TIP3   OH277809   2.456   3.581  10.582 -0.7271 -0.1676  0.2416
18773TIP3    H177810   2.517   3.582  10.509  1.7001 -0.4267  2.1273
18773TIP3    H277811   2.465   3.493  10.620 -2.5485 -0.3323  0.4271
18774TIP3   OH277812   1.102   0.115   0.102 -0.3030  0.0483  0.0566
18774TIP3    H177813   1.125   0.179   0.035  0.2747  0.8748  1.0121
18774TIP3    H277814   1.024   0.152   0.144 -0.8403 -0.6126 -0.3299
18775TIP3   OH277815   3.692   3.662   5.287 -0.0268 -1.0420 -0.1125
18775TIP3    H177816   3.685   3.654   5.382 -2.1268 -1.3359 -0.2384
18775TIP3    H277817   3.751   3.736   5.273  0.3416 -1.0192  1.4134
18776TIP3   OH277818   2.287   4.796   5.739 -0.8060 -0.0650  0.2973
18776TIP3    H177819   2.226   4.843   5.795 -0.4290 -0.0708  0.7164
18776TIP3    H277820   2.351   4.757   5.799  0.0192  0.5244 -0.1703
18777TIP3   OH277821   0.082   6.114  16.141  0.4567  0.5300  0.6155
18777TIP3    H177822   0.095   6.195  16.189  2.6477  0.8101 -0.3146
18777TIP3    H277823   0.092   6.139  16.049  0.9526 -0.7341  0.3047
18778TIP3   OH277824   5.896   5.063   4.085  0.3460 -0.3263 -0.2541
18778TIP3    H177825   5.860   5.024   4.164 -1.1091  3.2590  1.0831
18778TIP3    H277826   5.986   5.087   4.109  0.2363 -0.1406 -0.0261
18779TIP3   OH277827   4.282   5.188   2.560 -1.1556 -0.0984  0.1040
18779TIP3    H177828   4.273   5.277   2.592 -2.8423 -0.2939  0.2735
18779TIP3    H277829   4.293   5.135   2.639 -2.3019 -0.2457  0.1904
18780TIP3   OH277830   1.658   6.692   3.462 -0.1509 -0.8181 -0.4389
18780TIP3    H177831   1.747   6.658   3.459 -0.3061 -1.2419 -0.3614
18780TIP3    H277832   1.603   6.615   3.452 -0.5110 -0.5724 -0.3722
18781TIP3   OH277833   3.786   3.550  15.360 -0.2148  0.4180  0.0217
18781TIP3    H177834   3.742   3.589  15.435  0.2662  1.5781 -0.2575
18781TIP3    H277835   3.879   3.562  15.378 -0.0996  1.6130 -1.1658
18782TIP3   OH277836   2.808   5.321   2.014 -0.2555 -0.3496 -0.3813
18782TIP3    H177837   2.825   5.301   1.922 -1.5239 -0.0814 -0.6888
18782TIP3    H277838   2.757   5.247   2.045 -1.4121  0.4110 -0.4060
18783TIP3   OH277839   5.461   3.318   0.913 -0.8068  0.3617  0.6461
18783TIP3    H177840   5.466   3.401   0.961  0.5595  0.5078  0.2717
18783TIP3    H277841   5.522   3.260   0.957 -0.4843  0.0929 -0.1342
18784TIP3   OH277842   6.042   2.507  13.986 -0.1282 -0.0065  0.0364
18784TIP3    H177843   6.050   2.450  13.909  2.3427 -0.5572  0.6072
18784TIP3    H277844   5.974   2.466  14.039 -1.8449  0.3471 -1.7656
18785TIP3   OH277845   2.195   4.957  16.497 -0.3953 -0.0578  0.3553
18785TIP3    H177846   2.236   4.934  16.413 -0.8058 -2.0512  0.6445
18785TIP3    H277847   2.256   5.019  16.537  0.0656  0.5377 -1.1758
18786TIP3   OH277848   1.595   6.018  15.279  0.2080 -0.0252  0.5382
18786TIP3    H177849   1.544   5.961  15.222  2.4915 -1.7987  0.1181
18786TIP3    H277850   1.613   6.095  15.226 -2.0882  0.7717  0.7746
18787TIP3   OH277851   0.468   1.444  11.863  0.0908  0.5298 -0.2030
18787TIP3    H177852   0.468   1.536  11.837 -2.4591  0.7839  0.4471
18787TIP3    H277853   0.422   1.399  11.792 -0.1878  0.0191  0.2992
18788TIP3   OH277854   6.439   3.614   5.867  0.1951 -0.0431 -0.1271
18788TIP3    H177855   6.468   3.705   5.862  0.7296 -0.1642  0.5699
18788TIP3    H277856   6.502   3.572   5.926 -1.2649 -0.3627  1.2751
18789TIP3   OH277857   0.461   0.063  10.881  0.1260 -0.2608  0.1562
18789TIP3    H177858   0.372   0.051  10.915  0.3719 -0.7775  0.6382
18789TIP3    H277859   0.487  -0.025  10.854  0.1173  0.0544 -0.9407
18790TIP3   OH277860   3.774   0.797  12.320 -0.1142 -0.2334  0.0237
18790TIP3    H177861   3.738   0.803  12.232  0.1945  1.4687 -0.0318
18790TIP3    H277862   3.700   0.767  12.374 -0.9339  0.8037 -0.4762
18791TIP3   OH277863   0.163   2.895   4.336  0.2232 -0.3863  0.5358
18791TIP3    H177864   0.180   2.913   4.428  0.9207 -0.7003  0.4769
18791TIP3    H277865   0.237   2.840   4.308  1.5088  1.8729 -0.8849
18792TIP3   OH277866   1.239   3.042  14.049  0.4772 -0.4271  0.3597
18792TIP3    H177867   1.209   3.055  14.139 -0.9268  2.1445 -0.4095
18792TIP3    H277868   1.159   3.040  13.997  1.3513  0.0681 -1.0501
18793TIP3   OH277869   1.623   2.486   5.848  0.6199 -0.0015  0.4494
18793TIP3    H177870   1.563   2.531   5.908 -1.1720 -0.3901 -0.9804
18793TIP3    H277871   1.625   2.396   5.880  0.1971 -0.0541  0.3374
18794TIP3   OH277872   5.855   2.091  17.338 -0.2063 -0.5384 -0.6984
18794TIP3    H177873   5.777   2.129  17.298 -0.2413  2.8802  2.1800
18794TIP3    H277874   5.846   2.109  17.431  3.5536 -0.8943 -0.0928
18795TIP3   OH277875   4.866   2.975   4.128  0.2727 -0.2066  0.4847
18795TIP3    H177876   4.833   3.044   4.185 -2.7629  0.8840 -2.2328
18795TIP3    H277877   4.911   3.022   4.057  0.9570 -1.2496  0.1997
18796TIP3   OH277878   3.184   6.308   4.227 -0.1135 -0.5920  0.6163
18796TIP3    H177879   3.099   6.339   4.258  0.2589 -0.3521  1.4332
18796TIP3    H277880   3.195   6.223   4.270 -0.0454 -0.7333  0.3215
18797TIP3   OH277881   4.111   3.771   2.761  0.5720 -0.0176  0.1425
18797TIP3    H177882   4.108   3.866   2.766 -1.0049 -0.1024  1.8361
18797TIP3    H277883   4.111   3.752   2.667 -0.2086  1.6300 -0.2304
18798TIP3   OH277884   4.904   2.133  15.693  0.2480  0.7257  0.9696
18798TIP3    H177885   4.916   2.161  15.602 -0.4292 -0.8316  0.3766
18798TIP3    H277886   4.955   2.052  15.700 -2.2100 -0.9328  1.0238
18799TIP3   OH277887   3.635   5.175   1.503  0.0344  0.1391 -0.1904
18799TIP3    H177888   3.556   5.185   1.556 -0.5714 -1.6645 -0.6431
18799TIP3    H277889   3.686   5.254   1.518 -0.6730  0.2145  2.1140
18800TIP3   OH277890   3.373   4.107  12.109  0.3185  0.5055 -0.5834
18800TIP3    H177891   3.291   4.141  12.072  0.1076  0.5823 -0.0442
18800TIP3    H277892   3.439   4.130  12.044  0.1987  2.0319 -0.2024
18801TIP3   OH277893   6.602   2.570   5.727 -0.9629  0.3680  0.5907
18801TIP3    H177894   6.566   2.624   5.797 -0.6972 -1.3737  2.1329
18801TIP3    H277895   6.693   2.555   5.752 -0.3252  1.1907 -1.0854
18802TIP3   OH277896   3.252   5.519  14.505  0.1095  0.1482  0.9296
18802TIP3    H177897   3.337   5.561  14.519  0.5721  0.1570 -1.4707
18802TIP3    H277898   3.240   5.463  14.581  1.7573  0.9587  1.8428
18803TIP3   OH277899   1.536   4.614   1.230 -0.2886  0.1008 -0.2041
18803TIP3    H177900   1.520   4.651   1.143 -1.1606  0.3569  0.0550
18803TIP3    H277901   1.544   4.690   1.287 -0.1460 -0.0767  0.0139
18804TIP3   OH277902   0.505   5.658  13.358  0.0663  0.1054 -0.3939
18804TIP3    H177903   0.459   5.579  13.387  0.0460 -0.1557 -1.1318
18804TIP3    H277904   0.478   5.725  13.420  1.4405 -0.8411  1.3602
18805TIP3   OH277905   5.689   2.233   1.954 -0.1412 -0.3647  0.1039
18805TIP3    H177906   5.747   2.190   1.891 -1.5514 -0.9523 -0.8253
18805TIP3    H277907   5.749   2.276   2.016  1.2740 -0.7598 -0.9458
18806TIP3   OH277908   4.514   3.475  14.971  0.1373  0.5948  0.3722
18806TIP3    H177909   4.491   3.384  14.989  1.2378  0.0605 -0.8187
18806TIP3    H277910   4.475   3.524  15.043 -1.9824 -0.6056  0.1223
18807TIP3   OH277911   2.183   2.011   4.001  0.2681  0.1900 -0.0931
18807TIP3    H177912   2.183   1.989   3.908  1.4911 -0.3359  0.0119
18807TIP3    H277913   2.093   2.037   4.019  0.1758  0.9868 -1.5715
18808TIP3   OH277914   0.423   0.946   2.696 -0.1089 -0.1223 -0.4706
18808TIP3    H177915   0.469   1.028   2.684  1.1371 -0.8904 -1.2058
18808TIP3    H277916   0.396   0.945   2.787 -2.3394  2.1746 -1.0020
18809TIP3   OH277917   5.081   5.911  14.006 -0.2339  0.4266 -0.5447
18809TIP3    H177918   5.068   5.946  13.918 -2.6903  0.4092 -0.2646
18809TIP3    H277919   4.993   5.900  14.040  0.6301 -0.8114  1.4538
18810TIP3   OH277920   6.473   5.554   6.376  0.3856 -0.0526 -0.0309
18810TIP3    H177921   6.515   5.472   6.403 -0.6544 -0.2203  1.1822
18810TIP3    H277922   6.390   5.556   6.425 -0.0662  1.2504 -0.7912
18811TIP3   OH277923   4.013   5.726  11.995  0.1551  0.0725  0.2528
18811TIP3    H177924   4.055   5.813  11.990  1.4534 -0.5308  0.1918
18811TIP3    H277925   3.922   5.743  11.973  0.5676  1.2970 -0.6568
18812TIP3   OH277926   3.063   4.254  11.791 -0.2861 -0.0062  0.1930
18812TIP3    H177927   3.136   4.313  11.771  0.3748 -0.7106  0.4649
18812TIP3    H277928   3.005   4.262  11.715 -0.9271  2.0366  0.8288
18813TIP3   OH277929   5.083   0.217  14.179  0.2889 -0.1782  0.6623
18813TIP3    H177930   5.103   0.229  14.086  0.5867 -0.3725  0.6990
18813TIP3    H277931   4.993   0.247  14.188  0.3128 -0.0026  0.3428
18814TIP3   OH277932   3.114   2.363  11.380 -0.0734 -0.1413  0.2335
18814TIP3    H177933   3.101   2.429  11.313  1.4504 -2.2986 -2.4004
18814TIP3    H277934   3.186   2.397  11.434  1.0980  0.1420 -1.4455
18815TIP3   OH277935   0.763   1.920   4.630  0.2001  0.8707  0.3296
18815TIP3    H177936   0.738   1.984   4.563 -2.7365  0.5646  0.9793
18815TIP3    H277937   0.805   1.971   4.698  1.1507  1.5170 -0.7057
18816TIP3   OH277938   4.719   0.990  11.694  0.3758 -0.6094  0.6249
18816TIP3    H177939   4.749   0.952  11.612  2.6645  0.9918  0.6009
18816TIP3    H277940   4.775   1.067  11.706 -1.7789  0.8292  2.2755
18817TIP3   OH277941   3.438   2.445   2.996 -0.1464  0.9964  0.0016
18817TIP3    H177942   3.456   2.355   2.970  0.6249  0.5927  1.7994
18817TIP3    H277943   3.348   2.442   3.030  0.0211  0.8194  0.4303
18818TIP3   OH277944   5.367   6.041  14.199 -0.0290  0.1380 -0.1336
18818TIP3    H177945   5.415   5.988  14.262 -1.3788  1.0157  1.7531
18818TIP3    H277946   5.288   5.990  14.180 -0.9590  1.0566  1.0908
18819TIP3   OH277947   1.767   4.169  13.746  0.2477 -0.3447 -0.2995
18819TIP3    H177948   1.763   4.111  13.670  1.3799 -0.3065 -0.4042
18819TIP3    H277949   1.689   4.223  13.739 -0.2896 -1.1545 -0.7681
18820TIP3   OH277950   3.124   6.676  11.253 -0.0477  0.0926 -0.0998
18820TIP3    H177951   3.106   6.697  11.161 -0.7651  2.3853  0.4976
18820TIP3    H277952   3.055   6.614  11.277  0.1869 -0.5828 -1.0887
18821TIP3   OH277953   2.449   1.989  12.489  0.4933  0.6209 -0.1303
18821TIP3    H177954   2.383   1.953  12.548  0.8205  0.3915  0.1025
18821TIP3    H277955   2.518   2.022  12.547  1.0723 -0.0966 -0.3777
18822TIP3   OH277956   6.246   3.016  16.516 -0.1043  0.3760  0.0944
18822TIP3    H177957   6.298   2.957  16.571  1.2904  0.1948 -1.3344
18822TIP3    H277958   6.199   2.957  16.456 -1.3716  0.5867  0.8416
18823TIP3   OH277959   4.864   1.902   2.529  0.2592 -0.2549 -0.0513
18823TIP3    H177960   4.823   1.925   2.445  0.5201 -1.2875 -0.4754
18823TIP3    H277961   4.883   1.808   2.521  1.7050 -0.0372  0.5588
18824TIP3   OH277962   1.513   2.801  11.357  0.4372 -0.2217 -0.1934
18824TIP3    H177963   1.503   2.812  11.452  1.5400 -0.9464  0.0219
18824TIP3    H277964   1.561   2.719  11.347 -1.2631 -1.1292 -1.4706
18825TIP3   OH277965   1.212   0.503  12.661  0.6054 -0.1524  0.0479
18825TIP3    H177966   1.148   0.551  12.608  0.4640 -0.7632 -0.3402
18825TIP3    H277967   1.162   0.472  12.736  0.3160 -1.0440 -0.4949
18826TIP3   OH277968   2.001   1.958  11.796 -0.0031  0.0373  0.6979
18826TIP3    H177969   1.918   1.980  11.754 -1.0807 -1.7327  1.7826
18826TIP3    H277970   2.016   2.029  11.859 -1.0198  0.0446  0.9379
18827TIP3   OH277971   3.937   1.977  10.945 -0.1986 -0.1236 -0.0798
18827TIP3    H177972   3.896   2.055  10.984  0.2870 -0.6735  1.6416
18827TIP3    H277973   3.867   1.911  10.946 -0.2099 -0.1128 -0.2159
18828TIP3   OH277974   5.624   6.602   6.649 -0.0587 -0.1413 -0.0079
18828TIP3    H177975   5.606   6.657   6.726 -0.9618 -1.9495  1.1314
18828TIP3    H277976   5.708   6.634   6.616  0.0608  1.0685  1.3785
18829TIP3   OH277977   5.787   5.292   4.661 -0.4738 -0.2264 -0.1211
18829TIP3    H177978   5.717   5.263   4.718  0.6320 -2.8762 -0.0009
18829TIP3    H277979   5.784   5.233   4.586  2.6631 -1.6210  0.6981
18830TIP3   OH277980   2.229   5.581   4.327  0.1260 -0.1031 -0.0612
18830TIP3    H177981   2.163   5.649   4.313 -0.7441 -0.7014  0.9585
18830TIP3    H277982   2.295   5.622   4.383  0.6691  0.5172 -1.1361
18831TIP3   OH277983   3.869   2.105  14.745 -0.3357  0.4595 -0.2875
18831TIP3    H177984   3.872   2.020  14.788  2.8812  0.4837 -0.1998
18831TIP3    H277985   3.900   2.167  14.811  1.6874  0.9519 -1.5950
18832TIP3   OH277986   4.834   2.949   3.483  0.6454  0.6704 -0.1922
18832TIP3    H177987   4.899   3.014   3.457  0.1523  0.4973 -1.9950
18832TIP3    H277988   4.873   2.865   3.459  0.3846  0.4506  0.1303
18833TIP3   OH277989   0.150   2.893   3.210 -0.3044 -0.0661 -0.4659
18833TIP3    H177990   0.069   2.861   3.249 -0.8510  0.8518 -0.8206
18833TIP3    H277991   0.171   2.829   3.141  0.4249 -1.4495  0.9770
18834TIP3   OH277992   2.992   2.077   2.077 -0.9480 -0.5204  0.5946
18834TIP3    H177993   2.969   2.005   2.018 -0.7931  0.4567 -0.6868
18834TIP3    H277994   3.031   2.143   2.021 -1.8383  0.9252  1.5972
18835TIP3   OH277995   4.921   5.456  13.626 -0.5269  0.1221 -0.6587
18835TIP3    H177996   4.870   5.450  13.546 -1.1012  0.2214 -0.3113
18835TIP3    H277997   4.855   5.468  13.695 -0.1367 -1.2714 -0.0105
18836TIP3   OH277998   2.378   2.395   4.189 -0.4818 -0.3707  0.1655
18836TIP3    H177999   2.371   2.301   4.172 -1.0445 -0.2395 -0.3365
18836TIP3    H278000   2.420   2.431   4.111  0.1982 -0.2625  0.5639
18837TIP3   OH278001   5.408   4.693  16.409 -0.0074 -0.0243 -0.4258
18837TIP3    H178002   5.472   4.632  16.448  0.4539  2.2216  2.7084
18837TIP3    H278003   5.453   4.777  16.408 -3.0568  1.9392  3.0357
18838TIP3   OH278004   5.200   2.329   3.876  0.5541  0.6192  0.3190
18838TIP3    H178005   5.190   2.307   3.783 -0.1301 -0.3722  0.6133
18838TIP3    H278006   5.131   2.392   3.894  0.6531  0.7704  0.1774
18839TIP3   OH278007   3.208   3.848  15.229 -0.0207 -0.1952 -0.0579
18839TIP3    H178008   3.147   3.910  15.270 -0.6614  0.2002 -1.5100
18839TIP3    H278009   3.173   3.762  15.252 -0.5463  0.0200 -0.0257
18840TIP3   OH278010   0.548   1.208   4.352 -0.5569 -0.6528  0.3501
18840TIP3    H178011   0.580   1.173   4.269 -1.2363  0.1240 -0.2694
18840TIP3    H278012   0.591   1.294   4.360 -1.4162 -0.1932  0.1786
18841TIP3   OH278013   4.264   1.221  14.973  0.4339  0.6381  0.0007
18841TIP3    H178014   4.213   1.226  14.893 -0.2038 -0.1093  0.3499
18841TIP3    H278015   4.282   1.312  14.996  2.9324  0.8758 -2.4033
18842TIP3   OH278016   5.653   3.002  14.824 -0.4185 -0.2065 -0.1915
18842TIP3    H178017   5.643   3.022  14.732 -0.3527  0.4457 -0.0590
18842TIP3    H278018   5.748   2.996  14.838 -0.3800  0.9703  0.0984
18843TIP3   OH278019   2.396   6.191   5.695  0.0770 -0.5079 -0.0685
18843TIP3    H178020   2.459   6.120   5.710 -1.4888 -1.7822  0.7972
18843TIP3    H278021   2.368   6.217   5.782  1.1326  1.7517 -0.3233
18844TIP3   OH278022   0.843   0.195   5.120 -0.4066  0.1820 -0.4401
18844TIP3    H178023   0.915   0.134   5.106  1.3180  2.6650 -3.8535
18844TIP3    H278024   0.799   0.200   5.035 -3.3848  0.3491  0.9833
18845TIP3   OH278025   5.894   0.582  17.223 -0.0664 -0.1499 -0.2626
18845TIP3    H178026   5.856   0.564  17.137  0.4790 -0.8048 -0.3758
18845TIP3    H278027   5.926   0.497  17.253  4.3656  0.7605 -1.6603
18846TIP3   OH278028   5.299   2.703   1.798 -0.2021 -0.3488 -0.3714
18846TIP3    H178029   5.325   2.722   1.888  2.0245 -2.2456 -0.5122
18846TIP3    H278030   5.305   2.787   1.753 -0.3915  0.4433  1.0321
18847TIP3   OH278031   5.267   1.605  12.064  0.0413  0.0335  0.1079
18847TIP3    H178032   5.331   1.547  12.022 -0.7642  0.0560 -1.2108
18847TIP3    H278033   5.248   1.564  12.148 -0.7133 -1.8031 -0.9028
18848TIP3   OH278034   3.178   0.044   4.112 -0.0598  0.4056 -0.4899
18848TIP3    H178035   3.147   0.040   4.021  1.3081  1.6126 -1.0575
18848TIP3    H278036   3.178  -0.047   4.141 -2.2627  0.1684 -1.0460
18849TIP3   OH278037   0.106   0.837  14.298  0.2493  0.2273  0.2234
18849TIP3    H178038   0.148   0.812  14.380  0.4329  2.2157  0.7869
18849TIP3    H278039   0.139   0.925  14.280 -1.5973  0.7627 -0.7456
18850TIP3   OH278040   4.379   0.227   3.289  0.1632  0.0231 -0.2406
18850TIP3    H178041   4.448   0.160   3.295 -0.9424 -1.1344 -0.1118
18850TIP3    H278042   4.321   0.208   3.363 -0.7362  0.4829 -0.8205
18851TIP3   OH278043   3.460   3.865   4.827 -0.4378 -0.6137 -0.8316
18851TIP3    H178044   3.367   3.887   4.827 -0.2010  0.5694  0.5092
18851TIP3    H278045   3.476   3.827   4.914  0.5829  0.4998 -0.4993
18852TIP3   OH278046   1.179   6.059   1.293  0.6157 -0.0313  0.2505
18852TIP3    H178047   1.212   6.089   1.377 -1.2061  0.4103  0.8529
18852TIP3    H278048   1.122   5.984   1.314 -1.0200  0.9731 -0.3835
18853TIP3   OH278049   6.108   3.709  16.528  0.1438  0.4176  0.6551
18853TIP3    H178050   6.166   3.758  16.586  1.6780  0.8732 -1.1602
18853TIP3    H278051   6.150   3.623  16.519  0.5368  0.7080 -0.5667
18854TIP3   OH278052   5.593   2.143  14.696  0.8698 -0.3828 -0.6073
18854TIP3    H178053   5.537   2.073  14.729  0.8747 -1.1032 -2.0681
18854TIP3    H278054   5.677   2.129  14.741  0.2807 -0.0329  0.6660
18855TIP3   OH278055   0.657   3.557   3.971  0.0546 -0.0093  0.3313
18855TIP3    H178056   0.563   3.540   3.985 -0.5231  2.3248 -0.2901
18855TIP3    H278057   0.663   3.581   3.878  1.2087  0.2354  0.4566
18856TIP3   OH278058   4.674   1.883   3.960 -0.3624 -0.5225  0.4088
18856TIP3    H178059   4.602   1.907   3.901 -0.4442 -2.2203 -0.2278
18856TIP3    H278060   4.680   1.788   3.953  3.3550 -0.3426 -1.2917
18857TIP3   OH278061   2.407   2.481  13.143  0.0464  0.0898  0.5902
18857TIP3    H178062   2.372   2.527  13.066  1.0977  1.8222  1.1188
18857TIP3    H278063   2.358   2.398  13.144 -1.4789  0.9050 -0.7326
18858TIP3   OH278064   6.338   5.934   2.201 -0.6153 -0.2063 -0.5283
18858TIP3    H178065   6.268   5.906   2.260 -0.9370  0.6711 -0.4715
18858TIP3    H278066   6.402   5.863   2.204 -0.6221 -0.1781  0.8832
18859TIP3   OH278067   3.696   3.553   2.585  0.6065  0.0391  0.4984
18859TIP3    H178068   3.701   3.606   2.506  0.2212 -0.0080  0.4389
18859TIP3    H278069   3.603   3.531   2.593  0.5589  0.4975  1.2639
18860TIP3   OH278070   0.185   1.092   1.278  0.2176  0.3520 -0.3966
18860TIP3    H178071   0.226   1.079   1.364 -1.5787 -0.2382  0.4396
18860TIP3    H278072   0.173   1.186   1.271 -2.6204  0.2872  1.6112
18861TIP3   OH278073   1.390   2.766   2.283 -0.6403  0.2474  0.6973
18861TIP3    H178074   1.422   2.779   2.373 -2.1359  0.7047  1.1950
18861TIP3    H278075   1.347   2.680   2.286 -0.8296  0.3339  0.4695
18862TIP3   OH278076   2.001   6.207   3.940  0.3028  0.3455  0.0113
18862TIP3    H178077   2.032   6.230   4.028 -0.2582 -0.6241  0.4820
18862TIP3    H278078   2.081   6.204   3.888  0.6867  0.5905  0.5661
18863TIP3   OH278079   4.702   2.804  11.127  0.4406 -0.4044 -0.7939
18863TIP3    H178080   4.697   2.857  11.047  0.2978  2.4834  0.9840
18863TIP3    H278081   4.784   2.831  11.168 -0.2781 -0.5840  0.8239
18864TIP3   OH278082   0.265   4.461  11.207  0.3002  0.1877 -0.1143
18864TIP3    H178083   0.276   4.516  11.129  1.8573  1.0386  0.6581
18864TIP3    H278084   0.211   4.514  11.266  1.3129  0.6824  0.3974
18865TIP3   OH278085   4.845   5.355   3.006  0.0983 -0.1126 -0.2808
18865TIP3    H178086   4.775   5.350   3.071  0.7611 -1.6810  0.3764
18865TIP3    H278087   4.801   5.352   2.922 -0.6443 -0.8860  0.1241
18866TIP3   OH278088   1.242   4.850   5.906 -0.0227  0.0278 -0.4619
18866TIP3    H178089   1.191   4.917   5.951  0.9123  1.4453 -1.4096
18866TIP3    H278090   1.212   4.854   5.815  1.1170  0.2483 -0.8429
18867TIP3   OH278091   4.231   2.476  12.316  0.0013  0.3259  0.4621
18867TIP3    H178092   4.235   2.571  12.311  0.5254  0.3072  0.5280
18867TIP3    H278093   4.310   2.450  12.363  1.7507 -0.3841 -2.5853
18868TIP3   OH278094   4.750   1.151  15.410  0.1825  0.4834 -0.0313
18868TIP3    H178095   4.810   1.117  15.344  0.3531  1.3420 -0.3372
18868TIP3    H278096   4.703   1.221  15.365 -2.1846 -1.1687 -0.2819
18869TIP3   OH278097   4.482   4.671  17.210 -0.3876  0.1396  0.1016
18869TIP3    H178098   4.441   4.667  17.296 -2.4510 -0.6076 -0.8334
18869TIP3    H278099   4.501   4.764  17.196  0.4203  0.2053  1.5309
18870TIP3   OH278100   1.302   6.488  15.342  0.6861 -0.0810 -0.3855
18870TIP3    H178101   1.384   6.439  15.355  0.5618 -1.0791 -2.8449
18870TIP3    H278102   1.234   6.430  15.376  0.7310 -0.7778 -1.4358
18871TIP3   OH278103   5.695   0.448  13.201  0.1097  1.1038  0.3139
18871TIP3    H178104   5.690   0.356  13.175 -2.3457  2.3792 -5.2085
18871TIP3    H278105   5.778   0.479  13.166 -0.4019  1.5434 -0.5505
18872TIP3   OH278106   2.388   4.801  10.999  0.4103 -0.2221  0.0019
18872TIP3    H178107   2.321   4.734  10.992 -0.4219  0.6487 -0.5971
18872TIP3    H278108   2.404   4.830  10.909  0.6563  0.4712  0.2577
18873TIP3   OH278109   4.898   4.306   6.121  0.5428  0.2954 -0.3237
18873TIP3    H178110   4.935   4.364   6.055  0.2001 -0.3507 -1.0895
18873TIP3    H278111   4.921   4.218   6.092 -1.2378 -0.1077 -0.6264
18874TIP3   OH278112   1.896   6.711  15.753 -0.4270  0.3968 -0.1761
18874TIP3    H178113   1.863   6.751  15.833 -0.1258  1.5477 -0.6074
18874TIP3    H278114   1.898   6.617  15.772 -1.9962  0.4771  0.5511
18875TIP3   OH278115   2.229   2.903  14.261 -0.0989 -0.2647  0.3674
18875TIP3    H178116   2.146   2.905  14.212  0.1992 -1.8627 -0.2620
18875TIP3    H278117   2.283   2.840  14.214  1.8762  1.4505  0.2082
18876TIP3   OH278118   5.458   6.403  12.623  0.0666  0.1828 -0.6322
18876TIP3    H178119   5.386   6.467  12.622 -0.0290  0.1170  0.9157
18876TIP3    H278120   5.469   6.380  12.715  0.8069 -1.2508 -1.0539
18877TIP3   OH278121   4.745   2.623   4.570 -0.1033 -0.0366  0.3996
18877TIP3    H178122   4.680   2.555   4.553  2.0861 -1.9583 -0.7927
18877TIP3    H278123   4.797   2.628   4.490 -0.1934  3.1815  0.3996
18878TIP3   OH278124   3.072   5.003  15.261 -0.4088 -0.3513  0.1111
18878TIP3    H178125   3.091   5.031  15.171 -2.8119 -2.9399 -1.4037
18878TIP3    H278126   3.141   4.940  15.281 -0.4880 -0.6195 -0.4199
18879TIP3   OH278127   0.390   3.612  16.054  0.3611  0.2690 -0.0015
18879TIP3    H178128   0.433   3.527  16.060  1.6437  0.8186 -0.8574
18879TIP3    H278129   0.408   3.641  15.965  1.2343  2.0757  0.7123
18880TIP3   OH278130   5.823   1.679  10.778 -0.5881 -0.7060  0.0124
18880TIP3    H178131   5.851   1.590  10.800  0.3689  0.0017  1.9516
18880TIP3    H278132   5.894   1.714  10.724  0.3955 -0.2909  1.4885
18881TIP3   OH278133   1.567   3.950   4.209 -0.0815  0.1892 -0.1687
18881TIP3    H178134   1.508   3.876   4.222  0.2825 -0.0371  0.1853
18881TIP3    H278135   1.533   4.017   4.269  1.0269 -0.5271  1.3177
18882TIP3   OH278136   1.971   1.448   4.778 -0.1865 -0.1333 -0.0083
18882TIP3    H178137   2.047   1.498   4.749 -1.0252 -0.2554 -2.7004
18882TIP3    H278138   1.973   1.368   4.726 -1.2186 -0.9084  1.1038
18883TIP3   OH278139   0.968   5.417  16.653  0.2228 -0.1585 -0.5321
18883TIP3    H178140   1.037   5.484  16.652  0.6955 -0.6369 -0.8415
18883TIP3    H278141   0.943   5.407  16.561  0.2971 -0.5384 -0.5154
18884TIP3   OH278142   2.684   0.180  13.716  0.7425 -0.2779 -0.3477
18884TIP3    H178143   2.675   0.155  13.624 -0.3817 -0.6645 -0.1567
18884TIP3    H278144   2.670   0.275  13.717  1.0342 -0.2328 -0.6058
18885TIP3   OH278145   4.056   6.212  12.523 -0.5109 -0.6291 -0.3356
18885TIP3    H178146   4.010   6.247  12.446  1.0591  0.2015 -0.9469
18885TIP3    H278147   4.143   6.251  12.518 -0.0446 -1.3827  1.3186
18886TIP3   OH278148   3.084   5.159  16.283 -0.1615  0.7494 -0.2188
18886TIP3    H178149   3.037   5.081  16.254  1.1778 -0.2386  0.1269
18886TIP3    H278150   3.059   5.170  16.375  2.4428 -1.5793  0.9027
18887TIP3   OH278151   0.241   4.443  10.642  0.7884  0.5980 -0.3972
18887TIP3    H178152   0.238   4.354  10.606 -1.8625 -0.4395  1.9813
18887TIP3    H278153   0.227   4.499  10.566 -0.1510 -1.1903 -1.6379
18888TIP3   OH278154   2.555   2.913  10.780 -0.1854 -0.3137 -0.2074
18888TIP3    H178155   2.571   2.870  10.864 -3.5713 -1.5395 -0.0171
18888TIP3    H278156   2.582   3.004  10.794  1.5286 -1.0087  1.3979
18889TIP3   OH278157   5.864   0.435   2.750  0.1730 -0.7704  0.5877
18889TIP3    H178158   5.919   0.358   2.736  0.5045 -0.4012 -0.1751
18889TIP3    H278159   5.834   0.426   2.840  0.7682 -1.4340  0.7320
18890TIP3   OH278160   5.901   3.667  16.709 -0.4945  0.1117 -0.0937
18890TIP3    H178161   5.958   3.641  16.782 -1.4150  0.5991  0.8373
18890TIP3    H278162   5.960   3.678  16.635  0.5616  0.1823  0.7258
18891TIP3   OH278163   6.544   5.330   6.148  0.0089  0.7407  0.4334
18891TIP3    H178164   6.629   5.309   6.186 -0.4735  1.2833  1.9095
18891TIP3    H278165   6.481   5.295   6.212 -0.9290 -0.7281 -1.1921
18892TIP3   OH278166   6.228   1.776   2.335  0.0057  0.0848  0.3702
18892TIP3    H178167   6.201   1.757   2.426  0.8718 -1.1607  0.3976
18892TIP3    H278168   6.157   1.742   2.282  0.5922 -1.4488  0.5159
18893TIP3   OH278169   6.036   5.081  14.937  0.1576  0.1373  0.2910
18893TIP3    H178170   5.942   5.064  14.942 -0.1281  1.6080  0.3603
18893TIP3    H278171   6.071   5.048  15.019 -0.4657  0.4644  0.7002
18894TIP3   OH278172   2.390   2.614   6.024 -0.2334 -0.1757 -0.9097
18894TIP3    H178173   2.373   2.653   6.110  2.3640  1.3184 -0.9892
18894TIP3    H278174   2.336   2.534   6.023 -0.3567 -0.2275  2.0829
18895TIP3   OH278175   1.934   4.778  11.146 -0.0463  0.6029 -0.0592
18895TIP3    H178176   1.986   4.797  11.224  0.7147 -1.0531 -0.1331
18895TIP3    H278177   1.924   4.683  11.146 -2.6568  0.7990 -0.3344
18896TIP3   OH278178   5.167   1.492   1.180 -0.1622 -0.0724  0.3129
18896TIP3    H178179   5.249   1.541   1.180 -0.2922  1.0000 -5.8748
18896TIP3    H278180   5.183   1.417   1.123 -3.0511 -0.6849  0.1443
18897TIP3   OH278181   6.745   3.236   4.382  0.1181 -0.0330  0.5493
18897TIP3    H178182   6.701   3.151   4.382 -0.7618  0.3949  1.2808
18897TIP3    H278183   6.776   3.248   4.293  0.6891 -1.3349  0.5537
18898TIP3   OH278184   3.189   4.539  14.263 -0.4705  0.2666  0.0252
18898TIP3    H178185   3.111   4.549  14.207 -1.5410 -0.4636  1.3229
18898TIP3    H278186   3.242   4.472  14.220  0.3750  2.0500 -1.8370
18899TIP3   OH278187   1.510   4.448   2.943  0.0721 -0.0210 -0.3050
18899TIP3    H178188   1.586   4.393   2.925 -1.1021 -1.9251  0.2861
18899TIP3    H278189   1.523   4.477   3.034 -0.8557 -2.0616  0.5350
18900TIP3   OH278190   4.713   4.054   4.191 -0.2370 -0.4589  0.2229
18900TIP3    H178191   4.719   4.122   4.257 -1.7290 -0.5950  0.5474
18900TIP3    H278192   4.716   4.100   4.108 -0.3101 -0.0813  0.4282
18901TIP3   OH278193   3.544   0.865  15.926  0.6344  0.2314  0.1688
18901TIP3    H178194   3.624   0.910  15.897  0.7310 -0.5790 -0.8903
18901TIP3    H278195   3.560   0.773  15.907  0.3476 -0.2565  2.0994
18902TIP3   OH278196   4.691   5.232   0.180  0.2108 -0.6487 -0.2304
18902TIP3    H178197   4.635   5.252   0.255 -0.7202  0.6983 -1.2575
18902TIP3    H278198   4.705   5.316   0.136  0.5621 -1.4289 -1.6882
18903TIP3   OH278199   1.603   1.851   2.271  0.6393  0.3366 -0.0543
18903TIP3    H178200   1.639   1.832   2.358 -0.9857 -1.1897  0.3435
18903TIP3    H278201   1.549   1.929   2.284 -2.4313 -1.8213  1.2376
18904TIP3   OH278202   3.609   4.853  16.609 -0.1893  0.1209  0.5948
18904TIP3    H178203   3.580   4.789  16.544  0.3698  0.1771  0.2847
18904TIP3    H278204   3.698   4.827  16.632 -0.1950  0.4022  0.9538
18905TIP3   OH278205   0.806   3.590   5.209  0.2202  0.0445  0.5588
18905TIP3    H178206   0.725   3.539   5.212  0.6188 -0.6566 -0.1197
18905TIP3    H278207   0.858   3.547   5.141 -0.0681  2.3005 -1.2389
18906TIP3   OH278208   4.426   4.764  15.291  0.1346 -0.0774 -0.4047
18906TIP3    H178209   4.402   4.853  15.263  0.0617  0.2332  0.5873
18906TIP3    H278210   4.371   4.748  15.368  1.0335 -0.4812  0.1788
18907TIP3   OH278211   1.840   0.875   5.497 -0.2155 -0.0478  0.4007
18907TIP3    H178212   1.860   0.832   5.580 -1.5148 -1.6978 -0.0965
18907TIP3    H278213   1.749   0.905   5.506  0.2382  1.4502  0.2443
18908TIP3   OH278214   0.661   4.806   4.742 -0.1639 -0.6206 -0.6362
18908TIP3    H178215   0.734   4.846   4.694  0.3072  0.8585  1.1537
18908TIP3    H278216   0.602   4.880   4.761 -1.4384 -1.5545 -0.8551
18909TIP3   OH278217   2.225   1.027  15.616 -0.7735  0.1236 -0.2830
18909TIP3    H178218   2.154   1.004  15.676 -1.3362 -3.3681 -2.0228
18909TIP3    H278219   2.277   0.947  15.609  0.5074  1.0624 -2.7559
18910TIP3   OH278220   4.980   1.032   4.583 -0.6355  0.4094  0.1580
18910TIP3    H178221   4.982   0.974   4.659  1.1851 -2.3423 -1.8033
18910TIP3    H278222   4.887   1.048   4.567 -1.0755  0.1368  2.2498
18911TIP3   OH278223   5.209   6.733  11.850 -0.0407 -0.1141 -0.5725
18911TIP3    H178224   5.257   6.659  11.814 -0.1054  0.8316 -2.7077
18911TIP3    H278225   5.277   6.792  11.884  0.1871  0.1856 -1.5388
18912TIP3   OH278226   3.566   0.537  14.793 -0.1714  0.6465 -0.2555
18912TIP3    H178227   3.568   0.534  14.697 -0.1947 -0.2075 -0.2348
18912TIP3    H278228   3.473   0.538  14.814 -0.1800 -0.5944 -0.2099
18913TIP3   OH278229   2.932   5.113   0.016  0.4632  0.5423 -0.1176
18913TIP3    H178230   2.969   5.134   0.102  0.3414  1.4067 -0.2640
18913TIP3    H278231   2.960   5.186  -0.040  1.1906 -0.4018 -1.0101
18914TIP3   OH278232   1.589   5.100  14.103 -0.0483  0.0425  0.8109
18914TIP3    H178233   1.503   5.060  14.113 -0.0416 -0.0346  0.5789
18914TIP3    H278234   1.598   5.115  14.009  0.9618 -1.6886  0.5958
18915TIP3   OH278235   4.098   6.222   2.492 -0.2541 -0.0833 -0.3823
18915TIP3    H178236   4.158   6.157   2.529 -0.0278  0.5285  0.3523
18915TIP3    H278237   4.061   6.179   2.414  0.7675 -0.6456 -0.5716
18916TIP3   OH278238   5.974   1.840   5.258  0.1601  0.3352 -0.1759
18916TIP3    H178239   5.994   1.889   5.178  0.6223 -0.2921 -0.4557
18916TIP3    H278240   5.893   1.794   5.239 -1.0749  2.0694  0.5928
18917TIP3   OH278241   0.847   2.102   1.091 -0.0383 -0.0284 -0.1615
18917TIP3    H178242   0.916   2.091   1.156  0.2609  2.1823 -0.0585
18917TIP3    H278243   0.774   2.049   1.125  0.3346  0.5565  1.6504
18918TIP3   OH278244   2.547   4.665   3.518  0.2942  0.0201  0.3687
18918TIP3    H178245   2.529   4.691   3.609 -1.3701 -0.1140  0.1093
18918TIP3    H278246   2.465   4.628   3.487  1.5809 -2.3660 -0.3976
18919TIP3   OH278247   2.065   1.886  10.883 -0.5527  0.5589 -0.0704
18919TIP3    H178248   2.086   1.965  10.833 -1.0052  0.4845 -0.3816
18919TIP3    H278249   2.149   1.842  10.895 -0.5662  0.0493 -1.6629
18920TIP3   OH278250   4.363   2.318  17.086 -0.0548 -0.2475 -0.4099
18920TIP3    H178251   4.352   2.253  17.016 -1.5434 -1.8402  1.2163
18920TIP3    H278252   4.323   2.397  17.050 -0.6607 -0.9815 -1.4337
18921TIP3   OH278253   4.637   4.393   5.804 -0.2144  0.7871 -0.3033
18921TIP3    H178254   4.591   4.424   5.882 -2.1864  1.9164 -1.8450
18921TIP3    H278255   4.685   4.316   5.835 -0.0126  1.8161  2.2648
18922TIP3   OH278256   0.265   0.635   0.149 -0.0150 -0.0981  0.0773
18922TIP3    H178257   0.190   0.602   0.197  0.2106  1.6537  1.7778
18922TIP3    H278258   0.341   0.595   0.192  0.0943 -1.7906 -1.5727
18923TIP3   OH278259   4.840   5.742   0.717  0.1645  0.3332 -0.4031
18923TIP3    H178260   4.751   5.756   0.686  0.0022 -1.3451 -0.8181
18923TIP3    H278261   4.834   5.745   0.812 -0.6593 -1.2185 -0.3638
18924TIP3   OH278262   1.339   1.783   2.856  0.0580  0.7206 -0.4850
18924TIP3    H178263   1.362   1.848   2.922 -0.5094  1.4635 -1.0094
18924TIP3    H278264   1.424   1.754   2.821  0.3155  1.1882 -0.2605
18925TIP3   OH278265   2.889   2.206  16.609  0.4500 -0.2586 -0.0607
18925TIP3    H178266   2.914   2.154  16.686 -0.5327  2.0163  1.9291
18925TIP3    H278267   2.820   2.155  16.567  0.2728 -1.0814  1.1704
18926TIP3   OH278268   4.551   5.215  14.669  0.3466 -0.0389 -0.2575
18926TIP3    H178269   4.552   5.134  14.720 -0.3732 -0.1294 -0.3818
18926TIP3    H278270   4.509   5.279  14.726 -0.7408 -0.2170 -0.8397
18927TIP3   OH278271   4.574   0.167  12.727  0.2720 -0.4244  0.2483
18927TIP3    H178272   4.620   0.085  12.712 -0.0495 -0.8464  1.4883
18927TIP3    H278273   4.488   0.142  12.759 -0.3077  0.3821 -0.6423
18928TIP3   OH278274   1.973   0.665   2.902  0.1575 -0.2320  0.3846
18928TIP3    H178275   1.953   0.752   2.935  2.4084  0.0385  1.1851
18928TIP3    H278276   2.027   0.681   2.824  0.3846 -0.9117  0.3982
18929TIP3   OH278277   1.539   3.312   5.285 -0.1722  0.1633  0.5165
18929TIP3    H178278   1.569   3.270   5.366 -0.9225 -1.6756 -0.1230
18929TIP3    H278279   1.456   3.354   5.310  0.6806  1.4875  1.2074
18930TIP3   OH278280   0.601   5.840  15.112  0.5211 -0.8696 -0.1670
18930TIP3    H178281   0.526   5.838  15.172  0.8904  1.9074  0.4945
18930TIP3    H278282   0.661   5.774  15.147  0.2252 -0.1251  1.8728
18931TIP3   OH278283   6.632   4.169   0.217 -0.2885 -0.0283  0.4813
18931TIP3    H178284   6.552   4.130   0.184  0.4720 -1.4459  0.2331
18931TIP3    H278285   6.612   4.263   0.226 -1.9032 -0.3367  0.3076
18932TIP3   OH278286   0.445   2.835   4.256 -0.0909 -0.6291  0.0552
18932TIP3    H178287   0.521   2.831   4.315 -0.1914 -1.3526  0.1440
18932TIP3    H278288   0.472   2.896   4.187  0.4805 -0.6963  0.2118
18933TIP3   OH278289   3.161   1.591  15.766 -0.6063 -0.1398 -0.0612
18933TIP3    H178290   3.129   1.681  15.771 -1.2263 -0.4270  2.9144
18933TIP3    H278291   3.231   1.587  15.831  1.3290 -1.1566 -2.1044
18934TIP3   OH278292   5.699   2.469  14.743 -0.8287 -0.0058  0.0704
18934TIP3    H178293   5.661   2.550  14.776  0.1177  0.3874  0.2469
18934TIP3    H278294   5.749   2.434  14.817 -1.4966 -0.9403  0.0998
18935TIP3   OH278295   5.284   1.308  12.546 -0.1661 -0.1289 -0.8008
18935TIP3    H178296   5.270   1.378  12.609  0.4599 -0.5826 -0.1414
18935TIP3    H278297   5.197   1.269  12.533 -0.1315 -0.7727  0.6862
18936TIP3   OH278298   3.595   2.983  12.792  0.2860 -0.3051 -0.4941
18936TIP3    H178299   3.499   2.979  12.787  0.2503  0.1326 -0.0958
18936TIP3    H278300   3.620   3.032  12.714  0.2378 -1.1151 -1.0305
18937TIP3   OH278301   0.024   2.734  14.415 -0.0538 -0.2817  0.5350
18937TIP3    H178302   0.002   2.824  14.441  1.1475 -0.0885  0.9555
18937TIP3    H278303   0.120   2.730  14.423 -0.1965 -2.0353  1.9820
18938TIP3   OH278304   0.014   1.386  13.332 -0.5194 -0.2195  0.3194
18938TIP3    H178305  -0.080   1.406  13.327 -0.4548  0.8078  2.3494
18938TIP3    H278306   0.037   1.399  13.424  1.6898 -0.1692 -0.1775
18939TIP3   OH278307   4.258   2.863  14.924  0.4046  0.1217  0.3409
18939TIP3    H178308   4.225   2.878  15.013  0.0734 -1.6673  0.5633
18939TIP3    H278309   4.278   2.769  14.922  1.5207  0.3628 -1.1232
18940TIP3   OH278310   4.677   1.389  14.454  0.2217 -0.0866  0.5078
18940TIP3    H178311   4.631   1.383  14.538  0.0514  0.1752  0.4365
18940TIP3    H278312   4.747   1.452  14.470 -0.1342  0.3670  0.3130
18941TIP3   OH278313   1.011   6.602  15.736 -0.2412  0.5695  0.1043
18941TIP3    H178314   1.025   6.559  15.820 -2.8372 -0.2866  0.1860
18941TIP3    H278315   0.968   6.685  15.758 -0.3014  0.6581 -0.3402
18942TIP3   OH278316   3.410   6.192   6.489  0.1805 -0.2234 -0.1399
18942TIP3    H178317   3.373   6.280   6.491 -3.3914 -1.5724  0.7965
18942TIP3    H278318   3.350   6.142   6.434  0.0550 -2.8094  2.1146
18943TIP3   OH278319   2.655   1.941  12.730 -0.3331 -0.0229 -0.3681
18943TIP3    H178320   2.692   1.954  12.818 -0.4594 -0.4263 -0.2575
18943TIP3    H278321   2.564   1.916  12.745 -0.3491 -0.1140 -0.6171
18944TIP3   OH278322   2.555   3.008   0.068  0.2165 -0.2414 -0.1196
18944TIP3    H178323   2.607   2.977  -0.006  3.1619 -0.3109  1.8254
18944TIP3    H278324   2.592   2.964   0.144  0.1504  2.9392  1.9409
18945TIP3   OH278325   2.227   1.339  17.019  0.9006 -0.0744  0.3543
18945TIP3    H178326   2.315   1.367  16.995  0.5873  0.6427 -0.0163
18945TIP3    H278327   2.213   1.257  16.973  1.3153 -0.1036  0.2844
18946TIP3   OH278328   5.227   5.485  11.146 -0.2401 -0.2091 -0.5174
18946TIP3    H178329   5.245   5.409  11.201 -1.4428  0.2770  0.5940
18946TIP3    H278330   5.313   5.509  11.110  0.5339 -0.7233  0.9001
18947TIP3   OH278331   1.621   4.145  14.104  0.4920 -0.1335 -0.6518
18947TIP3    H178332   1.603   4.051  14.103 -0.1679 -0.0916  1.8288
18947TIP3    H278333   1.547   4.184  14.057  0.8994 -0.8106 -1.9374
18948TIP3   OH278334   1.228   5.233   6.557 -0.1455 -0.0633  0.1607
18948TIP3    H178335   1.160   5.227   6.624 -0.9193 -1.2569 -0.6906
18948TIP3    H278336   1.191   5.188   6.481  2.4351 -2.9623  0.3817
18949TIP3   OH278337   5.924   2.287   0.968 -0.0269 -0.3538  0.5100
18949TIP3    H178338   5.880   2.279   1.053 -0.0118  0.0118  0.5553
18949TIP3    H278339   6.000   2.341   0.986 -1.1546  1.5555 -0.1251
18950TIP3   OH278340   2.127   4.395   2.501 -0.2030  0.3697 -0.7039
18950TIP3    H178341   2.132   4.480   2.458 -0.7048  0.2040 -1.0979
18950TIP3    H278342   2.218   4.376   2.527 -0.3113  1.7050  0.7704
18951TIP3   OH278343   5.592   2.098   1.233 -0.9507  0.7516  0.3458
18951TIP3    H178344   5.588   2.018   1.285 -1.0651  0.7520  0.3369
18951TIP3    H278345   5.506   2.105   1.193 -0.8505  0.7340  0.1294
18952TIP3   OH278346   0.303   5.377   2.111 -0.2621 -1.0887 -0.3779
18952TIP3    H178347   0.372   5.323   2.072  1.8862  1.5558 -0.5692
18952TIP3    H278348   0.334   5.394   2.200 -1.1758 -0.6450 -0.1327
18953TIP3   OH278349   4.573   3.235  11.504 -0.5394  0.0412  0.2677
18953TIP3    H178350   4.586   3.315  11.452  1.0399 -0.3705 -0.0064
18953TIP3    H278351   4.640   3.174  11.472 -2.2439 -1.7386 -0.1609
18954TIP3   OH278352   0.040   0.049   0.882 -0.2354  0.1868  0.1104
18954TIP3    H178353   0.018   0.120   0.944 -1.3801  1.1913 -1.3692
18954TIP3    H278354  -0.034   0.047   0.821  0.9082 -0.6788 -1.3167
18955TIP3   OH278355   2.453   6.315  15.703  0.3732 -0.0363 -0.0335
18955TIP3    H178356   2.492   6.336  15.618 -1.1702  1.9130 -0.3113
18955TIP3    H278357   2.517   6.347  15.767  1.5283 -1.4842 -0.3966
18956TIP3   OH278358   3.942   5.960  13.419 -0.6802 -0.0434  0.7626
18956TIP3    H178359   3.881   5.887  13.414  1.5049 -1.9342 -0.1689
18956TIP3    H278360   4.013   5.929  13.476  0.4612  1.2269  0.1070
18957TIP3   OH278361   1.020   6.257   4.426  0.1292 -0.2280  0.0120
18957TIP3    H178362   1.063   6.262   4.341  0.0960  0.5305  0.0323
18957TIP3    H278363   0.990   6.346   4.443  0.6931 -0.2238  1.1031
18958TIP3   OH278364   2.772   2.929  13.549  0.0239  0.2330 -0.0600
18958TIP3    H178365   2.862   2.920  13.517 -0.8279 -1.5831 -2.2396
18958TIP3    H278366   2.762   2.859  13.614  0.2575  0.6694  0.4573
18959TIP3   OH278367   0.177   3.739   6.180  0.8495  0.3642 -0.3084
18959TIP3    H178368   0.230   3.803   6.132 -0.2578 -0.6105 -3.0086
18959TIP3    H278369   0.224   3.727   6.263  3.1220  1.8649 -1.2711
18960TIP3   OH278370   0.306   2.716   3.049  0.4629  0.1980  0.1350
18960TIP3    H178371   0.272   2.664   2.977  2.1421 -2.0068  0.8049
18960TIP3    H278372   0.355   2.786   3.007 -1.5179  1.0961 -0.8004
18961TIP3   OH278373   0.888   5.709  14.223  0.3335  0.4617 -0.0763
18961TIP3    H178374   0.961   5.659  14.260  0.9394  1.6184  0.3707
18961TIP3    H278375   0.931   5.782  14.177 -0.5313  2.2143  1.7304
18962TIP3   OH278376   3.758   3.467  16.280 -0.2181 -1.0868  0.2596
18962TIP3    H178377   3.670   3.496  16.254  0.8682 -0.5115 -3.2288
18962TIP3    H278378   3.773   3.508  16.365 -2.2105  1.2166 -0.4022
18963TIP3   OH278379   6.260   3.487   0.440  0.2417 -0.0588 -0.1006
18963TIP3    H178380   6.336   3.497   0.382 -0.4861 -2.1000 -1.5266
18963TIP3    H278381   6.185   3.481   0.380 -0.8934  0.5329  1.2125
18964TIP3   OH278382   3.992   4.881   2.065  0.1575  0.4963 -0.1680
18964TIP3    H178383   3.966   4.968   2.096 -0.0344 -0.3386  2.1829
18964TIP3    H278384   3.927   4.822   2.103  0.8617 -0.7927 -0.9114
18965TIP3   OH278385   0.806   4.548  12.677 -0.3128  0.4275 -0.1987
18965TIP3    H178386   0.712   4.545  12.690 -0.1339  0.0977  1.1834
18965TIP3    H278387   0.826   4.472  12.622 -0.7685  0.1435  0.0307
18966TIP3   OH278388   6.124   4.299   4.897  0.1599 -0.6229 -0.2221
18966TIP3    H178389   6.166   4.344   4.971  0.8043 -0.2234 -0.8241
18966TIP3    H278390   6.109   4.368   4.833  1.4407 -1.3037 -1.2952
18967TIP3   OH278391   5.734   4.365  17.246 -0.3977  0.3070 -0.6029
18967TIP3    H178392   5.801   4.330  17.304  0.2827 -0.3416 -1.7287
18967TIP3    H278393   5.652   4.351  17.292 -0.0632 -1.9925 -0.6155
18968TIP3   OH278394   5.703   4.356  15.527  0.1350 -0.2094 -0.8765
18968TIP3    H178395   5.730   4.267  15.503  1.1172 -0.5016  1.1359
18968TIP3    H278396   5.779   4.393  15.571 -0.3560  1.5647 -1.4290
18969TIP3   OH278397   1.381   2.461   5.581  0.3014 -0.7389 -0.3458
18969TIP3    H178398   1.387   2.522   5.655  0.5007 -0.1278 -0.8565
18969TIP3    H278399   1.292   2.426   5.586 -1.4920  2.9117 -2.5664
18970TIP3   OH278400   6.332   1.053  11.848 -0.1230  1.0132 -0.0842
18970TIP3    H178401   6.323   1.148  11.853 -2.5512  0.8247  0.2734
18970TIP3    H278402   6.313   1.032  11.756  0.9946  0.8734 -0.3084
18971TIP3   OH278403   3.252   4.139  13.463  0.5429  0.1081  0.3364
18971TIP3    H178404   3.331   4.193  13.467 -0.0592  1.2167 -1.4206
18971TIP3    H278405   3.250   4.106  13.373 -1.0335  0.2116  0.3017
18972TIP3   OH278406   5.595   5.603  12.962 -0.3736  0.2637 -0.6544
18972TIP3    H178407   5.505   5.637  12.957 -0.5112  0.1113  0.4855
18972TIP3    H278408   5.591   5.537  13.031  0.6234  0.2648 -0.5928
18973TIP3   OH278409   1.714   1.117   4.172  0.4819  0.2573 -0.8992
18973TIP3    H178410   1.743   1.194   4.220  0.0547 -0.7136  0.9849
18973TIP3    H278411   1.677   1.152   4.091  2.4635  1.8403 -1.1930
18974TIP3   OH278412   2.819   2.288  12.842  0.0700 -0.2551 -0.6305
18974TIP3    H178413   2.727   2.298  12.817  0.4822  2.6163 -1.4372
18974TIP3    H278414   2.838   2.366  12.894  2.1553 -0.5558 -0.8425
18975TIP3   OH278415   0.815   0.563   5.987 -0.1585  0.3967 -0.3020
18975TIP3    H178416   0.756   0.507   6.038  0.4567 -1.3719 -1.4341
18975TIP3    H278417   0.765   0.586   5.909  0.9904 -2.2656 -1.9517
18976TIP3   OH278418   1.216   0.236  15.997 -0.1870 -0.0516  0.0617
18976TIP3    H178419   1.289   0.188  16.034 -0.4165  0.1071  0.7299
18976TIP3    H278420   1.240   0.249  15.905  1.9179  2.3958  0.8489
18977TIP3   OH278421   1.381   4.700   5.091  0.2770 -0.0052  0.2139
18977TIP3    H178422   1.440   4.686   5.017 -0.4715  1.4800 -0.7024
18977TIP3    H278423   1.310   4.637   5.077  0.4048 -0.0981 -0.0153
18978TIP3   OH278424   6.011   2.562  12.018 -0.3885 -0.7325  0.0860
18978TIP3    H178425   6.033   2.577  12.110  0.6518  1.6012 -0.4648
18978TIP3    H278426   5.936   2.619  12.002 -0.9021 -1.5261 -0.3953
18979TIP3   OH278427   2.809   4.752   4.588 -0.1605  0.1271  0.3522
18979TIP3    H178428   2.751   4.778   4.660 -0.8627 -0.0230 -0.1444
18979TIP3    H278429   2.859   4.831   4.569 -0.5897  0.4268  0.4368
18980TIP3   OH278430   6.732   0.814  14.003  0.3926  0.3635  0.3191
18980TIP3    H178431   6.739   0.720  14.015 -1.1742  0.4638  2.7431
18980TIP3    H278432   6.750   0.851  14.090  1.1158  2.3202 -0.5956
18981TIP3   OH278433   3.901   2.681  11.937  0.1176 -0.3153 -0.6251
18981TIP3    H178434   3.869   2.730  12.013  1.7403 -0.8671  0.4720
18981TIP3    H278435   3.917   2.593  11.971  3.0063 -0.0077 -0.9656
18982TIP3   OH278436   2.263   3.983   2.758  0.0755  0.6930 -0.1004
18982TIP3    H178437   2.315   3.902   2.754 -0.8308 -0.0364  1.8049
18982TIP3    H278438   2.210   3.973   2.837  1.3314  3.9955  1.3020
18983TIP3   OH278439   5.697   5.244   1.082  0.6367 -0.9442 -0.1677
18983TIP3    H178440   5.780   5.243   1.034  0.8900 -1.1009  0.2586
18983TIP3    H278441   5.633   5.208   1.022  0.6510  0.2310 -0.9110
18984TIP3   OH278442   0.370   1.050   4.540 -0.8324 -0.4634  0.5318
18984TIP3    H178443   0.395   0.963   4.506  1.8148  0.2796  0.3494
18984TIP3    H278444   0.425   1.111   4.491  1.2055  0.8875  4.1578
18985TIP3   OH278445   0.886   0.875  12.030  0.2093  0.2039  0.6652
18985TIP3    H178446   0.847   0.802  11.982  0.6553  0.1073  0.4392
18985TIP3    H278447   0.891   0.946  11.966 -1.5232  0.9062  1.2626
18986TIP3   OH278448   0.850   2.616  14.391  0.0244 -0.3073 -0.1712
18986TIP3    H178449   0.798   2.613  14.471 -0.0624  1.1487 -0.1519
18986TIP3    H278450   0.789   2.649  14.324  0.3259 -0.7305 -0.6685
18987TIP3   OH278451   3.043   1.420   4.419 -0.1782 -0.2639  0.2423
18987TIP3    H178452   3.080   1.506   4.396 -1.0284 -0.0273 -0.3040
18987TIP3    H278453   3.058   1.412   4.514 -0.2573  0.5698  0.3332
18988TIP3   OH278454   3.950   2.012  15.145  0.0314  0.1444  0.0783
18988TIP3    H178455   3.900   1.967  15.213 -1.7400  1.1758 -0.4495
18988TIP3    H278456   3.933   1.962  15.065 -1.7051  1.4362 -0.4513
18989TIP3   OH278457   5.495   1.190  13.487  0.2160 -0.0294 -0.5501
18989TIP3    H178458   5.455   1.270  13.454  2.1211  0.7788 -1.0033
18989TIP3    H278459   5.552   1.160  13.416 -0.0189 -1.4696 -0.1688
18990TIP3   OH278460   2.374   1.090  10.851  0.2086  0.2841  0.1956
18990TIP3    H178461   2.444   1.032  10.881 -0.5127  0.2606  1.9121
18990TIP3    H278462   2.299   1.032  10.836  0.0985  0.5040 -0.1233
18991TIP3   OH278463   1.038   5.198  14.964 -0.4315  0.7310  0.7227
18991TIP3    H178464   1.010   5.107  14.973  2.3722 -0.6454 -2.5591
18991TIP3    H278465   0.979   5.246  15.023 -4.6060 -2.6149 -0.1934
18992TIP3   OH278466   6.718   4.801   0.982 -0.1613 -0.1606  0.1268
18992TIP3    H178467   6.652   4.771   1.045 -0.9189  2.2637  0.6098
18992TIP3    H278468   6.764   4.871   1.028  2.4016 -1.3750 -0.4485
18993TIP3   OH278469   6.505   6.677   1.128  0.6378 -0.2684  0.0520
18993TIP3    H178470   6.529   6.589   1.100  0.2533 -0.6434  0.8562
18993TIP3    H278471   6.505   6.672   1.224  2.1618  1.0203  0.1638
18994TIP3   OH278472   6.675   0.175  14.844 -0.6241 -0.0841  0.2393
18994TIP3    H178473   6.743   0.236  14.816 -1.2637  0.8726  0.7104
18994TIP3    H278474   6.684   0.100  14.785  0.3039  0.3760 -0.2254
18995TIP3   OH278475   1.327   1.348  13.207 -0.4767 -0.0030  0.1687
18995TIP3    H178476   1.398   1.283  13.207  0.3065  0.8100 -0.7920
18995TIP3    H278477   1.274   1.326  13.131 -1.4002 -0.7269  0.9963
18996TIP3   OH278478   4.485   5.446  17.009 -0.2126 -0.2337 -0.3903
18996TIP3    H178479   4.506   5.522  16.955 -0.5688 -0.5893 -1.0414
18996TIP3    H278480   4.525   5.372  16.963 -1.2908 -0.6660 -0.6592
18997TIP3   OH278481   0.644   4.441  14.819  0.1592 -0.6648  0.0614
18997TIP3    H178482   0.592   4.361  14.809  1.8313 -1.7675 -0.1446
18997TIP3    H278483   0.732   4.417  14.790  0.2394  1.8772 -2.1088
18998TIP3   OH278484   5.025   1.186  14.632 -0.1112 -0.7621  0.8348
18998TIP3    H178485   5.087   1.126  14.675  1.1620  0.6690  1.0884
18998TIP3    H278486   5.043   1.176  14.539  0.1013 -0.7951  0.8770
18999TIP3   OH278487   3.717   4.864  11.497  0.3948  0.6093  0.6023
18999TIP3    H178488   3.759   4.797  11.442  0.8627  1.2333  0.1835
18999TIP3    H278489   3.630   4.828  11.516 -0.1042  0.7510 -1.2587
19000TIP3   OH278490   6.070   4.957  13.321  0.1287 -0.0866 -0.1179
19000TIP3    H178491   6.158   4.989  13.344 -0.2491  2.3763 -1.6331
19000TIP3    H278492   6.012   5.000  13.383 -0.1191 -0.6391  0.0337
19001TIP3   OH278493   2.339   2.177   6.419  0.4021 -0.2700 -0.5616
19001TIP3    H178494   2.419   2.151   6.464 -0.0861  0.4393  0.7846
19001TIP3    H278495   2.362   2.258   6.373  0.5583 -0.2675 -0.4795
19002TIP3   OH278496   3.953   5.348   1.790 -0.1437 -0.1160 -0.6765
19002TIP3    H178497   3.988   5.265   1.821  0.4761  0.6832  0.9051
19002TIP3    H278498   4.030   5.404   1.780 -0.7297  0.9852  0.6364
19003TIP3   OH278499   2.515   0.037  12.005  0.2519  0.7705 -0.4568
19003TIP3    H178500   2.553  -0.044  12.037  0.1708  0.9260  0.0396
19003TIP3    H278501   2.497   0.021  11.912 -1.8470 -0.5598  0.1150
19004TIP3   OH278502   2.649   4.387   3.321  0.6320 -0.5465  0.5947
19004TIP3    H178503   2.665   4.311   3.377 -0.4449 -0.0684  1.6072
19004TIP3    H278504   2.653   4.462   3.381  1.5099  0.1949 -0.3534
19005TIP3   OH278505   5.411   0.528  14.262 -0.2812 -0.1057 -0.0300
19005TIP3    H178506   5.397   0.480  14.180  0.9301 -0.1467 -0.2293
19005TIP3    H278507   5.377   0.469  14.329 -0.5533 -0.4229 -0.4372
19006TIP3   OH278508   1.644   2.942  11.807 -0.0797  0.1078  0.7386
19006TIP3    H178509   1.583   2.936  11.733 -0.3122  1.4940  0.8067
19006TIP3    H278510   1.696   3.020  11.789  1.6850 -1.0234  0.7071
19007TIP3   OH278511   4.075   6.571  11.895 -0.1166 -0.7320  0.1412
19007TIP3    H178512   4.082   6.532  11.808  2.1344  1.0690 -0.6021
19007TIP3    H278513   4.017   6.647  11.882 -0.3937 -0.9036  0.3831
19008TIP3   OH278514   3.370   1.344  14.563 -0.3986 -0.3585  0.3246
19008TIP3    H178515   3.428   1.343  14.488 -0.0190 -1.9708  0.5926
19008TIP3    H278516   3.401   1.416  14.617 -0.6363  0.7773 -1.0104
19009TIP3   OH278517   5.502   1.232  13.056 -0.1678 -0.3471 -0.1446
19009TIP3    H178518   5.418   1.189  13.045 -1.2807  1.9110 -1.0419
19009TIP3    H278519   5.559   1.191  12.990 -1.3919  0.0153 -1.4660
19010TIP3   OH278520   0.531   1.235   2.251 -0.0865  1.0992  0.2641
19010TIP3    H178521   0.555   1.319   2.289  1.6062  0.5840  0.4434
19010TIP3    H278522   0.497   1.256   2.164 -2.6081  2.1700  1.4135
19011TIP3   OH278523   1.332   6.258   5.436 -0.4177  0.2065 -0.2370
19011TIP3    H178524   1.261   6.317   5.411 -1.8609 -0.1231  2.5924
19011TIP3    H278525   1.397   6.315   5.478  0.0572  0.2594 -1.0373
19012TIP3   OH278526   6.771   6.397  11.157 -0.0811 -0.1916  0.5814
19012TIP3    H178527   6.746   6.484  11.129  0.9835 -0.2808 -0.7377
19012TIP3    H278528   6.857   6.409  11.199 -1.0700 -0.2500  2.7708
19013TIP3   OH278529   2.916   4.562  14.189  0.1156 -0.0170 -0.0515
19013TIP3    H178530   2.917   4.597  14.278  1.2426  0.1438 -0.1161
19013TIP3    H278531   2.825   4.537  14.174  0.0697 -0.8532  1.4479
19014TIP3   OH278532   3.293   3.364   0.026 -0.3879  0.5634  0.1567
19014TIP3    H178533   3.248   3.395  -0.053  0.2207 -1.8620 -1.2311
19014TIP3    H278534   3.225   3.366   0.094 -1.7725 -0.0540 -1.1393
19015TIP3   OH278535   5.565   1.746   5.251 -0.1243 -0.4779  1.1169
19015TIP3    H178536   5.624   1.713   5.319  2.1571  1.4847  0.2000
19015TIP3    H278537   5.608   1.724   5.169 -1.6863 -0.7251  0.3251
19016TIP3   OH278538   6.485   4.658  17.278 -0.3755 -0.0085  0.0586
19016TIP3    H178539   6.425   4.590  17.248 -1.8673  0.5648  1.6131
19016TIP3    H278540   6.520   4.695  17.197 -1.2438 -1.1102 -0.8692
19017TIP3   OH278541   0.642   0.729  17.080 -0.2029 -0.4196  0.6666
19017TIP3    H178542   0.591   0.794  17.127  0.8113  0.6924  0.2728
19017TIP3    H278543   0.651   0.656  17.142  0.0537  0.4930  1.7262
19018TIP3   OH278544   2.953   3.317  15.622 -0.0187  0.7810 -0.1548
19018TIP3    H178545   2.970   3.392  15.566  0.3916 -1.5711 -3.4934
19018TIP3    H278546   2.859   3.300  15.612  0.0768  0.2704 -0.2387
19019TIP3   OH278547   3.260   0.666   5.247  0.3671  0.4592  0.0512
19019TIP3    H178548   3.225   0.727   5.312  1.7245  0.7253  0.5660
19019TIP3    H278549   3.184   0.612   5.222 -0.7506  2.0512 -0.1047
19020TIP3   OH278550   3.526   3.421   1.663  0.4523 -0.1033 -0.6840
19020TIP3    H178551   3.496   3.339   1.703 -1.2193  0.6025 -0.4298
19020TIP3    H278552   3.517   3.406   1.569  2.4429 -1.0287 -0.7819
19021TIP3   OH278553   3.975   4.146   4.253 -0.0746 -0.0053 -0.1772
19021TIP3    H178554   3.888   4.171   4.220 -1.9802 -2.0146  2.7713
19021TIP3    H278555   3.992   4.208   4.324 -0.4376 -1.1566  0.9742
19022TIP3   OH278556   6.362   3.768  15.000  0.1407 -0.0787  0.3608
19022TIP3    H178557   6.267   3.774  15.005 -0.0242 -2.1448  0.7030
19022TIP3    H278558   6.380   3.748  14.908  0.2862  0.7168  0.2115
19023TIP3   OH278559   2.609   0.604  10.850  0.3505  0.5003 -0.0171
19023TIP3    H178560   2.532   0.657  10.832 -0.2814 -0.1085  0.8244
19023TIP3    H278561   2.610   0.538  10.781  1.1219  1.5353 -1.0522
19024TIP3   OH278562   1.192   4.875  13.040  0.1092 -0.7140 -0.8386
19024TIP3    H178563   1.100   4.897  13.054  0.4208  0.7759 -0.9917
19024TIP3    H278564   1.227   4.862  13.127  0.5114  2.0719 -0.5034
19025TIP3   OH278565   2.818   4.851  13.466 -0.2260  0.2537  0.1780
19025TIP3    H178566   2.724   4.848  13.481 -0.2243  0.9897  0.3993
19025TIP3    H278567   2.855   4.874  13.551  0.0490  1.1709 -0.1734
19026TIP3   OH278568   0.548   1.279  16.573  0.2460  0.2761 -0.1287
19026TIP3    H178569   0.641   1.257  16.571  0.2945  0.4684  0.0082
19026TIP3    H278570   0.519   1.267  16.482  0.5833  0.9869 -0.3372
19027TIP3   OH278571   1.862   5.871   5.456  0.2393  0.5661  0.3347
19027TIP3    H178572   1.787   5.929   5.468 -0.1247  0.3353 -0.7573
19027TIP3    H278573   1.871   5.826   5.540 -1.1455  0.2494  0.3323
19028TIP3   OH278574   4.560   6.437   3.808  0.0958  0.0051  0.6720
19028TIP3    H178575   4.648   6.421   3.774  1.2090  0.1031  3.2610
19028TIP3    H278576   4.568   6.421   3.902 -2.7441 -0.2559  0.9505
19029TIP3   OH278577   6.378   3.216  16.165  0.0712 -0.1845  0.2796
19029TIP3    H178578   6.296   3.264  16.152 -1.4140 -2.3907  1.0200
19029TIP3    H278579   6.417   3.257  16.242 -0.6292  0.5051  0.2827
19030TIP3   OH278580   6.572   2.109  14.655  0.5198  0.6090  0.1155
19030TIP3    H178581   6.476   2.107  14.649  0.5899  0.0130 -1.5615
19030TIP3    H278582   6.593   2.199  14.679 -0.4283  1.3419 -1.5697
19031TIP3   OH278583   3.691   0.188   2.065  0.3817 -0.2793  0.2143
19031TIP3    H178584   3.713   0.167   1.974  1.5922  0.4072  0.3307
19031TIP3    H278585   3.748   0.131   2.118 -1.8667 -2.3178  0.6176
19032TIP3   OH278586   2.723   1.382   1.083 -0.3393  1.0039 -0.8813
19032TIP3    H178587   2.751   1.374   0.992 -0.8713  3.0999 -1.2772
19032TIP3    H278588   2.631   1.355   1.083  0.2058 -1.0477 -0.5114
19033TIP3   OH278589   3.709   3.518   0.481 -0.6484  0.4584  0.2066
19033TIP3    H178590   3.764   3.539   0.557 -1.4069 -1.5546  1.3813
19033TIP3    H278591   3.770   3.480   0.417  0.1285  2.8355 -0.5777
19034TIP3   OH278592   3.500   1.054  11.478 -0.1706  0.1664  0.6038
19034TIP3    H178593   3.416   1.048  11.432  0.6397  1.5926 -1.1979
19034TIP3    H278594   3.516   0.965  11.509 -0.9647 -0.8485 -1.6282
19035TIP3   OH278595   0.166   6.721   0.379  0.0604 -0.1868  0.0565
19035TIP3    H178596   0.130   6.809   0.378 -0.1803 -0.2413  1.3890
19035TIP3    H278597   0.259   6.733   0.400  0.2155 -0.2060 -0.6059
19036TIP3   OH278598   0.826   1.152   1.925 -0.0448 -0.2202 -0.2460
19036TIP3    H178599   0.763   1.084   1.950  0.5202 -0.5006  0.4540
19036TIP3    H278600   0.879   1.164   2.003  2.1980 -1.5804 -1.4571
19037TIP3   OH278601   5.983   1.799  16.483  0.2252 -0.0235  0.7016
19037TIP3    H178602   5.936   1.734  16.535 -1.7401  1.5215  0.9651
19037TIP3    H278603   5.965   1.883  16.527  0.1908  1.0844 -1.3045
19038TIP3   OH278604   1.697   5.003   2.625  0.0414 -0.6746 -0.1907
19038TIP3    H178605   1.692   4.966   2.537 -0.9394  0.3597 -0.6018
19038TIP3    H278606   1.613   5.049   2.636  0.9265  0.8340  0.5267
19039TIP3   OH278607   0.991   5.240   1.589  0.0655  0.5009  0.5449
19039TIP3    H178608   0.913   5.244   1.534  0.3452  0.6959  0.1592
19039TIP3    H278609   1.045   5.172   1.549 -0.2541 -0.2017  1.2786
19040TIP3   OH278610   1.470   5.500  12.177  0.1861  0.0761 -0.3591
19040TIP3    H178611   1.411   5.470  12.108 -0.1977 -0.3385  0.1416
19040TIP3    H278612   1.533   5.558  12.132  0.2233 -0.5505 -1.1280
19041TIP3   OH278613   4.991   4.107   0.719  0.0782  0.1442  0.0047
19041TIP3    H178614   4.970   4.148   0.635 -1.0817 -0.9074 -0.2548
19041TIP3    H278615   4.935   4.152   0.782 -1.0737 -0.8700 -0.2539
19042TIP3   OH278616   4.390   2.048   3.525 -0.0219  0.0081  0.1541
19042TIP3    H178617   4.323   2.101   3.568 -0.9415 -0.5349 -0.5685
19042TIP3    H278618   4.379   2.067   3.432  0.7128 -0.2308  0.0078
19043TIP3   OH278619   6.573   2.116   5.687 -0.4996 -0.1338 -0.1979
19043TIP3    H178620   6.477   2.110   5.688 -0.5049 -1.8800 -2.3974
19043TIP3    H278621   6.595   2.131   5.595  1.3417  0.3311  0.2751
19044TIP3   OH278622   5.797   1.378  13.081 -0.1703  0.3988  0.7414
19044TIP3    H178623   5.739   1.315  13.123 -3.1490  1.2233 -1.7374
19044TIP3    H278624   5.881   1.367  13.125 -1.7882 -1.9187  3.5899
19045TIP3   OH278625   6.635   5.285  16.244 -0.2158  0.2447  0.2547
19045TIP3    H178626   6.606   5.234  16.169  0.5634  1.8654 -1.2207
19045TIP3    H278627   6.608   5.234  16.320  0.1805 -2.1466 -1.1221
19046TIP3   OH278628   0.230   5.900   4.253  0.4534 -0.1825 -0.1355
19046TIP3    H178629   0.191   5.817   4.223 -1.0471  1.1953 -2.2956
19046TIP3    H278630   0.314   5.874   4.290  0.7148 -2.5706 -2.0986
19047TIP3   OH278631   1.629   2.404  11.645  0.4130  0.3327  0.0743
19047TIP3    H178632   1.644   2.310  11.637  1.4019  0.3623  1.2494
19047TIP3    H278633   1.542   2.412  11.683  0.4882 -0.1202  0.3370
19048TIP3   OH278634   3.610   4.880   4.640  0.3155 -0.3040  0.2011
19048TIP3    H178635   3.625   4.866   4.734  1.2588 -1.4205 -0.1105
19048TIP3    H278636   3.551   4.809   4.614 -1.3250  0.9679  0.2721
19049TIP3   OH278637   3.126   0.949   3.056 -0.1149 -0.0098  0.1796
19049TIP3    H178638   3.109   0.972   3.147  2.2922 -0.9788  0.9573
19049TIP3    H278639   3.217   0.920   3.055 -0.2233 -0.5424 -2.4547
19050TIP3   OH278640   6.063   3.408  14.377 -0.4117  0.1840 -0.0934
19050TIP3    H178641   6.102   3.336  14.426  0.6691  0.2227 -0.8769
19050TIP3    H278642   6.119   3.484  14.395 -0.5768  0.4333 -0.5933
19051TIP3   OH278643   2.662   1.454   4.979  0.0313 -0.2502 -0.0518
19051TIP3    H178644   2.613   1.394   4.923 -1.0030 -0.0364  0.5997
19051TIP3    H278645   2.641   1.541   4.944  1.4844 -0.2317 -0.9632
19052TIP3   OH278646   3.779   2.187  15.741  0.1370  0.0954 -0.7573
19052TIP3    H178647   3.732   2.260  15.782  0.0240 -1.5801  2.4089
19052TIP3    H278648   3.716   2.115  15.742  0.8306 -0.5569 -2.1360
19053TIP3   OH278649   2.148   4.060   4.006  0.2433 -0.7476 -0.0676
19053TIP3    H178650   2.061   4.039   3.973 -0.2684  0.6256  0.3306
19053TIP3    H278651   2.157   4.154   3.992  1.1821 -0.6533  0.9792
19054TIP3   OH278652   6.225   3.954   4.738 -0.1237 -0.2778 -0.1182
19054TIP3    H178653   6.279   4.031   4.754 -0.3178 -0.4144  1.3415
19054TIP3    H278654   6.204   3.958   4.645 -0.9985  2.0040  0.1144
19055TIP3   OH278655   0.052   1.609   0.338  0.4056  0.0286  0.2424
19055TIP3    H178656   0.074   1.595   0.246  0.5084  0.4327  0.2031
19055TIP3    H278657  -0.022   1.670   0.336 -1.2701 -1.9221  0.3483
19056TIP3   OH278658   3.330   1.046  16.775  0.2199 -0.5433 -0.3169
19056TIP3    H178659   3.266   1.017  16.840  0.9705 -0.3742  0.5209
19056TIP3    H278660   3.283   1.045  16.692 -0.8154 -0.5699  0.2623
19057TIP3   OH278661   3.227   1.630   2.912 -0.4244  0.1803  0.2320
19057TIP3    H178662   3.236   1.589   2.998  2.7760  1.1493  0.4840
19057TIP3    H278663   3.223   1.558   2.850 -1.7769 -0.5139  1.0860
19058TIP3   OH278664   6.078   1.022  15.322 -0.7782  0.2095 -0.2706
19058TIP3    H178665   6.108   0.941  15.281 -0.3729 -0.3801  1.1452
19058TIP3    H278666   6.103   1.090  15.260  1.6286 -0.4708 -0.1541
19059TIP3   OH278667   5.055   0.265  12.774  0.6744  0.3148  0.1721
19059TIP3    H178668   4.983   0.240  12.831  1.5413 -0.7747  0.8377
19059TIP3    H278669   5.097   0.339  12.819  2.2048 -1.4050  1.7737
19060TIP3   OH278670   2.368   0.844   2.730  0.2090 -0.7733 -0.3425
19060TIP3    H178671   2.411   0.759   2.731  0.0427 -0.8933  1.8045
19060TIP3    H278672   2.440   0.907   2.734  0.2968 -0.8232 -0.9806
19061TIP3   OH278673   6.726   0.971   5.579  0.2751 -0.6356  0.3418
19061TIP3    H178674   6.786   0.901   5.552 -0.8246 -1.5535  0.2405
19061TIP3    H278675   6.757   0.996   5.666  1.0903 -0.7726  0.1036
19062TIP3   OH278676   3.868   0.514   3.212 -0.6083 -0.1282 -0.1269
19062TIP3    H178677   3.873   0.444   3.278  1.8833 -0.3809 -0.4955
19062TIP3    H278678   3.934   0.490   3.147  0.9744  2.9774  0.1616
19063TIP3   OH278679   1.382   5.111  14.651  0.1617 -0.1324 -0.1814
19063TIP3    H178680   1.391   5.183  14.714 -0.4559  0.3456 -0.6152
19063TIP3    H278681   1.410   5.033  14.698 -0.3669  0.2090  0.7156
19064TIP3   OH278682   4.507   1.050  13.014 -0.2833 -0.2601 -0.1209
19064TIP3    H178683   4.511   0.959  12.984  0.6758 -1.3113  2.8182
19064TIP3    H278684   4.422   1.058  13.056 -0.6408  0.4423 -0.9515
19065TIP3   OH278685   3.431   0.761  16.915  0.6164 -0.4235 -0.0001
19065TIP3    H178686   3.502   0.697  16.914 -0.8895 -2.2785 -2.4381
19065TIP3    H278687   3.455   0.824  16.846  1.1160  0.5049  0.9981
19066TIP3   OH278688   2.184   6.236   4.383 -0.4935  0.7361 -0.5083
19066TIP3    H178689   2.123   6.168   4.355  0.4470 -0.4105  0.1653
19066TIP3    H278690   2.146   6.269   4.465 -1.7573  2.1428 -1.5932
19067TIP3   OH278691   3.794   4.173  17.111  0.2971 -0.3049 -0.1669
19067TIP3    H178692   3.725   4.146  17.172 -1.1647  0.8616 -1.2139
19067TIP3    H278693   3.812   4.095  17.058  0.9208 -1.0592  1.0993
19068TIP3   OH278694   4.462   3.180  17.339 -0.0181  0.0485  0.6058
19068TIP3    H178695   4.458   3.272  17.311  0.2712 -0.1145  0.0218
19068TIP3    H278696   4.529   3.179  17.407  0.5261  0.1381  0.0774
19069TIP3   OH278697   5.454   2.978  14.344  0.3881  0.5303  0.3853
19069TIP3    H178698   5.369   2.950  14.377 -0.2483  0.0639 -1.5574
19069TIP3    H278699   5.464   2.933  14.261  2.5952  0.5059  0.5938
19070TIP3   OH278700   6.094   1.781   0.656 -0.1090  0.6952 -0.4543
19070TIP3    H178701   6.160   1.730   0.703  0.5648  2.8485  1.1152
19070TIP3    H278702   6.027   1.799   0.722 -0.6917  1.1907 -1.1698
19071TIP3   OH278703   0.818   1.843  12.767  0.2731  0.4258 -0.2274
19071TIP3    H178704   0.779   1.917  12.814 -0.6750 -0.0569 -0.2221
19071TIP3    H278705   0.800   1.768  12.823  2.9945  0.4190  0.7817
19072TIP3   OH278706   0.952   5.969  13.820 -0.2979  0.0813  0.2782
19072TIP3    H178707   0.879   5.907  13.812 -0.3131  0.1131  0.1796
19072TIP3    H278708   0.974   5.993  13.730  0.9258 -1.2156  0.1849
19073TIP3   OH278709   1.257   2.153  13.550 -0.0613 -0.4013  0.2251
19073TIP3    H178710   1.197   2.088  13.514  0.9954 -0.5555 -1.3851
19073TIP3    H278711   1.236   2.233  13.502  0.0059 -0.0687  0.7454
19074TIP3   OH278712   4.060   6.197   4.090  0.4254  0.5121 -0.1026
19074TIP3    H178713   4.081   6.152   4.008 -0.7531 -0.5753  0.1671
19074TIP3    H278714   4.146   6.217   4.128  0.9839 -0.0265 -1.0263
19075TIP3   OH278715   4.827   1.354   5.648 -0.1601  0.4523 -0.2938
19075TIP3    H178716   4.760   1.350   5.717  1.2419 -0.8121  1.0863
19075TIP3    H278717   4.792   1.416   5.585 -2.2381  0.4929  0.7836
19076TIP3   OH278718   6.401   3.646  13.831  0.2633 -0.2076 -0.4188
19076TIP3    H178719   6.371   3.644  13.740  3.6716  0.9807 -1.7345
19076TIP3    H278720   6.428   3.556  13.850  1.0830 -0.1428 -1.2110
19077TIP3   OH278721   5.391   0.602   3.112 -0.2907  0.2720  0.2993
19077TIP3    H178722   5.455   0.596   3.183  1.2546 -0.6514 -1.1075
19077TIP3    H278723   5.424   0.672   3.056  1.2724 -2.1447 -2.0268
19078TIP3   OH278724   2.331   0.128   1.224 -0.4832  0.2944  0.0898
19078TIP3    H178725   2.334   0.184   1.301  0.8231  2.1226 -1.1885
19078TIP3    H278726   2.419   0.092   1.217 -0.2820  0.9390 -1.0366
19079TIP3   OH278727   0.756   5.605   3.770  0.6526  0.0742 -0.4887
19079TIP3    H178728   0.838   5.561   3.794  1.8753  1.5729 -1.6968
19079TIP3    H278729   0.709   5.540   3.717  1.8553 -0.2427 -1.2073
19080TIP3   OH278730   5.314   5.620   5.514 -0.0591 -0.0599 -0.8482
19080TIP3    H178731   5.229   5.599   5.553 -0.0575 -0.0051 -0.8149
19080TIP3    H278732   5.305   5.711   5.485  0.9265  0.9621  1.7690
19081TIP3   OH278733   0.178   0.015  10.984 -0.0122  0.0910 -0.7102
19081TIP3    H178734   0.131  -0.055  10.938  1.6053 -0.4546 -1.6168
19081TIP3    H278735   0.225  -0.030  11.054  0.7893  0.2904 -1.1072
19082TIP3   OH278736   4.660   1.299   1.470 -0.0435  0.3430  0.0224
19082TIP3    H178737   4.631   1.378   1.517 -0.7321  1.1569 -1.6701
19082TIP3    H278738   4.582   1.244   1.465 -0.1867  0.5993 -0.7767
19083TIP3   OH278739   0.986   1.480   3.497 -0.4173 -0.6476 -0.4198
19083TIP3    H178740   0.939   1.543   3.551  0.5815  0.0472 -0.3372
19083TIP3    H278741   0.920   1.447   3.436 -1.1127 -0.0482 -0.0087
19084TIP3   OH278742   1.359   4.413  11.823  0.0563  0.7776  0.4667
19084TIP3    H178743   1.430   4.468  11.855  1.0051 -1.1797  1.9444
19084TIP3    H278744   1.295   4.413  11.895 -0.1242  0.2773  0.3097
19085TIP3   OH278745   4.280   1.072  17.428  0.3953  0.3087  0.0688
19085TIP3    H178746   4.211   1.015  17.461  1.3037 -0.5282  0.5906
19085TIP3    H278747   4.359   1.017  17.431  1.2081  1.4587  0.1678
19086TIP3   OH278748   1.580   1.550  16.527  0.2437  0.0643  0.1641
19086TIP3    H178749   1.579   1.530  16.434  2.8741  0.3614 -0.0019
19086TIP3    H278750   1.524   1.628  16.536 -0.6323 -0.4004 -0.9990
19087TIP3   OH278751   6.674   0.890  17.035  0.3201 -0.7039 -0.3309
19087TIP3    H178752   6.754   0.938  17.015  0.5738 -0.1708  1.7055
19087TIP3    H278753   6.605   0.956  17.034  0.1773 -0.8538 -0.4762
19088TIP3   OH278754   2.808   4.090  13.460  0.4158  0.0669  0.0086
19088TIP3    H178755   2.854   4.140  13.528 -0.9625  0.6819  0.5198
19088TIP3    H278756   2.868   4.018  13.438 -0.3355 -2.2197  4.2995
19089TIP3   OH278757   4.799   0.370   2.966  0.2024 -0.3263  0.2602
19089TIP3    H178758   4.848   0.388   2.886  0.0704  0.6255  0.3846
19089TIP3    H278759   4.834   0.432   3.030  0.0675 -0.8448  0.8448
19090TIP3   OH278760   6.629   2.950  14.441  0.2663 -0.3608  0.2603
19090TIP3    H178761   6.643   2.992  14.356  2.4311 -0.3566  0.5531
19090TIP3    H278762   6.537   2.925  14.441 -0.2871  1.4649 -1.2475
19091TIP3   OH278763   1.803   0.277   2.275 -0.4112 -0.0264  0.1925
19091TIP3    H178764   1.794   0.368   2.248  0.5495 -0.3303 -1.2030
19091TIP3    H278765   1.843   0.282   2.362  3.2977  0.8830 -1.3836
19092TIP3   OH278766   1.415   3.401   0.199 -0.0248  0.6420 -0.4485
19092TIP3    H178767   1.510   3.398   0.211 -0.0501  0.7694 -0.2054
19092TIP3    H278768   1.401   3.480   0.146 -0.0743  1.1869  0.3556
19093TIP3   OH278769   2.965   0.051  13.864 -0.0445 -0.4352  1.1607
19093TIP3    H178770   2.965   0.131  13.917  0.2981 -0.2480  0.8760
19093TIP3    H278771   2.876   0.017  13.873 -0.4143  0.3705  0.6945
19094TIP3   OH278772   5.999   0.040   2.967 -0.0548 -0.2082  0.4797
19094TIP3    H178773   6.036  -0.039   2.927  0.0135  0.0236  0.0819
19094TIP3    H278774   6.011   0.027   3.061  1.2648 -0.0200  0.3502
19095TIP3   OH278775   2.215   2.976   6.858  0.5518 -0.1242 -0.4731
19095TIP3    H178776   2.213   3.051   6.799 -1.2556 -0.3965 -0.8391
19095TIP3    H278777   2.162   3.003   6.933  2.3561  0.0084  0.8233
19096TIP3   OH278778   3.930   4.958  15.999 -0.6645 -0.4610  0.1568
19096TIP3    H178779   3.871   5.033  16.004  0.8202  0.7172  0.5173
19096TIP3    H278780   3.936   4.926  16.090  1.6928  1.4290  0.7630
19097TIP3   OH278781   6.074   2.469  11.184 -0.5964 -0.3771 -0.0730
19097TIP3    H178782   6.167   2.482  11.170 -0.5314  2.5575  2.0488
19097TIP3    H278783   6.031   2.519  11.115 -0.5522  0.1395  0.2713
19098TIP3   OH278784   2.512   1.202  15.608 -0.2472  0.5940  0.7382
19098TIP3    H178785   2.527   1.264  15.679  1.8532  1.2799 -0.2369
19098TIP3    H278786   2.590   1.148  15.605 -1.4315 -1.2011  0.6233
19099TIP3   OH278787   2.167   0.450   3.852  0.1560  0.3483 -0.0150
19099TIP3    H178788   2.137   0.428   3.940 -0.2241  1.6192  0.2034
19099TIP3    H278789   2.120   0.390   3.794  1.9047 -1.8950  0.7335
19100TIP3   OH278790   3.755   0.793   2.355 -0.2836 -0.0377  0.0005
19100TIP3    H178791   3.843   0.830   2.351  0.3386 -1.5233 -0.3586
19100TIP3    H278792   3.741   0.752   2.270 -0.7931 -0.9800  0.5233
19101TIP3   OH278793   4.914   2.052  13.547 -0.0967  0.2424 -0.3048
19101TIP3    H178794   4.958   1.968  13.532  0.2411  0.0738  1.3963
19101TIP3    H278795   4.920   2.098  13.463  1.6797 -0.5460 -0.6543
19102TIP3   OH278796   4.219   2.215  11.198  0.1275  0.2818  0.0579
19102TIP3    H178797   4.213   2.139  11.140  1.6072 -0.2949  0.5955
19102TIP3    H278798   4.202   2.290  11.142  0.9161 -0.2952 -0.9997
19103TIP3   OH278799   1.165   0.896  12.127 -0.2127  0.9375 -0.3564
19103TIP3    H178800   1.076   0.899  12.092 -1.0104 -1.5478  1.2022
19103TIP3    H278801   1.202   0.816  12.088  0.5591  0.7671  0.7053
19104TIP3   OH278802   6.677   2.958  16.052 -0.7518 -0.5791 -0.1212
19104TIP3    H178803   6.703   2.901  15.980  0.3380  0.9077 -0.9700
19104TIP3    H278804   6.723   3.040  16.035 -0.6544 -0.1037  2.1568
19105TIP3   OH278805   1.346   6.307  17.356 -0.1668  0.0958 -0.4111
19105TIP3    H178806   1.275   6.264  17.308 -0.8159  1.1324 -0.4039
19105TIP3    H278807   1.379   6.374  17.296  0.8845 -0.4385 -0.4522
19106TIP3   OH278808   6.633   1.314   2.978 -0.2234 -0.4428  0.5361
19106TIP3    H178809   6.542   1.343   2.985 -0.5709 -0.9767 -1.2357
19106TIP3    H278810   6.669   1.366   2.906  0.4840 -1.1306  0.3836
19107TIP3   OH278811   0.022   4.852   4.013  0.1695 -0.3539  0.3218
19107TIP3    H178812   0.016   4.829   4.105 -0.6715 -3.3311 -0.3562
19107TIP3    H278813  -0.068   4.841   3.980  0.1752  1.9549 -0.6282
19108TIP3   OH278814   5.476   0.838  15.110  0.1994 -0.8069 -0.1353
19108TIP3    H178815   5.554   0.883  15.076 -1.5324  2.3268 -0.3078
19108TIP3    H278816   5.502   0.811  15.198  1.8606 -1.0246 -0.6370
19109TIP3   OH278817   2.549   5.565   1.073 -0.2181 -0.2290 -0.0396
19109TIP3    H178818   2.573   5.510   1.148  1.0290 -1.9762 -1.6383
19109TIP3    H278819   2.632   5.582   1.028 -0.7342  2.0632 -0.2590
19110TIP3   OH278820   5.291   3.857  10.924  0.4579  0.4726 -0.0516
19110TIP3    H178821   5.325   3.799  10.991  0.0869  1.0017  0.6025
19110TIP3    H278822   5.196   3.839  10.922  0.5949 -0.2888 -1.1758
19111TIP3   OH278823   6.517   3.273   5.276  0.1753  0.7294 -0.3252
19111TIP3    H178824   6.433   3.266   5.231  1.0932 -0.5324 -1.9182
19111TIP3    H278825   6.538   3.367   5.272 -1.8283  1.3344  1.4757
19112TIP3   OH278826   5.979   1.434   2.615  0.3335 -0.1592  0.1810
19112TIP3    H178827   5.902   1.387   2.646  0.7389 -1.3952 -0.6292
19112TIP3    H278828   6.052   1.395   2.661  0.5552  0.5932  0.4864
19113TIP3   OH278829   6.427   2.508   5.277  0.1671  0.3061  0.1773
19113TIP3    H178830   6.346   2.553   5.301  1.0843  1.1163  1.9367
19113TIP3    H278831   6.468   2.565   5.212 -0.8207 -0.3009 -1.0193
19114TIP3   OH278832   2.173   6.187  16.708  0.6288 -0.6645  0.1710
19114TIP3    H178833   2.138   6.147  16.787 -1.6585  1.3273  0.2932
19114TIP3    H278834   2.205   6.273  16.736  0.8400 -0.3927 -0.8601
19115TIP3   OH278835   6.041   3.203   6.729  0.2807 -0.3906 -0.3672
19115TIP3    H178836   6.085   3.285   6.751  0.3572 -0.7093  0.7547
19115TIP3    H278837   6.110   3.148   6.691  0.3391 -0.1132 -0.6639
19116TIP3   OH278838   2.449   1.301   1.045  0.0144 -0.3949  0.6030
19116TIP3    H178839   2.432   1.209   1.027  0.5155 -0.1017 -1.6988
19116TIP3    H278840   2.364   1.344   1.031  0.0014 -0.3928  0.6903
19117TIP3   OH278841   2.352   1.257   4.350 -0.4447 -0.2306 -0.0921
19117TIP3    H178842   2.387   1.336   4.309 -0.3310 -0.2298  0.0054
19117TIP3    H278843   2.367   1.188   4.286 -0.4913 -0.1845 -0.1530
19118TIP3   OH278844   1.008   0.875   0.126 -0.0267  0.1013  0.4167
19118TIP3    H178845   1.024   0.796   0.177 -0.2032 -0.5412 -0.4849
19118TIP3    H278846   1.071   0.871   0.054 -0.3083  0.5709  0.1324
19119TIP3   OH278847   5.432   0.520  15.675 -0.1691  0.7338  0.1156
19119TIP3    H178848   5.345   0.562  15.675 -1.1508 -1.0231 -2.8619
19119TIP3    H278849   5.414   0.428  15.657  2.2831  0.0753  0.7579
19120TIP3   OH278850   6.151   5.071   3.906  0.6827  0.2558 -0.2331
19120TIP3    H178851   6.155   4.976   3.908  0.3090  0.2131 -1.1731
19120TIP3    H278852   6.151   5.094   3.813  0.5223  1.1607 -0.0254
19121TIP3   OH278853   2.637   1.829   1.348  0.0990 -0.4033 -0.0737
19121TIP3    H178854   2.622   1.769   1.421 -0.3266 -0.5847 -0.3092
19121TIP3    H278855   2.672   1.773   1.278  0.6146 -0.2120  0.0217
19122TIP3   OH278856   2.337   2.487  16.146  0.6876  0.1538  0.1788
19122TIP3    H178857   2.285   2.497  16.066 -1.4379  0.7815  1.5473
19122TIP3    H278858   2.362   2.394  16.146  0.7381  0.1388 -1.1853
19123TIP3   OH278859   4.542   4.532   4.099 -0.7337  0.1429  1.0405
19123TIP3    H178860   4.624   4.489   4.075 -0.4335  1.5265 -0.5345
19123TIP3    H278861   4.476   4.490   4.044 -0.4470  1.6009 -0.4679
19124TIP3   OH278862   4.828   2.847  16.357 -0.0227 -0.0193 -0.7735
19124TIP3    H178863   4.808   2.846  16.451 -0.2089 -0.0392 -0.8139
19124TIP3    H278864   4.908   2.796  16.350  0.1621  0.2381 -0.5864
19125TIP3   OH278865   0.214   2.157   1.555  0.2333 -0.0380 -0.2795
19125TIP3    H178866   0.257   2.239   1.531  0.3316  0.5322  1.6354
19125TIP3    H278867   0.238   2.095   1.486  2.2672  0.8627 -0.4286
19126TIP3   OH278868   1.831   3.002  16.641 -0.3584 -0.3209  0.2200
19126TIP3    H178869   1.872   2.916  16.644  0.5090  0.0512 -0.4705
19126TIP3    H278870   1.758   2.992  16.580  0.1354 -0.4077 -0.3571
19127TIP3   OH278871   1.915   3.084  15.539 -0.0759 -0.5046 -0.0440
19127TIP3    H178872   1.861   3.109  15.614  0.7974  1.4800 -0.0263
19127TIP3    H278873   1.940   3.167  15.499  2.6921 -1.3281 -0.2334
19128TIP3   OH278874   0.675   1.411   0.968 -0.2308  0.0906 -0.6485
19128TIP3    H178875   0.613   1.420   0.895  1.4559  0.7214 -2.0983
19128TIP3    H278876   0.649   1.480   1.029 -0.1631  1.2926 -1.8952
19129TIP3   OH278877   4.250   1.648   4.451 -0.0082  0.1047  0.2720
19129TIP3    H178878   4.234   1.566   4.498  1.5317  0.7593  2.1006
19129TIP3    H278879   4.330   1.683   4.491  0.6060  1.4538 -1.9340
19130TIP3   OH278880   1.658   3.897  14.483  0.5436 -0.2509  0.3001
19130TIP3    H178881   1.578   3.894  14.430  0.8505 -0.2497 -0.1674
19130TIP3    H278882   1.692   3.985  14.470  0.5883 -0.2263  0.5607
19131TIP3   OH278883   0.394   0.671  14.174  0.0597 -0.1899 -0.8265
19131TIP3    H178884   0.354   0.756  14.194  2.1891  0.8296 -0.4923
19131TIP3    H278885   0.447   0.689  14.096  0.2096 -1.3347 -0.9928
19132TIP3   OH278886   1.162   2.177   2.156 -0.2862 -0.0313 -0.2402
19132TIP3    H178887   1.195   2.255   2.111  0.4343 -0.3091 -0.2080
19132TIP3    H278888   1.101   2.138   2.094 -0.3151  0.3175 -0.4367
19133TIP3   OH278889   0.874   1.191  14.307  0.0918  0.1205 -0.1999
19133TIP3    H178890   0.949   1.240  14.341  0.1874 -1.4726  2.0387
19133TIP3    H278891   0.910   1.105  14.285 -1.0550 -0.6432  0.8418
19134TIP3   OH278892   4.952   1.430  16.659  0.3440  0.1729  0.9005
19134TIP3    H178893   4.904   1.455  16.580 -0.2437 -0.0889  1.1685
19134TIP3    H278894   4.988   1.512  16.692  0.7965  0.2510  0.2283
19135TIP3   OH278895   4.906   2.977   5.435  0.1027  0.1489  0.2058
19135TIP3    H178896   4.987   2.953   5.390  0.5140  2.2055 -0.2322
19135TIP3    H278897   4.916   2.939   5.523  0.5647 -1.4314 -0.4912
19136TIP3   OH278898   4.971   2.599   2.416 -0.3405  0.0839  0.2131
19136TIP3    H178899   4.905   2.599   2.485 -3.0463  1.7469 -2.1890
19136TIP3    H278900   5.001   2.690   2.411  3.1802 -0.7701  1.9635
19137TIP3   OH278901   3.268   1.522  17.343  0.0103 -0.0014 -0.0698
19137TIP3    H178902   3.241   1.512  17.252  0.0593 -0.2494 -0.0556
19137TIP3    H278903   3.297   1.435  17.369 -1.9273 -0.4426  0.8175
19138TIP3   OH278904   6.414   4.011  16.620 -0.4805  0.1123  0.6711
19138TIP3    H178905   6.331   4.057  16.631 -0.3497  0.6515 -0.4014
19138TIP3    H278906   6.392   3.919  16.633 -1.6100  0.0664 -1.1772
19139TIP3   OH278907   5.254   4.444   5.947 -0.6936 -0.0012 -0.8947
19139TIP3    H178908   5.248   4.362   5.996 -0.0077 -0.8310 -2.1345
19139TIP3    H278909   5.175   4.447   5.894 -1.8575  1.3219  0.8313
19140TIP3   OH278910   4.021   4.958  16.886 -0.3790 -0.4448 -0.2751
19140TIP3    H178911   3.997   5.047  16.909  0.5043 -0.1662 -0.4012
19140TIP3    H278912   4.034   4.914  16.970  1.2672  0.1366 -0.1881
19141TIP3   OH278913   4.889   1.995  17.031 -0.1188 -0.6248  0.0690
19141TIP3    H178914   4.929   2.008  16.945  0.3854 -0.6617  0.2942
19141TIP3    H278915   4.795   2.004  17.016  0.0541  0.8751 -0.2096
19142TIP3   OH278916   1.448   0.851   5.967 -0.7973 -0.5575 -0.2195
19142TIP3    H178917   1.490   0.834   6.051 -2.3998  0.6124  0.8854
19142TIP3    H278918   1.435   0.945   5.965 -0.0956 -0.4441 -2.1737
19143TIP3   OH278919   4.270   2.474  16.103 -0.1917 -0.2212 -0.2456
19143TIP3    H178920   4.353   2.520  16.097 -1.1733  1.9900  1.5704
19143TIP3    H278921   4.244   2.458  16.012  2.4948 -1.6698 -0.8542
19144TIP3   OH278922   2.921   6.036  14.572  0.5938  0.0086  0.0655
19144TIP3    H178923   2.877   6.103  14.624  2.0275  2.3753 -1.5786
19144TIP3    H278924   2.992   6.005  14.627 -0.5817 -0.8330  1.1589
19145TIP3   OH278925   2.465   1.578   1.586 -0.0598  0.1805 -0.0692
19145TIP3    H178926   2.380   1.540   1.561 -0.2723  0.1722  0.6395
19145TIP3    H278927   2.458   1.591   1.681  0.3007  1.2454 -0.1698
19146TIP3   OH278928   1.908   3.795  16.969 -0.1806 -0.0729  0.2159
19146TIP3    H178929   1.996   3.829  16.987  0.0551 -0.1507 -0.7426
19146TIP3    H278930   1.849   3.867  16.994  0.2845  0.8520 -1.1910
19147TIP3   OH278931   4.249   4.617   5.546  0.5210  0.1354 -0.4114
19147TIP3    H178932   4.249   4.711   5.567 -0.7137 -0.2769  1.7968
19147TIP3    H278933   4.156   4.594   5.539  0.8106 -0.4628 -3.6407
19148TIP3   OH278934   2.027   2.153   5.418  0.2344  0.2437 -0.2027
19148TIP3    H178935   2.066   2.178   5.334  0.5983  1.2658  0.2468
19148TIP3    H278936   1.936   2.180   5.411 -0.3208 -1.6742 -1.0606
19149TIP3   OH278937   6.210   5.494   0.048  0.4097  0.2580  0.0886
19149TIP3    H178938   6.261   5.573   0.065 -0.7039  0.9777  0.2281
19149TIP3    H278939   6.152   5.519  -0.024 -1.7886  0.4495  1.8251
19150TIP3   OH278940   6.419   6.398  15.295  0.0764  0.2118 -0.4934
19150TIP3    H178941   6.434   6.427  15.205 -1.1840  0.1132 -0.7490
19150TIP3    H278942   6.416   6.302  15.290 -0.1711  0.2131 -0.3706
19151TIP3   OH278943   0.731   1.545  17.243  0.0351 -0.1612 -0.3001
19151TIP3    H178944   0.736   1.518  17.335 -0.4816  1.4476  0.2462
19151TIP3    H278945   0.676   1.479  17.201 -0.2066 -0.6002  0.6844
19152TIP3   OH278946   3.951   0.396   2.036  0.3164  0.4169 -0.2462
19152TIP3    H178947   3.998   0.317   2.007  0.8804  0.8830 -0.6297
19152TIP3    H278948   3.887   0.412   1.966  1.7589  1.6107 -1.3448
19153TIP3   OH278949   5.159   6.761  16.907  0.2820 -0.0119 -0.2777
19153TIP3    H178950   5.160   6.787  16.999 -2.7927 -2.7696  0.6796
19153TIP3    H278951   5.233   6.701  16.899  0.1276 -0.3313  0.5849
19154TIP3   OH278952   0.245   0.015   0.700  0.8399  0.1201  0.0833
19154TIP3    H178953   0.319  -0.043   0.716 -1.4598 -3.4056 -1.1063
19154TIP3    H278954   0.186  -0.001   0.773 -0.0918  0.5825 -0.5567
19155TIP3   OH278955   3.687   4.670  14.770 -0.0540 -0.2921  0.3137
19155TIP3    H178956   3.767   4.685  14.721  1.0235 -1.1259  1.7231
19155TIP3    H278957   3.664   4.579  14.751  0.5303 -0.7156  1.4920
19156TIP3   OH278958   3.722   2.732   1.567 -0.3040  0.1791 -0.0246
19156TIP3    H178959   3.700   2.775   1.485  1.6234  0.3769 -0.4741
19156TIP3    H278960   3.728   2.639   1.545 -0.0406  0.2027 -0.0562
19157TIP3   OH278961   1.432   0.004  15.791  0.1961 -0.0043  0.3584
19157TIP3    H178962   1.427   0.026  15.884 -0.6658  0.0959  0.2958
19157TIP3    H278963   1.386   0.075  15.747  0.5231 -0.1003 -0.1421
19158TIP3   OH278964   6.476   5.252  12.976  0.5928 -0.3224 -0.1084
19158TIP3    H178965   6.444   5.316  13.040 -2.0410 -0.7560 -0.8530
19158TIP3    H278966   6.506   5.305  12.902 -1.1843  0.1298 -0.5520
19159TIP3   OH278967   4.433   2.614  12.719  0.0231 -0.9506  0.0075
19159TIP3    H178968   4.486   2.552  12.670 -0.4491 -0.2356 -1.4427
19159TIP3    H278969   4.342   2.589  12.701 -0.2019  0.6226 -1.2797
19160TIP3   OH278970   1.011   6.486   2.179 -0.1298 -1.0558 -0.0918
19160TIP3    H178971   1.093   6.515   2.139  1.0775 -0.2934  2.6565
19160TIP3    H278972   1.013   6.391   2.171  1.1316 -1.0642  0.0502
19161TIP3   OH278973   6.210   4.489  13.323  0.0644  0.3606 -0.0455
19161TIP3    H178974   6.281   4.504  13.260 -0.7491 -0.5598 -1.2125
19161TIP3    H278975   6.232   4.406  13.365  0.8120  1.1547  1.2438
19162TIP3   OH278976   2.376   3.247  16.360 -0.2141 -0.0427 -0.1064
19162TIP3    H178977   2.312   3.258  16.429 -0.8586  0.8877 -0.8151
19162TIP3    H278978   2.373   3.154  16.338 -2.6732  0.2559 -1.3515
19163TIP3   OH278979   4.076   1.469  12.594  0.2483 -0.1416 -0.1673
19163TIP3    H178980   4.034   1.546  12.633  2.7188  1.9952 -1.4183
19163TIP3    H278981   4.003   1.415  12.563 -1.5914  2.0554  0.0645
19164TIP3   OH278982   5.130   1.075   0.005 -0.6868 -0.2142 -0.2457
19164TIP3    H178983   5.129   1.067  -0.090 -0.0062  0.0574 -0.2795
19164TIP3    H278984   5.069   1.146   0.024  1.1505  1.5530 -0.6809
19165TIP3   OH278985   5.871   4.411  14.971  0.1878  0.0287  0.2260
19165TIP3    H178986   5.776   4.408  14.955  0.4152 -0.5692 -1.0318
19165TIP3    H278987   5.878   4.445  15.061 -1.2235 -0.1833  0.4420
19166TIP3   OH278988   5.576   6.612  15.596 -0.6044 -0.1664  0.1067
19166TIP3    H178989   5.529   6.671  15.655 -0.3043  1.0641 -0.8268
19166TIP3    H278990   5.652   6.663  15.568 -0.6097 -0.8088 -1.1328
19167TIP3   OH278991   3.656   1.736  14.528 -0.1809  0.1855  0.5938
19167TIP3    H178992   3.687   1.825  14.512  1.0241 -0.4093 -0.6148
19167TIP3    H278993   3.562   1.740  14.513 -0.1226  1.2236  0.4352
19168TIP3   OH278994   3.687   0.755   1.765  0.5961  0.0801 -0.2501
19168TIP3    H178995   3.633   0.834   1.773 -0.9551 -0.8440 -1.0518
19168TIP3    H278996   3.775   0.788   1.750  0.0473  1.6630 -0.2274
19169TIP3   OH278997   1.930   4.893  16.076  0.3995 -0.1351 -0.4910
19169TIP3    H178998   1.851   4.943  16.100 -1.2949 -1.7224 -2.3551
19169TIP3    H278999   1.946   4.836  16.152 -1.1116 -0.7330 -0.5753
19170TIP3   OH279000   2.037   2.200  13.298  0.7578 -0.3311  0.2366
19170TIP3    H179001   1.953   2.243  13.312 -1.2764 -4.1632  1.3779
19170TIP3    H279002   2.077   2.197  13.385 -0.2017 -2.5052  0.6699
19171TIP3   OH279003   6.022   5.895   1.988  0.4331  0.0208  0.2832
19171TIP3    H179004   6.016   5.959   2.059 -0.9425 -1.1646  1.2964
19171TIP3    H279005   6.063   5.943   1.916  0.0352  1.8383  1.2080
19172TIP3   OH279006   6.722   6.283   0.602 -0.2544  0.1446 -0.7427
19172TIP3    H179007   6.811   6.273   0.570 -0.9890  0.0203 -2.8476
19172TIP3    H279008   6.704   6.377   0.597  0.3408  0.4406  1.4733
19173TIP3   OH279009   5.984   5.750  12.860  0.1130 -0.4377 -0.4398
19173TIP3    H179010   5.977   5.808  12.936  0.5902 -0.9783  0.0271
19173TIP3    H279011   6.076   5.722  12.860  0.1875 -0.2271 -1.3778
19174TIP3   OH279012   2.837   0.980   1.125  0.2316 -0.3416 -0.2604
19174TIP3    H179013   2.823   0.900   1.176  1.2231 -0.9761 -0.9453
19174TIP3    H279014   2.858   0.949   1.037  0.0427  0.6982 -0.6916
19175TIP3   OH279015   0.953   0.098   2.432 -0.2584  0.6095  0.1817
19175TIP3    H179016   0.866   0.097   2.391  0.7574  1.4384 -2.1522
19175TIP3    H279017   0.943   0.158   2.506 -1.7703  0.3115  0.2666
19176TIP3   OH279018   1.191   4.296  14.883  0.1831 -0.2278  0.0988
19176TIP3    H179019   1.260   4.359  14.859 -0.4293  1.0273  1.4936
19176TIP3    H279020   1.188   4.298  14.978 -0.5288 -1.6801  0.1396
19177TIP3   OH279021   1.109   2.561   6.123 -0.3260 -0.5944  0.2835
19177TIP3    H179022   1.115   2.632   6.186  0.0589 -0.2723 -0.1061
19177TIP3    H279023   1.028   2.578   6.075  0.6469  0.6041 -1.0005
19178TIP3   OH279024   0.645   1.752   2.650 -0.6780  0.4584  0.3622
19178TIP3    H179025   0.723   1.797   2.682 -1.4112  1.3450  0.9507
19178TIP3    H279026   0.663   1.736   2.558  0.5339 -0.0913  0.6824
19179TIP3   OH279027   4.372   1.181   3.002 -0.6617 -0.0006 -0.2939
19179TIP3    H179028   4.326   1.204   3.083 -1.8445  1.7122 -1.3879
19179TIP3    H279029   4.316   1.114   2.962 -0.6325 -0.0739 -0.2135
19180TIP3   OH279030   5.092   5.142  10.986  0.4904 -0.2954 -0.6271
19180TIP3    H179031   5.095   5.051  10.956 -0.4807 -0.2913 -0.7583
19180TIP3    H279032   5.171   5.182  10.950  1.3233 -1.2636  0.0399
19181TIP3   OH279033   0.752   4.487   0.926 -0.1884  0.1011  0.1692
19181TIP3    H179034   0.787   4.524   0.845  0.4786 -1.2237 -0.1900
19181TIP3    H279035   0.814   4.515   0.994  1.4655 -1.8958 -0.4007
19182TIP3   OH279036   0.296   5.991   3.668 -0.0827 -0.4709  0.0305
19182TIP3    H179037   0.333   5.913   3.627 -0.0455 -0.2814 -0.2949
19182TIP3    H279038   0.335   6.065   3.621  1.4978 -0.1860  1.6695
19183TIP3   OH279039   1.031   2.089   1.308  0.2103  0.8893 -0.0621
19183TIP3    H179040   1.000   2.049   1.390 -2.0605 -1.0855 -1.7684
19183TIP3    H279041   1.122   2.060   1.300  0.5484  1.2905  1.7976
19184TIP3   OH279042   2.202   3.833  12.275 -0.4278  0.1911 -0.0407
19184TIP3    H179043   2.110   3.815  12.255 -0.5394  0.8249 -0.1174
19184TIP3    H279044   2.225   3.768  12.341 -0.9497  0.0575  0.0171
19185TIP3   OH279045   1.798   0.828   3.864 -0.7689  0.0228 -0.0632
19185TIP3    H179046   1.806   0.787   3.777 -0.4883  0.1191 -0.0844
19185TIP3    H279047   1.873   0.887   3.869 -0.7791  0.0078  0.2525
19186TIP3   OH279048   3.248   4.441  16.698  0.0137  0.3850 -0.5429
19186TIP3    H179049   3.332   4.442  16.744  0.3942  5.3379 -0.8224
19186TIP3    H279050   3.270   4.471  16.609 -1.8944  0.8197 -0.8996
19187TIP3   OH279051   5.652   0.075  16.980 -0.1544  0.0357 -0.5468
19187TIP3    H179052   5.650  -0.017  17.006 -2.9582  0.2428  0.2998
19187TIP3    H279053   5.745   0.094  16.966  0.5746 -2.6896  0.0001
19188TIP3   OH279054   2.877   1.531  16.376  0.0401  0.5493 -0.0145
19188TIP3    H179055   2.781   1.538  16.378 -0.0836 -0.8023 -0.2726
19188TIP3    H279056   2.901   1.514  16.467  0.0833  1.3201  0.1237
19189TIP3   OH279057   2.963   1.486   6.240  0.1280  0.8460  0.1152
19189TIP3    H179058   3.036   1.521   6.290 -1.6076  1.1975  2.5460
19189TIP3    H279059   2.959   1.541   6.162  1.9658  1.2654  0.2590
19190TIP3   OH279060   6.296   2.036   1.611 -0.5046  0.3887  0.5611
19190TIP3    H179061   6.301   2.124   1.573 -0.7391  1.6215  3.1630
19190TIP3    H279062   6.387   2.012   1.627 -0.5052  1.5071  2.5609
19191TIP3   OH279063   3.389   1.963   4.655 -0.1432 -0.0405 -0.7418
19191TIP3    H179064   3.472   1.996   4.688 -0.0173 -0.6284 -0.4511
19191TIP3    H279065   3.409   1.932   4.567 -0.4369  1.3534 -1.3248
19192TIP3   OH279066   4.085   5.695   4.205  0.0435  0.0537 -0.3453
19192TIP3    H179067   4.127   5.780   4.193  0.3296  0.2513  1.7853
19192TIP3    H279068   4.069   5.664   4.116  1.2890  1.6562 -1.1791
19193TIP3   OH279069   5.505   5.080  12.248  0.0749 -0.1842 -0.2999
19193TIP3    H179070   5.467   5.107  12.332  3.6619 -0.2918  1.5558
19193TIP3    H279071   5.481   4.988  12.239  0.7680 -0.5621  1.3652
19194TIP3   OH279072   2.537   5.301   4.859 -0.7810 -0.3780 -0.6467
19194TIP3    H179073   2.468   5.334   4.803  0.9283  2.5895 -1.1890
19194TIP3    H279074   2.613   5.292   4.802 -0.1604 -1.6165  0.3230
19195TIP3   OH279075   4.778   1.023   0.871 -0.2733 -0.0732  0.1896
19195TIP3    H179076   4.708   0.979   0.920  0.6301 -0.7651  0.8934
19195TIP3    H279077   4.797   0.964   0.798  0.9862 -0.9412  1.1721
19196TIP3   OH279078   0.908   4.482  11.396  0.6296  0.0216  0.0602
19196TIP3    H179079   0.988   4.445  11.358  0.2756  0.4854 -1.1702
19196TIP3    H279080   0.940   4.539  11.466  1.5407  1.5256 -1.4888
19197TIP3   OH279081   0.115   4.866   3.539  0.3220 -0.2013 -0.1939
19197TIP3    H179082   0.108   4.948   3.490 -0.4038 -0.5606 -0.7055
19197TIP3    H279083   0.114   4.893   3.631  2.1920  0.5224 -0.3315
19198TIP3   OH279084   1.868   6.603   4.076  0.4332  0.0956  0.4597
19198TIP3    H179085   1.780   6.603   4.114  0.7139 -1.1878  1.1620
19198TIP3    H279086   1.916   6.536   4.126  1.8997  0.9722  0.2944
19199TIP3   OH279087   1.161   3.324  17.351 -0.4474  0.4313 -0.1419
19199TIP3    H179088   1.246   3.366  17.360 -0.8386  0.8526  2.2838
19199TIP3    H279089   1.103   3.373  17.409 -1.4556 -2.0259  1.0943
19200TIP3   OH279090   2.530   5.730  13.261  0.0640 -0.0651  0.1832
19200TIP3    H179091   2.474   5.659  13.232 -0.0267 -0.5182  1.3855
19200TIP3    H279092   2.502   5.806  13.210 -0.0382 -0.8106 -0.9010
19201TIP3   OH279093   3.936   1.774  14.176 -0.1231  0.1742  0.4540
19201TIP3    H179094   3.940   1.780  14.271 -0.6001 -2.9639  0.7590
19201TIP3    H279095   3.993   1.701  14.154  1.3253  1.8795 -1.8959
19202TIP3   OH279096   3.414   1.397   4.441 -0.2318  0.2883 -0.2059
19202TIP3    H179097   3.370   1.337   4.501 -0.9412 -0.5051 -1.4808
19202TIP3    H279098   3.440   1.471   4.496 -1.0022 -0.3341  1.0397
19203TIP3   OH279099   0.182   2.104   2.759 -0.0573  0.8822 -0.1830
19203TIP3    H179100   0.259   2.079   2.709 -0.6812 -0.2020 -0.6452
19203TIP3    H279101   0.214   2.168   2.822  1.0169  1.2224 -1.0392
19204TIP3   OH279102   0.597   3.293   2.802  0.0391  0.4287  1.0319
19204TIP3    H179103   0.686   3.262   2.785 -1.4143 -5.0279  1.4125
19204TIP3    H279104   0.552   3.287   2.717 -0.8029 -0.6002  1.5226
19205TIP3   OH279105   3.628   1.360  13.722  0.0351 -0.2823 -0.1228
19205TIP3    H179106   3.596   1.308  13.796  1.8110 -1.3850 -0.0611
19205TIP3    H279107   3.550   1.379  13.671 -0.9639 -1.1990  0.9898
19206TIP3   OH279108   4.042   2.550   3.664  0.1409  0.2096 -0.2016
19206TIP3    H179109   4.115   2.512   3.714 -0.5258  0.7565  1.2552
19206TIP3    H279110   3.979   2.479   3.655 -0.0663  0.3057  0.4274
19207TIP3   OH279111   4.306   4.632  16.499 -0.6218 -0.0628 -0.1005
19207TIP3    H179112   4.359   4.704  16.465 -0.1537  0.5237  1.7721
19207TIP3    H279113   4.238   4.675  16.551 -1.2274 -0.9289 -0.1517
19208TIP3   OH279114   6.220   6.536  17.005  0.3430 -0.4268 -0.4282
19208TIP3    H179115   6.291   6.585  16.965 -0.3423  1.7583  0.8389
19208TIP3    H279116   6.140   6.576  16.971 -0.3982  3.4461  4.6213
19209TIP3   OH279117   4.451   2.460   2.930 -0.7492  0.0807 -0.7354
19209TIP3    H179118   4.530   2.503   2.896  0.2022 -1.8167 -1.1022
19209TIP3    H279119   4.406   2.428   2.852 -1.4084  0.3616 -0.4731
19210TIP3   OH279120   6.662   1.554   6.561  0.0274  0.1795 -0.3653
19210TIP3    H179121   6.737   1.591   6.607 -0.3017  1.2804 -0.6977
19210TIP3    H279122   6.608   1.515   6.630  0.7255 -0.3312 -0.0908
19211TIP3   OH279123   2.989   3.387  11.800 -0.2554 -0.7491 -0.1908
19211TIP3    H179124   2.996   3.482  11.810  1.2533 -0.6604 -1.6215
19211TIP3    H279125   2.982   3.354  11.890  0.1617  0.6620  0.3938
19212TIP3   OH279126   2.079   0.366  12.094 -0.3954 -0.4832  0.4005
19212TIP3    H179127   2.127   0.423  12.034  0.3439 -0.7583  0.7260
19212TIP3    H279128   2.103   0.277  12.067  0.2250 -0.6047  1.3326
19213TIP3   OH279129   2.762   5.930  11.850  0.5638  0.3604 -0.1488
19213TIP3    H179130   2.706   5.857  11.821 -0.1439  0.3857  1.0705
19213TIP3    H279131   2.851   5.899  11.836  0.2828 -0.9810  0.8587
19214TIP3   OH279132   2.494   3.634  17.118 -0.2508  0.2152 -0.4096
19214TIP3    H179133   2.447   3.560  17.080 -0.1909  0.5288 -1.0955
19214TIP3    H279134   2.490   3.702  17.051 -0.5681  0.9424  0.3340
19215TIP3   OH279135   2.853   2.563   6.071 -0.3164 -0.0336  0.1842
19215TIP3    H179136   2.836   2.643   6.120 -1.5140 -0.2932  0.2208
19215TIP3    H279137   2.851   2.494   6.137 -2.0843 -0.4005 -0.2065
19216TIP3   OH279138   0.778   2.035   5.543 -0.6764  0.0670 -0.0662
19216TIP3    H179139   0.774   1.959   5.484  2.7779 -0.0778 -0.3257
19216TIP3    H279140   0.705   2.090   5.516 -2.4844 -2.4793 -0.7935
19217TIP3   OH279141   3.170   5.799   4.377  0.2230 -0.4890 -0.3832
19217TIP3    H179142   3.122   5.881   4.394 -1.7080 -1.9710  2.0449
19217TIP3    H279143   3.109   5.747   4.324  1.1239 -0.6814 -1.2534
19218TIP3   OH279144   1.311   3.949   2.760 -0.5728 -0.3619 -0.1763
19218TIP3    H179145   1.273   3.963   2.673  2.5073  0.2803 -1.5551
19218TIP3    H279146   1.310   3.854   2.771 -2.4203 -0.3789 -0.1447
19219TIP3   OH279147   0.478   4.699  11.876  0.5101  0.0011  0.3150
19219TIP3    H179148   0.460   4.669  11.787  0.5988 -2.2536  0.9986
19219TIP3    H279149   0.573   4.716  11.877  1.0208 -2.5291  0.6190
19220TIP3   OH279150   2.066   2.017   2.900  0.3069  0.6779 -0.0225
19220TIP3    H179151   2.072   2.060   2.986  0.0432 -0.8068  0.7661
19220TIP3    H279152   1.994   1.955   2.909  0.0567  0.7286 -1.4455
19221TIP3   OH279153   5.894   1.781  15.651 -0.0244 -0.0874 -0.1137
19221TIP3    H179154   5.923   1.870  15.632  1.6827 -0.5816  0.0255
19221TIP3    H279155   5.943   1.756  15.730 -1.0532 -0.8814  0.2993
19222TIP3   OH279156   4.261   0.935   1.849  0.7553  0.2001 -0.6712
19222TIP3    H179157   4.206   0.896   1.916 -0.6159  0.8012 -1.4094
19222TIP3    H279158   4.341   0.960   1.895  0.6065 -1.0993  0.3336
19223TIP3   OH279159   4.926   2.621  15.277  0.4138  0.0389  0.3711
19223TIP3    H179160   4.942   2.587  15.189 -1.8624 -1.2466  0.3700
19223TIP3    H279161   4.858   2.687  15.265 -1.4122 -1.5739  1.3113
19224TIP3   OH279162   6.558   1.598   0.102  0.3103 -0.0928  0.3229
19224TIP3    H179163   6.483   1.633   0.150 -1.5691 -2.1336 -0.9462
19224TIP3    H279164   6.520   1.549   0.029  2.8937 -1.1949 -0.4230
19225TIP3   OH279165   1.515   3.980  13.085  1.0183 -0.0817  0.0202
19225TIP3    H179166   1.424   3.999  13.066  0.5019  1.1411  3.0614
19225TIP3    H279167   1.523   3.885  13.076 -0.0741 -0.0311 -1.8989
19226TIP3   OH279168   5.834   2.848  12.296  0.2680  0.0589  0.2434
19226TIP3    H179169   5.740   2.866  12.291  0.6218  1.9176 -0.6940
19226TIP3    H279170   5.856   2.809  12.212  0.4600  0.3202  0.1705
19227TIP3   OH279171   1.063   4.200   5.416  0.0923 -0.2902  0.5778
19227TIP3    H179172   1.014   4.141   5.358 -1.0834 -0.5140  1.7542
19227TIP3    H279173   1.150   4.160   5.422  0.1083 -0.4959 -0.6756
19228TIP3   OH279174   4.299   0.897   3.232 -0.3726  0.1809  0.3834
19228TIP3    H179175   4.348   0.817   3.249  0.0995  0.4898  0.5042
19228TIP3    H279176   4.313   0.951   3.309 -2.4030 -0.4290  1.2430
19229TIP3   OH279177   6.624   5.444  15.740 -0.3961  0.3262 -0.3140
19229TIP3    H179178   6.692   5.476  15.680  1.3062  0.2806  1.4556
19229TIP3    H279179   6.612   5.517  15.802 -1.1952 -0.0822  0.0187
19230TIP3   OH279180   2.487   2.162   1.895  0.5790 -0.0028  0.5513
19230TIP3    H179181   2.438   2.086   1.927 -0.2318  0.1190 -0.3455
19230TIP3    H279182   2.508   2.140   1.804  3.3295 -0.5845  1.2607
19231TIP3   OH279183   6.512   0.662  16.459 -0.1553 -0.5314  0.1632
19231TIP3    H179184   6.578   0.614  16.510  0.0421  0.2964  0.7072
19231TIP3    H279185   6.436   0.667  16.516 -0.4703 -0.9174 -0.2166
19232TIP3   OH279186   6.369   5.155   5.312  0.7138  0.1230 -0.0649
19232TIP3    H179187   6.429   5.082   5.324  0.5084  0.3266  3.1303
19232TIP3    H279188   6.426   5.232   5.303  0.9004 -0.1500 -1.4772
19233TIP3   OH279189   3.976   3.306   6.064 -0.1109  0.5415  0.6358
19233TIP3    H179190   3.924   3.357   6.126 -0.8649  0.8553 -0.2223
19233TIP3    H279191   4.066   3.334   6.079 -0.3595  1.1008  1.1238
19234TIP3   OH279192   4.471   6.645  16.497  0.2981 -0.1601  0.0706
19234TIP3    H179193   4.510   6.560  16.476 -1.4518 -1.1036  0.4902
19234TIP3    H279194   4.417   6.629  16.574  1.7705  1.8846  1.6419
19235TIP3   OH279195   5.361   4.706  17.043 -0.0179  0.2955 -0.1223
19235TIP3    H179196   5.364   4.628  16.989  3.0253  0.4423 -0.3214
19235TIP3    H279197   5.340   4.675  17.130  0.5625 -0.6717 -0.3202
19236TIP3   OH279198   4.045   5.337   3.928  0.0342 -0.5249 -0.1505
19236TIP3    H179199   4.055   5.430   3.911  1.9438 -0.7616 -0.5009
19236TIP3    H279200   4.125   5.312   3.975 -1.1903 -1.6703  1.4594
19237TIP3   OH279201   1.289   5.029  12.694 -0.1644 -0.2597  0.7797
19237TIP3    H179202   1.337   5.071  12.622 -0.0104 -1.2300  0.2989
19237TIP3    H279203   1.200   5.019  12.660 -0.4711  0.6226  1.2925
19238TIP3   OH279204   3.418   1.595   1.798 -0.3043  0.0697 -1.5277
19238TIP3    H179205   3.437   1.630   1.711  0.9263 -0.4582 -1.4858
19238TIP3    H279206   3.393   1.504   1.783 -1.0232  0.2416 -1.4058
19239TIP3   OH279207   1.770   3.306   0.657  0.3169  0.1504 -0.5605
19239TIP3    H179208   1.698   3.317   0.719  1.4847  1.3078  0.6357
19239TIP3    H279209   1.785   3.211   0.654 -0.0435  0.0463  0.5834
19240TIP3   OH279210   4.812   5.725   1.948 -0.1707 -0.1622  0.1290
19240TIP3    H179211   4.786   5.814   1.924 -1.7659  0.1391  2.6265
19240TIP3    H279212   4.890   5.708   1.895 -1.5888  1.4901 -2.7537
19241TIP3   OH279213   4.949   4.055   1.134  0.5655 -0.3458  0.4839
19241TIP3    H179214   5.018   4.121   1.127  1.0719 -0.8514  0.5956
19241TIP3    H279215   4.871   4.097   1.099  1.0686  0.0407 -0.1843
19242TIP3   OH279216   5.865   3.015  13.702  0.0581 -0.2745  0.2087
19242TIP3    H179217   5.911   3.068  13.767  2.9548 -0.5614 -1.4039
19242TIP3    H279218   5.876   3.063  13.620  1.2444 -2.4094 -0.9860
19243TIP3   OH279219   3.073   1.924  15.491 -0.1590 -0.6419 -0.8640
19243TIP3    H179220   3.069   2.002  15.546 -1.9361 -2.2083  1.4163
19243TIP3    H279221   3.108   1.955  15.408  2.9700  1.8310  1.1493
19244TIP3   OH279222   6.444   4.096   0.765 -0.0122 -0.2046  0.9054
19244TIP3    H179223   6.481   4.092   0.853 -0.3404 -0.6667  1.0258
19244TIP3    H279224   6.349   4.093   0.779 -0.1190  1.2049  0.6213
19245TIP3   OH279225   0.897   4.049  14.372 -0.2995 -0.1420 -0.0175
19245TIP3    H179226   0.940   4.131  14.397  0.6613 -0.7506  0.3345
19245TIP3    H279227   0.854   4.070  14.289 -0.0814  0.7247  0.0765
19246TIP3   OH279228   6.653   4.872   0.656 -0.2073 -0.4656 -0.5294
19246TIP3    H179229   6.560   4.863   0.677 -0.1375  1.2436  0.6664
19246TIP3    H279230   6.699   4.847   0.737  0.1917  2.6799  0.3176
19247TIP3   OH279231   2.612   2.813  15.612 -0.1473  0.6540  0.2093
19247TIP3    H179232   2.690   2.758  15.612 -0.6029 -0.0131 -0.1592
19247TIP3    H279233   2.539   2.751  15.603 -0.9147  1.0165  2.9512
19248TIP3   OH279234   1.949   5.671  15.204  0.1187  0.1989 -0.6740
19248TIP3    H179235   1.886   5.668  15.276 -0.2693 -2.1933 -1.0313
19248TIP3    H279236   2.022   5.616  15.234 -0.3315 -1.3540 -2.3094
19249TIP3   OH279237   4.032   5.844  15.992  0.3088 -0.0294  0.3372
19249TIP3    H179238   4.108   5.901  16.002 -1.0063  1.6705  1.1529
19249TIP3    H279239   4.011   5.815  16.080 -0.4486  0.1607  0.2312
19250TIP3   OH279240   0.185   1.380  11.315  0.4271 -0.0859  0.2431
19250TIP3    H179241   0.147   1.332  11.241  2.5426 -0.1643 -0.8746
19250TIP3    H279242   0.141   1.344  11.392  0.0088 -1.8618 -0.7686
19251TIP3   OH279243   3.128   4.573  15.474 -0.0110 -1.0977 -0.3202
19251TIP3    H179244   3.170   4.512  15.413 -0.6035 -0.0262 -1.8316
19251TIP3    H279245   3.035   4.564  15.457 -0.2083 -1.0093  0.6639
19252TIP3   OH279246   6.218   0.552  17.134 -0.1760  0.2804 -0.0804
19252TIP3    H179247   6.272   0.589  17.064 -1.2343  1.0594 -0.5091
19252TIP3    H279248   6.207   0.623  17.197  1.6038 -0.6973  1.4568
19253TIP3   OH279249   6.378   3.364   0.931 -0.2620  0.5039  0.3421
19253TIP3    H179250   6.325   3.350   1.009 -1.1700  3.4082  0.3542
19253TIP3    H279251   6.323   3.417   0.874  1.1164  0.0750 -1.4506
19254TIP3   OH279252   2.053   1.252  12.180 -0.3381  0.6631 -0.1953
19254TIP3    H179253   2.121   1.258  12.114 -1.3807  0.6497 -1.3064
19254TIP3    H279254   2.069   1.167  12.223  0.0966  0.4733 -0.7190
19255TIP3   OH279255   1.254   1.430   4.634 -0.1139 -0.5632  0.4975
19255TIP3    H179256   1.184   1.456   4.575 -1.1589 -1.4761  1.2899
19255TIP3    H279257   1.335   1.460   4.591 -1.0021  0.9134 -0.2039
19256TIP3   OH279258   4.769   0.012   3.782 -0.1381 -0.4302  0.1974
19256TIP3    H179259   4.792  -0.049   3.711  0.5954  0.1965 -0.1232
19256TIP3    H279260   4.690  -0.025   3.821 -1.5168  0.0191 -1.9731
19257TIP3   OH279261   6.220   0.110   5.398  0.4260  0.3014 -0.1025
19257TIP3    H179262   6.153   0.049   5.429  0.8855 -0.5491 -0.7284
19257TIP3    H279263   6.173   0.174   5.345  0.0025  0.2027  0.1490
19258TIP3   OH279264   1.505   6.206  11.767 -0.0347  0.1790 -0.0461
19258TIP3    H179265   1.469   6.211  11.856  0.0153  2.2077 -0.1149
19258TIP3    H279266   1.598   6.224  11.778  0.1032 -0.2705 -0.4446
19259TIP3   OH279267   5.908   0.846   1.612  0.3140 -0.5713  0.8335
19259TIP3    H179268   5.922   0.934   1.577  1.5814 -0.9434  0.3320
19259TIP3    H279269   5.832   0.813   1.564  0.7528 -0.2915 -0.0898
19260TIP3   OH279270   1.191   0.722  16.123 -0.1916  0.6914 -0.5874
19260TIP3    H179271   1.231   0.708  16.037 -0.7912  1.2469 -0.9652
19260TIP3    H279272   1.105   0.680  16.115  0.1712 -0.2255  0.1146
19261TIP3   OH279273   0.748   4.296  13.478 -0.1146  0.1601  0.3565
19261TIP3    H179274   0.825   4.252  13.513  1.2469  0.6140 -1.8518
19261TIP3    H279275   0.685   4.227  13.464 -0.1568 -0.2282  2.1732
19262TIP3   OH279276   0.413   1.322   1.272 -0.0072  0.0587  0.1314
19262TIP3    H179277   0.337   1.366   1.233 -0.8376  0.5913  2.2255
19262TIP3    H279278   0.455   1.278   1.198 -2.2944 -0.1630 -1.1407
19263TIP3   OH279279   4.170   3.315   0.669 -0.1076 -0.4627  0.3585
19263TIP3    H179280   4.161   3.236   0.722  0.2804  0.4102  1.7855
19263TIP3    H279281   4.255   3.305   0.625  0.2144 -0.5804  0.9989
19264TIP3   OH279282   0.967   1.949  14.906 -0.6531 -0.3291  0.8988
19264TIP3    H179283   0.929   1.946  14.994  1.0634  3.4253  1.9774
19264TIP3    H279284   0.891   1.953  14.847 -1.9540  1.2427  2.5636
19265TIP3   OH279285   0.264   6.211  11.670 -0.3324 -0.3602  0.3946
19265TIP3    H179286   0.312   6.285  11.633 -0.6478 -0.2217  0.2614
19265TIP3    H279287   0.324   6.137  11.662  0.3118  0.0592  1.3197
19266TIP3   OH279288   5.637   3.669   0.328 -0.2024  0.5923  0.1057
19266TIP3    H179289   5.652   3.662   0.423 -1.1714  0.2705  0.2427
19266TIP3    H279290   5.616   3.580   0.300  0.1078  0.6804 -0.4268
19267TIP3   OH279291   3.013   5.258  13.932  0.4014  0.0808  0.2147
19267TIP3    H179292   3.015   5.163  13.942  0.9368  0.2367  1.9326
19267TIP3    H279293   3.077   5.290  13.995 -0.0352  1.5977 -0.0714
19268TIP3   OH279294   1.240   4.579   1.134 -0.4741  0.1618 -0.3986
19268TIP3    H179295   1.282   4.610   1.215  0.4160  1.2863 -1.2490
19268TIP3    H279296   1.151   4.613   1.138 -0.3341  0.4930 -0.0338
19269TIP3   OH279297   2.103   2.330  12.996 -0.1336  0.2710  0.2685
19269TIP3    H179298   2.022   2.282  12.976  0.1546 -0.5957  1.1314
19269TIP3    H279299   2.138   2.286  13.073  0.4637  1.5000  0.7099
19270TIP3   OH279300   4.804   2.465   5.642  0.6772  0.2897  0.2381
19270TIP3    H179301   4.812   2.523   5.566 -1.7099 -0.5962 -0.7684
19270TIP3    H279302   4.891   2.427   5.653  1.4949  1.7279 -0.9665
19271TIP3   OH279303   5.370   5.293   2.068 -0.7902  0.0977  0.0573
19271TIP3    H179304   5.382   5.242   1.988 -2.2218  1.0709 -0.8322
19271TIP3    H279305   5.292   5.256   2.109 -1.0367  0.6705  0.1162
19272TIP3   OH279306   5.558   5.557  16.897  0.0552  0.0070  0.1397
19272TIP3    H179307   5.652   5.573  16.905  0.2718 -0.7986 -0.6146
19272TIP3    H279308   5.517   5.629  16.944  1.0089  1.5400 -1.2741
19273TIP3   OH279309   0.702   6.545  11.303  0.2129 -0.2120  0.1649
19273TIP3    H179310   0.655   6.606  11.360 -0.4150 -0.5317  0.0014
19273TIP3    H279311   0.693   6.583  11.215 -1.6471 -1.3716 -0.2034
19274TIP3   OH279312   6.077   0.774  13.009 -0.3337 -0.2443  0.5807
19274TIP3    H179313   6.167   0.779  13.042  0.1203 -0.0263 -0.6165
19274TIP3    H279314   6.073   0.688  12.966  0.0881  0.6625 -1.4213
19275TIP3   OH279315   2.571   0.816   4.200  0.4201  0.2257 -0.0417
19275TIP3    H179316   2.535   0.786   4.116  2.5372 -0.9438 -0.5976
19275TIP3    H279317   2.494   0.840   4.252 -1.1027 -1.5923 -1.3321
19276TIP3   OH279318   0.611   0.894  11.435  0.2909  0.0987  0.3118
19276TIP3    H179319   0.663   0.815  11.450  0.8831  0.8327  2.5770
19276TIP3    H279320   0.534   0.883  11.491 -2.0494 -0.8611 -2.8157
19277TIP3   OH279321   4.332   2.945   0.018 -0.4283 -0.4294 -0.1966
19277TIP3    H179322   4.403   2.886   0.042 -1.2332 -1.5531 -0.4892
19277TIP3    H279323   4.374   3.014  -0.032  0.4805 -0.9900 -0.2352
19278TIP3   OH279324   1.455   6.110  14.527  0.0188  0.4480 -0.0469
19278TIP3    H179325   1.499   6.038  14.482 -0.7747  0.6633 -1.2086
19278TIP3    H279326   1.363   6.085  14.528 -0.2965  1.5488 -0.6730
19279TIP3   OH279327   5.842   1.633  16.695  0.4968  0.0897  0.1511
19279TIP3    H179328   5.883   1.627  16.781  1.2665 -0.6456 -0.2509
19279TIP3    H279329   5.894   1.575  16.639 -0.3797  0.0511 -0.6611
19280TIP3   OH279330   1.473   0.208   0.178  0.1702  0.2061  0.4381
19280TIP3    H179331   1.497   0.138   0.117  0.0964  0.9810 -0.4931
19280TIP3    H279332   1.414   0.264   0.128 -1.2482 -0.0525  1.7543
19281TIP3   OH279333   5.254   2.357  12.485  0.2876 -0.1479 -0.2924
19281TIP3    H179334   5.348   2.371  12.495  0.6393 -1.0732 -1.9324
19281TIP3    H279335   5.224   2.434  12.438  0.0321  0.5610  0.9782
19282TIP3   OH279336   5.374   4.348   3.065 -0.1822 -0.6024 -0.4335
19282TIP3    H179337   5.295   4.313   3.024 -1.1262  1.4352 -0.4657
19282TIP3    H279338   5.378   4.438   3.035  2.2779 -0.6988 -0.5438
19283TIP3   OH279339   5.069   4.605   5.433 -0.0202 -0.3482 -0.0869
19283TIP3    H179340   5.076   4.696   5.462 -1.8558 -0.2858  0.2983
19283TIP3    H279341   5.134   4.558   5.486 -0.5281  0.4076  1.2720
19284TIP3   OH279342   6.093   0.872   0.422 -0.4815 -0.0095  0.1334
19284TIP3    H179343   6.087   0.966   0.402 -0.3450  0.3098  1.4828
19284TIP3    H279344   6.043   0.862   0.504  1.8313 -0.5810  1.5620
19285TIP3   OH279345   2.250   3.469   6.492  0.1194  0.3827  0.0055
19285TIP3    H179346   2.331   3.418   6.494  0.0671  0.3225  0.7164
19285TIP3    H279347   2.227   3.481   6.584 -0.6197  0.4941 -0.1888
19286TIP3   OH279348   6.437   4.263   1.545  0.1685 -0.4166 -0.7355
19286TIP3    H179349   6.498   4.205   1.590 -0.8256 -0.3497  0.7387
19286TIP3    H279350   6.432   4.341   1.599 -0.9733 -0.2865 -0.9929
19287TIP3   OH279351   3.214   4.759   5.914  0.1958 -0.1566  0.0668
19287TIP3    H179352   3.288   4.753   5.975  0.2392  1.3984  0.2034
19287TIP3    H279353   3.156   4.823   5.953 -0.7516 -0.6136 -0.5576
19288TIP3   OH279354   4.798   0.446   1.213 -0.0934 -0.2281  0.4855
19288TIP3    H179355   4.719   0.441   1.267  0.4492  1.0135  1.4412
19288TIP3    H279356   4.785   0.379   1.146 -1.4141 -0.8672  1.3299
19289TIP3   OH279357   4.486   0.867   3.684 -0.3052 -0.4873 -0.3391
19289TIP3    H179358   4.470   0.961   3.675 -0.1163 -0.3610  0.5535
19289TIP3    H279359   4.581   0.860   3.690 -0.2443 -0.8459 -1.4308
19290TIP3   OH279360   2.370   0.411  10.903  0.1647 -0.5607 -0.2569
19290TIP3    H179361   2.450   0.447  10.941 -0.9211  0.7647  0.8725
19290TIP3    H279362   2.325   0.487  10.865 -0.8926 -1.1481 -0.2247
19291TIP3   OH279363   4.451   0.352   1.782  0.3125  0.2383 -0.3427
19291TIP3    H179364   4.520   0.316   1.726 -0.5096  0.4714 -1.5356
19291TIP3    H279365   4.452   0.446   1.763 -0.1924  0.2725 -0.2128
19292TIP3   OH279366   5.231   5.963   1.345 -0.2688 -0.1919  0.2233
19292TIP3    H179367   5.257   6.055   1.358 -0.5526 -0.1903  0.7899
19292TIP3    H279368   5.311   5.920   1.314 -0.2688  0.3548 -0.5694
19293TIP3   OH279369   1.912   1.000  14.705 -0.0891 -0.6338  0.0718
19293TIP3    H179370   1.872   1.083  14.730 -0.2866 -0.8226  0.3904
19293TIP3    H279371   2.001   1.004  14.742 -0.5998 -1.1979  1.4469
19294TIP3   OH279372   2.801   6.380   3.444 -0.3809  0.2158  0.0701
19294TIP3    H179373   2.819   6.331   3.524  1.7252  0.0166 -0.4627
19294TIP3    H279374   2.884   6.423   3.422 -0.5769 -0.5391 -2.5389
19295TIP3   OH279375   6.394   2.523   2.501  0.1822  0.0657 -0.2305
19295TIP3    H179376   6.397   2.427   2.503 -0.4837  0.0528  0.7414
19295TIP3    H279377   6.486   2.549   2.503  0.3623 -0.5450 -0.2552
19296TIP3   OH279378   2.965   0.545  13.958  0.2721 -0.1695  0.3604
19296TIP3    H179379   2.916   0.604  14.015  1.1169 -0.0330  0.9662
19296TIP3    H279380   3.038   0.597  13.927 -0.3238 -0.1609 -1.0904
19297TIP3   OH279381   6.318   1.502  12.429  0.5778 -0.3298 -0.1896
19297TIP3    H179382   6.340   1.408  12.424  2.3293 -0.0150  0.5930
19297TIP3    H279383   6.351   1.528  12.515 -1.7572  0.5840  0.4809
19298TIP3   OH279384   6.112   4.402   5.236 -0.3949 -0.2908 -0.1655
19298TIP3    H179385   6.019   4.410   5.217  0.0665  0.4639 -2.4671
19298TIP3    H279386   6.118   4.329   5.298 -2.3546 -1.7781 -1.5963
19299TIP3   OH279387   0.291   0.866  13.678  0.0599 -0.1229  0.5819
19299TIP3    H179388   0.303   0.772  13.668 -0.2704 -0.1920  0.7918
19299TIP3    H279389   0.197   0.876  13.697 -0.7340  0.5351 -2.9619
19300TIP3   OH279390   4.912   0.837  11.813  0.4768 -0.1321 -0.3097
19300TIP3    H179391   4.840   0.888  11.777  1.0778  2.4958  1.9147
19300TIP3    H279392   4.873   0.752  11.835 -1.2691  0.3325 -1.4410
19301TIP3   OH279393   6.349   0.264  13.689  0.4050 -0.3996  0.1159
19301TIP3    H179394   6.307   0.191  13.645 -1.0494  0.3473  0.2025
19301TIP3    H279395   6.431   0.278  13.640 -0.0333 -1.0946 -0.8503
19302TIP3   OH279396   6.209   4.397   5.634  0.4072  0.1833  0.0626
19302TIP3    H179397   6.204   4.483   5.591  1.4003 -0.0032 -0.4592
19302TIP3    H279398   6.173   4.336   5.570 -1.5271  0.3496  0.9377
19303TIP3   OH279399   0.938   5.927  10.629  0.3134  0.0310 -0.1288
19303TIP3    H179400   0.918   6.019  10.646  0.3516 -0.0228  0.2037
19303TIP3    H279401   0.969   5.926  10.538  1.9056  0.6110  0.3637
19304TIP3   OH279402   0.613   5.279  13.808 -0.3948 -0.2123 -0.3170
19304TIP3    H179403   0.607   5.254  13.900 -1.6675 -0.8013 -0.5330
19304TIP3    H279404   0.695   5.327  13.801 -0.8878  0.9371  1.3746
19305TIP3   OH279405   2.772   3.515   4.074 -0.0446 -0.2293  0.0271
19305TIP3    H179406   2.775   3.602   4.114 -0.6222  0.6080 -1.6621
19305TIP3    H279407   2.679   3.495   4.066  0.0839 -1.0250  0.4122
19306TIP3   OH279408   1.629   1.191  17.110 -0.4906 -0.1839 -0.2036
19306TIP3    H179409   1.651   1.254  17.041 -0.5691 -2.0330 -2.0300
19306TIP3    H279410   1.675   1.111  17.085  2.2600 -0.1174  3.7283
19307TIP3   OH279411   5.070   6.015   0.533  0.3026 -0.3505 -0.1108
19307TIP3    H179412   5.145   6.053   0.488 -0.2326  0.0798 -0.6562
19307TIP3    H279413   5.107   5.976   0.612  0.9707  0.6994  0.1144
19308TIP3   OH279414   1.437   4.351  12.502  0.0094 -0.1338 -0.2656
19308TIP3    H179415   1.452   4.394  12.587 -0.4918  0.4870 -0.4847
19308TIP3    H279416   1.503   4.389  12.444  0.0327 -0.1930 -0.2775
19309TIP3   OH279417   1.381   4.582   4.641  0.1991  0.3133 -0.1849
19309TIP3    H179418   1.291   4.597   4.614 -0.4880  0.2881  1.9259
19309TIP3    H279419   1.431   4.580   4.559 -1.8259 -0.6290 -1.4683
19310TIP3   OH279420   5.261   4.333  16.084 -0.4728 -0.1011 -0.0040
19310TIP3    H179421   5.328   4.277  16.046 -1.3402 -1.4722  0.4095
19310TIP3    H279422   5.181   4.280  16.081 -1.0999  0.7176  1.3595
19311TIP3   OH279423   2.218   6.660   2.335 -0.1693 -0.1195  0.5567
19311TIP3    H179424   2.298   6.712   2.325  1.1542 -1.8102  1.7426
19311TIP3    H279425   2.228   6.589   2.272 -1.3578  0.3191 -0.1542
19312TIP3   OH279426   4.366   0.469   3.650 -0.3171 -0.1308 -0.0694
19312TIP3    H179427   4.333   0.551   3.614 -1.1226  0.1799  1.3125
19312TIP3    H279428   4.364   0.481   3.745  2.2876 -0.6985  0.1334
19313TIP3   OH279429   5.763   3.519  11.412 -0.5417  0.0192  0.4116
19313TIP3    H179430   5.773   3.434  11.454  1.8483 -0.8718 -1.7164
19313TIP3    H279431   5.744   3.498  11.321 -1.4990  1.8243  0.1558
19314TIP3   OH279432   5.838   1.971   6.537  0.3475 -0.2458 -0.2238
19314TIP3    H179433   5.831   1.954   6.631 -1.0026 -0.0889 -0.2735
19314TIP3    H279434   5.854   1.884   6.499 -2.1511 -0.8569 -0.0812
19315TIP3   OH279435   1.552   4.921  14.429  0.0174  0.2968  0.0421
19315TIP3    H179436   1.582   4.941  14.518  0.9436  0.2865 -0.2575
19315TIP3    H279437   1.567   5.002  14.380 -0.6560  0.3580 -0.0637
19316TIP3   OH279438   2.799   0.794  13.030 -0.2057 -0.1726  0.0439
19316TIP3    H179439   2.749   0.789  13.112 -0.6191 -1.5408 -0.2746
19316TIP3    H279440   2.867   0.859  13.048 -0.9883  0.3793  1.0913
19317TIP3   OH279441   5.038   3.621   3.368  0.1015  0.6973  0.5936
19317TIP3    H179442   5.004   3.561   3.301 -1.5466  0.2150  1.7939
19317TIP3    H279443   5.124   3.586   3.390  0.6307  0.7910 -1.1367
19318TIP3   OH279444   3.728   4.055   3.128 -0.2496 -0.3642  0.0958
19318TIP3    H179445   3.653   4.089   3.080 -0.5813 -0.4246  0.5632
19318TIP3    H279446   3.701   4.057   3.220  0.8724  1.0353  0.4326
19319TIP3   OH279447   1.950   6.710  16.496  0.0508 -0.0810 -0.1297
19319TIP3    H179448   1.908   6.665  16.570 -2.0397  2.5474  0.4459
19319TIP3    H279449   1.971   6.797  16.530  4.4530 -0.5490 -1.0192
19320TIP3   OH279450   3.151   1.115  11.639 -0.0308 -0.1623  0.0681
19320TIP3    H179451   3.179   1.059  11.567  1.1158 -1.4264  1.4270
19320TIP3    H279452   3.223   1.178  11.650 -0.5153  0.4644 -0.3290
19321TIP3   OH279453   2.375   5.923   2.897  0.0692  0.0053 -0.5230
19321TIP3    H179454   2.313   5.862   2.857 -1.0137  0.0537  0.9904
19321TIP3    H279455   2.446   5.868   2.929 -0.5093 -0.3798  0.1214
19322TIP3   OH279456   4.515   1.138  16.586 -0.5125 -0.2110  0.3877
19322TIP3    H179457   4.601   1.137  16.628 -0.5589  2.4296  0.7496
19322TIP3    H279458   4.531   1.177  16.500 -1.1959 -0.7403  0.0125
19323TIP3   OH279459   3.565   3.530   1.402 -0.1392 -0.0959  0.0395
19323TIP3    H179460   3.503   3.567   1.338  0.2620 -1.5342 -1.2588
19323TIP3    H279461   3.635   3.595   1.408  0.4947 -0.4930 -2.0914
19324TIP3   OH279462   3.370   4.675   0.129  0.1074 -0.0578  0.1833
19324TIP3    H179463   3.415   4.729   0.065 -2.2238  0.9518 -0.7233
19324TIP3    H279464   3.324   4.609   0.077 -0.7392 -0.0665  0.9215
19325TIP3   OH279465   5.950   5.503   5.235 -0.4067  0.0444  0.1714
19325TIP3    H179466   6.005   5.433   5.271  0.7920  1.4700  1.2414
19325TIP3    H279467   5.957   5.494   5.140 -0.8891 -1.7190  0.2668
19326TIP3   OH279468   3.290   5.108  16.604  0.2915  0.1331  0.2345
19326TIP3    H179469   3.346   5.057  16.546  1.4254 -0.1592  1.5315
19326TIP3    H279470   3.328   5.096  16.691 -2.5940 -1.2123  1.4357
19327TIP3   OH279471   5.447   0.456  12.884 -0.3660 -0.1585  0.1963
19327TIP3    H179472   5.524   0.400  12.891 -0.1437  0.2323  1.0032
19327TIP3    H279473   5.471   0.523  12.820  0.3593  0.5677  1.2036
19328TIP3   OH279474   2.801   4.002   3.062  0.0971 -0.0205  0.1296
19328TIP3    H179475   2.858   4.079   3.069  0.5938 -0.4935  1.5744
19328TIP3    H279476   2.750   4.002   3.143 -1.1521 -0.2527 -0.6398
19329TIP3   OH279477   1.957   6.752   3.449 -0.3338 -0.0110 -0.2658
19329TIP3    H179478   2.045   6.779   3.475 -0.4556  0.0494  0.0920
19329TIP3    H279479   1.950   6.661   3.476  0.4281 -0.7388 -2.3600
19330TIP3   OH279480   2.466   3.367  15.722 -0.0384 -0.7394 -0.3167
19330TIP3    H179481   2.556   3.362  15.692 -0.2064 -2.0380 -0.6969
19330TIP3    H279482   2.419   3.304  15.666 -1.2323  0.1421 -0.3447
19331TIP3   OH279483   0.432   4.467  14.209 -0.1703 -0.3077 -0.3445
19331TIP3    H179484   0.513   4.422  14.230  0.4374  1.0571  0.3404
19331TIP3    H279485   0.460   4.547  14.164 -1.0049  0.9699  1.2981
19332TIP3   OH279486   2.579   6.535   1.802 -0.5874 -0.2998  0.3752
19332TIP3    H179487   2.550   6.448   1.829  0.3269 -0.6238  0.3382
19332TIP3    H279488   2.529   6.595   1.857 -0.9372 -0.8633  0.6803
19333TIP3   OH279489   4.519   4.052  10.592 -0.2851  0.6049  0.4557
19333TIP3    H179490   4.457   4.124  10.586 -0.9566  0.0106  0.0850
19333TIP3    H279491   4.471   3.976  10.558  1.2764  0.5183 -1.7511
19334TIP3   OH279492   5.701   3.303  14.696 -0.4945  0.1827  0.6463
19334TIP3    H179493   5.694   3.222  14.646 -1.2566 -0.2052  1.3460
19334TIP3    H279494   5.613   3.316  14.732 -0.4807  1.5230  0.2472
19335TIP3   OH279495   6.631   2.037  15.796 -0.4865 -0.0519  0.6339
19335TIP3    H179496   6.610   2.089  15.873  1.8816 -3.0214  3.5922
19335TIP3    H279497   6.586   1.954  15.810  0.1753 -0.7519 -1.0705
19336TIP3   OH279498   3.866   5.331   4.414  0.4818  0.1968 -0.4371
19336TIP3    H179499   3.877   5.413   4.461 -1.2123 -1.1298  2.6312
19336TIP3    H279500   3.861   5.356   4.322 -0.2628  3.5644  0.3814
19337TIP3   OH279501   5.453   4.970   2.306  0.1574 -0.4519 -0.4067
19337TIP3    H179502   5.405   4.973   2.223 -0.0252 -2.4652 -0.4356
19337TIP3    H279503   5.541   5.003   2.284  0.0378 -0.7309 -1.3521
19338TIP3   OH279504   3.019   1.378   5.071  0.2118  0.2455  0.1711
19338TIP3    H179505   2.982   1.458   5.034 -1.7310 -0.8647 -0.4092
19338TIP3    H279506   3.093   1.409   5.124  1.8969  2.0989 -2.9267
19339TIP3   OH279507   0.316   0.318   4.364  0.1945 -0.0077  0.5823
19339TIP3    H179508   0.255   0.274   4.305 -0.0804  1.3545 -0.2039
19339TIP3    H279509   0.341   0.398   4.317  0.4605  0.8155  2.0613
19340TIP3   OH279510   3.681   2.185   4.612 -0.2589  0.0026  0.1810
19340TIP3    H179511   3.701   2.200   4.705  0.1289  0.9732 -0.0402
19340TIP3    H279512   3.740   2.245   4.566  1.4350 -2.2668 -0.8244
19341TIP3   OH279513   5.209   5.672   4.292 -0.0330 -0.1118 -0.0255
19341TIP3    H179514   5.227   5.592   4.243 -1.4213  0.6530 -1.9084
19341TIP3    H279515   5.208   5.741   4.226 -2.1681  0.9497  1.0126
19342TIP3   OH279516   6.702   1.450  13.868  0.0580 -0.2569 -0.5612
19342TIP3    H179517   6.753   1.494  13.936  0.3570 -0.5993 -0.5605
19342TIP3    H279518   6.613   1.484  13.879  0.2309  0.1497 -0.3949
19343TIP3   OH279519   3.308   0.871   0.312  0.3070  0.3131 -0.0426
19343TIP3    H179520   3.292   0.965   0.306  0.9989  0.4920  0.7655
19343TIP3    H279521   3.388   0.857   0.260  1.1632  0.4532  1.1937
19344TIP3   OH279522   2.848   0.117   0.801  0.5134  0.1777  0.5380
19344TIP3    H179523   2.841   0.177   0.727  1.8995  0.9378  0.9969
19344TIP3    H279524   2.916   0.154   0.857  2.0940 -2.2670  0.3976
19345TIP3   OH279525   2.843   1.864  11.129 -0.1934  0.7936  0.0166
19345TIP3    H179526   2.765   1.824  11.089 -0.6042  0.9986  0.5902
19345TIP3    H279527   2.902   1.791  11.144 -1.1677  0.2665  1.5865
19346TIP3   OH279528   6.310   0.588   1.717  0.1224 -0.5895  0.2408
19346TIP3    H179529   6.226   0.547   1.735 -0.2837  0.3590  0.5757
19346TIP3    H279530   6.307   0.609   1.624  0.6386 -1.9593 -0.1110
19347TIP3   OH279531   5.385   1.923  16.865 -0.4184  0.4584 -0.0924
19347TIP3    H179532   5.459   1.907  16.924  0.8073 -0.1683 -1.7158
19347TIP3    H279533   5.311   1.880  16.907  0.6483 -0.8714  0.5100
19348TIP3   OH279534   1.455   3.649   6.411 -0.6920  0.5444  0.0383
19348TIP3    H179535   1.421   3.605   6.489 -0.7399 -0.0205 -0.2918
19348TIP3    H279536   1.437   3.742   6.425  1.1471  0.7373  1.6669
19349TIP3   OH279537   1.474   0.373   5.131 -0.1959  0.5186 -0.3516
19349TIP3    H179538   1.505   0.319   5.058 -0.2405  1.6584 -1.2365
19349TIP3    H279539   1.414   0.436   5.091 -1.7102 -0.0194  0.9561
19350TIP3   OH279540   3.428   5.932  16.885 -0.3900  0.0616  0.2124
19350TIP3    H179541   3.335   5.948  16.902 -0.3083  0.9651 -0.1467
19350TIP3    H279542   3.451   5.860  16.943 -1.7648 -1.4613 -1.0165
19351TIP3   OH279543   5.710   0.355   4.934  0.4750  0.1572  0.1207
19351TIP3    H179544   5.667   0.374   5.017  0.6671  0.4324  0.1621
19351TIP3    H279545   5.655   0.398   4.868 -0.2249 -0.8932 -0.0075
19352TIP3   OH279546   3.553   2.486  12.224  0.3074  0.4157 -0.0435
19352TIP3    H179547   3.626   2.475  12.162 -0.6553  2.1017 -1.5686
19352TIP3    H279548   3.587   2.547  12.290  0.8385 -0.1943  0.2584
19353TIP3   OH279549   5.184   5.320   1.787  0.2352 -0.4627  0.2446
19353TIP3    H179550   5.238   5.383   1.739  0.8986 -1.6321 -0.5928
19353TIP3    H279551   5.155   5.368   1.865  1.4741  0.5801  0.0997
19354TIP3   OH279552   6.535   3.480   3.602  0.0767 -0.0374 -0.4378
19354TIP3    H179553   6.629   3.483   3.586  0.0649  0.0515 -0.4920
19354TIP3    H279554   6.514   3.566   3.638  0.2595 -0.5656  0.9606
19355TIP3   OH279555   0.599   3.178   5.366  0.2328  0.4644 -0.4259
19355TIP3    H179556   0.516   3.190   5.411 -0.0434  1.2429 -1.1080
19355TIP3    H279557   0.582   3.211   5.277  1.4344  1.1675 -0.4029
19356TIP3   OH279558   2.748   5.244  12.693  0.0740 -0.2656 -0.2659
19356TIP3    H179559   2.810   5.291  12.749 -0.7042 -0.0844  0.4687
19356TIP3    H279560   2.763   5.280  12.606  0.9473 -0.1740 -0.0866
19357TIP3   OH279561   2.171   0.591  11.990  0.2330 -0.5227  0.0003
19357TIP3    H179562   2.253   0.552  11.960  1.2171  0.3291  1.4803
19357TIP3    H279563   2.121   0.607  11.909  2.0388  0.0972 -1.0325
19358TIP3   OH279564   0.781   5.668  15.288 -0.0135  0.5302  0.0579
19358TIP3    H179565   0.771   5.679  15.383 -0.9363  1.6702 -0.1591
19358TIP3    H279566   0.852   5.604  15.280 -0.7451 -0.5562  1.5340
19359TIP3   OH279567   6.730   0.459   4.890  0.3867 -0.0070  0.0672
19359TIP3    H179568   6.677   0.495   4.961 -2.7090  0.6240 -2.3117
19359TIP3    H279569   6.728   0.364   4.904 -1.8552 -0.0483 -0.1187
19360TIP3   OH279570   3.434   1.817  13.325  0.4125  0.0026  0.6289
19360TIP3    H179571   3.399   1.883  13.385  0.8195  3.7005 -2.7694
19360TIP3    H279572   3.362   1.801  13.263  1.7943  1.0879 -1.3723
19361TIP3   OH279573   5.137   5.986  16.042 -0.2089 -0.4943  0.3967
19361TIP3    H179574   5.074   5.917  16.058 -1.1273  0.4916  1.1637
19361TIP3    H279575   5.117   6.018  15.954 -2.6749  1.6311  1.5840
19362TIP3   OH279576   0.394   4.883   4.712  0.0784  0.1136  0.2186
19362TIP3    H179577   0.379   4.977   4.729 -1.6076  0.1305 -1.0696
19362TIP3    H279578   0.377   4.841   4.797  0.4309  0.9323  0.7070
19363TIP3   OH279579   5.232   2.926  12.466 -0.2125  0.0674  0.1881
19363TIP3    H179580   5.316   2.880  12.475  0.6396  1.7944  1.4477
19363TIP3    H279581   5.202   2.903  12.378  1.4114 -0.8498 -0.1649
19364TIP3   OH279582   6.092   6.073   1.754  0.2249 -0.4375  0.7004
19364TIP3    H179583   6.177   6.114   1.765 -0.4515  1.7609 -1.3350
19364TIP3    H279584   6.104   6.010   1.683 -0.3243  1.8565 -1.5706
19365TIP3   OH279585   5.308   3.414  14.602  0.1713  0.0734  0.8867
19365TIP3    H179586   5.375   3.384  14.663 -1.2927 -0.7977  2.1151
19365TIP3    H279587   5.331   3.372  14.519  1.3089  0.0336  1.2028
19366TIP3   OH279588   4.256   5.557   4.361  0.3821 -0.1019  0.4767
19366TIP3    H179589   4.180   5.597   4.318  1.1834 -0.4349 -1.3373
19366TIP3    H279590   4.303   5.630   4.401  1.5760  0.8086 -2.3921
19367TIP3   OH279591   4.170   5.950  14.032 -0.1659  0.7922 -0.0239
19367TIP3    H179592   4.167   5.871  14.086 -0.7446 -0.3782 -1.6848
19367TIP3    H279593   4.108   6.010  14.074  0.3514  0.4292  1.3197
19368TIP3   OH279594   4.020   0.864  13.535 -0.5351  0.2373 -0.4882
19368TIP3    H179595   3.971   0.846  13.455  0.7193 -1.5878 -0.9179
19368TIP3    H279596   4.073   0.942  13.513 -0.6714  0.1361 -1.2204
19369TIP3   OH279597   6.023   1.870   6.070 -0.1729 -1.1204 -0.6494
19369TIP3    H179598   6.031   1.790   6.122 -0.7329 -1.4821 -1.1013
19369TIP3    H279599   5.929   1.889   6.071  0.1039  0.4364  0.7743
19370TIP3   OH279600   3.596   5.987  14.273 -0.0813 -0.0166 -0.0120
19370TIP3    H179601   3.575   6.028  14.189 -0.4699  2.6435  1.2715
19370TIP3    H279602   3.511   5.976  14.316  0.2180  0.0273  0.6058
19371TIP3   OH279603   5.207   1.668  14.843 -0.0645  0.5154 -0.4100
19371TIP3    H179604   5.295   1.645  14.873  0.2860  0.2599 -1.5617
19371TIP3    H279605   5.149   1.620  14.902  0.6262 -1.9571 -1.5756
19372TIP3   OH279606   6.509   1.011  16.033 -0.5129  0.4237  0.6700
19372TIP3    H179607   6.576   1.007  15.966 -0.0591  1.2491  1.0652
19372TIP3    H279608   6.426   1.018  15.985 -0.1464  1.6617  0.2058
19373TIP3   OH279609   5.577   5.815   0.057  0.3475 -0.0303 -0.1558
19373TIP3    H179610   5.579   5.753   0.130  0.1393 -0.7021 -0.7124
19373TIP3    H279611   5.548   5.763  -0.018  0.3964  0.6904 -0.6822
19374TIP3   OH279612   2.770   2.036   6.596 -0.0583  0.2714  0.2266
19374TIP3    H179613   2.711   1.962   6.609 -0.0108 -0.3195 -2.4397
19374TIP3    H279614   2.713   2.107   6.566  0.3313  0.2976 -0.4578
19375TIP3   OH279615   4.014   2.039   0.472  0.1235  0.3328 -0.6409
19375TIP3    H179616   3.931   1.997   0.447  0.6123 -0.7542 -0.4984
19375TIP3    H279617   4.079   1.999   0.415  0.6099  0.8897 -0.4758
19376TIP3   OH279618   6.523   3.857   5.807  0.2775  0.3066  0.5253
19376TIP3    H179619   6.612   3.878   5.837  0.1486  1.3219  0.2371
19376TIP3    H279620   6.469   3.927   5.841 -0.8933 -1.5559  2.7707
19377TIP3   OH279621   5.688   0.498   1.759 -0.4519  0.3397 -0.5816
19377TIP3    H179622   5.652   0.583   1.732 -1.4643  1.1800  2.9526
19377TIP3    H279623   5.612   0.439   1.758 -0.0697 -0.1585 -1.4746
19378TIP3   OH279624   5.496   2.311  13.346 -0.1388 -0.3075 -0.4265
19378TIP3    H179625   5.475   2.254  13.272 -1.6575 -1.1144  0.5794
19378TIP3    H279626   5.480   2.399  13.313 -0.5341 -0.6403 -1.1581
19379TIP3   OH279627   3.661   3.761   3.497  0.1201  0.5635 -0.0803
19379TIP3    H179628   3.652   3.844   3.450 -0.9657  0.8171  0.5544
19379TIP3    H279629   3.606   3.771   3.575  0.5599 -0.4789  0.3822
19380TIP3   OH279630   5.799   2.143  12.815  0.2475  0.1466 -0.4144
19380TIP3    H179631   5.709   2.111  12.819  0.0328  0.8109  0.6323
19380TIP3    H279632   5.825   2.133  12.723 -0.9402  0.0840 -0.7561
19381TIP3   OH279633   5.056   0.450  10.739  0.2180 -0.3907  0.0572
19381TIP3    H179634   5.059   0.400  10.820  0.6956  0.3480  0.5164
19381TIP3    H279635   5.108   0.399  10.677 -0.4993 -1.1708  0.0813
19382TIP3   OH279636   0.954   5.901   1.370 -0.5009 -0.2996  0.2455
19382TIP3    H179637   0.920   5.811   1.364 -0.7059 -0.1680 -0.8809
19382TIP3    H279638   0.878   5.954   1.390 -0.1543 -0.5095  2.2550
19383TIP3   OH279639   0.990   5.627   6.110  0.2726 -0.3210 -0.3214
19383TIP3    H179640   0.965   5.713   6.144 -4.1108 -1.1610 -0.9272
19383TIP3    H279641   1.002   5.574   6.189  2.6757  0.6142  0.0456
19384TIP3   OH279642   1.182   5.214   0.356  0.4334  0.0420  0.3508
19384TIP3    H179643   1.143   5.235   0.271 -0.9993 -0.5994  0.8239
19384TIP3    H279644   1.218   5.297   0.387  0.3296  0.4324 -0.5464
19385TIP3   OH279645   0.417   1.231   5.193  0.1966 -0.3465  0.2964
19385TIP3    H179646   0.402   1.311   5.143 -0.4828 -0.0825  0.9201
19385TIP3    H279647   0.510   1.211   5.179  0.1781  0.1046 -0.5040
19386TIP3   OH279648   0.107   5.099   2.459  0.0831  0.4018 -0.0046
19386TIP3    H179649   0.189   5.136   2.426  0.8378 -2.4698 -1.7762
19386TIP3    H279650   0.107   5.119   2.552  4.2240 -1.6297  0.6907
19387TIP3   OH279651   3.619   3.208  16.566 -0.0881 -0.5766 -0.0938
19387TIP3    H179652   3.647   3.219  16.475  0.3558 -1.4568 -0.0697
19387TIP3    H279653   3.618   3.297  16.602  1.4664 -0.3835 -0.4596
19388TIP3   OH279654   0.305   2.590   6.004 -0.2487 -0.7344 -0.3749
19388TIP3    H179655   0.221   2.547   5.990 -1.2592  0.9714  0.2033
19388TIP3    H279656   0.292   2.646   6.081  1.6969 -1.1246  0.3030
19389TIP3   OH279657   3.307   4.383  11.724 -0.3707  0.2367 -0.4370
19389TIP3    H179658   3.318   4.465  11.771 -0.7813 -0.1645  0.3810
19389TIP3    H279659   3.393   4.342  11.727 -0.7975 -0.6251  1.6047
19390TIP3   OH279660   1.329   1.180   3.095  0.1734  0.0379 -0.0012
19390TIP3    H179661   1.312   1.150   3.185 -1.6067 -1.6068 -0.8034
19390TIP3    H279662   1.326   1.275   3.101 -1.6425 -0.0443  1.4252
19391TIP3   OH279663   6.413   6.207   3.859  0.1195  0.1179 -0.2018
19391TIP3    H179664   6.357   6.223   3.783  0.6245  0.0813 -0.5882
19391TIP3    H279665   6.501   6.227   3.829  0.2983  0.3554  0.4571
19392TIP3   OH279666   0.044   5.910   1.440  0.0147 -0.3322  0.2026
19392TIP3    H179667   0.048   5.961   1.360 -0.7324 -1.9306 -0.9150
19392TIP3    H279668   0.094   5.830   1.421  0.8518 -0.2330  1.7570
19393TIP3   OH279669   2.825   2.233  10.812 -0.2286 -0.5312  0.3472
19393TIP3    H179670   2.885   2.274  10.750 -0.4851  0.3740  0.6802
19393TIP3    H279671   2.845   2.275  10.896 -0.6351 -0.9439  0.6557
19394TIP3   OH279672   4.187   0.549  17.427  0.2418  0.0785 -0.1956
19394TIP3    H179673   4.116   0.598  17.385  0.9929 -0.1976 -1.8855
19394TIP3    H279674   4.200   0.474  17.369  0.5850 -0.9393  1.1711
19395TIP3   OH279675   6.172   5.164   2.432  0.0855 -0.3273  0.0300
19395TIP3    H179676   6.183   5.251   2.395 -0.4660 -0.2873 -0.0408
19395TIP3    H279677   6.168   5.105   2.356  0.2909 -0.3970  0.0721
19396TIP3   OH279678   0.036   5.396  11.831 -0.0938 -0.3426 -0.8565
19396TIP3    H179679   0.057   5.467  11.892 -0.1127 -1.0275 -0.0252
19396TIP3    H279680  -0.058   5.405  11.816 -0.0630 -0.0803 -0.9081
19397TIP3   OH279681   1.143   6.419   1.771  0.5680 -0.1232  0.1944
19397TIP3    H179682   1.213   6.451   1.713  0.5756  0.9580  0.7779
19397TIP3    H279683   1.062   6.446   1.728  0.4045 -2.3408 -1.0599
19398TIP3   OH279684   4.791   6.621   2.025 -0.2969 -0.5284  0.0780
19398TIP3    H179685   4.706   6.577   2.036  0.4684 -1.6403  2.2610
19398TIP3    H279686   4.804   6.668   2.107  1.3000 -0.5894 -0.1121
19399TIP3   OH279687   2.859   2.163  16.163  0.4500  0.3994 -0.0327
19399TIP3    H179688   2.912   2.125  16.233 -0.5916  0.8010  1.0036
19399TIP3    H279689   2.914   2.156  16.085  1.3310 -0.7490  0.6673
19400TIP3   OH279690   3.280   5.435  11.662  0.6004  0.1005  0.0496
19400TIP3    H179691   3.248   5.521  11.638 -0.3382  0.1100  1.1935
19400TIP3    H279692   3.325   5.449  11.746  1.6639 -0.3010 -0.4367
19401TIP3   OH279693   3.021   2.921   4.125  0.6700  0.0967  0.2978
19401TIP3    H179694   3.018   2.924   4.029  0.2700 -0.0551  0.2994
19401TIP3    H279695   2.940   2.964   4.152  0.8763  0.3125  0.5720
19402TIP3   OH279696   0.831   2.039   3.181  0.2030  0.0126 -0.0590
19402TIP3    H179697   0.797   1.973   3.242  0.3838 -0.5384 -0.5541
19402TIP3    H279698   0.924   2.045   3.202  0.2736 -0.2091 -0.3175
19403TIP3   OH279699   4.233   5.732  17.163 -0.1556 -0.1310  0.2979
19403TIP3    H179700   4.195   5.804  17.112  1.0808  0.3086 -0.0338
19403TIP3    H279701   4.302   5.696  17.107  0.0657 -0.7654  0.9630
19404TIP3   OH279702   4.634   0.135  15.151 -1.1909 -0.1465 -0.1630
19404TIP3    H179703   4.645   0.054  15.102  0.4838  0.1410 -0.3236
19404TIP3    H279704   4.620   0.106  15.242 -2.0677 -0.6176 -0.4309
19405TIP3   OH279705   4.500   0.340  13.378  0.6240 -0.1768 -0.3319
19405TIP3    H179706   4.525   0.316  13.288  0.8324 -0.8109 -0.1139
19405TIP3    H279707   4.457   0.262  13.412  0.0403  0.2554 -0.0614
19406TIP3   OH279708   2.963   3.427   5.044 -0.6789 -0.7531 -0.2333
19406TIP3    H179709   3.045   3.468   5.072 -1.3850  0.6559 -0.1808
19406TIP3    H279710   2.978   3.333   5.059  1.4676 -0.7040 -1.6335
19407TIP3   OH279711   1.208   0.439  13.473  0.0108  0.2639 -0.5925
19407TIP3    H179712   1.166   0.524  13.484 -2.1361 -0.8732  0.8213
19407TIP3    H279713   1.237   0.438  13.382 -0.1071  2.3908 -0.7043
19408TIP3   OH279714   0.546   1.730  13.998 -0.4396 -0.3342 -0.3185
19408TIP3    H179715   0.617   1.732  13.934 -1.2061  0.7851 -1.1732
19408TIP3    H279716   0.590   1.727  14.083  0.6260 -4.0661 -0.8292
19409TIP3   OH279717   0.710   1.503   2.073  0.0961  0.1500 -0.2714
19409TIP3    H179718   0.616   1.519   2.080  0.3001  1.4942 -0.3106
19409TIP3    H279719   0.726   1.430   2.133 -0.9021  0.2023  0.0840
19410TIP3   OH279720   5.239   1.029   5.211 -0.1467 -0.1519  0.8239
19410TIP3    H179721   5.262   0.977   5.134 -0.7961 -1.3203  1.3878
19410TIP3    H279722   5.214   1.114   5.175 -1.3689 -0.9652 -0.3785
19411TIP3   OH279723   4.926   3.403  13.129 -0.0294  0.7105 -0.6465
19411TIP3    H179724   4.916   3.482  13.182 -0.5648  1.1126 -1.3296
19411TIP3    H279725   5.020   3.398  13.111  0.2391  0.2799  0.7522
19412TIP3   OH279726   1.206   1.852  16.419  0.0751  0.2574  0.4145
19412TIP3    H179727   1.196   1.869  16.326  0.9713  1.8471  0.5555
19412TIP3    H279728   1.123   1.813  16.446 -0.2445 -0.1032 -1.0067
19413TIP3   OH279729   2.885   1.068   5.659 -0.1077 -0.1232  0.5956
19413TIP3    H179730   2.922   1.062   5.571 -1.6573  0.3559 -0.1257
19413TIP3    H279731   2.810   1.126   5.649 -0.6308 -0.4962  2.1296
19414TIP3   OH279732   2.113   6.257  12.513 -0.3889 -0.2432  0.4068
19414TIP3    H179733   2.160   6.306  12.445  0.3225 -0.8656  0.4442
19414TIP3    H279734   2.053   6.322  12.552  1.4448  0.9749  1.3494
19415TIP3   OH279735   3.943   5.114  11.683 -0.2450  0.1643 -0.0502
19415TIP3    H179736   3.906   5.038  11.727  0.2152 -0.3814 -0.6081
19415TIP3    H279737   4.033   5.119  11.715 -0.0072 -0.0413 -0.6852
19416TIP3   OH279738   6.111   6.080   3.682 -0.1666 -0.1933 -0.4726
19416TIP3    H179739   6.191   6.132   3.673 -1.2571  1.6330 -0.1676
19416TIP3    H279740   6.100   6.039   3.597  0.9424 -0.2491 -0.6094
19417TIP3   OH279741   3.581   4.085   1.221  0.0122 -0.0090 -0.5160
19417TIP3    H179742   3.574   4.027   1.297 -0.0071  0.5907 -0.0465
19417TIP3    H279743   3.675   4.101   1.212 -0.0523  0.8885  0.1564
19418TIP3   OH279744   3.566   6.336  12.272 -0.3751 -0.4320  0.4032
19418TIP3    H179745   3.604   6.272  12.332  0.5405  1.9249  2.4924
19418TIP3    H279746   3.478   6.352  12.306 -0.0602  0.4867  0.8306
19419TIP3   OH279747   0.020   0.717   6.243  0.3434  0.1035  0.4199
19419TIP3    H179748   0.106   0.742   6.277  1.4962 -0.3761 -1.8938
19419TIP3    H279749  -0.012   0.650   6.303  1.8153 -0.0571  1.0541
19420TIP3   OH279750   1.083   0.085  14.481  0.1471  0.2123  0.0802
19420TIP3    H179751   1.059   0.081  14.573  1.9674 -3.0197  0.5928
19420TIP3    H279752   1.021   0.146  14.441 -3.1180 -1.1308  2.7305
19421TIP3   OH279753   2.784   5.044  11.850 -0.1485 -0.0816  0.4530
19421TIP3    H179754   2.716   5.096  11.894 -1.4354 -0.8815 -0.5255
19421TIP3    H279755   2.737   4.994  11.783  1.1364 -1.9293  0.8299
19422TIP3   OH279756   0.542   2.539   0.103  0.2063  0.5955 -0.0434
19422TIP3    H179757   0.539   2.500   0.190  1.8682  0.2105 -0.1286
19422TIP3    H279758   0.554   2.633   0.119 -0.1674  0.6191  0.1260
19423TIP3   OH279759   5.605   6.479   4.841 -0.4046 -0.4837  0.1051
19423TIP3    H179760   5.551   6.548   4.803 -0.6950 -1.2596 -0.8968
19423TIP3    H279761   5.543   6.413   4.871 -0.0368 -1.5138 -1.3138
19424TIP3   OH279762   1.655   0.173  16.463 -0.2313  0.5410  0.3303
19424TIP3    H179763   1.699   0.250  16.500  2.8825 -0.7742 -0.2880
19424TIP3    H279764   1.685   0.100  16.518 -0.9994 -0.5595 -0.6704
19425TIP3   OH279765   1.703   4.265  16.691  0.1066 -0.3830  0.5225
19425TIP3    H179766   1.761   4.313  16.632  0.5505 -2.7524 -1.1416
19425TIP3    H279767   1.698   4.319  16.770  1.1520  1.9355 -0.9009
19426TIP3   OH279768   3.971   2.289   4.705 -0.2838  0.2790 -0.1534
19426TIP3    H179769   3.911   2.334   4.763 -0.8425  0.2272 -0.6804
19426TIP3    H279770   3.971   2.342   4.625  0.1126  0.0912 -0.2829
19427TIP3   OH279771   3.157   1.982  12.365  0.0339  0.7173  0.0621
19427TIP3    H179772   3.149   1.993  12.270 -1.6165  1.8739  0.2989
19427TIP3    H279773   3.103   2.052  12.402 -0.7333 -0.7645  1.8609
19428TIP3   OH279774   3.732   0.955   0.523 -0.3082 -0.0649 -0.3598
19428TIP3    H179775   3.759   0.984   0.610 -0.7720 -1.2441  0.1973
19428TIP3    H279776   3.786   0.878   0.504 -1.3235 -0.7976 -0.3943
19429TIP3   OH279777   6.740   3.879   6.239 -0.2192  0.0783  0.1693
19429TIP3    H179778   6.807   3.814   6.215 -1.4555 -0.5782 -1.7365
19429TIP3    H279779   6.785   3.963   6.234  0.7068 -0.4199 -0.0846
19430TIP3   OH279780   3.612   2.126   5.431  0.1383  0.5026  0.2777
19430TIP3    H179781   3.666   2.129   5.510 -0.3296  0.7827  0.5889
19430TIP3    H279782   3.522   2.119   5.463  0.0898 -1.9037 -0.2478
19431TIP3   OH279783   0.597   3.555  15.039 -0.1335  0.5064 -0.4187
19431TIP3    H179784   0.598   3.574  15.132  0.6487  1.3211 -0.5825
19431TIP3    H279785   0.505   3.537  15.019  0.0427 -3.0223  1.1160
19432TIP3   OH279786   1.803   4.643   5.782 -0.1329  0.3216  0.5562
19432TIP3    H179787   1.741   4.717   5.782 -1.0003 -0.3259  2.7862
19432TIP3    H279788   1.868   4.666   5.849  1.6356  0.5901 -1.1598
19433TIP3   OH279789   1.131   0.232   5.136  0.5103 -0.2557 -0.2888
19433TIP3    H179790   1.112   0.308   5.082  0.7746 -1.1474 -1.6911
19433TIP3    H279791   1.138   0.267   5.225  1.3170  1.4596 -0.9731
19434TIP3   OH279792   5.145   3.899   5.718 -0.5808  0.4198 -0.6874
19434TIP3    H179793   5.149   3.935   5.807  0.6569  1.0053 -0.9556
19434TIP3    H279794   5.052   3.894   5.698 -0.8496  1.1550  0.3001
19435TIP3   OH279795   4.703   0.442   3.319  0.0939 -0.2501 -0.0616
19435TIP3    H179796   4.758   0.496   3.262 -1.0936  2.6217  1.3155
19435TIP3    H279797   4.666   0.376   3.260 -0.7517  2.2729 -2.6323
19436TIP3   OH279798   2.044   2.334   4.664  0.2712 -0.4395 -0.2791
19436TIP3    H179799   2.093   2.354   4.585  2.0875  1.0157  1.1286
19436TIP3    H279800   2.096   2.268   4.709  0.4617  0.3977  0.7644
19437TIP3   OH279801   4.079   6.069   1.144 -0.5649 -0.2051  0.1862
19437TIP3    H179802   4.008   6.005   1.142 -0.9712  0.2336  0.2679
19437TIP3    H279803   4.048   6.141   1.088  0.6766 -0.8713 -1.4307
19438TIP3   OH279804   1.113   0.993   4.796  0.5807  0.0432  0.1978
19438TIP3    H179805   1.114   1.072   4.741  1.3262  1.4394  2.0935
19438TIP3    H279806   1.021   0.967   4.798  0.2612  1.0612 -0.2113
19439TIP3   OH279807   4.642   1.289  15.759  0.1425 -0.2398 -0.0670
19439TIP3    H179808   4.689   1.237  15.694 -0.4454 -0.6281 -0.1942
19439TIP3    H279809   4.658   1.380  15.734  0.1657 -0.3814 -0.5796
19440TIP3   OH279810   1.419   0.550   3.582  0.2602 -0.2072 -0.2638
19440TIP3    H179811   1.514   0.558   3.574  0.2231  0.9619  0.2350
19440TIP3    H279812   1.397   0.475   3.527  1.4845 -0.5909 -0.2735
19441TIP3   OH279813   4.812   2.252   1.311 -0.1156  0.6021 -0.0740
19441TIP3    H179814   4.834   2.161   1.329 -2.7722 -0.8289 -3.1132
19441TIP3    H279815   4.808   2.293   1.397  2.7230 -1.6492  1.2975
19442TIP3   OH279816   4.544   5.681  15.793  0.9052 -0.2391 -0.2328
19442TIP3    H179817   4.553   5.616  15.723 -0.0242 -0.4245 -0.1917
19442TIP3    H279818   4.468   5.651  15.843  2.3094 -0.8582  1.6632
19443TIP3   OH279819   5.407   2.886  13.180  0.4226  0.1770  0.4076
19443TIP3    H179820   5.478   2.876  13.116  0.3451  0.4320  0.2817
19443TIP3    H279821   5.412   2.977  13.208 -0.5689  0.5175 -0.4588
19444TIP3   OH279822   4.748   1.029  11.994  0.3164 -0.1875 -0.6719
19444TIP3    H179823   4.780   0.944  12.026  1.5151  0.4451 -0.0921
19444TIP3    H279824   4.721   1.013  11.904 -2.1184 -1.7896  0.2397
19445TIP3   OH279825   3.848   3.219  15.759  0.3755  0.0488  0.2225
19445TIP3    H179826   3.803   3.136  15.743  2.2818 -1.0457  0.2532
19445TIP3    H279827   3.926   3.194  15.808  0.8093  1.9244  0.5391
19446TIP3   OH279828   1.801   4.550  15.116 -0.1185 -0.0988 -0.2859
19446TIP3    H179829   1.812   4.456  15.126 -1.8496 -0.4690 -1.4575
19446TIP3    H279830   1.757   4.578  15.197  2.6129  0.1979  1.2008
19447TIP3   OH279831   1.816   1.372   0.286  0.8573  0.5584  0.2969
19447TIP3    H179832   1.785   1.450   0.240 -0.0637  1.0987  1.7676
19447TIP3    H279833   1.737   1.332   0.323  1.1373 -1.7638 -1.3456
19448TIP3   OH279834   1.742   3.897   2.247 -0.2978  0.3132  0.2109
19448TIP3    H179835   1.728   3.813   2.291 -0.3661  0.0692 -0.2777
19448TIP3    H279836   1.816   3.882   2.189  0.0836  0.7660  0.5727
19449TIP3   OH279837   1.771   3.057   6.702 -0.4101 -0.4392  0.4587
19449TIP3    H179838   1.767   3.045   6.607  0.3121  1.6805  0.1153
19449TIP3    H279839   1.735   3.144   6.717 -1.1684 -1.0118  2.2303
19450TIP3   OH279840   3.980   0.422  16.359 -0.0097 -0.2759 -0.3066
19450TIP3    H179841   3.929   0.348  16.327 -0.4649  0.2162 -0.7482
19450TIP3    H279842   4.056   0.383  16.402 -0.3375 -0.9965 -0.3719
19451TIP3   OH279843   2.309   5.522   0.912 -0.0170  0.0938  0.2439
19451TIP3    H179844   2.378   5.556   0.968  1.3453  1.4366 -2.1051
19451TIP3    H279845   2.236   5.583   0.923  0.7297  1.1288 -0.4395
19452TIP3   OH279846   1.859   5.114  12.502  0.2663 -0.1913 -0.0144
19452TIP3    H179847   1.794   5.054  12.536  1.2200 -0.9705  0.5012
19452TIP3    H279848   1.855   5.189  12.561  0.2360 -0.4876  0.3641
19453TIP3   OH279849   4.255   0.215  16.229  0.2822  0.2062  0.1610
19453TIP3    H179850   4.339   0.196  16.270  0.4879  0.6513 -0.0458
19453TIP3    H279851   4.277   0.246  16.141  0.0292  2.2037  0.7491
19454TIP3   OH279852   4.991   0.478   2.813  0.0883  0.3598 -0.1052
19454TIP3    H179853   4.951   0.564   2.826  1.3186  1.4806 -2.8431
19454TIP3    H279854   5.083   0.497   2.793  0.2810 -1.5163 -1.2245
19455TIP3   OH279855   6.284   0.075   4.657 -0.9304 -0.0827  0.0507
19455TIP3    H179856   6.310   0.163   4.684  0.7380 -0.2723 -0.8145
19455TIP3    H279857   6.193   0.084   4.630 -1.7771  0.7099  2.8231
19456TIP3   OH279858   6.284   0.013  12.968  0.0552  0.1731 -0.0319
19456TIP3    H179859   6.319   0.096  12.998  1.2995 -0.5206  0.4857
19456TIP3    H279860   6.304  -0.049  13.038 -1.0704 -0.5213 -0.2940
19457TIP3   OH279861   1.094   1.165  16.429  0.0420 -0.0703  0.1930
19457TIP3    H179862   1.154   1.232  16.396 -0.8924 -0.1118 -1.7008
19457TIP3    H279863   1.151   1.091  16.453  0.8140  0.2108 -0.7427
19458TIP3   OH279864   5.910   1.838  11.669  0.2761 -0.0277 -0.0740
19458TIP3    H179865   5.845   1.779  11.631  1.5362 -2.0342  0.6860
19458TIP3    H279866   5.994   1.805  11.637  1.1022  0.6202  1.3185
19459TIP3   OH279867   2.648   1.308   5.816 -0.5437  0.2678 -0.7872
19459TIP3    H179868   2.738   1.317   5.847 -0.1316  1.7519 -2.1950
19459TIP3    H279869   2.618   1.224   5.849  0.4286  0.9221  1.9539
19460TIP3   OH279870   1.709   0.508   5.295  0.0002  0.2113  0.2865
19460TIP3    H179871   1.631   0.472   5.251  0.4482  0.1177 -0.4421
19460TIP3    H279872   1.713   0.461   5.379 -1.6034  1.3031  1.0202
19461TIP3   OH279873   2.758   5.858   5.525 -0.1994 -0.4473 -0.3049
19461TIP3    H179874   2.823   5.823   5.464 -0.9456 -1.9590 -0.2753
19461TIP3    H279875   2.750   5.791   5.592 -0.3376  0.6247  0.7815
19462TIP3   OH279876   2.343   5.728   6.105 -0.5263 -0.4660  0.0875
19462TIP3    H179877   2.269   5.688   6.151 -2.8061 -0.1332 -2.9675
19462TIP3    H279878   2.386   5.655   6.060 -2.0084 -0.1936 -1.9337
19463TIP3   OH279879   5.893   4.741   3.820 -0.2858  0.2984  0.5741
19463TIP3    H179880   5.882   4.650   3.847  1.1014 -0.1986 -0.4849
19463TIP3    H279881   5.985   4.749   3.798 -0.8511  1.3073 -1.7101
19464TIP3   OH279882   2.891   1.242   1.245 -0.1687  0.3356  0.2858
19464TIP3    H179883   2.843   1.293   1.179 -0.3083 -0.2450 -0.0676
19464TIP3    H279884   2.926   1.168   1.196  0.3027  0.2607  0.7353
19465TIP3   OH279885   5.316   3.168  11.061 -0.1215 -0.1668  0.0093
19465TIP3    H179886   5.273   3.210  10.986  0.1030 -1.1906 -0.7095
19465TIP3    H279887   5.250   3.111  11.099 -0.8801  1.8164  1.8556
19466TIP3   OH279888   4.332   4.528  17.013  0.3322 -0.0771  0.2398
19466TIP3    H179889   4.287   4.606  16.981  0.0306  0.4738  1.9201
19466TIP3    H279890   4.364   4.552  17.100  1.3359 -1.4207  0.2822
19467TIP3   OH279891   0.162   1.173  14.585 -0.3120 -0.0450  0.5542
19467TIP3    H179892   0.171   1.094  14.639 -2.2820 -1.2872 -0.8147
19467TIP3    H279893   0.172   1.142  14.495 -0.4455  1.4093  0.0157
19468TIP3   OH279894   1.915   0.612  10.743  0.1571  0.2164 -0.5105
19468TIP3    H179895   1.930   0.575  10.830 -0.9636  0.2855 -0.2716
19468TIP3    H279896   2.001   0.641  10.714  0.5681  0.0665  0.5212
19469TIP3   OH279897   4.357   1.608  12.257  0.6162 -0.1037 -0.6736
19469TIP3    H179898   4.366   1.665  12.334  0.8802 -0.2944 -0.5603
19469TIP3    H279899   4.376   1.666  12.183 -1.4416  0.5408 -0.7511
19470TIP3   OH279900   5.112   5.622   5.164 -0.1981  0.0674 -0.3970
19470TIP3    H179901   5.091   5.579   5.082  1.9829 -1.3742 -0.2831
19470TIP3    H279902   5.187   5.678   5.144  2.1720 -2.3758  1.0529
19471TIP3   OH279903   2.652   6.586   3.509  0.6426  0.5860 -0.6135
19471TIP3    H179904   2.700   6.503   3.502  2.4795  1.5552 -0.1194
19471TIP3    H279905   2.559   6.560   3.509  1.1293 -1.3392 -1.8170
19472TIP3   OH279906   5.792   5.595   1.911 -0.5818 -0.2231  0.2243
19472TIP3    H179907   5.879   5.585   1.873 -0.2954  1.8700  0.2036
19472TIP3    H279908   5.780   5.517   1.965  1.6880 -0.1169  0.9716
19473TIP3   OH279909   1.377   5.293   4.249  0.5233  0.0529  0.3826
19473TIP3    H179910   1.366   5.265   4.340 -0.9929 -3.3714 -0.6854
19473TIP3    H279911   1.433   5.227   4.209  2.6409  2.4395 -0.8682
19474TIP3   OH279912   1.576   4.366   3.710  0.5603  0.5698 -0.3346
19474TIP3    H179913   1.529   4.409   3.639  1.4266  1.1344 -0.5821
19474TIP3    H279914   1.555   4.417   3.788  0.8539  0.8927 -0.4656
19475TIP3   OH279915   5.759   5.080   4.471 -0.3293  0.1745 -0.0120
19475TIP3    H179916   5.832   5.043   4.422 -0.7048  0.4280 -0.7712
19475TIP3    H279917   5.683   5.072   4.413 -1.0865 -0.8268  1.0734
19476TIP3   OH279918   3.950   2.032   3.605  0.1069  0.1497  0.0992
19476TIP3    H179919   3.891   1.958   3.611 -0.7502  0.9140  1.5570
19476TIP3    H279920   3.992   2.023   3.519 -0.1928 -1.8244  0.1290
19477TIP3   OH279921   4.118   2.705   5.209 -0.2468 -0.5589  0.4946
19477TIP3    H179922   4.150   2.718   5.298  1.3006 -2.0001  0.1892
19477TIP3    H279923   4.196   2.687   5.157 -1.2868 -1.6089 -0.7913
19478TIP3   OH279924   5.302   6.638  15.461  0.7425 -0.5901 -0.3257
19478TIP3    H179925   5.388   6.620  15.499  0.6500 -1.7831 -0.6539
19478TIP3    H279926   5.270   6.553  15.432  0.0476  0.0355 -1.4823
19479TIP3   OH279927   2.687   6.057  17.055 -0.2265 -0.3620 -0.1825
19479TIP3    H179928   2.776   6.039  17.027  0.0453  0.7182 -0.0834
19479TIP3    H279929   2.669   6.145  17.021 -1.5343 -0.8671 -0.8662
19480TIP3   OH279930   5.385   4.668   0.256  0.0378  0.6129  0.1293
19480TIP3    H179931   5.444   4.593   0.261 -0.7110 -0.0583 -0.8911
19480TIP3    H279932   5.332   4.652   0.179 -1.9681  0.8633  1.3949
19481TIP3   OH279933   3.459   4.447   2.961  0.2870  0.1918  0.0693
19481TIP3    H179934   3.453   4.441   2.866  2.3244 -0.9618 -0.0515
19481TIP3    H279935   3.471   4.357   2.990 -1.0393  0.4424  1.5072
19482TIP3   OH279936   2.762   5.727   2.602  0.2074 -0.7581 -0.1452
19482TIP3    H179937   2.804   5.659   2.550  3.1820 -0.2129  1.2965
19482TIP3    H279938   2.830   5.756   2.663 -0.6653  3.7848 -0.9195
19483TIP3   OH279939   5.428   4.812  12.257  0.0548 -0.1312 -0.3120
19483TIP3    H179940   5.394   4.776  12.339  3.6137 -1.4029  0.7887
19483TIP3    H279941   5.416   4.742  12.193 -0.5079 -0.0800 -0.2656
19484TIP3   OH279942   0.512   0.964  16.812 -0.0308 -0.4720  0.0583
19484TIP3    H179943   0.551   0.891  16.860  0.4724  0.3406  0.9102
19484TIP3    H279944   0.421   0.937  16.799  0.1744 -1.2998  0.2556
19485TIP3   OH279945   2.319   6.081  14.223 -0.0982  0.3032 -0.5106
19485TIP3    H179946   2.394   6.087  14.282 -1.1111  0.8230  0.7547
19485TIP3    H279947   2.349   6.022  14.153  1.3152  0.1215  0.2121
19486TIP3   OH279948   5.555   1.423   4.448 -0.4688  0.1663  0.6711
19486TIP3    H179949   5.625   1.480   4.418 -1.9954  1.0019 -1.5720
19486TIP3    H279950   5.597   1.338   4.459  0.8762  0.5485 -0.9878
19487TIP3   OH279951   1.672   3.546   3.350  0.1812 -0.0519  0.0329
19487TIP3    H179952   1.607   3.485   3.387  1.4670  0.1260  2.8221
19487TIP3    H279953   1.748   3.536   3.406  2.1224  0.7870 -2.3050
19488TIP3   OH279954   2.245   3.255   2.517 -0.0996 -0.1568  0.1273
19488TIP3    H179955   2.325   3.268   2.568  0.1919 -0.8210 -0.1501
19488TIP3    H279956   2.179   3.308   2.562  0.2011 -0.5697  1.0905
19489TIP3   OH279957   5.635   2.525  16.416  0.4750 -0.4757 -0.5902
19489TIP3    H179958   5.644   2.620  16.407  0.8201 -0.4312  0.1170
19489TIP3    H279959   5.574   2.514  16.490  1.6222 -0.7914  0.3425
19490TIP3   OH279960   4.658   2.101  14.513  0.0218  0.0382 -0.5624
19490TIP3    H179961   4.623   2.018  14.481 -1.3191 -0.1956  1.3611
19490TIP3    H279962   4.693   2.081  14.600 -0.9876  1.6041  0.2610
19491TIP3   OH279963   3.145   6.658  13.318  0.4763  0.1801 -0.5881
19491TIP3    H179964   3.050   6.661  13.301  0.1491 -2.0412  0.5949
19491TIP3    H279965   3.164   6.743  13.359 -1.1791  0.3298 -0.0499
19492TIP3   OH279966   4.470   5.972   1.897  0.1540 -0.5217 -0.2523
19492TIP3    H179967   4.450   6.012   1.982  1.6540  0.5046 -0.3497
19492TIP3    H279968   4.565   5.967   1.895  0.2688  1.0925 -2.5586
19493TIP3   OH279969   5.149   1.596   5.092 -0.1616  0.3763  0.3222
19493TIP3    H179970   5.213   1.526   5.105  1.1534  1.1310 -1.6645
19493TIP3    H279971   5.191   1.674   5.130 -0.3842  0.6621 -0.0132
19494TIP3   OH279972   0.229   1.868   0.051 -0.1204  0.2540 -0.7070
19494TIP3    H179973   0.283   1.796   0.020  0.8662 -0.5661  2.4879
19494TIP3    H279974   0.290   1.942   0.060 -0.5304  0.6784 -1.3869
19495TIP3   OH279975   2.241   3.836  11.550 -0.5329  0.2290  0.3995
19495TIP3    H179976   2.319   3.866  11.504 -0.7629  2.0166  1.0930
19495TIP3    H279977   2.174   3.831  11.483 -0.1653  0.0500  0.0408
19496TIP3   OH279978   4.858   2.112   0.700  0.1962  0.2844 -0.0854
19496TIP3    H179979   4.785   2.169   0.674  1.1721  0.5047 -2.5836
19496TIP3    H279980   4.822   2.023   0.694 -1.1901  0.4633  3.3667
19497TIP3   OH279981   4.673   1.349  12.831 -0.6143  0.3531 -0.8298
19497TIP3    H179982   4.659   1.337  12.925 -3.7206 -1.1904 -1.3837
19497TIP3    H279983   4.711   1.266  12.802  0.0715  0.7256 -1.0343
19498TIP3   OH279984   0.700   4.884  14.341  0.4030  0.8109  0.1015
19498TIP3    H179985   0.649   4.874  14.421 -0.1058 -0.8088 -0.3950
19498TIP3    H279986   0.773   4.822  14.351  0.9211  1.3545 -0.2433
19499TIP3   OH279987   3.338   4.652  15.704 -0.0744 -0.5792  0.6413
19499TIP3    H179988   3.254   4.657  15.658 -0.3031  0.0970  1.1108
19499TIP3    H279989   3.398   4.703  15.650  0.5755 -2.7066 -0.7643
19500TIP3   OH279990   4.429   2.889  16.980 -0.2373  0.5294 -0.0599
19500TIP3    H179991   4.353   2.921  16.931 -1.7974 -1.4107  0.9354
19500TIP3    H279992   4.392   2.851  17.059  1.9916  1.3512  1.4700
19501TIP3   OH279993   5.652   5.352   1.996 -0.3774  0.6481 -0.0659
19501TIP3    H179994   5.562   5.347   2.030 -0.6945 -0.2870 -0.9955
19501TIP3    H279995   5.707   5.347   2.074 -1.0884 -1.0524  0.3718
19502TIP3   OH279996   3.092   0.751   2.249  0.1281  0.0599  0.5111
19502TIP3    H179997   3.031   0.727   2.319 -0.9080 -0.6769 -0.6194
19502TIP3    H279998   3.138   0.670   2.228  1.7416  0.6585  1.5346
19503TIP3   OH279999   1.658   5.215  15.618  0.0760 -0.0101 -0.2769
19503TIP3    H180000   1.708   5.183  15.693 -0.4607 -0.3883 -0.0787
19503TIP3    H280001   1.702   5.296  15.593  0.8512 -0.3973 -0.1742
19504TIP3   OH280002   5.893   5.261  13.306  0.1344  0.2707  0.4824
19504TIP3    H180003   5.911   5.237  13.396  2.3584  0.6052  0.1764
19504TIP3    H280004   5.843   5.342  13.312  0.8290  0.6372  1.4048
19505TIP3   OH280005   0.077   5.837  12.129 -0.0778  0.6665 -0.0222
19505TIP3    H180006   0.006   5.877  12.180  0.0082  0.7421  0.0388
19505TIP3    H280007   0.103   5.760  12.179 -0.6896  0.1625 -0.4728
19506TIP3   OH280008   1.087   0.168  13.405 -0.2343 -0.6423  0.2891
19506TIP3    H180009   1.056   0.108  13.473  0.7375 -1.0766  0.3688
19506TIP3    H280010   1.167   0.207  13.441 -0.2107 -0.1841 -0.2337
19507TIP3   OH280011   1.589   0.167  14.530 -0.0898 -0.1734 -0.0399
19507TIP3    H180012   1.615   0.161  14.438 -1.7429 -0.8673 -0.4996
19507TIP3    H280013   1.552   0.081  14.550 -1.5144  0.5775  0.6957
19508TIP3   OH280014   0.697   0.806  16.468 -0.3147  0.2622 -0.0600
19508TIP3    H180015   0.775   0.823  16.416 -1.0099  2.8896 -0.3889
19508TIP3    H280016   0.698   0.874  16.535 -0.9732 -1.2770  1.5877
19509TIP3   OH280017   1.702   0.630  13.448 -0.5822 -0.5616 -0.4592
19509TIP3    H180018   1.756   0.551  13.448  1.4442  0.7422  0.4950
19509TIP3    H280019   1.765   0.702  13.440 -1.9818  1.1594  2.4983
19510TIP3   OH280020   5.375   6.236  15.987  0.4136 -0.1003  0.5667
19510TIP3    H180021   5.343   6.153  16.023  0.5176 -0.5827 -0.4189
19510TIP3    H280022   5.396   6.216  15.896  2.4192  0.4862  0.8460
19511TIP3   OH280023   0.239   2.847   6.131 -0.4052  0.6191  0.1007
19511TIP3    H180024   0.333   2.863   6.140 -0.0893 -1.4647  1.0256
19511TIP3    H280025   0.198   2.921   6.175  0.7633  1.8567 -0.8175
19512TIP3   OH280026   0.426   2.438   4.303  0.2942  0.4842  0.1468
19512TIP3    H180027   0.347   2.490   4.288  0.5601  0.6793 -0.6876
19512TIP3    H280028   0.399   2.367   4.360 -0.5861  0.3097 -0.4676
19513TIP3   OH280029   2.211   6.630  13.807  0.1043 -0.5702 -0.2412
19513TIP3    H180030   2.167   6.577  13.874 -0.3703  0.2830  0.1278
19513TIP3    H280031   2.217   6.717  13.845  1.5692 -0.5114 -0.5370
19514TIP3   OH280032   6.692   5.704  12.831 -0.2154 -0.2281  0.6316
19514TIP3    H180033   6.650   5.787  12.853 -1.1629 -0.6282  0.3940
19514TIP3    H280034   6.775   5.729  12.791 -0.4622  0.6102  0.6159
19515TIP3   OH280035   3.179   3.633   4.433 -0.1926 -0.0558 -0.0446
19515TIP3    H180036   3.119   3.688   4.483  0.3978 -0.0897  0.7219
19515TIP3    H280037   3.172   3.547   4.474 -0.6377 -0.4026 -0.8319
19516TIP3   OH280038   3.906   3.500   1.434  0.2099  0.4442  0.4624
19516TIP3    H180039   3.984   3.493   1.379 -0.1688  1.2495 -0.1874
19516TIP3    H280040   3.841   3.443   1.391  0.3497 -0.0240  0.8600
19517TIP3   OH280041   0.970   4.460  16.781  0.1396 -0.4357 -0.3729
19517TIP3    H180042   0.969   4.487  16.689  0.2827  0.6014 -0.0786
19517TIP3    H280043   0.986   4.541  16.829 -0.8408 -0.8240  0.6271
19518TIP3   OH280044   6.268   2.741   4.791 -0.5324 -0.0988 -0.1780
19518TIP3    H180045   6.343   2.682   4.785 -0.1505  0.4884 -2.5800
19518TIP3    H280046   6.294   2.806   4.856  0.9455 -0.0979 -0.7214
19519TIP3   OH280047   1.144   2.732   3.454 -0.1830 -0.5308 -0.3594
19519TIP3    H180048   1.114   2.693   3.372 -0.5019 -2.5958  0.6694
19519TIP3    H280049   1.073   2.714   3.516  1.2370 -1.5811  1.0379
19520TIP3   OH280050   5.800   5.087  14.671  0.4472  0.1073 -0.3955
19520TIP3    H180051   5.833   5.059  14.586  2.3902  0.3586  0.2209
19520TIP3    H280052   5.877   5.087  14.728 -0.8621 -0.3912  1.4664
19521TIP3   OH280053   0.822   3.418  14.733  0.1118 -0.6653  0.6321
19521TIP3    H180054   0.857   3.474  14.663  0.5480  0.2630  1.5668
19521TIP3    H280055   0.900   3.377  14.772  0.3636  1.9817  3.2165
19522TIP3   OH280056   4.459   4.010   2.102 -0.6609 -0.7406  0.5444
19522TIP3    H180057   4.428   3.920   2.092  0.4120 -1.4452  2.9828
19522TIP3    H280058   4.551   4.007   2.078 -0.3614 -0.5314  1.6291
19523TIP3   OH280059   5.676   0.070  17.288 -0.2968  0.0272 -0.2937
19523TIP3    H180060   5.611   0.133  17.256 -0.2440  0.0642 -0.3269
19523TIP3    H280061   5.625  -0.009  17.306 -0.2648 -0.1129 -0.8172
19524TIP3   OH280062   2.500   1.193   0.478  0.6505  0.7384 -0.1526
19524TIP3    H180063   2.475   1.257   0.411  0.2207 -2.4828 -3.3551
19524TIP3    H280064   2.559   1.132   0.433 -0.8611 -2.5057  1.9015
19525TIP3   OH280065   0.901   6.096  14.503 -0.1939  0.2559 -0.4846
19525TIP3    H180066   0.909   6.083  14.598  0.8596  0.7509 -0.5019
19525TIP3    H280067   0.874   6.188  14.494 -0.9103  0.0406 -0.6553
19526TIP3   OH280068   1.943   1.454   2.323 -0.1446  0.3254 -0.3499
19526TIP3    H180069   2.004   1.521   2.356 -0.0334  0.6779 -1.2389
19526TIP3    H280070   1.944   1.467   2.228 -1.4637  0.2107 -0.3871
19527TIP3   OH280071   3.893   0.255   5.816 -0.8701 -0.0796  0.3039
19527TIP3    H180072   3.832   0.216   5.753 -1.0718  0.1584  0.3502
19527TIP3    H280073   3.979   0.242   5.776 -1.0568  0.7758 -0.4131
19528TIP3   OH280074   3.597   3.622  13.550  0.5381  0.1465  0.0575
19528TIP3    H180075   3.687   3.592  13.536 -0.2336 -1.5867 -1.6366
19528TIP3    H280076   3.561   3.561  13.613  0.7158  1.3188  1.3593
19529TIP3   OH280077   1.664   6.215  16.045  0.1070 -0.1071 -0.0571
19529TIP3    H180078   1.710   6.299  16.040 -0.3440  0.2697  1.7023
19529TIP3    H280079   1.691   6.169  15.965  0.3418  1.7026 -1.0831
19530TIP3   OH280080   3.581   3.984  12.373  0.0621  0.3115 -0.0911
19530TIP3    H180081   3.546   4.067  12.405  0.6442  0.4543  0.1991
19530TIP3    H280082   3.511   3.947  12.319 -0.4972  0.6154  0.4184
19531TIP3   OH280083   3.473   2.696   3.158 -0.0268  0.0392  0.2640
19531TIP3    H180084   3.468   2.634   3.085 -2.1666  0.9351 -0.4294
19531TIP3    H280085   3.566   2.705   3.176  0.4083 -3.0946  0.1895
19532TIP3   OH280086   0.959   0.674   4.068  0.4781  0.9861  0.2695
19532TIP3    H180087   0.900   0.707   4.000 -1.2114 -0.4369  0.9592
19532TIP3    H280088   1.034   0.639   4.019 -0.4419  0.5002 -0.8424
19533TIP3   OH280089   1.620   5.947   2.618  0.7521 -0.0918  0.0501
19533TIP3    H180090   1.685   6.003   2.577  1.1433 -0.6002 -0.0369
19533TIP3    H280091   1.537   5.992   2.604  0.7755 -0.5480 -1.8750
19534TIP3   OH280092   1.945   3.139   6.169  0.8029 -0.2023  0.1382
19534TIP3    H180093   1.937   3.197   6.245 -0.2364  1.7087 -1.3577
19534TIP3    H280094   2.029   3.163   6.129 -0.5435  1.8176 -1.6339
19535TIP3   OH280095   3.488   5.455  17.240 -0.3373 -0.0475  0.0402
19535TIP3    H180096   3.467   5.474  17.332  1.1838 -0.7713  0.5695
19535TIP3    H280097   3.581   5.475  17.232 -0.6461  0.9307 -1.6169
19536TIP3   OH280098   5.756   2.047   0.876  0.0919 -0.7229  0.4231
19536TIP3    H180099   5.678   2.098   0.852 -0.0047 -0.4747  1.2331
19536TIP3    H280100   5.824   2.113   0.891  0.3344 -0.9129  0.1730
19537TIP3   OH280101   4.196   2.017  10.995 -0.3347 -0.2304  0.1232
19537TIP3    H180102   4.235   2.073  10.927  0.0872 -1.9693 -1.1597
19537TIP3    H280103   4.105   2.006  10.968 -0.0930 -1.1644 -0.3808
19538TIP3   OH280104   6.254   0.132  16.292 -0.0467  0.2826 -0.3480
19538TIP3    H180105   6.176   0.185  16.306 -0.4222 -0.5429  0.9077
19538TIP3    H280106   6.270   0.091  16.377  2.0399  0.8017 -0.4289
19539TIP3   OH280107   5.586   0.064   6.347  0.4077 -0.4147  0.4436
19539TIP3    H180108   5.501   0.024   6.366 -0.3289  1.4739  1.3905
19539TIP3    H280109   5.630   0.071   6.432  0.3022  1.1719  0.3984
19540TIP3   OH280110   0.052   0.723  15.853  0.2819  0.0563 -0.3937
19540TIP3    H180111   0.081   0.755  15.938 -0.4611 -0.1288 -0.0538
19540TIP3    H280112  -0.042   0.744  15.851 -0.4709 -2.8181  0.2433
19541TIP3   OH280113   3.423   1.569   4.654  0.5358  0.1478  0.7988
19541TIP3    H180114   3.389   1.538   4.738  0.2998  1.0610  1.0465
19541TIP3    H280115   3.507   1.608   4.675  1.5384 -1.6178  0.2620
19542TIP3   OH280116   3.861   2.492  12.229 -0.0301  0.2245 -0.0870
19542TIP3    H180117   3.924   2.561  12.208 -1.9745  1.6170 -1.8949
19542TIP3    H280118   3.816   2.523  12.308  0.9421 -0.3732  0.7230
19543TIP3   OH280119   1.003   4.723   1.309  0.4166 -0.7368 -0.1294
19543TIP3    H180120   0.966   4.794   1.360  1.7589  0.7383 -1.1113
19543TIP3    H280121   1.055   4.672   1.372 -0.1735 -0.5733  0.4931
19544TIP3   OH280122   6.665   1.067   3.259 -0.1976 -0.8224 -0.2266
19544TIP3    H180123   6.637   1.023   3.178 -3.5095  0.0530  0.3062
19544TIP3    H280124   6.654   1.160   3.241 -0.8047 -0.6081  1.1477
19545TIP3   OH280125   5.118   1.219  16.994  0.3332  0.1533  0.1248
19545TIP3    H180126   5.064   1.166  16.936 -1.8614  0.9843  1.2993
19545TIP3    H280127   5.207   1.208  16.961 -0.7574  0.4282 -3.2439
19546TIP3   OH280128   5.322   4.862   3.854 -0.2588  0.1757 -0.0841
19546TIP3    H180129   5.255   4.919   3.817 -0.3903 -0.6860 -1.2436
19546TIP3    H280130   5.373   4.833   3.778  0.2570 -0.6557  0.5646
19547TIP3   OH280131   2.039   2.475  11.798  0.0149 -0.7747  0.0753
19547TIP3    H180132   1.985   2.407  11.758 -0.7447 -1.5344  2.2642
19547TIP3    H280133   1.992   2.500  11.877  1.5366  0.5269  0.6268
19548TIP3   OH280134   1.616   5.331   4.594 -0.3991  0.5481  0.1018
19548TIP3    H180135   1.581   5.242   4.604  0.9177 -0.1108 -0.8888
19548TIP3    H280136   1.588   5.357   4.506  1.4069  0.0630 -0.6564
19549TIP3   OH280137   2.030   6.369  17.469  0.0924  0.5202  0.2636
19549TIP3    H180138   2.063   6.352  17.557  1.1031  1.7333  0.1442
19549TIP3    H280139   1.974   6.446  17.479 -0.2695  0.3086 -0.0713
19550TIP3   OH280140   0.924   0.726   6.483  0.0894 -0.3602  0.0412
19550TIP3    H180141   0.840   0.708   6.441  0.1007  1.7862 -1.0428
19550TIP3    H280142   0.904   0.788   6.553  0.3940 -2.2088  1.8686
19551TIP3   OH280143   6.447   3.097  13.138  0.2720 -0.5330 -0.1079
19551TIP3    H180144   6.459   3.162  13.207  1.9011 -0.1604 -0.6982
19551TIP3    H280145   6.395   3.028  13.179 -0.4206  0.5595  0.8972
19552TIP3   OH280146   0.345   6.149   2.563 -0.0553 -0.5512  0.3401
19552TIP3    H180147   0.433   6.113   2.557 -0.8313 -2.2914 -1.4456
19552TIP3    H280148   0.321   6.169   2.473 -1.3221  0.3701  0.8497
19553TIP3   OH280149   1.998   0.224  13.219  0.0688  0.4937 -0.2103
19553TIP3    H180150   1.945   0.223  13.299 -0.9762 -1.0868 -0.8741
19553TIP3    H280151   1.953   0.287  13.163  0.2631  0.9087  0.0932
19554TIP3   OH280152   6.567   2.708  15.435 -0.4707 -0.0635 -0.3879
19554TIP3    H180153   6.520   2.646  15.379 -2.3008  1.1325 -0.2664
19554TIP3    H280154   6.500   2.772  15.461  0.4145 -0.2649  2.7516
19555TIP3   OH280155   5.261   0.915  11.296 -0.0602 -0.3893  0.3622
19555TIP3    H180156   5.354   0.896  11.293 -0.4546 -2.3644 -1.3489
19555TIP3    H280157   5.236   0.899  11.387  1.6308  2.4714  1.4378
19556TIP3   OH280158   2.650   4.031   2.736  0.3755  0.1651  0.2425
19556TIP3    H180159   2.621   4.079   2.814 -2.0901 -1.1199  0.2093
19556TIP3    H280160   2.660   3.940   2.766  0.3709 -0.1663 -0.7280
19557TIP3   OH280161   5.076   4.647  12.032  0.0670  0.2014 -0.6159
19557TIP3    H180162   5.033   4.709  11.973 -0.3663  0.7905  0.2956
19557TIP3    H280163   5.057   4.561  11.994 -0.5286  0.5463 -1.1236
19558TIP3   OH280164   6.397   3.661  12.217 -0.2015 -0.2902  0.1510
19558TIP3    H180165   6.438   3.604  12.282 -1.0232 -0.2209  0.7505
19558TIP3    H280166   6.332   3.711  12.266  0.5941  1.2763 -0.3461
19559TIP3   OH280167   2.192   2.835   1.094 -0.2724 -0.0832  0.0908
19559TIP3    H180168   2.153   2.786   1.166 -3.1361 -0.3826 -1.5204
19559TIP3    H280169   2.268   2.879   1.133  0.6717 -3.3454  2.3058
19560TIP3   OH280170   5.204   1.181   4.594  0.0262 -0.0249  0.8963
19560TIP3    H180171   5.196   1.276   4.584  0.6342  0.1591  2.0134
19560TIP3    H280172   5.114   1.149   4.593 -0.1323  0.2569 -1.9556
19561TIP3   OH280173   3.638   5.798  12.515 -0.3565 -0.1268 -0.5661
19561TIP3    H180174   3.713   5.854  12.535 -1.0086  0.5227  0.1020
19561TIP3    H280175   3.563   5.841  12.556 -1.5280  0.5013 -3.1279
19562TIP3   OH280176   3.987   2.890   1.309  0.2114 -0.6028 -0.6169
19562TIP3    H180177   3.923   2.825   1.280 -1.1234  0.1748  0.4674
19562TIP3    H280178   3.953   2.973   1.274  0.6134 -0.1810 -0.0227
19563TIP3   OH280179   3.981   3.451   1.711  0.2322 -0.3259  0.1955
19563TIP3    H180180   3.907   3.491   1.665 -0.5680 -1.7172  0.2204
19563TIP3    H280181   4.035   3.412   1.642  0.8606  0.5207  0.1935
19564TIP3   OH280182   3.421   2.613   4.079  0.1777 -0.1961  0.3741
19564TIP3    H180183   3.497   2.631   4.024 -0.1117  1.5371  0.4871
19564TIP3    H280184   3.352   2.588   4.017 -0.6588  3.4076 -0.3772
19565TIP3   OH280185   4.476   4.324  11.608 -0.0376  0.1351 -0.2411
19565TIP3    H180186   4.380   4.323  11.614 -0.1329  1.7678 -1.0002
19565TIP3    H280187   4.494   4.344  11.516  1.0259  0.3970  0.0131
19566TIP3   OH280188   1.755   6.467   5.421  0.2185 -0.6887 -0.0832
19566TIP3    H180189   1.768   6.491   5.329 -0.7850  0.9251  0.1602
19566TIP3    H280190   1.825   6.513   5.468 -0.4048  0.0427  0.1495
19567TIP3   OH280191   0.179   2.647  13.488  0.3932 -0.2244  0.0757
19567TIP3    H180192   0.130   2.578  13.443  1.2522 -1.5567  1.1187
19567TIP3    H280193   0.262   2.652  13.441  0.9189 -0.9616  0.9020
19568TIP3   OH280194   5.794   6.739  12.971 -0.1612  0.1205  0.4245
19568TIP3    H180195   5.862   6.680  13.003  0.7985  0.8759 -0.1561
19568TIP3    H280196   5.837   6.824  12.965 -2.0476  1.4322  3.2916
19569TIP3   OH280197   5.054   1.056  12.885  0.0755 -0.7772 -0.1223
19569TIP3    H180198   5.038   1.111  12.962  2.3827 -0.3612  0.1321
19569TIP3    H280199   4.980   1.074  12.827 -0.7175  0.3690  1.1896
19570TIP3   OH280200   6.506   2.714   5.110 -0.1293 -0.1851  0.4860
19570TIP3    H180201   6.558   2.785   5.073  3.5855 -1.9802  1.6383
19570TIP3    H280202   6.427   2.755   5.143  0.2552  2.7641 -1.8865
19571TIP3   OH280203   2.421   3.307   6.116  0.0362 -0.1466  0.0310
19571TIP3    H180204   2.469   3.250   6.176  0.1610  1.4169  1.4856
19571TIP3    H280205   2.337   3.264   6.104  0.5014 -1.1542  0.2596
19572TIP3   OH280206   1.936   2.574  17.449  0.1347  0.1765  0.1233
19572TIP3    H180207   1.997   2.503  17.470 -0.4964 -0.1153  1.0304
19572TIP3    H280208   1.992   2.650  17.434  0.7405 -0.1871  0.5043
19573TIP3   OH280209   3.544   2.974   2.067 -0.2803  0.2124  0.2941
19573TIP3    H180210   3.591   2.970   2.151  1.3171  0.0728 -0.5568
19573TIP3    H280211   3.452   2.962   2.091  0.0636  0.7045  2.0727
19574TIP3   OH280212   1.582   6.700  10.424 -0.7221  0.6614  0.1650
19574TIP3    H180213   1.500   6.731  10.462 -0.5701 -0.8885  1.9592
19574TIP3    H280214   1.640   6.776  10.427 -0.7244  0.6709  3.2197
19575TIP3   OH280215   0.206   0.013   1.373 -0.5301  0.0464 -0.6244
19575TIP3    H180216   0.173  -0.074   1.396  1.1564 -0.5608 -0.3262
19575TIP3    H280217   0.130   0.070   1.380 -1.1902 -0.9748  1.5669
19576TIP3   OH280218   4.193   3.456   6.583  0.1713 -0.3855  0.3834
19576TIP3    H180219   4.117   3.491   6.536  0.4776 -0.7613 -0.4012
19576TIP3    H280220   4.212   3.373   6.540  1.1882 -0.1744  0.4004
19577TIP3   OH280221   4.054   2.860  11.792 -0.3706  0.5295  0.4866
19577TIP3    H180222   3.999   2.799  11.841  2.3733  0.4674  3.8295
19577TIP3    H280223   4.140   2.818  11.790  0.3009  1.8426 -2.0896
19578TIP3   OH280224   4.449   4.700   3.390  0.4191 -0.5419 -0.1128
19578TIP3    H180225   4.484   4.634   3.450  2.3775 -1.1798 -1.8457
19578TIP3    H280226   4.441   4.655   3.306 -1.2510  0.6061 -0.6218
19579TIP3   OH280227   2.375   6.048  14.934 -0.6153 -0.1605  0.6539
19579TIP3    H180228   2.299   6.049  14.876  0.7539  0.1330 -1.1990
19579TIP3    H280229   2.451   6.043  14.876  1.1116  4.1897  2.1182
19580TIP3   OH280230   2.720   3.235  11.283  0.3704 -0.2177  0.0301
19580TIP3    H180231   2.740   3.325  11.261  0.2429 -0.5285 -1.4869
19580TIP3    H280232   2.787   3.209  11.346  0.6655  0.7944  0.1373
19581TIP3   OH280233   4.511   3.593  13.932 -0.5414 -0.3451 -0.1409
19581TIP3    H180234   4.542   3.503  13.919 -1.0928 -0.6742  0.7633
19581TIP3    H280235   4.527   3.635  13.848 -0.0384 -1.2178 -0.5019
19582TIP3   OH280236   5.813   2.026  14.492  0.1507 -0.2013 -0.2484
19582TIP3    H180237   5.725   2.027  14.455 -0.8329 -0.2979  1.9478
19582TIP3    H280238   5.799   2.018  14.587  2.5203 -0.0906  0.1611
19583TIP3   OH280239   6.461   6.538   5.195  0.4367 -0.4269  0.2397
19583TIP3    H180240   6.464   6.475   5.123  2.3944  0.7682 -0.8065
19583TIP3    H280241   6.537   6.516   5.249  0.3164  0.1684  0.6558
19584TIP3   OH280242   2.716   3.755  15.809 -0.6011 -0.4339  0.1652
19584TIP3    H180243   2.792   3.775  15.864  0.8584 -2.2781 -1.0293
19584TIP3    H280244   2.698   3.836  15.762  1.9231 -0.4016 -0.9315
19585TIP3   OH280245   0.776   0.399  12.391  0.0812 -0.5347  0.0422
19585TIP3    H180246   0.772   0.412  12.486  1.2715 -0.7748  0.1392
19585TIP3    H280247   0.869   0.381  12.373  0.4128  2.1272 -1.4814
19586TIP3   OH280248   1.796   5.427   1.408 -0.2386  0.5795 -0.2647
19586TIP3    H180249   1.756   5.507   1.372  1.0995  0.8903 -1.1262
19586TIP3    H280250   1.734   5.358   1.385 -0.3975  1.0724 -1.3900
19587TIP3   OH280251   0.098   0.384  15.269 -0.1728 -0.6455  0.2581
19587TIP3    H180252   0.173   0.413  15.321 -0.5779  0.0017  0.5121
19587TIP3    H280253   0.024   0.388  15.331 -0.3365 -1.7389  0.1481
19588TIP3   OH280254   5.295   2.053  13.696 -0.2936  0.1541  0.0212
19588TIP3    H180255   5.266   2.134  13.654 -0.6505  0.1833  0.3123
19588TIP3    H280256   5.317   1.994  13.624 -0.0008  0.5232 -0.1908
19589TIP3   OH280257   3.663   3.673  14.560  0.2588  0.3383 -0.6886
19589TIP3    H180258   3.665   3.764  14.532  3.1212  0.6177  0.1450
19589TIP3    H280259   3.643   3.676  14.653  2.3744  0.3411 -0.1873
19590TIP3   OH280260   2.186   3.187  13.084  0.3026 -0.1665 -0.1043
19590TIP3    H180261   2.169   3.094  13.098  0.9929 -0.3058 -0.1707
19590TIP3    H280262   2.247   3.190  13.010  2.0512  0.2043  1.2880
19591TIP3   OH280263   4.246   4.014  10.758 -0.6709  0.0397 -0.4070
19591TIP3    H180264   4.158   4.046  10.741 -0.4428  1.2168  0.4973
19591TIP3    H280265   4.303   4.088  10.735 -0.1952  0.8007  2.8031
19592TIP3   OH280266   1.154   0.646  14.131  0.1995  0.1005 -0.1108
19592TIP3    H180267   1.093   0.573  14.140  0.1124 -0.2324 -2.6689
19592TIP3    H280268   1.240   0.605  14.121  0.5548  0.4849  1.1736
19593TIP3   OH280269   4.919   1.352   3.973 -0.4453  0.1296  0.0402
19593TIP3    H180270   4.834   1.322   4.003 -0.2900  1.3975  1.9344
19593TIP3    H280271   4.982   1.289   4.009 -0.3590  0.9578  1.3844
19594TIP3   OH280272   0.662   3.773  14.698 -0.6938 -0.2011  0.5479
19594TIP3    H180273   0.668   3.821  14.616  1.4654 -0.1460  0.6640
19594TIP3    H280274   0.580   3.724  14.692 -0.0996 -1.0338 -2.0971
19595TIP3   OH280275   2.850   4.595  15.449  1.0097  0.5486  0.7701
19595TIP3    H180276   2.810   4.581  15.364  3.6332  1.4091 -0.6973
19595TIP3    H280277   2.777   4.620  15.506 -0.8492 -0.3188 -1.1015
19596TIP3   OH280278   0.446   0.442   3.498  0.6925 -0.5583 -0.0122
19596TIP3    H180279   0.405   0.391   3.568  0.7761 -1.4263 -0.5668
19596TIP3    H280280   0.373   0.469   3.442  0.5817  0.5068  0.6363
19597TIP3   OH280281   1.339   3.769   6.130  0.0395  0.0830  0.4936
19597TIP3    H180282   1.361   3.733   6.044 -0.8362  2.8975 -1.0275
19597TIP3    H280283   1.418   3.817   6.157  0.5777 -1.3797  1.6795
19598TIP3   OH280284   5.778   3.847  14.005  0.5026  0.2053  0.5446
19598TIP3    H180285   5.812   3.936  14.011  0.3038  0.2275  1.5309
19598TIP3    H280286   5.702   3.854  13.947  0.8369  0.5667  0.1496
19599TIP3   OH280287   5.875   4.661   1.665 -0.1671  0.0600 -0.4566
19599TIP3    H180288   5.848   4.584   1.614 -0.9603  0.4611 -0.6602
19599TIP3    H280289   5.793   4.695   1.702  0.2110  0.6597 -0.1570
19600TIP3   OH280290   4.402   4.996   4.431 -0.6350  0.1193 -0.0060
19600TIP3    H180291   4.362   5.025   4.513 -0.7934  0.5679 -0.2428
19600TIP3    H280292   4.473   5.058   4.415 -1.3945  0.7928 -0.8616
19601TIP3   OH280293   0.123   5.530  11.232  0.7099 -0.6366  0.0230
19601TIP3    H180294   0.060   5.484  11.176  1.1616 -1.0287 -0.1682
19601TIP3    H280295   0.149   5.607  11.181  1.5184 -1.2688 -0.5387
19602TIP3   OH280296   5.596   2.865  12.942  0.1744 -0.3033 -0.0647
19602TIP3    H180297   5.518   2.856  12.887  0.5917 -1.0290 -0.5641
19602TIP3    H280298   5.668   2.870  12.880  0.4618  1.4110  0.3617
19603TIP3   OH280299   4.164   3.512  13.347 -0.3004  0.3045  0.5689
19603TIP3    H180300   4.077   3.516  13.308  0.4579  1.3414 -1.1299
19603TIP3    H280301   4.149   3.491  13.439 -2.5075  2.9088  0.9051
19604TIP3   OH280302   0.345   4.664  15.817  0.1273  0.4841  0.1635
19604TIP3    H180303   0.360   4.571  15.829  1.0639  0.5003 -0.7422
19604TIP3    H280304   0.428   4.705  15.841  0.8674  0.7850 -2.6072
19605TIP3   OH280305   2.978   2.682   5.043 -0.3463  0.2201  0.0791
19605TIP3    H180306   2.889   2.648   5.048  0.2667 -1.3512  1.1171
19605TIP3    H280307   2.973   2.770   5.081 -1.7251  0.8201 -1.3855
19606TIP3   OH280308   6.130   5.694  11.044 -0.1060  0.2244  0.2965
19606TIP3    H180309   6.219   5.726  11.051 -0.1911  0.6038 -0.3078
19606TIP3    H280310   6.139   5.599  11.033  0.1805  0.1522  1.1061
19607TIP3   OH280311   3.396   1.173  17.024  0.3522 -0.2457  0.0317
19607TIP3    H180312   3.394   1.098  17.083  1.5996  0.5614  1.1503
19607TIP3    H280313   3.421   1.137  16.939 -2.2391 -1.5497 -0.2935
19608TIP3   OH280314   2.853   4.031  15.581 -0.1573 -0.3270  1.1000
19608TIP3    H180315   2.936   4.005  15.621 -1.1948 -0.9931  2.9422
19608TIP3    H280316   2.811   4.088  15.646 -1.0445  0.2040  0.1054
19609TIP3   OH280317   6.647   1.908  16.113  0.1592 -0.6328 -0.3473
19609TIP3    H180318   6.641   1.885  16.020 -0.9750 -1.0417 -0.1872
19609TIP3    H280319   6.566   1.956  16.131  0.2515 -0.7808  0.4908
19610TIP3   OH280320   1.525   1.756  11.872 -0.4604 -0.5094 -0.5453
19610TIP3    H180321   1.571   1.673  11.857  0.2334 -0.1071 -0.7015
19610TIP3    H280322   1.441   1.730  11.910  0.5928 -1.1866  1.4787
19611TIP3   OH280323   4.717   5.049  17.026  0.0238 -0.6998  0.5174
19611TIP3    H180324   4.810   5.051  17.006 -0.0244  0.4525  0.3451
19611TIP3    H280325   4.687   4.964  16.994  1.1489 -1.3876  1.2426
19612TIP3   OH280326   5.301   5.654  13.746  0.1675 -0.0646  0.3312
19612TIP3    H180327   5.306   5.735  13.796  0.7623 -0.0942  0.3302
19612TIP3    H280328   5.212   5.652  13.712 -0.1523  0.1136  1.1208
19613TIP3   OH280329   2.249   2.863   5.194  0.7603 -0.3786  0.0707
19613TIP3    H180330   2.229   2.819   5.111  0.4220  0.1944 -0.1601
19613TIP3    H280331   2.191   2.940   5.195 -0.1366 -1.0277  1.4092
19614TIP3   OH280332   4.596   6.738   1.017 -0.0023  0.4895  0.0211
19614TIP3    H180333   4.552   6.694   1.089  0.1297 -4.0996 -2.3220
19614TIP3    H280334   4.688   6.741   1.042 -0.2093  0.6415  0.7658
19615TIP3   OH280335   6.635   2.440  14.043 -0.0296 -0.0517  0.0492
19615TIP3    H180336   6.625   2.365  13.985  0.1756 -0.1524  0.1419
19615TIP3    H280337   6.597   2.411  14.126 -0.7165  0.2427 -0.1529
19616TIP3   OH280338   6.373   4.626  16.424  0.2941  0.9505  0.0458
19616TIP3    H180339   6.390   4.642  16.331 -1.8687 -0.8549 -0.7361
19616TIP3    H280340   6.379   4.531  16.434  0.4113  1.1079  1.7579
19617TIP3   OH280341   2.631   5.718  13.555 -0.4276 -0.9795  0.6333
19617TIP3    H180342   2.589   5.638  13.525 -1.1180 -1.1974  2.0688
19617TIP3    H280343   2.652   5.701  13.647 -1.6666  0.8549  1.3400
19618TIP3   OH280344   5.931   0.556   0.810 -0.0245 -0.7082 -0.6560
19618TIP3    H180345   5.909   0.641   0.848  2.0698 -0.0490 -0.8191
19618TIP3    H280346   5.852   0.503   0.824 -1.3086  1.1717 -0.3622
19619TIP3   OH280347   2.968   0.532  12.445 -0.4151  0.1044 -0.4970
19619TIP3    H180348   3.009   0.476  12.511  0.0455 -0.4057 -1.2146
19619TIP3    H280349   2.878   0.543  12.477 -0.2368 -0.2398  0.1529
19620TIP3   OH280350   2.726   0.101  14.227 -0.3062  0.0306 -0.2371
19620TIP3    H180351   2.704   0.081  14.318  1.9019  1.8581  0.7784
19620TIP3    H280352   2.642   0.125  14.188 -0.9132  2.6497  2.3002
19621TIP3   OH280353   1.523   2.762   5.641  0.5445  0.0788 -0.2154
19621TIP3    H180354   1.441   2.737   5.683 -0.9820  3.1988 -1.0140
19621TIP3    H280355   1.556   2.835   5.694  1.8573  0.0314 -0.9265
19622TIP3   OH280356   3.451   2.035  14.988 -0.2003 -0.4162 -0.0554
19622TIP3    H180357   3.493   1.972  15.047  1.1648 -0.0321 -0.5763
19622TIP3    H280358   3.402   1.981  14.927 -1.5184 -0.8284  1.2973
19623TIP3   OH280359   4.291   0.193  14.010  0.2561 -0.1417 -0.3030
19623TIP3    H180360   4.253   0.209  13.924 -1.2942 -0.3873  0.3065
19623TIP3    H280361   4.239   0.121  14.047  2.3217 -1.5966 -0.0333
19624TIP3   OH280362   0.096   1.396   4.541 -0.2732 -0.4378  0.2877
19624TIP3    H180363   0.123   1.324   4.597  0.0625 -0.3158  0.2842
19624TIP3    H280364   0.174   1.418   4.490 -0.4735 -0.3117  0.0307
19625TIP3   OH280365   3.694   0.752   4.225  0.0082  0.1179  0.1116
19625TIP3    H180366   3.708   0.843   4.254  0.0816 -0.0275  0.5354
19625TIP3    H280367   3.623   0.720   4.281  0.4560 -0.3099  0.4411
19626TIP3   OH280368   1.453   0.016  17.425  0.2785 -0.6657  0.0124
19626TIP3    H180369   1.419  -0.006  17.338  0.8357 -0.3652 -0.2797
19626TIP3    H280370   1.393  -0.029  17.485  0.4742 -1.7089 -0.5455
19627TIP3   OH280371   1.001   0.998  13.387 -0.3545 -0.8689  0.2975
19627TIP3    H180372   0.935   1.064  13.368  0.5563 -0.5134 -2.0198
19627TIP3    H280373   1.002   0.991  13.482 -0.8885  2.0461  0.6051
19628TIP3   OH280374   0.548   2.455  13.374  0.1145  0.3564  0.1105
19628TIP3    H180375   0.574   2.508  13.450 -0.4039  0.2543  0.3625
19628TIP3    H280376   0.508   2.377  13.412 -2.6582  1.4966 -0.2327
19629TIP3   OH280377   5.150   5.453  12.033  0.2927 -0.4729  0.4238
19629TIP3    H180378   5.240   5.452  12.066  0.3393  1.1130  0.4124
19629TIP3    H280379   5.102   5.394  12.091  0.2892  2.4629  3.6581
19630TIP3   OH280380   4.528   0.727   3.350  0.5577 -0.4169 -0.2811
19630TIP3    H180381   4.583   0.800   3.320  0.1567 -1.0906 -2.9515
19630TIP3    H280382   4.585   0.650   3.341  0.3445 -0.6867  0.6013
19631TIP3   OH280383   1.843   2.708   5.054 -0.2800  0.4805 -0.0887
19631TIP3    H180384   1.842   2.781   5.116 -1.4239  0.3335  0.0768
19631TIP3    H280385   1.752   2.679   5.049  0.0386 -0.4509 -0.7294
19632TIP3   OH280386   3.081   4.403   3.975  0.5024 -0.7274 -0.0321
19632TIP3    H180387   3.048   4.368   3.892 -1.5008 -0.8944  0.7861
19632TIP3    H280388   3.003   4.433   4.021  1.5110 -1.1064  2.0210
19633TIP3   OH280389   0.691   6.520  13.440  0.5541  0.0899 -0.2574
19633TIP3    H180390   0.769   6.519  13.384  1.9774 -0.2053  1.5915
19633TIP3    H280391   0.622   6.481  13.387  2.0436 -0.9947 -1.5013
19634TIP3   OH280392   1.020   6.036  13.545 -0.3956  0.4844  0.3404
19634TIP3    H180393   0.976   6.022  13.461 -0.5191 -2.6123  0.7996
19634TIP3    H280394   1.113   6.037  13.524 -0.4798  1.3580 -0.0041
19635TIP3   OH280395   5.377   6.288   5.626  0.3342  0.0561 -0.8637
19635TIP3    H180396   5.442   6.337   5.676 -0.9021  2.5990 -1.5648
19635TIP3    H280397   5.428   6.222   5.579  1.9564 -0.1154  0.9785
19636TIP3   OH280398   5.761   5.270   0.051  0.8055  0.0779 -0.5629
19636TIP3    H180399   5.824   5.320   0.103  0.6574  1.9033 -2.0227
19636TIP3    H280400   5.759   5.314  -0.034 -0.8356 -1.2429 -1.2780
19637TIP3   OH280401   6.204   5.012  14.030 -0.1902  0.0072 -0.1429
19637TIP3    H180402   6.174   4.969  14.110 -0.3026  0.3868  0.0209
19637TIP3    H280403   6.269   5.075  14.060 -1.6564  1.5692 -0.1070
19638TIP3   OH280404   0.579   3.138   4.205 -0.3713 -0.1411 -0.3450
19638TIP3    H180405   0.491   3.115   4.235  0.2863 -1.1319  0.9395
19638TIP3    H280406   0.611   3.200   4.271 -0.6455  1.4716 -1.6527
19639TIP3   OH280407   4.247   4.710  15.804 -0.0315 -0.1232  0.0214
19639TIP3    H180408   4.162   4.742  15.773  0.5875  2.4568  0.7526
19639TIP3    H280409   4.245   4.725  15.898  2.0218  2.1774 -0.2163
19640TIP3   OH280410   2.405   4.261  15.700  0.1625  0.1986  0.0353
19640TIP3    H180411   2.455   4.323  15.754 -1.5061 -0.3071  2.3476
19640TIP3    H280412   2.468   4.192  15.678  0.8351  0.1821  1.8076
19641TIP3   OH280413   2.958   1.691   4.704 -0.1165  0.7050  0.3167
19641TIP3    H180414   3.038   1.671   4.656  1.2784  0.3675  2.6253
19641TIP3    H280415   2.944   1.785   4.690  0.5227  0.7121 -0.3184
19642TIP3   OH280416   1.756   6.217   3.812  0.5360  0.2480  0.6184
19642TIP3    H180417   1.697   6.245   3.883 -0.9274  1.6584 -1.0504
19642TIP3    H280418   1.840   6.204   3.855  0.1746  2.8333  2.3759
19643TIP3   OH280419   4.418   6.239   5.990  0.3217 -0.2580 -0.6805
19643TIP3    H180420   4.462   6.159   6.018 -0.2410 -0.3166  0.0831
19643TIP3    H280421   4.383   6.277   6.071 -1.5322 -0.5296 -1.2972
19644TIP3   OH280422   5.192   3.222   4.234 -0.5746  0.2124  0.0634
19644TIP3    H180423   5.171   3.133   4.261  0.1641  0.3347  1.1275
19644TIP3    H280424   5.240   3.212   4.152  1.8722 -0.6109  1.5004
19645TIP3   OH280425   4.650   5.678   1.061 -0.2955 -0.2396 -0.1819
19645TIP3    H180426   4.737   5.708   1.035 -0.5107  1.1908  0.6369
19645TIP3    H280427   4.602   5.672   0.978  0.3730 -0.3280 -0.5739
19646TIP3   OH280428   6.683   2.414  16.189  0.0268 -0.3394 -0.1526
19646TIP3    H180429   6.670   2.350  16.258 -1.5867  0.1261  0.0233
19646TIP3    H280430   6.724   2.489  16.233 -0.0411 -0.4404  0.0835
19647TIP3   OH280431   4.261   0.683  11.644 -0.3370  0.4981 -0.5682
19647TIP3    H180432   4.255   0.605  11.699 -0.4389  0.5714 -0.4743
19647TIP3    H280433   4.349   0.717  11.660 -0.1149  0.1244 -0.9897
19648TIP3   OH280434   0.260   4.633   4.623  0.3994 -0.2753  0.2510
19648TIP3    H180435   0.287   4.720   4.652 -1.1459  1.1859 -2.4122
19648TIP3    H280436   0.168   4.627   4.645  0.0774 -0.5336 -1.0811
19649TIP3   OH280437   1.788   1.810  16.610  0.3510  0.0994 -0.2308
19649TIP3    H180438   1.733   1.741  16.572  0.3291  0.2301 -0.4367
19649TIP3    H280439   1.830   1.852  16.535 -0.6153  1.1430 -0.2215
19650TIP3   OH280440   6.042   2.576   4.563  0.7523  0.3109  0.4641
19650TIP3    H180441   6.003   2.489   4.550 -2.2258  1.4544  0.7950
19650TIP3    H280442   6.040   2.589   4.658 -0.0800  1.2172  0.3371
19651TIP3   OH280443   3.020   3.983   0.518  0.0746  0.1149  0.2831
19651TIP3    H180444   2.951   4.011   0.458  2.1476  0.2996 -2.1770
19651TIP3    H280445   3.076   3.927   0.466  1.9283  0.1556  2.1127
19652TIP3   OH280446   2.271   6.259   3.894  0.0843  0.0957 -0.0097
19652TIP3    H180447   2.288   6.277   3.987 -0.1148 -1.9016  0.4684
19652TIP3    H280448   2.352   6.218   3.863  0.4917  1.5928 -0.9971
19653TIP3   OH280449   2.882   0.306   5.294 -0.3159  0.8116 -0.5978
19653TIP3    H180450   2.833   0.224   5.299 -2.5163  2.1077  1.5039
19653TIP3    H280451   2.924   0.314   5.380 -0.5612  2.0826 -0.5728
19654TIP3   OH280452   2.109   1.994   0.437 -0.3611  0.4092  0.1969
19654TIP3    H180453   2.045   1.999   0.366 -1.1152 -0.1986  0.8032
19654TIP3    H280454   2.131   1.901   0.442  1.9059  0.8117 -1.1164
19655TIP3   OH280455   6.519   4.648  13.961 -0.0375 -0.1863  0.2088
19655TIP3    H180456   6.567   4.605  14.031 -3.4242 -1.2474  2.1164
19655TIP3    H280457   6.525   4.742  13.981  0.7955 -0.3336  0.6552
19656TIP3   OH280458   4.722   4.556   2.846  0.2931  0.5556 -0.0320
19656TIP3    H180459   4.711   4.622   2.778 -2.2691 -0.1052 -0.3465
19656TIP3    H280460   4.773   4.487   2.804 -0.9276  0.3303 -1.1959
19657TIP3   OH280461   1.920   1.984  11.219 -0.5093  0.1159 -0.7530
19657TIP3    H180462   2.001   2.031  11.199 -1.5466  1.4375 -1.9748
19657TIP3    H280463   1.850   2.046  11.200 -1.9335 -1.7771 -2.0987
19658TIP3   OH280464   2.851   4.391  15.960 -0.0813 -0.0670  0.0665
19658TIP3    H180465   2.872   4.301  15.935 -2.1086 -0.1737 -1.4779
19658TIP3    H280466   2.775   4.382  16.018 -1.2187  0.6765 -1.2552
19659TIP3   OH280467   3.183   5.846   5.214 -0.2004  0.1780 -0.1396
19659TIP3    H180468   3.202   5.929   5.171 -3.1777  0.6555 -0.6971
19659TIP3    H280469   3.232   5.781   5.162  1.4834  1.4219 -0.1970
19660TIP3   OH280470   6.096   1.099  15.584  0.2124  0.6230 -0.4528
19660TIP3    H180471   6.085   1.102  15.489  0.3759  1.9500 -0.4507
19660TIP3    H280472   6.007   1.096  15.618  0.1653 -0.4141 -0.6547
19661TIP3   OH280473   5.317   3.067   2.734 -0.0964  0.6928 -0.0283
19661TIP3    H180474   5.311   3.145   2.788  1.3934 -0.1169  1.4132
19661TIP3    H280475   5.259   3.003   2.776 -0.4077  0.6517 -0.5113
19662TIP3   OH280476   2.288   1.033   4.148 -0.1722  0.3016 -0.7303
19662TIP3    H180477   2.273   0.974   4.074  2.4470 -1.1397 -0.2796
19662TIP3    H280478   2.268   0.979   4.225  0.9735  0.4081 -0.3395
19663TIP3   OH280479   3.868   2.015   6.702 -0.1851 -0.2135  0.1649
19663TIP3    H180480   3.786   1.966   6.705 -0.2502 -0.0625  1.6380
19663TIP3    H280481   3.841   2.106   6.687 -0.1577 -0.4021 -1.1069
19664TIP3   OH280482   4.129   2.502   3.006  0.8258  0.5657  0.3543
19664TIP3    H180483   4.166   2.479   2.921  0.4991  1.8518 -0.1655
19664TIP3    H280484   4.061   2.437   3.021  1.1794  0.0665 -0.1634
19665TIP3   OH280485   0.092   4.913   5.299  0.7545  0.2211 -0.2896
19665TIP3    H180486   0.164   4.854   5.276  2.5818  1.9595  0.5765
19665TIP3    H280487   0.132   5.001   5.298 -1.3728  1.2637  0.2294
19666TIP3   OH280488   3.478   5.108  15.271 -0.3213  0.2899  0.3462
19666TIP3    H180489   3.569   5.112  15.241 -0.0618 -0.0394  1.0649
19666TIP3    H280490   3.451   5.018  15.252 -1.0893  0.8675 -1.4974
19667TIP3   OH280491   2.230   3.652   0.718  0.5457  0.3556 -0.6899
19667TIP3    H180492   2.281   3.571   0.714  0.4279  0.2973 -1.1825
19667TIP3    H280493   2.276   3.706   0.782  0.0739 -0.4665  0.3689
19668TIP3   OH280494   2.457   0.294   3.834 -0.2879  0.0937 -0.3435
19668TIP3    H180495   2.399   0.365   3.862 -1.1605 -1.6798  2.8092
19668TIP3    H280496   2.544   0.320   3.864 -0.2871  0.5640 -0.7395
19669TIP3   OH280497   3.122   1.074  16.063  0.1034 -0.1962 -0.1876
19669TIP3    H180498   3.213   1.081  16.091  0.7956  1.3016 -2.5611
19669TIP3    H280499   3.084   1.160  16.082 -0.9782 -0.9342  1.1599
19670TIP3   OH280500   5.003   1.668   4.877 -0.0078  0.1647 -0.0152
19670TIP3    H180501   5.042   1.624   4.802 -1.4729 -2.0522  0.4230
19670TIP3    H280502   5.066   1.654   4.948 -0.1352 -0.6523 -0.0538
19671TIP3   OH280503   1.316   4.365  15.831 -0.2962 -0.8770 -0.3089
19671TIP3    H180504   1.307   4.308  15.755  0.6206 -0.0344 -1.0839
19671TIP3    H280505   1.357   4.310  15.898  0.1767 -1.2593 -0.8988
19672TIP3   OH280506   2.895   2.207   4.747  0.4700 -0.0624 -0.6285
19672TIP3    H180507   2.821   2.223   4.688  0.8151  1.2790 -0.7392
19672TIP3    H280508   2.951   2.284   4.737  1.6520 -0.8202 -0.1820
19673TIP3   OH280509   2.503   0.424   2.229 -0.3226  0.1956 -0.3511
19673TIP3    H180510   2.531   0.378   2.308 -1.6492 -0.8239 -0.4469
19673TIP3    H280511   2.453   0.359   2.180 -1.0485  1.3427 -1.1783
19674TIP3   OH280512   2.105   1.697  13.850 -0.4656  0.0547  0.4547
19674TIP3    H180513   2.092   1.614  13.805 -0.7296  0.4129 -0.1496
19674TIP3    H280514   2.036   1.754  13.816 -0.1831  0.5704  0.7267
19675TIP3   OH280515   4.327   3.061   1.457  0.0280 -0.6407 -0.6635
19675TIP3    H180516   4.367   3.026   1.377  0.2293 -1.1019 -0.3615
19675TIP3    H280517   4.362   3.007   1.527  0.0352 -0.0851 -0.2322
19676TIP3   OH280518   6.714   2.493  17.081  0.7083 -0.1568 -0.1734
19676TIP3    H180519   6.657   2.569  17.092  0.6332 -0.4802  2.2254
19676TIP3    H280520   6.791   2.527  17.036  0.4614  1.2434  0.4198
19677TIP3   OH280521   4.043   5.224  13.058 -0.0592  0.1425 -0.0621
19677TIP3    H180522   4.083   5.291  13.113  0.0209  1.0248 -1.1527
19677TIP3    H280523   4.082   5.238  12.972 -0.1604 -1.2158 -0.3544
19678TIP3   OH280524   5.529   6.462  14.281 -0.3995 -0.1721  0.0416
19678TIP3    H180525   5.441   6.462  14.321 -1.4935  1.7145 -2.1297
19678TIP3    H280526   5.526   6.390  14.218  0.8827 -2.2863  2.1778
19679TIP3   OH280527   4.279   3.174   0.256  0.2963  0.0532 -0.0784
19679TIP3    H180528   4.326   3.128   0.186 -0.2023 -0.3467 -0.1596
19679TIP3    H280529   4.271   3.109   0.326 -1.4393 -0.4037 -0.6416
19680TIP3   OH280530   5.055   5.037  15.318 -0.4616  0.1459 -0.0496
19680TIP3    H180531   5.138   5.054  15.272  0.5698 -2.2254  0.7847
19680TIP3    H280532   4.999   4.996  15.251 -1.1508  2.0479 -0.7046
19681TIP3   OH280533   0.936   4.668  14.831  0.3469  0.1813  0.1833
19681TIP3    H180534   0.999   4.712  14.773  0.8062 -1.8431 -0.9474
19681TIP3    H280535   0.871   4.631  14.772  1.0327 -2.2774  0.8560
19682TIP3   OH280536   3.263   6.571  16.169  0.4862 -0.0512  0.1940
19682TIP3    H180537   3.216   6.532  16.095  0.1213 -1.3265  1.0610
19682TIP3    H280538   3.304   6.649  16.133  1.9103 -1.6246 -1.8709
19683TIP3   OH280539   4.816   2.516   0.671 -0.7483  0.3417  0.0938
19683TIP3    H180540   4.836   2.475   0.755  0.0117 -1.8269 -1.0700
19683TIP3    H280541   4.721   2.527   0.672 -0.6606  1.3463  1.6177
19684TIP3   OH280542   2.257   6.688  15.449  0.7255 -0.1411 -0.1530
19684TIP3    H180543   2.318   6.671  15.378  1.1373  0.5889  0.0141
19684TIP3    H280544   2.212   6.605  15.463  1.0659 -0.4498 -0.8592
19685TIP3   OH280545   5.841   3.906  15.956  0.5216 -0.3373  0.1222
19685TIP3    H180546   5.929   3.931  15.983 -0.3584  1.7713  1.3103
19685TIP3    H280547   5.825   3.957  15.877 -0.4137  1.1072  1.1961
19686TIP3   OH280548   5.195   2.430  12.772 -0.6718 -0.0487  0.1831
19686TIP3    H180549   5.205   2.501  12.836  1.7678  1.5489 -1.7781
19686TIP3    H280550   5.129   2.462  12.711 -0.1368  0.2135 -0.2665
19687TIP3   OH280551   1.738   5.242  15.881  0.2989 -0.4687  0.4403
19687TIP3    H180552   1.748   5.326  15.926  0.1035 -0.2619  0.1029
19687TIP3    H280553   1.732   5.178  15.951  2.2306 -0.4253  0.6915
19688TIP3   OH280554   4.336   3.896   4.500 -0.2693 -0.1189  0.9118
19688TIP3    H180555   4.322   3.970   4.559 -0.1850 -0.1382  0.9561
19688TIP3    H280556   4.272   3.908   4.430 -1.1477 -0.7091  1.5895
19689TIP3   OH280557   4.166   4.801  10.820 -0.5989  0.0325  0.1983
19689TIP3    H180558   4.254   4.794  10.784 -1.7228  0.7766 -3.1360
19689TIP3    H280559   4.132   4.711  10.816  0.1327 -0.3542  2.0148
19690TIP3   OH280560   5.233   1.869   4.646 -0.3808 -0.6926 -0.1477
19690TIP3    H180561   5.189   1.926   4.583  1.3198  1.0416  0.1255
19690TIP3    H280562   5.293   1.817   4.593  0.4225  0.1538 -0.1120
19691TIP3   OH280563   0.925   0.597  14.865 -0.4948 -0.1341 -0.2123
19691TIP3    H180564   0.888   0.664  14.923 -0.0799  1.1557 -1.3784
19691TIP3    H280565   0.900   0.514  14.905 -1.0703  0.7131  1.2582
19692TIP3   OH280566   3.739   3.373  10.288  0.5158  0.0409  0.4232
19692TIP3    H180567   3.793   3.407  10.216  0.8036 -1.0370  0.1103
19692TIP3    H280568   3.670   3.438  10.299 -0.6438 -0.6650 -2.1080
19693TIP3   OH280569   1.737   4.434  11.992  0.1399 -0.0549  0.4147
19693TIP3    H180570   1.814   4.445  12.047 -0.8185  0.3988  1.7022
19693TIP3    H280571   1.730   4.516  11.943 -0.1454  0.3465  1.1164
19694TIP3   OH280572   5.710   5.477   5.351  0.1606 -0.2960 -0.1481
19694TIP3    H180573   5.671   5.396   5.317 -0.4740 -0.3392  0.6422
19694TIP3    H280574   5.796   5.482   5.309 -0.1660 -0.8992 -0.9120
19695TIP3   OH280575   5.420   2.709  16.632  0.3007  0.0361 -0.6750
19695TIP3    H180576   5.388   2.730  16.545  0.0829 -2.2835 -1.2134
19695TIP3    H280577   5.349   2.659  16.673  1.9964 -2.7118 -0.8446
19696TIP3   OH280578   4.224   2.663   2.556 -0.1646 -0.0256 -1.2317
19696TIP3    H180579   4.290   2.595   2.541 -2.1313 -2.7237  1.2865
19696TIP3    H280580   4.240   2.693   2.645 -0.6835  1.3080 -1.5631
19697TIP3   OH280581   3.270   4.768  14.837  0.7230  0.1512  0.4538
19697TIP3    H180582   3.325   4.753  14.760  0.8492  1.9788  0.1415
19697TIP3    H280583   3.304   4.707  14.903  0.0338 -2.0811 -1.1613
19698TIP3   OH280584   1.335   0.046  12.386 -0.1911  0.0854 -0.5974
19698TIP3    H180585   1.370   0.127  12.350 -0.2093  1.0180  1.3624
19698TIP3    H280586   1.243   0.064  12.400 -0.2496 -0.3653 -0.3944
19699TIP3   OH280587   0.979   5.969   1.948 -0.6037  0.4450  0.3360
19699TIP3    H180588   0.942   5.898   2.001 -0.4237  0.7304  0.8549
19699TIP3    H280589   1.063   5.990   1.991 -0.9093  1.3426  0.5221
19700TIP3   OH280590   5.003   5.044  11.340  0.6425 -0.2452 -0.4646
19700TIP3    H180591   4.994   5.131  11.302 -1.9600  0.4892  1.5293
19700TIP3    H280592   5.093   5.040  11.371  0.9364  1.5690 -0.9612
19701TIP3   OH280593   0.970   3.030  12.639 -0.4242  0.0644  0.5865
19701TIP3    H180594   0.974   3.029  12.734  1.2615  1.4401  0.5703
19701TIP3    H280595   0.960   3.123  12.617 -1.3551 -0.2900 -0.5721
19702TIP3   OH280596   0.586   6.595   3.274  0.4615 -0.3423 -0.2843
19702TIP3    H180597   0.605   6.657   3.204 -1.4594 -0.3780 -0.9015
19702TIP3    H280598   0.596   6.645   3.355  1.1117  0.1445 -0.6656
19703TIP3   OH280599   3.331   1.830   2.389  0.3110 -0.3018 -0.1557
19703TIP3    H180600   3.418   1.790   2.388 -0.3932 -2.1188 -3.5138
19703TIP3    H280601   3.333   1.893   2.317 -0.9607  0.1077  0.1365
19704TIP3   OH280602   0.384   3.783   2.521 -0.5652  0.6828  0.3651
19704TIP3    H180603   0.350   3.731   2.448  1.2834  0.6459 -0.5317
19704TIP3    H280604   0.395   3.871   2.484 -1.0261  1.0384  1.0574
19705TIP3   OH280605   0.153   4.018  12.773 -0.7637  0.4545  0.0308
19705TIP3    H180606   0.174   4.101  12.730  1.8883  0.8687  1.9405
19705TIP3    H280607   0.203   3.952  12.724 -0.5582  0.4000  0.3155
19706TIP3   OH280608   5.311   5.776   6.373 -0.3277 -0.4880  0.0771
19706TIP3    H180609   5.391   5.736   6.338 -1.4127 -1.7329 -1.1047
19706TIP3    H280610   5.319   5.869   6.350  0.9075 -0.5365  0.2528
19707TIP3   OH280611   3.375   3.089  17.385 -1.3849  0.5100  0.1017
19707TIP3    H180612   3.349   3.163  17.330  1.6387  1.5771 -0.0900
19707TIP3    H280613   3.468   3.104  17.402 -1.3830 -1.6836  2.5971
19708TIP3   OH280614   4.782   3.779  11.691  0.1591 -0.0917 -0.3719
19708TIP3    H180615   4.762   3.863  11.649  3.3330  0.4984 -0.8947
19708TIP3    H280616   4.783   3.798  11.784 -0.4279  0.1092 -0.4000
19709TIP3   OH280617   6.310   5.607  16.788  0.3621 -0.2884 -0.0540
19709TIP3    H180618   6.223   5.637  16.764 -0.0693 -1.0984  0.4575
19709TIP3    H280619   6.350   5.579  16.705 -0.2192 -0.7955 -0.1746
19710TIP3   OH280620   6.312   5.815   0.645 -0.5559 -0.5898  0.0236
19710TIP3    H180621   6.301   5.721   0.655 -2.2216 -0.4003  0.1474
19710TIP3    H280622   6.373   5.824   0.571  0.1911 -1.7483  0.4608
19711TIP3   OH280623   6.125   3.277   0.177  0.2023 -0.4048  0.1868
19711TIP3    H180624   6.151   3.189   0.152  1.6507  0.1944 -0.5692
19711TIP3    H280625   6.119   3.325   0.095  0.2407  0.4043  0.6408
19712TIP3   OH280626   3.861   1.311   1.798  0.7504  0.0763 -0.0200
19712TIP3    H180627   3.783   1.283   1.847  0.9258 -0.8481 -0.2555
19712TIP3    H280628   3.923   1.239   1.809  1.1256  0.2613 -0.8496
19713TIP3   OH280629   5.449   1.349  12.058 -0.4473 -0.4019  0.3961
19713TIP3    H180630   5.536   1.347  12.098 -1.1027 -0.1849  1.9088
19713TIP3    H280631   5.436   1.260  12.025  1.5802  0.3149 -2.7767
19714TIP3   OH280632   4.396   6.311   0.177  0.7367 -0.3115 -0.2187
19714TIP3    H180633   4.441   6.284   0.258  1.1928  1.5205  0.1706
19714TIP3    H280634   4.467   6.325   0.114  0.6476  1.3930  0.0318
19715TIP3   OH280635   5.088   2.401  15.690 -0.3772  0.5990 -0.0117
19715TIP3    H180636   5.073   2.458  15.615  2.6634  0.7311 -0.6297
19715TIP3    H280637   5.138   2.327  15.655  0.6630  0.3997  1.7441
19716TIP3   OH280638   6.101   1.630  14.270  0.6162  0.6066 -0.6345
19716TIP3    H180639   6.045   1.571  14.218 -2.4177  2.3187  0.4181
19716TIP3    H280640   6.145   1.573  14.333  0.6069 -0.9158 -1.9585
19717TIP3   OH280641   5.068   0.237   3.578 -0.3777 -0.0186  0.4616
19717TIP3    H180642   5.076   0.313   3.520  0.2899  0.0330  0.6126
19717TIP3    H280643   4.986   0.252   3.625  0.2469  1.1352  1.2290
19718TIP3   OH280644   4.626   1.772   2.676  0.1497 -0.1491 -0.2731
19718TIP3    H180645   4.705   1.786   2.624  0.7831  0.9884  0.9332
19718TIP3    H280646   4.557   1.816   2.627  0.8191  1.2780  0.0139
19719TIP3   OH280647   0.079   6.307  13.538 -0.4298 -0.4179  0.5431
19719TIP3    H180648   0.068   6.293  13.444 -1.5814 -0.6862  0.7016
19719TIP3    H280649   0.034   6.234  13.580  0.0440 -0.2882  1.3088
19720TIP3   OH280650   5.958   6.084  15.935 -0.1493  0.4295 -0.3401
19720TIP3    H180651   5.977   6.134  16.015 -0.8330 -0.5003  0.4287
19720TIP3    H280652   6.041   6.043  15.911 -0.2159 -0.3295  0.6555
19721TIP3   OH280653   0.859   2.365   4.498 -0.0731 -0.2250  0.3263
19721TIP3    H180654   0.930   2.401   4.445 -0.7038 -0.5279 -0.7644
19721TIP3    H280655   0.903   2.322   4.571  0.9005 -0.7757 -0.5558
19722TIP3   OH280656   1.963   0.867  11.994  0.7484  0.3107 -0.0263
19722TIP3    H180657   1.947   0.908  12.080  0.9405  1.6435 -0.5941
19722TIP3    H280658   1.969   0.774  12.013  3.5245  0.7549  1.8323
19723TIP3   OH280659   6.060   3.184   4.082  0.5390 -0.6653 -0.1634
19723TIP3    H180660   6.155   3.185   4.070  0.6388 -0.0061  0.5585
19723TIP3    H280661   6.027   3.126   4.014  1.2540  0.8202 -1.8555
19724TIP3   OH280662   4.252   4.276  14.236  0.9891  0.4354  0.2822
19724TIP3    H180663   4.271   4.259  14.144  1.6102  3.8929 -0.3628
19724TIP3    H280664   4.322   4.333  14.266  0.1203  0.4428  2.5509
19725TIP3   OH280665   6.756   0.658  13.123 -0.1118 -0.1111 -0.4608
19725TIP3    H180666   6.827   0.714  13.154  0.6052 -0.2554 -1.7536
19725TIP3    H280667   6.798   0.598  13.062 -1.3049 -0.3635 -1.0656
19726TIP3   OH280668   1.393   6.325  13.380  0.6309 -0.3207 -0.0312
19726TIP3    H180669   1.475   6.335  13.330  1.5241 -1.0579  1.2274
19726TIP3    H280670   1.334   6.282  13.319  0.7204  1.3591 -1.3992
19727TIP3   OH280671   0.140   1.044  14.075  0.6079 -0.0688  0.2532
19727TIP3    H180672   0.149   1.126  14.026  1.4182  0.2966  0.9851
19727TIP3    H280673   0.206   0.987  14.038 -1.4053 -1.2474 -1.8114
19728TIP3   OH280674   6.368   3.615   3.050  0.0007  0.3191 -0.4239
19728TIP3    H180675   6.388   3.577   3.136  0.5255  0.6087 -0.4131
19728TIP3    H280676   6.450   3.607   3.001 -0.0568  0.8823 -0.6206
19729TIP3   OH280677   2.917   4.168   2.187  0.4634 -0.5261  0.1206
19729TIP3    H180678   2.943   4.219   2.264 -2.1563 -0.0845  0.7954
19729TIP3    H280679   2.964   4.209   2.114  0.8803  0.8074  1.0949
19730TIP3   OH280680   1.783   1.457  13.574  0.3199  0.2548  0.0841
19730TIP3    H180681   1.706   1.487  13.526  0.8866 -0.8287 -1.5698
19730TIP3    H280682   1.752   1.382  13.624  0.1361  0.2905  0.0249
19731TIP3   OH280683   0.841   2.121  15.911 -0.0500  0.7146 -0.0942
19731TIP3    H180684   0.934   2.104  15.897  0.0205  0.1215  0.9753
19731TIP3    H280685   0.839   2.189  15.979 -0.3986  0.0737  0.5479
19732TIP3   OH280686   3.334   2.292  15.173  0.2284 -0.1651  0.6529
19732TIP3    H180687   3.405   2.293  15.109  0.5676  0.7681  1.0323
19732TIP3    H280688   3.261   2.251  15.126 -0.0326  1.9051 -0.9190
19733TIP3   OH280689   4.172   5.808  12.647 -0.5423  0.7404  0.3871
19733TIP3    H180690   4.193   5.716  12.631 -2.0126  0.4204  0.1471
19733TIP3    H280691   4.207   5.825  12.735 -0.1444 -0.0090  0.3850
19734TIP3   OH280692   0.072   1.073  15.382  0.0306 -0.5610  0.2705
19734TIP3    H180693   0.007   1.053  15.449  0.8432 -0.8021  1.0075
19734TIP3    H280694   0.041   1.026  15.304 -1.3662  0.3983  0.2147
19735TIP3   OH280695   5.614   1.324   0.209  0.7125  0.0044 -0.0988
19735TIP3    H180696   5.699   1.296   0.175 -0.3769 -0.6864 -2.3881
19735TIP3    H280697   5.574   1.243   0.240  0.6284  0.2499  0.4493
19736TIP3   OH280698   6.427   1.550   5.257 -0.1457 -0.0607  0.2899
19736TIP3    H180699   6.451   1.464   5.292 -0.9668 -1.1924 -1.7252
19736TIP3    H280700   6.510   1.589   5.229  0.3284  0.1936  1.9682
19737TIP3   OH280701   1.353   2.176  11.959 -0.7618 -0.3229  0.1142
19737TIP3    H180702   1.343   2.097  12.012 -2.8598 -1.3066 -1.5937
19737TIP3    H280703   1.398   2.145  11.880  0.1180  0.6179  0.2272
19738TIP3   OH280704   4.900   1.532  13.771 -0.0736 -0.2543 -0.0839
19738TIP3    H180705   4.975   1.482  13.803  0.2803 -1.9820 -3.2402
19738TIP3    H280706   4.917   1.622  13.800  1.6724 -1.1012  1.7728
19739TIP3   OH280707   5.598   6.273  12.385 -0.0284 -0.8891  0.3043
19739TIP3    H180708   5.640   6.220  12.317 -0.3575  0.0399 -0.6607
19739TIP3    H280709   5.648   6.355  12.385 -1.3932 -0.0216 -0.4142
19740TIP3   OH280710   0.848   5.477   2.479 -0.0024 -0.1163  0.2141
19740TIP3    H180711   0.836   5.443   2.568  1.2258 -0.6645  0.1993
19740TIP3    H280712   0.806   5.413   2.422  1.0136 -0.8683  0.2834
19741TIP3   OH280713   0.207   6.187  12.164 -0.7582 -0.4244  0.2800
19741TIP3    H180714   0.209   6.282  12.172 -1.2443 -0.3124 -0.7216
19741TIP3    H280715   0.270   6.167  12.095 -1.6126 -0.6976 -0.4446
19742TIP3   OH280716   4.951   3.232   6.697  0.0503 -0.0245 -0.1203
19742TIP3    H180717   4.855   3.230   6.699 -0.0869  2.9001  0.8986
19742TIP3    H280718   4.977   3.204   6.785  0.1848 -1.2023 -0.5194
19743TIP3   OH280719   0.937   3.482   2.236  0.2296 -0.2024  0.1827
19743TIP3    H180720   0.889   3.518   2.311 -0.7924  0.2381 -0.6557
19743TIP3    H280721   0.910   3.391   2.232  0.2536 -0.2158  0.3369
19744TIP3   OH280722   3.808   4.591   5.288 -0.3968 -0.4228  0.2605
19744TIP3    H180723   3.831   4.529   5.219  0.0534 -0.1483  0.1564
19744TIP3    H280724   3.867   4.569   5.361  0.0419  0.1306  0.0798
19745TIP3   OH280725   2.858   4.507   6.500  0.3116 -0.2064 -0.2466
19745TIP3    H180726   2.917   4.554   6.559  0.3841  1.8512 -1.8274
19745TIP3    H280727   2.907   4.429   6.473  0.5969 -0.7390  1.6787
19746TIP3   OH280728   4.192   3.964  17.175  0.1108 -0.1811  0.5354
19746TIP3    H180729   4.178   4.054  17.204 -1.8399 -0.6368  1.1853
19746TIP3    H280730   4.188   3.968  17.079  0.1397  0.4170  0.5566
19747TIP3   OH280731   0.460   3.814  14.180 -0.6734  0.0743 -0.1314
19747TIP3    H180732   0.552   3.793  14.197 -0.1002  2.3042 -0.1799
19747TIP3    H280733   0.425   3.839  14.266 -0.0741  3.0779 -0.6348
19748TIP3   OH280734   2.691   2.375   0.037  0.4420 -0.0058 -0.0246
19748TIP3    H180735   2.641   2.293   0.039  1.6072 -0.7351 -0.0208
19748TIP3    H280736   2.776   2.353   0.074 -0.1826  1.9320  2.9687
19749TIP3   OH280737   1.327   1.893  15.975 -0.5280 -0.2925  0.4217
19749TIP3    H180738   1.422   1.891  15.980 -0.5194  0.1841  0.5263
19749TIP3    H280739   1.307   1.874  15.883 -0.2054  2.5042 -0.3186
19750TIP3   OH280740   6.124   3.646   2.950 -0.1229  0.0058  0.3132
19750TIP3    H180741   6.157   3.696   2.876 -0.7586  0.2056  0.1575
19750TIP3    H280742   6.201   3.631   3.005  0.5538 -0.9847 -0.8512
19751TIP3   OH280743   2.174   3.878   3.722 -0.8842 -0.4782 -0.1737
19751TIP3    H180744   2.234   3.953   3.718 -1.8305  0.2348 -1.7484
19751TIP3    H280745   2.088   3.916   3.740 -0.7531 -1.6241  4.0454
19752TIP3   OH280746   2.872   1.660   6.484 -0.6706  0.6097  0.4324
19752TIP3    H180747   2.945   1.599   6.487 -2.0272 -1.0975  0.3469
19752TIP3    H280748   2.911   1.743   6.454  0.8692 -0.7813 -1.7348
19753TIP3   OH280749   1.294   5.601   0.161  0.4484 -0.2454  0.4098
19753TIP3    H180750   1.297   5.541   0.086 -0.9070  0.5331 -0.3024
19753TIP3    H280751   1.356   5.670   0.138 -0.4604  0.3459 -0.3429
19754TIP3   OH280752   1.565   5.407   3.252 -0.3346 -0.3576  0.1984
19754TIP3    H180753   1.618   5.486   3.245  1.0692 -1.0086  2.4028
19754TIP3    H280754   1.500   5.415   3.183 -0.2727  2.7396  0.3799
19755TIP3   OH280755   5.538   6.300   3.603 -0.4220 -0.2012 -0.0438
19755TIP3    H180756   5.560   6.209   3.584  1.8152  0.1488  0.6563
19755TIP3    H280757   5.616   6.335   3.646 -0.8632  2.3166 -1.1630
19756TIP3   OH280758   4.269   3.188   4.081  0.4538  0.1001  0.0189
19756TIP3    H180759   4.358   3.165   4.054  1.0346  0.0444  1.8162
19756TIP3    H280760   4.247   3.122   4.147 -0.7148  0.4352 -0.0163
19757TIP3   OH280761   1.360   1.910  15.526  0.0085  0.1144  0.2598
19757TIP3    H180762   1.448   1.874  15.536 -0.3373 -0.7056  0.4725
19757TIP3    H280763   1.340   1.900  15.433  0.1558  0.3523  0.2004
19758TIP3   OH280764   6.318   0.589  16.613 -0.1479  0.9494 -0.4148
19758TIP3    H180765   6.260   0.614  16.685  0.3154  2.3203 -0.4890
19758TIP3    H280766   6.306   0.494  16.604 -2.5555  1.2160 -0.5806
19759TIP3   OH280767   5.930   4.021  14.324  0.2132  0.3080  0.0523
19759TIP3    H180768   6.017   4.057  14.303 -0.7342  1.4860 -2.1535
19759TIP3    H280769   5.942   3.926  14.320  1.7069  0.4004  1.3077
19760TIP3   OH280770   6.747   1.699  16.890  0.0245  0.2630 -0.4941
19760TIP3    H180771   6.825   1.674  16.939  0.9491 -1.2172 -2.6082
19760TIP3    H280772   6.759   1.793  16.874 -0.6726  1.0111  2.5694
19761TIP3   OH280773   3.137   6.178   1.275  0.1738 -0.6362  0.3186
19761TIP3    H180774   3.122   6.149   1.365 -0.8350 -1.5501 -0.1191
19761TIP3    H280775   3.059   6.230   1.254  0.9733  0.6115  0.3689
19762TIP3   OH280776   2.922   0.498  14.456  0.5781 -0.2758  0.3622
19762TIP3    H180777   2.842   0.534  14.495 -0.4580  0.5486 -2.2662
19762TIP3    H280778   2.957   0.439  14.522 -1.4170  0.4436  2.1724
19763TIP3   OH280779   5.579   6.034   4.843 -0.0841 -0.7738  0.1958
19763TIP3    H180780   5.624   5.998   4.919 -1.2185 -1.3229  0.6412
19763TIP3    H280781   5.540   6.115   4.874  0.4418 -0.3961 -0.1317
19764TIP3   OH280782   2.101   5.536  16.053 -0.6558  0.0471  0.1901
19764TIP3    H180783   2.118   5.629  16.042  0.7603  0.0518  1.8522
19764TIP3    H280784   2.098   5.524  16.148 -1.7207 -1.4579 -0.0051
19765TIP3   OH280785   4.467   3.680  12.324 -0.3440 -0.0331  0.2742
19765TIP3    H180786   4.442   3.743  12.256 -0.1778  0.0355  0.2755
19765TIP3    H280787   4.475   3.597  12.278  1.4818  0.3230 -0.1479
19766TIP3   OH280788   1.892   0.587  17.179  0.2029 -0.3374 -0.0260
19766TIP3    H180789   1.927   0.535  17.251 -0.5958 -0.1818  0.4959
19766TIP3    H280790   1.853   0.523  17.119  0.1381 -0.4118  0.0959
19767TIP3   OH280791   2.286   6.500   2.097 -0.4604 -0.1319  0.2614
19767TIP3    H180792   2.319   6.435   2.159  0.9558 -1.8987 -2.1621
19767TIP3    H280793   2.225   6.451   2.042 -0.5703  0.9832 -0.6443
19768TIP3   OH280794   4.436   5.714   1.259  0.8901  0.1942 -0.1433
19768TIP3    H180795   4.464   5.800   1.228  2.7926 -0.2135  0.3268
19768TIP3    H280796   4.479   5.652   1.201  2.6309 -0.4999  1.7625
19769TIP3   OH280797   5.387   0.421   5.196  0.2976 -0.1623  0.5824
19769TIP3    H180798   5.378   0.334   5.156 -0.3065  1.2307 -2.6613
19769TIP3    H280799   5.298   0.457   5.194  0.5916  0.6427  1.6043
19770TIP3   OH280800   0.069   4.573   3.670  0.1994 -0.0553 -0.0830
19770TIP3    H180801  -0.013   4.552   3.714 -0.3034 -0.0619 -0.9841
19770TIP3    H280802   0.105   4.647   3.718  0.1431 -0.6555  0.8973
19771TIP3   OH280803   3.747   2.706  12.660 -0.1684  0.0230  0.3447
19771TIP3    H180804   3.702   2.782  12.698  0.7700 -0.5253  2.6823
19771TIP3    H280805   3.824   2.694  12.715  0.4549 -1.7740 -0.8597
19772TIP3   OH280806   1.622   1.098  16.109 -0.4887 -0.2356  0.4561
19772TIP3    H180807   1.549   1.122  16.166 -0.5083 -0.6636  0.6163
19772TIP3    H280808   1.585   1.031  16.051 -0.0637 -0.8992  0.9371
19773TIP3   OH280809   0.320   1.629   0.472  0.7194 -0.3168 -0.1645
19773TIP3    H180810   0.249   1.573   0.442  0.9396  0.1760 -1.7238
19773TIP3    H280811   0.320   1.702   0.410  2.4567 -0.2221 -0.1031
19774TIP3   OH280812   2.614   3.334   4.373 -0.0096 -0.3149 -0.0619
19774TIP3    H180813   2.646   3.344   4.462 -0.7080  0.5086  0.1123
19774TIP3    H280814   2.683   3.286   4.327  0.6064 -0.2362  0.7723
19775TIP3   OH280815   4.889   3.572  11.917  0.4857 -0.0594 -0.6753
19775TIP3    H180816   4.971   3.527  11.941  0.6048 -0.4895 -1.8330
19775TIP3    H280817   4.821   3.521  11.959  0.6383 -1.2407 -1.7865
19776TIP3   OH280818   0.404   1.888   1.939 -0.2938 -0.0511 -0.8297
19776TIP3    H180819   0.345   1.846   1.876 -0.5312 -0.8284 -0.1038
19776TIP3    H280820   0.363   1.871   2.024 -0.0665  1.1289 -0.4697
19777TIP3   OH280821   3.118   4.645  16.811 -0.6099  0.1878  0.3517
19777TIP3    H180822   3.163   4.562  16.794 -0.2406  0.3926  0.3090
19777TIP3    H280823   3.133   4.697  16.732 -2.8423 -0.5504 -0.6373
19778TIP3   OH280824   4.279   6.104   2.910  0.3771  0.0209  0.2718
19778TIP3    H180825   4.328   6.186   2.918  0.2214  0.1971 -0.4800
19778TIP3    H280826   4.343   6.040   2.880  0.4403 -0.0799  0.6102
19779TIP3   OH280827   4.061   6.716   5.977 -0.6775  0.0456  0.0804
19779TIP3    H180828   4.120   6.714   6.053  0.4049 -0.8351 -0.7407
19779TIP3    H280829   4.082   6.636   5.929 -2.7112 -0.3939 -0.1597
19780TIP3   OH280830   1.082   3.603   5.512  0.0885  0.0269 -0.0198
19780TIP3    H180831   1.119   3.534   5.458  0.2723 -0.3037  0.5140
19780TIP3    H280832   1.132   3.598   5.594  0.2152  0.9053 -0.0414
19781TIP3   OH280833   2.283   6.422   3.027 -0.0337  0.3385 -0.5593
19781TIP3    H180834   2.364   6.372   3.017  0.1776 -0.1597  2.6365
19781TIP3    H280835   2.311   6.513   3.025  0.4846  0.1880 -0.3871
19782TIP3   OH280836   1.672   4.896   5.588 -0.4381 -0.9068 -0.1675
19782TIP3    H180837   1.665   4.802   5.604  1.8850 -0.8878  1.5194
19782TIP3    H280838   1.594   4.934   5.628 -2.1598 -2.1713 -2.1432
19783TIP3   OH280839   4.273   0.187   2.137 -0.2664  0.2398  0.1282
19783TIP3    H180840   4.230   0.135   2.205  2.5418 -1.6931  0.6035
19783TIP3    H280841   4.269   0.134   2.058  1.2648 -0.0837  0.2267
19784TIP3   OH280842   2.699   2.954   3.188  0.2574 -0.2231 -0.1579
19784TIP3    H180843   2.724   2.938   3.279 -1.9588 -1.4437  0.3160
19784TIP3    H280844   2.609   2.921   3.182 -0.3471  1.5615 -2.3114
19785TIP3   OH280845   0.759   4.037  15.294  0.1334  0.2347 -0.2649
19785TIP3    H180846   0.790   4.056  15.383 -1.2335  0.3902  0.2038
19785TIP3    H280847   0.806   3.957  15.269 -0.4746 -0.6017  1.1505
19786TIP3   OH280848   4.338   5.834  17.441 -0.6786 -0.6995  0.0962
19786TIP3    H180849   4.273   5.900  17.462 -1.6000 -1.3252 -0.7223
19786TIP3    H280850   4.288   5.758  17.410  0.4390 -0.9928 -1.1268
19787TIP3   OH280851   6.282   1.250   4.150  0.0289 -0.3256 -0.5769
19787TIP3    H180852   6.246   1.216   4.232  0.5764  0.3413 -0.0420
19787TIP3    H280853   6.224   1.217   4.082 -0.0378 -1.4758  0.0143
19788TIP3   OH280854   0.808   0.538   5.235 -0.1698  0.4744  0.3360
19788TIP3    H180855   0.787   0.474   5.167  1.4004 -0.0656  0.3275
19788TIP3    H280856   0.826   0.619   5.187 -1.8246  0.8616  0.3245
19789TIP3   OH280857   3.505   2.340   5.658  0.3047  0.3201 -0.7715
19789TIP3    H180858   3.578   2.280   5.647 -0.8828 -1.0685 -1.4731
19789TIP3    H280859   3.427   2.284   5.655 -0.7629  1.5223  1.4653
19790TIP3   OH280860   3.222   2.768  15.258 -0.0563  0.4096 -0.2403
19790TIP3    H180861   3.286   2.696  15.258 -0.2398  0.1990 -2.0320
19790TIP3    H280862   3.160   2.745  15.327  1.1723  0.0415  0.7742
19791TIP3   OH280863   2.722   5.279   4.639 -0.6648  0.1320  0.0317
19791TIP3    H180864   2.814   5.306   4.640 -0.7759  0.9138 -2.4003
19791TIP3    H280865   2.721   5.200   4.585 -1.2301 -0.9663  1.5823
19792TIP3   OH280866   0.916   0.659   1.751 -0.4325 -0.3596  0.3571
19792TIP3    H180867   0.956   0.627   1.670 -0.8665 -1.2659  0.4977
19792TIP3    H280868   0.851   0.722   1.721  0.1571  0.1300  0.0636
19793TIP3   OH280869   5.502   5.572   6.312  0.0763 -0.2091 -0.0772
19793TIP3    H180870   5.526   5.480   6.303  1.5240  0.1889 -0.5476
19793TIP3    H280871   5.562   5.607   6.378  0.3527  0.6564 -0.7515
19794TIP3   OH280872   6.135   5.628  12.548 -0.2438  0.2439 -0.4950
19794TIP3    H180873   6.106   5.583  12.469 -1.9142  0.8495 -0.2732
19794TIP3    H280874   6.067   5.608  12.613 -0.0690  1.5770  0.1268
19795TIP3   OH280875   2.350   1.605   6.245 -0.0896 -0.1922  0.6442
19795TIP3    H180876   2.384   1.560   6.168  1.9717  2.3116 -0.0365
19795TIP3    H280877   2.256   1.584   6.245  0.4715 -3.2192 -0.3577
19796TIP3   OH280878   6.077   2.624  16.227 -0.3149  0.0107 -0.3838
19796TIP3    H180879   6.017   2.681  16.178 -2.3508 -0.5987  1.2812
19796TIP3    H280880   6.020   2.563  16.273  1.6484 -1.0231  0.7934
19797TIP3   OH280881   5.806   4.652   3.487 -0.0837 -0.2627 -0.3101
19797TIP3    H180882   5.886   4.704   3.483 -1.7791  2.5128 -1.2783
19797TIP3    H280883   5.765   4.678   3.570 -0.8013 -0.2491 -0.6590
19798TIP3   OH280884   1.718   0.137  14.772  0.1867  0.1079 -0.1326
19798TIP3    H180885   1.693   0.192  14.697  1.2359  0.7179 -0.0451
19798TIP3    H280886   1.809   0.112  14.754  0.6303  0.7126  1.1998
19799TIP3   OH280887   3.011   0.918   6.240  0.1399  0.3728 -0.0814
19799TIP3    H180888   2.991   0.839   6.189  0.4988  0.2168  0.0207
19799TIP3    H280889   3.041   0.885   6.324 -0.1858  0.6292  0.1364
19800TIP3   OH280890   4.739   5.825   0.096  0.1818 -0.1015  0.2589
19800TIP3    H180891   4.682   5.895   0.126 -1.1086 -0.0082 -2.1731
19800TIP3    H280892   4.706   5.746   0.140 -1.2580  0.1123 -0.3815
19801TIP3   OH280893   5.016   5.504  10.991 -0.1291  0.0110  0.0293
19801TIP3    H180894   5.006   5.597  10.970  0.3952  0.2530  0.8136
19801TIP3    H280895   5.094   5.501  11.047 -0.9404 -0.7380  1.1371
19802TIP3   OH280896   0.897   6.526  12.097  0.1128 -0.1482 -0.1387
19802TIP3    H180897   0.872   6.510  12.005 -1.1033 -1.0436  0.3161
19802TIP3    H280898   0.850   6.606  12.120  0.0887 -0.1493 -0.1808
19803TIP3   OH280899   3.449   5.281  12.194 -0.3585  0.6076  0.0050
19803TIP3    H180900   3.494   5.281  12.110 -1.1063 -2.1050 -0.4862
19803TIP3    H280901   3.496   5.216  12.246 -0.7065  1.3138  1.2412
19804TIP3   OH280902   1.880   6.452  15.769  0.1554  0.1524 -0.2390
19804TIP3    H180903   1.805   6.463  15.827  0.9267  0.7852  0.6731
19804TIP3    H280904   1.854   6.382  15.709 -1.5784  1.1013 -0.6577
19805TIP3   OH280905   4.876   1.198   0.047  0.1716 -0.2436 -0.1835
19805TIP3    H180906   4.887   1.223  -0.045  1.4630  0.6057  0.1833
19805TIP3    H280907   4.854   1.279   0.093  0.4795 -0.4869  0.4084
19806TIP3   OH280908   2.023   5.141   5.100 -0.8098  0.3874  0.0449
19806TIP3    H180909   2.081   5.196   5.151  0.3682 -1.4209  0.7699
19806TIP3    H280910   2.074   5.062   5.083 -1.7036  0.2991 -2.6722
19807TIP3   OH280911   0.605   0.158  11.090 -0.1512  0.0859  0.8200
19807TIP3    H180912   0.601   0.253  11.100 -0.2094  0.0529  1.1331
19807TIP3    H280913   0.557   0.140  11.010  2.0773  0.5567 -0.7279
19808TIP3   OH280914   0.627   0.182  12.735 -0.1759 -0.2598  0.1899
19808TIP3    H180915   0.564   0.170  12.665  1.0224  1.5178 -1.2877
19808TIP3    H280916   0.587   0.247  12.794 -0.7941 -1.0750  0.6837
19809TIP3   OH280917   2.149   1.893  14.395  0.4490  0.7011  0.5251
19809TIP3    H180918   2.092   1.969  14.385  0.2040  0.4129 -0.3246
19809TIP3    H280919   2.233   1.921  14.359  0.3418  0.5459  0.1575
19810TIP3   OH280920   4.365   1.087   3.423 -0.6442 -0.1583 -0.0546
19810TIP3    H180921   4.386   1.150   3.491  0.7159 -1.9359  1.2779
19810TIP3    H280922   4.446   1.076   3.374 -0.6449 -1.3068  0.1545
19811TIP3   OH280923   1.101   6.182  11.500 -0.3794  0.0263 -0.1140
19811TIP3    H180924   1.034   6.243  11.470 -0.1618 -0.8419 -2.5807
19811TIP3    H280925   1.072   6.155  11.587  0.1465  4.5155  1.7487
19812TIP3   OH280926   1.172   2.322   1.912 -0.4301 -0.3768 -0.1975
19812TIP3    H180927   1.168   2.407   1.868  1.8597 -0.3229 -0.4119
19812TIP3    H280928   1.226   2.268   1.855 -0.4715 -1.4632  0.7596
19813TIP3   OH280929   1.212   5.715   4.957  0.3251  0.1615  0.1778
19813TIP3    H180930   1.161   5.795   4.964 -0.0528 -0.0486 -0.1350
19813TIP3    H280931   1.185   5.677   4.873  0.6093 -0.2159  0.2567
19814TIP3   OH280932   6.485   1.890  16.588 -0.0075  0.1167  0.0392
19814TIP3    H180933   6.578   1.909  16.600  0.7776 -2.4582 -1.2482
19814TIP3    H280934   6.480   1.795  16.587 -2.5607  0.1902 -0.7438
19815TIP3   OH280935   3.291   2.961   0.444  0.6378 -0.0760 -0.6830
19815TIP3    H180936   3.368   2.967   0.387  2.6295 -3.2619  1.3161
19815TIP3    H280937   3.328   2.963   0.533 -2.0309  1.6754  0.5174
19816TIP3   OH280938   3.714   0.543  15.023 -0.0275 -0.0881  0.1594
19816TIP3    H180939   3.649   0.536  14.954  0.9016  0.0435 -0.7529
19816TIP3    H280940   3.760   0.625  15.004  1.0783 -0.6927  0.1713
19817TIP3   OH280941   5.889   0.163  12.218 -0.1669  0.1658  0.3343
19817TIP3    H180942   5.819   0.223  12.247 -0.1787  0.7717 -0.8770
19817TIP3    H280943   5.843   0.090  12.178 -0.1154  0.0735  0.4409
19818TIP3   OH280944   3.621   2.843  16.022  0.5858 -0.0174 -0.2056
19818TIP3    H180945   3.633   2.857  16.116 -2.8890 -2.0361  0.7188
19818TIP3    H280946   3.678   2.770  16.000  2.3121  1.2122 -0.0511
19819TIP3   OH280947   2.906   5.770   3.825 -0.0954 -0.2239 -0.1045
19819TIP3    H180948   2.950   5.811   3.899 -2.2768  1.0943  0.5494
19819TIP3    H280949   2.913   5.833   3.754  0.1843 -0.5950 -0.4167
19820TIP3   OH280950   5.341   0.706   4.591 -0.4071 -1.0729  0.1100
19820TIP3    H180951   5.343   0.641   4.521 -0.4626  1.2035 -2.1592
19820TIP3    H280952   5.272   0.767   4.565 -0.5288 -0.1961  2.2589
19821TIP3   OH280953   4.374   4.627   2.916  0.1359 -0.0447 -0.7182
19821TIP3    H180954   4.283   4.655   2.925 -0.0570 -1.4119  3.9535
19821TIP3    H280955   4.424   4.688   2.970  1.3447 -1.7163  0.1352
19822TIP3   OH280956   1.682   3.782  17.334  0.7010 -0.0111  0.1399
19822TIP3    H180957   1.719   3.863  17.301  0.6754 -0.3806 -0.8260
19822TIP3    H280958   1.757   3.726  17.351  0.7220  0.2297  0.8667
19823TIP3   OH280959   1.710   1.173  13.711  0.4656 -0.2424  0.3000
19823TIP3    H180960   1.722   1.109  13.782 -0.1768 -0.0716  0.5668
19823TIP3    H280961   1.687   1.119  13.635  1.8734 -0.4913  0.0168
19824TIP3   OH280962   1.103   3.670  13.475 -0.1333  0.0001  0.1544
19824TIP3    H180963   1.058   3.725  13.411 -1.1423 -0.7304  0.2019
19824TIP3    H280964   1.146   3.602  13.423  2.7418  1.8437 -0.0733
19825TIP3   OH280965   3.925   2.128  17.257 -0.1867 -0.1545  0.2493
19825TIP3    H180966   3.855   2.153  17.197 -0.8785  0.3804  1.2466
19825TIP3    H280967   3.933   2.202  17.317 -0.2657 -1.0938  1.4686
19826TIP3   OH280968   0.953   6.563   0.888 -0.6149 -0.5077  0.1371
19826TIP3    H180969   0.944   6.554   0.793  2.6873 -0.5352 -0.2919
19826TIP3    H280970   0.925   6.652   0.907  0.8705  0.3263 -1.2975
19827TIP3   OH280971   3.979   3.109  16.510  0.4082  0.4408  0.0892
19827TIP3    H180972   3.967   3.073  16.422  0.9899 -0.7021  0.4525
19827TIP3    H280973   3.994   3.202  16.496 -2.2573  0.8057 -0.8192
19828TIP3   OH280974   4.614   2.481   4.148 -0.9269  0.4877 -0.0518
19828TIP3    H180975   4.679   2.535   4.105 -1.0786 -0.2838 -1.2938
19828TIP3    H280976   4.605   2.404   4.092 -2.0239  0.0159  0.7245
19829TIP3   OH280977   4.710   3.316  15.537 -0.4655  0.3099 -0.1861
19829TIP3    H180978   4.762   3.307  15.457  0.2616 -1.8540  0.4644
19829TIP3    H280979   4.629   3.268  15.519 -0.8352  0.8704 -0.0393
19830TIP3   OH280980   3.078   1.188  11.186  0.1038  0.1795 -0.7878
19830TIP3    H180981   3.148   1.230  11.136  0.1591  0.1273 -0.7552
19830TIP3    H280982   3.009   1.173  11.122  0.7642 -1.2917 -1.2216
19831TIP3   OH280983   2.639   5.047   2.435 -0.1891 -0.4076  0.1520
19831TIP3    H180984   2.730   5.059   2.465 -1.0049  0.5681  2.4328
19831TIP3    H280985   2.586   5.064   2.512 -2.3264 -1.6811 -0.9480
19832TIP3   OH280986   2.814   2.772  16.596  0.1481  0.1192 -0.1132
19832TIP3    H180987   2.795   2.691  16.549 -1.8717  0.7726 -0.5131
19832TIP3    H280988   2.873   2.821  16.539  0.0610 -0.3450 -0.6016
19833TIP3   OH280989   6.643   4.570   0.797  0.4325  0.8287 -0.1562
19833TIP3    H180990   6.574   4.583   0.862  0.1559  2.2700 -0.7122
19833TIP3    H280991   6.707   4.639   0.816  1.4591 -0.1318 -0.0113
19834TIP3   OH280992   5.745   6.303  16.883  0.1374  0.5030  0.7432
19834TIP3    H180993   5.781   6.294  16.795 -1.5135 -3.2716  0.2625
19834TIP3    H280994   5.813   6.268  16.941  0.5205  1.3433  0.8191
19835TIP3   OH280995   6.688   0.536   2.032  0.5615 -0.4643  0.0776
19835TIP3    H180996   6.725   0.452   2.057 -0.1069 -0.3138  1.7311
19835TIP3    H280997   6.754   0.600   2.058  0.0643 -0.3416  1.1203
19836TIP3   OH280998   0.107   4.176  17.286 -0.7543  0.1181 -0.1709
19836TIP3    H180999   0.055   4.187  17.365 -0.5387 -0.6580  0.0857
19836TIP3    H281000   0.198   4.186  17.316 -0.6629 -0.3732 -0.2879
19837TIP3   OH281001   4.127   0.537   1.511 -0.7647 -0.0654  0.4937
19837TIP3    H181002   4.078   0.554   1.430 -0.0747 -0.9087 -0.1102
19837TIP3    H281003   4.151   0.624   1.542  1.0756  0.2366 -1.5384
19838TIP3   OH281004   1.348   6.441  12.182  0.1009  0.6714 -0.1403
19838TIP3    H181005   1.290   6.410  12.252 -1.0060  0.6605 -1.0356
19838TIP3    H281006   1.404   6.506  12.224  0.7206 -0.6629  1.1829
19839TIP3   OH281007   6.297   5.469   6.035  0.0958 -0.4794 -0.0642
19839TIP3    H181008   6.252   5.518   6.104  1.5774  3.2921 -1.5261
19839TIP3    H281009   6.377   5.437   6.077  0.0695  0.0879  0.4312
19840TIP3   OH281010   2.860   0.843  16.811  0.7618  0.5541  0.5961
19840TIP3    H181011   2.788   0.801  16.766  2.2323 -0.8945 -0.5239
19840TIP3    H281012   2.862   0.801  16.897  0.3654  0.4779  0.5677
19841TIP3   OH281013   2.488   2.450  12.730  0.1405  0.3431  0.6502
19841TIP3    H181014   2.412   2.507  12.741 -0.8477 -0.6529 -0.7097
19841TIP3    H281015   2.460   2.365  12.765  0.4764 -0.1327 -0.1977
19842TIP3   OH281016   2.132   4.206   6.501 -0.1790  0.2051  0.4140
19842TIP3    H181017   2.148   4.111   6.500  0.6938  0.3507 -0.0168
19842TIP3    H281018   2.063   4.217   6.566  0.1801 -0.6539  0.9639
19843TIP3   OH281019   4.443   5.908   2.784 -0.2326 -0.6390 -0.1645
19843TIP3    H181020   4.511   5.894   2.718  0.3968 -0.0055  0.3335
19843TIP3    H281021   4.431   5.822   2.824  1.1919 -0.5295  0.5927
19844TIP3   OH281022   3.684   5.476   0.879 -0.0200 -0.2774  0.2678
19844TIP3    H181023   3.672   5.435   0.965 -1.8682  2.2695  1.3854
19844TIP3    H281024   3.742   5.550   0.897  0.6082 -0.4441 -0.9810
19845TIP3   OH281025   2.857   0.792   4.294 -0.0066  0.4282  0.0353
19845TIP3    H181026   2.861   0.866   4.355 -0.8046 -0.6079  1.3866
19845TIP3    H281027   2.764   0.783   4.273  0.1479  0.1397 -0.5623
19846TIP3   OH281028   1.332   4.175   5.382  0.3689  0.5106  0.3915
19846TIP3    H181029   1.397   4.199   5.315  0.8847  1.3371  1.1714
19846TIP3    H281030   1.336   4.080   5.386 -0.5492  0.3242 -1.6153
19847TIP3   OH281031   2.025   0.028  11.486  0.4610  0.4975  0.9728
19847TIP3    H181032   1.991  -0.053  11.525  1.1560  0.3885  1.3602
19847TIP3    H281033   2.115   0.007  11.462  0.3631  0.8903  0.2651
19848TIP3   OH281034   3.569   3.937   5.222  0.2317 -0.0290 -0.1224
19848TIP3    H181035   3.539   3.847   5.209 -0.1685  0.0412  0.2719
19848TIP3    H281036   3.508   3.990   5.171 -1.2661  0.2376  1.7848
19849TIP3   OH281037   1.239   6.533   2.021 -0.4536 -0.0030 -0.3926
19849TIP3    H181038   1.228   6.492   1.935  0.7793 -1.1530 -0.0354
19849TIP3    H281039   1.280   6.465   2.074  0.8428  1.4243  0.4845
19850TIP3   OH281040   0.924   1.362  12.063 -0.3538 -0.1166  0.4941
19850TIP3    H181041   0.850   1.333  12.009  0.5657  0.9182 -1.4263
19850TIP3    H281042   0.895   1.445  12.101 -0.6521 -0.3738  0.8374
19851TIP3   OH281043   5.226   3.268   5.034 -0.6996  0.1340 -0.3048
19851TIP3    H181044   5.195   3.349   4.993 -1.2006 -0.0447 -0.2910
19851TIP3    H281045   5.317   3.261   5.007 -0.1393  1.5758  1.0703
19852TIP3   OH281046   4.263   1.295  14.120 -0.5120 -0.7636 -0.1189
19852TIP3    H181047   4.309   1.377  14.105  0.0435 -1.3398 -1.8533
19852TIP3    H281048   4.217   1.307  14.203  1.3550  0.4573  0.7969
19853TIP3   OH281049   6.594   4.198   5.445 -0.1373 -0.1049  0.3606
19853TIP3    H181050   6.687   4.185   5.427  0.1708  2.2880 -0.0933
19853TIP3    H281051   6.589   4.200   5.540  0.1974 -0.5679  0.3976
19854TIP3   OH281052   0.068   3.242  16.144  0.2711  0.1331  0.4374
19854TIP3    H181053   0.038   3.256  16.234  0.7089 -0.8246  0.7471
19854TIP3    H281054   0.089   3.330  16.112  0.8060  0.4200  1.5271
19855TIP3   OH281055   3.414   1.544   4.108  0.5276 -0.0205 -0.1107
19855TIP3    H181056   3.440   1.592   4.186 -0.7378 -0.0304  0.3424
19855TIP3    H281057   3.404   1.611   4.040  2.0956 -0.0633 -0.4343
19856TIP3   OH281058   0.128   3.459   6.164 -0.4771 -0.3477  0.7352
19856TIP3    H181059   0.120   3.546   6.124 -0.6104 -0.1004  1.2873
19856TIP3    H281060   0.118   3.475   6.258  1.8053 -0.6514  1.0730
19857TIP3   OH281061   2.871   6.123  13.173  0.0037  0.3950 -0.0144
19857TIP3    H181062   2.885   6.110  13.267  2.1073 -0.6000 -0.3852
19857TIP3    H281063   2.945   6.177  13.145 -0.3406  0.2900 -1.1768
19858TIP3   OH281064   3.148   2.457   0.563  0.6408  0.2736  0.3959
19858TIP3    H181065   3.062   2.458   0.606  0.5859  0.0351  0.2944
19858TIP3    H281066   3.163   2.548   0.538 -0.1117  0.1333 -0.6196
19859TIP3   OH281067   1.164   1.013  15.139  0.2781 -0.2662  0.2086
19859TIP3    H181068   1.140   1.098  15.175  0.2316 -0.2360  0.1051
19859TIP3    H281069   1.244   1.030  15.088  0.0105 -0.1973 -0.1944
19860TIP3   OH281070   5.363   0.360   4.158 -0.6622 -0.2508  0.2811
19860TIP3    H181071   5.444   0.324   4.124 -1.8325 -3.7855  0.7607
19860TIP3    H281072   5.310   0.378   4.081 -0.3404 -0.3488  0.0355
19861TIP3   OH281073   0.087   2.980   0.056 -0.2135  0.3472 -0.2267
19861TIP3    H181074   0.097   3.066   0.014  0.1803 -0.1094 -1.0816
19861TIP3    H281075   0.171   2.936   0.042  0.5317  0.7286  2.3782
19862TIP3   OH281076   3.679   4.980   3.618  0.3043  0.3819  0.2736
19862TIP3    H181077   3.598   4.957   3.664  1.1733 -0.5197  1.3857
19862TIP3    H281078   3.658   4.969   3.525 -0.6143 -0.5783  0.5843
19863TIP3   OH281079   6.223   5.666  12.844  0.0410 -0.0154  0.2909
19863TIP3    H181080   6.276   5.726  12.898  0.0973  0.2019 -0.0014
19863TIP3    H281081   6.275   5.653  12.765 -0.9288  1.3025 -0.6158
19864TIP3   OH281082   5.869   4.792  14.584  0.5200  0.0263  0.4853
19864TIP3    H181083   5.795   4.781  14.525  0.5276  0.6214  0.3557
19864TIP3    H281084   5.830   4.820  14.667  0.4831 -1.0799  0.8631
19865TIP3   OH281085   5.423   3.080   6.141  0.5397 -0.8877  0.1633
19865TIP3    H181086   5.403   3.061   6.232 -0.3286 -0.1848  0.1290
19865TIP3    H281087   5.338   3.082   6.097  0.8967 -0.5725 -0.5320
19866TIP3   OH281088   4.535   1.444   1.146  0.7752 -0.5349  0.4537
19866TIP3    H181089   4.590   1.519   1.169  0.9205  0.2635 -2.1523
19866TIP3    H281090   4.445   1.477   1.151  0.7401 -0.7171  1.0336
19867TIP3   OH281091   0.585   0.746   5.839  0.0432  0.0962 -0.1470
19867TIP3    H181092   0.580   0.653   5.819 -0.6037  0.0913  0.0140
19867TIP3    H281093   0.499   0.780   5.817 -0.4689  0.2355  1.8848
19868TIP3   OH281094   4.948   5.950  14.991  0.0923 -0.3767  0.1720
19868TIP3    H181095   4.963   6.005  15.067 -0.2922  0.9503 -0.6785
19868TIP3    H281096   5.019   5.973  14.931 -1.4444  1.0672 -1.1895
19869TIP3   OH281097   2.164   4.149  15.231  0.3671 -0.0808  0.3823
19869TIP3    H181098   2.234   4.117  15.174 -0.1949  0.7213 -0.8032
19869TIP3    H281099   2.180   4.106  15.315  3.0713  1.1370  0.5659
19870TIP3   OH281100   1.785   3.248   2.537  0.0918  0.1672  0.1314
19870TIP3    H181101   1.800   3.207   2.621  0.8768  0.2947  0.0584
19870TIP3    H281102   1.867   3.238   2.489 -0.8543 -1.4398 -1.2926
19871TIP3   OH281103   2.896   3.141   5.832  0.3326  0.2666  0.9142
19871TIP3    H181104   2.846   3.157   5.912 -1.3146 -0.2004  0.0233
19871TIP3    H281105   2.853   3.194   5.765 -0.0280 -1.3750 -0.2238
19872TIP3   OH281106   3.556   5.301   2.961  0.2609 -0.3912  0.5842
19872TIP3    H181107   3.489   5.307   3.029  0.0670 -0.2725  0.3822
19872TIP3    H281108   3.574   5.208   2.953  1.4069 -0.3180  1.8922
19873TIP3   OH281109   0.344   1.409  16.921  0.0908  0.4724 -0.3416
19873TIP3    H181110   0.420   1.415  16.864 -0.0241 -0.8234 -0.6468
19873TIP3    H281111   0.292   1.337  16.885 -0.3651  0.1331  0.9477
19874TIP3   OH281112   2.672   5.576   1.378  0.1857  0.4518 -0.5702
19874TIP3    H181113   2.723   5.572   1.297  1.7352  1.2010  0.3344
19874TIP3    H281114   2.737   5.563   1.448 -1.0008  0.5877  0.5889
19875TIP3   OH281115   3.188   4.467  13.524 -0.2266 -0.5034  0.2279
19875TIP3    H181116   3.219   4.539  13.580 -1.4755 -1.3082  2.0707
19875TIP3    H281117   3.267   4.422  13.497  0.4466  0.1542  1.0372
19876TIP3   OH281118   5.804   6.518  16.073 -0.1965 -0.5857 -0.1043
19876TIP3    H181119   5.755   6.587  16.026  1.4293  0.0492 -0.9475
19876TIP3    H281120   5.796   6.441  16.016 -0.1306 -0.4596 -0.2849
19877TIP3   OH281121   0.229   1.386   6.240  0.3401  0.1942 -0.5512
19877TIP3    H181122   0.280   1.343   6.309 -1.1286  1.0274  1.1286
19877TIP3    H281123   0.247   1.479   6.252 -0.9878  0.4406 -0.3973
19878TIP3   OH281124   1.450   4.115  14.772  0.4265 -0.4787  0.5912
19878TIP3    H181125   1.462   4.167  14.851 -0.4932  0.5312  0.0902
19878TIP3    H281126   1.413   4.176  14.709 -0.6603 -1.7428 -0.0297
19879TIP3   OH281127   5.316   1.288   4.292  0.3790  0.3281  0.3806
19879TIP3    H181128   5.412   1.289   4.289  0.3744  2.0286 -2.2698
19879TIP3    H281129   5.290   1.211   4.243  0.4764  1.6782 -1.9457
19880TIP3   OH281130   1.238   0.610   3.961  0.0492  0.0481 -0.2102
19880TIP3    H181131   1.231   0.515   3.947 -2.0292 -0.4697  3.2313
19880TIP3    H281132   1.330   0.625   3.980  0.1224 -1.6660  1.0387
19881TIP3   OH281133   0.949   4.174  11.872  0.2395 -0.2541 -0.2588
19881TIP3    H181134   0.911   4.251  11.914  1.2203  1.6252 -2.5562
19881TIP3    H281135   1.025   4.152  11.925  1.3185  1.9152 -0.8027
19882TIP3   OH281136   0.397   2.703   5.713 -0.0029 -0.4405  0.0981
19882TIP3    H181137   0.364   2.620   5.679 -1.3032  0.0350  0.1180
19882TIP3    H281138   0.384   2.696   5.808  0.3639 -0.4174  0.1487
19883TIP3   OH281139   0.108   6.404  17.191  0.4175 -0.0146  0.2492
19883TIP3    H181140   0.067   6.464  17.252  0.3014 -0.0934  0.2488
19883TIP3    H281141   0.066   6.422  17.107  0.1353 -0.3412  0.3220
19884TIP3   OH281142   2.638   4.515  14.773 -0.0746  0.0587 -0.2504
19884TIP3    H181143   2.668   4.477  14.690 -0.6549 -0.8694 -0.0467
19884TIP3    H281144   2.593   4.444  14.817  0.0747  0.5943  0.7975
19885TIP3   OH281145   6.311   0.146  12.307 -0.0054 -0.5807  0.1698
19885TIP3    H181146   6.277   0.236  12.300  1.3744 -0.1726 -3.4075
19885TIP3    H281147   6.232   0.092  12.313 -0.9293  0.7728  0.8553
19886TIP3   OH281148   3.538   3.986  14.180  0.1685 -0.3614  0.0716
19886TIP3    H181149   3.479   4.018  14.248  0.3124 -0.7700  0.3919
19886TIP3    H281150   3.500   3.902  14.153 -0.3965  0.2243 -1.0040
19887TIP3   OH281151   2.781   1.083  15.911  0.2936 -0.3374 -0.3825
19887TIP3    H181152   2.821   1.077  15.998  0.7742  1.4424 -0.4258
19887TIP3    H281153   2.849   1.052  15.852  1.0253  1.0478 -0.3133
19888TIP3   OH281154   1.074   1.272  17.410  0.3772  0.1169  0.3489
19888TIP3    H181155   1.139   1.336  17.379  1.1933 -1.0174 -0.3232
19888TIP3    H281156   1.102   1.253  17.500 -1.2056  2.3759  1.4365
19889TIP3   OH281157   0.819   1.917  15.150 -0.0193  0.2831 -0.3286
19889TIP3    H181158   0.763   1.853  15.105  0.2209 -0.2061  0.0653
19889TIP3    H281159   0.898   1.868  15.173 -0.2249  0.4573  0.8248
19890TIP3   OH281160   2.947   1.169  12.611 -0.1879 -0.0664  0.2490
19890TIP3    H181161   2.873   1.162  12.671 -0.1572  0.6468  0.3854
19890TIP3    H281162   2.966   1.079  12.584 -0.4729 -0.3516  0.9783
19891TIP3   OH281163   6.749   1.334  10.978  0.1711  0.4233  0.0555
19891TIP3    H181164   6.725   1.385  11.056  0.8342 -0.4015  0.8281
19891TIP3    H281165   6.840   1.358  10.961 -0.1414  1.0123 -0.8088
19892TIP3   OH281166   0.727   5.282   1.457 -0.6829 -0.0730  0.4318
19892TIP3    H181167   0.697   5.249   1.542 -0.3768  0.6967  0.8379
19892TIP3    H281168   0.740   5.203   1.404 -0.8970 -0.5536  1.0895
19893TIP3   OH281169   1.478   1.368   0.045 -0.0875  0.2496  0.5516
19893TIP3    H181170   1.419   1.388   0.119  1.9413  2.7757  1.6635
19893TIP3    H281171   1.460   1.437  -0.019 -0.4786 -0.8043 -0.5088
19894TIP3   OH281172   3.456   4.587  15.986 -0.7204 -0.1638 -0.1673
19894TIP3    H181173   3.543   4.622  16.006 -0.1974 -0.9079 -1.0442
19894TIP3    H281174   3.437   4.619  15.898 -1.4228  0.1358  0.0827
19895TIP3   OH281175   3.947   1.831  10.713  0.1750 -0.6003 -0.0589
19895TIP3    H181176   3.987   1.744  10.720  0.0002 -0.6660  0.1444
19895TIP3    H281177   3.959   1.869  10.800  1.9547  0.3361 -0.6470
19896TIP3   OH281178   2.406   0.300  12.069 -0.6152  0.1048  0.1004
19896TIP3    H181179   2.419   0.205  12.065  0.7816  0.3240 -2.1099
19896TIP3    H281180   2.350   0.319  11.994 -0.2261  1.1173  0.0555
19897TIP3   OH281181   1.858   1.892  11.479 -0.5394 -0.6120 -0.0119
19897TIP3    H181182   1.902   1.912  11.396  1.3912  0.2081  1.1593
19897TIP3    H281183   1.895   1.809  11.506  0.3966  0.1258  1.0301
19898TIP3   OH281184   4.919   2.604  13.119  0.1317  0.6222 -0.7661
19898TIP3    H181185   4.868   2.665  13.067  2.6541  1.9252 -1.8899
19898TIP3    H281186   4.991   2.656  13.153  0.3857 -0.9707  1.3066
19899TIP3   OH281187   0.409   3.205  12.034 -0.2539 -0.1077 -1.0067
19899TIP3    H181188   0.362   3.287  12.021 -0.5270 -0.1992 -0.6271
19899TIP3    H281189   0.449   3.186  11.950 -0.1298  0.4539 -1.0788
19900TIP3   OH281190   5.003   4.711   0.986 -0.1498 -0.1593 -0.1797
19900TIP3    H181191   5.087   4.670   0.965 -0.0272  0.4327 -0.8886
19900TIP3    H281192   4.992   4.778   0.918 -0.7177  0.4465  0.4992
19901TIP3   OH281193   2.236   1.310  14.824  0.2796  0.4328 -0.3252
19901TIP3    H181194   2.251   1.216  14.822  1.7018  0.6483 -2.6298
19901TIP3    H281195   2.170   1.325  14.756  2.1523  1.3484 -2.0325
19902TIP3   OH281196   2.422   1.506   4.233 -0.2303 -0.5714  0.0728
19902TIP3    H181197   2.406   1.473   4.145  0.2305 -1.3161  0.2552
19902TIP3    H281198   2.498   1.563   4.224 -0.4707 -0.2698 -0.0851
19903TIP3   OH281199   6.278   2.977  11.553  0.3430  0.4449  0.0644
19903TIP3    H181200   6.277   3.067  11.587  1.0166 -0.1410  1.7536
19903TIP3    H281201   6.193   2.941  11.579  0.9047 -0.0402  1.3265
19904TIP3   OH281202   3.100   5.343  16.094  0.2722  0.0659  0.0877
19904TIP3    H181203   3.097   5.276  16.163 -0.4641 -1.6801 -1.5536
19904TIP3    H281204   3.133   5.297  16.017  0.8751  1.9149 -0.8228
19905TIP3   OH281205   5.963   3.097  17.463 -0.0865  0.0886  0.1784
19905TIP3    H181206   5.941   3.177  17.511  2.4986 -0.0885  1.8500
19905TIP3    H281207   5.940   3.026  17.522 -1.1898 -0.3928 -0.7913
19906TIP3   OH281208   0.090   6.134   4.156 -0.0377  0.0126  0.0105
19906TIP3    H181209   0.127   6.152   4.070  0.2282 -0.8856 -0.0714
19906TIP3    H281210   0.140   6.059   4.189 -1.3042 -0.7944  0.1791
19907TIP3   OH281211   3.252   6.407  14.027 -0.0802 -0.0366  0.4890
19907TIP3    H181212   3.287   6.325  13.990 -0.3111  0.7947 -1.7643
19907TIP3    H281213   3.168   6.382  14.065 -0.3472 -0.8169 -0.5497
19908TIP3   OH281214   1.556   4.594  15.809 -1.1391 -0.4599  0.5895
19908TIP3    H181215   1.592   4.592  15.721  0.5520  0.0818  1.2171
19908TIP3    H281216   1.550   4.502  15.835 -0.1224 -0.5722  0.4649
19909TIP3   OH281217   3.880   4.831  11.724  0.6171  0.0959  0.1784
19909TIP3    H181218   3.812   4.861  11.663  1.6237  1.0395 -0.5275
19909TIP3    H281219   3.940   4.781  11.669  0.6678 -0.4609  0.7343
19910TIP3   OH281220   6.720   4.853  16.140  0.0619 -0.4826 -0.3104
19910TIP3    H181221   6.673   4.771  16.128 -1.0423 -0.0695  1.0357
19910TIP3    H281222   6.694   4.907  16.065  1.0361 -1.4291 -1.3749
19911TIP3   OH281223   5.067   4.622   3.829  0.5641  0.3410 -0.4010
19911TIP3    H181224   5.053   4.625   3.734  0.0339  1.2074 -0.3100
19911TIP3    H281225   5.010   4.692   3.863  1.5830  0.7780  0.4462
19912TIP3   OH281226   4.747   6.366  16.243 -0.1456  0.1913  0.6600
19912TIP3    H181227   4.767   6.287  16.193  0.6485  0.9204 -0.2213
19912TIP3    H281228   4.764   6.438  16.182  1.6011  1.1524  2.1976
19913TIP3   OH281229   6.312   4.829  17.417  0.0867 -0.0912  0.2133
19913TIP3    H181230   6.301   4.750  17.365  0.1567  0.6904 -1.0232
19913TIP3    H281231   6.227   4.873  17.411  0.5421  0.7225 -0.4766
19914TIP3   OH281232   1.104   3.403   1.384  0.3801  0.0100 -0.3638
19914TIP3    H181233   1.118   3.448   1.300  0.8583 -0.4263 -0.5256
19914TIP3    H281234   1.164   3.446   1.445  0.9127 -0.4571 -0.5431
19915TIP3   OH281235   5.187   1.570  15.995  0.3779  0.4092  0.3751
19915TIP3    H181236   5.253   1.537  15.934  1.8907  0.8128  1.7066
19915TIP3    H281237   5.220   1.656  16.021 -1.1082  0.9644  0.4803
19916TIP3   OH281238   5.538   0.065  14.762 -0.1990 -0.2987 -0.4443
19916TIP3    H181239   5.520   0.125  14.690 -1.6635  0.4465  0.5029
19916TIP3    H281240   5.485  -0.012  14.743 -2.0821  0.6429  0.7383
19917TIP3   OH281241   0.260   2.533  12.124  0.0146  0.1874  0.1071
19917TIP3    H181242   0.228   2.451  12.086 -0.2799  0.4366 -0.1953
19917TIP3    H281243   0.266   2.516  12.218  0.4786 -0.3509 -0.0159
19918TIP3   OH281244   4.937   3.681  14.134 -0.3399 -0.5427  0.0280
19918TIP3    H181245   4.889   3.737  14.194  0.6624 -1.3591  1.6650
19918TIP3    H281246   5.029   3.705  14.146 -0.1187 -0.7154 -1.1979
19919TIP3   OH281247   0.743   0.835   0.254 -0.1475 -0.0130 -0.0526
19919TIP3    H181248   0.706   0.922   0.241 -0.0120  0.0535  0.0091
19919TIP3    H281249   0.827   0.837   0.210 -0.2621 -0.1985 -0.2801
19920TIP3   OH281250   5.922   1.605   3.575  0.4815 -0.6820 -0.0878
19920TIP3    H181251   5.946   1.674   3.512  2.4239  0.2188  1.5261
19920TIP3    H281252   5.840   1.636   3.614  1.1376  0.5887  0.3553
19921TIP3   OH281253   5.828   6.611   5.597  0.0050 -0.4776 -0.5973
19921TIP3    H181254   5.765   6.542   5.577  0.4482 -1.0366 -0.1013
19921TIP3    H281255   5.895   6.568   5.650  0.9523  0.0408 -1.3337
19922TIP3   OH281256   3.049   1.505  11.730  0.3810 -0.4409  0.4121
19922TIP3    H181257   3.089   1.568  11.670 -1.0804 -0.3511 -0.5307
19922TIP3    H281258   3.067   1.420  11.690 -0.1309 -0.4140  0.1085
19923TIP3   OH281259   3.791   3.459  17.123  0.0975  0.2497  0.5241
19923TIP3    H181260   3.828   3.461  17.211 -1.3101 -1.8425  1.2337
19923TIP3    H281261   3.699   3.482  17.136  0.4658  2.7867 -0.8455
19924TIP3   OH281262   5.965   1.726   1.866 -0.1354 -0.2926 -0.3257
19924TIP3    H181263   5.907   1.654   1.893  1.5516 -1.3476  0.6836
19924TIP3    H281264   5.952   1.793   1.933  0.9902 -1.2106  0.8550
19925TIP3   OH281265   6.539   6.698  10.764 -0.5226  0.2342 -0.1628
19925TIP3    H181266   6.521   6.636  10.835 -0.1413 -0.3044 -0.5245
19925TIP3    H281267   6.634   6.694  10.752 -0.4346  1.2111  0.0860
19926TIP3   OH281268   6.122   0.508   2.011  0.3999 -0.4075 -0.0856
19926TIP3    H181269   6.114   0.455   2.091  0.2174 -2.0544 -1.1504
19926TIP3    H281270   6.112   0.598   2.041 -4.0981 -1.0868  1.2643
19927TIP3   OH281271   4.527   6.331   1.123  0.0352  0.2508  0.0886
19927TIP3    H181272   4.517   6.335   1.027  0.6298  0.7462  0.0400
19927TIP3    H281273   4.448   6.286   1.153  0.7280 -1.6682 -0.7793
19928TIP3   OH281274   6.517   0.504   6.745  0.0103 -0.1842 -0.3495
19928TIP3    H181275   6.548   0.595   6.737  0.4437 -0.3640 -0.7511
19928TIP3    H281276   6.474   0.501   6.830 -0.9950  0.7013 -0.7975
19929TIP3   OH281277   0.556   3.469   5.225 -0.4277 -0.1094  0.2597
19929TIP3    H181278   0.497   3.402   5.191  1.4110 -1.5390 -0.2416
19929TIP3    H281279   0.501   3.523   5.282 -2.1475 -1.5016 -0.0163
19930TIP3   OH281280   2.017   2.862   2.201  0.1312 -0.1035  0.2170
19930TIP3    H181281   1.944   2.824   2.250  0.9479  0.3895  1.8914
19930TIP3    H281282   2.088   2.798   2.210  0.3009  0.0109 -0.2991
19931TIP3   OH281283   0.070   3.853  17.448 -0.7604 -0.2059  0.0828
19931TIP3    H181284   0.082   3.892  17.535  0.1251 -0.4081  0.0636
19931TIP3    H281285   0.133   3.781  17.446  1.2678  1.4759 -1.7108
19932TIP3   OH281286   4.002   2.925  14.042  0.2778 -0.2140 -0.0860
19932TIP3    H181287   3.913   2.959  14.053 -0.9941 -3.1981 -0.2116
19932TIP3    H281288   4.018   2.933  13.948 -0.1694 -0.3760 -0.1804
19933TIP3   OH281289   0.857   6.563   3.502  0.0057 -0.1234  0.9084
19933TIP3    H181290   0.851   6.514   3.420  2.4989 -0.3952  0.8282
19933TIP3    H281291   0.869   6.497   3.570  0.5963  0.2379  1.1606
19934TIP3   OH281292   3.340   5.702   5.041 -0.6183  0.4032  0.6337
19934TIP3    H181293   3.317   5.609   5.039  0.4268  0.1444 -0.4752
19934TIP3    H281294   3.413   5.707   5.102  0.4141  0.2015 -0.5438
19935TIP3   OH281295   5.501   3.048  10.782 -0.1850  0.0858 -0.4324
19935TIP3    H181296   5.534   3.061  10.693  2.1655  0.0277  0.3417
19935TIP3    H281297   5.420   3.098  10.786  2.1650  4.3747 -1.1996
19936TIP3   OH281298   0.047   4.344   3.499 -0.1565  0.1460  0.1368
19936TIP3    H181299   0.064   4.420   3.555  1.3737 -0.7277  0.8931
19936TIP3    H281300   0.126   4.292   3.503 -2.4749 -3.6912  3.0657
19937TIP3   OH281301   3.839   1.281  11.891  0.3931  0.0720 -0.1677
19937TIP3    H181302   3.837   1.261  11.984 -1.5423 -1.4872 -0.4739
19937TIP3    H281303   3.805   1.202  11.849 -3.4405  2.2871 -1.8132
19938TIP3   OH281304   1.139   4.323  13.822  0.4125  0.0558  0.1631
19938TIP3    H181305   1.169   4.408  13.790 -2.4232  0.6125 -1.3614
19938TIP3    H281306   1.071   4.344  13.886  2.1872 -1.1317  2.6111
19939TIP3   OH281307   4.465   5.932  14.318 -0.7718 -0.0625 -0.2034
19939TIP3    H181308   4.491   6.017  14.284 -1.3487 -0.0802 -0.7122
19939TIP3    H281309   4.534   5.907  14.379 -0.9000  1.0428  0.4154
19940TIP3   OH281310   2.546   2.354  17.287 -0.5461  0.1854 -0.6448
19940TIP3    H181311   2.583   2.389  17.206 -1.0022  0.7826 -0.6011
19940TIP3    H281312   2.610   2.376  17.354 -0.8722  1.0503 -0.6000
19941TIP3   OH281313   5.303   0.806   2.809 -0.1462  0.9462 -0.1146
19941TIP3    H181314   5.269   0.719   2.785 -1.0156  1.2019  0.1374
19941TIP3    H281315   5.226   0.853   2.842  0.4822  1.5270  0.5569
19942TIP3   OH281316   2.616   0.733  13.848  0.3786  0.1807 -0.1510
19942TIP3    H181317   2.606   0.702  13.938 -0.1622 -1.7248 -0.8180
19942TIP3    H281318   2.706   0.766  13.843  1.3624 -2.2326  0.4049
19943TIP3   OH281319   2.403   2.926   6.091 -0.0613 -0.3694 -0.2992
19943TIP3    H181320   2.468   2.994   6.106 -0.9336  0.1022  1.5549
19943TIP3    H281321   2.451   2.858   6.042  1.3923  0.6213 -0.3109
19944TIP3   OH281322   3.315   2.549   2.425 -0.4492 -0.8043 -0.0612
19944TIP3    H181323   3.240   2.586   2.379 -0.4498  0.1903  0.7043
19944TIP3    H281324   3.333   2.467   2.379 -2.6752 -1.6152  0.4103
19945TIP3   OH281325   6.365   2.405   4.478  0.5627 -0.1124 -0.0947
19945TIP3    H181326   6.407   2.411   4.564  0.1142 -0.5118  0.1574
19945TIP3    H281327   6.336   2.494   4.459  0.2469 -0.1089  0.3844
19946TIP3   OH281328   2.710   4.603  15.219  0.2253  0.1361 -0.4182
19946TIP3    H181329   2.759   4.628  15.141 -0.3028 -0.3571 -0.9165
19946TIP3    H281330   2.655   4.678  15.239  0.5681  0.3726 -0.3433
19947TIP3   OH281331   0.353   1.156  12.542  0.6654 -0.3682 -0.2042
19947TIP3    H181332   0.288   1.197  12.485 -0.0185 -1.4196 -0.2057
19947TIP3    H281333   0.422   1.222  12.550 -1.0582  1.4337  1.0143
19948TIP3   OH281334   6.724   4.856   5.018  0.5152 -0.3432 -0.0461
19948TIP3    H181335   6.733   4.951   5.022  1.4746 -0.4374  0.2004
19948TIP3    H281336   6.779   4.823   5.089 -0.4094 -1.0590  0.3723
19949TIP3   OH281337   6.019   5.914   3.462  0.4271  0.1780  0.1781
19949TIP3    H181338   5.932   5.912   3.501  1.0316  1.2991  1.7217
19949TIP3    H281339   6.048   5.823   3.463 -0.6759 -0.1906 -0.2755
19950TIP3   OH281340   1.921   6.479   3.123  0.0649 -0.4312 -0.1020
19950TIP3    H181341   1.956   6.496   3.036  0.5254 -1.2001 -0.0756
19950TIP3    H281342   1.988   6.512   3.183  0.4200 -1.2047 -0.0526
19951TIP3   OH281343   6.315   5.982   5.144 -0.3478  0.6743  0.1557
19951TIP3    H181344   6.261   5.941   5.076 -2.0418  0.9490  1.2841
19951TIP3    H281345   6.362   5.908   5.184 -1.0177  0.2300  0.1346
19952TIP3   OH281346   2.907   5.188   1.032  0.3309 -0.0041 -0.1886
19952TIP3    H181347   2.912   5.104   0.985 -1.9498 -0.2080 -0.1591
19952TIP3    H281348   2.826   5.228   1.001 -0.9748  0.1556  3.0782
19953TIP3   OH281349   2.411   6.543   0.296  0.0457 -0.5411  0.1341
19953TIP3    H181350   2.408   6.459   0.341 -0.9620  0.4892  2.1398
19953TIP3    H281351   2.326   6.584   0.315  1.3306  1.8694  1.2787
19954TIP3   OH281352   6.409   5.503   4.380  0.2113  0.5754 -0.1068
19954TIP3    H181353   6.343   5.562   4.342 -1.0379 -0.6075  0.1528
19954TIP3    H281354   6.358   5.436   4.425  1.6387  0.5838  1.6058
19955TIP3   OH281355   2.761   3.387  11.610 -0.9326 -0.7732  0.3049
19955TIP3    H181356   2.769   3.332  11.532 -1.4554 -0.7055  0.1962
19955TIP3    H281357   2.834   3.361  11.666  0.7488  0.6844 -1.1133
19956TIP3   OH281358   4.021   1.026  12.853 -0.1881  0.3507  0.0003
19956TIP3    H181359   4.039   0.993  12.764 -0.5918  0.5527 -0.1567
19956TIP3    H281360   4.019   0.947  12.907  0.3553  0.2510 -0.1171
19957TIP3   OH281361   6.534   0.389  16.204 -0.1011  0.6335 -0.0201
19957TIP3    H181362   6.519   0.388  16.299 -2.2232  0.3614 -0.2985
19957TIP3    H281363   6.482   0.463  16.173 -1.0055 -0.4395 -1.1611
19958TIP3   OH281364   3.163   4.398   2.710  1.1135  0.4689 -0.3526
19958TIP3    H181365   3.213   4.317   2.719 -0.3031 -0.2009  2.7238
19958TIP3    H281366   3.072   4.372   2.722  0.7112  2.5961  2.0903
19959TIP3   OH281367   4.320   3.393   1.835 -0.5260  0.0999  0.5219
19959TIP3    H181368   4.274   3.477   1.838 -1.5582 -0.3567 -1.0421
19959TIP3    H281369   4.253   3.328   1.855 -0.4925 -0.5390 -1.2489
19960TIP3   OH281370   0.044   3.055  15.828  0.1236 -0.8216 -0.3017
19960TIP3    H181371   0.089   2.984  15.783  1.0012 -0.2009 -0.4320
19960TIP3    H281372   0.020   3.116  15.758  0.0131 -0.6544 -0.1190
19961TIP3   OH281373   5.336   0.295   3.854  0.1048  0.2136  0.0590
19961TIP3    H181374   5.257   0.348   3.865 -1.1885 -0.9050 -2.8683
19961TIP3    H281375   5.356   0.301   3.761  3.3741  0.1921  0.6406
19962TIP3   OH281376   1.598   3.039   0.778  0.2555 -0.3145  0.4163
19962TIP3    H181377   1.537   2.980   0.824  0.6572 -1.0551  0.0168
19962TIP3    H281378   1.542   3.098   0.729 -0.2195  1.0296  2.4690
19963TIP3   OH281379   0.428   0.721  13.113  0.2417 -0.6580  0.0085
19963TIP3    H181380   0.361   0.747  13.177 -0.5861  0.2042 -1.1660
19963TIP3    H281381   0.382   0.723  13.029  2.3506  2.7151 -1.2569
19964TIP3   OH281382   4.945   0.423   0.675  0.2804 -0.5186  0.1136
19964TIP3    H181383   4.953   0.388   0.764 -1.0348 -1.5440 -0.1390
19964TIP3    H281384   4.865   0.382   0.641  0.3095  0.5120 -1.2440
19965TIP3   OH281385   2.951   6.091   5.176  0.1880  0.3419  0.0757
19965TIP3    H181386   2.987   6.002   5.177 -0.1298  0.1646 -1.7693
19965TIP3    H281387   2.857   6.079   5.189  0.0370  0.3257 -0.9615
19966TIP3   OH281388   4.881   1.053  15.190  0.7263 -0.5342  0.2450
19966TIP3    H181389   4.930   1.114  15.134  0.7935  0.5020  1.4051
19966TIP3    H281390   4.833   0.998  15.128  0.7839  0.5846 -0.8346
19967TIP3   OH281391   1.888   0.126   6.467  0.2709  0.9486  0.9050
19967TIP3    H181392   1.964   0.176   6.496  1.3025  0.9527 -1.5451
19967TIP3    H281393   1.863   0.074   6.543  3.0357  0.5782  1.6823
19968TIP3   OH281394   2.854   3.284   3.304  0.0372 -0.0446 -0.3601
19968TIP3    H181395   2.925   3.318   3.359  0.6820  0.3066 -1.3766
19968TIP3    H281396   2.895   3.213   3.253 -0.5193 -0.3051 -0.4574
19969TIP3   OH281397   2.794   2.704  11.872  0.2119 -0.3094  0.4940
19969TIP3    H181398   2.855   2.735  11.805 -1.2353  1.3514 -0.1445
19969TIP3    H281399   2.796   2.771  11.939 -2.5939  1.1198 -0.6570
19970TIP3   OH281400   0.389   0.184   3.246  0.1297 -0.5352  0.4653
19970TIP3    H181401   0.311   0.214   3.291  0.6458 -0.1547  1.1249
19970TIP3    H281402   0.392   0.236   3.166 -0.9857 -1.4694 -0.2206
19971TIP3   OH281403   6.009   3.020  14.415 -0.1243 -0.0411  0.1531
19971TIP3    H181404   6.094   2.997  14.453 -0.2935  0.9423  1.1884
19971TIP3    H281405   5.954   2.944  14.432  0.1870 -0.1590  0.6590
19972TIP3   OH281406   0.303   6.238   4.500  0.5001 -0.1173  0.3237
19972TIP3    H181407   0.385   6.251   4.547  0.4302  0.0954  0.3908
19972TIP3    H281408   0.326   6.243   4.408  0.2147  2.3803  0.3199
19973TIP3   OH281409   6.576   6.631  12.969 -0.4614  0.1870 -0.2148
19973TIP3    H181410   6.526   6.609  12.890  1.2632 -2.2291 -0.7074
19973TIP3    H281411   6.649   6.683  12.937  0.4582 -1.1275 -0.3127
19974TIP3   OH281412   1.282   1.638  11.901 -0.0888  0.7249 -0.3311
19974TIP3    H181413   1.210   1.651  11.962 -0.0398  0.0624 -0.1270
19974TIP3    H281414   1.265   1.553  11.860 -0.0640  1.1061 -1.1613
19975TIP3   OH281415   0.367   1.995   3.792 -0.0604  0.3407  0.2995
19975TIP3    H181416   0.422   1.970   3.866  1.3119  1.6696 -0.2176
19975TIP3    H281417   0.394   1.936   3.722 -0.4076 -0.0330  0.4778
19976TIP3   OH281418   3.305   0.639  14.510  1.0127 -0.3630 -0.1524
19976TIP3    H181419   3.345   0.621  14.595  0.6496  0.1645  0.1356
19976TIP3    H281420   3.277   0.553  14.478  1.7845 -0.6563 -0.0671
19977TIP3   OH281421   6.022   1.801  12.589  0.0936 -0.2031  0.0120
19977TIP3    H181422   6.039   1.729  12.529  1.4133  0.5591 -0.5772
19977TIP3    H281423   6.041   1.880  12.538  1.9457  0.4591  1.5846
19978TIP3   OH281424   1.789   2.773   2.325 -0.0633  0.0846  0.2656
19978TIP3    H181425   1.705   2.806   2.357 -0.9098 -1.2133 -0.5256
19978TIP3    H281426   1.791   2.682   2.353  0.5168 -0.2409 -0.7794
19979TIP3   OH281427   3.823   1.159   4.593 -0.1490  0.1215 -0.1858
19979TIP3    H181428   3.753   1.199   4.541  0.0251  0.0373 -0.4859
19979TIP3    H281429   3.901   1.211   4.572 -0.1108  0.1776  0.1007
19980TIP3   OH281430   4.895   0.537   1.704  0.0244  0.1283 -0.0660
19980TIP3    H181431   4.857   0.594   1.638  1.7865 -0.4096 -1.6310
19980TIP3    H281432   4.924   0.595   1.774  0.2189  0.9644 -0.8342
19981TIP3   OH281433   1.755   2.219   3.938  0.2501 -0.5885 -0.1677
19981TIP3    H181434   1.809   2.288   3.901 -0.4846  1.4960  2.3867
19981TIP3    H281435   1.818   2.159   3.980  0.7444  0.3771  0.5007
19982TIP3   OH281436   6.211   1.992  16.394 -0.8592 -0.1091 -0.1328
19982TIP3    H181437   6.239   1.909  16.354 -0.8513  0.2285 -0.8436
19982TIP3    H281438   6.256   1.994  16.478  0.7429  0.0929 -0.9456
19983TIP3   OH281439   2.064   3.332   3.534  0.0802  0.2847  0.5315
19983TIP3    H181440   1.971   3.316   3.517  0.7561 -0.9335 -2.7410
19983TIP3    H281441   2.084   3.412   3.487  0.8806  0.0454  0.4410
19984TIP3   OH281442   5.766   1.455  12.158 -0.1492  0.1182  0.2290
19984TIP3    H181443   5.701   1.525  12.162  0.3974  0.6124  2.9291
19984TIP3    H281444   5.848   1.498  12.183  0.4082 -1.2710  0.9034
19985TIP3   OH281445   5.615   5.876   5.374  0.2063  0.0789  0.2484
19985TIP3    H181446   5.549   5.812   5.349  0.2482  0.5015 -0.9927
19985TIP3    H281447   5.698   5.829   5.370  0.2377  0.2068 -0.6732
19986TIP3   OH281448   0.198   3.642   4.282  0.3671  0.2529 -0.4322
19986TIP3    H181449   0.132   3.671   4.346  2.0461  0.6258  1.1989
19986TIP3    H281450   0.189   3.547   4.280  0.6789  0.1716  0.8449
19987TIP3   OH281451   0.978   1.976  14.283 -0.3759  0.6798  0.0185
19987TIP3    H181452   1.010   1.945  14.368 -4.2476 -1.2161  1.0232
19987TIP3    H281453   1.008   1.911  14.220 -0.3043  0.2060  0.5323
19988TIP3   OH281454   1.116   2.047  15.360 -0.2690  0.2150 -0.3166
19988TIP3    H181455   1.193   2.025  15.307 -0.4775  2.0834 -1.4955
19988TIP3    H281456   1.151   2.057  15.449  0.4966 -0.7560 -0.4912
19989TIP3   OH281457   1.366   4.587  16.381 -0.2490 -0.1667 -0.4500
19989TIP3    H181458   1.277   4.574  16.350 -0.2437 -1.5372  0.0465
19989TIP3    H281459   1.376   4.525  16.453  0.6197  1.0281  0.5031
19990TIP3   OH281460   1.651   6.083   5.483 -0.3651 -0.1813  0.3310
19990TIP3    H181461   1.576   6.116   5.531 -1.1276 -1.3953  0.0126
19990TIP3    H281462   1.726   6.132   5.518 -1.1411  0.2343  1.4411
19991TIP3   OH281463   1.375   3.375   4.548 -0.0549 -0.3260  0.5932
19991TIP3    H181464   1.458   3.330   4.567  0.6790  0.1353 -1.2601
19991TIP3    H281465   1.329   3.315   4.489 -0.3234  0.1151  0.3487
19992TIP3   OH281466   1.574   1.268   1.386 -0.3700 -0.0964  0.2347
19992TIP3    H181467   1.547   1.316   1.308  0.3812  1.3003  0.7861
19992TIP3    H281468   1.501   1.209   1.405 -0.4759 -0.6114 -1.6128
19993TIP3   OH281469   0.671   4.965  10.928 -0.3228 -0.1283 -0.0863
19993TIP3    H181470   0.727   4.988  11.003 -2.3748 -0.2380  1.5907
19993TIP3    H281471   0.654   5.049  10.885  0.0437  0.0947  0.1930
19994TIP3   OH281472   5.130   1.565   0.322  0.2072  0.1643 -0.3066
19994TIP3    H181473   5.117   1.574   0.417 -0.9397  1.3139 -0.5372
19994TIP3    H281474   5.179   1.484   0.312  0.7801  0.2730  1.3061
19995TIP3   OH281475   4.094   6.694   2.720  0.8608 -0.1176  0.5341
19995TIP3    H181476   4.060   6.612   2.685  2.6369 -0.2187 -1.0900
19995TIP3    H281477   4.159   6.668   2.785  0.5861  0.0444  0.8843
19996TIP3   OH281478   0.417   6.159  17.070 -0.4425  0.5257 -0.0819
19996TIP3    H181479   0.497   6.203  17.043 -0.0097 -0.1917  0.0122
19996TIP3    H281480   0.358   6.230  17.094  0.5295  1.0270  0.8840
19997TIP3   OH281481   3.244   1.788  13.120  0.1834 -0.3045  0.6750
19997TIP3    H181482   3.206   1.873  13.099  3.3047  1.0914  0.1464
19997TIP3    H281483   3.253   1.744  13.035 -0.4074 -0.7226  0.8220
19998TIP3   OH281484   3.134   3.883  16.771  0.4872 -0.0655 -0.2389
19998TIP3    H181485   3.194   3.882  16.846  0.6955  0.7820 -0.3761
19998TIP3    H281486   3.158   3.963  16.724  1.0427 -1.1100 -1.7748
19999TIP3   OH281487   0.782   2.041  12.091 -0.3712 -0.5948  0.0378
19999TIP3    H181488   0.832   1.973  12.047  0.3372 -0.6055  0.8298
19999TIP3    H281489   0.722   2.074  12.024 -0.6597 -1.9133 -0.3926
20000TIP3   OH281490   5.356   4.137   2.057 -0.0480  0.7721 -0.3688
20000TIP3    H181491   5.412   4.108   1.984 -0.4763  1.1324 -0.8516
20000TIP3    H281492   5.297   4.201   2.017  0.2334  1.5633  0.4691
20001TIP3   OH281493   4.349   6.356  11.713 -0.1824  0.1666 -0.1109
20001TIP3    H181494   4.278   6.412  11.681 -1.2737 -1.4140 -0.5851
20001TIP3    H281495   4.386   6.317  11.634 -0.3392 -0.7846  0.2680
20002TIP3   OH281496   6.446   3.918   1.942  0.9585  0.1094  0.7666
20002TIP3    H181497   6.482   3.938   2.028  0.2018  1.3625  0.8185
20002TIP3    H281498   6.351   3.913   1.956  0.9300 -1.0535  0.2566
20003TIP3   OH281499   5.440   4.762   2.507 -0.2862  0.1547 -0.4034
20003TIP3    H181500   5.428   4.839   2.452 -2.2440 -0.3338 -0.7277
20003TIP3    H281501   5.519   4.721   2.473  0.5234  1.7436 -0.5311
20004TIP3   OH281502   5.908   6.478  17.410 -0.4417  0.0920  0.3374
20004TIP3    H181503   5.849   6.545  17.444  0.1483  0.8086 -0.0013
20004TIP3    H281504   5.913   6.497  17.316  1.4584  0.9906  0.5712
20005TIP3   OH281505   1.850   4.724   5.079  0.2296  0.1539 -0.3246
20005TIP3    H181506   1.851   4.773   4.997  0.7939 -0.1005 -0.4703
20005TIP3    H281507   1.819   4.637   5.054  2.2667 -0.5278 -0.6180
20006TIP3   OH281508   2.669   6.021  15.141 -0.2617 -0.5363 -0.0996
20006TIP3    H181509   2.764   6.012  15.147 -0.2983 -0.1544  2.4199
20006TIP3    H281510   2.639   5.938  15.104  0.9982 -1.0909  0.0733
20007TIP3   OH281511   0.080   1.936  12.083  0.0310  0.3118  0.0783
20007TIP3    H181512   0.068   1.969  12.172  0.3047 -0.0023  0.2359
20007TIP3    H281513   0.029   1.995  12.028 -1.6621 -0.5656  0.6370
20008TIP3   OH281514   5.023   0.572   4.576 -0.2820  0.2783 -0.3566
20008TIP3    H181515   4.984   0.490   4.606  1.6795 -0.1613  1.2399
20008TIP3    H281516   5.104   0.546   4.532 -0.0710  1.3024 -0.6088
20009TIP3   OH281517   5.057   5.310  11.469 -0.2178 -0.6299 -0.1687
20009TIP3    H181518   4.997   5.365  11.420  0.4799 -0.4666 -0.8579
20009TIP3    H281519   5.027   5.316  11.560 -1.2853 -0.6245 -0.5078
20010TIP3   OH281520   6.286   3.737   5.678 -0.1109  0.5067 -0.1168
20010TIP3    H181521   6.270   3.815   5.732 -1.8648 -0.8917  1.4972
20010TIP3    H281522   6.300   3.667   5.741 -0.2719 -0.8276 -1.5209
20011TIP3   OH281523   2.480   3.283  16.779  0.0739  0.4710 -0.5619
20011TIP3    H181524   2.550   3.329  16.827  0.3846 -0.2167 -0.3381
20011TIP3    H281525   2.527   3.226  16.719 -0.1962 -1.6749  1.1376
20012TIP3   OH281526   3.861   1.874  14.901  0.0537  0.9349 -0.0155
20012TIP3    H181527   3.936   1.816  14.894 -0.9026 -0.3510  0.1482
20012TIP3    H281528   3.789   1.826  14.861 -1.0499  1.4745  1.2467
20013TIP3   OH281529   4.855   4.803  11.622  0.1020 -0.2398 -0.0219
20013TIP3    H181530   4.894   4.735  11.568 -0.2359 -0.6372  0.2309
20013TIP3    H281531   4.765   4.811  11.590  0.1049  0.0021  0.0285
20014TIP3   OH281532   2.136   2.106  11.121 -0.0097  0.1677 -0.4282
20014TIP3    H181533   2.177   2.148  11.045  0.0533 -0.6651 -0.8740
20014TIP3    H281534   2.201   2.111  11.190  0.9324 -1.2566 -1.1649
20015TIP3   OH281535   6.428   1.116  11.132 -0.1310  0.0860  0.1841
20015TIP3    H181536   6.378   1.131  11.052 -0.2618  0.9625  0.4122
20015TIP3    H281537   6.374   1.155  11.201 -2.3791 -4.6487  1.5344
20016TIP3   OH281538   6.124   3.681  10.995  0.2654  0.2900 -0.0202
20016TIP3    H181539   6.209   3.700  10.956  1.9419 -2.1097  2.1491
20016TIP3    H281540   6.064   3.675  10.921  1.6436  3.1673 -1.5389
20017TIP3   OH281541   1.225   3.590   4.276 -0.1365  0.3968  0.3142
20017TIP3    H181542   1.182   3.604   4.361  1.4737  0.2475  1.2041
20017TIP3    H281543   1.213   3.497   4.258 -0.6274  0.4622  0.2920
20018TIP3   OH281544   2.284   1.658   5.834  0.1262 -0.0929  0.7362
20018TIP3    H181545   2.356   1.710   5.797 -1.1873  2.1145  1.1191
20018TIP3    H281546   2.269   1.589   5.769  1.7343  0.1677  0.0356
20019TIP3   OH281547   1.823   3.616  16.395  1.0563  0.2114 -0.8300
20019TIP3    H181548   1.768   3.619  16.317 -2.0126  0.1638  1.1786
20019TIP3    H281549   1.866   3.702  16.397  0.5315  0.5377 -2.0928
20020TIP3   OH281550   6.501   2.196   0.479 -0.2210  0.2928 -0.2570
20020TIP3    H181551   6.531   2.184   0.389 -0.7357  1.6991 -0.6594
20020TIP3    H281552   6.427   2.136   0.488  1.3414 -1.6610  0.0666
20021TIP3   OH281553   1.679   3.656  16.941 -0.3233 -0.0853 -0.7212
20021TIP3    H181554   1.680   3.614  16.855  0.9773  0.7586 -1.1518
20021TIP3    H281555   1.753   3.717  16.938  0.2799 -0.6621  1.3119
20022TIP3   OH281556   6.632   3.510   2.944  0.4585 -0.0657 -0.0126
20022TIP3    H181557   6.711   3.549   2.980 -0.2419  0.3339  1.1273
20022TIP3    H281558   6.663   3.432   2.898  1.3915 -0.6271  1.4932
20023TIP3   OH281559   4.993   0.165  16.132  0.0190  0.1524  0.3162
20023TIP3    H181560   5.054   0.118  16.189 -0.1255 -0.3018  0.1009
20023TIP3    H281561   4.975   0.247  16.178 -0.2690 -0.3050  1.0275
20024TIP3   OH281562   2.968   2.434   0.776 -0.2019  0.2568  0.0008
20024TIP3    H181563   3.035   2.422   0.843 -0.6237  0.3786  0.4468
20024TIP3    H281564   2.927   2.348   0.768 -0.0445  0.1993 -0.2268
20025TIP3   OH281565   4.858   0.927   0.013  0.6875  0.5450 -0.5060
20025TIP3    H181566   4.861   1.022   0.010 -1.3024  0.6985  0.2697
20025TIP3    H281567   4.914   0.903   0.087  1.8331  1.0354 -1.2026
20026TIP3   OH281568   5.455   1.927  12.892  0.1229  0.1266  0.2919
20026TIP3    H181569   5.364   1.916  12.862 -0.1747  0.3232  1.0988
20026TIP3    H281570   5.508   1.885  12.824 -0.5462  0.3476 -0.3874
20027TIP3   OH281571   1.653   6.586  14.453 -0.1443  0.3432  0.4945
20027TIP3    H181572   1.695   6.529  14.518  0.7367  0.7936  0.3353
20027TIP3    H281573   1.593   6.641  14.504  1.9708  2.0639  1.2613
20028TIP3   OH281574   3.971   3.998   2.705 -0.7295  0.6616  0.4581
20028TIP3    H181575   3.964   3.994   2.609 -0.1257  1.4641  0.3755
20028TIP3    H281576   3.895   3.949   2.736 -0.1878 -0.8437 -0.4312
20029TIP3   OH281577   4.654   5.042  11.862  0.1961  0.8014 -0.4594
20029TIP3    H181578   4.678   4.952  11.882  1.4817  0.8360 -1.6709
20029TIP3    H281579   4.606   5.072  11.939  0.0950 -0.7786  0.1307
20030TIP3   OH281580   3.295   3.131   2.688  0.0666 -0.5495 -0.1655
20030TIP3    H181581   3.368   3.069   2.686 -0.2232 -0.8918 -1.3850
20030TIP3    H281582   3.259   3.128   2.599 -1.2253 -0.1473  0.3133
20031TIP3   OH281583   0.661   2.163  12.869  0.5295  0.5372 -0.2877
20031TIP3    H181584   0.569   2.192  12.866 -0.3858 -2.1140 -0.3537
20031TIP3    H281585   0.693   2.177  12.780  0.0796  1.0902 -0.3743
20032TIP3   OH281586   2.049   6.302  16.160  0.7320 -0.6943  0.3576
20032TIP3    H181587   2.060   6.289  16.254  1.1628 -2.6615  0.0747
20032TIP3    H281588   2.121   6.361  16.136  1.2622 -1.0230  1.0962
20033TIP3   OH281589   2.797   5.748  13.204 -0.7265  0.1113  0.1061
20033TIP3    H181590   2.824   5.663  13.169 -1.9293 -0.2000 -0.1049
20033TIP3    H281591   2.711   5.732  13.244 -1.5340  1.4614 -0.9785
20034TIP3   OH281592   5.222   6.702  13.664 -0.2928 -0.4020 -0.1439
20034TIP3    H181593   5.168   6.723  13.740  0.2434  1.5945 -0.2533
20034TIP3    H281594   5.310   6.731  13.688  0.1027 -0.7292 -1.1237
20035TIP3   OH281595   2.228   0.086  12.215 -0.5216  0.0090  0.4088
20035TIP3    H181596   2.300   0.085  12.278 -0.3977 -1.0109  0.2604
20035TIP3    H281597   2.149   0.080  12.269 -0.5723  1.8846  0.6269
20036TIP3   OH281598   0.353   5.193  10.606  0.4454  0.3069  0.0825
20036TIP3    H181599   0.379   5.111  10.648  2.7758  0.1099 -1.5271
20036TIP3    H281600   0.342   5.254  10.678 -0.0161 -1.0559  1.2257
20037TIP3   OH281601   1.729   5.124   1.503  0.3919  0.4383  0.5121
20037TIP3    H181602   1.781   5.051   1.538  1.6768  0.8062 -0.5442
20037TIP3    H281603   1.751   5.198   1.560  0.1527  0.3322  0.7450
20038TIP3   OH281604   1.435   0.204  11.846 -0.7431 -0.3729  0.2355
20038TIP3    H181605   1.526   0.212  11.876 -0.8687 -2.0176  1.1711
20038TIP3    H281606   1.407   0.294  11.832  0.7719  0.2166  0.7219
20039TIP3   OH281607   5.524   4.768  15.968 -0.0669  0.0661 -0.2454
20039TIP3    H181608   5.430   4.766  15.988  0.2632  0.3403  1.5997
20039TIP3    H281609   5.552   4.677  15.971 -0.1349  0.0529  0.1193
20040TIP3   OH281610   3.224   0.564  14.233 -0.0922 -0.2019  0.1080
20040TIP3    H181611   3.142   0.559  14.283 -0.0829 -1.8509  0.0230
20040TIP3    H281612   3.197   0.559  14.142  0.1467 -4.2890  0.0731
20041TIP3   OH281613   5.213   4.177   4.970  0.0173 -0.0808  0.3754
20041TIP3    H181614   5.238   4.141   4.884 -1.2314  0.3644 -0.1900
20041TIP3    H281615   5.124   4.146   4.984 -0.3504  1.1285  0.8024
20042TIP3   OH281616   0.718   1.451  12.773  0.2017  0.8535 -0.2652
20042TIP3    H181617   0.795   1.440  12.718  1.1308  1.4162  0.8615
20042TIP3    H281618   0.749   1.434  12.862 -0.4150  3.1668  0.4870
20043TIP3   OH281619   5.459   0.333   2.181 -0.1787 -0.3091 -0.2695
20043TIP3    H181620   5.453   0.347   2.276 -0.0888  0.2538 -0.3410
20043TIP3    H281621   5.372   0.355   2.149  0.1711  0.8429 -0.4712
20044TIP3   OH281622   0.130   4.843   4.814 -0.1824 -0.1424 -0.3448
20044TIP3    H181623   0.067   4.838   4.886  0.3875 -0.7066  0.1223
20044TIP3    H281624   0.216   4.838   4.857  0.2513  2.0863 -0.8287
20045TIP3   OH281625   0.226   4.713  13.216 -0.2207 -0.1505  0.4739
20045TIP3    H181626   0.288   4.674  13.155 -0.0668 -1.9924  1.7429
20045TIP3    H281627   0.177   4.776  13.163  2.3382  1.0303 -0.6906
20046TIP3   OH281628   6.163   0.653   2.795 -0.3504 -0.2285  0.1734
20046TIP3    H181629   6.072   0.671   2.771 -1.3688 -1.8645  2.4873
20046TIP3    H281630   6.183   0.718   2.863 -0.5040 -1.1422  1.1075
20047TIP3   OH281631   2.373   6.139  11.441 -0.5474 -0.2297  0.2652
20047TIP3    H181632   2.332   6.058  11.411  1.0744 -1.3549  0.9015
20047TIP3    H281633   2.411   6.177  11.361  0.2520 -1.0859  0.2105
20048TIP3   OH281634   4.943   5.134   0.734  0.0346  0.0319  0.2229
20048TIP3    H181635   4.945   5.230   0.737  0.0068  0.0129  1.2496
20048TIP3    H281636   4.870   5.110   0.791 -0.6662 -0.5857 -0.8916
20049TIP3   OH281637   3.523   1.688   3.301  0.4181  0.2247  0.1944
20049TIP3    H181638   3.518   1.628   3.375  1.7464  0.7855  0.7702
20049TIP3    H281639   3.465   1.650   3.235 -1.0358 -0.1316  1.6201
20050TIP3   OH281640   2.426   6.345   3.317 -0.2882 -0.0128 -0.4012
20050TIP3    H181641   2.474   6.266   3.341  0.7920  0.6774 -0.2534
20050TIP3    H281642   2.412   6.336   3.223  1.4110  0.4394 -0.7223
20051TIP3   OH281643   5.900   5.185  17.156 -0.0344 -0.3526 -0.2584
20051TIP3    H181644   5.888   5.103  17.108  0.2120 -0.8369  0.4989
20051TIP3    H281645   5.824   5.192  17.213  0.7771 -0.9510  0.9494
20052TIP3   OH281646   3.483   4.627   2.723  0.2180 -0.2289 -0.3838
20052TIP3    H181647   3.577   4.615   2.736 -0.0732 -2.9898 -0.3208
20052TIP3    H281648   3.467   4.596   2.634 -0.8603 -1.4005  0.1899
20053TIP3   OH281649   6.069   3.361  11.147 -0.2473  0.3645 -0.2330
20053TIP3    H181650   5.981   3.390  11.122  0.0000  0.4127 -1.0661
20053TIP3    H281651   6.126   3.392  11.077  0.6239  1.3477  0.8729
20054TIP3   OH281652   6.620   2.836  11.970  0.1393 -0.1947  0.0048
20054TIP3    H181653   6.707   2.797  11.967  0.3482  0.3043 -1.0295
20054TIP3    H281654   6.576   2.793  12.043  1.4951  0.0908  1.0067
20055TIP3   OH281655   3.728   4.073  11.218  0.8230  0.8167  0.3307
20055TIP3    H181656   3.785   4.003  11.187  0.7543  0.0682  1.8487
20055TIP3    H281657   3.757   4.090  11.307 -1.1532  0.5982  1.0512
20056TIP3   OH281658   4.169   5.788  12.922 -0.2792  0.0967  0.8479
20056TIP3    H181659   4.242   5.822  12.974  0.3462  2.2909 -1.3008
20056TIP3    H281660   4.091   5.828  12.962  0.2489  2.2935 -0.1677
20057TIP3   OH281661   4.109   3.370   0.398 -0.1796  0.1963 -0.0687
20057TIP3    H181662   4.092   3.365   0.492 -0.1578  1.3702  0.0023
20057TIP3    H281663   4.182   3.310   0.384 -0.8618 -0.8041  0.4764
20058TIP3   OH281664   5.663   5.809  12.780  0.4958 -0.0072 -0.3689
20058TIP3    H181665   5.658   5.726  12.828 -1.1888 -0.0633 -0.5838
20058TIP3    H281666   5.728   5.860  12.828  0.0246 -0.6715  1.0235
20059TIP3   OH281667   5.051   4.097  16.381 -0.1721  0.1667 -0.3149
20059TIP3    H181668   5.144   4.108  16.359  0.9698 -0.5509  3.3789
20059TIP3    H281669   5.013   4.184  16.368  1.3968  0.8589 -0.4745
20060TIP3   OH281670   0.943   4.210   0.288  0.3209  0.0565 -0.4998
20060TIP3    H181671   0.857   4.186   0.252  0.8977 -1.0521 -1.2361
20060TIP3    H281672   0.971   4.132   0.336  0.5559  0.7193  0.4667
20061TIP3   OH281673   3.207   5.289  14.128 -0.2410  0.1011  0.4951
20061TIP3    H181674   3.161   5.244  14.199 -0.8337  1.0737  0.7362
20061TIP3    H281675   3.278   5.229  14.104 -0.5463 -0.6127  1.3325
20062TIP3   OH281676   0.458   0.952   5.290 -0.0630  0.0891 -0.1143
20062TIP3    H181677   0.450   0.964   5.196  2.2791 -0.2752 -0.4379
20062TIP3    H281678   0.368   0.941   5.321 -0.8765 -0.0205 -2.3213
20063TIP3   OH281679   0.072   4.277   5.116  0.9958  0.3524 -0.0902
20063TIP3    H181680   0.050   4.309   5.204 -2.2875 -2.1064  0.1583
20063TIP3    H281681   0.130   4.202   5.132  0.1508 -0.2874  0.0601
20064TIP3   OH281682   3.747   6.398   2.013  0.1167  0.2471 -0.1600
20064TIP3    H181683   3.749   6.302   2.018  0.2539  0.1953 -1.0776
20064TIP3    H281684   3.816   6.420   1.951 -1.2006  0.8139 -1.4896
20065TIP3   OH281685   1.651   5.974  16.784  0.6065  0.4373 -0.2962
20065TIP3    H181686   1.656   5.960  16.879 -0.2991 -1.7359 -0.5130
20065TIP3    H281687   1.715   5.914  16.747  1.6840  1.9813 -1.0846
20066TIP3   OH281688   3.925   5.949   3.861 -0.0202 -0.3602 -0.1831
20066TIP3    H181689   3.928   5.898   3.942 -1.4359 -0.7294 -0.3288
20066TIP3    H281690   3.859   6.016   3.878 -1.2463 -1.1815 -1.4026
20067TIP3   OH281691   5.550   2.620   2.350 -0.1634 -0.2332  0.0547
20067TIP3    H181692   5.621   2.576   2.397  0.3916  1.4496  0.8600
20067TIP3    H281693   5.490   2.649   2.419  0.7124  2.3581 -0.1873
20068TIP3   OH281694   3.702   2.313  14.354  0.0293 -0.1286 -0.3884
20068TIP3    H181695   3.701   2.220  14.375 -1.6107 -0.3702 -1.2791
20068TIP3    H281696   3.743   2.317  14.267 -0.2442 -0.0784 -0.5168
20069TIP3   OH281697   5.990   4.853   6.773 -0.5994 -0.2773  0.2716
20069TIP3    H181698   5.904   4.822   6.802 -1.1132 -0.0554 -0.9358
20069TIP3    H281699   6.000   4.938   6.815 -0.1309 -1.0876  1.8892
20070TIP3   OH281700   1.414   2.778  11.059 -0.2313 -0.2375 -0.8203
20070TIP3    H181701   1.320   2.764  11.044 -0.6221 -1.0108  1.8164
20070TIP3    H281702   1.418   2.860  11.108  0.2041 -1.2394  0.9161
20071TIP3   OH281703   6.302   0.854  11.105  0.2213  0.6582  0.6393
20071TIP3    H181704   6.360   0.928  11.087 -1.1174  1.6633  0.3112
20071TIP3    H281705   6.258   0.838  11.022 -0.2587  0.1750  0.9822
20072TIP3   OH281706   1.681   2.887   4.425  0.2623 -0.0034  0.1045
20072TIP3    H181707   1.655   2.870   4.334 -0.0959  0.8259  0.0443
20072TIP3    H281708   1.762   2.838   4.436  0.7654  0.5539 -0.9219
20073TIP3   OH281709   2.204   2.302   2.663  0.3905  0.2445 -0.2730
20073TIP3    H181710   2.162   2.347   2.737  1.5957 -1.7871  1.7651
20073TIP3    H281711   2.230   2.373   2.605 -0.9184  1.9224  1.0645
20074TIP3   OH281712   0.966   5.902  16.973 -0.5281 -0.1081 -0.4940
20074TIP3    H181713   0.916   5.953  17.036 -0.9473 -0.5320 -0.4829
20074TIP3    H281714   1.020   5.967  16.927  0.9266  0.0512  1.3196
20075TIP3   OH281715   5.812   4.308   1.282 -0.6275 -0.3496 -0.1492
20075TIP3    H181716   5.812   4.377   1.348 -1.8824  1.0328 -1.5296
20075TIP3    H281717   5.751   4.242   1.317 -1.4143  0.4447  0.0333
20076TIP3   OH281718   4.339   5.697   2.583 -0.1368  0.3285 -0.0555
20076TIP3    H181719   4.300   5.620   2.624  1.7619  0.0118  1.2725
20076TIP3    H281720   4.431   5.674   2.571 -0.0455  1.5029 -1.9030
20077TIP3   OH281721   6.512   3.745   1.726 -0.1871  0.0624  0.0491
20077TIP3    H181722   6.506   3.805   1.800  0.2360 -1.2117  1.1654
20077TIP3    H281723   6.589   3.774   1.677 -0.6615  1.1175 -0.0854
20078TIP3   OH281724   2.998   2.450  16.894  0.1263  0.2423  0.3026
20078TIP3    H181725   2.919   2.411  16.932 -0.8950  2.4548  0.6254
20078TIP3    H281726   3.069   2.419  16.949 -0.7612 -0.2593  1.2091
20079TIP3   OH281727   2.634   0.442  13.814 -0.3393  0.3426 -0.0309
20079TIP3    H181728   2.670   0.437  13.902 -0.1677 -2.1647 -0.1773
20079TIP3    H281729   2.585   0.524  13.813 -0.8747  0.1502  2.6073
20080TIP3   OH281730   6.656   2.986  15.054  0.2298 -0.4090  0.2692
20080TIP3    H181731   6.751   2.978  15.056  0.3296  0.7529  0.9122
20080TIP3    H281732   6.635   3.048  15.124 -0.8595  0.5601 -0.8659
20081TIP3   OH281733   6.461   1.350  13.661 -0.6658  0.2767 -0.1785
20081TIP3    H181734   6.456   1.397  13.744  0.7429 -2.0731  1.3426
20081TIP3    H281735   6.374   1.310  13.651 -0.8044  0.4617  0.2483
20082TIP3   OH281736   3.680   1.298  13.034 -0.8324 -0.1798 -0.2217
20082TIP3    H181737   3.673   1.379  12.983 -2.2786 -0.1973 -0.1092
20082TIP3    H281738   3.719   1.235  12.973 -1.3060  0.1576 -0.8972
20083TIP3   OH281739   1.081   2.658  16.699  0.5273  0.2960 -0.1206
20083TIP3    H181740   1.115   2.595  16.635 -1.7071  0.8946 -2.0200
20083TIP3    H281741   1.075   2.741  16.651 -1.2712  0.7635  0.8216
20084TIP3   OH281742   4.185   0.405   3.991 -0.9380  0.1077  0.8063
20084TIP3    H181743   4.245   0.479   3.997 -2.3847  1.2825  1.6597
20084TIP3    H281744   4.238   0.329   4.012  0.2215  1.1205  1.6870
20085TIP3   OH281745   3.484   1.147   4.813 -0.2387 -0.0698 -0.5523
20085TIP3    H181746   3.439   1.188   4.739 -1.3858 -3.0867 -1.7201
20085TIP3    H281747   3.551   1.092   4.771 -0.4345 -1.2925  0.6803
20086TIP3   OH281748   2.772   0.224  13.354  0.9424 -0.2206 -0.1247
20086TIP3    H181749   2.706   0.155  13.347  0.0834  0.5846 -0.1018
20086TIP3    H281750   2.820   0.202  13.434  0.2400 -0.4256  0.2523
20087TIP3   OH281751   5.436   2.601  13.934 -0.0882  0.1433  0.3382
20087TIP3    H181752   5.346   2.598  13.901 -0.5805 -2.1237  1.6659
20087TIP3    H281753   5.489   2.578  13.858 -0.8048 -0.4502 -0.0048
20088TIP3   OH281754   4.407   2.459   2.628  0.3463 -0.0818 -0.2426
20088TIP3    H181755   4.492   2.501   2.616 -0.2417  1.2947  0.1966
20088TIP3    H281756   4.423   2.366   2.609  2.1801 -0.0588  0.8961
20089TIP3   OH281757   4.871   1.103   4.255 -0.5899 -0.3317  0.1107
20089TIP3    H181758   4.900   1.190   4.282 -0.6558  0.4021 -2.0179
20089TIP3    H281759   4.819   1.071   4.329 -0.9824  1.6310  0.7355
20090TIP3   OH281760   0.643   1.298  11.993  0.2659 -0.2286  0.3659
20090TIP3    H181761   0.621   1.211  11.959  4.2747 -1.5318  0.5537
20090TIP3    H281762   0.585   1.358  11.946 -2.1790 -2.8901 -0.2832
20091TIP3   OH281763   1.516   6.245   3.992  0.0029  0.7915 -0.5433
20091TIP3    H181764   1.491   6.167   4.041 -0.2571  0.8145 -0.6407
20091TIP3    H281765   1.439   6.267   3.939 -0.0345  1.2867 -0.2929
20092TIP3   OH281766   3.981   3.722   6.414  0.2899  0.1264 -0.1217
20092TIP3    H181767   3.900   3.759   6.448  0.8300  0.2562  1.0840
20092TIP3    H281768   3.966   3.627   6.412  0.8532 -0.0754  2.3090
20093TIP3   OH281769   6.521   1.366  15.889 -0.2739  0.0092 -0.2946
20093TIP3    H181770   6.497   1.415  15.810 -1.6296  0.6491  0.4795
20093TIP3    H281771   6.441   1.319  15.913  0.2510 -0.5236  0.4566
20094TIP3   OH281772   3.457   1.295   4.159 -0.2280  0.0066 -0.2422
20094TIP3    H181773   3.423   1.289   4.248 -1.5393 -1.1400 -0.7876
20094TIP3    H281774   3.435   1.384   4.130 -0.5177  0.1055  0.2803
20095TIP3   OH281775   5.114   4.029  11.252  0.4896  0.3879  0.3048
20095TIP3    H181776   5.196   4.065  11.217  1.0681 -0.5685  0.6169
20095TIP3    H281777   5.142   3.973  11.325 -0.4566  0.1194  0.4736
20096TIP3   OH281778   1.215   3.707   3.399 -0.1048  0.4860 -0.0016
20096TIP3    H181779   1.298   3.756   3.400  0.5984 -0.6086  2.4048
20096TIP3    H281780   1.162   3.748   3.467 -0.7391 -0.0896 -0.1399
20097TIP3   OH281781   6.227   5.736  15.590  0.5416 -0.1066 -0.3848
20097TIP3    H181782   6.294   5.740  15.521  2.2408  1.2008  1.2215
20097TIP3    H281783   6.147   5.712  15.544  2.2123 -2.4424 -2.3291
20098TIP3   OH281784   0.419   3.593   0.511 -0.7374 -0.2891  0.3074
20098TIP3    H181785   0.374   3.585   0.595 -1.4644  1.5704  0.1322
20098TIP3    H281786   0.510   3.611   0.533 -1.0905  1.0359  0.7177
20099TIP3   OH281787   4.357   5.350   5.423 -0.1240 -0.4928 -0.0788
20099TIP3    H181788   4.423   5.413   5.394 -1.1724 -0.4296 -2.5877
20099TIP3    H281789   4.279   5.373   5.373 -1.1736 -2.4477  0.5790
20100TIP3   OH281790   2.235   1.809   4.178  0.0264  0.5787 -0.2362
20100TIP3    H181791   2.213   1.878   4.116  1.4810  0.1898 -1.2327
20100TIP3    H281792   2.313   1.841   4.223 -0.1121  0.1782  0.3093
20101TIP3   OH281793   1.669   0.363  14.957 -0.2758  0.2043 -0.5250
20101TIP3    H181794   1.690   0.271  14.968 -2.0345 -0.2649 -0.6507
20101TIP3    H281795   1.753   0.407  14.943  0.7255 -1.1306  1.0706
20102TIP3   OH281796   4.216   2.991   0.431  0.0040  0.5531  0.0218
20102TIP3    H181797   4.225   2.899   0.406  0.6841  0.1833  1.5172
20102TIP3    H281798   4.129   2.996   0.471  0.5001  0.2089  1.2065
20103TIP3   OH281799   2.296   6.709  14.752 -0.1155 -0.0083 -0.0838
20103TIP3    H181800   2.354   6.684  14.680 -0.1787  1.6805 -0.7703
20103TIP3    H281801   2.215   6.660  14.735  0.0149  0.0461 -0.9412
20104TIP3   OH281802   4.400   3.847   4.953  0.4269 -0.2578  0.1742
20104TIP3    H181803   4.319   3.841   5.003  1.7421  1.1919  2.6465
20104TIP3    H281804   4.372   3.842   4.861 -2.5133  1.0058  0.9008
20105TIP3   OH281805   5.368   3.550  16.651 -0.1240  0.0479  0.1206
20105TIP3    H181806   5.456   3.589  16.649  0.1797 -0.5377  1.2640
20105TIP3    H281807   5.383   3.456  16.645 -0.7035 -0.0401 -0.0212
20106TIP3   OH281808   3.980   5.252   1.176  0.8281 -0.1154  0.4711
20106TIP3    H181809   3.997   5.224   1.266 -0.4335  0.8611  1.0603
20106TIP3    H281810   3.959   5.345   1.184  0.2346 -0.1173 -0.7714
20107TIP3   OH281811   0.353   0.760   1.018  0.1441 -0.2064 -0.1878
20107TIP3    H181812   0.447   0.769   0.998  0.2979 -1.7194 -0.2268
20107TIP3    H281813   0.336   0.666   1.011 -1.3539  0.0378 -0.0346
20108TIP3   OH281814   0.502   1.494  15.176 -0.4306  0.8102  0.0120
20108TIP3    H181815   0.442   1.501  15.249  0.3081  0.9630  0.6188
20108TIP3    H281816   0.458   1.538  15.103 -0.5684  1.9331  0.7600
20109TIP3   OH281817   1.504   0.494   3.096  0.0240 -0.0894  0.0032
20109TIP3    H181818   1.549   0.508   3.012  0.0728 -0.7410 -0.0841
20109TIP3    H281819   1.459   0.577   3.113  0.4667  0.2409 -0.3912
20110TIP3   OH281820   4.907   1.767  14.701  0.2321  0.5465 -0.1386
20110TIP3    H181821   4.966   1.829  14.658  0.6995  1.0390  1.1641
20110TIP3    H281822   4.929   1.682  14.663  3.6974  0.2309  2.1124
20111TIP3   OH281823   0.441   4.321  11.018  0.1970  0.0750  0.4299
20111TIP3    H181824   0.379   4.340  11.088  0.3003 -2.2546  1.2516
20111TIP3    H281825   0.459   4.227  11.027  0.8736 -0.1290 -2.2078
20112TIP3   OH281826   0.496   1.864  12.721  0.2130  0.0373 -0.2641
20112TIP3    H181827   0.523   1.914  12.644  0.1231 -1.2357 -1.1631
20112TIP3    H281828   0.483   1.775  12.688 -1.7931 -0.1320  0.7965
20113TIP3   OH281829   3.820   0.939  15.965  0.1438  0.2539 -0.0134
20113TIP3    H181830   3.881   0.939  16.039  1.3897  1.0777 -0.9995
20113TIP3    H281831   3.876   0.946  15.888 -0.9542 -2.4942 -1.2142
20114TIP3   OH281832   0.103   1.355   1.224 -0.3681 -0.2130  0.0971
20114TIP3    H181833   0.133   1.423   1.284  0.2199 -1.0371  0.7796
20114TIP3    H281834   0.114   1.392   1.137  1.0465  0.1457  0.4072
20115TIP3   OH281835   1.658   4.888   5.903  0.1312 -0.4280 -0.1239
20115TIP3    H181836   1.574   4.919   5.870 -0.1783 -0.5788  0.5219
20115TIP3    H281837   1.684   4.951   5.970  0.0786 -0.8919  0.3386
20116TIP3   OH281838   5.279   4.112   0.729 -0.1090  0.0449 -0.2036
20116TIP3    H181839   5.296   4.105   0.635  0.5671 -0.2882 -0.0593
20116TIP3    H281840   5.184   4.121   0.735 -0.1046  0.7363 -0.9562
20117TIP3   OH281841   4.804   0.892   3.657  0.7049 -0.1812  0.7038
20117TIP3    H181842   4.841   0.933   3.735  0.9670  0.9243  0.0329
20117TIP3    H281843   4.820   0.956   3.587 -1.3374 -0.2131  0.1295
20118TIP3   OH281844   0.986   3.706   3.801 -0.3733 -0.0512 -0.0937
20118TIP3    H181845   0.969   3.762   3.876 -1.2121  0.1984 -0.4595
20118TIP3    H281846   0.902   3.701   3.756 -0.0043 -0.6216 -0.7282
20119TIP3   OH281847   0.299   6.595  15.183 -0.0807  0.2703  0.8862
20119TIP3    H181848   0.276   6.602  15.090 -1.0715 -0.9143  1.0215
20119TIP3    H281849   0.382   6.547  15.184 -0.0265  0.3568  0.6230
20120TIP3   OH281850   6.277   5.465  12.129  0.2267 -0.0755 -0.1583
20120TIP3    H181851   6.364   5.434  12.105  0.4507  0.1621  0.3095
20120TIP3    H281852   6.247   5.402  12.194  0.0506 -0.1559 -0.3186
20121TIP3   OH281853   1.136   3.075   4.882 -0.4081 -0.3563  0.2174
20121TIP3    H181854   1.181   3.022   4.816  0.6039  0.4689  0.2230
20121TIP3    H281855   1.202   3.091   4.949 -0.0976  2.3670 -0.6198
20122TIP3   OH281856   6.425   3.282   3.748 -0.0112  0.7170  0.3184
20122TIP3    H181857   6.466   3.363   3.716  1.1975  0.6698  1.6053
20122TIP3    H281858   6.488   3.249   3.813 -0.9715 -0.7162  0.5457
20123TIP3   OH281859   0.382   0.532   2.505  0.2996  0.0075  0.7132
20123TIP3    H181860   0.314   0.517   2.440  0.4828  0.7658  0.3343
20123TIP3    H281861   0.337   0.527   2.589  0.2422 -2.0583  0.6171
20124TIP3   OH281862   5.733   2.982  14.083  0.3644  0.0623 -0.0381
20124TIP3    H181863   5.640   2.997  14.066  0.1399 -0.2179  0.8972
20124TIP3    H281864   5.744   2.887  14.075  0.4198  0.0175  0.5634
20125TIP3   OH281865   0.406   5.994  11.736  0.3511  0.0877  0.6681
20125TIP3    H181866   0.496   5.967  11.714 -0.1557  0.0554 -1.5637
20125TIP3    H281867   0.410   6.014  11.830  2.8288  0.6542  0.5192
20126TIP3   OH281868   5.908   4.737  11.635  0.7459 -0.2971 -0.0986
20126TIP3    H181869   5.869   4.767  11.717 -0.6257  0.1244 -0.8671
20126TIP3    H281870   5.863   4.787  11.568  1.7101 -0.7790 -1.1332
20127TIP3   OH281871   2.781   6.345   1.690  0.1980 -0.0749  0.3195
20127TIP3    H181872   2.716   6.306   1.748 -0.5447 -0.0383 -0.4746
20127TIP3    H281873   2.797   6.432   1.727 -0.5786  0.1070  0.2405
20128TIP3   OH281874   0.576   3.057  11.411  0.6464  0.1312  0.1731
20128TIP3    H181875   0.606   2.968  11.393 -2.0329 -0.5798 -1.4727
20128TIP3    H281876   0.585   3.103  11.328 -1.7377  0.1118 -0.1789
20129TIP3   OH281877   5.925   2.433  17.301  0.3662 -0.5946  0.3423
20129TIP3    H181878   5.954   2.442  17.392 -0.1357  0.7780  0.3998
20129TIP3    H281879   5.961   2.350  17.272  1.1527 -0.7094  1.5751
20130TIP3   OH281880   5.812   4.326   2.164 -0.0879  0.1145 -0.7329
20130TIP3    H181881   5.883   4.263   2.154 -0.3311 -0.0590 -1.4333
20130TIP3    H281882   5.775   4.335   2.076 -1.6970 -0.6967 -0.1912
20131TIP3   OH281883   0.811   6.413  17.004  0.2130  0.4009  0.2770
20131TIP3    H181884   0.869   6.484  17.032  1.2495  0.0275 -0.8220
20131TIP3    H281885   0.831   6.341  17.064 -1.1237  1.1113  1.6457
20132TIP3   OH281886   1.654   3.292  14.641 -0.4178  0.3428 -0.2351
20132TIP3    H181887   1.699   3.301  14.557  1.6511  1.2766  0.9083
20132TIP3    H281888   1.622   3.202  14.642 -0.2515  0.2351 -1.8940
20133TIP3   OH281889   2.136   3.342  12.196 -0.0278 -0.3048 -0.1434
20133TIP3    H181890   2.053   3.377  12.226 -0.2658 -0.1846 -0.9080
20133TIP3    H281891   2.158   3.274  12.259 -0.7476 -0.3956  0.0143
20134TIP3   OH281892   5.670   6.203   2.132  0.4203 -0.0338 -0.0987
20134TIP3    H181893   5.660   6.254   2.212  0.2293 -1.1879  0.6353
20134TIP3    H281894   5.668   6.112   2.161  1.7947 -0.4703 -1.2422
20135TIP3   OH281895   3.463   1.671  12.552  0.9837 -0.0452 -0.4479
20135TIP3    H181896   3.505   1.585  12.563 -1.7338 -1.4421 -0.1486
20135TIP3    H281897   3.369   1.652  12.553  0.1779  3.2273  1.8955
20136TIP3   OH281898   1.602   0.440  12.779  0.1471 -0.3146 -0.2152
20136TIP3    H181899   1.597   0.367  12.840  1.5004 -0.9150 -0.7937
20136TIP3    H281900   1.645   0.510  12.827 -0.6481 -0.0727  0.1601
20137TIP3   OH281901   0.716   0.151  11.332 -0.0866  0.8219  0.3807
20137TIP3    H181902   0.666   0.150  11.250 -0.8659  1.4432  0.8377
20137TIP3    H281903   0.668   0.212  11.388  0.8228  0.9186  1.0629
20138TIP3   OH281904   3.889   0.096   2.217 -0.3954 -0.2975  0.3233
20138TIP3    H181905   3.979   0.126   2.230 -0.6277  0.4544  0.2726
20138TIP3    H281906   3.862   0.062   2.302 -0.5027  0.7266  0.7225
20139TIP3   OH281907   3.627   3.701  15.538 -0.2972  0.2747 -0.5780
20139TIP3    H181908   3.532   3.698  15.529 -0.4099 -0.1339  0.4983
20139TIP3    H281909   3.641   3.703  15.633  0.7373  1.7157 -0.7349
20140TIP3   OH281910   5.955   4.717   2.095  0.4907  0.0822  0.2826
20140TIP3    H181911   5.863   4.693   2.081  0.5350 -0.7333  1.2958
20140TIP3    H281912   5.953   4.773   2.172  0.7110  1.1124 -0.4483
20141TIP3   OH281913   1.522   6.639   4.420  0.4295  0.8026 -0.5296
20141TIP3    H181914   1.614   6.653   4.443  0.5462  0.3972 -0.7220
20141TIP3    H281915   1.526   6.601   4.332  0.2061 -1.1996  0.2748
20142TIP3   OH281916   3.720   2.317   4.305  0.0895 -0.5257 -0.0362
20142TIP3    H181917   3.697   2.401   4.267  0.8727 -0.6323 -0.7839
20142TIP3    H281918   3.659   2.254   4.266  1.2048 -0.7170 -1.5649
20143TIP3   OH281919   1.992   5.571   2.969  0.1604 -0.1682  0.3592
20143TIP3    H181920   2.003   5.621   3.050  2.2628 -1.3060  0.8734
20143TIP3    H281921   2.073   5.588   2.920 -0.5174 -0.5156 -0.9213
20144TIP3   OH281922   2.420   2.933  16.324  0.1330 -0.7686 -0.1429
20144TIP3    H181923   2.442   2.910  16.234 -2.0309  1.7710 -1.4435
20144TIP3    H281924   2.504   2.962  16.362  0.6908  0.4629 -2.1529
20145TIP3   OH281925   4.862   2.685   1.675 -0.0768  0.2945 -0.4510
20145TIP3    H181926   4.893   2.775   1.682  1.9237 -0.4582  1.8646
20145TIP3    H281927   4.940   2.634   1.653 -1.4048 -0.8287 -3.0373
20146TIP3   OH281928   1.484   0.331   5.403 -0.3567  0.0000  0.1483
20146TIP3    H181929   1.460   0.325   5.311 -2.4070 -1.4777  0.7182
20146TIP3    H281930   1.423   0.395   5.440 -0.1342 -0.0823  0.6737
20147TIP3   OH281931   6.077   0.929  13.546 -0.3791  0.0744  0.1562
20147TIP3    H181932   6.145   0.965  13.488 -0.0994 -0.8924 -0.1255
20147TIP3    H281933   6.124   0.910  13.628  0.4355 -3.3713 -0.9687
20148TIP3   OH281934   1.077   1.207   4.614 -0.4959 -0.0932 -0.4632
20148TIP3    H181935   1.035   1.180   4.532  0.8677 -0.1951 -1.1525
20148TIP3    H281936   1.159   1.249   4.587  0.7776 -1.5709  0.8864
20149TIP3   OH281937   0.040   5.635  14.514  0.5491 -0.4382 -0.6247
20149TIP3    H181938   0.062   5.686  14.592  0.9421 -1.7707  0.1579
20149TIP3    H281939   0.009   5.700  14.451 -1.1941  0.5122  1.1283
20150TIP3   OH281940   1.274   1.917  11.365 -0.5854  0.2140 -0.1388
20150TIP3    H181941   1.228   1.852  11.311  0.1816 -0.3831 -0.0765
20150TIP3    H281942   1.278   1.878  11.452 -0.0711  0.3153 -0.1137
20151TIP3   OH281943   1.338   1.355  15.103  0.1995  0.5802 -0.7495
20151TIP3    H181944   1.428   1.343  15.070  0.2724 -1.5372  0.0964
20151TIP3    H281945   1.283   1.340  15.026  0.4843 -1.2200 -0.6376
20152TIP3   OH281946   1.679   5.557  13.384 -0.4561  0.5672 -0.0188
20152TIP3    H181947   1.726   5.476  13.366 -2.0148 -0.5103  0.5610
20152TIP3    H281948   1.589   5.540  13.358 -1.1548  1.5541  1.5757
20153TIP3   OH281949   5.952   6.070   4.919 -0.1053  0.3471 -0.5072
20153TIP3    H181950   6.025   6.025   4.879  0.5792  1.0834 -0.1132
20153TIP3    H281951   5.957   6.160   4.885 -1.5881  0.0991 -1.4710
20154TIP3   OH281952   4.708   5.643  14.429  0.1687 -0.3278 -0.4371
20154TIP3    H181953   4.661   5.612  14.506  1.4818 -1.2483  0.0389
20154TIP3    H281954   4.699   5.738  14.432  0.5631 -0.3086  1.1172
20155TIP3   OH281955   1.847   3.032   0.666 -0.2996  0.1853  0.2236
20155TIP3    H181956   1.894   2.951   0.684 -1.7846 -0.9714 -0.8916
20155TIP3    H281957   1.756   3.013   0.688 -0.8033  1.2877 -0.7789
20156TIP3   OH281958   4.789   0.780   1.543 -0.0437 -0.5159  0.1008
20156TIP3    H181959   4.777   0.757   1.451 -0.4237 -0.6725  0.1894
20156TIP3    H281960   4.834   0.865   1.541  1.0541 -1.0798 -0.2306
20157TIP3   OH281961   3.219   4.318  11.404 -0.4515  0.2778  0.2671
20157TIP3    H181962   3.307   4.355  11.394 -0.4303  0.0057 -0.6650
20157TIP3    H281963   3.226   4.262  11.482 -0.1386  1.2050  0.9237
20158TIP3   OH281964   0.586   6.032   2.609 -0.6153 -0.4413 -0.0078
20158TIP3    H181965   0.595   6.094   2.681  1.3104 -0.5103 -0.1335
20158TIP3    H281966   0.578   5.947   2.652  0.9649 -0.5327  0.1747
20159TIP3   OH281967   2.364   5.151   4.072 -0.2398 -0.1592  0.8123
20159TIP3    H181968   2.394   5.225   4.019 -2.6405  0.7907  0.6593
20159TIP3    H281969   2.345   5.082   4.008  0.1465 -0.2352  0.7763
20160TIP3   OH281970   3.946   0.089   0.056 -0.0072 -0.2847  0.3558
20160TIP3    H181971   3.969   0.178   0.085  1.6176 -0.4624 -0.2885
20160TIP3    H281972   4.018   0.064  -0.003 -0.7003 -1.8381  0.1321
20161TIP3   OH281973   3.264   0.305  17.126  0.3201  1.0705  0.1551
20161TIP3    H181974   3.311   0.316  17.208  1.0705  1.4314 -0.3150
20161TIP3    H281975   3.177   0.275  17.152  1.1916 -0.8801  0.9803
20162TIP3   OH281976   3.484   3.720  15.091  0.6084  0.6746 -0.3765
20162TIP3    H181977   3.453   3.706  15.180  0.6011  1.7805 -0.1913
20162TIP3    H281978   3.406   3.748  15.042  0.3983 -0.8476 -0.9863
20163TIP3   OH281979   1.592   1.587   3.698  0.8016  0.8549  0.5471
20163TIP3    H181980   1.567   1.566   3.608  0.9447  1.9906  0.2181
20163TIP3    H281981   1.510   1.613   3.740  0.8804  1.3017  0.4385
20164TIP3   OH281982   3.637   6.591   5.301 -0.3769  0.1936 -0.1647
20164TIP3    H181983   3.564   6.543   5.262  0.3254 -0.8417 -0.2188
20164TIP3    H281984   3.674   6.641   5.228  0.3971 -1.0791 -0.6774
20165TIP3   OH281985   0.443   2.766  13.065 -0.5843  0.1989 -0.2871
20165TIP3    H181986   0.455   2.861  13.076  0.8157 -0.1390  1.6250
20165TIP3    H281987   0.467   2.750  12.973  0.4462  1.5322 -0.2919
20166TIP3   OH281988   4.485   0.802  13.151  0.0226 -0.4289 -0.3735
20166TIP3    H181989   4.410   0.859  13.165 -2.1794 -3.1585 -0.1594
20166TIP3    H281990   4.456   0.740  13.084  2.2786 -1.3134 -0.6252
20167TIP3   OH281991   0.017   1.318  14.778 -0.0395  0.2553  0.1115
20167TIP3    H181992   0.098   1.285  14.740  0.0822  1.4436 -0.6802
20167TIP3    H281993   0.036   1.408  14.803 -1.2978  0.7650 -0.6928
20168TIP3   OH281994   4.621   6.363   4.503 -0.4395  0.2636  0.2714
20168TIP3    H181995   4.578   6.386   4.586 -3.4231 -0.5883 -0.8945
20168TIP3    H281996   4.607   6.269   4.493  0.6363  0.1906 -0.8026
20169TIP3   OH281997   3.524   4.531   5.238 -0.2515  0.0680 -0.1154
20169TIP3    H181998   3.609   4.571   5.254  0.1102 -1.0317  0.8109
20169TIP3    H281999   3.517   4.527   5.142  0.1684  1.3196 -0.2129
20170TIP3   OH282000   4.801   2.310   4.382 -0.5559 -0.5444  0.4354
20170TIP3    H182001   4.864   2.253   4.337 -0.5507 -0.4347  0.3041
20170TIP3    H282002   4.841   2.396   4.382 -0.9982 -0.3338 -0.2367
20171TIP3   OH282003   0.166   4.009  13.048  0.5939 -0.2766  0.5842
20171TIP3    H182004   0.071   4.011  13.053  0.5831  0.8685  0.2459
20171TIP3    H282005   0.185   4.012  12.954  0.9715 -0.1635  0.6601
20172TIP3   OH282006   6.479   3.495  13.551 -0.1999 -0.3795 -0.2799
20172TIP3    H182007   6.488   3.440  13.473  1.2453  0.6297 -0.8639
20172TIP3    H282008   6.561   3.484  13.598 -0.0484  0.9416 -0.1986
20173TIP3   OH282009   4.093   0.010   3.873  0.4639  0.1584 -0.4380
20173TIP3    H182010   4.073   0.039   3.784  1.0080  1.5504 -0.1304
20173TIP3    H282011   4.112  -0.083   3.864 -0.0386  0.1579 -1.6871
20174TIP3   OH282012   1.780   1.602  12.172  0.4934  0.0533 -0.0533
20174TIP3    H182013   1.781   1.634  12.262  1.2456  0.4525 -0.1954
20174TIP3    H282014   1.818   1.674  12.121  2.1770 -1.0116 -0.3860
20175TIP3   OH282015   1.869   5.652  17.288  0.0295  0.0646  0.0474
20175TIP3    H182016   1.887   5.695  17.372  1.1291 -3.0197  1.5704
20175TIP3    H282017   1.803   5.586  17.309  0.1274 -0.6034 -1.6088
20176TIP3   OH282018   1.305   3.468  11.138  0.3794  0.2141  0.0791
20176TIP3    H182019   1.213   3.454  11.118  0.3944 -0.7728  0.6457
20176TIP3    H282020   1.312   3.455  11.232  0.7994  2.0621  0.3459
20177TIP3   OH282021   4.489   0.088  14.553  0.7305  0.1904 -0.0052
20177TIP3    H182022   4.478   0.134  14.470  0.2566  1.0473  0.5186
20177TIP3    H282023   4.527   0.153  14.612  4.4378 -1.3253 -0.4322
20178TIP3   OH282024   1.162   4.192   1.387 -0.0722 -0.0826  0.0352
20178TIP3    H182025   1.118   4.160   1.308  1.7093 -1.2617 -0.5585
20178TIP3    H282026   1.226   4.255   1.354  0.0707  0.0850  0.6361
20179TIP3   OH282027   6.535   1.199  12.224 -0.3163 -0.3609 -0.4945
20179TIP3    H182028   6.463   1.230  12.169 -0.5430  0.6784  0.3571
20179TIP3    H282029   6.575   1.128  12.174 -1.7328 -0.7462 -1.1354
20180TIP3   OH282030   0.914   5.749   5.547 -0.3871  0.4343 -0.1146
20180TIP3    H182031   0.888   5.841   5.540  1.9856  1.5171  2.7948
20180TIP3    H282032   0.999   5.752   5.591 -0.4665 -3.1908  0.5844
20181TIP3   OH282033   2.067   6.393  14.943  0.1558  0.2625 -0.3735
20181TIP3    H182034   2.036   6.471  14.898  0.0478 -0.4247 -1.5240
20181TIP3    H282035   2.027   6.398  15.030  0.7239  1.8344 -0.1714
20182TIP3   OH282036   0.857   4.918   3.361 -0.1616  0.2491 -0.0446
20182TIP3    H182037   0.810   4.868   3.294 -3.2000  1.0497  1.3308
20182TIP3    H282038   0.866   5.006   3.324 -2.3927  0.8634  0.6949
20183TIP3   OH282039   0.557   3.187  11.112 -0.1908 -0.2709 -0.7817
20183TIP3    H182040   0.632   3.241  11.135 -1.0638  1.2634 -1.4281
20183TIP3    H282041   0.543   3.202  11.019 -1.7206  0.0509 -0.5344
20184TIP3   OH282042   4.206   2.137   4.603 -0.2094  0.0752 -0.2353
20184TIP3    H182043   4.254   2.197   4.546 -1.7498  0.3155 -1.3424
20184TIP3    H282044   4.136   2.189   4.640 -0.0668 -0.4428  0.7979
20185TIP3   OH282045   2.653   4.165  13.249  0.3371  0.1554 -0.4748
20185TIP3    H182046   2.718   4.171  13.319 -0.4443 -1.4557  0.4366
20185TIP3    H282047   2.574   4.205  13.285 -0.4611 -1.8410  0.1123
20186TIP3   OH282048   2.636   4.432  11.679  0.3554 -0.3879 -0.8112
20186TIP3    H182049   2.601   4.402  11.763  2.1369  0.1323  0.1569
20186TIP3    H282050   2.591   4.515  11.663  0.3965 -0.2197 -0.0896
20187TIP3   OH282051   5.746   6.517   5.900  0.6156 -0.0633 -0.1465
20187TIP3    H182052   5.726   6.590   5.959 -0.7659  0.3014 -1.0118
20187TIP3    H282053   5.840   6.523   5.886  0.6690  0.9862  0.5413
20188TIP3   OH282054   4.917   5.214  12.736 -0.0766  0.6318 -0.4070
20188TIP3    H182055   4.896   5.245  12.648 -0.4548 -0.6591 -0.7996
20188TIP3    H282056   4.850   5.253  12.793 -0.8788  0.0861 -0.9641
20189TIP3   OH282057   4.710   4.294  13.664  0.1097  0.0579  0.7227
20189TIP3    H182058   4.655   4.368  13.687  0.0738  1.4229 -3.0994
20189TIP3    H282059   4.798   4.318  13.695 -0.1528  1.1010  0.6767
20190TIP3   OH282060   5.912   3.712   1.946 -0.3416 -0.1084 -0.5115
20190TIP3    H182061   5.888   3.753   1.863 -1.3827  0.9650  0.2905
20190TIP3    H282062   5.847   3.745   2.009  1.1292  0.0546  0.9861
20191TIP3   OH282063   1.549   2.155   0.421  0.1631  0.0034  0.2199
20191TIP3    H182064   1.641   2.182   0.422 -0.1103  0.9621  0.5270
20191TIP3    H282065   1.527   2.140   0.513 -0.9756  3.4119  0.6527
20192TIP3   OH282066   2.105   2.787   0.409 -0.0108  0.2190  0.1633
20192TIP3    H182067   2.064   2.871   0.429 -0.5776  0.1757 -0.7707
20192TIP3    H282068   2.199   2.807   0.405 -0.2694  1.2228 -1.8956
20193TIP3   OH282069   5.570   5.565  12.162 -0.5831  0.3950  0.0372
20193TIP3    H182070   5.578   5.473  12.135 -0.8879  0.5359 -0.5629
20193TIP3    H282071   5.478   5.573  12.188 -0.3477  0.3222  0.9053
20194TIP3   OH282072   4.203   3.787  14.383  0.9860 -0.3400  0.4301
20194TIP3    H182073   4.286   3.804  14.339  0.3421 -1.5016 -1.3272
20194TIP3    H282074   4.218   3.706  14.432  0.9522 -0.4476  0.2639
20195TIP3   OH282075   3.464   2.491   2.667  0.2245  0.0223  0.3894
20195TIP3    H182076   3.396   2.493   2.734 -1.3097  0.9429 -1.1084
20195TIP3    H282077   3.423   2.530   2.590  1.2075 -2.7841 -1.7500
20196TIP3   OH282078   0.794   0.024  15.729 -0.3060 -0.4660 -0.2448
20196TIP3    H182079   0.778   0.118  15.719  2.2875  0.0483 -0.1809
20196TIP3    H282080   0.748   0.001  15.810 -1.4376  0.6010 -0.5544
20197TIP3   OH282081   4.731   4.377   4.884 -0.0034  0.0023  0.4824
20197TIP3    H182082   4.699   4.288   4.900 -1.3802  0.4941  0.5322
20197TIP3    H282083   4.822   4.375   4.915  0.2899 -1.6209 -0.3254
20198TIP3   OH282084   4.228   1.375   6.655 -0.4070  0.6893  0.1338
20198TIP3    H182085   4.165   1.315   6.694  0.1029  0.5115  0.7000
20198TIP3    H282086   4.220   1.360   6.561 -0.3639 -0.1995  0.2633
20199TIP3   OH282087   6.662   5.160   0.828  0.4678  0.4170  0.1033
20199TIP3    H182088   6.624   5.210   0.756  2.0021 -0.0368 -1.0740
20199TIP3    H282089   6.588   5.113   0.866 -0.4217  0.8819 -0.9905
20200TIP3   OH282090   4.565   2.708  16.826 -0.7616  0.2883 -0.1672
20200TIP3    H182091   4.545   2.784  16.881 -0.9534 -0.4477  0.8138
20200TIP3    H282092   4.495   2.707  16.760 -1.1892  0.5159  0.2785
20201TIP3   OH282093   0.050   1.917   5.156 -0.2336  0.2920 -0.4093
20201TIP3    H182094   0.002   1.928   5.238 -0.7990 -0.1686 -0.6760
20201TIP3    H282095   0.141   1.934   5.179 -0.1995 -1.0698  0.6032
20202TIP3   OH282096   5.746   0.013  15.415 -0.4215  0.0792 -0.4676
20202TIP3    H182097   5.686   0.066  15.362  1.4300 -0.5256 -3.3752
20202TIP3    H282098   5.827   0.064  15.418  0.5568 -1.3648 -1.1189
20203TIP3   OH282099   4.072   0.122   0.347  0.0296 -0.1677  0.7252
20203TIP3    H182100   4.047   0.211   0.372  0.5569  0.4276 -0.7664
20203TIP3    H282101   4.006   0.095   0.283  0.3216 -0.5503  0.5805
20204TIP3   OH282102   4.251   6.185  16.944 -0.2470  0.1927  0.1527
20204TIP3    H182103   4.175   6.226  16.985  0.7463 -0.1091  2.4265
20204TIP3    H282104   4.310   6.257  16.923 -0.8472  0.3674 -1.0173
20205TIP3   OH282105   4.791   4.817   5.257  0.4752  0.2495  0.0220
20205TIP3    H182106   4.840   4.845   5.180  0.9838  1.8037  0.8653
20205TIP3    H282107   4.699   4.826   5.231  0.6374  1.2719 -0.2546
20206TIP3   OH282108   1.541   4.112   3.296  0.3428  0.5009  0.6292
20206TIP3    H182109   1.562   4.092   3.204 -0.7835 -0.6946  0.6004
20206TIP3    H282110   1.530   4.207   3.298  0.4028  0.5486 -0.4671
20207TIP3   OH282111   5.184   3.787   5.205  0.0296 -0.0230  0.2938
20207TIP3    H182112   5.114   3.835   5.248  0.3128 -2.0242  3.3486
20207TIP3    H282113   5.142   3.708   5.172  0.1954  0.5858 -1.4617
20208TIP3   OH282114   3.248   3.300   4.288  0.6875 -0.0102  0.0003
20208TIP3    H182115   3.177   3.362   4.270 -0.1113 -0.6294  0.9100
20208TIP3    H282116   3.328   3.350   4.276  0.0724  1.7139  2.3775
20209TIP3   OH282117   2.294   2.560   0.523  0.2230 -0.0622 -0.3351
20209TIP3    H182118   2.353   2.498   0.566  1.0081 -0.4662 -1.9066
20209TIP3    H282119   2.332   2.646   0.543  0.5240 -0.2389 -0.1292
20210TIP3   OH282120   1.340   3.523   0.714  0.0480 -0.3008  0.5300
20210TIP3    H182121   1.346   3.618   0.706 -1.2043 -0.1714  0.9837
20210TIP3    H282122   1.352   3.491   0.625 -0.9951  0.3729  0.1370
20211TIP3   OH282123   1.768   4.841   2.840 -0.8808  0.2005 -0.5110
20211TIP3    H182124   1.737   4.893   2.766  0.1643  1.8511  0.1439
20211TIP3    H282125   1.807   4.905   2.900  3.6195 -1.5343 -1.1637
20212TIP3   OH282126   5.217   4.486   0.499  0.1336 -0.4435 -0.1068
20212TIP3    H182127   5.197   4.563   0.445 -2.3893 -1.1305 -0.2605
20212TIP3    H282128   5.229   4.522   0.587  0.2194  0.2667 -0.4012
20213TIP3   OH282129   3.751   5.219   3.502  0.0659 -0.1244  0.1025
20213TIP3    H182130   3.819   5.164   3.462 -0.4599 -0.1254 -0.8214
20213TIP3    H282131   3.701   5.160   3.557 -0.5512 -0.6184 -0.9541
20214TIP3   OH282132   5.002   5.026  17.051  0.2977 -0.5010 -0.4710
20214TIP3    H182133   4.996   5.102  17.109  0.6010 -1.1675  0.4621
20214TIP3    H282134   5.092   4.995  17.062  0.2297 -0.8886 -0.9914
20215TIP3   OH282135   6.108   2.690  11.515 -0.0412  0.2452 -0.2545
20215TIP3    H182136   6.189   2.724  11.477  0.3200 -1.1413 -0.7732
20215TIP3    H282137   6.132   2.662  11.603 -0.1878  0.6949 -0.0669
20216TIP3   OH282138   0.490   2.067  11.195 -0.6611  0.9181  0.5304
20216TIP3    H182139   0.558   1.999  11.189 -2.9270 -1.6631  1.9772
20216TIP3    H282140   0.482   2.100  11.105  2.5928  1.5272  0.3364
20217TIP3   OH282141   2.983   2.354   5.536  0.8073 -0.0803 -0.4684
20217TIP3    H182142   2.976   2.401   5.619  1.4941  0.6512 -0.8194
20217TIP3    H282143   3.000   2.263   5.562  0.2564 -0.0053  0.1927
20218TIP3   OH282144   2.647   3.192  16.574 -0.2836 -0.3859  0.6181
20218TIP3    H182145   2.655   3.159  16.484 -0.3635 -0.0858  0.5012
20218TIP3    H282146   2.736   3.213  16.600 -0.0958 -1.6497  1.0595
20219TIP3   OH282147   0.725   6.340   1.378  0.0436  0.0430 -0.0408
20219TIP3    H182148   0.814   6.346   1.344 -0.1115  1.2225 -0.2889
20219TIP3    H282149   0.669   6.345   1.301 -0.2800  1.7402  0.2572
20220TIP3   OH282150   3.438   3.122   0.631  0.1968  0.4424  0.1021
20220TIP3    H182151   3.521   3.077   0.612 -0.2234 -1.9290  3.1302
20220TIP3    H282152   3.449   3.210   0.594  3.2797 -0.3924 -1.2693
20221TIP3   OH282153   2.322   1.873   4.702 -0.1930  0.5493 -0.3682
20221TIP3    H182154   2.289   1.906   4.785  0.2259  2.7176 -1.0121
20221TIP3    H282155   2.246   1.873   4.644 -0.0011  1.3271 -0.6293
20222TIP3   OH282156   6.130   1.046  17.103 -0.0372  0.9004 -0.1770
20222TIP3    H182157   6.133   0.988  17.179 -0.2993  1.0401 -0.0570
20222TIP3    H282158   6.156   1.131  17.136 -1.2793  1.2272  0.0177
20223TIP3   OH282159   3.279   3.421  13.413 -0.0832 -0.5831 -0.4186
20223TIP3    H182160   3.283   3.457  13.325 -0.7209 -0.1408 -0.2741
20223TIP3    H282161   3.358   3.367  13.421  0.3569 -0.0317 -0.9952
20224TIP3   OH282162   0.646   1.121  17.003 -0.0543  0.2206 -0.0405
20224TIP3    H182163   0.593   1.087  16.931 -0.4457  0.7075  0.0097
20224TIP3    H282164   0.731   1.140  16.963 -0.1994  0.2766 -0.3275
20225TIP3   OH282165   6.392   6.737   4.979  0.4557 -0.6383 -0.3806
20225TIP3    H182166   6.337   6.670   4.938  1.0115 -0.6140 -1.1730
20225TIP3    H282167   6.425   6.695   5.059 -1.4508 -0.3334  0.6279
20226TIP3   OH282168   6.231   5.764  11.593  0.5084 -0.0578  0.2048
20226TIP3    H182169   6.195   5.677  11.579 -1.3445  0.8188 -0.7695
20226TIP3    H282170   6.273   5.787  11.510 -0.6393  0.6892 -0.1890
20227TIP3   OH282171   4.337   4.171   1.912  0.2528 -0.2264 -0.3350
20227TIP3    H182172   4.359   4.239   1.976  0.1658  0.0348 -0.5831
20227TIP3    H282173   4.356   4.089   1.957  2.9700 -0.0262 -0.9490
20228TIP3   OH282174   2.903   5.232   3.656  0.1064  0.3742  0.1524
20228TIP3    H182175   2.981   5.258   3.607  0.1352 -0.0183 -0.0087
20228TIP3    H282176   2.867   5.315   3.688  0.9669  0.5178  0.8145
20229TIP3   OH282177   4.120   5.702   4.693 -0.1269  0.0874  0.8623
20229TIP3    H182178   4.172   5.743   4.624  0.7169 -1.5890  0.4405
20229TIP3    H282179   4.047   5.762   4.708  0.8668  1.5379  0.0687
20230TIP3   OH282180   3.546   0.697  17.410 -0.3722  0.2088 -0.5212
20230TIP3    H182181   3.589   0.781  17.394 -2.2363  0.9647 -1.8793
20230TIP3    H282182   3.518   0.667  17.324 -0.0537 -1.6853 -0.0195
20231TIP3   OH282183   1.726   1.180   6.241  0.1283  0.3852 -0.2972
20231TIP3    H182184   1.780   1.256   6.219  0.2613  0.0235 -1.3017
20231TIP3    H282185   1.772   1.138   6.314  0.1634  1.1442  0.1302
20232TIP3   OH282186   6.178   5.366   5.312 -0.1599 -0.7666 -0.1913
20232TIP3    H182187   6.221   5.282   5.298  0.1075 -0.8242  0.9181
20232TIP3    H282188   6.230   5.428   5.261  1.7100 -0.7138  1.6296
20233TIP3   OH282189   1.902   3.533  12.038  0.1497  0.0498 -0.4994
20233TIP3    H182190   1.823   3.585  12.052 -0.2358 -0.3128 -1.2626
20233TIP3    H282191   1.916   3.487  12.121 -0.0227  0.6644 -0.1233
20234TIP3   OH282192   5.414   3.626  13.069 -0.3259  0.0905 -0.0423
20234TIP3    H182193   5.474   3.558  13.039 -0.4429  0.0675 -0.2238
20234TIP3    H282194   5.408   3.688  12.997 -0.7113 -0.0350 -0.1240
20235TIP3   OH282195   5.037   0.244   1.150  0.0101 -0.5008 -0.0661
20235TIP3    H182196   5.043   0.277   1.240  0.4579 -0.5617 -0.0732
20235TIP3    H282197   5.121   0.202   1.134 -0.1657 -0.7226 -0.4258
20236TIP3   OH282198   0.721   6.401  16.318  0.6152 -0.1588  0.0302
20236TIP3    H182199   0.768   6.414  16.236  2.1964  0.8976  1.0641
20236TIP3    H282200   0.786   6.366  16.379  0.0300  0.9889  1.3965
20237TIP3   OH282201   0.277   5.654   5.271  0.4355 -0.0332 -0.0290
20237TIP3    H182202   0.315   5.658   5.184 -1.4284  1.6171 -0.8569
20237TIP3    H282203   0.257   5.745   5.293 -3.0236 -0.7132  0.2269
20238TIP3   OH282204   3.540   0.370   3.211 -0.1783  0.2806 -0.3838
20238TIP3    H182205   3.588   0.406   3.286 -0.5677 -1.1026  0.5849
20238TIP3    H282206   3.452   0.354   3.245 -0.6614  0.6059 -1.4604
20239TIP3   OH282207   0.627   5.509   4.357  0.3963 -0.2011  0.8774
20239TIP3    H182208   0.621   5.603   4.372  0.9191  0.1290 -0.8475
20239TIP3    H282209   0.553   5.489   4.299  2.1687 -0.2071 -1.5213
20240TIP3   OH282210   3.152   1.745  14.392 -0.6404  0.3141  0.4684
20240TIP3    H182211   3.143   1.803  14.317 -2.0353 -0.3776  0.0709
20240TIP3    H282212   3.066   1.744  14.433 -0.3582 -0.6479  1.0874
20241TIP3   OH282213   2.223   1.729  17.243 -0.4341  0.0383 -0.1744
20241TIP3    H182214   2.174   1.702  17.166 -1.0902 -0.8059  0.5127
20241TIP3    H282215   2.261   1.813  17.220 -0.0458 -0.5192 -1.6617
20242LIG      S82216   3.872   2.969  14.844 -0.0184  0.3062  0.0923
20242LIG     O182217   3.925   3.132  14.582  0.0009  0.5027 -0.1846
20242LIG     O282218   3.063   3.099  14.904 -0.1346  0.2882  0.4260
20242LIG     O382219   3.178   3.019  14.740  0.1703 -0.2604  0.0048
20242LIG     N182220   3.833   3.270  14.320  0.3515 -0.0752 -0.0069
20242LIG     N282221   3.453   3.042  14.782  0.5378 -0.8910 -0.4070
20242LIG     N382222   3.503   3.248  14.896  0.4047  0.5697 -0.4712
20242LIG     N482223   3.168   3.095  14.833  0.2838  0.5070  0.0912
20242LIG     N582224   3.461   3.352  14.971 -0.1150 -0.1926 -0.2315
20242LIG     C182225   3.943   3.181  14.344 -0.7014  0.1929  0.1630
20242LIG     C282226   3.996   3.191  14.481  0.3522  0.7274 -0.2063
20242LIG     C382227   3.979   3.186  14.695 -0.1054 -0.2263 -0.5412
20242LIG     C482228   3.901   3.152  14.822 -0.3460 -0.4535 -0.6894
20242LIG     C582229   4.099   3.256  14.531 -0.0979 -0.5009 -0.0147
20242LIG     C682230   3.694   2.996  14.883 -0.4307 -0.3197  0.0035
20242LIG     C782231   4.089   3.249  14.664 -0.2953 -0.4686  0.1107
20242LIG     C882232   3.603   3.024  14.759  0.1997 -0.3715  0.2685
20242LIG     C982233   3.711   3.238  14.388  0.1104  0.6863  0.1981
20242LIG    C1082234   3.863   3.412  14.317  0.2937 -0.3624 -0.7360
20242LIG    C1182235   3.411   3.160  14.846 -0.2389 -0.5275  0.5549
20242LIG    C1282236   3.272   3.186  14.859  0.3159 -0.0104 -0.9216
20242LIG    C1382237   3.239   3.302  14.935  0.0694 -1.0559 -0.2660
20242LIG    C1482238   3.336   3.381  14.994 -0.1868  0.0316 -0.0058
20242LIG     H182239   4.025   3.230  14.288 -3.1078  3.1056 -1.0828
20242LIG     H282240   3.929   3.074  14.316  4.3014 -0.6077 -0.1649
20242LIG     H382241   3.948   3.201  14.910 -2.4087  0.2845  0.0594
20242LIG     H482242   3.807   3.210  14.815  0.8372  1.5242 -1.1299
20242LIG     H582243   4.169   3.311  14.470  0.9872 -0.7799  0.9348
20242LIG     H682244   3.679   3.078  14.957 -3.1044 -0.1513 -0.6317
20242LIG     H782245   3.652   2.904  14.928 -1.9719  1.2824  2.0097
20242LIG     H882246   4.142   3.309  14.737  1.1895 -1.9185  0.2824
20242LIG     H982247   3.631   3.119  14.709 -1.4641  0.1768  0.3419
20242LIG    H1082248   3.616   2.942  14.684  2.3156  0.0779  0.0710
20242LIG    H1182249   3.622   3.253  14.324 -0.2559  2.0955  0.9858
20242LIG    H1282250   3.702   3.295  14.483  0.4135  2.8038 -0.9906
20242LIG    H1382251   3.707   3.131  14.418 -0.3331  0.7707  0.4572
20242LIG    H1482252   3.906   3.441  14.219  1.5206  0.0184 -0.1060
20242LIG    H1582253   3.946   3.443  14.384  0.0758 -0.2129 -0.5347
20242LIG    H1682254   3.778   3.482  14.328  0.6627 -0.2117  2.0318
20242LIG    H1782255   3.385   2.992  14.725  0.3029 -0.8665 -0.1497
20242LIG    H1882256   3.135   3.322  14.952 -0.4919 -0.4462 -3.5803
20242LIG    H1982257   3.304   3.457  15.063 -2.8382 -2.7525  2.0855
   6.77632   6.77632  17.46996
