Title
55513
    1DOPE     N    1   4.311   3.565   7.022 -0.1727  0.8382 -0.2201
    1DOPE   HN1    2   4.253   3.641   6.981 -0.4317  0.6265 -0.2484
    1DOPE   HN2    3   4.280   3.553   7.121 -0.1890  0.9618 -0.2101
    1DOPE   HN3    4   4.410   3.597   7.020 -0.6117  2.2060 -0.6662
    1DOPE   C12    5   4.304   3.440   6.941  1.0328 -0.3066  0.9167
    1DOPE  H12A    6   4.342   3.455   6.838 -0.1078 -1.3841  0.3131
    1DOPE  H12B    7   4.197   3.412   6.941  0.5936  1.1976 -0.8570
    1DOPE   C11    8   4.373   3.322   7.017  0.0236  0.1281  0.0522
    1DOPE  H11A    9   4.370   3.223   6.968  3.0867 -0.8567  1.5745
    1DOPE  H11B   10   4.313   3.311   7.110 -0.1984  1.5153  0.1003
    1DOPE     P   11   4.629   3.264   7.034  0.0206  0.2165 -0.0062
    1DOPE   O13   12   4.580   3.124   7.063 -0.2305 -0.2115  0.4756
    1DOPE   O14   13   4.745   3.310   7.116  0.0692 -0.4125  0.1553
    1DOPE   O11   14   4.656   3.289   6.877 -0.0816  0.0175  0.2232
    1DOPE   O12   15   4.509   3.359   7.065 -0.0380 -0.1889  0.1909
    1DOPE    C1   16   4.714   3.413   6.832  0.4118 -0.7888 -0.3477
    1DOPE    HA   17   4.824   3.401   6.819  0.6243 -0.2577  0.8451
    1DOPE    HB   18   4.708   3.501   6.899 -1.3629 -0.7357 -0.5370
    1DOPE    C2   19   4.662   3.461   6.694 -0.3975 -0.6794  0.0972
    1DOPE    HS   20   4.552   3.448   6.689 -0.1367 -2.9241 -2.6940
    1DOPE   O21   21   4.735   3.382   6.598 -0.6295 -0.3207  0.2785
    1DOPE   C21   22   4.668   3.367   6.487 -0.5871 -0.8288 -0.6502
    1DOPE   O22   23   4.556   3.397   6.468  0.8172  0.2129  0.0862
    1DOPE   C22   24   4.753   3.309   6.376 -0.3010  1.4329 -0.6964
    1DOPE   H2R   25   4.705   3.213   6.348  0.1582  0.8936  0.3195
    1DOPE   H2S   26   4.850   3.275   6.417 -0.9004 -0.4191 -0.7032
    1DOPE    C3   27   4.692   3.619   6.672 -0.6907 -0.0086 -0.1061
    1DOPE    HX   28   4.803   3.625   6.666 -0.3673 -3.6209  0.1984
    1DOPE    HY   29   4.657   3.679   6.759 -0.5786 -2.2254  1.5471
    1DOPE   O31   30   4.639   3.665   6.540  0.7784  0.0772 -0.1514
    1DOPE   C31   31   4.518   3.721   6.555 -0.0412  0.2946  0.0962
    1DOPE   O32   32   4.453   3.711   6.657  0.2357 -0.5649 -0.4307
    1DOPE   C32   33   4.481   3.804   6.439  0.5775  0.5627 -0.0209
    1DOPE   H2X   34   4.397   3.869   6.469  1.1177  2.5539 -2.5185
    1DOPE   H2Y   35   4.568   3.861   6.402  1.3651 -0.9311 -0.5397
    1DOPE   C23   36   4.758   3.406   6.257 -0.0197 -0.3714 -0.1669
    1DOPE   H3R   37   4.660   3.448   6.227 -0.4746 -1.3322 -0.0827
    1DOPE   H3S   38   4.787   3.343   6.169 -0.1194 -2.4738  1.2312
    1DOPE   C24   39   4.868   3.510   6.275  0.3117 -0.4984 -0.0415
    1DOPE   H4R   40   4.959   3.464   6.320 -0.8119 -1.7672  1.0421
    1DOPE   H4S   41   4.832   3.586   6.348 -2.0837 -1.0936 -0.5208
    1DOPE   C25   42   4.920   3.582   6.140 -0.9726 -0.2579 -0.2746
    1DOPE   H5R   43   4.949   3.494   6.079  2.0607  0.7395 -0.4605
    1DOPE   H5S   44   5.002   3.654   6.161 -1.2100 -1.0287  4.0726
    1DOPE   C26   45   4.813   3.667   6.078 -0.0861 -0.1197  0.1217
    1DOPE   H6R   46   4.781   3.725   6.168 -3.0361 -0.2033 -0.7529
    1DOPE   H6S   47   4.724   3.608   6.048 -0.0867 -1.4439  2.4740
    1DOPE   C27   48   4.869   3.739   5.957 -0.4477 -0.1940  0.5718
    1DOPE   H7R   49   4.918   3.668   5.888  0.0815 -0.0628  0.8102
    1DOPE   H7S   50   4.942   3.810   6.001 -1.3874  0.4528  1.1386
    1DOPE   C28   51   4.762   3.820   5.886  0.3547  0.5307  0.5002
    1DOPE   H8R   52   4.745   3.901   5.960  0.7653 -0.3250  1.5346
    1DOPE   H8S   53   4.674   3.760   5.855  2.5176 -2.5278 -0.1794
    1DOPE   C29   54   4.822   3.883   5.759  0.5586  0.3079  0.2722
    1DOPE   H9R   55   4.864   3.815   5.684  1.2784  0.1525  0.8108
    1DOPE  C210   56   4.839   4.014   5.734 -0.0644  0.2650 -0.6859
    1DOPE  H10R   57   4.871   4.039   5.631  1.4158  1.2537 -0.0328
    1DOPE  C211   58   4.780   4.135   5.802 -0.4183  0.1742 -0.0834
    1DOPE  H11R   59   4.689   4.113   5.862 -0.5613  0.3386 -0.2371
    1DOPE  H11S   60   4.749   4.212   5.729  1.3997  0.6466 -0.4147
    1DOPE  C212   61   4.866   4.201   5.909 -0.3396 -0.1414  0.7155
    1DOPE  H12R   62   4.886   4.134   5.995  1.1120  2.0496  2.1775
    1DOPE  H12S   63   4.805   4.288   5.942 -0.2765 -0.3574  1.4063
    1DOPE  C213   64   5.004   4.250   5.865  0.7158  0.0969  0.0791
    1DOPE  H13R   65   5.003   4.337   5.795  2.9940  1.4435  1.5892
    1DOPE  H13S   66   5.055   4.167   5.813  1.7413  1.4525 -1.1615
    1DOPE  C214   67   5.086   4.295   5.980  0.6672  0.1693 -0.3696
    1DOPE  H14R   68   5.089   4.218   6.059  1.0025  0.0346 -0.5120
    1DOPE  H14S   69   5.039   4.383   6.028  1.3363 -0.1767  0.9562
    1DOPE  C215   70   5.226   4.334   5.940 -0.0939 -0.1574 -1.2277
    1DOPE  H15R   71   5.216   4.418   5.868 -2.2187 -1.8965 -3.1427
    1DOPE  H15S   72   5.281   4.245   5.901 -0.9483 -1.3046  0.0573
    1DOPE  C216   73   5.312   4.387   6.057  0.3557 -0.3895  0.1347
    1DOPE  H16R   74   5.305   4.310   6.137  0.3930  0.5839  1.1028
    1DOPE  H16S   75   5.268   4.481   6.099 -1.4140 -1.1999  0.1822
    1DOPE  C217   76   5.456   4.406   6.017 -0.6501 -0.3566 -0.6842
    1DOPE  H17R   77   5.463   4.470   5.926 -0.1337  0.1965 -0.2598
    1DOPE  H17S   78   5.491   4.302   5.997 -1.1250 -0.9286  1.2388
    1DOPE  C218   79   5.538   4.470   6.125 -0.0340 -0.3250 -0.0215
    1DOPE  H18R   80   5.644   4.477   6.092 -0.7491  1.4150 -2.1902
    1DOPE  H18S   81   5.539   4.407   6.217  0.2309 -1.6573 -0.9053
    1DOPE  H18T   82   5.505   4.572   6.154 -2.2638 -0.7699 -0.8112
    1DOPE   C33   83   4.452   3.707   6.326 -0.2702  0.5184  0.2105
    1DOPE   H3X   84   4.353   3.657   6.329 -0.3999  0.7948  0.6119
    1DOPE   H3Y   85   4.530   3.629   6.318 -0.5380  0.1196  1.3045
    1DOPE   C34   86   4.441   3.773   6.190 -0.5009  0.3542  0.2938
    1DOPE   H4X   87   4.531   3.834   6.166 -0.3360  0.2945  0.7578
    1DOPE   H4Y   88   4.454   3.688   6.119  0.3581  1.3305 -0.7577
    1DOPE   C35   89   4.316   3.858   6.154 -0.1574 -0.4854  0.1628
    1DOPE   H5X   90   4.300   3.937   6.230  1.0844  2.3174 -2.2894
    1DOPE   H5Y   91   4.226   3.796   6.171  0.2693 -1.7718 -1.9207
    1DOPE   C36   92   4.328   3.931   6.016 -0.0436  0.1727 -0.9406
    1DOPE   H6X   93   4.431   3.972   6.002 -0.1157  0.2206 -1.3522
    1DOPE   H6Y   94   4.253   4.012   6.024 -0.3273 -0.0821 -1.0206
    1DOPE   C37   95   4.292   3.831   5.904 -0.2508  0.5014 -0.1678
    1DOPE   H7X   96   4.362   3.745   5.915 -1.7303 -0.9170 -1.3063
    1DOPE   H7Y   97   4.188   3.799   5.927  0.6462 -0.3245  3.2916
    1DOPE   C38   98   4.299   3.898   5.764 -0.0356  0.1959 -0.9380
    1DOPE   H8X   99   4.244   3.993   5.747  0.1660  0.8671  1.6927
    1DOPE   H8Y  100   4.257   3.822   5.694 -1.9041  0.4586 -0.1712
    1DOPE   C39  101   4.440   3.935   5.729 -0.5201  0.7481  0.6616
    1DOPE   H9X  102   4.508   3.968   5.808  0.1079 -1.5607  1.1615
    1DOPE  C310  103   4.484   3.951   5.603  0.3939  0.1699  0.1883
    1DOPE  H10X  104   4.591   3.971   5.584  0.2956  0.9752  0.4483
    1DOPE  C311  105   4.397   3.944   5.472 -0.4473  0.6160  0.4594
    1DOPE  H11X  106   4.289   3.950   5.497 -1.2336 -0.7977 -2.2135
    1DOPE  H11Y  107   4.428   4.032   5.412 -0.6159  0.5684  0.3012
    1DOPE  C312  108   4.441   3.819   5.397 -0.0010  0.3230  0.0010
    1DOPE  H12X  109   4.422   3.724   5.451 -0.4029 -1.1411 -2.5247
    1DOPE  H12Y  110   4.550   3.817   5.377 -0.2985  0.2372 -1.8208
    1DOPE  C313  111   4.363   3.802   5.266  0.5623  0.6769 -0.4421
    1DOPE  H13X  112   4.255   3.784   5.282  0.0397  2.8270 -1.2903
    1DOPE  H13Y  113   4.359   3.894   5.204 -1.7219 -0.0363 -1.4750
    1DOPE  C314  114   4.395   3.682   5.175 -0.2688 -0.6281 -0.3894
    1DOPE  H14X  115   4.435   3.616   5.255 -0.2580 -0.5809 -0.3560
    1DOPE  H14Y  116   4.473   3.721   5.106 -1.4566  1.5838 -0.5630
    1DOPE  C315  117   4.288   3.609   5.105 -0.2717 -0.4556 -0.0343
    1DOPE  H15X  118   4.232   3.681   5.041 -1.3903  1.3396  2.7200
    1DOPE  H15Y  119   4.221   3.565   5.182 -0.7203  1.8969  1.0412
    1DOPE  C316  120   4.352   3.510   5.010  0.2005 -0.0704  0.3020
    1DOPE  H16X  121   4.426   3.451   5.066  2.8618  3.0208  0.3373
    1DOPE  H16Y  122   4.410   3.563   4.931  1.3999 -1.2657  0.3556
    1DOPE  C317  123   4.244   3.416   4.952 -0.3512  0.2361 -0.3548
    1DOPE  H17X  124   4.165   3.390   5.025 -0.8051 -0.3011 -1.0251
    1DOPE  H17Y  125   4.187   3.479   4.880 -0.4094 -0.1947 -0.6837
    1DOPE  C318  126   4.310   3.297   4.883  0.6673  0.9733  0.0040
    1DOPE  H18X  127   4.380   3.343   4.810  1.4420 -0.1646  0.0114
    1DOPE  H18Y  128   4.364   3.227   4.949  0.6527 -0.1275 -1.1280
    1DOPE  H18Z  129   4.245   3.237   4.817  1.4914  0.3983 -0.2915
    2DOPE     N  130   5.740   3.410   7.036  0.6362  0.2772 -0.4185
    2DOPE   HN1  131   5.798   3.487   6.995 -0.7305  1.4938 -0.1612
    2DOPE   HN2  132   5.667   3.373   6.971  1.2710  1.3754 -1.8130
    2DOPE   HN3  133   5.695   3.446   7.123  0.4610 -0.0062 -0.3916
    2DOPE   C12  134   5.832   3.300   7.074 -0.2406 -1.2277  0.8916
    2DOPE  H12A  135   5.771   3.212   7.106 -2.6537  0.8415  2.4018
    2DOPE  H12B  136   5.899   3.343   7.152  1.0086  0.4586 -1.0383
    2DOPE   C11  137   5.912   3.267   6.952 -0.3551 -0.0373 -0.0564
    2DOPE  H11A  138   5.995   3.201   6.988  1.7278  1.9070 -1.0247
    2DOPE  H11B  139   5.975   3.350   6.912 -0.7310  0.4015  0.2584
    2DOPE     P  140   5.928   3.134   6.725  0.0222  0.0536  0.3822
    2DOPE   O13  141   5.867   2.998   6.704 -0.7467  0.2069 -0.4738
    2DOPE   O14  142   6.072   3.135   6.760 -0.2277  0.4368  0.3520
    2DOPE   O11  143   5.910   3.226   6.598  0.6888 -0.1886 -0.2208
    2DOPE   O12  144   5.847   3.197   6.850  0.3474 -0.0190  0.7846
    2DOPE    C1  145   5.801   3.200   6.504  0.2864  0.1626 -0.6116
    2DOPE    HA  146   5.779   3.289   6.442 -1.3150  0.2121 -0.0088
    2DOPE    HB  147   5.708   3.174   6.559  1.2271 -0.7292  0.6174
    2DOPE    C2  148   5.827   3.078   6.409  0.4389  0.0739 -0.3446
    2DOPE    HS  149   5.821   2.991   6.478 -2.1714  0.7023  0.2986
    2DOPE   O21  150   5.953   3.099   6.348 -0.6591 -0.4190  0.0615
    2DOPE   C21  151   6.027   2.987   6.328  0.1870 -0.3078  0.0754
    2DOPE   O22  152   5.979   2.877   6.355 -0.7075 -0.5087 -0.1698
    2DOPE   C22  153   6.162   3.007   6.258  0.3394  0.0080 -0.8109
    2DOPE   H2R  154   6.219   2.916   6.285 -0.7770 -1.2769 -2.5537
    2DOPE   H2S  155   6.191   3.102   6.306 -0.0843 -0.3266  0.1492
    2DOPE    C3  156   5.727   3.055   6.299  0.0453 -0.6105 -0.2290
    2DOPE    HX  157   5.751   2.961   6.246 -0.2566 -0.9396  0.2171
    2DOPE    HY  158   5.729   3.123   6.211  0.6424 -0.9512 -0.4873
    2DOPE   O31  159   5.594   3.044   6.357  0.1034  0.5549 -0.2045
    2DOPE   C31  160   5.520   3.161   6.354 -0.5540  0.7011 -0.1450
    2DOPE   O32  161   5.552   3.269   6.311 -0.3306  0.1610 -0.0263
    2DOPE   C32  162   5.386   3.127   6.403  0.4608  0.6138  0.7708
    2DOPE   H2X  163   5.367   3.018   6.395 -1.0270  0.8800  0.3541
    2DOPE   H2Y  164   5.377   3.151   6.511 -1.4811  1.8229  0.3780
    2DOPE   C23  165   6.146   3.019   6.102 -0.4432  0.3041  0.2013
    2DOPE   H3R  166   6.231   3.078   6.060 -0.1927 -1.2478 -1.6167
    2DOPE   H3S  167   6.054   3.077   6.080 -0.2717  0.4528 -0.1421
    2DOPE   C24  168   6.151   2.882   6.031  0.4572 -0.0450  0.3891
    2DOPE   H4R  169   6.071   2.816   6.069 -1.5358  1.5531 -0.8361
    2DOPE   H4S  170   6.253   2.843   6.054 -0.7626 -2.4026  2.2501
    2DOPE   C25  171   6.131   2.895   5.872 -0.3779 -0.4677 -0.3250
    2DOPE   H5R  172   6.189   2.813   5.826  2.0915  0.1523  1.4231
    2DOPE   H5S  173   6.184   2.991   5.851 -0.2618 -0.5426 -0.3722
    2DOPE   C26  174   5.985   2.902   5.840 -0.3391 -1.0857  0.6068
    2DOPE   H6R  175   5.939   2.993   5.884 -0.0644  0.6201 -2.3455
    2DOPE   H6S  176   5.928   2.816   5.880  0.1931 -2.3791 -1.2498
    2DOPE   C27  177   5.955   2.895   5.687  0.2640  0.8225 -0.2657
    2DOPE   H7R  178   5.845   2.909   5.678  0.0737 -1.1475 -1.4702
    2DOPE   H7S  179   5.975   2.794   5.647  0.5408  1.0683 -0.7499
    2DOPE   C28  180   6.018   3.014   5.611  1.1379  0.0022  0.4294
    2DOPE   H8R  181   5.986   2.997   5.506  0.4537  0.0038  0.6370
    2DOPE   H8S  182   6.129   3.010   5.620  1.0690 -0.1090  1.3391
    2DOPE   C29  183   5.969   3.151   5.640 -0.8888 -0.2189  0.1532
    2DOPE   H9R  184   5.956   3.163   5.748 -1.0026 -1.1297  0.2480
    2DOPE  C210  185   5.961   3.259   5.565  0.0965  0.2390  0.5816
    2DOPE  H10R  186   5.928   3.353   5.612 -0.9519 -0.0210  0.4050
    2DOPE  C211  187   5.996   3.269   5.418  0.3999  0.0138  0.6403
    2DOPE  H11R  188   5.941   3.349   5.365  1.2919  0.1387 -0.1324
    2DOPE  H11S  189   5.962   3.176   5.367  1.7179 -1.0549  1.6340
    2DOPE  C212  190   6.150   3.285   5.376 -0.3589 -0.2082 -0.6425
    2DOPE  H12R  191   6.211   3.248   5.461  0.6318 -2.3956 -2.2182
    2DOPE  H12S  192   6.172   3.394   5.367  0.8039 -0.5016 -1.6271
    2DOPE  C213  193   6.185   3.219   5.244 -0.2607 -0.0498  0.3819
    2DOPE  H13R  194   6.185   3.110   5.262  0.1644 -0.3123 -1.0715
    2DOPE  H13S  195   6.290   3.248   5.220 -0.7765  0.4418 -1.4452
    2DOPE  C214  196   6.103   3.265   5.128  0.4121  0.0187 -0.2833
    2DOPE  H14R  197   6.106   3.376   5.131  3.0492 -0.0078  0.6665
    2DOPE  H14S  198   5.998   3.228   5.123  0.6221 -0.7611  0.7942
    2DOPE  C215  199   6.164   3.237   4.988 -0.1930 -0.7755  0.1208
    2DOPE  H15R  200   6.179   3.127   4.979 -1.2409 -1.0089  0.9750
    2DOPE  H15S  201   6.265   3.282   4.990  0.2181 -1.6225  3.1526
    2DOPE  C216  202   6.076   3.288   4.873 -0.4350 -0.8538 -0.1264
    2DOPE  H16R  203   6.031   3.384   4.908  1.7336  0.3052 -0.3062
    2DOPE  H16S  204   6.009   3.202   4.851  0.9406 -2.2332  0.8904
    2DOPE  C217  205   6.160   3.318   4.750  0.6088  0.6199 -0.2795
    2DOPE  H17R  206   6.216   3.231   4.711 -2.2970 -1.3758 -0.3583
    2DOPE  H17S  207   6.241   3.388   4.782  0.9849 -0.0844  0.3214
    2DOPE  C218  208   6.078   3.387   4.644 -0.1570  0.6470  0.4297
    2DOPE  H18R  209   6.010   3.313   4.596  0.7732 -0.8558  1.3588
    2DOPE  H18S  210   6.134   3.420   4.554 -1.5200 -0.0060 -0.7059
    2DOPE  H18T  211   6.021   3.475   4.681  0.7664  1.5856 -0.3312
    2DOPE   C33  212   5.270   3.197   6.336 -0.3807 -0.2083 -0.7248
    2DOPE   H3X  213   5.283   3.307   6.350 -1.9702 -0.2576  1.7181
    2DOPE   H3Y  214   5.177   3.157   6.382 -1.1504 -0.2018 -2.2283
    2DOPE   C34  215   5.266   3.152   6.192  0.6002  0.2796 -0.3207
    2DOPE   H4X  216   5.361   3.167   6.137  0.2663 -0.6653 -1.2121
    2DOPE   H4Y  217   5.238   3.044   6.185 -1.5802  0.5944  1.9999
    2DOPE   C35  218   5.151   3.231   6.123  0.2495 -0.0031 -0.0237
    2DOPE   H5X  219   5.181   3.337   6.111 -0.6191  0.3258  0.5700
    2DOPE   H5Y  220   5.054   3.225   6.177  0.7647  0.0257  0.9349
    2DOPE   C36  221   5.120   3.169   5.989 -0.0531  0.1691 -0.8206
    2DOPE   H6X  222   5.106   3.059   5.991  2.4869 -0.2130  0.4409
    2DOPE   H6Y  223   5.209   3.186   5.924 -1.0099 -0.1996 -2.2723
    2DOPE   C37  224   4.994   3.224   5.909  0.2511 -0.1655 -0.0187
    2DOPE   H7X  225   4.906   3.181   5.961  0.2624  0.0462  0.1785
    2DOPE   H7Y  226   4.989   3.333   5.927 -1.5664 -0.3112  0.6072
    2DOPE   C38  227   4.994   3.194   5.760  0.0452 -0.4032  0.1581
    2DOPE   H8X  228   5.094   3.222   5.721 -0.7354  1.0823 -0.8838
    2DOPE   H8Y  229   4.922   3.259   5.705 -0.5697  0.6023  2.0625
    2DOPE   C39  230   4.954   3.045   5.747 -0.2757 -0.0534 -0.2103
    2DOPE   H9X  231   4.896   3.005   5.831 -1.1781  2.2557  0.3646
    2DOPE  C310  232   5.007   2.949   5.662 -0.0429 -0.0833  0.5392
    2DOPE  H10X  233   4.958   2.850   5.664  1.4198 -0.8425  0.0403
    2DOPE  C311  234   5.116   2.969   5.566 -0.1246 -0.5642  0.0755
    2DOPE  H11X  235   5.181   3.053   5.601 -2.0012  0.4697  1.2219
    2DOPE  H11Y  236   5.173   2.874   5.560 -2.0273 -1.7539  0.0273
    2DOPE  C312  237   5.067   2.992   5.423 -0.2497  0.5178  0.2114
    2DOPE  H12X  238   5.015   2.899   5.395  0.7783 -0.4273  1.3346
    2DOPE  H12Y  239   5.158   2.997   5.359  0.7822  0.3506  1.6142
    2DOPE  C313  240   4.986   3.123   5.407 -0.2956 -0.2783  0.5514
    2DOPE  H13X  241   4.879   3.112   5.433 -0.3306  1.0172  1.0552
    2DOPE  H13Y  242   5.037   3.189   5.481 -0.8640  0.3671  0.3778
    2DOPE  C314  243   5.002   3.188   5.269 -0.7238  0.6198 -0.0584
    2DOPE  H14X  244   5.111   3.210   5.260 -0.7141  0.6404  0.0916
    2DOPE  H14Y  245   4.960   3.290   5.279  0.7834  1.1437  1.3952
    2DOPE  C315  246   4.935   3.105   5.159 -0.4022  0.2769  0.0802
    2DOPE  H15X  247   4.890   3.013   5.202  1.0605 -0.7386 -0.4771
    2DOPE  H15Y  248   5.017   3.073   5.091  0.8680  0.8433  1.2902
    2DOPE  C316  249   4.830   3.174   5.076  0.1567  0.5905  0.2519
    2DOPE  H16X  250   4.795   3.107   4.994  0.7587 -2.0822  2.0580
    2DOPE  H16Y  251   4.870   3.267   5.030  1.1050  0.0267 -0.1080
    2DOPE  C317  252   4.707   3.206   5.161 -0.6773  0.0993  0.0067
    2DOPE  H17X  253   4.693   3.121   5.231 -1.7235  1.1968  1.1884
    2DOPE  H17Y  254   4.740   3.293   5.222 -0.0911  0.9656 -1.4924
    2DOPE  C318  255   4.588   3.234   5.075  0.7809 -0.3011 -0.4295
    2DOPE  H18X  256   4.605   3.328   5.017  1.3552 -1.3517 -2.0616
    2DOPE  H18Y  257   4.578   3.152   5.000 -2.5208 -2.3463  1.9832
    2DOPE  H18Z  258   4.492   3.227   5.129  0.9190 -1.5037 -0.3139
    3DOPE     N  259   4.276   4.147   6.754  0.2964  0.5250  0.2249
    3DOPE   HN1  260   4.290   4.049   6.786 -0.1307  0.0547 -0.9605
    3DOPE   HN2  261   4.226   4.146   6.663  0.1276  0.1398  0.3179
    3DOPE   HN3  262   4.368   4.195   6.747  0.5853 -0.1087 -0.5462
    3DOPE   C12  263   4.212   4.222   6.858  0.3554  0.1718 -0.0824
    3DOPE  H12A  264   4.278   4.226   6.948  0.3121  3.4865 -0.0867
    3DOPE  H12B  265   4.112   4.179   6.880  0.1036 -0.1243 -1.7434
    3DOPE   C11  266   4.190   4.370   6.824  0.4413 -0.1720  0.6447
    3DOPE  H11A  267   4.286   4.404   6.780  0.3085 -1.2317 -0.5298
    3DOPE  H11B  268   4.165   4.434   6.910  0.7524 -0.6259  1.0778
    3DOPE     P  269   4.037   4.509   6.676  0.2223  0.1019  0.0109
    3DOPE   O13  270   3.984   4.587   6.792 -0.1721  0.5090  0.1596
    3DOPE   O14  271   3.950   4.479   6.556 -0.3906 -0.1914  0.1857
    3DOPE   O11  272   4.168   4.593   6.632  0.3943  0.2777  0.2967
    3DOPE   O12  273   4.087   4.370   6.728 -0.1391 -0.1652 -0.5140
    3DOPE    C1  274   4.242   4.537   6.521 -0.3410 -1.3297 -0.3802
    3DOPE    HA  275   4.196   4.454   6.465  1.0114 -0.1540 -3.4386
    3DOPE    HB  276   4.342   4.507   6.560 -0.7648 -2.9871 -0.5205
    3DOPE    C2  277   4.256   4.647   6.408  0.2490  0.2954  0.2548
    3DOPE    HS  278   4.313   4.608   6.321 -0.4298 -0.1734  0.0089
    3DOPE   O21  279   4.304   4.772   6.455  0.1699 -0.3375  0.2543
    3DOPE   C21  280   4.427   4.782   6.495 -0.1890  0.3027 -0.1763
    3DOPE   O22  281   4.511   4.690   6.501 -0.4021  0.0778  0.0688
    3DOPE   C22  282   4.459   4.922   6.545 -0.2193  0.4625  0.0498
    3DOPE   H2R  283   4.448   4.907   6.655 -1.3673  0.5418 -0.0379
    3DOPE   H2S  284   4.393   5.001   6.505 -0.8124 -0.8160 -1.6077
    3DOPE    C3  285   4.106   4.673   6.350 -0.5412 -0.4797  0.2290
    3DOPE    HX  286   4.043   4.723   6.427  0.4420  0.8995  0.1760
    3DOPE    HY  287   4.053   4.580   6.322  0.0928 -0.6998 -0.2520
    3DOPE   O31  288   4.116   4.749   6.228 -0.3560  0.2796 -0.4097
    3DOPE   C31  289   4.111   4.882   6.238  0.3482  0.1101  0.8000
    3DOPE   O32  290   4.058   4.948   6.329 -0.0282 -0.1740 -0.8571
    3DOPE   C32  291   4.178   4.937   6.109 -0.1895 -0.3186 -0.0504
    3DOPE   H2X  292   4.119   4.902   6.021 -1.1517  0.1584  0.3931
    3DOPE   H2Y  293   4.161   5.046   6.126  0.6113  0.4779 -3.4557
    3DOPE   C23  294   4.606   4.970   6.523 -0.4097  0.8920 -1.1573
    3DOPE   H3R  295   4.673   4.902   6.581 -3.3226  0.3017  1.8602
    3DOPE   H3S  296   4.633   5.070   6.562  1.4639  0.2121 -0.5774
    3DOPE   C24  297   4.636   4.980   6.372  0.6101  0.4524  0.0668
    3DOPE   H4R  298   4.565   5.050   6.322  0.8247  0.6781  0.0710
    3DOPE   H4S  299   4.624   4.886   6.315 -0.0576  0.9147 -0.5726
    3DOPE   C25  300   4.772   5.051   6.347  0.4041 -0.7657 -1.3703
    3DOPE   H5R  301   4.846   4.990   6.403 -0.8740 -0.8610  0.3173
    3DOPE   H5S  302   4.784   5.151   6.394 -2.0538 -1.6395  1.4033
    3DOPE   C26  303   4.807   5.062   6.197  0.2790  0.3084  0.8028
    3DOPE   H6R  304   4.728   5.115   6.139 -0.9120 -2.6556 -0.5024
    3DOPE   H6S  305   4.804   4.955   6.168 -0.3781  0.6680 -0.5540
    3DOPE   C27  306   4.948   5.123   6.191 -0.1349  0.3645  0.6792
    3DOPE   H7R  307   5.003   5.065   6.268 -0.6074 -1.9856 -0.6393
    3DOPE   H7S  308   4.937   5.228   6.225 -0.1355  0.3702  0.6614
    3DOPE   C28  309   5.016   5.112   6.055  0.1125 -0.7665 -0.5084
    3DOPE   H8R  310   4.968   5.188   5.990  1.0280  0.1470 -0.1474
    3DOPE   H8S  311   5.005   5.015   6.003 -2.8805 -0.0242 -1.4465
    3DOPE   C29  312   5.167   5.147   6.078 -0.6967  0.6589 -0.0648
    3DOPE   H9R  313   5.194   5.254   6.072 -0.2577  0.5306 -0.4447
    3DOPE  C210  314   5.262   5.055   6.095  0.0040 -0.6271 -0.7893
    3DOPE  H10R  315   5.365   5.092   6.108 -0.7795  1.1700  0.8868
    3DOPE  C211  316   5.234   4.914   6.134  0.1537  0.8125  0.5719
    3DOPE  H11R  317   5.142   4.906   6.195  0.7405  3.2217  1.8809
    3DOPE  H11S  318   5.315   4.864   6.193 -1.2470 -1.8021  0.4262
    3DOPE  C212  319   5.223   4.820   6.004  0.0047 -0.1573 -0.1509
    3DOPE  H12R  320   5.150   4.853   5.927  2.6646  0.5622 -2.5397
    3DOPE  H12S  321   5.199   4.716   6.032  0.3457  0.0352  0.9093
    3DOPE  C213  322   5.358   4.804   5.935  0.0737  0.4630  0.4423
    3DOPE  H13R  323   5.415   4.749   6.013 -1.9255 -0.5861  1.2299
    3DOPE  H13S  324   5.402   4.906   5.928  1.3138 -0.1834 -1.8962
    3DOPE  C214  325   5.351   4.717   5.811  0.0148 -0.0041  0.7027
    3DOPE  H14R  326   5.269   4.760   5.749  1.9558  2.1718 -0.5266
    3DOPE  H14S  327   5.328   4.609   5.822  1.6988 -0.4651  0.1094
    3DOPE  C215  328   5.484   4.721   5.738  0.3676  0.2182 -0.6317
    3DOPE  H15R  329   5.548   4.646   5.789  0.2750  0.4475 -0.1815
    3DOPE  H15S  330   5.540   4.817   5.748  0.9022 -0.3128  2.3084
    3DOPE  C216  331   5.457   4.693   5.591 -0.2194 -0.0159  0.0149
    3DOPE  H16R  332   5.420   4.789   5.550  0.4335  0.3784  0.3309
    3DOPE  H16S  333   5.371   4.622   5.593 -0.1333 -0.1086  0.6183
    3DOPE  C217  334   5.572   4.622   5.523 -0.3255 -0.5971 -0.4993
    3DOPE  H17R  335   5.595   4.525   5.571 -0.0871 -1.6171 -2.5561
    3DOPE  H17S  336   5.658   4.691   5.513 -1.2908  0.7739  0.2964
    3DOPE  C218  337   5.522   4.596   5.379  0.3183  1.0700 -0.1796
    3DOPE  H18R  338   5.565   4.502   5.339 -0.0672  1.2003 -0.9291
    3DOPE  H18S  339   5.556   4.685   5.321 -0.2508  0.7092 -1.0877
    3DOPE  H18T  340   5.411   4.596   5.371  0.4158  1.1930 -2.2001
    3DOPE   C33  341   4.328   4.907   6.092  0.1136  0.3551  0.5752
    3DOPE   H3X  342   4.337   4.798   6.073 -1.0455 -0.0872  2.2793
    3DOPE   H3Y  343   4.391   4.916   6.183  2.6603 -0.5368 -0.9938
    3DOPE   C34  344   4.392   4.986   5.979 -0.4441  0.1118  0.0355
    3DOPE   H4X  345   4.316   4.985   5.897 -3.2403 -1.0966  2.4631
    3DOPE   H4Y  346   4.400   5.093   6.008 -0.1642 -0.0015  0.3742
    3DOPE   C35  347   4.527   4.933   5.942  0.2226  0.9842  0.1897
    3DOPE   H5X  348   4.514   4.832   5.897 -0.1607  1.1872 -0.1749
    3DOPE   H5Y  349   4.594   4.926   6.030  1.2411  0.8375 -0.5794
    3DOPE   C36  350   4.615   5.024   5.847  0.5696  0.3628 -0.1993
    3DOPE   H6X  351   4.693   4.961   5.799 -0.6003 -0.8505 -0.5599
    3DOPE   H6Y  352   4.660   5.107   5.906 -1.0309 -0.1885  1.9466
    3DOPE   C37  353   4.529   5.087   5.734 -0.1074  0.2561 -0.8140
    3DOPE   H7X  354   4.471   5.005   5.686 -0.3771  0.3021 -0.5744
    3DOPE   H7Y  355   4.457   5.155   5.785  0.3285  0.0152  0.1541
    3DOPE   C38  356   4.601   5.168   5.627  0.1239  0.0247 -0.5548
    3DOPE   H8X  357   4.665   5.095   5.574  0.8144 -0.4466  0.8844
    3DOPE   H8Y  358   4.671   5.230   5.687 -0.2792 -0.8099  0.8233
    3DOPE   C39  359   4.506   5.235   5.530  0.3751  0.1049  0.2636
    3DOPE   H9X  360   4.409   5.248   5.579 -0.1794 -1.3779 -0.3791
    3DOPE  C310  361   4.539   5.253   5.401 -0.4550 -0.4721 -0.0732
    3DOPE  H10X  362   4.459   5.297   5.340  0.6886  0.3895 -0.9897
    3DOPE  C311  363   4.670   5.227   5.322  0.5345 -0.4645 -0.0438
    3DOPE  H11X  364   4.679   5.309   5.247  0.6184 -1.1425 -0.7869
    3DOPE  H11Y  365   4.754   5.246   5.392  0.9645  0.3017 -0.7578
    3DOPE  C312  366   4.691   5.101   5.232  0.1972 -0.4016 -0.2700
    3DOPE  H12X  367   4.661   5.015   5.296 -1.3747 -0.2969 -0.8127
    3DOPE  H12Y  368   4.799   5.105   5.206  0.1760  1.5105 -0.2117
    3DOPE  C313  369   4.617   5.101   5.099 -0.0557 -0.1741 -0.1797
    3DOPE  H13X  370   4.507   5.088   5.111 -0.1404 -2.4583 -2.5134
    3DOPE  H13Y  371   4.637   5.197   5.047  0.2855 -1.3976 -2.4509
    3DOPE  C314  372   4.671   4.983   5.015  0.5365 -0.1602 -0.3186
    3DOPE  H14X  373   4.761   5.020   4.961  0.4165  0.5208 -0.0608
    3DOPE  H14Y  374   4.601   4.951   4.935 -0.0135  2.1565 -0.8278
    3DOPE  C315  375   4.712   4.852   5.096  0.1609  0.1572 -0.1279
    3DOPE  H15X  376   4.625   4.830   5.162 -0.3721  0.0363 -0.8592
    3DOPE  H15Y  377   4.790   4.883   5.169 -1.8930  0.0568  2.2665
    3DOPE  C316  378   4.751   4.725   5.013  0.5664  0.3775  0.4415
    3DOPE  H16X  379   4.655   4.683   4.976  1.7565 -1.3566 -0.8190
    3DOPE  H16Y  380   4.795   4.640   5.070 -1.0072 -0.6709  0.1334
    3DOPE  C317  381   4.832   4.754   4.890  0.3018 -0.5372  0.5770
    3DOPE  H17X  382   4.834   4.654   4.842 -0.4631 -0.9724  1.4224
    3DOPE  H17Y  383   4.774   4.816   4.817  0.7164 -0.5971  0.1902
    3DOPE  C318  384   4.979   4.813   4.920  0.4817  0.4597  0.5813
    3DOPE  H18X  385   5.031   4.826   4.822  0.4070 -0.9522  0.3201
    3DOPE  H18Y  386   4.960   4.916   4.956 -1.1758 -0.0793  1.3134
    3DOPE  H18Z  387   5.033   4.760   5.001  1.1410  1.4564  0.8140
    4DOPE     N  388   5.939   2.542   6.933  0.3617 -0.6285 -0.1509
    4DOPE   HN1  389   5.994   2.617   6.888 -2.5894  1.5076 -0.4829
    4DOPE   HN2  390   5.857   2.521   6.873  0.2617 -0.2341 -0.1539
    4DOPE   HN3  391   5.893   2.585   7.016 -1.5901  1.4559 -2.1873
    4DOPE   C12  392   6.021   2.425   6.979 -0.1398 -0.1237 -0.9605
    4DOPE  H12A  393   6.126   2.455   7.000  0.0949 -0.7377 -1.2383
    4DOPE  H12B  394   6.021   2.347   6.900 -0.4197 -1.4832  0.3348
    4DOPE   C11  395   5.947   2.349   7.090 -0.2263  0.9809 -0.3453
    4DOPE  H11A  396   5.934   2.397   7.190 -0.0634 -0.7401  0.5384
    4DOPE  H11B  397   6.011   2.260   7.103  0.0171  1.2144  0.0896
    4DOPE     P  398   5.678   2.360   7.089 -0.0190  0.0755  0.4127
    4DOPE   O13  399   5.683   2.506   7.095 -0.2934 -0.1939  0.1914
    4DOPE   O14  400   5.623   2.299   7.207  0.0234 -0.1509 -0.5466
    4DOPE   O11  401   5.593   2.315   6.963 -0.3383 -0.5177 -0.9331
    4DOPE   O12  402   5.818   2.298   7.050  0.0177  0.0857  0.2940
    4DOPE    C1  403   5.589   2.189   6.901  0.3424 -0.5006  0.6662
    4DOPE    HA  404   5.593   2.104   6.974  1.1899 -1.0529 -0.0073
    4DOPE    HB  405   5.678   2.173   6.836 -0.0754  0.3309 -0.1293
    4DOPE    C2  406   5.457   2.166   6.823  0.8789 -0.1144 -0.8846
    4DOPE    HS  407   5.426   2.059   6.816  0.0016 -0.0236  1.0552
    4DOPE   O21  408   5.461   2.231   6.695  0.1528  0.8308  0.5670
    4DOPE   C21  409   5.519   2.165   6.592 -0.2320  0.0804 -0.1872
    4DOPE   O22  410   5.584   2.062   6.603 -0.3897  0.3081 -0.3381
    4DOPE   C22  411   5.482   2.230   6.460 -0.3996  0.0426 -0.2242
    4DOPE   H2R  412   5.551   2.316   6.442  1.0299 -0.9576  0.3262
    4DOPE   H2S  413   5.378   2.269   6.467 -1.0974 -1.6596 -0.7683
    4DOPE    C3  414   5.337   2.225   6.908  0.5660 -0.3474  0.1103
    4DOPE    HX  415   5.362   2.333   6.908  0.8389 -0.4078 -0.0468
    4DOPE    HY  416   5.329   2.198   7.015 -0.0849  0.6966  0.3386
    4DOPE   O31  417   5.209   2.205   6.849  0.5195 -0.4661  0.4032
    4DOPE   C31  418   5.135   2.309   6.809 -0.6477 -0.0233  0.7354
    4DOPE   O32  419   5.152   2.427   6.843 -0.1588 -0.0320  0.6070
    4DOPE   C32  420   5.026   2.258   6.715 -0.0444 -0.1377  0.8423
    4DOPE   H2X  421   4.988   2.157   6.744  0.3537  0.1624  2.4943
    4DOPE   H2Y  422   4.936   2.314   6.749 -0.6103 -1.8722  2.3730
    4DOPE   C23  423   5.501   2.141   6.335 -0.0123  0.3385 -1.1122
    4DOPE   H3R  424   5.415   2.152   6.265 -1.2917 -1.3864  0.1018
    4DOPE   H3S  425   5.498   2.036   6.371 -0.1963  0.4203 -0.8845
    4DOPE   C24  426   5.629   2.166   6.261 -0.8653 -0.2681  0.2517
    4DOPE   H4R  427   5.713   2.120   6.318  0.2111  1.9717  0.5781
    4DOPE   H4S  428   5.639   2.275   6.242 -0.2813  0.1067  2.4001
    4DOPE   C25  429   5.628   2.113   6.118 -0.6203  1.0299 -0.2327
    4DOPE   H5R  430   5.571   2.018   6.120 -0.9439  1.2311  0.0949
    4DOPE   H5S  431   5.734   2.089   6.092 -0.7381 -1.3927  1.3023
    4DOPE   C26  432   5.568   2.205   6.017  0.1643 -0.0236 -0.2437
    4DOPE   H6R  433   5.478   2.257   6.055  1.0237  0.5205  1.1081
    4DOPE   H6S  434   5.542   2.149   5.924 -1.6191 -1.0301  0.8038
    4DOPE   C27  435   5.670   2.312   5.978 -0.5937 -0.9845 -0.6792
    4DOPE   H7R  436   5.762   2.280   5.925  0.8305 -0.1855  1.2059
    4DOPE   H7S  437   5.722   2.355   6.066 -1.7766  1.1326 -0.9600
    4DOPE   C28  438   5.593   2.421   5.895 -0.4630  0.2618  0.0441
    4DOPE   H8R  439   5.508   2.462   5.954  0.4438 -1.4163  2.7224
    4DOPE   H8S  440   5.552   2.368   5.807  0.1958  2.3475 -1.5890
    4DOPE   C29  441   5.694   2.525   5.846  0.3392 -0.1455 -0.3652
    4DOPE   H9R  442   5.713   2.606   5.918 -1.8714  0.0797  0.0241
    4DOPE  C210  443   5.752   2.541   5.726 -0.7597 -0.4669  0.0414
    4DOPE  H10R  444   5.818   2.627   5.707  1.2388 -1.6809  1.0819
    4DOPE  C211  445   5.726   2.450   5.606  0.0173  0.0857 -0.1043
    4DOPE  H11R  446   5.625   2.405   5.613 -1.5419  3.1605 -1.0619
    4DOPE  H11S  447   5.803   2.370   5.600 -0.2282 -0.0830 -1.0102
    4DOPE  C212  448   5.732   2.543   5.483 -0.8363  0.2818 -0.3054
    4DOPE  H12R  449   5.733   2.474   5.396 -0.5631 -0.0315 -0.0596
    4DOPE  H12S  450   5.824   2.602   5.464 -1.3555  1.2163  0.0622
    4DOPE  C213  451   5.622   2.643   5.478 -0.0168  0.1389  0.9583
    4DOPE  H13R  452   5.641   2.731   5.543 -2.0980  1.9881 -0.7727
    4DOPE  H13S  453   5.529   2.596   5.515  0.8701 -1.4434  1.2853
    4DOPE  C214  454   5.605   2.699   5.331  1.0540  0.3807  0.7669
    4DOPE  H14R  455   5.641   2.624   5.258 -1.8444 -1.3849  0.9631
    4DOPE  H14S  456   5.670   2.788   5.321 -2.0682  2.7752  0.2530
    4DOPE  C215  457   5.452   2.724   5.304 -0.2132 -0.2132 -0.7444
    4DOPE  H15R  458   5.417   2.796   5.381 -1.7185 -3.4929  1.8309
    4DOPE  H15S  459   5.392   2.630   5.305 -1.4908  0.5721 -0.6860
    4DOPE  C216  460   5.440   2.783   5.163  1.0336  0.7060  0.4546
    4DOPE  H16R  461   5.471   2.699   5.098 -0.4328  1.6990 -1.6353
    4DOPE  H16S  462   5.500   2.874   5.141  1.7858  0.7840  2.5986
    4DOPE  C217  463   5.299   2.833   5.123 -0.2052  0.0717  0.1241
    4DOPE  H17R  464   5.306   2.832   5.012  2.5540 -0.5290  0.2166
    4DOPE  H17S  465   5.295   2.936   5.162  1.7075  0.6231 -0.9700
    4DOPE  C218  466   5.177   2.752   5.167 -0.4143  0.3823  0.0111
    4DOPE  H18R  467   5.087   2.787   5.111 -0.6316  0.4185  0.3757
    4DOPE  H18S  468   5.164   2.760   5.277 -2.2979 -0.6064 -0.0867
    4DOPE  H18T  469   5.186   2.645   5.139 -0.9531  1.1474 -3.5949
    4DOPE   C33  470   5.053   2.271   6.557  0.1095 -0.1832 -0.0164
    4DOPE   H3X  471   5.132   2.196   6.533  0.2797  0.0141 -0.0729
    4DOPE   H3Y  472   5.102   2.369   6.539  0.7618 -0.5005 -0.0067
    4DOPE   C34  473   4.935   2.239   6.463  0.1860  0.4072 -0.2243
    4DOPE   H4X  474   4.895   2.140   6.494 -1.0661  0.3906 -1.7601
    4DOPE   H4Y  475   4.846   2.304   6.477  0.0824  0.3652 -0.6690
    4DOPE   C35  476   4.965   2.221   6.314  0.0104 -0.0032 -0.0079
    4DOPE   H5X  477   4.995   2.116   6.296 -0.0313  0.0002 -0.0958
    4DOPE   H5Y  478   5.053   2.284   6.286  0.2177 -0.5069 -0.5265
    4DOPE   C36  479   4.850   2.258   6.213 -0.1208  0.4139 -0.4538
    4DOPE   H6X  480   4.839   2.368   6.205  3.5639  1.0064  0.9422
    4DOPE   H6Y  481   4.751   2.223   6.248 -0.0592 -1.1582 -1.7006
    4DOPE   C37  482   4.868   2.202   6.068  0.0219  0.8016 -0.7776
    4DOPE   H7X  483   4.951   2.261   6.022  1.1963 -1.1222 -1.2368
    4DOPE   H7Y  484   4.894   2.094   6.073 -2.1639  0.2906  3.1247
    4DOPE   C38  485   4.736   2.215   5.992  0.4085  0.0251 -0.0239
    4DOPE   H8X  486   4.733   2.324   5.974 -0.9583 -0.1877 -1.2369
    4DOPE   H8Y  487   4.646   2.189   6.052 -0.0833  0.4818 -0.5550
    4DOPE   C39  488   4.755   2.130   5.867  0.4595  0.4964 -0.2507
    4DOPE   H9X  489   4.796   2.030   5.886  3.1326  0.9698 -2.7640
    4DOPE  C310  490   4.738   2.167   5.738 -0.0836 -0.7286  0.7519
    4DOPE  H10X  491   4.764   2.100   5.655 -0.7949  1.2224 -1.1592
    4DOPE  C311  492   4.690   2.300   5.679  0.0458  0.2718  0.1985
    4DOPE  H11X  493   4.654   2.365   5.761 -1.2002 -1.9476  1.5124
    4DOPE  H11Y  494   4.774   2.346   5.623  0.2214 -1.5675 -1.1663
    4DOPE  C312  495   4.570   2.281   5.581  0.3561 -0.5696 -0.1544
    4DOPE  H12X  496   4.543   2.386   5.557  0.1595 -0.2256  1.4974
    4DOPE  H12Y  497   4.481   2.229   5.621  1.2607 -0.9345  1.4559
    4DOPE  C313  498   4.609   2.209   5.448  0.2208  0.2696  0.3424
    4DOPE  H13X  499   4.700   2.253   5.402 -0.5975  1.2736 -0.3807
    4DOPE  H13Y  500   4.622   2.101   5.469 -0.7459  0.5194  2.4688
    4DOPE  C314  501   4.502   2.215   5.335  0.4822 -0.0546 -0.1786
    4DOPE  H14X  502   4.491   2.324   5.313  0.8903 -0.2740 -1.5710
    4DOPE  H14Y  503   4.403   2.185   5.376  0.7424  0.7980  1.1524
    4DOPE  C315  504   4.549   2.139   5.208  0.1075 -0.4742  0.3360
    4DOPE  H15X  505   4.518   2.033   5.199 -1.2503  0.0683 -2.8656
    4DOPE  H15Y  506   4.660   2.133   5.203  0.0594 -0.9398 -0.3683
    4DOPE  C316  507   4.496   2.203   5.075  0.0705 -0.2546  0.4967
    4DOPE  H16X  508   4.513   2.313   5.081  0.0702 -0.2867  1.0951
    4DOPE  H16Y  509   4.386   2.192   5.066  0.1684 -1.5228  0.7175
    4DOPE  C317  510   4.570   2.149   4.954 -0.3520  0.4190  0.4951
    4DOPE  H17X  511   4.678   2.172   4.960 -0.2391  0.0401  0.0225
    4DOPE  H17Y  512   4.551   2.040   4.963  0.3494  0.4396  2.6230
    4DOPE  C318  513   4.520   2.198   4.821 -0.5248  0.6516 -0.2072
    4DOPE  H18X  514   4.557   2.300   4.798  1.1619  0.0829 -0.1258
    4DOPE  H18Y  515   4.568   2.132   4.746 -1.2063 -1.7653  1.3896
    4DOPE  H18Z  516   4.409   2.187   4.821 -0.3815 -2.1583  2.4190
    5DOPE     N  517   3.238   3.581   6.862 -0.5064  0.1157 -0.4405
    5DOPE   HN1  518   3.230   3.484   6.826 -1.8658  0.4335 -1.0341
    5DOPE   HN2  519   3.341   3.597   6.859 -0.4755  0.5467  1.7355
    5DOPE   HN3  520   3.197   3.591   6.957 -0.7125 -2.5677 -0.1612
    5DOPE   C12  521   3.169   3.662   6.761 -0.0506  0.4736  0.3091
    5DOPE  H12A  522   3.131   3.752   6.815  0.2992  1.0754 -0.4365
    5DOPE  H12B  523   3.077   3.604   6.738  1.7468 -1.9014 -1.3448
    5DOPE   C11  524   3.243   3.675   6.627 -0.2901  0.0202  0.2627
    5DOPE  H11A  525   3.169   3.713   6.553  0.1129 -0.7360 -0.5585
    5DOPE  H11B  526   3.275   3.570   6.605 -1.9860 -0.8638  1.7400
    5DOPE     P  527   3.502   3.717   6.678 -0.0522 -0.0708  0.0393
    5DOPE   O13  528   3.481   3.633   6.801 -0.0756  0.0273  0.4406
    5DOPE   O14  529   3.601   3.831   6.684  0.1543  0.3231 -0.1137
    5DOPE   O11  530   3.532   3.609   6.568 -0.0466  0.0377 -0.3921
    5DOPE   O12  531   3.356   3.775   6.635  0.2475  0.5117 -0.0162
    5DOPE    C1  532   3.592   3.650   6.448 -0.0926 -0.2689  0.2990
    5DOPE    HA  533   3.680   3.584   6.445  0.2752  0.2537 -1.3067
    5DOPE    HB  534   3.632   3.754   6.446  0.4228 -0.4426  1.1913
    5DOPE    C2  535   3.507   3.628   6.322  0.2044  0.7011  0.1225
    5DOPE    HS  536   3.563   3.641   6.228  0.1960 -0.9586 -0.1436
    5DOPE   O21  537   3.390   3.709   6.323  0.1916 -0.6814  0.1348
    5DOPE   C21  538   3.410   3.834   6.295  0.2998 -0.0485 -0.8356
    5DOPE   O22  539   3.515   3.886   6.261 -0.1637  0.6542 -0.5080
    5DOPE   C22  540   3.278   3.915   6.318  0.7716  0.0708  0.3542
    5DOPE   H2R  541   3.259   3.924   6.427  3.6817  2.9364  0.7763
    5DOPE   H2S  542   3.189   3.866   6.272  0.7053  1.4641 -1.0792
    5DOPE    C3  543   3.465   3.476   6.316  0.1841 -0.6317 -0.0670
    5DOPE    HX  544   3.395   3.466   6.402  1.7782  0.2576  1.3926
    5DOPE    HY  545   3.554   3.413   6.333 -0.2858 -1.7715 -1.5825
    5DOPE   O31  546   3.406   3.442   6.190  0.1236 -0.2362 -0.5301
    5DOPE   C31  547   3.482   3.403   6.084  0.0478 -0.3475  0.0408
    5DOPE   O32  548   3.602   3.392   6.080  0.3251  0.3220 -0.5230
    5DOPE   C32  549   3.393   3.375   5.964 -0.1560 -0.0618 -0.2748
    5DOPE   H2X  550   3.455   3.358   5.874  0.1099 -1.1502  0.0870
    5DOPE   H2Y  551   3.340   3.284   6.000 -0.2436  0.3835  0.7569
    5DOPE   C23  552   3.283   4.058   6.254 -0.6201  0.6777  0.0971
    5DOPE   H3R  553   3.389   4.080   6.230 -1.2870 -0.1397 -4.3717
    5DOPE   H3S  554   3.253   4.124   6.339 -2.0008 -0.0157  0.1796
    5DOPE   C24  555   3.193   4.086   6.137 -0.3379 -0.5331  0.3783
    5DOPE   H4R  556   3.084   4.077   6.155 -0.5294 -2.4842 -1.2737
    5DOPE   H4S  557   3.213   4.019   6.050 -0.3633  0.3839 -0.3496
    5DOPE   C25  558   3.211   4.239   6.094 -0.4859  0.1403 -0.3222
    5DOPE   H5R  559   3.188   4.309   6.177  3.3811  0.8369  0.3200
    5DOPE   H5S  560   3.140   4.270   6.014 -0.4616 -0.5494 -0.6215
    5DOPE   C26  561   3.355   4.276   6.054 -0.1183 -0.4035  0.2467
    5DOPE   H6R  562   3.423   4.272   6.142 -0.3367 -0.1374  0.4289
    5DOPE   H6S  563   3.352   4.379   6.012  0.6876 -0.8378 -0.9240
    5DOPE   C27  564   3.402   4.200   5.930  0.0757 -0.3411 -0.3903
    5DOPE   H7R  565   3.327   4.214   5.850 -1.9786 -3.0748  0.9046
    5DOPE   H7S  566   3.395   4.090   5.947 -1.3031 -0.0187  1.3601
    5DOPE   C28  567   3.548   4.225   5.884 -0.5071 -0.2274 -0.5365
    5DOPE   H8R  568   3.553   4.335   5.878 -0.7991  0.0902  3.0002
    5DOPE   H8S  569   3.544   4.188   5.779 -2.2796  0.0260 -0.5724
    5DOPE   C29  570   3.654   4.158   5.974 -0.2582  0.1246 -0.2845
    5DOPE   H9R  571   3.615   4.069   6.026  0.6676  0.1887  0.5377
    5DOPE  C210  572   3.784   4.195   5.992  0.0987 -0.1972  0.0470
    5DOPE  H10R  573   3.855   4.125   6.039 -0.5066 -2.1798 -1.7973
    5DOPE  C211  574   3.863   4.288   5.919  0.0450  0.2063  0.6389
    5DOPE  H11R  575   3.931   4.341   5.990  1.4387  0.2694 -0.6885
    5DOPE  H11S  576   3.793   4.363   5.876 -1.4440 -0.4922  1.7834
    5DOPE  C212  577   3.952   4.225   5.813 -0.5632  0.3763 -0.4409
    5DOPE  H12R  578   4.015   4.150   5.866 -0.7292  0.5572  0.0107
    5DOPE  H12S  579   4.023   4.301   5.774 -0.6490  0.3609 -0.6314
    5DOPE  C213  580   3.874   4.161   5.699  0.6094  0.7794  0.1049
    5DOPE  H13R  581   3.819   4.246   5.651  0.6713  1.8358  1.8309
    5DOPE  H13S  582   3.797   4.091   5.737  0.7174  0.7757  0.3192
    5DOPE  C214  583   3.968   4.101   5.590  0.0881 -0.3806 -0.1853
    5DOPE  H14R  584   4.032   4.014   5.614  0.6162 -0.3667 -1.4569
    5DOPE  H14S  585   4.023   4.188   5.547 -0.2743  0.5582  1.1583
    5DOPE  C215  586   3.883   4.048   5.471  0.1780  0.3255 -0.2950
    5DOPE  H15R  587   3.792   4.106   5.444 -0.5486 -0.5842  0.1369
    5DOPE  H15S  588   3.851   3.945   5.497  0.1299  0.5270  0.4531
    5DOPE  C216  589   3.973   4.029   5.349 -0.5948  0.4573  0.1592
    5DOPE  H16R  590   4.054   3.956   5.372 -2.1719 -1.7051 -0.8614
    5DOPE  H16S  591   4.014   4.126   5.314  1.6842 -1.4058 -2.8148
    5DOPE  C217  592   3.907   3.973   5.230  0.3321  0.0744  0.6894
    5DOPE  H17R  593   3.858   4.056   5.174  2.9441 -0.7075 -3.1314
    5DOPE  H17S  594   3.834   3.896   5.262  0.2860  0.8805  2.6001
    5DOPE  C218  595   4.000   3.903   5.129  0.4917  0.2379  0.3270
    5DOPE  H18R  596   4.018   3.799   5.165  1.3777  0.4207  0.4128
    5DOPE  H18S  597   4.092   3.963   5.116  0.3832  0.1975 -0.6967
    5DOPE  H18T  598   3.944   3.893   5.033 -2.0207  2.4687  1.4164
    5DOPE   C33  599   3.277   3.475   5.949 -0.1554  0.2680 -0.0640
    5DOPE   H3X  600   3.237   3.514   6.045  1.0881 -1.5245  1.2644
    5DOPE   H3Y  601   3.196   3.415   5.904 -1.8540  0.9223  1.9469
    5DOPE   C34  602   3.309   3.599   5.863  0.0712  1.0451  0.2484
    5DOPE   H4X  603   3.320   3.577   5.755  0.8235  1.8512  0.1555
    5DOPE   H4Y  604   3.218   3.662   5.856 -1.8126 -1.5507 -0.2388
    5DOPE   C35  605   3.429   3.682   5.904  0.0039  0.3734  0.2846
    5DOPE   H5X  606   3.523   3.635   5.867 -1.4753 -0.7829 -2.3413
    5DOPE   H5Y  607   3.419   3.684   6.015 -1.2946  0.4229  0.1848
    5DOPE   C36  608   3.434   3.823   5.839 -0.3823  0.4391 -0.5516
    5DOPE   H6X  609   3.512   3.881   5.893 -2.1287  2.1060  0.2992
    5DOPE   H6Y  610   3.337   3.876   5.845  0.2260  1.5191  0.3115
    5DOPE   C37  611   3.484   3.812   5.687  0.1448  0.1069 -0.4495
    5DOPE   H7X  612   3.574   3.747   5.674  1.0345  1.2042  0.0015
    5DOPE   H7Y  613   3.400   3.761   5.635  0.9564  0.1286 -1.8324
    5DOPE   C38  614   3.513   3.953   5.623 -0.2123 -0.1889  0.1739
    5DOPE   H8X  615   3.554   3.926   5.523  1.5695 -0.0700  0.8377
    5DOPE   H8Y  616   3.598   3.996   5.680 -0.0257  0.1225 -0.3335
    5DOPE   C39  617   3.395   4.044   5.603 -0.0824  0.6302 -0.2424
    5DOPE   H9X  618   3.336   4.056   5.696 -0.0475  0.6794 -0.2266
    5DOPE  C310  619   3.370   4.122   5.496  0.7656  0.0159  0.0399
    5DOPE  H10X  620   3.268   4.162   5.493  0.0502 -1.4903  1.9228
    5DOPE  C311  621   3.437   4.125   5.361 -0.4575  0.8655 -0.0770
    5DOPE  H11X  622   3.538   4.172   5.373 -0.5779  0.5583  2.9552
    5DOPE  H11Y  623   3.448   4.023   5.317 -2.9160  1.3446 -2.0246
    5DOPE  C312  624   3.357   4.187   5.248 -0.1047  0.1540  0.4743
    5DOPE  H12X  625   3.337   4.295   5.263  0.0052  0.3059 -0.4544
    5DOPE  H12Y  626   3.256   4.140   5.240 -0.0139  0.2905 -2.1237
    5DOPE  C313  627   3.418   4.179   5.106 -0.0283 -0.1285  0.1807
    5DOPE  H13X  628   3.481   4.088   5.092  0.6798  0.4564 -0.4687
    5DOPE  H13Y  629   3.337   4.154   5.034 -0.2160 -1.3701  0.7866
    5DOPE  C314  630   3.500   4.300   5.072  0.2037 -0.2873  0.4784
    5DOPE  H14X  631   3.579   4.316   5.148  2.8828  0.2208 -2.1926
    5DOPE  H14Y  632   3.431   4.387   5.071 -0.9029 -1.1308 -1.2828
    5DOPE  C315  633   3.556   4.303   4.926  0.1225  0.6203  0.2445
    5DOPE  H15X  634   3.601   4.404   4.916 -0.1174  0.6459 -0.6288
    5DOPE  H15Y  635   3.491   4.291   4.837  0.6894  1.6661 -0.3316
    5DOPE  C316  636   3.674   4.212   4.921 -0.3610  0.0379  0.0254
    5DOPE  H16X  637   3.639   4.108   4.904  1.2378 -0.2950 -1.5940
    5DOPE  H16Y  638   3.724   4.224   5.019  0.3231  0.6234 -0.3845
    5DOPE  C317  639   3.780   4.249   4.811  0.2311 -0.1849 -0.2026
    5DOPE  H17X  640   3.851   4.164   4.808  1.1349  0.6074 -1.7919
    5DOPE  H17Y  641   3.734   4.250   4.710 -1.9969  0.1758  0.7365
    5DOPE  C318  642   3.847   4.384   4.843  0.3947  0.9415 -0.0926
    5DOPE  H18X  643   3.934   4.416   4.782  2.1879  0.7897  2.2432
    5DOPE  H18Y  644   3.779   4.472   4.834 -1.8474 -0.7868 -1.0303
    5DOPE  H18Z  645   3.890   4.389   4.945 -1.9993 -0.3898  1.0785
    6DOPE     N  646   3.692   4.537   6.539  0.1223 -0.5455  0.0232
    6DOPE   HN1  647   3.795   4.527   6.544  0.1603 -3.0784 -2.8851
    6DOPE   HN2  648   3.648   4.454   6.584 -0.4299  0.0753  0.6668
    6DOPE   HN3  649   3.664   4.540   6.439 -2.5471 -3.1593  0.5395
    6DOPE   C12  650   3.622   4.650   6.618  0.0695  0.1207  0.2356
    6DOPE  H12A  651   3.610   4.606   6.720  2.0419  0.2997  0.6010
    6DOPE  H12B  652   3.520   4.661   6.577  0.4310 -1.7358 -1.3241
    6DOPE   C11  653   3.697   4.780   6.623  0.2826 -0.3973 -0.4687
    6DOPE  H11A  654   3.694   4.808   6.515 -1.2261 -0.8266 -0.5551
    6DOPE  H11B  655   3.799   4.761   6.663  0.6277 -1.8590 -1.9304
    6DOPE     P  656   3.646   5.029   6.666 -0.5780 -0.0155  0.1983
    6DOPE   O13  657   3.788   5.054   6.632  0.3921 -0.3987  0.3460
    6DOPE   O14  658   3.587   5.111   6.776 -0.3878 -0.5294  0.0242
    6DOPE   O11  659   3.559   5.041   6.535 -0.2878  0.4024  0.7799
    6DOPE   O12  660   3.637   4.876   6.706  0.2947  0.3029  0.2488
    6DOPE    C1  661   3.506   5.172   6.495 -0.5946  0.1048  0.3926
    6DOPE    HA  662   3.545   5.252   6.562  2.0182  0.4596 -1.3701
    6DOPE    HB  663   3.396   5.166   6.486 -0.7384  0.5857  1.6461
    6DOPE    C2  664   3.567   5.209   6.349  0.5167 -0.8415 -0.1518
    6DOPE    HS  665   3.550   5.318   6.336  0.1158 -0.8504  0.2683
    6DOPE   O21  666   3.497   5.147   6.230 -0.4449 -0.2903 -0.3994
    6DOPE   C21  667   3.383   5.195   6.193  0.1196  0.1737  0.3290
    6DOPE   O22  668   3.310   5.269   6.255  0.3815  0.1280  0.1791
    6DOPE   C22  669   3.354   5.130   6.062 -0.3542 -0.4065  0.1884
    6DOPE   H2R  670   3.357   5.020   6.078 -0.9951 -0.4470  0.0698
    6DOPE   H2S  671   3.439   5.151   5.994  0.1861 -1.4520  0.5249
    6DOPE    C3  672   3.724   5.194   6.337  0.7336 -0.8178  0.7777
    6DOPE    HX  673   3.760   5.091   6.361 -0.9547 -0.8263  3.6646
    6DOPE    HY  674   3.781   5.260   6.406  1.7514  0.8171 -1.4988
    6DOPE   O31  675   3.757   5.230   6.198 -0.0900 -0.0273  0.7227
    6DOPE   C31  676   3.778   5.358   6.183  0.3304  0.1032 -0.6074
    6DOPE   O32  677   3.766   5.445   6.268  0.2809  0.4681  0.6823
    6DOPE   C32  678   3.831   5.385   6.042 -0.4607  0.9549  0.1581
    6DOPE   H2X  679   3.926   5.328   6.031 -2.7476 -3.0434 -0.7438
    6DOPE   H2Y  680   3.767   5.329   5.971  0.8358  0.7563 -0.8961
    6DOPE   C23  681   3.223   5.171   5.991 -0.4643  0.8604  0.7540
    6DOPE   H3R  682   3.224   5.271   5.942 -1.1397  1.3416  1.6889
    6DOPE   H3S  683   3.135   5.170   6.059 -2.3206 -1.9276 -1.4005
    6DOPE   C24  684   3.184   5.058   5.888 -0.1684 -0.5716  0.0745
    6DOPE   H4R  685   3.075   5.071   5.868 -0.9500  0.1867  3.9786
    6DOPE   H4S  686   3.192   4.967   5.952 -1.8484 -0.3262  0.6866
    6DOPE   C25  687   3.277   5.033   5.776 -0.6430  0.6216  0.0286
    6DOPE   H5R  688   3.246   4.940   5.725  1.7963  0.7576 -1.9128
    6DOPE   H5S  689   3.382   5.006   5.803 -1.1039 -2.1267 -0.6816
    6DOPE   C26  690   3.279   5.153   5.682 -0.5124 -0.4654 -0.5015
    6DOPE   H6R  691   3.288   5.249   5.737 -3.3179  0.0759 -0.8374
    6DOPE   H6S  692   3.181   5.163   5.631 -1.2709  1.2084  1.1515
    6DOPE   C27  693   3.395   5.150   5.582 -0.0180 -0.0419  0.0421
    6DOPE   H7R  694   3.483   5.125   5.644 -1.6971 -2.1093  1.7484
    6DOPE   H7S  695   3.397   5.256   5.547 -0.5130  0.5185  1.6448
    6DOPE   C28  696   3.369   5.054   5.464  0.4077 -0.3219 -0.0474
    6DOPE   H8R  697   3.271   5.079   5.419  0.0328 -2.6413 -0.6455
    6DOPE   H8S  698   3.363   4.951   5.504  1.3984 -0.9170 -1.3572
    6DOPE   C29  699   3.479   5.069   5.356 -0.1368  0.0548  0.8406
    6DOPE   H9R  700   3.577   5.110   5.387 -0.4669  0.5138  1.2904
    6DOPE  C210  701   3.449   5.041   5.228 -0.2353  0.4379  0.0526
    6DOPE  H10R  702   3.531   5.052   5.155  0.0389  1.6068  0.5168
    6DOPE  C211  703   3.318   4.992   5.169  0.5559  0.1575 -0.0894
    6DOPE  H11R  704   3.275   5.071   5.104 -2.0134 -0.7811  0.3867
    6DOPE  H11S  705   3.248   4.952   5.244  1.5640 -1.9089 -0.1860
    6DOPE  C212  706   3.329   4.869   5.080 -0.8076 -0.0878 -0.2327
    6DOPE  H12R  707   3.390   4.796   5.138  0.6510  0.9115 -0.4587
    6DOPE  H12S  708   3.398   4.885   4.995 -0.2073 -1.0518  0.0547
    6DOPE  C213  709   3.200   4.808   5.027 -0.6074  0.3521 -0.2331
    6DOPE  H13R  710   3.190   4.849   4.925  0.9336 -1.2334 -1.0735
    6DOPE  H13S  711   3.103   4.835   5.073 -1.0156 -0.6507 -0.4883
    6DOPE  C214  712   3.219   4.655   5.006  0.1055  0.3871 -0.4973
    6DOPE  H14R  713   3.329   4.638   4.998  0.5110  0.5150  3.1358
    6DOPE  H14S  714   3.178   4.641   4.904 -2.3122  1.8749  0.2050
    6DOPE  C215  715   3.147   4.570   5.104  0.1487  0.3443  0.6017
    6DOPE  H15R  716   3.061   4.633   5.137  1.7555  2.2757  1.3163
    6DOPE  H15S  717   3.197   4.555   5.201 -0.4841  2.0758  1.2397
    6DOPE  C216  718   3.093   4.428   5.058  0.0385  0.2402  0.5434
    6DOPE  H16R  719   3.171   4.349   5.059  1.2849  1.3759 -1.5364
    6DOPE  H16S  720   3.061   4.436   4.952  1.6964  0.2658  0.0259
    6DOPE  C217  721   2.970   4.381   5.137  0.6973 -0.1014 -0.0638
    6DOPE  H17R  722   2.926   4.286   5.100  0.4098 -0.0119  0.0434
    6DOPE  H17S  723   2.882   4.448   5.125  0.1053 -0.6015  1.2179
    6DOPE  C218  724   2.971   4.351   5.289  0.5888 -0.6236 -0.6137
    6DOPE  H18R  725   2.881   4.307   5.336  1.8264 -0.2184  2.4064
    6DOPE  H18S  726   3.009   4.438   5.346  0.7131 -1.4785  0.6500
    6DOPE  H18T  727   3.048   4.271   5.302  1.6935  0.2188 -1.7532
    6DOPE   C33  728   3.839   5.536   6.014  0.2215 -0.4782  0.2886
    6DOPE   H3X  729   3.909   5.584   6.086  1.9648  0.1701 -1.7160
    6DOPE   H3Y  730   3.735   5.570   6.036 -0.1772 -0.6802 -1.1312
    6DOPE   C34  731   3.865   5.575   5.866  0.9382 -0.5194 -0.1396
    6DOPE   H4X  732   3.805   5.507   5.802 -0.0849  1.6240 -1.5830
    6DOPE   H4Y  733   3.832   5.679   5.845 -1.2773 -0.6979  2.0104
    6DOPE   C35  734   4.016   5.552   5.841 -0.1281  0.7355 -0.5071
    6DOPE   H5X  735   4.083   5.567   5.928  1.2975 -1.8971 -1.0336
    6DOPE   H5Y  736   4.039   5.645   5.785  0.7883  0.5384 -0.4824
    6DOPE   C36  737   4.053   5.427   5.758 -0.2221 -0.0200 -0.3812
    6DOPE   H6X  738   4.007   5.446   5.659 -0.3169 -2.5791 -0.8941
    6DOPE   H6Y  739   4.007   5.335   5.800  0.0125 -0.1991 -0.5094
    6DOPE   C37  740   4.208   5.403   5.756  0.1608 -0.5408  0.2355
    6DOPE   H7X  741   4.251   5.392   5.858  0.5581 -1.2910 -0.0024
    6DOPE   H7Y  742   4.242   5.308   5.709  0.1992 -0.2674 -0.2969
    6DOPE   C38  743   4.291   5.514   5.681  0.2655  0.4104 -0.0438
    6DOPE   H8X  744   4.399   5.494   5.697  0.0815 -0.0047  0.7072
    6DOPE   H8Y  745   4.256   5.607   5.731  0.0581  1.2306 -1.6447
    6DOPE   C39  746   4.257   5.514   5.532 -0.0842  0.1258 -0.2812
    6DOPE   H9X  747   4.258   5.414   5.485  0.1579  0.7026 -1.5385
    6DOPE  C310  748   4.223   5.629   5.464  0.1504 -0.0237 -0.3381
    6DOPE  H10X  749   4.195   5.632   5.358 -0.3013 -2.1300 -0.3169
    6DOPE  C311  750   4.213   5.768   5.526 -0.1475 -0.2361  0.5275
    6DOPE  H11X  751   4.123   5.784   5.590  1.0467  1.2395  1.9241
    6DOPE  H11Y  752   4.306   5.796   5.580  0.7218  0.9836 -1.5244
    6DOPE  C312  753   4.206   5.872   5.417  0.0162  0.0233 -0.3107
    6DOPE  H12X  754   4.121   5.843   5.352  1.3247 -0.0827 -2.0474
    6DOPE  H12Y  755   4.302   5.866   5.361  1.0203  1.8877  1.0871
    6DOPE  C313  756   4.188   6.017   5.471 -0.7159 -0.1516 -0.2308
    6DOPE  H13X  757   4.103   6.023   5.542 -0.1505  0.4825  0.4021
    6DOPE  H13Y  758   4.276   6.053   5.528  0.2891 -2.0525 -0.4966
    6DOPE  C314  759   4.151   6.123   5.368 -0.1593 -0.1551  0.1142
    6DOPE  H14X  760   4.241   6.135   5.304  2.5390  0.5926  3.7198
    6DOPE  H14Y  761   4.140   6.213   5.431 -0.0208 -0.6118  0.8000
    6DOPE  C315  762   4.024   6.095   5.286 -0.3471 -0.7160 -0.0111
    6DOPE  H15X  763   3.949   6.168   5.323 -0.7441 -0.6966 -0.8277
    6DOPE  H15Y  764   3.983   5.996   5.317  2.2367 -2.0408 -0.5187
    6DOPE  C316  765   4.026   6.112   5.133 -0.3134  0.9949 -0.6609
    6DOPE  H16X  766   4.088   6.039   5.076  0.4081 -0.8733  2.3271
    6DOPE  H16Y  767   4.065   6.215   5.117 -0.1534  0.8968 -0.9073
    6DOPE  C317  768   3.881   6.098   5.076 -0.3616  0.1493  0.1825
    6DOPE  H17X  769   3.853   5.991   5.088 -0.5000  0.1689  0.0296
    6DOPE  H17Y  770   3.806   6.150   5.139 -1.5024 -2.0030  0.6869
    6DOPE  C318  771   3.886   6.141   4.935  0.2028  0.0070  0.8279
    6DOPE  H18X  772   3.935   6.240   4.938  2.7778 -1.1436 -0.5535
    6DOPE  H18Y  773   3.946   6.081   4.863  0.7422  2.5145 -0.9216
    6DOPE  H18Z  774   3.781   6.141   4.897 -0.0024 -1.2642  1.3441
    7DOPE     N  775   5.852   4.122   7.024 -0.3675 -0.4472  0.0141
    7DOPE   HN1  776   5.823   4.208   6.973  1.7496  0.9620  1.0430
    7DOPE   HN2  777   5.833   4.146   7.123 -3.0176 -3.9529  0.5605
    7DOPE   HN3  778   5.955   4.106   7.020  0.0822  2.0833 -0.0064
    7DOPE   C12  779   5.786   3.995   6.973  0.1064 -0.1903 -0.4294
    7DOPE  H12A  780   5.816   3.911   7.040  1.7403  0.5200 -0.2234
    7DOPE  H12B  781   5.821   3.979   6.869  1.6924  0.2138  0.0152
    7DOPE   C11  782   5.626   4.008   6.983 -0.2066 -0.3227  1.0228
    7DOPE  H11A  783   5.611   4.048   7.086  0.2535  1.1443  0.5554
    7DOPE  H11B  784   5.585   3.906   6.975 -0.5347 -0.1848  0.9202
    7DOPE     P  785   5.448   4.081   6.794 -0.0027  0.0011  0.2755
    7DOPE   O13  786   5.444   4.197   6.707 -0.5738  0.2904  0.4244
    7DOPE   O14  787   5.332   4.054   6.883  0.0867  0.0225  0.3704
    7DOPE   O11  788   5.481   3.944   6.718  0.2396 -0.4914  0.5272
    7DOPE   O12  789   5.580   4.095   6.878 -0.0250 -0.2038  0.3347
    7DOPE    C1  790   5.589   3.936   6.626 -0.3289 -0.3050 -0.7024
    7DOPE    HA  791   5.604   3.826   6.616  0.1404 -0.2418 -0.7265
    7DOPE    HB  792   5.680   3.983   6.670 -0.0410 -0.4466 -1.1405
    7DOPE    C2  793   5.549   4.000   6.488  0.2893  0.0905  0.8876
    7DOPE    HS  794   5.522   4.105   6.511 -1.8713 -0.4428  1.0398
    7DOPE   O21  795   5.433   3.928   6.441 -0.3376  0.6012 -0.5627
    7DOPE   C21  796   5.340   3.992   6.379 -0.3137  0.9053 -0.1977
    7DOPE   O22  797   5.343   4.108   6.351  0.4862 -0.1228  0.7153
    7DOPE   C22  798   5.230   3.895   6.348 -0.1341 -0.0907 -0.1888
    7DOPE   H2R  799   5.145   3.960   6.318 -0.3210 -0.1956  0.1037
    7DOPE   H2S  800   5.199   3.837   6.438 -0.2386  1.5639  0.8787
    7DOPE    C3  801   5.672   3.993   6.392  0.4838 -0.2455 -0.9936
    7DOPE    HX  802   5.710   3.889   6.395  0.4744 -0.2703 -1.5237
    7DOPE    HY  803   5.742   4.071   6.429  0.8226 -1.3119  0.7226
    7DOPE   O31  804   5.631   4.021   6.258 -0.0573 -0.0935  0.8380
    7DOPE   C31  805   5.714   3.980   6.161 -0.1618  0.4288  0.6703
    7DOPE   O32  806   5.811   3.909   6.187 -0.4587 -0.1019 -0.4275
    7DOPE   C32  807   5.669   4.039   6.025 -0.3348  0.4625  0.4474
    7DOPE   H2X  808   5.564   4.073   6.038 -0.5652 -0.6724  1.7940
    7DOPE   H2Y  809   5.739   4.121   5.994  0.5577 -1.1715 -2.2148
    7DOPE   C23  810   5.250   3.791   6.236 -0.1691 -0.2034  0.0129
    7DOPE   H3R  811   5.177   3.710   6.254  0.4083 -0.7606 -0.1337
    7DOPE   H3S  812   5.350   3.743   6.234 -0.3595 -0.6233  0.4668
    7DOPE   C24  813   5.219   3.853   6.099 -0.2428  0.5263  0.2762
    7DOPE   H4R  814   5.267   3.953   6.086  0.2451  0.2085 -0.4793
    7DOPE   H4S  815   5.110   3.872   6.090 -0.4609 -0.9107 -0.2660
    7DOPE   C25  816   5.259   3.756   5.994  0.0867  0.5774 -0.8909
    7DOPE   H5R  817   5.203   3.661   6.007  1.7409 -0.1922  0.9585
    7DOPE   H5S  818   5.367   3.733   5.999 -0.1771 -0.8141 -1.2315
    7DOPE   C26  819   5.225   3.820   5.851  0.0264 -0.0571 -0.5253
    7DOPE   H6R  820   5.272   3.920   5.842  0.3864 -0.1799 -0.0492
    7DOPE   H6S  821   5.116   3.836   5.849  0.2647  1.8389  0.2846
    7DOPE   C27  822   5.271   3.728   5.734  0.9799  0.5331 -0.0263
    7DOPE   H7R  823   5.208   3.747   5.645 -0.7437  0.6012  1.1415
    7DOPE   H7S  824   5.257   3.622   5.766 -1.4550  0.7635 -0.1336
    7DOPE   C28  825   5.417   3.747   5.698 -0.6399  0.6112 -0.2143
    7DOPE   H8R  826   5.467   3.756   5.797 -0.0937  0.5798 -0.4849
    7DOPE   H8S  827   5.421   3.843   5.644 -2.4302  1.8896  1.7338
    7DOPE   C29  828   5.466   3.633   5.615  0.2125 -0.5792  0.7698
    7DOPE   H9R  829   5.483   3.533   5.658  1.3675 -1.1049 -0.7945
    7DOPE  C210  830   5.485   3.636   5.481 -0.2787 -0.7915 -0.0922
    7DOPE  H10R  831   5.548   3.556   5.439  0.8741 -0.2328  0.5031
    7DOPE  C211  832   5.457   3.758   5.394  0.4904 -0.1195  0.4842
    7DOPE  H11R  833   5.546   3.824   5.390 -0.1687  0.7845  0.3947
    7DOPE  H11S  834   5.389   3.829   5.445 -0.8384 -0.1959 -1.0863
    7DOPE  C212  835   5.404   3.722   5.255 -0.7076 -0.3942  0.0576
    7DOPE  H12R  836   5.472   3.648   5.207 -1.2867 -0.4336 -0.7088
    7DOPE  H12S  837   5.414   3.811   5.190  0.8761 -0.6621 -0.1256
    7DOPE  C213  838   5.263   3.658   5.264  0.6050  0.3986  0.9537
    7DOPE  H13R  839   5.199   3.741   5.300 -0.8447  0.2077 -0.9878
    7DOPE  H13S  840   5.268   3.574   5.336 -0.8586 -2.0593 -1.6154
    7DOPE  C214  841   5.213   3.590   5.141 -0.2451  0.0121  0.3386
    7DOPE  H14R  842   5.214   3.666   5.060  1.6884  1.6675  1.8383
    7DOPE  H14S  843   5.109   3.556   5.163  0.5191 -3.4439 -0.7639
    7DOPE  C215  844   5.287   3.466   5.099  0.5047 -0.1610  0.8915
    7DOPE  H15R  845   5.282   3.388   5.178  0.2984  0.6916  1.7346
    7DOPE  H15S  846   5.394   3.485   5.078  0.1264 -0.1348 -1.1977
    7DOPE  C216  847   5.215   3.390   4.980  0.5777 -0.3313  0.0313
    7DOPE  H16R  848   5.230   3.432   4.878  2.5401  0.3612  0.5624
    7DOPE  H16S  849   5.106   3.391   5.000  0.4133 -2.4741 -0.4983
    7DOPE  C217  850   5.268   3.245   4.963  0.0228 -0.1198 -0.8129
    7DOPE  H17R  851   5.273   3.206   5.067  1.8972  0.2051 -0.7539
    7DOPE  H17S  852   5.363   3.252   4.905 -0.2411 -0.7048 -1.3337
    7DOPE  C218  853   5.182   3.149   4.873 -0.1124 -0.1507 -0.2412
    7DOPE  H18R  854   5.195   3.040   4.895  0.4359 -0.1955 -0.7641
    7DOPE  H18S  855   5.216   3.171   4.770 -0.4732 -0.4669 -0.4322
    7DOPE  H18T  856   5.072   3.164   4.868 -0.5216 -2.9737 -3.1762
    7DOPE   C33  857   5.681   3.940   5.913 -0.2395  0.3088  1.2521
    7DOPE   H3X  858   5.608   3.857   5.924 -0.1877 -0.2230 -1.6120
    7DOPE   H3Y  859   5.779   3.887   5.907 -0.9866 -1.3107  2.5208
    7DOPE   C34  860   5.657   4.004   5.775  0.0732 -0.0526 -0.5929
    7DOPE   H4X  861   5.647   3.917   5.706  1.4024 -2.3563  1.9205
    7DOPE   H4Y  862   5.572   4.074   5.781 -0.1769 -0.3308 -0.8538
    7DOPE   C35  863   5.778   4.077   5.719 -0.4870 -0.2175  0.6984
    7DOPE   H5X  864   5.864   4.006   5.725 -0.0770  0.2646  0.6459
    7DOPE   H5Y  865   5.806   4.157   5.792 -0.0517  0.9451 -0.6984
    7DOPE   C36  866   5.739   4.126   5.583 -0.0008  0.1116 -0.0207
    7DOPE   H6X  867   5.664   4.205   5.602  0.6506  0.8994 -0.6240
    7DOPE   H6Y  868   5.700   4.040   5.525  3.3539 -1.5975 -0.0349
    7DOPE   C37  869   5.842   4.195   5.493 -0.1810  0.2546  0.4154
    7DOPE   H7X  870   5.825   4.179   5.385 -0.4716 -1.0928  0.6350
    7DOPE   H7Y  871   5.834   4.304   5.512  0.5451  0.0924  1.8144
    7DOPE   C38  872   5.991   4.162   5.520 -0.0301  0.0515  0.0241
    7DOPE   H8X  873   6.012   4.160   5.629  1.0264  0.8445 -0.1459
    7DOPE   H8Y  874   6.046   4.249   5.477 -0.3013 -0.0283 -0.5031
    7DOPE   C39  875   6.024   4.031   5.441  0.4748 -0.0283 -0.4369
    7DOPE   H9X  876   5.957   3.947   5.462  1.8810 -1.0777 -0.0479
    7DOPE  C310  877   6.102   4.018   5.333  0.6095 -0.8566 -0.6537
    7DOPE  H10X  878   6.110   3.918   5.288  0.5284 -1.3804  0.4654
    7DOPE  C311  879   6.178   4.129   5.257  1.0963 -0.6686 -1.2597
    7DOPE  H11X  880   6.150   4.135   5.149 -1.4639 -0.0096 -0.6279
    7DOPE  H11Y  881   6.157   4.226   5.307 -1.0106 -0.6061 -2.1456
    7DOPE  C312  882   6.327   4.096   5.268 -0.3260 -0.3671  0.3109
    7DOPE  H12X  883   6.367   4.085   5.371  0.5803  1.2255  0.1626
    7DOPE  H12Y  884   6.398   4.170   5.226  1.0267  0.0132  3.0583
    7DOPE  C313  885   6.374   3.960   5.203 -0.5669 -0.3854 -0.2678
    7DOPE  H13X  886   6.483   3.951   5.222 -0.5377 -1.3175 -0.8463
    7DOPE  H13Y  887   6.332   3.866   5.244  0.8395 -1.0207 -0.2236
    7DOPE  C314  888   6.370   3.953   5.051 -0.4166 -0.1368  0.3435
    7DOPE  H14X  889   6.451   3.889   5.011 -0.0478 -0.3323  1.3592
    7DOPE  H14Y  890   6.384   4.057   5.015 -1.4812  0.8508  2.5779
    7DOPE  C315  891   6.238   3.902   4.991  0.0229  0.4317  0.1177
    7DOPE  H15X  892   6.153   3.960   5.032 -1.2348 -1.7651  0.7599
    7DOPE  H15Y  893   6.214   3.804   5.038 -1.4139  0.7379  0.0711
    7DOPE  C316  894   6.236   3.903   4.844  0.0105  0.8134 -0.7435
    7DOPE  H16X  895   6.331   3.874   4.796 -1.1436 -1.7305 -1.6652
    7DOPE  H16Y  896   6.207   4.005   4.811  1.6138  1.7674  0.6682
    7DOPE  C317  897   6.135   3.801   4.784  0.2296  0.3830 -0.5183
    7DOPE  H17X  898   6.174   3.702   4.816  0.4377  1.0457  1.4138
    7DOPE  H17Y  899   6.028   3.801   4.814  0.1426  0.9706 -0.8275
    7DOPE  C318  900   6.134   3.808   4.628  0.4901 -0.3998 -0.5114
    7DOPE  H18X  901   6.153   3.913   4.598  0.7148 -0.0416  0.8452
    7DOPE  H18Y  902   6.221   3.748   4.594  2.0962  1.3829  0.2569
    7DOPE  H18Z  903   6.039   3.767   4.587  0.9440 -1.8092 -0.2404
    8DOPE     N  904   6.325   3.377   6.882 -0.4045  0.3556 -0.1376
    8DOPE   HN1  905   6.345   3.381   6.780 -1.1865 -0.6275 -0.3393
    8DOPE   HN2  906   6.409   3.336   6.928 -0.6468  1.5949  1.5336
    8DOPE   HN3  907   6.247   3.310   6.896  2.1902 -2.8490  0.0443
    8DOPE   C12  908   6.317   3.519   6.928 -0.9001 -0.5469  0.5067
    8DOPE  H12A  909   6.422   3.551   6.943 -0.8417  0.1722 -1.2133
    8DOPE  H12B  910   6.271   3.522   7.030  2.9649  0.6491  2.3985
    8DOPE   C11  911   6.245   3.604   6.833  0.2262  0.1043 -0.0607
    8DOPE  H11A  912   6.280   3.600   6.727  0.9476 -1.8725  0.2080
    8DOPE  H11B  913   6.267   3.707   6.868  1.1853 -0.0629 -0.1629
    8DOPE     P  914   5.995   3.687   6.895 -0.9615 -0.1571 -0.0432
    8DOPE   O13  915   6.032   3.768   7.015  0.4689  0.2713  0.0700
    8DOPE   O14  916   5.871   3.605   6.916  0.3152 -0.9163  0.4462
    8DOPE   O11  917   5.976   3.791   6.784  0.2534  0.5424  0.2175
    8DOPE   O12  918   6.106   3.584   6.847 -0.2105 -0.1277 -0.4700
    8DOPE    C1  919   5.966   3.756   6.644 -0.5304 -0.5336  0.3151
    8DOPE    HA  920   5.872   3.794   6.600 -0.8031 -0.3348  1.0539
    8DOPE    HB  921   5.965   3.646   6.634  1.9520 -0.6297  0.5063
    8DOPE    C2  922   6.097   3.806   6.560  0.2968  0.6487  1.4310
    8DOPE    HS  923   6.183   3.768   6.620  1.2323  0.5578  0.0640
    8DOPE   O21  924   6.088   3.952   6.564  0.1487 -0.3591 -0.2418
    8DOPE   C21  925   6.197   4.022   6.561  0.1269  0.0645  0.0551
    8DOPE   O22  926   6.309   3.973   6.570  0.3362  0.2628 -0.1150
    8DOPE   C22  927   6.156   4.178   6.553 -0.2906  0.3581 -0.2337
    8DOPE   H2R  928   6.241   4.236   6.595  1.0912 -1.8045  0.1214
    8DOPE   H2S  929   6.063   4.196   6.610  0.7466  2.6200  0.8590
    8DOPE    C3  930   6.090   3.753   6.409 -0.0350 -0.2916  0.1639
    8DOPE    HX  931   5.998   3.793   6.361  0.0075  0.3770  0.6337
    8DOPE    HY  932   6.092   3.642   6.403  0.1617 -0.2512 -0.6472
    8DOPE   O31  933   6.187   3.810   6.327  0.7732 -0.1790  0.6216
    8DOPE   C31  934   6.311   3.776   6.335 -0.3739  0.4341  0.3312
    8DOPE   O32  935   6.353   3.686   6.407 -0.0289  0.2426  0.2427
    8DOPE   C32  936   6.395   3.855   6.237  0.1250  0.7271 -0.0462
    8DOPE   H2X  937   6.355   3.855   6.134  1.1756 -2.3452 -0.5681
    8DOPE   H2Y  938   6.399   3.960   6.275  1.3326  0.2170  1.3529
    8DOPE   C23  939   6.146   4.222   6.406 -0.5044 -0.7082 -0.0270
    8DOPE   H3R  940   6.232   4.180   6.351 -2.0019 -1.6237 -1.7718
    8DOPE   H3S  941   6.150   4.333   6.406 -1.8470 -0.6331 -0.9373
    8DOPE   C24  942   6.023   4.170   6.333 -0.2125 -0.1034 -0.0581
    8DOPE   H4R  943   5.937   4.226   6.376  1.0070  0.4947  1.7315
    8DOPE   H4S  944   6.009   4.061   6.349 -0.4171  0.1879  2.1352
    8DOPE   C25  945   6.009   4.200   6.181  0.9953 -0.2418  1.0308
    8DOPE   H5R  946   6.040   4.306   6.174 -0.6331  0.2734  1.0791
    8DOPE   H5S  947   5.901   4.189   6.155  0.1969  4.7348  1.1842
    8DOPE   C26  948   6.095   4.120   6.085 -0.2036 -0.1336  0.1376
    8DOPE   H6R  949   6.041   4.023   6.080 -1.3315  0.5203 -1.0660
    8DOPE   H6S  950   6.197   4.104   6.126 -0.0142  1.3560  0.3096
    8DOPE   C27  951   6.113   4.175   5.947 -0.5645  0.0689 -0.0413
    8DOPE   H7R  952   6.138   4.281   5.972  2.8735 -0.9425  1.2641
    8DOPE   H7S  953   6.010   4.181   5.906 -0.4003 -0.6033 -0.5629
    8DOPE   C28  954   6.201   4.092   5.849 -0.3107 -0.4616  0.7542
    8DOPE   H8R  955   6.202   4.136   5.746  1.4171  0.7582  1.2455
    8DOPE   H8S  956   6.162   3.988   5.853 -2.4224  0.3242  2.5670
    8DOPE   C29  957   6.342   4.069   5.889  0.2325 -0.2656  0.8928
    8DOPE   H9R  958   6.363   4.057   5.997  1.7337 -0.2871  0.6158
    8DOPE  C210  959   6.450   4.082   5.808 -0.1955 -0.0867 -0.0520
    8DOPE  H10R  960   6.553   4.061   5.842 -1.1057 -1.6941  1.9500
    8DOPE  C211  961   6.458   4.106   5.660 -0.6582  0.2620 -0.0554
    8DOPE  H11R  962   6.357   4.107   5.615 -0.1522  0.3240 -1.2138
    8DOPE  H11S  963   6.507   4.017   5.614 -2.3205 -0.4192 -0.5767
    8DOPE  C212  964   6.529   4.242   5.638 -0.1013 -0.0056 -0.4549
    8DOPE  H12R  965   6.634   4.238   5.675 -1.0102 -0.5203  2.2644
    8DOPE  H12S  966   6.498   4.326   5.704 -0.7740  0.2676 -1.1099
    8DOPE  C213  967   6.516   4.299   5.498  0.4415 -0.0559  0.1944
    8DOPE  H13R  968   6.409   4.278   5.477  0.2821  0.8506  0.0454
    8DOPE  H13S  969   6.576   4.242   5.424  1.0060  0.8451 -0.0662
    8DOPE  C214  970   6.529   4.446   5.485  0.4729 -0.1409  0.2217
    8DOPE  H14R  971   6.605   4.492   5.551 -1.8790  1.4384  2.0171
    8DOPE  H14S  972   6.438   4.495   5.527  0.6031 -0.2578  0.6419
    8DOPE  C215  973   6.551   4.490   5.339  0.1618 -0.4234 -0.4680
    8DOPE  H15R  974   6.469   4.466   5.267  0.8555 -0.4125 -1.2751
    8DOPE  H15S  975   6.640   4.431   5.310  0.0676 -1.4876  1.2879
    8DOPE  C216  976   6.599   4.636   5.337 -0.2117  0.6319 -0.6874
    8DOPE  H16R  977   6.662   4.666   5.424  0.5308  3.0911 -1.9754
    8DOPE  H16S  978   6.504   4.694   5.333 -0.3304  0.3815 -1.9899
    8DOPE  C217  979   6.666   4.667   5.207 -0.3731  0.2519  0.5477
    8DOPE  H17R  980   6.730   4.578   5.186 -1.0349 -0.0419 -0.3041
    8DOPE  H17S  981   6.728   4.759   5.216  0.5624 -0.2172 -0.8359
    8DOPE  C218  982   6.567   4.691   5.094 -0.5032 -0.1173 -0.3094
    8DOPE  H18R  983   6.497   4.607   5.075 -1.7783  0.7730  0.3320
    8DOPE  H18S  984   6.626   4.718   5.004  0.8143  0.1332  0.6096
    8DOPE  H18T  985   6.509   4.783   5.119  0.4146  0.6249 -0.8418
    8DOPE   C33  986   6.548   3.810   6.218  1.1067 -0.4176 -0.7025
    8DOPE   H3X  987   6.549   3.700   6.231 -1.7413 -0.5962 -1.3965
    8DOPE   H3Y  988   6.609   3.868   6.291 -0.1023  0.4665 -0.3617
    8DOPE   C34  989   6.611   3.850   6.082  0.2432  0.3310 -0.2382
    8DOPE   H4X  990   6.555   3.805   5.998 -0.9304  2.3349 -0.5963
    8DOPE   H4Y  991   6.592   3.958   6.063 -0.6760  0.1948 -0.1036
    8DOPE   C35  992   6.757   3.815   6.086 -0.4028  0.0815  0.4636
    8DOPE   H5X  993   6.765   3.709   6.119 -0.7879 -0.1581 -0.1992
    8DOPE   H5Y  994   6.806   3.879   6.163 -2.8421  0.3872  1.8508
    8DOPE   C36  995   6.824   3.838   5.955 -0.1954 -0.5594 -0.0554
    8DOPE   H6X  996   6.825   3.946   5.929  0.7869 -0.3841  0.6704
    8DOPE   H6Y  997   6.767   3.789   5.874 -0.9036 -1.1878  0.8046
    8DOPE   C37  998   6.961   3.776   5.939 -0.1620 -0.0770 -0.6267
    8DOPE   H7X  999   7.033   3.830   6.004 -2.2822  2.2670 -0.0635
    8DOPE   H7Y 1000   6.958   3.671   5.975 -1.9631  0.0040 -0.4880
    8DOPE   C38 1001   7.014   3.782   5.792 -1.1955 -0.7899 -0.0639
    8DOPE   H8X 1002   6.926   3.758   5.728 -0.9820 -0.3665 -0.5264
    8DOPE   H8Y 1003   7.087   3.701   5.775  1.6055  1.7731 -1.3021
    8DOPE   C39 1004   7.072   3.921   5.758 -0.3193  0.2060  0.2396
    8DOPE   H9X 1005   7.168   3.938   5.810 -0.8789 -1.9448  2.1793
    8DOPE  C310 1006   7.015   4.015   5.682 -0.0988  0.2808 -0.4874
    8DOPE  H10X 1007   7.063   4.111   5.660 -0.1308  0.3027 -0.4641
    8DOPE  C311 1008   6.875   3.994   5.619 -0.0166  0.5302  1.0512
    8DOPE  H11X 1009   6.859   3.890   5.581 -1.3811  1.0668  0.0891
    8DOPE  H11Y 1010   6.801   4.002   5.702  0.2849  0.3856  1.3361
    8DOPE  C312 1011   6.836   4.112   5.528  0.1995  0.1145  0.1434
    8DOPE  H12X 1012   6.840   4.210   5.580 -0.2013  0.7897 -1.0454
    8DOPE  H12Y 1013   6.730   4.096   5.498  0.1775  2.5648 -1.3834
    8DOPE  C313 1014   6.923   4.122   5.402  0.5542  0.0354 -0.0379
    8DOPE  H13X 1015   7.027   4.156   5.424 -0.2723  1.2627  2.3050
    8DOPE  H13Y 1016   6.923   4.018   5.362 -2.0037 -0.1003  0.1615
    8DOPE  C314 1017   6.862   4.220   5.299  0.2372  0.2844 -0.4975
    8DOPE  H14X 1018   6.889   4.324   5.329  0.3994  0.0307  0.2570
    8DOPE  H14Y 1019   6.751   4.217   5.298  0.2077 -0.5127  1.4673
    8DOPE  C315 1020   6.912   4.198   5.159  0.0798 -1.0510  0.5159
    8DOPE  H15X 1021   6.937   4.094   5.131 -3.1176 -1.9412  0.5456
    8DOPE  H15Y 1022   7.013   4.244   5.167 -1.5942  2.6990  2.7389
    8DOPE  C316 1023   6.845   4.282   5.048  0.3327 -0.6610  0.1325
    8DOPE  H16X 1024   6.893   4.250   4.953  3.2860 -2.4233  2.0521
    8DOPE  H16Y 1025   6.862   4.391   5.059  2.6617 -0.6621 -2.2825
    8DOPE  C317 1026   6.700   4.250   5.028  0.6022  0.1462 -0.8214
    8DOPE  H17X 1027   6.685   4.144   4.995 -3.3404  0.8927 -2.0436
    8DOPE  H17Y 1028   6.644   4.272   5.121  0.4753  0.5561 -0.9929
    8DOPE  C318 1029   6.635   4.341   4.919  0.8012  0.0866 -0.0071
    8DOPE  H18X 1030   6.527   4.318   4.910  0.4206  0.3272  2.9004
    8DOPE  H18Y 1031   6.690   4.333   4.823  2.6311 -2.1634  1.1459
    8DOPE  H18Z 1032   6.639   4.449   4.947 -1.6082  0.4570 -0.9110
    9DOPE     N 1033   2.943   5.266   6.657 -0.0032 -0.2127 -0.3657
    9DOPE   HN1 1034   2.948   5.361   6.699  0.5447 -0.0195 -0.8524
    9DOPE   HN2 1035   2.997   5.201   6.718 -0.3677  0.2799  0.4934
    9DOPE   HN3 1036   2.999   5.273   6.569 -1.8828  0.4044 -1.5599
    9DOPE   C12 1037   2.801   5.227   6.623  1.1154 -0.4200  0.0113
    9DOPE  H12A 1038   2.803   5.143   6.549 -3.1080  0.2595 -1.1156
    9DOPE  H12B 1039   2.766   5.311   6.559  1.2569 -0.4008 -0.0419
    9DOPE   C11 1040   2.710   5.172   6.736  0.2005 -0.2203  0.2980
    9DOPE  H11A 1041   2.614   5.143   6.690 -0.3479  0.9959  0.6171
    9DOPE  H11B 1042   2.692   5.257   6.806  0.4851  0.8221 -0.8526
    9DOPE     P 1043   2.763   4.916   6.792  0.5395  0.1711 -0.1500
    9DOPE   O13 1044   2.656   4.866   6.875  0.2169 -0.0460  0.3351
    9DOPE   O14 1045   2.902   4.870   6.827 -1.1222 -0.6919 -0.5502
    9DOPE   O11 1046   2.734   4.902   6.639 -0.2928  0.0310 -0.1806
    9DOPE   O12 1047   2.776   5.072   6.812  0.0202 -0.1995 -0.0495
    9DOPE    C1 1048   2.614   4.846   6.588  0.4254 -0.5938  0.4608
    9DOPE    HA 1049   2.536   4.923   6.570  0.7078  0.1013  2.0428
    9DOPE    HB 1050   2.572   4.781   6.667  1.1313 -1.6136  0.0187
    9DOPE    C2 1051   2.638   4.771   6.458  0.1919  0.2119  0.0742
    9DOPE    HS 1052   2.540   4.728   6.425 -1.2480  2.8715  0.5812
    9DOPE   O21 1053   2.740   4.670   6.470  0.7928 -0.6930 -0.6991
    9DOPE   C21 1054   2.709   4.563   6.536  0.2230  0.0449  0.1046
    9DOPE   O22 1055   2.598   4.530   6.574  0.7583  0.0002 -0.0643
    9DOPE   C22 1056   2.836   4.466   6.550  0.1706  0.4390  0.5024
    9DOPE   H2R 1057   2.816   4.366   6.595 -0.0059  0.2441 -0.0107
    9DOPE   H2S 1058   2.902   4.522   6.621 -0.5244  1.3286  0.4655
    9DOPE    C3 1059   2.675   4.873   6.348 -0.2403  0.5560 -0.3434
    9DOPE    HX 1060   2.769   4.922   6.384  0.2654  0.5399 -1.6069
    9DOPE    HY 1061   2.592   4.946   6.340 -0.7796 -0.1808 -1.9139
    9DOPE   O31 1062   2.695   4.802   6.220  0.3311  0.3943  0.2973
    9DOPE   C31 1063   2.733   4.879   6.117 -0.1446 -0.2820  0.0684
    9DOPE   O32 1064   2.746   5.000   6.122 -0.3787 -0.0990 -0.4275
    9DOPE   C32 1065   2.778   4.787   6.000 -0.0482  0.3839  0.3106
    9DOPE   H2X 1066   2.689   4.745   5.948 -0.1208  1.4439 -0.4547
    9DOPE   H2Y 1067   2.835   4.846   5.925  0.2871  0.8806  0.9541
    9DOPE   C23 1068   2.908   4.436   6.414  0.1023  0.3190 -0.0620
    9DOPE   H3R 1069   2.992   4.367   6.436 -0.2212  0.2978  1.1414
    9DOPE   H3S 1070   2.942   4.531   6.368  0.1438  0.6351  0.6200
    9DOPE   C24 1071   2.810   4.356   6.318 -0.3446  0.9894  0.0019
    9DOPE   H4R 1072   2.878   4.318   6.239  1.3510  2.0488  0.8852
    9DOPE   H4S 1073   2.739   4.427   6.271  0.7037  0.8809 -1.8837
    9DOPE   C25 1074   2.733   4.237   6.384 -0.0435 -0.2773  0.1180
    9DOPE   H5R 1075   2.667   4.265   6.469 -2.0661 -2.3300 -0.6791
    9DOPE   H5S 1076   2.808   4.170   6.431 -0.8088  0.7174  2.9599
    9DOPE   C26 1077   2.641   4.153   6.291 -1.0554 -0.1070  0.4891
    9DOPE   H6R 1078   2.567   4.224   6.249  0.5441  1.6030  0.4386
    9DOPE   H6S 1079   2.585   4.079   6.351  0.3281 -2.9171 -1.4197
    9DOPE   C27 1080   2.724   4.083   6.184 -0.4169 -0.1115  0.6620
    9DOPE   H7R 1081   2.813   4.046   6.239 -1.1350 -1.6552  0.8393
    9DOPE   H7S 1082   2.748   4.163   6.110  0.0815  2.4270  3.3968
    9DOPE   C28 1083   2.643   3.961   6.129  0.0356  0.0664 -0.1758
    9DOPE   H8R 1084   2.621   3.892   6.213 -2.6077  2.7827  1.5612
    9DOPE   H8S 1085   2.713   3.907   6.062 -0.5586  0.9937 -1.5809
    9DOPE   C29 1086   2.514   4.001   6.057  0.0792 -0.4397 -0.4888
    9DOPE   H9R 1087   2.441   4.034   6.132  1.7670  0.6076  0.7825
    9DOPE  C210 1088   2.488   4.007   5.926 -0.6136 -0.1246  0.3018
    9DOPE  H10R 1089   2.382   4.031   5.910 -0.1225  1.9633 -0.1077
    9DOPE  C211 1090   2.588   3.971   5.813 -0.1791  0.4652  0.3166
    9DOPE  H11R 1091   2.654   3.890   5.849  0.6643  1.0136  0.0337
    9DOPE  H11S 1092   2.656   4.057   5.794  0.5070 -0.5757 -2.4353
    9DOPE  C212 1093   2.516   3.934   5.689 -0.0679 -0.3753  0.2965
    9DOPE  H12R 1094   2.449   4.019   5.665 -0.0940 -0.8265 -1.3849
    9DOPE  H12S 1095   2.443   3.850   5.695  0.4707 -0.7570  1.9425
    9DOPE  C213 1096   2.609   3.922   5.568 -0.1124 -0.8066  0.5559
    9DOPE  H13R 1097   2.670   3.830   5.579 -0.0020 -0.7765  0.2020
    9DOPE  H13S 1098   2.678   4.009   5.558  1.2475 -1.4242  3.5614
    9DOPE  C214 1099   2.533   3.914   5.431 -0.1899 -0.2425 -0.1804
    9DOPE  H14R 1100   2.463   4.000   5.428  0.1710  0.0220 -2.1631
    9DOPE  H14S 1101   2.457   3.834   5.417 -0.8421  0.0249  1.5962
    9DOPE  C215 1102   2.608   3.938   5.298  0.1917  0.1882 -0.4187
    9DOPE  H15R 1103   2.652   4.040   5.301  1.3083 -0.2893  2.1067
    9DOPE  H15S 1104   2.534   3.942   5.216 -0.6263  3.0116  0.3637
    9DOPE  C216 1105   2.724   3.838   5.276 -0.5883  0.4121  0.1420
    9DOPE  H16R 1106   2.697   3.731   5.283 -0.2507  0.1518 -1.8678
    9DOPE  H16S 1107   2.804   3.857   5.350  0.6998  0.6566 -1.2508
    9DOPE  C217 1108   2.782   3.846   5.138 -0.5727  0.2652  0.4750
    9DOPE  H17R 1109   2.698   3.851   5.066 -0.8462  1.2854  0.8495
    9DOPE  H17S 1110   2.834   3.754   5.101  1.5515  1.8858 -0.8393
    9DOPE  C218 1111   2.875   3.966   5.118  0.3647 -0.4036  0.3232
    9DOPE  H18R 1112   2.952   3.954   5.197 -1.3949 -2.8730  1.8215
    9DOPE  H18S 1113   2.811   4.056   5.129  0.6689 -0.0199 -0.8791
    9DOPE  H18T 1114   2.918   3.960   5.016 -1.9015  0.8718 -0.7658
    9DOPE   C33 1115   2.862   4.668   6.048  0.5533  0.0211  0.1141
    9DOPE   H3X 1116   2.794   4.597   6.099  1.2493 -1.1391 -0.5195
    9DOPE   H3Y 1117   2.934   4.702   6.126 -1.4209 -2.0300  3.0198
    9DOPE   C34 1118   2.939   4.589   5.941  0.7440  0.1114  0.4602
    9DOPE   H4X 1119   2.964   4.488   5.980  0.8093 -0.8011 -1.7493
    9DOPE   H4Y 1120   2.879   4.564   5.850  0.8250 -1.4212  0.8015
    9DOPE   C35 1121   3.072   4.659   5.912 -0.5822  0.4663  0.3544
    9DOPE   H5X 1122   3.115   4.686   6.011  0.5386 -0.2051  0.0628
    9DOPE   H5Y 1123   3.070   4.761   5.868  0.6294  0.8748  1.1936
    9DOPE   C36 1124   3.166   4.583   5.824 -0.2523 -0.3138 -0.5742
    9DOPE   H6X 1125   3.195   4.483   5.863 -0.4466 -0.7397 -1.4934
    9DOPE   H6Y 1126   3.261   4.642   5.823  0.0508 -0.6552  2.1040
    9DOPE   C37 1127   3.110   4.566   5.681  0.7240 -0.3782 -0.4991
    9DOPE   H7X 1128   3.040   4.480   5.689  1.3058 -0.8783 -0.7680
    9DOPE   H7Y 1129   3.048   4.656   5.660 -0.2766 -1.1715 -1.0537
    9DOPE   C38 1130   3.214   4.533   5.573  0.3105  0.1553 -0.2982
    9DOPE   H8X 1131   3.150   4.528   5.483 -0.5788 -0.7341  0.3590
    9DOPE   H8Y 1132   3.258   4.435   5.604  1.3463 -0.0596 -2.2981
    9DOPE   C39 1133   3.310   4.650   5.569  0.2863  0.4017  0.8085
    9DOPE   H9X 1134   3.279   4.754   5.585 -0.6177  0.3763 -0.5809
    9DOPE  C310 1135   3.439   4.626   5.559  0.3732  0.3407  1.1065
    9DOPE  H10X 1136   3.505   4.713   5.574  0.0314  0.9066 -0.4443
    9DOPE  C311 1137   3.502   4.489   5.534 -0.2127 -0.0981  0.2573
    9DOPE  H11X 1138   3.493   4.420   5.620  1.7465 -1.8671 -0.8662
    9DOPE  H11Y 1139   3.456   4.437   5.447 -0.5739  0.5231  0.0626
    9DOPE  C312 1140   3.654   4.502   5.510 -0.7021  0.1494 -0.1591
    9DOPE  H12X 1141   3.696   4.403   5.484  0.9319  0.4726  1.0752
    9DOPE  H12Y 1142   3.700   4.540   5.604 -1.9229  5.3512 -1.3189
    9DOPE  C313 1143   3.686   4.586   5.383  0.2638  0.0726 -0.7436
    9DOPE  H13X 1144   3.608   4.553   5.311 -2.3841  0.0221  1.9404
    9DOPE  H13Y 1145   3.672   4.694   5.405  0.4044 -0.2456  1.0682
    9DOPE  C314 1146   3.840   4.560   5.346 -0.4239  0.0926 -0.6300
    9DOPE  H14X 1147   3.903   4.551   5.438 -0.6719  0.2307 -0.4448
    9DOPE  H14Y 1148   3.872   4.659   5.307  0.9933 -0.4698 -0.9565
    9DOPE  C315 1149   3.877   4.457   5.252 -0.1251  0.1376 -0.1463
    9DOPE  H15X 1150   3.817   4.474   5.160  1.2507  2.8916 -0.6442
    9DOPE  H15Y 1151   3.854   4.356   5.292 -2.4201  0.3786 -0.7463
    9DOPE  C316 1152   4.032   4.465   5.222 -0.3048  0.1238  0.6613
    9DOPE  H16X 1153   4.067   4.374   5.168  0.1641  0.7657 -0.1375
    9DOPE  H16Y 1154   4.089   4.464   5.317  0.8452 -1.0893 -0.0006
    9DOPE  C317 1155   4.086   4.592   5.143 -1.0468 -0.1816 -0.2495
    9DOPE  H17X 1156   4.033   4.601   5.046 -0.8091  2.2810 -0.2164
    9DOPE  H17Y 1157   4.047   4.680   5.197 -0.1586 -0.2249  0.4820
    9DOPE  C318 1158   4.240   4.600   5.124  0.1019  0.9361  0.2403
    9DOPE  H18X 1159   4.289   4.503   5.102 -0.3051  0.9086 -0.6083
    9DOPE  H18Y 1160   4.259   4.671   5.041  0.5599  1.9670  1.2026
    9DOPE  H18Z 1161   4.292   4.655   5.205 -1.9971  1.6196  1.2009
   10DOPE     N 1162   3.802   5.595   6.493  0.4196 -0.6827 -0.3728
   10DOPE   HN1 1163   3.833   5.547   6.406  0.7819  1.3524 -1.4308
   10DOPE   HN2 1164   3.863   5.558   6.569  1.1906 -1.3663 -1.3058
   10DOPE   HN3 1165   3.702   5.573   6.512 -0.0649  2.4736  1.4812
   10DOPE   C12 1166   3.827   5.743   6.464 -0.1572  0.0286 -0.2709
   10DOPE  H12A 1167   3.924   5.754   6.410 -0.1067  1.7439  0.1114
   10DOPE  H12B 1168   3.835   5.798   6.561 -2.9578  0.5775 -0.2687
   10DOPE   C11 1169   3.712   5.797   6.377 -0.1247  0.3382  0.4833
   10DOPE  H11A 1170   3.690   5.737   6.286  0.0386  0.3680  0.4249
   10DOPE  H11B 1171   3.746   5.892   6.332  3.2267 -0.0620  1.9022
   10DOPE     P 1172   3.470   5.725   6.458  0.2101 -0.4133 -0.1995
   10DOPE   O13 1173   3.365   5.786   6.544  0.2910 -0.6258  0.1923
   10DOPE   O14 1174   3.520   5.594   6.498  0.0409  0.1479 -0.2935
   10DOPE   O11 1175   3.436   5.703   6.304  0.1478 -0.1182  0.7616
   10DOPE   O12 1176   3.592   5.821   6.447  0.0829 -0.3292  0.1720
   10DOPE    C1 1177   3.424   5.568   6.251  0.2076 -0.4212 -0.2821
   10DOPE    HA 1178   3.379   5.490   6.316  0.0837 -0.9106 -0.9435
   10DOPE    HB 1179   3.522   5.527   6.218 -0.0235 -2.3729  1.2201
   10DOPE    C2 1180   3.322   5.559   6.124 -0.2774 -0.4580  0.1105
   10DOPE    HS 1181   3.318   5.453   6.091  0.1106 -1.0432  1.8273
   10DOPE   O21 1182   3.370   5.652   6.019  0.7271  0.2553  0.0037
   10DOPE   C21 1183   3.468   5.593   5.953  0.1409  0.0907  0.2812
   10DOPE   O22 1184   3.502   5.478   5.959  0.4111 -0.5010  0.4632
   10DOPE   C22 1185   3.532   5.690   5.857  0.1926 -0.2966 -0.2426
   10DOPE   H2R 1186   3.456   5.729   5.785  1.6667 -0.9801 -2.2584
   10DOPE   H2S 1187   3.608   5.629   5.803  2.6217  0.7131  1.8205
   10DOPE    C3 1188   3.188   5.612   6.169  0.4924 -0.2738 -0.3178
   10DOPE    HX 1189   3.204   5.709   6.222 -2.0272 -1.1458  2.2976
   10DOPE    HY 1190   3.143   5.553   6.251  0.8239  1.4882  1.1966
   10DOPE   O31 1191   3.098   5.627   6.055 -0.5189 -0.1793  0.2285
   10DOPE   C31 1192   3.029   5.520   6.020 -0.5006 -0.3165 -0.2434
   10DOPE   O32 1193   3.019   5.419   6.081  0.0744  0.9108  0.0234
   10DOPE   C32 1194   2.967   5.550   5.879 -0.4438  0.3020  0.2818
   10DOPE   H2X 1195   2.943   5.659   5.877  0.2358  0.4665 -2.3426
   10DOPE   H2Y 1196   3.056   5.539   5.813 -0.8803 -1.5081 -0.0638
   10DOPE   C23 1197   3.601   5.818   5.919  0.3392 -0.0916  0.1454
   10DOPE   H3R 1198   3.664   5.868   5.842 -0.7111  1.9238  0.5110
   10DOPE   H3S 1199   3.669   5.782   5.999  1.4157  1.2947 -0.1101
   10DOPE   C24 1200   3.511   5.928   5.963 -0.1070 -0.2534  0.5209
   10DOPE   H4R 1201   3.442   5.895   6.044  0.8795  1.2095  2.0218
   10DOPE   H4S 1202   3.445   5.956   5.878  0.5639 -0.1938  0.0114
   10DOPE   C25 1203   3.582   6.052   6.026  0.1129  0.4572  0.3552
   10DOPE   H5R 1204   3.598   6.034   6.135  1.0098  2.3523  0.5794
   10DOPE   H5S 1205   3.508   6.134   6.012  0.8435  0.7658 -2.1859
   10DOPE   C26 1206   3.699   6.111   5.944  0.3962  0.9064 -0.2622
   10DOPE   H6R 1207   3.655   6.139   5.846  0.7867  0.6070 -0.5290
   10DOPE   H6S 1208   3.777   6.037   5.916 -0.0805 -0.1699  1.1122
   10DOPE   C27 1209   3.761   6.230   6.010  0.3808  0.3625  0.6410
   10DOPE   H7R 1210   3.816   6.186   6.096 -2.4242 -1.4781  1.6427
   10DOPE   H7S 1211   3.679   6.289   6.056 -0.6420 -0.4715 -0.0583
   10DOPE   C28 1212   3.856   6.321   5.926  0.3649  0.3325 -0.5963
   10DOPE   H8R 1213   3.945   6.263   5.893  1.1688  1.5943 -0.7162
   10DOPE   H8S 1214   3.895   6.399   5.995  0.5231  0.4676 -0.8329
   10DOPE   C29 1215   3.793   6.403   5.820  0.2794 -1.0781  0.7188
   10DOPE   H9R 1216   3.709   6.463   5.859  1.8825  1.5789  0.3126
   10DOPE  C210 1217   3.828   6.422   5.690  0.3794  0.0393 -0.1202
   10DOPE  H10R 1218   3.754   6.474   5.628  0.8277  1.4690  0.5070
   10DOPE  C211 1219   3.944   6.369   5.614  0.2697 -0.6290 -0.2159
   10DOPE  H11R 1220   3.910   6.319   5.521 -1.8522  0.7975 -0.2718
   10DOPE  H11S 1221   3.995   6.293   5.678 -0.7651 -1.2022 -0.0439
   10DOPE  C212 1222   4.046   6.478   5.579  0.6763 -0.2007 -0.3450
   10DOPE  H12R 1223   4.144   6.430   5.559  1.5738  1.2239  0.5149
   10DOPE  H12S 1224   4.056   6.535   5.674 -3.2008 -0.4513  0.3982
   10DOPE  C213 1225   4.012   6.567   5.466  0.0462 -0.1161 -0.2459
   10DOPE  H13R 1226   4.066   6.662   5.485  2.4670 -1.0156 -2.0404
   10DOPE  H13S 1227   3.902   6.583   5.470  0.0220 -0.0460 -0.9568
   10DOPE  C214 1228   4.047   6.512   5.322 -0.6355 -0.3018 -1.0028
   10DOPE  H14R 1229   4.002   6.416   5.292 -0.1421 -0.1438 -2.2847
   10DOPE  H14S 1230   4.158   6.508   5.317 -0.4664  2.4279 -1.1194
   10DOPE  C215 1231   3.999   6.612   5.215  0.4046 -0.5969 -0.7351
   10DOPE  H15R 1232   3.895   6.645   5.235  0.7616  1.8735 -2.5241
   10DOPE  H15S 1233   3.993   6.550   5.123 -0.9988 -0.5879 -0.6652
   10DOPE  C216 1234   4.103   6.725   5.191 -0.1624  0.4599 -0.5126
   10DOPE  H16R 1235   4.200   6.686   5.153 -0.1411  1.2464 -1.2793
   10DOPE  H16S 1236   4.123   6.783   5.284  1.2865 -0.0331 -0.4882
   10DOPE  C217 1237   4.055   6.823   5.078 -0.5979 -0.1008  0.1631
   10DOPE  H17R 1238   3.964   6.880   5.110 -1.0169  0.5438 -2.0314
   10DOPE  H17S 1239   4.012   6.759   4.999 -0.2187  1.5761 -1.4874
   10DOPE  C218 1240   4.163   6.901   5.017 -0.3468 -0.7910 -0.3873
   10DOPE  H18R 1241   4.133   6.989   4.956 -0.0553  0.5686  1.3258
   10DOPE  H18S 1242   4.228   6.845   4.947 -0.4368  1.6122 -2.5432
   10DOPE  H18T 1243   4.228   6.938   5.099  1.0537  0.2041 -1.8850
   10DOPE   C33 1244   2.852   5.459   5.825  0.5474 -0.4950 -0.4112
   10DOPE   H3X 1245   2.823   5.507   5.729  0.7211  0.1256 -0.1619
   10DOPE   H3Y 1246   2.772   5.469   5.902  1.8424  0.7154  0.8575
   10DOPE   C34 1247   2.889   5.309   5.801 -0.2004  0.0576  0.1620
   10DOPE   H4X 1248   2.994   5.315   5.765 -1.7062  1.7377 -4.7392
   10DOPE   H4Y 1249   2.860   5.253   5.892 -1.6453  1.0305  0.3426
   10DOPE   C35 1250   2.797   5.260   5.688 -0.0085 -0.5010  0.4488
   10DOPE   H5X 1251   2.823   5.306   5.590 -0.6402  4.3384  2.2663
   10DOPE   H5Y 1252   2.700   5.307   5.711 -0.2556 -1.4374  1.4155
   10DOPE   C36 1253   2.793   5.107   5.666  0.0887  0.1761  0.0648
   10DOPE   H6X 1254   2.700   5.083   5.610  0.0194 -0.3475  0.3942
   10DOPE   H6Y 1255   2.780   5.054   5.763  0.8753 -3.0540 -1.4691
   10DOPE   C37 1256   2.910   5.047   5.583  0.5819  0.1810  0.3747
   10DOPE   H7X 1257   2.891   5.082   5.479  2.7275  0.4348  0.0213
   10DOPE   H7Y 1258   3.001   5.083   5.634  1.6645 -1.0283 -0.6250
   10DOPE   C38 1259   2.895   4.891   5.577 -0.1189 -0.1390  0.5434
   10DOPE   H8X 1260   2.785   4.875   5.567 -0.0390  0.1199 -0.8883
   10DOPE   H8Y 1261   2.917   4.843   5.675 -0.7175 -1.8992 -0.1632
   10DOPE   C39 1262   2.988   4.850   5.469  0.1544 -0.6718 -1.1035
   10DOPE   H9X 1263   3.087   4.895   5.483 -0.2741  0.1647 -0.6878
   10DOPE  C310 1264   2.957   4.791   5.358 -0.4813  0.3024 -0.0908
   10DOPE  H10X 1265   3.046   4.769   5.297 -0.3913 -0.7017  0.3776
   10DOPE  C311 1266   2.831   4.724   5.305  0.2005  0.6115 -0.5727
   10DOPE  H11X 1267   2.843   4.614   5.291  1.6050  0.6110  0.3902
   10DOPE  H11Y 1268   2.741   4.748   5.365  1.1636 -0.1668  1.3017
   10DOPE  C312 1269   2.801   4.757   5.156  0.0042  0.2430 -0.6643
   10DOPE  H12X 1270   2.862   4.686   5.096  1.1957  0.1474  0.5959
   10DOPE  H12Y 1271   2.820   4.864   5.135  2.8484  0.1945  1.0875
   10DOPE  C313 1272   2.650   4.723   5.140 -0.0840 -0.3280  0.1143
   10DOPE  H13X 1273   2.630   4.615   5.157  0.6429 -0.3925  0.5727
   10DOPE  H13Y 1274   2.588   4.786   5.207 -2.6618 -2.9546  0.4008
   10DOPE  C314 1275   2.603   4.751   4.994  1.1021  0.3044  0.0499
   10DOPE  H14X 1276   2.679   4.713   4.923 -0.3304 -2.9013  0.0503
   10DOPE  H14Y 1277   2.587   4.861   4.983 -2.7825 -0.0128  1.1553
   10DOPE  C315 1278   2.484   4.684   4.950  0.5255  0.1181  0.0594
   10DOPE  H15X 1279   2.486   4.574   4.939 -2.2670 -0.0265  0.1220
   10DOPE  H15Y 1280   2.469   4.709   4.842  0.0240 -1.8120 -0.3481
   10DOPE  C316 1281   2.361   4.720   5.030 -0.2648  0.9569 -0.2717
   10DOPE  H16X 1282   2.342   4.829   5.039  0.3649  0.9234  2.4089
   10DOPE  H16Y 1283   2.387   4.692   5.135  0.2369  1.3901 -0.2822
   10DOPE  C317 1284   2.228   4.666   4.975 -0.4598  0.2335 -0.3940
   10DOPE  H17X 1285   2.230   4.713   4.874  0.7376  2.6781  0.6652
   10DOPE  H17Y 1286   2.234   4.556   4.984  3.2582  0.0259 -3.1172
   10DOPE  C318 1287   2.122   4.710   5.079 -0.3374 -0.1378  1.0022
   10DOPE  H18X 1288   2.143   4.674   5.182  0.2066 -2.4913  0.1287
   10DOPE  H18Y 1289   2.118   4.821   5.087 -0.6565 -0.0056 -0.6603
   10DOPE  H18Z 1290   2.019   4.685   5.046 -0.3158  1.8927 -0.8049
   11DOPE     N 1291   2.226   3.203   6.858  0.6784 -0.1528  0.5349
   11DOPE   HN1 1292   2.223   3.303   6.832  4.5954  0.2437  0.9185
   11DOPE   HN2 1293   2.155   3.182   6.931  0.0986 -0.1681 -0.0326
   11DOPE   HN3 1294   2.319   3.183   6.901  1.3369  1.8180  0.1391
   11DOPE   C12 1295   2.203   3.120   6.737 -0.2658  0.0356  0.0936
   11DOPE  H12A 1296   2.265   3.163   6.655  0.2692 -0.2089  0.3684
   11DOPE  H12B 1297   2.107   3.167   6.705 -0.1098  2.0428  2.3337
   11DOPE   C11 1298   2.218   2.972   6.779  0.2181  0.3322 -0.1933
   11DOPE  H11A 1299   2.188   2.911   6.691 -2.4970 -0.7948  1.3631
   11DOPE  H11B 1300   2.151   2.948   6.865 -1.7113 -2.5688 -2.3277
   11DOPE     P 1301   2.395   2.817   6.876  0.1290  0.0569  0.1020
   11DOPE   O13 1302   2.363   2.824   7.018 -0.7903 -0.1503  0.1337
   11DOPE   O14 1303   2.537   2.791   6.834  0.1252 -0.1233 -0.1916
   11DOPE   O11 1304   2.289   2.715   6.806  0.3023  0.6003  0.5945
   11DOPE   O12 1305   2.351   2.953   6.819  0.3896 -0.2031 -0.0626
   11DOPE    C1 1306   2.336   2.596   6.746  0.7277 -0.2138  0.0595
   11DOPE    HA 1307   2.292   2.507   6.795 -0.7063 -0.7789 -2.1156
   11DOPE    HB 1308   2.445   2.576   6.748  0.7513 -0.2077 -0.9315
   11DOPE    C2 1309   2.297   2.599   6.590 -0.5833  0.4486 -0.3428
   11DOPE    HS 1310   2.327   2.507   6.535  0.6845  0.9691 -0.5559
   11DOPE   O21 1311   2.349   2.714   6.536  0.2788  0.2172 -0.0722
   11DOPE   C21 1312   2.484   2.718   6.526 -0.1568  0.8407 -0.1529
   11DOPE   O22 1313   2.554   2.622   6.546 -0.5442  0.0057  0.0182
   11DOPE   C22 1314   2.536   2.851   6.478 -0.6497 -0.0996  0.3179
   11DOPE   H2R 1315   2.631   2.866   6.533 -0.4707 -0.6537  0.1707
   11DOPE   H2S 1316   2.468   2.936   6.501  1.1276  1.0064  1.7412
   11DOPE    C3 1317   2.142   2.610   6.580  0.8651 -0.2257  0.2001
   11DOPE    HX 1318   2.106   2.705   6.627  0.2901 -0.3955  0.1181
   11DOPE    HY 1319   2.100   2.530   6.645 -0.1573  0.1247  0.0029
   11DOPE   O31 1320   2.099   2.602   6.446  0.1048  0.2686 -0.0727
   11DOPE   C31 1321   1.967   2.579   6.440 -0.0287 -0.3230 -0.3468
   11DOPE   O32 1322   1.888   2.575   6.536  0.0204  0.2613  0.1541
   11DOPE   C32 1323   1.915   2.571   6.298 -0.1641  0.0205  0.1960
   11DOPE   H2X 1324   1.818   2.626   6.302 -0.2591 -0.2409  2.6712
   11DOPE   H2Y 1325   1.975   2.620   6.219 -2.0724  0.0301 -1.3277
   11DOPE   C23 1326   2.566   2.838   6.323  0.2654 -0.6439 -0.6971
   11DOPE   H3R 1327   2.467   2.819   6.276 -1.4110  0.3240  2.2118
   11DOPE   H3S 1328   2.633   2.752   6.302  0.3325 -1.0286  0.9980
   11DOPE   C24 1329   2.634   2.966   6.283 -0.7707  0.5743 -0.7970
   11DOPE   H4R 1330   2.738   2.950   6.318 -1.1774 -1.1406 -0.2623
   11DOPE   H4S 1331   2.594   3.052   6.339  0.1069  1.6655 -1.8046
   11DOPE   C25 1332   2.637   2.974   6.131  0.1519 -0.3489 -0.0933
   11DOPE   H5R 1333   2.532   2.968   6.095 -0.1835 -0.2517  0.8475
   11DOPE   H5S 1334   2.696   2.887   6.096  1.2098  0.5352 -0.5489
   11DOPE   C26 1335   2.688   3.102   6.076  0.2075  0.1685 -0.2266
   11DOPE   H6R 1336   2.628   3.185   6.118 -0.4178  0.0617 -0.8881
   11DOPE   H6S 1337   2.670   3.098   5.967 -0.4273 -1.7430 -0.1040
   11DOPE   C27 1338   2.835   3.131   6.095 -0.2418  0.2162  0.2464
   11DOPE   H7R 1339   2.894   3.052   6.043 -1.8193  0.0562 -1.4013
   11DOPE   H7S 1340   2.851   3.118   6.204  1.1051  3.1348  0.5106
   11DOPE   C28 1341   2.874   3.275   6.063 -0.3261 -0.3669 -0.2657
   11DOPE   H8R 1342   2.790   3.325   6.115  0.8185 -0.8065  2.1270
   11DOPE   H8S 1343   2.872   3.292   5.953 -0.8496 -1.8535 -0.5133
   11DOPE   C29 1344   3.013   3.313   6.113  0.0177  0.1738 -0.5158
   11DOPE   H9R 1345   3.098   3.250   6.081 -0.7365 -0.9179 -0.4090
   11DOPE  C210 1346   3.048   3.406   6.205 -0.8655 -0.7743  0.2949
   11DOPE  H10R 1347   3.152   3.405   6.240  0.2248 -0.1532 -2.6318
   11DOPE  C211 1348   2.967   3.511   6.272  0.6086 -0.4630  0.1581
   11DOPE  H11R 1349   2.981   3.495   6.381 -1.6013 -2.3699  0.2423
   11DOPE  H11S 1350   2.858   3.494   6.264  0.3213  1.4741 -0.8380
   11DOPE  C212 1351   2.997   3.651   6.218  0.0056  0.2886  0.0505
   11DOPE  H12R 1352   3.105   3.671   6.232  0.2036  1.3401 -2.5174
   11DOPE  H12S 1353   2.952   3.726   6.287  1.1950  1.0052  0.0763
   11DOPE  C213 1354   2.956   3.681   6.074 -0.2289  1.1061  0.3049
   11DOPE  H13R 1355   2.846   3.690   6.073 -0.7804 -3.1180  2.4903
   11DOPE  H13S 1356   2.985   3.599   6.004  1.6790  1.4906  0.5789
   11DOPE  C214 1357   3.017   3.809   6.022 -0.1212  0.3856  0.0919
   11DOPE  H14R 1358   3.126   3.800   6.040 -0.3683 -0.0588  1.4780
   11DOPE  H14S 1359   2.995   3.887   6.098  0.8487  0.6454  0.1213
   11DOPE  C215 1360   2.971   3.847   5.880 -0.8333  0.1047 -0.1190
   11DOPE  H15R 1361   2.866   3.880   5.888 -0.6459  1.1234 -1.5054
   11DOPE  H15S 1362   2.970   3.752   5.822  1.0944 -0.0566  0.0196
   11DOPE  C216 1363   3.047   3.963   5.816 -0.4603  0.6561  0.1488
   11DOPE  H16R 1364   3.143   3.917   5.785 -1.0967  0.0794 -1.0557
   11DOPE  H16S 1365   3.064   4.043   5.891 -0.0871 -0.4696  1.3048
   11DOPE  C217 1366   2.971   4.027   5.699 -0.1299 -0.6078 -0.4029
   11DOPE  H17R 1367   3.027   4.121   5.678  1.1836 -0.9426  1.3155
   11DOPE  H17S 1368   2.872   4.067   5.731  0.5349  0.4988  0.3245
   11DOPE  C218 1369   2.966   3.940   5.576 -0.3034  0.3646 -0.4400
   11DOPE  H18R 1370   2.942   3.835   5.601 -1.1055  0.6946  0.2005
   11DOPE  H18S 1371   3.064   3.920   5.528 -0.5671 -0.7445 -0.5358
   11DOPE  H18T 1372   2.896   3.979   5.499 -0.3716 -2.1730 -1.7752
   11DOPE   C33 1373   1.886   2.431   6.248 -0.0004  0.8335  0.4096
   11DOPE   H3X 1374   1.811   2.442   6.167 -0.3110  0.2640  0.6124
   11DOPE   H3Y 1375   1.833   2.387   6.336  2.3725 -1.4130  0.8290
   11DOPE   C34 1376   2.019   2.359   6.216  0.5749  0.1154  0.0718
   11DOPE   H4X 1377   2.059   2.394   6.118  0.8902 -2.3405 -0.7420
   11DOPE   H4Y 1378   2.094   2.383   6.294 -0.1974 -0.3326  0.9678
   11DOPE   C35 1379   2.001   2.209   6.211  0.3111  0.0824 -0.0982
   11DOPE   H5X 1380   1.914   2.198   6.142 -0.1520 -0.6186  0.5843
   11DOPE   H5Y 1381   1.965   2.176   6.310 -2.2798 -0.9072 -1.2828
   11DOPE   C36 1382   2.116   2.131   6.149  0.7199  0.4079  0.0110
   11DOPE   H6X 1383   2.128   2.026   6.183  0.1812  0.1354 -0.6224
   11DOPE   H6Y 1384   2.209   2.188   6.174 -0.5487  2.5182  0.1878
   11DOPE   C37 1385   2.092   2.119   5.996 -0.5592 -0.1821  0.2834
   11DOPE   H7X 1386   2.028   2.031   5.973  1.6213 -0.9178 -3.8057
   11DOPE   H7Y 1387   2.047   2.210   5.949 -1.3134 -1.2891 -1.2102
   11DOPE   C38 1388   2.219   2.093   5.910  0.0745 -0.1655  0.3688
   11DOPE   H8X 1389   2.302   2.162   5.936  1.5784 -2.0406  0.7790
   11DOPE   H8Y 1390   2.200   2.114   5.802 -0.2554 -0.1772  0.4247
   11DOPE   C39 1391   2.251   1.945   5.922 -0.4902 -0.0732 -0.2592
   11DOPE   H9X 1392   2.291   1.915   6.020 -2.2633 -1.8032 -0.0155
   11DOPE  C310 1393   2.231   1.852   5.826  0.3100 -0.0548 -0.1376
   11DOPE  H10X 1394   2.255   1.746   5.841 -1.1615 -0.2524  1.0846
   11DOPE  C311 1395   2.163   1.867   5.694  0.6483  0.5701  0.0959
   11DOPE  H11X 1396   2.158   1.976   5.673  1.2640  0.6278  0.2227
   11DOPE  H11Y 1397   2.216   1.819   5.608 -0.7131 -1.6460  0.4283
   11DOPE  C312 1398   2.022   1.807   5.702 -0.2030  0.9082  0.1799
   11DOPE  H12X 1399   1.964   1.868   5.774  1.3159 -0.3370  2.6203
   11DOPE  H12Y 1400   2.006   1.703   5.739  1.0943  0.1167 -1.3769
   11DOPE  C313 1401   1.953   1.800   5.567  1.2185 -0.4578 -0.3016
   11DOPE  H13X 1402   1.849   1.766   5.582  0.7306  1.5857  1.2454
   11DOPE  H13Y 1403   1.943   1.905   5.533  0.1589  0.6620  3.0965
   11DOPE  C314 1404   2.009   1.697   5.472 -0.0551  0.2836  0.6331
   11DOPE  H14X 1405   1.996   1.600   5.525 -1.2974  0.4455  0.6463
   11DOPE  H14Y 1406   2.115   1.719   5.446 -0.3504 -0.2139 -1.1909
   11DOPE  C315 1407   1.942   1.666   5.342  0.2569  0.2118 -0.3181
   11DOPE  H15X 1408   1.966   1.756   5.280 -0.7000  1.4186  0.9913
   11DOPE  H15Y 1409   1.830   1.666   5.345  0.2634  1.1603  1.4477
   11DOPE  C316 1410   2.005   1.531   5.281 -0.6187  0.7553 -0.3118
   11DOPE  H16X 1411   1.992   1.447   5.352 -0.0961  0.4344 -0.5873
   11DOPE  H16Y 1412   2.113   1.556   5.270 -0.1443 -1.0032  0.0241
   11DOPE  C317 1413   1.946   1.483   5.156  0.3166 -0.3773  0.6088
   11DOPE  H17X 1414   1.975   1.549   5.072 -0.6497  0.4923  0.9401
   11DOPE  H17Y 1415   1.972   1.378   5.133  1.5891 -0.1682  1.0209
   11DOPE  C318 1416   1.788   1.472   5.163  0.0361 -0.4974 -0.3626
   11DOPE  H18X 1417   1.750   1.423   5.255  0.2912 -1.4200 -0.7348
   11DOPE  H18Y 1418   1.745   1.573   5.145  0.0585 -0.7573 -2.0346
   11DOPE  H18Z 1419   1.753   1.416   5.074 -1.4520  0.9512 -0.7385
   12DOPE     N 1420   5.597   7.162   7.565  0.6499  0.6317  0.7193
   12DOPE   HN1 1421   5.595   7.266   7.561  2.8335  0.6832 -0.1548
   12DOPE   HN2 1422   5.691   7.137   7.528  0.8786 -0.4791  1.9740
   12DOPE   HN3 1423   5.517   7.118   7.515  1.8676 -0.0953 -0.6464
   12DOPE   C12 1424   5.592   7.101   7.704 -0.1415  0.0637  0.1318
   12DOPE  H12A 1425   5.501   7.143   7.752 -0.9719  0.2051 -1.5164
   12DOPE  H12B 1426   5.685   7.125   7.762  1.0259 -2.8327 -0.3727
   12DOPE   C11 1427   5.579   6.949   7.699 -0.5828  0.0517  0.4199
   12DOPE  H11A 1428   5.469   6.931   7.693 -0.4443 -0.2701 -2.5205
   12DOPE  H11B 1429   5.619   6.904   7.793  0.6520 -0.8226 -0.4984
   12DOPE     P 1430   5.652   6.731   7.576 -0.5293 -0.2695 -0.1716
   12DOPE   O13 1431   5.534   6.687   7.651 -0.2351 -0.1734  0.5382
   12DOPE   O14 1432   5.784   6.684   7.623  0.1488  0.5503  0.4232
   12DOPE   O11 1433   5.641   6.706   7.423 -0.2515  0.4939 -0.1968
   12DOPE   O12 1434   5.633   6.888   7.584  0.0965 -0.2547 -0.1763
   12DOPE    C1 1435   5.619   6.823   7.335 -0.2166  0.7189  0.2954
   12DOPE    HA 1436   5.703   6.896   7.327 -0.2810  0.6883 -0.8618
   12DOPE    HB 1437   5.533   6.885   7.369 -0.9967  0.2580 -0.7890
   12DOPE    C2 1438   5.592   6.771   7.195 -0.1834  0.4381 -0.2158
   12DOPE    HS 1439   5.670   6.695   7.174  0.1588  1.0283 -1.1685
   12DOPE   O21 1440   5.585   6.877   7.101 -0.3206  0.0538 -0.3911
   12DOPE   C21 1441   5.709   6.904   7.048 -0.0054 -0.5610 -0.7977
   12DOPE   O22 1442   5.812   6.857   7.082  0.1584  0.2010 -0.0491
   12DOPE   C22 1443   5.702   7.004   6.943  0.0062  0.2241 -0.7529
   12DOPE   H2R 1444   5.767   7.093   6.958 -0.2358  0.5665 -1.6749
   12DOPE   H2S 1445   5.598   7.045   6.937 -0.6081 -1.0656  0.4138
   12DOPE    C3 1446   5.459   6.686   7.191 -0.1489  0.4246  1.0929
   12DOPE    HX 1447   5.376   6.753   7.221 -0.9578 -0.2853  0.4796
   12DOPE    HY 1448   5.480   6.607   7.267  1.5958  0.3313  0.5571
   12DOPE   O31 1449   5.438   6.620   7.063  0.3575 -0.2241 -0.2394
   12DOPE   C31 1450   5.312   6.626   7.023  0.8602  0.3919 -0.0446
   12DOPE   O32 1451   5.220   6.678   7.085 -0.3869 -0.6723  0.7191
   12DOPE   C32 1452   5.293   6.569   6.878  0.5743 -0.5483  0.3832
   12DOPE   H2X 1453   5.338   6.467   6.875  0.6377 -0.5020 -0.4309
   12DOPE   H2Y 1454   5.184   6.572   6.857  0.1846  2.0368  2.2357
   12DOPE   C23 1455   5.747   6.948   6.805  0.0185  0.3888 -1.0649
   12DOPE   H3R 1456   5.688   6.859   6.773 -2.3914  2.5929 -3.3054
   12DOPE   H3S 1457   5.852   6.913   6.810  0.2039  0.8581 -1.6805
   12DOPE   C24 1458   5.741   7.058   6.699  0.5150  0.5355  0.5550
   12DOPE   H4R 1459   5.818   7.132   6.728  0.6912  0.4716  0.2575
   12DOPE   H4S 1460   5.637   7.096   6.692 -0.3921 -1.7117  0.9104
   12DOPE   C25 1461   5.783   6.995   6.562  0.2193 -1.1031  0.1381
   12DOPE   H5R 1462   5.708   6.933   6.509 -1.0273  2.8355 -3.1859
   12DOPE   H5S 1463   5.880   6.941   6.574  1.0303  0.4950  1.1872
   12DOPE   C26 1464   5.812   7.105   6.449  0.7346  0.2376 -1.1027
   12DOPE   H6R 1465   5.868   7.061   6.363  0.9350 -0.9429 -0.3981
   12DOPE   H6S 1466   5.880   7.180   6.493 -1.4400  0.6352  1.8638
   12DOPE   C27 1467   5.682   7.176   6.406  0.4050  0.2349 -1.0448
   12DOPE   H7R 1468   5.720   7.255   6.337  0.5034  0.6854 -0.4865
   12DOPE   H7S 1469   5.637   7.221   6.496  0.7047  0.1324 -0.8420
   12DOPE   C28 1470   5.571   7.095   6.337 -0.1171  0.4866  0.0886
   12DOPE   H8R 1471   5.477   7.154   6.330 -0.2622  0.1086 -1.5187
   12DOPE   H8S 1472   5.539   7.013   6.404 -1.6093  1.8998  1.1783
   12DOPE   C29 1473   5.612   7.038   6.202  0.9085  0.2502  0.4991
   12DOPE   H9R 1474   5.676   6.948   6.204  1.4214  0.4111 -2.9329
   12DOPE  C210 1475   5.583   7.092   6.080 -0.6877 -0.3558 -0.2451
   12DOPE  H10R 1476   5.606   7.029   5.993 -1.2082 -2.4078  1.0464
   12DOPE  C211 1477   5.506   7.218   6.060 -0.2077  0.1153 -0.2416
   12DOPE  H11R 1478   5.550   7.307   6.109 -1.1758 -0.1136  1.0871
   12DOPE  H11S 1479   5.405   7.213   6.105  0.5817 -1.9377  1.4817
   12DOPE  C212 1480   5.491   7.240   5.908  0.5921  0.0390  0.3046
   12DOPE  H12R 1481   5.480   7.141   5.859  3.1226 -0.5773  0.8233
   12DOPE  H12S 1482   5.574   7.305   5.875 -0.9798  0.9905 -2.0434
   12DOPE  C213 1483   5.357   7.315   5.888 -0.3157 -0.1933  0.3156
   12DOPE  H13R 1484   5.359   7.412   5.942  1.1881  1.1598 -2.0114
   12DOPE  H13S 1485   5.276   7.256   5.934 -1.4632  1.3938  0.4084
   12DOPE  C214 1486   5.324   7.331   5.735 -0.3363  0.0462 -0.1443
   12DOPE  H14R 1487   5.324   7.234   5.680 -0.7536 -0.5971  0.9445
   12DOPE  H14S 1488   5.405   7.398   5.698 -1.7133  0.7690 -1.9965
   12DOPE  C215 1489   5.190   7.400   5.711 -0.1835 -0.2809 -0.1921
   12DOPE  H15R 1490   5.170   7.491   5.771 -0.9828 -1.5580  1.5723
   12DOPE  H15S 1491   5.112   7.327   5.743  0.1445 -1.4443 -1.8713
   12DOPE  C216 1492   5.166   7.431   5.565 -0.2168  0.5987 -0.0701
   12DOPE  H16R 1493   5.171   7.328   5.524 -2.5259 -0.8697  2.8578
   12DOPE  H16S 1494   5.245   7.499   5.527  0.2858 -1.5554 -3.2746
   12DOPE  C217 1495   5.026   7.507   5.549 -0.4756 -0.0889 -0.1968
   12DOPE  H17R 1496   4.952   7.476   5.625 -1.5974  0.8776 -0.8553
   12DOPE  H17S 1497   4.977   7.484   5.452 -1.1240 -1.2482  0.3927
   12DOPE  C218 1498   5.037   7.658   5.564  0.2505 -0.3111  0.3896
   12DOPE  H18R 1499   5.052   7.687   5.670 -1.1394 -1.5343  0.9613
   12DOPE  H18S 1500   4.941   7.701   5.528  0.1534 -1.2058 -0.4611
   12DOPE  H18T 1501   5.124   7.696   5.507  0.1943 -0.9554 -0.1381
   12DOPE   C33 1502   5.373   6.654   6.782  1.1178 -0.2358 -0.3450
   12DOPE   H3X 1503   5.475   6.669   6.824  0.4325  0.3528  1.1753
   12DOPE   H3Y 1504   5.333   6.756   6.761  2.0329 -0.0064 -1.0617
   12DOPE   C34 1505   5.375   6.595   6.643  0.3222 -0.6399  0.9668
   12DOPE   H4X 1506   5.388   6.486   6.629  0.5618 -0.3290 -2.0705
   12DOPE   H4Y 1507   5.276   6.614   6.595  1.2463  1.0026 -0.4293
   12DOPE   C35 1508   5.481   6.669   6.560 -0.0314 -0.5463  0.6807
   12DOPE   H5X 1509   5.566   6.698   6.624 -0.8351 -0.8609  1.9236
   12DOPE   H5Y 1510   5.443   6.764   6.518 -2.3894 -0.9832  1.6663
   12DOPE   C36 1511   5.539   6.584   6.446 -0.4096  0.3629  0.1645
   12DOPE   H6X 1512   5.459   6.571   6.371  0.6837  0.8372 -1.1239
   12DOPE   H6Y 1513   5.562   6.480   6.477  0.1905  0.6144  0.5972
   12DOPE   C37 1514   5.660   6.649   6.375  0.0784 -0.5181 -0.6213
   12DOPE   H7X 1515   5.630   6.755   6.362  0.6556 -0.0647  1.3843
   12DOPE   H7Y 1516   5.748   6.649   6.442 -2.0042 -0.8774  2.2674
   12DOPE   C38 1517   5.697   6.598   6.238 -0.3650  0.8113  0.4387
   12DOPE   H8X 1518   5.598   6.593   6.187 -0.5445 -1.0895  0.8935
   12DOPE   H8Y 1519   5.741   6.497   6.251 -0.6286  0.6495  0.1048
   12DOPE   C39 1520   5.783   6.688   6.162 -0.1472 -0.3652  0.0049
   12DOPE   H9X 1521   5.840   6.761   6.223 -1.0265 -0.1359  0.5839
   12DOPE  C310 1522   5.775   6.710   6.035  0.2735 -1.2017 -0.3221
   12DOPE  H10X 1523   5.838   6.794   6.001 -0.5071  0.2206  1.5626
   12DOPE  C311 1524   5.692   6.651   5.933 -0.0253 -0.3899  0.3320
   12DOPE  H11X 1525   5.757   6.594   5.862  1.2161  1.4678 -0.0910
   12DOPE  H11Y 1526   5.627   6.573   5.979 -1.1983 -0.6941 -1.6871
   12DOPE  C312 1527   5.598   6.744   5.866  0.0401 -0.1462  0.5310
   12DOPE  H12X 1528   5.546   6.816   5.932  1.1289  0.5284  0.6897
   12DOPE  H12Y 1529   5.517   6.684   5.820 -0.8566  0.5038  1.2212
   12DOPE  C313 1530   5.667   6.819   5.764  0.4305 -0.7740 -0.8996
   12DOPE  H13X 1531   5.750   6.880   5.805 -0.9478  0.1454  0.6468
   12DOPE  H13Y 1532   5.714   6.746   5.695 -1.2148 -1.7608 -1.0447
   12DOPE  C314 1533   5.577   6.918   5.679  0.0922  0.6748  0.0188
   12DOPE  H14X 1534   5.526   6.990   5.746  1.1909  0.5759  0.9848
   12DOPE  H14Y 1535   5.500   6.853   5.632  0.6389 -0.4868  0.6854
   12DOPE  C315 1536   5.658   6.999   5.577 -0.5629  0.0753  0.0707
   12DOPE  H15X 1537   5.709   6.942   5.496 -1.0132  1.4671 -1.2258
   12DOPE  H15Y 1538   5.742   7.047   5.632 -0.7295  0.3755  0.0664
   12DOPE  C316 1539   5.576   7.111   5.521 -0.2373  0.1225 -0.0956
   12DOPE  H16X 1540   5.644   7.188   5.480  0.2972 -1.0007 -1.3965
   12DOPE  H16Y 1541   5.524   7.154   5.609 -1.7497 -0.9317 -0.4417
   12DOPE  C317 1542   5.485   7.077   5.399  0.2262  0.2210 -0.5941
   12DOPE  H17X 1543   5.407   7.007   5.436  1.0956 -1.2693 -1.4886
   12DOPE  H17Y 1544   5.426   7.169   5.378  1.4348  1.7506  2.2139
   12DOPE  C318 1545   5.565   7.024   5.284  0.4005  0.2196  0.7220
   12DOPE  H18X 1546   5.638   7.104   5.256 -0.5022  1.1559  0.9781
   12DOPE  H18Y 1547   5.603   6.923   5.310  2.2573  0.1107 -1.9524
   12DOPE  H18Z 1548   5.508   7.011   5.189  0.9826 -0.2153  0.4255
   13DOPE     N 1549   4.916   1.174   7.164 -0.0256  0.1866  0.4439
   13DOPE   HN1 1550   5.010   1.218   7.151  0.9388 -1.7649  0.3317
   13DOPE   HN2 1551   4.874   1.193   7.257  2.1468  0.3015  1.4711
   13DOPE   HN3 1552   4.937   1.072   7.157 -0.5716  0.1063 -0.0514
   13DOPE   C12 1553   4.825   1.206   7.049  0.1489  0.5743  0.3633
   13DOPE  H12A 1554   4.886   1.185   6.958 -0.4156 -2.5335  0.6150
   13DOPE  H12B 1555   4.793   1.312   7.058  0.5284  0.8736 -1.4156
   13DOPE   C11 1556   4.701   1.123   7.068  0.3649  0.0862  0.3205
   13DOPE  H11A 1557   4.733   1.017   7.055  1.9720  0.5982 -0.1909
   13DOPE  H11B 1558   4.623   1.153   6.995  0.9968  2.3939  0.5159
   13DOPE     P 1559   4.514   1.048   7.236  0.1050 -0.0181  0.2441
   13DOPE   O13 1560   4.399   1.137   7.259 -0.2145  0.3461  0.1072
   13DOPE   O14 1561   4.554   0.950   7.339 -0.2530  0.1985  0.0894
   13DOPE   O11 1562   4.483   0.967   7.107 -0.3138 -0.5291 -0.1937
   13DOPE   O12 1563   4.648   1.137   7.193 -0.3655 -0.1284 -0.2233
   13DOPE    C1 1564   4.523   0.828   7.107  0.4793  0.8981  0.5680
   13DOPE    HA 1565   4.452   0.770   7.170 -0.0921 -0.4314 -1.2331
   13DOPE    HB 1566   4.630   0.807   7.129  0.1308 -1.4771  0.2908
   13DOPE    C2 1567   4.506   0.750   6.968  0.6210 -0.5380 -0.2771
   13DOPE    HS 1568   4.610   0.743   6.929  0.3859 -1.6302 -0.7268
   13DOPE   O21 1569   4.415   0.828   6.883  0.3361 -0.3534  0.1158
   13DOPE   C21 1570   4.458   0.926   6.803 -0.1045  0.7800 -0.3298
   13DOPE   O22 1571   4.576   0.937   6.778 -0.1730 -0.6021  0.6240
   13DOPE   C22 1572   4.351   1.026   6.768 -0.1846 -0.0548  0.3549
   13DOPE   H2R 1573   4.393   1.103   6.700  2.0663 -1.5487 -0.0399
   13DOPE   H2S 1574   4.318   1.069   6.866 -0.2849 -1.7169  1.0784
   13DOPE    C3 1575   4.451   0.601   6.988  0.0758  0.1143 -0.3523
   13DOPE    HX 1576   4.362   0.613   7.054  0.5564 -0.0453  0.3420
   13DOPE    HY 1577   4.529   0.547   7.046  1.1851  1.0311 -0.9382
   13DOPE   O31 1578   4.419   0.533   6.865 -0.2479  0.4556 -0.1742
   13DOPE   C31 1579   4.297   0.498   6.837 -0.6344 -0.3439  0.2803
   13DOPE   O32 1580   4.203   0.533   6.906  0.1889 -0.4649  0.5601
   13DOPE   C32 1581   4.308   0.397   6.725 -0.0299 -0.2334 -0.0873
   13DOPE   H2X 1582   4.357   0.434   6.633  0.8117 -2.2750 -0.5194
   13DOPE   H2Y 1583   4.362   0.307   6.763 -0.1488  0.4585  1.8508
   13DOPE   C23 1584   4.229   0.974   6.692 -0.6431 -0.4893 -0.1967
   13DOPE   H3R 1585   4.171   0.910   6.761 -0.9489 -0.2611 -0.2430
   13DOPE   H3S 1586   4.265   0.907   6.611 -2.4826 -1.9860  0.1610
   13DOPE   C24 1587   4.133   1.082   6.632  0.1584  0.2294 -0.1369
   13DOPE   H4R 1588   4.194   1.157   6.578  0.4407  0.9224  1.1092
   13DOPE   H4S 1589   4.081   1.129   6.718 -1.4457 -0.3112 -0.7596
   13DOPE   C25 1590   4.018   1.025   6.544 -0.2924 -0.5086 -0.0660
   13DOPE   H5R 1591   3.973   0.942   6.602 -0.2156 -1.1323 -0.8827
   13DOPE   H5S 1592   4.063   0.975   6.455  2.8786  0.6796  0.7247
   13DOPE   C26 1593   3.904   1.130   6.516 -0.3376  0.0376  0.2639
   13DOPE   H6R 1594   3.953   1.218   6.468  3.2686 -1.2420  1.2819
   13DOPE   H6S 1595   3.866   1.169   6.613 -1.9715  1.3367 -0.8322
   13DOPE   C27 1596   3.786   1.078   6.435  0.3293 -0.8829 -0.3805
   13DOPE   H7R 1597   3.720   1.164   6.412 -0.5956 -0.8637  2.0566
   13DOPE   H7S 1598   3.719   1.015   6.497  0.9300  0.3873  1.6690
   13DOPE   C28 1599   3.810   1.009   6.295 -0.2304  0.0442 -0.2726
   13DOPE   H8R 1600   3.716   0.976   6.245 -0.2281  0.7807 -0.7814
   13DOPE   H8S 1601   3.858   0.909   6.303  0.7317  0.3874 -1.5208
   13DOPE   C29 1602   3.901   1.097   6.202 -0.0253 -0.2350 -0.2335
   13DOPE   H9R 1603   3.988   1.131   6.260  1.2285 -0.6510 -1.8025
   13DOPE  C210 1604   3.893   1.112   6.067 -0.4138 -0.6468  0.3296
   13DOPE  H10R 1605   3.977   1.155   6.010 -0.4432 -2.5822 -1.2670
   13DOPE  C211 1606   3.785   1.050   5.982  0.3765  0.3046  0.0038
   13DOPE  H11R 1607   3.692   1.033   6.040  0.9393  0.9222  1.1194
   13DOPE  H11S 1608   3.813   0.947   5.950 -1.5731 -0.4152  0.4751
   13DOPE  C212 1609   3.745   1.118   5.853 -0.2254  0.0461  0.3741
   13DOPE  H12R 1610   3.687   1.043   5.796  0.4031 -1.5139  1.7074
   13DOPE  H12S 1611   3.834   1.146   5.792 -1.0122  1.0816 -0.3465
   13DOPE  C213 1612   3.673   1.251   5.866  0.5452  0.4279  0.3692
   13DOPE  H13R 1613   3.748   1.327   5.896 -0.7545  2.5015 -1.3519
   13DOPE  H13S 1614   3.607   1.241   5.954 -1.7839  2.6594 -0.9651
   13DOPE  C214 1615   3.607   1.283   5.738  0.6477 -0.0168  0.1299
   13DOPE  H14R 1616   3.552   1.379   5.751 -1.3162 -0.8985 -1.2128
   13DOPE  H14S 1617   3.531   1.208   5.708  0.9060 -0.0586 -0.4456
   13DOPE  C215 1618   3.703   1.294   5.614 -0.3872 -0.0296  0.2024
   13DOPE  H15R 1619   3.750   1.193   5.611  0.6998  0.4344  0.9292
   13DOPE  H15S 1620   3.780   1.372   5.624  0.5396 -0.7333 -1.1148
   13DOPE  C216 1621   3.641   1.324   5.480  0.1149  0.5330 -0.0471
   13DOPE  H16R 1622   3.607   1.429   5.480 -0.5743  0.3791  2.3468
   13DOPE  H16S 1623   3.558   1.251   5.472 -0.3226  0.9888  0.2610
   13DOPE  C217 1624   3.723   1.302   5.355  0.2392  0.3492  0.3963
   13DOPE  H17R 1625   3.737   1.192   5.353 -0.9905  0.1769  0.4095
   13DOPE  H17S 1626   3.826   1.337   5.379 -0.6328  0.5103  4.5908
   13DOPE  C218 1627   3.668   1.355   5.222 -0.0870  0.3840  0.1911
   13DOPE  H18R 1628   3.677   1.464   5.241 -0.3695  0.1279  2.0398
   13DOPE  H18S 1629   3.566   1.327   5.188  0.7822 -0.4214 -1.9135
   13DOPE  H18T 1630   3.743   1.329   5.144  0.5417 -1.4108  1.3301
   13DOPE   C33 1631   4.167   0.352   6.678  0.3790  0.6953  0.2446
   13DOPE   H3X 1632   4.110   0.299   6.757  1.1594 -1.9256 -0.8398
   13DOPE   H3Y 1633   4.179   0.269   6.606  1.1416  0.0559  1.0908
   13DOPE   C34 1634   4.087   0.468   6.609  0.5022  0.4961 -0.6308
   13DOPE   H4X 1635   3.998   0.414   6.568  0.1701 -0.5182  1.3230
   13DOPE   H4Y 1636   4.056   0.545   6.683  0.8068  0.0627 -0.0482
   13DOPE   C35 1637   4.167   0.543   6.501  0.7342 -0.0998  0.0922
   13DOPE   H5X 1638   4.188   0.449   6.446 -0.0077 -1.1521  1.5517
   13DOPE   H5Y 1639   4.257   0.588   6.549  0.2556 -0.6956  1.5951
   13DOPE   C36 1640   4.092   0.658   6.426 -0.1290  0.6060 -0.2848
   13DOPE   H6X 1641   4.064   0.736   6.501  0.2663  0.9351 -0.4779
   13DOPE   H6Y 1642   3.997   0.624   6.379 -1.6965  1.9025  1.7384
   13DOPE   C37 1643   4.189   0.720   6.326  0.2801 -0.3852  0.4019
   13DOPE   H7X 1644   4.148   0.815   6.286 -0.4187 -0.8670 -0.0320
   13DOPE   H7Y 1645   4.273   0.766   6.383  0.2122 -0.1281  0.2954
   13DOPE   C38 1646   4.243   0.626   6.213 -0.2562 -0.0753  0.2369
   13DOPE   H8X 1647   4.325   0.559   6.248  3.2158  2.8032 -1.6331
   13DOPE   H8Y 1648   4.299   0.697   6.148 -2.3668  1.6003  0.1573
   13DOPE   C39 1649   4.149   0.555   6.132 -0.1356  0.0573  0.7222
   13DOPE   H9X 1650   4.132   0.447   6.147  3.5966 -1.0213 -1.5830
   13DOPE  C310 1651   4.065   0.619   6.044 -0.1901  0.3482  0.6989
   13DOPE  H10X 1652   3.991   0.555   5.993 -0.8776  0.6069  1.3614
   13DOPE  C311 1653   4.069   0.765   6.016  0.2208 -0.0377 -0.7264
   13DOPE  H11X 1654   4.005   0.824   6.085 -1.9557  0.7357 -3.2256
   13DOPE  H11Y 1655   4.170   0.809   6.028  0.0394  0.8581 -2.2021
   13DOPE  C312 1656   4.017   0.791   5.867 -0.5838  0.4758  0.1545
   13DOPE  H12X 1657   3.985   0.898   5.863  1.6997  1.2064 -0.0366
   13DOPE  H12Y 1658   3.924   0.733   5.851 -0.2660  0.2063 -0.7578
   13DOPE  C313 1659   4.123   0.778   5.758 -0.2397  0.0580  0.5492
   13DOPE  H13X 1660   4.202   0.845   5.796  0.7704 -0.8567  0.1203
   13DOPE  H13Y 1661   4.163   0.675   5.748 -1.3735 -0.1606 -3.7050
   13DOPE  C314 1662   4.049   0.818   5.625 -0.1611 -0.5279 -0.8011
   13DOPE  H14X 1663   4.005   0.920   5.635 -0.9305 -1.0121  1.3284
   13DOPE  H14Y 1664   3.973   0.737   5.614 -0.6592 -0.2057  0.1154
   13DOPE  C315 1665   4.153   0.820   5.509  0.3348  0.1750 -0.2462
   13DOPE  H15X 1666   4.199   0.719   5.497  0.8430  0.4675 -0.8294
   13DOPE  H15Y 1667   4.227   0.895   5.544  0.1204 -0.0759  0.7910
   13DOPE  C316 1668   4.102   0.858   5.372  0.6231 -0.1510  0.4725
   13DOPE  H16X 1669   4.026   0.784   5.341  0.8093  0.5911 -2.0491
   13DOPE  H16Y 1670   4.185   0.850   5.298  0.0696 -0.5214 -0.1130
   13DOPE  C317 1671   4.036   1.002   5.362 -0.1710 -0.4094 -0.1017
   13DOPE  H17X 1672   3.982   1.008   5.265  0.1428  0.9881 -0.2114
   13DOPE  H17Y 1673   3.965   1.006   5.448  0.3754  1.3057  0.3032
   13DOPE  C318 1674   4.146   1.115   5.362 -0.2088 -0.2810  0.1079
   13DOPE  H18X 1675   4.233   1.092   5.297 -0.4542 -3.7123  0.7706
   13DOPE  H18Y 1676   4.107   1.218   5.347 -1.9917 -0.8760  0.3564
   13DOPE  H18Z 1677   4.185   1.109   5.465  2.6644  0.6260 -0.8418
   14DOPE     N 1678   1.350   2.863   6.475 -0.3993 -0.0658  0.0781
   14DOPE   HN1 1679   1.426   2.928   6.446 -1.0294  0.4698 -0.4205
   14DOPE   HN2 1680   1.403   2.801   6.539 -0.8401  1.0530  1.5604
   14DOPE   HN3 1681   1.307   2.805   6.400 -0.1105 -2.7563  1.8517
   14DOPE   C12 1682   1.245   2.945   6.544 -0.1385 -0.2277  0.2024
   14DOPE  H12A 1683   1.287   2.968   6.644 -1.2538  0.8653  0.4482
   14DOPE  H12B 1684   1.158   2.879   6.562 -1.0001  1.6229  3.9249
   14DOPE   C11 1685   1.205   3.069   6.463  0.5651 -0.4819 -0.0145
   14DOPE  H11A 1686   1.117   3.112   6.515  1.0762 -0.5656  0.9383
   14DOPE  H11B 1687   1.164   3.040   6.364 -1.8380  3.1623 -0.2584
   14DOPE     P 1688   1.345   3.258   6.559 -0.1077 -0.0262 -0.2474
   14DOPE   O13 1689   1.446   3.355   6.510 -0.0051 -0.0605 -0.1704
   14DOPE   O14 1690   1.385   3.179   6.679  0.0631  0.0265 -0.2918
   14DOPE   O11 1691   1.210   3.336   6.585 -0.1884  0.3378 -0.1996
   14DOPE   O12 1692   1.314   3.159   6.447 -0.2709  0.4526  0.5631
   14DOPE    C1 1693   1.196   3.463   6.527 -0.1694 -0.0894  0.2068
   14DOPE    HA 1694   1.282   3.531   6.551  1.1823 -1.3114 -1.0122
   14DOPE    HB 1695   1.115   3.506   6.590  0.2174 -1.1659  1.4831
   14DOPE    C2 1696   1.162   3.467   6.381  0.2675  0.5164 -0.5581
   14DOPE    HS 1697   1.239   3.409   6.326 -1.8580 -2.1856 -0.9153
   14DOPE   O21 1698   1.160   3.599   6.332 -0.2311 -0.3964  0.7008
   14DOPE   C21 1699   1.069   3.685   6.371  0.2767 -0.6214 -0.4225
   14DOPE   O22 1700   0.984   3.665   6.456 -0.3218 -0.1962  0.0649
   14DOPE   C22 1701   1.097   3.811   6.303  0.2891  0.0704 -0.0862
   14DOPE   H2R 1702   1.192   3.849   6.347  0.7010 -1.6975  0.6220
   14DOPE   H2S 1703   1.021   3.879   6.347  0.9828  0.0888  1.1324
   14DOPE    C3 1704   1.033   3.393   6.341  0.3106  0.1006  0.3938
   14DOPE    HX 1705   0.946   3.412   6.408  0.3325 -2.6410  1.3288
   14DOPE    HY 1706   1.060   3.288   6.366 -1.4291 -0.5290 -0.2244
   14DOPE   O31 1707   0.983   3.409   6.201 -0.4058  0.1958  0.1583
   14DOPE   C31 1708   1.053   3.340   6.113 -0.4219  0.3751 -0.0385
   14DOPE   O32 1709   1.139   3.257   6.139 -0.4592  0.7991 -0.2418
   14DOPE   C32 1710   0.998   3.374   5.978 -0.0032  0.4164 -0.0013
   14DOPE   H2X 1711   1.040   3.474   5.954  1.5644 -0.6579 -2.0866
   14DOPE   H2Y 1712   1.030   3.300   5.901 -1.7243  0.8432 -1.1950
   14DOPE   C23 1713   1.079   3.811   6.148 -0.5105  0.0872 -0.0414
   14DOPE   H3R 1714   0.976   3.779   6.122 -0.9459  1.3357  0.0663
   14DOPE   H3S 1715   1.148   3.746   6.089 -2.7654 -1.6475 -0.9151
   14DOPE   C24 1716   1.077   3.958   6.086 -0.2866  0.5565 -0.4698
   14DOPE   H4R 1717   0.995   4.021   6.128  0.1788  2.1493 -1.8194
   14DOPE   H4S 1718   1.059   3.961   5.976  2.3075  3.8723 -0.9521
   14DOPE   C25 1719   1.208   4.029   6.100 -0.0768 -0.0571 -0.1337
   14DOPE   H5R 1720   1.297   3.971   6.067  1.7378  1.5978  1.5958
   14DOPE   H5S 1721   1.231   4.038   6.208  1.1221 -0.3800 -0.3467
   14DOPE   C26 1722   1.220   4.164   6.028  0.2576  0.6587 -0.5756
   14DOPE   H6R 1723   1.291   4.236   6.073  0.0019  1.2036 -1.0286
   14DOPE   H6S 1724   1.114   4.194   6.042  0.4226  0.5307  1.2376
   14DOPE   C27 1725   1.247   4.151   5.885  0.2039 -0.6892 -0.0337
   14DOPE   H7R 1726   1.184   4.079   5.828 -2.3144  0.5732  1.0008
   14DOPE   H7S 1727   1.355   4.128   5.875  0.2510 -0.5501  0.1538
   14DOPE   C28 1728   1.221   4.281   5.814  0.1744 -0.4222 -0.5216
   14DOPE   H8R 1729   1.285   4.361   5.858 -2.7881  1.9852 -0.2963
   14DOPE   H8S 1730   1.121   4.314   5.849  1.0971  1.4069  0.5390
   14DOPE   C29 1731   1.230   4.276   5.660 -0.4654  0.2589 -0.3369
   14DOPE   H9R 1732   1.209   4.175   5.623 -0.5710 -0.7705  2.3160
   14DOPE  C210 1733   1.282   4.365   5.570 -0.0668  0.6306 -0.6042
   14DOPE  H10R 1734   1.271   4.338   5.464 -0.2894 -0.5617 -0.2997
   14DOPE  C211 1735   1.353   4.492   5.598 -0.1901  0.0841 -0.5221
   14DOPE  H11R 1736   1.417   4.471   5.687 -0.0985 -1.3233 -0.8990
   14DOPE  H11S 1737   1.283   4.577   5.615 -0.6385 -0.2930 -0.4596
   14DOPE  C212 1738   1.455   4.538   5.490  0.1644 -0.1852 -0.1521
   14DOPE  H12R 1739   1.524   4.457   5.460 -1.0441 -0.0964 -3.6287
   14DOPE  H12S 1740   1.531   4.612   5.524  1.2878 -1.4969  0.2436
   14DOPE  C213 1741   1.387   4.593   5.362 -0.1816 -0.4790  0.0078
   14DOPE  H13R 1742   1.341   4.690   5.392  1.7026  0.3592  0.3060
   14DOPE  H13S 1743   1.305   4.526   5.328 -0.6145  1.3900 -2.9739
   14DOPE  C214 1744   1.482   4.630   5.247 -0.5598 -0.0782 -0.2112
   14DOPE  H14R 1745   1.562   4.699   5.280 -1.6341  0.0979  2.2553
   14DOPE  H14S 1746   1.425   4.696   5.178 -1.3963  0.3929  0.8901
   14DOPE  C215 1747   1.548   4.515   5.171 -0.1198 -0.1366 -0.8064
   14DOPE  H15R 1748   1.559   4.558   5.069 -0.3500  1.9219 -0.0142
   14DOPE  H15S 1749   1.480   4.428   5.168  0.0665 -0.4114  1.4531
   14DOPE  C216 1750   1.687   4.487   5.223  0.7284  0.3525 -0.1202
   14DOPE  H16R 1751   1.684   4.433   5.320  1.3675  1.6355  0.6422
   14DOPE  H16S 1752   1.743   4.581   5.243  0.5435  0.4070  0.1471
   14DOPE  C217 1753   1.765   4.400   5.123  0.8251 -0.1524 -0.6844
   14DOPE  H17R 1754   1.874   4.406   5.144  0.1824  1.2309  2.8390
   14DOPE  H17S 1755   1.754   4.452   5.025 -0.4341  1.6179  0.3474
   14DOPE  C218 1756   1.725   4.254   5.123 -0.0251  0.1415  0.3279
   14DOPE  H18R 1757   1.787   4.200   5.049  0.8321 -0.0718  1.1839
   14DOPE  H18S 1758   1.620   4.245   5.088 -0.0341  0.2050  0.3381
   14DOPE  H18T 1759   1.731   4.188   5.212 -1.4770 -3.0854 -1.8098
   14DOPE   C33 1760   0.839   3.381   5.969  0.0794  0.4487 -0.2445
   14DOPE   H3X 1761   0.814   3.477   6.019  0.5914  0.1870  0.5394
   14DOPE   H3Y 1762   0.786   3.299   6.022 -0.1656  0.4051 -0.5565
   14DOPE   C34 1763   0.802   3.387   5.819  0.0517 -0.5067  0.2427
   14DOPE   H4X 1764   0.834   3.292   5.770 -0.5534 -1.2794  1.3113
   14DOPE   H4Y 1765   0.693   3.376   5.801  0.5513 -3.5871 -1.8194
   14DOPE   C35 1766   0.858   3.514   5.748  0.4042 -0.1482 -0.2799
   14DOPE   H5X 1767   0.966   3.499   5.731  0.5256 -0.3531  0.6018
   14DOPE   H5Y 1768   0.845   3.603   5.814  0.0986 -0.1262 -0.3672
   14DOPE   C36 1769   0.809   3.527   5.602  1.2029 -0.4260  0.2571
   14DOPE   H6X 1770   0.802   3.429   5.551 -0.0580  0.7380 -2.0253
   14DOPE   H6Y 1771   0.880   3.591   5.546  2.6544 -1.4438  0.8936
   14DOPE   C37 1772   0.671   3.601   5.596 -0.0251  0.0021  0.4281
   14DOPE   H7X 1773   0.590   3.536   5.635 -2.0952  1.6471 -0.9499
   14DOPE   H7Y 1774   0.682   3.692   5.658  1.2169 -1.8857  3.1635
   14DOPE   C38 1775   0.623   3.652   5.457 -0.1420  0.0166  0.1621
   14DOPE   H8X 1776   0.524   3.701   5.473 -0.4598 -0.3150 -0.7192
   14DOPE   H8Y 1777   0.601   3.565   5.392  0.5258 -2.1814  2.6871
   14DOPE   C39 1778   0.722   3.753   5.401  0.6455  0.1788 -0.1323
   14DOPE   H9X 1779   0.799   3.709   5.335  1.0294 -1.1484  1.1254
   14DOPE  C310 1780   0.722   3.889   5.431  0.6667 -0.5367  0.5320
   14DOPE  H10X 1781   0.790   3.952   5.372  0.1843 -1.3396 -0.9317
   14DOPE  C311 1782   0.648   3.960   5.545  0.6273 -0.1522  0.7547
   14DOPE  H11X 1783   0.591   4.052   5.520  1.4335  0.2451  0.3429
   14DOPE  H11Y 1784   0.561   3.894   5.570 -0.5002  0.6394 -0.8600
   14DOPE  C312 1785   0.747   3.977   5.668 -0.7481 -0.1394 -0.0774
   14DOPE  H12X 1786   0.802   3.884   5.694  0.6293  1.0683  1.6091
   14DOPE  H12Y 1787   0.693   3.993   5.764  1.7327  0.0047  1.3731
   14DOPE  C313 1788   0.857   4.085   5.654  0.3043 -0.2618  0.2928
   14DOPE  H13X 1789   0.911   4.083   5.750 -1.0691  1.0183  1.1375
   14DOPE  H13Y 1790   0.933   4.057   5.578 -1.1634 -0.8115 -1.0560
   14DOPE  C314 1791   0.792   4.220   5.636 -0.2226 -0.0836  0.1124
   14DOPE  H14X 1792   0.701   4.221   5.699 -0.1469 -0.7627  0.2411
   14DOPE  H14Y 1793   0.763   4.240   5.531 -0.4509 -0.0535  0.1812
   14DOPE  C315 1794   0.889   4.331   5.672  0.0181  0.1892  0.2686
   14DOPE  H15X 1795   0.972   4.319   5.600  0.5420  0.9164  0.7304
   14DOPE  H15Y 1796   0.924   4.316   5.777  1.6835  2.3791  0.1178
   14DOPE  C316 1797   0.824   4.473   5.653 -0.7373  0.5244 -0.9603
   14DOPE  H16X 1798   0.728   4.499   5.704 -2.7769 -2.3968 -2.9983
   14DOPE  H16Y 1799   0.807   4.479   5.544  3.3586  2.0119 -1.6958
   14DOPE  C317 1800   0.922   4.583   5.694 -0.3462 -0.2163 -1.0002
   14DOPE  H17X 1801   0.958   4.575   5.799 -3.2419 -1.4562  0.0027
   14DOPE  H17Y 1802   1.016   4.564   5.637  0.9319 -0.4393  1.0419
   14DOPE  C318 1803   0.862   4.726   5.671 -0.0777  0.0567  0.2129
   14DOPE  H18X 1804   0.777   4.735   5.742 -0.9106 -1.8420 -0.4757
   14DOPE  H18Y 1805   0.935   4.807   5.688  1.6035 -1.5231  0.9193
   14DOPE  H18Z 1806   0.825   4.732   5.567  1.2811 -1.3729 -0.3915
   15DOPE     N 1807   1.569   2.385   6.826 -0.3511  0.2713 -0.0358
   15DOPE   HN1 1808   1.491   2.423   6.769  0.2336 -0.0448 -1.0707
   15DOPE   HN2 1809   1.619   2.461   6.876  0.7136  0.0434 -0.7015
   15DOPE   HN3 1810   1.638   2.342   6.761  0.1141 -0.5460  0.9613
   15DOPE   C12 1811   1.518   2.279   6.919  0.7878  0.1799  0.0183
   15DOPE  H12A 1812   1.431   2.319   6.975  0.6324 -0.9207  0.5957
   15DOPE  H12B 1813   1.598   2.266   6.995  1.2378 -0.9417 -0.6178
   15DOPE   C11 1814   1.489   2.148   6.846  0.3023 -0.8142  0.1752
   15DOPE  H11A 1815   1.583   2.129   6.790  1.6185  1.9425  1.2660
   15DOPE  H11B 1816   1.409   2.166   6.772  0.2933 -0.4251  0.2778
   15DOPE     P 1817   1.305   2.023   7.005 -0.0394  0.5591 -0.5101
   15DOPE   O13 1818   1.262   2.134   7.090  0.5914  0.2092 -0.1053
   15DOPE   O14 1819   1.322   1.885   7.062 -0.0963 -0.2730 -0.2755
   15DOPE   O11 1820   1.212   2.007   6.882 -0.4425 -0.2016  0.4508
   15DOPE   O12 1821   1.447   2.058   6.947 -0.0286 -0.1787 -0.0323
   15DOPE    C1 1822   1.217   1.892   6.800 -0.0032 -0.1747 -0.0622
   15DOPE    HA 1823   1.175   1.810   6.863 -1.7962  0.8900  0.1969
   15DOPE    HB 1824   1.320   1.863   6.771 -0.2972 -1.1988 -0.1321
   15DOPE    C2 1825   1.126   1.905   6.674 -0.1690 -0.4832 -0.4286
   15DOPE    HS 1826   1.151   1.814   6.616  0.0082  0.1253 -1.3195
   15DOPE   O21 1827   1.153   2.032   6.601 -0.7230  0.2632 -0.0166
   15DOPE   C21 1828   1.273   2.028   6.545 -0.9487 -0.3797  0.1485
   15DOPE   O22 1829   1.357   1.940   6.539 -0.1300  0.1821 -0.2246
   15DOPE   C22 1830   1.303   2.174   6.501 -0.3459  0.0183 -0.3211
   15DOPE   H2R 1831   1.271   2.242   6.582 -2.8722  0.3925 -1.5171
   15DOPE   H2S 1832   1.223   2.196   6.427 -0.9650  1.0353  0.6231
   15DOPE    C3 1833   0.975   1.902   6.714  1.0395 -0.4274  1.1287
   15DOPE    HX 1834   0.954   1.978   6.793  3.8137 -1.6659  3.2255
   15DOPE    HY 1835   0.962   1.806   6.768  0.2535  0.5212  2.7117
   15DOPE   O31 1836   0.890   1.895   6.597 -0.3425 -0.1344 -0.0865
   15DOPE   C31 1837   0.839   2.020   6.566 -0.4065  0.3947  0.5077
   15DOPE   O32 1838   0.862   2.120   6.632 -0.5518  0.7573 -0.5608
   15DOPE   C32 1839   0.753   2.012   6.440 -0.1016  0.0235 -0.3582
   15DOPE   H2X 1840   0.665   1.945   6.454 -0.2450  0.5529  1.3855
   15DOPE   H2Y 1841   0.709   2.113   6.430 -1.1603 -0.3361  0.5369
   15DOPE   C23 1842   1.439   2.206   6.440 -0.1147 -0.1045  0.4554
   15DOPE   H3R 1843   1.476   2.131   6.367 -0.5423  0.3741 -0.2581
   15DOPE   H3S 1844   1.513   2.194   6.523 -1.7285 -0.1834  1.9291
   15DOPE   C24 1845   1.456   2.338   6.358  0.5182 -0.6326 -0.3189
   15DOPE   H4R 1846   1.563   2.369   6.363  0.4914 -0.2210 -1.8845
   15DOPE   H4S 1847   1.402   2.417   6.413  0.3118  0.4641 -2.0318
   15DOPE   C25 1848   1.430   2.322   6.204  0.3558 -0.1547  0.1899
   15DOPE   H5R 1849   1.323   2.294   6.194  0.7211 -0.9527 -1.8949
   15DOPE   H5S 1850   1.483   2.234   6.163  1.3860  0.0389  1.0675
   15DOPE   C26 1851   1.465   2.458   6.134 -0.3362 -0.1818 -0.3031
   15DOPE   H6R 1852   1.574   2.482   6.135 -0.2260 -0.6275 -0.8169
   15DOPE   H6S 1853   1.429   2.547   6.189  2.1434 -0.2856  1.6796
   15DOPE   C27 1854   1.398   2.473   5.995 -0.2215  0.2034 -0.5042
   15DOPE   H7R 1855   1.429   2.575   5.964  1.3176 -0.2674 -0.6239
   15DOPE   H7S 1856   1.289   2.467   6.011 -0.1806  1.9194  0.6470
   15DOPE   C28 1857   1.439   2.370   5.886  1.4581 -0.4754 -0.3678
   15DOPE   H8R 1858   1.379   2.390   5.794  0.0505 -0.6268  0.4926
   15DOPE   H8S 1859   1.404   2.271   5.921  1.4842  0.0180  1.0866
   15DOPE   C29 1860   1.584   2.383   5.876  0.1519 -0.2998  0.1571
   15DOPE   H9R 1861   1.638   2.477   5.859  3.8411 -2.5851 -2.3784
   15DOPE  C210 1862   1.662   2.273   5.866  0.0043  0.3554 -0.4104
   15DOPE  H10R 1863   1.768   2.294   5.887 -0.3918  0.8126  1.2564
   15DOPE  C211 1864   1.620   2.129   5.886 -0.4294 -1.1360  0.0794
   15DOPE  H11R 1865   1.548   2.121   5.971 -1.9450  0.1876 -1.0312
   15DOPE  H11S 1866   1.716   2.079   5.912 -0.6101 -1.1151  0.8182
   15DOPE  C212 1867   1.546   2.059   5.766 -0.1953 -0.1710  0.5561
   15DOPE  H12R 1868   1.443   2.098   5.756 -0.6637 -1.5527 -0.3417
   15DOPE  H12S 1869   1.532   1.954   5.800  1.9481 -0.1456  1.7143
   15DOPE  C213 1870   1.641   2.064   5.642  0.2682  0.1572 -0.1562
   15DOPE  H13R 1871   1.724   1.996   5.670 -1.3077 -2.0469 -0.4782
   15DOPE  H13S 1872   1.679   2.167   5.629  1.7460 -0.2742  0.4860
   15DOPE  C214 1873   1.569   2.009   5.514  0.2584 -0.3973  0.6271
   15DOPE  H14R 1874   1.479   2.071   5.496 -0.5247 -0.9964  2.2800
   15DOPE  H14S 1875   1.539   1.904   5.535  1.6045 -1.0667 -0.6272
   15DOPE  C215 1876   1.662   2.004   5.396  0.2399  0.5976 -0.4112
   15DOPE  H15R 1877   1.749   1.948   5.438  0.1849 -0.3856 -1.5542
   15DOPE  H15S 1878   1.693   2.102   5.353  0.5611  0.5962 -0.1877
   15DOPE  C216 1879   1.602   1.915   5.287 -0.0605 -0.1524  0.3990
   15DOPE  H16R 1880   1.501   1.946   5.254 -0.1550 -0.7402  0.1240
   15DOPE  H16S 1881   1.582   1.815   5.331 -0.7016  0.0642  0.6250
   15DOPE  C217 1882   1.693   1.898   5.163  0.0100  0.0700  0.5194
   15DOPE  H17R 1883   1.639   1.825   5.100 -1.4268  1.6834 -0.1899
   15DOPE  H17S 1884   1.795   1.863   5.190  0.1057 -0.1165 -0.0803
   15DOPE  C218 1885   1.697   2.023   5.083 -0.7047  0.3236 -0.1459
   15DOPE  H18R 1886   1.599   2.055   5.041 -1.2924  0.7629  1.4909
   15DOPE  H18S 1887   1.777   2.003   5.009  0.6999 -1.4937  1.7581
   15DOPE  H18T 1888   1.738   2.109   5.140  0.0568 -0.5107  0.5884
   15DOPE   C33 1889   0.829   1.977   6.303  0.3900 -0.1679 -0.3705
   15DOPE   H3X 1890   0.750   1.946   6.232  0.6880  0.3608 -0.9334
   15DOPE   H3Y 1891   0.903   1.895   6.322  0.1399 -0.2503  0.2761
   15DOPE   C34 1892   0.901   2.102   6.245  0.0709  0.4313 -0.3901
   15DOPE   H4X 1893   0.834   2.191   6.239  0.9472  1.0025 -2.5443
   15DOPE   H4Y 1894   0.988   2.124   6.310  1.3915 -2.7947 -0.8751
   15DOPE   C35 1895   0.940   2.088   6.099  0.7689  0.6829  0.2797
   15DOPE   H5X 1896   0.962   2.192   6.066 -0.7282  0.9935  0.1804
   15DOPE   H5Y 1897   0.857   2.044   6.040 -1.3894  0.0978  3.4672
   15DOPE   C36 1898   1.069   2.001   6.067  0.4278  0.2405  1.0258
   15DOPE   H6X 1899   1.027   1.911   6.016 -2.3523  0.9847  1.8553
   15DOPE   H6Y 1900   1.122   1.992   6.164 -1.6034 -1.4404  2.0584
   15DOPE   C37 1901   1.159   2.069   5.964  0.2297 -0.2642  1.0754
   15DOPE   H7X 1902   1.168   2.170   6.011 -0.1717  0.3211 -0.0700
   15DOPE   H7Y 1903   1.261   2.025   5.965  0.4786  0.1295 -1.3609
   15DOPE   C38 1904   1.103   2.078   5.816 -0.1483 -0.6181 -0.0776
   15DOPE   H8X 1905   1.172   2.150   5.766  1.2583 -2.1736 -0.4451
   15DOPE   H8Y 1906   1.004   2.129   5.824  1.8839  3.5722  1.2577
   15DOPE   C39 1907   1.104   1.942   5.756 -0.0394  0.5221 -0.0172
   15DOPE   H9X 1908   1.207   1.908   5.737  0.7361  3.3076 -1.4025
   15DOPE  C310 1909   0.996   1.868   5.721  0.2745  0.2040  0.7118
   15DOPE  H10X 1910   1.020   1.773   5.672 -1.0623  1.0115 -1.6920
   15DOPE  C311 1911   0.845   1.896   5.729 -0.3745  0.0052  0.1394
   15DOPE  H11X 1912   0.797   1.796   5.737  1.5006 -0.8043  2.2441
   15DOPE  H11Y 1913   0.818   1.951   5.822 -0.9231 -0.8567  0.5035
   15DOPE  C312 1914   0.816   1.975   5.607 -0.4171 -0.1164 -0.6429
   15DOPE  H12X 1915   0.866   2.073   5.623  0.5095 -0.5354 -0.8652
   15DOPE  H12Y 1916   0.707   1.996   5.612 -0.2764  0.3470  1.7258
   15DOPE  C313 1917   0.842   1.923   5.467 -0.4671 -0.2004  0.2384
   15DOPE  H13X 1918   0.950   1.932   5.444 -0.8574  0.4503 -1.5498
   15DOPE  H13Y 1919   0.820   1.814   5.470  1.2664 -0.6541 -1.4713
   15DOPE  C314 1920   0.762   2.009   5.362  0.4071  0.4146 -0.3435
   15DOPE  H14X 1921   0.777   2.115   5.388  0.6300 -0.4216  3.5625
   15DOPE  H14Y 1922   0.653   1.991   5.377  0.1089  1.6996 -0.8715
   15DOPE  C315 1923   0.792   1.976   5.214 -0.4187 -0.2491  0.6779
   15DOPE  H15X 1924   0.898   1.991   5.184 -0.9209  0.4330 -0.8404
   15DOPE  H15Y 1925   0.741   2.055   5.154 -0.7848 -0.3314  0.8813
   15DOPE  C316 1926   0.734   1.848   5.170  0.0203 -0.0184 -0.7395
   15DOPE  H16X 1927   0.628   1.848   5.202  0.9448 -1.4179  2.7824
   15DOPE  H16Y 1928   0.782   1.763   5.223  0.3860 -1.0610 -2.6225
   15DOPE  C317 1929   0.753   1.811   5.026 -0.5084  0.7245 -0.1683
   15DOPE  H17X 1930   0.853   1.845   4.993 -0.8488  3.5517  1.3916
   15DOPE  H17Y 1931   0.764   1.700   5.031  0.5268  0.8689  1.8070
   15DOPE  C318 1932   0.638   1.852   4.938 -0.5981 -0.7421 -0.3080
   15DOPE  H18X 1933   0.553   1.791   4.974  0.5958 -2.0737  0.3785
   15DOPE  H18Y 1934   0.606   1.957   4.950 -0.3875 -0.7467  0.3292
   15DOPE  H18Z 1935   0.649   1.829   4.830 -3.4544  0.6729 -0.9873
   16DOPE     N 1936   1.691   3.423   6.819  0.0904  0.0705  0.0257
   16DOPE   HN1 1937   1.791   3.403   6.836  0.2777  2.4224  2.4026
   16DOPE   HN2 1938   1.676   3.453   6.721  0.2230 -0.9825 -0.3233
   16DOPE   HN3 1939   1.661   3.500   6.883 -0.1067  0.9115 -1.0468
   16DOPE   C12 1940   1.611   3.305   6.843 -0.3926  0.2048  0.1844
   16DOPE  H12A 1941   1.645   3.236   6.763  1.9769  1.2174  0.2458
   16DOPE  H12B 1942   1.505   3.336   6.827 -0.6954 -1.6215 -1.8311
   16DOPE   C11 1943   1.636   3.236   6.979  0.5154  0.7055 -0.0984
   16DOPE  H11A 1944   1.578   3.141   6.984  1.3652  0.2039  0.6277
   16DOPE  H11B 1945   1.582   3.301   7.051 -1.4880  0.2313 -1.0897
   16DOPE     P 1946   1.868   3.111   6.976  0.2030 -0.2441 -0.6245
   16DOPE   O13 1947   1.820   2.990   7.042 -0.6919 -0.4532 -0.1018
   16DOPE   O14 1948   2.012   3.137   7.004  0.0397 -0.8078 -0.2305
   16DOPE   O11 1949   1.850   3.097   6.821 -0.5506  0.3582 -0.1245
   16DOPE   O12 1950   1.774   3.234   7.012 -0.4399 -0.1531 -0.3802
   16DOPE    C1 1951   1.841   2.967   6.758  0.0022  0.1745  0.0884
   16DOPE    HA 1952   1.747   2.913   6.784  0.6904 -1.4933 -0.7198
   16DOPE    HB 1953   1.930   2.908   6.788  0.4124  0.9169  0.3432
   16DOPE    C2 1954   1.839   2.973   6.603 -0.3405 -0.2347 -0.2676
   16DOPE    HS 1955   1.786   2.882   6.566 -1.7573 -0.6622  2.5747
   16DOPE   O21 1956   1.975   2.998   6.551  0.1946 -0.1894 -0.0121
   16DOPE   C21 1957   2.001   2.938   6.431 -0.2652 -0.8970  0.1276
   16DOPE   O22 1958   1.918   2.866   6.374 -0.3878  0.7368 -0.1604
   16DOPE   C22 1959   2.145   2.965   6.390  0.4993 -0.3437 -1.2127
   16DOPE   H2R 1960   2.207   2.893   6.446  0.5214  1.1012  0.7107
   16DOPE   H2S 1961   2.162   3.065   6.434 -1.4180 -0.3081 -0.4298
   16DOPE    C3 1962   1.755   3.100   6.550  0.0141 -0.3783  0.3506
   16DOPE    HX 1963   1.809   3.188   6.591  1.2973 -0.1516 -1.7043
   16DOPE    HY 1964   1.653   3.088   6.594  0.8575 -1.7428  2.0610
   16DOPE   O31 1965   1.757   3.109   6.403  0.3971 -0.0612 -0.9827
   16DOPE   C31 1966   1.663   3.036   6.340 -0.0987 -0.3113 -1.0144
   16DOPE   O32 1967   1.571   2.978   6.397  0.0828  0.2478 -0.0634
   16DOPE   C32 1968   1.691   3.040   6.186  0.0602 -0.2194 -0.6756
   16DOPE   H2X 1969   1.649   3.135   6.147 -1.0116 -0.4909 -0.2076
   16DOPE   H2Y 1970   1.802   3.047   6.176  0.2359 -0.8215  0.6313
   16DOPE   C23 1971   2.174   2.942   6.245 -0.3443  0.2724  0.6079
   16DOPE   H3R 1972   2.148   2.836   6.221 -0.6898  0.7132 -1.1265
   16DOPE   H3S 1973   2.283   2.950   6.221 -0.9669  0.7389 -2.5632
   16DOPE   C24 1974   2.106   3.041   6.147  0.0563  0.5201 -0.1989
   16DOPE   H4R 1975   2.163   3.135   6.163  0.2748 -0.1377  3.8390
   16DOPE   H4S 1976   2.008   3.066   6.191 -0.5839 -1.3280 -0.5012
   16DOPE   C25 1977   2.096   2.989   6.002  0.1564 -0.2222  0.0525
   16DOPE   H5R 1978   2.038   3.059   5.938 -0.4510 -1.7974 -1.1792
   16DOPE   H5S 1979   2.030   2.899   5.996 -0.8950  0.6089 -1.1675
   16DOPE   C26 1980   2.233   2.937   5.946  0.3956 -0.6615 -0.2487
   16DOPE   H6R 1981   2.219   2.886   5.847  2.0128 -0.5558 -0.5551
   16DOPE   H6S 1982   2.278   2.861   6.013  1.2747  0.7000  0.7525
   16DOPE   C27 1983   2.348   3.037   5.920  0.6594 -1.0092  0.4352
   16DOPE   H7R 1984   2.442   2.981   5.899  1.2107  0.7354 -2.3127
   16DOPE   H7S 1985   2.360   3.097   6.012 -1.7228  1.0709 -0.5091
   16DOPE   C28 1986   2.333   3.148   5.807 -0.6836  0.7462 -0.1616
   16DOPE   H8R 1987   2.415   3.220   5.826 -0.4548  0.3004  0.6121
   16DOPE   H8S 1988   2.248   3.214   5.836 -0.1983  0.8282  1.1740
   16DOPE   C29 1989   2.318   3.090   5.668 -0.2941  0.3402  0.6197
   16DOPE   H9R 1990   2.224   3.036   5.650 -0.6924  1.4906 -0.9228
   16DOPE  C210 1991   2.402   3.082   5.566 -0.2647  0.5517  0.0696
   16DOPE  H10R 1992   2.371   3.034   5.471  1.8881 -1.3373  0.2479
   16DOPE  C211 1993   2.543   3.132   5.562  0.1697  0.1955  0.1981
   16DOPE  H11R 1994   2.578   3.152   5.666 -0.4681 -0.3649  0.5325
   16DOPE  H11S 1995   2.542   3.225   5.502  0.5418 -0.9285 -1.6186
   16DOPE  C212 1996   2.646   3.040   5.482 -0.0592 -0.4799  0.8506
   16DOPE  H12R 1997   2.735   3.106   5.478 -0.8679  0.5771 -0.7308
   16DOPE  H12S 1998   2.605   3.032   5.378 -0.2378  2.4300  0.6346
   16DOPE  C213 1999   2.674   2.902   5.549  0.1623  0.2426  0.0718
   16DOPE  H13R 2000   2.730   2.848   5.470 -0.0841 -1.8219  1.2427
   16DOPE  H13S 2001   2.579   2.850   5.572  0.1897 -0.2899 -0.9607
   16DOPE  C214 2002   2.755   2.915   5.682 -0.2459 -0.3871 -0.6982
   16DOPE  H14R 2003   2.768   2.815   5.729  2.3062  0.9022  1.6473
   16DOPE  H14S 2004   2.705   2.979   5.758  0.2177 -1.6722  0.7516
   16DOPE  C215 2005   2.892   2.973   5.650 -0.5778 -0.3314  0.6068
   16DOPE  H15R 2006   2.895   3.023   5.551 -1.6948  1.2164  1.3086
   16DOPE  H15S 2007   2.971   2.896   5.639  0.2082  0.6381 -0.8927
   16DOPE  C216 2008   2.950   3.064   5.761 -0.2010 -0.0706  0.4035
   16DOPE  H16R 2009   2.987   2.998   5.843 -0.5838 -1.2231 -0.3306
   16DOPE  H16S 2010   2.868   3.127   5.801  0.7847  0.9314  0.8887
   16DOPE  C217 2011   3.054   3.176   5.721 -1.1799 -0.1860 -0.3108
   16DOPE  H17R 2012   3.062   3.244   5.808  0.9756 -1.9613  0.9867
   16DOPE  H17S 2013   3.017   3.249   5.646 -0.2367  2.3767  1.5962
   16DOPE  C218 2014   3.197   3.125   5.679  0.6918  0.4937  0.6566
   16DOPE  H18R 2015   3.176   3.044   5.606 -0.9021  0.7481  0.8095
   16DOPE  H18S 2016   3.256   3.075   5.759  1.7886 -1.2560 -1.1354
   16DOPE  H18T 2017   3.266   3.200   5.635  0.8764  0.4083  0.7948
   16DOPE   C33 2018   1.637   2.913   6.115  0.1626  0.5992  0.5219
   16DOPE   H3X 2019   1.527   2.905   6.130 -0.3008  1.9047 -1.7302
   16DOPE   H3Y 2020   1.695   2.826   6.153 -0.6086 -0.5530 -0.8581
   16DOPE   C34 2021   1.666   2.930   5.965 -0.4583  0.0165 -0.1209
   16DOPE   H4X 2022   1.630   3.029   5.931 -1.2341  0.1950  1.1383
   16DOPE   H4Y 2023   1.771   2.912   5.933 -0.6690 -0.0052 -0.8360
   16DOPE   C35 2024   1.585   2.837   5.871  0.1792 -1.4205  0.0572
   16DOPE   H5X 2025   1.477   2.837   5.899  0.2000  0.2421  0.2424
   16DOPE   H5Y 2026   1.626   2.734   5.869  0.4555 -1.3051 -0.9329
   16DOPE   C36 2027   1.592   2.902   5.731  0.1111  0.4279 -0.1690
   16DOPE   H6X 2028   1.696   2.929   5.705  0.4035 -1.5565 -1.2610
   16DOPE   H6Y 2029   1.530   2.994   5.739  0.5655  0.7431 -0.2304
   16DOPE   C37 2030   1.534   2.806   5.627  0.3773  0.1497 -0.2937
   16DOPE   H7X 2031   1.587   2.709   5.623 -0.5813 -0.3609 -3.4405
   16DOPE   H7Y 2032   1.432   2.773   5.659  0.3333 -1.2881 -1.7645
   16DOPE   C38 2033   1.514   2.868   5.486 -0.2612  0.5808 -0.6355
   16DOPE   H8X 2034   1.453   2.960   5.499  0.0345  0.6546  0.3679
   16DOPE   H8Y 2035   1.450   2.790   5.441 -0.8535  0.3980  0.4870
   16DOPE   C39 2036   1.648   2.893   5.412  0.2158  0.7314 -0.1764
   16DOPE   H9X 2037   1.672   3.000   5.402 -2.0336  1.4204  1.1660
   16DOPE  C310 2038   1.736   2.807   5.375 -0.0438  0.0956  0.5684
   16DOPE  H10X 2039   1.823   2.836   5.316  0.0500 -0.7656  0.2589
   16DOPE  C311 2040   1.732   2.657   5.382  0.1992 -0.6518  0.9264
   16DOPE  H11X 2041   1.632   2.613   5.405 -0.3511 -1.4676 -2.5325
   16DOPE  H11Y 2042   1.745   2.620   5.279 -0.2708  2.3850 -0.3417
   16DOPE  C312 2043   1.835   2.604   5.483 -0.2986  0.1787 -0.2465
   16DOPE  H12X 2044   1.804   2.628   5.587  2.3752  2.2967  0.1507
   16DOPE  H12Y 2045   1.930   2.660   5.474  1.2022 -2.0724  0.7425
   16DOPE  C313 2046   1.876   2.457   5.445 -0.2757  0.2807 -0.0701
   16DOPE  H13X 2047   1.786   2.392   5.450  1.3644 -2.0918  0.3231
   16DOPE  H13Y 2048   1.907   2.459   5.338 -0.3141  2.9530 -0.1162
   16DOPE  C314 2049   1.984   2.390   5.532  0.3086  0.3174  0.3793
   16DOPE  H14X 2050   1.950   2.401   5.638  0.1974 -1.0407  0.5078
   16DOPE  H14Y 2051   2.088   2.425   5.517  0.5432 -0.4654  0.1071
   16DOPE  C315 2052   1.991   2.242   5.493  0.5579 -0.5897 -0.0804
   16DOPE  H15X 2053   1.894   2.192   5.515  0.0224  0.0580 -0.9067
   16DOPE  H15Y 2054   2.065   2.205   5.567  1.5891  2.0888  0.3626
   16DOPE  C316 2055   2.058   2.210   5.363 -0.3682 -0.2326 -0.3173
   16DOPE  H16X 2056   2.153   2.265   5.349 -0.5696  0.2274  0.0763
   16DOPE  H16Y 2057   1.984   2.252   5.291 -0.7351  0.0730  0.2294
   16DOPE  C317 2058   2.067   2.056   5.333 -0.1468 -0.5263 -0.6900
   16DOPE  H17X 2059   2.146   2.016   5.400  0.0518  0.1793 -0.4913
   16DOPE  H17Y 2060   1.965   2.033   5.370 -0.9100  1.0588 -1.6823
   16DOPE  C318 2061   2.083   2.007   5.190  0.3277 -0.5439  0.7911
   16DOPE  H18X 2062   2.133   1.907   5.188  2.4774  0.4786 -1.2423
   16DOPE  H18Y 2063   1.982   1.996   5.145  0.4254  2.7193 -0.4827
   16DOPE  H18Z 2064   2.145   2.067   5.120  0.6661 -0.4188  1.2014
   17DOPE     N 2065   3.428   5.892   6.791 -0.3281  0.7642 -1.0674
   17DOPE   HN1 2066   3.388   5.839   6.711 -1.1246  0.7292 -0.6624
   17DOPE   HN2 2067   3.531   5.886   6.784 -0.2106  0.8198  0.2646
   17DOPE   HN3 2068   3.398   5.849   6.881 -1.9632  0.5734 -1.6599
   17DOPE   C12 2069   3.398   6.038   6.786  0.6480 -0.4042  0.0671
   17DOPE  H12A 2070   3.310   6.057   6.851  0.4236 -1.4088  0.0728
   17DOPE  H12B 2071   3.377   6.077   6.685  0.0395  0.7776  0.6275
   17DOPE   C11 2072   3.521   6.110   6.836  0.5296  0.6837  0.3184
   17DOPE  H11A 2073   3.536   6.092   6.945 -1.4540  0.4599  0.5802
   17DOPE  H11B 2074   3.495   6.217   6.825 -3.6594 -0.2985 -1.2093
   17DOPE     P 2075   3.782   6.151   6.775 -0.1411 -0.2223 -0.0737
   17DOPE   O13 2076   3.889   6.047   6.797  0.6046 -0.1202  0.2476
   17DOPE   O14 2077   3.781   6.258   6.872  0.2071 -0.4922  0.2833
   17DOPE   O11 2078   3.798   6.226   6.637 -0.0604 -0.3979  0.2620
   17DOPE   O12 2079   3.642   6.075   6.759  0.0887 -0.0021 -0.2189
   17DOPE    C1 2080   3.793   6.151   6.513  0.1076 -0.1868  0.2575
   17DOPE    HA 2081   3.750   6.049   6.524  1.8983 -0.9198  0.7911
   17DOPE    HB 2082   3.894   6.137   6.468 -0.6168 -0.7802 -1.2750
   17DOPE    C2 2083   3.703   6.215   6.406  0.0252 -0.0874 -0.5107
   17DOPE    HS 2084   3.721   6.167   6.308  0.9399 -1.5749  0.3411
   17DOPE   O21 2085   3.728   6.356   6.402 -0.4771  0.1924  0.4610
   17DOPE   C21 2086   3.848   6.395   6.357 -0.2165 -0.4725  0.8683
   17DOPE   O22 2087   3.923   6.325   6.287  0.0115  0.2217  0.0632
   17DOPE   C22 2088   3.886   6.540   6.402 -0.2487 -0.2423 -0.2547
   17DOPE   H2R 2089   3.957   6.537   6.487 -1.1618  3.0078  0.7826
   17DOPE   H2S 2090   3.793   6.593   6.436 -0.4172 -0.5421 -0.2466
   17DOPE    C3 2091   3.552   6.200   6.453 -0.4075 -0.2277  0.2070
   17DOPE    HX 2092   3.550   6.239   6.556 -0.1246  2.4399 -0.7271
   17DOPE    HY 2093   3.517   6.095   6.465 -0.9823 -0.2107 -1.1255
   17DOPE   O31 2094   3.462   6.265   6.355  0.3449  0.6369 -0.1348
   17DOPE   C31 2095   3.388   6.360   6.406  0.4670  0.4726  1.2301
   17DOPE   O32 2096   3.400   6.406   6.517  0.5219  0.8727  0.1917
   17DOPE   C32 2097   3.291   6.404   6.296 -0.4580 -0.1456  0.1405
   17DOPE   H2X 2098   3.293   6.330   6.213  1.7017 -1.8194  1.5619
   17DOPE   H2Y 2099   3.186   6.412   6.332 -0.3157  1.8086  0.2292
   17DOPE   C23 2100   3.957   6.612   6.281  0.0880 -0.0734 -0.0264
   17DOPE   H3R 2101   4.040   6.545   6.248  0.0823  0.3829 -0.9857
   17DOPE   H3S 2102   4.007   6.702   6.321  2.4925 -1.1924 -0.3181
   17DOPE   C24 2103   3.868   6.658   6.164  0.9994 -0.1210  0.4010
   17DOPE   H4R 2104   3.797   6.727   6.213  0.0838 -2.3996  2.4830
   17DOPE   H4S 2105   3.806   6.575   6.124  2.2233 -2.0605  2.2692
   17DOPE   C25 2106   3.933   6.732   6.052 -0.1461 -0.2495 -0.5215
   17DOPE   H5R 2107   3.975   6.657   5.982 -0.8576  0.1948 -1.4545
   17DOPE   H5S 2108   4.016   6.797   6.087 -2.1587  0.6140  3.1128
   17DOPE   C26 2109   3.833   6.811   5.974 -0.1552  0.2174 -0.0207
   17DOPE   H6R 2110   3.753   6.857   6.035  0.7385  1.2391  0.3987
   17DOPE   H6S 2111   3.780   6.738   5.908 -0.8404  1.0184 -0.3672
   17DOPE   C27 2112   3.899   6.909   5.878  0.5286  0.8308 -0.2169
   17DOPE   H7R 2113   3.985   6.864   5.823  1.3465  1.6578  0.3504
   17DOPE   H7S 2114   3.945   6.979   5.951  2.0715 -0.1087 -0.2269
   17DOPE   C28 2115   3.811   6.972   5.779  0.3528 -0.6337  0.1265
   17DOPE   H8R 2116   3.872   7.040   5.716  3.3775 -2.2682  1.0840
   17DOPE   H8S 2117   3.745   7.032   5.844  0.2450 -0.6603  0.0417
   17DOPE   C29 2118   3.724   6.871   5.702 -0.1071 -0.0704 -0.2107
   17DOPE   H9R 2119   3.624   6.852   5.744 -0.8687 -0.3901 -2.0451
   17DOPE  C210 2120   3.732   6.849   5.566  0.6876 -0.9613 -0.2069
   17DOPE  H10R 2121   3.666   6.774   5.518 -0.7964 -0.3054  0.7435
   17DOPE  C211 2122   3.850   6.896   5.477  0.1912 -0.1346 -0.4607
   17DOPE  H11R 2123   3.875   6.816   5.404 -1.6942  0.8013 -2.2133
   17DOPE  H11S 2124   3.939   6.901   5.544  0.7724 -1.1132 -1.1280
   17DOPE  C212 2125   3.836   7.038   5.412 -0.4681  0.8986  0.1286
   17DOPE  H12R 2126   3.800   7.117   5.481 -0.4828 -0.0652  1.2727
   17DOPE  H12S 2127   3.758   7.023   5.334 -0.0444  0.4752 -0.2221
   17DOPE  C213 2128   3.966   7.082   5.340 -0.1905 -0.1118 -0.7351
   17DOPE  H13R 2129   3.995   7.000   5.271 -0.0698 -0.1861 -0.5964
   17DOPE  H13S 2130   4.043   7.093   5.420  0.6578  1.4370 -1.7230
   17DOPE  C214 2131   3.952   7.207   5.257 -0.1273 -0.3017 -0.9304
   17DOPE  H14R 2132   3.924   7.294   5.320  1.3423 -0.0815 -0.5303
   17DOPE  H14S 2133   3.867   7.195   5.187 -1.8802 -1.0466  1.1814
   17DOPE  C215 2134   4.085   7.237   5.188 -0.1993 -0.4781  0.2628
   17DOPE  H15R 2135   4.114   7.160   5.114  1.6859  3.0016 -3.0279
   17DOPE  H15S 2136   4.167   7.262   5.258 -0.1908  2.1875 -0.5820
   17DOPE  C216 2137   4.088   7.365   5.096 -0.2115  0.0893 -0.4040
   17DOPE  H16R 2138   4.100   7.459   5.154  0.7269  0.4219 -1.1038
   17DOPE  H16S 2139   3.991   7.373   5.042 -0.1501 -0.2449 -0.5637
   17DOPE  C217 2140   4.208   7.361   5.002  0.4370  0.7244 -0.2774
   17DOPE  H17R 2141   4.205   7.276   4.931 -0.7363 -0.2199  0.8566
   17DOPE  H17S 2142   4.298   7.340   5.063  0.9196 -1.7697 -1.6872
   17DOPE  C218 2143   4.224   7.480   4.904  0.4626  1.0430 -0.3408
   17DOPE  H18R 2144   4.319   7.473   4.847  0.7081  1.4558  0.0204
   17DOPE  H18S 2145   4.238   7.571   4.966 -0.0720  0.4856  0.6114
   17DOPE  H18T 2146   4.134   7.501   4.843  0.1012  2.3294  0.6024
   17DOPE   C33 2147   3.332   6.549   6.258  0.1231  0.1723 -0.3286
   17DOPE   H3X 2148   3.339   6.602   6.356  0.3497 -0.6581  0.1126
   17DOPE   H3Y 2149   3.264   6.597   6.185 -0.4537  2.6430  1.6826
   17DOPE   C34 2150   3.469   6.551   6.193 -0.0565 -0.6905  0.1843
   17DOPE   H4X 2151   3.521   6.645   6.219 -1.9864 -0.1573  2.5015
   17DOPE   H4Y 2152   3.537   6.473   6.233 -0.0878 -1.1645 -0.6551
   17DOPE   C35 2153   3.477   6.537   6.037 -0.6663  0.1661  0.6177
   17DOPE   H5X 2154   3.581   6.517   6.001 -0.2739  3.0218 -0.0253
   17DOPE   H5Y 2155   3.441   6.633   5.994  0.0759 -0.1282 -0.7272
   17DOPE   C36 2156   3.389   6.422   5.970  0.8142 -0.0145 -0.2959
   17DOPE   H6X 2157   3.288   6.466   5.979  0.5008 -0.3290 -1.8602
   17DOPE   H6Y 2158   3.402   6.330   6.030 -0.3378 -0.7984 -1.2027
   17DOPE   C37 2159   3.417   6.404   5.824  0.0810  0.4018  0.0149
   17DOPE   H7X 2160   3.453   6.497   5.775  2.5472 -0.3125  0.3458
   17DOPE   H7Y 2161   3.507   6.343   5.805 -0.2958 -0.2924  0.4034
   17DOPE   C38 2162   3.299   6.341   5.744 -0.6608 -0.0902 -0.2429
   17DOPE   H8X 2163   3.216   6.409   5.772 -0.0705  0.5312  0.0384
   17DOPE   H8Y 2164   3.272   6.242   5.786  1.8090 -0.3027  1.0112
   17DOPE   C39 2165   3.310   6.353   5.592  0.9052 -0.8671 -0.6626
   17DOPE   H9X 2166   3.253   6.437   5.549 -1.5444 -1.4256  1.2588
   17DOPE  C310 2167   3.396   6.281   5.519  0.1393  0.2115 -0.3664
   17DOPE  H10X 2168   3.394   6.287   5.409  0.8865 -2.4461 -0.5967
   17DOPE  C311 2169   3.494   6.182   5.573 -0.3935  0.2473 -0.4172
   17DOPE  H11X 2170   3.593   6.232   5.580 -0.3291  0.1016 -0.2813
   17DOPE  H11Y 2171   3.473   6.139   5.673  0.6515 -0.2680 -0.4008
   17DOPE  C312 2172   3.521   6.055   5.481 -1.1094  0.2116  0.1434
   17DOPE  H12X 2173   3.553   6.101   5.386 -1.3088 -0.3285 -0.1924
   17DOPE  H12Y 2174   3.432   5.989   5.474 -0.0184 -1.3270  0.2217
   17DOPE  C313 2175   3.635   5.974   5.531  0.0065  0.0591  0.3361
   17DOPE  H13X 2176   3.726   6.034   5.553  0.0422  0.6357 -1.2631
   17DOPE  H13Y 2177   3.598   5.925   5.624  0.3454  0.1036  0.4987
   17DOPE  C314 2178   3.687   5.865   5.433  0.1032  0.1292 -0.4302
   17DOPE  H14X 2179   3.748   5.909   5.352  0.3071 -0.7823 -0.7784
   17DOPE  H14Y 2180   3.598   5.806   5.402 -0.1688  0.1643  0.2570
   17DOPE  C315 2181   3.775   5.769   5.506  0.3047  0.4513  0.0899
   17DOPE  H15X 2182   3.741   5.771   5.612  1.0506  3.8536  0.3846
   17DOPE  H15Y 2183   3.882   5.800   5.506  1.1130 -2.0747 -1.0137
   17DOPE  C316 2184   3.779   5.635   5.443  0.5661  0.3220  0.5279
   17DOPE  H16X 2185   3.680   5.590   5.421  0.2096  1.3461 -0.0070
   17DOPE  H16Y 2186   3.835   5.562   5.506  1.8406  0.0313 -0.8957
   17DOPE  C317 2187   3.863   5.633   5.319 -0.2629  1.1704  0.6541
   17DOPE  H17X 2188   3.802   5.679   5.238 -2.6391 -1.3577  0.8538
   17DOPE  H17Y 2189   3.959   5.688   5.332  1.0666 -0.9298  0.3981
   17DOPE  C318 2190   3.916   5.493   5.285 -0.3485 -0.5650  0.2832
   17DOPE  H18X 2191   3.968   5.460   5.378  1.2589  0.7643 -0.0977
   17DOPE  H18Y 2192   3.839   5.415   5.266 -0.0577 -0.8139  0.1062
   17DOPE  H18Z 2193   3.977   5.495   5.192 -1.6968  3.1952 -0.6768
   18DOPE     N 2194   0.929   2.380   6.961  0.8868  0.3102  0.6309
   18DOPE   HN1 2195   0.963   2.361   7.057 -0.0639  1.9346  1.3219
   18DOPE   HN2 2196   0.954   2.477   6.933 -2.7746  1.0761 -0.5094
   18DOPE   HN3 2197   0.825   2.381   6.953  0.9569  1.5615 -0.5166
   18DOPE   C12 2198   0.995   2.291   6.863  0.4571 -0.5965 -0.2848
   18DOPE  H12A 2199   0.932   2.294   6.772 -0.6401  2.5649  0.4660
   18DOPE  H12B 2200   1.010   2.189   6.906 -1.3742 -0.3307  1.1151
   18DOPE   C11 2201   1.135   2.337   6.832  0.3185  0.3570  0.5275
   18DOPE  H11A 2202   1.182   2.276   6.753 -1.1295  1.0576 -0.9322
   18DOPE  H11B 2203   1.201   2.341   6.921 -0.9237 -0.6576  1.5334
   18DOPE     P 2204   1.218   2.533   6.677  0.0856 -0.1058  0.1340
   18DOPE   O13 2205   1.352   2.484   6.711 -0.0479  0.2315 -0.0986
   18DOPE   O14 2206   1.198   2.682   6.676 -0.9421  0.2058 -0.4250
   18DOPE   O11 2207   1.169   2.464   6.551 -0.0418 -0.1643 -0.2599
   18DOPE   O12 2208   1.119   2.478   6.787 -0.6206  0.2496  0.1011
   18DOPE    C1 2209   1.038   2.438   6.514 -0.0807  0.1369  0.2030
   18DOPE    HA 2210   0.963   2.467   6.591 -1.4440 -1.1430 -0.5893
   18DOPE    HB 2211   1.030   2.327   6.511  0.0104  0.0944  1.1638
   18DOPE    C2 2212   1.005   2.502   6.375  0.1868 -0.0512  0.6416
   18DOPE    HS 2213   0.997   2.609   6.402 -1.3806 -0.0360  0.2090
   18DOPE   O21 2214   0.896   2.438   6.299 -0.2035  0.3583  0.0916
   18DOPE   C21 2215   0.822   2.527   6.234 -0.2131 -0.6906 -0.4169
   18DOPE   O22 2216   0.829   2.649   6.245  0.2017 -0.8642  0.1069
   18DOPE   C22 2217   0.724   2.450   6.149 -0.1371 -0.1359 -0.1266
   18DOPE   H2R 2218   0.626   2.463   6.199  0.9601  2.9164  1.4841
   18DOPE   H2S 2219   0.740   2.340   6.145  0.0280 -0.0718 -2.7417
   18DOPE    C3 2220   1.118   2.496   6.279 -0.2133 -0.1224  0.8701
   18DOPE    HX 2221   1.133   2.390   6.248 -0.9173 -0.3213  1.1937
   18DOPE    HY 2222   1.219   2.510   6.322 -0.2362 -1.9194  1.6186
   18DOPE   O31 2223   1.089   2.573   6.159  0.2271 -0.0749 -0.0339
   18DOPE   C31 2224   1.140   2.699   6.169 -0.4227  0.4429 -0.1009
   18DOPE   O32 2225   1.203   2.740   6.268  0.0501  0.1080 -0.1721
   18DOPE   C32 2226   1.093   2.785   6.049  0.3855  0.1565 -0.3958
   18DOPE   H2X 2227   0.992   2.752   6.017 -0.7229  1.0709  1.9387
   18DOPE   H2Y 2228   1.064   2.880   6.099  1.6777  0.4183 -0.1069
   18DOPE   C23 2229   0.731   2.487   5.999  0.3638 -0.0623  0.1505
   18DOPE   H3R 2230   0.728   2.598   5.993 -0.6681 -0.0283  0.9841
   18DOPE   H3S 2231   0.648   2.434   5.947  0.0067 -0.7410  1.3769
   18DOPE   C24 2232   0.863   2.436   5.944  0.1520  0.4867  0.3394
   18DOPE   H4R 2233   0.851   2.325   5.942 -2.1619  0.6797  0.5212
   18DOPE   H4S 2234   0.953   2.463   6.002  0.3996  1.1245 -0.3332
   18DOPE   C25 2235   0.893   2.493   5.805 -0.1842  0.2393  0.2326
   18DOPE   H5R 2236   1.001   2.489   5.781 -0.1381  0.3191  0.4200
   18DOPE   H5S 2237   0.875   2.602   5.800  0.3512  0.5392  2.9819
   18DOPE   C26 2238   0.808   2.430   5.691 -0.5082  0.9857  0.0897
   18DOPE   H6R 2239   0.706   2.442   5.734 -0.8057  0.6037 -0.4884
   18DOPE   H6S 2240   0.830   2.322   5.692  1.6691  1.4008  0.6249
   18DOPE   C27 2241   0.836   2.500   5.558 -0.3143 -0.0548  0.9690
   18DOPE   H7R 2242   0.845   2.610   5.560 -1.7206  0.2544 -2.4781
   18DOPE   H7S 2243   0.758   2.476   5.483  0.5513  0.8886 -0.2755
   18DOPE   C28 2244   0.974   2.470   5.487  0.1844 -0.1959  0.4799
   18DOPE   H8R 2245   1.059   2.501   5.552 -1.3942 -1.0408  3.1291
   18DOPE   H8S 2246   0.983   2.532   5.396  1.3324 -0.7702  0.1855
   18DOPE   C29 2247   0.991   2.322   5.468  0.4382  0.5266 -0.2645
   18DOPE   H9R 2248   0.982   2.266   5.562 -0.1686  0.3984 -0.3927
   18DOPE  C210 2249   1.018   2.260   5.353  0.1268  0.1304  0.5004
   18DOPE  H10R 2250   1.018   2.150   5.356  0.8642  0.0944 -0.3525
   18DOPE  C211 2251   1.035   2.314   5.212  0.2187 -0.4725  0.1641
   18DOPE  H11R 2252   1.099   2.237   5.165 -1.8019 -1.5374 -0.9934
   18DOPE  H11S 2253   1.096   2.406   5.213  0.7180 -0.7731  2.1054
   18DOPE  C212 2254   0.910   2.344   5.129  0.4629 -0.3368  1.3712
   18DOPE  H12R 2255   0.835   2.410   5.177 -0.6230 -0.3052 -0.2939
   18DOPE  H12S 2256   0.855   2.249   5.109  1.6300 -0.8202  0.3361
   18DOPE  C213 2257   0.951   2.404   4.997  0.5118 -0.1510  0.2873
   18DOPE  H13R 2258   0.859   2.409   4.936 -0.4530  0.1255  1.7051
   18DOPE  H13S 2259   1.038   2.343   4.965  2.1584  2.6776 -1.0282
   18DOPE  C214 2260   1.002   2.541   5.024  0.2543 -0.0290 -0.0228
   18DOPE  H14R 2261   1.095   2.543   5.084  0.6804  0.0406 -0.6778
   18DOPE  H14S 2262   0.926   2.606   5.072 -0.3241 -0.0638 -0.8707
   18DOPE  C215 2263   1.040   2.613   4.893 -0.3315  0.6656  0.8272
   18DOPE  H15R 2264   0.961   2.606   4.815  1.3813  1.4253 -1.0533
   18DOPE  H15S 2265   1.127   2.560   4.850 -3.3856 -3.4456 -0.9825
   18DOPE  C216 2266   1.075   2.756   4.909 -0.0404 -0.2475  0.9425
   18DOPE  H16R 2267   0.984   2.802   4.952 -1.3642 -2.2137  0.4113
   18DOPE  H16S 2268   1.099   2.789   4.806 -0.5332  1.5140  1.3697
   18DOPE  C217 2269   1.199   2.784   4.997  0.6205  0.1036 -0.2063
   18DOPE  H17R 2270   1.279   2.718   4.957  0.4749  0.1655 -0.6011
   18DOPE  H17S 2271   1.185   2.752   5.103 -3.5630  1.0210 -0.3156
   18DOPE  C218 2272   1.244   2.929   4.988 -0.6707  0.4186 -0.2926
   18DOPE  H18R 2273   1.293   2.939   4.889  0.7144 -1.0667  0.2016
   18DOPE  H18S 2274   1.334   2.949   5.051  0.1440  1.3187 -1.6810
   18DOPE  H18T 2275   1.160   2.999   5.006 -1.2391  0.2743 -2.1938
   18DOPE   C33 2276   1.207   2.801   5.948 -0.0603 -0.3227  0.0430
   18DOPE   H3X 2277   1.251   2.700   5.931 -2.5391 -1.4851 -0.0115
   18DOPE   H3Y 2278   1.286   2.868   5.987 -0.9095  0.6059  0.2084
   18DOPE   C34 2279   1.144   2.837   5.811 -0.0612  0.2953 -0.8168
   18DOPE   H4X 2280   1.198   2.768   5.742  0.1021 -2.1306  1.5653
   18DOPE   H4Y 2281   1.038   2.806   5.802  0.1042 -0.1729 -1.2382
   18DOPE   C35 2282   1.164   2.987   5.786  0.5408 -0.5015 -0.5409
   18DOPE   H5X 2283   1.271   3.015   5.796  0.0325  0.8632  1.9847
   18DOPE   H5Y 2284   1.118   3.040   5.872  1.4555  1.0284 -0.9630
   18DOPE   C36 2285   1.125   3.026   5.648 -0.1016  0.0459  0.1024
   18DOPE   H6X 2286   1.027   2.984   5.616 -0.1429  0.0832  0.1771
   18DOPE   H6Y 2287   1.194   2.980   5.575  0.0583  1.9273 -0.9809
   18DOPE   C37 2288   1.127   3.177   5.620 -0.0516 -0.3215  0.1920
   18DOPE   H7X 2289   1.068   3.203   5.529  0.9739  0.9562 -0.1420
   18DOPE   H7Y 2290   1.077   3.224   5.707 -0.3712 -1.0571  0.4053
   18DOPE   C38 2291   1.268   3.226   5.609 -0.3369  0.0825 -0.3711
   18DOPE   H8X 2292   1.310   3.162   5.529 -0.3984  0.6394 -0.8532
   18DOPE   H8Y 2293   1.318   3.208   5.707  1.9439  1.6269 -1.1577
   18DOPE   C39 2294   1.274   3.376   5.570  0.8461 -0.9007 -0.3984
   18DOPE   H9X 2295   1.246   3.453   5.642  1.5415  0.4711 -1.5535
   18DOPE  C310 2296   1.317   3.416   5.447  0.5149  0.6673 -0.6148
   18DOPE  H10X 2297   1.321   3.523   5.422 -0.8355  0.5319 -1.5560
   18DOPE  C311 2298   1.358   3.326   5.334 -0.1547 -0.7617  0.3744
   18DOPE  H11X 2299   1.279   3.249   5.316 -0.8200 -0.1820  0.7901
   18DOPE  H11Y 2300   1.358   3.384   5.239  0.5643 -2.8746 -0.9832
   18DOPE  C312 2301   1.500   3.257   5.333 -0.3648 -0.4582  0.2657
   18DOPE  H12X 2302   1.511   3.189   5.420 -0.0048 -0.6328  0.0882
   18DOPE  H12Y 2303   1.581   3.333   5.338  0.5350 -1.2094 -1.6205
   18DOPE  C313 2304   1.530   3.177   5.202 -0.2130  0.7998 -0.2837
   18DOPE  H13X 2305   1.622   3.115   5.194  0.4462  1.8462 -1.0869
   18DOPE  H13Y 2306   1.453   3.100   5.178  0.1189 -0.3276  2.0005
   18DOPE  C314 2307   1.539   3.264   5.083  0.9605 -0.2935  0.3892
   18DOPE  H14X 2308   1.628   3.330   5.092 -1.8706  3.9901  0.4107
   18DOPE  H14Y 2309   1.452   3.335   5.082  0.7664 -0.5228 -0.6778
   18DOPE  C315 2310   1.551   3.186   4.952 -0.0503 -0.3356 -0.1014
   18DOPE  H15X 2311   1.458   3.125   4.953 -2.5155  3.1606  0.3137
   18DOPE  H15Y 2312   1.640   3.120   4.966  1.1839  1.1478 -0.6196
   18DOPE  C316 2313   1.556   3.276   4.826 -0.3242  1.0366 -0.1399
   18DOPE  H16X 2314   1.595   3.206   4.749 -0.2502 -0.5572  1.2706
   18DOPE  H16Y 2315   1.631   3.356   4.839  2.1595 -1.3546  1.4602
   18DOPE  C317 2316   1.425   3.329   4.769  0.5369  0.4053  0.6715
   18DOPE  H17X 2317   1.350   3.248   4.787 -0.4351  0.9386 -0.8003
   18DOPE  H17Y 2318   1.391   3.419   4.824  0.2512  0.1827  0.8623
   18DOPE  C318 2319   1.432   3.353   4.619 -0.0909  0.3664  0.2156
   18DOPE  H18X 2320   1.535   3.375   4.582 -0.5293 -0.9209 -1.9354
   18DOPE  H18Y 2321   1.400   3.257   4.574 -1.9331  0.2679  1.6171
   18DOPE  H18Z 2322   1.362   3.433   4.585 -1.0739 -0.2937  0.6466
   19DOPE     N 2323   1.937   3.882   6.826 -0.2274  0.5335 -0.7122
   19DOPE   HN1 2324   1.992   3.947   6.766 -0.2680 -0.3872 -1.7949
   19DOPE   HN2 2325   1.875   3.943   6.883 -0.4512 -0.0653 -0.3085
   19DOPE   HN3 2326   1.998   3.823   6.886 -1.6818 -0.0564  0.2306
   19DOPE   C12 2327   1.862   3.798   6.727 -0.1700  0.4291  0.0821
   19DOPE  H12A 2328   1.820   3.872   6.656  2.0717 -0.7277 -2.6491
   19DOPE  H12B 2329   1.793   3.725   6.775 -0.1509  1.2620  1.4299
   19DOPE   C11 2330   1.952   3.704   6.638  0.0028 -0.7016  0.0124
   19DOPE  H11A 2331   2.001   3.771   6.565 -0.2149 -0.8089 -0.2328
   19DOPE  H11B 2332   1.887   3.637   6.578  0.9516 -0.8271 -0.8996
   19DOPE     P 2333   2.058   3.499   6.750 -0.0075 -0.0627  0.1467
   19DOPE   O13 2334   1.949   3.482   6.847 -0.3094  0.3937  0.4355
   19DOPE   O14 2335   2.195   3.458   6.785 -0.7764 -0.3279 -0.1353
   19DOPE   O11 2336   2.027   3.430   6.609  0.0954  0.1346  0.6392
   19DOPE   O12 2337   2.061   3.644   6.704 -0.2866 -0.0832 -0.1997
   19DOPE    C1 2338   2.113   3.469   6.499 -0.3589  0.1923  0.4023
   19DOPE    HA 2339   2.220   3.459   6.530 -1.5864 -3.5863  4.4148
   19DOPE    HB 2340   2.085   3.568   6.457 -1.9413 -0.0128  0.9295
   19DOPE    C2 2341   2.090   3.376   6.376  0.2771 -0.2395 -0.6389
   19DOPE    HS 2342   2.106   3.269   6.401 -0.6545  0.3001  2.8231
   19DOPE   O21 2343   2.161   3.425   6.260 -0.3415  0.1668 -0.4223
   19DOPE   C21 2344   2.284   3.379   6.242 -0.4955  0.0806 -0.1212
   19DOPE   O22 2345   2.338   3.294   6.313 -0.5784  0.0171  1.1718
   19DOPE   C22 2346   2.352   3.458   6.142 -0.5517 -0.9362  0.7922
   19DOPE   H2R 2347   2.321   3.565   6.139 -1.5597 -1.1680  2.1096
   19DOPE   H2S 2348   2.330   3.412   6.043  1.7781  0.0305 -0.2465
   19DOPE    C3 2349   1.936   3.371   6.339 -0.1142 -0.6356 -0.1797
   19DOPE    HX 2350   1.892   3.473   6.349  0.6553 -0.3355  0.2371
   19DOPE    HY 2351   1.893   3.305   6.417 -1.9600 -2.2454 -2.4041
   19DOPE   O31 2352   1.921   3.309   6.211 -0.4103 -0.0123  0.1617
   19DOPE   C31 2353   1.888   3.388   6.107 -0.1910 -0.0514  0.1231
   19DOPE   O32 2354   1.844   3.505   6.116  0.3342  0.2406  0.0378
   19DOPE   C32 2355   1.891   3.298   5.981 -0.9210 -0.2056 -0.5483
   19DOPE   H2X 2356   1.996   3.296   5.945 -0.9795 -0.3583 -0.7113
   19DOPE   H2Y 2357   1.861   3.195   6.010  2.7803 -1.0806  0.6386
   19DOPE   C23 2358   2.503   3.459   6.164 -0.4090 -0.2641 -0.1240
   19DOPE   H3R 2359   2.553   3.361   6.178 -1.3220 -0.8311 -0.6703
   19DOPE   H3S 2360   2.519   3.514   6.259 -1.2490  0.3489 -0.3261
   19DOPE   C24 2361   2.584   3.538   6.057  0.0487  0.2295  0.0347
   19DOPE   H4R 2362   2.689   3.533   6.094  0.0779 -2.3571 -0.2126
   19DOPE   H4S 2363   2.548   3.642   6.044  1.3677  0.5266 -1.6034
   19DOPE   C25 2364   2.589   3.474   5.914  0.1564 -0.0416 -0.3332
   19DOPE   H5R 2365   2.494   3.492   5.860 -0.2357  0.1903  0.4173
   19DOPE   H5S 2366   2.612   3.367   5.930  1.7584  0.3545  0.1757
   19DOPE   C26 2367   2.702   3.527   5.820 -0.3300 -0.2101 -0.5420
   19DOPE   H6R 2368   2.800   3.506   5.869 -0.6451 -0.1785  0.1063
   19DOPE   H6S 2369   2.692   3.638   5.816 -0.6392 -0.2659 -1.7364
   19DOPE   C27 2370   2.711   3.466   5.684 -0.4178 -0.0455  0.1148
   19DOPE   H7R 2371   2.612   3.467   5.632 -0.3037  1.9088 -0.1244
   19DOPE   H7S 2372   2.741   3.359   5.690  0.6646  0.3102  1.7927
   19DOPE   C28 2373   2.813   3.541   5.586  0.0870  0.0583 -0.4077
   19DOPE   H8R 2374   2.907   3.507   5.635  0.7367  1.8411 -0.3220
   19DOPE   H8S 2375   2.816   3.652   5.596 -0.8376  0.1673 -1.2349
   19DOPE   C29 2376   2.811   3.504   5.443 -0.4058 -0.2128 -0.2318
   19DOPE   H9R 2377   2.725   3.541   5.386 -0.1334 -1.0585 -1.2242
   19DOPE  C210 2378   2.905   3.432   5.377 -0.7293 -0.2085 -0.3959
   19DOPE  H10R 2379   2.888   3.413   5.270  1.1931  2.6421 -1.3072
   19DOPE  C211 2380   3.040   3.384   5.433 -0.3020  0.0323 -0.3221
   19DOPE  H11R 2381   3.047   3.273   5.432 -1.8510 -0.0811 -1.3378
   19DOPE  H11S 2382   3.060   3.422   5.536  1.7524  3.2489 -1.7546
   19DOPE  C212 2383   3.151   3.439   5.335  0.2192  0.3144 -0.3703
   19DOPE  H12R 2384   3.137   3.421   5.226  0.2981 -1.0651 -0.1665
   19DOPE  H12S 2385   3.247   3.394   5.370 -0.0899  1.1019  1.6313
   19DOPE  C213 2386   3.183   3.583   5.355  0.3688  0.2420 -0.0387
   19DOPE  H13R 2387   3.190   3.620   5.460 -0.6475  0.8125 -0.1538
   19DOPE  H13S 2388   3.101   3.644   5.311 -0.0470  0.3218  0.8279
   19DOPE  C214 2389   3.312   3.616   5.282  0.7343 -0.6702  0.4373
   19DOPE  H14R 2390   3.315   3.715   5.233  0.2603 -1.4211 -1.2031
   19DOPE  H14S 2391   3.323   3.545   5.197 -0.3559 -2.3542  1.6419
   19DOPE  C215 2392   3.437   3.583   5.370  1.0463  0.3401 -0.4390
   19DOPE  H15R 2393   3.429   3.479   5.408 -1.9692  1.4740  2.5134
   19DOPE  H15S 2394   3.442   3.638   5.467  2.0221  0.6328 -0.6366
   19DOPE  C216 2395   3.558   3.608   5.281  0.1107 -0.2166  0.1574
   19DOPE  H16R 2396   3.542   3.714   5.251 -2.9938 -0.2616  1.2184
   19DOPE  H16S 2397   3.550   3.547   5.189  1.0004  0.9148 -0.6870
   19DOPE  C217 2398   3.686   3.589   5.363  0.7895 -0.3304  0.3186
   19DOPE  H17R 2399   3.673   3.493   5.418 -2.3002 -0.6548 -0.8143
   19DOPE  H17S 2400   3.699   3.668   5.439  0.2476 -0.6456  0.7419
   19DOPE  C218 2401   3.801   3.579   5.263 -0.0560 -0.3793  0.1347
   19DOPE  H18R 2402   3.891   3.542   5.317  0.6265 -0.5031 -1.0599
   19DOPE  H18S 2403   3.822   3.674   5.210  2.2109  0.2313  1.9133
   19DOPE  H18T 2404   3.786   3.503   5.184  1.6867 -1.8109  1.1184
   19DOPE   C33 2405   1.803   3.362   5.874  0.6954  0.8772  0.8830
   19DOPE   H3X 2406   1.853   3.450   5.827  1.7218 -1.3227 -2.4703
   19DOPE   H3Y 2407   1.701   3.371   5.916  0.0757 -2.0624  0.2520
   19DOPE   C34 2408   1.786   3.271   5.753  0.3337  0.5955  0.2822
   19DOPE   H4X 2409   1.753   3.169   5.783  1.2184  0.2858  0.2339
   19DOPE   H4Y 2410   1.695   3.308   5.701 -1.4884 -0.9488  2.1893
   19DOPE   C35 2411   1.900   3.271   5.660 -0.0598 -0.2850 -0.4116
   19DOPE   H5X 2412   1.983   3.215   5.709  0.3656  1.1983  0.6298
   19DOPE   H5Y 2413   1.939   3.372   5.639  0.9899 -0.7468 -0.7650
   19DOPE   C36 2414   1.867   3.205   5.521  0.4295  0.4173 -0.3080
   19DOPE   H6X 2415   1.780   3.251   5.469 -0.3720 -0.1834  0.4657
   19DOPE   H6Y 2416   1.831   3.101   5.534  2.0790 -0.1656 -0.2929
   19DOPE   C37 2417   1.979   3.209   5.417 -0.2794 -0.0913  0.0078
   19DOPE   H7X 2418   1.984   3.307   5.364  0.1098 -0.3592 -0.4603
   19DOPE   H7Y 2419   2.063   3.173   5.480 -0.5106  0.3324  0.5621
   19DOPE   C38 2420   1.951   3.101   5.305  0.0832  0.0787  0.2911
   19DOPE   H8X 2421   1.847   3.123   5.272  0.2029  2.0354  1.0497
   19DOPE   H8Y 2422   1.964   3.000   5.348  3.5275  0.1748 -0.3126
   19DOPE   C39 2423   2.052   3.118   5.191 -0.4015  0.3482  0.0696
   19DOPE   H9X 2424   2.150   3.070   5.197  1.2311  3.3795 -0.4933
   19DOPE  C310 2425   2.036   3.173   5.065 -0.3253  0.8316  0.0825
   19DOPE  H10X 2426   2.113   3.161   4.987 -0.1320  3.4097 -0.2186
   19DOPE  C311 2427   1.910   3.233   5.011 -0.4944  0.8844 -0.0735
   19DOPE  H11X 2428   1.856   3.153   4.956  0.1359  0.5511 -0.2159
   19DOPE  H11Y 2429   1.848   3.278   5.092 -0.2820 -0.1252  0.6702
   19DOPE  C312 2430   1.940   3.340   4.905 -0.3669 -0.5385 -0.3419
   19DOPE  H12X 2431   1.844   3.388   4.878  0.1974  2.6328  2.5460
   19DOPE  H12Y 2432   1.978   3.295   4.811 -2.8360 -0.5974 -1.3700
   19DOPE  C313 2433   2.015   3.459   4.968 -0.7874  0.3350  0.4692
   19DOPE  H13X 2434   1.977   3.498   5.064  1.5209 -1.7318  2.3492
   19DOPE  H13Y 2435   2.116   3.419   4.992 -0.5771  0.7416  0.2899
   19DOPE  C314 2436   2.053   3.576   4.875 -0.4858 -0.2679 -0.5185
   19DOPE  H14X 2437   1.961   3.635   4.857  0.3520  1.3348  0.1797
   19DOPE  H14Y 2438   2.084   3.541   4.774 -0.3070  1.6751 -1.1942
   19DOPE  C315 2439   2.162   3.666   4.930  0.5243  0.2957  0.3463
   19DOPE  H15X 2440   2.183   3.750   4.861 -1.8994  0.1104 -0.7195
   19DOPE  H15Y 2441   2.264   3.622   4.941  0.8350  1.3617  2.1138
   19DOPE  C316 2442   2.127   3.733   5.067 -0.1587  0.2023 -0.3207
   19DOPE  H16X 2443   2.132   3.665   5.154  0.0462  2.0978  1.2057
   19DOPE  H16Y 2444   2.025   3.775   5.065 -1.1404 -2.0083  0.3520
   19DOPE  C317 2445   2.235   3.841   5.108  0.0042  0.5595  0.4779
   19DOPE  H17X 2446   2.331   3.785   5.112 -0.6043 -0.8232 -1.9162
   19DOPE  H17Y 2447   2.225   3.918   5.029  1.0739 -1.2937 -1.5878
   19DOPE  C318 2448   2.198   3.911   5.234  0.3868  0.3217 -0.7431
   19DOPE  H18X 2449   2.276   3.988   5.253  0.2411  1.2034 -3.3577
   19DOPE  H18Y 2450   2.098   3.957   5.224  0.1218 -0.4261 -1.6979
   19DOPE  H18Z 2451   2.198   3.841   5.320 -2.5744 -0.0529 -0.9566
   20DOPE     N 2452   7.090   6.838   7.584 -0.6880 -0.0820  1.0407
   20DOPE   HN1 2453   7.078   6.851   7.686  0.1997 -0.5035  1.2103
   20DOPE   HN2 2454   7.110   6.737   7.565  0.6105 -0.0037  1.8201
   20DOPE   HN3 2455   7.176   6.889   7.555 -0.3483 -1.2968 -0.2255
   20DOPE   C12 2456   6.971   6.888   7.513  0.0391  0.0111  0.0753
   20DOPE  H12A 2457   6.958   6.995   7.540  3.0329  0.4364  0.2071
   20DOPE  H12B 2458   6.891   6.823   7.554  0.2574  0.7745  1.7732
   20DOPE   C11 2459   6.984   6.867   7.359  0.3938  0.2855  0.6027
   20DOPE  H11A 2460   7.036   6.956   7.317  2.0563 -0.2380  1.4742
   20DOPE  H11B 2461   6.880   6.876   7.321  0.8931 -1.2747 -1.3361
   20DOPE     P 2462   7.018   6.666   7.189 -0.6587  0.2371 -0.1040
   20DOPE   O13 2463   6.881   6.607   7.203 -1.3768 -0.1107  0.3592
   20DOPE   O14 2464   7.141   6.579   7.166 -0.3506 -0.2376  0.1602
   20DOPE   O11 2465   7.014   6.779   7.081 -0.2525  0.0662 -0.0266
   20DOPE   O12 2466   7.048   6.742   7.324 -0.0041  0.1201  0.2705
   20DOPE    C1 2467   7.123   6.848   7.025  0.1574  0.0203  0.1810
   20DOPE    HA 2468   7.218   6.800   7.056 -0.2046 -1.3541 -0.7051
   20DOPE    HB 2469   7.104   6.951   7.063 -2.3818 -0.3732  0.1935
   20DOPE    C2 2470   7.117   6.842   6.875  0.0232 -0.3453  0.0696
   20DOPE    HS 2471   7.194   6.912   6.836  0.0579 -1.7483 -2.6024
   20DOPE   O21 2472   6.991   6.882   6.825 -0.0688  0.3022 -0.3227
   20DOPE   C21 2473   6.970   7.004   6.781 -0.1735 -0.1912 -1.0937
   20DOPE   O22 2474   7.053   7.100   6.773  0.4769  0.9097  0.5256
   20DOPE   C22 2475   6.823   7.022   6.750 -0.0148  0.3791  0.1716
   20DOPE   H2R 2476   6.814   7.133   6.747  1.7011  0.5258 -1.3727
   20DOPE   H2S 2477   6.754   6.980   6.826 -2.3744  1.6725 -1.1180
   20DOPE    C3 2478   7.150   6.696   6.829  0.6897 -0.3518  0.9610
   20DOPE    HX 2479   7.055   6.638   6.837 -1.3818  2.8900  1.5567
   20DOPE    HY 2480   7.203   6.627   6.898 -0.5628 -0.2031  2.1221
   20DOPE   O31 2481   7.218   6.687   6.702 -0.0641 -0.5228  0.0368
   20DOPE   C31 2482   7.198   6.575   6.629 -0.4066 -0.2815 -0.0733
   20DOPE   O32 2483   7.133   6.481   6.669  0.1928 -0.3563  0.0847
   20DOPE   C32 2484   7.293   6.587   6.498  0.2037  0.2407 -0.0883
   20DOPE   H2X 2485   7.367   6.505   6.486  2.5477  2.0364  1.3368
   20DOPE   H2Y 2486   7.226   6.580   6.410  0.4664 -0.7666 -0.2240
   20DOPE   C23 2487   6.794   6.972   6.610  0.4542 -0.1929  0.0384
   20DOPE   H3R 2488   6.686   6.953   6.595  0.8165 -1.5205 -1.0642
   20DOPE   H3S 2489   6.834   6.869   6.604  0.2761 -0.3886  1.6478
   20DOPE   C24 2490   6.842   7.059   6.494  0.0859 -0.6351  0.0629
   20DOPE   H4R 2491   6.942   7.102   6.515  0.1902 -0.6305 -0.4111
   20DOPE   H4S 2492   6.778   7.148   6.479  0.5325 -0.2771  0.2893
   20DOPE   C25 2493   6.846   6.986   6.356 -0.2335 -0.1659 -0.2538
   20DOPE   H5R 2494   6.741   6.961   6.331  0.0511 -0.5252 -1.1373
   20DOPE   H5S 2495   6.917   6.901   6.345  0.7337  0.8601 -2.8680
   20DOPE   C26 2496   6.885   7.085   6.244  0.1329  0.3207  0.0849
   20DOPE   H6R 2497   6.983   7.131   6.269  0.8999 -0.5705 -1.2162
   20DOPE   H6S 2498   6.811   7.168   6.250  0.6807  0.8539 -0.4240
   20DOPE   C27 2499   6.870   7.015   6.108  0.4544  0.7901  0.1384
   20DOPE   H7R 2500   6.760   7.000   6.099  0.5024  1.7610 -3.2392
   20DOPE   H7S 2501   6.934   6.924   6.116  0.4382  0.5654 -1.8571
   20DOPE   C28 2502   6.927   7.095   5.992  0.1441  0.0873 -0.1299
   20DOPE   H8R 2503   6.927   7.028   5.904 -0.4738  0.6099 -0.5339
   20DOPE   H8S 2504   7.034   7.095   6.024  0.0394  1.1293  0.2448
   20DOPE   C29 2505   6.873   7.229   5.962 -0.4335  0.1232 -0.0500
   20DOPE   H9R 2506   6.839   7.283   6.051  0.5790 -0.2875  0.5945
   20DOPE  C210 2507   6.836   7.278   5.841 -0.3900  0.5496  0.6366
   20DOPE  H10R 2508   6.796   7.380   5.834  1.6608  1.4365  1.2828
   20DOPE  C211 2509   6.884   7.223   5.710 -1.0339  0.0071  0.6625
   20DOPE  H11R 2510   6.787   7.191   5.666 -1.7234  1.8844  0.7258
   20DOPE  H11S 2511   6.957   7.140   5.721 -0.0332  0.4861 -1.6917
   20DOPE  C212 2512   6.945   7.333   5.623  0.2090  0.0286 -0.2703
   20DOPE  H12R 2513   7.049   7.361   5.650 -0.0575  2.0948 -1.1459
   20DOPE  H12S 2514   6.878   7.421   5.635 -1.0570 -0.9703  0.2541
   20DOPE  C213 2515   6.960   7.300   5.474  0.5174 -0.3980  0.4592
   20DOPE  H13R 2516   6.863   7.251   5.450  0.3092  0.8785 -1.4602
   20DOPE  H13S 2517   7.039   7.222   5.464  1.2782  0.2782  1.0864
   20DOPE  C214 2518   6.976   7.409   5.374 -0.4776 -0.0693  0.4077
   20DOPE  H14R 2519   7.080   7.447   5.383 -0.5789  0.6224 -0.9874
   20DOPE  H14S 2520   6.912   7.498   5.391  0.6489  1.0012 -0.7165
   20DOPE  C215 2521   6.956   7.363   5.232 -0.0559  0.3607  0.1680
   20DOPE  H15R 2522   6.848   7.363   5.206  0.5617 -2.2918 -3.0115
   20DOPE  H15S 2523   6.992   7.259   5.217 -0.8511  0.2136 -0.7744
   20DOPE  C216 2524   7.021   7.452   5.138 -0.6076  0.3885  0.4487
   20DOPE  H16R 2525   7.129   7.429   5.127 -0.5790  0.1573  1.1577
   20DOPE  H16S 2526   7.010   7.555   5.179  0.3444 -0.0823  1.9386
   20DOPE  C217 2527   6.961   7.449   4.999 -0.3460  0.0857  0.0016
   20DOPE  H17R 2528   7.024   7.511   4.932 -0.1270 -0.2247 -0.0822
   20DOPE  H17S 2529   6.855   7.482   4.999 -1.2081 -2.2980 -2.0560
   20DOPE  C218 2530   6.962   7.306   4.941  0.1265 -0.3822 -0.5537
   20DOPE  H18R 2531   7.067   7.284   4.911  1.0169  2.4974  0.1953
   20DOPE  H18S 2532   6.916   7.311   4.841 -1.1860  0.4798  0.0634
   20DOPE  H18T 2533   6.921   7.222   5.001  0.3910  0.0792  0.2921
   20DOPE   C33 2534   7.379   6.715   6.488  1.0136  0.2283  0.4310
   20DOPE   H3X 2535   7.460   6.708   6.563  1.5788 -0.8474 -0.2535
   20DOPE   H3Y 2536   7.311   6.796   6.521  0.4896 -0.2394  0.5263
   20DOPE   C34 2537   7.441   6.747   6.348  0.2217 -0.2961 -0.3253
   20DOPE   H4X 2538   7.482   6.651   6.309 -1.3416 -0.6553 -1.1708
   20DOPE   H4Y 2539   7.364   6.788   6.279 -0.0435 -1.0157 -0.4644
   20DOPE   C35 2540   7.559   6.848   6.353  0.8038  0.1535 -0.3129
   20DOPE   H5X 2541   7.646   6.804   6.407  1.8173  0.3176 -1.7582
   20DOPE   H5Y 2542   7.527   6.939   6.408 -2.5198 -0.7946 -0.4746
   20DOPE   C36 2543   7.613   6.888   6.215  0.0438 -0.3764  0.8292
   20DOPE   H6X 2544   7.518   6.923   6.167 -0.9823 -2.5556  1.1604
   20DOPE   H6Y 2545   7.643   6.794   6.165  0.1437 -0.0898  0.3457
   20DOPE   C37 2546   7.728   6.988   6.202  0.6424 -0.3889  0.2040
   20DOPE   H7X 2547   7.707   7.096   6.218  0.0480 -0.4516 -0.1275
   20DOPE   H7Y 2548   7.816   6.969   6.268  2.8108 -2.4098 -3.0063
   20DOPE   C38 2549   7.801   6.978   6.066  0.7056  0.4229  0.2205
   20DOPE   H8X 2550   7.726   6.991   5.985 -1.1728 -4.4594  0.8575
   20DOPE   H8Y 2551   7.841   6.876   6.049 -0.9793 -0.5743  1.9143
   20DOPE   C39 2552   7.913   7.081   6.050 -0.4341  0.0001  0.4233
   20DOPE   H9X 2553   7.971   7.094   6.142 -2.1517 -0.9532  1.6978
   20DOPE  C310 2554   7.945   7.153   5.941 -0.2300 -0.2992 -0.0374
   20DOPE  H10X 2555   8.018   7.235   5.949  0.0876 -0.6635  0.9975
   20DOPE  C311 2556   7.892   7.148   5.800 -0.1039 -0.7017 -0.2066
   20DOPE  H11X 2557   7.980   7.156   5.732  0.7434 -0.6199  0.8603
   20DOPE  H11Y 2558   7.845   7.049   5.780 -0.2030 -1.1966  2.1596
   20DOPE  C312 2559   7.789   7.260   5.770  0.5327 -0.1199 -0.3071
   20DOPE  H12X 2560   7.706   7.243   5.841  1.3556 -0.6566  0.5553
   20DOPE  H12Y 2561   7.752   7.240   5.667  1.7972 -2.0658 -0.4429
   20DOPE  C313 2562   7.828   7.407   5.797  0.0218 -0.3315  0.1208
   20DOPE  H13X 2563   7.746   7.479   5.776  1.0705  0.0641 -3.3151
   20DOPE  H13Y 2564   7.850   7.415   5.906 -3.1144 -4.2077  1.2653
   20DOPE  C314 2565   7.952   7.456   5.730 -0.2395  0.5479 -0.5943
   20DOPE  H14X 2566   7.946   7.434   5.622 -1.9773 -0.4080 -0.3383
   20DOPE  H14Y 2567   8.035   7.397   5.776 -0.8540 -1.5748 -2.0878
   20DOPE  C315 2568   7.970   7.608   5.748 -0.2133 -0.2378  0.8537
   20DOPE  H15X 2569   7.899   7.660   5.679  0.4678 -1.6320 -0.9753
   20DOPE  H15Y 2570   8.068   7.633   5.703 -1.5244  1.3098 -1.3613
   20DOPE  C316 2571   7.956   7.664   5.888 -0.1047 -0.6737  0.3441
   20DOPE  H16X 2572   8.021   7.603   5.953  0.6992 -0.2749 -0.0659
   20DOPE  H16Y 2573   7.855   7.647   5.932  0.1337 -0.5937  0.9227
   20DOPE  C317 2574   7.985   7.812   5.902 -0.1248  0.0329  0.7905
   20DOPE  H17X 2575   7.917   7.869   5.835  0.1506  0.4931  0.8965
   20DOPE  H17Y 2576   7.958   7.838   6.007 -2.2161 -0.2894  0.3810
   20DOPE  C318 2577   8.131   7.854   5.869  0.3195  0.2193  1.0260
   20DOPE  H18X 2578   8.140   7.964   5.881  3.7592  0.1164  0.3412
   20DOPE  H18Y 2579   8.201   7.801   5.936 -1.0718 -1.5774  1.1121
   20DOPE  H18Z 2580   8.156   7.831   5.763 -4.4459  0.7220 -0.4380
   21DOPE     N 2581   4.983   7.383   7.738  0.8132 -0.5860  0.7695
   21DOPE   HN1 2582   4.965   7.447   7.658  1.4044 -1.2808  0.0577
   21DOPE   HN2 2583   4.900   7.322   7.750 -0.1728 -0.3805 -3.3762
   21DOPE   HN3 2584   5.000   7.440   7.823  0.6195  0.0530  0.3912
   21DOPE   C12 2585   5.102   7.294   7.718  0.3153 -0.0014  0.4974
   21DOPE  H12A 2586   5.091   7.207   7.786  1.8080  0.1418  0.9510
   21DOPE  H12B 2587   5.196   7.344   7.749  1.0454 -0.2241 -1.2873
   21DOPE   C11 2588   5.119   7.258   7.569 -0.0495  0.2889  0.2595
   21DOPE  H11A 2589   5.145   7.352   7.516 -0.4699  1.9148  2.8017
   21DOPE  H11B 2590   5.019   7.220   7.537  0.3224 -0.7824  0.3239
   21DOPE     P 2591   5.255   7.099   7.401 -0.3418 -0.2087 -0.5117
   21DOPE   O13 2592   5.177   6.980   7.375  0.2895 -0.1278 -0.0810
   21DOPE   O14 2593   5.400   7.078   7.407  0.3743  0.3801  0.4000
   21DOPE   O11 2594   5.228   7.207   7.295  0.7120  0.2281  0.3856
   21DOPE   O12 2595   5.222   7.158   7.545  0.4428  0.1672 -0.2499
   21DOPE    C1 2596   5.097   7.224   7.240 -0.3422  0.4880  0.0683
   21DOPE    HA 2597   5.031   7.290   7.301 -0.3344  0.6187 -0.0647
   21DOPE    HB 2598   5.054   7.125   7.214  1.6143  0.1460 -2.1699
   21DOPE    C2 2599   5.109   7.285   7.097  0.7279  0.1616  0.6264
   21DOPE    HS 2600   5.012   7.300   7.045  1.3636 -0.1874 -0.7130
   21DOPE   O21 2601   5.196   7.200   7.018 -0.0108  0.0820  0.4936
   21DOPE   C21 2602   5.127   7.097   6.966  0.1312  0.1401 -0.4464
   21DOPE   O22 2603   5.008   7.071   6.984 -0.5340  0.5525  0.0105
   21DOPE   C22 2604   5.221   7.012   6.878  0.4119 -0.4601  0.3088
   21DOPE   H2R 2605   5.164   6.920   6.854  0.1958 -0.8496  2.1161
   21DOPE   H2S 2606   5.303   6.975   6.944 -0.6121 -2.5118  0.5111
   21DOPE    C3 2607   5.160   7.431   7.101  0.5346  0.6161 -0.2891
   21DOPE    HX 2608   5.237   7.453   7.178  2.9126 -0.2886 -2.2796
   21DOPE    HY 2609   5.070   7.489   7.132 -0.4084  0.1878 -2.1009
   21DOPE   O31 2610   5.218   7.464   6.971  0.9713  0.2834 -0.5562
   21DOPE   C31 2611   5.142   7.532   6.890  0.1353  0.9774  0.2642
   21DOPE   O32 2612   5.019   7.554   6.899 -0.0103 -0.1728  0.3389
   21DOPE   C32 2613   5.232   7.563   6.772 -0.3710 -0.1571 -0.4924
   21DOPE   H2X 2614   5.311   7.632   6.809 -1.8044  0.1796  2.1868
   21DOPE   H2Y 2615   5.277   7.471   6.729  0.4020 -1.1278  2.2138
   21DOPE   C23 2616   5.275   7.085   6.757 -0.6121 -0.4153 -0.1925
   21DOPE   H3R 2617   5.354   7.036   6.696 -0.2844  2.8027 -2.6860
   21DOPE   H3S 2618   5.339   7.174   6.776  2.1286 -2.1698 -0.5816
   21DOPE   C24 2619   5.164   7.116   6.655  0.3994 -0.9309  0.3454
   21DOPE   H4R 2620   5.087   7.183   6.701 -0.1605 -1.8009  0.7120
   21DOPE   H4S 2621   5.108   7.021   6.639  0.5956 -0.6043 -2.7168
   21DOPE   C25 2622   5.212   7.181   6.525 -0.0478  0.5484 -0.1143
   21DOPE   H5R 2623   5.293   7.123   6.476  1.0292  1.6811  0.2634
   21DOPE   H5S 2624   5.268   7.272   6.555  2.0291 -0.4062 -0.8556
   21DOPE   C26 2625   5.091   7.206   6.434 -0.1920 -0.1131  0.3160
   21DOPE   H6R 2626   5.017   7.265   6.492  1.8801  1.1417  1.8129
   21DOPE   H6S 2627   5.040   7.116   6.394 -1.4818  0.3164  0.9557
   21DOPE   C27 2628   5.132   7.289   6.311 -0.8165 -0.0648 -0.9696
   21DOPE   H7R 2629   5.199   7.226   6.249 -1.4798 -0.6212 -1.1410
   21DOPE   H7S 2630   5.193   7.375   6.346 -3.9802  1.8673  0.2423
   21DOPE   C28 2631   5.014   7.340   6.222 -0.1326 -0.2342  0.6452
   21DOPE   H8R 2632   4.971   7.421   6.285  1.9239 -0.6350  2.7153
   21DOPE   H8S 2633   4.951   7.251   6.205  1.0051 -0.9910  0.2756
   21DOPE   C29 2634   5.076   7.407   6.100  0.6011  0.3262 -0.1711
   21DOPE   H9R 2635   5.064   7.346   6.009  1.6852  1.0046 -0.7940
   21DOPE  C210 2636   5.130   7.530   6.088  0.1038 -0.3112 -0.0440
   21DOPE  H10R 2637   5.157   7.573   5.991 -1.8522  2.1099  0.3788
   21DOPE  C211 2638   5.141   7.624   6.204 -0.5854  0.2877 -0.0255
   21DOPE  H11R 2639   5.245   7.663   6.203 -0.0535 -1.0490 -2.0498
   21DOPE  H11S 2640   5.120   7.582   6.305  0.7800  0.5225  0.3818
   21DOPE  C212 2641   5.032   7.733   6.192  0.5961 -0.7218 -0.0631
   21DOPE  H12R 2642   4.936   7.679   6.209 -0.0266  0.4684  0.3327
   21DOPE  H12S 2643   5.027   7.781   6.092 -0.8811  0.0913  0.3585
   21DOPE  C213 2644   5.046   7.839   6.296 -0.1607 -0.4870 -0.4304
   21DOPE  H13R 2645   5.140   7.894   6.273 -0.9724  1.3849  0.5145
   21DOPE  H13S 2646   5.061   7.785   6.392  1.6865 -0.4908 -0.6858
   21DOPE  C214 2647   4.929   7.931   6.303  0.4921 -0.0995 -0.0517
   21DOPE  H14R 2648   4.950   8.013   6.376 -1.8030  0.0605  0.5236
   21DOPE  H14S 2649   4.837   7.876   6.336  0.7860 -1.6197 -1.6398
   21DOPE  C215 2650   4.898   8.013   6.174  0.4730 -0.7940 -0.2332
   21DOPE  H15R 2651   4.982   7.998   6.102  0.4665  2.1540 -0.9718
   21DOPE  H15S 2652   4.878   8.120   6.197 -1.0268 -1.0752 -0.1815
   21DOPE  C216 2653   4.768   7.970   6.108  0.2744  0.2291 -0.0890
   21DOPE  H16R 2654   4.674   7.991   6.164  1.1838  2.7789  0.6258
   21DOPE  H16S 2655   4.780   7.860   6.107 -0.0887  0.0616  2.9032
   21DOPE  C217 2656   4.754   8.021   5.965  0.1178  0.0545  0.5121
   21DOPE  H17R 2657   4.814   8.114   5.950  0.0634 -0.2246 -1.9217
   21DOPE  H17S 2658   4.648   8.050   5.951  0.5180  1.0983 -0.4949
   21DOPE  C218 2659   4.803   7.921   5.861 -0.3266  0.1636  0.0599
   21DOPE  H18R 2660   4.746   7.826   5.863 -1.4814  0.8329 -0.0870
   21DOPE  H18S 2661   4.911   7.895   5.875 -0.8692 -2.4539 -0.1640
   21DOPE  H18T 2662   4.791   7.965   5.760  3.2310 -0.4039 -0.7419
   21DOPE   C33 2663   5.150   7.626   6.659  0.1489 -0.3599 -0.2001
   21DOPE   H3X 2664   5.058   7.569   6.638 -0.4954  0.7325 -0.4227
   21DOPE   H3Y 2665   5.213   7.613   6.569  1.3972 -1.3860  0.7776
   21DOPE   C34 2666   5.113   7.772   6.681  0.7768 -0.4154 -0.2202
   21DOPE   H4X 2667   5.044   7.806   6.601  2.1335 -0.1322 -1.3221
   21DOPE   H4Y 2668   5.050   7.776   6.772  0.1272 -2.1879 -0.5587
   21DOPE   C35 2669   5.222   7.873   6.683 -0.1253 -0.4134 -0.5203
   21DOPE   H5X 2670   5.304   7.843   6.752  2.2006  2.4153 -1.7713
   21DOPE   H5Y 2671   5.184   7.972   6.716 -1.0486  0.4884 -3.8401
   21DOPE   C36 2672   5.289   7.905   6.543 -0.1201  0.2953 -0.0755
   21DOPE   H6X 2673   5.215   7.971   6.495  2.0302  0.5834 -3.2697
   21DOPE   H6Y 2674   5.307   7.808   6.493  0.5679 -0.9610  2.4427
   21DOPE   C37 2675   5.406   8.001   6.553  0.0519  0.1393  0.0284
   21DOPE   H7X 2676   5.392   8.089   6.620  2.1390  2.5015 -2.3621
   21DOPE   H7Y 2677   5.490   7.943   6.597 -0.2357 -0.3689 -0.0856
   21DOPE   C38 2678   5.460   8.064   6.419 -0.4415 -0.2021  0.3970
   21DOPE   H8X 2679   5.467   7.989   6.338  0.0558  1.2985 -1.0003
   21DOPE   H8Y 2680   5.558   8.112   6.440 -1.7400  2.0592  1.8010
   21DOPE   C39 2681   5.387   8.183   6.361  0.6137  0.0681 -0.7888
   21DOPE   H9X 2682   5.378   8.270   6.428  0.1815 -0.6269  0.0834
   21DOPE  C310 2683   5.351   8.214   6.237  0.3477 -0.1748  0.0773
   21DOPE  H10X 2684   5.325   8.318   6.213  0.6740 -0.2675 -0.7071
   21DOPE  C311 2685   5.382   8.114   6.128  0.5564 -0.2489  0.1525
   21DOPE  H11X 2686   5.489   8.122   6.102  0.7827  1.2991  1.4837
   21DOPE  H11Y 2687   5.370   8.006   6.154  1.6177 -0.8177 -1.5238
   21DOPE  C312 2688   5.293   8.149   6.008 -0.5893  0.4227 -0.7007
   21DOPE  H12X 2689   5.184   8.143   6.023 -0.8396  1.8769 -1.6693
   21DOPE  H12Y 2690   5.323   8.069   5.937 -1.0058  0.2691 -0.7067
   21DOPE  C313 2691   5.328   8.282   5.939  0.1002 -0.3020 -0.4872
   21DOPE  H13X 2692   5.312   8.367   6.008 -0.0108 -0.2408 -0.5856
   21DOPE  H13Y 2693   5.430   8.283   5.896 -0.1931  0.7495 -1.2145
   21DOPE  C314 2694   5.231   8.302   5.824 -0.1816 -0.3708 -0.5075
   21DOPE  H14X 2695   5.254   8.396   5.769 -0.3556 -0.3563 -0.5565
   21DOPE  H14Y 2696   5.132   8.333   5.865 -0.6746 -0.9193 -1.2664
   21DOPE  C315 2697   5.229   8.202   5.706 -0.0511  0.1443 -0.6206
   21DOPE  H15X 2698   5.201   8.105   5.753  0.1141  0.1228 -0.5672
   21DOPE  H15Y 2699   5.334   8.201   5.671  0.4144  0.8879  0.6999
   21DOPE  C316 2700   5.130   8.223   5.597 -0.8885 -0.0828  0.3237
   21DOPE  H16X 2701   5.157   8.314   5.538  0.9620 -1.5051 -1.1399
   21DOPE  H16Y 2702   5.027   8.235   5.638 -0.6221 -2.3247  1.7935
   21DOPE  C317 2703   5.127   8.103   5.502 -0.2088  0.4922  0.1767
   21DOPE  H17X 2704   5.224   8.092   5.449 -1.2860 -2.3218 -1.4181
   21DOPE  H17Y 2705   5.110   8.010   5.560  0.1579  0.4279  0.1832
   21DOPE  C318 2706   5.017   8.120   5.389 -0.5361  0.5876 -0.0475
   21DOPE  H18X 2707   4.910   8.104   5.413 -0.0483 -0.2728  1.6977
   21DOPE  H18Y 2708   5.038   8.204   5.319  0.7674  0.6147  0.3448
   21DOPE  H18Z 2709   5.043   8.036   5.321 -1.2042  0.3947 -0.0761
   22DOPE     N 2710   1.351   5.566   7.033 -0.0661 -0.0545 -0.0506
   22DOPE   HN1 2711   1.432   5.500   7.039 -0.3075 -0.2876  0.8217
   22DOPE   HN2 2712   1.383   5.658   7.068 -0.7941  0.3920 -0.5220
   22DOPE   HN3 2713   1.281   5.531   7.102 -0.2104  0.9435  0.3236
   22DOPE   C12 2714   1.309   5.573   6.890  0.3911 -1.3423 -0.4046
   22DOPE  H12A 2715   1.389   5.624   6.831  0.0449  0.2638  0.4609
   22DOPE  H12B 2716   1.223   5.643   6.902  2.1761  0.6328  1.8883
   22DOPE   C11 2717   1.277   5.438   6.832  0.2836  0.1732 -0.6839
   22DOPE  H11A 2718   1.372   5.382   6.838  0.1590 -0.1380 -1.4874
   22DOPE  H11B 2719   1.252   5.440   6.724  0.0650 -0.3373 -0.6490
   22DOPE     P 2720   1.014   5.363   6.868 -0.2430 -0.0909  0.3144
   22DOPE   O13 2721   0.959   5.498   6.847 -0.1403 -0.8344 -0.0718
   22DOPE   O14 2722   0.954   5.290   6.982  0.1390 -0.4930 -0.3494
   22DOPE   O11 2723   1.006   5.286   6.735  0.2087 -0.2867  0.4023
   22DOPE   O12 2724   1.167   5.371   6.901  0.4536  0.1672  0.5704
   22DOPE    C1 2725   1.081   5.163   6.722  0.6313 -0.3553  0.3494
   22DOPE    HA 2726   1.040   5.084   6.788  0.0883 -0.4405 -0.0824
   22DOPE    HB 2727   1.191   5.178   6.731  0.2853  1.1152  3.3792
   22DOPE    C2 2728   1.052   5.114   6.576 -0.0174  0.4668  0.4866
   22DOPE    HS 2729   1.083   5.009   6.560  1.0610  0.3939  2.6586
   22DOPE   O21 2730   1.138   5.194   6.485  0.2593  0.1244 -0.5261
   22DOPE   C21 2731   1.173   5.137   6.370 -0.1867  0.2934  0.0915
   22DOPE   O22 2732   1.158   5.015   6.345 -0.4423 -0.0157  0.2163
   22DOPE   C22 2733   1.235   5.245   6.275  0.0036 -0.0159  0.6709
   22DOPE   H2R 2734   1.157   5.324   6.263  1.3072  1.7698  3.0588
   22DOPE   H2S 2735   1.247   5.186   6.182 -1.2427  0.3567  0.2519
   22DOPE    C3 2736   0.899   5.120   6.534  0.4264 -0.1193 -0.1409
   22DOPE    HX 2737   0.853   5.221   6.539  0.9600  0.1016  0.4478
   22DOPE    HY 2738   0.840   5.062   6.608  1.5023 -0.7396  0.2691
   22DOPE   O31 2739   0.872   5.077   6.395 -0.1194  0.1107 -0.2204
   22DOPE   C31 2740   0.828   4.958   6.375 -0.6341 -0.0932 -0.6631
   22DOPE   O32 2741   0.815   4.869   6.456  0.3601  0.1288 -0.7331
   22DOPE   C32 2742   0.775   4.947   6.230 -0.1074  0.5637 -0.2571
   22DOPE   H2X 2743   0.727   5.042   6.199  2.3649  1.4083 -1.8095
   22DOPE   H2Y 2744   0.873   4.935   6.178 -0.3736  0.5227 -0.7591
   22DOPE   C23 2745   1.374   5.299   6.320  0.0004  0.1466  0.4372
   22DOPE   H3R 2746   1.442   5.214   6.340 -1.2437 -0.8924  0.3513
   22DOPE   H3S 2747   1.366   5.358   6.414 -0.9871  1.5529 -0.4873
   22DOPE   C24 2748   1.439   5.380   6.207  1.0472  0.3838  0.2308
   22DOPE   H4R 2749   1.359   5.439   6.157  1.6018  1.4137  0.5523
   22DOPE   H4S 2750   1.477   5.306   6.133 -1.5662 -1.0544  0.2019
   22DOPE   C25 2751   1.556   5.470   6.244  0.5476 -0.3484  0.5880
   22DOPE   H5R 2752   1.646   5.420   6.286  0.7368  0.6445  1.4066
   22DOPE   H5S 2753   1.512   5.538   6.320 -1.3902 -2.4185  1.4350
   22DOPE   C26 2754   1.597   5.564   6.125 -0.6344 -0.9330  0.4295
   22DOPE   H6R 2755   1.619   5.504   6.034 -0.9147  2.0390 -1.7320
   22DOPE   H6S 2756   1.698   5.600   6.154 -1.0067 -1.1339  2.0985
   22DOPE   C27 2757   1.498   5.674   6.095 -0.9098  0.1824 -0.6006
   22DOPE   H7R 2758   1.463   5.725   6.187 -2.8907  0.5217 -1.4923
   22DOPE   H7S 2759   1.406   5.626   6.055 -1.8497  2.3886 -1.2372
   22DOPE   C28 2760   1.545   5.774   5.986 -0.8225  0.2330 -0.4680
   22DOPE   H8R 2761   1.632   5.833   6.022 -1.0520 -0.8329  1.9743
   22DOPE   H8S 2762   1.464   5.850   5.979 -1.7867 -0.6876  0.3806
   22DOPE   C29 2763   1.571   5.713   5.848  0.1723 -0.5884 -0.3804
   22DOPE   H9R 2764   1.649   5.636   5.847 -0.7116 -1.6429  2.2775
   22DOPE  C210 2765   1.490   5.732   5.740  0.0468 -0.7641  0.4239
   22DOPE  H10R 2766   1.520   5.685   5.646 -0.4567  0.2667 -0.2678
   22DOPE  C211 2767   1.356   5.805   5.737 -0.1261 -0.3391  0.1507
   22DOPE  H11R 2768   1.361   5.895   5.672 -3.3394 -0.5519 -0.5635
   22DOPE  H11S 2769   1.328   5.828   5.842  2.1326  1.4984  0.4256
   22DOPE  C212 2770   1.247   5.714   5.671 -0.4172 -0.6179  0.5501
   22DOPE  H12R 2771   1.278   5.714   5.564  0.1390 -0.6929  0.7085
   22DOPE  H12S 2772   1.154   5.773   5.682  0.7001  1.0256  1.6940
   22DOPE  C213 2773   1.228   5.576   5.727  0.0894  0.0584 -0.4407
   22DOPE  H13R 2774   1.224   5.582   5.837  0.6675 -1.9389 -0.2629
   22DOPE  H13S 2775   1.314   5.506   5.713  0.5054  0.3585  0.5284
   22DOPE  C214 2776   1.103   5.499   5.671  0.4978 -0.1132 -0.0627
   22DOPE  H14R 2777   1.108   5.502   5.560 -0.5858  1.1321 -0.1026
   22DOPE  H14S 2778   1.008   5.552   5.695 -0.3637 -2.0568  0.9736
   22DOPE  C215 2779   1.086   5.359   5.735  0.8555  0.0933  0.0926
   22DOPE  H15R 2780   1.185   5.310   5.737  0.9282  0.2417  1.6492
   22DOPE  H15S 2781   1.022   5.297   5.669  0.1743  1.6781 -0.7995
   22DOPE  C216 2782   1.025   5.358   5.880 -0.2520 -0.0824 -0.1987
   22DOPE  H16R 2783   0.924   5.404   5.884 -0.7117 -1.1433  0.7797
   22DOPE  H16S 2784   1.077   5.426   5.951 -2.3373  0.6651  0.6986
   22DOPE  C217 2785   1.016   5.213   5.939  0.3807  0.1561  0.2821
   22DOPE  H17R 2786   1.122   5.179   5.937  0.3950  0.1595 -1.9711
   22DOPE  H17S 2787   0.956   5.149   5.871 -0.9046  0.2481  1.3075
   22DOPE  C218 2788   0.956   5.201   6.078 -0.5968 -0.7410  0.3252
   22DOPE  H18R 2789   0.845   5.207   6.077 -0.5483  0.2280 -0.9444
   22DOPE  H18S 2790   0.998   5.289   6.131 -1.4718  0.1061 -0.3600
   22DOPE  H18T 2791   0.986   5.110   6.134 -0.2401 -1.4182 -0.9239
   22DOPE   C33 2792   0.689   4.822   6.187  0.8525  0.7093 -0.4259
   22DOPE   H3X 2793   0.595   4.820   6.246 -0.3210 -0.8277 -2.2239
   22DOPE   H3Y 2794   0.754   4.736   6.212  0.7346  0.9112  0.6315
   22DOPE   C34 2795   0.658   4.808   6.035 -0.8819 -0.3564 -0.2640
   22DOPE   H4X 2796   0.746   4.803   5.968 -0.5192  2.1844 -0.0854
   22DOPE   H4Y 2797   0.594   4.718   6.022 -1.0779 -0.3206  0.3832
   22DOPE   C35 2798   0.579   4.928   5.981 -0.2623  0.1082  0.2093
   22DOPE   H5X 2799   0.612   5.031   6.008  1.4510  0.1365 -1.7787
   22DOPE   H5Y 2800   0.482   4.907   6.031  1.0684 -0.9535  2.4751
   22DOPE   C36 2801   0.560   4.925   5.825  0.0389 -0.2547  0.2105
   22DOPE   H6X 2802   0.663   4.932   5.784  0.0817  0.9059  0.4837
   22DOPE   H6Y 2803   0.513   5.021   5.794  0.6810 -0.0469 -0.1299
   22DOPE   C37 2804   0.482   4.805   5.763 -0.3309 -0.3959  0.2785
   22DOPE   H7X 2805   0.548   4.718   5.782 -0.8537 -0.5777  1.3427
   22DOPE   H7Y 2806   0.382   4.784   5.807 -0.0168 -1.3305  0.5542
   22DOPE   C38 2807   0.449   4.819   5.610  0.2888  0.0582 -0.4629
   22DOPE   H8X 2808   0.373   4.900   5.602 -2.1066 -1.4843  3.5179
   22DOPE   H8Y 2809   0.399   4.726   5.576  2.5185 -1.5644  0.4296
   22DOPE   C39 2810   0.563   4.840   5.522 -0.6331  0.5198 -0.8598
   22DOPE   H9X 2811   0.657   4.865   5.573 -0.5189  0.6799 -1.1422
   22DOPE  C310 2812   0.556   4.827   5.386 -0.3498 -0.0729  0.5191
   22DOPE  H10X 2813   0.643   4.839   5.319 -1.5715  0.7481 -0.9681
   22DOPE  C311 2814   0.429   4.805   5.311  0.3254 -0.3097  0.2466
   22DOPE  H11X 2815   0.337   4.812   5.373  0.1531 -2.1389  0.2541
   22DOPE  H11Y 2816   0.420   4.879   5.229  0.4543 -0.2452  0.2913
   22DOPE  C312 2817   0.424   4.681   5.235 -0.2351  0.2365  0.3101
   22DOPE  H12X 2818   0.518   4.653   5.183 -0.9675  1.1040 -1.5732
   22DOPE  H12Y 2819   0.342   4.702   5.164 -2.0032  1.9760  2.7019
   22DOPE  C313 2820   0.400   4.555   5.317  0.6090  0.1261  0.1010
   22DOPE  H13X 2821   0.500   4.543   5.365  0.2702  0.6017  0.9506
   22DOPE  H13Y 2822   0.323   4.570   5.395 -0.2842  0.4739 -0.8271
   22DOPE  C314 2823   0.351   4.437   5.235 -0.4400  0.0506 -1.1989
   22DOPE  H14X 2824   0.417   4.435   5.146 -0.4087  0.9487 -1.2053
   22DOPE  H14Y 2825   0.252   4.452   5.186 -1.0278 -0.0519 -0.0718
   22DOPE  C315 2826   0.346   4.308   5.318 -0.1250 -0.1485 -0.9792
   22DOPE  H15X 2827   0.288   4.316   5.412  0.7351 -0.5478 -0.4096
   22DOPE  H15Y 2828   0.445   4.286   5.364  0.2916  0.4632 -1.5641
   22DOPE  C316 2829   0.300   4.191   5.232  0.0304 -0.0381  0.0526
   22DOPE  H16X 2830   0.360   4.185   5.139 -0.9890 -0.2341 -0.5994
   22DOPE  H16Y 2831   0.193   4.212   5.214  0.3659  1.8262  0.0117
   22DOPE  C317 2832   0.308   4.056   5.312 -0.0339 -0.6284  0.2579
   22DOPE  H17X 2833   0.401   4.055   5.372  1.0397  1.8051 -1.2141
   22DOPE  H17Y 2834   0.225   4.046   5.385 -1.0269  1.8305 -0.4119
   22DOPE  C318 2835   0.299   3.931   5.218 -0.4134 -0.7322 -0.2400
   22DOPE  H18X 2836   0.193   3.921   5.189 -0.6107  3.3075 -1.4892
   22DOPE  H18Y 2837   0.353   3.933   5.121 -1.0436  0.8447 -0.5806
   22DOPE  H18Z 2838   0.334   3.840   5.272  0.7529  0.9856  2.1010
   23DOPE     N 2839   6.294   0.067   7.168 -0.4166 -0.2465 -0.2698
   23DOPE   HN1 2840   6.213   0.002   7.166  0.6989 -1.7768  1.2114
   23DOPE   HN2 2841   6.274   0.132   7.247 -1.9267 -0.9061 -0.0841
   23DOPE   HN3 2842   6.290   0.126   7.082 -0.4088  1.2083  0.6836
   23DOPE   C12 2843   6.426  -0.011   7.178  0.0098 -0.7952 -0.2822
   23DOPE  H12A 2844   6.497   0.049   7.239 -1.4417 -0.2011  0.8771
   23DOPE  H12B 2845   6.470  -0.032   7.078  1.1406  2.5232 -0.5988
   23DOPE   C11 2846   6.399  -0.138   7.243 -0.2252 -0.2676 -0.2586
   23DOPE  H11A 2847   6.327  -0.192   7.178 -0.7105 -1.3572  1.1257
   23DOPE  H11B 2848   6.347  -0.115   7.338 -1.7730  1.1305 -1.3815
   23DOPE     P 2849   6.501  -0.367   7.285  0.0119 -0.0807  0.2822
   23DOPE   O13 2850   6.388  -0.395   7.376  0.3252 -0.0422  0.0192
   23DOPE   O14 2851   6.625  -0.430   7.331 -1.0140 -0.7702  0.1084
   23DOPE   O11 2852   6.456  -0.418   7.143 -0.2990  0.6638  0.1231
   23DOPE   O12 2853   6.519  -0.208   7.260 -0.2730  0.6149  0.6805
   23DOPE    C1 2854   6.534  -0.392   7.025  0.3406 -1.4428 -0.9529
   23DOPE    HA 2855   6.631  -0.448   7.024  1.0119 -0.3180 -0.7391
   23DOPE    HB 2856   6.554  -0.283   7.020 -1.3310 -1.0958 -0.4009
   23DOPE    C2 2857   6.457  -0.415   6.894  0.0276  0.3544  0.8844
   23DOPE    HS 2858   6.362  -0.359   6.903 -1.3161 -1.5559 -0.7272
   23DOPE   O21 2859   6.444  -0.557   6.863  0.3716  0.8210  0.4647
   23DOPE   C21 2860   6.324  -0.593   6.829 -0.0792  0.4053  0.8173
   23DOPE   O22 2861   6.217  -0.547   6.869  0.0291  0.0137 -0.1865
   23DOPE   C22 2862   6.331  -0.688   6.712 -0.1449  0.4945  0.4584
   23DOPE   H2R 2863   6.429  -0.739   6.711  0.1562  0.8964  3.0538
   23DOPE   H2S 2864   6.329  -0.610   6.633  0.9032  0.3297  0.2620
   23DOPE    C3 2865   6.522  -0.354   6.763  0.2282  0.3155 -0.4848
   23DOPE    HX 2866   6.611  -0.414   6.735 -2.8107 -2.7960 -4.7148
   23DOPE    HY 2867   6.551  -0.248   6.782 -1.7848  0.5957  1.4497
   23DOPE   O31 2868   6.427  -0.367   6.655 -0.2717 -0.2879  0.1797
   23DOPE   C31 2869   6.347  -0.267   6.631 -0.4621 -0.3520 -0.0206
   23DOPE   O32 2870   6.339  -0.166   6.699  0.3006  0.5551 -0.1962
   23DOPE   C32 2871   6.277  -0.287   6.503 -0.1925  0.6660  1.0454
   23DOPE   H2X 2872   6.328  -0.210   6.442  0.2855 -0.4757 -0.0355
   23DOPE   H2Y 2873   6.285  -0.389   6.460 -0.8797  1.3415 -0.7693
   23DOPE   C23 2874   6.212  -0.786   6.703 -0.1884  1.0832  0.2331
   23DOPE   H3R 2875   6.118  -0.750   6.750 -0.7889  0.6511 -0.5857
   23DOPE   H3S 2876   6.247  -0.879   6.753  1.5034  1.3643 -0.3477
   23DOPE   C24 2877   6.190  -0.843   6.562  0.0852 -0.3732  0.7614
   23DOPE   H4R 2878   6.105  -0.913   6.570  0.5790 -0.9544  0.9594
   23DOPE   H4S 2879   6.278  -0.903   6.531  0.7557 -0.1503  2.1483
   23DOPE   C25 2880   6.147  -0.735   6.460 -0.4454  0.1004 -0.2002
   23DOPE   H5R 2881   6.234  -0.666   6.462 -1.6411  1.6272  0.5266
   23DOPE   H5S 2882   6.068  -0.664   6.493 -1.5066  0.4678 -3.2508
   23DOPE   C26 2883   6.121  -0.805   6.329  0.2687 -0.1892 -0.0665
   23DOPE   H6R 2884   6.044  -0.881   6.355  2.0558 -1.8875  0.6033
   23DOPE   H6S 2885   6.221  -0.849   6.306  1.0426  1.6482 -0.3599
   23DOPE   C27 2886   6.084  -0.721   6.203  0.3251 -0.4279  0.0745
   23DOPE   H7R 2887   6.151  -0.634   6.217  1.8284 -0.9515 -2.9458
   23DOPE   H7S 2888   5.981  -0.682   6.217  1.1135  1.1762  1.7244
   23DOPE   C28 2889   6.099  -0.793   6.070 -0.0927 -0.3370 -0.6884
   23DOPE   H8R 2890   6.045  -0.890   6.078  0.4215 -0.6490 -0.9793
   23DOPE   H8S 2891   6.206  -0.802   6.042  0.3406  1.7089  0.1189
   23DOPE   C29 2892   6.037  -0.706   5.960  0.1013  0.4963  0.5057
   23DOPE   H9R 2893   6.006  -0.604   5.989 -0.1198  0.1566  1.5117
   23DOPE  C210 2894   6.012  -0.746   5.833 -0.0165  0.5456  0.0681
   23DOPE  H10R 2895   5.983  -0.676   5.754 -1.6931  0.8011  0.8602
   23DOPE  C211 2896   6.036  -0.889   5.783 -0.1842 -0.1308  0.7646
   23DOPE  H11R 2897   5.942  -0.947   5.778 -0.9473  1.1265  0.1222
   23DOPE  H11S 2898   6.104  -0.953   5.843 -0.5251 -1.1946  0.0555
   23DOPE  C212 2899   6.091  -0.890   5.633 -0.3943  0.7455 -0.7981
   23DOPE  H12R 2900   6.105  -0.998   5.613  0.1922  0.8626 -1.0192
   23DOPE  H12S 2901   6.190  -0.841   5.625  0.1722  1.1000  4.4730
   23DOPE  C213 2902   5.990  -0.839   5.533  0.1055 -0.0140  0.0151
   23DOPE  H13R 2903   5.962  -0.734   5.556  0.0382 -0.4192  1.9415
   23DOPE  H13S 2904   5.899  -0.902   5.540 -1.8563  2.7648  1.0483
   23DOPE  C214 2905   6.041  -0.843   5.389  0.4321 -0.4765  0.9781
   23DOPE  H14R 2906   6.065  -0.947   5.358  1.4560  0.6382 -2.3317
   23DOPE  H14S 2907   6.132  -0.780   5.379 -0.5122  0.8910  0.6118
   23DOPE  C215 2908   5.943  -0.788   5.282  0.0524 -0.8313  0.4556
   23DOPE  H15R 2909   5.935  -0.679   5.305  0.7772 -0.7229  0.2168
   23DOPE  H15S 2910   5.845  -0.839   5.294 -0.6954  0.4149 -0.2134
   23DOPE  C216 2911   5.999  -0.795   5.140 -0.0103  0.9179  0.3512
   23DOPE  H16R 2912   6.034  -0.899   5.122  3.9160  1.9444  0.9973
   23DOPE  H16S 2913   6.091  -0.733   5.147 -0.7816  2.2391 -0.7990
   23DOPE  C217 2914   5.911  -0.731   5.034  0.4073  0.0293  0.0007
   23DOPE  H17R 2915   5.808  -0.755   5.069  0.4530 -0.7500 -0.3835
   23DOPE  H17S 2916   5.918  -0.779   4.934  0.0395  2.3399 -1.2123
   23DOPE  C218 2917   5.922  -0.581   5.014 -0.0338 -0.4519 -0.7527
   23DOPE  H18R 2918   5.914  -0.526   5.111 -2.1266  0.8316 -1.5853
   23DOPE  H18S 2919   5.842  -0.535   4.952 -0.0190 -0.4906 -0.8005
   23DOPE  H18T 2920   6.020  -0.559   4.967 -0.1076  1.3340 -0.1775
   23DOPE   C33 2921   6.126  -0.246   6.509  0.1924  0.6264 -0.2617
   23DOPE   H3X 2922   6.119  -0.135   6.512 -0.5360  0.5839  1.6327
   23DOPE   H3Y 2923   6.083  -0.297   6.599  0.3130 -0.8804 -1.0251
   23DOPE   C34 2924   6.047  -0.300   6.386 -0.4478 -0.2100  0.5285
   23DOPE   H4X 2925   6.048  -0.411   6.388  0.4843 -0.3170 -2.0390
   23DOPE   H4Y 2926   5.940  -0.272   6.401  0.1142  1.7707  1.1255
   23DOPE   C35 2927   6.090  -0.239   6.254  0.0293 -0.2455 -0.2684
   23DOPE   H5X 2928   6.188  -0.286   6.236  1.3188  2.0801  0.2317
   23DOPE   H5Y 2929   6.113  -0.130   6.260  1.1670 -0.3391 -2.0934
   23DOPE   C36 2930   5.998  -0.275   6.137 -0.3709  0.2050  0.6580
   23DOPE   H6X 2931   5.907  -0.215   6.158 -0.2001  0.9930 -0.7229
   23DOPE   H6Y 2932   5.981  -0.384   6.143 -1.3177  0.3859  1.7049
   23DOPE   C37 2933   6.065  -0.237   6.004  0.1351  0.4387 -0.8156
   23DOPE   H7X 2934   6.082  -0.127   6.004  1.9800  0.2067  0.5840
   23DOPE   H7Y 2935   6.165  -0.284   6.015 -0.4601 -0.4572  1.5117
   23DOPE   C38 2936   5.998  -0.282   5.869 -0.9150 -0.0409  0.3293
   23DOPE   H8X 2937   5.903  -0.225   5.863  0.9257  3.2323 -0.0094
   23DOPE   H8Y 2938   5.980  -0.392   5.877 -1.2617  0.0137  0.2980
   23DOPE   C39 2939   6.086  -0.250   5.752  0.2451 -0.1883 -0.5662
   23DOPE   H9X 2940   6.160  -0.172   5.772  0.2088 -0.3861  0.3763
   23DOPE  C310 2941   6.064  -0.298   5.631  0.3119 -0.6980  0.0982
   23DOPE  H10X 2942   6.115  -0.256   5.544  2.6510 -1.1777  1.1434
   23DOPE  C311 2943   5.952  -0.391   5.586  0.1402  0.3001 -0.2726
   23DOPE  H11X 2944   5.989  -0.495   5.602 -1.4615 -0.7732 -2.8460
   23DOPE  H11Y 2945   5.866  -0.376   5.655  1.3203  3.4507  0.6515
   23DOPE  C312 2946   5.908  -0.385   5.443 -0.2526 -0.2143 -0.0201
   23DOPE  H12X 2947   5.828  -0.459   5.422 -0.9204  0.8039 -1.2165
   23DOPE  H12Y 2948   5.985  -0.409   5.366 -1.2123 -0.6260 -0.8766
   23DOPE  C313 2949   5.861  -0.246   5.400 -0.3893  0.0079 -0.4394
   23DOPE  H13X 2950   5.764  -0.223   5.449  0.6689  2.0159  0.8366
   23DOPE  H13Y 2951   5.939  -0.174   5.431 -0.5773  0.0222 -0.0005
   23DOPE  C314 2952   5.834  -0.242   5.249  0.5190  0.7903 -0.3897
   23DOPE  H14X 2953   5.764  -0.326   5.230 -0.2700  0.7636  2.1713
   23DOPE  H14Y 2954   5.926  -0.268   5.191  0.2042  1.1090 -1.0392
   23DOPE  C315 2955   5.772  -0.108   5.197  0.0342 -0.0773 -0.3434
   23DOPE  H15X 2956   5.755  -0.114   5.087 -0.2358  0.0227 -0.3074
   23DOPE  H15Y 2957   5.857  -0.041   5.219 -2.2135  2.7763  0.3189
   23DOPE  C316 2958   5.638  -0.078   5.266 -0.0343  0.1240 -0.2795
   23DOPE  H16X 2959   5.594   0.014   5.221  0.8675  0.3190 -0.7789
   23DOPE  H16Y 2960   5.646  -0.067   5.376  2.4955  0.1839 -0.4126
   23DOPE  C317 2961   5.531  -0.180   5.226  0.0627 -0.1539  0.0524
   23DOPE  H17X 2962   5.513  -0.188   5.116  0.6981  0.0805 -0.0768
   23DOPE  H17Y 2963   5.569  -0.278   5.261  1.9391  0.6312  0.3931
   23DOPE  C318 2964   5.401  -0.175   5.299  0.2775  0.1711  0.4547
   23DOPE  H18X 2965   5.427  -0.155   5.405  0.7213  2.1058  0.0170
   23DOPE  H18Y 2966   5.325  -0.103   5.262 -2.5015 -2.3808  0.7372
   23DOPE  H18Z 2967   5.340  -0.268   5.287  0.9899 -0.2697  0.2002
   24DOPE     N 2968   7.676   5.818   6.791 -0.0829 -0.2748 -1.0999
   24DOPE   HN1 2969   7.704   5.780   6.699 -0.7507  0.3453 -1.5722
   24DOPE   HN2 2970   7.678   5.735   6.854  0.9306 -0.0700 -0.8549
   24DOPE   HN3 2971   7.576   5.846   6.782  0.0481  0.9560  0.7630
   24DOPE   C12 2972   7.752   5.919   6.853 -0.3810 -0.4853 -0.1553
   24DOPE  H12A 2973   7.760   6.013   6.795 -2.9290  0.0755  0.3096
   24DOPE  H12B 2974   7.854   5.884   6.881  0.2877  1.1330 -0.4511
   24DOPE   C11 2975   7.677   5.963   6.979  0.6618  0.2869  0.3190
   24DOPE  H11A 2976   7.741   6.037   7.033 -1.3875  0.1156  3.1908
   24DOPE  H11B 2977   7.659   5.880   7.050  2.6006  0.2142  0.7987
   24DOPE     P 2978   7.446   6.082   7.032 -0.0109  0.0575  0.2150
   24DOPE   O13 2979   7.502   6.149   7.150 -0.3683  0.8888 -0.2058
   24DOPE   O14 2980   7.352   5.973   7.059 -0.7531  0.0574 -0.0289
   24DOPE   O11 2981   7.381   6.191   6.947 -0.3195 -0.1650  0.0248
   24DOPE   O12 2982   7.557   6.027   6.933  0.1688 -0.1679 -0.4508
   24DOPE    C1 2983   7.273   6.170   6.853  0.4075 -0.5467 -0.3645
   24DOPE    HA 2984   7.236   6.266   6.813  1.2648 -0.1111 -0.1360
   24DOPE    HB 2985   7.196   6.113   6.910  0.7317 -0.5185  0.1050
   24DOPE    C2 2986   7.308   6.087   6.728 -0.8615  0.5996  0.2465
   24DOPE    HS 2987   7.349   5.990   6.761  0.3024  1.4458  1.4224
   24DOPE   O21 2988   7.407   6.164   6.651  0.1759  0.4238  0.3695
   24DOPE   C21 2989   7.458   6.087   6.556 -0.5661 -0.6042  0.3864
   24DOPE   O22 2990   7.441   5.967   6.547  0.0309  0.0945  0.0991
   24DOPE   C22 2991   7.524   6.178   6.454  0.1578 -0.0976 -0.1861
   24DOPE   H2R 2992   7.606   6.111   6.421  0.6321  1.6560 -2.9016
   24DOPE   H2S 2993   7.558   6.269   6.508  0.7446 -0.0008 -0.7146
   24DOPE    C3 2994   7.172   6.056   6.650 -0.9958 -0.2871 -0.4500
   24DOPE    HX 2995   7.090   6.040   6.723  0.8454 -0.2823  1.7026
   24DOPE    HY 2996   7.197   5.972   6.582  1.0170 -2.0326  2.2682
   24DOPE   O31 2997   7.135   6.164   6.560  0.0899 -0.5882 -0.0340
   24DOPE   C31 2998   7.017   6.131   6.500 -0.2825 -0.3685 -0.4060
   24DOPE   O32 2999   6.968   6.021   6.492 -0.1498 -0.3504  0.0807
   24DOPE   C32 3000   6.955   6.254   6.435 -0.1608 -0.7231  0.2878
   24DOPE   H2X 3001   6.846   6.241   6.421  0.1275 -1.5816 -1.5290
   24DOPE   H2Y 3002   6.978   6.340   6.501  1.1624  0.4236 -1.5700
   24DOPE   C23 3003   7.433   6.218   6.335  0.7007 -0.6893  0.1634
   24DOPE   H3R 3004   7.353   6.279   6.382  3.5143  2.3498  1.3729
   24DOPE   H3S 3005   7.396   6.130   6.277  0.3908 -0.7429  0.4423
   24DOPE   C24 3006   7.511   6.310   6.240 -0.9722  0.8106  0.0291
   24DOPE   H4R 3007   7.593   6.244   6.206 -0.4983 -0.0983  2.6529
   24DOPE   H4S 3008   7.557   6.390   6.303  1.1577  0.3562 -0.8531
   24DOPE   C25 3009   7.427   6.371   6.134  0.3768 -0.5366 -0.1609
   24DOPE   H5R 3010   7.375   6.447   6.195  0.4424 -0.2976 -0.4003
   24DOPE   H5S 3011   7.352   6.294   6.106  1.0509 -2.0542  1.9367
   24DOPE   C26 3012   7.511   6.429   6.020  0.3066 -0.4230 -0.3341
   24DOPE   H6R 3013   7.458   6.510   5.966  1.0022 -0.2219 -0.7387
   24DOPE   H6S 3014   7.540   6.356   5.941  2.4646 -0.1029  0.0930
   24DOPE   C27 3015   7.638   6.492   6.076 -0.1179  0.3472  0.0889
   24DOPE   H7R 3016   7.712   6.415   6.109  0.1262 -0.3689 -1.9767
   24DOPE   H7S 3017   7.604   6.540   6.170 -0.4976 -1.7823  1.0910
   24DOPE   C28 3018   7.705   6.601   5.990  0.1278 -0.1328  0.6779
   24DOPE   H8R 3019   7.793   6.649   6.039  1.8795  1.2672 -3.3788
   24DOPE   H8S 3020   7.633   6.686   5.985 -0.1616 -0.2614  2.1817
   24DOPE   C29 3021   7.743   6.557   5.850  0.2099  0.1780 -0.1373
   24DOPE   H9R 3022   7.785   6.456   5.835  1.1300  0.5466 -0.1395
   24DOPE  C210 3023   7.728   6.629   5.734 -0.0143 -0.2170  0.3140
   24DOPE  H10R 3024   7.737   6.564   5.646 -0.9819 -0.4562  0.3844
   24DOPE  C211 3025   7.662   6.762   5.724  0.0550  0.0721 -0.0314
   24DOPE  H11R 3026   7.732   6.837   5.766  0.1375  0.1852 -0.3653
   24DOPE  H11S 3027   7.571   6.773   5.786 -0.2988 -0.6716 -0.4020
   24DOPE  C212 3028   7.638   6.794   5.581  0.2719  0.0295  0.7389
   24DOPE  H12R 3029   7.566   6.717   5.545  0.6905 -0.8800  1.8195
   24DOPE  H12S 3030   7.729   6.796   5.517 -0.7918 -2.9677 -1.0964
   24DOPE  C213 3031   7.568   6.932   5.557  0.4345  0.1626  0.0652
   24DOPE  H13R 3032   7.639   6.995   5.615  1.2133 -1.7396  1.2814
   24DOPE  H13S 3033   7.466   6.939   5.600  0.1602  1.7642 -0.7868
   24DOPE  C214 3034   7.546   6.963   5.409  0.4891 -1.2415  0.3463
   24DOPE  H14R 3035   7.501   6.875   5.358 -0.8710  0.6858 -1.9369
   24DOPE  H14S 3036   7.643   6.984   5.359  0.3656  0.4772  0.7866
   24DOPE  C215 3037   7.447   7.075   5.381  0.7329 -0.3251  0.7994
   24DOPE  H15R 3038   7.347   7.038   5.412 -0.6993  0.2872 -2.5979
   24DOPE  H15S 3039   7.436   7.107   5.275 -0.8103 -3.3564 -0.0740
   24DOPE  C216 3040   7.490   7.205   5.459  0.2461  0.5111  0.2502
   24DOPE  H16R 3041   7.598   7.222   5.441  0.4919  0.2162  1.3846
   24DOPE  H16S 3042   7.469   7.188   5.567  0.2174  1.3038  0.3771
   24DOPE  C217 3043   7.408   7.331   5.417 -0.3391 -0.2524 -0.2527
   24DOPE  H17R 3044   7.313   7.312   5.470 -0.8298 -0.3551 -1.1419
   24DOPE  H17S 3045   7.391   7.337   5.307  1.6083  0.5464 -0.5496
   24DOPE  C218 3046   7.480   7.458   5.476  0.2383 -0.9134  0.4625
   24DOPE  H18R 3047   7.432   7.556   5.451  0.4986 -1.4222 -2.3550
   24DOPE  H18S 3048   7.582   7.465   5.432 -0.3505 -0.4297 -0.8910
   24DOPE  H18T 3049   7.503   7.445   5.584  0.7711  0.4883  0.5428
   24DOPE   C33 3050   7.027   6.291   6.303 -0.1231 -0.7842  0.8550
   24DOPE   H3X 3051   6.986   6.211   6.238  0.3355 -0.2241 -0.1360
   24DOPE   H3Y 3052   7.137   6.286   6.316 -0.0475  0.5283  0.8475
   24DOPE   C34 3053   6.989   6.427   6.248  0.4868 -0.5004 -0.6557
   24DOPE   H4X 3054   6.879   6.426   6.237  0.2127  2.4931  0.8764
   24DOPE   H4Y 3055   7.013   6.508   6.320 -0.0428  0.9305 -2.0250
   24DOPE   C35 3056   7.049   6.456   6.111 -0.3534 -0.1322  0.2026
   24DOPE   H5X 3057   7.034   6.377   6.035  2.1630 -0.7804  0.2702
   24DOPE   H5Y 3058   7.159   6.467   6.129 -0.0061 -1.6826 -0.7783
   24DOPE   C36 3059   6.990   6.586   6.052 -0.3230  0.2480  0.4804
   24DOPE   H6X 3060   7.007   6.675   6.116  2.8238 -0.2815  0.5515
   24DOPE   H6Y 3061   6.880   6.578   6.038 -0.5564  3.2346  0.0443
   24DOPE   C37 3062   7.044   6.604   5.913 -0.2446 -0.3426 -0.2984
   24DOPE   H7X 3063   7.150   6.637   5.920  0.3663 -1.9163 -1.5151
   24DOPE   H7Y 3064   7.037   6.510   5.855 -1.4245 -1.1308  1.0658
   24DOPE   C38 3065   6.960   6.710   5.831 -0.0836  0.2730  0.5732
   24DOPE   H8X 3066   6.947   6.799   5.896  1.9553  0.9238  0.1455
   24DOPE   H8Y 3067   6.861   6.673   5.795  0.8546  0.5338 -2.5110
   24DOPE   C39 3068   7.038   6.750   5.709  0.5639 -0.5932 -0.2819
   24DOPE   H9X 3069   6.991   6.723   5.613  0.2984  0.5515 -0.4893
   24DOPE  C310 3070   7.149   6.830   5.705 -0.0795  0.7807  0.1909
   24DOPE  H10X 3071   7.198   6.835   5.606  0.0485  0.7707  0.2532
   24DOPE  C311 3072   7.231   6.875   5.820 -0.7889  0.6764 -0.3773
   24DOPE  H11X 3073   7.186   6.847   5.918  1.8471 -2.1857  0.1601
   24DOPE  H11Y 3074   7.326   6.818   5.813  0.4937  2.6429  0.2515
   24DOPE  C312 3075   7.265   7.028   5.811 -0.1695  1.5296 -0.3926
   24DOPE  H12X 3076   7.167   7.079   5.820 -1.2719 -0.3480 -1.0673
   24DOPE  H12Y 3077   7.315   7.042   5.713 -1.8007 -2.9447 -2.1673
   24DOPE  C313 3078   7.346   7.066   5.935  0.2812 -0.1375 -0.1722
   24DOPE  H13X 3079   7.291   7.033   6.026  2.1759  3.2697  2.4444
   24DOPE  H13Y 3080   7.440   7.006   5.940 -0.0446 -0.6820 -0.5192
   24DOPE  C314 3081   7.367   7.216   5.958  0.4885 -0.3372 -0.5779
   24DOPE  H14X 3082   7.280   7.264   6.007  1.8631  0.9805  0.6242
   24DOPE  H14Y 3083   7.375   7.267   5.860 -1.1034  1.8855  0.3832
   24DOPE  C315 3084   7.493   7.252   6.047 -0.1285  0.1932 -0.5877
   24DOPE  H15X 3085   7.581   7.206   5.999 -0.5719 -0.6653 -0.5895
   24DOPE  H15Y 3086   7.468   7.215   6.149 -1.0994  0.2874 -0.7850
   24DOPE  C316 3087   7.529   7.402   6.064  0.4817 -0.0292 -0.0883
   24DOPE  H16X 3088   7.442   7.456   6.107  0.8739 -1.5990  2.9061
   24DOPE  H16Y 3089   7.545   7.449   5.964  0.6481 -1.5042 -0.7699
   24DOPE  C317 3090   7.644   7.428   6.159  0.3009 -0.0286 -0.3695
   24DOPE  H17X 3091   7.735   7.368   6.142 -0.4414 -2.0914  2.3003
   24DOPE  H17Y 3092   7.683   7.531   6.144 -1.3598  0.3299 -2.7896
   24DOPE  C318 3093   7.597   7.424   6.310 -0.0576  1.4130 -0.2316
   24DOPE  H18X 3094   7.569   7.320   6.340  4.2554 -0.0347 -0.4532
   24DOPE  H18Y 3095   7.687   7.437   6.373  0.4962 -2.0289 -0.0967
   24DOPE  H18Z 3096   7.515   7.497   6.328 -2.7045 -0.9260 -1.9065
   25DOPE     N 3097   0.549   4.613   6.656 -0.1824  0.1397 -0.1834
   25DOPE   HN1 3098   0.447   4.635   6.649  0.2396  1.7651 -2.0810
   25DOPE   HN2 3099   0.587   4.587   6.563  0.9747  0.9485  0.0407
   25DOPE   HN3 3100   0.567   4.542   6.730  2.3656 -0.0191 -0.8807
   25DOPE   C12 3101   0.614   4.741   6.689  0.0971 -0.2864  0.2499
   25DOPE  H12A 3102   0.713   4.745   6.638  1.2988  0.4726  2.5092
   25DOPE  H12B 3103   0.628   4.746   6.799 -2.9030  2.8158  0.6519
   25DOPE   C11 3104   0.534   4.864   6.636 -0.0230  0.2803 -0.6698
   25DOPE  H11A 3105   0.524   4.842   6.528  1.9580  0.4793 -0.9201
   25DOPE  H11B 3106   0.601   4.951   6.646  1.5333 -1.0342  1.2186
   25DOPE     P 3107   0.282   4.809   6.691  0.1583  0.1562 -0.1914
   25DOPE   O13 3108   0.196   4.841   6.807 -0.0601 -0.6840 -0.5808
   25DOPE   O14 3109   0.305   4.665   6.670 -0.4182 -0.1585  0.3387
   25DOPE   O11 3110   0.232   4.869   6.551 -0.0014 -0.2006 -0.0163
   25DOPE   O12 3111   0.419   4.889   6.705 -0.3527  0.2052  0.0584
   25DOPE    C1 3112   0.141   4.981   6.540 -0.4249 -0.6741 -0.3231
   25DOPE    HA 3113   0.085   5.006   6.632 -0.6164 -1.4709 -0.2162
   25DOPE    HB 3114   0.062   4.963   6.463 -1.6066  1.8119  0.1934
   25DOPE    C2 3115   0.219   5.115   6.506  0.2395 -0.5616  0.7121
   25DOPE    HS 3116   0.287   5.136   6.592 -1.1938 -1.0748  2.0331
   25DOPE   O21 3117   0.127   5.220   6.475  0.7938 -0.3306  0.0770
   25DOPE   C21 3118   0.158   5.337   6.519 -1.0790 -0.5914 -0.5816
   25DOPE   O22 3119   0.264   5.373   6.575  0.4207  0.1410  0.4481
   25DOPE   C22 3120   0.043   5.431   6.486 -0.6447 -0.5228  0.3420
   25DOPE   H2R 3121  -0.024   5.451   6.572 -0.8903  2.0557 -0.3404
   25DOPE   H2S 3122  -0.027   5.372   6.423  1.6328 -1.9467 -0.9959
   25DOPE    C3 3123   0.314   5.085   6.385  0.3523 -0.6309  0.0278
   25DOPE    HX 3124   0.252   5.050   6.299  0.0725 -3.1826  1.1844
   25DOPE    HY 3125   0.384   5.000   6.401 -0.9590 -1.8026 -0.2565
   25DOPE   O31 3126   0.381   5.202   6.343  0.3678  0.0579  0.3845
   25DOPE   C31 3127   0.493   5.235   6.407  0.3586  0.2967  0.7714
   25DOPE   O32 3128   0.539   5.164   6.494 -0.5608  0.3102 -0.2706
   25DOPE   C32 3129   0.559   5.371   6.358 -0.2812  0.5904 -0.2008
   25DOPE   H2X 3130   0.624   5.410   6.439 -0.7205 -2.4193  1.7416
   25DOPE   H2Y 3131   0.624   5.346   6.272 -0.8980  1.9750 -1.1102
   25DOPE   C23 3132   0.085   5.558   6.410 -0.6403 -0.6053  0.0722
   25DOPE   H3R 3133   0.141   5.540   6.316  0.5741 -2.2430  1.0609
   25DOPE   H3S 3134   0.155   5.616   6.474 -1.5802  1.2722 -0.5595
   25DOPE   C24 3135  -0.035   5.649   6.371  0.2520  0.1623 -0.3330
   25DOPE   H4R 3136  -0.101   5.655   6.460 -0.6870  1.5804 -1.0942
   25DOPE   H4S 3137  -0.100   5.591   6.301 -2.2350  0.4826  1.5579
   25DOPE   C25 3138  -0.002   5.790   6.339 -0.3910 -0.6101 -0.1440
   25DOPE   H5R 3139   0.104   5.816   6.361 -0.0071 -0.7311 -1.7214
   25DOPE   H5S 3140  -0.070   5.855   6.398 -0.4902 -2.1710  1.5649
   25DOPE   C26 3141  -0.027   5.829   6.193  0.5981 -1.0974  0.2527
   25DOPE   H6R 3142  -0.030   5.940   6.192  0.5330 -1.0732 -1.7258
   25DOPE   H6S 3143  -0.128   5.792   6.164  0.3400  0.4599 -0.9705
   25DOPE   C27 3144   0.076   5.781   6.094  0.3947  0.1091  0.2493
   25DOPE   H7R 3145   0.071   5.670   6.092  0.7312  0.0477 -3.1333
   25DOPE   H7S 3146   0.170   5.820   6.139  1.1801 -0.9467 -0.4232
   25DOPE   C28 3147   0.068   5.836   5.951  0.5018  0.1419  0.8334
   25DOPE   H8R 3148   0.157   5.789   5.903  1.2143  2.0705  0.1688
   25DOPE   H8S 3149   0.081   5.946   5.957  2.3856 -0.1118  3.2138
   25DOPE   C29 3150  -0.058   5.796   5.882 -0.0340  0.5029 -0.0866
   25DOPE   H9R 3151  -0.151   5.836   5.927 -0.8604 -3.1389  1.8903
   25DOPE  C210 3152  -0.066   5.689   5.800  0.1525 -0.8039  0.4953
   25DOPE  H10R 3153  -0.165   5.674   5.754 -0.5302  0.6362  1.4256
   25DOPE  C211 3154   0.050   5.609   5.745 -0.9081  0.3604  0.0843
   25DOPE  H11R 3155   0.047   5.499   5.759 -1.5652  0.2094 -1.0886
   25DOPE  H11S 3156   0.147   5.630   5.793 -0.2708  0.4437 -1.1908
   25DOPE  C212 3157   0.062   5.638   5.599  0.8206 -0.0524  0.7160
   25DOPE  H12R 3158   0.081   5.746   5.581 -1.2692 -0.0757 -2.4250
   25DOPE  H12S 3159  -0.030   5.621   5.539  2.4138  0.3510 -1.9982
   25DOPE  C213 3160   0.179   5.569   5.533 -0.3300  0.1780  0.5867
   25DOPE  H13R 3161   0.252   5.539   5.612 -0.4401  0.0103  0.6239
   25DOPE  H13S 3162   0.239   5.636   5.468  0.4519 -0.2815  0.8112
   25DOPE  C214 3163   0.148   5.442   5.458  0.4550  0.2536  0.2167
   25DOPE  H14R 3164   0.070   5.454   5.379  1.7316 -0.9030 -1.2894
   25DOPE  H14S 3165   0.109   5.362   5.525  1.3111  0.0557  0.4872
   25DOPE  C215 3166   0.274   5.393   5.388 -0.1126 -0.4370 -0.3171
   25DOPE  H15R 3167   0.350   5.381   5.468 -1.8265  0.8283  1.6221
   25DOPE  H15S 3168   0.312   5.465   5.313 -0.0363  0.2158  0.3368
   25DOPE  C216 3169   0.238   5.266   5.314  0.4137  0.3968 -0.2854
   25DOPE  H16R 3170   0.177   5.294   5.226  1.5595 -0.0359 -1.2384
   25DOPE  H16S 3171   0.181   5.201   5.384  2.5526  0.3338  1.4998
   25DOPE  C217 3172   0.356   5.170   5.293 -0.3013 -0.9031 -0.3153
   25DOPE  H17R 3173   0.339   5.075   5.238  3.4423 -1.5783 -0.5766
   25DOPE  H17S 3174   0.382   5.143   5.398 -2.2262  0.0865  0.4665
   25DOPE  C218 3175   0.475   5.244   5.230  0.0175  0.0209  0.4436
   25DOPE  H18R 3176   0.426   5.284   5.139 -0.4997 -1.3433  0.0937
   25DOPE  H18S 3177   0.556   5.173   5.201 -1.0041 -1.2621  0.6020
   25DOPE  H18T 3178   0.512   5.322   5.300  1.3677  1.2470 -1.5434
   25DOPE   C33 3179   0.461   5.483   6.319  0.0123 -0.6021  0.2258
   25DOPE   H3X 3180   0.403   5.511   6.410 -2.3667  0.0345 -1.3978
   25DOPE   H3Y 3181   0.383   5.445   6.250 -0.6794  0.7377  0.2313
   25DOPE   C34 3182   0.537   5.599   6.245  0.8561 -1.2729  0.9292
   25DOPE   H4X 3183   0.620   5.648   6.300  1.6869  0.6551 -1.8161
   25DOPE   H4Y 3184   0.592   5.567   6.154  0.2710  2.4436 -0.9270
   25DOPE   C35 3185   0.438   5.725   6.225 -0.7027 -0.3910 -0.7423
   25DOPE   H5X 3186   0.398   5.761   6.322  0.6430 -2.1324  0.5423
   25DOPE   H5Y 3187   0.358   5.701   6.152 -0.9821  2.2169 -1.3782
   25DOPE   C36 3188   0.518   5.844   6.169  0.0570 -0.1117 -0.2301
   25DOPE   H6X 3189   0.563   5.803   6.076  1.0084  0.3959 -0.0073
   25DOPE   H6Y 3190   0.601   5.871   6.238  1.3935 -1.0147 -1.4242
   25DOPE   C37 3191   0.430   5.963   6.132 -0.1811 -0.0350  0.5311
   25DOPE   H7X 3192   0.498   6.043   6.096  0.4306  0.5873  2.8410
   25DOPE   H7Y 3193   0.370   5.920   6.050  1.3893 -2.4925  0.5465
   25DOPE   C38 3194   0.349   6.016   6.253 -0.2730 -0.2941 -0.4473
   25DOPE   H8X 3195   0.281   5.934   6.284 -0.1075 -0.1103  0.4335
   25DOPE   H8Y 3196   0.277   6.097   6.227 -0.3381 -0.7040 -1.5898
   25DOPE   C39 3197   0.423   6.062   6.378  0.1723 -0.0609 -0.2310
   25DOPE   H9X 3198   0.514   6.003   6.396 -0.0256 -0.4205 -0.3887
   25DOPE  C310 3199   0.365   6.137   6.475  0.1957  0.2626 -0.3073
   25DOPE  H10X 3200   0.416   6.176   6.564 -0.0630 -0.5390  0.2019
   25DOPE  C311 3201   0.230   6.192   6.469 -0.2746  0.4380  0.3040
   25DOPE  H11X 3202   0.159   6.114   6.434 -2.0856  2.2279 -0.2058
   25DOPE  H11Y 3203   0.209   6.220   6.574 -1.1051  1.6131 -0.1413
   25DOPE  C312 3204   0.217   6.318   6.379  0.4004 -0.5875 -0.3374
   25DOPE  H12X 3205   0.110   6.348   6.375  0.1164 -0.8033  2.7583
   25DOPE  H12Y 3206   0.242   6.295   6.274 -0.1577 -0.6669 -0.4548
   25DOPE  C313 3207   0.296   6.436   6.438  0.1233 -0.3492  0.3460
   25DOPE  H13X 3208   0.243   6.460   6.533 -1.5781 -1.1619 -0.3588
   25DOPE  H13Y 3209   0.398   6.395   6.454  0.2038 -0.2141  0.1795
   25DOPE  C314 3210   0.274   6.552   6.336 -0.0498 -0.2743 -0.7781
   25DOPE  H14X 3211   0.166   6.575   6.329  0.0826  0.6425  0.0546
   25DOPE  H14Y 3212   0.293   6.523   6.230 -0.4938 -1.7458 -0.4788
   25DOPE  C315 3213   0.352   6.671   6.381  0.1839  0.1273  0.1831
   25DOPE  H15X 3214   0.338   6.764   6.322  0.7072 -0.5806 -1.1263
   25DOPE  H15Y 3215   0.455   6.632   6.365 -0.3769 -1.0365 -0.7945
   25DOPE  C316 3216   0.341   6.703   6.530 -0.0573  0.4116  0.5751
   25DOPE  H16X 3217   0.430   6.763   6.558  0.3432 -0.3990  1.0938
   25DOPE  H16Y 3218   0.343   6.615   6.597 -0.6437 -1.4579 -1.7056
   25DOPE  C317 3219   0.205   6.777   6.568  0.3957 -0.6309  0.6336
   25DOPE  H17X 3220   0.179   6.849   6.488  0.2492 -2.0023 -0.5866
   25DOPE  H17Y 3221   0.120   6.708   6.583 -0.1732  0.3740  2.3153
   25DOPE  C318 3222   0.224   6.847   6.708 -0.0652  0.6048  0.6607
   25DOPE  H18X 3223   0.250   6.759   6.769  0.6820 -0.4791 -1.1379
   25DOPE  H18Y 3224   0.310   6.917   6.709 -0.5397  1.2125  0.2845
   25DOPE  H18Z 3225   0.129   6.900   6.732  0.5550  2.2910 -0.4068
   26DOPE     N 3226   2.725   6.038   7.028  0.5636 -0.0469 -0.0545
   26DOPE   HN1 3227   2.728   6.112   7.101  0.4935  0.0442 -0.1430
   26DOPE   HN2 3228   2.655   5.966   7.058 -1.8187  2.3968  0.6748
   26DOPE   HN3 3229   2.822   6.003   7.014  0.9924 -1.1484  4.1957
   26DOPE   C12 3230   2.670   6.083   6.895  0.1588  0.4904  0.4521
   26DOPE  H12A 3231   2.577   6.137   6.923  1.2553  1.6065  2.1418
   26DOPE  H12B 3232   2.652   5.988   6.841  3.7916 -1.3409  2.0800
   26DOPE   C11 3233   2.766   6.183   6.819  0.8338 -0.1744 -0.4594
   26DOPE  H11A 3234   2.710   6.221   6.731 -1.5573  1.9801  1.8127
   26DOPE  H11B 3235   2.861   6.135   6.786  1.0804 -0.8210  1.0745
   26DOPE     P 3236   2.727   6.427   6.925 -0.1060  0.3258  0.1746
   26DOPE   O13 3237   2.805   6.528   6.991 -0.1047  0.4695  0.0890
   26DOPE   O14 3238   2.599   6.395   6.993  0.3216 -0.0464 -1.1040
   26DOPE   O11 3239   2.697   6.468   6.772  0.3498  0.1658  0.0681
   26DOPE   O12 3240   2.809   6.292   6.909 -0.0013  0.0608 -0.3124
   26DOPE    C1 3241   2.555   6.498   6.739 -0.2280  0.3550  0.2427
   26DOPE    HA 3242   2.526   6.597   6.781  2.1658  2.5974 -2.9117
   26DOPE    HB 3243   2.484   6.423   6.780  0.5854  0.0909  1.2108
   26DOPE    C2 3244   2.542   6.498   6.587  0.1160  1.1966  0.1000
   26DOPE    HS 3245   2.438   6.513   6.552 -0.1732  1.2146  0.9405
   26DOPE   O21 3246   2.594   6.372   6.543  0.0721  0.1759  0.1792
   26DOPE   C21 3247   2.509   6.272   6.529 -0.1006 -0.2223  0.2006
   26DOPE   O22 3248   2.391   6.267   6.564 -0.1284 -0.1159 -0.2940
   26DOPE   C22 3249   2.571   6.170   6.432  0.2479 -0.5882  0.2091
   26DOPE   H2R 3250   2.507   6.081   6.450 -0.2964 -0.2713 -0.1109
   26DOPE   H2S 3251   2.672   6.139   6.467 -0.3181 -2.1133  0.5465
   26DOPE    C3 3252   2.620   6.613   6.527  0.5862  0.0964  0.0578
   26DOPE    HX 3253   2.726   6.590   6.551  0.6656 -2.3223 -2.0559
   26DOPE    HY 3254   2.602   6.713   6.570  0.3903 -1.2031  3.2984
   26DOPE   O31 3255   2.614   6.612   6.381  0.1837  0.2540  0.0861
   26DOPE   C31 3256   2.482   6.648   6.333 -0.0309  0.3976 -0.1281
   26DOPE   O32 3257   2.400   6.693   6.407  0.0861 -0.3558  0.0223
   26DOPE   C32 3258   2.476   6.631   6.186 -0.1528  0.6033  1.0369
   26DOPE   H2X 3259   2.562   6.573   6.146  0.7563  1.5510  1.5685
   26DOPE   H2Y 3260   2.382   6.579   6.158 -0.0080  1.1123 -0.4779
   26DOPE   C23 3261   2.567   6.217   6.287 -0.7857 -0.1339 -0.0803
   26DOPE   H3R 3262   2.652   6.168   6.234  0.4550  1.1203  0.6778
   26DOPE   H3S 3263   2.593   6.325   6.288 -0.5744 -0.1774  1.4578
   26DOPE   C24 3264   2.435   6.177   6.233  0.1563 -0.2137 -0.0500
   26DOPE   H4R 3265   2.356   6.220   6.299 -0.5355  1.2901 -1.7344
   26DOPE   H4S 3266   2.428   6.067   6.226  1.5608 -0.3736  0.7917
   26DOPE   C25 3267   2.395   6.238   6.095  0.7102  0.6025  0.0356
   26DOPE   H5R 3268   2.430   6.343   6.097 -0.1226  0.9835 -2.2666
   26DOPE   H5S 3269   2.284   6.241   6.083  0.7669  3.1980 -0.2735
   26DOPE   C26 3270   2.466   6.182   5.969  0.0855 -0.1557  0.7419
   26DOPE   H6R 3271   2.432   6.079   5.942 -0.2370  0.5158 -1.6677
   26DOPE   H6S 3272   2.574   6.187   5.993  0.0384 -0.4157  1.0117
   26DOPE   C27 3273   2.461   6.270   5.843 -0.1094 -1.0986  0.1179
   26DOPE   H7R 3274   2.504   6.372   5.859 -0.0035 -0.5948 -2.8075
   26DOPE   H7S 3275   2.356   6.287   5.812 -0.0319  0.5116  0.6300
   26DOPE   C28 3276   2.545   6.200   5.734 -0.3463 -0.7334 -0.6841
   26DOPE   H8R 3277   2.489   6.107   5.711 -2.1413 -0.5990  2.6330
   26DOPE   H8S 3278   2.644   6.166   5.771 -0.7671 -0.3311  0.8650
   26DOPE   C29 3279   2.557   6.295   5.619 -0.4311  0.0457  0.3366
   26DOPE   H9R 3280   2.466   6.353   5.596 -1.6913 -2.1718 -0.6241
   26DOPE  C210 3281   2.670   6.315   5.542  0.4463  0.5008 -0.8233
   26DOPE  H10R 3282   2.669   6.395   5.467  0.7246  1.8007  0.5253
   26DOPE  C211 3283   2.809   6.257   5.556 -0.1359  0.0852  0.2638
   26DOPE  H11R 3284   2.839   6.222   5.455 -2.2441 -2.5434  0.4409
   26DOPE  H11S 3285   2.806   6.176   5.632  2.9304  1.3225  1.8553
   26DOPE  C212 3286   2.904   6.377   5.598 -1.0705 -0.3402 -0.3743
   26DOPE  H12R 3287   2.895   6.454   5.518 -0.3853  2.0771  1.7487
   26DOPE  H12S 3288   3.005   6.332   5.592 -1.3100 -0.9175 -0.2364
   26DOPE  C213 3289   2.877   6.462   5.724  0.9044 -0.0583  0.3842
   26DOPE  H13R 3290   2.770   6.489   5.731  0.8766  0.1454 -0.6495
   26DOPE  H13S 3291   2.948   6.547   5.726  0.9325  0.1553 -3.2480
   26DOPE  C214 3292   2.895   6.377   5.857 -0.2231 -0.9189  0.1689
   26DOPE  H14R 3293   2.998   6.336   5.859 -0.1987 -0.9738 -1.1177
   26DOPE  H14S 3294   2.824   6.292   5.863 -0.7760 -0.5608 -1.0311
   26DOPE  C215 3295   2.882   6.467   5.977 -0.5680 -0.2805 -1.1802
   26DOPE  H15R 3296   2.773   6.483   5.992 -0.2617 -0.2105  1.5003
   26DOPE  H15S 3297   2.936   6.563   5.983 -0.0455 -0.6453  3.3224
   26DOPE  C216 3298   2.911   6.396   6.109  0.3651 -0.6019 -0.6824
   26DOPE  H16R 3299   3.018   6.372   6.095  1.3039  2.3407  0.5913
   26DOPE  H16S 3300   2.852   6.303   6.124 -0.0707 -0.0039  1.6692
   26DOPE  C217 3301   2.900   6.495   6.223  0.7072 -0.4722  0.2701
   26DOPE  H17R 3302   2.810   6.559   6.207 -0.8520 -2.5881  0.0779
   26DOPE  H17S 3303   2.989   6.561   6.219 -0.7274  1.5647  0.4819
   26DOPE  C218 3304   2.888   6.428   6.354 -0.1925  0.4230  0.0473
   26DOPE  H18R 3305   2.979   6.365   6.363  0.3393  1.2771  0.9255
   26DOPE  H18S 3306   2.794   6.369   6.365 -0.3347  0.7739  0.7680
   26DOPE  H18T 3307   2.895   6.497   6.441 -0.5992 -0.8199  1.1031
   26DOPE   C33 3308   2.468   6.767   6.101 -0.0895 -0.1684 -0.4095
   26DOPE   H3X 3309   2.383   6.825   6.143  0.6649 -0.3648  1.4605
   26DOPE   H3Y 3310   2.439   6.730   6.000 -1.4540 -0.9923  0.2688
   26DOPE   C34 3311   2.598   6.846   6.084  0.4165 -0.5286  0.2454
   26DOPE   H4X 3312   2.626   6.884   6.185 -1.4630 -3.4772  2.0392
   26DOPE   H4Y 3313   2.681   6.785   6.044  0.1481 -0.5934 -0.2177
   26DOPE   C35 3314   2.584   6.961   5.983 -0.8937 -0.2385  0.0495
   26DOPE   H5X 3315   2.684   7.010   5.979 -0.7047 -0.6912 -1.8599
   26DOPE   H5Y 3316   2.507   7.039   6.002  0.5204  1.0810  0.6059
   26DOPE   C36 3317   2.563   6.918   5.838 -0.1220 -0.0059 -0.7126
   26DOPE   H6X 3318   2.455   6.891   5.834 -0.4241  1.0468 -0.1426
   26DOPE   H6Y 3319   2.629   6.831   5.818  1.0241  0.1838  1.8983
   26DOPE   C37 3320   2.595   7.027   5.742 -0.1387  0.1937 -0.7728
   26DOPE   H7X 3321   2.552   7.125   5.774  2.2236  1.4644 -1.2977
   26DOPE   H7Y 3322   2.705   7.038   5.733 -0.1149  2.4427  1.2075
   26DOPE   C38 3323   2.533   6.994   5.603  0.1225  0.2167 -0.6406
   26DOPE   H8X 3324   2.422   7.000   5.610  0.1885 -0.4045  1.9065
   26DOPE   H8Y 3325   2.565   6.891   5.575  0.9920  0.2205  0.2942
   26DOPE   C39 3326   2.580   7.099   5.508 -0.1865 -0.0436 -0.0908
   26DOPE   H9X 3327   2.513   7.184   5.491  0.5344  0.2970 -1.3051
   26DOPE  C310 3328   2.693   7.100   5.435  0.3555 -0.6141  0.1850
   26DOPE  H10X 3329   2.706   7.190   5.373 -0.8481 -1.0609 -0.7617
   26DOPE  C311 3330   2.812   7.007   5.458  0.1749  0.4559  0.2621
   26DOPE  H11X 3331   2.788   6.928   5.533  0.2768  0.9714  0.8382
   26DOPE  H11Y 3332   2.845   6.942   5.373  1.1687 -0.4297  1.2818
   26DOPE  C312 3333   2.931   7.102   5.481  0.0266 -0.0407  0.2533
   26DOPE  H12X 3334   3.018   7.048   5.525  0.8862  1.8323  0.9778
   26DOPE  H12Y 3335   2.893   7.162   5.567 -2.5478 -0.9373 -0.1914
   26DOPE  C313 3336   2.978   7.191   5.358 -0.0658 -0.4166  0.2822
   26DOPE  H13X 3337   2.909   7.276   5.341  2.8136  1.8189 -1.0898
   26DOPE  H13Y 3338   3.079   7.234   5.378 -0.1744 -0.6490  1.4449
   26DOPE  C314 3339   2.982   7.112   5.225  0.1482  0.4100  0.4292
   26DOPE  H14X 3340   2.882   7.076   5.192 -1.1510  1.8663  2.5339
   26DOPE  H14Y 3341   3.041   7.022   5.254 -1.0716 -0.0564  1.6129
   26DOPE  C315 3342   3.047   7.203   5.120  0.7809 -0.0026 -0.1982
   26DOPE  H15X 3343   3.080   7.142   5.033  2.0418  0.0441  0.2248
   26DOPE  H15Y 3344   3.133   7.248   5.174 -0.9182  4.6365 -0.9602
   26DOPE  C316 3345   2.968   7.318   5.065  0.4318 -0.9622 -0.2770
   26DOPE  H16X 3346   3.022   7.351   4.973 -0.9235  0.0943 -0.7221
   26DOPE  H16Y 3347   2.949   7.401   5.136 -0.4644 -0.2314 -1.3445
   26DOPE  C317 3348   2.822   7.278   5.024 -0.5565  0.2868 -0.0279
   26DOPE  H17X 3349   2.825   7.205   4.940  2.5181  2.2244 -1.8167
   26DOPE  H17Y 3350   2.770   7.235   5.112 -2.3719  0.9035 -0.7554
   26DOPE  C318 3351   2.738   7.405   4.992 -0.6549  0.6236  0.2157
   26DOPE  H18X 3352   2.744   7.476   5.077 -2.5545  0.2104  0.7333
   26DOPE  H18Y 3353   2.790   7.436   4.899  1.9388 -2.6052  0.4012
   26DOPE  H18Z 3354   2.633   7.381   4.964 -1.0526  1.5904  0.8241
   27DOPE     N 3355   7.208   7.511   7.123  0.4681  0.2905  0.3549
   27DOPE   HN1 3356   7.200   7.407   7.127 -2.6270  0.4419 -0.0464
   27DOPE   HN2 3357   7.309   7.528   7.105  0.0073  2.7503 -0.2820
   27DOPE   HN3 3358   7.181   7.565   7.208  1.9404  3.4177 -0.9972
   27DOPE   C12 3359   7.121   7.554   7.013 -0.1231 -0.0818 -0.5020
   27DOPE  H12A 3360   7.016   7.526   7.040 -0.3617 -1.0594 -2.2524
   27DOPE  H12B 3361   7.150   7.485   6.931  3.4392 -1.0412  1.3738
   27DOPE   C11 3362   7.144   7.699   6.973 -0.5281  0.2552  0.0361
   27DOPE  H11A 3363   7.088   7.769   7.038 -1.4113  0.7834 -1.2573
   27DOPE  H11B 3364   7.107   7.716   6.870  0.7420  1.5161 -0.2433
   27DOPE     P 3365   7.335   7.880   6.959 -0.1596  0.0691  0.2053
   27DOPE   O13 3366   7.476   7.872   6.980 -0.5875  0.0231  0.1169
   27DOPE   O14 3367   7.254   7.960   7.053 -0.2772 -0.5516 -0.3609
   27DOPE   O11 3368   7.312   7.923   6.809  0.7726  0.4400  0.3937
   27DOPE   O12 3369   7.281   7.727   6.969 -0.2788 -0.1266 -0.9104
   27DOPE    C1 3370   7.363   7.850   6.694 -0.2064  0.3066 -0.2598
   27DOPE    HA 3371   7.303   7.856   6.600 -0.2779 -0.5610 -0.2853
   27DOPE    HB 3372   7.365   7.742   6.722 -0.1936  0.0754 -1.1174
   27DOPE    C2 3373   7.513   7.888   6.660 -0.4621 -0.1438  0.5899
   27DOPE    HS 3374   7.574   7.894   6.752 -1.0857 -2.1008  1.1814
   27DOPE   O21 3375   7.503   8.012   6.596 -0.5805  0.3208  0.1231
   27DOPE   C21 3376   7.612   8.091   6.606  0.6495 -0.2272 -0.6812
   27DOPE   O22 3377   7.714   8.062   6.667 -0.4464  0.1058  0.2405
   27DOPE   C22 3378   7.571   8.226   6.554 -0.5566 -0.6469 -0.0261
   27DOPE   H2R 3379   7.537   8.286   6.641 -2.3773  0.4209 -1.3924
   27DOPE   H2S 3380   7.491   8.209   6.478  0.6373  0.0823 -1.5028
   27DOPE    C3 3381   7.584   7.785   6.561  0.1011  0.4593 -0.2772
   27DOPE    HX 3382   7.570   7.684   6.604  2.2070  0.6620  1.0320
   27DOPE    HY 3383   7.694   7.801   6.548  0.3422 -0.2166  0.8462
   27DOPE   O31 3384   7.512   7.789   6.439  0.2836  0.3547 -0.4186
   27DOPE   C31 3385   7.547   7.874   6.345 -1.0852  0.0542  0.5128
   27DOPE   O32 3386   7.650   7.939   6.344  0.1237  0.2589 -0.3336
   27DOPE   C32 3387   7.455   7.862   6.216  0.3702 -0.3363  0.2442
   27DOPE   H2X 3388   7.474   7.767   6.163  0.7955  0.8089 -1.7562
   27DOPE   H2Y 3389   7.351   7.881   6.252 -0.8025 -4.8999 -0.0913
   27DOPE   C23 3390   7.671   8.326   6.481 -0.4014  0.5948  0.1677
   27DOPE   H3R 3391   7.724   8.276   6.397  1.0293  0.4174  1.1354
   27DOPE   H3S 3392   7.759   8.345   6.547 -0.6942  1.2230  0.3874
   27DOPE   C24 3393   7.604   8.465   6.444  0.7048  0.8286 -0.4754
   27DOPE   H4R 3394   7.543   8.508   6.527 -1.8043 -1.4945 -0.9763
   27DOPE   H4S 3395   7.530   8.441   6.365 -0.6756 -1.8818  1.4706
   27DOPE   C25 3396   7.715   8.568   6.412  0.3492  0.1699  0.5070
   27DOPE   H5R 3397   7.764   8.540   6.316  1.5260  3.1137  0.1507
   27DOPE   H5S 3398   7.794   8.564   6.490 -1.6905 -0.3815  2.6635
   27DOPE   C26 3399   7.674   8.715   6.406 -0.2806 -0.2113 -0.1630
   27DOPE   H6R 3400   7.722   8.774   6.487  0.4640  1.7719 -1.9321
   27DOPE   H6S 3401   7.564   8.728   6.415 -0.3580 -1.8520  2.0027
   27DOPE   C27 3402   7.712   8.777   6.269  0.2016 -0.6030  0.7098
   27DOPE   H7R 3403   7.661   8.715   6.193  1.0755  0.2868 -0.6505
   27DOPE   H7S 3404   7.820   8.759   6.248 -0.0799 -2.2018  0.5070
   27DOPE   C28 3405   7.685   8.921   6.250  0.2133  0.3639 -0.0808
   27DOPE   H8R 3406   7.732   8.943   6.152 -0.9389 -2.6222 -1.4223
   27DOPE   H8S 3407   7.743   8.965   6.334  0.5882 -0.8173  0.3024
   27DOPE   C29 3408   7.538   8.964   6.248  0.2933 -0.1162  0.1253
   27DOPE   H9R 3409   7.504   8.952   6.351 -2.9069  2.2129 -0.5065
   27DOPE  C210 3410   7.459   9.009   6.152 -0.1862 -0.3317  0.0977
   27DOPE  H10R 3411   7.350   9.005   6.167  0.0638 -2.3380  1.8682
   27DOPE  C211 3412   7.495   9.038   6.008  0.3910  0.4418  0.8225
   27DOPE  H11R 3413   7.599   9.013   5.976 -0.0156 -0.1764 -0.0753
   27DOPE  H11S 3414   7.485   9.145   5.982 -0.9151 -0.4006 -2.8982
   27DOPE  C212 3415   7.420   8.958   5.898  0.0169  0.4057 -0.2681
   27DOPE  H12R 3416   7.311   8.981   5.904 -0.1295  0.2158 -1.7997
   27DOPE  H12S 3417   7.436   8.848   5.906 -1.3949  0.1230 -0.9947
   27DOPE  C213 3418   7.462   9.015   5.759 -0.1458 -0.3394 -0.5308
   27DOPE  H13R 3419   7.570   8.990   5.746  0.1009  0.2734  0.2659
   27DOPE  H13S 3420   7.459   9.125   5.774  0.6461 -0.5788  1.8031
   27DOPE  C214 3421   7.378   8.971   5.637 -0.0833  0.8940  0.0664
   27DOPE  H14R 3422   7.273   8.990   5.668 -0.4044  0.2398 -0.5945
   27DOPE  H14S 3423   7.384   8.862   5.620  1.7091  0.8329  0.8424
   27DOPE  C215 3424   7.416   9.036   5.502  0.2215  0.3183 -0.1003
   27DOPE  H15R 3425   7.522   9.007   5.485 -0.0145 -1.0298  0.6284
   27DOPE  H15S 3426   7.394   9.145   5.508 -2.1328 -0.0367 -1.2765
   27DOPE  C216 3427   7.322   8.983   5.389  0.3075  0.1002 -0.1514
   27DOPE  H16R 3428   7.224   9.022   5.422 -0.2696 -1.8097  0.4869
   27DOPE  H16S 3429   7.313   8.874   5.407 -2.9168  0.5441  1.6948
   27DOPE  C217 3430   7.360   9.014   5.243 -0.3769  0.0556 -0.1828
   27DOPE  H17R 3431   7.462   8.976   5.220 -0.7884 -0.0997 -1.9677
   27DOPE  H17S 3432   7.376   9.124   5.242  1.3240 -0.1496 -1.0633
   27DOPE  C218 3433   7.256   8.972   5.133 -0.0356  1.2867 -0.8106
   27DOPE  H18R 3434   7.294   9.012   5.036  1.0698 -0.7724 -1.2948
   27DOPE  H18S 3435   7.160   9.022   5.157 -0.6500  0.1671 -0.8610
   27DOPE  H18T 3436   7.244   8.862   5.124 -0.2850  1.2719 -0.3153
   27DOPE   C33 3437   7.466   7.982   6.116  0.2254  0.4636 -0.1503
   27DOPE   H3X 3438   7.498   8.075   6.169 -0.1686 -0.2104  1.3263
   27DOPE   H3Y 3439   7.364   8.005   6.080 -1.0489 -0.9704  2.2713
   27DOPE   C34 3440   7.554   7.953   5.992  0.9302  0.6990 -0.0517
   27DOPE   H4X 3441   7.598   8.044   5.945  2.6465  0.6685  1.3750
   27DOPE   H4Y 3442   7.637   7.897   6.040 -0.0370  0.1774  1.0518
   27DOPE   C35 3443   7.489   7.861   5.885  0.5830  0.1603  0.1567
   27DOPE   H5X 3444   7.398   7.908   5.842  0.7513  0.0071 -0.3717
   27DOPE   H5Y 3445   7.446   7.774   5.938  1.2470 -0.7439 -0.7586
   27DOPE   C36 3446   7.584   7.823   5.766  0.1940  0.1815  0.0665
   27DOPE   H6X 3447   7.540   7.753   5.692  1.2027 -0.7600  0.3121
   27DOPE   H6Y 3448   7.665   7.770   5.822 -1.3962  0.3839  2.7301
   27DOPE   C37 3449   7.648   7.939   5.689  0.5901  0.1846  0.2457
   27DOPE   H7X 3450   7.698   7.994   5.771 -0.1389  1.1641  0.0522
   27DOPE   H7Y 3451   7.717   7.902   5.609  2.0995 -1.8328  2.3389
   27DOPE   C38 3452   7.547   8.032   5.617  0.3519  0.2385  0.1355
   27DOPE   H8X 3453   7.482   8.099   5.678 -0.9294  0.1476 -1.0737
   27DOPE   H8Y 3454   7.468   7.970   5.570  1.7081 -0.1235 -1.7677
   27DOPE   C39 3455   7.612   8.114   5.513  0.2351  0.4183 -0.0249
   27DOPE   H9X 3456   7.583   8.090   5.409  0.8829  3.5792 -1.0368
   27DOPE  C310 3457   7.696   8.213   5.533 -0.2987 -0.0379 -0.0118
   27DOPE  H10X 3458   7.716   8.277   5.447 -2.3029  0.0501 -0.4661
   27DOPE  C311 3459   7.741   8.261   5.669  0.9838  0.3662  0.2810
   27DOPE  H11X 3460   7.746   8.371   5.681  2.4258  0.1326  2.4604
   27DOPE  H11Y 3461   7.684   8.216   5.754  1.1950 -0.7465 -0.1492
   27DOPE  C312 3462   7.884   8.212   5.707 -0.0602 -0.2354 -0.6693
   27DOPE  H12X 3463   7.901   8.109   5.668  0.3482 -1.0573  1.5691
   27DOPE  H12Y 3464   7.906   8.237   5.813  1.2537  0.8214 -1.1711
   27DOPE  C313 3465   7.993   8.290   5.634  0.1284 -0.7220  0.2691
   27DOPE  H13X 3466   7.959   8.306   5.529 -1.7676  1.7558  1.1575
   27DOPE  H13Y 3467   7.990   8.387   5.688 -1.2669  0.2190 -1.3837
   27DOPE  C314 3468   8.132   8.238   5.654  0.1167  0.5981  0.2270
   27DOPE  H14X 3469   8.196   8.289   5.578  0.3637  0.8651  0.6094
   27DOPE  H14Y 3470   8.143   8.128   5.646  1.1478  0.7172 -0.2552
   27DOPE  C315 3471   8.179   8.279   5.794  0.1815  0.5661  0.1673
   27DOPE  H15X 3472   8.107   8.245   5.872  0.1786  2.1877  0.9163
   27DOPE  H15Y 3473   8.170   8.389   5.804  0.6987  0.5098  1.2738
   27DOPE  C316 3474   8.323   8.233   5.833 -0.2673 -0.8653 -0.5895
   27DOPE  H16X 3475   8.369   8.182   5.746  2.1677  0.5870 -0.2514
   27DOPE  H16Y 3476   8.319   8.164   5.920  0.4658  0.1973  0.3129
   27DOPE  C317 3477   8.422   8.347   5.869 -0.0462 -0.2161 -0.4333
   27DOPE  H17X 3478   8.521   8.299   5.886 -0.4501 -0.5160  1.1716
   27DOPE  H17Y 3479   8.419   8.420   5.785  0.9520  0.7704  0.3664
   27DOPE  C318 3480   8.373   8.417   5.998  0.1694 -0.1654 -0.3762
   27DOPE  H18X 3481   8.454   8.481   6.040 -0.7044  0.4548  0.4204
   27DOPE  H18Y 3482   8.287   8.483   5.975 -1.1434 -2.3409 -2.1190
   27DOPE  H18Z 3483   8.347   8.337   6.070 -0.7729 -1.4368 -2.0493
   28DOPE     N 3484   1.457   5.790   7.366 -0.7724  0.0143 -0.2274
   28DOPE   HN1 3485   1.518   5.722   7.318  0.9678  0.8014  0.7819
   28DOPE   HN2 3486   1.488   5.795   7.465 -2.7006  0.4844  0.3974
   28DOPE   HN3 3487   1.357   5.760   7.370 -0.8085  0.2160  0.6971
   28DOPE   C12 3488   1.478   5.916   7.290 -0.5698 -0.2857  0.9755
   28DOPE  H12A 3489   1.587   5.934   7.280 -0.6595  0.6779  1.6635
   28DOPE  H12B 3490   1.446   5.998   7.357  1.6468  0.4964  1.1857
   28DOPE   C11 3491   1.415   5.928   7.151  0.1370  0.4983  0.2618
   28DOPE  H11A 3492   1.418   6.030   7.108  1.4019  0.2992 -0.1781
   28DOPE  H11B 3493   1.307   5.912   7.171  0.2274 -0.3748  0.1000
   28DOPE     P 3494   1.585   5.844   6.960 -0.1293 -0.3602  0.0513
   28DOPE   O13 3495   1.663   5.718   6.959 -0.2254  0.5449 -0.1124
   28DOPE   O14 3496   1.646   5.976   6.983  0.3695  0.5646 -0.2144
   28DOPE   O11 3497   1.520   5.849   6.816 -0.0831  0.0756 -0.3327
   28DOPE   O12 3498   1.456   5.826   7.060  0.4943  0.1519 -0.1303
   28DOPE    C1 3499   1.382   5.910   6.810 -0.4581 -0.5931  0.4335
   28DOPE    HA 3500   1.373   6.005   6.867 -2.2533 -0.1820 -0.4724
   28DOPE    HB 3501   1.302   5.841   6.845  0.2722 -0.6813  1.9752
   28DOPE    C2 3502   1.358   5.955   6.658 -0.6819  0.6830  0.9658
   28DOPE    HS 3503   1.269   6.018   6.635 -0.1444  0.4516 -2.0948
   28DOPE   O21 3504   1.360   5.842   6.567  0.4250 -0.0530  0.6869
   28DOPE   C21 3505   1.261   5.765   6.569  0.6144 -0.6415 -0.0556
   28DOPE   O22 3506   1.159   5.782   6.639 -0.4249  0.2795 -0.2099
   28DOPE   C22 3507   1.273   5.659   6.461  0.0060  0.7304 -0.6400
   28DOPE   H2R 3508   1.342   5.578   6.493 -3.4538 -1.9330  0.6773
   28DOPE   H2S 3509   1.319   5.690   6.364  0.9635  1.4931  0.0323
   28DOPE    C3 3510   1.470   6.050   6.621 -0.1926  0.1955  0.1006
   28DOPE    HX 3511   1.569   6.004   6.642  0.6957  1.6345 -0.7094
   28DOPE    HY 3512   1.466   6.143   6.683 -0.7800  0.1594  0.1140
   28DOPE   O31 3513   1.460   6.093   6.484  0.3197  0.1663  0.4895
   28DOPE   C31 3514   1.562   6.145   6.414 -0.3002  0.5982  0.0888
   28DOPE   O32 3515   1.679   6.152   6.452  0.0334 -0.3705  0.0088
   28DOPE   C32 3516   1.519   6.186   6.274  0.5409  0.2182 -0.3337
   28DOPE   H2X 3517   1.458   6.277   6.288  0.4966 -0.1435  2.1252
   28DOPE   H2Y 3518   1.612   6.216   6.221  1.0200  0.4066  0.5906
   28DOPE   C23 3519   1.135   5.593   6.437 -0.4168 -0.2812 -0.6306
   28DOPE   H3R 3520   1.078   5.565   6.528  1.4585  0.0075  0.6823
   28DOPE   H3S 3521   1.157   5.494   6.391  0.2137 -0.6979  0.5190
   28DOPE   C24 3522   1.035   5.686   6.367  0.1192  0.3450  0.0413
   28DOPE   H4R 3523   1.047   5.788   6.409  3.0424  0.6512 -1.2646
   28DOPE   H4S 3524   0.940   5.643   6.405  0.5591  0.5093  1.3947
   28DOPE   C25 3525   1.049   5.684   6.214  0.2053  0.3383  0.7188
   28DOPE   H5R 3526   1.085   5.585   6.179 -3.6556 -1.6105  1.7175
   28DOPE   H5S 3527   1.128   5.756   6.184 -1.5955  1.6215 -1.3205
   28DOPE   C26 3528   0.918   5.720   6.150  0.5463  0.2584  0.4456
   28DOPE   H6R 3529   0.889   5.822   6.185  1.1778  0.7568 -0.4406
   28DOPE   H6S 3530   0.843   5.649   6.192  0.9192 -1.2787 -1.3672
   28DOPE   C27 3531   0.913   5.693   5.996  0.3526  0.8505 -0.1480
   28DOPE   H7R 3532   0.805   5.692   5.968  0.7289 -0.8504 -1.7638
   28DOPE   H7S 3533   0.947   5.591   5.966 -1.3817  0.0670  0.3793
   28DOPE   C28 3534   0.976   5.790   5.895  0.3621 -0.7730  0.5881
   28DOPE   H8R 3535   0.963   5.755   5.790  0.9668  0.6455  0.0126
   28DOPE   H8S 3536   1.086   5.795   5.913  0.8132 -2.0412 -1.4934
   28DOPE   C29 3537   0.908   5.927   5.891 -0.4626 -0.2270  0.0862
   28DOPE   H9R 3538   0.815   5.930   5.949  0.0753  0.0028  0.9509
   28DOPE  C210 3539   0.954   6.036   5.827 -0.0248  0.0290 -1.5146
   28DOPE  H10R 3540   0.893   6.127   5.822 -0.9478 -0.4974 -0.3219
   28DOPE  C211 3541   1.088   6.062   5.763  1.0858 -0.1594  0.1760
   28DOPE  H11R 3542   1.167   5.985   5.776  1.9897  0.7421  0.1872
   28DOPE  H11S 3543   1.122   6.161   5.799  2.2652 -0.2133 -0.7210
   28DOPE  C212 3544   1.064   6.090   5.613  0.3815  0.3858  0.1050
   28DOPE  H12R 3545   0.995   6.176   5.605 -1.6453 -1.1833 -0.3265
   28DOPE  H12S 3546   1.009   6.000   5.577  0.5418 -0.5878  2.1524
   28DOPE  C213 3547   1.178   6.113   5.508  0.4473  0.0871  0.5024
   28DOPE  H13R 3548   1.259   6.038   5.522  1.8355  1.6316  0.9862
   28DOPE  H13S 3549   1.232   6.207   5.530  3.0484 -0.4899 -2.5906
   28DOPE  C214 3550   1.122   6.124   5.365 -0.0323  0.8532  0.1849
   28DOPE  H14R 3551   1.023   6.174   5.361 -1.2686 -1.5159 -0.7812
   28DOPE  H14S 3552   1.110   6.024   5.319  0.6704  1.2775 -0.9773
   28DOPE  C215 3553   1.226   6.197   5.276 -0.2645  0.5559 -0.3097
   28DOPE  H15R 3554   1.334   6.170   5.285  0.4935  2.9021 -1.4483
   28DOPE  H15S 3555   1.225   6.304   5.308 -0.3099  0.4562  0.0258
   28DOPE  C216 3556   1.188   6.178   5.129 -0.2571 -0.6733  0.2983
   28DOPE  H16R 3557   1.091   6.229   5.110  1.0393  2.0515  0.4986
   28DOPE  H16S 3558   1.174   6.069   5.115  0.6961 -0.5658 -1.9941
   28DOPE  C217 3559   1.282   6.233   5.022 -0.4835 -0.9212  0.4150
   28DOPE  H17R 3560   1.245   6.195   4.924 -0.6813 -2.6642  1.1153
   28DOPE  H17S 3561   1.383   6.211   5.062  0.0213 -0.4952 -0.5874
   28DOPE  C218 3562   1.251   6.385   4.995  0.0760 -0.3756  0.4874
   28DOPE  H18R 3563   1.152   6.396   4.945 -0.5295 -1.3551  1.4067
   28DOPE  H18S 3564   1.322   6.436   4.927 -0.1520  0.2578  0.7147
   28DOPE  H18T 3565   1.244   6.445   5.088 -1.4837  1.2807 -0.6335
   28DOPE   C33 3566   1.425   6.087   6.199 -0.4632 -0.6988  0.0575
   28DOPE   H3X 3567   1.340   6.054   6.263 -1.3282  0.7192 -0.3279
   28DOPE   H3Y 3568   1.482   5.997   6.167  0.3316  0.0701 -0.7456
   28DOPE   C34 3569   1.372   6.146   6.066 -0.3360 -0.0226  0.7714
   28DOPE   H4X 3570   1.316   6.086   5.992 -0.7298  1.6545 -0.3496
   28DOPE   H4Y 3571   1.300   6.228   6.085 -0.0078  1.1552 -2.4295
   28DOPE   C35 3572   1.483   6.212   5.976  0.1457 -0.2715 -0.2705
   28DOPE   H5X 3573   1.560   6.142   5.939 -0.2640  0.1192 -1.9353
   28DOPE   H5Y 3574   1.532   6.294   6.033 -1.6148  0.7550 -0.1456
   28DOPE   C36 3575   1.412   6.269   5.857 -0.4736 -0.5742 -0.5290
   28DOPE   H6X 3576   1.317   6.319   5.884 -1.1536  0.1442 -3.7498
   28DOPE   H6Y 3577   1.387   6.190   5.783  0.6834  0.3021 -1.9072
   28DOPE   C37 3578   1.500   6.368   5.776  0.1014 -0.1905  0.1936
   28DOPE   H7X 3579   1.515   6.453   5.846 -1.8785  0.7519 -0.4515
   28DOPE   H7Y 3580   1.601   6.328   5.750  1.0507  2.1394  0.0655
   28DOPE   C38 3581   1.428   6.420   5.647  0.0501 -0.4072 -0.1725
   28DOPE   H8X 3582   1.341   6.480   5.682  0.1186 -0.5759  0.2906
   28DOPE   H8Y 3583   1.398   6.339   5.577  0.8692 -1.3913  0.5940
   28DOPE   C39 3584   1.512   6.520   5.576 -0.0409 -0.0901 -0.3440
   28DOPE   H9X 3585   1.517   6.619   5.622  2.2995 -1.0919  1.7692
   28DOPE  C310 3586   1.575   6.508   5.455  0.1641  0.2438 -0.4104
   28DOPE  H10X 3587   1.626   6.594   5.408 -0.2190 -0.5215 -2.2954
   28DOPE  C311 3588   1.586   6.391   5.359  0.2817 -0.6713 -0.7768
   28DOPE  H11X 3589   1.690   6.354   5.353  0.7149  0.0707  1.3559
   28DOPE  H11Y 3590   1.522   6.307   5.395 -0.3371  0.0343 -0.2024
   28DOPE  C312 3591   1.550   6.433   5.220 -0.1127 -0.9073  0.6594
   28DOPE  H12X 3592   1.449   6.479   5.216 -1.2006 -3.0226  2.2923
   28DOPE  H12Y 3593   1.532   6.339   5.164 -0.7940  0.2712 -1.2093
   28DOPE  C313 3594   1.653   6.524   5.147 -0.0450  0.4252  0.7229
   28DOPE  H13X 3595   1.675   6.615   5.207 -0.9430  2.0196 -1.2638
   28DOPE  H13Y 3596   1.742   6.460   5.130 -0.5229 -0.0979  0.1682
   28DOPE  C314 3597   1.608   6.564   5.004  0.1581  0.1243  0.2913
   28DOPE  H14X 3598   1.528   6.640   5.013 -0.0419 -0.2229  1.5993
   28DOPE  H14Y 3599   1.559   6.475   4.957 -0.2243  1.0825 -1.2104
   28DOPE  C315 3600   1.713   6.628   4.911 -0.0621  0.2884 -0.0261
   28DOPE  H15X 3601   1.795   6.554   4.902  1.7368  2.2487 -0.4268
   28DOPE  H15Y 3602   1.752   6.721   4.956 -0.5847  1.4159 -1.8061
   28DOPE  C316 3603   1.659   6.653   4.765 -0.1974  0.0438 -0.1801
   28DOPE  H16X 3604   1.625   6.557   4.721  0.3675  0.4940 -1.6720
   28DOPE  H16Y 3605   1.748   6.687   4.707 -0.3112  1.3280  0.3779
   28DOPE  C317 3606   1.551   6.760   4.744 -0.1288  0.2682  0.0944
   28DOPE  H17X 3607   1.506   6.743   4.644 -0.0556  0.4256  0.0357
   28DOPE  H17Y 3608   1.464   6.753   4.813 -1.6542  0.2972 -1.7799
   28DOPE  C318 3609   1.605   6.903   4.749 -0.2384  0.1136 -0.4926
   28DOPE  H18X 3610   1.632   6.921   4.856 -0.7204  1.1820 -0.5354
   28DOPE  H18Y 3611   1.696   6.922   4.688 -0.1537 -4.3013 -2.0549
   28DOPE  H18Z 3612   1.527   6.981   4.737  0.6607  1.1750  0.2687
   29DOPE     N 3613   1.859   1.301   7.141  0.0756  0.2178  0.1316
   29DOPE   HN1 3614   1.960   1.323   7.149 -0.3970  2.7169  0.0798
   29DOPE   HN2 3615   1.820   1.351   7.059  0.5087  3.5375  1.7895
   29DOPE   HN3 3616   1.813   1.332   7.229  3.2138  0.5788  1.7660
   29DOPE   C12 3617   1.862   1.148   7.110 -0.2589  0.4996  1.4737
   29DOPE  H12A 3618   1.903   1.087   7.192 -1.3218 -3.4029 -0.6461
   29DOPE  H12B 3619   1.925   1.141   7.018 -0.7822  1.0872  1.0579
   29DOPE   C11 3620   1.721   1.089   7.094  0.4185  0.2438 -0.2837
   29DOPE  H11A 3621   1.723   0.983   7.058 -1.7998 -0.1048  0.4394
   29DOPE  H11B 3622   1.665   1.140   7.012  1.2602 -0.2111 -1.1617
   29DOPE     P 3623   1.633   0.995   7.329  0.4911  0.0729  0.1003
   29DOPE   O13 3624   1.536   1.042   7.430  0.0161 -0.1356  0.7962
   29DOPE   O14 3625   1.757   0.934   7.378 -0.0257 -0.0769 -0.6513
   29DOPE   O11 3626   1.575   0.878   7.240  0.3925 -0.5840 -1.0917
   29DOPE   O12 3627   1.656   1.107   7.214 -0.5883  0.1177 -0.0534
   29DOPE    C1 3628   1.454   0.899   7.166  0.5480 -0.0947  0.0108
   29DOPE    HA 3629   1.444   0.994   7.108 -0.4211 -0.3592 -0.2750
   29DOPE    HB 3630   1.368   0.891   7.236  0.0719  2.5879 -0.1569
   29DOPE    C2 3631   1.438   0.781   7.060  0.6455 -0.0976 -0.4755
   29DOPE    HS 3632   1.449   0.687   7.119 -1.1922 -0.1500 -0.1583
   29DOPE   O21 3633   1.543   0.794   6.959  0.0761  0.8015 -0.5121
   29DOPE   C21 3634   1.605   0.674   6.934  0.6360  0.0915  0.4737
   29DOPE   O22 3635   1.564   0.566   6.977 -0.5900 -0.0417  0.2328
   29DOPE   C22 3636   1.728   0.696   6.846 -0.3632 -0.1535  0.9166
   29DOPE   H2R 3637   1.805   0.633   6.896  1.0198 -1.4794 -2.5988
   29DOPE   H2S 3638   1.765   0.801   6.844  0.3370 -0.1309 -5.3264
   29DOPE    C3 3639   1.296   0.767   7.003  0.0727 -0.3114 -0.1450
   29DOPE    HX 3640   1.276   0.869   6.963  1.5011 -0.0613 -0.2894
   29DOPE    HY 3641   1.219   0.747   7.081  0.2679 -1.1799 -0.1672
   29DOPE   O31 3642   1.282   0.681   6.890  0.3759  0.3516  0.1450
   29DOPE   C31 3643   1.254   0.551   6.923  0.2294  0.0752  0.0355
   29DOPE   O32 3644   1.241   0.511   7.037  0.5044 -0.0125 -0.1094
   29DOPE   C32 3645   1.247   0.465   6.798  0.0279 -0.4602  0.2859
   29DOPE   H2X 3646   1.267   0.359   6.825  0.7013 -0.4576 -0.1958
   29DOPE   H2Y 3647   1.145   0.483   6.758  0.3673 -1.6775 -1.2376
   29DOPE   C23 3648   1.718   0.661   6.695 -0.2218  0.0551 -0.2737
   29DOPE   H3R 3649   1.695   0.751   6.634  2.4489 -0.6564 -2.5409
   29DOPE   H3S 3650   1.632   0.592   6.680 -1.4664  1.9021 -2.3542
   29DOPE   C24 3651   1.845   0.608   6.625 -0.5961 -0.0598  0.2655
   29DOPE   H4R 3652   1.854   0.498   6.639 -0.5816 -0.3127 -1.4884
   29DOPE   H4S 3653   1.933   0.664   6.661 -2.0618  1.5934  1.4881
   29DOPE   C25 3654   1.856   0.622   6.477 -0.9140  0.3016  1.1861
   29DOPE   H5R 3655   1.951   0.582   6.437 -0.9259  2.8865 -1.7812
   29DOPE   H5S 3656   1.859   0.732   6.461 -0.8182  0.1104 -0.2683
   29DOPE   C26 3657   1.734   0.570   6.392 -0.4080 -0.0261  0.3377
   29DOPE   H6R 3658   1.650   0.637   6.418 -0.0807  0.1050  1.0717
   29DOPE   H6S 3659   1.702   0.464   6.404  0.9799 -0.9210 -2.7556
   29DOPE   C27 3660   1.775   0.605   6.250 -0.3234 -0.7214  0.2106
   29DOPE   H7R 3661   1.821   0.705   6.237  0.6319 -1.2888 -1.1363
   29DOPE   H7S 3662   1.688   0.614   6.182 -0.1868 -2.8234 -0.3309
   29DOPE   C28 3663   1.861   0.498   6.171 -0.5816 -0.3563 -0.2997
   29DOPE   H8R 3664   1.949   0.479   6.236 -1.6287 -1.1288  0.9602
   29DOPE   H8S 3665   1.896   0.540   6.075 -3.5852  0.4228 -1.1437
   29DOPE   C29 3666   1.792   0.366   6.159 -0.0982 -0.3582 -0.0536
   29DOPE   H9R 3667   1.742   0.330   6.250  0.5061 -0.1395  0.3786
   29DOPE  C210 3668   1.772   0.300   6.040 -0.0751 -0.5967 -0.5154
   29DOPE  H10R 3669   1.731   0.198   6.038  0.6489 -0.9357 -3.8499
   29DOPE  C211 3670   1.817   0.329   5.895 -0.1409  0.0814 -0.1533
   29DOPE  H11R 3671   1.867   0.428   5.889  1.7671 -0.6299  2.2795
   29DOPE  H11S 3672   1.730   0.333   5.826 -0.2713  0.0774  0.0104
   29DOPE  C212 3673   1.925   0.235   5.830 -0.6560  0.0688 -0.0147
   29DOPE  H12R 3674   1.903   0.129   5.857  1.8852 -0.3354  0.7501
   29DOPE  H12S 3675   2.019   0.253   5.887 -1.8346  3.1265  1.1088
   29DOPE  C213 3676   1.935   0.246   5.676 -0.0657 -0.6336  0.7693
   29DOPE  H13R 3677   1.995   0.335   5.648  0.1806 -0.3840  2.0268
   29DOPE  H13S 3678   1.829   0.261   5.646  0.5251  1.1071 -0.6511
   29DOPE  C214 3679   2.002   0.133   5.600 -0.1823 -0.2521  0.0699
   29DOPE  H14R 3680   1.962   0.037   5.640  1.5761 -0.7923  0.6188
   29DOPE  H14S 3681   2.109   0.126   5.630 -0.4524  0.6061  1.2964
   29DOPE  C215 3682   1.973   0.138   5.449  0.0499 -0.0876 -0.3629
   29DOPE  H15R 3683   1.997   0.236   5.402  1.2656 -0.2951 -0.2133
   29DOPE  H15S 3684   1.864   0.126   5.432 -0.1056  1.4344 -0.5639
   29DOPE  C216 3685   2.043   0.014   5.380 -0.6823  0.1570  0.2646
   29DOPE  H16R 3686   1.986  -0.026   5.293  2.5281 -2.4623 -0.8696
   29DOPE  H16S 3687   2.051  -0.073   5.448  1.2004  0.2378  0.1841
   29DOPE  C217 3688   2.184   0.046   5.323  0.5456  0.3775  0.0890
   29DOPE  H17R 3689   2.251   0.040   5.411 -1.6708  1.6915  1.9477
   29DOPE  H17S 3690   2.184   0.142   5.267  0.6076  0.5079  0.3134
   29DOPE  C218 3691   2.228  -0.062   5.216 -0.5539  0.0080 -0.0510
   29DOPE  H18R 3692   2.147  -0.054   5.140 -0.9495  4.7016  0.6184
   29DOPE  H18S 3693   2.221  -0.165   5.259  2.7989  0.4378  1.7878
   29DOPE  H18T 3694   2.323  -0.044   5.161 -2.0529  2.3322 -2.0695
   29DOPE   C33 3695   1.353   0.489   6.686  0.2516  0.2356  0.0383
   29DOPE   H3X 3696   1.438   0.420   6.704  0.1196  0.0594 -0.0070
   29DOPE   H3Y 3697   1.377   0.597   6.676 -0.1414  0.8129  3.8324
   29DOPE   C34 3698   1.303   0.456   6.548  0.2654  0.0352 -0.0858
   29DOPE   H4X 3699   1.267   0.351   6.545  0.2964  0.0237 -0.0568
   29DOPE   H4Y 3700   1.211   0.517   6.530  1.4433  1.5193 -1.3503
   29DOPE   C35 3701   1.401   0.482   6.429 -0.4903 -0.7912  0.0358
   29DOPE   H5X 3702   1.495   0.422   6.438 -1.2056 -2.0250 -0.4643
   29DOPE   H5Y 3703   1.417   0.592   6.432 -1.1363 -0.7069  1.7806
   29DOPE   C36 3704   1.333   0.446   6.301  1.4478  0.6837 -0.2273
   29DOPE   H6X 3705   1.235   0.498   6.289  2.6714  2.7801 -1.8598
   29DOPE   H6Y 3706   1.310   0.337   6.295  2.0922  0.6120 -2.7332
   29DOPE   C37 3707   1.421   0.456   6.181  0.1971  0.4824  0.5825
   29DOPE   H7X 3708   1.454   0.560   6.160 -2.3661  1.2811  0.1714
   29DOPE   H7Y 3709   1.511   0.392   6.193  0.2032  0.3235 -0.2405
   29DOPE   C38 3710   1.356   0.403   6.050 -0.9352  0.0600 -0.0990
   29DOPE   H8X 3711   1.308   0.306   6.075 -0.4998  0.4750  2.5480
   29DOPE   H8Y 3712   1.428   0.394   5.965  0.0573 -0.1847  0.7534
   29DOPE   C39 3713   1.260   0.509   5.999  0.1511 -0.5968 -0.0565
   29DOPE   H9X 3714   1.304   0.593   5.943 -1.3986 -0.0252 -0.4604
   29DOPE  C310 3715   1.130   0.495   5.991  0.1642 -0.4300  0.0802
   29DOPE  H10X 3716   1.081   0.585   5.952  1.4489 -0.6735 -2.2902
   29DOPE  C311 3717   1.039   0.391   6.044 -0.3107 -0.0082 -0.1948
   29DOPE  H11X 3718   0.983   0.339   5.964 -0.8980  0.8249 -0.3355
   29DOPE  H11Y 3719   1.087   0.308   6.100 -1.5892  0.1411  1.1806
   29DOPE  C312 3720   0.930   0.450   6.139  0.8248 -0.0958 -0.3485
   29DOPE  H12X 3721   0.841   0.383   6.132  1.1497 -0.7737  1.4572
   29DOPE  H12Y 3722   0.879   0.543   6.107 -0.3169  0.3078  2.3378
   29DOPE  C313 3723   0.964   0.448   6.287 -0.5644  0.1996 -0.0086
   29DOPE  H13X 3724   1.028   0.362   6.316 -0.2032  0.6142  0.4376
   29DOPE  H13Y 3725   1.031   0.534   6.309  2.3471 -1.6603 -1.1318
   29DOPE  C314 3726   0.844   0.449   6.382  0.3570 -0.9052  0.6627
   29DOPE  H14X 3727   0.796   0.351   6.362 -0.6077 -0.7328  1.9891
   29DOPE  H14Y 3728   0.770   0.527   6.356  0.1598 -0.6260  1.9799
   29DOPE  C315 3729   0.870   0.442   6.534 -0.1144 -0.0784 -0.1755
   29DOPE  H15X 3730   0.904   0.543   6.565 -0.8247  0.2435 -0.4358
   29DOPE  H15Y 3731   0.947   0.368   6.566 -2.2567 -2.1704  0.4266
   29DOPE  C316 3732   0.739   0.397   6.596  0.3608 -0.2065  0.0361
   29DOPE  H16X 3733   0.678   0.362   6.511  0.1441 -0.0305  0.1180
   29DOPE  H16Y 3734   0.684   0.483   6.642 -1.3680 -0.0742 -2.1252
   29DOPE  C317 3735   0.747   0.277   6.691 -0.1999  0.8122  0.5401
   29DOPE  H17X 3736   0.640   0.249   6.702  0.1520 -0.4351  0.9144
   29DOPE  H17Y 3737   0.793   0.195   6.633 -1.3772 -1.4803  2.6605
   29DOPE  C318 3738   0.813   0.307   6.823 -0.6767  0.1139  0.7788
   29DOPE  H18X 3739   0.788   0.225   6.894  2.6143 -0.8096  1.0327
   29DOPE  H18Y 3740   0.922   0.308   6.802 -0.8037  0.6554  0.0850
   29DOPE  H18Z 3741   0.784   0.404   6.869 -1.0606  0.1808  0.4021
   30DOPE     N 3742   1.892   5.567   6.959  0.2429  0.0357  0.5410
   30DOPE   HN1 3743   1.929   5.585   6.863  0.0430  0.7790  0.5941
   30DOPE   HN2 3744   1.869   5.467   6.977 -1.1121  0.2691  0.2381
   30DOPE   HN3 3745   1.802   5.619   6.955 -0.7006 -1.6112 -1.7581
   30DOPE   C12 3746   1.988   5.608   7.070  0.2600  0.4005 -0.6158
   30DOPE  H12A 3747   2.080   5.549   7.053 -0.1352 -0.2517 -0.5102
   30DOPE  H12B 3748   1.947   5.572   7.167  4.4324 -1.0124  0.8401
   30DOPE   C11 3749   2.012   5.759   7.075  0.3263  0.0418 -0.6082
   30DOPE  H11A 3750   2.060   5.789   7.171 -1.2401  1.6935 -0.3043
   30DOPE  H11B 3751   1.918   5.816   7.088  2.2603  3.0086  1.8918
   30DOPE     P 3752   2.181   5.916   6.951  0.2267 -0.1766  0.0316
   30DOPE   O13 3753   2.248   5.910   6.819  0.0728  0.1277  0.6679
   30DOPE   O14 3754   2.260   5.913   7.074 -0.0219  0.0812 -0.2746
   30DOPE   O11 3755   2.084   6.044   6.949 -0.1545 -0.1957 -0.3459
   30DOPE   O12 3756   2.088   5.793   6.960  0.2336 -0.0638  0.4095
   30DOPE    C1 3757   1.964   6.049   6.871  0.4598 -0.6052 -0.0803
   30DOPE    HA 3758   1.879   6.099   6.920  0.6719  0.0968 -0.4103
   30DOPE    HB 3759   1.927   5.950   6.836 -0.9614 -0.4716  0.9723
   30DOPE    C2 3760   1.980   6.145   6.744  0.2891 -0.4486 -0.2458
   30DOPE    HS 3761   1.893   6.128   6.677  0.0819 -0.9239  0.1359
   30DOPE   O21 3762   2.094   6.103   6.676 -0.1229  0.1552 -0.3350
   30DOPE   C21 3763   2.083   5.997   6.599 -0.3463  0.1137  0.3403
   30DOPE   O22 3764   1.989   5.926   6.596  0.3361  0.1289  0.0693
   30DOPE   C22 3765   2.213   5.979   6.516  0.8543  0.0398  0.3414
   30DOPE   H2R 3766   2.295   5.967   6.590  0.8970 -0.3754  0.2303
   30DOPE   H2S 3767   2.235   6.078   6.470 -3.5532  0.6696 -0.8816
   30DOPE    C3 3768   1.991   6.289   6.775  0.0650  0.0180  0.0998
   30DOPE    HX 3769   2.094   6.291   6.816 -0.2881  0.5127  1.0007
   30DOPE    HY 3770   1.918   6.315   6.855 -0.1990  1.1882 -0.4949
   30DOPE   O31 3771   1.973   6.364   6.656  0.2242 -0.3357  0.3207
   30DOPE   C31 3772   2.063   6.449   6.626  0.2262  0.1458  0.6312
   30DOPE   O32 3773   2.159   6.480   6.698  0.3461  0.4037  0.0747
   30DOPE   C32 3774   2.036   6.504   6.493 -0.4076  0.2542  0.0566
   30DOPE   H2X 3775   1.958   6.583   6.485  0.2183  0.8614 -0.1642
   30DOPE   H2Y 3776   2.134   6.551   6.467  0.1639 -1.8117 -1.7554
   30DOPE   C23 3777   2.205   5.863   6.407 -0.0754  0.0796 -0.0715
   30DOPE   H3R 3778   2.143   5.779   6.445  0.8358 -1.2430 -1.3738
   30DOPE   H3S 3779   2.307   5.827   6.379 -0.2434  0.9268 -1.9095
   30DOPE   C24 3780   2.148   5.906   6.275 -0.0779 -0.2105  0.1026
   30DOPE   H4R 3781   2.168   5.831   6.196  2.2229  0.6960 -0.2597
   30DOPE   H4S 3782   2.191   6.007   6.255 -2.8634  1.5045  2.0565
   30DOPE   C25 3783   1.994   5.941   6.283  0.0028  0.0478  0.7204
   30DOPE   H5R 3784   1.986   6.037   6.340  0.2892 -1.0942  2.7857
   30DOPE   H5S 3785   1.938   5.855   6.326  1.2536 -1.7599 -1.0959
   30DOPE   C26 3786   1.932   5.960   6.135 -0.0849  0.1621 -0.8844
   30DOPE   H6R 3787   1.822   5.958   6.147  0.0176 -0.1672  0.0762
   30DOPE   H6S 3788   1.975   5.878   6.073 -0.0874 -0.5686  0.0716
   30DOPE   C27 3789   1.979   6.090   6.069 -1.0307  0.0162  0.3333
   30DOPE   H7R 3790   2.086   6.076   6.042 -0.9161  0.5275  0.5226
   30DOPE   H7S 3791   1.969   6.173   6.142 -1.4696  0.8985 -0.6938
   30DOPE   C28 3792   1.897   6.126   5.940  0.5457  0.2131 -0.3967
   30DOPE   H8R 3793   1.936   6.223   5.903 -1.0036  0.3551 -1.7643
   30DOPE   H8S 3794   1.792   6.139   5.975 -0.3127 -2.1429 -1.8230
   30DOPE   C29 3795   1.909   6.019   5.832 -0.2678 -0.3783  0.2398
   30DOPE   H9R 3796   1.832   5.940   5.827  0.3233 -0.9246 -0.9515
   30DOPE  C210 3797   1.997   6.027   5.732 -0.3003 -0.1849 -0.1292
   30DOPE  H10R 3798   2.008   5.943   5.661 -0.9775 -0.4833  0.1109
   30DOPE  C211 3799   2.105   6.129   5.707 -0.2656  0.2755 -0.1782
   30DOPE  H11R 3800   2.196   6.065   5.703 -1.3980 -1.8380  3.1006
   30DOPE  H11S 3801   2.124   6.191   5.797 -1.1694 -0.0915  0.2846
   30DOPE  C212 3802   2.081   6.232   5.596  0.4092  0.8256 -0.3078
   30DOPE  H12R 3803   2.175   6.288   5.576  1.5905 -0.6831  0.7834
   30DOPE  H12S 3804   1.994   6.294   5.627 -3.3408 -2.9060 -2.4649
   30DOPE  C213 3805   2.043   6.166   5.455 -0.0553  0.2899 -0.7726
   30DOPE  H13R 3806   2.044   6.261   5.398  2.2303  1.1000  0.4600
   30DOPE  H13S 3807   1.950   6.106   5.467  0.1811 -0.2057 -1.3815
   30DOPE  C214 3808   2.150   6.073   5.398 -0.1656  0.2258  0.9551
   30DOPE  H14R 3809   2.159   5.981   5.459  1.1568 -1.0174 -0.9482
   30DOPE  H14S 3810   2.246   6.129   5.406  0.2765 -0.3529 -0.0212
   30DOPE  C215 3811   2.137   6.042   5.248  0.1521 -0.4278 -0.1773
   30DOPE  H15R 3812   2.126   6.134   5.187 -0.8990 -1.1621 -1.1277
   30DOPE  H15S 3813   2.040   5.988   5.240  0.7848 -1.3237 -2.7448
   30DOPE  C216 3814   2.240   5.953   5.177 -0.4671  0.3094  0.6316
   30DOPE  H16R 3815   2.217   5.928   5.071  0.6412  0.1850  0.4027
   30DOPE  H16S 3816   2.255   5.863   5.241  0.9017 -0.8552 -1.2304
   30DOPE  C217 3817   2.377   6.027   5.154 -0.2068 -0.4405 -0.0597
   30DOPE  H17R 3818   2.398   6.069   5.254 -1.2392 -2.6757  1.1868
   30DOPE  H17S 3819   2.367   6.111   5.082 -0.2296  0.7575  1.3124
   30DOPE  C218 3820   2.495   5.938   5.114  0.2994 -0.5768  0.2632
   30DOPE  H18R 3821   2.511   5.855   5.186 -4.3019 -3.3282 -1.4216
   30DOPE  H18S 3822   2.586   5.998   5.097 -0.8610  0.6657 -1.9154
   30DOPE  H18T 3823   2.478   5.886   5.017  0.5331 -1.5210  0.7143
   30DOPE   C33 3824   2.003   6.405   6.376 -0.1088  0.1449 -0.0599
   30DOPE   H3X 3825   1.898   6.371   6.382  0.4752 -2.7134 -3.0150
   30DOPE   H3Y 3826   2.065   6.314   6.391 -0.8911 -0.2148  1.1042
   30DOPE   C34 3827   2.030   6.469   6.244 -0.2155 -0.1829 -0.1400
   30DOPE   H4X 3828   2.107   6.547   6.258 -0.0133 -0.4590  0.3210
   30DOPE   H4Y 3829   2.071   6.402   6.166  2.3505  1.7463 -0.5701
   30DOPE   C35 3830   1.902   6.533   6.193  0.4186  0.0790 -0.4061
   30DOPE   H5X 3831   1.865   6.606   6.267 -1.2803  0.6217 -1.7446
   30DOPE   H5Y 3832   1.825   6.453   6.192  1.6463 -1.1731  0.7547
   30DOPE   C36 3833   1.913   6.606   6.063  0.0426  0.1068  0.4027
   30DOPE   H6X 3834   1.951   6.537   5.984  0.7938 -0.1111  0.9393
   30DOPE   H6Y 3835   1.978   6.696   6.058 -1.5669  1.2551 -2.2703
   30DOPE   C37 3836   1.771   6.648   6.018  0.5426  0.0068  0.1191
   30DOPE   H7X 3837   1.701   6.563   6.025  0.5222 -0.0117 -0.2503
   30DOPE   H7Y 3838   1.745   6.724   6.095 -0.5257  0.6917 -0.8795
   30DOPE   C38 3839   1.759   6.713   5.877 -0.8145 -0.0818 -0.2113
   30DOPE   H8X 3840   1.828   6.800   5.883 -2.1721  0.9946  0.3291
   30DOPE   H8Y 3841   1.653   6.737   5.855 -0.8062 -0.2369 -0.4190
   30DOPE   C39 3842   1.793   6.611   5.767  0.5730 -0.2237 -0.3833
   30DOPE   H9X 3843   1.746   6.514   5.784  1.5300 -0.2587  2.6855
   30DOPE  C310 3844   1.872   6.626   5.665 -0.0935  0.3877 -0.4949
   30DOPE  H10X 3845   1.899   6.541   5.601  0.0794  0.3495 -0.3732
   30DOPE  C311 3846   1.942   6.754   5.624  0.8197  0.5607 -0.0073
   30DOPE  H11X 3847   1.879   6.845   5.616  1.4601  1.0702  0.6181
   30DOPE  H11Y 3848   2.023   6.773   5.698 -0.2401 -0.8416  1.5968
   30DOPE  C312 3849   2.014   6.740   5.490 -0.2066  0.0497 -0.4207
   30DOPE  H12X 3850   2.078   6.651   5.471  0.0389 -0.1834  1.3228
   30DOPE  H12Y 3851   2.072   6.832   5.469  1.2770 -0.6043  0.6472
   30DOPE  C313 3852   1.911   6.735   5.379  1.0299  0.4682  0.0255
   30DOPE  H13X 3853   1.846   6.645   5.394  2.6731 -1.1283 -1.8640
   30DOPE  H13Y 3854   1.850   6.827   5.386 -0.9771 -0.8525  1.0897
   30DOPE  C314 3855   1.975   6.735   5.240  0.2268  0.4998 -0.3263
   30DOPE  H14X 3856   2.042   6.823   5.223 -1.3527  2.1303  1.3863
   30DOPE  H14Y 3857   1.890   6.740   5.170 -0.7928 -1.5384  0.7006
   30DOPE  C315 3858   2.054   6.608   5.220  0.6874  0.0204 -0.5499
   30DOPE  H15X 3859   2.013   6.535   5.293  1.4249 -0.6203 -0.7639
   30DOPE  H15Y 3860   2.162   6.621   5.242  0.2057  4.2414  0.2712
   30DOPE  C316 3861   2.055   6.549   5.079 -0.1949  0.0139 -0.1752
   30DOPE  H16X 3862   2.099   6.626   5.012 -1.4682  0.3135 -0.6917
   30DOPE  H16Y 3863   1.951   6.544   5.040 -0.6581  0.1414  1.0048
   30DOPE  C317 3864   2.118   6.416   5.070  0.2758 -0.5403  0.4884
   30DOPE  H17X 3865   2.216   6.420   5.122  0.8443  0.0284 -0.5910
   30DOPE  H17Y 3866   2.063   6.330   5.115 -0.6609 -0.1875  0.0352
   30DOPE  C318 3867   2.149   6.378   4.929 -0.4400 -0.3921 -0.0044
   30DOPE  H18X 3868   2.054   6.402   4.877 -1.8665  0.3066  2.7325
   30DOPE  H18Y 3869   2.232   6.440   4.889 -1.2748 -0.3362 -1.7259
   30DOPE  H18Z 3870   2.172   6.269   4.927  0.5903 -0.1977 -2.5337
   31DOPE     N 3871   3.316   2.094   2.569  0.4029 -0.6361 -0.0712
   31DOPE   HN1 3872   3.363   2.187   2.564  2.6251 -1.5082  2.0848
   31DOPE   HN2 3873   3.396   2.028   2.558  0.8881  0.0347 -0.6664
   31DOPE   HN3 3874   3.250   2.081   2.490 -0.5101  1.5787  0.2361
   31DOPE   C12 3875   3.249   2.075   2.698 -0.5900 -0.1552  0.0470
   31DOPE  H12A 3876   3.228   1.966   2.711  1.1076 -0.3858  1.1265
   31DOPE  H12B 3877   3.150   2.124   2.683 -0.6134 -0.2915 -0.2564
   31DOPE   C11 3878   3.326   2.133   2.818 -0.1737 -0.0870 -0.0759
   31DOPE  H11A 3879   3.429   2.092   2.815 -0.7199 -1.5855 -3.6344
   31DOPE  H11B 3880   3.283   2.100   2.915  0.5436  2.3201  1.1573
   31DOPE     P 3881   3.193   2.344   2.865  0.4728 -0.1382  0.2242
   31DOPE   O13 3882   3.094   2.329   2.757 -0.1982  0.0977 -0.9047
   31DOPE   O14 3883   3.219   2.481   2.905 -0.0132 -0.0264  0.2412
   31DOPE   O11 3884   3.139   2.268   2.992  0.1647 -0.0445  0.4068
   31DOPE   O12 3885   3.323   2.277   2.814  0.2792  0.0962 -0.2362
   31DOPE    C1 3886   3.224   2.272   3.111  0.9703 -0.2161  1.1490
   31DOPE    HA 3887   3.331   2.286   3.085  0.2901  0.1534 -1.7676
   31DOPE    HB 3888   3.203   2.176   3.162 -0.7166 -0.0644  0.8055
   31DOPE    C2 3889   3.172   2.373   3.217  0.0628 -0.2963  0.7736
   31DOPE    HS 3890   3.183   2.474   3.171  3.3857 -1.3364 -1.0616
   31DOPE   O21 3891   3.246   2.359   3.339  0.4248  0.4408 -0.2377
   31DOPE   C21 3892   3.351   2.441   3.358  0.0105 -0.3948  0.5804
   31DOPE   O22 3893   3.390   2.517   3.272 -0.6470 -0.1198  0.3724
   31DOPE   C22 3894   3.411   2.421   3.495  0.1370 -0.2312  0.3949
   31DOPE   H2R 3895   3.350   2.350   3.555  1.9435 -1.7301  0.5444
   31DOPE   H2S 3896   3.401   2.521   3.544 -0.5093  0.4674 -1.1047
   31DOPE    C3 3897   3.022   2.347   3.246  0.6858  0.7858 -0.2797
   31DOPE    HX 3898   3.021   2.237   3.261  2.1803 -0.0356 -4.6802
   31DOPE    HY 3899   2.964   2.365   3.153 -3.0311  0.5500  1.7937
   31DOPE   O31 3900   2.969   2.422   3.355  0.6436 -0.2485 -0.2860
   31DOPE   C31 3901   2.922   2.547   3.330  0.0175 -0.1890  0.5739
   31DOPE   O32 3902   2.947   2.612   3.227 -0.7280  0.4689 -0.3768
   31DOPE   C32 3903   2.827   2.586   3.435 -0.0195  0.2140  0.6615
   31DOPE   H2X 3904   2.786   2.685   3.406  0.3268 -0.6835 -3.4021
   31DOPE   H2Y 3905   2.747   2.509   3.444  1.7514 -1.7485  0.4592
   31DOPE   C23 3906   3.557   2.374   3.502 -0.7259 -0.0048  0.5621
   31DOPE   H3R 3907   3.628   2.434   3.441 -0.0713 -1.1669  0.1336
   31DOPE   H3S 3908   3.559   2.274   3.454 -0.9440  0.7955 -1.1748
   31DOPE   C24 3909   3.608   2.372   3.642  0.6446 -0.1485  0.7213
   31DOPE   H4R 3910   3.580   2.278   3.695  2.6481 -1.8708 -1.1152
   31DOPE   H4S 3911   3.561   2.459   3.692  1.1303  1.2921 -1.2266
   31DOPE   C25 3912   3.759   2.369   3.659 -0.5133 -0.1705 -0.2358
   31DOPE   H5R 3913   3.798   2.462   3.612 -1.0370  0.5749  0.7581
   31DOPE   H5S 3914   3.797   2.274   3.617  0.2098  0.3854 -0.8758
   31DOPE   C26 3915   3.797   2.381   3.811 -0.8481 -0.7814  0.1959
   31DOPE   H6R 3916   3.770   2.298   3.879 -5.2918  1.0381  1.0188
   31DOPE   H6S 3917   3.748   2.470   3.857  1.7631  0.9724 -0.2088
   31DOPE   C27 3918   3.945   2.397   3.832 -0.6249 -0.0373  0.0184
   31DOPE   H7R 3919   3.990   2.480   3.772  3.1904  1.1309  3.9529
   31DOPE   H7S 3920   3.997   2.303   3.802  1.2073  0.2601  2.0346
   31DOPE   C28 3921   3.987   2.416   3.978 -0.3538 -0.3249  0.0233
   31DOPE   H8R 3922   3.946   2.325   4.027  0.7341 -0.6854  0.2895
   31DOPE   H8S 3923   3.926   2.500   4.015  1.9750  1.3821  0.2308
   31DOPE   C29 3924   4.139   2.423   3.986 -0.0465 -0.1214 -0.2299
   31DOPE   H9R 3925   4.178   2.363   3.903  0.3293 -0.7913  0.4173
   31DOPE  C210 3926   4.211   2.501   4.073  0.3560  0.6765  0.6911
   31DOPE  H10R 3927   4.321   2.503   4.069  0.4391  0.2587  2.3033
   31DOPE  C211 3928   4.160   2.585   4.184 -0.3984  0.8959  0.0857
   31DOPE  H11R 3929   4.093   2.665   4.146  0.1510  0.4812 -1.8628
   31DOPE  H11S 3930   4.249   2.621   4.241  0.7175  0.7807 -1.5226
   31DOPE  C212 3931   4.090   2.497   4.292  0.0443 -0.5362  0.2943
   31DOPE  H12R 3932   4.140   2.399   4.308 -0.5559 -0.6728  1.4710
   31DOPE  H12S 3933   3.997   2.466   4.240 -0.6549  0.2395  1.0495
   31DOPE  C213 3934   4.058   2.555   4.429  0.5557 -0.3668 -0.3515
   31DOPE  H13R 3935   3.981   2.485   4.466  1.7538 -0.5353  2.0300
   31DOPE  H13S 3936   4.011   2.655   4.420 -1.0754 -1.0487  0.2569
   31DOPE  C214 3937   4.178   2.561   4.527 -0.4327  0.6828  0.3992
   31DOPE  H14R 3938   4.248   2.641   4.494 -1.8633  0.9346 -2.3385
   31DOPE  H14S 3939   4.225   2.461   4.516  0.4139  1.0539  0.6095
   31DOPE  C215 3940   4.148   2.574   4.683 -0.0670  0.3637  0.9240
   31DOPE  H15R 3941   4.075   2.658   4.687  0.4765  0.9404 -0.6207
   31DOPE  H15S 3942   4.245   2.601   4.732 -0.3584 -1.7342  2.8248
   31DOPE  C216 3943   4.093   2.451   4.748 -0.2404 -0.6236  0.3757
   31DOPE  H16R 3944   4.160   2.365   4.724  0.6747  0.0334  0.5432
   31DOPE  H16S 3945   3.992   2.424   4.711  0.5173 -1.1405 -1.4474
   31DOPE  C217 3946   4.084   2.459   4.905 -0.2344 -0.3114  0.2091
   31DOPE  H17R 3947   3.992   2.516   4.931  1.3931  2.6194 -0.0376
   31DOPE  H17S 3948   4.162   2.532   4.934 -0.0621 -0.0074 -0.9720
   31DOPE  C218 3949   4.111   2.330   4.976 -0.1122 -0.0290  0.2161
   31DOPE  H18R 3950   4.136   2.355   5.082 -0.5770  1.3111  0.0191
   31DOPE  H18S 3951   4.203   2.284   4.933  0.2523  0.4589  0.4642
   31DOPE  H18T 3952   4.017   2.273   4.962 -2.1700  2.9569  1.0325
   31DOPE   C33 3953   2.892   2.589   3.576  0.0154  0.0176  0.1022
   31DOPE   H3X 3954   2.938   2.495   3.612  0.9387  0.1324 -0.7072
   31DOPE   H3Y 3955   2.810   2.620   3.644 -0.4938 -0.4190 -0.3061
   31DOPE   C34 3956   2.995   2.701   3.582  0.2270  0.2724  0.5740
   31DOPE   H4X 3957   3.086   2.665   3.530  0.5507 -0.2918  1.5045
   31DOPE   H4Y 3958   2.969   2.796   3.531 -0.7099  1.0448  2.4120
   31DOPE   C35 3959   3.035   2.730   3.728  0.1630  0.3839 -0.2646
   31DOPE   H5X 3960   2.953   2.799   3.757 -1.7702 -1.0493 -2.0668
   31DOPE   H5Y 3961   3.130   2.788   3.716  0.1900  0.3313 -0.3029
   31DOPE   C36 3962   3.055   2.606   3.816  0.0834  0.3616  0.8999
   31DOPE   H6X 3963   3.135   2.542   3.772 -0.8585 -0.0087 -0.3391
   31DOPE   H6Y 3964   2.963   2.546   3.832 -0.7264  1.7826  1.8360
   31DOPE   C37 3965   3.088   2.651   3.954  0.0747  0.5054  0.4959
   31DOPE   H7X 3966   3.186   2.701   3.943  0.8838 -1.0782  0.3556
   31DOPE   H7Y 3967   3.014   2.730   3.983 -0.7095  0.3960 -1.0944
   31DOPE   C38 3968   3.092   2.543   4.060 -0.5147  0.5333 -0.2462
   31DOPE   H8X 3969   3.145   2.460   4.008  0.0045  1.2780 -0.9210
   31DOPE   H8Y 3970   2.986   2.514   4.075  0.2208 -1.0983  2.6159
   31DOPE   C39 3971   3.159   2.565   4.195 -0.6150  0.7758  0.5122
   31DOPE   H9X 3972   3.264   2.598   4.191  0.0162 -1.1635 -0.0381
   31DOPE  C310 3973   3.116   2.518   4.311 -0.2520 -0.7389  0.0135
   31DOPE  H10X 3974   3.192   2.518   4.391 -0.4599 -0.2537  0.2148
   31DOPE  C311 3975   2.987   2.441   4.334  0.5023 -0.4065 -0.1793
   31DOPE  H11X 3976   2.913   2.524   4.335  2.1947  1.1605  1.5183
   31DOPE  H11Y 3977   2.969   2.364   4.256  0.6785 -1.1686  0.5219
   31DOPE  C312 3978   2.973   2.385   4.479 -0.4612 -0.0200 -0.6715
   31DOPE  H12X 3979   3.046   2.303   4.494 -0.4020  0.0924 -0.3216
   31DOPE  H12Y 3980   2.871   2.349   4.502  0.5064 -0.0743  5.2687
   31DOPE  C313 3981   2.995   2.482   4.601 -0.6553  0.3695 -0.1645
   31DOPE  H13X 3982   3.105   2.498   4.613 -0.6356 -0.0470  0.2395
   31DOPE  H13Y 3983   2.944   2.578   4.577 -4.6421 -1.1210  1.4712
   31DOPE  C314 3984   2.949   2.418   4.728  0.0638  0.0189  0.3679
   31DOPE  H14X 3985   3.037   2.417   4.796 -0.5903  0.8566  1.2509
   31DOPE  H14Y 3986   2.919   2.312   4.712 -3.9108  1.1761 -0.8562
   31DOPE  C315 3987   2.828   2.478   4.803  0.3384  0.1813  0.4261
   31DOPE  H15X 3988   2.832   2.588   4.787 -2.7110  0.4697  1.1414
   31DOPE  H15Y 3989   2.831   2.461   4.913  0.0734 -2.9756  0.0377
   31DOPE  C316 3990   2.692   2.440   4.746 -0.1820 -0.5709  0.0954
   31DOPE  H16X 3991   2.682   2.329   4.742 -1.0792 -0.4742 -0.6902
   31DOPE  H16Y 3992   2.684   2.485   4.645 -0.9999 -2.7848 -0.8937
   31DOPE  C317 3993   2.583   2.510   4.831  0.4104  0.4869 -0.5368
   31DOPE  H17X 3994   2.611   2.476   4.933 -1.0132  0.1989 -0.2252
   31DOPE  H17Y 3995   2.613   2.615   4.814 -0.2974  0.8123  0.2089
   31DOPE  C318 3996   2.435   2.481   4.804 -0.4125  0.0369 -0.5203
   31DOPE  H18X 3997   2.405   2.521   4.704 -0.7615 -0.5487 -0.6533
   31DOPE  H18Y 3998   2.427   2.371   4.809 -1.2415  0.1250  0.5777
   31DOPE  H18Z 3999   2.365   2.512   4.884  0.7381 -2.5918  1.6243
   32DOPE     N 4000   5.711   4.273   2.628  0.6528 -0.1435  0.4844
   32DOPE   HN1 4001   5.748   4.203   2.560 -2.0962  0.7975 -2.2647
   32DOPE   HN2 4002   5.662   4.344   2.569 -0.5904 -0.2024  1.4060
   32DOPE   HN3 4003   5.783   4.322   2.685 -0.2586  1.2701  0.4819
   32DOPE   C12 4004   5.605   4.211   2.728 -0.2300  0.4790  0.5711
   32DOPE  H12A 4005   5.539   4.149   2.665  0.4588 -0.8162  1.0687
   32DOPE  H12B 4006   5.543   4.293   2.769 -0.9314 -1.1056  2.9131
   32DOPE   C11 4007   5.677   4.129   2.838  0.5695 -0.0974 -0.1210
   32DOPE  H11A 4008   5.592   4.064   2.870  0.5501 -0.2286 -0.4348
   32DOPE  H11B 4009   5.718   4.201   2.912  0.1162  1.2566 -1.1564
   32DOPE     P 4010   5.791   3.907   2.776  0.1813  0.1908  0.6138
   32DOPE   O13 4011   5.922   3.854   2.740 -0.3638 -0.7227  0.3397
   32DOPE   O14 4012   5.676   3.863   2.689 -0.2118  0.7855 -0.4197
   32DOPE   O11 4013   5.758   3.851   2.921 -0.1028 -0.2913  0.2345
   32DOPE   O12 4014   5.793   4.064   2.784  0.3195 -0.3836 -0.2549
   32DOPE    C1 4015   5.809   3.910   3.041 -0.2360  0.2888 -0.0689
   32DOPE    HA 4016   5.795   4.020   3.052  1.2902  0.5919 -0.7515
   32DOPE    HB 4017   5.919   3.891   3.040 -0.1575  0.7108  0.2420
   32DOPE    C2 4018   5.747   3.846   3.168  0.3181 -0.2505  0.4648
   32DOPE    HS 4019   5.796   3.893   3.256 -1.3632 -1.5485  2.2114
   32DOPE   O21 4020   5.753   3.701   3.155 -0.6454  0.0270 -0.4978
   32DOPE   C21 4021   5.878   3.657   3.189  0.7142 -0.1411 -0.0566
   32DOPE   O22 4022   5.976   3.722   3.223 -0.2036  0.0880  0.1472
   32DOPE   C22 4023   5.894   3.508   3.170 -0.3179  0.2375  0.1100
   32DOPE   H2R 4024   5.960   3.485   3.256 -1.4617 -0.7026  0.7710
   32DOPE   H2S 4025   5.943   3.484   3.073 -1.0817 -0.1030 -0.2029
   32DOPE    C3 4026   5.593   3.887   3.179 -0.2870 -0.4040 -0.0474
   32DOPE    HX 4027   5.542   3.871   3.081 -0.4336 -0.1572 -0.0128
   32DOPE    HY 4028   5.594   3.996   3.196  1.0280 -0.1835 -1.3358
   32DOPE   O31 4029   5.535   3.816   3.292  0.1134 -0.5321  0.0291
   32DOPE   C31 4030   5.406   3.844   3.311  0.8118  0.2678 -0.2040
   32DOPE   O32 4031   5.343   3.929   3.250  0.3309 -0.1576 -0.0660
   32DOPE   C32 4032   5.347   3.743   3.414  0.6154 -0.3716 -0.0860
   32DOPE   H2X 4033   5.237   3.733   3.416  0.4930  0.6391 -0.6598
   32DOPE   H2Y 4034   5.389   3.643   3.394  0.2665 -0.8676  1.5177
   32DOPE   C23 4035   5.764   3.434   3.194 -0.0587 -0.1537 -0.5267
   32DOPE   H3R 4036   5.764   3.330   3.155 -2.8281  0.0242 -1.2035
   32DOPE   H3S 4037   5.679   3.481   3.139 -0.9087  0.5474  1.3037
   32DOPE   C24 4038   5.714   3.419   3.340 -0.5206  0.3894 -0.6600
   32DOPE   H4R 4039   5.683   3.519   3.376  1.8970  0.4652  1.4609
   32DOPE   H4S 4040   5.792   3.375   3.405  0.4014  1.7520 -0.8057
   32DOPE   C25 4041   5.591   3.324   3.346  0.3383  0.2642  0.0906
   32DOPE   H5R 4042   5.628   3.220   3.330 -0.5823  0.1164 -1.1927
   32DOPE   H5S 4043   5.521   3.340   3.262 -0.3662 -1.5298  0.2888
   32DOPE   C26 4044   5.509   3.350   3.470  0.5231 -0.8204  0.0800
   32DOPE   H6R 4045   5.480   3.457   3.472  0.2106 -0.8062 -2.2189
   32DOPE   H6S 4046   5.564   3.321   3.562  2.4976 -0.8235 -1.0553
   32DOPE   C27 4047   5.378   3.272   3.471 -0.1446 -0.4567  0.7687
   32DOPE   H7R 4048   5.370   3.209   3.563  0.4109 -3.2082 -0.9581
   32DOPE   H7S 4049   5.385   3.209   3.381 -1.8129  0.9379 -0.4081
   32DOPE   C28 4050   5.245   3.353   3.453 -0.2901 -0.3261 -1.1961
   32DOPE   H8R 4051   5.265   3.432   3.377 -0.9883 -1.9145 -3.1122
   32DOPE   H8S 4052   5.217   3.410   3.544 -0.3958  0.4392 -1.6948
   32DOPE   C29 4053   5.128   3.268   3.409 -0.2637  0.3169 -0.0542
   32DOPE   H9R 4054   5.114   3.267   3.300 -0.6131 -0.2187 -0.0057
   32DOPE  C210 4055   5.057   3.183   3.475 -0.8596  0.4090 -0.0071
   32DOPE  H10R 4056   4.978   3.129   3.420 -0.0523  0.7526 -1.5507
   32DOPE  C211 4057   5.066   3.141   3.617 -0.1440  0.4592 -0.1698
   32DOPE  H11R 4058   5.169   3.146   3.659 -0.4247  2.8254  0.4397
   32DOPE  H11S 4059   5.026   3.038   3.626 -3.4211  1.6341  0.0335
   32DOPE  C212 4060   4.986   3.235   3.706  0.3273 -0.3413 -0.3193
   32DOPE  H12R 4061   4.888   3.241   3.655  0.8929  0.5251 -1.3255
   32DOPE  H12S 4062   5.046   3.329   3.710 -1.0258  0.5033  1.2026
   32DOPE  C213 4063   4.982   3.184   3.847  0.4942 -0.6709 -0.2546
   32DOPE  H13R 4064   4.927   3.088   3.865 -2.8228  1.1807  0.2990
   32DOPE  H13S 4065   4.938   3.266   3.908 -0.6319 -0.9859 -0.6140
   32DOPE  C214 4066   5.126   3.186   3.906 -0.6371 -0.3063  0.3381
   32DOPE  H14R 4067   5.180   3.277   3.873  1.0734 -0.9647  1.2377
   32DOPE  H14S 4068   5.179   3.093   3.875 -0.3434  0.0974 -0.3923
   32DOPE  C215 4069   5.135   3.182   4.062  0.4535 -0.0858  0.3441
   32DOPE  H15R 4070   5.094   3.279   4.098  0.0717  0.2347 -0.9064
   32DOPE  H15S 4071   5.243   3.185   4.089  0.3630  1.4807  0.6309
   32DOPE  C216 4072   5.069   3.064   4.118  0.3141  0.3248 -0.4964
   32DOPE  H16R 4073   5.102   2.971   4.065 -2.8948 -0.5076 -1.2619
   32DOPE  H16S 4074   4.958   3.060   4.112  0.3417  0.5245 -1.1715
   32DOPE  C217 4075   5.101   3.047   4.267 -0.4758  0.0142 -0.0976
   32DOPE  H17R 4076   5.081   3.141   4.322 -1.4609 -0.6664  0.7545
   32DOPE  H17S 4077   5.212   3.046   4.275 -0.1368  2.9923 -2.6838
   32DOPE  C218 4078   5.030   2.931   4.337  1.3828  0.0679 -0.7176
   32DOPE  H18R 4079   5.041   2.956   4.445 -3.0893  2.2405 -0.5527
   32DOPE  H18S 4080   5.064   2.830   4.305  2.7910  0.2774  0.0149
   32DOPE  H18T 4081   4.920   2.935   4.329  1.3083 -0.4221  0.0128
   32DOPE   C33 4082   5.395   3.790   3.554  0.6110 -0.3413 -0.2780
   32DOPE   H3X 4083   5.353   3.891   3.573 -1.7598 -1.3573  0.2868
   32DOPE   H3Y 4084   5.506   3.801   3.550  0.6021 -0.5431 -2.7431
   32DOPE   C34 4085   5.369   3.692   3.669  0.1826 -0.4998 -0.2072
   32DOPE   H4X 4086   5.260   3.676   3.685  0.4032  0.1410  2.2990
   32DOPE   H4Y 4087   5.434   3.602   3.672  1.9117  0.6862 -0.8476
   32DOPE   C35 4088   5.409   3.758   3.804 -0.3110 -0.4296  0.6425
   32DOPE   H5X 4089   5.355   3.854   3.811 -0.2730 -0.4897  2.0301
   32DOPE   H5Y 4090   5.515   3.792   3.805 -0.4028 -0.0866 -0.2282
   32DOPE   C36 4091   5.376   3.665   3.924 -0.1151 -0.8316 -0.2031
   32DOPE   H6X 4092   5.277   3.624   3.896 -0.4330  1.7847 -3.5482
   32DOPE   H6Y 4093   5.374   3.722   4.020  3.6240 -3.8712  1.9746
   32DOPE   C37 4094   5.476   3.552   3.956  0.2180  0.5131  0.0387
   32DOPE   H7X 4095   5.491   3.491   3.864  0.0562 -0.7843  0.8451
   32DOPE   H7Y 4096   5.573   3.586   3.997  0.7474 -0.4293 -0.3984
   32DOPE   C38 4097   5.408   3.445   4.041 -0.2878  0.5631 -0.2450
   32DOPE   H8X 4098   5.469   3.353   4.051  1.4536  1.8444  1.8840
   32DOPE   H8Y 4099   5.313   3.422   3.989  0.1711  0.4934 -1.0808
   32DOPE   C39 4100   5.387   3.498   4.184  0.0039 -0.0641 -0.1519
   32DOPE   H9X 4101   5.341   3.598   4.190 -0.2353 -0.2160  0.7135
   32DOPE  C310 4102   5.427   3.439   4.299 -0.3300 -0.0334  0.0869
   32DOPE  H10X 4103   5.406   3.486   4.397  1.5871  0.0316  0.5059
   32DOPE  C311 4104   5.513   3.311   4.317 -0.1507 -0.6916 -0.0160
   32DOPE  H11X 4105   5.480   3.263   4.411 -3.9997  1.5202 -0.0363
   32DOPE  H11Y 4106   5.499   3.237   4.236  0.6607 -1.0458  0.1520
   32DOPE  C312 4107   5.661   3.325   4.337 -0.1605 -0.7368 -0.0572
   32DOPE  H12X 4108   5.703   3.227   4.370  0.9755  0.3883  2.0761
   32DOPE  H12Y 4109   5.670   3.395   4.423  0.1228  0.8284 -1.3070
   32DOPE  C313 4110   5.736   3.391   4.221  0.1426 -0.2561  0.7513
   32DOPE  H13X 4111   5.718   3.330   4.131 -1.3130  1.8873 -0.5102
   32DOPE  H13Y 4112   5.693   3.493   4.208  1.8427  0.7994  2.7195
   32DOPE  C314 4113   5.884   3.409   4.256 -0.3693  0.2188 -0.5530
   32DOPE  H14X 4114   5.891   3.428   4.365  1.0193 -2.2939 -0.1301
   32DOPE  H14Y 4115   5.907   3.511   4.218 -0.2164 -0.1800 -1.5543
   32DOPE  C315 4116   5.971   3.288   4.222  0.6529  0.1436 -0.2840
   32DOPE  H15X 4117   5.971   3.310   4.113 -2.7332  3.0677  0.1497
   32DOPE  H15Y 4118   5.929   3.186   4.239  2.7342 -0.9254 -1.1155
   32DOPE  C316 4119   6.110   3.308   4.274 -0.4674 -0.0218 -0.5855
   32DOPE  H16X 4120   6.111   3.286   4.383  0.3719  0.8874 -0.3951
   32DOPE  H16Y 4121   6.144   3.413   4.263  1.7204 -0.6544 -0.4390
   32DOPE  C317 4122   6.223   3.234   4.206  0.4077  0.5739 -0.0711
   32DOPE  H17X 4123   6.201   3.125   4.199  2.3191  0.1889 -0.4770
   32DOPE  H17Y 4124   6.214   3.262   4.099 -1.4212  2.1053  0.4180
   32DOPE  C318 4125   6.364   3.252   4.269  0.3491  0.2296 -0.0904
   32DOPE  H18X 4126   6.388   3.360   4.259  2.2673 -0.3253 -2.2054
   32DOPE  H18Y 4127   6.364   3.225   4.377  1.5665  0.6078  0.0242
   32DOPE  H18Z 4128   6.433   3.188   4.211 -0.9416  0.0133 -1.4161
   33DOPE     N 4129   3.253   1.615   2.296 -0.0067 -0.0570  0.1136
   33DOPE   HN1 4130   3.204   1.524   2.306 -0.1158 -0.0894 -0.6928
   33DOPE   HN2 4131   3.244   1.639   2.195 -0.0594 -0.8148 -0.0702
   33DOPE   HN3 4132   3.354   1.608   2.322  0.0364  0.8399  0.2182
   33DOPE   C12 4133   3.187   1.712   2.396 -0.2394 -0.6240 -0.0367
   33DOPE  H12A 4134   3.092   1.749   2.351 -0.5169  0.1806  1.1759
   33DOPE  H12B 4135   3.258   1.797   2.394 -1.4340  0.3904 -0.1255
   33DOPE   C11 4136   3.187   1.657   2.539 -0.2701  0.2245  0.5397
   33DOPE  H11A 4137   3.127   1.563   2.532  0.5592 -0.5901  3.4283
   33DOPE  H11B 4138   3.146   1.731   2.612  0.1171  0.8604  0.1236
   33DOPE     P 4139   3.361   1.527   2.692  0.2132 -0.1759  0.0507
   33DOPE   O13 4140   3.388   1.393   2.643  0.3341  0.5183  0.0217
   33DOPE   O14 4141   3.255   1.540   2.794  0.9899  0.1572  0.4489
   33DOPE   O11 4142   3.493   1.585   2.755  0.0491 -0.0990 -0.2178
   33DOPE   O12 4143   3.329   1.618   2.568 -0.1059  0.7131 -0.1311
   33DOPE    C1 4144   3.500   1.700   2.833 -0.6378 -0.6648  0.2356
   33DOPE    HA 4145   3.402   1.754   2.834 -0.5340 -0.4745  0.1418
   33DOPE    HB 4146   3.586   1.757   2.792 -0.8774  0.9302  1.8194
   33DOPE    C2 4147   3.516   1.664   2.973 -0.6611  0.3230  0.0198
   33DOPE    HS 4148   3.440   1.588   3.003 -1.6155  1.2900  0.1324
   33DOPE   O21 4149   3.514   1.787   3.044  0.2864  0.3078  0.6547
   33DOPE   C21 4150   3.394   1.842   3.083 -0.3618  0.6445 -0.2809
   33DOPE   O22 4151   3.281   1.808   3.055  0.2210  0.7753  0.0127
   33DOPE   C22 4152   3.417   1.965   3.176  0.4351 -0.1893  0.0561
   33DOPE   H2R 4153   3.371   2.043   3.112  0.5041 -0.9054 -0.8985
   33DOPE   H2S 4154   3.520   2.000   3.194  0.0753  0.6894  0.4695
   33DOPE    C3 4155   3.642   1.572   3.003  0.1758  0.0503 -1.0037
   33DOPE    HX 4156   3.733   1.626   2.970  0.1671 -0.1223 -1.3211
   33DOPE    HY 4157   3.649   1.483   2.936  3.2290 -0.9288  0.4217
   33DOPE   O31 4158   3.635   1.523   3.134  0.1862  0.1758  0.0237
   33DOPE   C31 4159   3.675   1.604   3.235  0.6052  0.1984 -0.0600
   33DOPE   O32 4160   3.725   1.713   3.225 -0.3572  0.0958 -0.1430
   33DOPE   C32 4161   3.644   1.522   3.364  0.2566  0.4514  0.4728
   33DOPE   H2X 4162   3.536   1.534   3.388 -0.5611 -1.9385 -1.5927
   33DOPE   H2Y 4163   3.652   1.413   3.346 -2.5789 -0.0680  1.6893
   33DOPE   C23 4164   3.346   1.962   3.314  0.7494 -0.1159  0.1647
   33DOPE   H3R 4165   3.240   1.935   3.294  1.4477 -1.2728 -2.2972
   33DOPE   H3S 4166   3.362   2.059   3.366 -0.5487  0.2637 -0.0940
   33DOPE   C24 4167   3.403   1.860   3.404  0.6604  0.4208  0.3401
   33DOPE   H4R 4168   3.514   1.856   3.395  0.6447  2.4764 -1.7530
   33DOPE   H4S 4169   3.368   1.760   3.370  1.2395  0.4114 -0.2586
   33DOPE   C25 4170   3.367   1.889   3.552  0.2218  0.0699  0.0783
   33DOPE   H5R 4171   3.267   1.935   3.571 -0.3775 -0.7375 -1.0217
   33DOPE   H5S 4172   3.442   1.965   3.583 -0.8306  0.8558  0.8103
   33DOPE   C26 4173   3.383   1.761   3.644 -0.4021  0.2291 -0.2454
   33DOPE   H6R 4174   3.489   1.731   3.649 -0.2147  0.9803  0.4485
   33DOPE   H6S 4175   3.315   1.678   3.613 -0.3955 -0.2559  0.9799
   33DOPE   C27 4176   3.327   1.807   3.780 -0.9218  0.4324 -0.4711
   33DOPE   H7R 4177   3.218   1.826   3.765 -0.6556  2.5402  0.0654
   33DOPE   H7S 4178   3.378   1.898   3.816  0.3865 -0.9429  1.3574
   33DOPE   C28 4179   3.335   1.691   3.890 -0.0755 -0.3253 -0.5137
   33DOPE   H8R 4180   3.279   1.602   3.855 -1.3835  0.8203 -1.4307
   33DOPE   H8S 4181   3.282   1.730   3.980  2.7980  1.2973  0.6218
   33DOPE   C29 4182   3.470   1.644   3.934  0.0666 -0.4251 -0.3099
   33DOPE   H9R 4183   3.542   1.726   3.936  0.0879 -0.3854 -1.8092
   33DOPE  C210 4184   3.504   1.529   3.996  0.5750  0.3447  0.2286
   33DOPE  H10R 4185   3.606   1.522   4.038  0.1893 -0.7807  1.0291
   33DOPE  C211 4186   3.417   1.412   4.027 -0.0852 -0.0359 -0.2525
   33DOPE  H11R 4187   3.468   1.313   4.026 -1.7948 -0.9664  0.7591
   33DOPE  H11S 4188   3.332   1.407   3.955  0.6767 -2.8867 -1.1061
   33DOPE  C212 4189   3.364   1.407   4.168  0.2679 -0.7175 -0.3681
   33DOPE  H12R 4190   3.257   1.379   4.175  0.7004 -2.8294 -1.3966
   33DOPE  H12S 4191   3.354   1.511   4.205  1.9323  0.1847 -2.2543
   33DOPE  C213 4192   3.449   1.332   4.267  0.3394 -0.1983 -0.2059
   33DOPE  H13R 4193   3.552   1.356   4.233  0.4442  1.8290  1.3742
   33DOPE  H13S 4194   3.450   1.221   4.255 -0.2658 -0.1524 -0.7401
   33DOPE  C214 4195   3.419   1.378   4.410  0.7078 -0.1223 -0.0709
   33DOPE  H14R 4196   3.310   1.381   4.435  0.9651  1.2385  0.9669
   33DOPE  H14S 4197   3.451   1.481   4.436 -0.1971  0.3348 -0.6732
   33DOPE  C215 4198   3.468   1.276   4.510 -0.5366 -0.1738 -0.2829
   33DOPE  H15R 4199   3.570   1.241   4.488 -0.9545 -1.8223  0.3001
   33DOPE  H15S 4200   3.403   1.187   4.493  0.8113 -0.8083 -2.6205
   33DOPE  C216 4201   3.455   1.325   4.649  0.1985  0.0551  0.1091
   33DOPE  H16R 4202   3.347   1.340   4.671 -0.3600 -0.7070 -1.8553
   33DOPE  H16S 4203   3.510   1.421   4.652 -1.4390  1.1193 -1.6133
   33DOPE  C217 4204   3.514   1.229   4.754 -0.7226 -0.1679 -0.6255
   33DOPE  H17R 4205   3.609   1.178   4.727  0.2915  1.2132  0.1596
   33DOPE  H17S 4206   3.431   1.155   4.757  0.1332 -1.1224  1.1675
   33DOPE  C218 4207   3.519   1.299   4.900  0.6315  0.0252  0.1170
   33DOPE  H18R 4208   3.605   1.256   4.955  0.2326  2.5045  2.9303
   33DOPE  H18S 4209   3.422   1.291   4.954  1.3466  0.3898  1.4797
   33DOPE  H18T 4210   3.541   1.408   4.891  2.0425 -0.1838  0.9015
   33DOPE   C33 4211   3.734   1.577   3.480  0.6887 -0.1140  0.7237
   33DOPE   H3X 4212   3.704   1.678   3.514  0.6552 -0.4918  1.8790
   33DOPE   H3Y 4213   3.842   1.577   3.451  0.2675 -3.3752 -1.4900
   33DOPE   C34 4214   3.749   1.487   3.596  0.2246  0.1113 -0.3818
   33DOPE   H4X 4215   3.648   1.472   3.639  0.4876 -0.6281  0.0007
   33DOPE   H4Y 4216   3.779   1.388   3.554  0.4314  1.0029 -2.4142
   33DOPE   C35 4217   3.850   1.548   3.702 -0.1728 -0.0793  0.3814
   33DOPE   H5X 4218   3.821   1.649   3.740 -1.8381 -0.5467  0.4472
   33DOPE   H5Y 4219   3.949   1.552   3.652 -0.5497  0.4565 -0.3533
   33DOPE   C36 4220   3.874   1.462   3.823  0.2680  0.7857  0.3597
   33DOPE   H6X 4221   3.920   1.366   3.791  0.3997  1.1960 -0.7351
   33DOPE   H6Y 4222   3.780   1.432   3.873  0.4297  0.8832  0.7293
   33DOPE   C37 4223   3.959   1.543   3.919 -0.3161  0.4955  0.2302
   33DOPE   H7X 4224   4.041   1.578   3.853 -1.3120  0.6552 -0.9498
   33DOPE   H7Y 4225   3.906   1.634   3.951 -2.1980 -0.0322 -1.2308
   33DOPE   C38 4226   4.002   1.464   4.049 -0.0790  0.2862  0.8386
   33DOPE   H8X 4227   4.038   1.546   4.115  1.6584  0.5641 -0.3797
   33DOPE   H8Y 4228   4.076   1.391   4.010 -0.5835  1.2439 -2.2364
   33DOPE   C39 4229   3.889   1.384   4.108  0.0141 -0.6201  0.4919
   33DOPE   H9X 4230   3.820   1.337   4.037 -0.7229  0.2466  0.6143
   33DOPE  C310 4231   3.873   1.360   4.243  0.4089 -0.1847 -0.0831
   33DOPE  H10X 4232   3.787   1.300   4.274 -1.4081  0.9447 -2.5939
   33DOPE  C311 4233   3.963   1.403   4.354 -1.0858  0.2084  0.1433
   33DOPE  H11X 4234   3.997   1.309   4.404  0.1760  0.4551 -0.2078
   33DOPE  H11Y 4235   4.047   1.457   4.304 -0.3127 -2.0240 -1.0844
   33DOPE  C312 4236   3.909   1.503   4.455 -0.1872 -0.2458  0.0899
   33DOPE  H12X 4237   3.875   1.600   4.412  1.3898  0.7798  1.0563
   33DOPE  H12Y 4238   3.999   1.530   4.514 -0.7137 -1.4539  1.4767
   33DOPE  C313 4239   3.794   1.452   4.546  0.0716 -0.0667 -0.6078
   33DOPE  H13X 4240   3.696   1.497   4.515  0.3373 -0.1654 -1.6188
   33DOPE  H13Y 4241   3.785   1.342   4.535 -2.2777 -0.0128  0.1517
   33DOPE  C314 4242   3.800   1.479   4.696 -0.1251  0.9223  0.0057
   33DOPE  H14X 4243   3.718   1.420   4.742  1.5293 -1.5728 -0.0290
   33DOPE  H14Y 4244   3.791   1.590   4.701 -2.6350  0.7926 -0.5066
   33DOPE  C315 4245   3.922   1.439   4.774  0.5129  0.1289 -0.3649
   33DOPE  H15X 4246   4.005   1.503   4.737  0.7390  0.0842  0.0592
   33DOPE  H15Y 4247   3.935   1.334   4.742  0.6277  0.7348 -2.4502
   33DOPE  C316 4248   3.909   1.459   4.920  0.7333 -0.5275 -0.9826
   33DOPE  H16X 4249   3.814   1.421   4.963  1.2456  0.0328  0.7220
   33DOPE  H16Y 4250   3.899   1.568   4.936 -0.7972 -0.8288  0.4130
   33DOPE  C317 4251   4.026   1.392   5.000  0.5713  0.2251  0.3595
   33DOPE  H17X 4252   4.025   1.438   5.101 -1.2630  0.1996  0.3866
   33DOPE  H17Y 4253   4.004   1.285   5.023  1.4304  0.4517  2.4338
   33DOPE  C318 4254   4.158   1.408   4.932  0.1148  0.0304  0.1762
   33DOPE  H18X 4255   4.244   1.388   4.999  1.0075 -4.2657 -1.8892
   33DOPE  H18Y 4256   4.165   1.339   4.845 -3.1585 -0.9372  0.5425
   33DOPE  H18Z 4257   4.178   1.505   4.883  1.7498 -0.5156 -0.3053
   34DOPE     N 4258   3.668   3.948   2.485 -0.0184 -0.5648  0.0420
   34DOPE   HN1 4259   3.682   3.881   2.407 -1.2453  0.2224 -0.9006
   34DOPE   HN2 4260   3.575   3.916   2.518  0.4646 -1.8705  0.1778
   34DOPE   HN3 4261   3.672   4.045   2.447  1.3526 -0.8431 -0.5745
   34DOPE   C12 4262   3.774   3.932   2.591 -0.2929  0.3829 -0.5984
   34DOPE  H12A 4263   3.785   4.023   2.654 -1.4476 -0.9759  1.6611
   34DOPE  H12B 4264   3.863   3.907   2.528 -1.0568 -0.5128 -1.3504
   34DOPE   C11 4265   3.748   3.798   2.673 -0.5081 -0.5685 -0.2318
   34DOPE  H11A 4266   3.644   3.794   2.710 -0.0376 -1.9829  1.0313
   34DOPE  H11B 4267   3.817   3.802   2.760 -1.6320 -1.0160  0.7083
   34DOPE     P 4268   3.803   3.536   2.651 -0.2288 -0.1516  0.1688
   34DOPE   O13 4269   3.929   3.484   2.592  0.1402  0.3411  0.3927
   34DOPE   O14 4270   3.687   3.455   2.621 -0.2862 -0.5392 -0.5119
   34DOPE   O11 4271   3.830   3.536   2.808 -0.2443  0.3466 -0.0193
   34DOPE   O12 4272   3.773   3.678   2.598 -0.0446 -0.1252 -0.1559
   34DOPE    C1 4273   3.719   3.566   2.898 -0.1391 -0.4448  0.0253
   34DOPE    HA 4274   3.691   3.470   2.947  0.5744 -0.8173 -0.2754
   34DOPE    HB 4275   3.626   3.604   2.852 -0.9849 -0.4240  1.6523
   34DOPE    C2 4276   3.759   3.655   3.020 -0.5593  0.4941  0.1549
   34DOPE    HS 4277   3.745   3.760   2.988  0.1775  0.5422 -0.0120
   34DOPE   O21 4278   3.895   3.617   3.046 -0.1022 -0.4630 -0.2765
   34DOPE   C21 4279   3.983   3.709   3.018 -0.1531 -0.4173 -0.5080
   34DOPE   O22 4280   3.953   3.824   2.981 -0.0480  0.3944  0.4028
   34DOPE   C22 4281   4.121   3.657   3.050  0.5719 -0.4379  0.8324
   34DOPE   H2R 4282   4.180   3.678   2.959 -1.0141 -1.7249 -0.5869
   34DOPE   H2S 4283   4.117   3.547   3.070  0.5002 -0.3701  1.1930
   34DOPE    C3 4284   3.670   3.637   3.142  0.3315  0.3091 -0.1386
   34DOPE    HX 4285   3.669   3.530   3.172  0.3396  0.0738 -0.9565
   34DOPE    HY 4286   3.564   3.663   3.123  0.2133  0.1087  0.2308
   34DOPE   O31 4287   3.720   3.715   3.251 -0.1307 -0.2816 -0.2591
   34DOPE   C31 4288   3.630   3.739   3.351  0.4644 -0.5941 -0.0035
   34DOPE   O32 4289   3.515   3.708   3.345  0.0959  0.0804 -0.4150
   34DOPE   C32 4290   3.716   3.809   3.456  0.0457  0.5136 -0.6576
   34DOPE   H2X 4291   3.824   3.784   3.457  0.3151  1.5910 -0.8622
   34DOPE   H2Y 4292   3.719   3.919   3.439 -1.0814  1.2095  2.8337
   34DOPE   C23 4293   4.186   3.732   3.167 -0.3883  0.5733  0.3599
   34DOPE   H3R 4294   4.170   3.842   3.161  3.3318  1.2920  0.9436
   34DOPE   H3S 4295   4.296   3.716   3.157 -0.1284  1.1287  2.0427
   34DOPE   C24 4296   4.149   3.684   3.312 -0.3597  0.1361 -0.2016
   34DOPE   H4R 4297   4.165   3.574   3.310  0.3992  0.2420 -0.2172
   34DOPE   H4S 4298   4.040   3.690   3.331 -0.2287 -0.3152  0.7548
   34DOPE   C25 4299   4.216   3.757   3.427 -0.2724  0.5065  0.4031
   34DOPE   H5R 4300   4.170   3.858   3.421  0.0432  0.6423  0.2310
   34DOPE   H5S 4301   4.327   3.767   3.428 -0.3008  1.2153  2.6378
   34DOPE   C26 4302   4.173   3.700   3.565  0.1070 -0.7962  0.2220
   34DOPE   H6R 4303   4.244   3.618   3.590  2.5977  1.2758  0.3353
   34DOPE   H6S 4304   4.072   3.654   3.566  0.6340 -2.1333  3.0382
   34DOPE   C27 4305   4.195   3.783   3.693 -0.6452 -0.6595 -0.1187
   34DOPE   H7R 4306   4.304   3.802   3.704 -0.5504  0.5026 -2.5272
   34DOPE   H7S 4307   4.172   3.717   3.779 -3.3510 -1.8138 -1.6130
   34DOPE   C28 4308   4.119   3.912   3.707  0.6199 -0.8235  0.3272
   34DOPE   H8R 4309   4.017   3.896   3.666  0.6274 -1.0648  0.4053
   34DOPE   H8S 4310   4.158   3.982   3.630 -2.4526  1.3841  0.5809
   34DOPE   C29 4311   4.113   3.970   3.847 -0.6882 -0.1336  0.3885
   34DOPE   H9R 4312   4.067   3.912   3.928  0.5813 -0.7515  0.6759
   34DOPE  C210 4313   4.153   4.099   3.878  0.4376  0.4451  1.1220
   34DOPE  H10R 4314   4.129   4.143   3.976 -1.3750  2.1142 -0.0179
   34DOPE  C211 4315   4.187   4.198   3.769  0.3149  0.4537  0.1053
   34DOPE  H11R 4316   4.096   4.221   3.710  0.5138  0.1528 -0.3295
   34DOPE  H11S 4317   4.261   4.156   3.696 -0.9175 -2.1893  0.2431
   34DOPE  C212 4318   4.247   4.330   3.834  0.8568  0.0242 -0.4754
   34DOPE  H12R 4319   4.329   4.289   3.898  1.1788 -2.6789 -2.4670
   34DOPE  H12S 4320   4.180   4.374   3.911  3.6896  1.5986  1.2994
   34DOPE  C213 4321   4.293   4.430   3.731  0.0409 -0.1405  0.8891
   34DOPE  H13R 4322   4.210   4.441   3.658  0.8025  0.9741  0.1560
   34DOPE  H13S 4323   4.378   4.385   3.676 -0.1773  0.8900 -0.3448
   34DOPE  C214 4324   4.319   4.576   3.782  0.4999  0.3345 -0.5734
   34DOPE  H14R 4325   4.391   4.582   3.867 -1.4231  1.4276  1.0703
   34DOPE  H14S 4326   4.221   4.616   3.815  0.6131 -0.6948  1.1548
   34DOPE  C215 4327   4.386   4.665   3.670 -0.0989  0.0161 -1.3200
   34DOPE  H15R 4328   4.385   4.775   3.690  0.7817 -0.3434  0.9734
   34DOPE  H15S 4329   4.322   4.657   3.579  0.3919 -0.5475 -1.6194
   34DOPE  C216 4330   4.534   4.619   3.644 -0.2418  0.0346  0.3210
   34DOPE  H16R 4331   4.574   4.675   3.557  2.3495  2.5117  2.8607
   34DOPE  H16S 4332   4.544   4.511   3.618 -1.0657 -0.2068  0.9845
   34DOPE  C217 4333   4.636   4.668   3.753  0.2533 -0.6853  0.6227
   34DOPE  H17R 4334   4.598   4.645   3.855  1.7340  2.3077  1.9835
   34DOPE  H17S 4335   4.656   4.775   3.733 -0.2647 -0.5057  1.0439
   34DOPE  C218 4336   4.772   4.600   3.749  0.4229  0.5238  0.0316
   34DOPE  H18R 4337   4.820   4.610   3.649 -1.3038 -0.5936 -0.9759
   34DOPE  H18S 4338   4.757   4.493   3.776 -0.1192  0.8153  0.9130
   34DOPE  H18T 4339   4.836   4.657   3.819  0.2012  0.7119  0.0821
   34DOPE   C33 4340   3.658   3.771   3.595 -0.3002  0.5597 -0.3896
   34DOPE   H3X 4341   3.644   3.661   3.604  1.3077  0.3474 -0.1111
   34DOPE   H3Y 4342   3.556   3.814   3.605 -0.7587 -0.6752  0.5078
   34DOPE   C34 4343   3.752   3.819   3.708 -0.2710  0.3863  0.1738
   34DOPE   H4X 4344   3.847   3.766   3.685 -1.1871 -0.4286 -2.0181
   34DOPE   H4Y 4345   3.770   3.928   3.710 -0.1911  0.3590  1.0161
   34DOPE   C35 4346   3.707   3.762   3.845  0.0914  0.3614  0.2721
   34DOPE   H5X 4347   3.679   3.656   3.829  0.2674  0.3550  0.0093
   34DOPE   H5Y 4348   3.610   3.809   3.874  0.4409  0.6634  0.9734
   34DOPE   C36 4349   3.804   3.798   3.961  0.1329  0.2090 -0.4651
   34DOPE   H6X 4350   3.839   3.901   3.941  0.9148 -0.2861 -1.7160
   34DOPE   H6Y 4351   3.885   3.723   3.950 -0.8675 -1.0937  0.5840
   34DOPE   C37 4352   3.740   3.801   4.098  0.1831  0.2753  0.0943
   34DOPE   H7X 4353   3.642   3.852   4.085 -2.5650 -4.2272  0.8574
   34DOPE   H7Y 4354   3.714   3.697   4.127 -0.8000 -0.0464 -1.7643
   34DOPE   C38 4355   3.829   3.867   4.203  0.0148 -0.5708 -0.2533
   34DOPE   H8X 4356   3.788   3.819   4.294  0.7604 -1.1691 -0.2253
   34DOPE   H8Y 4357   3.812   3.977   4.211  1.0842 -0.3089 -1.3425
   34DOPE   C39 4358   3.976   3.826   4.196  0.1001  0.6805  0.4155
   34DOPE   H9X 4359   4.006   3.770   4.106 -1.0226  1.6701 -0.6120
   34DOPE  C310 4360   4.067   3.887   4.276  0.3590  0.2998  0.0519
   34DOPE  H10X 4361   4.169   3.848   4.265  0.7284  1.4012 -0.5917
   34DOPE  C311 4362   4.040   3.992   4.384  0.0978  0.4651 -0.7053
   34DOPE  H11X 4363   3.931   3.991   4.410  0.7724 -0.5734  2.5720
   34DOPE  H11Y 4364   4.100   3.947   4.465 -1.9816 -2.0575 -0.4014
   34DOPE  C312 4365   4.088   4.128   4.328 -0.3361  0.3570 -0.3169
   34DOPE  H12X 4366   4.031   4.154   4.237  0.9266  0.1333 -1.2065
   34DOPE  H12Y 4367   4.193   4.133   4.292  1.0665  1.3422  3.4081
   34DOPE  C313 4368   4.079   4.237   4.442  0.2230  0.0193  0.2842
   34DOPE  H13X 4369   4.058   4.332   4.387 -2.4740 -0.0479  1.0315
   34DOPE  H13Y 4370   3.990   4.234   4.509  0.1371  0.9514  0.2326
   34DOPE  C314 4371   4.200   4.229   4.534  0.3147  0.0116 -0.5503
   34DOPE  H14X 4372   4.292   4.245   4.474 -0.2790 -0.9930 -1.7699
   34DOPE  H14Y 4373   4.206   4.122   4.563 -2.5296 -0.4400 -1.3073
   34DOPE  C315 4374   4.204   4.307   4.670 -0.1144  0.0975  0.1711
   34DOPE  H15X 4375   4.296   4.274   4.722 -0.3721 -0.1431  0.4772
   34DOPE  H15Y 4376   4.114   4.272   4.724  1.2645 -1.4955  1.5423
   34DOPE  C316 4377   4.198   4.455   4.651  0.1417 -0.4385 -0.0887
   34DOPE  H16X 4378   4.095   4.484   4.623 -1.1529 -1.2712  3.3123
   34DOPE  H16Y 4379   4.256   4.487   4.561 -2.1498 -1.4862 -2.0593
   34DOPE  C317 4380   4.246   4.534   4.774 -0.8424  0.2060 -0.6509
   34DOPE  H17X 4381   4.193   4.487   4.860  1.2961  0.6960  1.0172
   34DOPE  H17Y 4382   4.351   4.505   4.793 -0.4151  2.1093  0.1324
   34DOPE  C318 4383   4.239   4.686   4.772  0.2080  0.5411  0.8907
   34DOPE  H18X 4384   4.136   4.728   4.778 -0.2213 -0.5744  1.5472
   34DOPE  H18Y 4385   4.301   4.732   4.852  1.2150  0.2116  0.3231
   34DOPE  H18Z 4386   4.293   4.722   4.681  1.0878  0.8391  1.5181
   35DOPE     N 4387   6.158   3.938   2.826 -0.1208  0.2087 -0.4333
   35DOPE   HN1 4388   6.223   3.965   2.750 -0.7461  1.3162 -0.5840
   35DOPE   HN2 4389   6.070   3.899   2.785 -0.9694  2.0340 -0.4226
   35DOPE   HN3 4390   6.131   4.023   2.880 -1.2358 -0.6257  0.3878
   35DOPE   C12 4391   6.216   3.832   2.912  0.0484 -0.1519  0.2987
   35DOPE  H12A 4392   6.314   3.805   2.867  0.1213  0.0351  0.3470
   35DOPE  H12B 4393   6.149   3.744   2.921 -0.0342 -0.0536  0.6366
   35DOPE   C11 4394   6.229   3.888   3.058  0.4879 -0.6796 -0.6889
   35DOPE  H11A 4395   6.261   3.807   3.126  0.9562  0.1798  0.1430
   35DOPE  H11B 4396   6.132   3.930   3.092  2.1166  3.0529 -0.1041
   35DOPE     P 4397   6.465   3.986   3.073  0.4900 -0.2417 -0.1992
   35DOPE   O13 4398   6.544   4.109   3.064 -0.1127 -0.3926 -0.3372
   35DOPE   O14 4399   6.497   3.878   2.978 -0.4793 -0.4881  0.2873
   35DOPE   O11 4400   6.489   3.934   3.218  0.5451 -0.1821 -0.2543
   35DOPE   O12 4401   6.308   4.009   3.057  0.7782  0.2730 -1.0619
   35DOPE    C1 4402   6.445   4.024   3.328  0.0485 -0.3054 -0.5784
   35DOPE    HA 4403   6.371   3.969   3.389 -0.3359  1.5168  0.6777
   35DOPE    HB 4404   6.400   4.123   3.305  0.9568  0.0759 -0.7795
   35DOPE    C2 4405   6.561   4.040   3.429  0.2078 -0.8379 -0.5823
   35DOPE    HS 4406   6.636   4.100   3.373 -0.3335  1.4134  0.9645
   35DOPE   O21 4407   6.600   3.912   3.463  0.0809 -0.0126 -0.2811
   35DOPE   C21 4408   6.725   3.905   3.507 -0.5872 -0.2200 -0.1371
   35DOPE   O22 4409   6.806   3.993   3.522 -0.0615 -0.3289  0.1486
   35DOPE   C22 4410   6.769   3.758   3.545  0.7499 -0.5433  0.0132
   35DOPE   H2R 4411   6.864   3.749   3.488  0.0639  0.8342 -1.4423
   35DOPE   H2S 4412   6.699   3.691   3.490  0.8842  0.7620 -1.8602
   35DOPE    C3 4413   6.526   4.116   3.558 -0.2841 -0.0288 -0.1046
   35DOPE    HX 4414   6.503   4.222   3.534  0.3797 -0.2863 -2.0274
   35DOPE    HY 4415   6.609   4.123   3.631 -0.6639  1.1191  0.2384
   35DOPE   O31 4416   6.412   4.051   3.619  0.5029  0.0617 -0.4795
   35DOPE   C31 4417   6.370   4.118   3.729 -0.3435  0.3716 -0.1326
   35DOPE   O32 4418   6.422   4.220   3.768 -0.6335 -0.4840  0.1400
   35DOPE   C32 4419   6.253   4.049   3.798 -0.5572  0.0017 -0.1004
   35DOPE   H2X 4420   6.175   4.037   3.720 -0.7701  1.3241 -0.1089
   35DOPE   H2Y 4421   6.288   3.950   3.834 -0.1067  0.0043 -0.5191
   35DOPE   C23 4422   6.763   3.722   3.692  0.3936 -0.2084  0.1520
   35DOPE   H3R 4423   6.673   3.761   3.745  1.5573  0.9085  1.3636
   35DOPE   H3S 4424   6.850   3.771   3.741  0.1844 -1.0973  1.4732
   35DOPE   C24 4425   6.785   3.573   3.716  0.1051  0.5064  0.9241
   35DOPE   H4R 4426   6.870   3.544   3.650  0.8245 -0.0817  2.0735
   35DOPE   H4S 4427   6.709   3.501   3.682  0.6787  0.3579 -0.0793
   35DOPE   C25 4428   6.819   3.522   3.864  0.6651  0.8139  0.3857
   35DOPE   H5R 4429   6.726   3.520   3.924  1.1832 -0.5723  1.1669
   35DOPE   H5S 4430   6.886   3.598   3.910  0.0698  0.9885  0.9737
   35DOPE   C26 4431   6.888   3.384   3.856  0.7178 -0.0019  0.0593
   35DOPE   H6R 4432   6.941   3.366   3.759  0.9508  3.9039 -0.6954
   35DOPE   H6S 4433   6.800   3.317   3.873  0.2206  1.1004  2.0810
   35DOPE   C27 4434   6.982   3.353   3.970  0.4215 -1.0941 -0.0951
   35DOPE   H7R 4435   7.078   3.396   3.934 -0.1444  0.4473  0.1438
   35DOPE   H7S 4436   6.989   3.242   3.975 -1.2040 -1.4473 -2.9809
   35DOPE   C28 4437   6.936   3.396   4.113  0.0098  0.2694 -0.5084
   35DOPE   H8R 4438   6.941   3.507   4.113 -0.0886  0.2963 -1.8403
   35DOPE   H8S 4439   7.010   3.360   4.187  0.8479  1.7664 -0.6027
   35DOPE   C29 4440   6.800   3.338   4.154  0.6314  0.0976 -0.5804
   35DOPE   H9R 4441   6.764   3.252   4.097 -1.1901  0.6581 -0.3355
   35DOPE  C210 4442   6.733   3.385   4.265 -0.1829  0.0746  0.2615
   35DOPE  H10R 4443   6.629   3.353   4.283 -0.3504  1.7748  2.7476
   35DOPE  C211 4444   6.776   3.508   4.340  0.1274 -0.0921 -0.1766
   35DOPE  H11R 4445   6.774   3.604   4.284  0.5072  0.1798  0.2748
   35DOPE  H11S 4446   6.877   3.500   4.385 -0.3253  1.4230  1.1855
   35DOPE  C212 4447   6.685   3.530   4.465 -0.4736  0.9152  0.5012
   35DOPE  H12R 4448   6.577   3.522   4.439 -1.0786 -2.6482  3.3195
   35DOPE  H12S 4449   6.710   3.632   4.502  2.9273 -0.2624  1.8566
   35DOPE  C213 4450   6.715   3.433   4.584 -0.2232  0.1101  0.5796
   35DOPE  H13R 4451   6.825   3.422   4.593 -0.0902  1.6866  1.1376
   35DOPE  H13S 4452   6.670   3.335   4.559  2.1134 -0.8071 -0.2993
   35DOPE  C214 4453   6.658   3.483   4.716  1.1969  0.2230  0.3661
   35DOPE  H14R 4454   6.722   3.565   4.756 -1.7619  1.8226  2.1236
   35DOPE  H14S 4455   6.664   3.396   4.785  1.8033 -1.1380 -1.3382
   35DOPE  C215 4456   6.508   3.532   4.718 -0.5487 -0.0385  0.4160
   35DOPE  H15R 4457   6.449   3.445   4.682  0.6766 -0.3608 -0.9464
   35DOPE  H15S 4458   6.501   3.615   4.644  2.7924 -0.1178 -0.1729
   35DOPE  C216 4459   6.467   3.602   4.851  0.3041 -0.1821 -0.4604
   35DOPE  H16R 4460   6.357   3.611   4.860  0.4689  0.6963  1.0551
   35DOPE  H16S 4461   6.515   3.698   4.878 -0.9289 -0.1760  2.0592
   35DOPE  C217 4462   6.499   3.514   4.974 -0.7471 -0.3987  0.0660
   35DOPE  H17R 4463   6.609   3.504   4.981 -0.4147  0.9849 -2.2395
   35DOPE  H17S 4464   6.456   3.411   4.967  2.0352 -1.5810 -1.4759
   35DOPE  C218 4465   6.441   3.567   5.109  0.4297  0.0413  0.2711
   35DOPE  H18R 4466   6.454   3.678   5.107  1.1941 -0.0098  1.2519
   35DOPE  H18S 4467   6.496   3.532   5.199  2.5311 -1.3061 -1.4704
   35DOPE  H18T 4468   6.335   3.536   5.117 -0.2399  2.0540 -0.0913
   35DOPE   C33 4469   6.214   4.128   3.920 -0.1128 -0.1124  0.5907
   35DOPE   H3X 4470   6.192   4.236   3.904  0.3114 -0.0956  0.0888
   35DOPE   H3Y 4471   6.287   4.120   4.003 -1.6912 -1.1468  1.9455
   35DOPE   C34 4472   6.089   4.065   3.984  0.1175 -0.6204 -0.5049
   35DOPE   H4X 4473   6.072   4.111   4.084  0.6107  1.3060 -1.2711
   35DOPE   H4Y 4474   6.000   4.096   3.925  0.6076 -0.0285 -0.9471
   35DOPE   C35 4475   6.087   3.913   4.019 -0.2950 -0.1934 -0.3683
   35DOPE   H5X 4476   6.182   3.879   4.065 -1.5842 -1.7556  1.3140
   35DOPE   H5Y 4477   6.079   3.844   3.932 -5.2860 -3.7013  2.3379
   35DOPE   C36 4478   5.984   3.869   4.124  0.0117 -0.1614  0.2599
   35DOPE   H6X 4479   6.011   3.925   4.215  1.0621  1.3518 -0.9178
   35DOPE   H6Y 4480   5.997   3.759   4.137  2.6801  0.1554  0.8974
   35DOPE   C37 4481   5.840   3.877   4.070 -0.7739  0.1949 -0.0316
   35DOPE   H7X 4482   5.811   3.982   4.050 -0.5502  0.3177  0.2816
   35DOPE   H7Y 4483   5.852   3.839   3.967  2.4625  0.7717  0.0320
   35DOPE   C38 4484   5.734   3.813   4.164 -0.2894 -0.1102 -1.0175
   35DOPE   H8X 4485   5.749   3.706   4.189  0.6537  0.4128  0.8630
   35DOPE   H8Y 4486   5.632   3.830   4.122 -1.7034  0.4191  2.3167
   35DOPE   C39 4487   5.742   3.898   4.293 -0.1429 -1.2524  0.3975
   35DOPE   H9X 4488   5.793   3.994   4.280 -0.1783 -1.3817 -0.8043
   35DOPE  C310 4489   5.717   3.860   4.420  0.2691 -0.3117  0.2084
   35DOPE  H10X 4490   5.729   3.935   4.500  0.7056  0.8738 -0.9221
   35DOPE  C311 4491   5.675   3.721   4.463  0.3520  0.5922  0.6327
   35DOPE  H11X 4492   5.648   3.660   4.374  0.0433 -1.0848  1.8191
   35DOPE  H11Y 4493   5.755   3.671   4.522  0.1096  2.0364  2.2566
   35DOPE  C312 4494   5.549   3.716   4.554 -0.3414  0.4871  0.8182
   35DOPE  H12X 4495   5.516   3.609   4.558 -0.1066  0.1488 -2.7847
   35DOPE  H12Y 4496   5.469   3.782   4.514 -1.2342 -0.7125  0.5214
   35DOPE  C313 4497   5.563   3.780   4.693  0.1672 -0.8591  0.3111
   35DOPE  H13X 4498   5.586   3.886   4.669  2.2032 -1.3904 -0.2486
   35DOPE  H13Y 4499   5.463   3.776   4.743  0.2787  0.5278  0.6980
   35DOPE  C314 4500   5.667   3.718   4.786  0.0941 -0.5104  0.2075
   35DOPE  H14X 4501   5.769   3.733   4.745  0.9319 -1.8041  1.6912
   35DOPE  H14Y 4502   5.650   3.608   4.790  0.4158 -0.5232  1.8740
   35DOPE  C315 4503   5.673   3.762   4.932  0.0666 -0.5050  0.4404
   35DOPE  H15X 4504   5.577   3.731   4.980 -0.4516  0.3186 -0.0434
   35DOPE  H15Y 4505   5.684   3.871   4.951 -0.1136 -0.4508  0.2425
   35DOPE  C316 4506   5.793   3.689   4.994  0.5227 -0.3977  0.3563
   35DOPE  H16X 4507   5.888   3.713   4.942 -0.0404  1.2434  0.0208
   35DOPE  H16Y 4508   5.765   3.584   4.968  1.0107  0.2100 -3.2493
   35DOPE  C317 4509   5.826   3.704   5.147  0.7968  0.0405 -0.9440
   35DOPE  H17X 4510   5.833   3.813   5.169  0.5917  0.2414 -1.8435
   35DOPE  H17Y 4511   5.737   3.672   5.204  1.6902  0.9953  1.0956
   35DOPE  C318 4512   5.956   3.627   5.190 -0.4678 -0.1991 -0.0475
   35DOPE  H18X 4513   6.035   3.680   5.133 -1.9705  1.1336 -0.9934
   35DOPE  H18Y 4514   5.968   3.650   5.298  0.1444  1.2510 -0.4062
   35DOPE  H18Z 4515   5.952   3.518   5.167  1.0691 -0.3804  0.4510
   36DOPE     N 4516   7.241   4.067   2.849  0.0482 -0.0139  0.5700
   36DOPE   HN1 4517   7.314   4.126   2.804 -0.4769  0.4977  0.3756
   36DOPE   HN2 4518   7.162   4.129   2.875 -0.3214  0.4289 -1.4598
   36DOPE   HN3 4519   7.278   4.018   2.933  2.0537  0.3049 -0.0709
   36DOPE   C12 4520   7.200   3.966   2.746  0.4272 -0.2997  0.2728
   36DOPE  H12A 4521   7.132   3.899   2.802  0.5369  0.0980  0.8993
   36DOPE  H12B 4522   7.293   3.914   2.714  0.0111  0.9653 -3.3751
   36DOPE   C11 4523   7.133   4.027   2.625  0.3208  0.1858  0.0829
   36DOPE  H11A 4524   7.163   3.967   2.536  1.7344 -0.2533  0.8265
   36DOPE  H11B 4525   7.171   4.130   2.612  1.2871 -0.3883 -2.0373
   36DOPE     P 4526   6.915   4.134   2.723  0.0472 -0.4995  0.0838
   36DOPE   O13 4527   6.772   4.098   2.728 -0.1874  0.4339 -0.1183
   36DOPE   O14 4528   6.940   4.265   2.658 -0.2044  0.2875  0.3358
   36DOPE   O11 4529   6.983   4.141   2.861 -0.0274 -0.0221 -0.7820
   36DOPE   O12 4530   6.990   4.026   2.644 -0.5601  0.1126  0.4930
   36DOPE    C1 4531   6.929   4.224   2.966 -0.9934 -0.1805  0.2249
   36DOPE    HA 4532   6.822   4.204   2.989 -0.7027  0.3212  2.1949
   36DOPE    HB 4533   6.939   4.325   2.922  0.0882 -0.3338  0.0996
   36DOPE    C2 4534   7.011   4.221   3.101 -0.4685 -0.1043  0.2321
   36DOPE    HS 4535   6.961   4.289   3.173  0.6841 -0.4383  1.3802
   36DOPE   O21 4536   7.146   4.250   3.069  0.1185  0.2636 -0.4506
   36DOPE   C21 4537   7.172   4.381   3.091 -0.1679  0.2986 -0.2644
   36DOPE   O22 4538   7.094   4.469   3.127 -0.1668  0.4038 -0.4455
   36DOPE   C22 4539   7.322   4.403   3.062  0.3037 -0.1168  0.6837
   36DOPE   H2R 4540   7.339   4.397   2.952 -2.5248 -0.1900  0.1892
   36DOPE   H2S 4541   7.379   4.324   3.115  1.1026 -0.8178 -1.1455
   36DOPE    C3 4542   7.008   4.080   3.161  0.0631 -0.6927 -0.0662
   36DOPE    HX 4543   7.048   4.014   3.082 -2.0050 -0.5192 -1.3407
   36DOPE    HY 4544   6.905   4.052   3.192 -1.2770  3.5622 -0.0071
   36DOPE   O31 4545   7.083   4.065   3.286  0.2221  0.0391 -0.6266
   36DOPE   C31 4546   7.080   3.941   3.337 -0.1660  0.6129  0.3616
   36DOPE   O32 4547   7.002   3.853   3.301  0.6658  0.1383 -0.3811
   36DOPE   C32 4548   7.190   3.929   3.443 -1.2333  0.3940  0.3494
   36DOPE   H2X 4549   7.277   3.991   3.412 -0.4160 -0.7254  0.3564
   36DOPE   H2Y 4550   7.139   3.965   3.536  0.7819 -0.2319  1.7580
   36DOPE   C23 4551   7.382   4.534   3.118  0.1997 -0.9199  0.3412
   36DOPE   H3R 4552   7.306   4.615   3.112  0.3166 -0.8864 -1.1564
   36DOPE   H3S 4553   7.452   4.583   3.047  0.5298 -0.5744  0.9011
   36DOPE   C24 4554   7.450   4.534   3.255  0.1405  0.1965  0.1403
   36DOPE   H4R 4555   7.384   4.489   3.332  1.0896  0.9299  1.4235
   36DOPE   H4S 4556   7.462   4.637   3.294  0.1181  0.1940  0.1536
   36DOPE   C25 4557   7.586   4.471   3.245  0.3456 -0.0451 -0.3736
   36DOPE   H5R 4558   7.644   4.524   3.166 -1.3815  1.7607 -0.5052
   36DOPE   H5S 4559   7.578   4.366   3.208 -2.9370  0.6543 -2.0376
   36DOPE   C26 4560   7.667   4.493   3.378  0.2757  0.8634 -0.5960
   36DOPE   H6R 4561   7.615   4.427   3.451 -1.0906  0.1886 -2.1087
   36DOPE   H6S 4562   7.663   4.594   3.424 -0.4288  0.4301  0.3377
   36DOPE   C27 4563   7.809   4.435   3.372  0.2541  0.3552  0.1491
   36DOPE   H7R 4564   7.876   4.499   3.311 -0.2569  1.4199  0.6701
   36DOPE   H7S 4565   7.808   4.329   3.340  1.3025  0.7882 -1.4014
   36DOPE   C28 4566   7.868   4.445   3.517  0.0681 -0.1281  0.1811
   36DOPE   H8R 4567   7.808   4.369   3.572 -1.0671  0.4755 -0.1762
   36DOPE   H8S 4568   7.848   4.542   3.569  2.3089 -1.0565  3.0429
   36DOPE   C29 4569   8.017   4.414   3.527 -0.0762 -0.1091 -0.2430
   36DOPE   H9R 4570   8.092   4.459   3.461 -0.1931 -1.2251 -1.1475
   36DOPE  C210 4571   8.078   4.345   3.623  0.2930 -0.0620  0.6299
   36DOPE  H10R 4572   8.188   4.342   3.619  0.4156 -1.7617  3.1174
   36DOPE  C211 4573   8.020   4.277   3.740 -0.3133  0.0816  0.2896
   36DOPE  H11R 4574   8.053   4.172   3.755 -2.5861 -0.5452  1.2930
   36DOPE  H11S 4575   7.910   4.266   3.732 -0.3622  0.7277  0.0545
   36DOPE  C212 4576   8.040   4.370   3.858  0.3999  0.0321  0.5599
   36DOPE  H12R 4577   7.965   4.452   3.852  0.0221 -0.3103  0.5959
   36DOPE  H12S 4578   8.145   4.406   3.860  0.5591 -0.3972  0.0784
   36DOPE  C213 4579   8.010   4.285   3.987  0.3740  0.1800  0.2246
   36DOPE  H13R 4580   8.030   4.176   3.980 -0.0946 -0.0484  2.0223
   36DOPE  H13S 4581   7.903   4.311   4.000  0.8143  1.5659  1.4200
   36DOPE  C214 4582   8.089   4.329   4.107  0.5731  0.0139  1.0123
   36DOPE  H14R 4583   8.081   4.439   4.122  0.4875  0.0373  0.7938
   36DOPE  H14S 4584   8.196   4.304   4.089  0.0604 -1.3810 -0.2940
   36DOPE  C215 4585   8.037   4.281   4.239  0.1345  0.9616 -0.7683
   36DOPE  H15R 4586   8.025   4.170   4.230 -1.8339  0.9144  1.3192
   36DOPE  H15S 4587   7.935   4.323   4.256 -0.4691 -1.2662  1.8520
   36DOPE  C216 4588   8.130   4.314   4.363 -1.2251 -0.6453  0.2104
   36DOPE  H16R 4589   8.142   4.423   4.376  0.2287 -0.7855  0.1310
   36DOPE  H16S 4590   8.227   4.267   4.335 -1.1563 -0.2436 -0.2279
   36DOPE  C217 4591   8.092   4.259   4.497  0.7419 -0.5593  0.0081
   36DOPE  H17R 4592   8.175   4.280   4.567  1.6949 -1.5570 -0.7968
   36DOPE  H17S 4593   8.071   4.150   4.498 -1.1812 -0.2371  0.8618
   36DOPE  C218 4594   7.965   4.327   4.558  0.5956  0.7400 -0.2738
   36DOPE  H18R 4595   7.972   4.438   4.558  0.7477  0.7311 -0.4149
   36DOPE  H18S 4596   7.951   4.296   4.663 -0.6482  2.0012 -0.0427
   36DOPE  H18T 4597   7.878   4.293   4.499  1.7451 -0.1866 -1.4973
   36DOPE   C33 4598   7.237   3.791   3.487 -0.0797  0.4520  0.3854
   36DOPE   H3X 4599   7.285   3.740   3.400  1.7900  0.5337  1.3101
   36DOPE   H3Y 4600   7.143   3.733   3.500 -0.0227  0.4910  0.9600
   36DOPE   C34 4601   7.331   3.773   3.607 -0.2407  0.0821 -0.2202
   36DOPE   H4X 4602   7.375   3.671   3.603  2.0367  1.0009  0.0940
   36DOPE   H4Y 4603   7.411   3.850   3.604  0.9186 -1.0305  1.0109
   36DOPE   C35 4604   7.254   3.772   3.743  0.4417  0.1001  0.0258
   36DOPE   H5X 4605   7.318   3.739   3.828  1.4919  0.5093 -0.5832
   36DOPE   H5Y 4606   7.165   3.707   3.734  0.0813  0.8421 -2.5596
   36DOPE   C36 4607   7.202   3.903   3.799 -0.2515  0.4500  0.1107
   36DOPE   H6X 4608   7.118   3.930   3.732  0.5395  1.2175 -0.5940
   36DOPE   H6Y 4609   7.269   3.991   3.801  0.9737 -0.3287 -2.4588
   36DOPE   C37 4610   7.148   3.878   3.936 -0.6952 -0.8071  0.2568
   36DOPE   H7X 4611   7.088   3.785   3.940 -0.9845 -0.5940  0.9761
   36DOPE   H7Y 4612   7.236   3.866   4.002 -0.7154  0.6271  0.5859
   36DOPE   C38 4613   7.075   4.000   3.994 -0.2148 -1.0809  0.1752
   36DOPE   H8X 4614   6.976   4.021   3.948  0.8179  0.3161 -1.5385
   36DOPE   H8Y 4615   7.123   4.097   3.967  0.6643 -1.1325  1.4774
   36DOPE   C39 4616   7.054   3.992   4.139  0.8022  0.5596 -0.5635
   36DOPE   H9X 4617   7.036   3.888   4.170 -0.7956  0.4783 -1.6295
   36DOPE  C310 4618   7.072   4.089   4.231 -0.4184 -0.3823  0.4250
   36DOPE  H10X 4619   7.071   4.059   4.337 -1.6269 -0.3778  0.4285
   36DOPE  C311 4620   7.085   4.234   4.201  0.3219  0.6584  0.0890
   36DOPE  H11X 4621   7.189   4.271   4.190  0.1533  1.4438  1.0099
   36DOPE  H11Y 4622   7.010   4.261   4.124 -2.0742 -0.3836  1.9159
   36DOPE  C312 4623   7.036   4.320   4.321  0.3430 -0.6478 -1.1960
   36DOPE  H12X 4624   7.063   4.425   4.296 -0.5954 -0.2694 -0.6669
   36DOPE  H12Y 4625   7.093   4.293   4.413  0.1719  2.9910  0.1410
   36DOPE  C313 4626   6.881   4.311   4.347  0.4241  0.9923  0.4067
   36DOPE  H13X 4627   6.818   4.310   4.255  3.0243  1.6424 -1.5198
   36DOPE  H13Y 4628   6.877   4.206   4.384 -1.9321  0.2207 -1.7161
   36DOPE  C314 4629   6.821   4.415   4.442 -0.6729  0.7435  0.0946
   36DOPE  H14X 4630   6.722   4.373   4.468 -0.6267  0.5631 -0.0191
   36DOPE  H14Y 4631   6.812   4.504   4.377 -1.7955  0.3521 -0.3060
   36DOPE  C315 4632   6.899   4.435   4.569 -0.0515  0.2202  0.6194
   36DOPE  H15X 4633   7.001   4.466   4.537 -0.6695  1.5543 -0.1382
   36DOPE  H15Y 4634   6.898   4.343   4.631 -3.5266  1.5454  2.8168
   36DOPE  C316 4635   6.842   4.556   4.639 -0.4921  0.5134 -0.1913
   36DOPE  H16X 4636   6.745   4.532   4.687 -0.1123 -1.2494 -0.2452
   36DOPE  H16Y 4637   6.828   4.635   4.562 -2.1997 -2.3690 -3.0558
   36DOPE  C317 4638   6.921   4.612   4.757 -0.0094 -0.1730  0.7475
   36DOPE  H17X 4639   6.906   4.543   4.843 -1.5505 -1.7481 -0.7043
   36DOPE  H17Y 4640   7.029   4.606   4.729 -0.1340  1.3699 -0.1632
   36DOPE  C318 4641   6.888   4.763   4.794 -0.3531  0.2951 -0.3198
   36DOPE  H18X 4642   6.790   4.763   4.848 -1.0090 -1.9191 -1.3946
   36DOPE  H18Y 4643   6.963   4.806   4.863  0.4184 -0.0181 -0.9430
   36DOPE  H18Z 4644   6.885   4.836   4.710  0.3091  2.3573  1.3710
   37DOPE     N 4645   2.050   1.525   2.870  0.1360  0.0226  0.4766
   37DOPE   HN1 4646   2.010   1.513   2.965  0.6593  2.2968  1.0439
   37DOPE   HN2 4647   2.079   1.625   2.863  0.1145  0.0299  0.4947
   37DOPE   HN3 4648   1.982   1.504   2.794  1.3504 -1.2907 -0.2991
   37DOPE   C12 4649   2.172   1.450   2.841 -0.8199 -0.1897  0.0088
   37DOPE  H12A 4650   2.253   1.502   2.897 -2.7486  0.2374  2.6230
   37DOPE  H12B 4651   2.186   1.457   2.731  0.0929  0.1046  0.1331
   37DOPE   C11 4652   2.152   1.303   2.883  0.6123 -0.8460  0.3239
   37DOPE  H11A 4653   2.065   1.266   2.825  0.6646  1.0953 -1.0772
   37DOPE  H11B 4654   2.128   1.306   2.992 -0.7880  1.1553  0.0222
   37DOPE     P 4655   2.370   1.182   2.943 -0.0107  0.5942 -0.0815
   37DOPE   O13 4656   2.490   1.133   2.868 -0.0245 -0.0883  0.4542
   37DOPE   O14 4657   2.310   1.091   3.046 -0.2406 -0.0914 -0.2585
   37DOPE   O11 4658   2.401   1.319   3.013 -0.3815  0.1126  0.8144
   37DOPE   O12 4659   2.261   1.219   2.840  0.3426 -0.2208 -0.2893
   37DOPE    C1 4660   2.517   1.389   3.015 -0.8099  0.2883  0.0939
   37DOPE    HA 4661   2.505   1.468   2.937  1.2601 -0.6899 -1.3348
   37DOPE    HB 4662   2.604   1.326   2.986 -1.0835  0.0763 -0.2855
   37DOPE    C2 4663   2.536   1.452   3.155  0.9970 -0.0853 -0.1131
   37DOPE    HS 4664   2.638   1.492   3.170  0.5692  0.6550  0.9394
   37DOPE   O21 4665   2.498   1.366   3.268 -0.2826  0.3757  0.5598
   37DOPE   C21 4666   2.604   1.292   3.299  0.0731  0.0627 -0.1330
   37DOPE   O22 4667   2.713   1.305   3.242 -0.2102 -0.2956 -0.4033
   37DOPE   C22 4668   2.561   1.190   3.401 -0.3251  0.3435 -0.1060
   37DOPE   H2R 4669   2.595   1.090   3.367 -3.4508  0.1545 -3.2465
   37DOPE   H2S 4670   2.450   1.186   3.401 -0.3554  1.0648  0.1082
   37DOPE    C3 4671   2.443   1.581   3.160 -0.1664  0.1455  0.0097
   37DOPE    HX 4672   2.338   1.545   3.152 -0.0288 -0.4571  0.8145
   37DOPE    HY 4673   2.459   1.649   3.074  0.2581  1.1691  0.8609
   37DOPE   O31 4674   2.476   1.673   3.271 -0.7360 -0.1212  0.3390
   37DOPE   C31 4675   2.412   1.645   3.386 -0.4723 -0.7656 -0.1695
   37DOPE   O32 4676   2.331   1.552   3.395  0.9175  0.8627  0.4240
   37DOPE   C32 4677   2.449   1.743   3.501 -0.0133 -0.0653 -0.8724
   37DOPE   H2X 4678   2.426   1.845   3.464  2.3602  0.5731 -0.7936
   37DOPE   H2Y 4679   2.390   1.710   3.589 -0.0946 -0.9932 -1.2651
   37DOPE   C23 4680   2.627   1.203   3.544 -0.3443 -0.4459 -0.1518
   37DOPE   H3R 4681   2.736   1.183   3.539  0.0182  1.1986  0.3959
   37DOPE   H3S 4682   2.587   1.116   3.600 -1.5099 -0.4083 -0.8731
   37DOPE   C24 4683   2.593   1.336   3.610 -0.2142  0.3395  0.6874
   37DOPE   H4R 4684   2.496   1.368   3.566 -0.2387  0.6931  0.9960
   37DOPE   H4S 4685   2.670   1.410   3.580  0.9147 -1.3457 -0.8400
   37DOPE   C25 4686   2.580   1.323   3.762  0.3434  0.2379 -0.0110
   37DOPE   H5R 4687   2.519   1.232   3.781  0.5245  0.0397 -0.3828
   37DOPE   H5S 4688   2.521   1.410   3.800  1.6353  1.6223 -1.0803
   37DOPE   C26 4689   2.722   1.316   3.829  0.3318 -0.4409  0.5129
   37DOPE   H6R 4690   2.792   1.393   3.792  0.6155 -1.3869 -1.0063
   37DOPE   H6S 4691   2.774   1.226   3.789 -0.3019 -0.0170 -1.3700
   37DOPE   C27 4692   2.720   1.304   3.979 -0.0300 -0.1877  0.4156
   37DOPE   H7R 4693   2.656   1.220   4.015 -1.1938  0.8431  0.8414
   37DOPE   H7S 4694   2.686   1.401   4.022  0.8383  0.0256  0.6316
   37DOPE   C28 4695   2.861   1.258   4.036  0.8112 -0.0132 -1.0939
   37DOPE   H8R 4696   2.896   1.157   4.008 -2.2039 -0.9968 -1.6547
   37DOPE   H8S 4697   2.842   1.239   4.144 -0.3501 -1.1253 -1.4732
   37DOPE   C29 4698   2.964   1.375   4.014  0.3354  0.2520  0.4363
   37DOPE   H9R 4699   3.002   1.383   3.911  1.7052  0.7618  0.9548
   37DOPE  C210 4700   2.999   1.465   4.112 -0.0688  0.4550  0.5373
   37DOPE  H10R 4701   3.064   1.550   4.090 -0.2811  0.5052  0.0928
   37DOPE  C211 4702   2.955   1.453   4.254 -0.8068 -0.0937 -0.1391
   37DOPE  H11R 4703   2.849   1.421   4.257 -0.9145  0.2906  0.2331
   37DOPE  H11S 4704   2.969   1.543   4.317  1.7205 -1.7125  1.8282
   37DOPE  C212 4705   3.030   1.340   4.327 -0.0772  0.3296 -0.1671
   37DOPE  H12R 4706   3.132   1.372   4.358  0.1186 -0.7664  0.3582
   37DOPE  H12S 4707   3.037   1.253   4.258 -0.8861  1.5897 -1.9313
   37DOPE  C213 4708   2.962   1.293   4.459  0.9296 -0.4494  0.7013
   37DOPE  H13R 4709   2.870   1.235   4.436 -0.2110  1.5944 -0.2373
   37DOPE  H13S 4710   2.912   1.386   4.494 -1.7305 -1.1093 -1.0080
   37DOPE  C214 4711   3.050   1.220   4.554  0.3069 -0.1631 -0.0950
   37DOPE  H14R 4712   3.113   1.287   4.616 -0.9136  1.5008 -0.6022
   37DOPE  H14S 4713   3.116   1.158   4.489 -0.2663 -1.4435  0.4925
   37DOPE  C215 4714   2.982   1.122   4.650 -0.0064  0.1202 -0.2887
   37DOPE  H15R 4715   2.919   1.051   4.593  1.1163 -0.4103 -0.9239
   37DOPE  H15S 4716   2.905   1.165   4.717  1.0200 -1.1838  1.8320
   37DOPE  C216 4717   3.077   1.030   4.736  1.0944  0.0568 -0.2486
   37DOPE  H16R 4718   3.111   1.074   4.832  1.1568 -1.7814  0.6191
   37DOPE  H16S 4719   3.173   1.016   4.681  0.3588 -3.2808 -0.9214
   37DOPE  C217 4720   3.027   0.892   4.779  0.2853  0.3970 -0.8094
   37DOPE  H17R 4721   2.984   0.832   4.696 -0.6849 -1.0974  0.7176
   37DOPE  H17S 4722   2.946   0.913   4.851 -1.5628 -0.1371 -2.6412
   37DOPE  C218 4723   3.142   0.806   4.836 -0.2940  0.2299  0.5675
   37DOPE  H18R 4724   3.205   0.874   4.898 -0.2565 -0.2386  1.0487
   37DOPE  H18S 4725   3.212   0.776   4.755  0.8685  2.7872  0.5229
   37DOPE  H18T 4726   3.106   0.723   4.900 -0.9825 -0.8519 -1.1687
   37DOPE   C33 4727   2.594   1.722   3.550 -0.3265 -0.0694 -0.3575
   37DOPE   H3X 4728   2.662   1.766   3.474  1.4202 -0.9204  0.6357
   37DOPE   H3Y 4729   2.627   1.616   3.556  0.7177  0.2043 -1.0148
   37DOPE   C34 4730   2.612   1.809   3.675 -0.7790 -0.1774 -0.5389
   37DOPE   H4X 4731   2.606   1.917   3.648  0.4423 -0.1967 -0.9993
   37DOPE   H4Y 4732   2.548   1.784   3.762  1.2797 -1.2901  0.7448
   37DOPE   C35 4733   2.765   1.804   3.724 -0.7398  0.2808 -0.2653
   37DOPE   H5X 4734   2.827   1.847   3.642 -2.8032  1.2915 -1.3747
   37DOPE   H5Y 4735   2.787   1.695   3.736  0.7772  0.9146  4.6393
   37DOPE   C36 4736   2.805   1.861   3.855  0.5968  0.0274 -0.1696
   37DOPE   H6X 4737   2.758   1.796   3.932  0.8231 -0.5260 -0.4987
   37DOPE   H6Y 4738   2.788   1.970   3.869 -0.6187 -0.1219 -0.3684
   37DOPE   C37 4739   2.952   1.832   3.898 -0.1901 -0.1507  0.1049
   37DOPE   H7X 4740   2.978   1.724   3.899 -0.2196 -0.1858 -1.2354
   37DOPE   H7Y 4741   3.010   1.869   3.810 -0.0831  1.1325  0.7037
   37DOPE   C38 4742   2.989   1.914   4.019 -0.0230 -0.4968 -0.4486
   37DOPE   H8X 4743   2.957   2.018   3.999 -1.0207 -0.7918 -0.4542
   37DOPE   H8Y 4744   3.100   1.908   4.022  0.0927  1.4734  2.0083
   37DOPE   C39 4745   2.925   1.873   4.152  0.1418  0.0456 -0.0719
   37DOPE   H9X 4746   2.816   1.860   4.154  0.2713 -1.0590  1.7215
   37DOPE  C310 4747   2.989   1.834   4.263  0.7438  0.2575 -0.6200
   37DOPE  H10X 4748   2.925   1.803   4.346 -1.1079 -1.0470 -2.4124
   37DOPE  C311 4749   3.137   1.820   4.289  0.2863  0.1326 -1.0592
   37DOPE  H11X 4750   3.156   1.776   4.390 -0.2921  0.2398 -0.8984
   37DOPE  H11Y 4751   3.193   1.758   4.216  0.7002  0.8363 -1.3498
   37DOPE  C312 4752   3.214   1.955   4.278  1.0907 -0.1080 -0.3704
   37DOPE  H12X 4753   3.188   2.022   4.193  1.1298 -0.7856 -0.9216
   37DOPE  H12Y 4754   3.322   1.937   4.262  1.1591  0.1333 -0.1884
   37DOPE  C313 4755   3.188   2.039   4.405  0.2327  0.1670  0.5905
   37DOPE  H13X 4756   3.085   2.081   4.393  0.2240 -0.0867 -0.2758
   37DOPE  H13Y 4757   3.183   1.976   4.496 -0.5019 -0.7861 -0.0867
   37DOPE  C314 4758   3.292   2.142   4.442 -0.0936 -0.0647 -0.1927
   37DOPE  H14X 4759   3.272   2.239   4.392  1.2243  0.3563  0.0388
   37DOPE  H14Y 4760   3.392   2.115   4.402  0.0511 -1.2707  0.9183
   37DOPE  C315 4761   3.289   2.170   4.595 -0.8521 -0.1169  0.3237
   37DOPE  H15X 4762   3.336   2.082   4.645 -0.7403 -0.7958 -0.9422
   37DOPE  H15Y 4763   3.183   2.188   4.623 -0.9918  1.3724 -1.0261
   37DOPE  C316 4764   3.385   2.294   4.620 -0.3429 -0.0399  0.6526
   37DOPE  H16X 4765   3.346   2.378   4.559 -0.8635  0.6042  1.8209
   37DOPE  H16Y 4766   3.484   2.276   4.573 -1.1468  2.5905 -2.4499
   37DOPE  C317 4767   3.404   2.340   4.764  0.1903 -0.2933  0.3915
   37DOPE  H17X 4768   3.312   2.393   4.798  0.0529  0.7183 -1.4771
   37DOPE  H17Y 4769   3.424   2.256   4.835 -0.3885 -0.0681  0.8249
   37DOPE  C318 4770   3.507   2.456   4.779  0.1185  0.0355  0.1740
   37DOPE  H18X 4771   3.609   2.423   4.749  0.7018  1.9332 -0.0563
   37DOPE  H18Y 4772   3.468   2.546   4.726 -2.9930 -0.5959  1.1541
   37DOPE  H18Z 4773   3.517   2.489   4.884 -0.0943 -0.8944  0.4896
   38DOPE     N 4774   0.637   4.513   3.128  0.0500 -0.0166 -0.5994
   38DOPE   HN1 4775   0.551   4.455   3.132 -1.4059  2.0266 -0.2502
   38DOPE   HN2 4776   0.686   4.498   3.218 -0.9355 -2.3171 -0.3881
   38DOPE   HN3 4777   0.612   4.613   3.113 -0.9317  0.0107  0.9793
   38DOPE   C12 4778   0.723   4.477   3.008  0.4975 -0.7478 -0.5462
   38DOPE  H12A 4779   0.761   4.373   3.018  1.7470 -0.2112  0.4469
   38DOPE  H12B 4780   0.807   4.549   2.999  0.4467 -0.5885  0.2315
   38DOPE   C11 4781   0.641   4.491   2.882  0.4146 -0.0444  0.0285
   38DOPE  H11A 4782   0.560   4.416   2.888 -0.7246  1.2176  1.2692
   38DOPE  H11B 4783   0.695   4.460   2.791 -1.3351 -0.5067 -0.8842
   38DOPE     P 4784   0.655   4.735   2.795  0.4468  0.1055  0.0556
   38DOPE   O13 4785   0.639   4.706   2.651  0.2453 -0.0227  0.5021
   38DOPE   O14 4786   0.791   4.749   2.853 -0.6479  0.0920  0.2152
   38DOPE   O11 4787   0.573   4.871   2.824 -0.3412 -0.2691  0.6483
   38DOPE   O12 4788   0.577   4.625   2.875 -0.6508 -0.2884 -0.2519
   38DOPE    C1 4789   0.643   4.989   2.868  0.1066 -0.3520 -0.7701
   38DOPE    HA 4790   0.588   5.082   2.844 -0.6081 -0.9429 -1.5053
   38DOPE    HB 4791   0.738   4.995   2.811  0.6921 -0.7741  0.1504
   38DOPE    C2 4792   0.682   4.989   3.024 -0.2918  0.3249  1.0852
   38DOPE    HS 4793   0.727   4.888   3.040 -0.9309 -0.2119 -0.2907
   38DOPE   O21 4794   0.556   4.998   3.098  0.3453 -0.4645 -0.2512
   38DOPE   C21 4795   0.526   4.887   3.169 -0.0259 -0.0808 -0.9952
   38DOPE   O22 4796   0.568   4.772   3.145  0.3556 -0.3954 -0.0903
   38DOPE   C22 4797   0.439   4.929   3.286  0.1435 -0.9819  0.5884
   38DOPE   H2R 4798   0.349   4.991   3.267 -0.3718 -1.3991  1.6068
   38DOPE   H2S 4799   0.503   5.000   3.342 -0.3178 -1.1172  1.2976
   38DOPE    C3 4800   0.779   5.103   3.070 -0.1468 -0.0865  0.2208
   38DOPE    HX 4801   0.748   5.197   3.020 -0.5377 -0.3867 -0.1145
   38DOPE    HY 4802   0.877   5.085   3.022 -0.1684  2.1797 -0.7823
   38DOPE   O31 4803   0.786   5.122   3.214  0.0791 -0.7528 -0.4541
   38DOPE   C31 4804   0.864   5.037   3.277  0.5568 -1.1921  0.1553
   38DOPE   O32 4805   0.901   4.932   3.229 -0.5642  0.5742 -0.0681
   38DOPE   C32 4806   0.890   5.092   3.419  0.1093 -0.5996  0.4189
   38DOPE   H2X 4807   1.000   5.083   3.431  0.7400  1.3426 -2.8475
   38DOPE   H2Y 4808   0.860   5.198   3.433 -0.9566 -0.9121  0.5949
   38DOPE   C23 4809   0.400   4.800   3.365 -0.4546 -0.8307 -0.8250
   38DOPE   H3R 4810   0.480   4.724   3.381  2.3225  1.7469 -1.4925
   38DOPE   H3S 4811   0.307   4.754   3.325 -1.8845  1.5538 -0.4657
   38DOPE   C24 4812   0.365   4.836   3.517  0.6017 -0.1078  0.0375
   38DOPE   H4R 4813   0.448   4.882   3.574  0.0316 -0.0356  0.8339
   38DOPE   H4S 4814   0.338   4.746   3.577 -0.0949 -0.0341 -0.1477
   38DOPE   C25 4815   0.245   4.936   3.525 -0.2619  0.8301  0.0200
   38DOPE   H5R 4816   0.160   4.878   3.484 -0.8980  0.6371  1.5432
   38DOPE   H5S 4817   0.257   5.033   3.472  1.0480  2.6194  3.2560
   38DOPE   C26 4818   0.197   4.965   3.665 -0.1611  0.0168 -0.6403
   38DOPE   H6R 4819   0.160   4.878   3.724  0.2690 -0.4161 -0.9961
   38DOPE   H6S 4820   0.111   5.034   3.658 -0.8997 -0.6111  1.4468
   38DOPE   C27 4821   0.300   5.044   3.754 -0.1938 -0.2503 -0.2472
   38DOPE   H7R 4822   0.375   5.090   3.687 -0.7617 -0.5553 -1.1147
   38DOPE   H7S 4823   0.352   4.969   3.818  1.3441  1.4860  0.5954
   38DOPE   C28 4824   0.257   5.155   3.846  0.4698  0.3442  0.2891
   38DOPE   H8R 4825   0.196   5.226   3.785  0.8055 -0.0083 -0.4677
   38DOPE   H8S 4826   0.347   5.209   3.883  2.4360 -1.8681 -1.0048
   38DOPE   C29 4827   0.175   5.100   3.958  0.5669  0.1577  0.2599
   38DOPE   H9R 4828   0.084   5.045   3.932  0.4289  0.3365  0.3649
   38DOPE  C210 4829   0.200   5.119   4.088 -0.2026 -0.2579  0.2428
   38DOPE  H10R 4830   0.125   5.077   4.157 -3.8253  0.7850 -2.7758
   38DOPE  C211 4831   0.321   5.183   4.147 -0.6057 -0.3321  0.6100
   38DOPE  H11R 4832   0.369   5.267   4.092  3.6830 -2.0561  1.2890
   38DOPE  H11S 4833   0.407   5.113   4.149 -0.7931 -0.6975 -1.4766
   38DOPE  C212 4834   0.307   5.223   4.299  0.4662 -0.5780  0.1776
   38DOPE  H12R 4835   0.305   5.123   4.347 -2.8843 -0.3978  0.6602
   38DOPE  H12S 4836   0.209   5.273   4.309  0.8279 -0.1545  1.9984
   38DOPE  C213 4837   0.419   5.317   4.348 -0.2800 -0.7394  0.5088
   38DOPE  H13R 4838   0.405   5.356   4.451 -2.0434  1.0993 -0.3631
   38DOPE  H13S 4839   0.422   5.401   4.275  0.0644  0.0985  1.4745
   38DOPE  C214 4840   0.547   5.245   4.355 -0.9752 -0.0024  0.1297
   38DOPE  H14R 4841   0.574   5.197   4.258 -3.0780  0.0604 -0.5334
   38DOPE  H14S 4842   0.540   5.156   4.420 -0.7395  0.1028  0.3011
   38DOPE  C215 4843   0.671   5.330   4.399  0.6415 -0.2467 -0.2125
   38DOPE  H15R 4844   0.664   5.356   4.506  1.3290 -1.5846  0.1776
   38DOPE  H15S 4845   0.669   5.426   4.342 -0.7901 -0.1300 -0.0168
   38DOPE  C216 4846   0.810   5.265   4.381  0.5794 -0.3727 -0.1430
   38DOPE  H16R 4847   0.877   5.344   4.421 -1.8394  1.2186  1.0409
   38DOPE  H16S 4848   0.829   5.253   4.273 -1.3085  0.3302 -0.5853
   38DOPE  C217 4849   0.837   5.127   4.458  0.1196  0.2345  0.7483
   38DOPE  H17R 4850   0.789   5.042   4.405  0.7738  0.6039 -0.4536
   38DOPE  H17S 4851   0.784   5.137   4.556 -0.7847  1.6996  0.1510
   38DOPE  C218 4852   0.983   5.094   4.488  0.5557  0.1579 -0.0281
   38DOPE  H18R 4853   1.027   5.172   4.554 -2.3637  1.7470  0.1786
   38DOPE  H18S 4854   1.041   5.094   4.393  0.1649  0.9353 -0.2723
   38DOPE  H18T 4855   0.996   4.991   4.528  3.0868  0.0133 -1.0295
   38DOPE   C33 4856   0.808   5.002   3.523 -0.6110 -0.0677  0.3368
   38DOPE   H3X 4857   0.701   4.993   3.494 -0.0305 -1.5173 -1.5792
   38DOPE   H3Y 4858   0.807   5.065   3.615 -0.8982  1.8845 -0.9525
   38DOPE   C34 4859   0.858   4.860   3.556  0.0145  0.0189 -0.6020
   38DOPE   H4X 4860   0.838   4.797   3.467  2.1501 -1.5008 -0.0893
   38DOPE   H4Y 4861   0.968   4.862   3.572  0.0976  2.2196 -1.1795
   38DOPE   C35 4862   0.794   4.806   3.685  0.5171 -0.3152  1.6985
   38DOPE   H5X 4863   0.683   4.801   3.687  0.4233  0.1545 -0.0896
   38DOPE   H5Y 4864   0.832   4.865   3.770 -1.1191 -0.6564  2.6999
   38DOPE   C36 4865   0.846   4.667   3.703  0.3271  0.5087  0.6887
   38DOPE   H6X 4866   0.957   4.662   3.703  0.2706 -1.3237  0.7931
   38DOPE   H6Y 4867   0.815   4.602   3.618  1.2615 -2.4418  2.4462
   38DOPE   C37 4868   0.793   4.596   3.830 -0.3455  0.6133  0.8897
   38DOPE   H7X 4869   0.841   4.637   3.922 -0.0212 -1.6484  1.8095
   38DOPE   H7Y 4870   0.683   4.608   3.844 -0.2252 -0.3408  3.2403
   38DOPE   C38 4871   0.810   4.442   3.834 -0.7348 -0.3626 -0.3696
   38DOPE   H8X 4872   0.919   4.423   3.827 -0.2646  0.5928  2.6196
   38DOPE   H8Y 4873   0.780   4.388   3.743  1.3634 -0.9715 -0.7666
   38DOPE   C39 4874   0.763   4.375   3.960  0.3398 -0.2195 -0.6530
   38DOPE   H9X 4875   0.665   4.327   3.952  0.5686 -0.9710  0.8002
   38DOPE  C310 4876   0.838   4.338   4.074 -0.2622  0.0059  0.8483
   38DOPE  H10X 4877   0.792   4.280   4.155 -0.4940  0.1732  0.8358
   38DOPE  C311 4878   0.985   4.381   4.099  0.0864  0.0713  0.2960
   38DOPE  H11X 4879   1.060   4.317   4.048 -0.2332  0.0209 -0.1194
   38DOPE  H11Y 4880   0.995   4.483   4.056 -1.4169  0.2877  0.4047
   38DOPE  C312 4881   1.012   4.388   4.248 -0.2244 -0.3680 -0.5013
   38DOPE  H12X 4882   1.011   4.280   4.274 -1.1681  0.3002  2.8075
   38DOPE  H12Y 4883   0.931   4.440   4.304  0.0690 -1.5501  1.1188
   38DOPE  C313 4884   1.150   4.435   4.294  0.0361  0.3427 -0.1472
   38DOPE  H13X 4885   1.233   4.390   4.235  0.1651 -0.6112  0.7369
   38DOPE  H13Y 4886   1.162   4.545   4.301 -0.3003  0.2609  3.5860
   38DOPE  C314 4887   1.167   4.392   4.439  0.1278  0.1556  0.1386
   38DOPE  H14X 4888   1.154   4.282   4.441 -0.9594  0.2785  0.5350
   38DOPE  H14Y 4889   1.091   4.433   4.510  1.3216  0.8487  1.0620
   38DOPE  C315 4890   1.300   4.433   4.512 -0.1874  0.4454  0.5799
   38DOPE  H15X 4891   1.310   4.543   4.527 -0.3358  0.5505 -0.0487
   38DOPE  H15Y 4892   1.379   4.401   4.442 -2.5413  1.9121 -3.0273
   38DOPE  C316 4893   1.323   4.352   4.636  0.6280  0.3992 -0.4541
   38DOPE  H16X 4894   1.423   4.386   4.669 -0.0345  2.6370 -0.5922
   38DOPE  H16Y 4895   1.320   4.243   4.613 -0.8534  0.0884  0.9711
   38DOPE  C317 4896   1.226   4.369   4.760 -0.6574  0.2619  0.3863
   38DOPE  H17X 4897   1.174   4.466   4.748 -0.4056  0.4451  0.7685
   38DOPE  H17Y 4898   1.142   4.295   4.763 -0.6005  0.1862  0.1246
   38DOPE  C318 4899   1.299   4.373   4.894 -0.5172  0.5643  0.3435
   38DOPE  H18X 4900   1.347   4.275   4.916 -0.8628 -0.1537 -1.8309
   38DOPE  H18Y 4901   1.377   4.453   4.894  0.2119 -0.0988 -1.3295
   38DOPE  H18Z 4902   1.224   4.398   4.972 -0.8852 -1.9546  0.8784
   39DOPE     N 4903   2.724   3.743   3.058  0.1920 -0.6800 -0.0979
   39DOPE   HN1 4904   2.662   3.726   3.140 -1.2788  0.1176 -0.9944
   39DOPE   HN2 4905   2.750   3.840   3.084 -1.9459 -0.1877  0.4068
   39DOPE   HN3 4906   2.653   3.749   2.982 -0.8807 -0.8404  0.8582
   39DOPE   C12 4907   2.832   3.650   3.037 -0.4619  0.4179  0.0516
   39DOPE  H12A 4908   2.913   3.669   3.111  0.7154 -0.9827 -0.8294
   39DOPE  H12B 4909   2.858   3.659   2.930 -2.1499  1.0123 -0.3455
   39DOPE   C11 4910   2.789   3.507   3.061  0.2902 -1.6153 -0.3206
   39DOPE  H11A 4911   2.755   3.500   3.167  1.0130 -0.2503  0.0250
   39DOPE  H11B 4912   2.888   3.457   3.049  0.3936 -0.9883 -2.6004
   39DOPE     P 4913   2.719   3.321   2.894 -0.4370  0.3248 -0.0872
   39DOPE   O13 4914   2.824   3.330   2.797  0.7024  0.6326 -0.5355
   39DOPE   O14 4915   2.593   3.285   2.835  0.4480  0.2161  0.7747
   39DOPE   O11 4916   2.763   3.217   3.002 -0.0932 -0.0784 -0.4292
   39DOPE   O12 4917   2.693   3.461   2.965  0.2281  0.3448 -0.0420
   39DOPE    C1 4918   2.668   3.171   3.100  0.6773 -0.5107  0.1901
   39DOPE    HA 4919   2.638   3.064   3.101 -0.8786 -0.1238  2.0305
   39DOPE    HB 4920   2.566   3.207   3.079  0.5819 -1.9766 -2.1476
   39DOPE    C2 4921   2.709   3.204   3.248  0.6513 -0.2287  0.7314
   39DOPE    HS 4922   2.728   3.313   3.260  0.4527 -0.0264 -0.6934
   39DOPE   O21 4923   2.809   3.109   3.285 -0.0189  0.2640  0.1655
   39DOPE   C21 4924   2.930   3.160   3.270 -0.1187  0.0176  0.6578
   39DOPE   O22 4925   2.955   3.275   3.246  0.5283  0.4466 -0.0209
   39DOPE   C22 4926   3.033   3.049   3.306 -0.2715  0.3645  0.0985
   39DOPE   H2R 4927   3.047   2.990   3.214  0.8119  1.2925 -0.3573
   39DOPE   H2S 4928   2.993   2.991   3.392  0.0010 -1.8049 -1.1694
   39DOPE    C3 4929   2.573   3.171   3.332  0.0616 -0.0659  0.3437
   39DOPE    HX 4930   2.560   3.061   3.320 -1.1031  0.0783  0.2153
   39DOPE    HY 4931   2.494   3.238   3.293 -3.4719 -2.7252  2.3210
   39DOPE   O31 4932   2.603   3.202   3.470 -0.0381 -0.3754  0.8132
   39DOPE   C31 4933   2.665   3.110   3.541 -0.5574 -0.0051 -0.8903
   39DOPE   O32 4934   2.692   2.997   3.502 -0.2755  0.3823 -0.0551
   39DOPE   C32 4935   2.700   3.161   3.678  0.4489  0.1405  0.2895
   39DOPE   H2X 4936   2.717   3.270   3.664 -1.2229  0.4923  0.7856
   39DOPE   H2Y 4937   2.620   3.144   3.754  0.9671  0.0851  0.8262
   39DOPE   C23 4938   3.177   3.103   3.329 -0.4847  0.2513 -0.0249
   39DOPE   H3R 4939   3.217   3.163   3.245 -0.8180  2.1670  1.1181
   39DOPE   H3S 4940   3.242   3.013   3.335  1.1008  1.4407  1.5212
   39DOPE   C24 4941   3.202   3.188   3.450  0.3727 -0.1544 -0.4767
   39DOPE   H4R 4942   3.157   3.141   3.540  0.0701  2.0380  0.5786
   39DOPE   H4S 4943   3.140   3.278   3.432  0.3154 -0.3807 -1.4717
   39DOPE   C25 4944   3.346   3.227   3.489  0.2795 -0.0125  0.8184
   39DOPE   H5R 4945   3.377   3.308   3.420 -0.9599  0.6728  1.0355
   39DOPE   H5S 4946   3.412   3.138   3.478 -0.7617 -0.7862  0.7049
   39DOPE   C26 4947   3.351   3.285   3.626  0.1258 -0.6456  0.6951
   39DOPE   H6R 4948   3.322   3.216   3.708 -2.6342 -0.2541  0.1364
   39DOPE   H6S 4949   3.278   3.369   3.633 -0.6615 -1.1606 -0.8737
   39DOPE   C27 4950   3.493   3.337   3.662  0.3312 -0.2515 -0.8684
   39DOPE   H7R 4951   3.525   3.396   3.574  1.0517  0.7289  0.0343
   39DOPE   H7S 4952   3.563   3.252   3.677  0.7742 -0.1044 -2.0119
   39DOPE   C28 4953   3.492   3.416   3.791  0.3981  0.7005  0.0824
   39DOPE   H8R 4954   3.423   3.503   3.787  1.3202  1.4463 -0.0690
   39DOPE   H8S 4955   3.595   3.459   3.792  0.9026 -0.3656 -1.4363
   39DOPE   C29 4956   3.462   3.340   3.918 -0.9512 -0.4198 -0.0015
   39DOPE   H9R 4957   3.355   3.319   3.932 -0.8155 -1.8238 -0.8418
   39DOPE  C210 4958   3.538   3.318   4.027 -0.2803  0.2525  0.1916
   39DOPE  H10R 4959   3.500   3.243   4.097 -0.3692  0.0908 -0.0279
   39DOPE  C211 4960   3.680   3.358   4.059 -0.1457 -0.1336  0.0153
   39DOPE  H11R 4961   3.725   3.422   3.980  1.4326  0.8435  1.6453
   39DOPE  H11S 4962   3.736   3.263   4.066 -0.5875 -0.3370  1.0767
   39DOPE  C212 4963   3.683   3.442   4.187 -0.3755 -0.8710 -0.2410
   39DOPE  H12R 4964   3.604   3.519   4.178  0.6455  0.1785 -0.3420
   39DOPE  H12S 4965   3.777   3.499   4.197 -1.4870  1.5784 -2.5872
   39DOPE  C213 4966   3.657   3.354   4.315 -0.4879 -0.3499  0.5479
   39DOPE  H13R 4967   3.744   3.285   4.319  0.9279  1.4018  1.7292
   39DOPE  H13S 4968   3.563   3.294   4.314  0.4332 -1.8746 -1.0966
   39DOPE  C214 4969   3.671   3.437   4.450  0.0754 -0.4572 -0.4143
   39DOPE  H14R 4970   3.602   3.523   4.440  1.7258  0.8159 -1.3370
   39DOPE  H14S 4971   3.775   3.476   4.455  0.1064 -0.4196 -1.2739
   39DOPE  C215 4972   3.657   3.355   4.584 -0.4170  0.2969 -0.7951
   39DOPE  H15R 4973   3.732   3.273   4.575 -0.3798 -0.0101  1.7167
   39DOPE  H15S 4974   3.558   3.306   4.579 -0.0611 -0.5363  0.0623
   39DOPE  C216 4975   3.675   3.430   4.718 -0.3599 -0.1796  0.0007
   39DOPE  H16R 4976   3.649   3.364   4.803 -0.9091 -0.0660 -0.0773
   39DOPE  H16S 4977   3.595   3.508   4.717  0.2040  0.4174 -1.4105
   39DOPE  C217 4978   3.813   3.499   4.754 -0.5237  0.9749  1.0093
   39DOPE  H17R 4979   3.838   3.579   4.681  0.3956  0.4767  0.7620
   39DOPE  H17S 4980   3.888   3.420   4.732 -1.6036  0.4330 -1.0089
   39DOPE  C218 4981   3.811   3.529   4.900 -0.0933 -0.5519 -0.8277
   39DOPE  H18R 4982   3.716   3.573   4.936  0.9258 -0.3181  1.8210
   39DOPE  H18S 4983   3.876   3.618   4.918 -2.2618  1.1471 -0.8967
   39DOPE  H18T 4984   3.838   3.439   4.958 -1.1266 -1.4157 -1.6640
   39DOPE   C33 4985   2.828   3.099   3.730 -0.1495 -0.1379 -0.1503
   39DOPE   H3X 4986   2.890   3.061   3.646 -1.6033 -1.8060 -0.5129
   39DOPE   H3Y 4987   2.802   3.015   3.798  1.8790 -0.8952 -0.2507
   39DOPE   C34 4988   2.900   3.221   3.807  0.0971 -0.5282  0.4906
   39DOPE   H4X 4989   2.903   3.321   3.760  1.1278  1.2244  4.0053
   39DOPE   H4Y 4990   2.848   3.237   3.904 -1.4837  1.8047 -0.6415
   39DOPE   C35 4991   3.049   3.187   3.834 -0.3646 -0.3378 -0.5636
   39DOPE   H5X 4992   3.089   3.279   3.882  1.1132  0.2238 -2.7732
   39DOPE   H5Y 4993   3.102   3.176   3.738  2.2586  0.8406  0.6475
   39DOPE   C36 4994   3.084   3.072   3.925  0.2469  0.2742 -0.5294
   39DOPE   H6X 4995   3.190   3.078   3.958 -0.3744  0.0721  1.7287
   39DOPE   H6Y 4996   3.080   2.971   3.879  0.2798 -0.7518  1.5592
   39DOPE   C37 4997   3.003   3.074   4.059  0.1117  0.6371 -0.1538
   39DOPE   H7X 4998   3.000   3.180   4.093 -1.6521  0.6217 -0.1588
   39DOPE   H7Y 4999   2.895   3.047   4.051  0.1524  0.1554  0.7928
   39DOPE   C38 5000   3.062   2.981   4.163  0.0823  0.0529 -0.0892
   39DOPE   H8X 5001   3.073   2.886   4.107 -0.0049  0.8557 -1.4957
   39DOPE   H8Y 5002   2.988   2.962   4.244  0.2413 -1.7384 -0.3370
   39DOPE   C39 5003   3.183   3.040   4.222 -0.5040  0.0107  0.0056
   39DOPE   H9X 5004   3.165   3.122   4.293  1.9208 -0.2556  1.0296
   39DOPE  C310 5005   3.311   3.012   4.204 -0.8388 -0.3705  0.2130
   39DOPE  H10X 5006   3.397   3.066   4.246  1.6769 -2.4475 -1.8989
   39DOPE  C311 5007   3.352   2.910   4.099  0.3723  0.0443 -0.9384
   39DOPE  H11X 5008   3.376   2.813   4.148 -0.3053  0.6905  0.7564
   39DOPE  H11Y 5009   3.270   2.890   4.027 -1.1570 -0.3547  0.8453
   39DOPE  C312 5010   3.464   2.960   4.014 -0.2485  0.6280  1.0263
   39DOPE  H12X 5011   3.552   2.999   4.070  0.9808 -0.4684 -0.0684
   39DOPE  H12Y 5012   3.426   3.053   3.967  1.2474  1.5229  1.5482
   39DOPE  C313 5013   3.510   2.853   3.908 -0.0800  0.4332  0.0910
   39DOPE  H13X 5014   3.585   2.788   3.958 -1.2249 -1.1707 -0.1646
   39DOPE  H13Y 5015   3.422   2.792   3.877 -0.7538  3.0680 -3.9065
   39DOPE  C314 5016   3.569   2.898   3.779 -0.6695 -0.5517  0.0458
   39DOPE  H14X 5017   3.495   2.972   3.741  0.2798  0.7705  0.6960
   39DOPE  H14Y 5018   3.570   2.808   3.714 -0.9340 -0.5954  0.1002
   39DOPE  C315 5019   3.699   2.983   3.798  0.3932 -0.6826  0.6264
   39DOPE  H15X 5020   3.670   3.078   3.846 -0.6673 -0.4290 -0.4793
   39DOPE  H15Y 5021   3.740   3.014   3.699  1.2339  1.7735  1.6813
   39DOPE  C316 5022   3.817   2.913   3.865  0.4053  0.5095  0.2920
   39DOPE  H16X 5023   3.778   2.888   3.966 -1.1094 -1.8069 -0.7591
   39DOPE  H16Y 5024   3.896   2.990   3.875  0.5490  0.2196  1.4854
   39DOPE  C317 5025   3.863   2.787   3.790  0.0270  0.1030  0.1314
   39DOPE  H17X 5026   3.938   2.726   3.846 -0.4279 -2.7956 -2.1669
   39DOPE  H17Y 5027   3.773   2.722   3.801 -0.3909  0.1977 -2.3439
   39DOPE  C318 5028   3.913   2.794   3.648  0.4367 -0.4452 -0.3759
   39DOPE  H18X 5029   3.915   2.693   3.602  1.8213 -0.3904 -0.4823
   39DOPE  H18Y 5030   3.841   2.859   3.593 -1.7528 -0.7353  1.9668
   39DOPE  H18Z 5031   4.011   2.845   3.641  1.1467 -1.5833  0.8922
   40DOPE     N 5032   5.799   6.239   3.134 -0.3990  0.1356 -0.4830
   40DOPE   HN1 5033   5.775   6.168   3.061 -0.3959 -0.6986  0.3061
   40DOPE   HN2 5034   5.785   6.327   3.081  1.2934  0.4395 -0.4571
   40DOPE   HN3 5035   5.899   6.226   3.158 -0.4564  1.8755  0.8945
   40DOPE   C12 5036   5.729   6.231   3.267  0.7527  0.3441  0.4510
   40DOPE  H12A 5037   5.731   6.326   3.325 -0.5659  0.5439  0.1887
   40DOPE  H12B 5038   5.785   6.153   3.323  2.5435  0.2688 -1.3553
   40DOPE   C11 5039   5.579   6.188   3.255  0.6860 -0.1429  0.4850
   40DOPE  H11A 5040   5.532   6.187   3.356 -1.1598  0.2148 -0.3239
   40DOPE  H11B 5041   5.564   6.080   3.231 -2.4797  0.6311 -1.5997
   40DOPE     P 5042   5.382   6.231   3.086  0.0677  0.1625 -0.1322
   40DOPE   O13 5043   5.387   6.088   3.060  0.8994 -0.4698 -0.0208
   40DOPE   O14 5044   5.366   6.321   2.973 -0.2760 -0.2316 -0.2230
   40DOPE   O11 5045   5.267   6.254   3.187  0.2817 -0.2937  0.0073
   40DOPE   O12 5046   5.515   6.276   3.157  0.2566 -0.1595  0.0603
   40DOPE    C1 5047   5.257   6.372   3.263  0.2304 -0.6199 -0.3911
   40DOPE    HA 5048   5.160   6.421   3.240 -0.0990 -1.7897 -1.6448
   40DOPE    HB 5049   5.342   6.441   3.246  0.4603 -0.5088  1.0651
   40DOPE    C2 5050   5.271   6.348   3.424 -0.0040 -0.0167 -0.1966
   40DOPE    HS 5051   5.371   6.301   3.434 -0.5836 -1.7122 -1.8546
   40DOPE   O21 5052   5.180   6.241   3.466  0.6393 -0.3100 -0.4905
   40DOPE   C21 5053   5.059   6.248   3.436  0.3650  0.3622 -0.5053
   40DOPE   O22 5054   4.997   6.354   3.423  0.0394  0.1999 -0.2144
   40DOPE   C22 5055   4.993   6.112   3.421  0.3826 -0.5848 -0.2243
   40DOPE   H2R 5056   5.070   6.033   3.410 -0.3696 -2.1352  3.8588
   40DOPE   H2S 5057   4.931   6.123   3.330 -2.3808 -1.1853  1.4568
   40DOPE    C3 5058   5.270   6.480   3.506 -0.2201  0.1879 -0.2443
   40DOPE    HX 5059   5.168   6.522   3.499 -0.3985 -0.0771  0.6965
   40DOPE    HY 5060   5.332   6.557   3.455 -0.9693  1.7093  1.0420
   40DOPE   O31 5061   5.313   6.456   3.645  0.1227 -0.3494  0.0290
   40DOPE   C31 5062   5.213   6.462   3.730 -0.0944  0.3756  0.0910
   40DOPE   O32 5063   5.098   6.486   3.718 -0.1601 -0.8189  1.0317
   40DOPE   C32 5064   5.264   6.416   3.862 -0.7389  0.4323 -0.3143
   40DOPE   H2X 5065   5.191   6.355   3.919  0.2656  0.2986  0.8614
   40DOPE   H2Y 5066   5.343   6.344   3.831 -0.3127  1.2778 -1.2824
   40DOPE   C23 5067   4.901   6.083   3.538 -0.0875 -0.0867 -0.5148
   40DOPE   H3R 5068   4.834   5.994   3.529  0.5317 -0.4036 -2.5821
   40DOPE   H3S 5069   4.832   6.169   3.549  0.5618  0.4229 -0.4085
   40DOPE   C24 5070   4.982   6.066   3.668 -0.6298 -0.5630 -0.0330
   40DOPE   H4R 5071   5.045   6.156   3.686  2.4008 -2.3474 -1.1353
   40DOPE   H4S 5072   5.050   5.980   3.654  0.8941  0.3628  1.4007
   40DOPE   C25 5073   4.885   6.042   3.792 -0.6292 -0.2844  0.3986
   40DOPE   H5R 5074   4.815   5.960   3.767 -1.4183 -0.0032  1.5977
   40DOPE   H5S 5075   4.824   6.134   3.796  0.4879  0.4560  0.8306
   40DOPE   C26 5076   4.945   5.998   3.925  0.6194  0.4345  0.0940
   40DOPE   H6R 5077   5.009   5.909   3.904  0.3820  0.0266  1.0708
   40DOPE   H6S 5078   4.867   5.961   3.995 -0.4426 -1.8234 -2.0940
   40DOPE   C27 5079   5.024   6.110   4.000 -0.2994 -0.2025  0.9978
   40DOPE   H7R 5080   4.961   6.190   4.045 -1.6814 -1.3593  1.1916
   40DOPE   H7S 5081   5.083   6.147   3.914 -3.3821 -1.6007 -1.9566
   40DOPE   C28 5082   5.120   6.052   4.104 -0.5245  0.0467 -0.1326
   40DOPE   H8R 5083   5.175   5.970   4.054 -1.4264 -0.6995  0.0686
   40DOPE   H8S 5084   5.062   6.003   4.186  1.5018 -0.3309  1.1604
   40DOPE   C29 5085   5.212   6.159   4.149  0.2576  0.7610  0.2524
   40DOPE   H9R 5086   5.297   6.189   4.086  2.4685  0.1272  2.7683
   40DOPE  C210 5087   5.222   6.206   4.276 -0.4069 -0.4727  0.4754
   40DOPE  H10R 5088   5.299   6.284   4.291 -0.1518 -0.6119 -0.0938
   40DOPE  C211 5089   5.131   6.159   4.385 -0.0955 -0.1680 -0.3511
   40DOPE  H11R 5090   5.181   6.176   4.483 -2.5318  1.5310  0.6952
   40DOPE  H11S 5091   5.104   6.052   4.383 -0.3413 -0.1191  0.1556
   40DOPE  C212 5092   4.985   6.215   4.389 -0.1398  0.1782  0.2095
   40DOPE  H12R 5093   4.920   6.132   4.424 -0.8926  0.7675  0.2395
   40DOPE  H12S 5094   4.948   6.254   4.292  1.9381 -0.4001 -0.8554
   40DOPE  C213 5095   4.962   6.324   4.497 -0.3001  0.2226 -0.0560
   40DOPE  H13R 5096   4.860   6.368   4.484 -0.7178 -0.0561  1.8807
   40DOPE  H13S 5097   5.039   6.404   4.490 -0.8815  0.7456 -0.5951
   40DOPE  C214 5098   4.964   6.255   4.636 -0.0233 -0.1303 -0.3806
   40DOPE  H14R 5099   5.052   6.190   4.654 -0.5992 -0.9936 -0.6220
   40DOPE  H14S 5100   4.878   6.188   4.656  0.1859 -0.0973  0.7108
   40DOPE  C215 5101   4.971   6.366   4.747  0.2304  1.0640  0.1187
   40DOPE  H15R 5102   4.898   6.449   4.736  1.4212  1.8411 -2.7842
   40DOPE  H15S 5103   5.066   6.417   4.719  0.7313 -0.6738 -1.5933
   40DOPE  C216 5104   4.981   6.310   4.890  0.4237 -0.2056  0.4539
   40DOPE  H16R 5105   4.919   6.218   4.890  2.5550 -1.6839  0.7474
   40DOPE  H16S 5106   4.938   6.384   4.962  0.5030  1.1024 -0.7857
   40DOPE  C217 5107   5.115   6.258   4.937  0.0879  0.7686 -0.0045
   40DOPE  H17R 5108   5.195   6.334   4.931  1.7167 -0.9774 -1.9591
   40DOPE  H17S 5109   5.157   6.185   4.865  0.4949  2.0055 -1.0585
   40DOPE  C218 5110   5.111   6.199   5.084 -0.8980 -0.0946  0.8688
   40DOPE  H18R 5111   5.017   6.139   5.087 -1.2851  0.3686 -0.8846
   40DOPE  H18S 5112   5.101   6.292   5.142 -0.0212  1.1604 -0.9022
   40DOPE  H18T 5113   5.208   6.148   5.104  0.6206  1.5967 -1.5792
   40DOPE   C33 5114   5.321   6.534   3.936  0.3848  0.0155 -0.6423
   40DOPE   H3X 5115   5.244   6.607   3.969 -1.9870 -1.4987 -2.4673
   40DOPE   H3Y 5116   5.374   6.599   3.863 -0.5992  2.1260  0.4418
   40DOPE   C34 5117   5.423   6.499   4.046  0.4608 -0.1057 -0.4193
   40DOPE   H4X 5118   5.360   6.454   4.126  1.0362 -2.5701 -1.2422
   40DOPE   H4Y 5119   5.485   6.415   4.008  1.1009  0.1036  0.1529
   40DOPE   C35 5120   5.509   6.619   4.096  0.4125  0.0586 -0.5930
   40DOPE   H5X 5121   5.430   6.670   4.155  0.5685 -1.2276  0.7929
   40DOPE   H5Y 5122   5.546   6.685   4.015 -0.9722 -0.5264 -1.7467
   40DOPE   C36 5123   5.622   6.575   4.193 -0.0774  0.5346 -0.6820
   40DOPE   H6X 5124   5.687   6.493   4.156  0.8519  0.8271  0.2462
   40DOPE   H6Y 5125   5.576   6.522   4.279  2.0433  0.3962  0.4393
   40DOPE   C37 5126   5.708   6.703   4.223  0.2118 -0.3266  0.2036
   40DOPE   H7X 5127   5.735   6.753   4.128  0.6229 -0.8387  0.0449
   40DOPE   H7Y 5128   5.660   6.775   4.292  1.9687  1.7886 -0.6602
   40DOPE   C38 5129   5.839   6.652   4.295  0.0908  0.0372 -0.0246
   40DOPE   H8X 5130   5.888   6.587   4.219  0.2240 -1.6279  1.4187
   40DOPE   H8Y 5131   5.816   6.587   4.381 -0.4949  0.5019  0.1756
   40DOPE   C39 5132   5.934   6.769   4.323 -0.0005  0.4171  0.1774
   40DOPE   H9X 5133   5.956   6.831   4.235 -1.5353  0.1114 -0.4577
   40DOPE  C310 5134   5.971   6.812   4.447  0.2190 -0.0576 -0.2372
   40DOPE  H10X 5135   6.024   6.908   4.448  2.4589 -1.2292  0.0714
   40DOPE  C311 5136   5.942   6.745   4.581 -0.0716 -0.0324  0.3725
   40DOPE  H11X 5137   5.935   6.634   4.573  1.0465 -0.0545 -0.6977
   40DOPE  H11Y 5138   6.017   6.766   4.660  0.0309  2.1138 -0.2214
   40DOPE  C312 5139   5.816   6.801   4.638  0.3424  0.4998 -0.2900
   40DOPE  H12X 5140   5.730   6.805   4.568 -0.1221  0.4455  0.2693
   40DOPE  H12Y 5141   5.831   6.909   4.661  0.1928  0.3658  0.4684
   40DOPE  C313 5142   5.772   6.720   4.763 -0.2965 -0.8217  0.0387
   40DOPE  H13X 5143   5.855   6.708   4.836  0.6261 -0.7420 -0.9655
   40DOPE  H13Y 5144   5.691   6.778   4.812 -0.4190 -2.0778  1.4016
   40DOPE  C314 5145   5.721   6.577   4.738 -0.1918 -0.0001 -0.6672
   40DOPE  H14X 5146   5.712   6.539   4.842 -1.2480  0.6237 -0.5131
   40DOPE  H14Y 5147   5.796   6.524   4.677 -0.1530 -0.1299 -0.5077
   40DOPE  C315 5148   5.586   6.573   4.665 -0.3822 -0.2592  0.0291
   40DOPE  H15X 5149   5.547   6.473   4.638 -0.4018 -0.6394  1.3955
   40DOPE  H15Y 5150   5.598   6.628   4.570  1.8226  0.2219  0.5416
   40DOPE  C316 5151   5.466   6.642   4.746  1.3251  0.1843 -0.3687
   40DOPE  H16X 5152   5.458   6.746   4.708 -2.6917 -0.2103 -1.0051
   40DOPE  H16Y 5153   5.485   6.647   4.856 -0.8909  3.1949 -0.0127
   40DOPE  C317 5154   5.329   6.570   4.716  0.0802 -0.1914  0.2686
   40DOPE  H17X 5155   5.326   6.466   4.756 -0.0204  0.1298  1.1060
   40DOPE  H17Y 5156   5.247   6.623   4.770 -0.8078 -2.7509  1.6369
   40DOPE  C318 5157   5.297   6.551   4.566  0.0831  0.3729 -0.0179
   40DOPE  H18X 5158   5.189   6.530   4.548  0.1002 -0.2485  0.5855
   40DOPE  H18Y 5159   5.341   6.634   4.506  1.2402 -0.8574 -0.9328
   40DOPE  H18Z 5160   5.350   6.460   4.533 -1.1151 -2.1833  4.2775
   41DOPE     N 5161   3.652   6.123   3.102 -0.7816 -0.3319  0.1454
   41DOPE   HN1 5162   3.722   6.194   3.130 -0.1216 -0.2152 -1.6802
   41DOPE   HN2 5163   3.585   6.125   3.181 -0.4189 -0.3333  0.4567
   41DOPE   HN3 5164   3.695   6.030   3.087  1.8082  0.8089  0.0314
   41DOPE   C12 5165   3.579   6.163   2.973 -0.1222  0.4193  0.1860
   41DOPE  H12A 5166   3.656   6.205   2.905  1.5709  0.0544  1.8150
   41DOPE  H12B 5167   3.508   6.244   3.001 -0.6024 -0.1646  0.6874
   41DOPE   C11 5168   3.502   6.048   2.902 -0.3931  0.1319  0.5869
   41DOPE  H11A 5169   3.568   5.977   2.849  0.7157  0.8359  0.9789
   41DOPE  H11B 5170   3.448   6.101   2.821  0.3258 -0.5316 -0.3523
   41DOPE     P 5171   3.290   5.902   2.939  0.4748 -0.0325  0.1816
   41DOPE   O13 5172   3.347   5.805   2.844  0.3524 -0.2058 -0.1270
   41DOPE   O14 5173   3.184   6.000   2.885 -0.5287 -0.3061 -0.8966
   41DOPE   O11 5174   3.228   5.831   3.070  0.9631 -0.0862  0.2629
   41DOPE   O12 5175   3.416   5.983   2.993  0.2674 -0.3086 -0.1033
   41DOPE    C1 5176   3.296   5.841   3.194  0.0692  0.3734 -0.5979
   41DOPE    HA 5177   3.296   5.949   3.221 -0.3751  0.2180  0.0516
   41DOPE    HB 5178   3.404   5.813   3.194 -0.0059 -0.0850  1.4516
   41DOPE    C2 5179   3.206   5.775   3.309  0.0928 -0.3770  0.6178
   41DOPE    HS 5180   3.256   5.786   3.408 -0.5795  2.0302  0.7414
   41DOPE   O21 5181   3.185   5.633   3.284 -0.0328 -0.2443  0.3697
   41DOPE   C21 5182   3.292   5.556   3.295  0.2924 -0.0611 -0.5641
   41DOPE   O22 5183   3.397   5.596   3.342 -0.0104  0.3699  0.1228
   41DOPE   C22 5184   3.256   5.412   3.254 -0.6738  0.3006 -0.5368
   41DOPE   H2R 5185   3.343   5.380   3.192  0.0199 -2.2101  1.5574
   41DOPE   H2S 5186   3.164   5.393   3.196 -0.3977 -2.3594 -0.2457
   41DOPE    C3 5187   3.062   5.839   3.321  0.0493  0.3085 -0.0647
   41DOPE    HX 5188   3.008   5.823   3.225  0.0262 -0.3373  0.0501
   41DOPE    HY 5189   3.076   5.948   3.340 -0.0033 -0.1056  2.7518
   41DOPE   O31 5190   2.988   5.780   3.426 -0.1093  0.3430  0.1854
   41DOPE   C31 5191   2.997   5.836   3.553  0.0502 -0.4587  0.3395
   41DOPE   O32 5192   3.056   5.940   3.581 -0.3260  0.5256  0.6611
   41DOPE   C32 5193   2.920   5.760   3.659  0.6144 -0.3609 -0.0626
   41DOPE   H2X 5194   2.956   5.655   3.660  0.5802 -0.3841  1.5467
   41DOPE   H2Y 5195   2.935   5.794   3.764 -1.8689  0.1536  0.1899
   41DOPE   C23 5196   3.257   5.312   3.373  0.0746  1.0801  0.3708
   41DOPE   H3R 5197   3.355   5.287   3.419 -0.0816 -1.9164 -0.6526
   41DOPE   H3S 5198   3.228   5.210   3.340 -0.6916  0.9206  1.4940
   41DOPE   C24 5199   3.157   5.355   3.475  0.5784 -0.5040 -0.0663
   41DOPE   H4R 5200   3.055   5.375   3.436  0.5554 -1.4597 -0.5074
   41DOPE   H4S 5201   3.184   5.443   3.538 -0.1980 -0.3485  0.0516
   41DOPE   C25 5202   3.127   5.246   3.581 -0.1308  1.0112  0.6814
   41DOPE   H5R 5203   3.221   5.215   3.632 -0.2908 -1.2255 -0.2836
   41DOPE   H5S 5204   3.086   5.156   3.529  1.1097  1.6673 -1.6043
   41DOPE   C26 5205   3.026   5.288   3.687 -0.1593  0.4175 -0.8062
   41DOPE   H6R 5206   2.925   5.306   3.646 -0.7852  0.8686  0.8723
   41DOPE   H6S 5207   3.054   5.384   3.734 -0.0364  0.5612 -1.1626
   41DOPE   C27 5208   3.005   5.177   3.797 -0.1594 -0.1472  0.6179
   41DOPE   H7R 5209   3.101   5.155   3.848 -0.0305 -1.9916 -0.3645
   41DOPE   H7S 5210   2.972   5.082   3.751  0.7559 -1.0332  1.7311
   41DOPE   C28 5211   2.912   5.203   3.917  0.0551 -0.7512  0.2637
   41DOPE   H8R 5212   2.825   5.256   3.873  0.2157  0.1845  1.0461
   41DOPE   H8S 5213   2.965   5.281   3.976 -0.7181  0.8024 -1.0501
   41DOPE   C29 5214   2.886   5.079   3.997 -0.1732  0.0984  0.5753
   41DOPE   H9R 5215   2.795   5.031   3.957  0.3021 -0.0654 -0.3124
   41DOPE  C210 5216   2.961   5.032   4.094  0.3814  0.0322  0.3266
   41DOPE  H10R 5217   2.941   4.929   4.127  0.6591 -0.1659 -0.1148
   41DOPE  C211 5218   3.097   5.071   4.139  0.0154  0.2714  0.9391
   41DOPE  H11R 5219   3.134   5.172   4.110 -1.3639  0.0459 -1.9429
   41DOPE  H11S 5220   3.155   5.002   4.074  1.6270  1.0236  1.5120
   41DOPE  C212 5221   3.119   5.037   4.285 -0.7484 -0.1544  0.3934
   41DOPE  H12R 5222   3.047   5.084   4.355 -1.2411 -1.8569  1.0740
   41DOPE  H12S 5223   3.220   5.078   4.305 -0.6466  0.2481 -0.8655
   41DOPE  C213 5224   3.138   4.895   4.322  0.1151  0.7909 -0.2923
   41DOPE  H13R 5225   3.049   4.835   4.293  0.0364  0.0643  1.3842
   41DOPE  H13S 5226   3.142   4.886   4.432  0.5660  0.3375 -0.3411
   41DOPE  C214 5227   3.268   4.827   4.278 -0.3072 -0.7248  0.8526
   41DOPE  H14R 5228   3.347   4.886   4.328  0.9371 -0.9934 -0.7359
   41DOPE  H14S 5229   3.272   4.831   4.167 -3.0679 -0.1441  0.6939
   41DOPE  C215 5230   3.289   4.686   4.335  0.0637  0.0929  0.0626
   41DOPE  H15R 5231   3.365   4.636   4.272  0.5606  1.5767 -0.5469
   41DOPE  H15S 5232   3.196   4.625   4.328 -1.7012  2.4077  1.6133
   41DOPE  C216 5233   3.321   4.686   4.488 -0.1828  0.8436  0.5897
   41DOPE  H16R 5234   3.222   4.703   4.535 -1.0865 -0.7973 -0.6642
   41DOPE  H16S 5235   3.397   4.766   4.506 -0.8860  2.1089 -1.6936
   41DOPE  C217 5236   3.361   4.546   4.529  0.1174  0.5607 -0.0318
   41DOPE  H17R 5237   3.426   4.495   4.455  1.7571  0.6278  1.2862
   41DOPE  H17S 5238   3.276   4.475   4.533  2.4559 -2.5509 -1.0293
   41DOPE  C218 5239   3.431   4.539   4.664  0.1552 -0.7470 -0.2484
   41DOPE  H18R 5240   3.464   4.434   4.678  0.9137 -0.4994 -0.1709
   41DOPE  H18S 5241   3.367   4.559   4.753 -0.3444  0.1564 -0.7945
   41DOPE  H18T 5242   3.519   4.606   4.673 -1.7555  1.7413  1.5174
   41DOPE   C33 5243   2.763   5.769   3.647  0.3219 -0.0357  0.3787
   41DOPE   H3X 5244   2.709   5.713   3.568 -0.3991  1.3002 -0.0992
   41DOPE   H3Y 5245   2.747   5.877   3.631  0.1439  0.0052  0.8101
   41DOPE   C34 5246   2.692   5.725   3.776 -0.1143 -0.6309 -0.7752
   41DOPE   H4X 5247   2.731   5.775   3.867 -1.3434 -1.6196  0.3355
   41DOPE   H4Y 5248   2.585   5.755   3.777  0.4336  1.5864  1.2478
   41DOPE   C35 5249   2.710   5.580   3.812 -0.0043  0.5881 -0.2568
   41DOPE   H5X 5250   2.812   5.538   3.795  0.0751  0.4874  0.4189
   41DOPE   H5Y 5251   2.655   5.512   3.743  0.3432 -0.4186  0.4310
   41DOPE   C36 5252   2.662   5.536   3.957 -0.3361  0.4824  0.8094
   41DOPE   H6X 5253   2.737   5.579   4.026 -0.1406  1.3670  0.0632
   41DOPE   H6Y 5254   2.672   5.425   3.954  1.8048  0.6462 -0.9731
   41DOPE   C37 5255   2.518   5.581   3.988  0.3798 -0.3498  0.3312
   41DOPE   H7X 5256   2.503   5.690   3.974  0.0085 -0.4712 -0.2679
   41DOPE   H7Y 5257   2.444   5.530   3.923 -0.8575  2.3456 -0.5159
   41DOPE   C38 5258   2.480   5.552   4.135  0.3799  1.0603 -0.3808
   41DOPE   H8X 5259   2.379   5.593   4.156 -1.5738 -3.2709 -0.3232
   41DOPE   H8Y 5260   2.543   5.613   4.202 -0.6747  0.3685  1.3038
   41DOPE   C39 5261   2.466   5.400   4.165  0.5148 -1.0055  0.5324
   41DOPE   H9X 5262   2.387   5.334   4.126 -0.1701 -1.6914  2.9325
   41DOPE  C310 5263   2.566   5.340   4.231  0.3373 -0.5995 -0.3639
   41DOPE  H10X 5264   2.549   5.234   4.256  1.4093 -1.3765 -2.6517
   41DOPE  C311 5265   2.691   5.401   4.292 -0.0118  0.0779 -0.3969
   41DOPE  H11X 5266   2.760   5.406   4.205  1.0189 -1.2181  0.3000
   41DOPE  H11Y 5267   2.667   5.494   4.347  2.1454  0.8214 -0.6400
   41DOPE  C312 5268   2.739   5.303   4.409 -0.4034  0.0808  0.5039
   41DOPE  H12X 5269   2.768   5.208   4.361  0.4932  1.6627 -2.3025
   41DOPE  H12Y 5270   2.656   5.299   4.483 -0.8382  1.9385  0.1783
   41DOPE  C313 5271   2.861   5.355   4.487 -0.8362  0.5544 -0.1582
   41DOPE  H13X 5272   2.940   5.373   4.411  0.0883 -0.3290  0.5672
   41DOPE  H13Y 5273   2.848   5.454   4.535 -1.4712 -0.5107  1.9725
   41DOPE  C314 5274   2.896   5.257   4.588 -0.9522  0.4987 -0.4462
   41DOPE  H14X 5275   2.874   5.155   4.551 -0.1141 -0.1883  0.8772
   41DOPE  H14Y 5276   2.846   5.282   4.684  1.1478  3.3842  0.0301
   41DOPE  C315 5277   3.049   5.255   4.617 -0.0976 -0.0479  0.3913
   41DOPE  H15X 5278   3.082   5.356   4.650 -1.1630  0.1837  0.8195
   41DOPE  H15Y 5279   3.093   5.215   4.524 -0.7745  0.7815 -0.3002
   41DOPE  C316 5280   3.085   5.177   4.749  0.5691  0.1914  0.3749
   41DOPE  H16X 5281   3.018   5.089   4.763  0.3982  0.0710 -1.0724
   41DOPE  H16Y 5282   3.059   5.246   4.832  0.0847 -0.3263  0.6604
   41DOPE  C317 5283   3.233   5.133   4.761 -0.4949 -0.2384 -1.1215
   41DOPE  H17X 5284   3.287   5.223   4.723 -1.3501  0.1943 -1.3523
   41DOPE  H17Y 5285   3.274   5.114   4.863  0.4963 -0.7963 -1.6133
   41DOPE  C318 5286   3.276   5.020   4.675  0.0372 -0.4380  0.4994
   41DOPE  H18X 5287   3.255   5.031   4.567 -0.6665 -2.1559  0.4336
   41DOPE  H18Y 5288   3.384   5.002   4.695  0.1010  0.8752  1.4812
   41DOPE  H18Z 5289   3.214   4.930   4.693 -0.9170  0.1276  0.0725
   42DOPE     N 5290   1.835   4.833   2.680  0.5356  0.4622  0.0946
   42DOPE   HN1 5291   1.758   4.795   2.621 -0.3810  3.1210 -0.5568
   42DOPE   HN2 5292   1.808   4.932   2.695  0.2113  0.2335  1.0286
   42DOPE   HN3 5293   1.927   4.840   2.631  0.4934  1.1312  0.1066
   42DOPE   C12 5294   1.861   4.754   2.803  0.4476 -0.4603  0.7633
   42DOPE  H12A 5295   1.855   4.646   2.777 -0.5350  0.3139 -2.6742
   42DOPE  H12B 5296   1.776   4.767   2.873 -1.1744 -0.0021 -1.2203
   42DOPE   C11 5297   1.994   4.803   2.870  0.6925  0.1829 -0.4502
   42DOPE  H11A 5298   2.075   4.757   2.809 -1.1068 -1.7519 -1.4809
   42DOPE  H11B 5299   2.008   4.759   2.971  0.9166  0.6533 -0.2703
   42DOPE     P 5300   2.098   5.033   2.796 -0.1042  0.0904  0.3243
   42DOPE   O13 5301   2.122   5.162   2.865  1.0167 -0.0723  0.5506
   42DOPE   O14 5302   2.030   5.038   2.664  0.0920 -0.0677 -0.0186
   42DOPE   O11 5303   2.232   4.958   2.757  0.7342 -0.3313 -0.0293
   42DOPE   O12 5304   2.001   4.941   2.886 -0.0422 -0.1523 -0.1342
   42DOPE    C1 5305   2.363   4.961   2.824  1.0089 -0.4201 -0.3785
   42DOPE    HA 5306   2.364   5.065   2.865 -1.3127  0.4842 -2.3626
   42DOPE    HB 5307   2.448   4.941   2.755  1.2423  0.8806 -0.5122
   42DOPE    C2 5308   2.375   4.866   2.953  0.0660  0.5627 -0.2590
   42DOPE    HS 5309   2.353   4.763   2.919 -0.0721  0.2455  0.7575
   42DOPE   O21 5310   2.276   4.906   3.056  0.4838  0.0636 -0.6007
   42DOPE   C21 5311   2.229   4.805   3.135  0.5608 -0.2781 -0.0868
   42DOPE   O22 5312   2.261   4.686   3.125  0.8648 -0.3150 -0.1469
   42DOPE   C22 5313   2.125   4.861   3.233  0.9612 -0.8427  0.0115
   42DOPE   H2R 5314   2.039   4.897   3.172 -0.1600 -0.4538  1.7773
   42DOPE   H2S 5315   2.158   4.956   3.280 -2.2551  1.6419 -2.2713
   42DOPE    C3 5316   2.525   4.860   3.001 -0.4882  0.4436  0.4419
   42DOPE    HX 5317   2.549   4.964   3.032 -0.1932  0.4350  0.2377
   42DOPE    HY 5318   2.598   4.838   2.920 -0.8183 -0.9913  0.5083
   42DOPE   O31 5319   2.543   4.779   3.118 -0.0210 -0.3551 -0.3636
   42DOPE   C31 5320   2.561   4.647   3.100  0.4810 -0.2214 -0.1102
   42DOPE   O32 5321   2.593   4.588   2.997  0.1081 -0.0346 -0.3248
   42DOPE   C32 5322   2.554   4.580   3.229  0.0539  0.5967  0.3401
   42DOPE   H2X 5323   2.642   4.634   3.270  1.3501 -0.6802 -0.6779
   42DOPE   H2Y 5324   2.461   4.602   3.285 -1.2588 -1.2864 -0.9704
   42DOPE   C23 5325   2.085   4.754   3.335 -0.2968 -0.4155 -0.3640
   42DOPE   H3R 5326   2.050   4.668   3.274 -0.5390  0.1022 -0.9706
   42DOPE   H3S 5327   1.998   4.786   3.396  0.1427 -0.4137  0.2761
   42DOPE   C24 5328   2.192   4.733   3.443  0.3066  0.3774 -0.0655
   42DOPE   H4R 5329   2.214   4.830   3.492  2.3474 -0.7178  1.3360
   42DOPE   H4S 5330   2.280   4.697   3.385  0.7900 -1.1758  1.5548
   42DOPE   C25 5331   2.159   4.630   3.560  0.0525 -0.9351  0.0071
   42DOPE   H5R 5332   2.136   4.525   3.532 -0.0670 -1.8117  3.0911
   42DOPE   H5S 5333   2.069   4.665   3.615 -1.5558 -2.9812 -1.1657
   42DOPE   C26 5334   2.268   4.618   3.657  0.8310  0.1482 -0.1343
   42DOPE   H6R 5335   2.340   4.539   3.624 -0.9181 -1.4882 -0.2144
   42DOPE   H6S 5336   2.218   4.566   3.742 -1.8881  3.5615  0.5550
   42DOPE   C27 5337   2.346   4.745   3.703 -0.1603 -0.0295 -0.0558
   42DOPE   H7R 5338   2.295   4.782   3.794  0.6746  1.2212 -0.0741
   42DOPE   H7S 5339   2.352   4.828   3.629 -0.0723 -1.4880 -1.7478
   42DOPE   C28 5340   2.488   4.711   3.757 -0.5421  0.2205 -0.2415
   42DOPE   H8R 5341   2.544   4.807   3.755  0.4905 -0.2733  2.0293
   42DOPE   H8S 5342   2.535   4.648   3.679  0.1366 -1.0259  1.1320
   42DOPE   C29 5343   2.484   4.641   3.891 -0.3295 -0.1448  0.4277
   42DOPE   H9R 5344   2.479   4.531   3.893 -3.0330 -0.2915 -3.3138
   42DOPE  C210 5345   2.487   4.695   4.008  0.2319 -0.1719 -0.0134
   42DOPE  H10R 5346   2.488   4.631   4.098 -1.1629  0.6196  0.6013
   42DOPE  C211 5347   2.496   4.843   4.033  0.2308 -0.3855  0.3061
   42DOPE  H11R 5348   2.406   4.879   4.088 -0.1523 -0.8317 -0.0158
   42DOPE  H11S 5349   2.489   4.894   3.935  0.1102 -2.3964 -0.7885
   42DOPE  C212 5350   2.621   4.895   4.103  0.2092  0.0570  0.3217
   42DOPE  H12R 5351   2.630   5.005   4.093 -1.8025  0.2719  0.4160
   42DOPE  H12S 5352   2.709   4.847   4.054 -1.1060 -0.1486 -1.9934
   42DOPE  C213 5353   2.609   4.875   4.255  0.6050  0.4299  0.7323
   42DOPE  H13R 5354   2.580   4.769   4.273  1.5375 -0.4363 -2.2732
   42DOPE  H13S 5355   2.526   4.939   4.291 -1.3259 -0.2010 -2.2070
   42DOPE  C214 5356   2.743   4.903   4.323 -0.2098 -0.1409  0.0510
   42DOPE  H14R 5357   2.786   5.002   4.299 -5.1123  2.2433 -0.1771
   42DOPE  H14S 5358   2.807   4.822   4.281 -3.1367 -2.0757 -0.9732
   42DOPE  C215 5359   2.736   4.861   4.473 -0.4014  0.0435 -0.1322
   42DOPE  H15R 5360   2.699   4.757   4.484 -0.2737  0.0958  0.8565
   42DOPE  H15S 5361   2.671   4.928   4.534  0.9417  2.0296 -0.7837
   42DOPE  C216 5362   2.874   4.856   4.537 -0.3153 -0.3237  0.0558
   42DOPE  H16R 5363   2.928   4.953   4.532 -1.7334  0.5259  0.7430
   42DOPE  H16S 5364   2.946   4.783   4.493 -0.4264  1.7630 -4.0944
   42DOPE  C217 5365   2.861   4.835   4.689  0.0744 -0.4267 -0.0889
   42DOPE  H17R 5366   2.755   4.852   4.717  0.1312  1.8458 -1.0659
   42DOPE  H17S 5367   2.927   4.911   4.737 -0.4580 -1.0729  1.7636
   42DOPE  C218 5368   2.904   4.692   4.729  0.1951 -0.2063  0.4631
   42DOPE  H18R 5369   2.891   4.691   4.839  1.3149  1.8546  0.6703
   42DOPE  H18S 5370   3.014   4.677   4.716  0.0866  0.1750 -1.1070
   42DOPE  H18T 5371   2.834   4.622   4.679 -0.5162 -1.0843  2.5815
   42DOPE   C33 5372   2.579   4.429   3.231  0.6938 -0.0864 -0.0907
   42DOPE   H3X 5373   2.682   4.401   3.201  0.5193  0.2659 -1.0476
   42DOPE   H3Y 5374   2.508   4.394   3.153  0.2975  2.9309 -1.2322
   42DOPE   C34 5375   2.558   4.371   3.370  0.2393  0.1881 -0.3376
   42DOPE   H4X 5376   2.631   4.418   3.440  0.1937 -0.1001 -0.0934
   42DOPE   H4Y 5377   2.462   4.410   3.412  1.0674  0.5124  1.3324
   42DOPE   C35 5378   2.566   4.224   3.394  0.8413  0.0007  0.4622
   42DOPE   H5X 5379   2.666   4.194   3.357  1.6081  1.8231  0.9523
   42DOPE   H5Y 5380   2.489   4.173   3.332  0.2297  0.6423  0.6787
   42DOPE   C36 5381   2.559   4.187   3.539 -0.0162 -0.1496 -1.0518
   42DOPE   H6X 5382   2.650   4.207   3.599 -0.6665  0.3885 -0.2275
   42DOPE   H6Y 5383   2.571   4.077   3.528  2.2252  0.0806 -1.4308
   42DOPE   C37 5384   2.444   4.221   3.630 -0.8908  0.0880 -1.3449
   42DOPE   H7X 5385   2.467   4.304   3.700 -1.0360 -0.4297 -0.6705
   42DOPE   H7Y 5386   2.364   4.256   3.562 -0.0118 -1.0742 -3.0559
   42DOPE   C38 5387   2.394   4.113   3.723 -0.1948  0.1298 -0.0564
   42DOPE   H8X 5388   2.384   4.018   3.667  0.4819  0.0273 -0.0159
   42DOPE   H8Y 5389   2.296   4.144   3.764 -1.1139 -0.9843 -1.3236
   42DOPE   C39 5390   2.491   4.092   3.838 -0.4307 -0.8876  0.4287
   42DOPE   H9X 5391   2.498   4.171   3.915  1.3975  0.3537 -0.9342
   42DOPE  C310 5392   2.551   3.971   3.857  0.2025  0.4719 -0.3187
   42DOPE  H10X 5393   2.631   3.955   3.931 -0.8639  0.1712  0.7896
   42DOPE  C311 5394   2.550   3.854   3.761  0.3628 -0.3856 -0.8264
   42DOPE  H11X 5395   2.454   3.798   3.757  0.6982 -1.0360 -0.0452
   42DOPE  H11Y 5396   2.584   3.883   3.659  3.5094  0.0094  0.2329
   42DOPE  C312 5397   2.651   3.749   3.814 -0.8031 -0.0183  0.4114
   42DOPE  H12X 5398   2.755   3.785   3.830 -1.5069  1.4812  1.9058
   42DOPE  H12Y 5399   2.656   3.676   3.731  2.7161  0.0150  0.4661
   42DOPE  C313 5400   2.605   3.665   3.936 -0.0293  0.1649 -0.6618
   42DOPE  H13X 5401   2.594   3.724   4.029  1.8711 -0.1950 -0.1656
   42DOPE  H13Y 5402   2.502   3.635   3.904 -0.5294  1.5596 -0.4304
   42DOPE  C314 5403   2.696   3.554   3.965 -0.0715 -0.0072 -0.1641
   42DOPE  H14X 5404   2.797   3.589   3.995  0.7938 -1.5325 -1.1773
   42DOPE  H14Y 5405   2.705   3.480   3.883 -0.9557 -1.4996  1.0179
   42DOPE  C315 5406   2.651   3.464   4.089 -0.1971 -0.3982  0.6214
   42DOPE  H15X 5407   2.571   3.396   4.055 -2.0273  1.4439  1.0328
   42DOPE  H15Y 5408   2.594   3.527   4.160 -0.0323 -0.0935  0.4863
   42DOPE  C316 5409   2.774   3.419   4.178  0.2286 -0.5218  0.6583
   42DOPE  H16X 5410   2.798   3.502   4.248  1.2455 -0.5765  0.3868
   42DOPE  H16Y 5411   2.856   3.388   4.110 -0.0868 -2.4546  1.0830
   42DOPE  C317 5412   2.721   3.300   4.264  0.2707 -0.3976  0.1256
   42DOPE  H17X 5413   2.630   3.338   4.316 -0.4748  0.9854 -2.0735
   42DOPE  H17Y 5414   2.694   3.218   4.194 -0.9210  1.0785 -1.2050
   42DOPE  C318 5415   2.821   3.257   4.364 -0.8169 -0.6103  0.2150
   42DOPE  H18X 5416   2.910   3.222   4.308  0.1049  0.6691  0.8353
   42DOPE  H18Y 5417   2.856   3.337   4.432 -1.8057  0.4167 -0.4663
   42DOPE  H18Z 5418   2.791   3.167   4.422 -0.7361 -1.0722 -0.4463
   43DOPE     N 5419   0.532   2.064   3.198 -0.3515  0.2973 -0.8832
   43DOPE   HN1 5420   0.432   2.052   3.220  0.1354 -1.3408  0.6547
   43DOPE   HN2 5421   0.559   2.161   3.171 -2.8751  1.1483 -0.6033
   43DOPE   HN3 5422   0.553   1.996   3.122  0.1133 -1.0614  0.4034
   43DOPE   C12 5423   0.607   2.025   3.333  0.4237 -0.1758  0.0355
   43DOPE  H12A 5424   0.582   1.918   3.344  0.1569 -0.2069 -0.8269
   43DOPE  H12B 5425   0.565   2.088   3.414 -1.9539 -2.3847  0.6418
   43DOPE   C11 5426   0.757   2.033   3.324  0.5867 -0.2208  0.0191
   43DOPE  H11A 5427   0.809   2.015   3.420  0.5214  0.8448  0.2674
   43DOPE  H11B 5428   0.780   2.137   3.291  1.7736 -0.5719 -0.3195
   43DOPE     P 5429   0.942   1.940   3.163 -0.3711  0.4144  0.5911
   43DOPE   O13 5430   0.989   2.080   3.150 -0.3415 -0.2103  0.4386
   43DOPE   O14 5431   0.938   1.854   3.040 -0.0060  0.5459  0.2228
   43DOPE   O11 5432   1.023   1.865   3.275  0.1362 -0.2162  0.3830
   43DOPE   O12 5433   0.795   1.942   3.225  0.3141  0.8208 -0.1146
   43DOPE    C1 5434   0.986   1.726   3.311  0.9085 -0.1524 -0.3175
   43DOPE    HA 5435   0.987   1.659   3.223 -0.3565 -0.8621  0.1749
   43DOPE    HB 5436   0.881   1.731   3.349  1.5451  1.6725  1.4035
   43DOPE    C2 5437   1.073   1.677   3.429 -0.0960  0.6055 -0.7905
   43DOPE    HS 5438   1.001   1.614   3.486  2.8179 -1.3510  0.9931
   43DOPE   O21 5439   1.124   1.785   3.503  0.0961 -0.3962 -0.0337
   43DOPE   C21 5440   1.036   1.854   3.573 -0.3817  0.3986  0.0431
   43DOPE   O22 5441   0.916   1.828   3.589 -0.3353 -0.6148  0.9062
   43DOPE   C22 5442   1.102   1.993   3.608 -0.6886 -0.4618 -0.3172
   43DOPE   H2R 5443   1.061   2.062   3.531  0.5933 -0.7590 -1.3062
   43DOPE   H2S 5444   1.212   1.991   3.593 -0.8274 -0.1394 -1.4553
   43DOPE    C3 5445   1.191   1.585   3.381 -0.7729  0.2826 -0.0651
   43DOPE    HX 5446   1.242   1.635   3.297  1.4765 -1.3151  0.2479
   43DOPE    HY 5447   1.154   1.490   3.337  1.7501 -0.8022 -0.0543
   43DOPE   O31 5448   1.287   1.545   3.486  0.1929 -0.2814  0.5886
   43DOPE   C31 5449   1.391   1.628   3.498 -0.0966 -0.1079  0.9439
   43DOPE   O32 5450   1.417   1.726   3.432  0.0251 -0.3386 -0.1182
   43DOPE   C32 5451   1.460   1.582   3.629  0.0025  0.1378  0.2783
   43DOPE   H2X 5452   1.375   1.536   3.684 -1.8349 -0.0202 -2.5115
   43DOPE   H2Y 5453   1.525   1.496   3.604  1.3606  1.4383 -0.8688
   43DOPE   C23 5454   1.097   2.046   3.751 -0.0091 -0.8957 -0.3410
   43DOPE   H3R 5455   0.991   2.057   3.782  0.4038  0.0420  0.8206
   43DOPE   H3S 5456   1.130   2.151   3.758 -0.1470 -0.7953 -1.1173
   43DOPE   C24 5457   1.174   1.954   3.851 -0.4197 -0.0298  0.4054
   43DOPE   H4R 5458   1.279   1.944   3.815 -0.6019  2.2424 -0.9586
   43DOPE   H4S 5459   1.137   1.849   3.849  0.6997 -0.4663 -2.2966
   43DOPE   C25 5460   1.185   2.022   3.989 -0.0314  0.1892 -0.3056
   43DOPE   H5R 5461   1.087   2.049   4.035  0.5442 -0.1424  1.1690
   43DOPE   H5S 5462   1.243   2.116   3.988 -0.6405  0.5821  0.1370
   43DOPE   C26 5463   1.258   1.924   4.085 -0.9540 -0.5345 -0.2931
   43DOPE   H6R 5464   1.352   1.897   4.031 -0.7336  2.8827 -1.9000
   43DOPE   H6S 5465   1.189   1.840   4.110 -3.2706  1.0335 -1.0875
   43DOPE   C27 5466   1.286   1.998   4.218 -0.2892  0.1960 -0.0636
   43DOPE   H7R 5467   1.190   2.047   4.243 -0.3873 -0.7378  1.5811
   43DOPE   H7S 5468   1.364   2.077   4.223  0.1613 -0.2634  0.3917
   43DOPE   C28 5469   1.314   1.899   4.326 -0.4932 -0.2912  0.5132
   43DOPE   H8R 5470   1.229   1.830   4.342 -1.7194  0.3348 -2.5219
   43DOPE   H8S 5471   1.325   1.964   4.416  0.5074  0.7854 -0.3430
   43DOPE   C29 5472   1.447   1.829   4.298  0.8609  0.7740 -0.6348
   43DOPE   H9R 5473   1.438   1.749   4.223  0.3104  1.1831 -1.0122
   43DOPE  C210 5474   1.565   1.846   4.355 -0.5293 -0.1508 -0.0427
   43DOPE  H10R 5475   1.647   1.787   4.312 -1.9961 -1.1170 -1.6545
   43DOPE  C211 5476   1.600   1.938   4.464 -0.3869  0.1196  0.5809
   43DOPE  H11R 5477   1.532   2.026   4.462  0.4716  0.7928  0.3752
   43DOPE  H11S 5478   1.701   1.980   4.442 -0.1985 -0.5041  0.2480
   43DOPE  C212 5479   1.589   1.880   4.602 -0.6005  0.1303  0.0329
   43DOPE  H12R 5480   1.481   1.856   4.617 -0.2929 -0.7202  1.0044
   43DOPE  H12S 5481   1.618   1.960   4.673 -1.1426  0.5209 -0.1792
   43DOPE  C213 5482   1.691   1.760   4.613 -0.0305  0.3169  0.0047
   43DOPE  H13R 5483   1.788   1.793   4.572  0.0723 -0.3484 -0.3010
   43DOPE  H13S 5484   1.653   1.676   4.552  2.6427 -0.5680 -0.5712
   43DOPE  C214 5485   1.708   1.734   4.763 -0.3275  0.5900  0.0118
   43DOPE  H14R 5486   1.609   1.723   4.813  0.2795 -0.6937  0.9812
   43DOPE  H14S 5487   1.759   1.823   4.805  1.9733  1.1175 -3.5130
   43DOPE  C215 5488   1.797   1.607   4.777  0.8425  0.1907  0.6580
   43DOPE  H15R 5489   1.858   1.616   4.869 -0.1196  1.3479  1.2089
   43DOPE  H15S 5490   1.873   1.610   4.697  0.9303 -2.7871  0.5062
   43DOPE  C216 5491   1.720   1.475   4.780 -0.5651  0.1216 -0.1286
   43DOPE  H16R 5492   1.643   1.480   4.700 -0.5618  0.3303 -0.1182
   43DOPE  H16S 5493   1.669   1.457   4.877  1.0683  0.2121  0.7845
   43DOPE  C217 5494   1.805   1.354   4.759 -0.3526  0.3343  0.7521
   43DOPE  H17R 5495   1.754   1.263   4.798 -1.1697  0.8579  0.9321
   43DOPE  H17S 5496   1.893   1.360   4.827  0.0906  0.1019  0.2052
   43DOPE  C218 5497   1.855   1.323   4.619 -0.2319  0.0986  1.2358
   43DOPE  H18R 5498   1.889   1.419   4.575 -0.4011 -0.1246  0.6032
   43DOPE  H18S 5499   1.766   1.301   4.556  0.0898  0.3175  0.6966
   43DOPE  H18T 5500   1.931   1.242   4.617  0.3728  0.6558 -0.3124
   43DOPE   C33 5501   1.534   1.693   3.703 -0.3390 -0.5152 -0.6483
   43DOPE   H3X 5502   1.458   1.762   3.744  0.3583  0.6739 -1.3125
   43DOPE   H3Y 5503   1.598   1.756   3.637 -2.0490  0.6560 -1.2512
   43DOPE   C34 5504   1.610   1.634   3.824  0.0711  0.0280  0.1970
   43DOPE   H4X 5505   1.551   1.569   3.892 -0.0276 -2.2587 -1.9252
   43DOPE   H4Y 5506   1.687   1.563   3.786  0.7496  1.2062 -0.6802
   43DOPE   C35 5507   1.686   1.738   3.899  0.0568  0.3292 -0.4683
   43DOPE   H5X 5508   1.625   1.827   3.930  2.3967  2.2267 -1.0443
   43DOPE   H5Y 5509   1.768   1.779   3.837  0.5051  1.2172  0.6680
   43DOPE   C36 5510   1.749   1.688   4.027  0.1074 -0.3333  0.5076
   43DOPE   H6X 5511   1.673   1.661   4.103  0.1184 -1.0499  0.2739
   43DOPE   H6Y 5512   1.805   1.772   4.073 -1.0709  1.0353 -0.4414
   43DOPE   C37 5513   1.844   1.569   4.015  0.3924 -0.6433  0.3251
   43DOPE   H7X 5514   1.779   1.481   4.031 -0.4871 -0.3865 -1.6190
   43DOPE   H7Y 5515   1.886   1.553   3.914 -0.1664 -0.3993  0.0486
   43DOPE   C38 5516   1.947   1.563   4.133 -0.2936 -0.0597  0.4172
   43DOPE   H8X 5517   1.986   1.460   4.118 -1.5111 -0.5873  0.7461
   43DOPE   H8Y 5518   1.894   1.569   4.230 -2.1407  0.3691 -0.5744
   43DOPE   C39 5519   2.049   1.663   4.112 -0.1933 -0.5205  0.3478
   43DOPE   H9X 5520   2.076   1.677   4.007 -0.0007  1.7793  0.6288
   43DOPE  C310 5521   2.099   1.751   4.203 -0.1632 -0.2031 -0.4324
   43DOPE  H10X 5522   2.189   1.806   4.173  0.8128 -1.9096 -0.7562
   43DOPE  C311 5523   2.071   1.760   4.348 -0.4670  0.4658  0.1029
   43DOPE  H11X 5524   2.114   1.858   4.379 -1.1223  0.7776  0.0304
   43DOPE  H11Y 5525   1.964   1.754   4.375  0.0011 -0.2351  1.9763
   43DOPE  C312 5526   2.136   1.642   4.431 -0.5684 -0.3634  0.8194
   43DOPE  H12X 5527   2.232   1.607   4.386 -0.2559 -0.3388  1.4529
   43DOPE  H12Y 5528   2.067   1.556   4.419  0.2389 -1.0042  0.6606
   43DOPE  C313 5529   2.158   1.672   4.576  0.3250  0.4081  0.4300
   43DOPE  H13X 5530   2.238   1.749   4.581  0.6807 -0.0254  1.6408
   43DOPE  H13Y 5531   2.066   1.719   4.616  0.7008  0.0694  1.7270
   43DOPE  C314 5532   2.190   1.546   4.658  0.0145 -0.5707 -0.0041
   43DOPE  H14X 5533   2.289   1.506   4.629  1.1876  1.0479  1.5059
   43DOPE  H14Y 5534   2.103   1.480   4.638 -0.3142 -0.3688  0.6961
   43DOPE  C315 5535   2.203   1.576   4.805 -0.1884 -0.2782 -0.5065
   43DOPE  H15X 5536   2.172   1.489   4.865  0.1588 -0.6569 -0.8695
   43DOPE  H15Y 5537   2.151   1.670   4.835  1.5447  0.4170  0.4872
   43DOPE  C316 5538   2.351   1.587   4.839  0.2239  0.2973  0.4008
   43DOPE  H16X 5539   2.393   1.669   4.777 -0.6520  0.3415 -0.1424
   43DOPE  H16Y 5540   2.395   1.495   4.795  0.8945  0.0893  1.4753
   43DOPE  C317 5541   2.381   1.603   4.987 -0.1002 -0.6372 -0.7175
   43DOPE  H17X 5542   2.355   1.507   5.035 -0.7104 -2.0081 -3.5804
   43DOPE  H17Y 5543   2.491   1.616   4.987  0.0720 -1.6941 -2.9410
   43DOPE  C318 5544   2.312   1.721   5.061 -1.0950 -0.4038  0.3176
   43DOPE  H18X 5545   2.295   1.813   5.000 -1.2194 -0.6184  0.0215
   43DOPE  H18Y 5546   2.208   1.706   5.097 -1.6328  0.0565 -0.9626
   43DOPE  H18Z 5547   2.369   1.739   5.154  0.5699 -1.1808 -0.5141
   44DOPE     N 5548   4.191   0.970   2.199 -0.3077  0.5748  0.2835
   44DOPE   HN1 5549   4.266   0.924   2.256 -0.1016 -1.5518 -1.5798
   44DOPE   HN2 5550   4.127   0.895   2.167 -0.8705  0.7547  0.9551
   44DOPE   HN3 5551   4.236   1.019   2.120  0.5509 -3.1036 -1.7162
   44DOPE   C12 5552   4.127   1.068   2.292  0.2825 -0.5656 -0.1402
   44DOPE  H12A 5553   4.054   1.133   2.238  1.0069 -0.0904 -0.5740
   44DOPE  H12B 5554   4.205   1.133   2.336 -0.4887  0.8416 -0.7732
   44DOPE   C11 5555   4.073   0.999   2.415  0.2309  0.2600  0.0996
   44DOPE  H11A 5556   4.023   0.904   2.385  0.4322  0.1714  0.0438
   44DOPE  H11B 5557   3.998   1.065   2.463  0.7715  0.2743  0.9454
   44DOPE     P 5558   4.242   1.069   2.613  0.0183  0.1039  0.2576
   44DOPE   O13 5559   4.273   1.200   2.554 -0.6130 -1.0710  0.0976
   44DOPE   O14 5560   4.352   0.998   2.683  0.0969  0.4842 -0.0789
   44DOPE   O11 5561   4.118   1.089   2.714 -0.1209 -0.1220  0.0989
   44DOPE   O12 5562   4.187   0.968   2.497 -0.1510  0.7521  0.0800
   44DOPE    C1 5563   4.082   0.986   2.804  0.0123  0.4526  0.3547
   44DOPE    HA 5564   4.094   0.887   2.753 -2.3272  0.9657 -1.3503
   44DOPE    HB 5565   3.974   0.997   2.825  0.1780  1.0148  0.9520
   44DOPE    C2 5566   4.150   0.994   2.943  0.4872 -0.0193 -0.8895
   44DOPE    HS 5567   4.250   0.955   2.912  0.3107 -0.2453 -1.1870
   44DOPE   O21 5568   4.077   0.911   3.039  0.3027  0.2532 -0.2270
   44DOPE   C21 5569   4.161   0.855   3.123  0.0975 -0.1910  0.4769
   44DOPE   O22 5570   4.283   0.833   3.108  0.0114  0.9846 -0.1034
   44DOPE   C22 5571   4.078   0.812   3.243  0.3569 -0.1829 -0.1855
   44DOPE   H2R 5572   4.017   0.723   3.214 -0.2266  0.1097  0.1351
   44DOPE   H2S 5573   3.999   0.887   3.265 -1.4960 -1.4734 -1.9569
   44DOPE    C3 5574   4.166   1.147   2.985  0.2373  0.0124  0.1321
   44DOPE    HX 5575   4.067   1.192   2.962 -0.9849 -2.1446  0.9139
   44DOPE    HY 5576   4.233   1.193   2.909  1.7342 -2.6984 -0.3201
   44DOPE   O31 5577   4.214   1.173   3.121 -0.0741  0.5685  0.3544
   44DOPE   C31 5578   4.119   1.176   3.215 -0.3052  0.3922  0.4734
   44DOPE   O32 5579   3.999   1.180   3.201  0.1062 -0.0076 -0.0944
   44DOPE   C32 5580   4.182   1.186   3.352  0.5419  0.2894 -0.7712
   44DOPE   H2X 5581   4.106   1.145   3.421  1.9094  0.4889  0.9061
   44DOPE   H2Y 5582   4.276   1.128   3.353  0.3286 -0.0721 -1.1978
   44DOPE   C23 5583   4.172   0.787   3.361  0.3765 -0.4003  0.1668
   44DOPE   H3R 5584   4.233   0.876   3.386  0.0692 -0.3181  0.6276
   44DOPE   H3S 5585   4.246   0.708   3.336  2.0323  1.1819 -0.1764
   44DOPE   C24 5586   4.090   0.757   3.488  0.7703 -0.0450  0.2827
   44DOPE   H4R 5587   4.031   0.845   3.522  0.8221 -0.0775  0.4560
   44DOPE   H4S 5588   4.163   0.731   3.568  0.9307 -0.3325  0.0472
   44DOPE   C25 5589   3.991   0.636   3.480  0.1394  0.7840 -0.6326
   44DOPE   H5R 5590   4.041   0.537   3.493 -0.1125  0.6090 -1.0034
   44DOPE   H5S 5591   3.937   0.635   3.383 -0.9485 -1.7051 -0.0749
   44DOPE   C26 5592   3.893   0.638   3.597  0.7054  0.8960  0.3816
   44DOPE   H6R 5593   3.819   0.556   3.587  1.2765  0.5121 -0.7982
   44DOPE   H6S 5594   3.829   0.729   3.601  0.2351  0.6676 -1.3034
   44DOPE   C27 5595   3.962   0.612   3.732 -0.0578  0.3171 -0.8378
   44DOPE   H7R 5596   4.043   0.686   3.744  1.1478 -1.2359  1.2560
   44DOPE   H7S 5597   4.024   0.521   3.717  3.4685  2.6536 -1.6188
   44DOPE   C28 5598   3.882   0.627   3.853  0.2963  0.1081  0.6798
   44DOPE   H8R 5599   3.853   0.733   3.871 -3.3419 -0.6797  0.1526
   44DOPE   H8S 5600   3.944   0.606   3.943  0.9034 -0.6584  0.0907
   44DOPE   C29 5601   3.751   0.541   3.848 -0.0013  1.1373  0.4049
   44DOPE   H9R 5602   3.680   0.566   3.768 -0.6082  1.1620  0.9514
   44DOPE  C210 5603   3.738   0.423   3.909 -0.1062 -0.2272  0.1145
   44DOPE  H10R 5604   3.647   0.363   3.893 -0.5266  0.0685  1.2950
   44DOPE  C211 5605   3.833   0.356   3.998  0.5465  0.3126  0.4381
   44DOPE  H11R 5606   3.938   0.390   3.986  1.5049 -2.6484 -0.4634
   44DOPE  H11S 5607   3.838   0.246   3.985  1.9645  0.0314  2.7121
   44DOPE  C212 5608   3.803   0.351   4.147  0.2383  0.3373  0.1879
   44DOPE  H12R 5609   3.891   0.297   4.189  0.2474  0.4907  0.3680
   44DOPE  H12S 5610   3.711   0.289   4.152  1.9811 -2.5567 -1.0494
   44DOPE  C213 5611   3.784   0.493   4.215 -0.1659  0.3257  0.3507
   44DOPE  H13R 5612   3.686   0.540   4.190 -0.4079  0.2840  1.1840
   44DOPE  H13S 5613   3.874   0.550   4.184  0.5564 -0.7392  0.4195
   44DOPE  C214 5614   3.791   0.478   4.366  0.4362 -0.0595 -0.5185
   44DOPE  H14R 5615   3.776   0.576   4.416 -2.3134 -1.2366  1.1868
   44DOPE  H14S 5616   3.893   0.444   4.395 -0.1822 -1.0858  0.5566
   44DOPE  C215 5617   3.690   0.390   4.436  0.1540 -0.2338  0.6122
   44DOPE  H15R 5618   3.724   0.291   4.398  0.0320 -0.5822  1.3882
   44DOPE  H15S 5619   3.590   0.405   4.389 -0.4309 -1.4198  1.4104
   44DOPE  C216 5620   3.682   0.393   4.589  0.0569 -0.0361  0.2059
   44DOPE  H16R 5621   3.637   0.484   4.633 -0.2386 -0.2312  0.3107
   44DOPE  H16S 5622   3.790   0.388   4.614 -0.0365  1.1697  0.8802
   44DOPE  C217 5623   3.617   0.267   4.654  0.2019 -0.2544 -0.8644
   44DOPE  H17R 5624   3.671   0.176   4.620 -0.9292 -1.1274 -0.3702
   44DOPE  H17S 5625   3.509   0.269   4.630 -0.1931 -1.2334  0.6692
   44DOPE  C218 5626   3.634   0.251   4.804  0.3098 -0.4106  0.4215
   44DOPE  H18R 5627   3.575   0.160   4.830 -2.7533  1.7461  1.5159
   44DOPE  H18S 5628   3.592   0.339   4.856  0.6777  0.6355 -0.9976
   44DOPE  H18T 5629   3.741   0.246   4.834  0.9820 -1.1501 -1.8510
   44DOPE   C33 5630   4.204   1.333   3.388 -0.1535 -0.7289 -0.1848
   44DOPE   H3X 5631   4.112   1.392   3.369  0.1154 -0.6739 -1.4255
   44DOPE   H3Y 5632   4.290   1.378   3.334  1.9562  0.3761  3.7413
   44DOPE   C34 5633   4.236   1.333   3.536  0.0225 -0.6173 -0.2581
   44DOPE   H4X 5634   4.150   1.282   3.586  0.0418 -0.2775  0.1290
   44DOPE   H4Y 5635   4.328   1.276   3.559 -0.2777 -0.6801  0.8785
   44DOPE   C35 5636   4.241   1.472   3.594 -0.0540  0.7732  0.0049
   44DOPE   H5X 5637   4.147   1.530   3.580  0.8696  2.3047 -0.0774
   44DOPE   H5Y 5638   4.307   1.529   3.525 -1.7273  0.1276 -2.2450
   44DOPE   C36 5639   4.287   1.473   3.736 -0.3179  0.1910  0.0784
   44DOPE   H6X 5640   4.222   1.402   3.792 -0.9578 -1.0477 -2.1468
   44DOPE   H6Y 5641   4.254   1.575   3.766  1.9473  1.4895 -1.5834
   44DOPE   C37 5642   4.440   1.452   3.757  0.6074 -0.4765 -0.5251
   44DOPE   H7X 5643   4.458   1.354   3.707 -0.4191 -1.0256  0.1371
   44DOPE   H7Y 5644   4.494   1.527   3.696  0.4679 -0.1281 -0.2262
   44DOPE   C38 5645   4.474   1.446   3.903  0.4313 -0.2759 -1.1904
   44DOPE   H8X 5646   4.408   1.374   3.957 -1.1365  0.9164 -1.4332
   44DOPE   H8Y 5647   4.446   1.544   3.947  0.0448 -0.7394 -0.3609
   44DOPE   C39 5648   4.621   1.414   3.923 -0.3911 -0.2288 -0.0416
   44DOPE   H9X 5649   4.667   1.347   3.849 -4.2561 -0.6728 -2.3094
   44DOPE  C310 5650   4.699   1.464   4.021 -0.5205  0.4895  0.4920
   44DOPE  H10X 5651   4.799   1.420   4.034 -1.1477 -0.9558  0.6608
   44DOPE  C311 5652   4.668   1.560   4.134 -0.6107  0.9368 -0.3328
   44DOPE  H11X 5653   4.747   1.566   4.211  0.5782  0.4423 -1.4706
   44DOPE  H11Y 5654   4.656   1.663   4.094 -1.0405  0.8543 -0.4238
   44DOPE  C312 5655   4.538   1.538   4.217 -0.0574 -0.0125 -0.7024
   44DOPE  H12X 5656   4.545   1.433   4.253 -0.3456  0.5255  1.0071
   44DOPE  H12Y 5657   4.445   1.539   4.156 -0.1636  2.6865 -0.5894
   44DOPE  C313 5658   4.519   1.633   4.342  0.2672 -0.2398 -0.1515
   44DOPE  H13X 5659   4.617   1.647   4.392 -0.7486  0.7316  1.6585
   44DOPE  H13Y 5660   4.485   1.727   4.294  3.7934  0.7309 -1.0326
   44DOPE  C314 5661   4.413   1.576   4.439 -0.0816  0.7460 -0.3583
   44DOPE  H14X 5662   4.323   1.540   4.386  0.7339 -1.2631 -0.4749
   44DOPE  H14Y 5663   4.377   1.653   4.510  0.0175  0.0986  0.4137
   44DOPE  C315 5664   4.480   1.467   4.530  0.6482  0.3844 -0.0541
   44DOPE  H15X 5665   4.564   1.513   4.586  1.5849 -0.4943 -0.6787
   44DOPE  H15Y 5666   4.531   1.387   4.472 -0.0480 -0.3165  0.2852
   44DOPE  C316 5667   4.381   1.397   4.631  0.0236  0.3320  0.7093
   44DOPE  H16X 5668   4.307   1.335   4.576  1.3813 -3.2914  2.6070
   44DOPE  H16Y 5669   4.328   1.468   4.698  0.1819  1.7693 -0.6280
   44DOPE  C317 5670   4.462   1.302   4.727  0.2302 -0.0048  0.0691
   44DOPE  H17X 5671   4.550   1.368   4.745 -2.0200  3.4549 -0.7095
   44DOPE  H17Y 5672   4.402   1.293   4.820 -0.8091 -0.0649 -0.5955
   44DOPE  C318 5673   4.502   1.164   4.675 -0.2950  0.4477 -0.2825
   44DOPE  H18X 5674   4.544   1.110   4.763 -0.0314 -1.1999 -1.3638
   44DOPE  H18Y 5675   4.420   1.104   4.630 -0.3264  1.2891 -1.3738
   44DOPE  H18Z 5676   4.580   1.179   4.597  0.5056  1.3577  0.6718
   45DOPE     N 5677   4.437   0.737   2.677 -0.3257 -0.1322  0.3880
   45DOPE   HN1 5678   4.349   0.682   2.682 -0.8675  0.6933  0.1611
   45DOPE   HN2 5679   4.411   0.835   2.700 -1.8133 -0.1470 -1.0397
   45DOPE   HN3 5680   4.474   0.744   2.580  1.7453 -0.4382  1.1191
   45DOPE   C12 5681   4.536   0.678   2.779 -0.0071 -0.2896  0.4053
   45DOPE  H12A 5682   4.591   0.594   2.733 -0.9044 -1.2530  1.0559
   45DOPE  H12B 5683   4.468   0.640   2.859 -1.7539 -0.5712 -1.1457
   45DOPE   C11 5684   4.626   0.788   2.832 -0.5386  0.1750  0.2205
   45DOPE  H11A 5685   4.668   0.750   2.928  2.4461 -0.0766 -1.0624
   45DOPE  H11B 5686   4.565   0.879   2.848 -0.6615 -0.0904  1.3676
   45DOPE     P 5687   4.877   0.839   2.787 -0.2797  0.2443  0.1370
   45DOPE   O13 5688   4.965   0.885   2.676  0.3330  0.2210  0.0755
   45DOPE   O14 5689   4.933   0.723   2.857  0.0001 -0.4526  0.4877
   45DOPE   O11 5690   4.851   0.953   2.898  0.1477  0.1612 -0.8618
   45DOPE   O12 5691   4.724   0.797   2.731 -0.3753  0.3215 -0.1940
   45DOPE    C1 5692   4.967   1.015   2.962 -0.3997 -0.6168  0.3412
   45DOPE    HA 5693   4.950   1.123   2.981 -0.9620 -1.0211  2.3609
   45DOPE    HB 5694   5.064   1.009   2.908 -0.6665  1.2977 -0.4175
   45DOPE    C2 5695   4.989   0.965   3.111  0.0772  0.2644 -0.4804
   45DOPE    HS 5696   4.966   0.856   3.104  0.4402  0.1290  0.3710
   45DOPE   O21 5697   4.900   1.040   3.191  0.2550  0.6520 -0.3988
   45DOPE   C21 5698   4.850   0.959   3.290  0.3069 -0.5432 -0.2647
   45DOPE   O22 5699   4.855   0.841   3.302 -0.0868  0.3894  0.8835
   45DOPE   C22 5700   4.761   1.043   3.375  0.4057 -0.0307  0.9816
   45DOPE   H2R 5701   4.679   1.084   3.313 -0.3785 -0.1387  1.9200
   45DOPE   H2S 5702   4.820   1.131   3.410 -0.1019  0.6826  0.0800
   45DOPE    C3 5703   5.134   0.990   3.153  0.0925  0.7782 -0.2016
   45DOPE    HX 5704   5.147   1.100   3.156  1.4363  0.6232  2.1830
   45DOPE    HY 5705   5.197   0.940   3.077 -0.9595 -2.8769  1.1071
   45DOPE   O31 5706   5.157   0.947   3.294  0.3620 -0.0924 -0.3375
   45DOPE   C31 5707   5.180   0.819   3.306 -0.1469 -0.4865  0.1521
   45DOPE   O32 5708   5.189   0.743   3.215 -0.2407  0.2277 -0.0528
   45DOPE   C32 5709   5.207   0.783   3.452 -0.1154 -0.0243 -0.0763
   45DOPE   H2X 5710   5.311   0.745   3.460  0.0370 -0.0646 -1.7697
   45DOPE   H2Y 5711   5.214   0.877   3.510  0.4505  0.6120 -1.1399
   45DOPE   C23 5712   4.695   0.962   3.486 -0.3784  0.1853  0.5016
   45DOPE   H3R 5713   4.777   0.916   3.545  2.3323  0.9032 -2.4646
   45DOPE   H3S 5714   4.640   0.877   3.441 -2.4703  1.0749  1.2694
   45DOPE   C24 5715   4.595   1.031   3.582 -0.0658  0.1467  0.9246
   45DOPE   H4R 5716   4.509   1.044   3.512  1.7045 -1.6856 -1.7927
   45DOPE   H4S 5717   4.643   1.126   3.612 -0.4225 -0.1044  2.3751
   45DOPE   C25 5718   4.551   0.945   3.697 -0.7094 -0.8343  0.5654
   45DOPE   H5R 5719   4.640   0.931   3.762  1.3076  1.2573 -1.5145
   45DOPE   H5S 5720   4.526   0.845   3.656 -0.6120 -0.6721  0.1060
   45DOPE   C26 5721   4.427   0.997   3.775  0.2447 -0.6035 -0.0273
   45DOPE   H6R 5722   4.462   1.098   3.804  2.2937 -1.2895  0.0056
   45DOPE   H6S 5723   4.406   0.941   3.869  0.5692  0.1170  0.4801
   45DOPE   C27 5724   4.290   1.000   3.707  0.4592 -0.1960  0.5518
   45DOPE   H7R 5725   4.271   0.899   3.665  1.5365 -0.2300  0.1195
   45DOPE   H7S 5726   4.299   1.070   3.621  2.2038 -2.0840 -0.8991
   45DOPE   C28 5727   4.172   1.044   3.803  0.1061  0.4193 -0.2490
   45DOPE   H8R 5728   4.082   1.076   3.746 -0.2085  0.9315  0.5197
   45DOPE   H8S 5729   4.206   1.135   3.858 -0.0720  0.3789 -0.0724
   45DOPE   C29 5730   4.136   0.938   3.907  0.5243 -0.0086  0.0053
   45DOPE   H9R 5731   4.136   0.835   3.867 -2.4485  0.2953 -1.0168
   45DOPE  C210 5732   4.112   0.963   4.041  0.5566 -0.6266 -0.0385
   45DOPE  H10R 5733   4.064   0.883   4.101  0.4721  0.4451  1.3763
   45DOPE  C211 5734   4.117   1.100   4.110 -0.1926 -0.9823  0.3396
   45DOPE  H11R 5735   4.023   1.154   4.091 -0.0221 -1.7543 -3.4352
   45DOPE  H11S 5736   4.198   1.156   4.059  1.4302 -3.3964  0.0406
   45DOPE  C212 5737   4.169   1.102   4.256 -0.5344  0.6355  0.1162
   45DOPE  H12R 5738   4.213   1.203   4.271  3.4788 -0.3648 -2.9825
   45DOPE  H12S 5739   4.256   1.033   4.263  0.9987  2.4578 -0.1101
   45DOPE  C213 5740   4.062   1.052   4.355  0.6351  0.8773 -0.5548
   45DOPE  H13R 5741   4.046   0.942   4.345  0.5408  0.9489 -1.1730
   45DOPE  H13S 5742   3.960   1.092   4.339 -0.7576 -2.2171 -0.3285
   45DOPE  C214 5743   4.115   1.080   4.497 -0.1189  0.2591  0.5223
   45DOPE  H14R 5744   4.120   1.191   4.500  1.3183  0.2399 -0.2785
   45DOPE  H14S 5745   4.221   1.047   4.501  0.2934  1.0086 -2.3368
   45DOPE  C215 5746   4.040   1.016   4.611  0.6895 -0.1946 -0.4988
   45DOPE  H15R 5747   4.052   0.906   4.613  3.5651 -0.0186 -2.3288
   45DOPE  H15S 5748   3.934   1.038   4.585  0.6521  1.8367  1.1188
   45DOPE  C216 5749   4.083   1.079   4.743 -0.2684 -0.5945  0.5049
   45DOPE  H16R 5750   4.078   1.187   4.718  1.3722 -0.8353 -1.1426
   45DOPE  H16S 5751   4.190   1.050   4.750  0.1490  0.4002 -1.0819
   45DOPE  C217 5752   4.011   1.031   4.867  0.4686 -0.4089 -0.0956
   45DOPE  H17R 5753   4.068   1.072   4.953  0.0294  1.1193 -0.4923
   45DOPE  H17S 5754   4.022   0.921   4.870 -2.7684 -0.8134  0.8198
   45DOPE  C218 5755   3.864   1.083   4.879  0.3538  0.6038  0.3354
   45DOPE  H18R 5756   3.825   1.068   4.982  1.0785  0.1136  0.5457
   45DOPE  H18S 5757   3.806   1.025   4.804 -0.3035  0.9697  0.5502
   45DOPE  H18T 5758   3.839   1.186   4.847 -2.0411  0.0435  0.1464
   45DOPE   C33 5759   5.104   0.682   3.515 -0.1085  0.0616  0.3113
   45DOPE   H3X 5760   5.091   0.598   3.444  1.3894 -0.7128  0.9046
   45DOPE   H3Y 5761   5.003   0.728   3.506 -0.0194  0.0364 -1.0592
   45DOPE   C34 5762   5.143   0.632   3.658 -0.8848  0.2425 -0.3451
   45DOPE   H4X 5763   5.230   0.564   3.649 -0.7350 -0.0136  2.2811
   45DOPE   H4Y 5764   5.191   0.722   3.701  0.6204 -1.0154  0.6867
   45DOPE   C35 5765   5.023   0.563   3.727 -0.4067 -0.1017  0.4067
   45DOPE   H5X 5766   5.059   0.476   3.786  1.3170 -0.4081 -0.9903
   45DOPE   H5Y 5767   4.965   0.523   3.640 -1.8815  0.9223  0.8837
   45DOPE   C36 5768   4.926   0.654   3.794  0.6020 -0.2387 -0.0877
   45DOPE   H6X 5769   4.905   0.728   3.713 -2.1727  0.5285  1.2277
   45DOPE   H6Y 5770   4.964   0.718   3.877 -1.1273  1.2660 -0.4099
   45DOPE   C37 5771   4.794   0.596   3.842 -0.6136  0.5802  0.0418
   45DOPE   H7X 5772   4.725   0.680   3.862 -1.4682  0.4549 -2.1194
   45DOPE   H7Y 5773   4.740   0.544   3.760  1.0653 -0.5859 -0.3603
   45DOPE   C38 5774   4.786   0.501   3.959  0.3425 -0.4298  0.5759
   45DOPE   H8X 5775   4.849   0.413   3.936  1.2376  0.4239 -0.3666
   45DOPE   H8Y 5776   4.679   0.474   3.968  0.4018 -0.5962  0.7833
   45DOPE   C39 5777   4.840   0.563   4.084  0.4417  0.5377 -0.2425
   45DOPE   H9X 5778   4.928   0.625   4.060 -0.1648  1.6682  0.3691
   45DOPE  C310 5779   4.781   0.571   4.205 -0.4264 -0.1229 -0.5225
   45DOPE  H10X 5780   4.844   0.610   4.286 -1.5275  0.3527  0.1366
   45DOPE  C311 5781   4.652   0.511   4.260 -0.1538 -0.2069 -0.4293
   45DOPE  H11X 5782   4.604   0.584   4.328  0.3211 -0.8449  0.6254
   45DOPE  H11Y 5783   4.577   0.478   4.185 -2.4618  2.2946  0.6206
   45DOPE  C312 5784   4.688   0.390   4.346 -0.6957  0.1173  0.2554
   45DOPE  H12X 5785   4.738   0.314   4.282  1.2531  1.0498  0.5965
   45DOPE  H12Y 5786   4.587   0.345   4.361 -0.9225 -0.0090 -1.4993
   45DOPE  C313 5787   4.771   0.396   4.476 -0.5466  0.0718 -0.4049
   45DOPE  H13X 5788   4.784   0.296   4.522 -0.1454  0.9516  1.4954
   45DOPE  H13Y 5789   4.871   0.439   4.453  0.1390 -2.7575 -3.3901
   45DOPE  C314 5790   4.700   0.488   4.589 -0.2190 -0.2969 -0.3085
   45DOPE  H14X 5791   4.602   0.437   4.582 -0.3144  0.0547 -2.0588
   45DOPE  H14Y 5792   4.693   0.586   4.536  2.1437 -1.1329 -2.3699
   45DOPE  C315 5793   4.761   0.483   4.729  0.5343  0.0179  0.2666
   45DOPE  H15X 5794   4.771   0.379   4.767 -1.4844 -0.0952  0.6066
   45DOPE  H15Y 5795   4.694   0.534   4.802 -1.0120  0.4143 -1.3586
   45DOPE  C316 5796   4.906   0.528   4.741  0.7405 -0.0896  0.3211
   45DOPE  H16X 5797   4.913   0.636   4.718  1.3632 -0.0895  0.5128
   45DOPE  H16Y 5798   4.965   0.485   4.658 -0.4295  0.7431 -0.9976
   45DOPE  C317 5799   4.963   0.512   4.879 -0.2316 -0.1119 -0.3301
   45DOPE  H17X 5800   4.960   0.402   4.895 -0.8755 -0.0320  0.1473
   45DOPE  H17Y 5801   5.069   0.543   4.875  0.0668 -0.2113  3.5348
   45DOPE  C318 5802   4.904   0.583   5.000  0.0738  0.0078 -0.2908
   45DOPE  H18X 5803   4.807   0.533   5.024 -1.0728  2.4789  0.4895
   45DOPE  H18Y 5804   4.979   0.566   5.079 -1.3864 -1.2564  0.8821
   45DOPE  H18Z 5805   4.890   0.693   4.992 -2.0790  0.0279  2.4382
   46DOPE     N 5806   5.578   7.620   3.173  0.3938  0.2702 -0.2691
   46DOPE   HN1 5807   5.522   7.535   3.152 -0.4637  0.4267  1.2597
   46DOPE   HN2 5808   5.584   7.684   3.092  1.5008  1.8433  0.9849
   46DOPE   HN3 5809   5.676   7.591   3.193  0.0535 -0.2361  0.7165
   46DOPE   C12 5810   5.512   7.671   3.301 -0.1733  0.1050 -0.4142
   46DOPE  H12A 5811   5.414   7.717   3.275  0.0271  1.0154  0.3983
   46DOPE  H12B 5812   5.579   7.748   3.344 -0.9674  0.5695  0.0259
   46DOPE   C11 5813   5.513   7.560   3.405  0.2127  0.6958 -0.3348
   46DOPE  H11A 5814   5.507   7.598   3.509 -1.6919  0.2627 -0.2371
   46DOPE  H11B 5815   5.607   7.500   3.402 -0.3649 -0.2613  0.0942
   46DOPE     P 5816   5.416   7.340   3.300  0.1391 -0.3294 -0.3057
   46DOPE   O13 5817   5.463   7.376   3.164 -0.2751  0.2799 -0.2048
   46DOPE   O14 5818   5.291   7.267   3.306  0.5805  0.1191 -0.5488
   46DOPE   O11 5819   5.528   7.263   3.378  0.0136 -0.3419  0.0926
   46DOPE   O12 5820   5.400   7.477   3.387 -0.3675  0.9136  0.2528
   46DOPE    C1 5821   5.504   7.170   3.485  0.1567  0.0954  0.5269
   46DOPE    HA 5822   5.493   7.069   3.439 -1.7868  0.1581  0.7939
   46DOPE    HB 5823   5.409   7.196   3.536  0.3926  2.8209 -0.2778
   46DOPE    C2 5824   5.621   7.141   3.587  0.1987 -0.0802 -0.1395
   46DOPE    HS 5825   5.716   7.139   3.530  0.7575 -0.0899  0.7758
   46DOPE   O21 5826   5.595   7.020   3.655 -0.5580 -0.4602 -0.4781
   46DOPE   C21 5827   5.657   6.915   3.600 -0.9207 -0.2569 -0.8597
   46DOPE   O22 5828   5.721   6.912   3.499  0.0288  0.8188  0.3652
   46DOPE   C22 5829   5.655   6.814   3.717 -0.3975 -0.4666 -0.0100
   46DOPE   H2R 5830   5.579   6.735   3.701 -0.0204 -1.0703  1.0736
   46DOPE   H2S 5831   5.631   6.867   3.812 -3.2265  0.8458 -1.3385
   46DOPE    C3 5832   5.623   7.265   3.684 -0.1199 -0.4346 -0.6625
   46DOPE    HX 5833   5.533   7.284   3.746  2.8061  1.6192  3.4951
   46DOPE    HY 5834   5.634   7.349   3.612  0.8658  0.3338  0.3518
   46DOPE   O31 5835   5.730   7.259   3.772  0.6646  0.1241 -0.1786
   46DOPE   C31 5836   5.750   7.372   3.845 -0.2001 -0.8798  0.4228
   46DOPE   O32 5837   5.681   7.474   3.842 -0.3266  0.6816  0.2557
   46DOPE   C32 5838   5.860   7.354   3.948 -0.0631  0.8553  0.4464
   46DOPE   H2X 5839   5.930   7.284   3.898  0.5388  1.6624  0.1421
   46DOPE   H2Y 5840   5.913   7.452   3.958  2.0664 -0.2265  0.2439
   46DOPE   C23 5841   5.797   6.750   3.727  0.2637 -0.0062 -0.0053
   46DOPE   H3R 5842   5.867   6.832   3.754 -0.1395  0.8397 -1.4475
   46DOPE   H3S 5843   5.829   6.708   3.629 -1.6333 -2.1167  0.1917
   46DOPE   C24 5844   5.786   6.644   3.839 -0.2375  0.2639  0.4527
   46DOPE   H4R 5845   5.685   6.599   3.833 -0.5475  1.1349 -2.5871
   46DOPE   H4S 5846   5.802   6.689   3.940 -1.6900 -0.9768  1.2712
   46DOPE   C25 5847   5.882   6.528   3.803  1.0163  0.4253  0.3293
   46DOPE   H5R 5848   5.985   6.555   3.773  1.3680 -0.4532  0.7107
   46DOPE   H5S 5849   5.831   6.477   3.718  0.9662  0.5840  0.2639
   46DOPE   C26 5850   5.895   6.425   3.909  0.2076  0.3482 -0.2985
   46DOPE   H6R 5851   5.938   6.458   4.006  0.7382 -3.2096  0.8521
   46DOPE   H6S 5852   5.966   6.346   3.878  0.2437 -0.5477  1.8302
   46DOPE   C27 5853   5.756   6.353   3.938  0.4397  0.7726 -0.5224
   46DOPE   H7R 5854   5.727   6.301   3.844 -1.5340  0.9455 -0.0437
   46DOPE   H7S 5855   5.679   6.431   3.952 -0.9871 -0.6039 -0.5004
   46DOPE   C28 5856   5.762   6.244   4.050  0.0428 -0.1376  0.2667
   46DOPE   H8R 5857   5.794   6.299   4.141 -0.8459 -0.3808  0.7402
   46DOPE   H8S 5858   5.846   6.182   4.014  1.8559  2.2899  0.0643
   46DOPE   C29 5859   5.633   6.171   4.087  0.3444 -0.2914 -0.6763
   46DOPE   H9R 5860   5.559   6.161   4.006 -0.9303 -1.4257  0.5599
   46DOPE  C210 5861   5.608   6.123   4.216  0.7090  0.5735  0.5304
   46DOPE  H10R 5862   5.510   6.079   4.242  0.2771  1.0021 -0.3201
   46DOPE  C211 5863   5.699   6.144   4.336 -1.1611  0.8926  0.1176
   46DOPE  H11R 5864   5.785   6.213   4.323 -0.8297  0.8675  1.8891
   46DOPE  H11S 5865   5.735   6.043   4.367  0.8113  1.6069  0.2955
   46DOPE  C212 5866   5.626   6.195   4.459 -0.1412 -0.0522  0.0693
   46DOPE  H12R 5867   5.580   6.293   4.436 -1.4043 -0.9853 -1.6905
   46DOPE  H12S 5868   5.706   6.226   4.528 -1.2046  1.2882  0.7464
   46DOPE  C213 5869   5.538   6.093   4.531 -0.1586 -0.0645  0.3139
   46DOPE  H13R 5870   5.602   6.003   4.543  0.6947  0.3886 -0.6490
   46DOPE  H13S 5871   5.444   6.079   4.475 -0.4139  1.9730  0.1449
   46DOPE  C214 5872   5.497   6.143   4.665  0.6300 -0.1248  0.0341
   46DOPE  H14R 5873   5.413   6.212   4.643  1.9490  2.1476  1.8101
   46DOPE  H14S 5874   5.577   6.209   4.703 -0.2394  0.7529  0.3997
   46DOPE  C215 5875   5.449   6.035   4.767 -0.3723 -0.9777 -0.1144
   46DOPE  H15R 5876   5.387   5.963   4.709  0.0248 -0.6158 -1.0139
   46DOPE  H15S 5877   5.390   6.082   4.848  2.0433 -0.2521  1.3255
   46DOPE  C216 5878   5.564   5.969   4.843 -0.1794 -0.6289 -0.0621
   46DOPE  H16R 5879   5.636   6.048   4.873  0.2336 -0.9335 -0.2522
   46DOPE  H16S 5880   5.616   5.898   4.776 -0.5789  1.9927 -3.4312
   46DOPE  C217 5881   5.513   5.900   4.970  0.4721  0.9819 -0.2076
   46DOPE  H17R 5882   5.452   5.809   4.950  1.9669 -0.4890  1.6430
   46DOPE  H17S 5883   5.436   5.969   5.011 -0.5038  0.4090 -1.0319
   46DOPE  C218 5884   5.622   5.868   5.071 -0.2170  0.4648 -0.1212
   46DOPE  H18R 5885   5.682   5.786   5.028  1.3971  1.7268 -0.3938
   46DOPE  H18S 5886   5.582   5.853   5.173  1.9917 -1.3948  0.5589
   46DOPE  H18T 5887   5.687   5.958   5.080  0.1191  0.0276  2.4365
   46DOPE   C33 5888   5.817   7.291   4.086 -0.2143 -0.2499  0.3141
   46DOPE   H3X 5889   5.905   7.274   4.153  0.8723  2.2455 -0.3782
   46DOPE   H3Y 5890   5.780   7.189   4.062  0.0323 -1.1119  3.1981
   46DOPE   C34 5891   5.707   7.364   4.169 -0.7659  0.6860  0.5817
   46DOPE   H4X 5892   5.623   7.392   4.102 -0.8270 -0.1621  0.2957
   46DOPE   H4Y 5893   5.674   7.285   4.240  1.2437  1.4624  2.4830
   46DOPE   C35 5894   5.759   7.475   4.260 -0.2801  0.1711 -0.4981
   46DOPE   H5X 5895   5.810   7.556   4.202  0.9475  0.8080  1.3809
   46DOPE   H5Y 5896   5.843   7.428   4.314  0.1980 -0.0805 -1.4429
   46DOPE   C36 5897   5.653   7.539   4.351 -0.9721  0.0263  0.2231
   46DOPE   H6X 5898   5.604   7.464   4.417 -2.9912  0.9896 -0.0925
   46DOPE   H6Y 5899   5.578   7.571   4.275  0.1207  0.8599 -0.5249
   46DOPE   C37 5900   5.700   7.663   4.429 -0.0123 -0.2098 -0.3353
   46DOPE   H7X 5901   5.736   7.738   4.355  0.2898  0.6981  0.7134
   46DOPE   H7Y 5902   5.624   7.720   4.486  2.6320  1.6344  1.5732
   46DOPE   C38 5903   5.821   7.633   4.520  0.7343  0.4113  0.1968
   46DOPE   H8X 5904   5.892   7.573   4.460 -0.5124 -0.4903 -0.4323
   46DOPE   H8Y 5905   5.790   7.578   4.612  1.5330  1.7321  1.3060
   46DOPE   C39 5906   5.878   7.767   4.560  0.1953  0.5164  0.3768
   46DOPE   H9X 5907   5.966   7.802   4.505  0.4497  0.0896  0.5101
   46DOPE  C310 5908   5.821   7.852   4.647 -0.3395  0.5628  0.5761
   46DOPE  H10X 5909   5.872   7.949   4.650  0.1456  0.3167  0.4785
   46DOPE  C311 5910   5.709   7.816   4.745 -0.5094 -0.1400 -0.0385
   46DOPE  H11X 5911   5.608   7.834   4.704 -1.1189 -2.2594  0.3986
   46DOPE  H11Y 5912   5.710   7.707   4.767 -3.7895 -1.1851 -3.9460
   46DOPE  C312 5913   5.734   7.900   4.866 -0.2752 -0.2985 -0.0849
   46DOPE  H12X 5914   5.640   7.877   4.920 -0.7808 -1.7702 -1.4915
   46DOPE  H12Y 5915   5.741   8.009   4.845 -0.3238 -0.2534  0.1376
   46DOPE  C313 5916   5.862   7.849   4.943 -0.7601 -0.1253  0.6579
   46DOPE  H13X 5917   5.862   7.738   4.951  0.7137 -0.4055 -1.9694
   46DOPE  H13Y 5918   5.955   7.871   4.887 -0.3524 -0.8097  1.0547
   46DOPE  C314 5919   5.882   7.915   5.081 -0.2851 -0.1534  0.2885
   46DOPE  H14X 5920   5.816   7.870   5.157 -0.3951  1.0058  0.8934
   46DOPE  H14Y 5921   5.849   8.021   5.070  0.7963  0.0318 -1.8151
   46DOPE  C315 5922   6.019   7.899   5.140 -0.3931  0.0577  0.2296
   46DOPE  H15X 5923   6.101   7.935   5.074 -1.5705  1.0875 -0.7349
   46DOPE  H15Y 5924   6.046   7.793   5.156  1.0207  0.4362  0.5429
   46DOPE  C316 5925   6.037   7.978   5.275  1.1800  0.4109 -0.0113
   46DOPE  H16X 5926   5.986   8.076   5.271  2.3760  1.0929  0.8652
   46DOPE  H16Y 5927   6.146   7.987   5.294  0.7980  1.2728  1.9512
   46DOPE  C317 5928   5.984   7.887   5.387 -0.1360 -0.3693  0.1685
   46DOPE  H17X 5929   5.873   7.882   5.388 -0.1054 -1.5167  1.4454
   46DOPE  H17Y 5930   6.026   7.788   5.359  1.1817  0.1068  0.4134
   46DOPE  C318 5931   6.031   7.931   5.529  0.0180  0.4868  0.4440
   46DOPE  H18X 5932   5.975   8.025   5.549  0.3011  1.2450 -2.0298
   46DOPE  H18Y 5933   5.999   7.847   5.595  3.5408  0.7594  2.7543
   46DOPE  H18Z 5934   6.142   7.931   5.539  0.1338  0.4388 -0.7557
   47DOPE     N 5935   2.987   5.442   2.670  0.6937 -0.1653  0.5487
   47DOPE   HN1 5936   2.972   5.464   2.570 -0.6649  0.7614  0.9287
   47DOPE   HN2 5937   2.891   5.448   2.711 -0.5680  1.1308 -2.3371
   47DOPE   HN3 5938   3.050   5.518   2.704  2.2540 -1.0054 -0.3364
   47DOPE   C12 5939   3.037   5.302   2.674  0.2648  0.3054 -0.2960
   47DOPE  H12A 5940   3.067   5.279   2.779  1.6545  0.0206 -0.7229
   47DOPE  H12B 5941   3.132   5.294   2.617  1.9722 -1.3030  2.5425
   47DOPE   C11 5942   2.922   5.203   2.641  0.3735 -1.1525 -0.4130
   47DOPE  H11A 5943   2.964   5.104   2.668  2.2382 -1.1528 -2.9528
   47DOPE  H11B 5944   2.914   5.192   2.531  0.0435 -0.0535 -0.5142
   47DOPE     P 5945   2.690   5.134   2.736  0.1002  0.8266 -0.5933
   47DOPE   O13 5946   2.677   5.023   2.640  0.1287  0.2138  0.0261
   47DOPE   O14 5947   2.566   5.207   2.783 -0.2555  0.1143 -0.3337
   47DOPE   O11 5948   2.761   5.075   2.868 -0.2606  0.7868  0.1923
   47DOPE   O12 5949   2.791   5.242   2.689 -0.6866 -0.6466  0.4678
   47DOPE    C1 5950   2.829   5.165   2.961  0.4582  0.0171 -0.0521
   47DOPE    HA 5951   2.771   5.260   2.962  0.6862  0.2634 -2.6021
   47DOPE    HB 5952   2.932   5.186   2.927  0.3656  2.4398  0.9171
   47DOPE    C2 5953   2.855   5.103   3.093  0.2203 -0.0868  0.3041
   47DOPE    HS 5954   2.897   5.006   3.057 -0.6314  0.3093 -1.8997
   47DOPE   O21 5955   2.730   5.088   3.167  0.5117 -0.4125 -0.1036
   47DOPE   C21 5956   2.751   5.021   3.283  0.0030  0.4032  0.6699
   47DOPE   O22 5957   2.861   4.972   3.317  0.4246  0.6343  0.2740
   47DOPE   C22 5958   2.618   5.007   3.359 -0.1892 -0.3466 -0.4363
   47DOPE   H2R 5959   2.549   4.931   3.318 -0.1635 -1.7296  1.9148
   47DOPE   H2S 5960   2.568   5.106   3.355  0.1098 -0.2125 -1.1154
   47DOPE    C3 5961   2.965   5.183   3.166 -0.6482  0.0711  0.5667
   47DOPE    HX 5962   3.043   5.215   3.094  0.9264  0.8723  2.5033
   47DOPE    HY 5963   3.016   5.101   3.221 -0.3626  0.5913  1.0899
   47DOPE   O31 5964   2.911   5.299   3.242  0.2594 -0.2701  1.0711
   47DOPE   C31 5965   2.902   5.411   3.178  0.0376 -1.1806  0.1273
   47DOPE   O32 5966   2.937   5.432   3.064 -0.4023 -0.0461  0.2155
   47DOPE   C32 5967   2.816   5.512   3.255 -0.0344  0.5853  0.5760
   47DOPE   H2X 5968   2.849   5.506   3.361  1.0219 -0.2389  0.2188
   47DOPE   H2Y 5969   2.845   5.612   3.216 -0.7168  0.5817  0.0381
   47DOPE   C23 5970   2.628   4.958   3.500 -0.1186 -0.0187  0.8462
   47DOPE   H3R 5971   2.677   4.859   3.494 -2.4752 -1.1656 -1.3156
   47DOPE   H3S 5972   2.530   4.926   3.541 -0.6357  1.3349  0.7367
   47DOPE   C24 5973   2.702   5.052   3.604  0.6913  0.0092 -0.5783
   47DOPE   H4R 5974   2.808   5.045   3.574  0.6184 -1.3468 -0.5760
   47DOPE   H4S 5975   2.692   5.002   3.703  3.0934 -1.0107 -0.7805
   47DOPE   C25 5976   2.651   5.195   3.619  0.2918  0.1740 -0.0143
   47DOPE   H5R 5977   2.677   5.262   3.534  0.2160  1.4594  0.9307
   47DOPE   H5S 5978   2.711   5.250   3.694  1.7280  0.8596 -1.5978
   47DOPE   C26 5979   2.498   5.202   3.636  0.7775  0.4449 -0.3128
   47DOPE   H6R 5980   2.444   5.142   3.560  0.0168  0.7851 -0.0450
   47DOPE   H6S 5981   2.470   5.309   3.628  0.4647  0.3673 -0.2597
   47DOPE   C27 5982   2.453   5.146   3.775  0.3434 -0.6186  0.1863
   47DOPE   H7R 5983   2.501   5.198   3.860 -0.1035 -2.1124  1.4072
   47DOPE   H7S 5984   2.471   5.036   3.780  0.7678 -0.6334 -1.2567
   47DOPE   C28 5985   2.305   5.158   3.801  0.0330 -0.0312 -0.2483
   47DOPE   H8R 5986   2.291   5.264   3.772 -2.6489 -0.3252 -0.2858
   47DOPE   H8S 5987   2.291   5.155   3.911  0.3173  0.1997 -0.2028
   47DOPE   C29 5988   2.209   5.063   3.743 -0.6038  0.3456  0.2071
   47DOPE   H9R 5989   2.199   4.972   3.804  1.2465 -0.1137 -0.1008
   47DOPE  C210 5990   2.119   5.086   3.650  0.7424 -0.3384 -0.1714
   47DOPE  H10R 5991   2.043   5.010   3.625 -0.6593  0.9886 -0.1160
   47DOPE  C211 5992   2.098   5.213   3.571  0.5690  0.2187  0.4618
   47DOPE  H11R 5993   2.075   5.183   3.467 -1.5151 -2.3518  1.5232
   47DOPE  H11S 5994   2.188   5.277   3.565 -0.3026  1.7567  2.5043
   47DOPE  C212 5995   1.986   5.312   3.623  0.6481  0.3979  0.2936
   47DOPE  H12R 5996   1.896   5.247   3.633  1.2335 -0.3877  0.5483
   47DOPE  H12S 5997   1.967   5.367   3.528 -1.0346 -0.4784  0.0806
   47DOPE  C213 5998   2.024   5.402   3.746 -0.1142  0.5607 -0.6054
   47DOPE  H13R 5999   1.979   5.502   3.730 -1.5015 -0.2518 -2.0476
   47DOPE  H13S 6000   2.133   5.423   3.742 -0.1574  0.6429 -1.5943
   47DOPE  C214 6001   1.978   5.347   3.877  0.0387  0.0687 -0.0163
   47DOPE  H14R 6002   1.992   5.420   3.960  0.5717  0.0386 -0.0797
   47DOPE  H14S 6003   2.044   5.263   3.904 -0.3659 -1.1057 -2.3940
   47DOPE  C215 6004   1.824   5.319   3.891 -0.2310  0.0793  0.2621
   47DOPE  H15R 6005   1.806   5.229   3.828  0.2683 -0.3149  0.6700
   47DOPE  H15S 6006   1.766   5.406   3.852  0.5428  0.6652  0.3940
   47DOPE  C216 6007   1.781   5.291   4.034 -0.1304  0.1774  0.5196
   47DOPE  H16R 6008   1.804   5.386   4.087 -1.1099  0.0655  1.1847
   47DOPE  H16S 6009   1.840   5.202   4.063  2.1533  1.6670  0.6645
   47DOPE  C217 6010   1.630   5.262   4.042 -0.5980  1.0822 -0.4786
   47DOPE  H17R 6011   1.598   5.217   3.946 -3.1422 -0.6195  1.0505
   47DOPE  H17S 6012   1.580   5.360   4.061 -0.4907  0.8026  1.4046
   47DOPE  C218 6013   1.592   5.150   4.144  0.3757 -0.4958  0.4065
   47DOPE  H18R 6014   1.485   5.130   4.124 -0.7214  2.5825  2.4237
   47DOPE  H18S 6015   1.593   5.185   4.250 -3.3810  1.0476  0.0561
   47DOPE  H18T 6016   1.655   5.058   4.146 -1.3213 -1.7407  2.7996
   47DOPE   C33 6017   2.664   5.490   3.251 -0.3869  0.5396 -0.2710
   47DOPE   H3X 6018   2.652   5.385   3.286  0.2238  0.5305 -0.0709
   47DOPE   H3Y 6019   2.619   5.510   3.151 -1.8222  1.1009  0.4623
   47DOPE   C34 6020   2.596   5.568   3.360 -0.2014  0.2496  0.6309
   47DOPE   H4X 6021   2.630   5.531   3.459 -1.3825  0.9543  1.3184
   47DOPE   H4Y 6022   2.623   5.676   3.350 -0.9064  0.2769 -1.7425
   47DOPE   C35 6023   2.450   5.538   3.345 -0.5392 -0.1703 -0.2908
   47DOPE   H5X 6024   2.436   5.428   3.337 -1.9534 -0.0575  0.2394
   47DOPE   H5Y 6025   2.404   5.583   3.254 -0.7954  0.6294  0.2163
   47DOPE   C36 6026   2.367   5.585   3.463  0.0060  0.8335 -0.2828
   47DOPE   H6X 6027   2.402   5.547   3.561  0.6062 -0.4843 -0.9781
   47DOPE   H6Y 6028   2.268   5.536   3.453 -0.0417  0.4743  1.5273
   47DOPE   C37 6029   2.363   5.734   3.480 -0.2920 -0.1139 -0.4816
   47DOPE   H7X 6030   2.461   5.784   3.464 -0.3723 -0.0437 -0.7479
   47DOPE   H7Y 6031   2.315   5.780   3.391  1.5089  1.7284 -0.5946
   47DOPE   C38 6032   2.316   5.788   3.614  1.1386  0.5558  0.0470
   47DOPE   H8X 6033   2.329   5.898   3.618  2.1563  0.5663 -1.9781
   47DOPE   H8Y 6034   2.391   5.756   3.689 -0.6004 -2.8352  0.5212
   47DOPE   C39 6035   2.173   5.754   3.650 -0.5708 -1.0700  0.6114
   47DOPE   H9X 6036   2.110   5.698   3.579  0.7091 -0.5036 -1.0388
   47DOPE  C310 6037   2.120   5.760   3.771  0.2379  0.9728 -0.2840
   47DOPE  H10X 6038   2.012   5.741   3.776  0.5424 -0.6584  1.4058
   47DOPE  C311 6039   2.195   5.826   3.892  0.1148  0.0028  0.2384
   47DOPE  H11X 6040   2.304   5.805   3.884  0.0188 -0.2747 -0.3969
   47DOPE  H11Y 6041   2.180   5.936   3.891  1.0428  0.1461  0.7531
   47DOPE  C312 6042   2.153   5.759   4.031 -0.5252 -0.5698  0.6224
   47DOPE  H12X 6043   2.186   5.653   4.035  0.1680 -0.5221 -2.0485
   47DOPE  H12Y 6044   2.042   5.755   4.039 -0.5148 -0.2762  0.9975
   47DOPE  C313 6045   2.219   5.842   4.142  0.4655  0.1803  0.2085
   47DOPE  H13X 6046   2.330   5.836   4.139  0.5466  1.6977 -0.6487
   47DOPE  H13Y 6047   2.200   5.949   4.119  0.6220  0.2568  0.4287
   47DOPE  C314 6048   2.167   5.798   4.287  0.5021 -0.5176 -0.3324
   47DOPE  H14X 6049   2.173   5.687   4.288 -1.5062 -0.7030 -1.5585
   47DOPE  H14Y 6050   2.058   5.818   4.297  0.8774  1.2167  0.7961
   47DOPE  C315 6051   2.248   5.869   4.404  0.0524  0.2966 -0.1038
   47DOPE  H15X 6052   2.282   5.963   4.354 -0.5622  0.5825  0.0125
   47DOPE  H15Y 6053   2.342   5.813   4.424 -0.2659  0.0454  0.7008
   47DOPE  C316 6054   2.169   5.904   4.532  0.3463 -0.1976 -1.0151
   47DOPE  H16X 6055   2.121   5.815   4.578  1.0627  0.1486  0.4454
   47DOPE  H16Y 6056   2.077   5.962   4.508  0.9726  0.5546 -1.6443
   47DOPE  C317 6057   2.264   5.975   4.629 -0.6575 -0.1025  0.2714
   47DOPE  H17X 6058   2.313   5.897   4.691 -0.4154  0.6854  1.0906
   47DOPE  H17Y 6059   2.336   6.028   4.562  0.9778 -1.7909  0.6018
   47DOPE  C318 6060   2.193   6.074   4.718  0.3554 -0.3575  0.3098
   47DOPE  H18X 6061   2.137   6.034   4.806 -2.9587  0.3667 -1.3362
   47DOPE  H18Y 6062   2.274   6.129   4.771  0.4546 -0.1736 -0.0343
   47DOPE  H18Z 6063   2.125   6.143   4.663  1.6824  0.2452 -0.6068
   48DOPE     N 6064   6.075   2.804   2.745 -0.6941 -0.0492  0.4070
   48DOPE   HN1 6065   6.163   2.804   2.689 -2.6273  1.1416 -2.9529
   48DOPE   HN2 6066   6.088   2.740   2.826  0.6666 -0.1554  0.1255
   48DOPE   HN3 6067   6.010   2.764   2.674 -0.7067 -1.4507  1.1716
   48DOPE   C12 6068   6.042   2.939   2.790 -0.0643 -0.2527  0.2683
   48DOPE  H12A 6069   5.962   2.927   2.867  0.7388 -2.1962  0.8462
   48DOPE  H12B 6070   6.008   2.991   2.698  1.1417 -0.4860 -0.3237
   48DOPE   C11 6071   6.165   3.012   2.849  0.3097  0.3938 -0.2712
   48DOPE  H11A 6072   6.212   2.949   2.928  1.7717 -0.3332 -1.6859
   48DOPE  H11B 6073   6.140   3.103   2.908 -0.6226  0.5733 -0.9140
   48DOPE     P 6074   6.369   2.980   2.689 -0.0756 -0.2039  0.2386
   48DOPE   O13 6075   6.435   3.064   2.587 -0.1059  0.6119 -0.2195
   48DOPE   O14 6076   6.320   2.840   2.654 -0.3663 -0.0461  0.4981
   48DOPE   O11 6077   6.468   2.967   2.816  0.4298 -0.0415 -0.1136
   48DOPE   O12 6078   6.247   3.058   2.748 -0.0800  0.5706 -0.3825
   48DOPE    C1 6079   6.500   3.079   2.891 -0.4554 -0.3146  0.5394
   48DOPE    HA 6080   6.413   3.147   2.889 -0.5477 -0.4451 -0.8905
   48DOPE    HB 6081   6.582   3.127   2.834 -1.0010  0.8443  0.6946
   48DOPE    C2 6082   6.536   3.046   3.036 -0.7526  0.9122 -0.0594
   48DOPE    HS 6083   6.608   2.961   3.033 -1.0957  0.6319 -0.3673
   48DOPE   O21 6084   6.419   2.991   3.098  0.5263 -0.1739 -0.0361
   48DOPE   C21 6085   6.439   2.891   3.191 -0.4490 -0.0127 -0.0310
   48DOPE   O22 6086   6.548   2.837   3.203  1.1048 -0.1779 -0.3769
   48DOPE   C22 6087   6.312   2.869   3.272  0.0250 -0.1841 -1.2095
   48DOPE   H2R 6088   6.233   2.817   3.214 -0.2502 -0.5416 -0.5161
   48DOPE   H2S 6089   6.269   2.966   3.304 -2.7390 -1.3755 -1.0360
   48DOPE    C3 6090   6.608   3.156   3.115 -0.1449  0.0652 -0.2955
   48DOPE    HX 6091   6.547   3.248   3.105 -1.2146 -0.8264 -2.8847
   48DOPE    HY 6092   6.704   3.170   3.060 -0.3168 -1.0997 -0.9389
   48DOPE   O31 6093   6.625   3.137   3.258 -0.2775  0.3842 -0.0412
   48DOPE   C31 6094   6.733   3.064   3.287  0.2796 -0.0568 -0.1932
   48DOPE   O32 6095   6.810   3.024   3.204 -0.9793  0.1569 -0.2537
   48DOPE   C32 6096   6.765   3.051   3.441  0.7765  0.0806  0.4546
   48DOPE   H2X 6097   6.806   3.151   3.466 -0.0459  0.5051  0.1640
   48DOPE   H2Y 6098   6.669   3.033   3.494 -1.9466  0.7927 -3.6886
   48DOPE   C23 6099   6.339   2.778   3.391 -0.0294  0.3935 -0.0862
   48DOPE   H3R 6100   6.401   2.688   3.370 -2.0677 -0.9437 -0.7112
   48DOPE   H3S 6101   6.237   2.753   3.427 -1.4547  1.5367 -2.9909
   48DOPE   C24 6102   6.410   2.851   3.504  0.0813  1.3105  0.7134
   48DOPE   H4R 6103   6.338   2.925   3.546 -2.3603  0.0097 -0.9046
   48DOPE   H4S 6104   6.484   2.918   3.456 -0.6517  0.9988 -0.9146
   48DOPE   C25 6105   6.485   2.764   3.600 -0.2180  0.8878  0.2398
   48DOPE   H5R 6106   6.571   2.719   3.548  1.3527  2.7522  1.0911
   48DOPE   H5S 6107   6.410   2.693   3.642  0.1542 -0.0926 -0.7242
   48DOPE   C26 6108   6.536   2.854   3.715  0.1938  0.5222 -0.2906
   48DOPE   H6R 6109   6.443   2.897   3.758  0.3470  0.0819  0.4912
   48DOPE   H6S 6110   6.612   2.922   3.671 -1.3233  1.0314 -2.2929
   48DOPE   C27 6111   6.620   2.774   3.824  0.0763  0.1644 -0.0399
   48DOPE   H7R 6112   6.710   2.740   3.769  0.6728  2.0583 -0.3175
   48DOPE   H7S 6113   6.555   2.691   3.860  0.4200  0.8529  2.3523
   48DOPE   C28 6114   6.673   2.840   3.953 -0.8610 -0.4780 -0.3002
   48DOPE   H8R 6115   6.746   2.921   3.933  2.3628 -2.6712  1.6215
   48DOPE   H8S 6116   6.744   2.775   4.009  0.9950  2.0509  0.4721
   48DOPE   C29 6117   6.568   2.887   4.047 -0.4368 -0.2731  0.0588
   48DOPE   H9R 6118   6.471   2.907   3.999 -0.6748 -0.4914  0.4527
   48DOPE  C210 6119   6.566   2.901   4.181 -0.4010 -0.1645 -0.6024
   48DOPE  H10R 6120   6.484   2.947   4.238  0.9341  0.3527  0.9802
   48DOPE  C211 6121   6.687   2.880   4.266 -0.2029 -0.5856  0.0897
   48DOPE  H11R 6122   6.787   2.884   4.217  0.1168 -1.4420  0.6422
   48DOPE  H11S 6123   6.684   2.779   4.313  1.6046 -0.8359 -0.2738
   48DOPE  C212 6124   6.690   2.981   4.381 -0.0199 -0.3412 -0.0850
   48DOPE  H12R 6125   6.599   2.970   4.443  1.3267  2.1011  2.5475
   48DOPE  H12S 6126   6.691   3.082   4.334  2.2243  0.6540  1.8965
   48DOPE  C213 6127   6.813   2.968   4.469  0.2514  1.0073 -0.1902
   48DOPE  H13R 6128   6.898   2.929   4.408  1.1044  0.1386  1.4899
   48DOPE  H13S 6129   6.782   2.898   4.550 -1.1524  1.4362 -0.3389
   48DOPE  C214 6130   6.838   3.102   4.542  0.2715 -0.2269  0.4714
   48DOPE  H14R 6131   6.746   3.141   4.591  1.9733  1.2564  2.6532
   48DOPE  H14S 6132   6.859   3.168   4.455  1.0584  1.6110  2.0078
   48DOPE  C215 6133   6.965   3.084   4.633 -0.1743  0.0054  0.3334
   48DOPE  H15R 6134   6.985   3.182   4.682  0.0343  0.3124 -0.3553
   48DOPE  H15S 6135   7.052   3.057   4.568 -0.0338 -1.2019  1.0037
   48DOPE  C216 6136   6.950   2.984   4.739 -0.0714  0.2444 -0.7027
   48DOPE  H16R 6137   6.935   2.877   4.709 -0.3724 -1.2696  4.0110
   48DOPE  H16S 6138   6.860   3.008   4.801 -1.1758 -2.9887 -0.8398
   48DOPE  C217 6139   7.069   2.998   4.837  0.8384 -0.1016 -0.0516
   48DOPE  H17R 6140   7.082   3.101   4.875 -0.0551  1.1455 -2.8808
   48DOPE  H17S 6141   7.156   2.971   4.774  0.9245  0.4023 -0.1537
   48DOPE  C218 6142   7.053   2.901   4.955  0.7055  0.3451  0.2366
   48DOPE  H18R 6143   7.093   2.799   4.936  1.7542  0.7434  0.2544
   48DOPE  H18S 6144   6.946   2.891   4.985  1.0468 -1.6899  0.9338
   48DOPE  H18T 6145   7.097   2.938   5.050 -0.6108  1.4068  0.4596
   48DOPE   C33 6146   6.861   2.938   3.471 -0.0488  0.2089  0.0222
   48DOPE   H3X 6147   6.951   2.951   3.406 -1.3826  0.7896 -1.7820
   48DOPE   H3Y 6148   6.826   2.834   3.453 -1.0698  0.7247 -1.1075
   48DOPE   C34 6149   6.920   2.948   3.616 -0.2419 -0.2581  0.8751
   48DOPE   H4X 6150   6.967   3.048   3.614 -0.4621 -0.1500  1.0321
   48DOPE   H4Y 6151   6.836   2.952   3.688  1.4431  0.5679  2.9156
   48DOPE   C35 6152   7.019   2.833   3.641  1.1262 -0.1079 -0.0854
   48DOPE   H5X 6153   7.091   2.830   3.557  1.2321  0.2736 -0.0120
   48DOPE   H5Y 6154   6.960   2.740   3.655 -0.0854  0.3144 -2.0172
   48DOPE   C36 6155   7.098   2.863   3.771  1.3510 -0.2516 -0.2052
   48DOPE   H6X 6156   7.145   2.963   3.773 -2.2284  1.6064  1.3600
   48DOPE   H6Y 6157   7.172   2.782   3.788  1.1911 -0.0113  1.9131
   48DOPE   C37 6158   7.024   2.864   3.906  0.7735  0.1073 -0.0722
   48DOPE   H7X 6159   6.942   2.940   3.908  0.8814  0.2106  1.7001
   48DOPE   H7Y 6160   6.965   2.770   3.918 -0.6327  0.8775 -0.6137
   48DOPE   C38 6161   7.099   2.923   4.037 -0.3576  0.3470 -0.7137
   48DOPE   H8X 6162   7.020   2.952   4.110 -1.4628 -1.6166 -1.0669
   48DOPE   H8Y 6163   7.142   3.022   4.008 -0.5152  0.7625  0.4349
   48DOPE   C39 6164   7.209   2.833   4.091  0.6623  0.1620 -0.5673
   48DOPE   H9X 6165   7.245   2.758   4.020 -0.9837 -1.1832 -0.0373
   48DOPE  C310 6166   7.257   2.836   4.220  0.2838  0.7194  0.1327
   48DOPE  H10X 6167   7.347   2.779   4.248 -0.2198 -0.4152 -0.5024
   48DOPE  C311 6168   7.223   2.941   4.323  0.2543  0.0132 -0.8530
   48DOPE  H11X 6169   7.193   3.029   4.262  0.5560 -0.5739 -1.8703
   48DOPE  H11Y 6170   7.132   2.916   4.382  2.7656 -3.1634  2.0651
   48DOPE  C312 6171   7.332   2.983   4.429 -0.4174 -0.1031 -0.1919
   48DOPE  H12X 6172   7.375   2.895   4.482 -1.8781 -1.0174 -0.4410
   48DOPE  H12Y 6173   7.273   3.048   4.496 -0.9038  0.6744 -1.3421
   48DOPE  C313 6174   7.451   3.054   4.364  0.3920 -0.6536 -0.0144
   48DOPE  H13X 6175   7.522   2.995   4.303  1.4768 -0.2353  0.8061
   48DOPE  H13Y 6176   7.403   3.131   4.299 -0.3364 -2.0149 -1.1339
   48DOPE  C314 6177   7.529   3.141   4.474 -0.1956 -0.2962  0.2341
   48DOPE  H14X 6178   7.635   3.150   4.443  0.2625 -0.0143  1.7978
   48DOPE  H14Y 6179   7.533   3.082   4.568 -0.0312  0.7452  0.8879
   48DOPE  C315 6180   7.469   3.282   4.496  0.1336  0.1629  0.1984
   48DOPE  H15X 6181   7.360   3.271   4.519 -0.1505 -1.8874 -1.8183
   48DOPE  H15Y 6182   7.487   3.326   4.396  0.9900  0.2707  0.3971
   48DOPE  C316 6183   7.538   3.369   4.611 -0.8659 -0.9347  0.0186
   48DOPE  H16X 6184   7.648   3.371   4.597 -0.8324  0.2983  0.2782
   48DOPE  H16Y 6185   7.520   3.340   4.716 -0.0311 -0.6719  0.2431
   48DOPE  C317 6186   7.499   3.522   4.593 -0.3751  0.7842  0.4704
   48DOPE  H17X 6187   7.514   3.543   4.485 -0.3554 -0.8714  0.1275
   48DOPE  H17Y 6188   7.392   3.530   4.620 -0.4984  1.6653 -0.2236
   48DOPE  C318 6189   7.572   3.614   4.687  0.4652  0.1117 -0.0079
   48DOPE  H18X 6190   7.586   3.567   4.787  1.1948  0.4413  0.0561
   48DOPE  H18Y 6191   7.675   3.639   4.652  0.1862 -0.2898 -1.1414
   48DOPE  H18Z 6192   7.517   3.709   4.701  1.2979  0.9469 -2.0117
   49DOPE     N 6193   4.158   6.698   3.047  0.0741 -0.4707  0.2016
   49DOPE   HN1 6194   4.074   6.755   3.023 -2.0938 -3.5696 -0.2164
   49DOPE   HN2 6195   4.243   6.758   3.046  0.5082 -0.9580  2.5783
   49DOPE   HN3 6196   4.167   6.645   2.958  1.3288  1.6835 -1.0438
   49DOPE   C12 6197   4.152   6.592   3.160 -0.0001  0.8725 -0.2303
   49DOPE  H12A 6198   4.188   6.648   3.249 -0.7905  0.4028  0.3952
   49DOPE  H12B 6199   4.231   6.519   3.134  0.0751  0.7292  0.3879
   49DOPE   C11 6200   4.017   6.532   3.179 -0.0915 -0.3330  0.4888
   49DOPE  H11A 6201   3.936   6.608   3.175 -0.5685 -0.8566 -0.0151
   49DOPE  H11B 6202   4.002   6.482   3.277  1.6224  1.4281  1.7127
   49DOPE     P 6203   4.037   6.292   3.067 -0.2241  0.2412  0.0863
   49DOPE   O13 6204   4.140   6.262   2.963  0.6956 -0.0090  0.4018
   49DOPE   O14 6205   3.914   6.206   3.070 -0.2442 -0.2692 -0.4155
   49DOPE   O11 6206   4.114   6.280   3.199  0.1395  0.0475 -0.1232
   49DOPE   O12 6207   3.991   6.442   3.073  0.5268  0.4417 -0.9616
   49DOPE    C1 6208   4.136   6.165   3.284  0.0379 -0.0846  0.8825
   49DOPE    HA 6209   4.224   6.180   3.349  2.1919 -2.1020 -1.3385
   49DOPE    HB 6210   4.162   6.075   3.223 -2.2097 -2.3922  3.0897
   49DOPE    C2 6211   4.009   6.111   3.349  0.4994 -0.0996 -0.2265
   49DOPE    HS 6212   3.935   6.087   3.270  0.8991 -0.4167 -0.5106
   49DOPE   O21 6213   3.960   6.213   3.437  0.3952  0.0170 -0.4201
   49DOPE   C21 6214   3.833   6.247   3.423  0.1919 -1.1770 -0.4671
   49DOPE   O22 6215   3.758   6.226   3.334 -0.1191  0.1192  0.0790
   49DOPE   C22 6216   3.793   6.335   3.543  0.4801 -0.1166 -0.0656
   49DOPE   H2R 6217   3.738   6.422   3.500  2.2200  1.9213  1.6157
   49DOPE   H2S 6218   3.886   6.385   3.577  0.2950 -1.0305  1.9291
   49DOPE    C3 6219   4.042   5.986   3.432  0.9386 -0.2211 -0.5988
   49DOPE    HX 6220   4.113   6.009   3.514 -0.9011 -0.2921  1.1078
   49DOPE    HY 6221   4.075   5.903   3.365 -1.1576 -1.0805 -0.6386
   49DOPE   O31 6222   3.922   5.950   3.507 -0.8215  0.2365 -0.5036
   49DOPE   C31 6223   3.925   5.836   3.571 -0.4239  0.1981 -0.6212
   49DOPE   O32 6224   4.012   5.748   3.558 -0.1804 -0.0181 -0.4042
   49DOPE   C32 6225   3.796   5.821   3.658  0.3976  0.0409  0.1890
   49DOPE   H2X 6226   3.741   5.917   3.651 -1.7883 -1.2708 -3.2170
   49DOPE   H2Y 6227   3.744   5.742   3.599  0.3014  0.1076  0.1847
   49DOPE   C23 6228   3.700   6.267   3.649 -0.0538 -0.4529 -0.0563
   49DOPE   H3R 6229   3.754   6.182   3.695  1.8054  0.7405  0.0477
   49DOPE   H3S 6230   3.615   6.219   3.595 -1.2884  0.9273  0.5754
   49DOPE   C24 6231   3.650   6.364   3.752  0.8607 -0.1795 -0.2261
   49DOPE   H4R 6232   3.610   6.450   3.694 -0.7370 -0.7673 -0.0660
   49DOPE   H4S 6233   3.733   6.405   3.813 -3.2341  2.8437  3.9748
   49DOPE   C25 6234   3.546   6.302   3.851 -0.2224  0.0695 -0.3752
   49DOPE   H5R 6235   3.586   6.223   3.918 -3.1146  0.3679  1.8966
   49DOPE   H5S 6236   3.472   6.236   3.800 -0.3128  0.0549 -0.2247
   49DOPE   C26 6237   3.464   6.399   3.932  0.0431  0.3371 -0.0127
   49DOPE   H6R 6238   3.394   6.448   3.862 -1.9860 -0.2848  1.4781
   49DOPE   H6S 6239   3.534   6.479   3.965 -0.5326  1.6491 -1.8412
   49DOPE   C27 6240   3.387   6.331   4.047 -0.5865 -0.4243 -0.7749
   49DOPE   H7R 6241   3.450   6.272   4.116 -0.6717 -0.3292 -0.6152
   49DOPE   H7S 6242   3.317   6.260   3.998 -0.2157 -2.2169  1.1398
   49DOPE   C28 6243   3.309   6.444   4.133  0.1079 -0.0033  0.2181
   49DOPE   H8R 6244   3.227   6.478   4.067  0.6732 -0.7303 -0.8934
   49DOPE   H8S 6245   3.370   6.535   4.150 -1.1441  0.6219  1.5497
   49DOPE   C29 6246   3.252   6.397   4.265 -0.8757  0.0886 -0.0451
   49DOPE   H9R 6247   3.162   6.336   4.251 -0.3540 -1.2604  2.0027
   49DOPE  C210 6248   3.311   6.410   4.388  0.2511 -0.0290 -0.1662
   49DOPE  H10R 6249   3.250   6.364   4.466  0.3695  0.6870  0.3644
   49DOPE  C211 6250   3.446   6.479   4.422  0.0666 -0.2858  0.0968
   49DOPE  H11R 6251   3.443   6.589   4.438  0.3509 -0.3486  0.6022
   49DOPE  H11S 6252   3.512   6.461   4.335 -1.0121 -2.1258 -0.3976
   49DOPE  C212 6253   3.522   6.424   4.546  0.0174 -0.2871  0.0434
   49DOPE  H12R 6254   3.630   6.426   4.519  0.2712  1.3866  1.0543
   49DOPE  H12S 6255   3.485   6.321   4.566 -1.4578  0.4228  1.1425
   49DOPE  C213 6256   3.501   6.509   4.668 -0.6668 -0.0888  0.7584
   49DOPE  H13R 6257   3.398   6.512   4.710  0.0791 -1.7765  2.8886
   49DOPE  H13S 6258   3.515   6.614   4.634 -0.8790 -0.3715 -0.2070
   49DOPE  C214 6259   3.588   6.472   4.786  0.3830  0.4626  0.2838
   49DOPE  H14R 6260   3.694   6.503   4.775  0.1587  1.0232 -0.3866
   49DOPE  H14S 6261   3.583   6.362   4.800 -0.6475  0.5929  1.0363
   49DOPE  C215 6262   3.524   6.518   4.917 -0.0067  0.0128 -0.7446
   49DOPE  H15R 6263   3.418   6.484   4.925  0.7741 -2.7427 -0.9520
   49DOPE  H15S 6264   3.525   6.628   4.927 -0.3477 -0.0831  0.7052
   49DOPE  C216 6265   3.605   6.451   5.031  0.0758 -0.2109  0.5412
   49DOPE  H16R 6266   3.707   6.496   5.027  0.2864 -0.1720  3.6753
   49DOPE  H16S 6267   3.600   6.343   5.004  1.7168 -0.1571 -0.1073
   49DOPE  C217 6268   3.555   6.471   5.177  0.4174  0.5325 -0.4213
   49DOPE  H17R 6269   3.448   6.446   5.197  0.6328  0.8472  1.2496
   49DOPE  H17S 6270   3.565   6.580   5.193  1.6807  0.5599 -1.2192
   49DOPE  C218 6271   3.649   6.394   5.278  0.1742 -0.0847  0.0170
   49DOPE  H18R 6272   3.619   6.288   5.268 -3.0932  0.8820 -2.3105
   49DOPE  H18S 6273   3.635   6.433   5.381 -0.1869 -0.5043  0.1293
   49DOPE  H18T 6274   3.754   6.397   5.242 -0.8058  2.8879 -3.1646
   49DOPE   C33 6275   3.848   5.779   3.801 -0.4056 -0.1728  0.4396
   49DOPE   H3X 6276   3.909   5.861   3.846  1.1144 -0.4057 -1.1400
   49DOPE   H3Y 6277   3.901   5.683   3.783 -2.3030 -0.9960 -1.1175
   49DOPE   C34 6278   3.731   5.753   3.892  0.4083 -0.4037 -0.1607
   49DOPE   H4X 6279   3.657   5.695   3.832 -2.9583  0.5448  2.7417
   49DOPE   H4Y 6280   3.772   5.694   3.977 -1.4785 -0.1144  1.0164
   49DOPE   C35 6281   3.654   5.879   3.939  1.0172 -0.3286  0.1412
   49DOPE   H5X 6282   3.633   5.942   3.850  1.6761  1.4324  1.1885
   49DOPE   H5Y 6283   3.706   5.943   4.013  1.7728 -0.0436 -0.6215
   49DOPE   C36 6284   3.519   5.836   4.007 -0.1375  0.0919  0.4827
   49DOPE   H6X 6285   3.532   5.742   4.065  0.9574 -0.1559 -0.1180
   49DOPE   H6Y 6286   3.437   5.831   3.932  0.6102  0.3055 -0.3850
   49DOPE   C37 6287   3.482   5.945   4.109  0.2544 -0.0133 -0.6076
   49DOPE   H7X 6288   3.561   5.964   4.184 -1.2957 -1.5952  1.5758
   49DOPE   H7Y 6289   3.449   6.039   4.060 -2.1647 -0.2337  0.4380
   49DOPE   C38 6290   3.353   5.901   4.191  0.0755 -0.2545 -0.0654
   49DOPE   H8X 6291   3.373   5.815   4.258 -3.1072 -0.8301  0.3403
   49DOPE   H8Y 6292   3.276   5.867   4.118  1.7347 -0.8184 -1.6120
   49DOPE   C39 6293   3.298   6.030   4.262  0.9039  0.2164  0.9960
   49DOPE   H9X 6294   3.267   6.110   4.194  0.5624  0.3446  1.3026
   49DOPE  C310 6295   3.262   6.043   4.386  0.8947 -0.2346  0.3760
   49DOPE  H10X 6296   3.215   6.138   4.416  3.0429  0.6199  1.1598
   49DOPE  C311 6297   3.265   5.930   4.488 -0.2841  0.1193  0.4655
   49DOPE  H11X 6298   3.324   5.842   4.455 -1.8118 -0.3146 -1.2440
   49DOPE  H11Y 6299   3.301   5.958   4.590 -2.5001  0.6274  1.1502
   49DOPE  C312 6300   3.119   5.878   4.499 -0.3604  0.3420  1.0116
   49DOPE  H12X 6301   3.075   5.847   4.402 -1.7314  0.1830  1.6623
   49DOPE  H12Y 6302   3.062   5.967   4.531 -1.1985 -0.0292  0.5906
   49DOPE  C313 6303   3.099   5.757   4.595  0.0301  0.2345  0.3160
   49DOPE  H13X 6304   2.996   5.721   4.574 -0.7666  1.8194  1.2646
   49DOPE  H13Y 6305   3.167   5.671   4.574 -0.2536  0.2469 -0.7189
   49DOPE  C314 6306   3.105   5.789   4.745 -0.3783 -0.4305 -0.0005
   49DOPE  H14X 6307   3.029   5.864   4.775 -0.0364  0.3301 -0.9857
   49DOPE  H14Y 6308   3.200   5.845   4.762 -0.2443 -1.1749  1.9880
   49DOPE  C315 6309   3.107   5.666   4.838 -0.1737  0.5266  0.1451
   49DOPE  H15X 6310   3.115   5.712   4.939 -1.7309  2.9944 -0.7556
   49DOPE  H15Y 6311   3.193   5.602   4.811 -0.2093  1.0176 -1.2123
   49DOPE  C316 6312   2.988   5.576   4.828  0.3644 -0.5611  0.3663
   49DOPE  H16X 6313   3.027   5.476   4.857  0.8356  0.3206  3.0278
   49DOPE  H16Y 6314   2.949   5.565   4.724 -3.7842  0.3853  1.6297
   49DOPE  C317 6315   2.887   5.614   4.932  0.1923 -0.3002  0.6708
   49DOPE  H17X 6316   2.926   5.618   5.036 -2.3819  0.1999  1.6813
   49DOPE  H17Y 6317   2.857   5.720   4.925  1.3695  0.0616  0.8673
   49DOPE  C318 6318   2.764   5.515   4.938 -0.2721 -0.8284  0.1946
   49DOPE  H18X 6319   2.802   5.411   4.952 -1.3139 -1.2429  0.0610
   49DOPE  H18Y 6320   2.694   5.534   5.022 -0.9023  0.7090 -0.6463
   49DOPE  H18Z 6321   2.704   5.513   4.844 -1.6158 -0.5225  1.0238
   50DOPE     N 6322   2.198   3.557   2.590 -0.1439 -0.3992  0.2580
   50DOPE   HN1 6323   2.098   3.576   2.611 -0.8165 -0.9126 -2.1046
   50DOPE   HN2 6324   2.199   3.480   2.520 -1.0097 -0.8994  0.7804
   50DOPE   HN3 6325   2.256   3.524   2.670 -1.7579 -1.2082  1.1342
   50DOPE   C12 6326   2.258   3.683   2.526  0.4662 -0.3889 -0.3281
   50DOPE  H12A 6327   2.191   3.709   2.441  3.0109  0.5717 -2.1627
   50DOPE  H12B 6328   2.357   3.664   2.478  0.2563 -1.9984 -0.1710
   50DOPE   C11 6329   2.266   3.795   2.635  0.3008  0.0311  0.0396
   50DOPE  H11A 6330   2.163   3.797   2.678  1.0636 -1.8183  2.1364
   50DOPE  H11B 6331   2.286   3.890   2.581 -1.6255 -0.2377 -1.2925
   50DOPE     P 6332   2.373   3.843   2.863 -0.2681  0.2513 -0.1027
   50DOPE   O13 6333   2.355   3.989   2.830  0.0877  0.4212  0.5390
   50DOPE   O14 6334   2.492   3.799   2.926 -0.3861  0.0529 -0.3265
   50DOPE   O11 6335   2.241   3.785   2.939  0.3586  0.6887 -0.4696
   50DOPE   O12 6336   2.364   3.756   2.733  0.5961  0.0443  0.4603
   50DOPE    C1 6337   2.234   3.645   2.973 -0.0151 -0.5599 -0.4562
   50DOPE    HA 6338   2.283   3.583   2.894  1.9438 -0.0976  0.3235
   50DOPE    HB 6339   2.127   3.617   2.972 -0.7296  1.9945 -0.8748
   50DOPE    C2 6340   2.285   3.613   3.115  0.6462 -0.6031  0.3911
   50DOPE    HS 6341   2.221   3.527   3.144 -1.5414  1.1644  1.1492
   50DOPE   O21 6342   2.276   3.723   3.211  0.1658 -0.2081  0.0993
   50DOPE   C21 6343   2.150   3.749   3.251 -0.3420 -0.1292 -0.4909
   50DOPE   O22 6344   2.051   3.693   3.209  0.5714 -0.0430 -0.1153
   50DOPE   C22 6345   2.142   3.861   3.355 -0.1930  0.2110  0.0822
   50DOPE   H2R 6346   2.141   3.962   3.308  0.7988  0.7487  1.1327
   50DOPE   H2S 6347   2.235   3.859   3.416  0.5495  1.6172 -0.9311
   50DOPE    C3 6348   2.424   3.544   3.129 -0.1532 -0.1938 -0.5233
   50DOPE    HX 6349   2.507   3.610   3.094  1.1379 -0.7670  1.3373
   50DOPE    HY 6350   2.426   3.454   3.064 -2.0716 -0.1047 -0.7521
   50DOPE   O31 6351   2.441   3.503   3.262 -0.6519  0.7803 -0.1375
   50DOPE   C31 6352   2.499   3.584   3.337 -0.1018 -0.3816 -0.0420
   50DOPE   O32 6353   2.558   3.682   3.294 -0.0776 -0.1815  0.0933
   50DOPE   C32 6354   2.482   3.528   3.475 -0.1080 -0.3422 -0.2159
   50DOPE   H2X 6355   2.548   3.438   3.486 -0.9644 -0.9164  0.3181
   50DOPE   H2Y 6356   2.514   3.604   3.549 -2.8269  0.8236 -0.1383
   50DOPE   C23 6357   2.019   3.847   3.441 -0.4088 -0.2615 -0.0253
   50DOPE   H3R 6358   1.937   3.796   3.386 -0.3555 -0.2343 -0.1316
   50DOPE   H3S 6359   1.977   3.943   3.477  0.9624  0.9738 -1.5491
   50DOPE   C24 6360   2.049   3.755   3.564 -0.1228 -0.4337  0.4317
   50DOPE   H4R 6361   2.124   3.677   3.538  0.9788  1.1086 -1.2461
   50DOPE   H4S 6362   1.954   3.698   3.570 -0.7186 -0.0336 -2.8468
   50DOPE   C25 6363   2.082   3.827   3.693  0.1758 -0.3732 -0.0882
   50DOPE   H5R 6364   2.016   3.916   3.704  0.7196  0.0343 -0.0583
   50DOPE   H5S 6365   2.179   3.878   3.675  0.0429  1.0910  2.8328
   50DOPE   C26 6366   2.081   3.745   3.827  0.0922  0.0064 -0.2843
   50DOPE   H6R 6367   2.148   3.660   3.802  1.4455  1.1202 -0.6016
   50DOPE   H6S 6368   1.984   3.696   3.846 -1.3790  2.9580  0.4827
   50DOPE   C27 6369   2.136   3.820   3.951 -0.2155 -0.4601  0.4846
   50DOPE   H7R 6370   2.051   3.867   4.005 -1.0737 -0.1217 -1.0773
   50DOPE   H7S 6371   2.194   3.907   3.913  2.0181 -2.5062 -1.0756
   50DOPE   C28 6372   2.223   3.734   4.043  0.4073  0.3443 -0.2730
   50DOPE   H8R 6373   2.283   3.800   4.110  0.2930 -0.1733  0.3450
   50DOPE   H8S 6374   2.299   3.677   3.986 -0.8448 -0.3447 -1.2756
   50DOPE   C29 6375   2.148   3.633   4.125  0.0565  0.1056 -0.4186
   50DOPE   H9R 6376   2.093   3.559   4.065  0.7720 -0.1331 -0.7917
   50DOPE  C210 6377   2.121   3.636   4.261 -0.5602  0.3805  0.1999
   50DOPE  H10R 6378   2.070   3.548   4.301 -0.4462 -0.6860 -1.8725
   50DOPE  C211 6379   2.178   3.730   4.366  0.0746 -0.2263  0.2446
   50DOPE  H11R 6380   2.248   3.807   4.327  0.5584 -1.4996 -1.5543
   50DOPE  H11S 6381   2.231   3.674   4.446  0.7172 -1.3854 -0.9507
   50DOPE  C212 6382   2.058   3.802   4.434  0.0974  0.1470 -0.1834
   50DOPE  H12R 6383   1.971   3.739   4.462  0.5729 -0.8359 -0.8672
   50DOPE  H12S 6384   2.027   3.879   4.360  0.3709 -1.1935 -1.7616
   50DOPE  C213 6385   2.103   3.862   4.566 -1.1674 -0.6417  0.1283
   50DOPE  H13R 6386   2.205   3.905   4.554 -1.0899 -0.7642  0.3418
   50DOPE  H13S 6387   2.115   3.789   4.649  2.9931 -0.7321 -0.3264
   50DOPE  C214 6388   2.014   3.977   4.605  0.2459 -0.6065 -0.6002
   50DOPE  H14R 6389   1.908   3.945   4.603 -0.3580  1.1001  1.3021
   50DOPE  H14S 6390   2.029   4.068   4.544 -0.6512  0.4726  0.7277
   50DOPE  C215 6391   2.035   4.025   4.754  0.9084  0.1022 -0.2776
   50DOPE  H15R 6392   2.136   4.056   4.786  2.1537 -3.7233 -0.0560
   50DOPE  H15S 6393   2.010   3.935   4.813  0.8298 -0.0712 -0.5740
   50DOPE  C216 6394   1.934   4.134   4.802  0.3281 -0.8316 -0.2626
   50DOPE  H16R 6395   1.946   4.145   4.912  1.9392 -0.7381 -0.4244
   50DOPE  H16S 6396   1.834   4.093   4.775  0.8555 -1.6164 -1.1253
   50DOPE  C217 6397   1.947   4.277   4.734  0.4008  0.2004  0.2535
   50DOPE  H17R 6398   1.845   4.320   4.743 -0.4639 -1.0239 -2.4445
   50DOPE  H17S 6399   1.966   4.266   4.625  3.0237 -0.7709  0.7226
   50DOPE  C218 6400   2.033   4.388   4.805  0.3726  0.2342 -0.0757
   50DOPE  H18R 6401   1.997   4.405   4.909 -0.4070  3.2210 -0.7369
   50DOPE  H18S 6402   2.029   4.478   4.740 -1.4961 -0.6380 -1.2616
   50DOPE  H18T 6403   2.141   4.367   4.817  0.4342  0.3094 -0.4803
   50DOPE   C33 6404   2.343   3.476   3.508  0.4986 -0.3913  0.5771
   50DOPE   H3X 6405   2.329   3.372   3.473 -2.5231 -0.1890  0.8520
   50DOPE   H3Y 6406   2.265   3.535   3.453 -0.9026 -0.8151  2.0325
   50DOPE   C34 6407   2.312   3.482   3.656  0.3304  0.1267  0.2883
   50DOPE   H4X 6408   2.348   3.578   3.699 -0.3129  1.0997 -1.2623
   50DOPE   H4Y 6409   2.202   3.475   3.670  0.1531  0.9704 -0.5618
   50DOPE   C35 6410   2.370   3.362   3.734  0.4410  0.5844 -0.4146
   50DOPE   H5X 6411   2.480   3.377   3.739  0.5466 -0.6195  2.4916
   50DOPE   H5Y 6412   2.351   3.275   3.668 -1.4482  1.4573 -1.1147
   50DOPE   C36 6413   2.306   3.348   3.874 -0.0625 -0.3092  1.3872
   50DOPE   H6X 6414   2.196   3.343   3.859  0.0366 -2.3146  1.0571
   50DOPE   H6Y 6415   2.326   3.445   3.924 -1.3585 -0.1669  1.6460
   50DOPE   C37 6416   2.352   3.225   3.951  0.5033 -0.0806 -0.9594
   50DOPE   H7X 6417   2.363   3.144   3.876 -2.1014  1.1301 -2.7999
   50DOPE   H7Y 6418   2.454   3.239   3.993  0.2689  0.7135 -0.6511
   50DOPE   C38 6419   2.263   3.170   4.065  0.1787  0.8715  0.3583
   50DOPE   H8X 6420   2.313   3.079   4.104  0.7123  1.5207  1.2343
   50DOPE   H8Y 6421   2.168   3.147   4.011 -0.1659  2.7452  0.1164
   50DOPE   C39 6422   2.242   3.273   4.171 -0.5941 -0.4421 -0.3655
   50DOPE   H9X 6423   2.173   3.351   4.137 -0.2312  0.8611  1.7244
   50DOPE  C310 6424   2.284   3.269   4.296  0.4184 -1.0839  0.8060
   50DOPE  H10X 6425   2.246   3.352   4.357  1.1141 -0.9710  1.0969
   50DOPE  C311 6426   2.345   3.148   4.366  0.2316 -0.1350 -0.6280
   50DOPE  H11X 6427   2.331   3.041   4.338  0.6917 -0.5725  0.7226
   50DOPE  H11Y 6428   2.454   3.157   4.347 -0.0131 -1.3618 -2.9513
   50DOPE  C312 6429   2.328   3.159   4.520  0.2516  0.7627  0.0411
   50DOPE  H12X 6430   2.218   3.162   4.533  0.4526  1.0332  2.0897
   50DOPE  H12Y 6431   2.376   3.248   4.566 -0.7754  0.5102  1.6806
   50DOPE  C313 6432   2.392   3.036   4.598 -0.5362  0.8878  0.1022
   50DOPE  H13X 6433   2.367   2.939   4.551  1.8230  0.2511  0.0507
   50DOPE  H13Y 6434   2.502   3.046   4.595 -0.3987 -0.6203 -0.3777
   50DOPE  C314 6435   2.336   3.035   4.740 -0.1600  0.6165 -0.6790
   50DOPE  H14X 6436   2.229   3.006   4.733  0.3358 -1.2094 -1.3516
   50DOPE  H14Y 6437   2.338   3.135   4.789 -1.2257  0.9089 -1.2125
   50DOPE  C315 6438   2.399   2.935   4.833 -0.3310 -0.1319  0.2926
   50DOPE  H15X 6439   2.504   2.966   4.853  0.1400 -0.0529 -1.9450
   50DOPE  H15Y 6440   2.402   2.834   4.785  1.7863 -0.9692  2.0523
   50DOPE  C316 6441   2.331   2.925   4.965  0.8252 -0.4352 -0.2310
   50DOPE  H16X 6442   2.316   2.818   4.989  3.7041 -0.9575 -0.4805
   50DOPE  H16Y 6443   2.234   2.979   4.959  0.6988 -0.5356  0.6645
   50DOPE  C317 6444   2.418   2.967   5.084 -0.1462 -0.4270 -0.9186
   50DOPE  H17X 6445   2.453   3.065   5.046 -1.7958  0.3829 -0.4190
   50DOPE  H17Y 6446   2.359   2.989   5.176 -0.4596 -0.5257 -1.0929
   50DOPE  C318 6447   2.542   2.893   5.110 -0.4374  0.4188  0.1019
   50DOPE  H18X 6448   2.524   2.783   5.113 -2.0137  0.5666 -1.9459
   50DOPE  H18Y 6449   2.608   2.916   5.023 -0.7092 -0.1416 -0.2560
   50DOPE  H18Z 6450   2.601   2.937   5.194  1.1443  1.0013 -1.2483
   51DOPE     N 6451   5.871   0.518   2.929 -0.5471  0.4577  0.4518
   51DOPE   HN1 6452   5.921   0.482   2.846 -0.8324 -0.6833  0.7602
   51DOPE   HN2 6453   5.783   0.561   2.895  0.9469  1.5368 -2.3992
   51DOPE   HN3 6454   5.937   0.579   2.981  1.2279  0.7592 -1.9740
   51DOPE   C12 6455   5.855   0.388   3.011 -0.9323 -0.1282 -0.2846
   51DOPE  H12A 6456   5.940   0.377   3.082 -0.2782 -0.4523 -1.0968
   51DOPE  H12B 6457   5.874   0.304   2.941  2.3661  1.2005 -1.1994
   51DOPE   C11 6458   5.721   0.384   3.081 -0.1565 -0.7731 -0.3386
   51DOPE  H11A 6459   5.705   0.480   3.134  1.5555 -0.4466 -0.3625
   51DOPE  H11B 6460   5.726   0.305   3.160  0.6371 -0.1564  0.2417
   51DOPE     P 6461   5.509   0.258   2.982 -0.3158 -0.5319  0.0426
   51DOPE   O13 6462   5.579   0.127   2.980 -0.1476 -0.5275 -0.1481
   51DOPE   O14 6463   5.419   0.296   2.874  0.1446 -0.0078  0.2995
   51DOPE   O11 6464   5.441   0.286   3.122  0.4195  0.0171 -0.2472
   51DOPE   O12 6465   5.626   0.370   2.982  0.3198  0.0746  0.2256
   51DOPE    C1 6466   5.395   0.418   3.166 -0.4435 -0.5981 -0.3986
   51DOPE    HA 6467   5.350   0.473   3.081 -0.2266  0.1001 -0.0628
   51DOPE    HB 6468   5.483   0.479   3.195 -1.3794  0.8171 -0.4467
   51DOPE    C2 6469   5.305   0.420   3.291  0.5583 -0.4714  0.1238
   51DOPE    HS 6470   5.289   0.521   3.335  0.5644 -1.1284  1.7291
   51DOPE   O21 6471   5.362   0.343   3.396  0.3714  0.0184  0.0277
   51DOPE   C21 6472   5.462   0.406   3.456  0.2545  0.2188 -0.1793
   51DOPE   O22 6473   5.488   0.523   3.434  0.4267 -0.3620 -0.8863
   51DOPE   C22 6474   5.534   0.305   3.542 -0.2474 -0.5060 -0.3523
   51DOPE   H2R 6475   5.565   0.224   3.473  2.7665 -1.5436  1.9746
   51DOPE   H2S 6476   5.468   0.241   3.605 -0.4599  0.7174  0.6979
   51DOPE    C3 6477   5.163   0.363   3.255  0.1372 -0.0581  0.5917
   51DOPE    HX 6478   5.196   0.262   3.223  1.5078  0.6963 -0.5073
   51DOPE    HY 6479   5.136   0.406   3.156 -0.0264 -1.1376  0.1570
   51DOPE   O31 6480   5.059   0.371   3.359  0.4464 -0.1124  0.0774
   51DOPE   C31 6481   4.946   0.307   3.316  0.0807 -0.5683 -0.0060
   51DOPE   O32 6482   4.936   0.258   3.209 -0.3402  0.1110 -0.4513
   51DOPE   C32 6483   4.849   0.316   3.434 -0.4171  0.2105 -0.0573
   51DOPE   H2X 6484   4.842   0.423   3.464  0.5094  0.3976 -0.4614
   51DOPE   H2Y 6485   4.755   0.285   3.384 -0.3689  0.3942 -0.2609
   51DOPE   C23 6486   5.649   0.366   3.620 -0.4328  0.5786 -0.2761
   51DOPE   H3R 6487   5.715   0.427   3.553  0.6694 -1.6897 -1.3812
   51DOPE   H3S 6488   5.710   0.290   3.672 -2.1032 -1.1380 -0.7144
   51DOPE   C24 6489   5.605   0.450   3.744 -0.1582 -0.1261 -0.0561
   51DOPE   H4R 6490   5.523   0.518   3.712  0.6336  0.8531 -0.0544
   51DOPE   H4S 6491   5.685   0.516   3.781  0.0148  0.2543 -1.0736
   51DOPE   C25 6492   5.545   0.369   3.858  0.6120 -1.0854  0.1838
   51DOPE   H5R 6493   5.607   0.279   3.880  0.8048 -0.9100  0.3671
   51DOPE   H5S 6494   5.442   0.337   3.831  0.5095 -1.0824  0.5626
   51DOPE   C26 6495   5.527   0.463   3.986 -0.8644 -0.2417  1.0420
   51DOPE   H6R 6496   5.446   0.531   3.952  0.8664  0.7581 -1.4045
   51DOPE   H6S 6497   5.616   0.525   4.008 -0.1673 -0.5476 -0.6817
   51DOPE   C27 6498   5.476   0.381   4.108 -0.0294 -0.7669  0.0013
   51DOPE   H7R 6499   5.388   0.321   4.077  0.6050 -0.8574 -1.7143
   51DOPE   H7S 6500   5.449   0.452   4.189 -1.4598  1.3569 -2.2030
   51DOPE   C28 6501   5.583   0.295   4.167 -0.2088 -0.6030  0.3213
   51DOPE   H8R 6502   5.621   0.215   4.100 -1.0217 -0.8230  0.1149
   51DOPE   H8S 6503   5.541   0.234   4.250 -0.7472 -1.6450 -0.7041
   51DOPE   C29 6504   5.705   0.373   4.223 -0.0303 -0.9658 -0.3162
   51DOPE   H9R 6505   5.786   0.385   4.150  0.4172 -1.2590  0.1275
   51DOPE  C210 6506   5.717   0.434   4.345  0.0621  0.1836 -1.1599
   51DOPE  H10R 6507   5.815   0.481   4.363 -0.1127  0.1305  0.0234
   51DOPE  C211 6508   5.623   0.423   4.466 -0.2723 -0.3857  0.0615
   51DOPE  H11R 6509   5.674   0.376   4.552 -0.2242  1.1705  0.9075
   51DOPE  H11S 6510   5.533   0.365   4.436  0.8060 -1.1712 -1.8908
   51DOPE  C212 6511   5.577   0.561   4.519  0.0936  0.4543  0.2323
   51DOPE  H12R 6512   5.492   0.552   4.590  0.1672 -0.3842  0.2262
   51DOPE  H12S 6513   5.537   0.627   4.440 -0.6445  1.2469  1.2323
   51DOPE  C213 6514   5.687   0.646   4.593  0.5415 -0.2746  0.3115
   51DOPE  H13R 6515   5.643   0.747   4.602  0.5940 -0.1218 -0.9628
   51DOPE  H13S 6516   5.766   0.663   4.517 -0.3553 -0.9329 -0.8059
   51DOPE  C214 6517   5.734   0.587   4.728 -0.3303  0.4267 -0.3120
   51DOPE  H14R 6518   5.782   0.487   4.727  1.6626  1.3308 -0.2253
   51DOPE  H14S 6519   5.645   0.569   4.792  0.9929 -2.3316  0.9025
   51DOPE  C215 6520   5.841   0.672   4.805 -0.2172 -0.0505 -0.6410
   51DOPE  H15R 6521   5.802   0.776   4.805 -0.9494 -0.3183 -0.2495
   51DOPE  H15S 6522   5.935   0.684   4.747  0.3012  1.5036  0.4852
   51DOPE  C216 6523   5.863   0.621   4.945  0.1707 -0.1208  0.5611
   51DOPE  H16R 6524   5.884   0.512   4.949 -2.2559 -0.8994 -3.1950
   51DOPE  H16S 6525   5.759   0.631   4.982  0.0303  1.5420 -0.2387
   51DOPE  C217 6526   5.960   0.703   5.019 -0.3626 -0.6566 -0.3839
   51DOPE  H17R 6527   5.910   0.800   5.041  1.3227  0.0019  0.7754
   51DOPE  H17S 6528   6.054   0.717   4.961  1.4049 -2.4369  1.8405
   51DOPE  C218 6529   6.011   0.644   5.150 -0.1980 -0.1512 -0.2800
   51DOPE  H18R 6530   6.060   0.718   5.216 -0.2494  0.5477 -1.0049
   51DOPE  H18S 6531   6.082   0.562   5.124  1.5649  1.2948 -0.1734
   51DOPE  H18T 6532   5.926   0.599   5.206 -0.3602 -0.9133 -1.1058
   51DOPE   C33 6533   4.877   0.220   3.547 -0.3374 -0.5298  0.3594
   51DOPE   H3X 6534   4.980   0.226   3.588  0.8803  0.2144 -2.5498
   51DOPE   H3Y 6535   4.858   0.123   3.495 -1.4131  1.5383 -3.4848
   51DOPE   C34 6536   4.783   0.225   3.668 -0.6069 -0.9952  0.1116
   51DOPE   H4X 6537   4.816   0.312   3.729 -0.5177 -0.0068 -1.3000
   51DOPE   H4Y 6538   4.678   0.258   3.649 -1.8271 -3.6049  1.7176
   51DOPE   C35 6539   4.780   0.104   3.765 -0.1528 -0.2554  0.5763
   51DOPE   H5X 6540   4.884   0.091   3.803 -0.0522 -0.2526  0.3047
   51DOPE   H5Y 6541   4.760   0.010   3.708 -2.8885  0.5688  0.0354
   51DOPE   C36 6542   4.663   0.108   3.865 -0.4651 -0.3510  0.4318
   51DOPE   H6X 6543   4.570   0.075   3.814 -0.3568 -0.4071  0.2670
   51DOPE   H6Y 6544   4.652   0.213   3.898  0.2247  0.0391 -0.5272
   51DOPE   C37 6545   4.695   0.022   3.989 -0.1014  0.2574  0.7180
   51DOPE   H7X 6546   4.686  -0.083   3.955 -1.9973  0.6267 -0.0132
   51DOPE   H7Y 6547   4.802   0.038   4.014  0.5822 -3.0985  0.4987
   51DOPE   C38 6548   4.598   0.049   4.103  0.2891  0.0117 -0.1283
   51DOPE   H8X 6549   4.494   0.068   4.066  0.0508 -0.3932  0.3163
   51DOPE   H8Y 6550   4.632   0.144   4.148  0.1239  0.3697 -0.7363
   51DOPE   C39 6551   4.593  -0.075   4.195  0.2792 -1.3718 -0.6500
   51DOPE   H9X 6552   4.579  -0.170   4.140  0.6527 -0.8604 -1.6526
   51DOPE  C310 6553   4.638  -0.082   4.323  0.2782  0.6085 -0.8621
   51DOPE  H10X 6554   4.638  -0.179   4.374 -0.2375  0.6661 -0.7459
   51DOPE  C311 6555   4.657   0.045   4.415 -0.7307  0.0546  0.0975
   51DOPE  H11X 6556   4.764   0.076   4.413 -0.0260 -2.2236 -1.8989
   51DOPE  H11Y 6557   4.585   0.127   4.392 -0.5370  0.2677  0.2434
   51DOPE  C312 6558   4.619  -0.001   4.561  0.7112 -0.1808  0.4049
   51DOPE  H12X 6559   4.658  -0.094   4.608  1.4152 -0.9164 -1.5516
   51DOPE  H12Y 6560   4.512  -0.028   4.554  0.4613  0.8868 -0.1730
   51DOPE  C313 6561   4.631   0.106   4.674  0.6612  0.1863 -0.3967
   51DOPE  H13X 6562   4.740   0.121   4.688  0.4602  2.1160 -0.6597
   51DOPE  H13Y 6563   4.584   0.202   4.644  0.0743  0.8697  2.4503
   51DOPE  C314 6564   4.568   0.052   4.809  0.5498  0.4421  0.3626
   51DOPE  H14X 6565   4.618  -0.044   4.837 -1.4796 -0.8557 -0.1945
   51DOPE  H14Y 6566   4.459   0.032   4.805 -0.0277  2.8671  1.9726
   51DOPE  C315 6567   4.587   0.145   4.933 -0.2630 -0.2425 -0.3399
   51DOPE  H15X 6568   4.671   0.213   4.909 -1.0385  0.9138  0.1034
   51DOPE  H15Y 6569   4.634   0.085   5.014  0.3753  1.3775  0.5298
   51DOPE  C316 6570   4.458   0.210   4.986  0.4462 -0.8233 -0.0773
   51DOPE  H16X 6571   4.381   0.134   5.010 -0.1700 -0.2108 -0.0924
   51DOPE  H16Y 6572   4.413   0.284   4.917 -2.7605 -1.9293  0.6502
   51DOPE  C317 6573   4.474   0.290   5.117 -0.6522 -0.4013 -0.1603
   51DOPE  H17X 6574   4.501   0.211   5.191  0.3773 -1.0794 -1.2092
   51DOPE  H17Y 6575   4.555   0.365   5.100 -0.9364  0.2738  1.3242
   51DOPE  C318 6576   4.346   0.351   5.165 -0.5331  0.1176 -0.8493
   51DOPE  H18X 6577   4.323   0.438   5.099 -1.1799  2.1835  1.9310
   51DOPE  H18Y 6578   4.268   0.272   5.163 -2.0340  1.5260 -3.1661
   51DOPE  H18Z 6579   4.356   0.395   5.266 -0.1047 -0.3565 -0.6821
   52DOPE     N 6580   0.178   3.153   2.836  0.2602 -0.0797  0.3146
   52DOPE   HN1 6581   0.124   3.195   2.757 -1.1453 -1.3807  0.5476
   52DOPE   HN2 6582   0.132   3.185   2.924 -0.9208  0.6417 -0.5256
   52DOPE   HN3 6583   0.271   3.198   2.831 -0.8102  2.3584  0.7799
   52DOPE   C12 6584   0.196   3.004   2.821 -0.3111 -0.2373 -0.0146
   52DOPE  H12A 6585   0.254   2.977   2.730  3.5284 -0.1190  2.2166
   52DOPE  H12B 6586   0.094   2.959   2.816  0.4118 -1.8581 -0.7114
   52DOPE   C11 6587   0.294   2.953   2.932  0.9650 -0.9587  0.6577
   52DOPE  H11A 6588   0.271   2.845   2.941 -0.7144 -0.6670  0.1466
   52DOPE  H11B 6589   0.270   3.000   3.030  0.4625 -1.6096  0.8531
   52DOPE     P 6590   0.522   3.092   2.939  0.0950  0.4195  0.5194
   52DOPE   O13 6591   0.467   3.224   2.902  0.0920 -0.1732  0.6252
   52DOPE   O14 6592   0.658   3.056   2.885  0.5476 -0.3155 -0.1329
   52DOPE   O11 6593   0.509   3.059   3.090  0.0318 -0.1544  0.1207
   52DOPE   O12 6594   0.427   2.984   2.882  0.3357 -0.0960  0.0711
   52DOPE    C1 6595   0.544   2.935   3.157 -0.4921  0.1831  0.2917
   52DOPE    HA 6596   0.650   2.917   3.131  0.4283 -0.5359  3.9190
   52DOPE    HB 6597   0.480   2.849   3.126  1.4828 -1.5380  0.7147
   52DOPE    C2 6598   0.520   2.938   3.316 -1.1058 -0.3188  0.1783
   52DOPE    HS 6599   0.499   2.830   3.332 -1.0592 -0.8963 -2.9866
   52DOPE   O21 6600   0.409   3.020   3.353 -0.0856  0.9899  0.2386
   52DOPE   C21 6601   0.291   2.960   3.336 -0.2085  0.2219  0.5091
   52DOPE   O22 6602   0.272   2.854   3.278  0.1845  0.0197  0.0690
   52DOPE   C22 6603   0.169   3.055   3.372 -0.5143  1.0130 -0.4406
   52DOPE   H2R 6604   0.072   3.002   3.381  0.5195 -1.0119 -0.6203
   52DOPE   H2S 6605   0.165   3.134   3.295 -1.2729  0.9444 -0.4760
   52DOPE    C3 6606   0.645   2.977   3.398 -0.4774  0.0207 -0.3921
   52DOPE    HX 6607   0.668   3.084   3.378  0.7608 -0.7160 -3.6480
   52DOPE    HY 6608   0.735   2.929   3.353  0.2119  0.7729  0.1484
   52DOPE   O31 6609   0.635   2.955   3.542 -0.1422 -0.2118  0.6702
   52DOPE   C31 6610   0.597   3.062   3.621 -0.8059 -0.2546 -0.2895
   52DOPE   O32 6611   0.564   3.171   3.578 -0.4746  0.2818 -0.2156
   52DOPE   C32 6612   0.626   3.029   3.772 -0.0876 -0.4691  1.1957
   52DOPE   H2X 6613   0.546   2.965   3.816  0.5909 -0.9566  1.7357
   52DOPE   H2Y 6614   0.729   2.987   3.777  0.4222  0.8491  2.6426
   52DOPE   C23 6615   0.197   3.108   3.513 -0.4044  0.6893 -0.3222
   52DOPE   H3R 6616   0.118   3.180   3.542 -1.1491 -0.5864  0.8924
   52DOPE   H3S 6617   0.296   3.160   3.514  0.1394 -0.3360  0.0514
   52DOPE   C24 6618   0.201   3.004   3.629  0.1954 -0.0121  0.5279
   52DOPE   H4R 6619   0.301   2.956   3.624 -0.5847 -1.7564  0.9250
   52DOPE   H4S 6620   0.123   2.926   3.620 -0.3681  0.4479  1.3782
   52DOPE   C25 6621   0.188   3.075   3.763  0.3284 -0.0134  0.1271
   52DOPE   H5R 6622   0.082   3.107   3.770 -0.0223 -1.0168 -0.4294
   52DOPE   H5S 6623   0.244   3.172   3.764  0.6249 -0.1540  2.2433
   52DOPE   C26 6624   0.233   2.997   3.882 -0.0378  0.2058 -0.4583
   52DOPE   H6R 6625   0.343   3.008   3.883 -0.0894  0.6634  0.5591
   52DOPE   H6S 6626   0.197   2.892   3.870 -0.3465  0.1542  0.8076
   52DOPE   C27 6627   0.194   3.043   4.022 -0.3759 -0.0006  0.3532
   52DOPE   H7R 6628   0.083   3.051   4.029 -0.3718  0.1051  0.3032
   52DOPE   H7S 6629   0.225   3.150   4.024 -0.6016  0.0740  0.0137
   52DOPE   C28 6630   0.251   2.955   4.132  0.0054 -0.8586 -0.4639
   52DOPE   H8R 6631   0.357   2.987   4.140 -0.3949  0.0246  2.9467
   52DOPE   H8S 6632   0.255   2.846   4.107 -3.6754 -1.0453 -0.8343
   52DOPE   C29 6633   0.182   2.962   4.267 -0.5065 -1.0696  0.4347
   52DOPE   H9R 6634   0.074   2.949   4.250 -0.4056  0.6035 -1.9845
   52DOPE  C210 6635   0.227   2.962   4.393 -0.0979 -0.6435 -0.0897
   52DOPE  H10R 6636   0.159   3.005   4.469 -0.3416  0.3805 -0.8559
   52DOPE  C211 6637   0.371   2.959   4.439  0.3109  0.5083  0.0014
   52DOPE  H11R 6638   0.399   3.049   4.498 -2.4576  0.7805  1.0619
   52DOPE  H11S 6639   0.440   2.961   4.351 -1.4074  1.8100 -1.4040
   52DOPE  C212 6640   0.402   2.839   4.526  0.2696 -0.2528 -0.6530
   52DOPE  H12R 6641   0.369   2.744   4.478  0.4401 -0.3409 -0.5976
   52DOPE  H12S 6642   0.346   2.853   4.621  1.7948  2.4617 -0.0463
   52DOPE  C213 6643   0.553   2.838   4.551 -0.1091 -0.3363 -0.6746
   52DOPE  H13R 6644   0.613   2.845   4.458 -0.7901 -1.6259 -1.2460
   52DOPE  H13S 6645   0.587   2.743   4.597 -1.9523 -0.1594  1.1780
   52DOPE  C214 6646   0.590   2.935   4.669 -0.0096 -0.1141  0.8111
   52DOPE  H14R 6647   0.527   2.909   4.757  0.6104 -1.0270  0.9991
   52DOPE  H14S 6648   0.563   3.035   4.630  1.2763 -0.3826 -0.8634
   52DOPE  C215 6649   0.738   2.926   4.700 -0.0826 -0.5027  0.1526
   52DOPE  H15R 6650   0.794   2.908   4.605  0.5394 -1.3197  0.6601
   52DOPE  H15S 6651   0.736   2.835   4.763  1.0781 -0.9618 -0.4353
   52DOPE  C216 6652   0.789   3.042   4.797 -0.2484 -0.0376  0.0583
   52DOPE  H16R 6653   0.871   2.999   4.858 -0.4083  0.0947  0.3646
   52DOPE  H16S 6654   0.703   3.058   4.866 -2.0287 -0.2701 -1.9867
   52DOPE  C217 6655   0.825   3.170   4.719  0.8216  0.1191 -0.7215
   52DOPE  H17R 6656   0.730   3.216   4.683  0.2909 -0.6157 -0.3024
   52DOPE  H17S 6657   0.892   3.146   4.633  0.2772 -3.4312 -0.2812
   52DOPE  C218 6658   0.891   3.275   4.815  0.1158 -0.3686 -0.3678
   52DOPE  H18R 6659   0.826   3.290   4.905  0.2900 -1.4820 -0.0419
   52DOPE  H18S 6660   0.993   3.240   4.841  0.2643 -1.1692 -1.9438
   52DOPE  H18T 6661   0.902   3.368   4.757  0.5945  0.7646  1.4444
   52DOPE   C33 6662   0.641   3.162   3.855  0.4192 -0.8223  0.3900
   52DOPE   H3X 6663   0.706   3.232   3.798 -0.6846  1.0814  1.4044
   52DOPE   H3Y 6664   0.688   3.125   3.949  2.6748 -2.3797 -1.2309
   52DOPE   C34 6665   0.519   3.248   3.895  0.4122 -0.2037 -1.0597
   52DOPE   H4X 6666   0.449   3.277   3.814 -2.0294 -1.0919  0.6285
   52DOPE   H4Y 6667   0.458   3.178   3.956  2.0200  1.0782  2.2525
   52DOPE   C35 6668   0.559   3.368   3.975 -0.1674 -0.2716  0.8645
   52DOPE   H5X 6669   0.648   3.352   4.039  0.0597  0.5262  0.7664
   52DOPE   H5Y 6670   0.476   3.414   4.032  1.2011  2.4713  0.8428
   52DOPE   C36 6671   0.605   3.480   3.870  0.0822  0.3804 -0.5082
   52DOPE   H6X 6672   0.528   3.484   3.790  0.9782  0.4981 -1.3839
   52DOPE   H6Y 6673   0.693   3.445   3.814 -0.9891 -2.8996 -0.3679
   52DOPE   C37 6674   0.637   3.613   3.933  0.9121 -0.9711  0.0192
   52DOPE   H7X 6675   0.709   3.603   4.017  0.8526 -1.5481  0.0043
   52DOPE   H7Y 6676   0.680   3.674   3.851 -1.3782 -1.4603 -1.6541
   52DOPE   C38 6677   0.507   3.684   3.985 -0.2710  0.2786 -0.1302
   52DOPE   H8X 6678   0.462   3.639   4.075 -1.4942 -0.7149 -1.1989
   52DOPE   H8Y 6679   0.420   3.676   3.917 -0.2034  1.9913 -0.4758
   52DOPE   C39 6680   0.545   3.827   4.019 -0.9753 -0.5804  0.2125
   52DOPE   H9X 6681   0.601   3.878   3.939 -1.3801 -0.6303 -0.1074
   52DOPE  C310 6682   0.536   3.894   4.133  0.3364 -0.0312  0.0032
   52DOPE  H10X 6683   0.558   4.002   4.131  1.9067 -0.2974  1.2932
   52DOPE  C311 6684   0.492   3.842   4.270  0.4494 -0.1325 -0.1268
   52DOPE  H11X 6685   0.410   3.901   4.317  1.4046  0.8486  0.3815
   52DOPE  H11Y 6686   0.448   3.742   4.258 -0.1353  0.1936 -0.7609
   52DOPE  C312 6687   0.605   3.833   4.375 -0.5768  0.7783 -0.2406
   52DOPE  H12X 6688   0.690   3.770   4.342 -1.7310 -1.4843  0.8559
   52DOPE  H12Y 6689   0.569   3.788   4.470  1.7442  0.3908  0.5130
   52DOPE  C313 6690   0.664   3.970   4.409 -0.4352 -0.1903  0.6265
   52DOPE  H13X 6691   0.726   3.991   4.320  0.1750  0.6960  1.2454
   52DOPE  H13Y 6692   0.576   4.036   4.421 -0.2842 -0.0369  0.8998
   52DOPE  C314 6693   0.758   3.980   4.528  0.2106  0.6093 -0.1104
   52DOPE  H14X 6694   0.845   3.917   4.498 -0.2147  0.1458 -0.3906
   52DOPE  H14Y 6695   0.692   3.934   4.604  1.1057 -1.7051 -0.6390
   52DOPE  C315 6696   0.810   4.125   4.559  1.0737  0.2953  1.2011
   52DOPE  H15X 6697   0.729   4.195   4.587 -0.8269 -1.3010 -0.0924
   52DOPE  H15Y 6698   0.861   4.161   4.467 -0.5686  0.2145  0.2203
   52DOPE  C316 6699   0.923   4.113   4.662 -0.1078  0.1483 -0.4361
   52DOPE  H16X 6700   0.982   4.206   4.675 -0.2477  0.1804 -0.0263
   52DOPE  H16Y 6701   1.000   4.040   4.628  0.5522  0.5144  0.2554
   52DOPE  C317 6702   0.871   4.087   4.808  0.1061 -0.0624  0.4875
   52DOPE  H17X 6703   0.853   3.979   4.822  2.0341 -0.4424  0.2999
   52DOPE  H17Y 6704   0.953   4.108   4.880 -0.2125  0.9589  0.5825
   52DOPE  C318 6705   0.751   4.174   4.844  0.6277 -0.2796 -0.0402
   52DOPE  H18X 6706   0.664   4.133   4.788 -0.3658 -0.2055  1.4203
   52DOPE  H18Y 6707   0.746   4.154   4.953  1.4665  1.6938  0.4104
   52DOPE  H18Z 6708   0.783   4.276   4.813  1.8625  0.0879  2.2253
   53DOPE     N 6709   7.666   5.799   3.154 -0.0677 -0.2243  0.6140
   53DOPE   HN1 6710   7.610   5.831   3.235 -0.2875  0.4990  0.1810
   53DOPE   HN2 6711   7.666   5.695   3.161 -0.7149 -0.3206 -0.4941
   53DOPE   HN3 6712   7.763   5.836   3.156 -0.9543  2.3760  0.0741
   53DOPE   C12 6713   7.608   5.821   3.019 -0.3857  0.3898  0.0916
   53DOPE  H12A 6714   7.685   5.797   2.943  0.5460  2.2049  0.4172
   53DOPE  H12B 6715   7.584   5.930   3.015  1.0704  0.7159 -0.2673
   53DOPE   C11 6716   7.480   5.738   3.009  0.4440  0.2521  0.4452
   53DOPE  H11A 6717   7.503   5.633   3.038 -0.1898  0.1236  0.5191
   53DOPE  H11B 6718   7.440   5.726   2.906  0.4962  1.2440  0.3025
   53DOPE     P 6719   7.227   5.712   3.098  0.0442  0.0165 -0.4196
   53DOPE   O13 6720   7.162   5.708   2.966 -0.0085  0.6557  0.3102
   53DOPE   O14 6721   7.147   5.785   3.198  0.0228 -0.3613  0.3186
   53DOPE   O11 6722   7.248   5.561   3.144  0.4523 -0.9681  0.2879
   53DOPE   O12 6723   7.376   5.783   3.096 -0.1722  0.1314 -0.5714
   53DOPE    C1 6724   7.303   5.535   3.272  1.2023  0.4285 -0.2017
   53DOPE    HA 6725   7.371   5.612   3.313  1.7660 -0.1291 -0.0669
   53DOPE    HB 6726   7.345   5.432   3.268 -0.8592 -0.5313  0.9911
   53DOPE    C2 6727   7.185   5.530   3.375 -0.2610 -0.7408  0.3324
   53DOPE    HS 6728   7.126   5.623   3.361 -0.1852 -0.8718 -0.9397
   53DOPE   O21 6729   7.255   5.525   3.501  0.2736 -0.0872 -0.0694
   53DOPE   C21 6730   7.236   5.617   3.590 -0.5068 -0.9297  0.2835
   53DOPE   O22 6731   7.148   5.709   3.581 -0.1264 -0.5971 -1.1482
   53DOPE   C22 6732   7.337   5.602   3.709  0.1890  0.3454  0.8551
   53DOPE   H2R 6733   7.400   5.694   3.705  1.1940 -0.2927  1.5871
   53DOPE   H2S 6734   7.400   5.514   3.684 -0.1339  1.1017 -3.4769
   53DOPE    C3 6735   7.100   5.404   3.362 -0.5517  0.4163  0.1692
   53DOPE    HX 6736   7.170   5.317   3.357  1.4621  2.0440 -1.4605
   53DOPE    HY 6737   7.052   5.408   3.262 -0.8910 -3.2121  0.0493
   53DOPE   O31 6738   7.009   5.394   3.475  0.6829  0.0838  0.1166
   53DOPE   C31 6739   6.904   5.466   3.458  0.1579  0.2611 -0.2447
   53DOPE   O32 6740   6.881   5.544   3.363  0.4056 -0.7327 -0.3782
   53DOPE   C32 6741   6.813   5.452   3.584  0.1843 -0.7402  0.0525
   53DOPE   H2X 6742   6.771   5.552   3.610 -0.0635 -0.3206 -1.8446
   53DOPE   H2Y 6743   6.724   5.391   3.560 -2.2168  1.7856  1.8778
   53DOPE   C23 6744   7.251   5.587   3.837 -0.2155 -0.3591  0.0842
   53DOPE   H3R 6745   7.192   5.493   3.832  0.2379 -0.8361  2.4188
   53DOPE   H3S 6746   7.179   5.669   3.860 -1.2832 -0.4966 -2.4738
   53DOPE   C24 6747   7.351   5.563   3.956  0.3051 -0.4552  0.3310
   53DOPE   H4R 6748   7.430   5.641   3.953 -0.5037  0.3916  0.5183
   53DOPE   H4S 6749   7.401   5.466   3.937  0.8955 -0.0676 -0.1329
   53DOPE   C25 6750   7.271   5.564   4.084 -0.6864 -0.2035 -0.3271
   53DOPE   H5R 6751   7.200   5.478   4.086 -0.7116 -0.1897  1.2919
   53DOPE   H5S 6752   7.203   5.653   4.089 -0.9151 -0.3848 -0.1581
   53DOPE   C26 6753   7.369   5.568   4.200  0.1953  0.0211 -1.2595
   53DOPE   H6R 6754   7.405   5.671   4.219 -0.1188 -0.4742  2.8221
   53DOPE   H6S 6755   7.454   5.501   4.176 -0.2457 -0.4040 -1.6616
   53DOPE   C27 6756   7.304   5.525   4.334 -0.2562 -0.3159  1.0626
   53DOPE   H7R 6757   7.377   5.489   4.409 -1.5853 -0.8054  2.1502
   53DOPE   H7S 6758   7.241   5.440   4.303 -0.3168  0.8288 -2.4054
   53DOPE   C28 6759   7.238   5.644   4.409  0.1183  0.3023  0.2185
   53DOPE   H8R 6760   7.178   5.709   4.342 -0.6313  0.6068  1.1605
   53DOPE   H8S 6761   7.320   5.717   4.428 -0.6814  1.8149 -1.7442
   53DOPE   C29 6762   7.159   5.608   4.533  0.7530 -0.0549  0.3075
   53DOPE   H9R 6763   7.069   5.549   4.512  1.2945 -1.0536  0.7200
   53DOPE  C210 6764   7.203   5.627   4.659 -0.1372  0.2250 -0.4048
   53DOPE  H10R 6765   7.142   5.595   4.745  0.4593  1.4282  0.4941
   53DOPE  C211 6766   7.329   5.696   4.714  0.2237  0.0625 -0.6201
   53DOPE  H11R 6767   7.398   5.715   4.629 -0.2977 -2.3298 -1.6814
   53DOPE  H11S 6768   7.370   5.625   4.789 -1.1317 -0.1085 -0.0094
   53DOPE  C212 6769   7.298   5.825   4.789  0.6991  0.3846  0.9131
   53DOPE  H12R 6770   7.229   5.782   4.865  0.0583 -0.4884 -0.1326
   53DOPE  H12S 6771   7.249   5.907   4.732 -0.5639 -0.1689  1.1815
   53DOPE  C213 6772   7.418   5.885   4.866  0.3223 -0.3935  0.2654
   53DOPE  H13R 6773   7.484   5.936   4.792 -0.6307 -0.3274 -0.5551
   53DOPE  H13S 6774   7.459   5.803   4.929  2.2613  1.2895  1.3387
   53DOPE  C214 6775   7.383   5.992   4.966  0.3190 -0.3120  0.2831
   53DOPE  H14R 6776   7.278   5.979   5.002 -0.1155  0.2041 -0.7495
   53DOPE  H14S 6777   7.377   6.092   4.919 -1.9032 -0.9495 -0.9300
   53DOPE  C215 6778   7.469   5.997   5.090 -0.9543  0.5578 -0.3990
   53DOPE  H15R 6779   7.467   5.915   5.165 -0.7060 -0.2320 -1.2309
   53DOPE  H15S 6780   7.450   6.086   5.154  0.2445  0.9316 -0.5259
   53DOPE  C216 6781   7.619   6.009   5.050  0.3486  0.4485  0.9300
   53DOPE  H16R 6782   7.623   6.106   4.995 -0.8776  0.1821  0.3194
   53DOPE  H16S 6783   7.648   5.924   4.985 -2.9767  0.5017 -0.8624
   53DOPE  C217 6784   7.705   6.034   5.175 -0.2502 -0.3191  0.8712
   53DOPE  H17R 6785   7.707   5.944   5.240 -0.7112  0.5614  2.1580
   53DOPE  H17S 6786   7.651   6.114   5.231 -1.5582 -0.2044 -0.4887
   53DOPE  C218 6787   7.850   6.076   5.148  0.0610 -0.2700 -0.2763
   53DOPE  H18R 6788   7.901   6.009   5.076  0.1309 -1.6773  1.0320
   53DOPE  H18S 6789   7.904   6.072   5.245 -2.2229  1.0067  1.1589
   53DOPE  H18T 6790   7.862   6.181   5.112  1.6306  0.0812  1.0994
   53DOPE   C33 6791   6.887   5.392   3.710 -0.1584 -0.3387  0.5300
   53DOPE   H3X 6792   6.948   5.478   3.745  0.8745 -1.6670  2.1291
   53DOPE   H3Y 6793   6.961   5.315   3.680 -1.7959 -1.4562 -0.8077
   53DOPE   C34 6794   6.782   5.338   3.809  0.3599  0.0967  0.2318
   53DOPE   H4X 6795   6.719   5.422   3.844  0.9719  1.0864 -0.9546
   53DOPE   H4Y 6796   6.724   5.250   3.774  1.8739 -1.2441  0.8966
   53DOPE   C35 6797   6.843   5.270   3.935 -0.6044 -1.1352  0.4328
   53DOPE   H5X 6798   6.907   5.182   3.914 -0.3510 -0.9233  0.3047
   53DOPE   H5Y 6799   6.769   5.237   4.011 -0.5339 -0.9373  0.5883
   53DOPE   C36 6800   6.943   5.361   4.020 -0.0662 -0.2170  0.1166
   53DOPE   H6X 6801   6.896   5.455   4.054 -0.9336 -0.6178  0.0649
   53DOPE   H6Y 6802   7.031   5.390   3.959 -0.7434  0.4914 -0.5509
   53DOPE   C37 6803   6.993   5.280   4.136  0.5970  0.2046 -0.3755
   53DOPE   H7X 6804   7.043   5.188   4.099 -3.2386 -1.8606 -0.8732
   53DOPE   H7Y 6805   7.066   5.347   4.187  1.0153 -0.6834  0.2196
   53DOPE   C38 6806   6.888   5.228   4.237 -0.1128  0.1227  0.2770
   53DOPE   H8X 6807   6.947   5.176   4.315  0.6348 -0.7495 -0.8408
   53DOPE   H8Y 6808   6.818   5.154   4.195  0.5790 -0.8060  0.7307
   53DOPE   C39 6809   6.800   5.338   4.298 -0.4018  0.1859 -0.2474
   53DOPE   H9X 6810   6.742   5.389   4.220  1.2939  0.9058 -1.0935
   53DOPE  C310 6811   6.783   5.380   4.423 -0.5420  0.5065 -0.5554
   53DOPE  H10X 6812   6.720   5.465   4.451  3.5042  3.3302  1.0406
   53DOPE  C311 6813   6.862   5.327   4.537 -0.1676  0.0073  0.3688
   53DOPE  H11X 6814   6.957   5.282   4.502 -1.0776  0.8030 -3.5646
   53DOPE  H11Y 6815   6.891   5.418   4.595 -0.9829  1.3461 -1.2343
   53DOPE  C312 6816   6.791   5.237   4.639  0.0880 -0.3782  0.1392
   53DOPE  H12X 6817   6.755   5.141   4.596 -0.2158 -0.3713  0.3745
   53DOPE  H12Y 6818   6.695   5.286   4.665  1.1303  3.0578 -1.8491
   53DOPE  C313 6819   6.888   5.211   4.760 -0.1859  0.5278  0.0473
   53DOPE  H13X 6820   6.967   5.143   4.721 -0.2886 -1.1401  2.4862
   53DOPE  H13Y 6821   6.941   5.303   4.793  0.6345  0.1014 -0.0563
   53DOPE  C314 6822   6.823   5.139   4.877 -0.1747 -0.3529  0.1026
   53DOPE  H14X 6823   6.781   5.040   4.851  0.4527 -0.6933  0.3840
   53DOPE  H14Y 6824   6.744   5.202   4.923 -0.3532  0.6269 -1.4587
   53DOPE  C315 6825   6.925   5.114   4.988 -0.2598  1.0152  0.6370
   53DOPE  H15X 6826   6.980   5.206   5.019 -0.5671  1.7963 -1.0562
   53DOPE  H15Y 6827   7.006   5.052   4.943 -1.9750 -1.1629  0.4185
   53DOPE  C316 6828   6.870   5.034   5.106  0.3980 -0.4977 -0.3110
   53DOPE  H16X 6829   6.805   4.951   5.069  0.3270  0.1856 -1.8226
   53DOPE  H16Y 6830   6.829   5.103   5.182  0.8998  0.2782 -0.7374
   53DOPE  C317 6831   6.971   4.975   5.201 -0.4971 -0.7794 -0.0100
   53DOPE  H17X 6832   6.922   4.921   5.285 -2.6167  2.6547  1.1504
   53DOPE  H17Y 6833   7.044   4.913   5.145  0.4569  0.3647 -0.0631
   53DOPE  C318 6834   7.054   5.088   5.257  0.1314 -0.1659 -0.1568
   53DOPE  H18X 6835   7.135   5.106   5.184 -0.3578 -1.1460 -0.9562
   53DOPE  H18Y 6836   7.002   5.178   5.296  0.1966  0.0440 -0.5471
   53DOPE  H18Z 6837   7.110   5.048   5.344  1.7851 -0.3152 -1.2466
   54DOPE     N 6838   0.609   2.610   2.624 -0.1109  0.1647 -0.0401
   54DOPE   HN1 6839   0.640   2.649   2.715  2.0577 -0.0054 -0.6552
   54DOPE   HN2 6840   0.691   2.610   2.560  1.4722  0.5024  1.9114
   54DOPE   HN3 6841   0.535   2.676   2.592  2.2297  3.7465  1.3775
   54DOPE   C12 6842   0.558   2.470   2.638  0.0230 -0.1212 -0.0865
   54DOPE  H12A 6843   0.561   2.417   2.540 -0.9519  0.4922 -0.4648
   54DOPE  H12B 6844   0.449   2.480   2.656 -0.0780  1.6540 -1.4129
   54DOPE   C11 6845   0.613   2.387   2.754  0.0325  0.0831  0.1820
   54DOPE  H11A 6846   0.719   2.365   2.729 -0.9749 -2.5979 -2.2096
   54DOPE  H11B 6847   0.560   2.290   2.750 -1.2126  0.7184  1.0029
   54DOPE     P 6848   0.524   2.397   2.989 -0.2979  0.1026 -0.5625
   54DOPE   O13 6849   0.595   2.287   3.055 -0.0020 -0.6086  0.3627
   54DOPE   O14 6850   0.386   2.372   2.945 -0.2395  0.1585 -0.0663
   54DOPE   O11 6851   0.525   2.519   3.092  0.5210 -0.5623  0.8208
   54DOPE   O12 6852   0.616   2.464   2.878  0.5509 -0.1723 -0.5320
   54DOPE    C1 6853   0.648   2.553   3.163 -0.4725  0.1858  0.2073
   54DOPE    HA 6854   0.667   2.662   3.159 -0.1159  0.1154 -0.0337
   54DOPE    HB 6855   0.736   2.508   3.113 -1.5358 -1.9904  0.1599
   54DOPE    C2 6856   0.647   2.497   3.311 -0.0124 -0.0556  1.0993
   54DOPE    HS 6857   0.670   2.390   3.292  0.0060  0.3176 -1.3082
   54DOPE   O21 6858   0.522   2.527   3.366  0.1670  0.2845  0.9202
   54DOPE   C21 6859   0.468   2.434   3.432  0.1958  0.6398  0.3982
   54DOPE   O22 6860   0.511   2.332   3.472 -0.3181 -0.0985 -0.1546
   54DOPE   C22 6861   0.320   2.484   3.461  0.0623 -0.0933 -0.2753
   54DOPE   H2R 6862   0.278   2.412   3.534 -2.0260  0.4758 -0.8626
   54DOPE   H2S 6863   0.252   2.465   3.376  0.1391 -3.7465  0.3269
   54DOPE    C3 6864   0.760   2.561   3.397 -0.7680 -0.3019  0.3827
   54DOPE    HX 6865   0.744   2.667   3.424  0.1675 -0.1417  0.3533
   54DOPE    HY 6866   0.860   2.567   3.349 -0.4502 -1.6267  0.8355
   54DOPE   O31 6867   0.777   2.506   3.534 -0.2168 -0.0952  0.7667
   54DOPE   C31 6868   0.864   2.403   3.554 -0.2875  0.4387  0.5149
   54DOPE   O32 6869   0.933   2.350   3.469 -0.0897  0.2736  0.0474
   54DOPE   C32 6870   0.865   2.371   3.697  0.3993  0.5105 -0.1486
   54DOPE   H2X 6871   0.769   2.401   3.744 -0.1298  0.8022 -1.3705
   54DOPE   H2Y 6872   0.882   2.262   3.714 -1.1663  0.2653 -0.0250
   54DOPE   C23 6873   0.291   2.627   3.516  0.1349 -0.0035  0.3009
   54DOPE   H3R 6874   0.189   2.653   3.483 -0.5597 -0.4592  1.9721
   54DOPE   H3S 6875   0.361   2.699   3.468 -1.2036 -0.6707 -2.8944
   54DOPE   C24 6876   0.309   2.644   3.671 -0.1860 -0.9520 -0.0497
   54DOPE   H4R 6877   0.243   2.563   3.707 -1.2117 -0.4059 -0.6728
   54DOPE   H4S 6878   0.262   2.733   3.717  0.9025 -1.4577  2.1688
   54DOPE   C25 6879   0.458   2.634   3.717  0.0343 -0.6085  0.6816
   54DOPE   H5R 6880   0.509   2.715   3.661 -0.5955  0.4485  1.5953
   54DOPE   H5S 6881   0.493   2.532   3.690 -0.4208 -0.7091  0.4536
   54DOPE   C26 6882   0.467   2.665   3.865 -0.3210  0.5770  0.7132
   54DOPE   H6R 6883   0.409   2.600   3.935 -0.4248  1.6045  1.6082
   54DOPE   H6S 6884   0.416   2.762   3.883  1.5590  1.3883  1.9402
   54DOPE   C27 6885   0.608   2.681   3.924  0.2773  1.1884 -0.0406
   54DOPE   H7R 6886   0.664   2.749   3.857  1.2177  0.4754  0.0041
   54DOPE   H7S 6887   0.661   2.583   3.919  2.3276  1.9976  2.8440
   54DOPE   C28 6888   0.624   2.739   4.062 -0.8263 -0.0838  0.3508
   54DOPE   H8R 6889   0.589   2.844   4.065  2.2174  1.3252 -3.7771
   54DOPE   H8S 6890   0.733   2.761   4.073 -0.0766 -1.8606 -2.5066
   54DOPE   C29 6891   0.562   2.670   4.178 -0.4991 -0.6176 -0.1242
   54DOPE   H9R 6892   0.457   2.700   4.189  0.0153  0.4760  2.3703
   54DOPE  C210 6893   0.633   2.601   4.274  0.4162 -0.7338 -0.2185
   54DOPE  H10R 6894   0.583   2.570   4.367  0.3132  0.3256  0.0968
   54DOPE  C211 6895   0.778   2.561   4.269  0.0884 -0.1250  0.7211
   54DOPE  H11R 6896   0.828   2.566   4.170  0.4554 -0.7547  0.8676
   54DOPE  H11S 6897   0.767   2.452   4.286 -0.8374  0.1229  1.8889
   54DOPE  C212 6898   0.863   2.613   4.383 -0.3164 -0.5381 -0.5260
   54DOPE  H12R 6899   0.947   2.541   4.394 -0.6601 -0.5757  3.1099
   54DOPE  H12S 6900   0.807   2.603   4.478 -2.6858 -1.2506 -1.9022
   54DOPE  C213 6901   0.914   2.757   4.354  0.1951  0.2879 -0.3825
   54DOPE  H13R 6902   0.834   2.834   4.343  0.0357  0.0817 -0.6929
   54DOPE  H13S 6903   0.963   2.756   4.254 -0.7945  2.6825 -0.9545
   54DOPE  C214 6904   1.021   2.793   4.456  0.7267 -0.3944  1.1353
   54DOPE  H14R 6905   1.052   2.696   4.501 -1.8984 -1.5489  0.6451
   54DOPE  H14S 6906   0.967   2.850   4.534 -0.2546 -0.9871  0.9103
   54DOPE  C215 6907   1.139   2.873   4.402  0.3502  0.2129  0.7630
   54DOPE  H15R 6908   1.099   2.963   4.350  1.0855 -0.0078 -0.2013
   54DOPE  H15S 6909   1.183   2.818   4.316  1.6674  0.9519  0.9370
   54DOPE  C216 6910   1.240   2.898   4.510  0.1658  0.1382  0.2693
   54DOPE  H16R 6911   1.303   2.814   4.547  1.3321  1.3364  1.1105
   54DOPE  H16S 6912   1.189   2.939   4.600 -0.0160 -0.0488  0.2522
   54DOPE  C217 6913   1.355   2.991   4.457  0.2944 -0.0230  0.0593
   54DOPE  H17R 6914   1.300   3.084   4.428 -0.4255 -0.9101 -1.5648
   54DOPE  H17S 6915   1.391   2.943   4.364  0.0396 -0.7841  0.3411
   54DOPE  C218 6916   1.478   2.996   4.551 -0.3724 -0.1707  0.7017
   54DOPE  H18R 6917   1.505   2.891   4.574  1.2487  0.0139 -0.2497
   54DOPE  H18S 6918   1.462   3.049   4.647  0.0887 -1.4111  1.4979
   54DOPE  H18T 6919   1.569   3.038   4.503 -1.4432  0.3273 -0.9729
   54DOPE   C33 6920   0.980   2.438   3.770 -0.2986 -0.4712 -0.6828
   54DOPE   H3X 6921   0.966   2.548   3.769 -0.3176 -0.3845  1.8488
   54DOPE   H3Y 6922   1.078   2.409   3.727 -0.4750  1.8797 -2.8426
   54DOPE   C34 6923   0.986   2.402   3.922 -0.2411 -0.7760 -1.2790
   54DOPE   H4X 6924   0.886   2.428   3.962  0.3092 -0.2005 -0.2351
   54DOPE   H4Y 6925   0.988   2.291   3.936 -0.2601 -0.7118 -0.7578
   54DOPE   C35 6926   1.100   2.462   4.004  0.2698 -0.0918  0.2320
   54DOPE   H5X 6927   1.077   2.570   4.017 -1.6000 -0.1302 -2.1220
   54DOPE   H5Y 6928   1.201   2.449   3.960  0.3470 -2.9304  1.0332
   54DOPE   C36 6929   1.110   2.405   4.154 -0.2360 -0.1788  0.3327
   54DOPE   H6X 6930   1.106   2.294   4.156 -4.5419 -0.1897  0.9043
   54DOPE   H6Y 6931   1.026   2.444   4.215 -0.4375 -0.0439 -0.0270
   54DOPE   C37 6932   1.234   2.468   4.222  0.6913  0.6609  0.3667
   54DOPE   H7X 6933   1.326   2.447   4.162 -0.3217  2.2970 -1.9271
   54DOPE   H7Y 6934   1.210   2.575   4.205 -0.5649 -0.0705 -3.4720
   54DOPE   C38 6935   1.260   2.433   4.367  0.6973  0.1833  0.0556
   54DOPE   H8X 6936   1.176   2.368   4.400  0.2811  0.3719 -0.5996
   54DOPE   H8Y 6937   1.244   2.524   4.428  1.7619  0.3096  0.1680
   54DOPE   C39 6938   1.387   2.357   4.394 -0.4124 -0.1993  0.1405
   54DOPE   H9X 6939   1.400   2.271   4.327 -1.6663 -0.1378 -0.2093
   54DOPE  C310 6940   1.482   2.391   4.480 -0.3301 -0.5183  1.0010
   54DOPE  H10X 6941   1.583   2.356   4.458  0.8638  2.6679  1.0007
   54DOPE  C311 6942   1.477   2.492   4.590 -0.0415  0.1057 -0.6342
   54DOPE  H11X 6943   1.574   2.519   4.637 -0.5107 -0.2483  0.5853
   54DOPE  H11Y 6944   1.439   2.585   4.543 -2.7707 -1.3643 -1.5510
   54DOPE  C312 6945   1.367   2.471   4.702 -0.3590 -0.1548 -0.1532
   54DOPE  H12X 6946   1.264   2.460   4.663 -0.1896  0.4628 -0.7960
   54DOPE  H12Y 6947   1.371   2.571   4.750 -0.9219 -0.7143  1.1099
   54DOPE  C313 6948   1.404   2.353   4.792  0.4499 -0.4466  0.3933
   54DOPE  H13X 6949   1.369   2.265   4.734  2.1042 -0.0345 -1.3542
   54DOPE  H13Y 6950   1.515   2.346   4.796  0.3660 -2.3592  0.4238
   54DOPE  C314 6951   1.347   2.360   4.928  0.1255 -0.5053 -0.3246
   54DOPE  H14X 6952   1.339   2.257   4.967 -0.5471 -0.4382 -0.2819
   54DOPE  H14Y 6953   1.244   2.397   4.913 -0.0349 -0.6920  0.3126
   54DOPE  C315 6954   1.438   2.445   5.011  0.7065  0.2128  0.2396
   54DOPE  H15X 6955   1.406   2.549   4.994 -0.7596  0.0745  1.8428
   54DOPE  H15Y 6956   1.547   2.425   5.000  0.0985 -4.4492  0.6923
   54DOPE  C316 6957   1.419   2.439   5.166  0.1566  0.3703  0.6610
   54DOPE  H16X 6958   1.320   2.389   5.172  0.3407  0.0465  1.0207
   54DOPE  H16Y 6959   1.407   2.546   5.194 -2.4238  0.7599 -1.5147
   54DOPE  C317 6960   1.534   2.368   5.241  0.7160 -0.3017 -0.9245
   54DOPE  H17X 6961   1.546   2.264   5.203  0.2465 -0.1984 -1.3690
   54DOPE  H17Y 6962   1.628   2.426   5.230  0.3309  0.5554  0.1192
   54DOPE  C318 6963   1.491   2.353   5.390  0.1219 -0.4567 -0.3480
   54DOPE  H18X 6964   1.571   2.307   5.451 -0.3601  1.5158  1.9071
   54DOPE  H18Y 6965   1.452   2.443   5.442 -1.3780 -1.7515  0.8620
   54DOPE  H18Z 6966   1.403   2.285   5.397  1.1396 -2.1658 -2.5786
   55DOPE     N 6967   1.854   5.295   2.650  0.6928 -0.5380  0.2068
   55DOPE   HN1 6968   1.948   5.330   2.624  1.0170 -0.8498  0.9104
   55DOPE   HN2 6969   1.866   5.210   2.709  3.6628  0.5692  1.3497
   55DOPE   HN3 6970   1.790   5.265   2.574 -0.0431 -0.2432  0.6924
   55DOPE   C12 6971   1.787   5.409   2.734 -0.1493  0.1129 -0.3025
   55DOPE  H12A 6972   1.732   5.467   2.657 -1.2786  1.4835  1.4881
   55DOPE  H12B 6973   1.869   5.467   2.781 -1.5067  1.4685  0.4705
   55DOPE   C11 6974   1.696   5.355   2.843 -0.4521  0.3568 -0.3584
   55DOPE  H11A 6975   1.643   5.434   2.899 -2.1273 -1.8672  1.3320
   55DOPE  H11B 6976   1.759   5.303   2.919 -0.7720  1.2238  0.5042
   55DOPE     P 6977   1.598   5.127   2.813 -0.3122  0.0804 -0.4049
   55DOPE   O13 6978   1.722   5.062   2.764 -0.1836 -0.0468 -1.0272
   55DOPE   O14 6979   1.469   5.066   2.773 -0.3080 -0.4177  0.6118
   55DOPE   O11 6980   1.606   5.132   2.968 -0.5638  0.5908  0.4247
   55DOPE   O12 6981   1.599   5.278   2.773  0.0300  0.1564 -0.1159
   55DOPE    C1 6982   1.516   5.186   3.057  0.3576 -1.0289 -0.1418
   55DOPE    HA 6983   1.436   5.113   3.082 -0.2370  0.0234  1.1233
   55DOPE    HB 6984   1.463   5.274   3.015  1.2736 -0.9398 -1.1647
   55DOPE    C2 6985   1.576   5.222   3.189  0.1603 -0.0009  0.5287
   55DOPE    HS 6986   1.645   5.310   3.185 -0.1852  0.2402 -0.4309
   55DOPE   O21 6987   1.643   5.111   3.244 -0.2129  0.4637  0.0499
   55DOPE   C21 6988   1.729   5.121   3.355  0.0577 -1.2709 -0.3579
   55DOPE   O22 6989   1.775   5.227   3.397  0.3425  0.3440  0.0343
   55DOPE   C22 6990   1.749   4.978   3.410  0.0713 -0.1624  1.0949
   55DOPE   H2R 6991   1.859   4.975   3.397  0.2574  2.3949  1.4442
   55DOPE   H2S 6992   1.697   4.904   3.345  0.3169 -0.2780  1.0285
   55DOPE    C3 6993   1.455   5.282   3.268  0.1008  0.3273 -0.7224
   55DOPE    HX 6994   1.374   5.206   3.272  0.4887 -0.0669 -0.1333
   55DOPE    HY 6995   1.408   5.365   3.210  1.1755 -0.7021 -3.1902
   55DOPE   O31 6996   1.494   5.319   3.405  0.2918 -0.0547  0.1109
   55DOPE   C31 6997   1.505   5.453   3.416 -0.1126  0.1027 -0.3416
   55DOPE   O32 6998   1.471   5.538   3.338 -0.6972 -0.1171  0.9460
   55DOPE   C32 6999   1.591   5.487   3.540  0.0352 -0.5696  0.1610
   55DOPE   H2X 7000   1.572   5.410   3.618  1.2000 -1.0914 -0.0441
   55DOPE   H2Y 7001   1.698   5.474   3.511 -0.6557 -2.5717 -1.8384
   55DOPE   C23 7002   1.727   4.971   3.561  0.5567  0.1436 -0.0766
   55DOPE   H3R 7003   1.639   5.032   3.587 -0.3818 -1.5559  0.9337
   55DOPE   H3S 7004   1.806   5.029   3.613  0.1467  0.3558  0.3057
   55DOPE   C24 7005   1.692   4.827   3.597  0.1482  0.2695  0.0532
   55DOPE   H4R 7006   1.771   4.750   3.579  0.5958  0.6096  0.5394
   55DOPE   H4S 7007   1.604   4.812   3.531 -1.0476 -0.5358  1.7595
   55DOPE   C25 7008   1.647   4.804   3.744 -0.3337 -0.1293  0.2383
   55DOPE   H5R 7009   1.613   4.699   3.758 -1.4624 -0.1223 -2.0779
   55DOPE   H5S 7010   1.566   4.873   3.775  1.3119  2.2280 -0.4133
   55DOPE   C26 7011   1.758   4.843   3.844 -0.4688 -0.1934 -0.1165
   55DOPE   H6R 7012   1.715   4.913   3.919  0.1178 -1.1990  1.2065
   55DOPE   H6S 7013   1.836   4.897   3.787 -0.5152 -0.5045 -0.4777
   55DOPE   C27 7014   1.823   4.721   3.914 -0.0016 -0.2913  0.4198
   55DOPE   H7R 7015   1.868   4.664   3.830 -0.8350 -1.2570  0.6049
   55DOPE   H7S 7016   1.749   4.656   3.966  1.0283 -1.0724  0.9404
   55DOPE   C28 7017   1.938   4.772   3.995  0.1072  0.0216 -0.3912
   55DOPE   H8R 7018   2.008   4.821   3.924  0.0665 -1.6712 -1.6882
   55DOPE   H8S 7019   1.990   4.682   4.034 -0.7303 -0.2861  0.0362
   55DOPE   C29 7020   1.894   4.857   4.112  0.0492 -0.0674  0.3352
   55DOPE   H9R 7021   1.793   4.863   4.155 -1.0663 -0.3628 -2.0627
   55DOPE  C210 7022   1.985   4.938   4.158  0.1185 -0.3949  0.6461
   55DOPE  H10R 7023   1.968   4.995   4.251  2.5979 -1.4438  1.8364
   55DOPE  C211 7024   2.123   4.964   4.111  0.0972 -0.1391  0.0767
   55DOPE  H11R 7025   2.126   4.996   4.005 -0.5774 -2.2224 -0.6199
   55DOPE  H11S 7026   2.176   4.867   4.119 -0.8942 -0.5818  1.9657
   55DOPE  C212 7027   2.193   5.064   4.205  0.0730 -0.2063  0.5464
   55DOPE  H12R 7028   2.138   5.161   4.207  1.7281  0.7888 -0.0255
   55DOPE  H12S 7029   2.289   5.095   4.160 -0.1301  0.5255  0.5973
   55DOPE  C213 7030   2.227   5.004   4.335 -0.1994  0.1549  0.0738
   55DOPE  H13R 7031   2.307   4.927   4.330 -0.1155  0.1846  0.8129
   55DOPE  H13S 7032   2.147   4.945   4.385  0.7706 -2.6518 -1.4749
   55DOPE  C214 7033   2.285   5.111   4.423 -0.2124  0.0803 -0.6180
   55DOPE  H14R 7034   2.216   5.198   4.432  0.0584  0.2018  0.4326
   55DOPE  H14S 7035   2.376   5.152   4.375  2.0372 -3.2980  0.4377
   55DOPE  C215 7036   2.321   5.063   4.562  0.1380 -0.2516  0.5165
   55DOPE  H15R 7037   2.393   4.980   4.547 -0.2946 -0.4767 -0.3672
   55DOPE  H15S 7038   2.234   5.027   4.621  0.5645  1.3031  2.1986
   55DOPE  C216 7039   2.389   5.164   4.652 -0.1330 -0.0531 -0.2500
   55DOPE  H16R 7040   2.310   5.235   4.683  0.0228 -0.0100  0.0499
   55DOPE  H16S 7041   2.462   5.229   4.600 -1.7853  2.3091  0.2579
   55DOPE  C217 7042   2.454   5.108   4.781 -0.5882  0.1629 -0.0397
   55DOPE  H17R 7043   2.529   5.031   4.754  1.8395  1.8258  1.5446
   55DOPE  H17S 7044   2.375   5.061   4.842  0.1609  0.0053  0.8298
   55DOPE  C218 7045   2.535   5.220   4.847 -0.0445  0.7140  0.2756
   55DOPE  H18R 7046   2.468   5.309   4.856 -0.8624  0.1024  0.3525
   55DOPE  H18S 7047   2.629   5.246   4.794  0.6688 -1.8732  0.1708
   55DOPE  H18T 7048   2.556   5.181   4.949 -1.7169  1.5798  0.9905
   55DOPE   C33 7049   1.588   5.639   3.574  0.3650 -0.4245 -0.5585
   55DOPE   H3X 7050   1.489   5.686   3.592 -0.9905 -2.5798 -1.9241
   55DOPE   H3Y 7051   1.632   5.691   3.486  2.8912 -0.7803  0.4155
   55DOPE   C34 7052   1.679   5.670   3.693 -0.8273  0.3086  0.3014
   55DOPE   H4X 7053   1.774   5.612   3.683 -0.2463  1.3701 -0.4674
   55DOPE   H4Y 7054   1.715   5.775   3.698  1.3678 -0.4003  0.5573
   55DOPE   C35 7055   1.591   5.645   3.824  0.5348  0.5454  0.1964
   55DOPE   H5X 7056   1.610   5.538   3.848 -0.4150  0.6718  1.6549
   55DOPE   H5Y 7057   1.481   5.660   3.818  0.6894  1.2762 -1.2749
   55DOPE   C36 7058   1.650   5.723   3.942 -0.1666  0.9832  0.8023
   55DOPE   H6X 7059   1.630   5.832   3.929 -1.6282  0.7395  0.8297
   55DOPE   H6Y 7060   1.760   5.706   3.938 -0.6157 -2.6294  0.2996
   55DOPE   C37 7061   1.611   5.672   4.084 -0.8009 -0.1925 -0.1261
   55DOPE   H7X 7062   1.500   5.673   4.088 -0.7800 -0.4018  0.7965
   55DOPE   H7Y 7063   1.642   5.566   4.102  1.1691  0.1278 -1.2662
   55DOPE   C38 7064   1.668   5.754   4.200 -0.8604 -0.5313 -0.2397
   55DOPE   H8X 7065   1.624   5.855   4.209 -0.1156 -0.3120  1.2422
   55DOPE   H8Y 7066   1.777   5.771   4.183 -0.9625  0.9164  0.4676
   55DOPE   C39 7067   1.633   5.679   4.325 -0.4576 -0.3889 -0.2313
   55DOPE   H9X 7068   1.524   5.670   4.338 -0.2752 -0.0831  1.9222
   55DOPE  C310 7069   1.719   5.626   4.412 -0.0086 -0.3916 -0.5385
   55DOPE  H10X 7070   1.682   5.575   4.502  0.4560  1.0984  0.5352
   55DOPE  C311 7071   1.865   5.633   4.395 -0.3364  0.9097  0.2143
   55DOPE  H11X 7072   1.888   5.665   4.291 -0.1765  0.4208  0.0976
   55DOPE  H11Y 7073   1.922   5.707   4.455  0.4889  0.9401 -0.5766
   55DOPE  C312 7074   1.907   5.479   4.410  0.3522  0.0259 -0.3763
   55DOPE  H12X 7075   1.860   5.425   4.325  0.1480  1.1822 -1.0099
   55DOPE  H12Y 7076   1.867   5.430   4.502 -2.5610  0.7348 -1.1723
   55DOPE  C313 7077   2.060   5.454   4.396  0.0802 -0.0688 -0.3418
   55DOPE  H13X 7078   2.084   5.345   4.402 -2.2262 -0.6352 -0.4928
   55DOPE  H13Y 7079   2.102   5.494   4.301  2.8868  0.4173  0.9893
   55DOPE  C314 7080   2.148   5.512   4.519  0.1096 -0.8214 -0.3376
   55DOPE  H14X 7081   2.122   5.443   4.601 -0.2766  0.5148  0.6986
   55DOPE  H14Y 7082   2.108   5.615   4.528 -0.4675 -1.0122 -0.6875
   55DOPE  C315 7083   2.306   5.511   4.504  0.3968  0.7867 -0.2249
   55DOPE  H15X 7084   2.322   5.529   4.395  1.1188  1.5527  0.0039
   55DOPE  H15Y 7085   2.351   5.411   4.518  0.9989  1.0626 -0.1789
   55DOPE  C316 7086   2.395   5.599   4.594 -0.2195 -0.6037  0.3178
   55DOPE  H16X 7087   2.403   5.707   4.572  3.5680 -0.4918  1.4640
   55DOPE  H16Y 7088   2.499   5.560   4.591  0.2992  0.7680 -0.9331
   55DOPE  C317 7089   2.340   5.597   4.737  0.4995 -0.0327  0.3680
   55DOPE  H17X 7090   2.248   5.658   4.747  0.8741  0.7066 -0.4988
   55DOPE  H17Y 7091   2.306   5.497   4.772 -1.9554  0.8645  0.7613
   55DOPE  C318 7092   2.441   5.667   4.842  0.5182  0.2189  0.2549
   55DOPE  H18X 7093   2.535   5.607   4.848 -0.6047 -1.5973  0.5837
   55DOPE  H18Y 7094   2.460   5.771   4.809  0.1351  1.2665  3.0529
   55DOPE  H18Z 7095   2.396   5.673   4.944 -0.1956  1.9619 -0.1374
   56DOPE     N 7096   2.462   6.740   3.112  0.0959  0.5065  0.0246
   56DOPE   HN1 7097   2.443   6.746   3.214 -1.2719 -1.8971 -0.0207
   56DOPE   HN2 7098   2.425   6.646   3.090  0.1557  0.5959 -0.4858
   56DOPE   HN3 7099   2.563   6.751   3.088  0.7099 -3.3458  0.2850
   56DOPE   C12 7100   2.371   6.854   3.054 -0.2144  0.2635 -0.5996
   56DOPE  H12A 7101   2.272   6.835   3.100 -0.8198 -1.0607 -2.3576
   56DOPE  H12B 7102   2.367   6.840   2.944  1.8388 -0.7323 -0.6010
   56DOPE   C11 7103   2.413   7.001   3.077 -0.9769  1.3133 -0.2794
   56DOPE  H11A 7104   2.426   7.018   3.186  1.3852 -1.2513 -0.0698
   56DOPE  H11B 7105   2.327   7.060   3.038 -1.9244 -1.0339 -1.9842
   56DOPE     P 7106   2.557   7.171   2.941 -0.1451 -0.2595  0.3302
   56DOPE   O13 7107   2.442   7.199   2.854 -0.0516 -0.4272 -0.5810
   56DOPE   O14 7108   2.699   7.174   2.894  0.4137  0.6115  0.2287
   56DOPE   O11 7109   2.548   7.278   3.055 -0.8080 -0.1507 -0.2626
   56DOPE   O12 7110   2.537   7.027   3.010  0.7359  0.3100 -0.0250
   56DOPE    C1 7111   2.647   7.301   3.153 -0.3862 -0.5097 -0.3378
   56DOPE    HA 7112   2.649   7.408   3.184 -1.1079 -0.5982  0.0117
   56DOPE    HB 7113   2.752   7.289   3.118  0.3988  1.8453  0.9668
   56DOPE    C2 7114   2.621   7.216   3.283  0.6158 -0.3582  0.4255
   56DOPE    HS 7115   2.629   7.115   3.239  0.4749  0.3199 -1.2365
   56DOPE   O21 7116   2.495   7.246   3.343 -0.2480 -0.3311 -0.0462
   56DOPE   C21 7117   2.455   7.146   3.423 -0.1519 -0.3035 -0.5509
   56DOPE   O22 7118   2.511   7.034   3.432  0.5360 -0.4777 -0.6252
   56DOPE   C22 7119   2.328   7.183   3.502  0.2026 -0.0159  0.2438
   56DOPE   H2R 7120   2.337   7.124   3.596  1.1327 -0.5304 -0.1568
   56DOPE   H2S 7121   2.235   7.169   3.444 -0.5496  1.5390  1.0217
   56DOPE    C3 7122   2.740   7.240   3.380  0.0827  0.2095  0.3310
   56DOPE    HX 7123   2.724   7.345   3.415 -0.5123 -0.0866  0.9971
   56DOPE    HY 7124   2.832   7.250   3.320 -1.2491 -0.7027 -1.9642
   56DOPE   O31 7125   2.747   7.164   3.502 -0.0501  0.5121  0.0737
   56DOPE   C31 7126   2.826   7.053   3.483  0.1064 -0.1106  0.3235
   56DOPE   O32 7127   2.908   7.047   3.396 -0.2890  0.7833  0.0943
   56DOPE   C32 7128   2.810   6.961   3.600 -0.5097  0.4132 -0.0151
   56DOPE   H2X 7129   2.752   6.870   3.573 -0.5212  0.6601 -0.8689
   56DOPE   H2Y 7130   2.910   6.922   3.629 -0.6415 -0.4753 -0.7406
   56DOPE   C23 7131   2.322   7.333   3.547  0.4447 -0.2921  0.2746
   56DOPE   H3R 7132   2.335   7.406   3.465 -0.5957 -0.7288 -0.2945
   56DOPE   H3S 7133   2.404   7.348   3.620  0.4247 -0.0009  0.2364
   56DOPE   C24 7134   2.194   7.362   3.630 -0.5761 -0.1083 -0.4232
   56DOPE   H4R 7135   2.110   7.398   3.566  0.1349  3.4630  0.4333
   56DOPE   H4S 7136   2.208   7.456   3.688 -1.2520  0.7642 -1.6188
   56DOPE   C25 7137   2.163   7.249   3.732 -0.1745  0.0641  0.2482
   56DOPE   H5R 7138   2.239   7.210   3.802 -0.2488 -0.1599  0.2034
   56DOPE   H5S 7139   2.125   7.163   3.673 -2.5131  0.7169  0.6631
   56DOPE   C26 7140   2.043   7.307   3.804  0.5483  0.0073  0.2752
   56DOPE   H6R 7141   1.954   7.317   3.737  0.5792  0.4697  0.2981
   56DOPE   H6S 7142   2.074   7.401   3.855  0.8701  0.1309 -0.1469
   56DOPE   C27 7143   1.996   7.211   3.918 -0.4917  0.6575  0.2488
   56DOPE   H7R 7144   2.061   7.224   4.007  0.5530  2.8016 -0.7836
   56DOPE   H7S 7145   1.990   7.103   3.893  0.6777  0.6878 -0.2200
   56DOPE   C28 7146   1.859   7.261   3.961  0.1774  0.5222 -0.0253
   56DOPE   H8R 7147   1.816   7.167   4.002 -0.5132  0.0522 -1.7376
   56DOPE   H8S 7148   1.787   7.285   3.880 -0.1595  1.4222  0.5281
   56DOPE   C29 7149   1.869   7.374   4.065 -0.3004 -0.5662 -0.2496
   56DOPE   H9R 7150   1.877   7.474   4.020  0.6476 -1.0216 -1.1521
   56DOPE  C210 7151   1.880   7.363   4.197 -0.3125  0.3469 -0.4539
   56DOPE  H10R 7152   1.869   7.461   4.244 -0.5575 -0.1444  0.5477
   56DOPE  C211 7153   1.878   7.240   4.285 -0.3663  0.0287  0.0117
   56DOPE  H11R 7154   1.843   7.158   4.219  2.5455  0.1296 -1.8123
   56DOPE  H11S 7155   1.795   7.250   4.359  0.9075  0.2885  1.4552
   56DOPE  C212 7156   2.017   7.199   4.342 -0.1581 -0.1318  0.2564
   56DOPE  H12R 7157   2.054   7.279   4.410 -1.3304 -0.2400  1.0472
   56DOPE  H12S 7158   2.094   7.187   4.262  2.1185 -2.3906  2.6154
   56DOPE  C213 7159   2.010   7.065   4.421 -0.5965 -0.2919 -0.1863
   56DOPE  H13R 7160   2.111   7.021   4.430  0.2436  1.0894 -2.1655
   56DOPE  H13S 7161   1.943   6.989   4.376 -1.4829  0.8502 -0.8484
   56DOPE  C214 7162   1.954   7.088   4.565 -0.1937 -0.0619 -0.8256
   56DOPE  H14R 7163   1.854   7.133   4.550  0.2135  0.8895 -0.7646
   56DOPE  H14S 7164   2.005   7.168   4.624 -0.5008 -0.0553 -0.5644
   56DOPE  C215 7165   1.964   6.967   4.656  0.2230 -0.1965  0.3946
   56DOPE  H15R 7166   1.903   6.894   4.599  0.2224  0.3189 -0.2817
   56DOPE  H15S 7167   1.922   6.984   4.758 -0.5996  1.4623 -0.1681
   56DOPE  C216 7168   2.109   6.904   4.669 -0.1378  0.4876 -0.5824
   56DOPE  H16R 7169   2.179   6.986   4.697  0.1328  0.8200 -2.1354
   56DOPE  H16S 7170   2.150   6.862   4.574 -0.0042 -0.8023  0.0271
   56DOPE  C217 7171   2.125   6.795   4.780 -0.5156  0.0912 -1.0954
   56DOPE  H17R 7172   2.043   6.721   4.778 -0.3122 -0.1297 -1.3428
   56DOPE  H17S 7173   2.122   6.848   4.878  2.6558 -0.3430 -0.6724
   56DOPE  C218 7174   2.249   6.717   4.755  0.7068 -0.7251  0.1058
   56DOPE  H18R 7175   2.277   6.675   4.854 -1.1021 -0.9630  0.5587
   56DOPE  H18S 7176   2.318   6.795   4.717  0.4734 -0.1415  0.8475
   56DOPE  H18T 7177   2.212   6.640   4.685  1.7450 -1.5262  0.4214
   56DOPE   C33 7178   2.756   7.029   3.729  0.2324 -0.1898 -0.6058
   56DOPE   H3X 7179   2.647   7.009   3.738  0.3986 -0.3634  1.3734
   56DOPE   H3Y 7180   2.777   7.138   3.729 -3.0320  0.5645  0.5527
   56DOPE   C34 7181   2.818   6.971   3.860 -1.0541 -0.4400 -0.0091
   56DOPE   H4X 7182   2.928   6.978   3.849 -0.6578 -3.3848  1.0970
   56DOPE   H4Y 7183   2.780   7.032   3.945 -1.5237  1.7208 -1.6638
   56DOPE   C35 7184   2.793   6.819   3.869  1.0044  0.4034  0.2064
   56DOPE   H5X 7185   2.845   6.777   3.780  1.7474  1.7052  0.0093
   56DOPE   H5Y 7186   2.684   6.798   3.873  1.3621 -1.7726  0.1290
   56DOPE   C36 7187   2.845   6.758   3.997  0.0994  0.7923  0.4120
   56DOPE   H6X 7188   2.806   6.819   4.081  0.2022 -0.8850  1.7369
   56DOPE   H6Y 7189   2.955   6.768   4.003  0.3701 -1.8604  1.5448
   56DOPE   C37 7190   2.818   6.610   4.004 -0.3500  0.0400  1.0274
   56DOPE   H7X 7191   2.711   6.598   3.977 -0.3671  1.2794  0.4903
   56DOPE   H7Y 7192   2.889   6.560   3.933  1.0557  0.3499  2.1599
   56DOPE   C38 7193   2.861   6.541   4.138 -0.2568 -0.0543  0.3532
   56DOPE   H8X 7194   2.969   6.551   4.161  0.0731 -0.0276 -1.1046
   56DOPE   H8Y 7195   2.848   6.432   4.121  1.7740 -0.4206  0.8493
   56DOPE   C39 7196   2.782   6.578   4.253  0.6056 -0.2333  0.2844
   56DOPE   H9X 7197   2.738   6.678   4.249  0.5612 -0.2810 -2.2667
   56DOPE  C310 7198   2.760   6.502   4.362  0.1609  0.2692  0.1474
   56DOPE  H10X 7199   2.700   6.545   4.443 -2.9158  0.5035 -2.0883
   56DOPE  C311 7200   2.827   6.373   4.408  0.4580 -0.0463 -0.0106
   56DOPE  H11X 7201   2.753   6.289   4.403 -0.5295  0.5888  2.6316
   56DOPE  H11Y 7202   2.914   6.352   4.342  1.6588  1.6621  0.9714
   56DOPE  C312 7203   2.888   6.380   4.546 -0.5550  0.1144 -0.3955
   56DOPE  H12X 7204   2.812   6.395   4.626  1.4041  3.2201  1.0758
   56DOPE  H12Y 7205   2.955   6.468   4.558  1.7153 -1.5066 -0.6719
   56DOPE  C313 7206   2.982   6.266   4.587  0.5527 -0.0559 -0.7790
   56DOPE  H13X 7207   2.923   6.173   4.601  0.4162 -0.0523 -1.2909
   56DOPE  H13Y 7208   3.047   6.247   4.498 -1.0919 -0.6253 -1.9140
   56DOPE  C314 7209   3.059   6.299   4.708  0.5256  0.1648  0.1989
   56DOPE  H14X 7210   2.989   6.314   4.792 -0.1558 -0.5966 -0.2150
   56DOPE  H14Y 7211   3.113   6.395   4.693 -2.0829  2.0043  1.8154
   56DOPE  C315 7212   3.164   6.187   4.746  0.3197 -0.7055  0.4777
   56DOPE  H15X 7213   3.239   6.173   4.666 -3.0171 -3.8590 -2.5005
   56DOPE  H15Y 7214   3.098   6.097   4.748  1.1488 -1.3140  0.7498
   56DOPE  C316 7215   3.241   6.210   4.874 -0.1506 -0.2571 -0.0129
   56DOPE  H16X 7216   3.169   6.242   4.953 -0.6761 -1.8673  0.2098
   56DOPE  H16Y 7217   3.307   6.296   4.853 -3.3143  2.3610 -0.0746
   56DOPE  C317 7218   3.320   6.088   4.927  0.1882 -0.2923  0.0382
   56DOPE  H17X 7219   3.253   6.001   4.946 -1.2387  0.5371 -0.8951
   56DOPE  H17Y 7220   3.393   6.060   4.848  0.8112  3.4296 -0.9039
   56DOPE  C318 7221   3.409   6.115   5.055  0.3242  0.3792  0.6697
   56DOPE  H18X 7222   3.480   6.031   5.070 -0.2560 -0.4612 -1.0057
   56DOPE  H18Y 7223   3.466   6.205   5.024  0.4308 -0.0481 -0.4173
   56DOPE  H18Z 7224   3.351   6.140   5.146 -1.1940 -0.1516 -0.1177
   57DOPE     N 7225   0.051   1.518   3.216  0.1105 -0.2381  0.4617
   57DOPE   HN1 7226  -0.014   1.487   3.291  0.6254 -1.0341  0.5825
   57DOPE   HN2 7227   0.143   1.525   3.262  0.0672 -1.5265  0.7840
   57DOPE   HN3 7228   0.009   1.609   3.188  0.6051 -0.8385 -2.6233
   57DOPE   C12 7229   0.065   1.420   3.104  0.0522 -0.2306  0.3329
   57DOPE  H12A 7230   0.122   1.464   3.019  3.1235 -0.6658  2.0286
   57DOPE  H12B 7231  -0.040   1.393   3.079 -0.7631  1.4341  1.7353
   57DOPE   C11 7232   0.141   1.297   3.162  0.2397  0.0787  0.0422
   57DOPE  H11A 7233   0.248   1.323   3.178  0.1148  0.0312  0.9689
   57DOPE  H11B 7234   0.125   1.217   3.086 -1.5710 -0.2253  0.6904
   57DOPE     P 7235   0.120   1.116   3.348  0.2182  0.1955 -0.0932
   57DOPE   O13 7236   0.265   1.113   3.348 -0.1506  0.3994  0.3541
   57DOPE   O14 7237   0.061   1.009   3.272 -0.3082 -0.1918  0.4228
   57DOPE   O11 7238   0.071   1.121   3.493 -0.3893 -0.7871  0.3386
   57DOPE   O12 7239   0.077   1.250   3.284 -0.5438 -0.5251 -0.6335
   57DOPE    C1 7240   0.009   1.237   3.553  0.0019  0.1853  0.0407
   57DOPE    HA 7241  -0.102   1.234   3.549  0.0492 -0.5749 -2.0652
   57DOPE    HB 7242   0.054   1.331   3.514 -0.8835  1.4021  1.7968
   57DOPE    C2 7243   0.042   1.244   3.709 -0.1508  0.0074 -0.3722
   57DOPE    HS 7244   0.151   1.240   3.728 -0.4622 -2.8893  1.3393
   57DOPE   O21 7245  -0.018   1.124   3.771  0.1436 -0.2130  0.1517
   57DOPE   C21 7246   0.030   1.102   3.893 -1.0603  0.5342 -0.2126
   57DOPE   O22 7247   0.123   1.163   3.943 -0.4216  0.2070 -0.4718
   57DOPE   C22 7248  -0.034   0.980   3.956  0.0674  0.1884  0.2988
   57DOPE   H2R 7249  -0.001   0.889   3.903  0.7850 -0.5467  1.9433
   57DOPE   H2S 7250  -0.142   1.004   3.942 -0.9042 -3.3301  0.8888
   57DOPE    C3 7251  -0.007   1.387   3.770  0.4058 -0.4341  0.4110
   57DOPE    HX 7252   0.055   1.456   3.708 -0.0429 -0.4245 -0.0342
   57DOPE    HY 7253   0.019   1.404   3.876 -0.4701  1.2243  0.4002
   57DOPE   O31 7254  -0.144   1.418   3.740  0.1424 -0.6638  0.5421
   57DOPE   C31 7255  -0.230   1.353   3.817 -0.3652  0.0991 -0.1139
   57DOPE   O32 7256  -0.202   1.281   3.909  0.8283  0.1187  0.1939
   57DOPE   C32 7257  -0.362   1.401   3.759 -0.0163 -0.1535  0.1440
   57DOPE   H2X 7258  -0.355   1.509   3.734 -2.0230  0.2492  1.0897
   57DOPE   H2Y 7259  -0.376   1.350   3.661 -1.7009  1.8456 -0.7436
   57DOPE   C23 7260  -0.011   0.973   4.103  0.0317  0.3385 -0.1088
   57DOPE   H3R 7261  -0.046   1.067   4.150 -2.5175 -0.0319 -1.1523
   57DOPE   H3S 7262   0.097   0.971   4.133 -0.0638  1.7800  0.4424
   57DOPE   C24 7263  -0.085   0.853   4.175  0.3185  0.1851 -0.6401
   57DOPE   H4R 7264  -0.047   0.761   4.125 -0.9786  0.3604 -2.0021
   57DOPE   H4S 7265  -0.193   0.872   4.160  0.4125  2.0871  0.7454
   57DOPE   C25 7266  -0.058   0.826   4.328  0.1998 -1.6216  0.6753
   57DOPE   H5R 7267  -0.014   0.919   4.370 -1.2677  0.0945 -1.4013
   57DOPE   H5S 7268   0.019   0.746   4.334  0.5891 -1.2241  1.0348
   57DOPE   C26 7269  -0.186   0.809   4.420  0.5241  0.2933  0.8341
   57DOPE   H6R 7270  -0.251   0.723   4.396  0.8139  0.1992  0.3528
   57DOPE   H6S 7271  -0.245   0.900   4.393  0.0281  0.1771  1.5006
   57DOPE   C27 7272  -0.147   0.796   4.568 -0.0614  0.2103 -0.8145
   57DOPE   H7R 7273  -0.065   0.870   4.578 -2.2336  2.4154  2.6292
   57DOPE   H7S 7274  -0.111   0.692   4.583  1.5585  0.0331 -4.6659
   57DOPE   C28 7275  -0.267   0.817   4.659  0.2551 -0.4924 -0.3179
   57DOPE   H8R 7276  -0.250   0.765   4.756  1.0342  0.1102 -0.1243
   57DOPE   H8S 7277  -0.356   0.768   4.615 -1.2699  0.7160  1.3099
   57DOPE   C29 7278  -0.313   0.959   4.668  0.0415 -0.0991  0.6290
   57DOPE   H9R 7279  -0.380   0.992   4.587 -0.7436 -0.3294  1.1712
   57DOPE  C210 7280  -0.275   1.049   4.755 -0.0072  0.4109  0.0570
   57DOPE  H10R 7281  -0.313   1.152   4.752  2.2271  1.3037 -0.0047
   57DOPE  C211 7282  -0.164   1.037   4.864 -0.5831 -0.0541  0.0227
   57DOPE  H11R 7283  -0.123   1.135   4.897  1.8300 -0.3581 -1.7834
   57DOPE  H11S 7284  -0.078   0.979   4.824 -0.7524 -1.1112  1.1355
   57DOPE  C212 7285  -0.221   0.960   4.981 -0.2095 -0.3918 -0.1252
   57DOPE  H12R 7286  -0.240   0.854   4.952  0.7953  0.1413 -3.1881
   57DOPE  H12S 7287  -0.320   1.007   5.000 -0.9452 -1.4680 -1.1281
   57DOPE  C213 7288  -0.142   0.972   5.109 -0.1032  0.3279  0.5199
   57DOPE  H13R 7289  -0.146   1.081   5.131  1.7664  0.0903  2.2884
   57DOPE  H13S 7290  -0.033   0.951   5.099  0.0656  1.4091 -0.0833
   57DOPE  C214 7291  -0.198   0.885   5.219 -0.1307 -0.6376  0.1955
   57DOPE  H14R 7292  -0.227   0.786   5.177  2.1531 -0.1351 -2.9623
   57DOPE  H14S 7293  -0.283   0.943   5.261  0.2935 -0.5461  0.9475
   57DOPE  C215 7294  -0.103   0.848   5.334 -0.3885 -0.5920  0.9551
   57DOPE  H15R 7295  -0.025   0.783   5.288 -0.8972 -0.9062  0.5325
   57DOPE  H15S 7296  -0.149   0.777   5.405 -0.9892 -1.2807 -0.1025
   57DOPE  C216 7297  -0.043   0.973   5.398  0.2020 -0.3591 -0.3349
   57DOPE  H16R 7298  -0.126   1.028   5.448  1.2332  1.8815 -0.9357
   57DOPE  H16S 7299  -0.000   1.043   5.323 -1.8087 -0.4837 -1.6642
   57DOPE  C217 7300   0.063   0.948   5.505  0.5905  0.1735  0.7691
   57DOPE  H17R 7301   0.146   0.890   5.460  0.8035  1.7809 -1.0370
   57DOPE  H17S 7302   0.023   0.879   5.582 -1.4865 -1.3882 -1.5422
   57DOPE  C218 7303   0.123   1.077   5.570 -0.2521 -0.1272 -0.0888
   57DOPE  H18R 7304   0.189   1.046   5.653  0.6491  1.4062 -0.1975
   57DOPE  H18S 7305   0.036   1.127   5.616  0.0746 -0.6952  1.1724
   57DOPE  H18T 7306   0.166   1.144   5.492 -1.3012 -1.4048 -1.8605
   57DOPE   C33 7307  -0.477   1.374   3.855  0.7834  0.8935 -0.3914
   57DOPE   H3X 7308  -0.460   1.428   3.951 -1.7145  0.7247  0.2176
   57DOPE   H3Y 7309  -0.480   1.267   3.883  0.8082  1.4128  1.7668
   57DOPE   C34 7310  -0.619   1.419   3.801  0.2655  0.7728 -0.2480
   57DOPE   H4X 7311  -0.605   1.525   3.771 -0.1516  0.1796 -2.7676
   57DOPE   H4Y 7312  -0.657   1.355   3.718 -0.4468 -0.4169  0.9472
   57DOPE   C35 7313  -0.732   1.407   3.905 -0.3365 -0.0288 -0.5776
   57DOPE   H5X 7314  -0.697   1.442   4.005 -2.9961 -1.0895  0.8424
   57DOPE   H5Y 7315  -0.756   1.300   3.920  1.5013 -0.2652  1.1066
   57DOPE   C36 7316  -0.850   1.487   3.856  0.2164 -0.0582 -0.4546
   57DOPE   H6X 7317  -0.868   1.440   3.757 -0.7417 -0.1443 -0.2459
   57DOPE   H6Y 7318  -0.828   1.595   3.842 -1.6460  0.1278 -2.5645
   57DOPE   C37 7319  -0.977   1.477   3.941 -0.1926 -0.0015 -0.3909
   57DOPE   H7X 7320  -1.003   1.373   3.970 -0.8743  0.6067  1.2903
   57DOPE   H7Y 7321  -0.950   1.534   4.032  2.5533  0.9123 -1.6678
   57DOPE   C38 7322  -1.104   1.536   3.881 -0.2157  0.0494  0.0252
   57DOPE   H8X 7323  -1.182   1.561   3.957  0.4593  2.4359  0.0159
   57DOPE   H8Y 7324  -1.137   1.464   3.803 -1.5071  1.7055 -1.0302
   57DOPE   C39 7325  -1.083   1.665   3.812  0.0255 -0.7156 -0.2389
   57DOPE   H9X 7326  -1.127   1.678   3.712  0.1924  3.9434  0.0726
   57DOPE  C310 7327  -1.048   1.780   3.870 -0.4174  0.5462 -0.3683
   57DOPE  H10X 7328  -1.032   1.863   3.801  1.6955  1.3761  1.0361
   57DOPE  C311 7329  -1.007   1.804   4.019 -0.5762  0.7164  0.6559
   57DOPE  H11X 7330  -1.045   1.903   4.053 -1.3006  0.4736  0.5811
   57DOPE  H11Y 7331  -1.052   1.728   4.086 -1.7655 -1.3193 -2.2581
   57DOPE  C312 7332  -0.851   1.810   4.044  0.3084 -0.0165 -0.5819
   57DOPE  H12X 7333  -0.804   1.866   3.961  0.1588  1.4608  0.3018
   57DOPE  H12Y 7334  -0.822   1.702   4.049 -0.1768 -0.1497 -0.6444
   57DOPE  C313 7335  -0.816   1.868   4.183 -0.8540 -0.0231 -0.1052
   57DOPE  H13X 7336  -0.855   1.970   4.201  0.2264  0.4730 -0.4778
   57DOPE  H13Y 7337  -0.851   1.804   4.267  0.7623 -1.7561 -0.6618
   57DOPE  C314 7338  -0.658   1.868   4.197  0.1563  0.1913 -0.3317
   57DOPE  H14X 7339  -0.608   1.938   4.126  2.7324 -0.3182  0.8606
   57DOPE  H14Y 7340  -0.626   1.763   4.182  1.3906  0.5605 -0.3767
   57DOPE  C315 7341  -0.615   1.920   4.334  0.0914  0.0005 -0.2437
   57DOPE  H15X 7342  -0.654   1.855   4.416  0.5893  0.4818  0.3883
   57DOPE  H15Y 7343  -0.640   2.028   4.343  1.3820  0.2272  1.1156
   57DOPE  C316 7344  -0.464   1.896   4.345  0.2279 -0.1339 -0.0223
   57DOPE  H16X 7345  -0.408   1.962   4.276  0.5789 -0.5385 -0.1307
   57DOPE  H16Y 7346  -0.441   1.790   4.325  2.8248  0.0436  1.4955
   57DOPE  C317 7347  -0.414   1.923   4.496  0.5107  0.0771  0.9895
   57DOPE  H17X 7348  -0.477   1.873   4.573  0.8325  0.7479  1.7036
   57DOPE  H17Y 7349  -0.312   1.877   4.502  0.4759 -0.2520 -0.4953
   57DOPE  C318 7350  -0.379   2.064   4.521 -0.8058  0.2068  0.3312
   57DOPE  H18X 7351  -0.353   2.081   4.627  1.2003  3.0091 -0.4916
   57DOPE  H18Y 7352  -0.284   2.083   4.466 -0.6219 -0.3772  0.4402
   57DOPE  H18Z 7353  -0.463   2.131   4.492 -2.0010 -0.6405  1.7068
   58DOPE     N 7354   1.955   6.485   3.422 -0.3339 -0.0598  0.6628
   58DOPE   HN1 7355   1.895   6.458   3.502 -2.6811  3.6290  0.3747
   58DOPE   HN2 7356   1.895   6.551   3.367 -3.0084 -1.9333  1.1538
   58DOPE   HN3 7357   1.970   6.399   3.366 -0.3538 -0.1821  0.8451
   58DOPE   C12 7358   2.097   6.524   3.451 -0.0065  0.2147 -0.6174
   58DOPE  H12A 7359   2.146   6.432   3.490 -0.5376 -0.5691 -1.7359
   58DOPE  H12B 7360   2.095   6.608   3.524  1.2377  1.0891 -1.5538
   58DOPE   C11 7361   2.182   6.561   3.326  0.2623  0.5761  0.1705
   58DOPE  H11A 7362   2.281   6.590   3.367  0.8175  0.5161 -1.0769
   58DOPE  H11B 7363   2.137   6.651   3.278 -0.2967  0.3728  0.3130
   58DOPE     P 7364   2.304   6.392   3.161 -0.1659 -0.3188 -0.0835
   58DOPE   O13 7365   2.368   6.496   3.083 -0.0232  0.1400  0.6565
   58DOPE   O14 7366   2.256   6.273   3.090  0.5514 -0.4319 -0.2530
   58DOPE   O11 7367   2.399   6.357   3.285 -0.0301 -0.2453  0.4509
   58DOPE   O12 7368   2.180   6.460   3.232 -0.0532  0.1927 -0.3896
   58DOPE    C1 7369   2.360   6.262   3.381 -0.1697  0.3683  0.0571
   58DOPE    HA 7370   2.353   6.168   3.322  1.9240  0.3583 -0.2339
   58DOPE    HB 7371   2.257   6.286   3.414 -0.1653  0.1862  0.2059
   58DOPE    C2 7372   2.465   6.250   3.499  0.9647  0.3718  0.2718
   58DOPE    HS 7373   2.440   6.173   3.576  0.4645 -1.4262 -1.6031
   58DOPE   O21 7374   2.482   6.374   3.566  0.0207  0.5316 -0.2173
   58DOPE   C21 7375   2.387   6.414   3.642 -0.8072 -0.2478  0.2017
   58DOPE   O22 7376   2.286   6.347   3.669  0.5002 -0.1055  0.5547
   58DOPE   C22 7377   2.436   6.549   3.688 -0.2807 -0.3674  0.4024
   58DOPE   H2R 7378   2.469   6.603   3.597  0.1929  0.4226  1.0268
   58DOPE   H2S 7379   2.529   6.541   3.749  0.6435  2.9078 -0.3997
   58DOPE    C3 7380   2.595   6.202   3.436  0.0045 -0.2017 -0.3176
   58DOPE    HX 7381   2.638   6.278   3.367  2.1251  0.1170  1.2485
   58DOPE    HY 7382   2.570   6.113   3.374 -1.8560 -1.1790  1.7230
   58DOPE   O31 7383   2.696   6.161   3.535 -0.6718 -0.0986 -0.4733
   58DOPE   C31 7384   2.792   6.253   3.573 -0.4095  0.8690 -0.6077
   58DOPE   O32 7385   2.795   6.365   3.530 -0.3486  0.9411 -0.6196
   58DOPE   C32 7386   2.893   6.191   3.652 -0.4759 -0.9868 -0.1634
   58DOPE   H2X 7387   2.868   6.083   3.662 -4.2218 -0.2107  0.2697
   58DOPE   H2Y 7388   2.994   6.205   3.607  0.2327 -1.6248  1.1516
   58DOPE   C23 7389   2.333   6.647   3.749  0.1934 -0.4346 -0.1110
   58DOPE   H3R 7390   2.300   6.622   3.852 -2.7927  1.1756 -0.5679
   58DOPE   H3S 7391   2.244   6.627   3.685 -0.2040 -1.2306  0.6737
   58DOPE   C24 7392   2.368   6.792   3.757 -0.1484  0.6676  0.0413
   58DOPE   H4R 7393   2.352   6.834   3.656  0.6727 -1.9068 -1.2347
   58DOPE   H4S 7394   2.478   6.801   3.766  0.0978 -1.8051  0.1945
   58DOPE   C25 7395   2.303   6.866   3.872  0.4808 -0.5598  0.7980
   58DOPE   H5R 7396   2.204   6.819   3.888  0.3930  0.5656  4.5255
   58DOPE   H5S 7397   2.289   6.970   3.835  0.8115 -0.0025  2.1755
   58DOPE   C26 7398   2.394   6.863   3.997 -0.0871 -0.0046 -0.1001
   58DOPE   H6R 7399   2.490   6.914   3.977 -1.4062  2.6941  0.0537
   58DOPE   H6S 7400   2.411   6.754   4.012 -0.5859 -0.2662 -1.3717
   58DOPE   C27 7401   2.335   6.944   4.110 -0.0820  0.0105  0.0983
   58DOPE   H7R 7402   2.253   6.879   4.146 -1.0491  0.7492 -0.6735
   58DOPE   H7S 7403   2.286   7.032   4.061 -0.8250 -0.6517 -0.3715
   58DOPE   C28 7404   2.418   6.971   4.227  0.1083 -0.2425 -0.1961
   58DOPE   H8R 7405   2.456   6.871   4.259  0.4573 -0.7439 -2.0318
   58DOPE   H8S 7406   2.371   7.004   4.322  1.5183 -1.7704  1.1093
   58DOPE   C29 7407   2.523   7.072   4.192 -0.0389 -0.3753 -0.3237
   58DOPE   H9R 7408   2.501   7.144   4.111  3.5792  0.0579 -1.1189
   58DOPE  C210 7409   2.648   7.077   4.248 -0.1479 -0.0643 -0.7308
   58DOPE  H10R 7410   2.711   7.161   4.214  1.0164 -0.3778  0.5840
   58DOPE  C211 7411   2.698   6.988   4.355 -0.1954 -0.3794  0.2232
   58DOPE  H11R 7412   2.803   6.964   4.331 -0.1943  0.7638 -0.9788
   58DOPE  H11S 7413   2.646   6.890   4.340  2.1416 -1.6197 -0.1645
   58DOPE  C212 7414   2.690   7.049   4.501  0.4894 -0.7514  0.2238
   58DOPE  H12R 7415   2.584   7.050   4.536  0.9870  0.4814  1.8157
   58DOPE  H12S 7416   2.716   7.156   4.487 -2.0831 -0.2210 -1.1081
   58DOPE  C213 7417   2.770   6.988   4.614  0.2304  0.3328  0.5776
   58DOPE  H13R 7418   2.879   6.998   4.596  0.5924 -0.8845  1.8791
   58DOPE  H13S 7419   2.756   6.878   4.602  0.7470  0.5289 -2.5135
   58DOPE  C214 7420   2.728   7.032   4.751  0.0530 -0.0805 -0.3303
   58DOPE  H14R 7421   2.728   7.143   4.759 -0.7518 -0.1978  1.8196
   58DOPE  H14S 7422   2.800   6.990   4.824 -0.7573  2.4933  2.1534
   58DOPE  C215 7423   2.588   6.978   4.793 -0.1506  0.0137  0.5950
   58DOPE  H15R 7424   2.589   6.868   4.777 -0.6178  0.2546 -1.3348
   58DOPE  H15S 7425   2.506   7.013   4.726  0.0402 -0.3874  0.1495
   58DOPE  C216 7426   2.558   7.021   4.934  0.6937  0.1081 -0.2847
   58DOPE  H16R 7427   2.553   7.131   4.953  0.3034  0.1787 -0.7950
   58DOPE  H16S 7428   2.630   6.981   5.009  1.5794  0.1104 -1.1173
   58DOPE  C217 7429   2.416   6.963   4.964 -0.3125  0.1929 -0.1101
   58DOPE  H17R 7430   2.414   6.852   4.952  0.2665  0.1872 -0.1847
   58DOPE  H17S 7431   2.334   6.991   4.894 -1.7216 -3.3762 -0.1277
   58DOPE  C218 7432   2.377   6.985   5.108 -0.3155 -0.3531  0.0410
   58DOPE  H18R 7433   2.447   6.954   5.188 -1.0649  0.8751  1.2156
   58DOPE  H18S 7434   2.283   6.928   5.128  0.5357 -0.4647  5.2028
   58DOPE  H18T 7435   2.359   7.093   5.124  2.0943  0.1661 -0.5103
   58DOPE   C33 7436   2.895   6.253   3.797 -0.3406  0.0271  0.9937
   58DOPE   H3X 7437   2.801   6.248   3.856 -2.0739 -0.0672 -1.6647
   58DOPE   H3Y 7438   2.920   6.360   3.782 -0.6292  0.0286  0.5418
   58DOPE   C34 7439   3.008   6.187   3.878 -0.1559  0.1310  0.4761
   58DOPE   H4X 7440   3.084   6.181   3.796  0.7199 -1.5978  1.3550
   58DOPE   H4Y 7441   3.054   6.251   3.957  0.7950 -0.5768  0.5206
   58DOPE   C35 7442   2.972   6.057   3.952  0.2376  0.0004 -0.5048
   58DOPE   H5X 7443   3.068   6.009   3.981  2.4740  2.4856 -3.2100
   58DOPE   H5Y 7444   2.933   5.981   3.881  0.5897  0.1321 -0.8446
   58DOPE   C36 7445   2.888   6.082   4.077  0.1964 -0.0533 -0.0669
   58DOPE   H6X 7446   2.789   6.117   4.039  0.9976 -0.3467 -2.5951
   58DOPE   H6Y 7447   2.923   6.162   4.146 -0.2883 -0.0645  0.2002
   58DOPE   C37 7448   2.865   5.950   4.159 -0.4166 -0.1241  0.0571
   58DOPE   H7X 7449   2.832   5.871   4.088 -0.6292 -1.4779  1.6026
   58DOPE   H7Y 7450   2.965   5.926   4.201 -0.2747  1.7522  0.9110
   58DOPE   C38 7451   2.757   5.954   4.269  0.2404 -0.6874 -0.5737
   58DOPE   H8X 7452   2.654   5.978   4.236 -0.9080 -2.2267  1.6110
   58DOPE   H8Y 7453   2.784   6.041   4.333  0.8679 -1.7710  0.6845
   58DOPE   C39 7454   2.760   5.824   4.352 -0.1600 -0.0766 -0.1478
   58DOPE   H9X 7455   2.795   5.731   4.305  0.2032  0.2335 -0.5008
   58DOPE  C310 7456   2.716   5.806   4.481  0.1583 -0.6230 -0.0410
   58DOPE  H10X 7457   2.711   5.703   4.519 -2.0950 -0.0298  1.4842
   58DOPE  C311 7458   2.641   5.914   4.565 -0.5554  0.0605  0.4743
   58DOPE  H11X 7459   2.624   6.004   4.502 -0.3916  0.2267  0.6635
   58DOPE  H11Y 7460   2.539   5.883   4.593 -1.3304  0.4732 -1.6974
   58DOPE  C312 7461   2.711   5.953   4.692 -0.2226  1.1512 -0.3717
   58DOPE  H12X 7462   2.810   5.998   4.668  1.6396 -3.1446 -1.8320
   58DOPE  H12Y 7463   2.726   5.852   4.736  1.5683  1.1434 -0.9030
   58DOPE  C313 7464   2.636   6.042   4.795 -0.0291 -0.3999 -0.3928
   58DOPE  H13X 7465   2.530   6.011   4.804  0.1862 -0.8418  0.8736
   58DOPE  H13Y 7466   2.677   6.037   4.898 -1.8386  0.9245  0.4470
   58DOPE  C314 7467   2.641   6.192   4.752 -0.0704  0.2617 -0.7203
   58DOPE  H14X 7468   2.609   6.199   4.646 -0.0656 -1.8075 -0.9025
   58DOPE  H14Y 7469   2.747   6.224   4.752  0.1685 -0.4553  0.5479
   58DOPE  C315 7470   2.557   6.276   4.844  0.1283 -0.1027 -0.1660
   58DOPE  H15X 7471   2.597   6.261   4.946  0.9243 -0.2162 -0.4839
   58DOPE  H15Y 7472   2.452   6.241   4.840 -0.4726  1.1898  2.2860
   58DOPE  C316 7473   2.573   6.427   4.804  0.4080 -0.4307  0.4879
   58DOPE  H16X 7474   2.682   6.449   4.807  0.3757 -0.2906  0.6789
   58DOPE  H16Y 7475   2.528   6.489   4.885  0.6001  0.2732  0.0680
   58DOPE  C317 7476   2.509   6.468   4.670  0.2045  0.4074 -0.5101
   58DOPE  H17X 7477   2.552   6.399   4.594  0.9376 -0.0347  0.2784
   58DOPE  H17Y 7478   2.401   6.446   4.663  0.9432 -3.5511 -2.0389
   58DOPE  C318 7479   2.546   6.610   4.626  0.1108  0.1732 -0.4705
   58DOPE  H18X 7480   2.503   6.691   4.689  0.3117  1.2325 -1.6547
   58DOPE  H18Y 7481   2.655   6.621   4.648  0.3076  2.2542 -2.1880
   58DOPE  H18Z 7482   2.529   6.628   4.518 -0.2671 -0.5107 -0.5323
   59DOPE     N 7483   7.462   7.563   3.242 -0.0647 -0.2451 -0.0363
   59DOPE   HN1 7484   7.440   7.501   3.162  2.4453 -1.6888  0.3049
   59DOPE   HN2 7485   7.390   7.639   3.241 -1.1245 -1.1685 -2.7811
   59DOPE   HN3 7486   7.559   7.594   3.219 -0.0486 -0.3527 -0.1151
   59DOPE   C12 7487   7.465   7.496   3.376 -0.5810  0.4363 -0.1533
   59DOPE  H12A 7488   7.504   7.571   3.448 -0.8117 -0.7410  1.2167
   59DOPE  H12B 7489   7.518   7.399   3.372 -1.6539 -0.2162  1.0136
   59DOPE   C11 7490   7.323   7.462   3.428  1.3485 -0.3081  1.0872
   59DOPE  H11A 7491   7.267   7.554   3.452  1.4601 -0.7396  3.1974
   59DOPE  H11B 7492   7.341   7.421   3.530 -0.3419  1.8359  2.3079
   59DOPE     P 7493   7.260   7.216   3.335 -0.0563  0.1984  0.4389
   59DOPE   O13 7494   7.338   7.188   3.211  0.6075  0.1426  0.1418
   59DOPE   O14 7495   7.124   7.161   3.350  0.1094  0.3459 -0.2532
   59DOPE   O11 7496   7.350   7.183   3.461  0.3391  0.2497 -0.0952
   59DOPE   O12 7497   7.250   7.376   3.338 -0.2778 -0.1077 -0.8134
   59DOPE    C1 7498   7.456   7.087   3.443  0.0519  0.6367  0.7164
   59DOPE    HA 7499   7.543   7.124   3.386 -0.4595  1.4805  0.4614
   59DOPE    HB 7500   7.417   6.997   3.391  2.3564 -0.7201  1.1874
   59DOPE    C2 7501   7.509   7.026   3.580 -0.2982 -0.0451 -0.1089
   59DOPE    HS 7502   7.577   6.939   3.566  0.4591  0.7986 -1.9056
   59DOPE   O21 7503   7.388   6.994   3.656 -0.4295  0.2770  0.4181
   59DOPE   C21 7504   7.330   6.883   3.613 -0.2754 -0.3461  0.3314
   59DOPE   O22 7505   7.378   6.803   3.534  0.0906 -0.0691  0.3073
   59DOPE   C22 7506   7.182   6.885   3.665  0.4286  0.3280 -0.1968
   59DOPE   H2R 7507   7.120   6.853   3.578 -1.2422 -1.8373  1.6532
   59DOPE   H2S 7508   7.160   6.986   3.707 -0.5668  0.6898 -1.5314
   59DOPE    C3 7509   7.574   7.135   3.663 -0.3870  0.5114  0.1378
   59DOPE    HX 7510   7.496   7.214   3.673 -0.9199 -0.0882  0.7919
   59DOPE    HY 7511   7.662   7.173   3.608  1.3154  0.5093  2.7002
   59DOPE   O31 7512   7.610   7.095   3.799  0.4821 -0.3278  0.1712
   59DOPE   C31 7513   7.533   7.127   3.904 -0.3686 -0.7167  0.2466
   59DOPE   O32 7514   7.427   7.187   3.896 -0.3405  0.3203 -0.2816
   59DOPE   C32 7515   7.599   7.076   4.031 -0.1210 -0.4311  0.8355
   59DOPE   H2X 7516   7.621   6.969   4.012  2.7346  0.3449 -0.7901
   59DOPE   H2Y 7517   7.696   7.130   4.040 -0.7361  0.5257  1.9320
   59DOPE   C23 7518   7.165   6.785   3.782 -0.5475  0.6988 -0.2477
   59DOPE   H3R 7519   7.198   6.685   3.747  0.2831  1.3281 -1.3132
   59DOPE   H3S 7520   7.058   6.773   3.808 -0.2429 -3.6677 -0.3031
   59DOPE   C24 7521   7.237   6.828   3.913 -0.4602 -0.2225 -0.4138
   59DOPE   H4R 7522   7.204   6.929   3.945 -3.8043 -1.5086  0.6868
   59DOPE   H4S 7523   7.348   6.819   3.915 -0.2370  1.8117  1.8839
   59DOPE   C25 7524   7.208   6.743   4.030  0.4026 -0.4162 -0.5071
   59DOPE   H5R 7525   7.241   6.638   4.014 -0.7792 -0.7965 -0.5360
   59DOPE   H5S 7526   7.100   6.732   4.050  0.7982 -0.5582  1.8864
   59DOPE   C26 7527   7.271   6.795   4.155 -0.5017 -0.7037  0.0474
   59DOPE   H6R 7528   7.241   6.902   4.164  1.1754 -0.1042 -0.9818
   59DOPE   H6S 7529   7.382   6.789   4.153 -0.3814  0.9187  0.7025
   59DOPE   C27 7530   7.217   6.712   4.274 -0.3622 -0.1406 -0.6318
   59DOPE   H7R 7531   7.245   6.606   4.263 -1.1253 -0.3950 -0.2203
   59DOPE   H7S 7532   7.107   6.726   4.290 -0.6014 -2.0199 -0.4124
   59DOPE   C28 7533   7.277   6.762   4.406  0.6318 -0.5082 -0.2483
   59DOPE   H8R 7534   7.228   6.861   4.425  1.1042 -0.4744  0.9215
   59DOPE   H8S 7535   7.387   6.773   4.406  0.8614 -1.8188 -3.4449
   59DOPE   C29 7536   7.230   6.660   4.514  0.1022 -0.0118  0.2130
   59DOPE   H9R 7537   7.314   6.602   4.556 -0.6965 -0.2278  1.5690
   59DOPE  C210 7538   7.106   6.644   4.571  0.0710 -0.6548  0.3576
   59DOPE  H10R 7539   7.096   6.563   4.645  0.3888  0.5084  1.7248
   59DOPE  C211 7540   6.978   6.729   4.555 -0.4226  0.6427  0.1128
   59DOPE  H11R 7541   6.908   6.660   4.504  1.5060 -1.9403  0.7100
   59DOPE  H11S 7542   6.998   6.820   4.494 -2.2877 -0.3446 -2.1117
   59DOPE  C212 7543   6.915   6.781   4.690 -0.0996  0.5233 -0.4925
   59DOPE  H12R 7544   6.839   6.854   4.655  1.7678  2.0029 -1.6558
   59DOPE  H12S 7545   6.989   6.834   4.754 -1.7715 -0.9495  2.9020
   59DOPE  C213 7546   6.855   6.672   4.777 -0.5619  0.1344  0.0913
   59DOPE  H13R 7547   6.930   6.628   4.847 -1.2410  0.2948  0.9352
   59DOPE  H13S 7548   6.820   6.591   4.710 -2.6495 -0.2825  1.5747
   59DOPE  C214 7549   6.738   6.719   4.867  0.1901 -0.6819  0.2664
   59DOPE  H14R 7550   6.675   6.633   4.898  0.0225  0.0218  1.9766
   59DOPE  H14S 7551   6.674   6.777   4.797  3.1873  0.3747 -1.8248
   59DOPE  C215 7552   6.774   6.798   4.994  0.1781 -0.4112 -0.1090
   59DOPE  H15R 7553   6.673   6.837   5.020 -0.7512 -3.9559  2.4001
   59DOPE  H15S 7554   6.840   6.884   4.967  0.5226 -0.3917  0.7378
   59DOPE  C216 7555   6.843   6.726   5.107 -0.2980 -0.1878 -0.1737
   59DOPE  H16R 7556   6.950   6.709   5.081 -0.1663  0.5521 -0.1479
   59DOPE  H16S 7557   6.807   6.621   5.115 -0.8039 -0.0682 -0.7954
   59DOPE  C217 7558   6.843   6.800   5.241 -0.6124  0.3367 -0.4995
   59DOPE  H17R 7559   6.903   6.743   5.315  0.5939  1.6006 -0.4615
   59DOPE  H17S 7560   6.740   6.813   5.281 -1.2363 -3.0629 -0.7596
   59DOPE  C218 7561   6.904   6.938   5.225  0.4277 -0.5580  0.0168
   59DOPE  H18R 7562   7.000   6.939   5.170 -0.5150  1.2662 -1.7028
   59DOPE  H18S 7563   6.924   6.968   5.331  1.4420  1.0742 -0.5853
   59DOPE  H18T 7564   6.829   7.019   5.211 -1.1437 -1.4929  2.3636
   59DOPE   C33 7565   7.506   7.098   4.155  0.1905 -0.4541  0.2323
   59DOPE   H3X 7566   7.411   7.046   4.132  0.6162 -1.5063  0.7998
   59DOPE   H3Y 7567   7.479   7.206   4.166 -3.9836 -1.3512  0.4924
   59DOPE   C34 7568   7.567   7.045   4.280  0.1960  0.0430 -0.2176
   59DOPE   H4X 7569   7.494   7.034   4.363  0.2815 -0.6220 -0.2277
   59DOPE   H4Y 7570   7.597   6.940   4.258  0.5185  0.4463 -1.8496
   59DOPE   C35 7571   7.677   7.133   4.346 -0.3181 -0.8701  0.7426
   59DOPE   H5X 7572   7.636   7.235   4.358 -1.8896 -0.6684 -4.0025
   59DOPE   H5Y 7573   7.764   7.136   4.277  0.4350 -1.4387  1.6496
   59DOPE   C36 7574   7.741   7.085   4.472 -0.0282  0.1996 -0.0400
   59DOPE   H6X 7575   7.838   7.137   4.490  0.8260 -0.9222 -1.2343
   59DOPE   H6Y 7576   7.769   6.978   4.473  0.5659  0.3358  1.7166
   59DOPE   C37 7577   7.648   7.108   4.598  0.2936 -0.0669 -0.0264
   59DOPE   H7X 7578   7.605   7.209   4.582  0.3887 -0.3693 -2.7703
   59DOPE   H7Y 7579   7.575   7.025   4.599  0.5363 -0.2830  0.0653
   59DOPE   C38 7580   7.723   7.106   4.729  0.0412 -0.7520  0.2778
   59DOPE   H8X 7581   7.799   7.187   4.739 -0.4788 -0.5476  4.7047
   59DOPE   H8Y 7582   7.775   7.008   4.735 -0.2864 -0.8519  2.1823
   59DOPE   C39 7583   7.627   7.117   4.845  0.4036  0.0190 -0.9438
   59DOPE   H9X 7584   7.542   7.184   4.829 -1.0542 -0.6500  2.8499
   59DOPE  C310 7585   7.635   7.039   4.955 -0.3880 -1.3198  0.8098
   59DOPE  H10X 7586   7.559   7.051   5.034  0.8504 -0.3847  1.9092
   59DOPE  C311 7587   7.741   6.942   4.988 -0.0377 -0.5203 -0.1441
   59DOPE  H11X 7588   7.836   6.960   4.932 -0.0331 -1.9112 -0.6269
   59DOPE  H11Y 7589   7.770   6.972   5.091  0.2382 -0.5331 -0.2152
   59DOPE  C312 7590   7.686   6.798   4.999 -0.1623 -0.3506 -0.3100
   59DOPE  H12X 7591   7.599   6.787   5.068 -0.3374 -1.0812 -0.6383
   59DOPE  H12Y 7592   7.763   6.737   5.052 -0.2045 -0.1774 -0.0489
   59DOPE  C313 7593   7.669   6.725   4.862  0.4296 -0.3622 -0.4196
   59DOPE  H13X 7594   7.596   6.791   4.810  0.1212 -0.4669 -0.1259
   59DOPE  H13Y 7595   7.772   6.737   4.821  0.5152 -1.1714 -0.4502
   59DOPE  C314 7596   7.613   6.587   4.872 -1.4381  0.1106  0.4975
   59DOPE  H14X 7597   7.515   6.590   4.924 -0.0175  2.5345  3.3226
   59DOPE  H14Y 7598   7.671   6.523   4.941 -2.8269 -1.4490  0.2816
   59DOPE  C315 7599   7.609   6.526   4.733 -0.5692 -0.2055  0.0548
   59DOPE  H15X 7600   7.709   6.528   4.684 -0.2142  0.5667  0.7923
   59DOPE  H15Y 7601   7.540   6.594   4.677  0.1626 -0.3883 -1.0988
   59DOPE  C316 7602   7.549   6.382   4.722 -0.6129 -0.2888 -0.1441
   59DOPE  H16X 7603   7.444   6.393   4.755 -0.9172 -0.2544 -1.0888
   59DOPE  H16Y 7604   7.605   6.312   4.789  1.1982  2.7158  1.7015
   59DOPE  C317 7605   7.551   6.322   4.581  0.2829 -0.2215  0.2397
   59DOPE  H17X 7606   7.485   6.379   4.512 -1.1800 -0.4771  1.3919
   59DOPE  H17Y 7607   7.652   6.336   4.537 -0.7415  1.2625 -1.8072
   59DOPE  C318 7608   7.508   6.176   4.574 -0.0190  0.6627 -0.4988
   59DOPE  H18X 7609   7.398   6.159   4.580 -0.2541  1.7138 -1.5846
   59DOPE  H18Y 7610   7.549   6.137   4.479  0.9874  0.0564  0.1680
   59DOPE  H18Z 7611   7.564   6.123   4.654 -0.3180 -0.2872 -0.9074
   60DOPE     N 7612   1.910   5.983   2.892  0.2924  0.1361 -0.2234
   60DOPE   HN1 7613   1.813   6.016   2.911  0.8951  0.4926  2.7234
   60DOPE   HN2 7614   1.983   6.054   2.912  0.4403  0.1669 -0.8686
   60DOPE   HN3 7615   1.911   5.956   2.792  2.7610  0.7175 -0.4041
   60DOPE   C12 7616   1.930   5.855   2.978 -0.4159  0.2882 -0.1559
   60DOPE  H12A 7617   2.038   5.829   2.979  0.0610  1.9931  2.5102
   60DOPE  H12B 7618   1.859   5.779   2.940 -1.5604 -0.0280  2.4117
   60DOPE   C11 7619   1.911   5.888   3.133 -0.1065  0.0264  0.8629
   60DOPE  H11A 7620   1.965   5.809   3.190 -2.6812 -2.0033  0.6554
   60DOPE  H11B 7621   1.801   5.877   3.142 -0.6560  3.5439 -0.0458
   60DOPE     P 7622   1.847   6.131   3.212  0.1490 -0.0952 -0.0709
   60DOPE   O13 7623   1.749   6.143   3.096 -0.2847  0.5320 -0.3399
   60DOPE   O14 7624   1.925   6.252   3.251  0.5896 -0.5953  0.3115
   60DOPE   O11 7625   1.763   6.081   3.340  0.0659  0.0071  0.4389
   60DOPE   O12 7626   1.951   6.018   3.168  0.4178 -0.3965  0.2173
   60DOPE    C1 7627   1.825   5.997   3.435  0.3817 -0.2907  0.0565
   60DOPE    HA 7628   1.913   5.938   3.402 -0.9099 -1.0867 -2.1821
   60DOPE    HB 7629   1.748   5.922   3.463  0.1690 -0.0902  0.0127
   60DOPE    C2 7630   1.852   6.069   3.572 -0.3373  0.4304 -0.6572
   60DOPE    HS 7631   1.855   5.997   3.656  2.4352 -1.3383 -2.0905
   60DOPE   O21 7632   1.763   6.181   3.592  0.5837 -0.4157 -0.5453
   60DOPE   C21 7633   1.646   6.126   3.637 -0.0646 -0.0517 -0.5182
   60DOPE   O22 7634   1.622   6.008   3.661  0.8579  0.2269  0.1158
   60DOPE   C22 7635   1.538   6.224   3.673  0.0138 -0.5069  0.1262
   60DOPE   H2R 7636   1.455   6.178   3.730 -0.5047  0.7059  0.3866
   60DOPE   H2S 7637   1.502   6.263   3.576 -1.1184 -0.2546  0.6358
   60DOPE    C3 7638   1.994   6.114   3.582  0.0117 -0.7484  0.3708
   60DOPE    HX 7639   2.015   6.196   3.509  1.2168 -0.9549  0.4623
   60DOPE    HY 7640   2.049   6.022   3.554 -0.5300 -1.4751  1.6034
   60DOPE   O31 7641   2.033   6.162   3.716 -0.1213  0.0904  0.6661
   60DOPE   C31 7642   1.999   6.278   3.754 -0.5433 -0.0396  0.6079
   60DOPE   O32 7643   1.965   6.373   3.682  0.2547 -0.6052 -0.3175
   60DOPE   C32 7644   2.037   6.295   3.902  0.0345 -0.5306 -0.0807
   60DOPE   H2X 7645   2.147   6.310   3.896  0.2423 -1.4142  1.1374
   60DOPE   H2Y 7646   1.982   6.385   3.937 -1.6655 -1.7397  0.4801
   60DOPE   C23 7647   1.585   6.338   3.765  0.1034  0.2004 -0.4900
   60DOPE   H3R 7648   1.664   6.403   3.722  2.1908 -1.8670  0.0087
   60DOPE   H3S 7649   1.627   6.295   3.859 -4.3259  0.5603  1.9169
   60DOPE   C24 7650   1.469   6.426   3.814  0.3193  0.5557  0.4230
   60DOPE   H4R 7651   1.380   6.363   3.834  1.3409 -0.7057  1.2085
   60DOPE   H4S 7652   1.425   6.471   3.722 -0.0669 -0.0169  0.3227
   60DOPE   C25 7653   1.493   6.531   3.925 -0.2941 -0.0867 -1.0725
   60DOPE   H5R 7654   1.400   6.590   3.938 -1.4196 -2.1138  0.9187
   60DOPE   H5S 7655   1.584   6.591   3.906  0.3920  0.0464  2.1046
   60DOPE   C26 7656   1.498   6.461   4.063  0.1813 -0.3260 -0.2236
   60DOPE   H6R 7657   1.564   6.373   4.050  1.1109  0.2667  0.4191
   60DOPE   H6S 7658   1.403   6.411   4.094  0.8878 -1.9485 -0.5792
   60DOPE   C27 7659   1.556   6.549   4.173  0.6037 -0.0038 -0.0578
   60DOPE   H7R 7660   1.651   6.593   4.136  0.9672 -0.6913  0.0336
   60DOPE   H7S 7661   1.586   6.477   4.252  0.4832 -0.5475 -0.5027
   60DOPE   C28 7662   1.473   6.659   4.234  0.6998 -0.1068 -0.2003
   60DOPE   H8R 7663   1.373   6.623   4.266  0.4233  1.2851  0.5861
   60DOPE   H8S 7664   1.450   6.737   4.159  0.7958  0.7193  0.6081
   60DOPE   C29 7665   1.540   6.723   4.353  0.5718 -0.3939  0.2778
   60DOPE   H9R 7666   1.582   6.651   4.425  1.9328  0.2112  0.1158
   60DOPE  C210 7667   1.588   6.847   4.364  0.3997 -0.4044  0.1240
   60DOPE  H10R 7668   1.637   6.867   4.461  2.3241  1.6886 -1.2029
   60DOPE  C211 7669   1.569   6.973   4.284  0.6990  0.0159 -0.4103
   60DOPE  H11R 7670   1.525   6.958   4.183  1.1944 -2.4429 -0.3116
   60DOPE  H11S 7671   1.674   6.996   4.259  1.2464 -1.1753  0.6485
   60DOPE  C212 7672   1.502   7.090   4.358 -0.0595  0.0895  0.0805
   60DOPE  H12R 7673   1.501   7.174   4.285  2.7236  0.6839  0.6158
   60DOPE  H12S 7674   1.565   7.123   4.443 -0.5898  1.3582  0.0070
   60DOPE  C213 7675   1.351   7.065   4.389 -0.3908 -0.7940  0.6475
   60DOPE  H13R 7676   1.305   7.155   4.436 -0.7443 -1.1678  1.0276
   60DOPE  H13S 7677   1.333   6.974   4.450  0.0628 -1.5986 -0.3947
   60DOPE  C214 7678   1.272   7.032   4.260 -0.2878 -0.0006  0.0501
   60DOPE  H14R 7679   1.281   6.924   4.235 -1.4158 -0.4567  1.4594
   60DOPE  H14S 7680   1.300   7.101   4.178  1.5817  1.5346  1.8624
   60DOPE  C215 7681   1.126   7.059   4.274 -0.0500  0.8752  0.0781
   60DOPE  H15R 7682   1.089   6.993   4.356 -0.7585 -0.3986 -1.2210
   60DOPE  H15S 7683   1.065   7.024   4.188 -0.8615  0.8832  0.6463
   60DOPE  C216 7684   1.093   7.206   4.281  0.0546  0.1171 -0.0200
   60DOPE  H16R 7685   1.149   7.259   4.200 -0.2775 -1.2658 -1.2040
   60DOPE  H16S 7686   1.118   7.245   4.382 -0.3457  1.3110 -0.3646
   60DOPE  C217 7687   0.939   7.229   4.274  0.1447  0.3842 -0.1943
   60DOPE  H17R 7688   0.882   7.184   4.358 -0.4098 -0.8289 -1.1900
   60DOPE  H17S 7689   0.904   7.178   4.182 -1.4064  1.1164 -0.0479
   60DOPE  C218 7690   0.888   7.373   4.273  0.2847  0.0299  0.3914
   60DOPE  H18R 7691   0.915   7.425   4.367  1.4370 -0.0535  0.1152
   60DOPE  H18S 7692   0.779   7.371   4.250  0.2334  0.3548  0.6012
   60DOPE  H18T 7693   0.934   7.424   4.185 -0.0028  1.3755  0.9859
   60DOPE   C33 7694   2.005   6.175   3.987  0.3985 -0.1417  0.0021
   60DOPE   H3X 7695   2.048   6.205   4.085  1.0937 -0.9981 -0.0297
   60DOPE   H3Y 7696   2.049   6.076   3.964 -1.3611 -0.4002 -2.7477
   60DOPE   C34 7697   1.850   6.152   3.998 -0.0580  0.3279  0.2595
   60DOPE   H4X 7698   1.799   6.251   3.991  1.2586  0.9402 -1.9871
   60DOPE   H4Y 7699   1.806   6.094   3.914  0.5435  1.4739 -0.8843
   60DOPE   C35 7700   1.822   6.083   4.132  0.7212 -0.0066  0.5121
   60DOPE   H5X 7701   1.901   6.011   4.165  0.6867 -0.1355  0.3159
   60DOPE   H5Y 7702   1.729   6.028   4.109 -0.3322  2.5316 -1.8105
   60DOPE   C36 7703   1.778   6.184   4.231  0.2231 -0.4032 -0.1639
   60DOPE   H6X 7704   1.698   6.249   4.190  0.2379 -0.6280 -0.5536
   60DOPE   H6Y 7705   1.863   6.254   4.244 -1.1127  1.9557 -2.9371
   60DOPE   C37 7706   1.718   6.127   4.363 -0.2749  0.1819  0.8166
   60DOPE   H7X 7707   1.676   6.216   4.415  1.8219  2.7137 -1.4634
   60DOPE   H7Y 7708   1.631   6.063   4.340  1.6414 -2.0107 -0.7371
   60DOPE   C38 7709   1.817   6.057   4.458 -0.2638 -0.8498  0.0718
   60DOPE   H8X 7710   1.886   6.130   4.506  0.8542 -1.4055 -0.6627
   60DOPE   H8Y 7711   1.876   5.981   4.404 -1.2024 -1.1617 -0.5374
   60DOPE   C39 7712   1.733   5.996   4.565  0.6187  0.1361 -0.3992
   60DOPE   H9X 7713   1.671   5.911   4.531  0.6020 -0.1155  0.2461
   60DOPE  C310 7714   1.705   6.044   4.688  0.0437 -0.1825  0.1868
   60DOPE  H10X 7715   1.652   5.987   4.766  0.3837 -1.0258 -0.1921
   60DOPE  C311 7716   1.757   6.175   4.740 -1.1191 -0.0867 -0.4611
   60DOPE  H11X 7717   1.864   6.190   4.712 -2.0128  1.1576 -3.6785
   60DOPE  H11Y 7718   1.712   6.264   4.691 -0.0531  0.5768 -0.2748
   60DOPE  C312 7719   1.734   6.198   4.885  0.4502 -0.2152  0.0591
   60DOPE  H12X 7720   1.632   6.175   4.921 -0.2241  1.3176 -0.7548
   60DOPE  H12Y 7721   1.744   6.307   4.904  1.2759 -0.6242  2.1982
   60DOPE  C313 7722   1.832   6.125   4.977 -0.2907 -0.5232  0.4844
   60DOPE  H13X 7723   1.862   6.022   4.949  2.0178 -0.1175  1.2571
   60DOPE  H13Y 7724   1.930   6.177   4.967  0.0899 -1.5073 -1.3379
   60DOPE  C314 7725   1.784   6.128   5.122 -0.3698 -1.0281 -0.1769
   60DOPE  H14X 7726   1.737   6.228   5.132  1.6880  0.2075 -1.8938
   60DOPE  H14Y 7727   1.873   6.135   5.189 -0.9068 -0.2685  0.4822
   60DOPE  C315 7728   1.693   6.017   5.168 -0.3527 -0.0912  0.2748
   60DOPE  H15X 7729   1.750   5.923   5.149 -0.1865 -0.6242  3.0532
   60DOPE  H15Y 7730   1.603   6.018   5.103 -0.0978  2.6934 -0.1549
   60DOPE  C316 7731   1.673   6.027   5.315  0.1928  0.1666 -0.1762
   60DOPE  H16X 7732   1.615   6.121   5.326 -0.8540 -0.5381  0.5207
   60DOPE  H16Y 7733   1.771   6.053   5.360  0.1662  0.0768 -0.0666
   60DOPE  C317 7734   1.600   5.914   5.391  0.1295 -0.8685 -0.3745
   60DOPE  H17X 7735   1.670   5.829   5.405  1.0832 -0.0200  0.0829
   60DOPE  H17Y 7736   1.576   5.954   5.491 -2.3682 -2.2945 -0.3283
   60DOPE  C318 7737   1.475   5.851   5.333  0.1101 -0.2176 -0.0053
   60DOPE  H18X 7738   1.453   5.757   5.388  2.4377 -0.4628  0.6295
   60DOPE  H18Y 7739   1.388   5.920   5.343  0.2375 -0.4361  3.7599
   60DOPE  H18Z 7740   1.490   5.818   5.228  2.5812  1.7693 -0.3930
   6123SM     N 7741   4.846   4.163   7.479  0.0234 -0.3103  0.0514
   6123SM   C15 7742   4.936   4.052   7.518  0.2070 -0.2236  0.1607
   6123SM  H15A 7743   5.012   4.088   7.585  0.5350 -0.4588 -0.0827
   6123SM  H15B 7744   4.982   3.991   7.441 -0.7308  0.0956 -0.6808
   6123SM  H15C 7745   4.871   3.992   7.580 -0.0098  0.5235  0.6713
   6123SM   C14 7746   4.734   4.103   7.400  0.3749 -0.2466 -0.2801
   6123SM  H14A 7747   4.692   4.017   7.448 -0.6407  0.6332  0.4590
   6123SM  H14B 7748   4.768   4.083   7.300 -2.4018  0.4015 -1.4362
   6123SM  H14C 7749   4.651   4.169   7.381 -1.0962 -1.4364  1.6864
   6123SM   C13 7750   4.795   4.236   7.600 -0.4039 -0.2252 -0.3538
   6123SM  H13A 7751   4.721   4.298   7.550 -1.3219 -2.2586 -1.6434
   6123SM  H13B 7752   4.869   4.293   7.654 -2.1967  0.4384  1.5196
   6123SM  H13C 7753   4.748   4.171   7.672 -1.2664 -0.8500 -1.4526
   6123SM   C12 7754   4.925   4.261   7.400  0.2777  0.0965  0.8709
   6123SM  H12A 7755   5.007   4.302   7.458 -0.4617  0.1143  1.9303
   6123SM  H12B 7756   4.863   4.349   7.387 -1.4619 -1.1134  0.6446
   6123SM   C11 7757   4.972   4.227   7.259  0.5789  0.5912  0.5517
   6123SM  H11A 7758   5.009   4.122   7.260 -2.1412 -0.4416 -0.0708
   6123SM  H11B 7759   5.050   4.300   7.227 -0.1641  1.1868  0.0846
   6123SM     P 7760   4.796   4.366   7.119 -0.1817 -0.5759 -0.1285
   6123SM   O13 7761   4.661   4.327   7.077  0.4186  0.3116  0.4897
   6123SM   O14 7762   4.800   4.465   7.230  0.2851 -0.4181  0.1424
   6123SM   O11 7763   4.872   4.434   6.998 -0.3242  0.3128 -0.0837
   6123SM   O12 7764   4.869   4.235   7.162 -0.5738 -0.2563  0.0210
   6123SM   C1S 7765   4.932   4.335   6.907 -0.1346 -0.0056 -0.4807
   6123SM   H1S 7766   4.883   4.236   6.904  1.7654 -1.0170 -0.1989
   6123SM   H1T 7767   5.042   4.324   6.924 -0.4367 -3.4403 -0.0544
   6123SM    NF 7768   4.962   4.279   6.670  1.0013  0.4924  0.4149
   6123SM   HNF 7769   5.046   4.288   6.617  0.5817  1.7257 -0.0501
   6123SM   C2S 7770   4.914   4.380   6.764 -0.6284  0.5943  0.8935
   6123SM   H2S 7771   4.805   4.390   6.744 -0.0849  1.0497 -2.2776
   6123SM   C3S 7772   4.968   4.524   6.735  0.1535 -0.1478 -0.3744
   6123SM   H3S 7773   5.078   4.513   6.743  0.0381  0.0833  2.3152
   6123SM    O3 7774   4.941   4.620   6.834  0.0922 -0.1127  0.0978
   6123SM   HO3 7775   4.916   4.566   6.909  0.5430 -1.4056 -0.6571
   6123SM   C4S 7776   4.931   4.578   6.603 -0.2970 -0.2185  0.3348
   6123SM   H4S 7777   4.827   4.613   6.598  0.0411  0.7308 -0.2779
   6123SM   C5S 7778   5.012   4.605   6.498 -0.1354 -0.6541 -0.0579
   6123SM   H5S 7779   5.113   4.561   6.493 -0.2501 -0.9650  0.3192
   6123SM   C6S 7780   4.963   4.684   6.379 -0.8716  0.5180 -0.5734
   6123SM   H6S 7781   5.047   4.745   6.338  1.7987 -0.3082  3.1533
   6123SM   H6T 7782   4.889   4.760   6.412 -0.2956 -0.2389  2.7959
   6123SM   C7S 7783   4.902   4.585   6.280  0.1470 -0.7635 -0.6346
   6123SM   H7S 7784   4.800   4.562   6.318 -0.1546  0.5232 -0.6001
   6123SM   H7T 7785   4.963   4.492   6.280 -0.6431 -1.2981 -0.3696
   6123SM   C8S 7786   4.898   4.647   6.141 -0.7665 -0.0895 -0.4999
   6123SM   H8S 7787   5.000   4.644   6.098 -0.5296 -3.4123  0.0213
   6123SM   H8T 7788   4.859   4.751   6.149  1.1963  0.7564 -1.2817
   6123SM   C9S 7789   4.806   4.583   6.035  0.4111  0.3855 -0.3357
   6123SM   H9S 7790   4.699   4.584   6.066  0.3405 -0.2583 -0.5472
   6123SM   H9T 7791   4.821   4.474   6.027  1.4296  0.5034 -0.0529
   6123SM  C10S 7792   4.829   4.658   5.903  0.1192  0.4022 -0.1215
   6123SM  H10S 7793   4.938   4.660   5.885  0.7507 -1.3690  2.7701
   6123SM  H10T 7794   4.801   4.763   5.923  0.9191  0.6454 -0.2401
   6123SM  C11S 7795   4.747   4.591   5.789 -0.4636 -0.5683  0.3060
   6123SM  H11S 7796   4.651   4.644   5.807  0.6909  0.9250  2.5216
   6123SM  H11T 7797   4.744   4.480   5.798 -2.1580 -0.5726  0.0760
   6123SM  C12S 7798   4.804   4.638   5.658 -0.1851  0.1927 -0.0991
   6123SM  H12S 7799   4.836   4.744   5.658 -0.9081  0.4163 -0.5753
   6123SM  H12T 7800   4.728   4.639   5.576 -0.9561  0.8384  0.6135
   6123SM  C13S 7801   4.920   4.545   5.613  0.3441  0.1075  0.0398
   6123SM  H13S 7802   4.887   4.440   5.624  2.9691 -0.8653 -0.5434
   6123SM  H13T 7803   5.012   4.562   5.674  0.6061 -0.5660 -0.1527
   6123SM  C14S 7804   4.969   4.569   5.473  0.0295 -0.1442 -0.3492
   6123SM  H14S 7805   4.879   4.548   5.410 -0.2527  1.1493 -0.4068
   6123SM  H14T 7806   5.048   4.497   5.443  0.4647 -0.4862  1.5106
   6123SM  C15S 7807   5.013   4.716   5.455  0.2024 -0.1393 -0.0873
   6123SM  H15S 7808   5.093   4.745   5.526 -0.7079  0.3681  0.7432
   6123SM  H15T 7809   4.926   4.782   5.474 -0.4322 -1.4610  1.8712
   6123SM  C16S 7810   5.064   4.742   5.313  0.3395  0.2119 -0.1865
   6123SM  H16S 7811   4.981   4.714   5.245  0.4346 -0.7012  0.0700
   6123SM  H16T 7812   5.153   4.676   5.299  0.2576  0.3109 -1.2852
   6123SM  C17S 7813   5.084   4.894   5.299  0.1925  0.7380 -0.4755
   6123SM  H17S 7814   4.993   4.952   5.326  1.2366  2.8915 -1.3238
   6123SM  H17T 7815   5.100   4.899   5.189  1.3176  0.2359 -0.3497
   6123SM  C18S 7816   5.198   4.955   5.371  0.2882 -0.5519 -0.7386
   6123SM  H18S 7817   5.295   4.907   5.346 -0.1935 -0.7785 -2.2883
   6123SM  H18T 7818   5.182   4.956   5.481  0.7537  0.1708 -0.6715
   6123SM  H18U 7819   5.201   5.062   5.340 -2.1385 -0.2345 -0.0658
   6123SM   C1F 7820   4.888   4.171   6.635 -0.0824 -0.0601  0.5506
   6123SM    OF 7821   4.791   4.137   6.703 -0.6053  0.2518 -0.1250
   6123SM   C2F 7822   4.925   4.099   6.510 -0.2875  0.0140  0.3162
   6123SM   H2F 7823   4.945   3.999   6.553 -1.0037  0.3451  1.4706
   6123SM   H2G 7824   5.012   4.149   6.462 -1.1406  0.3743 -0.9201
   6123SM   C3F 7825   4.806   4.111   6.406 -0.2143 -0.1945 -0.8130
   6123SM   H3F 7826   4.711   4.087   6.458  1.1441  1.5838  2.8931
   6123SM   H3G 7827   4.831   4.047   6.319  0.3304 -0.0795 -0.7456
   6123SM   C4F 7828   4.797   4.259   6.351 -0.2620 -0.7215 -0.3620
   6123SM   H4F 7829   4.891   4.284   6.299  0.8433 -0.0046  1.8683
   6123SM   H4G 7830   4.784   4.328   6.437  0.7665 -0.2670 -0.5631
   6123SM   C5F 7831   4.687   4.287   6.238  0.5011 -0.0002 -0.1971
   6123SM   H5F 7832   4.713   4.207   6.166 -2.0118  1.6313 -3.1581
   6123SM   H5G 7833   4.714   4.383   6.188 -1.3289  1.1230  0.8685
   6123SM   C6F 7834   4.543   4.305   6.287 -0.4359  0.1637 -0.9013
   6123SM   H6F 7835   4.547   4.400   6.344  0.2857 -0.5119  0.1992
   6123SM   H6G 7836   4.521   4.231   6.367 -0.3660  0.5968 -0.4783
   6123SM   C7F 7837   4.438   4.298   6.179 -0.0923 -1.0533  0.3683
   6123SM   H7F 7838   4.344   4.310   6.236 -2.0293 -5.1835 -1.5716
   6123SM   H7G 7839   4.423   4.206   6.120 -0.8771 -0.2250 -0.7633
   6123SM   C8F 7840   4.454   4.403   6.063  0.4325 -0.3005  0.2755
   6123SM   H8F 7841   4.545   4.374   6.006 -0.2480 -0.2025 -0.8760
   6123SM   H8G 7842   4.477   4.503   6.104  2.8379 -0.3534 -0.7938
   6123SM   C9F 7843   4.328   4.401   5.970 -0.7320  0.1709  0.2405
   6123SM   H9F 7844   4.232   4.419   6.025 -2.4357 -0.5493 -2.3081
   6123SM   H9G 7845   4.317   4.294   5.939 -1.7854 -0.6878  3.1683
   6123SM  C10F 7846   4.338   4.489   5.844  0.2129  0.5329  0.3543
   6123SM  H10F 7847   4.382   4.584   5.882  2.0902  0.2060 -0.8418
   6123SM  H10G 7848   4.232   4.503   5.813  0.6332  2.8455 -0.2383
   6123SM  C11F 7849   4.419   4.435   5.723 -0.2715  0.0344  0.1374
   6123SM  H11F 7850   4.377   4.335   5.696  0.9957 -0.1053 -1.4164
   6123SM  H11G 7851   4.524   4.415   5.751  0.5899  0.4286 -2.5385
   6123SM  C12F 7852   4.416   4.528   5.600  0.2038 -0.1832  0.3503
   6123SM  H12F 7853   4.477   4.621   5.609 -0.0855  0.0535 -0.0961
   6123SM  H12G 7854   4.314   4.572   5.597  0.1149 -0.3852  0.3846
   6123SM  C13F 7855   4.449   4.465   5.462 -1.0626  0.0964  0.0950
   6123SM  H13F 7856   4.429   4.549   5.392 -0.8980 -0.0090 -0.0813
   6123SM  H13G 7857   4.374   4.384   5.451 -1.2190 -0.5322  4.1357
   6123SM  C14F 7858   4.583   4.397   5.445 -0.2044 -0.3189  0.7911
   6123SM  H14F 7859   4.620   4.336   5.530  0.1249  1.5995  2.0850
   6123SM  H14G 7860   4.656   4.477   5.419 -0.7132 -0.0567  0.1396
   6123SM  C15F 7861   4.580   4.300   5.328  0.3990 -0.1199 -0.0931
   6123SM  H15F 7862   4.519   4.348   5.249 -0.7563 -2.7117 -0.8921
   6123SM  H15G 7863   4.540   4.199   5.351  2.4290 -1.3178 -1.5175
   6123SM  C16F 7864   4.718   4.262   5.274 -0.2599  0.5720  0.8863
   6123SM  H16F 7865   4.773   4.356   5.248  0.1765  0.5019  1.5295
   6123SM  H16G 7866   4.717   4.201   5.181  1.7191  0.5694  0.8255
   6123SM  C17F 7867   4.804   4.176   5.368  0.1425  0.4562 -0.4515
   6123SM  H17F 7868   4.761   4.073   5.367  0.4730  0.3121 -2.3007
   6123SM  H17G 7869   4.821   4.211   5.472 -1.6743 -1.0433  0.4134
   6123SM  C18F 7870   4.944   4.154   5.303 -0.3972 -0.3856 -0.0326
   6123SM  H18F 7871   4.985   4.257   5.298 -0.5965 -0.1815  1.9258
   6123SM  H18G 7872   4.931   4.114   5.200 -1.9226  0.7031 -0.3051
   6123SM  C19F 7873   5.033   4.045   5.378 -0.2638  0.9276  0.1536
   6123SM  H19F 7874   4.988   3.950   5.342  1.0610 -0.0486  0.9841
   6123SM  H19G 7875   5.019   4.053   5.488  1.4909 -1.7134  0.6623
   6123SM  C20F 7876   5.182   4.035   5.342  0.2609  0.5929  0.4490
   6123SM  H20F 7877   5.183   4.008   5.234 -2.4990  2.5534 -0.1789
   6123SM  H20G 7878   5.229   3.950   5.396 -1.3842  0.0169  1.0362
   6123SM  C21F 7879   5.258   4.168   5.376 -0.3871  0.3467  0.6789
   6123SM  H21F 7880   5.205   4.248   5.320 -0.7343  0.1572  0.7296
   6123SM  H21G 7881   5.364   4.170   5.344 -0.1799  1.9029  1.3852
   6123SM  C22F 7882   5.263   4.190   5.527  0.8707  0.6197 -0.0726
   6123SM  H22F 7883   5.318   4.106   5.575  1.7696  2.4633  2.3337
   6123SM  H22G 7884   5.162   4.200   5.571  0.3129 -1.5573 -0.7454
   6123SM  C23F 7885   5.344   4.313   5.562 -0.2851  0.0517 -0.1878
   6123SM  H23F 7886   5.328   4.407   5.505  0.8268 -0.6434 -1.7133
   6123SM  H23G 7887   5.454   4.301   5.557 -0.0659  1.2344  1.1897
   6123SM  H23H 7888   5.315   4.339   5.666 -0.8994  0.8164 -0.5377
   6223SM     N 7889   3.668   3.696   7.146  1.0530  0.2774  0.3748
   6223SM   C15 7890   3.800   3.690   7.221  0.8982  0.3404 -0.1209
   6223SM  H15A 7891   3.860   3.778   7.200  0.6015  0.5649 -0.0399
   6223SM  H15B 7892   3.854   3.599   7.200  0.8503  0.5745 -1.3318
   6223SM  H15C 7893   3.777   3.691   7.327  2.7635 -0.3438  0.3202
   6223SM   C14 7894   3.579   3.578   7.198  0.3920 -0.9484 -0.0221
   6223SM  H14A 7895   3.619   3.494   7.143 -0.0415 -1.6718  0.7415
   6223SM  H14B 7896   3.475   3.600   7.178  0.1810 -1.5221  0.4023
   6223SM  H14C 7897   3.580   3.565   7.305 -2.0759 -0.3226  0.1507
   6223SM   C13 7898   3.605   3.821   7.184  0.1269  0.9873 -0.7841
   6223SM  H13A 7899   3.509   3.834   7.136  0.8357 -0.3205 -2.6809
   6223SM  H13B 7900   3.656   3.901   7.132  0.2051  1.0862 -0.5550
   6223SM  H13C 7901   3.593   3.830   7.291  0.4528 -0.4098 -0.6163
   6223SM   C12 7902   3.705   3.681   7.000 -0.4466 -0.8569  0.2038
   6223SM  H12A 7903   3.750   3.776   6.976 -1.1654 -0.9933 -1.9628
   6223SM  H12B 7904   3.622   3.675   6.931 -0.5257 -1.4178  0.3397
   6223SM   C11 7905   3.809   3.578   6.955  0.4946 -0.2334 -0.1761
   6223SM  H11A 7906   3.797   3.562   6.846  1.4048 -0.6332 -0.2297
   6223SM  H11B 7907   3.785   3.477   6.994  2.7713 -0.5635  0.5158
   6223SM     P 7908   3.998   3.731   6.890  0.5712 -0.1560 -0.0727
   6223SM   O13 7909   3.930   3.859   6.921 -0.3598  0.0814 -0.5064
   6223SM   O14 7910   4.148   3.737   6.893  0.0272 -0.3677  0.3150
   6223SM   O11 7911   3.954   3.694   6.743 -0.2773 -0.2811 -0.4032
   6223SM   O12 7912   3.941   3.607   6.975  0.4000 -0.1628 -0.2978
   6223SM   C1S 7913   4.018   3.586   6.668  0.0429 -0.7036 -0.0579
   6223SM   H1S 7914   3.975   3.488   6.697  1.4529 -1.0464  0.9519
   6223SM   H1T 7915   4.126   3.572   6.692  0.6454 -0.7414 -2.5247
   6223SM    NF 7916   4.021   3.465   6.460 -0.5166 -0.6787 -0.2291
   6223SM   HNF 7917   4.114   3.463   6.424 -0.0064 -2.4338  1.0394
   6223SM   C2S 7918   3.988   3.594   6.514 -0.5422  0.3538 -0.6361
   6223SM   H2S 7919   3.877   3.605   6.507 -0.6532 -0.1017  0.2938
   6223SM   C3S 7920   4.048   3.723   6.447  0.8006 -0.1323  0.2833
   6223SM   H3S 7921   4.159   3.717   6.443  0.7911  0.4594 -1.6336
   6223SM    O3 7922   4.023   3.840   6.519 -0.6908  0.7547  0.0468
   6223SM   HO3 7923   4.004   3.822   6.611 -0.0317  0.4184  0.1233
   6223SM   C4S 7924   3.992   3.738   6.309 -1.3297  0.3094 -0.3260
   6223SM   H4S 7925   4.040   3.665   6.242  2.9331  0.8434  1.8189
   6223SM   C5S 7926   3.885   3.810   6.266 -1.0504 -0.4411 -0.5707
   6223SM   H5S 7927   3.828   3.866   6.342  1.5524  0.9705  0.4482
   6223SM   C6S 7928   3.835   3.815   6.125  0.2931  0.0221  0.2895
   6223SM   H6S 7929   3.842   3.919   6.087  1.6071 -0.7363 -1.7137
   6223SM   H6T 7930   3.727   3.787   6.118  0.4060 -0.1361 -1.1224
   6223SM   C7S 7931   3.914   3.734   6.024 -0.2716  0.0213 -0.3199
   6223SM   H7S 7932   3.912   3.628   6.055  1.3029  0.3176  0.9567
   6223SM   H7T 7933   4.013   3.786   6.017 -0.5775  0.5446 -0.8876
   6223SM   C8S 7934   3.844   3.758   5.885  0.1111 -0.7277  0.3513
   6223SM   H8S 7935   3.841   3.869   5.878 -1.8178 -0.4775  3.3725
   6223SM   H8T 7936   3.737   3.729   5.882 -1.2592  3.6672 -1.4845
   6223SM   C9S 7937   3.917   3.701   5.758 -0.1785  0.4432 -0.4144
   6223SM   H9S 7938   4.021   3.669   5.779 -0.8806 -0.7954  1.3460
   6223SM   H9T 7939   3.898   3.786   5.688 -1.0999 -0.0503 -0.7779
   6223SM  C10S 7940   3.846   3.586   5.689  0.5179 -0.1709  0.2872
   6223SM  H10S 7941   3.893   3.549   5.595  0.1631 -1.4124  0.5817
   6223SM  H10T 7942   3.743   3.617   5.663  0.3671 -2.0317 -1.5891
   6223SM  C11S 7943   3.835   3.460   5.769  0.5073  0.0709 -0.7248
   6223SM  H11S 7944   3.813   3.487   5.875 -0.1210 -0.5801 -0.6747
   6223SM  H11T 7945   3.924   3.395   5.758  1.1995  1.2476 -2.5823
   6223SM  C12S 7946   3.717   3.381   5.723  0.4243  0.1624 -0.1085
   6223SM  H12S 7947   3.724   3.371   5.612  2.0428  1.4325 -0.1608
   6223SM  H12T 7948   3.626   3.441   5.743  0.1330 -0.6534  1.0767
   6223SM  C13S 7949   3.686   3.236   5.790  0.0540 -0.2991 -0.3758
   6223SM  H13S 7950   3.650   3.248   5.894 -1.9599 -0.1091 -1.0440
   6223SM  H13T 7951   3.770   3.164   5.790 -1.4046 -2.1427 -2.2482
   6223SM  C14S 7952   3.573   3.171   5.708 -0.6509  0.3114  0.0114
   6223SM  H14S 7953   3.503   3.250   5.673 -0.2309 -0.1740 -2.0762
   6223SM  H14T 7954   3.521   3.103   5.779  1.1968 -0.3817  0.7626
   6223SM  C15S 7955   3.630   3.093   5.587  0.2908  0.1472 -0.6666
   6223SM  H15S 7956   3.679   3.002   5.627 -0.6671 -1.0701 -2.1375
   6223SM  H15T 7957   3.695   3.153   5.520  0.2560  0.7885 -0.1354
   6223SM  C16S 7958   3.515   3.035   5.502  0.1579  0.5295  1.1757
   6223SM  H16S 7959   3.430   3.008   5.569  0.3248  0.3893  1.3326
   6223SM  H16T 7960   3.543   2.943   5.446  0.7280  1.2443  0.2705
   6223SM  C17S 7961   3.456   3.131   5.395 -0.3049  0.1009 -0.1166
   6223SM  H17S 7962   3.434   3.233   5.435 -0.8285 -1.0813  2.8463
   6223SM  H17T 7963   3.364   3.081   5.357  0.2244 -0.7561 -0.2746
   6223SM  C18S 7964   3.558   3.156   5.284 -1.3410 -0.2875  0.8663
   6223SM  H18S 7965   3.622   3.071   5.253 -1.3697  0.8162 -2.7400
   6223SM  H18T 7966   3.629   3.239   5.305 -1.8588  1.1914 -2.5378
   6223SM  H18U 7967   3.499   3.193   5.197  0.4871  0.4757 -0.1195
   6223SM   C1F 7968   3.951   3.361   6.474 -0.0668 -0.0230 -1.0300
   6223SM    OF 7969   3.848   3.366   6.537 -0.2476 -0.3719  0.3357
   6223SM   C2F 7970   4.009   3.232   6.428 -0.2452  0.5150  0.3409
   6223SM   H2F 7971   4.005   3.150   6.502 -1.8119  0.1101 -0.1425
   6223SM   H2G 7972   4.116   3.250   6.402 -0.3994  2.7027  0.9951
   6223SM   C3F 7973   3.933   3.176   6.303  0.0527  0.1665  0.0721
   6223SM   H3F 7974   3.823   3.178   6.318  0.1226  0.0964  0.6400
   6223SM   H3G 7975   3.970   3.073   6.285  2.6860  1.3817 -2.2865
   6223SM   C4F 7976   3.964   3.262   6.181  0.5185 -0.9014  0.1287
   6223SM   H4F 7977   3.954   3.367   6.216  1.6778 -0.5283 -0.6210
   6223SM   H4G 7978   3.890   3.245   6.100  0.7431 -1.5667  0.0601
   6223SM   C5F 7979   4.099   3.243   6.115 -0.4374  0.1209 -0.4938
   6223SM   H5F 7980   4.087   3.144   6.065 -1.6419 -0.7808  1.4373
   6223SM   H5G 7981   4.186   3.243   6.185  0.0096  1.9171 -1.0026
   6223SM   C6F 7982   4.137   3.347   6.014 -0.1001  0.2869  0.6258
   6223SM   H6F 7983   4.152   3.445   6.066 -2.6297 -0.3930  2.8586
   6223SM   H6G 7984   4.044   3.363   5.955  1.2855  0.1087 -1.7508
   6223SM   C7F 7985   4.250   3.325   5.916  0.2403  0.7807 -0.1215
   6223SM   H7F 7986   4.242   3.387   5.824  0.3470  0.6541 -0.2172
   6223SM   H7G 7987   4.250   3.225   5.868 -0.0022  1.0080 -0.6004
   6223SM   C8F 7988   4.382   3.358   5.987 -0.1250 -0.3555  0.4925
   6223SM   H8F 7989   4.391   3.280   6.065 -1.2018 -0.3897  0.5892
   6223SM   H8G 7990   4.380   3.461   6.029  1.2834 -0.2596  0.3623
   6223SM   C9F 7991   4.500   3.353   5.886  0.4890  0.1485 -0.1593
   6223SM   H9F 7992   4.494   3.251   5.841 -1.4561  0.0568  0.2359
   6223SM   H9G 7993   4.602   3.370   5.927  0.6403  1.2861 -0.9579
   6223SM  C10F 7994   4.487   3.467   5.767  0.7784  0.0715 -0.4460
   6223SM  H10F 7995   4.466   3.564   5.818 -0.3522 -0.0213 -0.7108
   6223SM  H10G 7996   4.404   3.441   5.697  0.2595  2.0941 -0.6440
   6223SM  C11F 7997   4.629   3.467   5.706  0.1098 -0.9165  0.1234
   6223SM  H11F 7998   4.637   3.365   5.663  1.2552 -1.0059  0.5127
   6223SM  H11G 7999   4.703   3.474   5.789 -1.3572  1.2320  1.3323
   6223SM  C12F 8000   4.659   3.570   5.596 -0.7019 -1.0394  0.1510
   6223SM  H12F 8001   4.649   3.677   5.626 -0.0142 -0.5086 -1.4000
   6223SM  H12G 8002   4.602   3.551   5.503 -0.0637  2.5933 -1.1632
   6223SM  C13F 8003   4.807   3.552   5.555 -0.2778  0.2464 -0.4434
   6223SM  H13F 8004   4.828   3.445   5.532 -2.6604  0.0097 -1.9027
   6223SM  H13G 8005   4.869   3.574   5.644  0.3208  3.2388 -1.4912
   6223SM  C14F 8006   4.857   3.648   5.442  0.6661  0.7615  0.1169
   6223SM  H14F 8007   4.968   3.652   5.432  0.6372  0.2027 -0.5473
   6223SM  H14G 8008   4.817   3.749   5.465 -1.1723 -0.1734  1.1971
   6223SM  C15F 8009   4.805   3.624   5.301  0.2958 -0.5864  0.2361
   6223SM  H15F 8010   4.696   3.602   5.296  0.2749 -0.4981  0.2888
   6223SM  H15G 8011   4.852   3.529   5.268  1.5002 -0.2379  0.8679
   6223SM  C16F 8012   4.853   3.738   5.207 -0.7527 -0.6844  0.1753
   6223SM  H16F 8013   4.954   3.778   5.228 -0.7699 -0.6316  0.1580
   6223SM  H16G 8014   4.779   3.821   5.213 -0.8145 -0.7950  1.0573
   6223SM  C17F 8015   4.859   3.700   5.057 -0.3018 -0.7061 -0.0652
   6223SM  H17F 8016   4.918   3.606   5.069  1.0721  0.2490  1.0754
   6223SM  H17G 8017   4.918   3.778   5.003  1.5468  0.0786  2.8394
   6223SM  C18F 8018   4.725   3.676   4.976 -0.3615  0.2288  0.0203
   6223SM  H18F 8019   4.658   3.764   4.978  0.1077  0.6404 -1.2160
   6223SM  H18G 8020   4.665   3.599   5.028 -1.6328  0.0815 -1.5700
   6223SM  C19F 8021   4.744   3.632   4.829 -0.2020 -0.5517 -0.0237
   6223SM  H19F 8022   4.801   3.715   4.784  0.7492 -0.9600  0.3874
   6223SM  H19G 8023   4.641   3.633   4.788 -0.1077 -1.4553 -0.3184
   6223SM  C20F 8024   4.810   3.491   4.808  0.3066 -0.8327  0.4466
   6223SM  H20F 8025   4.784   3.414   4.884 -1.1135 -1.4565 -0.6230
   6223SM  H20G 8026   4.919   3.513   4.808  0.3781 -0.7794 -2.3119
   6223SM  C21F 8027   4.784   3.420   4.676  0.3109 -0.1076  1.1533
   6223SM  H21F 8028   4.797   3.482   4.585 -1.3145 -1.9134 -0.3905
   6223SM  H21G 8029   4.675   3.404   4.665  0.6141 -2.1459  0.6713
   6223SM  C22F 8030   4.875   3.301   4.638  0.0062 -0.6332  0.1552
   6223SM  H22F 8031   4.842   3.265   4.538 -1.0542 -0.8570  0.5803
   6223SM  H22G 8032   4.879   3.219   4.712 -1.4424 -2.1832 -1.4014
   6223SM  C23F 8033   5.029   3.331   4.614 -0.0507 -0.2446  0.2772
   6223SM  H23F 8034   5.072   3.245   4.558  0.1839 -0.3500  0.6138
   6223SM  H23G 8035   5.072   3.353   4.714  0.0419  0.0094  0.1807
   6223SM  H23H 8036   5.036   3.419   4.547  0.1633 -0.5634 -0.1256
   6323SM     N 8037   5.652   5.169   7.455  0.0328  0.4439 -0.2525
   6323SM   C15 8038   5.699   5.305   7.425  0.2109 -0.0801  0.1072
   6323SM  H15A 8039   5.745   5.318   7.328 -0.6343 -0.6832 -0.3861
   6323SM  H15B 8040   5.779   5.328   7.494 -1.4412 -0.3017  2.1764
   6323SM  H15C 8041   5.612   5.369   7.425  0.3460  0.1079  0.6972
   6323SM   C14 8042   5.759   5.097   7.523 -0.3755 -0.9572 -0.1901
   6323SM  H14A 8043   5.845   5.083   7.459  0.6802  0.8339  0.7572
   6323SM  H14B 8044   5.723   4.997   7.542 -0.0728 -0.7906  1.4931
   6323SM  H14C 8045   5.799   5.142   7.613 -0.7606  0.0064 -0.4892
   6323SM   C13 8046   5.542   5.182   7.552  0.2508 -0.3604 -0.4238
   6323SM  H13A 8047   5.453   5.184   7.491  1.1246  0.2876 -1.7369
   6323SM  H13B 8048   5.556   5.269   7.615 -1.2977  0.8013 -1.6139
   6323SM  H13C 8049   5.548   5.091   7.609  1.0140  0.9101  1.6603
   6323SM   C12 8050   5.600   5.102   7.329  0.1454 -0.3650 -0.8352
   6323SM  H12A 8051   5.517   5.163   7.295 -1.9711 -2.3274  0.4985
   6323SM  H12B 8052   5.558   5.011   7.367 -0.1624  0.8842  2.0250
   6323SM   C11 8053   5.693   5.081   7.209  0.4702  0.0858 -0.1304
   6323SM  H11A 8054   5.739   5.178   7.182  2.4369 -0.3198  1.5213
   6323SM  H11B 8055   5.628   5.054   7.123 -1.5212  0.3202  1.2305
   6323SM     P 8056   5.757   4.816   7.231  0.2247 -0.8684 -0.4105
   6323SM   O13 8057   5.831   4.738   7.333 -0.2133 -0.6483  0.0841
   6323SM   O14 8058   5.610   4.792   7.223  0.3286 -0.2577  0.0724
   6323SM   O11 8059   5.815   4.782   7.089 -0.3900 -0.6793 -0.0830
   6323SM   O12 8060   5.785   4.970   7.238  0.1809 -0.1418 -0.2485
   6323SM   C1S 8061   5.781   4.863   6.976 -0.2625  0.4307  0.0713
   6323SM   H1S 8062   5.831   4.962   6.987 -0.4042  0.6061 -0.8555
   6323SM   H1T 8063   5.671   4.876   6.974 -0.2485  1.0880  1.6455
   6323SM    NF 8064   5.819   4.904   6.742 -0.2496 -0.5249 -0.1726
   6323SM   HNF 8065   5.737   4.909   6.687  0.3081 -1.7310 -1.1683
   6323SM   C2S 8066   5.829   4.801   6.847  0.2108  0.1688  0.3655
   6323SM   H2S 8067   5.931   4.758   6.846 -1.3028 -4.0133 -2.4322
   6323SM   C3S 8068   5.743   4.672   6.821  0.2316  0.6182  0.6783
   6323SM   H3S 8069   5.635   4.695   6.829 -0.0264  0.4805 -1.5697
   6323SM    O3 8070   5.755   4.569   6.919 -0.3107  0.2572  0.3476
   6323SM   HO3 8071   5.794   4.605   6.999  0.2887 -1.9831  1.1287
   6323SM   C4S 8072   5.781   4.626   6.680 -0.1394 -0.4387  0.5044
   6323SM   H4S 8073   5.689   4.618   6.620 -0.5424  2.4600  0.6032
   6323SM   C5S 8074   5.906   4.603   6.620 -0.2975  0.0188  0.5770
   6323SM   H5S 8075   5.990   4.612   6.690  2.3159  0.9120 -2.4745
   6323SM   C6S 8076   5.935   4.553   6.476  0.2581  0.8110  0.5626
   6323SM   H6S 8077   5.846   4.505   6.430  0.4577  0.4786  0.5152
   6323SM   H6T 8078   6.010   4.471   6.471 -0.9345 -0.2299 -2.1822
   6323SM   C7S 8079   5.979   4.669   6.384 -0.0064 -0.3971  0.7026
   6323SM   H7S 8080   6.064   4.727   6.427 -0.1732 -0.1381  0.6810
   6323SM   H7T 8081   5.894   4.740   6.380 -1.1254 -1.3931  3.9665
   6323SM   C8S 8082   6.025   4.631   6.240  0.7348  0.0964  0.0888
   6323SM   H8S 8083   6.109   4.558   6.249  0.8632  0.2164 -0.1266
   6323SM   H8T 8084   6.070   4.716   6.186  0.8935 -0.3462 -0.4851
   6323SM   C9S 8085   5.919   4.564   6.148  0.4015  0.4627 -0.0243
   6323SM   H9S 8086   5.837   4.639   6.154 -0.0742 -0.1034  0.7247
   6323SM   H9T 8087   5.882   4.470   6.194 -0.2194 -0.2735 -1.9078
   6323SM  C10S 8088   5.956   4.539   6.000 -0.0734 -0.1970  0.2029
   6323SM  H10S 8089   6.054   4.486   5.995 -0.4482 -0.8938  0.0525
   6323SM  H10T 8090   5.966   4.640   5.955  1.6916 -1.5326 -2.7308
   6323SM  C11S 8091   5.853   4.458   5.911 -1.1463  0.3285 -0.2962
   6323SM  H11S 8092   5.756   4.509   5.924  0.5907  3.3391  2.4673
   6323SM  H11T 8093   5.846   4.356   5.954 -2.1919  0.7448  0.5551
   6323SM  C12S 8094   5.895   4.445   5.767 -0.6955  0.0702  0.9455
   6323SM  H12S 8095   5.810   4.399   5.714 -0.9179  0.4570  0.9610
   6323SM  H12T 8096   5.985   4.381   5.767 -1.3095 -0.8732  2.7818
   6323SM  C13S 8097   5.926   4.582   5.692 -0.4407  0.4345 -0.2012
   6323SM  H13S 8098   6.007   4.637   5.745  0.9692 -0.2244 -1.5872
   6323SM  H13T 8099   5.836   4.647   5.701 -1.7634 -1.4853  1.3561
   6323SM  C14S 8100   5.958   4.561   5.547  0.1121 -0.2756 -0.8398
   6323SM  H14S 8101   5.867   4.519   5.500 -0.0727 -2.0454  0.9603
   6323SM  H14T 8102   6.041   4.490   5.527  0.3863  0.2231 -1.4978
   6323SM  C15S 8103   5.997   4.696   5.491  0.2176  0.0401 -0.3258
   6323SM  H15S 8104   6.095   4.726   5.535  0.7367 -0.1297 -1.3513
   6323SM  H15T 8105   5.922   4.771   5.523  0.2823 -0.2602  0.5751
   6323SM  C16S 8106   6.026   4.686   5.339 -0.9091 -0.3136 -0.2881
   6323SM  H16S 8107   6.051   4.786   5.296 -1.3286 -0.6667 -1.3893
   6323SM  H16T 8108   5.933   4.666   5.281 -1.2338 -0.0586  0.1309
   6323SM  C17S 8109   6.147   4.592   5.305  0.4687 -0.0571  0.9413
   6323SM  H17S 8110   6.108   4.495   5.342 -1.9386  1.0341  1.4813
   6323SM  H17T 8111   6.237   4.610   5.367  1.5548 -0.4059 -0.4786
   6323SM  C18S 8112   6.197   4.589   5.160  0.0993 -0.2886  0.7429
   6323SM  H18S 8113   6.307   4.573   5.159  0.2654  0.7446 -1.0810
   6323SM  H18T 8114   6.175   4.680   5.101  2.4296  0.4451  0.9126
   6323SM  H18U 8115   6.145   4.504   5.110  3.1598 -1.0926 -1.3812
   6323SM   C1F 8116   5.926   4.991   6.730  0.7926 -0.5411 -0.3454
   6323SM    OF 8117   6.017   4.973   6.802  0.1342  0.0588  0.3237
   6323SM   C2F 8118   5.911   5.108   6.640 -0.5050 -0.8807  0.1619
   6323SM   H2F 8119   5.877   5.198   6.697 -2.4130 -0.0116 -2.1684
   6323SM   H2G 8120   5.835   5.073   6.566  0.0114 -1.7655  0.0356
   6323SM   C3F 8121   6.054   5.155   6.582 -0.0070  0.6828 -0.1493
   6323SM   H3F 8122   6.111   5.071   6.538  0.1273  0.1464  0.9958
   6323SM   H3G 8123   6.122   5.198   6.659  0.9836  2.6729 -2.0429
   6323SM   C4F 8124   6.038   5.269   6.481 -0.2179 -0.1511 -0.3212
   6323SM   H4F 8125   5.976   5.344   6.535 -0.4914 -1.3843  1.1301
   6323SM   H4G 8126   5.986   5.232   6.390 -2.6994 -0.7353  1.2396
   6323SM   C5F 8127   6.178   5.335   6.459  0.4654 -0.1973 -0.5010
   6323SM   H5F 8128   6.232   5.243   6.428 -2.8813 -1.7870 -2.0537
   6323SM   H5G 8129   6.211   5.379   6.556 -0.6331  1.0620 -0.6715
   6323SM   C6F 8130   6.179   5.462   6.367 -0.2460  0.5238 -0.4955
   6323SM   H6F 8131   6.266   5.526   6.396 -0.0859  0.0594  0.0535
   6323SM   H6G 8132   6.087   5.522   6.377 -0.3491  0.2958 -0.0787
   6323SM   C7F 8133   6.197   5.410   6.225  0.0977 -1.1924 -0.6311
   6323SM   H7F 8134   6.103   5.367   6.185 -0.2889 -0.9357  0.0024
   6323SM   H7G 8135   6.266   5.323   6.231  3.4864  1.3378  1.0515
   6323SM   C8F 8136   6.259   5.516   6.127 -0.0232 -0.0607  0.8360
   6323SM   H8F 8137   6.364   5.524   6.160  0.6684 -1.0366 -0.9926
   6323SM   H8G 8138   6.203   5.611   6.139 -0.5243 -0.3333  0.7330
   6323SM   C9F 8139   6.250   5.463   5.980 -0.3605 -0.2496 -0.2639
   6323SM   H9F 8140   6.146   5.468   5.942  0.1137  1.3666 -1.4784
   6323SM   H9G 8141   6.281   5.356   5.973 -0.3853 -0.2438 -0.4985
   6323SM  C10F 8142   6.345   5.540   5.884 -0.5682 -0.1333 -0.0614
   6323SM  H10F 8143   6.442   5.524   5.935 -0.9525 -6.0417 -0.4500
   6323SM  H10G 8144   6.314   5.646   5.873  1.3725  0.4673  0.0406
   6323SM  C11F 8145   6.349   5.473   5.744  0.0531  0.1647  0.6162
   6323SM  H11F 8146   6.241   5.477   5.718  0.4435  1.2212 -0.9936
   6323SM  H11G 8147   6.371   5.365   5.756 -0.4745  0.0286  0.4066
   6323SM  C12F 8148   6.440   5.548   5.653  0.4227  0.0947  0.1019
   6323SM  H12F 8149   6.546   5.559   5.685  1.4108 -0.4607 -2.6806
   6323SM  H12G 8150   6.398   5.649   5.634  0.9062  0.0802 -1.1636
   6323SM  C13F 8151   6.450   5.487   5.514  0.4733  0.4148 -0.7725
   6323SM  H13F 8152   6.357   5.513   5.459  0.6632 -0.5174 -1.5680
   6323SM  H13G 8153   6.443   5.376   5.513 -2.2884  0.5112 -0.2188
   6323SM  C14F 8154   6.560   5.548   5.436 -0.1697 -0.0062  0.2338
   6323SM  H14F 8155   6.654   5.550   5.495  0.8375  0.2196 -1.3185
   6323SM  H14G 8156   6.534   5.653   5.412 -0.7551 -0.8065 -3.1492
   6323SM  C15F 8157   6.573   5.472   5.303  0.0664 -0.5505  0.0050
   6323SM  H15F 8158   6.510   5.520   5.226  0.1975 -1.7437 -0.8598
   6323SM  H15G 8159   6.538   5.367   5.305 -1.4552 -0.0776  1.7799
   6323SM  C16F 8160   6.714   5.496   5.257 -0.3271 -0.4411 -0.1211
   6323SM  H16F 8161   6.783   5.452   5.333 -0.9139 -0.2896  0.5023
   6323SM  H16G 8162   6.732   5.605   5.249 -1.6720 -0.2979 -1.7963
   6323SM  C17F 8163   6.762   5.444   5.119  0.9550  0.1561 -0.2366
   6323SM  H17F 8164   6.755   5.334   5.114 -2.2413  0.2773 -0.1802
   6323SM  H17G 8165   6.866   5.474   5.094  0.8480 -0.8833 -2.1105
   6323SM  C18F 8166   6.688   5.502   4.996 -0.2538 -0.1148 -0.4137
   6323SM  H18F 8167   6.583   5.470   4.987  0.3432 -3.0819  1.8544
   6323SM  H18G 8168   6.731   5.456   4.904 -1.0538  2.7742 -2.3910
   6323SM  C19F 8169   6.697   5.657   4.977  0.4170 -0.2314  0.3350
   6323SM  H19F 8170   6.802   5.692   4.981 -0.1567  2.2352 -2.4948
   6323SM  H19G 8171   6.654   5.702   5.069  1.0636  1.3660 -0.1053
   6323SM  C20F 8172   6.635   5.712   4.852  0.2164 -0.1250 -0.7174
   6323SM  H20F 8173   6.623   5.821   4.837  2.1057  0.0869 -0.8328
   6323SM  H20G 8174   6.527   5.684   4.861 -0.0093  1.3930  2.7986
   6323SM  C21F 8175   6.670   5.639   4.721 -0.4902 -0.5969 -0.1066
   6323SM  H21F 8176   6.592   5.663   4.645  1.3191  1.7697 -1.3449
   6323SM  H21G 8177   6.669   5.528   4.727  3.9444 -1.0587 -3.2535
   6323SM  C22F 8178   6.803   5.679   4.650  0.1302 -0.1156  0.5288
   6323SM  H22F 8179   6.817   5.621   4.556 -0.5982  1.0023 -0.2887
   6323SM  H22G 8180   6.885   5.645   4.717 -1.2639 -2.9261  0.9493
   6323SM  C23F 8181   6.806   5.821   4.596 -0.2760 -0.2112  0.2319
   6323SM  H23F 8182   6.716   5.832   4.532  0.0752 -0.8915 -0.3889
   6323SM  H23G 8183   6.894   5.833   4.530 -1.2879  1.5749 -0.8743
   6323SM  H23H 8184   6.806   5.886   4.687 -0.4592 -1.9312  1.5111
   6423SM     N 8185   6.834   3.414   7.202 -0.1741  0.1331  0.0527
   6423SM   C15 8186   6.789   3.508   7.306  0.5840  0.2133  0.5635
   6423SM  H15A 8187   6.814   3.464   7.401  1.0875 -1.0014 -0.1016
   6423SM  H15B 8188   6.683   3.526   7.302  0.6389  0.4074 -0.4782
   6423SM  H15C 8189   6.833   3.606   7.298  1.8490 -0.3973 -0.5697
   6423SM   C14 8190   6.987   3.410   7.227  0.5842  0.3847  0.4212
   6423SM  H14A 8191   7.010   3.364   7.322  1.2143  1.6821  0.9276
   6423SM  H14B 8192   7.029   3.509   7.238  0.0186  0.8330 -1.2126
   6423SM  H14C 8193   7.047   3.357   7.154 -0.4986  0.7897 -0.8129
   6423SM   C13 8194   6.774   3.281   7.221 -0.0532  0.3944 -0.6949
   6423SM  H13A 8195   6.783   3.238   7.320  0.1574 -0.2512 -0.9848
   6423SM  H13B 8196   6.817   3.217   7.145  4.8468  1.2346  0.9514
   6423SM  H13C 8197   6.667   3.288   7.213  0.0580  1.9283 -1.1644
   6423SM   C12 8198   6.813   3.459   7.062 -0.9054  0.1284  0.0993
   6423SM  H12A 8199   6.864   3.551   7.040 -1.8617  0.5249 -0.5181
   6423SM  H12B 8200   6.708   3.481   7.051 -0.7410  0.4854 -0.8006
   6423SM   C11 8201   6.868   3.358   6.953  0.6020  0.1490 -0.1584
   6423SM  H11A 8202   6.977   3.339   6.957  0.6069  0.0692 -0.6170
   6423SM  H11B 8203   6.856   3.418   6.860 -0.9911  2.4120  1.4101
   6423SM     P 8204   6.673   3.189   6.877 -0.2685 -0.1500  0.0808
   6423SM   O13 8205   6.650   3.048   6.902  0.4484 -0.6901 -0.2052
   6423SM   O14 8206   6.564   3.274   6.934 -0.0640 -0.2509  0.0313
   6423SM   O11 8207   6.716   3.223   6.728  0.1555  0.1121  0.2948
   6423SM   O12 8208   6.810   3.226   6.947 -0.5695 -0.2727 -0.9173
   6423SM   C1S 8209   6.639   3.190   6.614  0.9846  0.3736  0.1033
   6423SM   H1S 8210   6.551   3.257   6.612  0.2071 -0.6081  0.4904
   6423SM   H1T 8211   6.593   3.089   6.614 -0.8051  1.1394 -1.1933
   6423SM    NF 8212   6.653   3.202   6.362 -0.4684  0.0042  0.5291
   6423SM   HNF 8213   6.647   3.122   6.304 -1.5797 -0.6927  1.5685
   6423SM   C2S 8214   6.731   3.196   6.484 -0.1771 -0.2352  0.4187
   6423SM   H2S 8215   6.790   3.290   6.490  1.6293 -1.3936  1.6606
   6423SM   C3S 8216   6.845   3.085   6.494 -0.0558  0.4930  0.6210
   6423SM   H3S 8217   6.812   2.984   6.526 -0.0440 -0.1568 -1.2422
   6423SM    O3 8218   6.951   3.113   6.591 -0.4890  0.0209  0.2710
   6423SM   HO3 8219   6.908   3.189   6.632 -0.0926  0.7481 -0.6218
   6423SM   C4S 8220   6.919   3.079   6.358  0.7394  0.5387 -0.0105
   6423SM   H4S 8221   6.962   3.173   6.319  0.7705  0.1405 -0.9586
   6423SM   C5S 8222   6.942   2.969   6.277 -0.0417 -0.2623  0.1638
   6423SM   H5S 8223   6.915   2.869   6.314 -2.7673  0.2185 -0.3443
   6423SM   C6S 8224   7.016   2.971   6.147  0.9733  0.0439 -0.1001
   6423SM   H6S 8225   6.975   2.889   6.084 -0.5599 -0.1062  1.0565
   6423SM   H6T 8226   7.122   2.952   6.173  0.6120  0.4772  1.8572
   6423SM   C7S 8227   7.003   3.109   6.074 -0.6392  0.5316 -0.3845
   6423SM   H7S 8228   7.082   3.173   6.121 -0.2869 -1.5815  2.0805
   6423SM   H7T 8229   6.901   3.152   6.072 -0.7355  0.3298  0.0678
   6423SM   C8S 8230   7.038   3.092   5.918  0.0956  0.2857 -0.8396
   6423SM   H8S 8231   7.036   3.188   5.862  0.8000  1.1000  0.4652
   6423SM   H8T 8232   6.955   3.030   5.879 -0.8806 -0.1398  1.7323
   6423SM   C9S 8233   7.169   3.026   5.905 -0.1327  0.3649  0.0787
   6423SM   H9S 8234   7.180   2.924   5.949  1.4654  0.0106 -1.0839
   6423SM   H9T 8235   7.231   3.092   5.969 -0.9357  0.6824  0.5411
   6423SM  C10S 8236   7.231   3.017   5.763 -1.0228  0.3250  0.1218
   6423SM  H10S 8237   7.235   3.116   5.713 -1.8467 -0.3904 -1.4292
   6423SM  H10T 8238   7.154   2.967   5.701 -1.4875 -0.0952  1.0133
   6423SM  C11S 8239   7.370   2.958   5.758 -0.5488 -0.3391 -0.2869
   6423SM  H11S 8240   7.364   2.860   5.811  0.2876 -0.9741 -1.3323
   6423SM  H11T 8241   7.447   3.026   5.800  1.4561 -2.1823 -0.7931
   6423SM  C12S 8242   7.415   2.927   5.611  0.9494  0.0367 -0.2361
   6423SM  H12S 8243   7.329   2.866   5.576 -0.5452  0.9980  1.5979
   6423SM  H12T 8244   7.511   2.871   5.598  0.9728  0.5847 -3.0406
   6423SM  C13S 8245   7.444   3.051   5.521  0.2614 -0.1573  0.3396
   6423SM  H13S 8246   7.526   3.114   5.561  0.3599 -0.3800  0.4936
   6423SM  H13T 8247   7.358   3.121   5.512 -0.2615 -0.8088  0.1605
   6423SM  C14S 8248   7.480   3.005   5.373 -0.3911  0.3291  0.3096
   6423SM  H14S 8249   7.399   2.934   5.345 -0.6882  0.8292 -0.1144
   6423SM  H14T 8250   7.577   2.951   5.366  0.3983  1.7322  0.0796
   6423SM  C15S 8251   7.471   3.120   5.280 -0.7661  0.3647  0.8106
   6423SM  H15S 8252   7.563   3.182   5.281 -1.7031  2.2380 -3.5398
   6423SM  H15T 8253   7.381   3.182   5.302 -0.3488  0.8256  1.2342
   6423SM  C16S 8254   7.478   3.074   5.134 -0.7455  0.5095  0.3503
   6423SM  H16S 8255   7.401   2.995   5.127 -1.9872  1.7322 -0.1935
   6423SM  H16T 8256   7.569   3.022   5.096 -0.1875  0.6550  1.4214
   6423SM  C17S 8257   7.448   3.192   5.036  0.1757 -0.0680  0.2158
   6423SM  H17S 8258   7.522   3.275   5.042 -0.1661  0.2605 -0.0499
   6423SM  H17T 8259   7.347   3.234   5.054  0.0694 -0.8831  1.7610
   6423SM  C18S 8260   7.440   3.127   4.893 -0.5736 -0.6520 -0.8486
   6423SM  H18S 8261   7.543   3.091   4.872  0.8420  2.0992  0.7615
   6423SM  H18T 8262   7.415   3.204   4.816  1.6420 -0.4891 -1.4523
   6423SM  H18U 8263   7.366   3.044   4.884  0.4775 -1.6162 -0.8082
   6423SM   C1F 8264   6.571   3.303   6.334 -0.4469  0.1093  0.3362
   6423SM    OF 8265   6.573   3.409   6.404  0.1993 -0.3130  0.2444
   6423SM   C2F 8266   6.479   3.278   6.222 -0.3830 -0.0746  0.5831
   6423SM   H2F 8267   6.376   3.247   6.249  0.3934 -1.4067  2.2225
   6423SM   H2G 8268   6.523   3.203   6.153  0.8073  1.6239 -0.5928
   6423SM   C3F 8269   6.468   3.408   6.139  0.6424 -0.1141 -0.0589
   6423SM   H3F 8270   6.427   3.494   6.196 -0.9214 -0.1002 -1.1532
   6423SM   H3G 8271   6.390   3.389   6.062  0.8926 -0.3167 -0.2670
   6423SM   C4F 8272   6.603   3.449   6.081  0.4413  0.2626 -0.0504
   6423SM   H4F 8273   6.684   3.446   6.157  0.1586  0.0290  0.2450
   6423SM   H4G 8274   6.602   3.556   6.052  1.3321  0.4089  0.4222
   6423SM   C5F 8275   6.632   3.366   5.956 -0.0069 -0.3819 -0.3768
   6423SM   H5F 8276   6.555   3.392   5.880 -0.3921 -0.7183 -0.1050
   6423SM   H5G 8277   6.628   3.256   5.968 -1.1621 -0.4753 -1.4037
   6423SM   C6F 8278   6.768   3.408   5.901 -0.0392 -0.6923  0.3369
   6423SM   H6F 8279   6.854   3.388   5.968  0.9072  3.6295  0.7243
   6423SM   H6G 8280   6.780   3.519   5.892 -2.1959 -0.4334  0.0481
   6423SM   C7F 8281   6.806   3.338   5.766 -0.3084 -0.0763  0.3378
   6423SM   H7F 8282   6.730   3.352   5.686  0.2932  0.6964 -0.1216
   6423SM   H7G 8283   6.820   3.233   5.797 -1.9514 -0.4405 -0.0655
   6423SM   C8F 8284   6.934   3.400   5.705 -0.5936  0.3947 -0.5924
   6423SM   H8F 8285   7.007   3.409   5.789 -0.6310 -0.5081 -0.4594
   6423SM   H8G 8286   6.901   3.501   5.673 -0.6727  0.8261  0.7894
   6423SM   C9F 8287   6.994   3.321   5.595  0.3617 -0.2927  0.3047
   6423SM   H9F 8288   6.920   3.327   5.512  0.2391  1.7516  0.4891
   6423SM   H9G 8289   7.010   3.219   5.635  1.1762  0.6441  2.5371
   6423SM  C10F 8290   7.134   3.376   5.545  0.5924  0.3164 -0.5137
   6423SM  H10F 8291   7.167   3.303   5.468 -0.1960  0.8268 -1.3584
   6423SM  H10G 8292   7.206   3.372   5.629  0.9197  1.8829 -0.6915
   6423SM  C11F 8293   7.114   3.511   5.480 -0.2393  0.5195 -0.3139
   6423SM  H11F 8294   7.071   3.585   5.551 -1.0341  0.5993 -0.8648
   6423SM  H11G 8295   7.048   3.511   5.390  0.7556  1.5821 -1.0737
   6423SM  C12F 8296   7.237   3.568   5.420 -0.0393 -0.0158  0.6310
   6423SM  H12F 8297   7.306   3.593   5.503  0.2956  0.8361  0.1104
   6423SM  H12G 8298   7.212   3.666   5.375 -0.0534 -0.0899  0.4734
   6423SM  C13F 8299   7.309   3.480   5.318 -0.0029 -0.5200 -0.0486
   6423SM  H13F 8300   7.233   3.453   5.241 -0.5006 -0.4327  0.4075
   6423SM  H13G 8301   7.336   3.388   5.373 -1.0413 -0.5451  0.4360
   6423SM  C14F 8302   7.435   3.547   5.264  0.1584  0.2784  0.2298
   6423SM  H14F 8303   7.507   3.468   5.236 -0.4950 -0.6772  1.1723
   6423SM  H14G 8304   7.471   3.611   5.347  0.3423  0.9881 -0.3880
   6423SM  C15F 8305   7.398   3.638   5.141 -0.1819  0.7113 -0.0034
   6423SM  H15F 8306   7.335   3.723   5.175 -1.2303 -1.1502  3.1041
   6423SM  H15G 8307   7.346   3.588   5.056  1.0706 -0.0661 -0.3380
   6423SM  C16F 8308   7.520   3.695   5.086  0.3563  0.7273 -0.4900
   6423SM  H16F 8309   7.584   3.617   5.038 -0.8719  0.0385 -1.0583
   6423SM  H16G 8310   7.580   3.737   5.169  1.3018 -0.9244 -0.2879
   6423SM  C17F 8311   7.505   3.812   4.983  0.4429 -0.3088 -0.1664
   6423SM  H17F 8312   7.441   3.883   5.039 -0.6843 -0.8156 -0.7689
   6423SM  H17G 8313   7.437   3.782   4.901 -1.4490 -0.4469  1.3946
   6423SM  C18F 8314   7.642   3.865   4.946  0.6278 -0.0260 -0.1561
   6423SM  H18F 8315   7.697   3.779   4.903  2.0608  0.6010  0.3357
   6423SM  H18G 8316   7.699   3.889   5.038 -1.3988 -2.4916  1.8492
   6423SM  C19F 8317   7.646   3.986   4.851 -0.0817 -0.3998 -0.4355
   6423SM  H19F 8318   7.615   4.074   4.910 -0.2611  0.2037 -1.4053
   6423SM  H19G 8319   7.578   3.969   4.764  1.8215 -0.9621 -1.9067
   6423SM  C20F 8320   7.787   4.018   4.786  0.4113  0.2510 -0.0520
   6423SM  H20F 8321   7.778   4.122   4.748  0.8404  0.3028 -0.0058
   6423SM  H20G 8322   7.798   3.952   4.697 -1.4433 -0.1756 -0.0048
   6423SM  C21F 8323   7.903   4.005   4.880 -0.1794 -0.6165 -0.0188
   6423SM  H21F 8324   7.909   3.900   4.916  1.0697 -0.4578  0.2760
   6423SM  H21G 8325   7.883   4.079   4.961 -2.3655 -2.2446  1.0187
   6423SM  C22F 8326   8.036   4.037   4.811  0.1230 -0.2565 -0.6638
   6423SM  H22F 8327   8.108   4.068   4.890 -0.3500 -1.8229  0.4305
   6423SM  H22G 8328   8.034   4.127   4.747 -0.0975  0.6625  0.6087
   6423SM  C23F 8329   8.100   3.922   4.743  0.1265 -0.2816  0.4648
   6423SM  H23F 8330   8.201   3.960   4.719 -1.8441  2.7322 -4.8550
   6423SM  H23G 8331   8.066   3.892   4.641  1.3789 -0.5248  0.1057
   6423SM  H23H 8332   8.103   3.831   4.807  0.9975 -0.7414 -0.2128
   6523SM     N 8333   7.576   3.151   7.200  0.4263 -0.5648  1.0483
   6523SM   C15 8334   7.545   3.275   7.283 -0.1268 -0.8237 -0.3057
   6523SM  H15A 8335   7.605   3.351   7.234  0.7292 -0.7782  0.7692
   6523SM  H15B 8336   7.584   3.270   7.384  1.7362  0.0079 -0.9329
   6523SM  H15C 8337   7.441   3.304   7.276 -0.7113 -2.7306  0.1220
   6523SM   C14 8338   7.717   3.110   7.193  0.2141 -0.0230 -0.1920
   6523SM  H14A 8339   7.744   3.045   7.274 -0.0297 -0.7377 -0.6670
   6523SM  H14B 8340   7.789   3.189   7.178  0.6399 -0.3959 -0.0990
   6523SM  H14C 8341   7.732   3.050   7.104  1.6223  1.5384 -1.0673
   6523SM   C13 8342   7.492   3.039   7.264 -0.6610 -0.2057  0.0160
   6523SM  H13A 8343   7.393   3.067   7.298 -0.4040  0.1103  0.5117
   6523SM  H13B 8344   7.546   3.001   7.349  1.5018  0.6981 -0.8868
   6523SM  H13C 8345   7.466   2.958   7.197 -1.1808  0.1643 -0.2439
   6523SM   C12 8346   7.527   3.178   7.064  0.6489 -0.0226  0.5033
   6523SM  H12A 8347   7.420   3.169   7.073  0.4939  0.7735 -0.4089
   6523SM  H12B 8348   7.561   3.096   7.003  2.1411  1.3416 -0.5914
   6523SM   C11 8349   7.542   3.324   7.007  0.1667  0.0893 -0.2498
   6523SM  H11A 8350   7.524   3.320   6.898 -0.6299 -3.7385 -0.1058
   6523SM  H11B 8351   7.649   3.350   7.024 -0.0608  0.4867  0.6199
   6523SM     P 8352   7.310   3.427   7.067 -0.5605 -0.2673 -0.0992
   6523SM   O13 8353   7.264   3.291   7.075 -0.5990 -0.2231  0.0388
   6523SM   O14 8354   7.259   3.527   7.158 -0.2531  0.6566  0.7795
   6523SM   O11 8355   7.277   3.479   6.923 -0.4417 -0.5455 -0.2726
   6523SM   O12 8356   7.468   3.423   7.075  0.0973  0.2276  0.0537
   6523SM   C1S 8357   7.341   3.591   6.870  0.3597 -0.0807  0.2425
   6523SM   H1S 8358   7.447   3.570   6.844 -0.0905  1.0433 -2.9436
   6523SM   H1T 8359   7.358   3.677   6.939 -3.5496  0.3630  0.8585
   6523SM    NF 8360   7.354   3.740   6.687 -0.2778 -0.7530 -0.3093
   6523SM   HNF 8361   7.350   3.838   6.704  0.1506 -0.5367 -1.3912
   6523SM   C2S 8362   7.263   3.652   6.752  0.4869  0.0135  0.1218
   6523SM   H2S 8363   7.242   3.567   6.683  1.7829 -1.2816  1.2525
   6523SM   C3S 8364   7.127   3.727   6.803  0.0506  0.1213  0.5322
   6523SM   H3S 8365   7.166   3.819   6.851 -0.8088  1.8381 -1.8893
   6523SM    O3 8366   7.060   3.654   6.907  0.6623  0.2770 -0.2760
   6523SM   HO3 8367   7.117   3.577   6.909  0.6211  0.2146 -1.0507
   6523SM   C4S 8368   7.037   3.766   6.693 -0.6175  0.6963  0.3220
   6523SM   H4S 8369   7.089   3.839   6.629 -2.7682  2.8748  0.9043
   6523SM   C5S 8370   6.920   3.706   6.660 -0.4246 -0.5893  0.6556
   6523SM   H5S 8371   6.888   3.619   6.720 -0.8819 -0.9251 -0.0660
   6523SM   C6S 8372   6.841   3.747   6.539  0.2945  0.2955  0.6706
   6523SM   H6S 8373   6.874   3.841   6.490  3.5408 -0.2467  1.5413
   6523SM   H6T 8374   6.736   3.774   6.559  0.6311  2.0318  0.2641
   6523SM   C7S 8375   6.843   3.644   6.424  0.2939 -0.2033 -0.6786
   6523SM   H7S 8376   6.789   3.695   6.341  1.1546 -1.1356 -1.8511
   6523SM   H7T 8377   6.778   3.557   6.444 -2.1721  1.5155 -0.7516
   6523SM   C8S 8378   6.984   3.599   6.378  0.1268  0.4155 -0.2957
   6523SM   H8S 8379   7.040   3.561   6.466 -1.5366 -0.2603  0.5274
   6523SM   H8T 8380   7.042   3.676   6.323  0.6552 -0.8015 -1.4904
   6523SM   C9S 8381   6.979   3.487   6.276 -0.3139  0.1249 -0.1997
   6523SM   H9S 8382   6.912   3.519   6.193 -3.6430  0.1018  2.2402
   6523SM   H9T 8383   6.927   3.396   6.313  2.0746 -1.5317 -0.6997
   6523SM  C10S 8384   7.114   3.453   6.224 -0.6307  0.0099  0.8967
   6523SM  H10S 8385   7.170   3.540   6.185 -0.5655  0.3184  1.6503
   6523SM  H10T 8386   7.100   3.386   6.137  3.8761 -0.5303  0.3368
   6523SM  C11S 8387   7.214   3.381   6.323 -0.1018  1.2377 -0.5249
   6523SM  H11S 8388   7.153   3.311   6.384  0.9754 -1.0038 -1.8684
   6523SM  H11T 8389   7.249   3.461   6.391  2.3222 -0.2127  0.0604
   6523SM  C12S 8390   7.333   3.309   6.263  0.2891 -0.2053  0.5052
   6523SM  H12S 8391   7.294   3.235   6.190 -3.1629  0.3430  1.6007
   6523SM  H12T 8392   7.388   3.250   6.340  3.3959 -2.1590 -2.8423
   6523SM  C13S 8393   7.438   3.404   6.190  0.6061  0.6908 -0.3515
   6523SM  H13S 8394   7.503   3.452   6.266  2.3501 -0.6767 -0.9011
   6523SM  H13T 8395   7.390   3.483   6.129  0.0449  0.1741 -0.5852
   6523SM  C14S 8396   7.528   3.317   6.105 -0.7181 -0.0412 -0.4272
   6523SM  H14S 8397   7.484   3.249   6.028 -1.4451 -0.0149 -0.0437
   6523SM  H14T 8398   7.586   3.242   6.164 -1.8630 -0.3061  0.3967
   6523SM  C15S 8399   7.629   3.398   6.024 -0.2267  0.2849 -0.4882
   6523SM  H15S 8400   7.715   3.334   5.996 -1.4297 -2.3171  1.3958
   6523SM  H15T 8401   7.672   3.474   6.092  0.4614  0.0375 -0.6472
   6523SM  C16S 8402   7.556   3.453   5.895 -0.4015 -0.6613 -0.4046
   6523SM  H16S 8403   7.613   3.531   5.840  1.6209 -0.9440  1.1526
   6523SM  H16T 8404   7.461   3.501   5.924 -0.4595 -0.8146 -0.3367
   6523SM  C17S 8405   7.533   3.355   5.781  0.2349 -0.1516 -0.3094
   6523SM  H17S 8406   7.459   3.277   5.809  0.2761 -1.1153 -2.6314
   6523SM  H17T 8407   7.624   3.301   5.745  0.4102  0.1092 -0.2568
   6523SM  C18S 8408   7.472   3.428   5.661 -0.6023  0.7181 -0.9256
   6523SM  H18S 8409   7.548   3.499   5.622  2.0244 -1.9507 -0.9764
   6523SM  H18T 8410   7.378   3.481   5.691 -0.5047  0.3024  0.1519
   6523SM  H18U 8411   7.450   3.359   5.577  2.1301 -1.3999 -0.0378
   6523SM   C1F 8412   7.454   3.690   6.605  0.3796  0.0026  0.8771
   6523SM    OF 8413   7.459   3.572   6.581 -0.1413  0.4968  0.7740
   6523SM   C2F 8414   7.548   3.790   6.545  0.1185 -0.1305 -0.2328
   6523SM   H2F 8415   7.649   3.778   6.589  0.0735  1.0828  0.2608
   6523SM   H2G 8416   7.510   3.892   6.571  2.4133  0.3326  1.6938
   6523SM   C3F 8417   7.568   3.766   6.392  0.1239  0.0216 -0.3030
   6523SM   H3F 8418   7.587   3.657   6.386 -0.4904 -0.1710  0.9019
   6523SM   H3G 8419   7.659   3.822   6.361 -1.0072  1.2917 -1.4699
   6523SM   C4F 8420   7.445   3.783   6.312 -0.1422 -0.3333  0.3018
   6523SM   H4F 8421   7.362   3.715   6.341 -0.7750 -0.6853 -2.0506
   6523SM   H4G 8422   7.467   3.754   6.207  0.3552 -1.0720  0.6045
   6523SM   C5F 8423   7.384   3.921   6.317 -0.4631  0.0801 -0.0796
   6523SM   H5F 8424   7.451   4.003   6.285 -0.7275  0.2267 -0.2689
   6523SM   H5G 8425   7.356   3.939   6.423 -2.0201 -0.2394 -0.3997
   6523SM   C6F 8426   7.259   3.932   6.228  0.3625  0.1459 -0.2548
   6523SM   H6F 8427   7.204   3.843   6.266 -0.0653  0.3378 -0.4109
   6523SM   H6G 8428   7.282   3.931   6.119 -0.6749 -1.8347 -0.4991
   6523SM   C7F 8429   7.175   4.057   6.271 -0.2950  0.3042 -0.0942
   6523SM   H7F 8430   7.245   4.144   6.268  1.6110 -1.1647 -2.1318
   6523SM   H7G 8431   7.139   4.035   6.373  0.0072 -0.3823 -0.1320
   6523SM   C8F 8432   7.060   4.086   6.181 -0.3073 -0.4770  0.1177
   6523SM   H8F 8433   6.981   4.008   6.190  0.1926 -0.7469  2.7415
   6523SM   H8G 8434   7.089   4.102   6.075 -0.8258  2.8697  0.3916
   6523SM   C9F 8435   6.999   4.224   6.215  0.4262 -0.0285 -0.2913
   6523SM   H9F 8436   7.073   4.301   6.185  1.2489 -0.9971 -0.7849
   6523SM   H9G 8437   6.991   4.220   6.326  0.9625  0.1276 -0.2440
   6523SM  C10F 8438   6.862   4.257   6.157  0.5294 -0.6454  0.6236
   6523SM  H10F 8439   6.834   4.361   6.186  1.9850  0.3298 -1.2443
   6523SM  H10G 8440   6.785   4.184   6.187  0.1703 -0.3151  0.5237
   6523SM  C11F 8441   6.851   4.258   6.001 -0.1284 -0.0112 -0.2755
   6523SM  H11F 8442   6.746   4.247   5.967  0.8275  0.7686 -3.8779
   6523SM  H11G 8443   6.905   4.171   5.959 -0.3296  0.2153 -1.0091
   6523SM  C12F 8444   6.902   4.391   5.930  0.8917 -0.3963  0.7234
   6523SM  H12F 8445   6.998   4.431   5.967  1.0114  0.1350 -0.1436
   6523SM  H12G 8446   6.822   4.466   5.948  1.8393  1.3661 -1.9723
   6523SM  C13F 8447   6.909   4.369   5.776  0.0206  1.0878 -0.2574
   6523SM  H13F 8448   6.809   4.320   5.766  1.2906 -1.9144  0.7207
   6523SM  H13G 8449   6.981   4.292   5.743 -1.1649 -2.0756  3.7826
   6523SM  C14F 8450   6.920   4.500   5.697 -0.1389 -0.0956  0.5908
   6523SM  H14F 8451   7.013   4.555   5.722  0.5695 -0.5823 -0.8654
   6523SM  H14G 8452   6.834   4.569   5.714 -0.9467 -0.6239 -1.1324
   6523SM  C15F 8453   6.944   4.477   5.550  0.5319  0.0642  0.1455
   6523SM  H15F 8454   6.846   4.443   5.510 -0.0018 -1.6833  2.6924
   6523SM  H15G 8455   7.010   4.389   5.538 -0.0995 -0.3666 -0.2466
   6523SM  C16F 8456   6.989   4.600   5.476 -0.3410  0.0449  0.3873
   6523SM  H16F 8457   7.086   4.623   5.526 -1.4251 -0.4797  2.8875
   6523SM  H16G 8458   6.920   4.685   5.496  2.1840  2.0166  1.2925
   6523SM  C17F 8459   7.008   4.589   5.323  0.5846 -0.2048 -0.0228
   6523SM  H17F 8460   7.001   4.697   5.297  2.7622  0.1489  0.6490
   6523SM  H17G 8461   6.919   4.543   5.274 -1.2945  0.4935  2.5030
   6523SM  C18F 8462   7.138   4.525   5.272 -0.3516 -0.3166 -0.2522
   6523SM  H18F 8463   7.126   4.417   5.295  1.7841 -0.8581 -1.3615
   6523SM  H18G 8464   7.224   4.553   5.337 -0.3682  0.2244 -0.4532
   6523SM  C19F 8465   7.148   4.552   5.115 -0.2758 -0.0533 -0.2588
   6523SM  H19F 8466   7.159   4.662   5.107 -0.3488 -0.1768 -2.9395
   6523SM  H19G 8467   7.054   4.516   5.067 -0.1877 -1.3127  0.4570
   6523SM  C20F 8468   7.270   4.498   5.035 -0.5940 -0.2570  0.0306
   6523SM  H20F 8469   7.288   4.528   4.930 -0.0950 -0.2706  0.1082
   6523SM  H20G 8470   7.257   4.387   5.037 -0.6478 -0.2448  0.6351
   6523SM  C21F 8471   7.401   4.546   5.113  0.2673 -0.0350 -0.6382
   6523SM  H21F 8472   7.427   4.480   5.199 -2.5168  0.8548  1.0375
   6523SM  H21G 8473   7.383   4.644   5.164 -0.4088  0.2608 -1.4321
   6523SM  C22F 8474   7.532   4.566   5.029 -0.2855 -0.6114  0.5046
   6523SM  H22F 8475   7.511   4.654   4.963  0.4643 -0.0789  0.9666
   6523SM  H22G 8476   7.549   4.483   4.958  2.0366 -0.3775  0.7153
   6523SM  C23F 8477   7.647   4.595   5.125 -0.9842 -0.5004  0.2286
   6523SM  H23F 8478   7.630   4.689   5.182 -1.2821 -1.7027  2.2290
   6523SM  H23G 8479   7.744   4.601   5.072 -1.9433  1.3563 -1.4589
   6523SM  H23H 8480   7.645   4.519   5.205 -2.3156 -0.4747  0.2546
   6623SM     N 8481   4.849   2.068   7.377 -0.0024  0.0541 -0.3068
   6623SM   C15 8482   4.879   2.179   7.468 -0.0732 -0.3303 -0.0524
   6623SM  H15A 8483   4.822   2.262   7.431  0.6327  0.3656  0.3776
   6623SM  H15B 8484   4.984   2.202   7.476  0.4864 -2.5220 -0.3423
   6623SM  H15C 8485   4.838   2.158   7.566  0.8102  2.0392  0.8816
   6623SM   C14 8486   4.894   1.941   7.427  0.3176 -0.1239 -0.0619
   6623SM  H14A 8487   4.860   1.871   7.353 -0.2296 -1.7569  1.6390
   6623SM  H14B 8488   4.842   1.920   7.520  1.9157 -1.7608  0.5433
   6623SM  H14C 8489   5.000   1.935   7.446  0.1040  1.8308  2.2475
   6623SM   C13 8490   4.701   2.053   7.357 -0.2576  0.1227  0.4259
   6623SM  H13A 8491   4.685   1.981   7.278  0.1772  1.7771 -1.2385
   6623SM  H13B 8492   4.657   2.147   7.328  0.2106 -0.2204 -1.5777
   6623SM  H13C 8493   4.642   2.024   7.443 -0.1708  5.4388  2.6207
   6623SM   C12 8494   4.928   2.080   7.236  1.0365  0.0495 -0.9347
   6623SM  H12A 8495   4.882   2.160   7.180  1.4226  1.2181  0.3567
   6623SM  H12B 8496   4.917   1.982   7.192  0.2309  0.1381 -0.9502
   6623SM   C11 8497   5.082   2.101   7.240  0.0568 -0.4213 -0.0349
   6623SM  H11A 8498   5.109   2.202   7.280 -1.0095 -0.1614  0.0699
   6623SM  H11B 8499   5.112   2.095   7.134  0.3224  0.1160  0.0031
   6623SM     P 8500   5.281   1.932   7.272  0.0085 -0.6352  0.0419
   6623SM   O13 8501   5.401   2.026   7.283  0.3586  0.0275 -0.4164
   6623SM   O14 8502   5.295   1.807   7.352 -0.4869  0.4305  0.2819
   6623SM   O11 8503   5.247   1.887   7.126  0.1686 -0.1130 -0.5900
   6623SM   O12 8504   5.150   1.999   7.318  0.4749 -0.2152 -0.5066
   6623SM   C1S 8505   5.138   1.793   7.102 -0.3424  0.6833 -0.0544
   6623SM   H1S 8506   5.050   1.809   7.168 -0.9969 -0.1977 -0.6884
   6623SM   H1T 8507   5.168   1.686   7.109 -1.1421  0.3752 -1.1266
   6623SM    NF 8508   4.962   1.708   6.948  0.0830  0.0550  0.1727
   6623SM   HNF 8509   4.981   1.627   6.894 -1.5941  0.9406 -1.8581
   6623SM   C2S 8510   5.078   1.801   6.959  0.2317  0.8299  0.0973
   6623SM   H2S 8511   5.037   1.902   6.941 -4.2615 -0.8001 -0.0887
   6623SM   C3S 8512   5.195   1.775   6.864 -0.0430  0.4234  0.6329
   6623SM   H3S 8513   5.213   1.667   6.884 -1.1004  0.4266  1.7480
   6623SM    O3 8514   5.323   1.826   6.884  0.3046  0.1940  0.8209
   6623SM   HO3 8515   5.309   1.881   6.962 -2.6419 -0.6296  0.9884
   6623SM   C4S 8516   5.146   1.766   6.718  0.7864 -0.4258 -0.2791
   6623SM   H4S 8517   5.097   1.674   6.684 -4.0363  2.0179 -0.8514
   6623SM   C5S 8518   5.162   1.848   6.614  0.0559  0.2063  0.4820
   6623SM   H5S 8519   5.227   1.936   6.628 -1.2358  1.6962 -2.1200
   6623SM   C6S 8520   5.107   1.835   6.475  0.6072  0.0283 -0.0222
   6623SM   H6S 8521   5.191   1.842   6.402  0.0629 -3.2422 -1.1391
   6623SM   H6T 8522   5.046   1.927   6.464  0.1274 -0.3426 -0.5382
   6623SM   C7S 8523   5.030   1.709   6.432 -0.5031  0.3504  0.1755
   6623SM   H7S 8524   4.963   1.672   6.512  0.0483 -2.4418 -0.5320
   6623SM   H7T 8525   5.106   1.630   6.413 -1.8172 -0.8317 -0.3491
   6623SM   C8S 8526   4.940   1.729   6.304  0.0566  0.2219  0.2273
   6623SM   H8S 8527   5.013   1.767   6.229  0.5485 -1.9140 -0.4496
   6623SM   H8T 8528   4.846   1.785   6.317  0.0104  0.0229  0.7845
   6623SM   C9S 8529   4.897   1.600   6.242 -0.5560  0.2090  0.2083
   6623SM   H9S 8530   4.811   1.551   6.293 -0.0636  0.0233  0.8786
   6623SM   H9T 8531   4.978   1.524   6.242  0.9307  1.6822 -2.1124
   6623SM  C10S 8532   4.856   1.621   6.100  0.1642  0.4006 -0.9371
   6623SM  H10S 8533   4.942   1.658   6.040 -0.5383 -1.4357 -3.2416
   6623SM  H10T 8534   4.788   1.707   6.083  0.2085  0.5749 -0.2697
   6623SM  C11S 8535   4.809   1.490   6.029  0.2000  0.0187  0.6915
   6623SM  H11S 8536   4.717   1.439   6.065  0.2466 -1.3216 -0.9732
   6623SM  H11T 8537   4.894   1.422   6.049  0.4591  0.3534  0.7325
   6623SM  C12S 8538   4.811   1.505   5.874  0.4879  0.0123  0.3508
   6623SM  H12S 8539   4.918   1.488   5.849  0.8206 -0.4089  1.9480
   6623SM  H12T 8540   4.765   1.604   5.854 -0.8551 -0.5853  0.4062
   6623SM  C13S 8541   4.730   1.394   5.800  0.2306 -0.2974  0.0582
   6623SM  H13S 8542   4.626   1.418   5.830  0.0019  0.4422 -1.2698
   6623SM  H13T 8543   4.752   1.294   5.844 -0.2174  0.2911  1.7019
   6623SM  C14S 8544   4.744   1.406   5.649  0.8404  0.4245 -0.0328
   6623SM  H14S 8545   4.853   1.389   5.635  0.4062 -3.6770  0.5428
   6623SM  H14T 8546   4.718   1.509   5.616  0.2886 -0.0460 -1.0972
   6623SM  C15S 8547   4.665   1.303   5.574 -0.3902 -0.3704 -0.4018
   6623SM  H15S 8548   4.556   1.324   5.584 -0.5084 -1.6855  1.7584
   6623SM  H15T 8549   4.666   1.198   5.610  0.1650  0.1132  1.0852
   6623SM  C16S 8550   4.700   1.294   5.425 -1.0720 -0.4850  0.3893
   6623SM  H16S 8551   4.804   1.265   5.400 -1.0764 -0.3759  0.2487
   6623SM  H16T 8552   4.692   1.400   5.395 -2.2449 -0.3562  1.0999
   6623SM  C17S 8553   4.598   1.224   5.344  0.6649 -0.8265  0.3052
   6623SM  H17S 8554   4.581   1.126   5.392 -1.1338  0.2162  1.9318
   6623SM  H17T 8555   4.637   1.200   5.242 -1.6257 -1.9697 -0.3695
   6623SM  C18S 8556   4.467   1.291   5.308  0.4741  0.0458 -0.1738
   6623SM  H18S 8557   4.419   1.235   5.225 -0.2437 -1.1885  1.0431
   6623SM  H18T 8558   4.502   1.391   5.273  2.5138  0.7712  3.4100
   6623SM  H18U 8559   4.398   1.313   5.392 -2.7110  0.9127 -2.7849
   6623SM   C1F 8560   4.846   1.736   7.011 -0.2798 -0.0607  0.0101
   6623SM    OF 8561   4.838   1.831   7.087  0.4825  0.0155  0.0860
   6623SM   C2F 8562   4.720   1.659   6.976  0.7589 -0.5834 -0.2121
   6623SM   H2F 8563   4.644   1.706   7.042  2.5604  0.1177  1.4469
   6623SM   H2G 8564   4.730   1.552   7.004  0.3973 -0.1289  1.7614
   6623SM   C3F 8565   4.683   1.676   6.826 -0.1527  0.2160 -0.6548
   6623SM   H3F 8566   4.591   1.614   6.815 -0.1276  0.5655 -4.1447
   6623SM   H3G 8567   4.766   1.628   6.770  0.4502 -0.1479  0.5176
   6623SM   C4F 8568   4.639   1.820   6.780 -0.3912 -0.3218 -0.2515
   6623SM   H4F 8569   4.728   1.885   6.792 -0.5929 -0.0906  0.0135
   6623SM   H4G 8570   4.569   1.863   6.855  0.1975 -0.4913  0.4059
   6623SM   C5F 8571   4.587   1.824   6.634  0.1928 -0.0843 -0.0018
   6623SM   H5F 8572   4.492   1.767   6.634 -0.8547  1.5789  0.3425
   6623SM   H5G 8573   4.664   1.772   6.572 -0.5463  0.9071 -1.8226
   6623SM   C6F 8574   4.576   1.969   6.578  0.8213 -0.1553 -0.7103
   6623SM   H6F 8575   4.675   1.996   6.536  1.0319  1.0035  0.4684
   6623SM   H6G 8576   4.546   2.043   6.656 -2.0018  1.3208 -3.0002
   6623SM   C7F 8577   4.459   1.988   6.481  0.1156 -0.0971  0.9713
   6623SM   H7F 8578   4.453   2.095   6.450  3.3528 -0.4165 -1.3659
   6623SM   H7G 8579   4.368   1.966   6.540 -0.3358  0.3663  0.4467
   6623SM   C8F 8580   4.482   1.905   6.352  0.4493 -0.0736 -0.4305
   6623SM   H8F 8581   4.504   1.799   6.375 -0.8665 -0.3670 -0.4739
   6623SM   H8G 8582   4.579   1.950   6.321  1.3705 -2.4080 -1.1737
   6623SM   C9F 8583   4.358   1.911   6.254 -0.2414  0.0580 -0.1620
   6623SM   H9F 8584   4.313   2.012   6.264  0.1261  0.1341  0.8962
   6623SM   H9G 8585   4.279   1.845   6.296  1.2341 -1.8788 -0.2450
   6623SM  C10F 8586   4.386   1.877   6.104  1.0893  0.0989 -0.3965
   6623SM  H10F 8587   4.441   1.965   6.065 -0.5908  1.9349  1.1426
   6623SM  H10G 8588   4.290   1.857   6.053 -0.3103  0.2234  2.0309
   6623SM  C11F 8589   4.478   1.761   6.081  0.5828 -0.0129 -0.6264
   6623SM  H11F 8590   4.444   1.688   6.158  1.6747  1.7343  1.6060
   6623SM  H11G 8591   4.583   1.787   6.103  1.1108 -2.8793  0.8178
   6623SM  C12F 8592   4.463   1.705   5.935  0.0819  0.1530 -0.7881
   6623SM  H12F 8593   4.356   1.677   5.925 -0.2033  0.2500  1.5390
   6623SM  H12G 8594   4.525   1.613   5.925  0.4140 -0.2363  3.1941
   6623SM  C13F 8595   4.499   1.806   5.820  0.2090  0.4794 -0.4330
   6623SM  H13F 8596   4.607   1.828   5.834 -0.2131  2.7819 -0.4057
   6623SM  H13G 8597   4.436   1.897   5.824  1.8097  1.5825  1.1200
   6623SM  C14F 8598   4.469   1.741   5.685 -0.3104  0.4931 -0.8773
   6623SM  H14F 8599   4.361   1.752   5.664 -0.5728  1.5452  0.8644
   6623SM  H14G 8600   4.493   1.633   5.699 -2.1841  0.3840  2.7498
   6623SM  C15F 8601   4.557   1.786   5.570 -0.3164  0.4710 -0.0689
   6623SM  H15F 8602   4.664   1.782   5.599 -0.4597  1.3017  0.5853
   6623SM  H15G 8603   4.532   1.892   5.551 -0.1014  0.2234 -1.9763
   6623SM  C16F 8604   4.541   1.697   5.444 -0.8305  0.8201  0.7252
   6623SM  H16F 8605   4.440   1.706   5.399  0.3080 -0.9965 -2.5065
   6623SM  H16G 8606   4.573   1.594   5.469  1.3412  1.7071  1.8431
   6623SM  C17F 8607   4.645   1.735   5.339 -0.0475  0.2935 -0.4446
   6623SM  H17F 8608   4.750   1.712   5.365 -0.7065 -0.6965  1.5458
   6623SM  H17G 8609   4.645   1.846   5.330  0.3625  0.3087 -0.2419
   6623SM  C18F 8610   4.616   1.695   5.191 -0.0380 -0.1209 -0.1480
   6623SM  H18F 8611   4.617   1.584   5.189  0.6102 -0.1625  1.5904
   6623SM  H18G 8612   4.706   1.734   5.138  1.8863 -1.6365  1.8147
   6623SM  C19F 8613   4.483   1.748   5.134  1.1444 -0.3049 -0.1590
   6623SM  H19F 8614   4.471   1.856   5.159 -0.2782 -0.1842 -1.1960
   6623SM  H19G 8615   4.398   1.699   5.185  0.7258  2.5048  2.1356
   6623SM  C20F 8616   4.481   1.756   4.979 -0.6539  0.2783  0.0111
   6623SM  H20F 8617   4.529   1.665   4.937 -1.2000 -0.4953  1.0090
   6623SM  H20G 8618   4.553   1.832   4.942 -1.0429  0.5162 -0.2661
   6623SM  C21F 8619   4.339   1.771   4.921 -0.7842 -0.6009  1.1068
   6623SM  H21F 8620   4.291   1.865   4.954  0.4248  0.3232  0.3101
   6623SM  H21G 8621   4.277   1.686   4.957 -1.5339 -0.6771 -0.3075
   6623SM  C22F 8622   4.328   1.760   4.769  0.1547 -0.4670  0.4123
   6623SM  H22F 8623   4.382   1.673   4.725  0.5646 -0.1531  0.2865
   6623SM  H22G 8624   4.374   1.850   4.723 -0.9749  0.7439  1.5898
   6623SM  C23F 8625   4.183   1.755   4.710  0.2150  0.6363 -0.1899
   6623SM  H23F 8626   4.148   1.859   4.729  2.9182  1.6240 -0.2487
   6623SM  H23G 8627   4.123   1.680   4.766  0.6636 -2.0238 -2.9797
   6623SM  H23H 8628   4.183   1.709   4.609 -0.7074 -1.9852  0.9097
   6723SM     N 8629   4.281   5.707   7.015 -0.2080 -0.1278 -0.3000
   6723SM   C15 8630   4.200   5.830   7.002 -0.4246  0.5854 -0.0296
   6723SM  H15A 8631   4.116   5.815   6.935 -0.6864  2.3013 -0.1370
   6723SM  H15B 8632   4.262   5.913   6.972 -0.5522 -0.0559 -2.1990
   6723SM  H15C 8633   4.164   5.853   7.101 -1.0609 -3.0704  0.7221
   6723SM   C14 8634   4.398   5.724   7.108 -0.2312 -0.5604 -0.1054
   6723SM  H14A 8635   4.443   5.628   7.132  0.4663 -0.0486  0.6945
   6723SM  H14B 8636   4.374   5.767   7.204 -0.3688 -1.8682  0.4624
   6723SM  H14C 8637   4.467   5.794   7.063 -0.3037 -0.0720  0.5377
   6723SM   C13 8638   4.181   5.613   7.076 -0.3372 -0.0036  0.1690
   6723SM  H13A 8639   4.105   5.581   7.006  1.4171  1.5323 -2.6421
   6723SM  H13B 8640   4.129   5.641   7.166  0.1315 -0.8066  0.6937
   6723SM  H13C 8641   4.233   5.520   7.093 -2.0257 -1.2856 -1.3180
   6723SM   C12 8642   4.329   5.660   6.877  0.7504 -0.3841  0.3174
   6723SM  H12A 8643   4.253   5.629   6.807  2.4582 -2.0013 -0.9142
   6723SM  H12B 8644   4.385   5.569   6.894 -1.3382 -1.6004  0.9939
   6723SM   C11 8645   4.422   5.759   6.799 -0.1936  0.0419  0.3670
   6723SM  H11A 8646   4.359   5.850   6.799  0.0677  0.3466  3.6677
   6723SM  H11B 8647   4.444   5.734   6.692  4.0429 -0.5107  1.1801
   6723SM     P 8648   4.657   5.666   6.858 -0.4195  0.3759 -0.1158
   6723SM   O13 8649   4.790   5.707   6.909  0.1481 -0.0576 -0.1553
   6723SM   O14 8650   4.597   5.534   6.894  0.0731 -0.1999  0.4312
   6723SM   O11 8651   4.679   5.646   6.701 -0.2708  0.1082 -0.4615
   6723SM   O12 8652   4.549   5.779   6.861  0.1690  0.2997 -0.4861
   6723SM   C1S 8653   4.699   5.769   6.626 -0.0029  0.5282  0.4249
   6723SM   H1S 8654   4.759   5.842   6.683 -0.4894  0.0953  1.5340
   6723SM   H1T 8655   4.600   5.816   6.606  0.4036  0.8867 -0.8533
   6723SM    NF 8656   4.767   5.855   6.400  0.0677 -1.1765  0.1394
   6723SM   HNF 8657   4.689   5.894   6.352 -1.0290  1.0849  3.3850
   6723SM   C2S 8658   4.748   5.739   6.476  0.5280  0.4082  0.2288
   6723SM   H2S 8659   4.846   5.688   6.489 -0.0138 -0.5767  0.6145
   6723SM   C3S 8660   4.661   5.627   6.406  0.0337  0.0426 -0.2359
   6723SM   H3S 8661   4.554   5.648   6.385 -0.2967 -1.5229 -0.2158
   6723SM    O3 8662   4.661   5.505   6.486 -0.0962  0.5943  0.1833
   6723SM   HO3 8663   4.707   5.535   6.565  0.5920  1.9601 -0.6915
   6723SM   C4S 8664   4.733   5.597   6.283  0.8527  0.1371  0.5034
   6723SM   H4S 8665   4.815   5.524   6.283  1.3094  0.6205 -0.7100
   6723SM   C5S 8666   4.688   5.644   6.162 -0.4120  0.7847 -0.6040
   6723SM   H5S 8667   4.600   5.711   6.160 -0.5583  0.6488  0.7240
   6723SM   C6S 8668   4.762   5.615   6.036  0.0021 -0.7911 -0.4585
   6723SM   H6S 8669   4.870   5.615   6.063  0.0693  0.0126 -0.6813
   6723SM   H6T 8670   4.750   5.701   5.966  1.0643 -0.9225 -0.8194
   6723SM   C7S 8671   4.724   5.484   5.952 -0.3019 -0.0904  0.5409
   6723SM   H7S 8672   4.630   5.494   5.894 -2.1501  0.2263  3.3697
   6723SM   H7T 8673   4.721   5.400   6.024 -1.4438 -1.3936 -0.9822
   6723SM   C8S 8674   4.834   5.460   5.845  0.7537 -0.3991 -0.4920
   6723SM   H8S 8675   4.818   5.358   5.803  0.1336 -0.6419  0.3002
   6723SM   H8T 8676   4.934   5.453   5.892  0.3672 -0.4976  0.3271
   6723SM   C9S 8677   4.848   5.553   5.722  0.3130  0.0351  0.0528
   6723SM   H9S 8678   4.912   5.494   5.652  1.3938  0.1544  0.9064
   6723SM   H9T 8679   4.909   5.642   5.750 -1.2686  1.3437 -0.5250
   6723SM  C10S 8680   4.715   5.601   5.667 -0.3349  0.3800 -0.3206
   6723SM  H10S 8681   4.647   5.656   5.736  0.7392  0.9652  0.3078
   6723SM  H10T 8682   4.655   5.516   5.628  0.3601  0.3442 -1.3559
   6723SM  C11S 8683   4.739   5.669   5.534 -0.4117  0.2601  0.6272
   6723SM  H11S 8684   4.808   5.614   5.466 -0.4851 -0.2983  0.9977
   6723SM  H11T 8685   4.794   5.764   5.551  1.4498 -0.2208 -2.0283
   6723SM  C12S 8686   4.609   5.693   5.458 -0.2840 -0.1702  0.2673
   6723SM  H12S 8687   4.535   5.717   5.537  1.1173 -2.5218  2.4282
   6723SM  H12T 8688   4.587   5.601   5.400 -1.5184  0.5359 -0.4275
   6723SM  C13S 8689   4.603   5.818   5.363 -0.1969  0.9333 -0.1041
   6723SM  H13S 8690   4.508   5.814   5.306  0.2474 -0.7101 -0.7926
   6723SM  H13T 8691   4.686   5.801   5.291  0.9433 -2.3151  1.7874
   6723SM  C14S 8692   4.617   5.947   5.432  0.0246 -0.1247  0.5376
   6723SM  H14S 8693   4.710   5.968   5.487 -0.8594  2.2985  1.2572
   6723SM  H14T 8694   4.540   5.959   5.511 -0.4188  0.4664  0.0313
   6723SM  C15S 8695   4.603   6.066   5.340 -0.6292  0.0073  0.2730
   6723SM  H15S 8696   4.601   6.153   5.408  0.8612  0.2540  0.0457
   6723SM  H15T 8697   4.511   6.060   5.278  1.1769 -0.5542 -2.5769
   6723SM  C16S 8698   4.726   6.090   5.246  0.7408  0.1912 -0.2126
   6723SM  H16S 8699   4.742   5.995   5.192  0.6330  0.4053 -0.6222
   6723SM  H16T 8700   4.818   6.104   5.309 -0.6745 -1.0959  2.3056
   6723SM  C17S 8701   4.703   6.209   5.154  0.2719 -0.6095 -0.2157
   6723SM  H17S 8702   4.600   6.232   5.119  0.2540  1.5944  1.1038
   6723SM  H17T 8703   4.773   6.193   5.070  0.9232  3.4656 -0.6477
   6723SM  C18S 8704   4.755   6.348   5.206  0.7033  0.4437 -0.2188
   6723SM  H18S 8705   4.719   6.430   5.141 -0.4419 -0.8287 -1.2697
   6723SM  H18T 8706   4.866   6.358   5.202  0.7909 -0.4813 -0.4012
   6723SM  H18U 8707   4.718   6.368   5.308 -0.5480 -0.2657 -0.5146
   6723SM   C1F 8708   4.865   5.945   6.425  0.5948  0.2535  0.0889
   6723SM    OF 8709   4.957   5.906   6.497 -0.3703  0.4842 -0.0411
   6723SM   C2F 8710   4.849   6.083   6.366  0.2182  0.3153 -0.1533
   6723SM   H2F 8711   4.818   6.149   6.450  0.2967  1.5281 -1.0544
   6723SM   H2G 8712   4.774   6.076   6.284  0.5392 -1.4173 -0.3541
   6723SM   C3F 8713   4.989   6.129   6.317  0.7982  0.5262  0.5769
   6723SM   H3F 8714   5.018   6.055   6.240 -0.2788  0.2862  0.3780
   6723SM   H3G 8715   5.066   6.119   6.396  1.1713 -1.3933  0.0134
   6723SM   C4F 8716   4.995   6.268   6.252 -0.6753  0.0462 -0.2310
   6723SM   H4F 8717   4.971   6.333   6.339  0.0652 -0.7885  0.6150
   6723SM   H4G 8718   4.920   6.263   6.170 -0.8385  2.1839 -0.2725
   6723SM   C5F 8719   5.127   6.302   6.190 -0.0781  0.2156  0.0079
   6723SM   H5F 8720   5.121   6.255   6.089  0.2753 -1.3198  0.6708
   6723SM   H5G 8721   5.204   6.246   6.247  0.0844  2.3885  2.0325
   6723SM   C6F 8722   5.159   6.448   6.184  0.2043  0.0805 -0.4746
   6723SM   H6F 8723   5.152   6.490   6.286 -0.9498  0.8492 -0.8537
   6723SM   H6G 8724   5.095   6.512   6.119  0.0065  2.1326  1.6196
   6723SM   C7F 8725   5.301   6.466   6.131  0.4582  0.3752  0.2151
   6723SM   H7F 8726   5.356   6.413   6.212  0.1140  0.1219  0.2853
   6723SM   H7G 8727   5.329   6.573   6.143  0.2463  0.5454 -0.7397
   6723SM   C8F 8728   5.337   6.411   5.998  0.0624  0.5260  0.3145
   6723SM   H8F 8729   5.306   6.305   5.987 -0.7980  0.8745 -0.8948
   6723SM   H8G 8730   5.448   6.411   5.996  0.1378 -0.1585  2.3906
   6723SM   C9F 8731   5.281   6.499   5.882 -0.7523 -0.4246  0.1740
   6723SM   H9F 8732   5.296   6.606   5.904 -1.9913  0.4195 -2.6340
   6723SM   H9G 8733   5.172   6.480   5.873 -0.5989 -1.1329 -0.3316
   6723SM  C10F 8734   5.359   6.466   5.749 -0.1129 -0.0657  0.2608
   6723SM  H10F 8735   5.331   6.363   5.719 -0.2929  0.4189 -1.3202
   6723SM  H10G 8736   5.469   6.472   5.763 -0.1236  0.8846  0.0075
   6723SM  C11F 8737   5.327   6.562   5.635 -0.3321 -0.0511  0.1658
   6723SM  H11F 8738   5.338   6.665   5.676 -1.5174 -0.6009  1.9930
   6723SM  H11G 8739   5.220   6.540   5.614  0.1054 -3.4820  0.9726
   6723SM  C12F 8740   5.398   6.533   5.505 -0.2075 -0.2939 -0.0865
   6723SM  H12F 8741   5.388   6.425   5.479 -0.5746 -1.0688  2.8268
   6723SM  H12G 8742   5.507   6.553   5.518 -0.2958 -1.4089  3.8008
   6723SM  C13F 8743   5.350   6.620   5.392 -0.4550 -0.0565 -0.5393
   6723SM  H13F 8744   5.350   6.727   5.422 -1.7000  0.6782 -2.9024
   6723SM  H13G 8745   5.244   6.588   5.385  0.3882 -2.8546 -2.2160
   6723SM  C14F 8746   5.427   6.601   5.259  0.1375  0.2168  0.3695
   6723SM  H14F 8747   5.401   6.500   5.219 -1.5499  0.4408  0.8179
   6723SM  H14G 8748   5.533   6.627   5.275 -0.4859  4.0157 -0.8056
   6723SM  C15F 8749   5.386   6.699   5.154  0.7234  0.8027 -1.0509
   6723SM  H15F 8750   5.451   6.695   5.064  1.7820 -0.7921 -0.2715
   6723SM  H15G 8751   5.368   6.799   5.198 -1.4932 -0.3105  0.8209
   6723SM  C16F 8752   5.247   6.678   5.090  0.2277  0.2521  0.0120
   6723SM  H16F 8753   5.183   6.671   5.181 -0.2761  2.5483 -0.0811
   6723SM  H16G 8754   5.260   6.584   5.034  1.6118 -0.1862  1.0199
   6723SM  C17F 8755   5.217   6.799   4.998 -0.2189 -0.3754  0.2841
   6723SM  H17F 8756   5.293   6.798   4.917 -0.9208 -2.2334 -0.3878
   6723SM  H17G 8757   5.232   6.898   5.046  1.2464  1.1633 -3.0457
   6723SM  C18F 8758   5.082   6.784   4.926  0.3428  0.0826  0.3106
   6723SM  H18F 8759   4.993   6.788   4.991  0.1253 -1.8213  0.1657
   6723SM  H18G 8760   5.074   6.681   4.886 -2.4983  0.2383  0.2953
   6723SM  C19F 8761   5.064   6.868   4.799 -0.5699  0.4804  0.1854
   6723SM  H19F 8762   5.134   6.835   4.719 -0.7662 -3.8960  1.5210
   6723SM  H19G 8763   5.077   6.976   4.817  2.5289  0.7079 -2.5607
   6723SM  C20F 8764   4.929   6.864   4.737  0.0535  0.9626 -0.0624
   6723SM  H20F 8765   4.918   6.950   4.668  0.9350  1.2469  0.1364
   6723SM  H20G 8766   4.846   6.879   4.810 -0.2119 -2.4727  0.5131
   6723SM  C21F 8767   4.903   6.738   4.648 -0.2339  0.0447  0.2359
   6723SM  H21F 8768   4.917   6.648   4.713  0.4056  0.4958  0.7426
   6723SM  H21G 8769   4.974   6.737   4.563  2.4674 -1.0496  2.3276
   6723SM  C22F 8770   4.760   6.732   4.599  0.1773  0.7254  0.7972
   6723SM  H22F 8771   4.728   6.821   4.541 -0.5209  0.6626  1.0698
   6723SM  H22G 8772   4.697   6.712   4.688  0.6172  0.8169  1.1314
   6723SM  C23F 8773   4.731   6.619   4.492  0.7468 -0.0827 -0.1304
   6723SM  H23F 8774   4.626   6.638   4.462  0.2406 -1.3578  0.7584
   6723SM  H23G 8775   4.729   6.517   4.536 -1.9016  1.1166  2.9653
   6723SM  H23H 8776   4.796   6.628   4.402  1.8002  2.0996  0.7529
   6823SM     N 8777   4.124   0.855   7.269 -0.1116 -0.3556  0.1033
   6823SM   C15 8778   4.209   0.790   7.371 -0.2173  0.1855  0.8050
   6823SM  H15A 8779   4.309   0.830   7.362  0.5915 -1.8053  0.5393
   6823SM  H15B 8780   4.217   0.684   7.354  0.2273  0.0852  1.6090
   6823SM  H15C 8781   4.174   0.816   7.470 -0.4610  1.3841  0.4169
   6823SM   C14 8782   4.116   0.998   7.289 -0.3202 -0.4490  0.6694
   6823SM  H14A 8783   4.093   1.018   7.393  1.1907  0.4833  0.8438
   6823SM  H14B 8784   4.037   1.035   7.225 -0.1436 -1.2510 -0.0269
   6823SM  H14C 8785   4.205   1.055   7.268 -1.0531  0.1447 -1.0056
   6823SM   C13 8786   4.174   0.818   7.130 -0.2279 -0.0302  0.4094
   6823SM  H13A 8787   4.187   0.711   7.124  0.7770  0.0133  1.4133
   6823SM  H13B 8788   4.269   0.861   7.102 -1.0266  1.7709  0.3252
   6823SM  H13C 8789   4.101   0.859   7.061  0.7588  0.5023 -0.3341
   6823SM   C12 8790   3.983   0.798   7.289  0.6611 -0.6415 -0.0680
   6823SM  H12A 8791   3.941   0.828   7.383  1.5707 -1.0705  0.4841
   6823SM  H12B 8792   4.005   0.693   7.301 -1.5487 -0.8295  3.3727
   6823SM   C11 8793   3.882   0.836   7.179 -0.1890  0.3684 -0.3668
   6823SM  H11A 8794   3.804   0.757   7.179 -0.8921  1.0599 -0.5443
   6823SM  H11B 8795   3.923   0.837   7.075  0.8504  2.1121  0.0153
   6823SM     P 8796   3.683   0.955   7.284  0.4124  0.3133 -0.0298
   6823SM   O13 8797   3.691   0.844   7.378 -0.7852 -0.5227 -0.2277
   6823SM   O14 8798   3.657   1.088   7.343 -0.6290  0.7135  0.7351
   6823SM   O11 8799   3.581   0.922   7.175 -0.2510 -0.1570 -0.1494
   6823SM   O12 8800   3.820   0.961   7.204  0.1620 -0.4483 -0.0876
   6823SM   C1S 8801   3.551   0.992   7.056  0.2279 -0.4842  0.0550
   6823SM   H1S 8802   3.610   1.086   7.060  1.1729 -1.0566  0.0100
   6823SM   H1T 8803   3.441   1.009   7.053 -0.1979 -2.7117  1.2063
   6823SM    NF 8804   3.542   1.002   6.814  0.3453  0.6149 -0.1863
   6823SM   HNF 8805   3.466   0.973   6.757 -0.0449  1.8519 -0.3410
   6823SM   C2S 8806   3.585   0.919   6.922 -0.6387 -0.7405 -0.2793
   6823SM   H2S 8807   3.696   0.914   6.917 -0.6875 -1.7367 -0.4893
   6823SM   C3S 8808   3.530   0.770   6.923 -0.1140  0.4159 -0.0054
   6823SM   H3S 8809   3.420   0.777   6.930 -0.2139  0.7156 -1.5016
   6823SM    O3 8810   3.577   0.687   7.030  0.6585 -0.2228 -0.2341
   6823SM   HO3 8811   3.617   0.751   7.090  1.4479  1.0257 -2.0188
   6823SM   C4S 8812   3.568   0.719   6.785  0.1003 -0.0008  0.6008
   6823SM   H4S 8813   3.494   0.743   6.707  1.1929  0.0961 -0.4184
   6823SM   C5S 8814   3.682   0.657   6.745  0.0356 -0.2475 -0.4256
   6823SM   H5S 8815   3.761   0.628   6.816 -0.2404 -1.2898 -0.5271
   6823SM   C6S 8816   3.709   0.634   6.597 -0.0944 -0.3284 -0.5607
   6823SM   H6S 8817   3.712   0.525   6.575 -1.3783 -0.7284  1.0046
   6823SM   H6T 8818   3.809   0.679   6.577  0.8403 -2.7349 -1.6411
   6823SM   C7S 8819   3.605   0.683   6.491  0.3689  0.5749  0.6008
   6823SM   H7S 8820   3.587   0.790   6.517 -1.1067  0.2111  1.1723
   6823SM   H7T 8821   3.506   0.633   6.502  1.3888 -2.2718 -1.8667
   6823SM   C8S 8822   3.654   0.685   6.347 -0.1292 -0.3050 -0.3105
   6823SM   H8S 8823   3.661   0.574   6.335  1.7878 -0.3611  0.9087
   6823SM   H8T 8824   3.754   0.733   6.341  0.2419 -1.2022 -2.8268
   6823SM   C9S 8825   3.565   0.741   6.242  0.2679 -0.1044 -0.1544
   6823SM   H9S 8826   3.552   0.848   6.268  0.7939 -0.1922  0.5143
   6823SM   H9T 8827   3.464   0.694   6.249 -0.5469  1.3647 -1.5452
   6823SM  C10S 8828   3.631   0.735   6.106 -0.3407  0.0237 -0.0601
   6823SM  H10S 8829   3.656   0.628   6.085  0.4094 -0.3851  2.5668
   6823SM  H10T 8830   3.722   0.795   6.121 -0.4236 -0.1031  1.0031
   6823SM  C11S 8831   3.536   0.777   5.993 -0.1848  0.0189 -0.2562
   6823SM  H11S 8832   3.503   0.880   6.018  0.5129  0.1521  0.1310
   6823SM  H11T 8833   3.450   0.707   5.992 -1.4555  1.5077  0.5303
   6823SM  C12S 8834   3.601   0.764   5.854  0.1866 -0.4427 -0.0483
   6823SM  H12S 8835   3.649   0.664   5.847  0.5530 -0.1999 -1.2597
   6823SM  H12T 8836   3.684   0.833   5.828  0.2726 -0.7624 -0.6408
   6823SM  C13S 8837   3.495   0.793   5.749  0.4576  0.0223  0.7467
   6823SM  H13S 8838   3.448   0.890   5.776 -2.0428 -0.0947 -2.6457
   6823SM  H13T 8839   3.418   0.714   5.757 -0.2479  0.8399  2.5647
   6823SM  C14S 8840   3.556   0.807   5.609 -0.8320  0.1162  0.6619
   6823SM  H14S 8841   3.582   0.709   5.563 -3.2158 -0.5673  0.6296
   6823SM  H14T 8842   3.642   0.875   5.625 -0.3926 -0.6960  1.9213
   6823SM  C15S 8843   3.464   0.883   5.506  0.0469 -0.1365 -0.9788
   6823SM  H15S 8844   3.425   0.976   5.551 -2.8451 -2.7544  2.5644
   6823SM  H15T 8845   3.376   0.816   5.494  0.2093 -0.5936  0.2113
   6823SM  C16S 8846   3.525   0.921   5.376  0.4059 -0.1608  0.6090
   6823SM  H16S 8847   3.548   0.825   5.324 -0.5463  0.9680 -2.0558
   6823SM  H16T 8848   3.631   0.954   5.384  0.4332 -0.0521 -0.0991
   6823SM  C17S 8849   3.431   1.011   5.294 -0.0139  0.2199  0.0653
   6823SM  H17S 8850   3.409   1.108   5.344 -0.6623 -0.1398  0.4773
   6823SM  H17T 8851   3.336   0.956   5.283 -0.5069  1.3461 -1.8932
   6823SM  C18S 8852   3.473   1.042   5.153 -0.4357 -0.0660 -0.3971
   6823SM  H18S 8853   3.471   0.956   5.082  2.4954 -1.0996  0.6366
   6823SM  H18T 8854   3.576   1.083   5.155 -0.5823  0.7381 -3.6567
   6823SM  H18U 8855   3.408   1.118   5.104 -0.4355 -0.8897 -1.7330
   6823SM   C1F 8856   3.581   1.123   6.790  0.7784  0.1852  0.3904
   6823SM    OF 8857   3.689   1.161   6.831 -0.5835 -0.1062 -0.2657
   6823SM   C2F 8858   3.509   1.209   6.694  0.2760 -1.0109 -0.1959
   6823SM   H2F 8859   3.408   1.227   6.738  1.2246  1.1149  1.2826
   6823SM   H2G 8860   3.506   1.154   6.598  0.1798 -1.4778  0.0685
   6823SM   C3F 8861   3.560   1.349   6.683  0.0816 -0.1008 -0.1192
   6823SM   H3F 8862   3.668   1.345   6.656 -0.0614 -0.2230 -0.6825
   6823SM   H3G 8863   3.550   1.388   6.787  0.2342  1.2574 -0.5994
   6823SM   C4F 8864   3.490   1.433   6.573  0.2107  0.1225 -0.1430
   6823SM   H4F 8865   3.539   1.532   6.581 -1.0881  0.8605 -0.8465
   6823SM   H4G 8866   3.380   1.440   6.586  0.2267  0.3256 -0.1239
   6823SM   C5F 8867   3.506   1.372   6.432 -0.1258  0.1970  0.5051
   6823SM   H5F 8868   3.441   1.282   6.430 -1.7544  1.2406  2.5125
   6823SM   H5G 8869   3.612   1.354   6.407 -0.5034  0.7418 -1.7447
   6823SM   C6F 8870   3.465   1.480   6.324 -0.1296 -0.0792 -0.4642
   6823SM   H6F 8871   3.506   1.580   6.350 -3.9973  1.1742  1.5275
   6823SM   H6G 8872   3.358   1.498   6.304  0.1248  0.9285 -1.0113
   6823SM   C7F 8873   3.506   1.430   6.183  0.1003 -0.5239  0.1557
   6823SM   H7F 8874   3.458   1.334   6.158 -2.2159  0.6452 -0.1787
   6823SM   H7G 8875   3.615   1.406   6.177  0.2899  0.4777 -0.9540
   6823SM   C8F 8876   3.475   1.542   6.082  0.3703  0.0045 -0.1255
   6823SM   H8F 8877   3.549   1.520   6.001  0.3667 -2.7896  0.5531
   6823SM   H8G 8878   3.502   1.637   6.132 -0.1819  0.8772 -1.4145
   6823SM   C9F 8879   3.328   1.546   6.032  0.1943  0.9845 -0.4467
   6823SM   H9F 8880   3.266   1.613   6.095  1.0140  0.2579  1.1930
   6823SM   H9G 8881   3.280   1.446   6.039  0.5285  0.9350  1.9487
   6823SM  C10F 8882   3.333   1.598   5.891 -0.0690  0.1447  0.2089
   6823SM  H10F 8883   3.384   1.538   5.813 -0.0527 -1.6003  1.5206
   6823SM  H10G 8884   3.401   1.686   5.884 -1.0331  0.7903 -2.1993
   6823SM  C11F 8885   3.203   1.650   5.833  0.8918  0.0616 -0.4240
   6823SM  H11F 8886   3.154   1.722   5.902 -0.7349 -0.0145 -1.4506
   6823SM  H11G 8887   3.129   1.567   5.832 -2.4189  2.7631  0.7612
   6823SM  C12F 8888   3.219   1.694   5.695 -0.4651  0.7878  0.2106
   6823SM  H12F 8889   3.245   1.603   5.637 -2.3921  0.2665  0.1076
   6823SM  H12G 8890   3.302   1.762   5.667  0.5374 -0.5560 -0.1750
   6823SM  C13F 8891   3.077   1.748   5.648  0.0766  0.1452 -0.2937
   6823SM  H13F 8892   3.060   1.820   5.731  0.9971 -0.7570  0.6970
   6823SM  H13G 8893   3.008   1.660   5.648  0.2579 -0.0333 -1.8226
   6823SM  C14F 8894   3.076   1.810   5.505  0.1298 -0.5280 -0.0628
   6823SM  H14F 8895   3.125   1.740   5.434 -0.8642 -2.0140  0.6653
   6823SM  H14G 8896   3.135   1.902   5.522 -1.6529  0.2775  2.2459
   6823SM  C15F 8897   2.935   1.844   5.445 -0.1779  0.2044  0.6278
   6823SM  H15F 8898   2.886   1.918   5.512 -3.0233  1.6548 -2.7026
   6823SM  H15G 8899   2.874   1.754   5.423 -0.0067  0.4841 -1.1974
   6823SM  C16F 8900   2.959   1.914   5.306 -0.1395 -0.1729 -0.9479
   6823SM  H16F 8901   3.046   1.983   5.318  0.8751 -1.5741  0.1688
   6823SM  H16G 8902   2.866   1.967   5.279 -0.4135 -0.9904 -1.6475
   6823SM  C17F 8903   3.008   1.827   5.186 -0.9459 -0.2272 -0.4327
   6823SM  H17F 8904   2.931   1.748   5.172 -0.0669 -1.0697 -0.5932
   6823SM  H17G 8905   3.101   1.771   5.213 -0.2602  0.2939 -1.6378
   6823SM  C18F 8906   3.025   1.899   5.053 -0.2675 -0.4277  0.2152
   6823SM  H18F 8907   3.060   1.829   4.974 -0.9119  1.8371 -2.1995
   6823SM  H18G 8908   3.107   1.973   5.059 -1.9444  1.4845  0.6442
   6823SM  C19F 8909   2.899   1.968   5.012 -0.4629  0.2050 -0.3177
   6823SM  H19F 8910   2.874   2.056   5.075  0.4132 -0.7825  1.4891
   6823SM  H19G 8911   2.815   1.896   5.011 -0.1792 -0.1430  0.6934
   6823SM  C20F 8912   2.904   2.013   4.860  0.4423  0.3118  0.0882
   6823SM  H20F 8913   2.952   1.928   4.806 -1.3608 -1.3764  1.0061
   6823SM  H20G 8914   2.963   2.107   4.858  1.1156 -0.1150 -0.4859
   6823SM  C21F 8915   2.761   2.028   4.807  0.0724  0.4801 -0.3586
   6823SM  H21F 8916   2.718   2.127   4.829  1.6117  0.4713  3.3444
   6823SM  H21G 8917   2.687   1.958   4.852  0.1478 -0.8463 -2.1475
   6823SM  C22F 8918   2.752   1.983   4.660  0.4900 -0.3751 -0.1263
   6823SM  H22F 8919   2.647   1.978   4.625  0.4919 -0.4761 -0.1165
   6823SM  H22G 8920   2.794   1.881   4.653 -0.1372 -0.5434 -2.1360
   6823SM  C23F 8921   2.825   2.080   4.565  0.0985  0.7652 -0.5982
   6823SM  H23F 8922   2.935   2.076   4.583 -0.1121 -0.4203  0.6330
   6823SM  H23G 8923   2.791   2.185   4.573  1.3843  1.2104 -0.7632
   6823SM  H23H 8924   2.824   2.048   4.458  3.2077 -1.6916 -0.0703
   6923SM     N 8925   6.432   1.635   6.975  0.2144 -0.3678 -0.1320
   6923SM   C15 8926   6.412   1.780   6.957  0.3455  0.7684  0.3129
   6923SM  H15A 8927   6.414   1.817   6.855 -3.3128 -1.2311 -0.6802
   6923SM  H15B 8928   6.476   1.833   7.026 -1.2407  2.0436  0.8774
   6923SM  H15C 8929   6.310   1.804   6.983  0.3851  1.9738 -0.5348
   6923SM   C14 8930   6.569   1.588   6.944 -0.5185  0.3220 -0.1531
   6923SM  H14A 8931   6.596   1.491   6.982  0.6761  0.9806  0.7445
   6923SM  H14B 8932   6.641   1.656   6.987 -1.5547  1.2885  0.1130
   6923SM  H14C 8933   6.589   1.582   6.838 -0.0331  0.2337 -0.0594
   6923SM   C13 8934   6.412   1.609   7.128  0.0858  0.2915 -0.0552
   6923SM  H13A 8935   6.485   1.675   7.172  2.0590 -0.9029 -1.3800
   6923SM  H13B 8936   6.412   1.503   7.150 -1.0655  0.2756 -0.1102
   6923SM  H13C 8937   6.318   1.654   7.157  0.9109  1.0294  1.6190
   6923SM   C12 8938   6.328   1.555   6.895 -0.4254 -0.0914 -0.5697
   6923SM  H12A 8939   6.366   1.455   6.908 -0.3662 -0.1355 -1.0821
   6923SM  H12B 8940   6.336   1.574   6.789  3.3563  0.3743 -0.3329
   6923SM   C11 8941   6.181   1.559   6.937 -0.6845  0.1122 -0.0300
   6923SM  H11A 8942   6.147   1.499   7.024  1.3881  0.3193  0.9716
   6923SM  H11B 8943   6.131   1.510   6.850 -1.8762  1.3047 -0.0392
   6923SM     P 8944   6.055   1.756   7.066  0.0381 -0.1077 -0.1189
   6923SM   O13 8945   6.042   1.666   7.181  0.0367  0.0868 -0.1439
   6923SM   O14 8946   6.106   1.891   7.095 -0.1811  0.7508 -1.2224
   6923SM   O11 8947   5.913   1.780   7.009 -0.3453  0.1869 -0.2140
   6923SM   O12 8948   6.137   1.691   6.941  0.0618  0.1552 -0.7790
   6923SM   C1S 8949   5.881   1.891   6.931  0.8265  0.1592  0.7868
   6923SM   H1S 8950   5.946   1.978   6.952  1.7899 -0.7854  1.9068
   6923SM   H1T 8951   5.785   1.931   6.968 -0.1084  0.4220 -1.7490
   6923SM    NF 8952   5.824   1.975   6.703 -0.0743 -0.4515  0.3234
   6923SM   HNF 8953   5.735   1.986   6.660 -0.6190 -2.3984  0.8876
   6923SM   C2S 8954   5.845   1.856   6.783 -0.3296 -0.5307  1.4511
   6923SM   H2S 8955   5.935   1.808   6.738 -0.8979 -0.8482  0.6375
   6923SM   C3S 8956   5.740   1.744   6.779  0.4919  0.8230  0.0360
   6923SM   H3S 8957   5.657   1.778   6.843 -0.5823  1.0556 -1.4159
   6923SM    O3 8958   5.785   1.618   6.831 -0.1490  0.4734  0.1091
   6923SM   HO3 8959   5.870   1.639   6.872  1.0695 -0.5046 -1.7404
   6923SM   C4S 8960   5.675   1.720   6.641 -0.3415 -0.1574  0.3574
   6923SM   H4S 8961   5.756   1.720   6.567  1.0210  1.1771  1.7814
   6923SM   C5S 8962   5.544   1.730   6.620  0.2178  0.0695  0.5749
   6923SM   H5S 8963   5.474   1.760   6.698 -1.6754  0.3954 -1.1540
   6923SM   C6S 8964   5.485   1.732   6.482 -0.1310 -0.0234  0.3407
   6923SM   H6S 8965   5.417   1.820   6.472 -0.6037 -0.5080 -0.9579
   6923SM   H6T 8966   5.427   1.641   6.458  0.2679  0.2600 -1.9682
   6923SM   C7S 8967   5.582   1.736   6.365  0.1246 -0.9814  0.1924
   6923SM   H7S 8968   5.643   1.644   6.370  0.1566 -0.9103  1.2069
   6923SM   H7T 8969   5.660   1.815   6.372 -0.2350 -0.6736  0.8147
   6923SM   C8S 8970   5.511   1.716   6.224  0.2650  0.2474 -0.3189
   6923SM   H8S 8971   5.486   1.818   6.187  0.7348 -0.8176 -3.9192
   6923SM   H8T 8972   5.420   1.657   6.245  0.7080  0.3336  2.2536
   6923SM   C9S 8973   5.623   1.652   6.136  0.8096 -0.0634  0.0563
   6923SM   H9S 8974   5.653   1.550   6.168 -0.5776 -1.0856 -1.6722
   6923SM   H9T 8975   5.715   1.713   6.153  1.7147 -1.6975  1.3185
   6923SM  C10S 8976   5.592   1.646   5.988 -0.0897 -0.1208 -0.4118
   6923SM  H10S 8977   5.612   1.746   5.945  0.8168 -0.3850 -0.6307
   6923SM  H10T 8978   5.488   1.616   5.966 -0.9372  1.7124  0.8878
   6923SM  C11S 8979   5.670   1.539   5.901  0.6540  0.0645  0.0252
   6923SM  H11S 8980   5.651   1.435   5.935  0.6527 -0.3777 -1.2681
   6923SM  H11T 8981   5.780   1.558   5.894  0.2931  1.6839 -2.6610
   6923SM  C12S 8982   5.611   1.541   5.759  0.5512  0.2899 -0.2210
   6923SM  H12S 8983   5.501   1.525   5.764  0.9197 -2.6641  0.0723
   6923SM  H12T 8984   5.642   1.446   5.710  0.1001 -1.0164  1.8889
   6923SM  C13S 8985   5.658   1.649   5.665 -0.8267 -0.8271 -0.0534
   6923SM  H13S 8986   5.769   1.650   5.667 -0.7903  0.1865 -1.2750
   6923SM  H13T 8987   5.621   1.745   5.708 -1.7229 -1.4253  0.5597
   6923SM  C14S 8988   5.608   1.641   5.531  0.0860 -0.1037  0.4808
   6923SM  H14S 8989   5.621   1.539   5.491  1.7300 -0.2376  1.2789
   6923SM  H14T 8990   5.666   1.712   5.467 -2.0451  1.3333  0.0347
   6923SM  C15S 8991   5.460   1.686   5.512 -0.5491  0.3041  0.2029
   6923SM  H15S 8992   5.444   1.786   5.559  0.1976  0.3361  0.4049
   6923SM  H15T 8993   5.395   1.609   5.558  0.4382  0.0504  1.2354
   6923SM  C16S 8994   5.417   1.690   5.366 -0.0908 -0.0820  0.0573
   6923SM  H16S 8995   5.306   1.685   5.358  0.0431 -1.2124 -1.7190
   6923SM  H16T 8996   5.461   1.601   5.314  1.6668 -1.4673  3.6093
   6923SM  C17S 8997   5.467   1.814   5.300 -0.0156 -0.1548  0.2070
   6923SM  H17S 8998   5.578   1.817   5.305  0.1965 -1.7492 -1.9214
   6923SM  H17T 8999   5.430   1.904   5.353 -0.3145 -0.9317  1.3382
   6923SM  C18S 9000   5.427   1.816   5.153 -0.7427 -0.0902  0.4195
   6923SM  H18S 9001   5.488   1.740   5.100 -2.3936 -1.1853 -0.0158
   6923SM  H18T 9002   5.453   1.912   5.104 -1.1352 -0.4666 -0.5537
   6923SM  H18U 9003   5.320   1.799   5.129 -0.6531  0.4035 -0.3461
   6923SM   C1F 9004   5.918   2.066   6.688  0.0910  0.4834 -0.2760
   6923SM    OF 9005   6.030   2.047   6.732  0.6418 -0.6046 -0.3353
   6923SM   C2F 9006   5.884   2.192   6.604  0.6733 -0.3657 -0.0207
   6923SM   H2F 9007   5.849   2.276   6.668  1.3521  0.7397 -1.0742
   6923SM   H2G 9008   5.804   2.159   6.534  1.2837  0.4715 -1.1463
   6923SM   C3F 9009   6.016   2.225   6.521 -0.5329 -0.0404  0.3927
   6923SM   H3F 9010   6.062   2.127   6.495  0.6356  0.6958 -0.4128
   6923SM   H3G 9011   6.086   2.278   6.589  0.5896  0.8829 -1.3976
   6923SM   C4F 9012   5.988   2.295   6.387  0.0253 -0.1039 -0.0498
   6923SM   H4F 9013   5.920   2.380   6.407 -0.6830 -0.9701  1.3883
   6923SM   H4G 9014   5.919   2.232   6.326  1.4002 -0.9929 -0.7487
   6923SM   C5F 9015   6.111   2.344   6.299 -0.3938 -0.1892  0.7715
   6923SM   H5F 9016   6.171   2.253   6.278  0.5724  0.6067  0.0339
   6923SM   H5G 9017   6.170   2.420   6.353 -1.0481 -1.1796  2.9895
   6923SM   C6F 9018   6.056   2.407   6.170 -0.1320 -0.0493 -1.0057
   6923SM   H6F 9019   6.004   2.503   6.190  0.8352  0.3291 -0.2181
   6923SM   H6G 9020   5.980   2.334   6.135 -0.0116 -0.2286 -0.8924
   6923SM   C7F 9021   6.163   2.431   6.064  0.1453  0.1943 -0.3422
   6923SM   H7F 9022   6.210   2.331   6.051 -1.9624 -0.7957 -0.9250
   6923SM   H7G 9023   6.248   2.500   6.081  1.1601 -0.8212 -1.1475
   6923SM   C8F 9024   6.105   2.475   5.931 -0.2126  0.5279  0.1163
   6923SM   H8F 9025   6.064   2.577   5.946 -1.7424 -0.0605  0.1127
   6923SM   H8G 9026   6.017   2.411   5.907  0.0926  0.3790 -0.6584
   6923SM   C9F 9027   6.194   2.459   5.803  0.9911  0.1846  0.0191
   6923SM   H9F 9028   6.221   2.351   5.798 -0.0066 -0.1779  1.7087
   6923SM   H9G 9029   6.280   2.527   5.819  0.8830  0.2067  0.5377
   6923SM  C10F 9030   6.113   2.494   5.674  1.0102 -0.4559 -0.2225
   6923SM  H10F 9031   6.061   2.591   5.690  0.9102 -0.4473 -0.5860
   6923SM  H10G 9032   6.042   2.408   5.672  0.1612  0.2393 -1.7109
   6923SM  C11F 9033   6.185   2.502   5.539 -0.7149  0.3311  0.6830
   6923SM  H11F 9034   6.099   2.505   5.468  0.2617  3.2990 -0.5567
   6923SM  H11G 9035   6.244   2.412   5.510 -0.2469  1.2521 -1.4456
   6923SM  C12F 9036   6.274   2.621   5.524 -0.1501  0.5716  0.1329
   6923SM  H12F 9037   6.363   2.604   5.587  0.7857 -0.7680 -1.4659
   6923SM  H12G 9038   6.226   2.710   5.570  1.4247  0.8683  1.2696
   6923SM  C13F 9039   6.307   2.672   5.385 -0.2833  0.2344 -0.3522
   6923SM  H13F 9040   6.327   2.593   5.309 -1.3707  0.6907 -1.1292
   6923SM  H13G 9041   6.393   2.741   5.394 -1.3720  1.7213 -1.0885
   6923SM  C14F 9042   6.181   2.747   5.333  0.7190 -0.4571  0.0109
   6923SM  H14F 9043   6.149   2.833   5.395  0.2640 -0.8573  0.3308
   6923SM  H14G 9044   6.099   2.673   5.346  1.0138 -0.6167  0.9785
   6923SM  C15F 9045   6.210   2.794   5.188  0.4965  0.0009 -0.0816
   6923SM  H15F 9046   6.254   2.714   5.126 -0.1622 -0.9135  0.6093
   6923SM  H15G 9047   6.279   2.878   5.212  2.0991 -2.1483  3.7974
   6923SM  C16F 9048   6.084   2.848   5.124  0.4915  0.6364  0.1174
   6923SM  H16F 9049   6.102   2.908   5.032  0.5076  0.0018 -0.3056
   6923SM  H16G 9050   6.036   2.925   5.188  0.0124 -0.2877  0.8934
   6923SM  C17F 9051   5.973   2.749   5.079  0.5674  0.2091 -0.0262
   6923SM  H17F 9052   5.917   2.698   5.161  0.4776 -0.1155 -0.2879
   6923SM  H17G 9053   6.034   2.666   5.037  1.5691  0.2475  1.2653
   6923SM  C18F 9054   5.884   2.804   4.972 -0.4102  0.6201 -0.1649
   6923SM  H18F 9055   5.944   2.846   4.888  1.9848  1.2025  1.7243
   6923SM  H18G 9056   5.820   2.884   5.014 -1.5414 -1.2930  1.9849
   6923SM  C19F 9057   5.791   2.700   4.903  0.5619 -0.2540 -0.6096
   6923SM  H19F 9058   5.760   2.621   4.973 -1.0561  2.0958  1.5076
   6923SM  H19G 9059   5.837   2.665   4.808  0.6404  0.5971 -0.8966
   6923SM  C20F 9060   5.670   2.770   4.859 -0.0418 -0.4440  0.2983
   6923SM  H20F 9061   5.705   2.862   4.806 -1.7385 -0.2890 -0.6240
   6923SM  H20G 9062   5.612   2.812   4.944 -0.3991  1.1187 -0.6557
   6923SM  C21F 9063   5.581   2.699   4.758 -0.7728  0.5876  0.1553
   6923SM  H21F 9064   5.547   2.599   4.792  1.9554 -0.2584  0.6891
   6923SM  H21G 9065   5.646   2.690   4.669 -1.5680  0.8525 -0.4611
   6923SM  C22F 9066   5.468   2.781   4.711  0.1377 -0.1136  0.0244
   6923SM  H22F 9067   5.425   2.830   4.801 -3.2632  2.0773 -2.5227
   6923SM  H22G 9068   5.397   2.707   4.670  0.3626 -1.3128  1.6993
   6923SM  C23F 9069   5.499   2.895   4.618  0.2639  1.1220 -0.1058
   6923SM  H23F 9070   5.567   2.967   4.667  0.1045 -0.0634  1.9931
   6923SM  H23G 9071   5.407   2.955   4.603  0.9019  2.1701  0.1474
   6923SM  H23H 9072   5.539   2.858   4.521  2.7873 -0.6671  1.4907
   7023SM     N 9073   5.562   1.576   7.117 -0.6975 -0.4524 -0.3564
   7023SM   C15 9074   5.641   1.694   7.168 -0.0029  0.3700 -0.6867
   7023SM  H15A 9075   5.693   1.672   7.260  0.7272 -0.3793 -1.2608
   7023SM  H15B 9076   5.581   1.783   7.181 -1.2612 -0.7335  1.7193
   7023SM  H15C 9077   5.718   1.722   7.098  0.8677  0.0250  0.1103
   7023SM   C14 9078   5.499   1.607   6.991 -0.0561 -0.1274 -0.3321
   7023SM  H14A 9079   5.445   1.522   6.954  1.6813 -0.6512 -1.8034
   7023SM  H14B 9080   5.581   1.640   6.928  0.1601  0.9164  0.4676
   7023SM  H14C 9081   5.429   1.689   6.987  0.2759  0.1225 -2.9534
   7023SM   C13 9082   5.656   1.458   7.095 -0.2407  0.1118  0.4401
   7023SM  H13A 9083   5.599   1.382   7.045 -0.9144  1.2139 -0.5039
   7023SM  H13B 9084   5.686   1.416   7.190 -0.9578 -1.7300 -0.1243
   7023SM  H13C 9085   5.748   1.478   7.041  0.1877  0.2566  1.2014
   7023SM   C12 9086   5.449   1.543   7.216  0.4347 -0.4543  0.6926
   7023SM  H12A 9087   5.398   1.637   7.228 -1.1698 -1.1994 -0.0049
   7023SM  H12B 9088   5.488   1.515   7.313  2.0748 -1.1765 -0.1433
   7023SM   C11 9089   5.346   1.443   7.166  0.6800 -0.0189 -0.3023
   7023SM  H11A 9090   5.303   1.476   7.069  0.9105  0.0406 -0.3848
   7023SM  H11B 9091   5.257   1.441   7.233  0.8255 -2.3438 -0.1232
   7023SM     P 9092   5.298   1.195   7.127  0.2680 -0.0866  0.0493
   7023SM   O13 9093   5.340   1.074   7.204  0.1303 -0.2604 -0.7662
   7023SM   O14 9094   5.169   1.251   7.160 -0.0694  0.0020 -0.7454
   7023SM   O11 9095   5.301   1.170   6.969  0.1729  0.2559  0.0606
   7023SM   O12 9096   5.405   1.312   7.153 -0.2479 -0.2290 -0.2102
   7023SM   C1S 9097   5.429   1.142   6.909 -0.6961 -0.2325 -0.1810
   7023SM   H1S 9098   5.460   1.037   6.928 -3.2209 -0.9429  0.2738
   7023SM   H1T 9099   5.496   1.221   6.950 -0.4428 -0.4663 -0.1372
   7023SM    NF 9100   5.533   1.103   6.673 -0.5522 -0.4490 -0.4337
   7023SM   HNF 9101   5.609   1.163   6.651  0.7156 -1.9572 -0.3498
   7023SM   C2S 9102   5.418   1.160   6.746 -0.0234 -0.5708  0.1994
   7023SM   H2S 9103   5.330   1.098   6.716 -0.3469 -0.1136  0.1954
   7023SM   C3S 9104   5.377   1.305   6.708  0.7122 -0.1354  0.2307
   7023SM   H3S 9105   5.463   1.372   6.730 -0.1371  0.5197  1.6075
   7023SM    O3 9106   5.264   1.360   6.782 -0.0126  0.1606  0.3176
   7023SM   HO3 9107   5.250   1.289   6.846 -1.3182  0.1756  0.0691
   7023SM   C4S 9108   5.356   1.317   6.560 -0.3230 -0.7072 -0.6946
   7023SM   H4S 9109   5.452   1.317   6.506 -0.6299  2.4107 -1.3972
   7023SM   C5S 9110   5.242   1.320   6.493  0.4156 -0.2811 -0.5215
   7023SM   H5S 9111   5.151   1.332   6.553  1.2824  1.6818  0.4560
   7023SM   C6S 9112   5.243   1.317   6.345  0.3392 -0.6282  0.0943
   7023SM   H6S 9113   5.222   1.420   6.308 -0.7958 -1.4465 -1.6635
   7023SM   H6T 9114   5.158   1.253   6.314  0.0008  0.1116 -0.5590
   7023SM   C7S 9115   5.369   1.271   6.268 -0.7304  0.2218 -0.7193
   7023SM   H7S 9116   5.396   1.175   6.318  1.9816  1.3959  0.2339
   7023SM   H7T 9117   5.436   1.355   6.294 -2.1562  1.1684 -0.0103
   7023SM   C8S 9118   5.344   1.261   6.114 -0.0062 -0.2817 -0.3922
   7023SM   H8S 9119   5.319   1.365   6.083  0.0886  0.4490  1.8136
   7023SM   H8T 9120   5.252   1.201   6.096 -0.4345  0.1824  0.1825
   7023SM   C9S 9121   5.451   1.209   6.025  0.0783 -0.0506  0.4091
   7023SM   H9S 9122   5.482   1.110   6.066 -0.6037 -0.1967  0.5931
   7023SM   H9T 9123   5.539   1.277   6.026 -0.8580  1.3060 -1.7976
   7023SM  C10S 9124   5.398   1.196   5.876 -0.1178  0.1690  0.1226
   7023SM  H10S 9125   5.365   1.293   5.833  0.9968  1.6381  2.3956
   7023SM  H10T 9126   5.306   1.133   5.873  0.0528 -0.0414 -0.9857
   7023SM  C11S 9127   5.504   1.126   5.786 -0.2217 -0.4515 -0.1690
   7023SM  H11S 9128   5.555   1.055   5.855 -0.7591 -0.2099  0.4849
   7023SM  H11T 9129   5.573   1.208   5.755 -1.7049  0.8034 -0.2600
   7023SM  C12S 9130   5.457   1.056   5.656 -0.4197 -0.3323 -0.8040
   7023SM  H12S 9131   5.366   0.995   5.674 -1.5979  1.6633  0.3478
   7023SM  H12T 9132   5.538   0.987   5.626 -0.0394 -0.8218  1.2241
   7023SM  C13S 9133   5.442   1.158   5.544 -0.7022 -0.6353  0.1307
   7023SM  H13S 9134   5.537   1.213   5.524 -0.9187 -0.7790 -1.4255
   7023SM  H13T 9135   5.362   1.228   5.576  0.0585 -0.1602  1.0414
   7023SM  C14S 9136   5.406   1.096   5.414 -0.1930 -0.0038 -0.6876
   7023SM  H14S 9137   5.308   1.044   5.423 -0.7325  0.8540 -1.4979
   7023SM  H14T 9138   5.486   1.026   5.381 -0.1120  1.2747 -3.4970
   7023SM  C15S 9139   5.368   1.184   5.294 -0.6162 -0.5573 -0.1067
   7023SM  H15S 9140   5.313   1.272   5.333  1.4844  0.3062  1.0814
   7023SM  H15T 9141   5.310   1.126   5.219 -0.7158 -3.0281  1.7555
   7023SM  C16S 9142   5.496   1.253   5.232 -0.1308 -0.0128 -0.1419
   7023SM  H16S 9143   5.573   1.193   5.180  0.4036  1.4298 -1.0903
   7023SM  H16T 9144   5.561   1.306   5.306 -1.9790  2.4495 -0.1335
   7023SM  C17S 9145   5.447   1.353   5.131  0.6153 -0.4571  0.3113
   7023SM  H17S 9146   5.379   1.422   5.186 -0.5965 -0.2850 -1.3273
   7023SM  H17T 9147   5.390   1.282   5.067  1.9173 -1.0562 -0.2277
   7023SM  C18S 9148   5.548   1.421   5.047 -0.9021  0.5621  0.2806
   7023SM  H18S 9149   5.623   1.480   5.104 -1.9709  0.9087  1.3657
   7023SM  H18T 9150   5.498   1.479   4.967  0.1284  0.1919 -0.6519
   7023SM  H18U 9151   5.607   1.339   5.002  0.2964  0.9107  1.1719
   7023SM   C1F 9152   5.557   0.976   6.668 -0.1211  0.5143 -0.3978
   7023SM    OF 9153   5.475   0.901   6.714  0.3405  0.2590  0.9193
   7023SM   C2F 9154   5.670   0.910   6.599  0.4668  0.4809 -0.1819
   7023SM   H2F 9155   5.660   0.799   6.599 -0.2441  0.4994 -2.3212
   7023SM   H2G 9156   5.764   0.951   6.643  0.3814 -0.7003  1.1734
   7023SM   C3F 9157   5.683   0.951   6.445 -0.9866  0.7936  0.0662
   7023SM   H3F 9158   5.585   0.963   6.394 -0.3064  0.4488 -1.3915
   7023SM   H3G 9159   5.737   0.871   6.389 -2.3297  0.2486 -0.4836
   7023SM   C4F 9160   5.761   1.092   6.426  0.1195  0.4308  0.9045
   7023SM   H4F 9161   5.865   1.080   6.461  0.1634  0.6253  0.8385
   7023SM   H4G 9162   5.716   1.180   6.477 -0.5711 -0.0773  1.2010
   7023SM   C5F 9163   5.773   1.132   6.280  0.4000  1.0509  0.0714
   7023SM   H5F 9164   5.674   1.163   6.241 -1.2340  1.1727  3.8519
   7023SM   H5G 9165   5.791   1.047   6.211  0.2960  0.8526  0.2890
   7023SM   C6F 9166   5.884   1.236   6.244  0.0810  0.9921  0.0935
   7023SM   H6F 9167   5.986   1.217   6.286 -0.4393 -1.1293  0.5014
   7023SM   H6G 9168   5.846   1.319   6.308 -0.9590 -0.4567  1.4199
   7023SM   C7F 9169   5.886   1.274   6.090  0.2175  0.0349 -1.0616
   7023SM   H7F 9170   5.912   1.381   6.103 -0.2855  0.1628 -1.0876
   7023SM   H7G 9171   5.790   1.250   6.040 -0.7052 -1.3003  1.1848
   7023SM   C8F 9172   6.000   1.206   6.009  0.2654 -0.1580 -0.8753
   7023SM   H8F 9173   5.993   1.095   6.011  0.2940 -0.1473 -0.0686
   7023SM   H8G 9174   6.096   1.230   6.058  0.1976 -1.0790 -0.2660
   7023SM   C9F 9175   6.005   1.239   5.857  0.4968 -0.0177  0.4797
   7023SM   H9F 9176   5.907   1.228   5.807  0.7164  0.3419 -0.0311
   7023SM   H9G 9177   6.078   1.168   5.812 -0.7874 -0.9080 -0.2540
   7023SM  C10F 9178   6.041   1.385   5.817 -0.0596  0.3801  0.2768
   7023SM  H10F 9179   6.151   1.390   5.808 -0.1733 -0.5590 -2.6551
   7023SM  H10G 9180   6.011   1.462   5.892  2.7424  0.0479  1.8617
   7023SM  C11F 9181   5.999   1.431   5.675  0.1904 -0.5392  0.8177
   7023SM  H11F 9182   5.896   1.472   5.675 -0.4513 -2.0797  0.0846
   7023SM  H11G 9183   5.984   1.339   5.616  1.1188 -1.3468  1.7937
   7023SM  C12F 9184   6.097   1.524   5.602 -0.4977 -0.1370  0.4418
   7023SM  H12F 9185   6.204   1.498   5.614 -0.5663 -0.4402  0.4177
   7023SM  H12G 9186   6.080   1.624   5.646 -0.9098 -0.2425  0.5253
   7023SM  C13F 9187   6.071   1.536   5.451  0.4590  0.5654 -0.6276
   7023SM  H13F 9188   6.079   1.435   5.405  2.9030 -0.5781  2.0383
   7023SM  H13G 9189   6.148   1.600   5.402  1.0661  0.0231 -0.4009
   7023SM  C14F 9190   5.939   1.585   5.416  0.1812 -0.0657 -0.3261
   7023SM  H14F 9191   5.917   1.684   5.461  0.8382  0.5762 -1.3691
   7023SM  H14G 9192   5.873   1.514   5.469 -0.2483  0.7759  0.2975
   7023SM  C15F 9193   5.906   1.571   5.271  0.3208  0.1909 -0.0470
   7023SM  H15F 9194   5.796   1.582   5.260  0.1861  0.7297  1.5600
   7023SM  H15G 9195   5.931   1.471   5.229 -0.9200  0.4334 -1.4667
   7023SM  C16F 9196   5.977   1.674   5.183 -0.1733 -0.4907 -0.1911
   7023SM  H16F 9197   6.084   1.650   5.162 -0.2775 -1.6424  0.5198
   7023SM  H16G 9198   5.990   1.770   5.236 -0.4961  0.6992 -2.1748
   7023SM  C17F 9199   5.896   1.696   5.052  0.1484 -0.3778  0.2802
   7023SM  H17F 9200   5.928   1.800   5.027 -0.9947 -0.0209  0.2331
   7023SM  H17G 9201   5.787   1.693   5.072  0.2799 -1.8619  0.8857
   7023SM  C18F 9202   5.928   1.604   4.936  0.9817 -0.1928  0.1566
   7023SM  H18F 9203   5.936   1.496   4.962 -3.3344 -1.0215 -1.2038
   7023SM  H18G 9204   6.024   1.633   4.888  0.6829  0.9099  0.2163
   7023SM  C19F 9205   5.805   1.597   4.843  1.1534  0.3037 -0.0859
   7023SM  H19F 9206   5.799   1.688   4.780 -0.5096  1.9796  2.3353
   7023SM  H19G 9207   5.711   1.602   4.902  1.0382 -0.5968 -0.1712
   7023SM  C20F 9208   5.802   1.470   4.757  0.0645  0.3826  0.4167
   7023SM  H20F 9209   5.803   1.384   4.827  0.9508 -0.1625 -0.2299
   7023SM  H20G 9210   5.900   1.465   4.704  0.3963  0.9525  0.9614
   7023SM  C21F 9211   5.692   1.460   4.646 -1.0789 -0.1648  0.0862
   7023SM  H21F 9212   5.594   1.464   4.699 -0.4206  1.0826  1.2634
   7023SM  H21G 9213   5.687   1.363   4.592  1.8385 -0.2744 -0.1740
   7023SM  C22F 9214   5.703   1.582   4.553  0.5774  0.0371 -0.4419
   7023SM  H22F 9215   5.645   1.665   4.597  2.3472  1.7392 -1.1681
   7023SM  H22G 9216   5.652   1.537   4.465 -2.0142 -2.9326  2.3238
   7023SM  C23F 9217   5.839   1.623   4.495 -0.2713  0.5834  0.3878
   7023SM  H23F 9218   5.875   1.718   4.539  2.4115 -0.9934  1.8600
   7023SM  H23G 9219   5.830   1.632   4.385  3.2688 -0.1679 -0.0757
   7023SM  H23H 9220   5.923   1.551   4.504  2.1525  3.2545  0.5761
   7123SM     N 9221   6.275   6.032   7.301 -0.3150  0.5113  0.0060
   7123SM   C15 9222   6.165   6.003   7.196 -0.0661  0.1041 -0.5242
   7123SM  H15A 9223   6.070   6.025   7.244  0.5267 -1.4040  1.4704
   7123SM  H15B 9224   6.163   5.898   7.171 -1.5939  0.3582 -1.6451
   7123SM  H15C 9225   6.173   6.073   7.114 -0.1958  0.5902 -0.1282
   7123SM   C14 9226   6.417   6.023   7.247  0.2649  0.2499 -0.6851
   7123SM  H14A 9227   6.412   6.070   7.149 -1.1842  3.0982  0.6287
   7123SM  H14B 9228   6.433   5.917   7.240 -1.6355 -0.1056 -0.0097
   7123SM  H14C 9229   6.489   6.074   7.310 -0.0488 -0.3232  0.1369
   7123SM   C13 9230   6.263   6.172   7.353  0.5602  0.0125  0.0962
   7123SM  H13A 9231   6.281   6.235   7.267  0.7938 -1.7213 -1.1934
   7123SM  H13B 9232   6.339   6.186   7.428  1.5872 -1.2334 -0.6752
   7123SM  H13C 9233   6.161   6.192   7.382 -0.5999 -1.7075 -2.3825
   7123SM   C12 9234   6.255   5.935   7.412 -0.3794  0.8060 -0.4682
   7123SM  H12A 9235   6.161   5.945   7.464 -0.4927 -1.1568 -0.2067
   7123SM  H12B 9236   6.324   5.957   7.493  0.7722  2.5992 -1.8693
   7123SM   C11 9237   6.264   5.780   7.383  0.5831 -0.0251 -0.2284
   7123SM  H11A 9238   6.188   5.754   7.307  2.0404  0.7710 -2.0230
   7123SM  H11B 9239   6.230   5.743   7.482 -0.9009  0.0335 -0.6917
   7123SM     P 9240   6.379   5.568   7.294 -0.0933  0.1934  0.1357
   7123SM   O13 9241   6.515   5.525   7.282 -0.2356  0.1568  0.0412
   7123SM   O14 9242   6.286   5.493   7.384  0.2072 -0.3560  0.3841
   7123SM   O11 9243   6.320   5.574   7.152  0.1917  0.4399 -0.5157
   7123SM   O12 9244   6.388   5.725   7.340 -0.5762 -0.2673 -0.4016
   7123SM   C1S 9245   6.403   5.606   7.034  0.6978 -0.0223 -0.1299
   7123SM   H1S 9246   6.477   5.525   7.012 -2.0796 -2.7180 -0.2356
   7123SM   H1T 9247   6.466   5.695   7.055  2.9906 -1.3412 -0.9696
   7123SM    NF 9248   6.388   5.638   6.794 -0.5256  0.7543  0.0246
   7123SM   HNF 9249   6.396   5.729   6.755 -1.2925  0.9070  0.1917
   7123SM   C2S 9250   6.312   5.615   6.917  0.2297  0.1974 -0.2206
   7123SM   H2S 9251   6.253   5.522   6.901  1.3841 -0.4811 -0.6215
   7123SM   C3S 9252   6.203   5.729   6.939  0.2085  0.3266 -0.1715
   7123SM   H3S 9253   6.257   5.826   6.949  0.5190  0.0749  0.6246
   7123SM    O3 9254   6.117   5.706   7.052  0.3862  0.1459  0.5497
   7123SM   HO3 9255   6.155   5.635   7.104 -1.0876  1.0372  2.9896
   7123SM   C4S 9256   6.108   5.738   6.826  0.4950 -0.5553  0.4054
   7123SM   H4S 9257   6.057   5.645   6.797  0.7364 -0.4839 -0.2884
   7123SM   C5S 9258   6.080   5.853   6.765 -0.2772  0.6011  0.3034
   7123SM   H5S 9259   6.128   5.941   6.808  1.1286 -0.5561  1.2132
   7123SM   C6S 9260   5.989   5.882   6.651 -0.9364  0.0811  0.1042
   7123SM   H6S 9261   5.952   5.983   6.678  0.5356  1.1110 -1.5431
   7123SM   H6T 9262   5.904   5.812   6.639  0.5243 -1.9224  0.7983
   7123SM   C7S 9263   6.067   5.897   6.519  0.4689  0.2417 -0.4195
   7123SM   H7S 9264   5.985   5.928   6.451 -0.0141  1.0379  0.4992
   7123SM   H7T 9265   6.093   5.794   6.488  0.4959  0.2369 -0.3815
   7123SM   C8S 9266   6.178   6.000   6.533 -0.0759 -0.4809  0.2439
   7123SM   H8S 9267   6.261   5.957   6.593 -0.5430 -1.8637 -0.0470
   7123SM   H8T 9268   6.126   6.086   6.579 -0.5063 -0.2440 -0.6512
   7123SM   C9S 9269   6.241   6.044   6.401 -0.3187  0.1331 -0.0529
   7123SM   H9S 9270   6.271   6.151   6.395  0.5937 -0.1743 -1.8290
   7123SM   H9T 9271   6.158   6.039   6.327  0.3833  0.0227 -0.8553
   7123SM  C10S 9272   6.354   5.954   6.348  1.1381  0.5410 -0.8201
   7123SM  H10S 9273   6.364   5.868   6.418 -1.9797 -0.4277 -1.4136
   7123SM  H10T 9274   6.453   6.004   6.356  0.1255  2.4060  1.0395
   7123SM  C11S 9275   6.346   5.896   6.201 -0.0608  0.2876  0.1929
   7123SM  H11S 9276   6.258   5.830   6.187 -0.1558  0.5093 -0.2902
   7123SM  H11T 9277   6.433   5.829   6.192 -0.3290 -0.3930  2.2264
   7123SM  C12S 9278   6.347   5.995   6.081 -0.0094 -0.4222 -0.7171
   7123SM  H12S 9279   6.434   6.063   6.092  1.3561 -2.1703 -0.4591
   7123SM  H12T 9280   6.251   6.052   6.084  0.9403  1.2562  1.7948
   7123SM  C13S 9281   6.359   5.925   5.946  0.6381  0.2628  0.1630
   7123SM  H13S 9282   6.267   5.863   5.945  0.3374  0.6776  0.7903
   7123SM  H13T 9283   6.442   5.853   5.933  1.0619  0.9744 -1.3128
   7123SM  C14S 9284   6.374   6.009   5.819  0.3717 -0.4639  0.3315
   7123SM  H14S 9285   6.451   6.090   5.818  0.5089 -0.5312 -2.8238
   7123SM  H14T 9286   6.284   6.074   5.814  1.7580  1.4437 -1.5863
   7123SM  C15S 9287   6.397   5.935   5.687  0.0977  0.0230 -0.0176
   7123SM  H15S 9288   6.334   5.843   5.694  0.1725 -0.5591 -4.3122
   7123SM  H15T 9289   6.504   5.905   5.689 -0.5549 -3.1174 -2.5918
   7123SM  C16S 9290   6.363   6.006   5.553  0.6373  0.1182 -0.1085
   7123SM  H16S 9291   6.398   6.112   5.551 -0.3057  0.4351 -0.5081
   7123SM  H16T 9292   6.252   6.017   5.561  0.7255 -0.2690  5.6124
   7123SM  C17S 9293   6.402   5.930   5.423 -0.1492  0.2246 -0.2858
   7123SM  H17S 9294   6.359   5.829   5.440 -2.8693  1.5252  1.1173
   7123SM  H17T 9295   6.512   5.931   5.410  0.0007  0.2198  0.8594
   7123SM  C18S 9296   6.335   5.986   5.297  0.0833 -0.6406  0.4767
   7123SM  H18S 9297   6.227   6.004   5.317 -0.4459 -2.0188 -0.8959
   7123SM  H18T 9298   6.349   5.905   5.222 -1.3266 -0.4200 -0.0545
   7123SM  H18U 9299   6.382   6.078   5.257 -1.9151 -0.1957 -1.0442
   7123SM   C1F 9300   6.450   5.533   6.741 -0.6263 -0.4552  0.0708
   7123SM    OF 9301   6.421   5.418   6.761  0.0794 -0.4494 -0.1925
   7123SM   C2F 9302   6.559   5.574   6.649 -0.2710  0.3753  0.0465
   7123SM   H2F 9303   6.653   5.580   6.708  0.0944  2.6485 -0.6892
   7123SM   H2G 9304   6.541   5.674   6.606  2.2903  2.5051  3.4169
   7123SM   C3F 9305   6.585   5.481   6.528 -0.7853  0.0398 -0.6451
   7123SM   H3F 9306   6.494   5.466   6.466  0.4514 -0.5172 -2.4010
   7123SM   H3G 9307   6.613   5.379   6.562  0.1137  0.8854  1.3490
   7123SM   C4F 9308   6.697   5.529   6.432 -0.1189 -0.1582  0.0800
   7123SM   H4F 9309   6.715   5.445   6.361  0.6468 -1.3506  1.6384
   7123SM   H4G 9310   6.785   5.565   6.489 -1.5781  0.1030  2.3100
   7123SM   C5F 9311   6.641   5.646   6.346 -0.5386  0.0161 -0.0329
   7123SM   H5F 9312   6.603   5.726   6.413 -0.6954 -0.7318  0.7973
   7123SM   H5G 9313   6.561   5.607   6.279 -0.2298 -0.8927  0.1084
   7123SM   C6F 9314   6.744   5.704   6.243  0.1795 -0.7313  0.0512
   7123SM   H6F 9315   6.773   5.626   6.169  1.5617  0.5057 -0.7827
   7123SM   H6G 9316   6.838   5.734   6.294 -0.6841  0.5794  0.9403
   7123SM   C7F 9317   6.702   5.833   6.166  0.4513 -0.0634 -0.1520
   7123SM   H7F 9318   6.648   5.889   6.246  0.2625 -1.1461  0.5158
   7123SM   H7G 9319   6.629   5.807   6.086 -1.8971  2.2914  1.0835
   7123SM   C8F 9320   6.804   5.912   6.093 -0.3457  0.3510 -1.4187
   7123SM   H8F 9321   6.831   5.830   6.023 -0.3310 -0.7430 -0.1731
   7123SM   H8G 9322   6.893   5.926   6.157 -0.3750 -3.8179 -0.1523
   7123SM   C9F 9323   6.750   6.036   6.022 -0.8473 -0.2600  0.2403
   7123SM   H9F 9324   6.731   6.114   6.098  1.3580  0.8360 -0.2523
   7123SM   H9G 9325   6.658   6.008   5.966 -0.0593 -0.3975 -1.0204
   7123SM  C10F 9326   6.858   6.096   5.927 -0.7510 -0.2537 -0.3106
   7123SM  H10F 9327   6.878   6.021   5.847 -3.1482 -0.5261 -0.7110
   7123SM  H10G 9328   6.947   6.112   5.992 -0.5682  0.9243 -0.8233
   7123SM  C11F 9329   6.830   6.223   5.859  0.1190 -0.3690 -0.6668
   7123SM  H11F 9330   6.835   6.314   5.923 -0.6177 -0.3591 -0.6165
   7123SM  H11G 9331   6.724   6.218   5.827 -0.8482  1.0572  1.9475
   7123SM  C12F 9332   6.924   6.234   5.731 -0.3831 -0.7265 -0.1316
   7123SM  H12F 9333   6.931   6.136   5.679 -0.7517  0.1308 -1.8760
   7123SM  H12G 9334   7.025   6.257   5.771  0.3109 -0.2737 -2.0170
   7123SM  C13F 9335   6.893   6.355   5.638 -0.1402  0.6534  0.2611
   7123SM  H13F 9336   6.872   6.451   5.690 -0.4381  1.5995 -1.5141
   7123SM  H13G 9337   6.791   6.335   5.601  0.8307 -0.5837 -1.9615
   7123SM  C14F 9338   6.986   6.384   5.524  0.5530 -1.0672 -0.0344
   7123SM  H14F 9339   6.954   6.478   5.474 -0.3649 -1.0651  0.5442
   7123SM  H14G 9340   6.975   6.308   5.444  1.7038 -1.8491  0.5186
   7123SM  C15F 9341   7.131   6.409   5.561 -0.4361  0.5425 -0.2725
   7123SM  H15F 9342   7.172   6.309   5.588 -1.9458 -0.1111 -0.3096
   7123SM  H15G 9343   7.147   6.466   5.656  0.9592 -0.4606  0.1220
   7123SM  C16F 9344   7.204   6.479   5.452  0.5736  0.3695 -1.2996
   7123SM  H16F 9345   7.160   6.580   5.439 -0.9889 -0.4697 -3.0801
   7123SM  H16G 9346   7.201   6.422   5.357  0.7395 -0.6006 -0.7406
   7123SM  C17F 9347   7.364   6.485   5.480  0.2179 -0.1615  0.7522
   7123SM  H17F 9348   7.410   6.399   5.533  0.7110 -0.3268  0.0615
   7123SM  H17G 9349   7.390   6.583   5.526 -0.6752  0.6970 -0.5037
   7123SM  C18F 9350   7.432   6.486   5.340 -0.0221 -0.3758  0.1876
   7123SM  H18F 9351   7.389   6.554   5.264 -1.7099 -3.8975 -2.2636
   7123SM  H18G 9352   7.427   6.385   5.295  0.8906 -2.3204  4.0251
   7123SM  C19F 9353   7.582   6.525   5.332  0.1872 -0.8421 -0.9032
   7123SM  H19F 9354   7.630   6.492   5.427  0.2961  0.4461 -0.4884
   7123SM  H19G 9355   7.588   6.636   5.325 -2.9907 -0.5260 -0.2702
   7123SM  C20F 9356   7.646   6.453   5.213 -0.3341  0.1823  0.4986
   7123SM  H20F 9357   7.595   6.496   5.124  0.8250 -1.4400 -1.0135
   7123SM  H20G 9358   7.611   6.347   5.215 -1.4357  0.5322  1.1919
   7123SM  C21F 9359   7.804   6.466   5.192  0.1920 -0.5815  0.8318
   7123SM  H21F 9360   7.834   6.573   5.180 -0.6956 -0.5431 -1.8237
   7123SM  H21G 9361   7.836   6.407   5.104  1.9161  2.3771 -0.7024
   7123SM  C22F 9362   7.888   6.415   5.311  0.0393 -0.4232  0.1805
   7123SM  H22F 9363   7.860   6.309   5.329 -0.7708 -0.2347  0.0981
   7123SM  H22G 9364   7.866   6.470   5.405 -2.0899 -0.4758 -0.2243
   7123SM  C23F 9365   8.036   6.426   5.282  0.0657 -0.6991 -0.0151
   7123SM  H23F 9366   8.063   6.389   5.181  0.2198 -0.8647  0.0849
   7123SM  H23G 9367   8.096   6.379   5.363  0.2105 -1.4369 -0.5424
   7123SM  H23H 9368   8.059   6.534   5.271 -0.8053 -0.4600  0.4106
   7223SM     N 9369   6.645   2.269   7.130 -0.4353  0.1729  0.4937
   7223SM   C15 9370   6.781   2.335   7.133  0.0152 -0.1395 -0.6777
   7223SM  H15A 9371   6.859   2.261   7.133  1.0526  0.9169 -0.7875
   7223SM  H15B 9372   6.783   2.404   7.217  0.5550 -2.6411  1.4981
   7223SM  H15C 9373   6.812   2.387   7.044  1.5440 -3.1017 -2.0055
   7223SM   C14 9374   6.635   2.159   7.233 -0.1364 -0.0681  0.1121
   7223SM  H14A 9375   6.708   2.083   7.206  0.0630 -1.0936  3.0945
   7223SM  H14B 9376   6.537   2.116   7.223 -0.9732  1.4809  1.2332
   7223SM  H14C 9377   6.649   2.205   7.330 -1.7180 -0.0643  0.3613
   7223SM   C13 9378   6.532   2.365   7.153  0.0882  0.1821 -0.3118
   7223SM  H13A 9379   6.544   2.446   7.083 -0.9574  1.9524  1.4530
   7223SM  H13B 9380   6.533   2.405   7.254 -0.1015 -2.6503  0.9064
   7223SM  H13C 9381   6.433   2.325   7.134  0.0024  0.3766 -0.2752
   7223SM   C12 9382   6.623   2.217   6.985 -0.9079  0.1363 -0.5722
   7223SM  H12A 9383   6.613   2.306   6.925 -0.7520 -0.4350 -1.4660
   7223SM  H12B 9384   6.529   2.164   6.980  0.0629 -1.6458 -0.6531
   7223SM   C11 9385   6.730   2.128   6.919 -0.4607  0.0682  0.0847
   7223SM  H11A 9386   6.835   2.163   6.920  0.0700 -1.2859 -1.7368
   7223SM  H11B 9387   6.697   2.123   6.813  1.5571  0.1158 -0.5752
   7223SM     P 9388   6.850   1.923   7.047 -0.1918 -0.2726  0.2243
   7223SM   O13 9389   6.892   1.993   7.169  0.5513 -0.3131  0.1674
   7223SM   O14 9390   6.808   1.782   7.052  0.0806  0.5122  0.4587
   7223SM   O11 9391   6.972   1.935   6.943 -0.5252 -0.5226 -0.5601
   7223SM   O12 9392   6.730   2.002   6.978  0.0646  0.1816 -0.6330
   7223SM   C1S 9393   6.975   1.859   6.825  0.1150 -0.0508 -0.2350
   7223SM   H1S 9394   6.914   1.766   6.826 -1.2494  0.7102 -2.8667
   7223SM   H1T 9395   7.082   1.832   6.813 -0.3547 -1.2752 -2.0281
   7223SM    NF 9396   6.951   1.858   6.587 -0.5678  0.4535  0.0658
   7223SM   HNF 9397   7.043   1.852   6.549 -0.9379  0.1163 -0.7958
   7223SM   C2S 9398   6.950   1.943   6.700 -0.1001  0.0892 -0.3122
   7223SM   H2S 9399   6.851   1.994   6.705 -0.4722 -0.3279 -2.4578
   7223SM   C3S 9400   7.059   2.054   6.694  0.1283 -0.1180 -0.2285
   7223SM   H3S 9401   7.156   2.002   6.684  0.8813  0.4642  2.9416
   7223SM    O3 9402   7.075   2.139   6.806 -0.5465 -0.4158  0.2440
   7223SM   HO3 9403   7.040   2.076   6.869 -2.9812 -2.0190 -2.4284
   7223SM   C4S 9404   7.041   2.140   6.567 -0.9195 -0.3204 -0.8069
   7223SM   H4S 9405   7.126   2.125   6.497 -0.2201 -1.3124  0.2146
   7223SM   C5S 9406   6.959   2.252   6.552 -0.4724 -0.1565  0.1272
   7223SM   H5S 9407   6.899   2.304   6.628 -0.1036  0.1196  0.2342
   7223SM   C6S 9408   6.976   2.333   6.428 -0.7060  0.1137  0.2786
   7223SM   H6S 9409   7.078   2.329   6.385 -0.9792 -1.2139 -0.3024
   7223SM   H6T 9410   6.953   2.438   6.458 -1.5865 -0.6125  2.3227
   7223SM   C7S 9411   6.892   2.290   6.313 -0.4154  0.3298  0.1318
   7223SM   H7S 9412   6.914   2.366   6.235 -3.4782  1.8796  0.6259
   7223SM   H7T 9413   6.783   2.287   6.333 -0.0776 -3.4825  2.3601
   7223SM   C8S 9414   6.936   2.153   6.259 -0.7174  0.2791 -0.1740
   7223SM   H8S 9415   6.918   2.066   6.326 -0.2475  1.5858  1.7230
   7223SM   H8T 9416   7.046   2.152   6.244 -1.0266 -0.6107 -3.1037
   7223SM   C9S 9417   6.882   2.119   6.123 -0.6384 -0.1458  0.3776
   7223SM   H9S 9418   6.904   2.211   6.064 -1.9741  0.7653  1.2318
   7223SM   H9T 9419   6.773   2.101   6.109 -0.8837  2.4899 -2.1792
   7223SM  C10S 9420   6.951   1.999   6.068  0.1186  0.1406  0.8067
   7223SM  H10S 9421   6.914   1.912   6.126  2.3762 -2.0271 -0.7951
   7223SM  H10T 9422   7.061   2.010   6.073  0.1595  1.0746 -1.1100
   7223SM  C11S 9423   6.914   1.955   5.923 -0.2279  0.0056  0.2418
   7223SM  H11S 9424   6.807   1.925   5.929 -0.0880 -0.3987  0.7344
   7223SM  H11T 9425   6.974   1.865   5.898 -1.9996 -1.4026  0.8455
   7223SM  C12S 9426   6.941   2.066   5.822  0.5973 -0.2900  0.5937
   7223SM  H12S 9427   7.041   2.111   5.837 -0.6331  2.5816  0.9423
   7223SM  H12T 9428   6.873   2.152   5.841  1.0630  0.1419  0.3296
   7223SM  C13S 9429   6.914   2.007   5.682  0.0899 -0.1871  0.3473
   7223SM  H13S 9430   6.804   1.996   5.669 -0.3030 -1.4002  3.6140
   7223SM  H13T 9431   6.957   1.905   5.670  0.1305 -0.3554  1.7260
   7223SM  C14S 9432   6.966   2.091   5.566  0.1861 -0.9418  0.6334
   7223SM  H14S 9433   7.075   2.116   5.563 -0.0991  0.2985 -2.0229
   7223SM  H14T 9434   6.916   2.189   5.558 -0.3757 -1.2187  0.6820
   7223SM  C15S 9435   6.938   2.025   5.431  0.2635 -0.0044 -0.5774
   7223SM  H15S 9436   6.829   2.001   5.425  0.0675  0.0627  1.9666
   7223SM  H15T 9437   6.994   1.929   5.431  4.3009  2.1338 -0.1814
   7223SM  C16S 9438   6.988   2.109   5.306  0.4881 -0.1932 -0.1903
   7223SM  H16S 9439   7.017   2.028   5.235  0.3704 -0.7528  0.3883
   7223SM  H16T 9440   7.083   2.160   5.334  0.8821  1.1209 -3.5075
   7223SM  C17S 9441   6.882   2.197   5.243  0.1187  0.4005  0.4757
   7223SM  H17S 9442   6.928   2.270   5.173  0.8211  1.4681  1.9901
   7223SM  H17T 9443   6.839   2.265   5.319  0.9430 -0.0346  1.3626
   7223SM  C18S 9444   6.766   2.115   5.168 -0.2476 -0.9026  0.7053
   7223SM  H18S 9445   6.706   2.050   5.235 -2.0100 -0.4400 -0.3590
   7223SM  H18T 9446   6.816   2.053   5.090  0.2331  0.9694 -0.5343
   7223SM  H18U 9447   6.703   2.191   5.118  1.6358 -1.9858 -3.8171
   7223SM   C1F 9448   6.842   1.788   6.561  0.1228 -0.1915 -0.7727
   7223SM    OF 9449   6.740   1.795   6.630  0.0139  0.6041  0.4421
   7223SM   C2F 9450   6.843   1.717   6.429 -0.3685 -0.7542  0.7274
   7223SM   H2F 9451   6.938   1.659   6.431  0.0604 -0.4969 -3.1268
   7223SM   H2G 9452   6.854   1.793   6.348  0.7159 -1.2392  0.3985
   7223SM   C3F 9453   6.726   1.625   6.398 -0.4477 -0.3182  0.1758
   7223SM   H3F 9454   6.635   1.673   6.356  0.5034 -0.2431 -1.8998
   7223SM   H3G 9455   6.703   1.567   6.490  0.6431  1.2363  1.4690
   7223SM   C4F 9456   6.768   1.520   6.297  0.0181  0.8322 -0.0086
   7223SM   H4F 9457   6.710   1.427   6.315  1.6836 -0.2270  0.0481
   7223SM   H4G 9458   6.875   1.491   6.298 -0.0718  0.4115  2.1975
   7223SM   C5F 9459   6.740   1.568   6.152 -0.1838  0.2375 -0.6791
   7223SM   H5F 9460   6.807   1.653   6.130 -0.0013  0.1271 -0.5470
   7223SM   H5G 9461   6.637   1.611   6.150  0.0205  0.9985  1.6755
   7223SM   C6F 9462   6.766   1.459   6.049  0.2110  0.6458 -0.0697
   7223SM   H6F 9463   6.687   1.381   6.058  0.7694  0.0131 -0.4985
   7223SM   H6G 9464   6.865   1.410   6.064 -0.1540 -0.3071 -0.6523
   7223SM   C7F 9465   6.751   1.507   5.906 -1.0767 -0.5415 -0.2030
   7223SM   H7F 9466   6.755   1.417   5.840 -0.2861 -0.4427 -0.3023
   7223SM   H7G 9467   6.828   1.585   5.889  0.7513 -2.3753 -0.8017
   7223SM   C8F 9468   6.615   1.557   5.872  0.4323 -0.1326  0.1882
   7223SM   H8F 9469   6.581   1.655   5.914 -0.8459  0.4185 -1.9532
   7223SM   H8G 9470   6.540   1.480   5.897  0.6596 -0.6896 -0.7869
   7223SM   C9F 9471   6.592   1.580   5.719  0.5685 -0.2635 -0.2206
   7223SM   H9F 9472   6.482   1.585   5.707  0.5941 -0.3983 -0.5271
   7223SM   H9G 9473   6.619   1.483   5.672 -0.4872 -0.5881 -0.1866
   7223SM  C10F 9474   6.657   1.695   5.651 -0.1421  0.0161  0.5196
   7223SM  H10F 9475   6.766   1.676   5.657 -0.4119 -2.5127 -1.0198
   7223SM  H10G 9476   6.622   1.786   5.705 -0.4169  0.4084 -0.2983
   7223SM  C11F 9477   6.617   1.707   5.505  0.4511 -0.1013  0.6230
   7223SM  H11F 9478   6.604   1.606   5.461 -2.8446  0.1793  0.7055
   7223SM  H11G 9479   6.692   1.769   5.451 -0.1618  0.2214  0.1307
   7223SM  C12F 9480   6.478   1.788   5.492 -0.0186  0.7868 -1.1855
   7223SM  H12F 9481   6.449   1.844   5.584  0.8175 -0.6054 -0.0135
   7223SM  H12G 9482   6.396   1.714   5.482 -1.0907  1.8542 -0.5328
   7223SM  C13F 9483   6.477   1.869   5.367 -0.4818 -0.3381  0.9460
   7223SM  H13F 9484   6.509   1.801   5.285 -0.6621 -1.7715  2.0276
   7223SM  H13G 9485   6.554   1.949   5.375  1.8192 -2.1970 -1.0406
   7223SM  C14F 9486   6.333   1.927   5.338  0.6330 -0.1307  0.0563
   7223SM  H14F 9487   6.309   2.007   5.412 -0.5516  0.2670 -0.7258
   7223SM  H14G 9488   6.253   1.851   5.355  1.2836 -0.5225  1.5774
   7223SM  C15F 9489   6.326   1.999   5.202 -0.2920  0.1444  0.6489
   7223SM  H15F 9490   6.406   2.076   5.198 -0.6846  0.5924  1.1570
   7223SM  H15G 9491   6.235   2.064   5.200 -0.3436  0.0722 -1.3434
   7223SM  C16F 9492   6.324   1.911   5.077  0.5839 -0.3484 -0.1043
   7223SM  H16F 9493   6.253   1.827   5.092  0.9722 -0.5582  0.5837
   7223SM  H16G 9494   6.429   1.876   5.067  0.7064  0.4003 -1.9764
   7223SM  C17F 9495   6.283   1.990   4.948 -0.5594  0.7423  0.3462
   7223SM  H17F 9496   6.367   2.057   4.918  0.5761 -0.4778  0.7262
   7223SM  H17G 9497   6.198   2.060   4.967 -0.1541  1.7101 -1.2274
   7223SM  C18F 9498   6.253   1.906   4.824 -0.3790 -0.7657  0.0000
   7223SM  H18F 9499   6.166   1.837   4.838 -0.4136 -0.4734  1.3454
   7223SM  H18G 9500   6.345   1.847   4.804 -0.1140  0.4486 -2.9076
   7223SM  C19F 9501   6.250   1.990   4.697  0.1508  0.2880 -0.4091
   7223SM  H19F 9502   6.262   1.925   4.607  2.2144 -2.6360  1.7747
   7223SM  H19G 9503   6.337   2.059   4.696 -0.5304  1.2441  1.6840
   7223SM  C20F 9504   6.117   2.068   4.689 -0.2648  0.3803  0.2820
   7223SM  H20F 9505   6.117   2.157   4.754 -0.9117 -1.4622  2.9886
   7223SM  H20G 9506   6.033   2.009   4.731 -0.8521  0.8891 -0.1566
   7223SM  C21F 9507   6.072   2.109   4.545  0.4679  0.2629 -0.0713
   7223SM  H21F 9508   6.161   2.154   4.497  1.3430 -1.3884 -0.0762
   7223SM  H21G 9509   5.997   2.190   4.555  1.9199  1.5915  0.5770
   7223SM  C22F 9510   6.030   2.000   4.451  0.5981 -0.3259  0.4277
   7223SM  H22F 9511   5.934   1.961   4.490 -0.6104 -0.1504 -2.1856
   7223SM  H22G 9512   6.109   1.923   4.465  0.5558 -0.2703  1.0099
   7223SM  C23F 9513   6.033   2.054   4.310 -0.3258 -0.5972  0.7743
   7223SM  H23F 9514   5.953   2.127   4.288  3.2364  3.4041 -0.2633
   7223SM  H23G 9515   6.038   1.967   4.240  0.6510 -2.5940  3.1876
   7223SM  H23H 9516   6.123   2.115   4.288 -0.8079  0.3250  1.3254
   7323SM     N 9517   6.874   0.535   7.486 -0.1476 -0.0734 -0.1318
   7323SM   C15 9518   6.855   0.655   7.570  0.3250  0.0937  0.3754
   7323SM  H15A 9519   6.895   0.638   7.670 -1.6579 -0.5603  1.0984
   7323SM  H15B 9520   6.750   0.677   7.580  0.6067  1.7588  0.0214
   7323SM  H15C 9521   6.904   0.738   7.522  3.5039 -1.9561 -0.2452
   7323SM   C14 9522   7.016   0.521   7.457 -0.8059  0.0797  0.4430
   7323SM  H14A 9523   7.037   0.595   7.381 -0.1929 -0.0983  0.4394
   7323SM  H14B 9524   7.048   0.429   7.410  0.9337  0.3180  1.0901
   7323SM  H14C 9525   7.078   0.547   7.541  1.0495 -1.0977 -0.5012
   7323SM   C13 9526   6.827   0.423   7.572  0.6243  0.1436 -0.4683
   7323SM  H13A 9527   6.851   0.331   7.521 -2.1398  1.0646 -3.6976
   7323SM  H13B 9528   6.722   0.433   7.592  0.2601  0.2761 -2.3092
   7323SM  H13C 9529   6.879   0.438   7.666  0.6211 -2.4991  0.0338
   7323SM   C12 9530   6.795   0.536   7.361 -0.1798  0.1147  0.2871
   7323SM  H12A 9531   6.802   0.434   7.326  1.3734 -0.0247  0.9192
   7323SM  H12B 9532   6.831   0.599   7.281  2.3708 -1.5300  0.0430
   7323SM   C11 9533   6.638   0.563   7.373  0.8353 -0.9161 -0.0998
   7323SM  H11A 9534   6.608   0.618   7.281 -0.3528 -1.6702 -0.1806
   7323SM  H11B 9535   6.616   0.638   7.452  0.5681 -0.5509 -0.5175
   7323SM     P 9536   6.546   0.341   7.284 -0.0753 -0.1129  0.1710
   7323SM   O13 9537   6.654   0.241   7.300  0.4423  0.5877  0.1603
   7323SM   O14 9538   6.403   0.295   7.296 -0.0626  0.0719  0.6020
   7323SM   O11 9539   6.561   0.414   7.133 -0.0514  0.1255  0.1388
   7323SM   O12 9540   6.565   0.450   7.391 -0.0475 -0.4753 -0.1719
   7323SM   C1S 9541   6.657   0.357   7.048  0.1445 -0.0245 -0.0991
   7323SM   H1S 9542   6.640   0.247   7.047 -0.5195  0.0599  0.8547
   7323SM   H1T 9543   6.761   0.377   7.082 -0.9845  2.0856  2.4549
   7323SM    NF 9544   6.709   0.298   6.812  0.4410 -1.0205 -0.1400
   7323SM   HNF 9545   6.804   0.310   6.783  0.6105 -2.2786 -0.1938
   7323SM   C2S 9546   6.637   0.390   6.905 -0.2519 -0.0307  0.5913
   7323SM   H2S 9547   6.527   0.377   6.894 -0.6523  1.6218  2.0583
   7323SM   C3S 9548   6.674   0.544   6.892 -0.2323  1.4611 -0.0724
   7323SM   H3S 9549   6.774   0.562   6.938  0.2252 -0.8942 -0.0272
   7323SM    O3 9550   6.584   0.635   6.950 -0.1400 -0.2347  0.1911
   7323SM   HO3 9551   6.522   0.585   7.004 -1.5960 -0.0146 -1.2127
   7323SM   C4S 9552   6.666   0.572   6.739  0.1975 -1.1721 -0.1032
   7323SM   H4S 9553   6.563   0.557   6.705 -0.7604  1.2355  1.4687
   7323SM   C5S 9554   6.766   0.611   6.660  0.8430  0.0928 -0.2646
   7323SM   H5S 9555   6.868   0.636   6.693  0.3866  0.8114  0.6459
   7323SM   C6S 9556   6.741   0.616   6.507 -0.3658  0.1912 -0.1722
   7323SM   H6S 9557   6.637   0.593   6.476 -1.0682  0.2447  1.9469
   7323SM   H6T 9558   6.811   0.552   6.448 -2.4945 -0.9177 -1.6209
   7323SM   C7S 9559   6.778   0.761   6.470  0.5872  0.4726  0.0091
   7323SM   H7S 9560   6.885   0.776   6.495  0.6110 -1.2101  1.1060
   7323SM   H7T 9561   6.741   0.842   6.537  0.5457 -0.5313  1.2287
   7323SM   C8S 9562   6.751   0.796   6.329 -0.4409  0.6318 -0.0411
   7323SM   H8S 9563   6.795   0.897   6.310  1.9290 -0.5275 -1.2912
   7323SM   H8T 9564   6.642   0.799   6.309 -0.6357  0.1168  0.8942
   7323SM   C9S 9565   6.819   0.690   6.237 -0.2140 -0.3566  0.5609
   7323SM   H9S 9566   6.754   0.601   6.236 -0.8805  0.0948 -1.5054
   7323SM   H9T 9567   6.924   0.676   6.272 -0.2573 -0.9253  0.4618
   7323SM  C10S 9568   6.796   0.733   6.094  0.3674 -0.3192  0.2435
   7323SM  H10S 9569   6.852   0.828   6.074  0.6733 -0.8656 -1.6599
   7323SM  H10T 9570   6.687   0.754   6.086  0.0953 -1.7104  0.1791
   7323SM  C11S 9571   6.845   0.632   5.985  0.2659 -0.1708 -0.0611
   7323SM  H11S 9572   6.775   0.546   5.991 -0.8788  0.7347 -0.1171
   7323SM  H11T 9573   6.954   0.611   5.989  0.3268  0.1811  0.2549
   7323SM  C12S 9574   6.815   0.693   5.847 -0.5809 -0.2266  0.1912
   7323SM  H12S 9575   6.868   0.789   5.830 -0.6924  0.0169  1.1886
   7323SM  H12T 9576   6.706   0.715   5.842 -0.9552 -2.0211 -0.3083
   7323SM  C13S 9577   6.853   0.605   5.728  0.1011  0.1629 -0.0379
   7323SM  H13S 9578   6.806   0.506   5.750  0.0214  0.4145  0.9756
   7323SM  H13T 9579   6.963   0.598   5.717  0.0801 -1.4598  0.4557
   7323SM  C14S 9580   6.804   0.663   5.588 -0.5758  0.4080  0.3698
   7323SM  H14S 9581   6.886   0.668   5.513 -2.2003 -1.7237 -1.7097
   7323SM  H14T 9582   6.772   0.765   5.615  1.1047  1.4283 -1.2705
   7323SM  C15S 9583   6.689   0.561   5.542  0.6866 -0.0276  1.1411
   7323SM  H15S 9584   6.607   0.551   5.616 -0.9722  1.8664 -0.3272
   7323SM  H15T 9585   6.743   0.465   5.531 -0.6727 -0.6935 -0.1565
   7323SM  C16S 9586   6.630   0.583   5.398 -0.4222 -0.7644 -0.1854
   7323SM  H16S 9587   6.724   0.593   5.340  0.8663  0.6083  2.0292
   7323SM  H16T 9588   6.585   0.684   5.408  0.4172 -0.5928  3.3127
   7323SM  C17S 9589   6.533   0.473   5.353  0.1227  0.6141  0.3191
   7323SM  H17S 9590   6.582   0.374   5.367 -1.5760 -0.3969 -0.6391
   7323SM  H17T 9591   6.527   0.493   5.243  0.4028  2.5968  0.6172
   7323SM  C18S 9592   6.386   0.491   5.395 -0.6475 -0.0534 -0.9101
   7323SM  H18S 9593   6.328   0.399   5.371 -1.0213 -0.5171  1.5074
   7323SM  H18T 9594   6.344   0.575   5.337 -0.4860  3.1598  3.1567
   7323SM  H18U 9595   6.380   0.503   5.505  2.9854  0.0133 -0.5877
   7323SM   C1F 9596   6.667   0.168   6.802 -0.3016  0.4123  0.0265
   7323SM    OF 9597   6.561   0.132   6.858 -0.2896  0.0753  0.6251
   7323SM   C2F 9598   6.742   0.069   6.712 -0.1193  0.2615 -0.3431
   7323SM   H2F 9599   6.781  -0.015   6.774  0.3477 -0.2212 -1.2767
   7323SM   H2G 9600   6.819   0.136   6.670 -1.0808  1.2651 -0.5521
   7323SM   C3F 9601   6.649   0.020   6.598  0.0190  0.0690 -0.2239
   7323SM   H3F 9602   6.613   0.110   6.543  2.5196  0.6128 -1.1129
   7323SM   H3G 9603   6.559  -0.037   6.629 -0.0241 -1.0631 -2.2591
   7323SM   C4F 9604   6.719  -0.082   6.502 -0.6888  0.3280  0.3084
   7323SM   H4F 9605   6.764  -0.169   6.555  1.7492 -0.9480 -3.4829
   7323SM   H4G 9606   6.812  -0.038   6.460 -1.5825  0.9188 -1.1089
   7323SM   C5F 9607   6.634  -0.123   6.387 -0.1174  0.2414  0.4725
   7323SM   H5F 9608   6.659  -0.060   6.299 -3.4477 -0.2407 -0.9773
   7323SM   H5G 9609   6.529  -0.117   6.423  0.1277 -1.8195  1.7273
   7323SM   C6F 9610   6.643  -0.273   6.356  0.4071 -0.3135  0.0814
   7323SM   H6F 9611   6.626  -0.334   6.447 -1.8859  2.1646  1.4525
   7323SM   H6G 9612   6.748  -0.289   6.324 -0.0013  0.4960 -1.7869
   7323SM   C7F 9613   6.552  -0.312   6.245  0.2601  0.4151 -0.0136
   7323SM   H7F 9614   6.586  -0.291   6.142 -0.8606 -0.4832 -0.5982
   7323SM   H7G 9615   6.453  -0.263   6.254  0.6019  1.0463  0.3717
   7323SM   C8F 9616   6.516  -0.462   6.253  0.4615 -0.1316  0.6383
   7323SM   H8F 9617   6.469  -0.480   6.352  2.2681 -1.0334  1.3819
   7323SM   H8G 9618   6.608  -0.524   6.249 -0.4025 -1.4020 -2.2204
   7323SM   C9F 9619   6.427  -0.513   6.141 -0.1707 -0.2956  0.6841
   7323SM   H9F 9620   6.337  -0.449   6.128 -0.9972 -1.8696 -2.2202
   7323SM   H9G 9621   6.398  -0.620   6.149  0.3161 -0.5551 -0.7496
   7323SM  C10F 9622   6.494  -0.503   6.004  0.1705 -0.0323 -0.3099
   7323SM  H10F 9623   6.590  -0.559   5.994 -0.7558 -1.7904  0.2229
   7323SM  H10G 9624   6.507  -0.397   5.972  1.0493 -0.7566 -2.5239
   7323SM  C11F 9625   6.407  -0.562   5.899  0.5243  0.8407  0.7779
   7323SM  H11F 9626   6.303  -0.528   5.917  0.1200 -0.0229  0.1568
   7323SM  H11G 9627   6.405  -0.672   5.914 -2.1970  0.6880 -0.0838
   7323SM  C12F 9628   6.450  -0.524   5.754  0.0266  0.2865  0.2834
   7323SM  H12F 9629   6.560  -0.523   5.738  0.0662  0.3520  0.5653
   7323SM  H12G 9630   6.429  -0.421   5.718  0.5722  0.0126 -0.8945
   7323SM  C13F 9631   6.385  -0.623   5.651  0.3531 -0.9451  0.5637
   7323SM  H13F 9632   6.274  -0.615   5.641  0.4403 -2.3838 -3.1784
   7323SM  H13G 9633   6.409  -0.729   5.673  0.7385 -1.1657 -0.8545
   7323SM  C14F 9634   6.422  -0.600   5.498 -0.0732  0.0871  0.6530
   7323SM  H14F 9635   6.386  -0.689   5.444  2.7177 -0.5657 -0.2922
   7323SM  H14G 9636   6.532  -0.586   5.487  0.2021 -2.8588 -1.1292
   7323SM  C15F 9637   6.352  -0.478   5.434  0.1504  0.3463 -0.3148
   7323SM  H15F 9638   6.396  -0.385   5.476  0.9231 -0.3136  0.3816
   7323SM  H15G 9639   6.241  -0.485   5.444  0.2378  0.0821  0.5806
   7323SM  C16F 9640   6.385  -0.448   5.280  0.2310  0.4088  0.1267
   7323SM  H16F 9641   6.317  -0.365   5.251 -0.4689  0.2971  1.3651
   7323SM  H16G 9642   6.348  -0.542   5.232  0.3595  0.4563 -0.0655
   7323SM  C17F 9643   6.524  -0.419   5.247  0.7980  0.4091  0.2842
   7323SM  H17F 9644   6.599  -0.479   5.303  2.7690  1.0601 -1.5233
   7323SM  H17G 9645   6.544  -0.312   5.269 -0.5105  1.1930 -1.9511
   7323SM  C18F 9646   6.546  -0.425   5.097 -0.8195 -0.2918 -0.3941
   7323SM  H18F 9647   6.646  -0.383   5.071 -0.7073  0.0108  0.4882
   7323SM  H18G 9648   6.469  -0.364   5.045 -0.4686  2.3886  2.0001
   7323SM  C19F 9649   6.555  -0.571   5.043  1.0439 -0.4535 -0.3825
   7323SM  H19F 9650   6.465  -0.628   5.076  1.6437 -1.9106 -1.1697
   7323SM  H19G 9651   6.639  -0.628   5.088  1.1685 -0.6310 -0.8379
   7323SM  C20F 9652   6.556  -0.590   4.888 -0.2569 -0.0599  0.3321
   7323SM  H20F 9653   6.466  -0.544   4.843 -0.7071 -0.4497  0.8285
   7323SM  H20G 9654   6.554  -0.700   4.871  4.0727 -0.5516  1.6228
   7323SM  C21F 9655   6.679  -0.522   4.822 -0.0337 -0.4852 -1.2837
   7323SM  H21F 9656   6.775  -0.563   4.861  1.1009  1.6981 -1.6064
   7323SM  H21G 9657   6.666  -0.413   4.840  0.0850 -0.6438 -0.1085
   7323SM  C22F 9658   6.687  -0.546   4.671  0.2936 -0.2943  1.0454
   7323SM  H22F 9659   6.598  -0.523   4.610  0.2126 -2.3234  0.3210
   7323SM  H22G 9660   6.693  -0.653   4.641 -2.0716 -0.1217 -0.2576
   7323SM  C23F 9661   6.809  -0.477   4.610  0.3315 -0.1484 -0.7050
   7323SM  H23F 9662   6.810  -0.369   4.637  1.4872 -0.2435 -0.3387
   7323SM  H23G 9663   6.810  -0.489   4.500  0.8735 -0.5654 -0.6603
   7323SM  H23H 9664   6.905  -0.518   4.647  0.6117  0.0011 -1.2610
   7423SM     N 9665   1.806   4.353   7.243 -0.5939  0.4600  0.7138
   7423SM   C15 9666   1.769   4.492   7.276  0.6111  0.5033 -1.3115
   7423SM  H15A 9667   1.668   4.509   7.243 -0.3366 -0.7166  0.7304
   7423SM  H15B 9668   1.838   4.562   7.232  1.9997 -0.2693 -0.4511
   7423SM  H15C 9669   1.780   4.508   7.382  1.5524  0.0228 -1.3265
   7423SM   C14 9670   1.949   4.316   7.283  0.8851 -0.4807  0.2805
   7423SM  H14A 9671   2.020   4.361   7.216  1.1678 -0.6595  0.4575
   7423SM  H14B 9672   1.958   4.208   7.275 -2.0830 -0.6505 -2.9435
   7423SM  H14C 9673   1.972   4.343   7.386  1.2478 -1.6051  0.5103
   7423SM   C13 9674   1.704   4.260   7.298  0.0913  0.4964  0.6307
   7423SM  H13A 9675   1.708   4.263   7.406  0.7190 -1.8166  0.7279
   7423SM  H13B 9676   1.724   4.158   7.271  0.2638  0.3306  1.3532
   7423SM  H13C 9677   1.609   4.294   7.260  0.3692  0.1085 -0.4392
   7423SM   C12 9678   1.799   4.349   7.083 -0.6046 -0.1170 -0.0829
   7423SM  H12A 9679   1.847   4.260   7.046 -1.7805 -0.3656 -1.0726
   7423SM  H12B 9680   1.846   4.437   7.042 -1.9265  0.7854  0.2424
   7423SM   C11 9681   1.666   4.356   7.007  0.0317  0.0981 -0.0619
   7423SM  H11A 9682   1.684   4.398   6.905 -0.8926  3.6994  1.0968
   7423SM  H11B 9683   1.601   4.432   7.056  0.2390 -0.9529  1.9040
   7423SM     P 9684   1.644   4.106   6.917  0.2306  0.1576  0.1659
   7423SM   O13 9685   1.777   4.061   6.965 -0.3784  0.4345 -0.1778
   7423SM   O14 9686   1.529   4.009   6.911 -0.0395 -0.4125 -0.1559
   7423SM   O11 9687   1.654   4.163   6.773  0.7181 -0.4924 -0.2926
   7423SM   O12 9688   1.597   4.225   7.006  0.0963 -0.2092 -0.1372
   7423SM   C1S 9689   1.538   4.230   6.717  0.4175  0.8193  0.8657
   7423SM   H1S 9690   1.539   4.336   6.747 -2.4770  1.8989 -2.2664
   7423SM   H1T 9691   1.437   4.197   6.749  0.4654  1.4535  1.6960
   7423SM    NF 9692   1.437   4.309   6.497 -0.0833 -0.0830 -0.0755
   7423SM   HNF 9693   1.349   4.263   6.503  0.8425 -1.6984  2.4809
   7423SM   C2S 9694   1.543   4.227   6.558 -0.0642  0.5780  0.0641
   7423SM   H2S 9695   1.641   4.275   6.537 -0.2039  1.0542  0.4937
   7423SM   C3S 9696   1.535   4.085   6.506 -0.0438 -0.8200  0.2625
   7423SM   H3S 9697   1.432   4.056   6.535 -0.2524 -0.9125 -0.5452
   7423SM    O3 9698   1.625   3.989   6.571  0.2276  0.2430  0.0037
   7423SM   HO3 9699   1.658   4.035   6.649  2.3127  1.1983 -1.3559
   7423SM   C4S 9700   1.549   4.081   6.355 -0.4279 -0.2341  0.5221
   7423SM   H4S 9701   1.448   4.072   6.314 -1.6014 -0.0390  3.1735
   7423SM   C5S 9702   1.663   4.076   6.288  0.3652  0.0680 -0.1024
   7423SM   H5S 9703   1.756   4.086   6.346  0.9106 -0.9904 -0.7589
   7423SM   C6S 9704   1.681   4.063   6.140 -0.0375 -0.1128  0.4644
   7423SM   H6S 9705   1.588   4.024   6.094  0.3314 -1.3693  0.7664
   7423SM   H6T 9706   1.767   3.997   6.115  1.4538  1.8588  0.0443
   7423SM   C7S 9707   1.715   4.187   6.054 -0.2498  0.3718  0.0357
   7423SM   H7S 9708   1.821   4.216   6.068  0.4539 -1.8361 -0.2880
   7423SM   H7T 9709   1.630   4.251   6.087 -0.8736 -0.8606  0.9151
   7423SM   C8S 9710   1.710   4.156   5.903  0.0392 -0.2808 -0.6350
   7423SM   H8S 9711   1.603   4.139   5.879 -0.7382  0.7005  1.8303
   7423SM   H8T 9712   1.772   4.071   5.865 -1.4042 -0.2456 -3.2533
   7423SM   C9S 9713   1.751   4.280   5.819 -0.3690  0.2532  0.8749
   7423SM   H9S 9714   1.861   4.285   5.831  0.0227  0.2676 -1.9212
   7423SM   H9T 9715   1.694   4.368   5.854 -1.6809 -0.1242 -0.1909
   7423SM  C10S 9716   1.730   4.264   5.664  1.6426 -0.8503  0.4582
   7423SM  H10S 9717   1.774   4.358   5.624  3.1314 -1.4781  0.5620
   7423SM  H10T 9718   1.621   4.252   5.649  1.1368 -0.0611  3.0467
   7423SM  C11S 9719   1.813   4.153   5.611  0.8341  0.7602 -0.6972
   7423SM  H11S 9720   1.772   4.059   5.654 -2.2183  1.3846 -2.0184
   7423SM  H11T 9721   1.912   4.158   5.663  1.2267 -2.2677 -0.9294
   7423SM  C12S 9722   1.825   4.149   5.458 -0.0890 -0.5200 -0.4238
   7423SM  H12S 9723   1.876   4.239   5.418  2.3295 -1.1296  1.1268
   7423SM  H12T 9724   1.723   4.155   5.413 -0.7482  1.0748  1.1585
   7423SM  C13S 9725   1.908   4.027   5.410 -0.4250  0.3190 -0.1629
   7423SM  H13S 9726   2.014   4.030   5.444 -0.3696  0.5312 -0.3487
   7423SM  H13T 9727   1.923   4.033   5.300  0.5474 -0.3207 -0.0749
   7423SM  C14S 9728   1.844   3.885   5.440 -0.5254  0.2036 -0.2246
   7423SM  H14S 9729   1.749   3.884   5.382 -1.5086  0.7364  1.3074
   7423SM  H14T 9730   1.832   3.873   5.550  1.3759 -1.8491 -0.1825
   7423SM  C15S 9731   1.930   3.760   5.396  0.3286  0.0180 -0.4171
   7423SM  H15S 9732   2.035   3.770   5.430  0.1067  0.2143  0.2103
   7423SM  H15T 9733   1.941   3.748   5.286 -0.2115 -0.0911 -0.4629
   7423SM  C16S 9734   1.873   3.635   5.456 -0.3507  0.8957 -0.4149
   7423SM  H16S 9735   1.849   3.643   5.564  0.2363  3.2840 -0.4100
   7423SM  H16T 9736   1.952   3.561   5.434 -0.3287  1.0245 -0.7832
   7423SM  C17S 9737   1.751   3.580   5.381  1.0195 -0.3551  1.0192
   7423SM  H17S 9738   1.679   3.664   5.374  0.6050 -0.8547 -2.9308
   7423SM  H17T 9739   1.706   3.492   5.434 -3.5438  0.7373 -0.5738
   7423SM  C18S 9740   1.786   3.530   5.237 -0.0768 -0.1392  0.0477
   7423SM  H18S 9741   1.691   3.524   5.180  0.7921  1.9723 -1.7363
   7423SM  H18T 9742   1.834   3.430   5.239 -0.2944 -0.2385  1.3386
   7423SM  H18U 9743   1.857   3.598   5.186  0.1938 -0.4486  0.0143
   7423SM   C1F 9744   1.453   4.441   6.482  0.1552  0.5933  0.5933
   7423SM    OF 9745   1.544   4.493   6.531 -0.7167 -0.1712  0.6492
   7423SM   C2F 9746   1.341   4.505   6.403  0.4616  0.3736 -0.2310
   7423SM   H2F 9747   1.343   4.616   6.400 -1.2027  0.4400 -0.1322
   7423SM   H2G 9748   1.241   4.468   6.434  1.3848 -1.5967  0.5757
   7423SM   C3F 9749   1.356   4.462   6.254  0.6340  0.5776  0.3099
   7423SM   H3F 9750   1.354   4.351   6.255  1.3294  0.4533  4.6814
   7423SM   H3G 9751   1.446   4.510   6.211  0.4397  0.0757 -0.6858
   7423SM   C4F 9752   1.232   4.505   6.178 -0.3495 -0.1190  0.4069
   7423SM   H4F 9753   1.150   4.501   6.253  1.2606  3.4358  2.6181
   7423SM   H4G 9754   1.210   4.433   6.096  0.9050  1.7754 -1.7148
   7423SM   C5F 9755   1.248   4.646   6.106 -0.4441 -0.0733 -0.1995
   7423SM   H5F 9756   1.322   4.625   6.026 -0.1513  1.3350 -0.3266
   7423SM   H5G 9757   1.283   4.720   6.181 -0.0782  0.4067 -0.8353
   7423SM   C6F 9758   1.123   4.703   6.043  0.2484  0.1417  0.0978
   7423SM   H6F 9759   1.054   4.732   6.126  2.2134  1.5012  1.3458
   7423SM   H6G 9760   1.084   4.620   5.980  1.6370  1.2671 -2.3423
   7423SM   C7F 9761   1.146   4.828   5.953  0.3412 -0.3185  0.5848
   7423SM   H7F 9762   1.212   4.907   5.995 -0.1128 -0.1360  0.9718
   7423SM   H7G 9763   1.046   4.878   5.953  0.3952 -0.2098  0.3750
   7423SM   C8F 9764   1.198   4.799   5.817 -0.9273  0.2367  0.1025
   7423SM   H8F 9765   1.118   4.741   5.768 -0.8299  0.4290 -0.2892
   7423SM   H8G 9766   1.290   4.738   5.825 -1.7972 -1.1255 -0.0721
   7423SM   C9F 9767   1.236   4.931   5.752 -0.3707 -0.3038 -0.0792
   7423SM   H9F 9768   1.306   4.978   5.824 -2.3113  0.3593  1.4672
   7423SM   H9G 9769   1.146   4.996   5.740  0.4000  0.7898 -0.0881
   7423SM  C10F 9770   1.305   4.907   5.616  0.4950 -0.2298  0.0399
   7423SM  H10F 9771   1.286   4.803   5.583 -0.3353 -0.5610  1.4693
   7423SM  H10G 9772   1.412   4.936   5.628  0.8748 -1.1330 -1.0774
   7423SM  C11F 9773   1.239   5.004   5.516  0.4733  0.3947 -0.3906
   7423SM  H11F 9774   1.257   5.110   5.542 -0.8466  1.1158 -2.1866
   7423SM  H11G 9775   1.130   4.990   5.531  0.8573 -2.1986  0.6138
   7423SM  C12F 9776   1.265   4.963   5.371 -0.4457 -0.1757 -0.2351
   7423SM  H12F 9777   1.235   4.856   5.366 -1.2384  0.0759 -1.0129
   7423SM  H12G 9778   1.367   4.959   5.326 -1.2982 -1.7640 -2.2197
   7423SM  C13F 9779   1.193   5.040   5.263  0.1609 -0.5076  0.6037
   7423SM  H13F 9780   1.220   5.148   5.269  0.9379 -0.6096 -0.7216
   7423SM  H13G 9781   1.083   5.037   5.278 -0.2229  3.7868 -0.0900
   7423SM  C14F 9782   1.225   4.997   5.120  0.0958  0.1677  0.3547
   7423SM  H14F 9783   1.334   5.010   5.099  0.2278 -1.7604 -0.4126
   7423SM  H14G 9784   1.173   5.060   5.045  2.0307 -0.0017 -1.2380
   7423SM  C15F 9785   1.181   4.849   5.082  0.2791 -1.0834  0.5972
   7423SM  H15F 9786   1.070   4.841   5.089  0.0212  0.5267 -0.9760
   7423SM  H15G 9787   1.226   4.783   5.159  1.9522 -0.8056 -0.1089
   7423SM  C16F 9788   1.236   4.806   4.949  0.5423  0.0525  0.3004
   7423SM  H16F 9789   1.279   4.704   4.958 -1.6732 -1.0688 -0.9961
   7423SM  H16G 9790   1.313   4.880   4.920 -1.2293  1.1451 -1.9353
   7423SM  C17F 9791   1.140   4.816   4.831 -0.2027  0.1909 -0.0575
   7423SM  H17F 9792   1.193   4.783   4.739  1.3095  0.7361  0.6007
   7423SM  H17G 9793   1.115   4.919   4.799  1.9537  0.9155  0.4873
   7423SM  C18F 9794   1.023   4.721   4.850  0.0084 -0.3535 -0.1518
   7423SM  H18F 9795   0.970   4.731   4.948 -0.2224  3.2444 -0.5288
   7423SM  H18G 9796   1.070   4.620   4.845  0.1374 -0.2762 -0.4602
   7423SM  C19F 9797   0.916   4.728   4.742  0.0739  1.1830  0.3238
   7423SM  H19F 9798   0.964   4.731   4.642  2.0361  0.7744  1.1956
   7423SM  H19G 9799   0.857   4.822   4.754 -2.1397  0.0955 -1.3853
   7423SM  C20F 9800   0.819   4.609   4.750  0.0770  0.1145  0.3487
   7423SM  H20F 9801   0.777   4.610   4.853 -1.6209 -1.7929 -0.2348
   7423SM  H20G 9802   0.872   4.513   4.731 -0.5116  0.1913 -1.9107
   7423SM  C21F 9803   0.694   4.623   4.667  0.0831 -0.7229  0.2283
   7423SM  H21F 9804   0.716   4.639   4.559  1.4400 -1.1710  0.4182
   7423SM  H21G 9805   0.640   4.711   4.706  0.4485 -0.8470  1.0285
   7423SM  C22F 9806   0.601   4.503   4.674 -0.0154  0.3607 -0.8322
   7423SM  H22F 9807   0.665   4.417   4.645  2.0224  1.9757 -1.3326
   7423SM  H22G 9808   0.514   4.516   4.607  0.4620  0.4380 -1.4452
   7423SM  C23F 9809   0.536   4.464   4.810 -0.3105 -0.3982  0.5702
   7423SM  H23F 9810   0.618   4.433   4.878  0.2181 -1.1132 -0.3582
   7423SM  H23G 9811   0.466   4.378   4.800  0.2388 -0.7244 -0.7681
   7423SM  H23H 9812   0.486   4.553   4.853  1.6178  1.2830 -0.4483
   7523SM     N 9813   6.680   4.082   7.318  0.4877  0.2991 -0.5092
   7523SM   C15 9814   6.645   3.954   7.264  0.6840  0.1037 -0.2202
   7523SM  H15A 9815   6.543   3.962   7.228  0.1435  1.6157  1.4856
   7523SM  H15B 9816   6.632   3.882   7.342 -3.1169  1.1254  0.3016
   7523SM  H15C 9817   6.711   3.925   7.184 -0.7289  2.0555 -2.2205
   7523SM   C14 9818   6.583   4.122   7.430 -0.4590 -0.3234 -0.2912
   7523SM  H14A 9819   6.485   4.106   7.388  0.2146  1.1201 -2.6321
   7523SM  H14B 9820   6.594   4.228   7.443 -2.2479 -0.0958 -0.4786
   7523SM  H14C 9821   6.584   4.068   7.523 -2.3562  0.7186  0.3863
   7523SM   C13 9822   6.818   4.083   7.381  0.1663 -0.4795  0.1656
   7523SM  H13A 9823   6.824   4.020   7.469  0.8274  0.7305  1.0150
   7523SM  H13B 9824   6.850   4.185   7.395 -0.2159 -0.4176  0.6056
   7523SM  H13C 9825   6.896   4.048   7.315  1.2717  2.2185 -0.0950
   7523SM   C12 9826   6.683   4.185   7.205  0.2781  0.4080  0.6340
   7523SM  H12A 9827   6.695   4.283   7.250  1.3250  0.1176  1.0013
   7523SM  H12B 9828   6.583   4.191   7.165  0.4517 -0.0407  0.1301
   7523SM   C11 9829   6.786   4.159   7.087 -0.8422  0.6246 -0.1954
   7523SM  H11A 9830   6.753   4.235   7.013  1.3001  2.0768  0.2548
   7523SM  H11B 9831   6.776   4.058   7.041 -0.1736 -0.1301  1.2354
   7523SM     P 9832   7.049   4.112   7.077  0.5147  0.0258 -0.1134
   7523SM   O13 9833   7.174   4.188   7.097 -0.1583  0.6082  0.2155
   7523SM   O14 9834   7.048   3.974   7.136  0.3259 -0.6834 -0.1467
   7523SM   O11 9835   7.020   4.092   6.917 -0.5409 -0.2748 -0.1235
   7523SM   O12 9836   6.920   4.186   7.128  0.0737  0.8653  0.2606
   7523SM   C1S 9837   7.027   4.206   6.835  0.8566  0.6280 -0.5974
   7523SM   H1S 9838   7.133   4.239   6.824  0.8491  1.0751  0.5224
   7523SM   H1T 9839   6.972   4.294   6.874  0.0033 -0.0053 -0.3427
   7523SM    NF 9840   6.992   4.297   6.612 -0.3642 -0.6226 -0.2648
   7523SM   HNF 9841   6.920   4.366   6.612  0.8453  0.6835  0.1941
   7523SM   C2S 9842   6.973   4.177   6.692  0.2262  0.4031  0.2800
   7523SM   H2S 9843   7.031   4.096   6.643 -0.6650  0.4284 -0.8659
   7523SM   C3S 9844   6.823   4.146   6.702  0.3910  0.5165 -0.2464
   7523SM   H3S 9845   6.776   4.222   6.766  0.0098 -0.1336  0.2556
   7523SM    O3 9846   6.796   4.017   6.758 -0.0461  0.0189  0.0646
   7523SM   HO3 9847   6.881   3.983   6.785 -0.8033 -1.3794  0.7933
   7523SM   C4S 9848   6.756   4.141   6.568 -0.0383 -0.4164  0.2022
   7523SM   H4S 9849   6.806   4.075   6.495 -0.2291  0.4263 -0.7182
   7523SM   C5S 9850   6.633   4.187   6.540 -0.1578  0.0791  0.2832
   7523SM   H5S 9851   6.566   4.229   6.616  0.1905 -0.8458  1.1218
   7523SM   C6S 9852   6.566   4.171   6.409 -0.1657 -0.3288 -0.2544
   7523SM   H6S 9853   6.489   4.092   6.419  0.8536 -1.3727 -0.5234
   7523SM   H6T 9854   6.639   4.134   6.334 -1.6481 -0.8153 -1.5198
   7523SM   C7S 9855   6.506   4.301   6.353  0.1195  0.2671  0.4170
   7523SM   H7S 9856   6.572   4.390   6.358 -0.0022  0.4375 -0.8066
   7523SM   H7T 9857   6.415   4.317   6.415 -0.2704  0.5974 -0.2267
   7523SM   C8S 9858   6.467   4.285   6.200 -0.1126 -0.1744 -0.3985
   7523SM   H8S 9859   6.393   4.204   6.183 -0.0254 -0.5761  0.9896
   7523SM   H8T 9860   6.560   4.250   6.150  0.8567 -0.1152  1.2859
   7523SM   C9S 9861   6.410   4.407   6.137 -0.1299 -0.7413 -0.0824
   7523SM   H9S 9862   6.369   4.477   6.213  0.4805  1.0627 -1.3509
   7523SM   H9T 9863   6.326   4.377   6.071  0.2264 -1.0910 -0.3851
   7523SM  C10S 9864   6.507   4.486   6.048 -0.3412 -0.3594  0.2261
   7523SM  H10S 9865   6.553   4.414   5.978  1.4438  0.7049  0.2335
   7523SM  H10T 9866   6.593   4.513   6.113  0.5209  0.3106 -1.1553
   7523SM  C11S 9867   6.440   4.599   5.970 -0.3923 -0.2609 -0.4650
   7523SM  H11S 9868   6.399   4.675   6.041 -0.2088 -1.1068  0.5657
   7523SM  H11T 9869   6.357   4.545   5.920 -1.7047  0.7709  0.5136
   7523SM  C12S 9870   6.522   4.666   5.863  0.0212  0.2460 -0.3637
   7523SM  H12S 9871   6.553   4.591   5.786  2.9617 -0.7371  1.6073
   7523SM  H12T 9872   6.609   4.723   5.900  1.6705 -0.8239 -2.3501
   7523SM  C13S 9873   6.438   4.762   5.776 -0.0855 -0.0224  0.9535
   7523SM  H13S 9874   6.399   4.838   5.847  0.1774 -0.0925  1.1743
   7523SM  H13T 9875   6.346   4.710   5.744 -0.0293  0.8547 -0.7558
   7523SM  C14S 9876   6.516   4.820   5.661  0.2426  0.1647  0.5030
   7523SM  H14S 9877   6.444   4.848   5.581  1.9169  0.4780 -0.9497
   7523SM  H14T 9878   6.593   4.753   5.617 -0.3876 -0.1333 -0.1641
   7523SM  C15S 9879   6.581   4.951   5.702  0.2375 -0.0379  0.1531
   7523SM  H15S 9880   6.632   4.960   5.801 -2.4479  1.5358  1.4980
   7523SM  H15T 9881   6.506   5.033   5.706  2.2210  1.9179 -0.0704
   7523SM  C16S 9882   6.679   5.007   5.591 -0.2916 -0.4441  0.2743
   7523SM  H16S 9883   6.629   4.997   5.492  1.5914  0.4014 -0.8055
   7523SM  H16T 9884   6.771   4.946   5.601 -0.4337 -0.5092  1.2993
   7523SM  C17S 9885   6.713   5.150   5.621  0.5183  0.2954 -0.2025
   7523SM  H17S 9886   6.757   5.173   5.720  0.0061  0.1011  0.0741
   7523SM  H17T 9887   6.617   5.205   5.608  0.3413 -0.0770 -0.4966
   7523SM  C18S 9888   6.799   5.197   5.510 -0.6200 -0.4479  0.4271
   7523SM  H18S 9889   6.893   5.139   5.504 -0.1363  0.3331  0.2167
   7523SM  H18T 9890   6.838   5.297   5.538 -0.4681 -0.9401  2.0479
   7523SM  H18U 9891   6.745   5.224   5.416  1.9991  0.9587 -0.7977
   7523SM   C1F 9892   7.116   4.329   6.567 -0.2139 -0.2625 -0.5220
   7523SM    OF 9893   7.210   4.260   6.601 -0.8329  0.4446 -0.4421
   7523SM   C2F 9894   7.135   4.450   6.479 -0.6658 -0.2468 -0.4143
   7523SM   H2F 9895   7.068   4.533   6.511  0.1969  0.2113  0.2172
   7523SM   H2G 9896   7.110   4.434   6.371 -0.8415  1.0121 -0.5726
   7523SM   C3F 9897   7.279   4.508   6.473 -0.8122 -0.2347  0.3702
   7523SM   H3F 9898   7.353   4.435   6.433 -0.3274  1.6648 -2.5112
   7523SM   H3G 9899   7.314   4.544   6.572  0.7623  0.9892 -0.5752
   7523SM   C4F 9900   7.277   4.634   6.387 -0.1160 -0.2764  1.1243
   7523SM   H4F 9901   7.240   4.726   6.436  1.1730  0.3605  0.9416
   7523SM   H4G 9902   7.217   4.620   6.294 -0.1181  1.7255  0.7853
   7523SM   C5F 9903   7.417   4.682   6.345  0.1326  0.1078  0.0162
   7523SM   H5F 9904   7.470   4.595   6.300 -0.4466 -0.4917  0.4711
   7523SM   H5G 9905   7.472   4.709   6.438  1.2880 -1.3012 -0.2185
   7523SM   C6F 9906   7.427   4.807   6.248 -0.4710 -0.3020  0.1730
   7523SM   H6F 9907   7.374   4.891   6.299  0.3276  1.6769 -2.0885
   7523SM   H6G 9908   7.372   4.783   6.154  0.8190 -0.4766 -0.5535
   7523SM   C7F 9909   7.567   4.855   6.215  0.1240 -0.3225 -0.1061
   7523SM   H7F 9910   7.618   4.882   6.310 -1.1005  3.1753 -0.2970
   7523SM   H7G 9911   7.566   4.939   6.143 -0.6884 -0.7332 -0.5942
   7523SM   C8F 9912   7.648   4.746   6.143  0.3681  0.2434  0.4319
   7523SM   H8F 9913   7.592   4.709   6.054 -0.6041 -2.4415  2.0458
   7523SM   H8G 9914   7.658   4.657   6.208  0.8866  1.7945  2.5868
   7523SM   C9F 9915   7.788   4.783   6.088  0.1703 -0.3916  0.2404
   7523SM   H9F 9916   7.836   4.690   6.051 -0.0876 -0.4225 -0.0220
   7523SM   H9G 9917   7.849   4.824   6.171  0.6420  1.5250 -0.9801
   7523SM  C10F 9918   7.793   4.895   5.980  0.1156  0.2779 -0.2306
   7523SM  H10F 9919   7.895   4.936   5.968  1.1422 -1.2197  2.5798
   7523SM  H10G 9920   7.731   4.978   6.020  0.4664 -0.4964  2.0848
   7523SM  C11F 9921   7.727   4.841   5.839  0.2524 -0.1025 -0.2622
   7523SM  H11F 9922   7.619   4.828   5.861 -0.0957  1.6404 -0.7535
   7523SM  H11G 9923   7.752   4.736   5.814 -0.8930 -0.4987  0.1540
   7523SM  C12F 9924   7.769   4.930   5.723 -0.3668 -0.2698 -0.4323
   7523SM  H12F 9925   7.880   4.936   5.712 -0.4855  0.2921 -1.3991
   7523SM  H12G 9926   7.735   5.033   5.747  2.1975  0.6690 -0.4992
   7523SM  C13F 9927   7.715   4.881   5.589 -0.0628  0.0720 -0.5185
   7523SM  H13F 9928   7.605   4.869   5.596 -0.1718  1.4229  0.2958
   7523SM  H13G 9929   7.760   4.781   5.571 -0.0746 -0.0640  0.1648
   7523SM  C14F 9930   7.736   4.968   5.461  0.2681 -0.1446 -0.0740
   7523SM  H14F 9931   7.836   4.950   5.417 -0.2781 -0.4472 -1.2238
   7523SM  H14G 9932   7.725   5.075   5.490  0.9347 -0.2465  0.5701
   7523SM  C15F 9933   7.631   4.932   5.349 -0.1625 -0.0847 -0.9723
   7523SM  H15F 9934   7.532   4.951   5.395 -1.0286  0.0211 -2.8138
   7523SM  H15G 9935   7.619   4.826   5.320 -1.1245  0.0354 -1.0491
   7523SM  C16F 9936   7.645   5.023   5.226 -0.3555  0.0275  0.3671
   7523SM  H16F 9937   7.744   5.000   5.182 -0.2518  1.3177 -0.0974
   7523SM  H16G 9938   7.633   5.128   5.258 -3.2022 -0.6029  1.6802
   7523SM  C17F 9939   7.556   5.006   5.107  0.2811 -0.2634 -0.1409
   7523SM  H17F 9940   7.584   4.917   5.046  0.8601 -1.6809  2.0761
   7523SM  H17G 9941   7.562   5.095   5.042  1.9781 -0.6000 -0.4944
   7523SM  C18F 9942   7.409   4.984   5.135 -0.0981 -0.9923  0.1497
   7523SM  H18F 9943   7.362   5.080   5.166  1.6573 -0.3017  0.7872
   7523SM  H18G 9944   7.389   4.922   5.226 -1.4067  1.3707  1.5644
   7523SM  C19F 9945   7.335   4.944   5.006 -0.1234  0.4565  0.0456
   7523SM  H19F 9946   7.236   4.899   5.027  0.7883 -1.5034  0.4172
   7523SM  H19G 9947   7.394   4.855   4.974  0.7318  0.5900  1.2031
   7523SM  C20F 9948   7.331   5.053   4.899 -0.0886 -0.3291  0.4217
   7523SM  H20F 9949   7.429   5.100   4.880 -0.6332  1.9940  2.7146
   7523SM  H20G 9950   7.259   5.130   4.937 -0.0958  0.1610 -0.5400
   7523SM  C21F 9951   7.287   5.002   4.760  0.1918  0.0682 -0.8211
   7523SM  H21F 9952   7.204   4.928   4.759  0.0417  0.2300 -2.7268
   7523SM  H21G 9953   7.366   4.940   4.715 -1.9736 -0.5196 -4.1337
   7523SM  C22F 9954   7.257   5.119   4.663 -0.1772  0.4586  0.0130
   7523SM  H22F 9955   7.346   5.185   4.658 -1.0155  1.9550  2.9610
   7523SM  H22G 9956   7.177   5.179   4.711  0.3286  1.9346 -0.9245
   7523SM  C23F 9957   7.203   5.084   4.525 -0.2177  0.5968  0.4971
   7523SM  H23F 9958   7.272   5.023   4.464  1.1319  2.0265  0.5372
   7523SM  H23G 9959   7.188   5.173   4.461 -0.6603  0.4970  0.4577
   7523SM  H23H 9960   7.110   5.024   4.533  0.4597 -0.2615  2.8144
   7623SM     N 9961   2.083   4.933   7.233 -0.8689  0.3850  0.0574
   7623SM   C15 9962   2.093   5.040   7.324 -0.1591  0.1393 -0.5760
   7623SM  H15A 9963   2.078   5.005   7.425 -1.4862 -0.3692 -0.9220
   7623SM  H15B 9964   2.005   5.102   7.311 -1.5395 -0.6006  3.5943
   7623SM  H15C 9965   2.186   5.094   7.334 -1.5418  2.2682  2.2870
   7623SM   C14 9966   2.165   4.820   7.299 -0.2611  0.3605  0.6981
   7623SM  H14A 9967   2.141   4.729   7.246  0.3595 -0.2565  1.4503
   7623SM  H14B 9968   2.128   4.801   7.398  0.0960 -1.6530  0.4897
   7623SM  H14C 9969   2.272   4.835   7.294 -0.3816  0.8488 -2.0998
   7623SM   C13 9970   1.946   4.870   7.224  0.1288  0.1587  0.5053
   7623SM  H13A 9971   1.930   4.799   7.145  0.9354  1.7212 -1.1441
   7623SM  H13B 9972   1.879   4.948   7.192  2.0737  1.2898 -1.0721
   7623SM  H13C 9973   1.909   4.837   7.320 -1.0688 -0.3994 -0.1412
   7623SM   C12 9974   2.130   4.968   7.098 -0.3322 -0.2647  0.7086
   7623SM  H12A 9975   2.122   4.882   7.034 -1.4434  0.6417 -0.4353
   7623SM  H12B 9976   2.236   4.985   7.105 -0.3469  0.1878  0.0015
   7623SM   C11 9977   2.057   5.091   7.024  0.7446 -0.5981 -0.6546
   7623SM  H11A 9978   2.114   5.107   6.930 -1.4428 -0.6143 -2.0309
   7623SM  H11B 9979   2.069   5.177   7.093  0.1138 -0.5800 -0.5618
   7623SM     P 9980   1.818   5.186   6.965  0.0761  0.1824  0.3127
   7623SM   O13 9981   1.675   5.145   6.983 -0.3353  0.1951 -1.1208
   7623SM   O14 9982   1.858   5.310   7.036  0.0824 -0.6124  0.0741
   7623SM   O11 9983   1.845   5.209   6.809  0.6613  0.1562  0.1672
   7623SM   O12 9984   1.918   5.065   6.992  0.0567  0.2199  0.5996
   7623SM   C1S 9985   1.849   5.088   6.729 -0.1069 -0.3725 -0.3731
   7623SM   H1S 9986   1.750   5.039   6.744 -1.3334  2.3932  1.2920
   7623SM   H1T 9987   1.936   5.030   6.767 -1.8281 -2.4985  0.5401
   7623SM    NF 9988   1.821   5.030   6.485  0.3481  0.0388  0.7565
   7623SM   HNF 9989   1.896   4.982   6.441  1.6031  0.8045  1.9629
   7623SM   C2S 9990   1.860   5.138   6.579 -0.5533  0.2192  0.3793
   7623SM   H2S 9991   1.786   5.220   6.566  1.5222  2.0470 -0.8588
   7623SM   C3S 9992   1.995   5.211   6.540 -0.1973  0.9450  0.1104
   7623SM   H3S 9993   2.066   5.127   6.523  1.7179  2.8132 -1.7487
   7623SM    O3 9994   2.052   5.277   6.650  0.3746 -0.3358 -1.0958
   7623SM   HO3 9995   1.993   5.249   6.720  0.2011  0.8570 -0.7355
   7623SM   C4S 9996   2.005   5.307   6.425 -0.5519 -0.6799  0.5669
   7623SM   H4S 9997   2.063   5.270   6.339 -2.5235 -0.1499 -1.0823
   7623SM   C5S 9998   1.940   5.422   6.412 -0.4892 -0.7033  0.4325
   7623SM   H5S 9999   1.865   5.455   6.486  1.7018  0.3705  2.2812
   7623SM   C6S10000   1.959   5.519   6.295  0.7934 -0.1830  0.3139
   7623SM   H6S10001   2.053   5.575   6.316 -1.2366  3.9331 -0.6013
   7623SM   H6T10002   1.876   5.592   6.294 -0.1436 -1.2237  0.5343
   7623SM   C7S10003   1.954   5.451   6.160 -0.4262  0.1866  0.2647
   7623SM   H7S10004   1.862   5.389   6.150 -0.5832  0.4502  0.0642
   7623SM   H7T10005   2.044   5.388   6.143 -0.2272  0.2028  1.2032
   7623SM   C8S10006   1.955   5.558   6.052 -0.6329  0.0008 -0.1693
   7623SM   H8S10007   2.018   5.642   6.087  0.7371  1.3494 -5.1388
   7623SM   H8T10008   1.855   5.603   6.033 -1.0075 -0.6672  0.1586
   7623SM   C9S10009   2.011   5.522   5.915  0.0229 -0.0022  0.3601
   7623SM   H9S10010   1.949   5.438   5.876  0.7794 -0.5126  0.2336
   7623SM   H9T10011   2.116   5.486   5.910  0.0183  0.0996 -0.6466
   7623SM  C10S10012   1.997   5.632   5.802 -0.5247  0.6803 -0.1184
   7623SM  H10S10013   2.048   5.724   5.838  0.7178 -1.0151  2.8542
   7623SM  H10T10014   1.888   5.652   5.801 -0.7980 -0.7031 -0.3000
   7623SM  C11S10015   2.041   5.588   5.663  0.2632  0.7095 -0.4322
   7623SM  H11S10016   2.034   5.477   5.657  1.2201  0.6530 -0.5381
   7623SM  H11T10017   2.142   5.631   5.647 -0.2589  2.3260  0.4080
   7623SM  C12S10018   1.962   5.645   5.552  0.1147  0.0068 -0.0435
   7623SM  H12S10019   1.961   5.755   5.565  0.5398  0.0206 -0.1224
   7623SM  H12T10020   1.854   5.618   5.562  0.4565 -1.4073  0.1264
   7623SM  C13S10021   2.016   5.598   5.416  0.6056  0.4777  0.7417
   7623SM  H13S10022   1.998   5.492   5.387  2.9194  0.3519 -0.5249
   7623SM  H13T10023   2.127   5.601   5.421  0.5850  0.7777  1.0405
   7623SM  C14S10024   1.955   5.679   5.300 -0.3003 -0.8720 -0.9347
   7623SM  H14S10025   1.992   5.783   5.311 -1.3798 -0.6348  0.9255
   7623SM  H14T10026   1.845   5.696   5.298 -0.0465  1.9864  1.3255
   7623SM  C15S10027   1.994   5.625   5.155  0.3180  0.5087 -0.5946
   7623SM  H15S10028   1.968   5.518   5.143 -0.8571  0.7577 -0.4317
   7623SM  H15T10029   2.105   5.627   5.155  0.3235  1.7353  0.3910
   7623SM  C16S10030   1.924   5.696   5.037  0.1325  0.4267 -0.7478
   7623SM  H16S10031   1.919   5.804   5.062  0.2103 -0.3376  3.3407
   7623SM  H16T10032   1.819   5.660   5.043  0.7206 -1.2400  0.2502
   7623SM  C17S10033   1.990   5.665   4.901  0.4173 -0.0959 -0.0927
   7623SM  H17S10034   2.015   5.558   4.889  0.8327 -0.0731  0.5250
   7623SM  H17T10035   2.083   5.725   4.894 -0.1931  0.7742 -1.0899
   7623SM  C18S10036   1.900   5.698   4.781  0.0045  0.2276 -0.1647
   7623SM  H18S10037   1.804   5.642   4.786  0.4419 -0.6858 -1.5554
   7623SM  H18T10038   1.958   5.669   4.691  2.7155 -0.8165  1.7660
   7623SM  H18U10039   1.882   5.807   4.781 -0.0165  0.2239 -0.1257
   7623SM   C1F10040   1.700   4.980   6.476  0.4332  0.2479  0.2157
   7623SM    OF10041   1.607   5.026   6.546  0.1667 -0.0034  0.0180
   7623SM   C2F10042   1.685   4.865   6.381 -0.2958 -0.8344  0.4286
   7623SM   H2F10043   1.641   4.780   6.437 -2.5853 -0.0629 -0.0856
   7623SM   H2G10044   1.789   4.843   6.347 -0.7474 -1.2580 -0.7231
   7623SM   C3F10045   1.600   4.909   6.254  0.4490 -0.4118  0.0019
   7623SM   H3F10046   1.492   4.931   6.270  0.3311 -1.3336  0.5344
   7623SM   H3G10047   1.607   4.824   6.182  1.4317  2.4833 -3.6633
   7623SM   C4F10048   1.662   5.033   6.169  0.0584  0.7271  0.6125
   7623SM   H4F10049   1.771   5.025   6.152  0.0653  1.2583  0.3581
   7623SM   H4G10050   1.644   5.125   6.228 -1.3749 -0.5423  2.2673
   7623SM   C5F10051   1.595   5.039   6.030  0.3441 -0.3640  0.0164
   7623SM   H5F10052   1.486   5.056   6.048  0.2668 -1.7250  0.9983
   7623SM   H5G10053   1.617   4.940   5.985  0.9355  0.2501 -1.0833
   7623SM   C6F10054   1.654   5.157   5.933  0.1288  0.0879 -0.5589
   7623SM   H6F10055   1.765   5.156   5.943  0.0424 -0.5597  0.5607
   7623SM   H6G10056   1.610   5.253   5.969  0.1873 -0.5291  1.2384
   7623SM   C7F10057   1.600   5.133   5.792  0.1549  0.1580 -0.0852
   7623SM   H7F10058   1.489   5.134   5.794  0.1450 -0.3414 -0.2342
   7623SM   H7G10059   1.622   5.028   5.763 -1.9073 -0.7893  1.5553
   7623SM   C8F10060   1.658   5.235   5.698  0.6239  0.2624  0.1261
   7623SM   H8F10061   1.768   5.224   5.689  0.3932 -1.6235 -0.8774
   7623SM   H8G10062   1.629   5.337   5.733 -1.2104  0.1604 -0.9935
   7623SM   C9F10063   1.602   5.245   5.550  0.0558 -0.4719  1.0007
   7623SM   H9F10064   1.607   5.143   5.507 -1.2280 -0.8434  1.6712
   7623SM   H9G10065   1.666   5.315   5.494 -1.1586 -0.3292 -0.2474
   7623SM  C10F10066   1.461   5.309   5.529  0.5614 -0.1367 -0.7551
   7623SM  H10F10067   1.466   5.405   5.585  1.1999  0.0752 -1.1634
   7623SM  H10G10068   1.392   5.244   5.588  1.9468 -1.8277 -0.9191
   7623SM  C11F10069   1.410   5.329   5.388  0.3352  0.6038 -1.0809
   7623SM  H11F10070   1.300   5.346   5.391  0.6003  2.2404  1.8373
   7623SM  H11G10071   1.418   5.239   5.323  0.8757 -0.2915  0.1970
   7623SM  C12F10072   1.486   5.440   5.316  0.3520 -0.2353  0.3488
   7623SM  H12F10073   1.595   5.420   5.322  0.4535  0.6591  1.8372
   7623SM  H12G10074   1.472   5.533   5.376  0.2373  0.6245 -0.9613
   7623SM  C13F10075   1.440   5.465   5.168 -0.4957  0.5240 -0.7355
   7623SM  H13F10076   1.467   5.565   5.126  0.2525  0.0387 -1.4610
   7623SM  H13G10077   1.331   5.450   5.158 -0.8858 -0.6298  3.3876
   7623SM  C14F10078   1.507   5.378   5.054  0.5535 -0.3410 -0.1274
   7623SM  H14F10079   1.481   5.272   5.077 -1.1448  0.0568 -0.0924
   7623SM  H14G10080   1.617   5.393   5.048  0.6899 -1.1335  0.1866
   7623SM  C15F10081   1.447   5.414   4.920 -0.8052 -0.2649  0.4220
   7623SM  H15F10082   1.538   5.418   4.857 -1.0323 -1.8009 -0.0335
   7623SM  H15G10083   1.418   5.520   4.933  0.4510  0.1789 -0.2071
   7623SM  C16F10084   1.341   5.315   4.872  0.2854  0.1516 -0.3065
   7623SM  H16F10085   1.280   5.369   4.796 -1.1207 -0.8002  0.0934
   7623SM  H16G10086   1.261   5.295   4.946  0.1019 -0.1183 -0.5756
   7623SM  C17F10087   1.390   5.181   4.820  0.1702 -0.5757  0.2488
   7623SM  H17F10088   1.307   5.107   4.821  1.3461 -1.9488  2.3547
   7623SM  H17G10089   1.479   5.142   4.873  2.3547  1.4726 -1.6452
   7623SM  C18F10090   1.424   5.191   4.673 -0.3271  0.0093 -0.5006
   7623SM  H18F10091   1.510   5.261   4.660 -1.1324  0.6595 -2.8075
   7623SM  H18G10092   1.337   5.228   4.615 -0.5445 -0.6823 -0.6241
   7623SM  C19F10093   1.462   5.044   4.625  0.3815 -0.0963 -0.3788
   7623SM  H19F10094   1.373   4.980   4.644  0.5143  0.3260  2.0605
   7623SM  H19G10095   1.543   5.019   4.697  0.1724  2.8062  1.0082
   7623SM  C20F10096   1.501   5.025   4.480 -0.1437  0.3326  0.2733
   7623SM  H20F10097   1.586   5.095   4.466 -0.8097  1.5921  2.0869
   7623SM  H20G10098   1.417   5.049   4.411  1.0792 -1.4448 -1.9389
   7623SM  C21F10099   1.558   4.887   4.446 -0.1383  0.6268 -0.5989
   7623SM  H21F10100   1.613   4.839   4.530 -1.0854 -1.5656 -1.1776
   7623SM  H21G10101   1.625   4.891   4.357 -0.2009  0.1706 -0.6669
   7623SM  C22F10102   1.444   4.798   4.413  0.5482  0.4525 -0.0213
   7623SM  H22F10103   1.367   4.857   4.358  1.2451  2.3136  0.9315
   7623SM  H22G10104   1.398   4.759   4.506  0.2594 -0.3748 -0.4991
   7623SM  C23F10105   1.498   4.673   4.338  0.0918  0.4405  0.7721
   7623SM  H23F10106   1.531   4.698   4.235  1.1028 -0.8723  0.7554
   7623SM  H23G10107   1.419   4.598   4.315  2.1926 -2.1177  1.4377
   7623SM  H23H10108   1.580   4.618   4.388 -0.2114 -3.1935 -2.3393
   7723SM     N10109   0.157   2.140   7.568 -0.5852  0.1804 -0.4718
   7723SM   C1510110   0.199   1.996   7.600  0.3904  0.0039  0.2056
   7723SM  H15A10111   0.224   1.972   7.702  0.1663 -2.4821 -0.2763
   7723SM  H15B10112   0.277   1.963   7.534  0.3847 -2.6856  1.3998
   7723SM  H15C10113   0.120   1.923   7.589  2.9324 -2.9742  0.4450
   7723SM   C1410114   0.022   2.167   7.632  0.4576  0.0072 -0.5752
   7723SM  H14A10115   0.025   2.133   7.734  0.7491 -0.2577 -0.6685
   7723SM  H14B10116  -0.059   2.114   7.584 -0.4553 -0.0921  1.0116
   7723SM  H14C10117   0.001   2.273   7.627 -0.0288 -0.1095 -1.3668
   7723SM   C1310118   0.260   2.235   7.631  0.1353  0.5794  0.5679
   7723SM  H13A10119   0.358   2.198   7.603  0.8618  1.1185  2.2331
   7723SM  H13B10120   0.253   2.236   7.739  3.4818 -1.3101  0.9667
   7723SM  H13C10121   0.251   2.334   7.589  1.6711  0.8519  0.8061
   7723SM   C1210122   0.145   2.170   7.424 -0.3606 -0.1746  0.4336
   7723SM  H12A10123   0.098   2.267   7.416 -1.9830 -1.0781 -1.9721
   7723SM  H12B10124   0.069   2.102   7.389 -2.8728  2.8049 -0.3122
   7723SM   C1110125   0.270   2.161   7.328 -0.3347 -0.5378 -0.1252
   7723SM  H11A10126   0.246   2.171   7.220 -0.7377  0.3944  0.0392
   7723SM  H11B10127   0.296   2.054   7.343 -1.0643 -0.7821 -0.5629
   7723SM     P10128   0.521   2.206   7.362 -0.2027 -0.0339  0.1784
   7723SM   O1310129   0.614   2.321   7.356  0.2633 -0.8817 -0.2485
   7723SM   O1410130   0.537   2.114   7.482 -0.2166  0.2198  0.2793
   7723SM   O1110131   0.520   2.125   7.227 -0.2246  0.1640  0.0291
   7723SM   O1210132   0.374   2.257   7.358 -0.3225 -0.7075 -0.0678
   7723SM   C1S10133   0.514   2.187   7.096  0.2127 -0.0461  0.0045
   7723SM   H1S10134   0.589   2.268   7.100  1.2970 -1.0236 -0.1722
   7723SM   H1T10135   0.418   2.242   7.086  0.2753  0.0679  0.0370
   7723SM    NF10136   0.527   2.157   6.838  0.1549  0.0388 -0.1715
   7723SM   HNF10137   0.447   2.122   6.790  0.8904 -0.6730 -0.9116
   7723SM   C2S10138   0.543   2.092   6.973 -0.1006  0.7750 -0.2009
   7723SM   H2S10139   0.653   2.074   6.977 -0.2512 -0.8014 -1.7682
   7723SM   C3S10140   0.465   1.957   6.984 -0.1981 -0.0246 -0.6901
   7723SM   H3S10141   0.355   1.971   6.977 -0.2866  1.7173  2.2928
   7723SM    O310142   0.476   1.888   7.112 -0.1177  0.1955 -0.1738
   7723SM   HO310143   0.522   1.950   7.168 -1.6888  0.9680  0.3209
   7723SM   C4S10144   0.504   1.864   6.870 -0.3301 -0.4320  0.9050
   7723SM   H4S10145   0.611   1.841   6.869 -0.8157 -2.9168  0.0492
   7723SM   C5S10146   0.424   1.821   6.765 -0.0944  0.3651 -0.5569
   7723SM   H5S10147   0.318   1.851   6.770  0.3609  1.9920  0.0571
   7723SM   C6S10148   0.459   1.740   6.642  0.1409  0.4821 -0.3360
   7723SM   H6S10149   0.460   1.813   6.558  0.0254  1.0028  0.1082
   7723SM   H6T10150   0.373   1.675   6.614 -1.7457  2.3140  0.8976
   7723SM   C7S10151   0.586   1.651   6.640 -0.3848  0.1163 -0.1614
   7723SM   H7S10152   0.556   1.575   6.716 -1.8474  1.1291  0.3316
   7723SM   H7T10153   0.678   1.708   6.662 -0.0041 -0.5872  0.0911
   7723SM   C8S10154   0.604   1.577   6.509 -0.6495  0.8412 -0.4152
   7723SM   H8S10155   0.508   1.532   6.478 -0.9742  0.6395  0.8333
   7723SM   H8T10156   0.670   1.492   6.536  0.5273  1.3407 -1.5739
   7723SM   C9S10157   0.671   1.659   6.398  0.9947 -0.6208 -0.3055
   7723SM   H9S10158   0.769   1.693   6.438  1.3566 -1.8712 -0.1046
   7723SM   H9T10159   0.612   1.744   6.358  2.1471  0.0446 -0.6375
   7723SM  C10S10160   0.712   1.572   6.284  0.3726 -0.2957  0.4940
   7723SM  H10S10161   0.623   1.541   6.226 -0.2261  0.4496  0.9948
   7723SM  H10T10162   0.760   1.479   6.323  1.6526 -0.4751 -1.3273
   7723SM  C11S10163   0.815   1.629   6.188 -0.1185 -0.2443  0.4329
   7723SM  H11S10164   0.893   1.683   6.247  0.4241  0.2612 -0.7137
   7723SM  H11T10165   0.768   1.714   6.134 -0.0113  0.4102  1.3370
   7723SM  C12S10166   0.870   1.525   6.087  0.1982  0.4146 -0.0899
   7723SM  H12S10167   0.786   1.500   6.019 -0.0554 -0.0563  0.3908
   7723SM  H12T10168   0.897   1.430   6.138  1.5145 -1.8253 -4.4382
   7723SM  C13S10169   0.995   1.562   6.002 -0.0398 -0.0781 -0.0408
   7723SM  H13S10170   1.084   1.585   6.064 -0.3020  0.8184  0.0142
   7723SM  H13T10171   0.970   1.660   5.955 -1.5863 -0.5930 -0.3523
   7723SM  C14S10172   1.019   1.455   5.892 -0.4776  0.5489  0.0964
   7723SM  H14S10173   0.924   1.441   5.836 -0.9014 -1.3167  1.1845
   7723SM  H14T10174   1.051   1.362   5.943 -0.2940  0.6556  0.1794
   7723SM  C15S10175   1.134   1.483   5.795  0.7368 -0.2280 -0.6665
   7723SM  H15S10176   1.229   1.464   5.849 -0.1669  0.6862  1.3533
   7723SM  H15T10177   1.137   1.587   5.755  0.6380 -0.0966 -0.3340
   7723SM  C16S10178   1.133   1.377   5.682 -0.6543  0.2427  0.6049
   7723SM  H16S10179   1.051   1.409   5.613  0.9019 -2.0810 -2.6133
   7723SM  H16T10180   1.103   1.276   5.717 -0.4969 -0.1901 -0.4635
   7723SM  C17S10181   1.264   1.374   5.598  0.9346 -0.2365 -0.0407
   7723SM  H17S10182   1.346   1.375   5.673  0.4779 -0.2707  0.4640
   7723SM  H17T10183   1.286   1.467   5.542 -3.4045 -0.1762 -2.0251
   7723SM  C18S10184   1.263   1.246   5.501  0.0760  1.0561 -0.4690
   7723SM  H18S10185   1.197   1.252   5.412 -0.5972 -0.8069 -0.1368
   7723SM  H18T10186   1.225   1.158   5.557  1.3168 -0.6712 -2.2026
   7723SM  H18U10187   1.369   1.225   5.473 -0.0676 -0.1269 -0.1871
   7723SM   C1F10188   0.593   2.264   6.794  0.4232 -0.1049  0.0165
   7723SM    OF10189   0.673   2.312   6.869 -0.7638 -0.1254 -0.5467
   7723SM   C2F10190   0.569   2.319   6.657  0.0792  0.2581 -0.0770
   7723SM   H2F10191   0.466   2.288   6.627 -0.5401  2.4189 -0.3229
   7723SM   H2G10192   0.637   2.286   6.576  0.4417 -0.7650  0.6197
   7723SM   C3F10193   0.573   2.468   6.657 -0.3174 -0.4819  0.0132
   7723SM   H3F10194   0.671   2.502   6.697 -0.2591  0.0248 -0.5414
   7723SM   H3G10195   0.504   2.516   6.729  0.0681 -0.3581  0.3024
   7723SM   C4F10196   0.551   2.538   6.522  0.2101  1.1340  0.0381
   7723SM   H4F10197   0.462   2.495   6.473 -0.1970  2.4916 -0.4680
   7723SM   H4G10198   0.634   2.502   6.457  0.3912  1.3905  0.1266
   7723SM   C5F10199   0.530   2.681   6.517 -0.0787  0.4706 -0.6567
   7723SM   H5F10200   0.615   2.738   6.560  0.3487  0.6785 -1.7362
   7723SM   H5G10201   0.450   2.703   6.591  0.5670 -0.4975  0.3617
   7723SM   C6F10202   0.508   2.741   6.376 -0.0733  0.1443 -0.2470
   7723SM   H6F10203   0.412   2.719   6.324 -0.6327  0.6735  0.5368
   7723SM   H6G10204   0.586   2.683   6.322  1.2442  0.8716  0.8104
   7723SM   C7F10205   0.543   2.894   6.370 -0.4095  0.5553 -0.2218
   7723SM   H7F10206   0.642   2.905   6.418 -0.8734 -2.4596  1.6892
   7723SM   H7G10207   0.471   2.948   6.435 -0.8731  2.4225 -2.1736
   7723SM   C8F10208   0.543   2.943   6.222 -0.4598  0.2945  0.1221
   7723SM   H8F10209   0.575   3.050   6.220 -1.2335  0.5338  0.1620
   7723SM   H8G10210   0.441   2.938   6.178 -0.6105  0.0273  0.5022
   7723SM   C9F10211   0.642   2.860   6.134 -0.1264 -0.5409 -0.1433
   7723SM   H9F10212   0.615   2.752   6.136  1.8142 -1.0931 -0.9198
   7723SM   H9G10213   0.742   2.872   6.181 -0.7857 -0.7751  1.3543
   7723SM  C10F10214   0.656   2.901   5.986  0.0659  0.0974  0.1778
   7723SM  H10F10215   0.742   2.847   5.941  0.1872  1.0363 -0.7490
   7723SM  H10G10216   0.684   3.009   5.989 -0.8180  0.3245  1.0907
   7723SM  C11F10217   0.533   2.878   5.895 -0.0173  0.4640 -0.0564
   7723SM  H11F10218   0.438   2.922   5.932 -0.3382 -0.2296 -0.0239
   7723SM  H11G10219   0.520   2.768   5.905 -1.5896  0.6643  0.3294
   7723SM  C12F10220   0.555   2.910   5.749 -0.1778  0.0779 -0.6384
   7723SM  H12F10221   0.593   3.014   5.745  0.9921 -0.2675  0.5326
   7723SM  H12G10222   0.456   2.916   5.699 -1.0694  0.5427  1.1315
   7723SM  C13F10223   0.660   2.827   5.677  0.1080  0.0266  0.1957
   7723SM  H13F10224   0.615   2.725   5.669 -3.0732  1.2498  0.9858
   7723SM  H13G10225   0.759   2.824   5.726  1.2343  0.6214 -1.9100
   7723SM  C14F10226   0.709   2.882   5.542 -0.2507 -0.1313  0.6228
   7723SM  H14F10227   0.801   2.831   5.510 -0.6205  0.4510 -1.4870
   7723SM  H14G10228   0.746   2.986   5.553 -0.2032 -0.2481  1.6596
   7723SM  C15F10229   0.606   2.878   5.422 -0.2071 -0.1019 -0.0630
   7723SM  H15F10230   0.529   2.955   5.445 -0.2334 -0.4569  1.1244
   7723SM  H15G10231   0.550   2.782   5.426 -1.8828  0.8606  1.5364
   7723SM  C16F10232   0.675   2.888   5.285 -0.4110  0.2724  1.1130
   7723SM  H16F10233   0.732   2.796   5.259 -0.6515  0.6416 -0.8988
   7723SM  H16G10234   0.735   2.981   5.271 -1.2573  0.6421 -0.1827
   7723SM  C17F10235   0.577   2.909   5.167  1.2934  0.3837 -0.2110
   7723SM  H17F10236   0.586   3.014   5.130 -1.3511  0.4645 -0.8144
   7723SM  H17G10237   0.471   2.899   5.198  1.1875 -0.1543 -0.7457
   7723SM  C18F10238   0.595   2.813   5.050 -0.2267  0.2248  0.5266
   7723SM  H18F10239   0.700   2.805   5.014 -0.0160  0.6993  1.0229
   7723SM  H18G10240   0.538   2.853   4.963  0.1552  3.6801  1.7074
   7723SM  C19F10241   0.544   2.672   5.102 -0.3180 -0.3104  0.2312
   7723SM  H19F10242   0.434   2.689   5.099  0.0651  2.6737  0.5137
   7723SM  H19G10243   0.598   2.652   5.197  0.7524 -0.2339 -0.3426
   7723SM  C20F10244   0.584   2.553   5.004  0.2500 -0.0104 -0.2155
   7723SM  H20F10245   0.695   2.551   4.995  0.1600  0.4186 -1.6559
   7723SM  H20G10246   0.541   2.573   4.904  1.5443  1.7165 -0.4723
   7723SM  C21F10247   0.529   2.415   5.060 -0.2940  0.1582  0.4152
   7723SM  H21F10248   0.421   2.424   5.084 -0.0883  0.5252  1.2248
   7723SM  H21G10249   0.587   2.389   5.151 -1.6229 -1.5197  0.8297
   7723SM  C22F10250   0.537   2.296   4.954  0.3625  0.0583  0.0191
   7723SM  H22F10251   0.466   2.218   4.990 -1.1311  1.6187  0.6005
   7723SM  H22G10252   0.643   2.262   4.953  0.4472  0.3296 -0.5084
   7723SM  C23F10253   0.489   2.328   4.812  0.7263 -0.2938  0.8165
   7723SM  H23F10254   0.464   2.236   4.755 -0.2968 -0.7072  1.8796
   7723SM  H23G10255   0.568   2.384   4.757 -0.6723 -1.8035 -3.0621
   7723SM  H23H10256   0.394   2.386   4.821  0.3646 -0.3055 -2.0304
   7823SM     N10257   1.629   6.419   7.315  0.2452  0.3213  0.1694
   7823SM   C1510258   1.531   6.391   7.209  0.6383 -0.1550 -0.0877
   7823SM  H15A10259   1.448   6.341   7.258  0.8229  0.3445  0.7386
   7823SM  H15B10260   1.566   6.332   7.125  0.4444  2.7399 -2.3617
   7823SM  H15C10261   1.496   6.483   7.165  0.5777 -0.2343 -0.2068
   7823SM   C1410262   1.554   6.510   7.409  0.1163  0.9309 -0.9242
   7823SM  H14A10263   1.529   6.605   7.365  0.0727  2.3936  1.9974
   7823SM  H14B10264   1.612   6.520   7.500 -2.1192  0.0136  0.6967
   7823SM  H14C10265   1.469   6.460   7.453  0.4157  0.0999 -1.2703
   7823SM   C1310266   1.676   6.295   7.384 -0.7579 -0.5832 -0.0208
   7823SM  H13A10267   1.749   6.324   7.458 -2.3007  2.9361  0.3594
   7823SM  H13B10268   1.720   6.233   7.308 -0.9916  0.9865 -1.5095
   7823SM  H13C10269   1.600   6.243   7.440  0.4421 -1.9814  0.3490
   7823SM   C1210270   1.746   6.495   7.251 -0.5240 -0.3849 -0.1469
   7823SM  H12A10271   1.804   6.425   7.193  0.1291 -0.5232  0.6461
   7823SM  H12B10272   1.808   6.527   7.333 -0.6082 -0.1203 -0.1839
   7823SM   C1110273   1.708   6.617   7.166  0.0519 -0.0352  0.3562
   7823SM  H11A10274   1.633   6.595   7.087  2.4178 -0.1489 -2.0049
   7823SM  H11B10275   1.793   6.645   7.100  0.7992  0.7465  1.6019
   7823SM     P10276   1.760   6.822   7.320  0.2794  0.4094  0.1269
   7823SM   O1310277   1.716   6.849   7.456 -0.0532  0.1501  0.3569
   7823SM   O1410278   1.893   6.758   7.310  0.2555 -0.2081 -0.1240
   7823SM   O1110279   1.757   6.958   7.237 -0.1912 -0.2949 -0.2358
   7823SM   O1210280   1.649   6.723   7.254  0.1855 -0.1217  0.2533
   7823SM   C1S10281   1.774   6.952   7.093 -0.1721  0.7205  0.4280
   7823SM   H1S10282   1.671   6.954   7.051 -0.2820 -0.0792  0.6575
   7823SM   H1T10283   1.818   6.862   7.046 -1.3546 -0.3358  1.2799
   7823SM    NF10284   1.832   7.089   6.882 -0.8575 -0.2481 -0.5018
   7823SM   HNF10285   1.912   7.077   6.823 -0.2287 -3.0094  0.7365
   7823SM   C2S10286   1.857   7.071   7.023 -0.6534 -0.5930 -0.3030
   7823SM   H2S10287   1.825   7.165   7.073  1.9012  0.6152 -0.7669
   7823SM   C3S10288   2.004   7.051   7.066 -0.5120  0.0073 -0.1795
   7823SM   H3S10289   2.038   6.954   7.025 -0.2516 -0.2594  0.6341
   7823SM    O310290   2.027   7.021   7.203  0.0330 -0.1677  0.1801
   7823SM   HO310291   1.945   6.974   7.219 -0.7947  0.7639 -1.1884
   7823SM   C4S10292   2.100   7.163   7.032 -0.1106 -0.7517 -0.3749
   7823SM   H4S10293   2.058   7.261   7.058  1.8259  0.1584 -0.4887
   7823SM   C5S10294   2.215   7.151   6.967 -0.3258  0.2619 -0.4270
   7823SM   H5S10295   2.236   7.047   6.940  0.0261  0.0917  0.4738
   7823SM   C6S10296   2.311   7.264   6.930  0.5063 -0.3673 -0.2349
   7823SM   H6S10297   2.380   7.273   7.016 -0.1774 -0.6165  0.3514
   7823SM   H6T10298   2.248   7.355   6.924  1.5216  0.2837 -1.4045
   7823SM   C7S10299   2.384   7.223   6.803 -1.2106  0.1659  0.2480
   7823SM   H7S10300   2.312   7.244   6.721 -1.0159  1.0462  0.2932
   7823SM   H7T10301   2.428   7.121   6.803  1.0703  0.9634 -3.2944
   7823SM   C8S10302   2.505   7.312   6.784  0.3816 -0.7700  0.2193
   7823SM   H8S10303   2.574   7.308   6.871  2.4053  0.9352 -1.1878
   7823SM   H8T10304   2.473   7.418   6.774  2.0513 -0.3005 -0.5671
   7823SM   C9S10305   2.587   7.280   6.654  0.7420  0.0938  0.2508
   7823SM   H9S10306   2.518   7.297   6.569  1.5232  2.7730  0.0616
   7823SM   H9T10307   2.625   7.175   6.656 -0.9609 -0.5581  0.2415
   7823SM  C10S10308   2.716   7.361   6.626  0.0996 -0.7717 -0.6581
   7823SM  H10S10309   2.797   7.329   6.695  0.8956  0.7877 -0.8242
   7823SM  H10T10310   2.703   7.469   6.647  0.2310 -1.1593  1.6717
   7823SM  C11S10311   2.774   7.331   6.484 -0.0800 -0.2603 -0.2433
   7823SM  H11S10312   2.781   7.220   6.490  2.3364 -0.1041  1.7513
   7823SM  H11T10313   2.877   7.372   6.472 -0.9802  2.5031  0.7993
   7823SM  C12S10314   2.672   7.361   6.361 -0.0400 -0.3824  0.1889
   7823SM  H12S10315   2.668   7.472   6.354 -0.2174 -0.3686  0.4837
   7823SM  H12T10316   2.569   7.322   6.376 -0.1706  0.2478  1.0564
   7823SM  C13S10317   2.730   7.312   6.230  0.5348  0.4372  0.1403
   7823SM  H13S10318   2.723   7.204   6.203  2.9983  0.1153  0.5449
   7823SM  H13T10319   2.838   7.337   6.219  0.8924 -1.6139 -1.9729
   7823SM  C14S10320   2.670   7.387   6.108 -0.0159  0.4599 -0.0973
   7823SM  H14S10321   2.696   7.494   6.116  0.7964  0.4030 -1.6222
   7823SM  H14T10322   2.560   7.390   6.120 -0.2137  0.9852 -1.8270
   7823SM  C15S10323   2.715   7.333   5.974  0.2917  0.3142  0.0581
   7823SM  H15S10324   2.670   7.395   5.894  0.2839  1.1122  0.6650
   7823SM  H15T10325   2.698   7.223   5.966  1.4784 -0.0321  1.7238
   7823SM  C16S10326   2.863   7.351   5.935 -0.7768 -0.4071 -0.2719
   7823SM  H16S10327   2.926   7.323   6.021  0.0882 -1.2488 -1.1594
   7823SM  H16T10328   2.861   7.462   5.922 -1.3187 -0.2043  1.2943
   7823SM  C17S10329   2.913   7.272   5.811  0.1010 -0.3426 -0.0309
   7823SM  H17S10330   2.853   7.301   5.722  1.8050  0.5691 -0.9217
   7823SM  H17T10331   2.886   7.166   5.831 -3.5509  0.8683  2.7760
   7823SM  C18S10332   3.057   7.297   5.780  0.5612 -0.2382  0.3695
   7823SM  H18S10333   3.082   7.404   5.767  2.7323 -0.4660  2.1885
   7823SM  H18T10334   3.089   7.244   5.688  0.4658  0.7082 -0.2194
   7823SM  H18U10335   3.129   7.257   5.855  1.6896 -0.0882 -0.6104
   7823SM   C1F10336   1.716   7.127   6.839 -0.3302  0.0843 -0.3441
   7823SM    OF10337   1.621   7.143   6.911 -0.1936 -0.0729  0.4559
   7823SM   C2F10338   1.699   7.145   6.687 -0.1019 -0.1703 -0.6624
   7823SM   H2F10339   1.778   7.079   6.645  0.1094 -0.4011  0.0944
   7823SM   H2G10340   1.746   7.244   6.664  0.0337 -0.2899 -0.9023
   7823SM   C3F10341   1.558   7.127   6.622 -0.1345  0.4116 -0.4380
   7823SM   H3F10342   1.505   7.223   6.642 -0.1828  0.1686  0.7031
   7823SM   H3G10343   1.499   7.048   6.673 -1.7521  1.7025 -0.2005
   7823SM   C4F10344   1.558   7.127   6.471 -0.1004 -0.3171 -0.3816
   7823SM   H4F10345   1.469   7.064   6.450  0.1188 -1.5420  2.1244
   7823SM   H4G10346   1.659   7.091   6.440  0.1982  0.4493 -0.3222
   7823SM   C5F10347   1.548   7.267   6.395  0.3675 -0.4814 -1.0954
   7823SM   H5F10348   1.646   7.319   6.396  0.7740 -1.2197 -1.5088
   7823SM   H5G10349   1.473   7.331   6.446 -0.9738 -1.0451 -2.2824
   7823SM   C6F10350   1.503   7.253   6.248 -0.5763  0.4752 -0.3703
   7823SM   H6F10351   1.510   7.353   6.201  2.3165 -0.3386 -1.9000
   7823SM   H6G10352   1.400   7.213   6.237 -0.6849 -0.0437  1.9344
   7823SM   C7F10353   1.591   7.163   6.156 -0.1272 -0.1474  0.1264
   7823SM   H7F10354   1.584   7.057   6.190 -3.6901 -0.5794 -1.5147
   7823SM   H7G10355   1.696   7.197   6.168  0.1311 -0.7777 -0.3039
   7823SM   C8F10356   1.542   7.167   6.005 -0.6693  0.3660  0.0546
   7823SM   H8F10357   1.558   7.267   5.959 -0.2931  0.7602  1.0146
   7823SM   H8G10358   1.432   7.154   6.005 -0.8807  1.7198 -2.1950
   7823SM   C9F10359   1.598   7.056   5.912 -0.2317  0.6721 -0.4295
   7823SM   H9F10360   1.570   6.953   5.943  0.3992  0.2853 -1.1102
   7823SM   H9G10361   1.709   7.054   5.917 -0.1375  2.1677 -1.5177
   7823SM  C10F10362   1.550   7.080   5.766  0.0376  0.9636  0.2371
   7823SM  H10F10363   1.603   7.169   5.726 -0.4780  1.8511  1.4548
   7823SM  H10G10364   1.443   7.112   5.768 -0.0008  0.8335  2.6434
   7823SM  C11F10365   1.592   6.964   5.672  0.3409  0.9228  0.8803
   7823SM  H11F10366   1.537   6.876   5.713  0.9044  1.4516  2.8927
   7823SM  H11G10367   1.702   6.950   5.665  0.9312  5.0860 -3.2471
   7823SM  C12F10368   1.543   6.994   5.526 -0.7980 -0.3648  0.0066
   7823SM  H12F10369   1.594   7.078   5.474 -1.0500  0.0070  0.3535
   7823SM  H12G10370   1.438   7.024   5.545 -0.8476 -1.1804  1.1366
   7823SM  C13F10371   1.550   6.870   5.436  0.0725  0.6168  0.2643
   7823SM  H13F10372   1.468   6.800   5.464  0.3188 -0.0152 -0.5612
   7823SM  H13G10373   1.647   6.819   5.454  0.3544  0.9002 -0.4288
   7823SM  C14F10374   1.533   6.894   5.291 -0.8576  0.4948 -0.1281
   7823SM  H14F10375   1.534   6.800   5.232 -2.0829  0.4084 -0.0308
   7823SM  H14G10376   1.605   6.965   5.245 -0.4900  0.3228  0.1738
   7823SM  C15F10377   1.395   6.940   5.239  0.2570 -0.0038  0.1477
   7823SM  H15F10378   1.375   7.030   5.301 -0.3929  0.0808 -0.1804
   7823SM  H15G10379   1.320   6.859   5.252  0.0076 -0.1360 -1.7349
   7823SM  C16F10380   1.388   6.977   5.096  0.4617  0.6038  0.0930
   7823SM  H16F10381   1.413   6.885   5.041 -0.7058 -0.2680  0.9481
   7823SM  H16G10382   1.469   7.050   5.075  0.3067  0.7914  0.1424
   7823SM  C17F10383   1.253   7.035   5.060 -0.0572  0.2967 -0.1729
   7823SM  H17F10384   1.216   7.112   5.131 -3.1546 -0.4679 -0.7853
   7823SM  H17G10385   1.183   6.950   5.046 -0.3557  0.2670  1.3237
   7823SM  C18F10386   1.266   7.120   4.933 -0.3516  0.6411  0.3649
   7823SM  H18F10387   1.310   7.049   4.859  0.7576  1.7389 -0.0606
   7823SM  H18G10388   1.341   7.202   4.944  0.3310  0.2667 -1.2050
   7823SM  C19F10389   1.128   7.192   4.888 -0.4997  0.1154  0.4562
   7823SM  H19F10390   1.057   7.107   4.876 -1.3703  0.6956  1.3532
   7823SM  H19G10391   1.163   7.233   4.791  0.5852 -1.6517  0.0434
   7823SM  C20F10392   1.084   7.299   4.987 -0.1023 -0.3890 -0.2929
   7823SM  H20F10393   1.167   7.369   5.014 -1.4625  0.4838  1.8461
   7823SM  H20G10394   1.061   7.256   5.086 -1.0316 -2.2573 -1.2684
   7823SM  C21F10395   0.956   7.380   4.945 -0.4241  0.1575 -0.1423
   7823SM  H21F10396   0.943   7.453   5.027  1.6398  1.0123 -0.5311
   7823SM  H21G10397   0.879   7.301   4.959 -1.1465  1.2248  2.5462
   7823SM  C22F10398   0.960   7.445   4.803 -0.1906  0.2177  0.4527
   7823SM  H22F10399   0.980   7.366   4.727 -3.5116  0.2710 -0.6246
   7823SM  H22G10400   1.042   7.519   4.788  0.1479 -0.4882 -1.4585
   7823SM  C23F10401   0.829   7.525   4.760  0.1304  0.0192  0.5674
   7823SM  H23F10402   0.736   7.485   4.805  0.2173  0.2424  0.9512
   7823SM  H23G10403   0.807   7.541   4.652 -1.1580 -0.9187  0.6622
   7823SM  H23H10404   0.833   7.626   4.806  0.6863  0.2448  0.0366
   7923SM     N10405   1.766   7.116   7.783  0.4988 -0.7995  0.1449
   7923SM   C1510406   1.813   6.990   7.719 -0.0095  0.2724 -0.2854
   7923SM  H15A10407   1.913   7.000   7.680  0.3058  0.7444  0.6020
   7923SM  H15B10408   1.744   6.952   7.646 -1.6127 -1.0414  1.8060
   7923SM  H15C10409   1.823   6.911   7.792 -1.9838  2.2575  2.3485
   7923SM   C1410410   1.629   7.091   7.831 -0.0605  0.7964  0.1543
   7923SM  H14A10411   1.554   7.069   7.757 -1.7386  0.1571  1.9461
   7923SM  H14B10412   1.586   7.177   7.881 -1.2285 -0.0087  0.5772
   7923SM  H14C10413   1.627   7.016   7.910  0.8477 -1.4574 -1.8408
   7923SM   C1310414   1.856   7.151   7.900  0.0234  0.4738  0.5432
   7923SM  H13A10415   1.835   7.091   7.987  3.3744  0.2270  1.3200
   7923SM  H13B10416   1.835   7.248   7.942  0.7799 -0.0234  2.1646
   7923SM  H13C10417   1.964   7.151   7.891  0.1697  0.7852  2.0557
   7923SM   C1210418   1.764   7.224   7.672  0.1915  0.0118 -0.2912
   7923SM  H12A10419   1.867   7.230   7.641  1.1126 -0.9335  2.3066
   7923SM  H12B10420   1.736   7.321   7.710 -1.2786 -0.2939 -0.5563
   7923SM   C1110421   1.677   7.184   7.547 -0.2416  0.1296 -0.4836
   7923SM  H11A10422   1.725   7.095   7.499  1.2695  1.8275 -2.3113
   7923SM  H11B10423   1.690   7.251   7.459 -0.9190  0.4795 -0.3245
   7923SM     P10424   1.427   7.266   7.547 -0.1304 -0.5962  0.1655
   7923SM   O1310425   1.293   7.220   7.589 -0.4731 -0.4660  0.2017
   7923SM   O1410426   1.469   7.385   7.619  0.2301  0.0708  0.2254
   7923SM   O1110427   1.430   7.284   7.394 -0.5082 -0.0171 -0.7623
   7923SM   O1210428   1.539   7.154   7.570  0.1021 -0.1887 -0.4670
   7923SM   C1S10429   1.452   7.175   7.307 -0.1217  0.1190 -0.5578
   7923SM   H1S10430   1.431   7.075   7.351 -1.2522  0.8795  0.6799
   7923SM   H1T10431   1.561   7.170   7.284  0.1159  1.1678  0.2589
   7923SM    NF10432   1.405   7.075   7.096 -0.2097  0.5832  0.0643
   7923SM   HNF10433   1.464   7.077   7.016 -0.8825  0.6164 -0.4347
   7923SM   C2S10434   1.380   7.197   7.167 -0.0854 -0.1027 -0.1366
   7923SM   H2S10435   1.269   7.203   7.175 -0.3016  2.0552 -3.0254
   7923SM   C3S10436   1.432   7.324   7.102 -0.2331  0.0080  0.2432
   7923SM   H3S10437   1.534   7.294   7.070 -0.5942  1.0833 -2.1826
   7923SM    O310438   1.441   7.446   7.184 -0.0546 -0.0765  0.8674
   7923SM   HO310439   1.422   7.414   7.273  1.8965  1.6316  2.0112
   7923SM   C4S10440   1.367   7.343   6.964 -0.2136  0.4646 -0.0310
   7923SM   H4S10441   1.400   7.271   6.887  0.8839  1.6233 -0.6658
   7923SM   C5S10442   1.287   7.443   6.928  0.1873  0.0669 -0.2225
   7923SM   H5S10443   1.271   7.520   7.004 -1.1041 -1.3050  0.9522
   7923SM   C6S10444   1.256   7.471   6.782 -0.1442 -0.6872 -0.6534
   7923SM   H6S10445   1.173   7.403   6.752  0.3098 -2.1810  1.3049
   7923SM   H6T10446   1.350   7.444   6.729  1.5630  0.7843  1.4706
   7923SM   C7S10447   1.223   7.623   6.763  0.6931 -0.4006  0.5341
   7923SM   H7S10448   1.305   7.690   6.798 -1.3248  1.8597  1.1631
   7923SM   H7T10449   1.127   7.635   6.816 -0.4365 -2.2709 -0.9497
   7923SM   C8S10450   1.189   7.672   6.617 -0.2785  0.6384  0.0942
   7923SM   H8S10451   1.204   7.782   6.622  1.5230  0.3718  1.4952
   7923SM   H8T10452   1.079   7.661   6.608 -0.1981  1.7729 -4.2084
   7923SM   C9S10453   1.263   7.610   6.506 -0.4010  0.2995 -0.2563
   7923SM   H9S10454   1.245   7.500   6.503 -2.7071  0.6426 -0.5971
   7923SM   H9T10455   1.370   7.628   6.530 -0.3677 -0.1758 -0.0378
   7923SM  C10S10456   1.228   7.667   6.368  0.3036 -0.1427  0.4568
   7923SM  H10S10457   1.207   7.776   6.372 -0.7548 -0.2430 -1.2134
   7923SM  H10T10458   1.132   7.621   6.336 -0.4342  1.6555 -0.0923
   7923SM  C11S10459   1.320   7.638   6.245 -0.0735  0.1346  0.8346
   7923SM  H11S10460   1.343   7.529   6.249 -0.4710 -0.0047 -0.3059
   7923SM  H11T10461   1.422   7.676   6.268  1.8354 -2.1067 -2.8808
   7923SM  C12S10462   1.271   7.697   6.111 -0.5499  0.0459  0.2764
   7923SM  H12S10463   1.239   7.800   6.136  0.2769  0.9657 -2.2020
   7923SM  H12T10464   1.180   7.646   6.072 -0.0106 -2.6182  2.1751
   7923SM  C13S10465   1.379   7.696   5.996  0.1592 -0.0115 -0.4214
   7923SM  H13S10466   1.409   7.590   5.983  0.3377  0.1143 -1.0843
   7923SM  H13T10467   1.470   7.742   6.038 -1.0473  1.6239  0.5086
   7923SM  C14S10468   1.324   7.759   5.864 -0.3033  0.2233 -0.7648
   7923SM  H14S10469   1.305   7.867   5.882 -3.8656  0.0211 -2.4502
   7923SM  H14T10470   1.229   7.713   5.830 -1.7684  1.0301  1.8891
   7923SM  C15S10471   1.439   7.765   5.762  0.0775  0.6746  0.2235
   7923SM  H15S10472   1.496   7.675   5.730  1.9571  1.2558  1.7672
   7923SM  H15T10473   1.519   7.821   5.815  1.5471 -1.5269  0.4455
   7923SM  C16S10474   1.402   7.844   5.637 -0.6659  0.4025 -0.3136
   7923SM  H16S10475   1.340   7.935   5.651 -0.9499  0.0593  0.6994
   7923SM  H16T10476   1.351   7.778   5.564 -1.4367  0.7989 -0.1435
   7923SM  C17S10477   1.526   7.891   5.564  0.1114  0.4586  0.3826
   7923SM  H17S10478   1.588   7.800   5.547  0.9009  1.0556  0.0343
   7923SM  H17T10479   1.577   7.956   5.637 -0.3820  1.5848 -0.2436
   7923SM  C18S10480   1.492   7.962   5.431 -0.0240 -0.1066 -0.3328
   7923SM  H18S10481   1.470   8.067   5.463  3.1671  0.9218 -1.1684
   7923SM  H18T10482   1.402   7.920   5.381  1.0646 -1.3206 -1.3091
   7923SM  H18U10483   1.577   7.971   5.361  1.3910 -0.9564  1.2257
   7923SM   C1F10484   1.347   6.960   7.125 -0.6593  0.2738 -0.1170
   7923SM    OF10485   1.257   6.950   7.216 -0.0852 -0.0954 -0.9965
   7923SM   C2F10486   1.388   6.846   7.037  0.4859  0.4769  0.1397
   7923SM   H2F10487   1.466   6.778   7.078 -2.4092 -1.4122  3.0867
   7923SM   H2G10488   1.424   6.889   6.942 -0.5069  1.3453  0.1354
   7923SM   C3F10489   1.265   6.755   6.994 -0.6046  0.1188 -0.3917
   7923SM   H3F10490   1.222   6.697   7.079  0.4005  1.9832  1.4546
   7923SM   H3G10491   1.307   6.673   6.931 -1.5895 -1.1453  0.5232
   7923SM   C4F10492   1.154   6.824   6.905  1.0873 -0.3033  0.2537
   7923SM   H4F10493   1.097   6.902   6.959  0.5152  0.5483 -1.5108
   7923SM   H4G10494   1.079   6.746   6.879 -1.7274  2.7436 -1.4779
   7923SM   C5F10495   1.208   6.886   6.773  0.8906 -0.0599  0.1129
   7923SM   H5F10496   1.244   6.800   6.712  0.1310  0.3341 -0.9351
   7923SM   H5G10497   1.293   6.953   6.796 -1.4812  1.6942  5.5376
   7923SM   C6F10498   1.107   6.964   6.700 -0.0780 -0.1355  0.5169
   7923SM   H6F10499   1.089   7.060   6.751 -0.1886  0.7289 -1.0659
   7923SM   H6G10500   1.013   6.907   6.686 -0.0034 -0.0971 -0.2026
   7923SM   C7F10501   1.157   7.002   6.563  0.5552 -0.6620  0.1846
   7923SM   H7F10502   1.144   6.908   6.505  1.2304 -0.7851  0.2179
   7923SM   H7G10503   1.266   7.023   6.565  0.3916  0.2401  0.0267
   7923SM   C8F10504   1.082   7.120   6.491 -0.3748  0.0115 -0.6005
   7923SM   H8F10505   1.112   7.217   6.537  0.2849 -0.5613  0.2128
   7923SM   H8G10506   0.972   7.122   6.505 -0.4607 -2.9568 -0.3608
   7923SM   C9F10507   1.112   7.125   6.342  0.0232  0.4539  0.1457
   7923SM   H9F10508   1.068   7.031   6.302 -1.8768  0.2321  2.4934
   7923SM   H9G10509   1.220   7.129   6.320  0.3414  0.4601  1.6350
   7923SM  C10F10510   1.045   7.251   6.280  0.0496 -0.0246 -1.0910
   7923SM  H10F10511   1.070   7.330   6.353  2.1341 -1.8486  0.2858
   7923SM  H10G10512   0.936   7.228   6.276 -0.6076  2.3689  0.5030
   7923SM  C11F10513   1.096   7.283   6.140 -0.1385 -0.1814 -0.2373
   7923SM  H11F10514   1.204   7.304   6.150  0.6853 -4.0885  0.7978
   7923SM  H11G10515   1.033   7.369   6.109 -2.0484 -1.3386  0.2013
   7923SM  C12F10516   1.064   7.170   6.039 -0.1942 -0.3364  0.2642
   7923SM  H12F10517   0.967   7.123   6.066  0.7139 -1.2388  2.1727
   7923SM  H12G10518   1.140   7.089   6.041  0.0532 -0.0984  1.7537
   7923SM  C13F10519   1.074   7.232   5.897  0.5074 -0.3043 -0.0737
   7923SM  H13F10520   0.999   7.314   5.886  0.4686  0.0925  2.5043
   7923SM  H13G10521   1.044   7.158   5.820 -1.4191  0.5910 -0.2604
   7923SM  C14F10522   1.208   7.290   5.852 -0.5290 -0.2088 -0.4184
   7923SM  H14F10523   1.265   7.194   5.842  1.5106  0.9315 -0.2847
   7923SM  H14G10524   1.256   7.353   5.929  1.2422  0.6291 -2.1045
   7923SM  C15F10525   1.213   7.355   5.715  0.4193 -0.2711 -0.3149
   7923SM  H15F10526   1.129   7.428   5.722  0.2966 -0.2539 -1.6824
   7923SM  H15G10527   1.184   7.288   5.631 -0.2560  1.7305 -1.7720
   7923SM  C16F10528   1.345   7.421   5.672  0.2162  0.1062 -0.8580
   7923SM  H16F10529   1.410   7.333   5.653 -2.5653 -1.7250 -2.7353
   7923SM  H16G10530   1.372   7.486   5.758 -4.0162  0.3013  0.5851
   7923SM  C17F10531   1.327   7.494   5.539  1.3713  0.2833 -0.4338
   7923SM  H17F10532   1.413   7.564   5.537  0.6848  1.7321  4.8484
   7923SM  H17G10533   1.231   7.549   5.556  0.2260 -1.3783 -1.2379
   7923SM  C18F10534   1.323   7.412   5.414 -0.2449 -0.3285 -0.9194
   7923SM  H18F10535   1.245   7.334   5.430  1.1613 -1.6494 -0.2053
   7923SM  H18G10536   1.422   7.361   5.415  0.9651  1.7915  1.9331
   7923SM  C19F10537   1.296   7.476   5.281 -0.9266 -0.2499  0.0319
   7923SM  H19F10538   1.288   7.397   5.203 -0.6040  0.8262 -1.1086
   7923SM  H19G10539   1.391   7.524   5.252  0.4060 -2.8163 -0.1979
   7923SM  C20F10540   1.171   7.562   5.282 -0.3551 -0.3460 -0.1907
   7923SM  H20F10541   1.193   7.641   5.357  0.1087  0.1320 -0.8132
   7923SM  H20G10542   1.073   7.518   5.309 -1.2619  1.3502 -0.5519
   7923SM  C21F10543   1.144   7.644   5.160 -0.2409 -0.5974  0.4834
   7923SM  H21F10544   1.093   7.577   5.087  0.3847 -0.9496  0.3643
   7923SM  H21G10545   1.236   7.684   5.114 -0.0092 -1.5935  0.0500
   7923SM  C22F10546   1.039   7.763   5.171 -0.4434 -0.2048  0.0873
   7923SM  H22F10547   1.092   7.849   5.219  0.7617 -0.5728 -0.5259
   7923SM  H22G10548   0.952   7.730   5.230 -0.6673 -0.7838 -0.5583
   7923SM  C23F10549   0.987   7.811   5.034 -0.3237 -0.0260  0.2216
   7923SM  H23F10550   0.917   7.895   5.053 -0.8025 -0.1985 -0.7218
   7923SM  H23G10551   0.932   7.728   4.984  1.1539 -1.1127  0.3331
   7923SM  H23H10552   1.062   7.847   4.961 -0.8430 -1.4901 -1.1002
   8023SM     N10553   2.266   0.118   7.420  0.9304 -0.5357 -0.4349
   8023SM   C1510554   2.282  -0.031   7.423 -0.1416 -0.0657  0.2202
   8023SM  H15A10555   2.385  -0.054   7.399 -0.7988  0.0258 -3.2620
   8023SM  H15B10556   2.217  -0.085   7.356  0.8002  1.2856 -1.8898
   8023SM  H15C10557   2.277  -0.066   7.525 -0.4343 -0.7286 -0.0168
   8023SM   C1410558   2.338   0.171   7.539 -0.9139 -0.5751 -0.1854
   8023SM  H14A10559   2.316   0.276   7.553 -0.5223 -0.2640 -1.6543
   8023SM  H14B10560   2.446   0.169   7.532 -0.8686  0.3283  0.1837
   8023SM  H14C10561   2.303   0.124   7.630  2.0026 -1.4464  0.5944
   8023SM   C1310562   2.323   0.167   7.286 -0.5276 -0.2321  0.4152
   8023SM  H13A10563   2.430   0.178   7.291 -0.5166  1.5039 -1.7781
   8023SM  H13B10564   2.293   0.269   7.266  2.0608  0.4235 -0.5820
   8023SM  H13C10565   2.296   0.095   7.210 -1.9993  1.3396 -0.6390
   8023SM   C1210566   2.117   0.144   7.422 -0.2674  0.0960  0.2482
   8023SM  H12A10567   2.083   0.071   7.349  1.3356  0.6902 -1.1586
   8023SM  H12B10568   2.100   0.245   7.387 -2.1402 -0.4883 -0.6932
   8023SM   C1110569   2.034   0.132   7.547 -0.5986  1.0322  0.6624
   8023SM  H11A10570   1.930   0.158   7.520 -0.9164  2.5058  3.1060
   8023SM  H11B10571   2.066   0.206   7.623 -2.1151  1.8530  0.5310
   8023SM     P10572   1.924  -0.107   7.586  0.1414  0.3353 -0.2272
   8023SM   O1310573   1.976  -0.236   7.635 -0.1901  0.4022  0.4574
   8023SM   O1410574   1.812  -0.049   7.649  0.0913  0.1151 -0.0782
   8023SM   O1110575   1.899  -0.111   7.430 -0.4255  0.1340  0.5911
   8023SM   O1210576   2.037  -0.004   7.595  0.3299 -0.2245  0.3022
   8023SM   C1S10577   1.775  -0.058   7.376 -0.1657  0.2182 -0.4406
   8023SM   H1S10578   1.757   0.048   7.403 -2.2291 -0.1235 -0.2650
   8023SM   H1T10579   1.683  -0.108   7.415 -0.5654  0.8704 -0.5184
   8023SM    NF10580   1.638  -0.028   7.167  0.3973  1.0625  0.1488
   8023SM   HNF10581   1.562  -0.091   7.152 -0.7494  2.6328 -0.8720
   8023SM   C2S10582   1.767  -0.070   7.223 -0.1806 -0.1788  0.2108
   8023SM   H2S10583   1.846  -0.008   7.176  2.9134 -2.5005  1.9373
   8023SM   C3S10584   1.802  -0.214   7.179  0.4337  0.0815 -0.3498
   8023SM   H3S10585   1.733  -0.288   7.226 -0.7588  1.3040 -0.1392
   8023SM    O310586   1.935  -0.258   7.216  0.2032 -0.3549 -0.1043
   8023SM   HO310587   1.951  -0.193   7.285  0.5126  0.3989 -0.8634
   8023SM   C4S10588   1.787  -0.227   7.027 -0.1034 -0.1186  0.1303
   8023SM   H4S10589   1.705  -0.288   6.985 -0.8856  1.7337 -1.1767
   8023SM   C5S10590   1.882  -0.182   6.939 -0.7187 -0.2344 -0.2377
   8023SM   H5S10591   1.978  -0.140   6.972  0.1098  0.4711 -3.2713
   8023SM   C6S10592   1.874  -0.202   6.791 -0.3033 -0.3488 -0.6260
   8023SM   H6S10593   1.874  -0.102   6.742 -0.8588 -0.7109 -1.3950
   8023SM   H6T10594   1.785  -0.260   6.757 -0.4514 -1.4563  1.5000
   8023SM   C7S10595   1.996  -0.277   6.731  0.6326  0.3012 -0.1932
   8023SM   H7S10596   2.004  -0.378   6.777  2.6284 -0.7120 -2.5189
   8023SM   H7T10597   2.092  -0.228   6.760  0.4990 -0.4932  1.7623
   8023SM   C8S10598   2.001  -0.291   6.575  1.1935  0.2143  0.9243
   8023SM   H8S10599   1.996  -0.188   6.532  2.3832 -0.5272 -1.1590
   8023SM   H8T10600   1.916  -0.356   6.544  0.6679  0.9456  0.7898
   8023SM   C9S10601   2.140  -0.337   6.518 -0.7887  0.5657  0.2461
   8023SM   H9S10602   2.159  -0.441   6.551 -2.0805  0.2453  0.0562
   8023SM   H9T10603   2.221  -0.268   6.550  0.4333 -0.7607  0.1021
   8023SM  C10S10604   2.132  -0.342   6.369  0.2984  0.6630 -0.3514
   8023SM  H10S10605   2.121  -0.238   6.331 -0.6642 -0.1455 -2.4416
   8023SM  H10T10606   2.036  -0.393   6.345  0.2316  0.5523  0.1325
   8023SM  C11S10607   2.251  -0.406   6.292 -0.7380 -0.3096 -0.4801
   8023SM  H11S10608   2.246  -0.515   6.316 -2.2019 -0.7236 -2.4265
   8023SM  H11T10609   2.341  -0.361   6.338 -0.9270 -0.8144  0.4302
   8023SM  C12S10610   2.244  -0.384   6.140 -0.0359  0.0374 -0.6056
   8023SM  H12S10611   2.341  -0.425   6.105 -0.2718 -2.4911  1.3936
   8023SM  H12T10612   2.205  -0.281   6.122 -0.4405 -0.0092 -0.0212
   8023SM  C13S10613   2.149  -0.478   6.062  0.1155 -0.2853  0.5352
   8023SM  H13S10614   2.042  -0.466   6.091  0.2436  0.7346  0.6354
   8023SM  H13T10615   2.167  -0.585   6.086 -1.3255 -0.6875 -0.0384
   8023SM  C14S10616   2.168  -0.439   5.917  0.1900  0.6203 -0.2621
   8023SM  H14S10617   2.273  -0.404   5.906  1.3992 -2.0600  1.6906
   8023SM  H14T10618   2.116  -0.348   5.880 -0.5507  0.2061 -0.2579
   8023SM  C15S10619   2.145  -0.556   5.813  0.1012 -0.0211 -0.4744
   8023SM  H15S10620   2.037  -0.581   5.819 -0.2583  1.7103  1.8030
   8023SM  H15T10621   2.206  -0.637   5.859 -2.1609 -1.4065  0.2060
   8023SM  C16S10622   2.189  -0.520   5.673  0.7557  0.6880 -0.3344
   8023SM  H16S10623   2.301  -0.519   5.675  0.8046  0.6123 -1.9610
   8023SM  H16T10624   2.138  -0.425   5.648  1.0261  0.7747 -0.5701
   8023SM  C17S10625   2.153  -0.614   5.565  0.6896 -0.2894  0.6134
   8023SM  H17S10626   2.043  -0.619   5.558  0.6812 -3.8393  1.2490
   8023SM  H17T10627   2.195  -0.717   5.577  1.0381 -0.1939  0.2143
   8023SM  C18S10628   2.207  -0.560   5.435  0.7360  0.2289 -0.3311
   8023SM  H18S10629   2.312  -0.530   5.457  0.5083 -0.4543  1.9672
   8023SM  H18T10630   2.150  -0.478   5.386  0.2269 -1.3029 -2.4439
   8023SM  H18U10631   2.205  -0.638   5.357  0.9374 -1.2703  1.1067
   8023SM   C1F10632   1.617   0.101   7.132  0.0533 -0.2502 -0.2689
   8023SM    OF10633   1.701   0.185   7.162  0.3720 -0.1571 -0.2437
   8023SM   C2F10634   1.486   0.134   7.075  0.6158  0.7168 -0.7169
   8023SM   H2F10635   1.454   0.222   7.135  0.0200  0.3791 -0.5284
   8023SM   H2G10636   1.425   0.043   7.092 -0.2692  1.1587 -1.4414
   8023SM   C3F10637   1.504   0.181   6.931 -0.8830  0.3399  0.2501
   8023SM   H3F10638   1.570   0.270   6.936  1.3173 -1.1560 -0.3915
   8023SM   H3G10639   1.405   0.205   6.886 -0.4555 -0.6865 -1.3440
   8023SM   C4F10640   1.573   0.079   6.837 -0.0973  0.5657  0.4746
   8023SM   H4F10641   1.511  -0.014   6.838  0.9829 -0.1630  0.9262
   8023SM   H4G10642   1.670   0.041   6.874 -1.2949 -1.7498  1.4186
   8023SM   C5F10643   1.570   0.128   6.693  0.2878 -0.1062 -0.1812
   8023SM   H5F10644   1.625   0.225   6.683 -1.3943  0.7130 -2.1324
   8023SM   H5G10645   1.467   0.150   6.658  0.2172  1.3741  0.8383
   8023SM   C6F10646   1.636   0.031   6.609  0.4335 -0.1731 -0.2433
   8023SM   H6F10647   1.576  -0.063   6.613  0.1470  0.0291  0.2775
   8023SM   H6G10648   1.734   0.005   6.655  0.2574  3.0088  2.2462
   8023SM   C7F10649   1.657   0.075   6.464 -0.1338  0.0362 -0.3039
   8023SM   H7F10650   1.713   0.170   6.474 -3.0943  1.8359  0.4347
   8023SM   H7G10651   1.558   0.109   6.426 -0.4360  1.9916  2.0290
   8023SM   C8F10652   1.734  -0.022   6.383 -0.3121 -0.5533  0.5858
   8023SM   H8F10653   1.672  -0.114   6.389 -2.8237  1.0901  1.5102
   8023SM   H8G10654   1.840  -0.037   6.413 -0.0906 -0.5679 -0.1785
   8023SM   C9F10655   1.744   0.016   6.229  0.4227  0.6165  0.6071
   8023SM   H9F10656   1.834   0.080   6.210  1.5729 -0.9215  0.6312
   8023SM   H9G10657   1.648   0.063   6.198 -0.9263 -1.9930  0.5885
   8023SM  C10F10658   1.761  -0.122   6.158 -0.4820 -0.5018 -0.5968
   8023SM  H10F10659   1.671  -0.187   6.147 -0.6885 -0.4834  0.8639
   8023SM  H10G10660   1.844  -0.186   6.196  0.2117 -1.6941 -3.7517
   8023SM  C11F10661   1.800  -0.098   6.007 -0.1929 -0.0761 -0.7593
   8023SM  H11F10662   1.888  -0.030   6.003  2.4596 -3.2312  0.2497
   8023SM  H11G10663   1.714  -0.050   5.954 -0.5957  0.0214 -0.0348
   8023SM  C12F10664   1.855  -0.231   5.938 -0.0525 -0.6161 -0.2338
   8023SM  H12F10665   1.780  -0.308   5.965 -3.4078  1.6356 -2.3524
   8023SM  H12G10666   1.949  -0.254   5.991  0.2143  0.9267  0.0230
   8023SM  C13F10667   1.862  -0.231   5.788 -0.1490  0.8295  0.0591
   8023SM  H13F10668   1.925  -0.318   5.760 -1.5854 -0.0484 -0.5944
   8023SM  H13G10669   1.925  -0.143   5.764  2.4213 -0.2675  2.2027
   8023SM  C14F10670   1.730  -0.224   5.708 -0.2918 -0.4372 -1.1373
   8023SM  H14F10671   1.671  -0.133   5.731 -0.1251 -0.4975 -0.4628
   8023SM  H14G10672   1.664  -0.303   5.750  0.6610 -0.5678  0.1484
   8023SM  C15F10673   1.740  -0.246   5.559 -0.1986  0.2894 -0.1755
   8023SM  H15F10674   1.798  -0.158   5.525  0.9371  0.0117  0.9653
   8023SM  H15G10675   1.637  -0.249   5.517 -0.5750 -0.7726  0.7697
   8023SM  C16F10676   1.819  -0.366   5.509 -0.2214 -0.4555 -0.5236
   8023SM  H16F10677   1.770  -0.452   5.560 -1.9886  1.0792  0.4991
   8023SM  H16G10678   1.929  -0.362   5.523 -0.3319 -1.1589  0.6895
   8023SM  C17F10679   1.794  -0.389   5.360 -0.2421 -0.3453 -0.0065
   8023SM  H17F10680   1.692  -0.371   5.321  0.7900  1.2828 -2.1077
   8023SM  H17G10681   1.827  -0.489   5.325  0.6015 -0.2430  0.4735
   8023SM  C18F10682   1.880  -0.290   5.276 -0.1346  0.0045 -0.8068
   8023SM  H18F10683   1.983  -0.281   5.316  0.4015 -0.5395 -2.0101
   8023SM  H18G10684   1.845  -0.184   5.283  1.6233  0.5136  1.4188
   8023SM  C19F10685   1.884  -0.317   5.131  0.5484  0.5102  0.3540
   8023SM  H19F10686   1.936  -0.414   5.117 -1.6722 -0.5060 -1.5669
   8023SM  H19G10687   1.959  -0.256   5.074  0.5843 -0.3919 -0.5979
   8023SM  C20F10688   1.745  -0.330   5.059 -0.4501 -0.0212  0.3993
   8023SM  H20F10689   1.716  -0.222   5.057 -0.5737 -0.0597 -0.8762
   8023SM  H20G10690   1.661  -0.369   5.121  0.0393 -0.2624  0.9223
   8023SM  C21F10691   1.760  -0.389   4.912  0.2940 -0.6312  0.6793
   8023SM  H21F10692   1.792  -0.496   4.919  1.4690 -0.2197  1.9232
   8023SM  H21G10693   1.835  -0.335   4.850  0.2125 -0.3065  0.8639
   8023SM  C22F10694   1.618  -0.377   4.842 -0.4054  0.0021  0.3674
   8023SM  H22F10695   1.578  -0.279   4.877 -2.4663 -1.5238  2.5728
   8023SM  H22G10696   1.539  -0.450   4.871  0.2003 -1.2242 -0.9242
   8023SM  C23F10697   1.631  -0.389   4.690 -0.4551  0.1107 -0.1124
   8023SM  H23F10698   1.673  -0.298   4.642 -0.7225 -0.2108 -0.9875
   8023SM  H23G10699   1.530  -0.406   4.648 -0.6071  0.6765  0.0264
   8023SM  H23H10700   1.690  -0.480   4.664 -0.0145  0.8649 -1.8974
   8123SM     N10701   4.771   3.554   2.401 -0.2188  0.2010  0.4191
   8123SM   C1510702   4.793   3.558   2.254 -0.4444  0.6456  0.2887
   8123SM  H15A10703   4.849   3.474   2.217 -0.3381  1.3948 -1.3394
   8123SM  H15B10704   4.852   3.643   2.223 -0.2625  0.4849  0.1962
   8123SM  H15C10705   4.698   3.572   2.204 -0.1396  0.6364 -0.2907
   8123SM   C1410706   4.902   3.591   2.459  0.6554  0.0158 -0.3660
   8123SM  H14A10707   4.897   3.568   2.565  0.3440 -1.1462 -0.6253
   8123SM  H14B10708   4.925   3.696   2.446 -0.9491  0.2265 -1.9863
   8123SM  H14C10709   4.975   3.521   2.422 -0.3474 -0.9822 -0.5069
   8123SM   C1310710   4.667   3.656   2.430  0.0353 -0.2855  0.4216
   8123SM  H13A10711   4.577   3.643   2.372 -0.0089 -0.7682  0.5877
   8123SM  H13B10712   4.710   3.750   2.399 -0.2954 -0.9960 -2.5621
   8123SM  H13C10713   4.646   3.665   2.535  0.4336 -0.4974  0.5221
   8123SM   C1210714   4.730   3.419   2.445  0.3345  0.5125 -0.5448
   8123SM  H12A10715   4.810   3.352   2.417  1.0194  0.7482  0.7888
   8123SM  H12B10716   4.642   3.391   2.389 -0.5663  1.2237  0.4884
   8123SM   C1110717   4.694   3.392   2.596 -0.6561 -0.1320 -0.3384
   8123SM  H11A10718   4.673   3.284   2.610 -3.6295  0.5222  1.1995
   8123SM  H11B10719   4.595   3.442   2.607 -0.4376  0.4305 -0.8728
   8123SM     P10720   4.915   3.351   2.730 -0.0736 -0.4002  0.0914
   8123SM   O1310721   4.934   3.254   2.623  0.2225  0.5458 -0.1602
   8123SM   O1410722   5.032   3.442   2.745  0.3002  0.1769 -0.4587
   8123SM   O1110723   4.857   3.281   2.865  0.5047  0.2800 -0.6638
   8123SM   O1210724   4.790   3.445   2.690 -0.1407  0.0757 -0.2923
   8123SM   C1S10725   4.735   3.332   2.926  0.1700 -0.2727  0.3738
   8123SM   H1S10726   4.650   3.267   2.898 -1.5014  1.4380  1.2277
   8123SM   H1T10727   4.712   3.441   2.919 -2.1813 -0.6465  1.3193
   8123SM    NF10728   4.623   3.367   3.143 -0.1544  0.6879 -0.2105
   8123SM   HNF10729   4.602   3.464   3.132  0.1382  0.8450  0.4995
   8123SM   C2S10730   4.752   3.331   3.082 -0.3663  0.0046 -0.0113
   8123SM   H2S10731   4.775   3.227   3.114  2.4448  0.1900 -1.1504
   8123SM   C3S10732   4.875   3.427   3.117 -0.4204 -0.9625 -0.0928
   8123SM   H3S10733   4.870   3.513   3.047  3.8009  1.6053  2.3525
   8123SM    O310734   5.000   3.363   3.096  0.6075 -0.2985  0.1642
   8123SM   HO310735   4.983   3.275   3.062 -0.7887  0.0407 -0.0592
   8123SM   C4S10736   4.873   3.473   3.262 -1.3520  0.0138 -0.5240
   8123SM   H4S10737   4.848   3.395   3.335 -0.0252 -0.2159 -0.2933
   8123SM   C5S10738   4.886   3.603   3.288  0.1743  0.2825  0.2760
   8123SM   H5S10739   4.873   3.669   3.201  2.9515  0.4705 -0.0853
   8123SM   C6S10740   4.872   3.676   3.422 -0.3196 -0.1754  0.2830
   8123SM   H6S10741   4.768   3.712   3.439 -0.1715  0.6512 -0.5089
   8123SM   H6T10742   4.929   3.771   3.423 -0.6774  0.0423  1.0601
   8123SM   C7S10743   4.915   3.582   3.542 -0.2130 -0.1012  0.1926
   8123SM   H7S10744   5.004   3.521   3.513  0.2020  0.9945 -0.9311
   8123SM   H7T10745   4.846   3.500   3.572  0.9463 -1.6503 -1.1500
   8123SM   C8S10746   4.931   3.680   3.663 -0.0831  0.3632 -0.3867
   8123SM   H8S10747   4.844   3.746   3.681 -0.3204  0.1860 -0.8664
   8123SM   H8T10748   5.023   3.743   3.660  0.2433 -0.1130 -0.5308
   8123SM   C9S10749   4.937   3.595   3.792 -0.4747  0.0954 -0.3827
   8123SM   H9S10750   5.042   3.565   3.810 -0.2901 -2.0084 -3.9581
   8123SM   H9T10751   4.875   3.504   3.779  0.2019 -0.2600 -1.1730
   8123SM  C10S10752   4.884   3.674   3.916  0.5431 -0.3865 -0.1748
   8123SM  H10S10753   4.773   3.676   3.917  0.5341 -0.0785 -0.9196
   8123SM  H10T10754   4.923   3.776   3.898  0.5295 -0.2414  0.5879
   8123SM  C11S10755   4.946   3.624   4.044  0.3024  0.1934 -0.2133
   8123SM  H11S10756   5.055   3.642   4.052  0.3726  0.6336 -1.7258
   8123SM  H11T10757   4.932   3.514   4.046 -0.4297  0.2655 -0.8657
   8123SM  C12S10758   4.879   3.694   4.165  0.7909  0.5309 -0.2157
   8123SM  H12S10759   4.771   3.669   4.168  1.2221 -1.5346 -0.5602
   8123SM  H12T10760   4.884   3.804   4.152  0.4119  0.6650  0.7534
   8123SM  C13S10761   4.937   3.653   4.303 -0.9238  0.4693 -0.2837
   8123SM  H13S10762   5.043   3.675   4.328  0.1156 -2.8372 -1.2744
   8123SM  H13T10763   4.944   3.542   4.316  0.9378  0.4871 -0.8555
   8123SM  C14S10764   4.845   3.695   4.416  0.1186 -0.3907  0.5131
   8123SM  H14S10765   4.887   3.661   4.513  0.3876 -0.7562  0.2681
   8123SM  H14T10766   4.743   3.656   4.398  0.4374 -0.5940 -0.9428
   8123SM  C15S10767   4.853   3.855   4.422 -0.6136  0.0051 -0.2107
   8123SM  H15S10768   4.804   3.901   4.333 -0.9670  0.6603  0.3120
   8123SM  H15T10769   4.961   3.878   4.419  0.9694 -5.9062 -2.0150
   8123SM  C16S10770   4.780   3.918   4.544  0.9282  0.0564  0.1871
   8123SM  H16S10771   4.807   4.025   4.528 -0.0477  0.2349 -0.3185
   8123SM  H16T10772   4.831   3.885   4.637 -1.6295 -2.4941  0.8233
   8123SM  C17S10773   4.626   3.900   4.557 -0.3228  0.2526 -0.1301
   8123SM  H17S10774   4.592   3.914   4.662  0.9400  0.0225  0.3247
   8123SM  H17T10775   4.608   3.791   4.540 -1.0133 -0.2195  2.9705
   8123SM  C18S10776   4.548   3.983   4.463  0.2241  0.4402 -0.1979
   8123SM  H18S10777   4.584   3.985   4.358  0.3424 -0.8164 -0.1956
   8123SM  H18T10778   4.531   4.088   4.495 -1.4455  1.1257 -2.9699
   8123SM  H18U10779   4.449   3.933   4.452 -0.0409  1.0205 -0.4876
   8123SM   C1F10780   4.520   3.277   3.157  0.0850 -0.1065  0.1290
   8123SM    OF10781   4.529   3.158   3.127 -0.8717 -0.4149  0.0199
   8123SM   C2F10782   4.394   3.332   3.198  0.0937  0.5865  0.5659
   8123SM   H2F10783   4.318   3.281   3.136  1.2572  0.4505 -0.8027
   8123SM   H2G10784   4.384   3.441   3.176  0.2621  0.4580 -0.1581
   8123SM   C3F10785   4.379   3.299   3.345  0.1001  0.9337 -0.1062
   8123SM   H3F10786   4.393   3.189   3.358  2.1738  1.1373 -0.2616
   8123SM   H3G10787   4.276   3.333   3.369 -0.1265  0.0511  0.2251
   8123SM   C4F10788   4.469   3.378   3.442  0.3570 -0.3046 -0.0804
   8123SM   H4F10789   4.442   3.485   3.427 -0.1867 -0.6608 -1.9735
   8123SM   H4G10790   4.574   3.368   3.407  0.7636  0.9835  0.6952
   8123SM   C5F10791   4.465   3.325   3.586 -0.3032 -0.3110 -0.0552
   8123SM   H5F10792   4.483   3.216   3.577  0.7693 -0.1840  0.4440
   8123SM   H5G10793   4.365   3.333   3.633  0.2214 -0.1807  1.0461
   8123SM   C6F10794   4.574   3.388   3.674  0.4978 -0.7134 -0.8960
   8123SM   H6F10795   4.589   3.496   3.655 -1.2652 -0.2713 -0.0609
   8123SM   H6G10796   4.674   3.342   3.659  0.5461 -0.9598  0.0905
   8123SM   C7F10797   4.538   3.364   3.819 -0.0430  1.0743 -0.0248
   8123SM   H7F10798   4.482   3.268   3.821  0.5049  0.6100 -2.8487
   8123SM   H7G10799   4.466   3.445   3.842  1.2737  2.1239  0.5605
   8123SM   C8F10800   4.653   3.369   3.921 -0.5206  1.1756  0.2696
   8123SM   H8F10801   4.648   3.472   3.964  1.4453  1.2673  0.3874
   8123SM   H8G10802   4.750   3.373   3.866  1.0372 -0.8414  2.6868
   8123SM   C9F10803   4.660   3.250   4.020 -0.0182 -0.0895 -0.7779
   8123SM   H9F10804   4.705   3.159   3.973  0.1503 -0.5413  0.2304
   8123SM   H9G10805   4.557   3.227   4.053  0.8234  0.5926  2.7843
   8123SM  C10F10806   4.744   3.291   4.146  0.0579  0.1531  0.0684
   8123SM  H10F10807   4.830   3.356   4.117  1.4200 -0.3631  2.6401
   8123SM  H10G10808   4.789   3.203   4.198  2.5487  1.6052  0.5573
   8123SM  C11F10809   4.672   3.387   4.242  0.0270 -0.5011  0.1979
   8123SM  H11F10810   4.642   3.481   4.192  2.3747  0.0885 -0.2342
   8123SM  H11G10811   4.726   3.422   4.332  0.1937  1.0985 -0.4951
   8123SM  C12F10812   4.545   3.313   4.298 -0.1367 -0.0894  0.3049
   8123SM  H12F10813   4.577   3.231   4.366  0.4045 -1.8015 -1.9295
   8123SM  H12G10814   4.484   3.288   4.209  2.4751  1.3574 -2.0661
   8123SM  C13F10815   4.460   3.414   4.385 -0.3220  0.2686  0.7014
   8123SM  H13F10816   4.451   3.506   4.323  0.0413 -1.0351 -1.4088
   8123SM  H13G10817   4.516   3.443   4.476  1.8672 -0.8506 -0.2258
   8123SM  C14F10818   4.330   3.357   4.422  0.1067 -1.0938 -0.7879
   8123SM  H14F10819   4.339   3.251   4.454  0.2146 -1.3263 -1.5641
   8123SM  H14G10820   4.270   3.363   4.329 -0.4339  0.0732 -0.3883
   8123SM  C15F10821   4.263   3.435   4.532  0.1719 -0.6422  0.3525
   8123SM  H15F10822   4.329   3.477   4.612 -1.8724 -0.5335  2.0842
   8123SM  H15G10823   4.201   3.359   4.584 -1.2030 -0.4422 -0.9231
   8123SM  C16F10824   4.171   3.547   4.483 -0.4011  0.0576 -0.1255
   8123SM  H16F10825   4.076   3.507   4.441 -0.2527 -1.2079  0.6995
   8123SM  H16G10826   4.218   3.607   4.402 -0.1595  1.7165  1.1989
   8123SM  C17F10827   4.114   3.641   4.597 -0.6126  0.0149 -0.4085
   8123SM  H17F10828   4.091   3.585   4.690 -0.9760 -1.6156 -1.4459
   8123SM  H17G10829   4.020   3.690   4.562 -1.3471 -1.2482 -0.2389
   8123SM  C18F10830   4.221   3.749   4.635  0.1151 -0.2775  0.3469
   8123SM  H18F10831   4.260   3.796   4.542  0.7418 -1.1939  0.1383
   8123SM  H18G10832   4.311   3.694   4.669  0.9223 -1.0012 -2.6480
   8123SM  C19F10833   4.179   3.852   4.741 -0.1401 -0.4603  0.2658
   8123SM  H19F10834   4.127   3.800   4.824 -1.4526  0.5043  0.0778
   8123SM  H19G10835   4.115   3.930   4.694  0.8329 -0.6834 -1.5589
   8123SM  C20F10836   4.299   3.921   4.799 -0.8397  0.5919 -0.0414
   8123SM  H20F10837   4.334   3.971   4.706 -3.1691 -1.0624 -1.9546
   8123SM  H20G10838   4.378   3.844   4.815 -3.6658 -2.4149  0.7124
   8123SM  C21F10839   4.270   4.009   4.915  0.1561  0.7966 -0.6526
   8123SM  H21F10840   4.247   3.944   5.001 -2.6124  0.2954 -1.6513
   8123SM  H21G10841   4.181   4.071   4.889 -0.7326 -0.5393 -0.9187
   8123SM  C22F10842   4.396   4.098   4.944  0.3709  0.5655  0.2033
   8123SM  H22F10843   4.434   4.138   4.848 -1.6396 -0.3946 -1.0801
   8123SM  H22G10844   4.472   4.032   4.990  0.3092 -0.9497 -1.7146
   8123SM  C23F10845   4.377   4.211   5.038  0.3188 -0.0642  0.1153
   8123SM  H23F10846   4.468   4.275   5.044 -0.9146  1.9565 -1.3109
   8123SM  H23G10847   4.346   4.185   5.142  2.7124  1.7741  1.3942
   8123SM  H23H10848   4.297   4.278   4.998  0.7461 -0.2884 -1.1457
   8223SM     N10849   4.959   4.437   2.659  0.2337  0.5545  0.1332
   8223SM   C1510850   4.831   4.419   2.593  0.4849  0.1085 -0.0526
   8223SM  H15A10851   4.829   4.340   2.519 -0.6431 -0.6361  0.7340
   8223SM  H15B10852   4.799   4.514   2.554  0.0999 -0.0740 -0.1954
   8223SM  H15C10853   4.761   4.400   2.673  1.9001  0.3524  1.2899
   8223SM   C1410854   4.973   4.316   2.755 -0.3438 -0.3215  0.8036
   8223SM  H14A10855   4.887   4.312   2.820 -1.5528 -1.3903 -0.7773
   8223SM  H14B10856   5.063   4.325   2.814 -1.0072  3.2391  1.4735
   8223SM  H14C10857   4.970   4.221   2.703 -1.7327  0.2882 -0.2853
   8223SM   C1310858   5.069   4.424   2.554 -0.1091  0.6200  0.8762
   8223SM  H13A10859   5.170   4.425   2.591  0.5782 -0.7820 -0.8107
   8223SM  H13B10860   5.062   4.493   2.471 -0.4368 -0.3422  0.0798
   8223SM  H13C10861   5.065   4.331   2.499 -0.5922  2.0643 -1.6967
   8223SM   C1210862   4.967   4.569   2.736  0.3402 -0.0256 -0.1742
   8223SM  H12A10863   4.966   4.648   2.662 -0.6325 -1.7308 -2.0790
   8223SM  H12B10864   5.055   4.581   2.797  0.7125  1.0648 -0.8909
   8223SM   C1110865   4.840   4.601   2.822  0.3955  0.4491 -0.2462
   8223SM  H11A10866   4.873   4.703   2.854 -1.1816  1.0184 -0.3556
   8223SM  H11B10867   4.824   4.541   2.914 -0.0218  1.6542  0.4864
   8223SM     P10868   4.641   4.756   2.724 -0.2792  0.0706 -0.1535
   8223SM   O1310869   4.736   4.847   2.658 -0.1396  0.4824  0.7857
   8223SM   O1410870   4.509   4.737   2.662  0.3854 -0.1761 -0.3631
   8223SM   O1110871   4.628   4.790   2.875  0.0383  0.4454  0.2871
   8223SM   O1210872   4.716   4.615   2.746  0.4087  0.8770 -0.0825
   8223SM   C1S10873   4.532   4.731   2.960 -0.1203  0.7202 -0.5386
   8223SM   H1S10874   4.499   4.630   2.927  0.8296  0.6569 -1.3560
   8223SM   H1T10875   4.442   4.795   2.966 -1.2712 -0.8823 -0.2486
   8223SM    NF10876   4.513   4.654   3.196 -0.3553  0.2037  0.6423
   8223SM   HNF10877   4.450   4.706   3.252 -0.5303  1.2950 -0.5289
   8223SM   C2S10878   4.594   4.730   3.106  0.2425  0.3869 -0.4271
   8223SM   H2S10879   4.686   4.669   3.107 -0.9689 -1.5270 -0.3238
   8223SM   C3S10880   4.635   4.876   3.150 -0.5060 -0.6450 -0.2676
   8223SM   H3S10881   4.547   4.943   3.156  0.1634  0.1205  2.5629
   8223SM    O310882   4.716   4.946   3.059  0.0071  0.5434 -0.2546
   8223SM   HO310883   4.704   4.891   2.981  2.4186  1.2323 -1.2098
   8223SM   C4S10884   4.696   4.892   3.292  0.2641  0.7604  0.3113
   8223SM   H4S10885   4.621   4.937   3.359  0.7879  1.0452  0.7093
   8223SM   C5S10886   4.818   4.863   3.339  0.2189  0.1331  0.0627
   8223SM   H5S10887   4.900   4.832   3.272  1.6216  0.7988  1.4070
   8223SM   C6S10888   4.872   4.876   3.478  0.0764 -0.2964 -0.1009
   8223SM   H6S10889   4.914   4.783   3.522  1.0797 -0.0329 -0.4931
   8223SM   H6T10890   4.792   4.927   3.537  1.6424  0.2916  1.5999
   8223SM   C7S10891   4.987   4.971   3.502  0.2434  0.6333  0.6452
   8223SM   H7S10892   4.974   5.071   3.457  1.0174  0.8345  0.8589
   8223SM   H7T10893   5.069   4.940   3.433  0.1981  3.7117 -0.9634
   8223SM   C8S10894   5.045   4.964   3.650 -0.4797  0.1831  0.1434
   8223SM   H8S10895   5.138   5.025   3.642 -0.2304 -0.4358 -2.6147
   8223SM   H8T10896   5.087   4.865   3.679  2.5600  1.2294 -0.2706
   8223SM   C9S10897   4.955   5.022   3.761 -0.1035  0.3881 -0.1703
   8223SM   H9S10898   4.864   4.959   3.755 -0.1835  0.5190 -0.3525
   8223SM   H9T10899   4.915   5.125   3.747  2.6469  2.0714  2.7473
   8223SM  C10S10900   5.011   5.005   3.900 -0.4921 -0.3536  0.8451
   8223SM  H10S10901   5.080   5.090   3.918 -0.3888  0.4098 -2.4442
   8223SM  H10T10902   5.064   4.908   3.909  1.2171  0.7298  3.7579
   8223SM  C11S10903   4.896   5.011   4.003 -0.6742  0.5194  0.2200
   8223SM  H11S10904   4.833   4.922   3.981  2.5521 -2.1809  1.0016
   8223SM  H11T10905   4.838   5.104   3.988  0.0340  1.6187  3.4775
   8223SM  C12S10906   4.948   5.006   4.148 -0.2825  0.1706  0.8020
   8223SM  H12S10907   4.990   5.102   4.186  1.6557 -0.5099  0.5059
   8223SM  H12T10908   5.032   4.934   4.152 -0.8721 -0.4729  2.4362
   8223SM  C13S10909   4.849   4.942   4.241  0.2373 -0.4615 -0.3745
   8223SM  H13S10910   4.890   4.853   4.295  1.2309 -0.5299 -1.2207
   8223SM  H13T10911   4.779   4.881   4.181  1.6206 -2.3278 -0.2066
   8223SM  C14S10912   4.781   5.037   4.339  0.5481 -0.1749  0.3431
   8223SM  H14S10913   4.727   5.114   4.280  2.4946 -0.3516 -1.8223
   8223SM  H14T10914   4.860   5.093   4.394  0.0544  1.9871 -1.0306
   8223SM  C15S10915   4.700   4.974   4.447  0.5337  0.1766 -0.8102
   8223SM  H15S10916   4.768   4.934   4.526 -1.1163 -0.8192  0.1687
   8223SM  H15T10917   4.633   4.887   4.425 -1.2096  0.8257  1.4940
   8223SM  C16S10918   4.605   5.074   4.513  0.0178  0.0839 -0.1513
   8223SM  H16S10919   4.524   5.099   4.442  2.2667  2.8797 -1.9707
   8223SM  H16T10920   4.662   5.168   4.532 -0.6955  0.3697  0.6512
   8223SM  C17S10921   4.563   5.041   4.659 -0.2883 -0.0513  0.2837
   8223SM  H17S10922   4.503   5.126   4.700 -0.5419 -0.5005  0.8601
   8223SM  H17T10923   4.656   5.037   4.719  1.5307  0.1524 -2.3569
   8223SM  C18S10924   4.474   4.912   4.657  0.0302 -0.1500 -0.0577
   8223SM  H18S10925   4.431   4.884   4.755 -0.5070  0.7847 -0.0214
   8223SM  H18T10926   4.551   4.836   4.630 -0.2334 -0.5351  0.2697
   8223SM  H18U10927   4.392   4.927   4.583  0.3189 -0.7816 -0.5217
   8223SM   C1F10928   4.507   4.522   3.183 -0.2247  0.4961 -0.5310
   8223SM    OF10929   4.568   4.462   3.099 -0.1708  0.1803 -0.0113
   8223SM   C2F10930   4.402   4.455   3.270 -0.3134 -0.2967  0.1148
   8223SM   H2F10931   4.314   4.521   3.287 -1.4630 -1.2433 -1.8424
   8223SM   H2G10932   4.442   4.435   3.372 -0.7345  0.0014  0.3443
   8223SM   C3F10933   4.345   4.322   3.208  0.2334  0.2740  0.0830
   8223SM   H3F10934   4.434   4.263   3.176  0.0031  0.6009 -1.1874
   8223SM   H3G10935   4.293   4.349   3.114  0.4381  1.5200  0.3099
   8223SM   C4F10936   4.251   4.238   3.296  0.6393  0.4968  0.1432
   8223SM   H4F10937   4.294   4.192   3.387  0.0349  1.6271  1.0396
   8223SM   H4G10938   4.211   4.154   3.236 -0.6602 -0.8886  2.7669
   8223SM   C5F10939   4.129   4.323   3.329  0.1907 -0.2408 -0.5969
   8223SM   H5F10940   4.077   4.375   3.246 -1.8714  1.4741  1.6578
   8223SM   H5G10941   4.172   4.412   3.379  2.4255 -1.1154 -0.8388
   8223SM   C6F10942   4.013   4.251   3.401 -0.4467  0.8331 -0.6220
   8223SM   H6F10943   4.056   4.221   3.499  1.1024  0.0711 -1.4939
   8223SM   H6G10944   3.991   4.160   3.340 -0.3904 -0.7744  1.6286
   8223SM   C7F10945   3.895   4.352   3.416 -0.1764 -0.1754 -0.1449
   8223SM   H7F10946   3.869   4.390   3.314  1.6803  2.0595  0.1401
   8223SM   H7G10947   3.937   4.431   3.482  1.1850 -1.8839  1.1074
   8223SM   C8F10948   3.775   4.277   3.472  0.1624  0.1591  0.1693
   8223SM   H8F10949   3.755   4.193   3.402  2.2744 -2.0807  2.0580
   8223SM   H8G10950   3.686   4.343   3.462  0.7011  0.8646 -0.0335
   8223SM   C9F10951   3.798   4.212   3.610 -0.3304  0.4642  0.5523
   8223SM   H9F10952   3.890   4.149   3.608  0.1305  1.1166  0.7559
   8223SM   H9G10953   3.711   4.147   3.633 -1.7571  2.6302  1.6082
   8223SM  C10F10954   3.823   4.317   3.724  0.3570 -0.4625 -0.2712
   8223SM  H10F10955   3.764   4.410   3.712 -0.6495 -0.5936  2.9378
   8223SM  H10G10956   3.929   4.349   3.723 -0.1220  1.1936 -0.6588
   8223SM  C11F10957   3.796   4.250   3.860 -0.3224  0.4197  0.3311
   8223SM  H11F10958   3.874   4.172   3.871 -0.8106 -0.3786 -1.4711
   8223SM  H11G10959   3.697   4.201   3.855 -0.6187  1.1042 -1.1759
   8223SM  C12F10960   3.816   4.347   3.975 -0.4100 -0.5684  0.6136
   8223SM  H12F10961   3.751   4.437   3.965 -0.9825 -1.1136 -0.9662
   8223SM  H12G10962   3.922   4.379   3.964  0.2664 -3.2975 -2.2314
   8223SM  C13F10963   3.797   4.277   4.105 -0.6999 -0.0223  0.4469
   8223SM  H13F10964   3.874   4.198   4.118 -0.3031  0.1065 -0.9463
   8223SM  H13G10965   3.704   4.218   4.102 -1.8063  1.6118  0.9921
   8223SM  C14F10966   3.809   4.370   4.224 -0.3684  0.2885 -0.3251
   8223SM  H14F10967   3.909   4.418   4.218  0.1464 -0.8298 -0.9506
   8223SM  H14G10968   3.804   4.302   4.313  0.1430  0.3293 -0.2604
   8223SM  C15F10969   3.703   4.478   4.245  0.3091  0.0685  0.6362
   8223SM  H15F10970   3.599   4.442   4.230 -0.4174  1.6926  1.5012
   8223SM  H15G10971   3.718   4.565   4.178  2.0881 -0.8356 -0.1957
   8223SM  C16F10972   3.712   4.535   4.389 -0.4589 -0.4005  0.2712
   8223SM  H16F10973   3.708   4.457   4.468  0.9053 -0.2749  0.4824
   8223SM  H16G10974   3.626   4.605   4.399 -0.4453 -0.5540  1.6297
   8223SM  C17F10975   3.849   4.603   4.419 -0.4113  0.5599  0.3795
   8223SM  H17F10976   3.864   4.678   4.339 -0.0152 -1.9304 -2.0167
   8223SM  H17G10977   3.934   4.532   4.412 -0.8926 -0.3187  2.5096
   8223SM  C18F10978   3.874   4.672   4.549 -0.4310 -0.2958  0.5310
   8223SM  H18F10979   3.983   4.692   4.543 -0.6204  0.3164 -2.7050
   8223SM  H18G10980   3.866   4.600   4.633  0.0736 -1.8606 -0.6978
   8223SM  C19F10981   3.788   4.800   4.557 -0.5117 -0.4325 -0.3731
   8223SM  H19F10982   3.687   4.770   4.523 -1.0618  0.4950  0.3932
   8223SM  H19G10983   3.822   4.872   4.479  0.7637 -0.2970  0.2843
   8223SM  C20F10984   3.775   4.882   4.688  0.1152  0.3768 -0.1309
   8223SM  H20F10985   3.720   4.978   4.685 -0.6676  0.0274  1.9176
   8223SM  H20G10986   3.880   4.909   4.712 -0.1027  1.0592  0.0820
   8223SM  C21F10987   3.715   4.794   4.801 -0.2883 -0.6999 -0.1664
   8223SM  H21F10988   3.743   4.687   4.791  1.0553 -0.4574  0.7523
   8223SM  H21G10989   3.604   4.796   4.798 -0.2701 -0.0872 -0.4902
   8223SM  C22F10990   3.759   4.827   4.943 -0.4147  0.4840 -0.1327
   8223SM  H22F10991   3.860   4.780   4.947 -0.7153 -0.2496 -0.9276
   8223SM  H22G10992   3.703   4.766   5.017 -1.0140  0.3964 -0.6495
   8223SM  C23F10993   3.744   4.967   4.983 -0.0226 -1.1825  0.3220
   8223SM  H23F10994   3.644   5.006   4.955  0.2727  0.6845  1.6776
   8223SM  H23G10995   3.808   5.035   4.924 -0.4900 -1.7196 -0.8424
   8223SM  H23H10996   3.752   4.972   5.094  1.1610 -0.2042  0.2109
   8323SM     N10997   5.676   5.446   3.112  0.4091  1.0104 -0.2123
   8323SM   C1510998   5.660   5.547   3.223 -0.0175 -0.2279 -0.3479
   8323SM  H15A10999   5.558   5.558   3.258 -0.1061 -2.3537  0.2003
   8323SM  H15B11000   5.687   5.644   3.182  4.2758 -1.2348 -0.3212
   8323SM  H15C11001   5.721   5.516   3.306  0.1714 -4.9768 -1.9938
   8323SM   C1411002   5.588   5.500   2.999 -0.3318  0.1870  0.6930
   8323SM  H14A11003   5.604   5.605   2.980 -1.3534  0.1467 -0.5463
   8323SM  H14B11004   5.484   5.474   3.016 -0.4876 -0.1456 -0.6247
   8323SM  H14C11005   5.605   5.452   2.903  3.8017  1.9868  0.3037
   8323SM   C1311006   5.819   5.438   3.068 -0.2620 -0.5106  0.0599
   8323SM  H13A11007   5.857   5.537   3.044  1.6407 -1.4226 -0.9188
   8323SM  H13B11008   5.835   5.377   2.981  1.9564  1.3161 -0.9238
   8323SM  H13C11009   5.882   5.392   3.143  0.4106  0.7626  0.3036
   8323SM   C1211010   5.627   5.309   3.150 -0.1338  0.0665  1.3550
   8323SM  H12A11011   5.539   5.325   3.211 -0.5881  1.7456  0.3320
   8323SM  H12B11012   5.709   5.275   3.212  0.9328  2.8137  1.6395
   8323SM   C1111013   5.588   5.201   3.048  0.2799 -0.1592  0.4969
   8323SM  H11A11014   5.505   5.243   2.987 -1.4175 -1.7740  1.5943
   8323SM  H11B11015   5.538   5.122   3.106 -1.2477  0.8974  0.6596
   8323SM     P11016   5.786   5.035   2.989  0.1122  0.3082  0.1550
   8323SM   O1311017   5.758   4.939   2.883 -0.0157  0.3265  0.1225
   8323SM   O1411018   5.921   5.082   3.012 -0.1022  0.3822 -0.5775
   8323SM   O1111019   5.720   4.979   3.125  0.1938  0.3515  0.1585
   8323SM   O1211020   5.700   5.157   2.962  0.4381  0.2599  0.3883
   8323SM   C1S11021   5.796   4.971   3.245  0.3074  0.3237  0.0051
   8323SM   H1S11022   5.838   5.070   3.272 -0.4052  0.1726  1.8207
   8323SM   H1T11023   5.887   4.911   3.226  0.1595  0.4227 -1.0681
   8323SM    NF11024   5.811   4.897   3.473  0.4425 -0.1641 -0.4544
   8323SM   HNF11025   5.859   4.813   3.497  3.1164  1.7572  1.5665
   8323SM   C2S11026   5.720   4.904   3.362  0.3115  0.7072 -0.2892
   8323SM   H2S11027   5.632   4.970   3.377  0.9980  1.4465  0.5748
   8323SM   C3S11028   5.659   4.764   3.323  0.2382 -0.1024  0.0002
   8323SM   H3S11029   5.751   4.701   3.323  0.6886  0.5354  0.1661
   8323SM    O311030   5.606   4.758   3.191 -0.3755 -0.0768 -0.1695
   8323SM   HO311031   5.644   4.841   3.159  3.4523 -1.2579  0.7444
   8323SM   C4S11032   5.566   4.742   3.436 -0.6318 -0.2021 -0.1603
   8323SM   H4S11033   5.628   4.717   3.523  0.1411 -3.0786 -1.4204
   8323SM   C5S11034   5.436   4.766   3.456 -0.3075  0.1188  0.4822
   8323SM   H5S11035   5.387   4.802   3.364  1.5387  0.3922 -0.4514
   8323SM   C6S11036   5.349   4.748   3.577  0.1355  0.4023  0.9558
   8323SM   H6S11037   5.267   4.680   3.544  1.4783  0.1342 -2.2252
   8323SM   H6T11038   5.301   4.843   3.608  1.2570  0.5113  2.4507
   8323SM   C7S11039   5.421   4.698   3.701 -0.1924 -0.5821  1.1454
   8323SM   H7S11040   5.484   4.782   3.738 -2.4833  1.2091  1.2992
   8323SM   H7T11041   5.483   4.607   3.693 -1.1358 -1.1315 -0.2676
   8323SM   C8S11042   5.309   4.683   3.800 -0.2566 -0.1824 -0.3456
   8323SM   H8S11043   5.238   4.610   3.756  0.3833 -0.7128 -0.5179
   8323SM   H8T11044   5.256   4.781   3.803 -0.6661 -0.4298  0.5873
   8323SM   C9S11045   5.360   4.638   3.944  0.5326  0.0037 -0.2680
   8323SM   H9S11046   5.436   4.709   3.983  0.8885 -0.3869 -0.2471
   8323SM   H9T11047   5.411   4.540   3.942 -1.0357 -0.9941  2.7930
   8323SM  C10S11048   5.245   4.634   4.051 -0.0774  0.2356 -0.0191
   8323SM  H10S11049   5.168   4.561   4.019 -1.0503  0.3936  1.8231
   8323SM  H10T11050   5.187   4.727   4.060  0.3058  0.4450  0.3163
   8323SM  C11S11051   5.298   4.587   4.189 -0.1512 -0.7662  0.2764
   8323SM  H11S11052   5.376   4.658   4.223  0.6002 -0.1825 -2.4045
   8323SM  H11T11053   5.340   4.487   4.167 -1.5122 -1.4916  0.8459
   8323SM  C12S11054   5.177   4.565   4.286  0.0355 -0.2873 -0.0516
   8323SM  H12S11055   5.099   4.502   4.239  1.6019 -2.2389 -0.1940
   8323SM  H12T11056   5.120   4.658   4.304 -0.1492 -0.0909 -1.5524
   8323SM  C13S11057   5.233   4.506   4.410 -1.2824  0.1873 -0.3500
   8323SM  H13S11058   5.322   4.563   4.444 -1.3356  0.3334 -0.4515
   8323SM  H13T11059   5.275   4.405   4.394 -1.1872  0.0024  0.9923
   8323SM  C14S11060   5.141   4.513   4.532  0.3466 -0.4473 -0.2236
   8323SM  H14S11061   5.056   4.444   4.513 -1.7258  2.3462 -1.8622
   8323SM  H14T11062   5.095   4.614   4.531  0.6983 -0.2684 -1.9375
   8323SM  C15S11063   5.214   4.477   4.658 -0.1664 -0.1410 -0.1888
   8323SM  H15S11064   5.302   4.544   4.667  0.0896 -0.1021 -2.5096
   8323SM  H15T11065   5.244   4.372   4.641  1.3727  0.2826 -0.2271
   8323SM  C16S11066   5.126   4.492   4.785  0.2759  0.3506 -0.0243
   8323SM  H16S11067   5.036   4.431   4.760  0.6170  0.2713 -1.0852
   8323SM  H16T11068   5.089   4.594   4.809  1.3049  0.8055 -0.3156
   8323SM  C17S11069   5.188   4.416   4.907  0.7096  0.1489  0.7017
   8323SM  H17S11070   5.291   4.452   4.926  0.8025  0.0584  0.3738
   8323SM  H17T11071   5.199   4.309   4.881 -0.6625 -0.0914  0.9896
   8323SM  C18S11072   5.103   4.413   5.041 -0.1343 -0.1573 -0.1801
   8323SM  H18S11073   5.158   4.353   5.116 -0.9169 -0.8976 -0.1867
   8323SM  H18T11074   5.007   4.358   5.033 -2.1985  2.7972  2.4857
   8323SM  H18U11075   5.069   4.511   5.078 -1.3371 -0.6021 -0.0606
   8323SM   C1F11076   5.873   5.002   3.530  1.3589 -0.0168  0.2864
   8323SM    OF11077   5.824   5.112   3.528 -0.3579 -0.0995  0.0899
   8323SM   C2F11078   6.008   4.973   3.587  0.4710 -0.0501  0.1494
   8323SM   H2F11079   6.066   4.943   3.497 -1.4263  1.2528 -1.6264
   8323SM   H2G11080   5.991   4.886   3.654 -1.5450  1.0584  1.1903
   8323SM   C3F11081   6.082   5.075   3.667  0.0724 -0.0995  0.2590
   8323SM   H3F11082   6.085   5.165   3.602 -1.0705 -0.5494 -0.4472
   8323SM   H3G11083   6.187   5.046   3.685 -0.1272 -0.5534  0.7112
   8323SM   C4F11084   6.018   5.099   3.801  0.4440 -0.3115  0.7501
   8323SM   H4F11085   5.909   5.114   3.788  0.5945  0.2981  0.1568
   8323SM   H4G11086   6.069   5.192   3.833  0.9995  0.5465 -2.3727
   8323SM   C5F11087   6.044   4.983   3.904 -0.1299 -0.7962 -0.0089
   8323SM   H5F11088   6.154   4.972   3.911 -0.1927 -1.1395  0.5135
   8323SM   H5G11089   5.998   4.890   3.864  0.2978 -1.4204  0.9179
   8323SM   C6F11090   5.981   5.022   4.039 -0.3278 -0.3162  0.4413
   8323SM   H6F11091   5.871   5.020   4.027 -0.0970 -0.3319 -2.7822
   8323SM   H6G11092   6.010   5.125   4.069 -1.9184  0.4752 -0.6183
   8323SM   C7F11093   6.013   4.920   4.151  0.4050  0.8893 -0.8067
   8323SM   H7F11094   6.123   4.904   4.156  0.0440 -1.8258  0.9261
   8323SM   H7G11095   5.967   4.819   4.138 -2.2873  2.2681 -2.9347
   8323SM   C8F11096   5.980   4.956   4.297  0.3406  0.5158  0.0321
   8323SM   H8F11097   5.870   4.966   4.293  0.3042  0.7624  1.1758
   8323SM   H8G11098   6.016   5.060   4.308  0.1186  0.6034 -0.0711
   8323SM   C9F11099   6.014   4.868   4.416  0.0213 -0.5498 -0.4337
   8323SM   H9F11100   6.116   4.826   4.403  0.0622 -0.3360 -0.8038
   8323SM   H9G11101   5.951   4.776   4.413 -0.4710 -0.3588  1.9838
   8323SM  C10F11102   5.997   4.939   4.553  0.0409 -0.1085  0.3477
   8323SM  H10F11103   6.046   5.038   4.537 -0.7117  0.2352  0.0846
   8323SM  H10G11104   6.043   4.881   4.635 -2.0614  0.9826  2.4335
   8323SM  C11F11105   5.843   4.960   4.580 -0.4607 -0.3052  0.3626
   8323SM  H11F11106   5.796   4.859   4.580 -0.4341 -0.3792 -1.7891
   8323SM  H11G11107   5.799   5.006   4.489 -0.0440 -2.2377 -0.8817
   8323SM  C12F11108   5.814   5.040   4.709  0.3643  0.3593  0.3711
   8323SM  H12F11109   5.706   5.066   4.712 -0.5475 -2.8814 -0.1516
   8323SM  H12G11110   5.877   5.131   4.702  0.0974  0.4550 -0.9424
   8323SM  C13F11111   5.841   4.957   4.837  0.0685 -0.8108  0.2522
   8323SM  H13F11112   5.946   4.920   4.836  0.8338  1.1159  2.2501
   8323SM  H13G11113   5.775   4.868   4.828 -0.1392 -0.4671 -2.7795
   8323SM  C14F11114   5.829   5.044   4.961  0.0280  0.4815  0.1253
   8323SM  H14F11115   5.748   5.120   4.963  0.9121  1.5014 -1.2698
   8323SM  H14G11116   5.924   5.099   4.952 -0.6568  1.4248 -2.2960
   8323SM  C15F11117   5.825   4.966   5.095  0.1916 -0.0958 -0.0920
   8323SM  H15F11118   5.919   4.908   5.104  0.3090  0.1432  0.2038
   8323SM  H15G11119   5.737   4.898   5.098 -0.2085  0.3378 -1.3503
   8323SM  C16F11120   5.821   5.060   5.216 -0.1325  0.5524  0.3877
   8323SM  H16F11121   5.786   5.162   5.190 -1.4921 -0.0195 -0.1443
   8323SM  H16G11122   5.928   5.061   5.245  0.3013 -0.8613 -1.0025
   8323SM  C17F11123   5.732   5.019   5.335  0.9189  0.3137  0.2003
   8323SM  H17F11124   5.758   4.919   5.375  1.7265  1.2972  2.2563
   8323SM  H17G11125   5.633   5.010   5.285  1.0402  0.3210 -0.0457
   8323SM  C18F11126   5.715   5.118   5.449 -0.6033 -0.9582  0.3438
   8323SM  H18F11127   5.695   5.214   5.396  0.5113 -1.5692 -1.2454
   8323SM  H18G11128   5.811   5.129   5.504 -1.8756  1.2573  2.3134
   8323SM  C19F11129   5.606   5.087   5.543 -0.3719  0.4524  0.1958
   8323SM  H19F11130   5.625   4.988   5.591  0.7750  0.8732  0.6515
   8323SM  H19G11131   5.508   5.082   5.491  0.2088  1.2376 -1.0060
   8323SM  C20F11132   5.598   5.195   5.649 -0.2085  0.1717  0.1020
   8323SM  H20F11133   5.604   5.296   5.605 -1.6295  0.4123  0.3883
   8323SM  H20G11134   5.681   5.184   5.721 -0.6099  1.7576  0.8441
   8323SM  C21F11135   5.466   5.171   5.726 -0.3505  0.2296 -0.1872
   8323SM  H21F11136   5.461   5.061   5.742 -1.0903  0.2795 -0.0384
   8323SM  H21G11137   5.383   5.181   5.652 -0.2980  0.7297 -0.1809
   8323SM  C22F11138   5.462   5.255   5.849 -0.7603 -0.1341 -0.7799
   8323SM  H22F11139   5.561   5.242   5.899 -0.9025 -0.8243 -0.6584
   8323SM  H22G11140   5.385   5.200   5.907  0.8357  0.0637  1.6722
   8323SM  C23F11141   5.421   5.402   5.836  0.0506 -0.6216  0.1490
   8323SM  H23F11142   5.428   5.452   5.935  2.6229  1.0259 -0.7505
   8323SM  H23G11143   5.326   5.415   5.780 -0.3530  2.7352  1.3830
   8323SM  H23H11144   5.509   5.449   5.786 -0.2061  0.8775  1.0347
   8423SM     N11145   4.032   1.684   2.553  0.6885  0.4553  0.4424
   8423SM   C1511146   4.084   1.543   2.551 -0.4795  0.3009  0.2058
   8423SM  H15A11147   4.010   1.466   2.568 -0.4247  0.0365 -0.6837
   8423SM  H15B11148   4.163   1.516   2.619 -0.8407 -0.3856  0.3605
   8423SM  H15C11149   4.120   1.522   2.451 -0.2690  1.7813 -0.0493
   8423SM   C1411150   3.936   1.687   2.432  0.0647 -0.2813  0.6494
   8423SM  H14A11151   3.992   1.701   2.341 -0.2995  0.2968  0.5056
   8423SM  H14B11152   3.860   1.764   2.431 -1.5822 -1.7186 -2.9299
   8423SM  H14C11153   3.885   1.591   2.430  1.9637 -1.3406  0.7819
   8423SM   C1311154   3.950   1.685   2.681 -0.4385 -0.4294  0.1303
   8423SM  H13A11155   3.847   1.686   2.649 -1.2111 -3.0168  2.2096
   8423SM  H13B11156   3.982   1.777   2.729  0.0072  0.5570 -1.9295
   8423SM  H13C11157   3.986   1.596   2.729  1.1285  0.3979  0.5640
   8423SM   C1211158   4.140   1.785   2.554  0.4314  1.1903  0.4676
   8423SM  H12A11159   4.093   1.878   2.527 -0.4801  0.1800 -1.6522
   8423SM  H12B11160   4.201   1.763   2.468  0.9940 -2.6494  1.6413
   8423SM   C1111161   4.227   1.802   2.684 -0.1075  0.3178  0.8203
   8423SM  H11A11162   4.323   1.852   2.660 -0.6806  0.8138 -0.4915
   8423SM  H11B11163   4.255   1.701   2.720  0.2014  0.1849  0.2206
   8423SM     P11164   4.129   2.031   2.787  0.3552 -0.0199  0.0736
   8423SM   O1311165   4.241   2.109   2.739 -0.1567 -0.1501 -0.4101
   8423SM   O1411166   3.999   2.052   2.712 -0.3127 -0.8309  0.2347
   8423SM   O1111167   4.114   2.052   2.944 -0.8382 -0.2676 -0.1001
   8423SM   O1211168   4.157   1.873   2.791  0.4829 -0.3387  0.8793
   8423SM   C1S11169   4.210   1.987   3.035  0.3198 -0.0373  1.3711
   8423SM   H1S11170   4.316   2.011   3.013 -0.2537  1.8667  0.5544
   8423SM   H1T11171   4.193   1.877   3.035 -0.2771  0.0234 -0.2217
   8423SM    NF11172   4.295   1.955   3.264 -0.1380 -0.1737 -0.2789
   8423SM   HNF11173   4.262   1.883   3.324 -0.8387  1.2928  1.1610
   8423SM   C2S11174   4.197   2.027   3.185 -0.5671  0.4759  0.1569
   8423SM   H2S11175   4.221   2.135   3.192 -1.1827  0.5623  1.1858
   8423SM   C3S11176   4.052   2.003   3.238 -0.3085 -0.0777  0.1988
   8423SM   H3S11177   4.032   1.897   3.214  1.7504  0.1518 -3.1873
   8423SM    O311178   3.952   2.081   3.169  0.2366 -0.6760 -0.2994
   8423SM   HO311179   4.000   2.132   3.103 -1.5352  2.4295  0.6016
   8423SM   C4S11180   4.037   2.026   3.390 -0.3702 -0.2901  0.5276
   8423SM   H4S11181   4.043   2.129   3.427  1.9600  0.4366 -1.5765
   8423SM   C5S11182   3.991   1.930   3.473  0.4572  0.5374 -0.4619
   8423SM   H5S11183   3.973   1.832   3.425  0.9342  1.6989 -3.2284
   8423SM   C6S11184   3.943   1.960   3.615 -0.2200 -0.2347 -0.2844
   8423SM   H6S11185   3.985   2.050   3.665  3.2699 -2.0151  0.3207
   8423SM   H6T11186   3.977   1.880   3.684  0.5314  0.1862 -0.1494
   8423SM   C7S11187   3.791   1.968   3.634 -0.5012  0.1769  0.1318
   8423SM   H7S11188   3.756   1.871   3.593  1.5377 -0.4737 -0.2127
   8423SM   H7T11189   3.756   2.048   3.565 -1.3184 -0.1369  0.1693
   8423SM   C8S11190   3.753   2.005   3.778 -0.2525 -0.1466  0.6296
   8423SM   H8S11191   3.648   2.040   3.787 -0.8037 -2.0334  2.3017
   8423SM   H8T11192   3.820   2.085   3.816  0.5393 -1.0536  1.1908
   8423SM   C9S11193   3.775   1.893   3.881  0.0418 -0.4220 -0.5029
   8423SM   H9S11194   3.880   1.856   3.886  0.0688 -0.2251  3.5225
   8423SM   H9T11195   3.717   1.804   3.848 -1.7405  1.1935 -1.9469
   8423SM  C10S11196   3.731   1.943   4.024  0.4478 -0.1855  0.1692
   8423SM  H10S11197   3.627   1.975   4.004  0.2620 -1.6981 -1.5206
   8423SM  H10T11198   3.792   2.031   4.053 -1.4128  0.5805  2.0217
   8423SM  C11S11199   3.727   1.839   4.139 -0.2571 -0.0581 -0.3450
   8423SM  H11S11200   3.829   1.796   4.152  0.2506  0.5560 -1.9802
   8423SM  H11T11201   3.658   1.759   4.105  0.3129 -0.5298 -0.4103
   8423SM  C12S11202   3.669   1.906   4.267 -0.5702 -0.4466  0.1432
   8423SM  H12S11203   3.570   1.952   4.247 -1.1195 -1.9728 -0.8791
   8423SM  H12T11204   3.746   1.980   4.297 -0.1968 -1.1522  0.9929
   8423SM  C13S11205   3.657   1.812   4.383 -0.5111  1.3525  0.0700
   8423SM  H13S11206   3.758   1.814   4.430 -0.0194  2.5958 -0.9949
   8423SM  H13T11207   3.642   1.706   4.353  2.4505  0.7232  0.5066
   8423SM  C14S11208   3.552   1.853   4.485 -0.3498  0.0772  0.4944
   8423SM  H14S11209   3.452   1.847   4.438  0.0026 -0.5505 -0.2017
   8423SM  H14T11210   3.572   1.951   4.532  1.2278 -0.4331  0.9513
   8423SM  C15S11211   3.522   1.751   4.600  0.0413  0.7503  0.2355
   8423SM  H15S11212   3.626   1.733   4.635  0.2130  1.4239  0.0941
   8423SM  H15T11213   3.501   1.652   4.554  3.1362 -0.4504  1.1866
   8423SM  C16S11214   3.414   1.795   4.696 -0.3981  0.5551  0.1978
   8423SM  H16S11215   3.332   1.841   4.637 -0.6939 -0.3381 -0.1038
   8423SM  H16T11216   3.473   1.861   4.763  1.9673 -0.8319 -0.4337
   8423SM  C17S11217   3.346   1.684   4.779 -0.1346 -0.8719  0.0937
   8423SM  H17S11218   3.271   1.740   4.839  0.2565  0.5607 -0.6934
   8423SM  H17T11219   3.410   1.615   4.837  0.3658 -2.1082 -1.8323
   8423SM  C18S11220   3.259   1.603   4.689  0.1886 -0.4673 -0.8321
   8423SM  H18S11221   3.175   1.663   4.649 -0.2426 -1.7766 -1.9788
   8423SM  H18T11222   3.236   1.512   4.749  2.1362  0.0278  0.7939
   8423SM  H18U11223   3.323   1.562   4.608  1.6785  0.1374  0.0014
   8423SM   C1F11224   4.428   1.971   3.251 -0.6569 -0.8710 -0.0030
   8423SM    OF11225   4.472   2.074   3.193 -0.0535  0.9914 -0.5225
   8423SM   C2F11226   4.521   1.870   3.322 -0.0374  0.1800 -0.4125
   8423SM   H2F11227   4.611   1.927   3.353  0.3587 -0.5218 -0.2409
   8423SM   H2G11228   4.539   1.795   3.242  2.0865  0.2463 -0.0471
   8423SM   C3F11229   4.472   1.778   3.436  0.4318 -0.0124 -0.2840
   8423SM   H3F11230   4.555   1.714   3.472 -0.8757 -0.8720  1.3113
   8423SM   H3G11231   4.391   1.711   3.401 -0.1467  0.8166 -0.5776
   8423SM   C4F11232   4.421   1.861   3.562  0.1669  0.2823 -0.6122
   8423SM   H4F11233   4.366   1.779   3.614 -1.3758  0.4413 -1.8905
   8423SM   H4G11234   4.334   1.927   3.540  0.3898  1.1556  0.9632
   8423SM   C5F11235   4.527   1.933   3.644  0.5957 -0.9920 -0.3398
   8423SM   H5F11236   4.597   2.001   3.591  0.6681 -0.0351  0.9036
   8423SM   H5G11237   4.597   1.860   3.689  2.8369  0.0193 -2.0061
   8423SM   C6F11238   4.454   2.019   3.760 -0.4811 -0.0832  0.1580
   8423SM   H6F11239   4.373   2.084   3.721  1.3138  1.2592 -1.5273
   8423SM   H6G11240   4.536   2.077   3.808 -1.6023  0.0570  2.0119
   8423SM   C7F11241   4.394   1.939   3.879 -1.0391  0.9845 -0.1149
   8423SM   H7F11242   4.472   1.867   3.913 -0.7794  1.7169  0.8931
   8423SM   H7G11243   4.309   1.882   3.836 -1.1691 -0.2694  1.6915
   8423SM   C8F11244   4.362   2.025   4.005 -0.0085 -0.0566  0.5212
   8423SM   H8F11245   4.309   2.117   3.972 -0.1105  0.6452  2.4988
   8423SM   H8G11246   4.462   2.043   4.050 -0.0010  0.9428  0.1287
   8423SM   C9F11247   4.272   1.932   4.097 -0.0764 -0.1453 -1.0971
   8423SM   H9F11248   4.312   1.829   4.098  1.9671  0.5997 -0.0050
   8423SM   H9G11249   4.177   1.913   4.044 -0.8270 -1.0868  0.5138
   8423SM  C10F11250   4.236   1.992   4.236 -0.2676  0.8881  0.1523
   8423SM  H10F11251   4.194   2.093   4.216 -1.4320  0.4543  0.3640
   8423SM  H10G11252   4.330   2.001   4.295  0.6439  2.1348 -1.3857
   8423SM  C11F11253   4.124   1.903   4.309 -0.3002  0.1231  0.3267
   8423SM  H11F11254   4.166   1.801   4.317  2.4876  1.2811  1.8673
   8423SM  H11G11255   4.033   1.902   4.245  0.4381  0.9910 -0.7839
   8423SM  C12F11256   4.079   1.956   4.446 -0.6297  0.4365 -0.0902
   8423SM  H12F11257   4.163   1.979   4.515  0.5162 -0.3002 -1.2036
   8423SM  H12G11258   4.020   1.872   4.490  0.3917  0.0897  0.6718
   8423SM  C13F11259   3.990   2.079   4.442 -0.9224 -0.0454 -0.3046
   8423SM  H13F11260   3.897   2.073   4.382 -0.5385 -0.1599 -0.8951
   8423SM  H13G11261   4.057   2.157   4.400 -2.4435 -0.0466 -2.8648
   8423SM  C14F11262   3.954   2.120   4.587  0.1819 -0.3608 -0.0362
   8423SM  H14F11263   3.907   2.221   4.585  2.7953  0.9438 -0.5670
   8423SM  H14G11264   4.046   2.135   4.648 -0.6375  1.0289  0.9027
   8423SM  C15F11265   3.864   2.019   4.653 -0.5243 -0.0147 -0.2392
   8423SM  H15F11266   3.924   1.929   4.679  0.5373  0.5405 -0.6949
   8423SM  H15G11267   3.779   1.983   4.590 -0.8342 -0.7142  0.5546
   8423SM  C16F11268   3.811   2.087   4.780  0.3714  0.0180 -0.2393
   8423SM  H16F11269   3.743   2.168   4.746  1.8107  2.2321  1.7887
   8423SM  H16G11270   3.892   2.117   4.851 -1.7408  0.6561  2.0700
   8423SM  C17F11271   3.722   1.982   4.853  0.0165 -0.5588 -0.0306
   8423SM  H17F11272   3.635   1.960   4.788  0.3528 -2.0321 -0.0227
   8423SM  H17G11273   3.694   2.028   4.950 -0.2538 -0.8092  0.0118
   8423SM  C18F11274   3.771   1.841   4.897  0.0439 -0.5246  0.2449
   8423SM  H18F11275   3.864   1.840   4.957 -0.2320  0.9668  0.7337
   8423SM  H18G11276   3.790   1.785   4.802 -1.3184  1.5129 -1.3248
   8423SM  C19F11277   3.671   1.762   4.981  0.4238  0.4384 -0.4659
   8423SM  H19F11278   3.692   1.654   4.968 -0.0581  0.0985  1.2864
   8423SM  H19G11279   3.575   1.780   4.927  0.8257  1.0799 -0.9925
   8423SM  C20F11280   3.663   1.813   5.122 -0.2717 -0.5494 -0.1244
   8423SM  H20F11281   3.645   1.922   5.113 -1.4399 -0.8268 -1.7526
   8423SM  H20G11282   3.765   1.792   5.162  0.1078  1.1984 -0.1161
   8423SM  C21F11283   3.553   1.748   5.203 -0.2432  0.0055  0.3826
   8423SM  H21F11284   3.549   1.638   5.186  0.1523  0.0394  0.0444
   8423SM  H21G11285   3.453   1.787   5.178 -0.6435  0.7435  2.8259
   8423SM  C22F11286   3.544   1.770   5.360  0.2427 -0.4319 -0.1010
   8423SM  H22F11287   3.532   1.878   5.383 -1.5311 -0.4818 -0.6003
   8423SM  H22G11288   3.634   1.730   5.411  0.1475  1.9351  2.1453
   8423SM  C23F11289   3.435   1.686   5.427  1.1319 -0.3784  0.4521
   8423SM  H23F11290   3.335   1.734   5.422  1.9263  1.6815  2.4672
   8423SM  H23G11291   3.462   1.661   5.532  1.0764 -0.8512  0.3608
   8423SM  H23H11292   3.421   1.589   5.374 -0.3096  0.5474 -0.9476
   8523SM     N11293   6.880   5.294   2.997 -0.3070  0.0309 -0.5855
   8523SM   C1511294   6.782   5.237   2.900 -0.5528  0.3078  0.3147
   8523SM  H15A11295   6.695   5.189   2.943 -0.9542  0.9170  0.2052
   8523SM  H15B11296   6.827   5.171   2.827 -2.2038 -0.3609 -0.1655
   8523SM  H15C11297   6.740   5.316   2.839 -0.6694  0.3085  0.3954
   8523SM   C1411298   6.924   5.177   3.077  0.0564 -0.6866 -0.3765
   8523SM  H14A11299   6.836   5.142   3.129 -0.4895  1.3645  0.1733
   8523SM  H14B11300   7.000   5.202   3.149  0.2227 -4.0898  0.8450
   8523SM  H14C11301   6.952   5.100   3.007 -1.6293  0.7649 -2.7856
   8523SM   C1311302   7.001   5.354   2.932 -0.2928 -0.6985  0.4423
   8523SM  H13A11303   6.958   5.422   2.860 -0.7966 -1.4503  0.0234
   8523SM  H13B11304   7.061   5.285   2.876  1.1722  0.0864  0.9647
   8523SM  H13C11305   7.069   5.414   2.992 -1.7051 -1.0103  2.4555
   8523SM   C1211306   6.820   5.401   3.087 -0.1552 -0.1289 -0.2006
   8523SM  H12A11307   6.896   5.430   3.158  1.3105  0.1921 -1.8302
   8523SM  H12B11308   6.739   5.353   3.140 -0.4308 -0.8835 -1.2747
   8523SM   C1111309   6.771   5.536   3.023 -0.0205 -0.5257 -0.9811
   8523SM  H11A11310   6.856   5.583   2.970  0.9864  1.2243  1.9330
   8523SM  H11B11311   6.735   5.605   3.102  0.0457 -0.1835 -1.2473
   8523SM     P11312   6.517   5.528   2.953  0.0671  0.5678  0.0282
   8523SM   O1311313   6.475   5.665   2.940 -0.2864  0.1358  0.6920
   8523SM   O1411314   6.449   5.422   2.878 -0.1772 -0.6911 -0.3326
   8523SM   O1111315   6.500   5.488   3.105  0.2248  0.0815 -0.1376
   8523SM   O1211316   6.669   5.518   2.927 -0.1730  0.4669 -0.2159
   8523SM   C1S11317   6.481   5.349   3.147  0.3015  0.3971  0.1408
   8523SM   H1S11318   6.560   5.283   3.105 -0.3623 -0.5072  0.2867
   8523SM   H1T11319   6.383   5.307   3.115 -0.3105  2.2777 -0.6449
   8523SM    NF11320   6.507   5.197   3.337  0.3582  0.0156  0.3992
   8523SM   HNF11321   6.426   5.146   3.365 -0.2720  1.1131  0.6363
   8523SM   C2S11322   6.482   5.336   3.298  0.4203  0.3077 -0.2617
   8523SM   H2S11323   6.560   5.405   3.335  0.8277  0.4731 -1.3941
   8523SM   C3S11324   6.339   5.384   3.345  0.6343  0.0372 -0.5032
   8523SM   H3S11325   6.265   5.307   3.316  0.3932 -0.1781  0.6312
   8523SM    O311326   6.291   5.497   3.284  0.1654  0.4281  0.4363
   8523SM   HO311327   6.354   5.514   3.214 -0.2624 -2.2724 -0.7154
   8523SM   C4S11328   6.337   5.385   3.492 -0.3278 -0.6328 -0.1007
   8523SM   H4S11329   6.271   5.312   3.542  0.0209  0.0632  1.4573
   8523SM   C5S11330   6.415   5.459   3.576  0.4585 -0.1462 -0.0064
   8523SM   H5S11331   6.481   5.538   3.538  1.8592 -0.5998  1.3812
   8523SM   C6S11332   6.420   5.440   3.726  0.4629 -0.7246  0.8902
   8523SM   H6S11333   6.420   5.540   3.774  0.3727 -0.6852  0.8104
   8523SM   H6T11334   6.520   5.396   3.743  0.2481 -1.3493  0.5889
   8523SM   C7S11335   6.309   5.372   3.814  0.3012  0.4788  0.8790
   8523SM   H7S11336   6.299   5.267   3.778 -1.0755  1.0690 -0.5955
   8523SM   H7T11337   6.212   5.426   3.804 -0.5336 -0.8116  1.6575
   8523SM   C8S11338   6.355   5.357   3.954  0.0649  0.2366  0.2025
   8523SM   H8S11339   6.371   5.459   3.997  0.9906  0.6920 -1.1768
   8523SM   H8T11340   6.461   5.324   3.954  0.6779  2.0356  1.4341
   8523SM   C9S11341   6.261   5.266   4.044 -0.6571  0.2338 -0.4171
   8523SM   H9S11342   6.261   5.165   3.999  2.5617 -0.2334  0.3657
   8523SM   H9T11343   6.156   5.300   4.056 -0.5474  0.0836  1.1806
   8523SM  C10S11344   6.320   5.246   4.188 -0.4195  0.7091 -0.3762
   8523SM  H10S11345   6.412   5.193   4.157 -1.8887 -1.3831 -1.3484
   8523SM  H10T11346   6.253   5.172   4.235 -0.5785  1.2471  0.2691
   8523SM  C11S11347   6.356   5.369   4.273 -0.3221 -0.7362  0.0447
   8523SM  H11S11348   6.267   5.431   4.294 -0.6376 -1.0465 -0.3431
   8523SM  H11T11349   6.428   5.431   4.215 -1.9559  1.2085  0.0102
   8523SM  C12S11350   6.423   5.329   4.410 -0.4398 -0.6511 -0.2151
   8523SM  H12S11351   6.451   5.423   4.462 -0.1096 -1.3910  0.9657
   8523SM  H12T11352   6.520   5.285   4.378  0.1654 -0.4446  1.2742
   8523SM  C13S11353   6.341   5.243   4.507  0.4386 -0.0003  0.2596
   8523SM  H13S11354   6.311   5.150   4.456 -3.3318  1.9228 -1.4251
   8523SM  H13T11355   6.242   5.294   4.508  0.4953  0.3552 -2.5437
   8523SM  C14S11356   6.400   5.225   4.647  0.0250 -0.2681 -0.0426
   8523SM  H14S11357   6.422   5.326   4.687 -0.0618  1.4151 -3.7784
   8523SM  H14T11358   6.491   5.163   4.655  0.5938  0.5651  0.1099
   8523SM  C15S11359   6.292   5.175   4.745  0.0112 -0.3177  0.1002
   8523SM  H15S11360   6.253   5.074   4.722 -0.0649 -0.1679 -0.4319
   8523SM  H15T11361   6.211   5.251   4.751  1.8159  1.6791  0.8231
   8523SM  C16S11362   6.355   5.170   4.888 -0.6177  0.1678  0.1321
   8523SM  H16S11363   6.371   5.275   4.923 -0.4162  0.7874 -1.7035
   8523SM  H16T11364   6.455   5.122   4.882 -0.0147  1.5989 -2.8911
   8523SM  C17S11365   6.266   5.099   4.994 -0.0265 -0.0761  0.9839
   8523SM  H17S11366   6.185   5.164   5.034 -1.3578  1.1305 -3.1939
   8523SM  H17T11367   6.344   5.083   5.071 -0.1974 -0.1710  1.1376
   8523SM  C18S11368   6.217   4.966   4.956 -0.2216  0.0333 -0.2843
   8523SM  H18S11369   6.298   4.898   4.924  0.0212  0.0358  0.3051
   8523SM  H18T11370   6.144   4.967   4.872 -0.9768  1.2530  0.3445
   8523SM  H18U11371   6.162   4.922   5.043  0.5247 -1.1064 -0.3728
   8523SM   C1F11372   6.623   5.131   3.328  0.9590 -0.0562  0.4180
   8523SM    OF11373   6.725   5.190   3.293 -0.0962  0.2316  0.1014
   8523SM   C2F11374   6.618   4.983   3.352 -0.6475 -0.0822 -0.1913
   8523SM   H2F11375   6.604   4.924   3.259  3.8398 -1.5622 -0.1587
   8523SM   H2G11376   6.532   4.956   3.417  0.1092 -2.1727  0.0266
   8523SM   C3F11377   6.747   4.920   3.412  0.2669 -0.2401 -0.1564
   8523SM   H3F11378   6.834   4.950   3.350 -0.7937  0.9633 -1.1158
   8523SM   H3G11379   6.729   4.812   3.391 -0.7499  0.3046 -2.3824
   8523SM   C4F11380   6.759   4.924   3.561 -0.3502 -0.8014 -0.2122
   8523SM   H4F11381   6.655   4.920   3.601 -0.3607  0.7600 -0.0311
   8523SM   H4G11382   6.802   5.024   3.582  2.3658 -2.0136  0.5616
   8523SM   C5F11383   6.848   4.823   3.635 -0.4292  0.0795 -0.1116
   8523SM   H5F11384   6.940   4.811   3.574 -1.9999  1.2069 -2.9129
   8523SM   H5G11385   6.795   4.726   3.639 -0.6635  0.2120  0.0628
   8523SM   C6F11386   6.885   4.860   3.780 -0.5103  0.4758 -0.1257
   8523SM   H6F11387   6.806   4.870   3.857  1.5263  2.5814  1.8464
   8523SM   H6G11388   6.927   4.963   3.781 -1.7705  1.0209  1.3678
   8523SM   C7F11389   6.988   4.765   3.850  0.3155  0.2869 -0.1227
   8523SM   H7F11390   7.086   4.782   3.801 -0.2227  0.1012 -1.2730
   8523SM   H7G11391   6.960   4.660   3.827 -0.9148  0.3143  1.1150
   8523SM   C8F11392   7.004   4.792   4.003 -0.3408  1.1723 -0.4704
   8523SM   H8F11393   6.904   4.769   4.048 -0.2185  1.2456 -0.1580
   8523SM   H8G11394   7.011   4.901   4.020 -4.6643  1.5817 -0.1703
   8523SM   C9F11395   7.115   4.708   4.062 -0.2731  0.1627 -0.0747
   8523SM   H9F11396   7.215   4.735   4.021 -0.5409  0.2463 -0.6813
   8523SM   H9G11397   7.102   4.604   4.025  0.7949 -0.0433  0.0877
   8523SM  C10F11398   7.111   4.721   4.222 -0.7084 -0.0341 -0.5101
   8523SM  H10F11399   7.016   4.677   4.261 -1.4446  1.4867 -0.5063
   8523SM  H10G11400   7.097   4.830   4.238 -0.9743 -0.2000  0.4660
   8523SM  C11F11401   7.234   4.665   4.300 -0.5479  0.4958  1.0662
   8523SM  H11F11402   7.327   4.698   4.249 -0.2820 -0.6326  0.7766
   8523SM  H11G11403   7.239   4.559   4.265 -2.2781  0.7877 -0.1513
   8523SM  C12F11404   7.229   4.675   4.449  0.2451  0.3806  0.1785
   8523SM  H12F11405   7.139   4.628   4.493 -0.1659  0.3870 -0.6302
   8523SM  H12G11406   7.222   4.783   4.477 -2.0183  0.7072 -1.3526
   8523SM  C13F11407   7.341   4.619   4.533  0.8277 -0.6024 -0.5899
   8523SM  H13F11408   7.353   4.511   4.507 -0.9277 -1.0011  0.0920
   8523SM  H13G11409   7.310   4.628   4.639  1.2289  1.9530 -0.6234
   8523SM  C14F11410   7.471   4.699   4.511  0.1155 -1.0365 -0.0384
   8523SM  H14F11411   7.451   4.807   4.527  0.1823 -0.8116 -1.3509
   8523SM  H14G11412   7.519   4.690   4.411  1.2480  1.5347  0.1940
   8523SM  C15F11413   7.585   4.661   4.609  0.1696  0.6264 -0.1692
   8523SM  H15F11414   7.639   4.566   4.587 -2.5342 -1.2287  0.6652
   8523SM  H15G11415   7.542   4.655   4.711 -2.6725 -1.0611 -1.3255
   8523SM  C16F11416   7.695   4.772   4.581 -0.0470  0.6518  0.0862
   8523SM  H16F11417   7.655   4.873   4.601  2.6463  1.7581  0.2872
   8523SM  H16G11418   7.715   4.761   4.472 -0.2478  2.0141 -0.0993
   8523SM  C17F11419   7.821   4.743   4.666 -0.5491  0.1428  0.4371
   8523SM  H17F11420   7.903   4.799   4.616 -1.3175  0.4448 -0.5170
   8523SM  H17G11421   7.843   4.635   4.672  0.3241  0.3905  3.1797
   8523SM  C18F11422   7.801   4.802   4.804 -0.3304 -0.2248  0.6081
   8523SM  H18F11423   7.735   4.738   4.866  0.2479 -0.3467  1.1135
   8523SM  H18G11424   7.758   4.904   4.799  0.8207  0.2733  0.4630
   8523SM  C19F11425   7.927   4.812   4.887  0.6263  0.2386  0.5476
   8523SM  H19F11426   7.961   4.710   4.915  0.4965  0.2564  0.7679
   8523SM  H19G11427   7.900   4.858   4.984 -0.4887 -1.5394  1.1113
   8523SM  C20F11428   8.036   4.889   4.814  0.6161  0.2753 -0.2553
   8523SM  H20F11429   7.985   4.980   4.775  1.4241  0.6100 -0.5446
   8523SM  H20G11430   8.079   4.835   4.727  1.0602  0.0246  0.1139
   8523SM  C21F11431   8.153   4.930   4.900 -0.3297  0.1112  0.2646
   8523SM  H21F11432   8.203   4.841   4.945  2.1309  1.3529  0.1556
   8523SM  H21G11433   8.105   4.981   4.987  0.7729 -0.0875  1.0181
   8523SM  C22F11434   8.258   5.015   4.833  0.4552  0.4833 -0.1317
   8523SM  H22F11435   8.329   4.948   4.779 -1.1147 -0.6084 -0.9313
   8523SM  H22G11436   8.312   5.064   4.917  1.0525 -0.9720  0.3867
   8523SM  C23F11437   8.209   5.131   4.748  0.0296  0.5148  0.4870
   8523SM  H23F11438   8.170   5.086   4.654 -1.9082 -2.0892  2.4175
   8523SM  H23G11439   8.295   5.196   4.718  1.6080 -1.1980  1.0827
   8523SM  H23H11440   8.128   5.192   4.792 -0.1410  0.2793  0.5005
   8623SM     N11441   3.419   0.874   2.548 -0.5187  0.0485 -0.1550
   8623SM   C1511442   3.295   0.812   2.603 -0.5156 -0.0999 -0.1296
   8623SM  H15A11443   3.218   0.878   2.638 -0.0703 -0.2282  1.1280
   8623SM  H15B11444   3.324   0.743   2.682  0.3700  1.9675  1.4433
   8623SM  H15C11445   3.256   0.747   2.526  0.0142 -0.0293 -0.4667
   8623SM   C1411446   3.379   0.957   2.433  0.2503 -0.0081 -0.2822
   8623SM  H14A11447   3.319   0.901   2.362  1.3025 -0.7708 -0.6002
   8623SM  H14B11448   3.464   0.984   2.373 -1.7368  1.1675 -2.7647
   8623SM  H14C11449   3.323   1.046   2.458  0.4916  0.5031 -1.4829
   8623SM   C1311450   3.494   0.957   2.647 -0.0805 -0.3951 -0.6908
   8623SM  H13A11451   3.586   1.005   2.617  0.3939  0.1594  1.4406
   8623SM  H13B11452   3.531   0.896   2.729 -2.6933  0.0568  0.9387
   8623SM  H13C11453   3.433   1.032   2.694  1.1393  1.8310 -2.4916
   8623SM   C1211454   3.515   0.763   2.502 -0.3709  0.3860 -0.0951
   8623SM  H12A11455   3.597   0.816   2.454  0.4472 -0.3204  0.5036
   8623SM  H12B11456   3.468   0.703   2.425  0.0958  0.5264 -0.4952
   8623SM   C1111457   3.572   0.673   2.616 -0.0740  0.4770 -0.2324
   8623SM  H11A11458   3.498   0.604   2.662 -1.6652  2.0005 -0.4249
   8623SM  H11B11459   3.589   0.738   2.705 -0.0895  1.7921 -1.1643
   8623SM     P11460   3.841   0.674   2.594  0.2387  0.0034 -0.1789
   8623SM   O1311461   3.948   0.582   2.548 -0.1590  0.3242  0.6040
   8623SM   O1411462   3.832   0.807   2.530  0.0931  0.0193 -0.3697
   8623SM   O1111463   3.857   0.690   2.752 -0.0629  0.0669  0.8188
   8623SM   O1211464   3.694   0.606   2.590 -0.0004 -0.4634  0.2257
   8623SM   C1S11465   3.800   0.592   2.846 -0.3376 -0.3914  0.7009
   8623SM   H1S11466   3.868   0.504   2.850  0.1534 -0.0052  1.0006
   8623SM   H1T11467   3.696   0.559   2.823 -0.4963  0.3968  0.2844
   8623SM    NF11468   3.762   0.566   3.086  0.1173 -0.7611  0.2751
   8623SM   HNF11469   3.677   0.591   3.131  2.3447  3.5987  2.6821
   8623SM   C2S11470   3.792   0.662   2.982  0.0568 -0.7272  0.0576
   8623SM   H2S11471   3.889   0.705   3.015  0.5568 -2.8655  1.5740
   8623SM   C3S11472   3.694   0.787   2.972 -0.2242 -0.1859 -0.0288
   8623SM   H3S11473   3.595   0.754   2.934 -0.0068  0.8786 -1.6229
   8623SM    O311474   3.738   0.886   2.872 -0.3715 -0.0593  0.7451
   8623SM   HO311475   3.801   0.840   2.816 -1.0854  0.4003 -0.4621
   8623SM   C4S11476   3.680   0.853   3.107 -0.3121  0.0704 -0.9576
   8623SM   H4S11477   3.597   0.810   3.164 -0.6413 -0.5800 -1.9025
   8623SM   C5S11478   3.753   0.958   3.158  0.1530  0.6337 -0.3878
   8623SM   H5S11479   3.816   1.013   3.087  2.3749 -0.1804  0.8542
   8623SM   C6S11480   3.719   1.024   3.289 -0.3109 -0.1397 -0.4521
   8623SM   H6S11481   3.668   1.120   3.264  0.4646  0.4774  0.2718
   8623SM   H6T11482   3.817   1.051   3.334 -0.7541  0.8356 -0.0352
   8623SM   C7S11483   3.645   0.937   3.394  0.0184 -0.5055  0.5429
   8623SM   H7S11484   3.710   0.847   3.406  1.1366  0.3220  0.8903
   8623SM   H7T11485   3.542   0.905   3.366 -0.1401 -0.5922  1.2179
   8623SM   C8S11486   3.624   1.021   3.525  0.1101  0.8545 -0.5161
   8623SM   H8S11487   3.554   1.106   3.513 -1.9708 -0.7684 -0.4390
   8623SM   H8T11488   3.726   1.053   3.556  1.4590 -2.1427 -1.5107
   8623SM   C9S11489   3.562   0.945   3.639  0.1857  0.9311 -0.9333
   8623SM   H9S11490   3.607   0.844   3.644  1.5514  1.5909  1.7813
   8623SM   H9T11491   3.453   0.935   3.615 -0.3769  0.2531  1.6296
   8623SM  C10S11492   3.577   1.004   3.779 -0.1379  0.6181 -0.8313
   8623SM  H10S11493   3.523   0.933   3.846  0.9061 -1.0574 -1.6823
   8623SM  H10T11494   3.532   1.105   3.782 -1.3306  0.1013  2.1438
   8623SM  C11S11495   3.719   1.006   3.839 -0.0889  0.0332 -0.5893
   8623SM  H11S11496   3.785   1.074   3.782  1.0745  0.4378  1.1567
   8623SM  H11T11497   3.747   0.899   3.826  1.5141  0.5641 -1.7383
   8623SM  C12S11498   3.711   1.060   3.986  0.7730 -0.4046 -0.0816
   8623SM  H12S11499   3.635   1.139   4.001  1.1878 -0.1706  0.8572
   8623SM  H12T11500   3.806   1.107   4.017  0.6851 -0.1315 -0.2246
   8623SM  C13S11501   3.683   0.939   4.086 -0.4552 -0.8856 -0.1823
   8623SM  H13S11502   3.770   0.871   4.076  0.3086 -0.2239  1.6369
   8623SM  H13T11503   3.593   0.885   4.049  1.0255 -2.1498 -2.1496
   8623SM  C14S11504   3.672   0.983   4.232  0.4187  0.8234  0.7947
   8623SM  H14S11505   3.569   1.024   4.238 -0.6656 -1.5665 -0.2358
   8623SM  H14T11506   3.751   1.058   4.255 -0.0059  1.2908  0.7562
   8623SM  C15S11507   3.692   0.865   4.325 -0.0024 -0.1221 -0.5686
   8623SM  H15S11508   3.794   0.831   4.351 -0.7553 -2.3560 -0.2916
   8623SM  H15T11509   3.637   0.774   4.293  0.6736 -0.3584 -1.0859
   8623SM  C16S11510   3.634   0.908   4.461  0.0477 -0.1156 -0.8014
   8623SM  H16S11511   3.528   0.933   4.437 -1.1994 -1.8191  2.3962
   8623SM  H16T11512   3.688   0.998   4.498 -1.0090 -0.7341  2.5350
   8623SM  C17S11513   3.630   0.804   4.581 -0.0063 -0.5682 -0.1361
   8623SM  H17S11514   3.726   0.812   4.636  0.7043 -0.4101 -1.3680
   8623SM  H17T11515   3.618   0.696   4.559  2.2175 -0.9871  0.4579
   8623SM  C18S11516   3.521   0.844   4.681  0.2770  0.1746  0.6897
   8623SM  H18S11517   3.432   0.851   4.615  0.3973  1.0151  0.6124
   8623SM  H18T11518   3.540   0.948   4.713 -1.6006  0.4976  0.8437
   8623SM  H18U11519   3.490   0.774   4.762 -0.1514 -0.5167 -0.0553
   8623SM   C1F11520   3.830   0.455   3.116 -0.4090 -0.6034 -0.0991
   8623SM    OF11521   3.945   0.448   3.078 -0.2640  0.6353 -0.6967
   8623SM   C2F11522   3.762   0.351   3.195 -0.0802 -0.0137  0.1953
   8623SM   H2F11523   3.789   0.249   3.159 -0.5046  0.3828 -1.3046
   8623SM   H2G11524   3.652   0.366   3.188  0.2158  2.6749  0.3602
   8623SM   C3F11525   3.802   0.357   3.346  0.8327 -0.5859 -0.1921
   8623SM   H3F11526   3.790   0.459   3.390 -1.7521  0.0808 -2.1558
   8623SM   H3G11527   3.907   0.329   3.366  0.8201  0.3512  1.3915
   8623SM   C4F11528   3.715   0.267   3.429  0.8945 -0.8498 -0.1754
   8623SM   H4F11529   3.722   0.166   3.385 -1.0161 -1.2272  0.2984
   8623SM   H4G11530   3.607   0.292   3.426  0.5345 -0.6422  5.0173
   8623SM   C5F11531   3.760   0.253   3.576 -0.2652 -0.0770 -0.0751
   8623SM   H5F11532   3.760   0.353   3.625 -0.1280  0.5510 -1.3225
   8623SM   H5G11533   3.866   0.218   3.574 -0.5668 -0.9731 -0.8464
   8623SM   C6F11534   3.672   0.154   3.655 -0.1308 -0.2268  0.0222
   8623SM   H6F11535   3.705   0.156   3.761 -0.5990 -1.0220  0.1902
   8623SM   H6G11536   3.697   0.053   3.617  0.3259 -0.1533  0.1304
   8623SM   C7F11537   3.517   0.180   3.646  0.2234  0.4650 -0.0245
   8623SM   H7F11538   3.480   0.165   3.542 -1.0896  1.6016  0.2492
   8623SM   H7G11539   3.493   0.287   3.663 -2.1290 -0.0416  0.2012
   8623SM   C8F11540   3.435   0.090   3.747 -0.4885  0.4520  0.2369
   8623SM   H8F11541   3.467  -0.016   3.744  2.0192  1.0603  2.3441
   8623SM   H8G11542   3.331   0.089   3.707 -0.4982  0.3942  0.2633
   8623SM   C9F11543   3.455   0.129   3.893  0.1321 -0.3702 -0.9090
   8623SM   H9F11544   3.427   0.236   3.895 -0.2818 -0.4077 -2.6193
   8623SM   H9G11545   3.557   0.116   3.933 -1.5236  0.9619  4.5155
   8623SM  C10F11546   3.354   0.055   3.987 -0.1353 -0.2082  0.5528
   8623SM  H10F11547   3.393  -0.049   3.989  1.0520  0.1541 -1.2267
   8623SM  H10G11548   3.254   0.055   3.940  1.1352  2.2304 -2.4479
   8623SM  C11F11549   3.365   0.117   4.133 -0.1658  0.1554  0.3565
   8623SM  H11F11550   3.327   0.222   4.136 -2.5775 -0.4464 -3.0242
   8623SM  H11G11551   3.471   0.111   4.164  0.6704 -0.6236 -2.3743
   8623SM  C12F11552   3.285   0.038   4.236  0.0855  0.2613  0.5123
   8623SM  H12F11553   3.283  -0.071   4.215  1.6045  0.4607 -0.9453
   8623SM  H12G11554   3.182   0.079   4.239  0.2279  0.8471 -1.3898
   8623SM  C13F11555   3.360   0.046   4.374 -0.0349 -0.1855 -0.3195
   8623SM  H13F11556   3.371   0.156   4.391  3.0340 -0.0027 -2.6920
   8623SM  H13G11557   3.460   0.004   4.354  0.3654  1.0630 -1.0557
   8623SM  C14F11558   3.279  -0.021   4.484 -0.0323  0.1978 -0.1679
   8623SM  H14F11559   3.309  -0.127   4.466 -0.2479  0.5758 -3.3974
   8623SM  H14G11560   3.171  -0.008   4.460  0.6645  1.3928 -3.0489
   8623SM  C15F11561   3.320   0.045   4.617  0.3907 -0.1213 -0.4580
   8623SM  H15F11562   3.302   0.154   4.608  0.0653  0.0798  2.1402
   8623SM  H15G11563   3.430   0.036   4.630  0.3833 -0.2965 -0.5135
   8623SM  C16F11564   3.256  -0.021   4.739 -0.5685 -0.6591  0.1517
   8623SM  H16F11565   3.281  -0.130   4.740 -1.5714 -0.9371 -1.6891
   8623SM  H16G11566   3.145  -0.013   4.735 -0.6498  1.6455  3.2808
   8623SM  C17F11567   3.306   0.040   4.869 -0.4195 -0.5024 -0.4352
   8623SM  H17F11568   3.287   0.149   4.860  2.2031 -0.0249 -0.9565
   8623SM  H17G11569   3.416   0.025   4.878 -0.3907 -1.0490 -1.5052
   8623SM  C18F11570   3.242  -0.023   4.997  0.4900 -0.8810  0.2842
   8623SM  H18F11571   3.273  -0.130   4.997  2.6729 -0.3172  1.1548
   8623SM  H18G11572   3.132  -0.023   4.984  0.3546  0.7288  1.1962
   8623SM  C19F11573   3.276   0.052   5.126  0.4335  0.8019 -0.1773
   8623SM  H19F11574   3.222   0.149   5.118  0.8344  1.0646  0.3198
   8623SM  H19G11575   3.385   0.070   5.133  0.3637  1.4496 -0.6376
   8623SM  C20F11576   3.239  -0.032   5.250  0.1985 -0.1706 -1.2406
   8623SM  H20F11577   3.301   0.013   5.331 -0.9175  1.8595 -1.4530
   8623SM  H20G11578   3.264  -0.140   5.237 -1.1697 -0.4096 -2.1075
   8623SM  C21F11579   3.095  -0.030   5.309 -0.0545  0.6757  0.2101
   8623SM  H21F11580   3.023  -0.043   5.225 -1.3477  3.9860  0.6635
   8623SM  H21G11581   3.065   0.067   5.353 -0.9535 -0.4134  2.1362
   8623SM  C22F11582   3.061  -0.128   5.425  0.0356 -0.0449  0.3073
   8623SM  H22F11583   3.150  -0.129   5.491  0.0606  1.5592  0.3375
   8623SM  H22G11584   3.040  -0.225   5.375 -4.1137  1.1702 -0.7308
   8623SM  C23F11585   2.923  -0.101   5.490 -0.7418  0.4347 -0.3433
   8623SM  H23F11586   2.848  -0.069   5.414 -1.1887  2.3717  0.8508
   8623SM  H23G11587   2.940  -0.018   5.562 -1.2305 -0.9394  1.4229
   8623SM  H23H11588   2.876  -0.184   5.546  0.2869  1.2501  1.8477
   8723SM     N11589   5.569   1.872   2.766 -0.0725  0.2653 -0.2997
   8723SM   C1511590   5.640   1.745   2.727  0.4280 -0.6315 -0.1630
   8723SM  H15A11591   5.710   1.722   2.806 -0.6628  2.7371  1.9979
   8723SM  H15B11592   5.690   1.752   2.632  2.4414 -2.6023  0.6635
   8723SM  H15C11593   5.577   1.658   2.732  2.2524 -1.9868  0.4108
   8723SM   C1411594   5.672   1.981   2.765  0.5247  0.2809 -0.2227
   8723SM  H14A11595   5.722   1.980   2.669  2.1530 -2.3588  0.5577
   8723SM  H14B11596   5.749   1.955   2.835  0.4904  1.1759  0.1528
   8723SM  H14C11597   5.628   2.078   2.783 -1.3652 -0.4035 -0.8309
   8723SM   C1311598   5.466   1.909   2.665 -0.0651  0.3187  0.7573
   8723SM  H13A11599   5.406   1.989   2.704  0.4061  3.0051 -3.4012
   8723SM  H13B11600   5.397   1.826   2.654  0.7883 -0.5420  1.5795
   8723SM  H13C11601   5.513   1.944   2.574  1.1547 -2.2945  0.2688
   8723SM   C1211602   5.507   1.852   2.899  0.6448 -0.4986 -0.3440
   8723SM  H12A11603   5.589   1.812   2.957  0.1352 -0.7760  0.1920
   8723SM  H12B11604   5.436   1.771   2.899  1.7699 -1.5739  1.9237
   8723SM   C1111605   5.442   1.977   2.964  0.3853  0.1874  0.0827
   8723SM  H11A11606   5.526   2.045   2.988  1.8007 -1.5402  0.2822
   8723SM  H11B11607   5.403   1.952   3.065  3.0551 -1.5541  0.7844
   8723SM     P11608   5.193   2.053   2.922 -0.2138  0.3598 -0.0628
   8723SM   O1311609   5.125   2.138   2.820 -0.3201  0.2021  0.5801
   8723SM   O1411610   5.137   1.914   2.928  0.5308  0.2251  0.0202
   8723SM   O1111611   5.201   2.108   3.067  0.5424  0.0134  0.2881
   8723SM   O1211612   5.348   2.035   2.874 -0.1228  0.3219  0.3963
   8723SM   C1S11613   5.089   2.110   3.149  1.1309 -0.6009 -0.2969
   8723SM   H1S11614   5.046   2.009   3.167  0.9903 -0.4182  0.4199
   8723SM   H1T11615   5.010   2.180   3.115  0.4740 -1.4206 -0.5027
   8723SM    NF11616   5.017   2.143   3.386 -0.8833  0.1208  0.3473
   8723SM   HNF11617   4.970   2.226   3.415 -1.7094 -0.5977  1.1257
   8723SM   C2S11618   5.122   2.171   3.288 -0.9646 -0.4580 -0.0822
   8723SM   H2S11619   5.207   2.104   3.313  0.7368 -0.0870 -4.1300
   8723SM   C3S11620   5.168   2.324   3.285  0.1862  0.1676 -0.3230
   8723SM   H3S11621   5.086   2.383   3.239 -0.6910 -0.3672  0.5150
   8723SM    O311622   5.275   2.343   3.192 -0.2056 -0.4630  0.8735
   8723SM   HO311623   5.275   2.261   3.142  0.2993  0.0011  0.1091
   8723SM   C4S11624   5.201   2.390   3.422 -0.0001 -0.0645  0.0970
   8723SM   H4S11625   5.245   2.312   3.486 -1.0809 -0.7156  0.0837
   8723SM   C5S11626   5.189   2.517   3.460 -0.0883 -0.3573  0.2426
   8723SM   H5S11627   5.136   2.587   3.393  0.3376 -0.4259 -0.1703
   8723SM   C6S11628   5.216   2.579   3.597 -0.3798  0.4829 -0.2192
   8723SM   H6S11629   5.290   2.662   3.603  0.6856 -0.4243 -0.4858
   8723SM   H6T11630   5.249   2.502   3.670 -0.7441 -0.3101 -0.8837
   8723SM   C7S11631   5.091   2.629   3.676  1.2035  0.5615 -0.5020
   8723SM   H7S11632   5.035   2.535   3.695  1.3807  0.8468  1.6418
   8723SM   H7T11633   5.027   2.700   3.619 -0.1304 -1.6388 -1.8826
   8723SM   C8S11634   5.119   2.693   3.813 -0.1724  0.4456  0.0941
   8723SM   H8S11635   5.200   2.769   3.817 -0.6440  0.8811  2.1164
   8723SM   H8T11636   5.153   2.602   3.867  2.6809  1.3656  0.0079
   8723SM   C9S11637   5.001   2.754   3.887 -0.2039  0.0237  0.1927
   8723SM   H9S11638   4.989   2.854   3.841  1.9725  0.3623  0.2679
   8723SM   H9T11639   5.026   2.775   3.993 -1.7563 -0.2150  0.6292
   8723SM  C10S11640   4.871   2.672   3.884  0.2343 -0.2455 -0.5200
   8723SM  H10S11641   4.877   2.583   3.949  0.4230 -0.0926 -0.3256
   8723SM  H10T11642   4.848   2.641   3.780 -0.1059  0.2546 -0.6014
   8723SM  C11S11643   4.759   2.757   3.940  0.0856 -0.2456  0.4535
   8723SM  H11S11644   4.665   2.704   3.914  0.7636 -1.9886  1.4052
   8723SM  H11T11645   4.762   2.851   3.881 -0.2749 -1.2392 -1.1893
   8723SM  C12S11646   4.752   2.784   4.088  0.0881 -0.2990  0.1460
   8723SM  H12S11647   4.830   2.863   4.096 -0.5932  0.4207 -0.1543
   8723SM  H12T11648   4.778   2.700   4.155  0.2595 -0.7116 -0.4240
   8723SM  C13S11649   4.611   2.831   4.120  0.4906  0.3232  0.6335
   8723SM  H13S11650   4.542   2.754   4.080 -0.6287  0.5155  2.1019
   8723SM  H13T11651   4.589   2.926   4.065 -0.6974 -0.0029  0.5167
   8723SM  C14S11652   4.595   2.857   4.272  0.0621  0.2924 -0.1374
   8723SM  H14S11653   4.639   2.957   4.290  0.2778  0.5637 -1.9193
   8723SM  H14T11654   4.641   2.774   4.329 -2.6475 -0.5923  0.9078
   8723SM  C15S11655   4.450   2.879   4.308 -0.3906 -0.6860 -0.4483
   8723SM  H15S11656   4.405   2.778   4.314  0.2878 -0.9251  4.4959
   8723SM  H15T11657   4.400   2.952   4.241 -0.1079 -0.2076 -0.1447
   8723SM  C16S11658   4.450   2.941   4.457  0.0665 -0.0648 -0.0101
   8723SM  H16S11659   4.346   2.967   4.486 -0.0085 -0.7151  0.3343
   8723SM  H16T11660   4.518   3.028   4.451  1.6838 -1.3610 -1.9828
   8723SM  C17S11661   4.498   2.851   4.571  0.1966  0.1721 -0.3872
   8723SM  H17S11662   4.590   2.796   4.543  0.5651 -0.6559  2.1661
   8723SM  H17T11663   4.414   2.782   4.592 -0.5185  1.5007  1.4458
   8723SM  C18S11664   4.524   2.939   4.696 -0.0287 -0.0867  0.6741
   8723SM  H18S11665   4.602   3.017   4.682 -1.0151  0.6716 -0.8352
   8723SM  H18T11666   4.552   2.878   4.785  1.6217  0.4700  0.5681
   8723SM  H18U11667   4.426   2.981   4.726 -1.6726 -3.4972  0.6394
   8723SM   C1F11668   4.997   2.021   3.435 -0.4644 -0.5055  0.1365
   8723SM    OF11669   5.076   1.930   3.404  0.0269 -0.0353  0.5877
   8723SM   C2F11670   4.881   2.005   3.529 -0.2314 -0.0345 -0.3179
   8723SM   H2F11671   4.839   1.902   3.527 -2.6833  0.8909 -2.2825
   8723SM   H2G11672   4.801   2.075   3.495  0.8068  0.8950 -0.9034
   8723SM   C3F11673   4.930   2.049   3.668 -0.8318 -0.8598 -0.0312
   8723SM   H3F11674   4.971   2.152   3.657 -2.1413 -0.2976  0.1723
   8723SM   H3G11675   5.011   1.988   3.714  0.7558  1.5306  0.5434
   8723SM   C4F11676   4.830   2.075   3.775  0.8170 -0.5331  0.0888
   8723SM   H4F11677   4.782   1.975   3.770 -0.0342 -0.0826 -1.6715
   8723SM   H4G11678   4.759   2.152   3.738  0.7551  0.7647  2.6823
   8723SM   C5F11679   4.887   2.105   3.915  0.8934 -0.6926 -0.6509
   8723SM   H5F11680   4.912   2.213   3.927  0.9896 -0.9076  1.5052
   8723SM   H5G11681   4.978   2.044   3.928  0.2406 -1.3205  1.2578
   8723SM   C6F11682   4.792   2.047   4.025 -0.0875 -0.3263 -1.1190
   8723SM   H6F11683   4.789   1.938   4.004 -1.2675 -0.3288 -0.9986
   8723SM   H6G11684   4.685   2.078   4.024 -0.0454 -0.1749 -0.9169
   8723SM   C7F11685   4.850   2.071   4.164  0.3707  0.3593 -0.1502
   8723SM   H7F11686   4.848   2.177   4.197  1.8118  0.8075 -1.3797
   8723SM   H7G11687   4.958   2.042   4.159  0.5310  0.9870 -0.3960
   8723SM   C8F11688   4.792   1.979   4.276  0.7048 -0.6369 -0.5608
   8723SM   H8F11689   4.789   1.874   4.240 -1.3975 -0.3274 -1.4162
   8723SM   H8G11690   4.687   2.012   4.287  0.1855 -1.8752 -1.6230
   8723SM   C9F11691   4.872   2.007   4.402  0.8086 -0.2421 -0.1787
   8723SM   H9F11692   4.881   2.117   4.415 -1.2525  0.1061 -1.2872
   8723SM   H9G11693   4.968   1.955   4.380  1.3494  0.4571  0.4763
   8723SM  C10F11694   4.812   1.940   4.519 -0.0076  0.0859 -0.0817
   8723SM  H10F11695   4.837   1.833   4.507  2.0870  0.7028 -1.9660
   8723SM  H10G11696   4.704   1.960   4.533  0.2008  0.6531  0.7853
   8723SM  C11F11697   4.889   1.989   4.647 -0.3089 -0.2498 -0.4618
   8723SM  H11F11698   4.884   2.099   4.663 -1.8340 -0.5370  1.4637
   8723SM  H11G11699   4.996   1.970   4.625 -0.1832  0.2224 -0.2791
   8723SM  C12F11700   4.849   1.920   4.776 -0.6603  0.5593  0.0745
   8723SM  H12F11701   4.859   1.809   4.767 -2.3395  0.2566  1.5128
   8723SM  H12G11702   4.743   1.946   4.795 -0.4993  1.4325 -0.1974
   8723SM  C13F11703   4.934   1.975   4.889 -0.0991 -0.2513  1.0707
   8723SM  H13F11704   4.921   2.085   4.894  1.0332 -0.1173  1.4269
   8723SM  H13G11705   5.039   1.946   4.869 -1.1521 -3.5483 -0.4731
   8723SM  C14F11706   4.896   1.924   5.031 -0.5126  0.4420  0.5893
   8723SM  H14F11707   4.910   1.815   5.043  0.0083  0.6399  1.9159
   8723SM  H14G11708   4.786   1.943   5.031 -0.4509  0.9127  2.3912
   8723SM  C15F11709   4.983   1.989   5.142  0.7853  0.0489  0.5050
   8723SM  H15F11710   4.976   2.099   5.129  1.3383  0.1292  0.8576
   8723SM  H15G11711   5.089   1.955   5.136  0.6680 -0.2030 -0.4303
   8723SM  C16F11712   4.920   1.937   5.271 -0.1961 -0.4884 -0.2617
   8723SM  H16F11713   4.900   1.828   5.265 -1.7596 -0.3811  1.7599
   8723SM  H16G11714   4.820   1.983   5.290  0.5709  0.5383  1.4990
   8723SM  C17F11715   5.014   1.964   5.400  0.0483  0.5484  0.7738
   8723SM  H17F11716   5.035   2.071   5.420  2.1043 -0.0710  2.2543
   8723SM  H17G11717   5.114   1.917   5.390 -0.2555  0.1001 -0.3557
   8723SM  C18F11718   4.956   1.901   5.527 -0.0734  0.0505 -0.6215
   8723SM  H18F11719   4.923   1.798   5.503 -2.2477  0.6516 -0.4778
   8723SM  H18G11720   4.861   1.951   5.558 -0.1227  1.0680 -2.2892
   8723SM  C19F11721   5.065   1.906   5.631  0.8054 -0.8188  0.3070
   8723SM  H19F11722   5.075   2.013   5.661  2.5640 -0.7594 -0.3448
   8723SM  H19G11723   5.167   1.879   5.596  1.0864 -1.1023  1.2946
   8723SM  C20F11724   5.048   1.827   5.759  0.4699  0.0522  0.1650
   8723SM  H20F11725   5.053   1.723   5.718  0.7727  0.9937 -2.4071
   8723SM  H20G11726   4.956   1.850   5.817 -0.1039 -0.5794 -0.4753
   8723SM  C21F11727   5.162   1.846   5.860 -0.3064 -0.8162 -0.1728
   8723SM  H21F11728   5.263   1.829   5.818 -0.4062 -0.4488 -0.5602
   8723SM  H21G11729   5.163   1.764   5.936 -1.5913 -2.2377 -1.6142
   8723SM  C22F11730   5.142   1.986   5.931 -0.9303  0.5711 -0.1586
   8723SM  H22F11731   5.035   2.000   5.958 -0.5161  1.5743  1.0974
   8723SM  H22G11732   5.175   2.073   5.870 -2.0565  0.3006 -1.2003
   8723SM  C23F11733   5.227   1.998   6.057  0.1988 -0.4900  0.1961
   8723SM  H23F11734   5.223   2.100   6.101 -0.5560 -0.4323  0.0121
   8723SM  H23G11735   5.333   1.981   6.030  0.7941  0.0400  2.0861
   8723SM  H23H11736   5.201   1.917   6.128 -0.4332 -0.5595 -0.1063
   8823SM     N11737   2.609   2.053   2.487  0.0695  0.0237 -0.5131
   8823SM   C1511738   2.528   2.170   2.442 -0.1606 -0.0735 -0.0695
   8823SM  H15A11739   2.507   2.157   2.337  1.1754  1.0311 -0.5039
   8823SM  H15B11740   2.587   2.260   2.444  1.2371 -0.9652  0.7303
   8823SM  H15C11741   2.434   2.181   2.495 -0.1248  1.3531 -0.2521
   8823SM   C1411742   2.519   1.926   2.467  0.1756 -0.3142 -0.9622
   8823SM  H14A11743   2.465   1.930   2.374 -1.3768  1.4425 -0.0396
   8823SM  H14B11744   2.447   1.929   2.547  0.1038 -2.2578 -0.9010
   8823SM  H14C11745   2.571   1.832   2.477  0.9743  0.1609 -0.5329
   8823SM   C1311746   2.725   2.033   2.392  0.6793 -0.3232 -0.1685
   8823SM  H13A11747   2.764   1.934   2.411 -2.1151 -1.2701  1.0392
   8823SM  H13B11748   2.797   2.110   2.416 -1.1130  0.5056  3.0873
   8823SM  H13C11749   2.687   2.045   2.292 -1.7797  2.5949  0.9584
   8823SM   C1211750   2.659   2.060   2.625  0.3031 -0.1790 -0.2556
   8823SM  H12A11751   2.723   2.147   2.637 -1.3540  1.2413 -1.3310
   8823SM  H12B11752   2.717   1.971   2.645 -2.2614 -1.4263  2.4061
   8823SM   C1111753   2.549   2.059   2.740 -0.2262  0.1787 -0.5936
   8823SM  H11A11754   2.472   2.139   2.730 -0.0228  0.6577  1.2557
   8823SM  H11B11755   2.604   2.091   2.831 -0.6248  0.5801 -0.4901
   8823SM     P11756   2.572   1.817   2.840  0.0686  0.1552 -0.4932
   8823SM   O1311757   2.476   1.712   2.858  0.2320 -0.3320 -0.0587
   8823SM   O1411758   2.692   1.773   2.767 -0.5372 -0.0354 -0.5645
   8823SM   O1111759   2.600   1.885   2.978 -0.5767  0.7725  0.1446
   8823SM   O1211760   2.498   1.930   2.752 -0.3594 -0.4090  0.4371
   8823SM   C1S11761   2.496   1.938   3.050 -0.9376  0.1461  0.3882
   8823SM   H1S11762   2.417   1.864   3.073 -1.8534  0.5956 -1.2299
   8823SM   H1T11763   2.449   2.023   2.997 -0.2336  0.0702 -0.3907
   8823SM    NF11764   2.461   2.097   3.232  0.4143 -0.1962  0.0857
   8823SM   HNF11765   2.489   2.190   3.208  0.3650  0.2710  1.7165
   8823SM   C2S11766   2.553   1.991   3.186 -0.6756  0.4512  0.0249
   8823SM   H2S11767   2.548   1.913   3.265 -0.0943 -0.5114 -0.8744
   8823SM   C3S11768   2.707   2.032   3.177  0.0208 -0.4988 -0.0751
   8823SM   H3S11769   2.712   2.105   3.093 -0.2274  1.5735  1.6313
   8823SM    O311770   2.793   1.921   3.156  0.1831  0.2658  0.0621
   8823SM   HO311771   2.736   1.871   3.097 -1.7254  2.2626  0.0857
   8823SM   C4S11772   2.742   2.117   3.297  0.5072 -0.1092 -0.2287
   8823SM   H4S11773   2.718   2.224   3.286  0.1534 -0.1975 -0.3267
   8823SM   C5S11774   2.800   2.062   3.406  0.1366  0.2372 -0.4964
   8823SM   H5S11775   2.835   1.958   3.409  2.4520  1.0042  1.1312
   8823SM   C6S11776   2.843   2.141   3.529 -0.4095  0.1266  0.0131
   8823SM   H6S11777   2.788   2.107   3.619 -1.1178 -0.3308 -0.5821
   8823SM   H6T11778   2.813   2.248   3.528  0.1901  0.3542  2.1237
   8823SM   C7S11779   2.988   2.128   3.563 -0.4508 -0.6502  0.4126
   8823SM   H7S11780   3.059   2.166   3.486 -0.3108 -1.0919  0.3244
   8823SM   H7T11781   3.004   2.018   3.565 -1.7022 -0.8383  1.1331
   8823SM   C8S11782   3.025   2.186   3.704 -0.3863 -0.7391 -0.3159
   8823SM   H8S11783   2.968   2.122   3.774 -1.5723  2.3308  1.7381
   8823SM   H8T11784   2.992   2.292   3.706 -1.1914 -0.9196 -1.7893
   8823SM   C9S11785   3.180   2.165   3.736  0.7766 -0.5633  0.4104
   8823SM   H9S11786   3.249   2.193   3.652  2.1332  0.5253  1.8315
   8823SM   H9T11787   3.198   2.056   3.751  0.9127 -0.8941 -1.7060
   8823SM  C10S11788   3.216   2.244   3.866 -0.0213 -0.0671  0.3746
   8823SM  H10S11789   3.132   2.226   3.937 -2.3638  2.4408 -1.5190
   8823SM  H10T11790   3.228   2.352   3.842 -1.4613 -0.0232 -0.2612
   8823SM  C11S11791   3.349   2.202   3.923  0.0995 -0.5840 -0.2563
   8823SM  H11S11792   3.422   2.221   3.842 -0.5345  0.1464 -0.6646
   8823SM  H11T11793   3.356   2.094   3.947 -0.7443 -0.7502 -0.7138
   8823SM  C12S11794   3.385   2.274   4.060  0.1395  0.0042  0.4510
   8823SM  H12S11795   3.306   2.254   4.136 -0.3886  1.3247  0.2781
   8823SM  H12T11796   3.397   2.384   4.043  1.5333 -0.2359 -0.2865
   8823SM  C13S11797   3.520   2.236   4.123 -0.9103  0.4465 -1.3008
   8823SM  H13S11798   3.607   2.220   4.056 -0.1608  0.9529 -0.4640
   8823SM  H13T11799   3.510   2.138   4.175 -1.9729  1.2488  0.0713
   8823SM  C14S11800   3.563   2.335   4.243  0.1310 -0.8797 -0.4753
   8823SM  H14S11801   3.611   2.280   4.327  0.2540  0.8344  0.6405
   8823SM  H14T11802   3.471   2.383   4.284 -0.7466 -2.2878 -0.7151
   8823SM  C15S11803   3.659   2.449   4.202  0.5291  0.1151  0.3613
   8823SM  H15S11804   3.611   2.517   4.129  1.6271 -0.3688 -0.8520
   8823SM  H15T11805   3.737   2.393   4.146 -0.3874  0.1454 -1.0000
   8823SM  C16S11806   3.715   2.526   4.316 -0.3781  0.2058  0.0763
   8823SM  H16S11807   3.793   2.597   4.281  1.3637 -2.1639 -1.1239
   8823SM  H16T11808   3.762   2.447   4.378 -2.0447 -0.1826  0.8990
   8823SM  C17S11809   3.601   2.598   4.398 -0.4521 -0.4967 -0.6562
   8823SM  H17S11810   3.524   2.525   4.429  0.6882 -1.0897  0.9054
   8823SM  H17T11811   3.546   2.672   4.336 -2.1095 -0.9222  0.2536
   8823SM  C18S11812   3.659   2.666   4.528 -0.3284  0.1152 -0.5133
   8823SM  H18S11813   3.581   2.716   4.589 -0.2151  1.4394 -1.4136
   8823SM  H18T11814   3.736   2.741   4.499 -0.4820  0.4550 -0.0547
   8823SM  H18U11815   3.703   2.585   4.591  1.1728  1.0503 -0.2984
   8823SM   C1F11816   2.336   2.073   3.271  0.1448 -0.8201  0.3869
   8823SM    OF11817   2.297   1.959   3.283 -0.5789 -0.1461  0.1391
   8823SM   C2F11818   2.249   2.193   3.289 -0.8454  0.3613 -0.1308
   8823SM   H2F11819   2.188   2.207   3.197 -1.9299  0.3982  0.5718
   8823SM   H2G11820   2.316   2.280   3.303  0.4552 -0.2323 -2.2571
   8823SM   C3F11821   2.155   2.180   3.405 -0.1293 -0.7473 -0.4345
   8823SM   H3F11822   2.216   2.167   3.497 -1.7289  0.0677  0.7887
   8823SM   H3G11823   2.083   2.100   3.378  0.0005 -1.1617  0.4029
   8823SM   C4F11824   2.063   2.308   3.429  0.3120 -0.0342 -0.5902
   8823SM   H4F11825   2.029   2.347   3.331  0.1016  1.1837 -0.0486
   8823SM   H4G11826   2.110   2.387   3.491 -0.9057 -1.6014  2.5530
   8823SM   C5F11827   1.936   2.273   3.513 -0.2956 -0.2336 -0.0875
   8823SM   H5F11828   1.958   2.268   3.622  0.5612  1.2007 -0.1729
   8823SM   H5G11829   1.898   2.172   3.486  1.5029 -1.1711  0.6727
   8823SM   C6F11830   1.814   2.360   3.481  0.1860  0.7965  0.0304
   8823SM   H6F11831   1.719   2.325   3.528 -1.2289  2.6549 -1.2475
   8823SM   H6G11832   1.804   2.358   3.370 -0.9447  1.3236  0.0988
   8823SM   C7F11833   1.832   2.514   3.508  0.1133  0.3324 -0.1034
   8823SM   H7F11834   1.747   2.576   3.472 -1.4670 -0.6580  1.7110
   8823SM   H7G11835   1.930   2.537   3.462  1.2899 -0.3269  1.9828
   8823SM   C8F11836   1.853   2.543   3.661  0.3226  0.6110  0.9681
   8823SM   H8F11837   1.947   2.491   3.688 -0.0686 -1.3026 -1.0674
   8823SM   H8G11838   1.772   2.490   3.716 -0.2805 -1.1737 -1.4759
   8823SM   C9F11839   1.876   2.697   3.679  0.5249  0.2934 -0.0356
   8823SM   H9F11840   1.942   2.751   3.609  0.7871  1.3112  0.9652
   8823SM   H9G11841   1.922   2.706   3.780 -0.7001 -1.6131  0.7449
   8823SM  C10F11842   1.750   2.777   3.690  0.3247  0.2918 -0.4896
   8823SM  H10F11843   1.690   2.729   3.770 -0.9827  1.5008 -0.7020
   8823SM  H10G11844   1.693   2.774   3.594 -2.0856 -1.3252  0.8726
   8823SM  C11F11845   1.775   2.916   3.744  0.2449 -0.0573  0.5965
   8823SM  H11F11846   1.850   2.971   3.683 -0.8146 -0.7141 -1.3772
   8823SM  H11G11847   1.828   2.898   3.840 -0.2133  0.8196  1.0278
   8823SM  C12F11848   1.646   3.006   3.773 -0.9307  0.0656 -0.7105
   8823SM  H12F11849   1.551   2.958   3.740 -0.5682 -1.8370  0.8113
   8823SM  H12G11850   1.660   3.092   3.705 -0.2855 -0.5002 -1.3106
   8823SM  C13F11851   1.627   3.057   3.913  0.4489  0.0956  0.5668
   8823SM  H13F11852   1.723   3.098   3.948  1.6641 -0.9482 -1.3466
   8823SM  H13G11853   1.607   2.964   3.971  2.3919  0.3147  1.6656
   8823SM  C14F11854   1.531   3.169   3.907  0.4093 -0.9413 -0.3916
   8823SM  H14F11855   1.454   3.155   3.828  1.2726  0.6824 -1.5855
   8823SM  H14G11856   1.590   3.249   3.858 -0.7408  0.2637  0.1194
   8823SM  C15F11857   1.480   3.193   4.053 -0.6374 -0.2707  0.0405
   8823SM  H15F11858   1.555   3.152   4.124  1.1128 -0.1789 -1.6696
   8823SM  H15G11859   1.380   3.144   4.062 -1.8986  1.4691 -3.0657
   8823SM  C16F11860   1.448   3.350   4.077  0.0869 -0.6515  0.0140
   8823SM  H16F11861   1.541   3.410   4.085  1.6338 -2.8070 -0.8066
   8823SM  H16G11862   1.404   3.346   4.179  1.1731 -3.2652  0.4601
   8823SM  C17F11863   1.347   3.413   3.992 -0.1259  0.9831 -0.1894
   8823SM  H17F11864   1.394   3.425   3.892 -0.2238 -1.8883 -0.6752
   8823SM  H17G11865   1.326   3.516   4.029 -1.5985  0.2318  1.1704
   8823SM  C18F11866   1.206   3.344   3.982 -0.6605  0.8943  0.2087
   8823SM  H18F11867   1.225   3.243   3.939  1.6017  2.2011 -2.1274
   8823SM  H18G11868   1.146   3.403   3.909 -0.1194 -0.1744 -1.1520
   8823SM  C19F11869   1.123   3.326   4.108 -0.5918 -0.5546  0.1128
   8823SM  H19F11870   1.105   3.429   4.147 -0.6580 -0.9820  1.2517
   8823SM  H19G11871   1.181   3.265   4.179 -1.2780 -1.2619  0.0788
   8823SM  C20F11872   0.996   3.252   4.097 -0.3387 -0.0467 -0.0948
   8823SM  H20F11873   1.006   3.155   4.043 -0.9226 -0.7964  1.0985
   8823SM  H20G11874   0.926   3.306   4.031 -0.2491 -1.9047 -1.8024
   8823SM  C21F11875   0.933   3.234   4.236 -0.0986  0.2411  0.3726
   8823SM  H21F11876   0.883   3.326   4.274 -0.7622 -0.7498  1.9784
   8823SM  H21G11877   1.014   3.205   4.306  1.4755 -0.6224 -1.6863
   8823SM  C22F11878   0.829   3.123   4.232  0.0535  0.1109 -1.0774
   8823SM  H22F11879   0.872   3.023   4.207  1.6607  1.0011 -2.0053
   8823SM  H22G11880   0.752   3.136   4.153 -1.7650  0.1086  0.5962
   8823SM  C23F11881   0.751   3.099   4.356 -0.2443 -0.0500 -0.2426
   8823SM  H23F11882   0.685   3.186   4.375 -1.0875 -0.0812 -2.6585
   8823SM  H23G11883   0.816   3.076   4.443  1.2556  4.5294  0.1031
   8823SM  H23H11884   0.684   3.011   4.349 -0.1077 -0.1541 -0.2612
   8923SM     N11885   5.511   2.642   2.507 -0.0547  0.0636  0.0237
   8923SM   C1511886   5.598   2.556   2.422 -0.0157  0.3125  0.3793
   8923SM  H15A11887   5.681   2.542   2.489  1.0657  1.7272 -0.6197
   8923SM  H15B11888   5.623   2.601   2.327  0.4232  0.1306  0.4083
   8923SM  H15C11889   5.552   2.459   2.405 -3.1475  1.5597  1.1284
   8923SM   C1411890   5.571   2.776   2.518 -0.6288 -0.0673  0.3682
   8923SM  H14A11891   5.521   2.834   2.594 -2.7381 -2.4386  0.9283
   8923SM  H14B11892   5.563   2.825   2.422  0.8570  1.7892  1.1284
   8923SM  H14C11893   5.677   2.769   2.538 -0.5719  2.2540  1.2017
   8923SM   C1311894   5.373   2.648   2.446  0.6003 -0.2762  0.2686
   8923SM  H13A11895   5.373   2.705   2.355  0.7397  0.0471  0.4691
   8923SM  H13B11896   5.297   2.709   2.493 -0.2812  0.3613 -1.8496
   8923SM  H13C11897   5.331   2.553   2.418  0.3829 -0.8788  2.4506
   8923SM   C1211898   5.499   2.576   2.644  0.1747  0.3544  0.2378
   8923SM  H12A11899   5.460   2.477   2.631  0.9341 -0.1234  1.3826
   8923SM  H12B11900   5.414   2.615   2.698  0.5154  0.5847  0.6150
   8923SM   C1111901   5.617   2.570   2.736 -0.4395 -1.3073 -0.0795
   8923SM  H11A11902   5.581   2.531   2.833 -3.5063 -1.2128 -1.0827
   8923SM  H11B11903   5.655   2.674   2.751 -1.1846 -0.9617 -0.5339
   8923SM     P11904   5.745   2.342   2.734  0.4979  0.1292  0.1626
   8923SM   O1311905   5.623   2.267   2.696  0.0826  0.0730  0.2478
   8923SM   O1411906   5.871   2.305   2.666  0.0238 -0.5391 -0.0192
   8923SM   O1111907   5.763   2.352   2.887  0.5941 -0.0819  0.2237
   8923SM   O1211908   5.727   2.491   2.685  0.4785 -0.0628  0.1701
   8923SM   C1S11909   5.847   2.452   2.951 -0.1643 -0.3559  0.7093
   8923SM   H1S11910   5.870   2.535   2.880  0.1297  0.2012  1.4452
   8923SM   H1T11911   5.945   2.411   2.982  0.0232 -0.7006 -0.2848
   8923SM    NF11912   5.859   2.613   3.144  0.1083 -1.0607 -0.1101
   8923SM   HNF11913   5.932   2.596   3.211 -1.2952 -1.3664  1.4061
   8923SM   C2S11914   5.781   2.504   3.087 -0.1071  0.3568  0.5345
   8923SM   H2S11915   5.680   2.549   3.071 -0.4223  0.7095  3.0843
   8923SM   C3S11916   5.752   2.385   3.184 -0.6897  0.1123  1.2587
   8923SM   H3S11917   5.848   2.329   3.188 -0.8692 -0.3605 -0.4369
   8923SM    O311918   5.663   2.291   3.126  0.2286 -0.4511 -0.2404
   8923SM   HO311919   5.677   2.302   3.031 -0.8433 -1.8593 -0.5995
   8923SM   C4S11920   5.721   2.421   3.333  0.0145  0.2524  0.4839
   8923SM   H4S11921   5.810   2.423   3.397 -0.1463 -0.7944  0.7494
   8923SM   C5S11922   5.598   2.436   3.383 -0.3484 -0.6875 -0.3251
   8923SM   H5S11923   5.512   2.434   3.316 -0.6421  3.0492 -0.2636
   8923SM   C6S11924   5.565   2.445   3.527  0.0025 -0.7646 -0.0869
   8923SM   H6S11925   5.519   2.346   3.547  3.2191 -2.5098 -0.7005
   8923SM   H6T11926   5.492   2.527   3.549  0.4972 -0.5936  1.0006
   8923SM   C7S11927   5.674   2.459   3.632 -0.0518 -0.1997  0.1075
   8923SM   H7S11928   5.733   2.553   3.629  1.5354 -1.1908 -1.2900
   8923SM   H7T11929   5.755   2.384   3.625  0.3364  0.2085  0.1309
   8923SM   C8S11930   5.602   2.455   3.766  0.0492  0.3217  0.0683
   8923SM   H8S11931   5.586   2.347   3.785  2.2601  0.1283  1.1290
   8923SM   H8T11932   5.525   2.535   3.773  0.6631  0.8357  0.9945
   8923SM   C9S11933   5.694   2.496   3.881 -0.0541  0.0669  0.6036
   8923SM   H9S11934   5.725   2.602   3.882  2.0106 -0.4664 -0.8475
   8923SM   H9T11935   5.782   2.429   3.888 -0.1464 -0.2533 -0.8572
   8923SM  C10S11936   5.625   2.476   4.019 -0.3210  0.0687  0.3806
   8923SM  H10S11937   5.592   2.370   4.010 -0.0483  0.1926 -3.9352
   8923SM  H10T11938   5.537   2.543   4.028 -0.2475  0.2257 -0.0644
   8923SM  C11S11939   5.723   2.495   4.133 -0.0631  0.5005  0.5637
   8923SM  H11S11940   5.788   2.583   4.119  0.3238  0.1574  0.1731
   8923SM  H11T11941   5.799   2.414   4.128  0.3881  0.9748 -0.5617
   8923SM  C12S11942   5.666   2.468   4.275  1.1469 -0.3762  0.0428
   8923SM  H12S11943   5.624   2.366   4.282 -0.6549  0.3429  0.1953
   8923SM  H12T11944   5.594   2.549   4.301  0.8270 -1.0465  1.3018
   8923SM  C13S11945   5.779   2.480   4.371 -0.1548  0.6537  0.1530
   8923SM  H13S11946   5.826   2.580   4.364 -0.8300  0.8806 -1.8964
   8923SM  H13T11947   5.851   2.398   4.351  0.4409  0.8457  1.4201
   8923SM  C14S11948   5.733   2.452   4.513  0.1200 -0.9956  0.8236
   8923SM  H14S11949   5.646   2.521   4.519 -1.6939 -3.0699 -0.2294
   8923SM  H14T11950   5.814   2.494   4.577  1.6250 -0.5892 -1.2584
   8923SM  C15S11951   5.694   2.315   4.553 -0.6398 -0.2356 -0.7683
   8923SM  H15S11952   5.781   2.254   4.520 -1.5587 -0.0170 -3.9825
   8923SM  H15T11953   5.600   2.282   4.504 -0.5798 -0.8064 -0.5094
   8923SM  C16S11954   5.675   2.306   4.704  0.2242  0.4973  0.3929
   8923SM  H16S11955   5.591   2.370   4.738  0.9199  1.4433  0.3542
   8923SM  H16T11956   5.763   2.335   4.765  1.7124 -0.2479 -1.3245
   8923SM  C17S11957   5.648   2.162   4.753  0.0676 -0.1712  0.0175
   8923SM  H17S11958   5.543   2.135   4.725 -0.4040  2.6696 -1.2913
   8923SM  H17T11959   5.648   2.160   4.864  1.5838 -4.2378  0.0969
   8923SM  C18S11960   5.746   2.063   4.703  0.0219 -0.0621  0.7343
   8923SM  H18S11961   5.740   2.056   4.593  0.6072 -0.9488  0.7526
   8923SM  H18T11962   5.720   1.960   4.734  2.0133 -1.1291 -0.9393
   8923SM  H18U11963   5.843   2.095   4.745 -0.4151 -2.0428  3.5576
   8923SM   C1F11964   5.861   2.734   3.090  0.0402 -0.1603  0.1211
   8923SM    OF11965   5.795   2.757   2.992  0.5199  0.2321  0.6294
   8923SM   C2F11966   5.968   2.829   3.146 -0.2337 -0.6034 -0.7035
   8923SM   H2F11967   6.046   2.852   3.070  1.3869  1.6210  1.4623
   8923SM   H2G11968   6.018   2.785   3.236 -0.4040  0.2513 -0.1829
   8923SM   C3F11969   5.900   2.959   3.195 -0.7986 -0.3040  0.3503
   8923SM   H3F11970   5.814   2.926   3.256  0.4727 -1.9540  1.3269
   8923SM   H3G11971   5.868   3.026   3.112 -1.7222 -1.1100  0.0290
   8923SM   C4F11972   5.987   3.046   3.290  0.6669 -0.4825  0.2726
   8923SM   H4F11973   6.042   2.978   3.359  0.0432 -0.4020  0.8604
   8923SM   H4G11974   5.926   3.112   3.355 -0.4267  0.5900 -1.7529
   8923SM   C5F11975   6.086   3.140   3.224  0.4749 -0.5188 -0.5942
   8923SM   H5F11976   6.037   3.217   3.160  0.5081  0.8816  0.9988
   8923SM   H5G11977   6.162   3.091   3.159  1.8297  0.4545  0.2188
   8923SM   C6F11978   6.165   3.233   3.323  0.0266 -0.8641 -0.7709
   8923SM   H6F11979   6.222   3.185   3.405 -0.4059  1.2429  0.8559
   8923SM   H6G11980   6.089   3.301   3.367  1.3536 -0.3443  0.7784
   8923SM   C7F11981   6.261   3.315   3.241  0.0003 -0.2170  0.2844
   8923SM   H7F11982   6.222   3.370   3.153  0.1366  1.5730  1.3002
   8923SM   H7G11983   6.333   3.244   3.195  0.2831 -0.2262  0.7356
   8923SM   C8F11984   6.352   3.408   3.325  0.1608 -0.1278 -0.1574
   8923SM   H8F11985   6.445   3.415   3.265 -1.9803  1.9968 -3.5727
   8923SM   H8G11986   6.382   3.363   3.422  1.9200  1.3427  0.0304
   8923SM   C9F11987   6.293   3.552   3.326  0.8919 -0.1109  0.0457
   8923SM   H9F11988   6.196   3.545   3.380  2.3467 -1.7358  2.6748
   8923SM   H9G11989   6.270   3.571   3.219 -0.3670 -4.0205 -0.5091
   8923SM  C10F11990   6.374   3.665   3.395 -0.0427 -0.5231  0.1846
   8923SM  H10F11991   6.325   3.763   3.379 -0.6698 -0.6099  1.4886
   8923SM  H10G11992   6.474   3.687   3.351 -0.5753  0.2589 -0.6505
   8923SM  C11F11993   6.395   3.648   3.549 -1.4380  0.4670 -0.0844
   8923SM  H11F11994   6.459   3.729   3.590  1.9213 -1.6726 -0.6724
   8923SM  H11G11995   6.456   3.555   3.563  0.7729  1.6005 -1.6295
   8923SM  C12F11996   6.268   3.637   3.641  0.3405 -0.0678  0.3542
   8923SM  H12F11997   6.225   3.542   3.601  1.6411 -0.8895  0.8760
   8923SM  H12G11998   6.199   3.722   3.621 -0.8160 -0.6202  1.7886
   8923SM  C13F11999   6.285   3.635   3.791 -0.3780 -0.1617  0.5858
   8923SM  H13F12000   6.185   3.625   3.839 -1.1821  1.9953 -0.5207
   8923SM  H13G12001   6.328   3.734   3.817  1.5942 -0.3860 -1.5237
   8923SM  C14F12002   6.392   3.534   3.840  0.1208 -0.0950  0.3093
   8923SM  H14F12003   6.489   3.559   3.793 -0.2484 -2.4101 -1.9160
   8923SM  H14G12004   6.365   3.435   3.797 -1.9470  0.8517 -0.7548
   8923SM  C15F12005   6.398   3.522   3.994  0.2749  0.8697  0.3367
   8923SM  H15F12006   6.479   3.453   4.028 -1.5721 -0.7350  1.7045
   8923SM  H15G12007   6.304   3.469   4.021 -1.2667  2.7782 -1.0733
   8923SM  C16F12008   6.415   3.650   4.076 -1.0513 -0.1034 -0.4036
   8923SM  H16F12009   6.421   3.604   4.177  2.8019 -2.4383 -1.4774
   8923SM  H16G12010   6.331   3.722   4.065 -0.2330  0.6971 -1.6209
   8923SM  C17F12011   6.553   3.715   4.057  0.0888 -0.5859 -0.1208
   8923SM  H17F12012   6.577   3.695   3.950  2.7257  0.5179  0.2032
   8923SM  H17G12013   6.627   3.667   4.124 -0.1272 -0.2427  0.3732
   8923SM  C18F12014   6.544   3.870   4.091 -0.0513  0.5553  0.8696
   8923SM  H18F12015   6.504   3.871   4.195  1.6671  0.0516  1.5776
   8923SM  H18G12016   6.465   3.907   4.022  3.4120  1.4075 -3.0944
   8923SM  C19F12017   6.666   3.956   4.064  0.4096  1.0427 -0.5467
   8923SM  H19F12018   6.711   3.932   3.965  5.7094 -0.0061  1.7724
   8923SM  H19G12019   6.747   3.930   4.135  0.1938  0.3060 -0.5570
   8923SM  C20F12020   6.637   4.105   4.070 -0.0784 -0.8827 -0.1065
   8923SM  H20F12021   6.618   4.149   4.170  1.6275  1.0729 -0.5662
   8923SM  H20G12022   6.542   4.121   4.015 -0.1163  0.6481  0.3510
   8923SM  C21F12023   6.736   4.198   4.000  0.5371 -0.0083 -0.0858
   8923SM  H21F12024   6.743   4.167   3.894 -1.0701 -0.4259 -0.1030
   8923SM  H21G12025   6.835   4.190   4.049  0.8208 -2.5585 -0.9369
   8923SM  C22F12026   6.677   4.338   3.998  0.3036  0.0125  0.0083
   8923SM  H22F12027   6.659   4.375   4.101 -0.4738  0.0431 -0.1310
   8923SM  H22G12028   6.577   4.324   3.953  1.5209 -1.5096 -2.4558
   8923SM  C23F12029   6.756   4.438   3.915 -0.1511 -0.7369  0.4354
   8923SM  H23F12030   6.860   4.450   3.950  0.4367 -3.9265  0.0808
   8923SM  H23G12031   6.707   4.538   3.919 -0.7579 -0.8425 -2.3625
   8923SM  H23H12032   6.753   4.414   3.807 -0.7052 -0.3542  0.3561
   9023SM     N12033   6.630   2.664   2.806  0.0432 -0.2749  0.3625
   9023SM   C1512034   6.706   2.785   2.760  0.4212 -0.5157  0.3330
   9023SM  H15A12035   6.793   2.807   2.820  0.5661 -0.3229  0.0530
   9023SM  H15B12036   6.646   2.874   2.751  0.8347 -0.1015  1.4583
   9023SM  H15C12037   6.751   2.761   2.665 -0.3094 -0.1063 -0.1245
   9023SM   C1412038   6.527   2.639   2.702 -0.7162 -0.1672  0.0843
   9023SM  H14A12039   6.573   2.635   2.605  1.8649  2.9859  1.0077
   9023SM  H14B12040   6.461   2.725   2.698  0.7475  1.0603  1.1884
   9023SM  H14C12041   6.473   2.548   2.724 -1.7819  0.8844  2.0291
   9023SM   C1312042   6.715   2.533   2.804 -0.1207 -0.9562 -0.8524
   9023SM  H13A12043   6.779   2.533   2.716  0.9545  1.4148 -0.1497
   9023SM  H13B12044   6.648   2.449   2.812  0.3914 -1.4286 -1.3994
   9023SM  H13C12045   6.792   2.535   2.879 -1.7554 -0.2576  0.8898
   9023SM   C1212046   6.573   2.685   2.942  0.2150  0.5334 -0.1013
   9023SM  H12A12047   6.499   2.763   2.937  1.9430  2.3261  0.8197
   9023SM  H12B12048   6.649   2.726   3.008 -0.6754  1.3710  0.4308
   9023SM   C1112049   6.505   2.558   3.008  0.3623 -0.5565 -0.5577
   9023SM  H11A12050   6.468   2.579   3.110 -0.5214  0.0821 -0.9964
   9023SM  H11B12051   6.573   2.472   3.026  1.7035  0.7957  1.2803
   9023SM     P12052   6.249   2.536   2.950 -0.1138  0.3983  0.1227
   9023SM   O1312053   6.208   2.671   2.930 -0.2572 -0.0190  0.6577
   9023SM   O1412054   6.184   2.432   2.862 -0.1699 -0.3537  0.4927
   9023SM   O1112055   6.237   2.493   3.102  0.1285  0.3118 -0.2975
   9023SM   O1212056   6.402   2.514   2.923 -0.6377 -0.8415  0.0720
   9023SM   C1S12057   6.215   2.353   3.144 -0.6297 -0.2686  0.0219
   9023SM   H1S12058   6.288   2.290   3.090 -0.3740  0.5545 -0.6179
   9023SM   H1T12059   6.109   2.332   3.118 -0.9068 -0.8231  1.5021
   9023SM    NF12060   6.225   2.197   3.335  0.0732  0.1584 -0.7143
   9023SM   HNF12061   6.141   2.153   3.367  1.2609 -1.2713  0.5878
   9023SM   C2S12062   6.233   2.339   3.303 -0.1093 -0.9052  0.0238
   9023SM   H2S12063   6.329   2.383   3.339 -0.3435 -0.4022  0.0417
   9023SM   C3S12064   6.124   2.428   3.377  0.5658  0.4286 -0.0046
   9023SM   H3S12065   6.028   2.377   3.354  1.0187 -0.3134 -0.2640
   9023SM    O312066   6.105   2.560   3.328 -0.1154 -0.2307  0.1597
   9023SM   HO312067   6.187   2.570   3.279 -0.1387  2.0304  0.5101
   9023SM   C4S12068   6.146   2.423   3.521 -0.4600  0.5032  0.3351
   9023SM   H4S12069   6.238   2.478   3.546 -0.5999  1.3684 -0.9646
   9023SM   C5S12070   6.065   2.369   3.612 -0.3473 -0.4155  0.0211
   9023SM   H5S12071   5.977   2.307   3.587 -2.1346  1.2560  1.7730
   9023SM   C6S12072   6.096   2.369   3.752 -0.1692 -0.0459  0.2534
   9023SM   H6S12073   6.057   2.277   3.801  3.2403 -0.4871  2.4435
   9023SM   H6T12074   6.037   2.448   3.805 -0.3862 -0.4708  0.6481
   9023SM   C7S12075   6.245   2.385   3.793 -0.3152 -0.0348  0.7106
   9023SM   H7S12076   6.269   2.487   3.754  0.5498 -0.7486 -0.7385
   9023SM   H7T12077   6.305   2.317   3.729 -0.8951  0.5595 -0.5112
   9023SM   C8S12078   6.277   2.379   3.948 -0.1079  0.1948  0.4273
   9023SM   H8S12079   6.384   2.353   3.965  0.2825 -0.4244 -2.4728
   9023SM   H8T12080   6.207   2.306   3.993  0.8340  0.5619  2.6494
   9023SM   C9S12081   6.255   2.505   4.027  0.0834  0.7800 -0.2568
   9023SM   H9S12082   6.149   2.532   4.006 -0.0464  0.3368 -0.1899
   9023SM   H9T12083   6.320   2.589   3.995  2.0052 -0.2492  0.7424
   9023SM  C10S12084   6.280   2.482   4.177 -0.0371 -0.2525 -0.4322
   9023SM  H10S12085   6.381   2.436   4.191 -0.3395 -0.5675  0.9011
   9023SM  H10T12086   6.208   2.411   4.221 -0.3390 -1.2752 -2.4564
   9023SM  C11S12087   6.279   2.620   4.260 -0.5105  0.2829  0.0641
   9023SM  H11S12088   6.176   2.658   4.276 -0.1114  1.5160 -0.1312
   9023SM  H11T12089   6.331   2.699   4.201  0.4604  0.5040  1.1733
   9023SM  C12S12090   6.334   2.608   4.401  0.7701 -0.2549  0.3061
   9023SM  H12S12091   6.338   2.708   4.449  1.4635 -0.1890  0.1155
   9023SM  H12T12092   6.438   2.570   4.401  1.8574  2.4354  1.8353
   9023SM  C13S12093   6.248   2.515   4.500 -0.6739 -0.4628 -0.3193
   9023SM  H13S12094   6.259   2.411   4.464  2.6922 -0.2256 -0.3359
   9023SM  H13T12095   6.140   2.540   4.496 -1.0323 -1.5356  1.4777
   9023SM  C14S12096   6.303   2.516   4.642  0.6718  0.2613  0.6004
   9023SM  H14S12097   6.332   2.621   4.665 -0.4948  0.1918  2.6435
   9023SM  H14T12098   6.385   2.441   4.649 -0.2194 -0.6998  0.8900
   9023SM  C15S12099   6.202   2.466   4.749  0.3288 -0.3819 -0.1502
   9023SM  H15S12100   6.175   2.361   4.725 -3.1712 -0.0038  1.4351
   9023SM  H15T12101   6.108   2.526   4.755  0.6363  0.2079 -1.0336
   9023SM  C16S12102   6.261   2.468   4.884 -0.0742 -0.6275 -0.5370
   9023SM  H16S12103   6.186   2.446   4.963 -1.4891 -0.5403 -1.8047
   9023SM  H16T12104   6.317   2.562   4.901 -0.1461 -0.5287 -0.8406
   9023SM  C17S12105   6.371   2.364   4.905  0.2561  0.7982  0.4997
   9023SM  H17S12106   6.458   2.382   4.838  0.7488 -1.3690  0.5023
   9023SM  H17T12107   6.323   2.265   4.886  1.5473 -0.0330  1.4310
   9023SM  C18S12108   6.409   2.354   5.054 -0.0267  0.4379 -0.0993
   9023SM  H18S12109   6.503   2.296   5.064 -0.4086 -0.3256 -0.8633
   9023SM  H18T12110   6.335   2.309   5.124  0.7540 -0.3068  0.2727
   9023SM  H18U12111   6.428   2.458   5.089  0.3821  0.7660 -1.2686
   9023SM   C1F12112   6.333   2.122   3.308 -0.2068  0.2567 -0.0908
   9023SM    OF12113   6.434   2.174   3.258  0.3191 -0.1757  0.1158
   9023SM   C2F12114   6.336   1.978   3.350  0.7398  0.5387 -0.2927
   9023SM   H2F12115   6.412   1.928   3.286 -2.3356 -1.8316 -2.4070
   9023SM   H2G12116   6.238   1.926   3.337  0.2257  1.8970 -2.3669
   9023SM   C3F12117   6.390   1.955   3.497 -0.0482 -0.1353  0.4418
   9023SM   H3F12118   6.486   2.007   3.514 -1.0259  1.8318  0.2325
   9023SM   H3G12119   6.407   1.845   3.508  2.2837  0.0172 -1.0786
   9023SM   C4F12120   6.298   1.999   3.614 -0.0367  0.7057  0.8933
   9023SM   H4F12121   6.195   1.958   3.602 -0.0476  1.2783 -1.4057
   9023SM   H4G12122   6.276   2.107   3.606 -1.4749  0.3092 -4.8644
   9023SM   C5F12123   6.359   1.978   3.750  0.3957 -0.2524 -0.0259
   9023SM   H5F12124   6.455   2.029   3.774 -0.1288  0.0866  1.4257
   9023SM   H5G12125   6.394   1.872   3.752  0.2649 -0.2878  0.6987
   9023SM   C6F12126   6.262   2.001   3.863  0.1099  0.1510 -0.5964
   9023SM   H6F12127   6.164   1.953   3.840  0.2008 -0.2272 -0.2004
   9023SM   H6G12128   6.223   2.105   3.871 -1.8890 -0.5287 -0.8140
   9023SM   C7F12129   6.303   1.965   4.004  0.1695  0.4373 -0.1731
   9023SM   H7F12130   6.369   1.876   3.991 -0.3320 -0.3028  1.8920
   9023SM   H7G12131   6.227   1.932   4.078  1.5639 -3.5767 -0.2855
   9023SM   C8F12132   6.394   2.069   4.070  0.6187  0.2770 -0.3702
   9023SM   H8F12133   6.341   2.166   4.085  0.5457  0.4569 -1.6766
   9023SM   H8G12134   6.484   2.086   4.007  1.4349  1.6733  1.1099
   9023SM   C9F12135   6.437   2.031   4.216 -0.0381  1.1422 -0.2666
   9023SM   H9F12136   6.480   1.928   4.222 -3.6280 -0.4473  0.9410
   9023SM   H9G12137   6.344   2.025   4.277 -0.3395  2.0669 -0.6246
   9023SM  C10F12138   6.529   2.130   4.298 -0.4334  0.1902 -0.3579
   9023SM  H10F12139   6.466   2.215   4.331  0.9260  0.8339  0.7178
   9023SM  H10G12140   6.616   2.166   4.239 -0.0470 -0.2491 -0.0688
   9023SM  C11F12141   6.585   2.046   4.412  0.4012 -0.1725 -0.2880
   9023SM  H11F12142   6.667   1.979   4.378  1.5292  1.3037 -0.6053
   9023SM  H11G12143   6.504   1.979   4.449  0.5429 -0.8151 -1.1098
   9023SM  C12F12144   6.641   2.139   4.522  0.8814 -0.1175 -0.8973
   9023SM  H12F12145   6.561   2.199   4.570 -0.4441  0.9116 -4.1760
   9023SM  H12G12146   6.721   2.199   4.474  1.1459  0.6714  0.4862
   9023SM  C13F12147   6.707   2.066   4.636  0.0954  0.2991 -0.1041
   9023SM  H13F12148   6.802   2.022   4.600  0.0528  0.2469 -0.1538
   9023SM  H13G12149   6.636   1.985   4.667 -0.2050  0.0500 -1.3985
   9023SM  C14F12150   6.727   2.155   4.768 -0.0260 -0.6812  0.0942
   9023SM  H14F12151   6.756   2.086   4.849  1.1416  1.2246  1.3771
   9023SM  H14G12152   6.635   2.211   4.794  0.9018  0.8493  0.1789
   9023SM  C15F12153   6.837   2.264   4.757 -0.5164 -0.1562  0.2855
   9023SM  H15F12154   6.815   2.338   4.677 -4.1617 -0.8331  0.4864
   9023SM  H15G12155   6.934   2.214   4.734 -0.6552 -1.6892  2.6013
   9023SM  C16F12156   6.863   2.342   4.883  0.4194  0.1247 -0.5562
   9023SM  H16F12157   6.963   2.390   4.881  0.1144  0.7758 -0.5248
   9023SM  H16G12158   6.859   2.276   4.972 -0.4037  1.1560  0.1945
   9023SM  C17F12159   6.750   2.454   4.905 -0.4804 -0.4602 -0.4112
   9023SM  H17F12160   6.650   2.408   4.899 -0.5629 -0.1471 -4.3620
   9023SM  H17G12161   6.763   2.515   4.812 -0.1378  0.3667  0.1656
   9023SM  C18F12162   6.781   2.546   5.027 -0.1380  0.6649 -0.6364
   9023SM  H18F12163   6.884   2.584   5.008 -0.0654  0.9202  0.1967
   9023SM  H18G12164   6.784   2.485   5.120  1.9790 -1.0324 -1.7307
   9023SM  C19F12165   6.690   2.669   5.042  0.1424  0.0365  0.0555
   9023SM  H19F12166   6.730   2.728   5.128 -0.7913  1.4612 -0.4375
   9023SM  H19G12167   6.589   2.642   5.080  1.0899 -0.0352  2.7567
   9023SM  C20F12168   6.672   2.743   4.909  0.4034 -1.0031 -0.2245
   9023SM  H20F12169   6.595   2.689   4.850  0.9234 -1.5725 -0.4069
   9023SM  H20G12170   6.768   2.736   4.852  2.4231  0.6598  2.7034
   9023SM  C21F12171   6.625   2.888   4.932  0.0355 -0.3023  0.6272
   9023SM  H21F12172   6.711   2.955   4.952 -0.1179  0.0698  0.0379
   9023SM  H21G12173   6.558   2.876   5.020  0.4235 -1.9371  0.7336
   9023SM  C22F12174   6.559   2.955   4.814 -0.2263  0.5907  0.2071
   9023SM  H22F12175   6.483   2.889   4.765  1.1901 -0.5957 -0.4792
   9023SM  H22G12176   6.624   2.959   4.724  0.2565 -1.6985  0.3919
   9023SM  C23F12177   6.503   3.094   4.841  0.1563 -0.7739  0.3281
   9023SM  H23F12178   6.454   3.106   4.940 -0.0033 -3.3346  0.6205
   9023SM  H23G12179   6.417   3.112   4.772 -0.3721 -0.5344  1.0422
   9023SM  H23H12180   6.579   3.170   4.816  0.7010 -0.5442  2.4889
   9123SM     N12181   0.064   3.822   2.470 -0.1930  0.8013 -0.4452
   9123SM   C1512182   0.102   3.753   2.347 -0.4436  0.4857 -0.2713
   9123SM  H15A12183   0.189   3.801   2.306  1.7684  1.0785  4.3746
   9123SM  H15B12184   0.023   3.765   2.275 -0.2500 -0.9509 -0.7484
   9123SM  H15C12185   0.114   3.648   2.366 -2.0319  0.1836 -0.7665
   9123SM   C1412186   0.172   3.832   2.575  0.3029 -0.3740  0.6559
   9123SM  H14A12187   0.135   3.870   2.669 -0.5580 -0.2287  0.2725
   9123SM  H14B12188   0.240   3.906   2.535 -1.4019  1.0424  0.2502
   9123SM  H14C12189   0.214   3.734   2.587  1.0108 -0.0720  0.6587
   9123SM   C1312190   0.037   3.968   2.441 -0.0109  0.3689  0.8130
   9123SM  H13A12191  -0.046   3.964   2.372  1.1925 -2.0119 -0.6584
   9123SM  H13B12192   0.113   4.012   2.378 -0.7876 -0.6406 -0.9267
   9123SM  H13C12193   0.021   4.042   2.517 -1.6252  1.9646 -0.9706
   9123SM   C1212194  -0.057   3.754   2.535 -0.3540 -0.8241 -0.4321
   9123SM  H12A12195  -0.031   3.652   2.559 -1.6280 -0.7523  1.3671
   9123SM  H12B12196  -0.129   3.748   2.454 -0.5368  2.6312 -0.6440
   9123SM   C1112197  -0.132   3.831   2.651 -0.7262 -0.5151 -0.4465
   9123SM  H11A12198  -0.226   3.779   2.678 -1.0319  0.0972 -0.3239
   9123SM  H11B12199  -0.167   3.923   2.599  0.9328  0.0217 -0.6869
   9123SM     P12200  -0.047   3.996   2.819 -0.3529  0.2824  0.1703
   9123SM   O1312201   0.077   4.064   2.773  0.2799  0.3840  0.3930
   9123SM   O1412202  -0.177   4.059   2.800 -0.1835  0.1969  0.1862
   9123SM   O1112203  -0.030   3.980   2.975  0.2509  0.4429  0.0468
   9123SM   O1212204  -0.043   3.849   2.764  0.2216  0.0901 -0.3962
   9123SM   C1S12205   0.038   3.867   3.031  1.0023 -0.1633  0.0731
   9123SM   H1S12206   0.131   3.844   2.973 -0.5389 -2.7298 -1.5804
   9123SM   H1T12207  -0.035   3.784   3.016 -0.8596  1.8854 -3.4480
   9123SM    NF12208   0.149   3.785   3.228  0.0475  0.2515  0.0675
   9123SM   HNF12209   0.113   3.705   3.276 -1.1073  0.3263 -0.6291
   9123SM   C2S12210   0.065   3.892   3.180  0.0507  0.4722 -0.7328
   9123SM   H2S12211   0.123   3.986   3.194  2.3461 -1.2322  2.2950
   9123SM   C3S12212  -0.074   3.912   3.251  0.0470  0.3521  0.3888
   9123SM   H3S12213  -0.121   3.812   3.244 -2.1825  1.3349  0.5827
   9123SM    O312214  -0.171   3.998   3.186 -0.2536 -0.0537  0.0988
   9123SM   HO312215  -0.123   4.012   3.104  0.0998 -0.9465  0.1390
   9123SM   C4S12216  -0.055   3.937   3.403  0.3702 -0.0281  0.1011
   9123SM   H4S12217  -0.029   3.843   3.453 -2.3825 -2.2156 -2.2625
   9123SM   C5S12218  -0.061   4.056   3.467  0.1798  0.4325 -0.3356
   9123SM   H5S12219  -0.092   4.152   3.424 -0.2185  1.1604  1.4613
   9123SM   C6S12220  -0.029   4.073   3.611 -0.6165  0.1973 -0.0504
   9123SM   H6S12221  -0.121   4.104   3.664 -0.4199 -1.2801  1.2311
   9123SM   H6T12222   0.048   4.153   3.614 -2.6990  2.4126 -1.7376
   9123SM   C7S12223   0.041   3.948   3.682 -0.1653  0.1623  0.0233
   9123SM   H7S12224   0.135   3.938   3.624 -0.9158 -1.3512 -1.0035
   9123SM   H7T12225  -0.019   3.857   3.660  0.8274 -1.2866  2.8691
   9123SM   C8S12226   0.076   3.978   3.828 -0.1462  0.5430  0.0165
   9123SM   H8S12227  -0.013   4.025   3.875 -0.4280 -1.1115  1.2575
   9123SM   H8T12228   0.169   4.040   3.827 -0.9918  1.8387  0.3614
   9123SM   C9S12229   0.108   3.851   3.914  0.5206 -0.1011  0.1158
   9123SM   H9S12230   0.200   3.822   3.858  1.6176 -1.5284  2.5246
   9123SM   H9T12231   0.037   3.766   3.917  0.2611  0.1429  2.1942
   9123SM  C10S12232   0.146   3.877   4.063  0.1190 -0.0790  0.2535
   9123SM  H10S12233   0.219   3.960   4.068  1.3285 -1.1322  0.5518
   9123SM  H10T12234   0.178   3.777   4.100 -2.2269 -1.2055 -0.5353
   9123SM  C11S12235   0.022   3.918   4.142  0.2247  0.5833 -0.1370
   9123SM  H11S12236  -0.049   3.836   4.120  2.3217 -1.0108 -1.2351
   9123SM  H11T12237  -0.029   4.014   4.118 -0.4822  0.9345  2.4500
   9123SM  C12S12238   0.052   3.902   4.290  0.0412 -0.2893 -0.4720
   9123SM  H12S12239   0.110   3.989   4.327 -1.4687 -0.5711  2.9848
   9123SM  H12T12240   0.120   3.814   4.303  1.2210  0.5435 -0.7922
   9123SM  C13S12241  -0.069   3.896   4.372 -0.2802 -0.3882  0.3673
   9123SM  H13S12242  -0.028   3.876   4.473 -0.5590 -0.4503  0.4673
   9123SM  H13T12243  -0.136   3.811   4.349 -1.4175  1.0969 -2.2712
   9123SM  C14S12244  -0.159   4.013   4.366 -0.1265 -0.1258  0.4498
   9123SM  H14S12245  -0.199   4.036   4.265  0.5506  4.0533  0.9345
   9123SM  H14T12246  -0.093   4.097   4.398 -0.5050  0.0492  0.7813
   9123SM  C15S12247  -0.271   4.003   4.470  0.3035  0.1645  0.1698
   9123SM  H15S12248  -0.221   3.965   4.561  0.0188  0.3917  0.4248
   9123SM  H15T12249  -0.357   3.937   4.446  0.2549  0.3692 -0.2186
   9123SM  C16S12250  -0.330   4.141   4.506  0.9335 -0.1503  0.3455
   9123SM  H16S12251  -0.388   4.186   4.422 -0.9980  1.3425  2.3460
   9123SM  H16T12252  -0.245   4.209   4.527  0.9791  0.2538 -1.0279
   9123SM  C17S12253  -0.416   4.154   4.629  0.9497  0.6454 -0.2294
   9123SM  H17S12254  -0.506   4.089   4.624  1.3131 -0.0438  1.6257
   9123SM  H17T12255  -0.439   4.258   4.658 -1.0706  0.7797 -2.0688
   9123SM  C18S12256  -0.350   4.092   4.751 -0.3966 -0.2896  0.0242
   9123SM  H18S12257  -0.327   3.983   4.748  1.3571  0.0691 -0.5687
   9123SM  H18T12258  -0.424   4.115   4.831 -1.5008  1.7696 -1.4937
   9123SM  H18U12259  -0.255   4.148   4.764 -1.3815  1.2351  1.0011
   9123SM   C1F12260   0.279   3.782   3.207  0.0041  0.3654  0.4107
   9123SM    OF12261   0.328   3.881   3.153 -0.5252 -0.3249  0.5307
   9123SM   C2F12262   0.360   3.665   3.255 -0.4226  0.6333  0.4213
   9123SM   H2F12263   0.413   3.630   3.164  0.8961 -1.9499  2.0488
   9123SM   H2G12264   0.285   3.585   3.274  0.2674 -0.3964 -0.9862
   9123SM   C3F12265   0.452   3.705   3.369 -0.1153 -0.2172 -0.8720
   9123SM   H3F12266   0.524   3.777   3.325  0.9183 -1.4317 -1.2191
   9123SM   H3G12267   0.519   3.624   3.405 -0.5176 -0.2767 -0.2431
   9123SM   C4F12268   0.381   3.755   3.492  0.2043 -0.3500 -0.2603
   9123SM   H4F12269   0.315   3.675   3.532 -0.4110 -0.1726 -0.9009
   9123SM   H4G12270   0.302   3.830   3.470  0.4846  0.9901  2.7249
   9123SM   C5F12271   0.466   3.820   3.602  0.8927  0.5894 -0.5833
   9123SM   H5F12272   0.532   3.745   3.650  0.7888  0.8043 -0.0971
   9123SM   H5G12273   0.393   3.860   3.676 -1.7567 -0.4202 -2.4731
   9123SM   C6F12274   0.538   3.945   3.560  0.1458 -0.2335 -0.5842
   9123SM   H6F12275   0.464   4.019   3.525 -0.3663 -1.7348 -2.9245
   9123SM   H6G12276   0.606   3.911   3.479 -0.1411 -2.6550  0.0864
   9123SM   C7F12277   0.617   4.011   3.675  0.1517  0.0215  0.2167
   9123SM   H7F12278   0.549   4.024   3.762 -1.2895 -1.7355 -0.5808
   9123SM   H7G12279   0.646   4.113   3.642  0.5723 -0.1106  0.1693
   9123SM   C8F12280   0.751   3.948   3.715 -1.2215 -0.4756  0.3011
   9123SM   H8F12281   0.816   3.923   3.628 -0.6387  3.7673 -0.6718
   9123SM   H8G12282   0.729   3.850   3.763  1.2445  0.0827  2.8204
   9123SM   C9F12283   0.834   4.026   3.816 -0.4150 -0.1457 -0.2038
   9123SM   H9F12284   0.757   4.055   3.891 -0.5736  0.6259 -0.6494
   9123SM   H9G12285   0.863   4.128   3.783  0.1109 -0.2821 -0.1690
   9123SM  C10F12286   0.961   3.960   3.873 -0.2849 -0.5070 -0.1954
   9123SM  H10F12287   1.035   4.029   3.918  0.6933 -1.5384 -0.1821
   9123SM  H10G12288   1.008   3.916   3.783 -2.6126 -1.0812 -1.2116
   9123SM  C11F12289   0.920   3.847   3.970  1.2187  0.6326  0.6588
   9123SM  H11F12290   0.914   3.758   3.903  3.0396  2.1164 -1.6354
   9123SM  H11G12291   0.818   3.860   4.012 -0.1139 -0.6628 -1.9240
   9123SM  C12F12292   1.009   3.831   4.093  0.0453 -0.4242 -0.6399
   9123SM  H12F12293   1.016   3.934   4.135  2.7403 -0.7651 -0.0902
   9123SM  H12G12294   1.113   3.809   4.061 -0.2929 -0.7140 -1.5848
   9123SM  C13F12295   0.962   3.721   4.197 -0.0715 -0.1383  0.3658
   9123SM  H13F12296   0.978   3.625   4.145 -0.1392  0.6789 -1.2292
   9123SM  H13G12297   0.858   3.735   4.235 -1.1586 -0.6099 -2.2367
   9123SM  C14F12298   1.065   3.709   4.314  0.5829 -0.1814 -0.1523
   9123SM  H14F12299   1.071   3.812   4.354 -0.9574 -0.4227  0.7866
   9123SM  H14G12300   1.162   3.688   4.264  0.7565  1.7924 -0.7304
   9123SM  C15F12301   1.034   3.593   4.416 -0.1649 -0.5262 -0.0677
   9123SM  H15F12302   1.037   3.496   4.361 -0.8947 -0.9878  0.6866
   9123SM  H15G12303   0.930   3.608   4.450 -0.1737  0.9788 -0.6763
   9123SM  C16F12304   1.137   3.585   4.533  0.1387  0.0351  0.3050
   9123SM  H16F12305   1.241   3.584   4.495 -0.7898 -1.6276 -2.4994
   9123SM  H16G12306   1.129   3.488   4.586 -1.4437  0.4553  0.8859
   9123SM  C17F12307   1.101   3.695   4.635 -0.0822  0.1601  0.6549
   9123SM  H17F12308   0.992   3.695   4.660 -0.2830 -0.3191 -0.1679
   9123SM  H17G12309   1.123   3.801   4.610 -0.1324  0.7385  2.8165
   9123SM  C18F12310   1.177   3.667   4.771 -0.0960 -0.0565 -0.2213
   9123SM  H18F12311   1.195   3.765   4.820 -2.9755  0.8251 -0.7272
   9123SM  H18G12312   1.271   3.618   4.736  1.6071  2.7686  0.1371
   9123SM  C19F12313   1.110   3.579   4.872  0.3635 -0.2010 -0.0892
   9123SM  H19F12314   1.109   3.474   4.836 -1.0578 -0.8869  1.8247
   9123SM  H19G12315   1.005   3.614   4.881  0.9094  1.7316 -0.7317
   9123SM  C20F12316   1.174   3.582   5.013  0.2207 -0.5712 -0.4001
   9123SM  H20F12317   1.162   3.686   5.049  0.8049 -0.2359 -1.1453
   9123SM  H20G12318   1.284   3.574   4.997  0.0349 -0.8405 -1.6906
   9123SM  C21F12319   1.120   3.472   5.103  0.1680 -0.6066  0.4706
   9123SM  H21F12320   1.181   3.468   5.196  2.3789 -1.7976 -0.9340
   9123SM  H21G12321   1.135   3.376   5.049  0.2321  1.5827 -3.8678
   9123SM  C22F12322   0.975   3.498   5.145 -0.1875 -0.3479 -0.1751
   9123SM  H22F12323   0.895   3.482   5.070  0.2551 -1.8605 -0.3681
   9123SM  H22G12324   0.961   3.602   5.180  0.6962  0.5101 -2.2358
   9123SM  C23F12325   0.921   3.406   5.260 -0.3836  0.3158 -0.7898
   9123SM  H23F12326   0.981   3.435   5.349 -0.7422  0.5362 -0.6179
   9123SM  H23G12327   0.918   3.298   5.235  0.2645 -0.0412  0.5750
   9123SM  H23H12328   0.816   3.439   5.275 -0.0723  1.8941 -1.8232
   9223SM     N12329   6.174   2.074   2.751  0.1027  0.2467  0.7885
   9223SM   C1512330   6.279   2.039   2.847 -0.4106  0.5081 -0.6037
   9223SM  H15A12331   6.350   1.972   2.802 -0.0665  0.2639  0.2660
   9223SM  H15B12332   6.242   1.991   2.936 -0.5390  2.5609  0.5331
   9223SM  H15C12333   6.327   2.132   2.877 -2.7056  1.0535  1.7963
   9223SM   C1412334   6.235   2.142   2.635  0.0495  0.5192 -0.5700
   9223SM  H14A12335   6.312   2.084   2.587 -0.2854 -1.8885  1.6113
   9223SM  H14B12336   6.283   2.234   2.666 -0.5000 -0.0849  2.3073
   9223SM  H14C12337   6.160   2.154   2.558  0.5645  2.6422 -0.8217
   9223SM   C1312338   6.088   1.965   2.695 -0.1350  0.1214 -0.4889
   9223SM  H13A12339   6.020   1.930   2.772  1.7608  0.4745  1.4303
   9223SM  H13B12340   6.145   1.878   2.666  0.9324  0.9009 -0.7624
   9223SM  H13C12341   6.025   1.998   2.614 -1.5641  2.2275  1.3626
   9223SM   C1212342   6.069   2.167   2.807  0.1601 -0.3140 -0.6039
   9223SM  H12A12343   5.983   2.171   2.742 -0.7109  0.6524  0.5699
   9223SM  H12B12344   6.114   2.265   2.817 -2.1646  0.6662  1.2008
   9223SM   C1112345   6.024   2.129   2.952  0.4607  0.3046 -1.0913
   9223SM  H11A12346   5.967   2.213   2.997  2.8870  0.7119  1.5207
   9223SM  H11B12347   6.110   2.131   3.022  0.2849 -2.0430 -0.7414
   9223SM     P12348   5.990   1.882   3.044  0.1285  0.1356 -0.3892
   9223SM   O1312349   5.912   1.769   2.983 -0.4509  0.1281 -0.1865
   9223SM   O1412350   6.136   1.862   3.049 -0.4499  0.0951 -0.4856
   9223SM   O1112351   5.939   1.902   3.193 -0.0525  0.4053  0.6777
   9223SM   O1212352   5.949   2.006   2.956  0.3054 -0.5528 -0.2980
   9223SM   C1S12353   5.800   1.939   3.205 -0.2311  0.4830 -0.5936
   9223SM   H1S12354   5.723   1.891   3.142 -1.0585  3.1574 -1.7248
   9223SM   H1T12355   5.785   2.047   3.184 -0.6033  0.5922  0.1925
   9223SM    NF12356   5.615   1.901   3.371  0.4431 -0.1845 -0.0288
   9223SM   HNF12357   5.562   1.956   3.434 -0.1691 -2.9494  2.0365
   9223SM   C2S12358   5.761   1.930   3.360  0.7912 -0.2698  0.0566
   9223SM   H2S12359   5.806   1.839   3.405 -2.2306 -1.5177  0.7833
   9223SM   C3S12360   5.818   2.058   3.426 -0.2370 -0.1342 -0.8553
   9223SM   H3S12361   5.771   2.141   3.369 -1.1937  0.3936  0.6554
   9223SM    O312362   5.955   2.076   3.409 -0.5926  0.4780 -0.4063
   9223SM   HO312363   5.969   2.039   3.322  0.5053 -0.3620  0.1058
   9223SM   C4S12364   5.781   2.075   3.564  0.0836  0.0451  0.2318
   9223SM   H4S12365   5.688   2.134   3.568 -0.6214 -1.0172 -0.0452
   9223SM   C5S12366   5.840   2.044   3.684 -0.1810  0.4879  0.6920
   9223SM   H5S12367   5.939   1.997   3.688  0.2232  0.9931 -1.5728
   9223SM   C6S12368   5.785   2.089   3.816 -0.3254 -0.1754 -0.5850
   9223SM   H6S12369   5.693   2.150   3.804 -1.1872 -1.3990 -0.4849
   9223SM   H6T12370   5.866   2.149   3.862  1.0884 -0.5475 -2.4486
   9223SM   C7S12371   5.767   1.976   3.914  1.1958  0.4151 -0.4021
   9223SM   H7S12372   5.862   1.920   3.926  1.1549  0.4476  0.0882
   9223SM   H7T12373   5.689   1.910   3.869  1.0312  1.6149 -2.0069
   9223SM   C8S12374   5.726   2.026   4.054 -0.7289  0.4063 -0.0880
   9223SM   H8S12375   5.625   2.073   4.059 -0.1640  1.5089  2.2731
   9223SM   H8T12376   5.799   2.099   4.094 -1.1328  0.7922 -0.0393
   9223SM   C9S12377   5.736   1.905   4.156  0.2058 -0.0288 -0.0678
   9223SM   H9S12378   5.746   1.947   4.259  2.2966  2.4663 -1.1877
   9223SM   H9T12379   5.830   1.848   4.143 -0.6963 -1.5101 -0.2303
   9223SM  C10S12380   5.629   1.799   4.127 -0.4344 -0.0108  0.5272
   9223SM  H10S12381   5.646   1.705   4.185 -1.3988  0.3095  1.3700
   9223SM  H10T12382   5.642   1.767   4.022 -1.6228 -2.1047  0.9565
   9223SM  C11S12383   5.480   1.847   4.135  0.2218 -0.1796 -0.0115
   9223SM  H11S12384   5.407   1.763   4.135 -0.1865  0.1240  1.7827
   9223SM  H11T12385   5.456   1.923   4.058 -0.5215 -1.7499 -1.3957
   9223SM  C12S12386   5.462   1.921   4.267  0.4331  0.6552  0.2261
   9223SM  H12S12387   5.503   2.024   4.272 -1.1993  1.3198  0.7351
   9223SM  H12T12388   5.518   1.865   4.345 -1.3578 -0.9096  0.4733
   9223SM  C13S12389   5.314   1.927   4.303  0.6007 -0.8705  0.4829
   9223SM  H13S12390   5.274   1.823   4.302 -0.2452 -0.5494  0.5246
   9223SM  H13T12391   5.267   1.978   4.216  0.7711 -1.3009  0.1331
   9223SM  C14S12392   5.286   1.992   4.442 -0.1142  0.7349 -0.2771
   9223SM  H14S12393   5.178   2.018   4.453 -0.9299 -1.7441 -1.6541
   9223SM  H14T12394   5.342   2.086   4.461  0.0962  0.2499  1.7028
   9223SM  C15S12395   5.321   1.895   4.553  0.6482  0.2505  0.0881
   9223SM  H15S12396   5.427   1.863   4.550  0.0919 -1.8171  0.5594
   9223SM  H15T12397   5.249   1.810   4.544 -1.6062  1.9597  0.9302
   9223SM  C16S12398   5.292   1.958   4.691 -0.3340  0.5536 -0.0748
   9223SM  H16S12399   5.195   2.011   4.693 -0.4639  0.4561 -1.9423
   9223SM  H16T12400   5.369   2.036   4.713  0.1041 -0.4415  2.1766
   9223SM  C17S12401   5.303   1.855   4.800  0.6922 -0.3402 -0.3750
   9223SM  H17S12402   5.216   1.785   4.800 -0.9528  1.6085  0.5038
   9223SM  H17T12403   5.297   1.913   4.895 -0.2286  0.3848 -0.8596
   9223SM  C18S12404   5.428   1.772   4.798 -0.0176 -0.3897  0.3043
   9223SM  H18S12405   5.427   1.706   4.708  0.2085  0.0652 -0.0378
   9223SM  H18T12406   5.418   1.708   4.888 -3.3730 -0.1839  0.1989
   9223SM  H18U12407   5.513   1.842   4.782 -1.9056  2.0840  0.5364
   9223SM   C1F12408   5.562   1.787   3.320 -0.6338 -0.3336 -0.0131
   9223SM    OF12409   5.634   1.700   3.269 -0.1559  0.3319 -0.0568
   9223SM   C2F12410   5.409   1.771   3.325 -0.5928  0.0807  0.3209
   9223SM   H2F12411   5.393   1.720   3.228  0.1401  1.3017 -0.4639
   9223SM   H2G12412   5.357   1.868   3.309  3.6353  2.5390 -0.0504
   9223SM   C3F12413   5.369   1.693   3.445  0.3339  0.5341 -0.2939
   9223SM   H3F12414   5.415   1.593   3.433 -0.1548 -0.0920  2.4673
   9223SM   H3G12415   5.259   1.687   3.431  0.5169 -0.2242 -1.6079
   9223SM   C4F12416   5.405   1.755   3.579  0.4939  0.1277  0.1828
   9223SM   H4F12417   5.512   1.786   3.583  0.2579  0.8621  1.0586
   9223SM   H4G12418   5.395   1.680   3.660 -4.8269  0.3844  0.1123
   9223SM   C5F12419   5.323   1.885   3.613 -0.2310 -0.3879 -0.4610
   9223SM   H5F12420   5.216   1.856   3.621  0.6004 -3.6928 -0.1190
   9223SM   H5G12421   5.318   1.953   3.526 -2.4388 -0.0335 -0.1157
   9223SM   C6F12422   5.366   1.951   3.741 -0.2599 -0.2122 -0.3068
   9223SM   H6F12423   5.476   1.968   3.733 -0.0289 -0.8621  1.1728
   9223SM   H6G12424   5.354   1.876   3.822  1.5905  1.0802  1.2607
   9223SM   C7F12425   5.302   2.089   3.769 -0.3082  0.5974 -0.0233
   9223SM   H7F12426   5.197   2.073   3.737 -0.3467 -1.1296  0.8872
   9223SM   H7G12427   5.343   2.161   3.694 -0.5543  0.5041 -0.2475
   9223SM   C8F12428   5.326   2.156   3.909 -0.6790  0.2686 -0.2369
   9223SM   H8F12429   5.431   2.186   3.932 -0.5619 -1.2634  1.4639
   9223SM   H8G12430   5.305   2.079   3.986  0.1310 -0.5292 -0.7946
   9223SM   C9F12431   5.227   2.277   3.938 -0.7128  0.4890  1.1489
   9223SM   H9F12432   5.122   2.241   3.940 -0.5955 -0.0033 -0.3764
   9223SM   H9G12433   5.234   2.345   3.850 -1.7488  0.8024  1.2947
   9223SM  C10F12434   5.245   2.356   4.071  0.0031  0.0410  0.1271
   9223SM  H10F12435   5.156   2.423   4.078 -1.2482 -1.5108 -0.2877
   9223SM  H10G12436   5.337   2.418   4.065  2.9996 -4.0901 -1.2342
   9223SM  C11F12437   5.239   2.262   4.196 -0.0006 -0.3841 -0.7957
   9223SM  H11F12438   5.338   2.218   4.223  0.2582  1.3340  1.3584
   9223SM  H11G12439   5.171   2.178   4.171 -0.0664  0.0088 -2.0031
   9223SM  C12F12440   5.192   2.325   4.331  0.1946 -0.5049  0.3516
   9223SM  H12F12441   5.174   2.245   4.406 -0.8354 -0.0026  0.6465
   9223SM  H12G12442   5.093   2.369   4.306 -0.7208 -2.0074  1.1876
   9223SM  C13F12443   5.281   2.442   4.378  0.4180  0.0920 -0.5230
   9223SM  H13F12444   5.273   2.518   4.297 -0.3449  0.7922  0.2020
   9223SM  H13G12445   5.388   2.411   4.386  0.0728 -1.0566 -0.2024
   9223SM  C14F12446   5.237   2.499   4.515 -0.2082 -0.5452  0.4244
   9223SM  H14F12447   5.133   2.536   4.518  0.0084  0.2841 -1.0977
   9223SM  H14G12448   5.308   2.585   4.526 -0.7386  0.0020 -0.3654
   9223SM  C15F12449   5.281   2.418   4.640 -0.5598  0.0037 -0.0009
   9223SM  H15F12450   5.388   2.443   4.656 -0.7645  0.3385  0.8707
   9223SM  H15G12451   5.267   2.308   4.638  0.1723 -0.0987  0.1962
   9223SM  C16F12452   5.192   2.464   4.753 -0.4931 -0.1333 -0.5982
   9223SM  H16F12453   5.084   2.468   4.727 -0.7290  0.2944  0.4084
   9223SM  H16G12454   5.224   2.569   4.767 -0.7161  0.0391 -1.3462
   9223SM  C17F12455   5.217   2.387   4.888 -0.0859  0.1902  0.4173
   9223SM  H17F12456   5.183   2.286   4.858  0.5317  0.2641 -0.6089
   9223SM  H17G12457   5.150   2.428   4.966 -0.2404 -0.1481  0.4612
   9223SM  C18F12458   5.362   2.377   4.944  0.5757  0.7115 -0.1767
   9223SM  H18F12459   5.393   2.479   4.974 -1.1521  0.6453  2.0633
   9223SM  H18G12460   5.431   2.346   4.862  0.4992  1.1810 -0.4172
   9223SM  C19F12461   5.378   2.297   5.070  0.4280 -0.3391  0.0722
   9223SM  H19F12462   5.404   2.190   5.060  2.5498 -0.0451  1.7851
   9223SM  H19G12463   5.271   2.286   5.097  0.1448 -1.9651 -1.5028
   9223SM  C20F12464   5.448   2.359   5.187 -0.5399 -0.3694  0.3576
   9223SM  H20F12465   5.405   2.455   5.222  0.2450 -0.2867  1.1343
   9223SM  H20G12466   5.552   2.371   5.148 -0.1680 -2.0187  0.7941
   9223SM  C21F12467   5.463   2.265   5.310 -0.0510 -0.3868  0.5780
   9223SM  H21F12468   5.543   2.307   5.375 -0.2332  2.1045 -0.6526
   9223SM  H21G12469   5.511   2.173   5.271  0.8123 -0.0168  0.7350
   9223SM  C22F12470   5.334   2.248   5.381  0.5716  0.5698 -0.9838
   9223SM  H22F12471   5.275   2.182   5.314  1.4187 -0.5320 -0.6680
   9223SM  H22G12472   5.284   2.346   5.390 -1.0621 -0.1701 -1.6545
   9223SM  C23F12473   5.347   2.187   5.520 -0.1496 -0.5670  0.3274
   9223SM  H23F12474   5.318   2.081   5.503  1.2581 -0.3915 -4.5049
   9223SM  H23G12475   5.269   2.233   5.584 -0.7933 -0.4935 -0.4888
   9223SM  H23H12476   5.451   2.197   5.555  1.2174 -0.2288 -3.3772
   9323SM     N12477   7.080   3.257   2.864 -0.5415 -0.5818  0.8494
   9323SM   C1512478   7.094   3.375   2.949  0.3164 -0.3280 -0.1480
   9323SM  H15A12479   7.060   3.348   3.049  0.2215 -1.8428 -0.5573
   9323SM  H15B12480   7.042   3.459   2.908 -0.8074 -2.1795 -2.7766
   9323SM  H15C12481   7.200   3.389   2.966  0.2138  0.9911 -0.5282
   9323SM   C1412482   6.948   3.199   2.863 -0.1644  0.0037  0.0178
   9323SM  H14A12483   6.933   3.132   2.779 -0.6382 -0.5449  0.5273
   9323SM  H14B12484   6.867   3.270   2.853 -0.8939 -0.5557  1.5484
   9323SM  H14C12485   6.935   3.155   2.961  0.3240  2.4265  1.2402
   9323SM   C1312486   7.114   3.300   2.726  0.3237  0.7078 -0.2654
   9323SM  H13A12487   7.115   3.217   2.657  1.7749 -0.3007  0.9252
   9323SM  H13B12488   7.208   3.350   2.712  0.3748  1.0731  1.1885
   9323SM  H13C12489   7.045   3.373   2.687  0.4300  0.1357 -1.5685
   9323SM   C1212490   7.180   3.154   2.907 -0.4302 -0.2645  0.4556
   9323SM  H12A12491   7.157   3.064   2.853  1.1422 -0.0588 -0.6297
   9323SM  H12B12492   7.167   3.133   3.012  1.3746 -3.6692  0.1323
   9323SM   C1112493   7.332   3.178   2.893 -0.1717  0.1408 -0.0147
   9323SM  H11A12494   7.367   3.175   2.787  0.6556  0.1127  0.2532
   9323SM  H11B12495   7.385   3.092   2.939 -0.4421  0.7175  1.4287
   9323SM     P12496   7.523   3.340   2.953  0.0521  0.2826 -0.1488
   9323SM   O1312497   7.606   3.235   2.889 -0.2130 -0.0797 -0.1963
   9323SM   O1412498   7.530   3.478   2.892 -0.3630 -0.5902 -0.2549
   9323SM   O1112499   7.572   3.356   3.102  0.4022 -0.0667  0.0809
   9323SM   O1212500   7.371   3.300   2.958  0.3245 -0.8826 -0.2323
   9323SM   C1S12501   7.483   3.333   3.212  0.2233 -0.3004  0.1605
   9323SM   H1S12502   7.432   3.235   3.205  2.8373 -1.7819  0.5956
   9323SM   H1T12503   7.406   3.412   3.228 -0.7535 -1.4934  1.6221
   9323SM    NF12504   7.493   3.255   3.445  0.0393 -0.5433  0.1719
   9323SM   HNF12505   7.442   3.314   3.507  1.7976  0.5743  0.6368
   9323SM   C2S12506   7.562   3.327   3.341 -0.2450  0.0974 -0.8248
   9323SM   H2S12507   7.659   3.274   3.325 -0.2290 -0.0972 -0.1347
   9323SM   C3S12508   7.606   3.468   3.377 -0.3968 -0.6490  0.1455
   9323SM   H3S12509   7.509   3.522   3.372 -0.8024 -1.3174  0.6182
   9323SM    O312510   7.680   3.533   3.274  0.4358  0.2658  0.6439
   9323SM   HO312511   7.668   3.475   3.199 -1.7124  1.8479 -0.3428
   9323SM   C4S12512   7.667   3.486   3.512 -0.1539 -0.2439 -0.4156
   9323SM   H4S12513   7.602   3.517   3.595  0.7926  0.8877 -0.0650
   9323SM   C5S12514   7.799   3.473   3.539  0.4281 -0.0716 -0.1665
   9323SM   H5S12515   7.873   3.448   3.461  0.6313  1.6519 -0.5807
   9323SM   C6S12516   7.855   3.499   3.676  0.0442  0.0033 -0.3563
   9323SM   H6S12517   7.870   3.608   3.687  1.2766 -0.1354 -0.5333
   9323SM   H6T12518   7.951   3.447   3.697 -1.8471 -2.7949  2.2215
   9323SM   C7S12519   7.774   3.449   3.797 -0.4423 -0.4058 -0.6501
   9323SM   H7S12520   7.747   3.341   3.789 -2.3714  0.1039 -1.5857
   9323SM   H7T12521   7.679   3.506   3.807  0.5961  1.1594  0.7296
   9323SM   C8S12522   7.853   3.469   3.925  0.0363  0.6608  0.1302
   9323SM   H8S12523   7.889   3.573   3.921  0.5477  0.4557 -0.6794
   9323SM   H8T12524   7.944   3.406   3.921  0.0348  0.4984  1.7346
   9323SM   C9S12525   7.781   3.428   4.058  0.3377 -0.0089 -0.0518
   9323SM   H9S12526   7.775   3.317   4.060 -3.4863  0.0827  0.5835
   9323SM   H9T12527   7.679   3.470   4.069  0.2287 -0.3315  0.2047
   9323SM  C10S12528   7.874   3.474   4.178 -0.1478 -0.1277 -0.1144
   9323SM  H10S12529   7.871   3.585   4.175 -1.1445 -0.1244  0.4703
   9323SM  H10T12530   7.980   3.447   4.157 -0.0611  0.9556 -1.1565
   9323SM  C11S12531   7.822   3.403   4.306 -0.3655  0.2571 -0.8512
   9323SM  H11S12532   7.799   3.296   4.292 -1.0352  0.4872 -1.5685
   9323SM  H11T12533   7.730   3.453   4.344  1.8448  1.3478  3.9008
   9323SM  C12S12534   7.919   3.421   4.423  0.4038 -0.1052 -0.2334
   9323SM  H12S12535   7.889   3.348   4.501 -2.2228  1.4594  0.3401
   9323SM  H12T12536   7.923   3.525   4.462  0.1521  0.3462 -1.3612
   9323SM  C13S12537   8.065   3.393   4.391 -0.0681 -0.0623  0.5302
   9323SM  H13S12538   8.092   3.475   4.321  0.4366 -0.4340  0.2866
   9323SM  H13T12539   8.067   3.289   4.353  0.3901 -1.1484  3.2814
   9323SM  C14S12540   8.169   3.391   4.503  0.0623 -0.1297  0.0407
   9323SM  H14S12541   8.261   3.374   4.443 -1.5683 -0.9077 -2.4245
   9323SM  H14T12542   8.140   3.302   4.562  0.4389 -1.2833 -1.4349
   9323SM  C15S12543   8.169   3.519   4.585  0.3323  0.0635  0.3192
   9323SM  H15S12544   8.194   3.598   4.511 -1.0915  1.2538  1.0657
   9323SM  H15T12545   8.071   3.538   4.633  0.6660 -1.2255  1.5852
   9323SM  C16S12546   8.270   3.523   4.691 -0.6364 -0.3293 -0.4044
   9323SM  H16S12547   8.351   3.597   4.673  0.1022 -1.0273  0.0003
   9323SM  H16T12548   8.327   3.428   4.699  0.9391  0.4757 -1.6756
   9323SM  C17S12549   8.214   3.555   4.827 -0.2174  1.2007  0.6594
   9323SM  H17S12550   8.168   3.464   4.871 -2.7534  1.3516 -1.4196
   9323SM  H17T12551   8.129   3.623   4.800  1.2252  2.5721 -0.6695
   9323SM  C18S12552   8.313   3.622   4.922  1.0819 -0.9397 -0.5469
   9323SM  H18S12553   8.270   3.634   5.024 -0.6534 -2.1232 -1.0902
   9323SM  H18T12554   8.320   3.717   4.866 -3.9185  0.5863  0.8536
   9323SM  H18U12555   8.409   3.567   4.921  3.4788  2.8685  0.8675
   9323SM   C1F12556   7.483   3.123   3.456  0.4252 -0.1663 -1.0476
   9323SM    OF12557   7.529   3.046   3.367  0.3046 -0.7046  0.4348
   9323SM   C2F12558   7.412   3.075   3.582 -0.4143 -0.3404 -0.2851
   9323SM   H2F12559   7.469   2.990   3.625 -0.4678  0.2067  0.9008
   9323SM   H2G12560   7.307   3.043   3.565 -0.5269  1.0238 -2.5971
   9323SM   C3F12561   7.425   3.179   3.695  0.0462  0.8073 -0.2386
   9323SM   H3F12562   7.371   3.274   3.674  0.1345  1.1851  1.1015
   9323SM   H3G12563   7.527   3.212   3.723 -0.0720  0.0353  1.2068
   9323SM   C4F12564   7.366   3.125   3.827 -0.5744  0.0400 -0.2155
   9323SM   H4F12565   7.389   3.018   3.844 -0.9508 -0.1517 -0.8680
   9323SM   H4G12566   7.258   3.143   3.808 -0.7053  0.0924  0.5502
   9323SM   C5F12567   7.397   3.194   3.956  0.1030 -0.4383  0.3639
   9323SM   H5F12568   7.505   3.174   3.974 -0.2789 -4.2984 -0.8158
   9323SM   H5G12569   7.338   3.158   4.043 -2.0658 -1.2095 -1.3437
   9323SM   C6F12570   7.387   3.348   3.952  0.0016 -0.0886  0.3359
   9323SM   H6F12571   7.308   3.372   3.878  0.4524 -0.8524 -0.4156
   9323SM   H6G12572   7.484   3.385   3.912 -0.9118  2.4288  0.2675
   9323SM   C7F12573   7.363   3.405   4.091 -0.0579  0.4065  0.1544
   9323SM   H7F12574   7.433   3.358   4.163  1.0787  0.7508 -0.7041
   9323SM   H7G12575   7.262   3.366   4.118 -0.6488  0.2703 -2.0495
   9323SM   C8F12576   7.373   3.552   4.083 -0.2511  0.0473 -0.1818
   9323SM   H8F12577   7.316   3.591   3.996  0.6361  0.6007 -0.5184
   9323SM   H8G12578   7.482   3.570   4.077  0.5209 -2.9070  2.4574
   9323SM   C9F12579   7.320   3.625   4.209 -0.2987  0.0520 -0.2899
   9323SM   H9F12580   7.363   3.727   4.219  0.6267 -0.4935  1.6934
   9323SM   H9G12581   7.353   3.567   4.297 -1.4252 -0.4365 -0.1626
   9323SM  C10F12582   7.169   3.637   4.226  0.3751  0.1406 -0.1588
   9323SM  H10F12583   7.124   3.537   4.240 -0.3394  0.6933  1.7651
   9323SM  H10G12584   7.129   3.682   4.132  0.2946  1.2203  0.3720
   9323SM  C11F12585   7.129   3.719   4.346  0.1157  0.3299  0.1910
   9323SM  H11F12586   7.018   3.709   4.345  0.2484 -1.3993  0.6264
   9323SM  H11G12587   7.158   3.826   4.336 -0.6015  0.4710 -0.4316
   9323SM  C12F12588   7.169   3.673   4.489 -0.2215 -0.1702  0.1702
   9323SM  H12F12589   7.279   3.655   4.495 -0.5086 -2.3898 -0.3564
   9323SM  H12G12590   7.115   3.577   4.502 -0.2390 -0.5379 -2.2319
   9323SM  C13F12591   7.111   3.764   4.602  0.7846 -0.9491  0.4087
   9323SM  H13F12592   7.172   3.857   4.605  1.3808 -1.3480  0.9488
   9323SM  H13G12593   7.125   3.701   4.693  0.9311 -2.3050 -0.5237
   9323SM  C14F12594   6.961   3.800   4.586 -0.5292  0.3414  0.2251
   9323SM  H14F12595   6.895   3.711   4.576  0.8473 -0.6617 -0.1536
   9323SM  H14G12596   6.944   3.846   4.487  0.3272 -0.0415 -0.1046
   9323SM  C15F12597   6.914   3.900   4.692 -0.2104  0.0142  0.5576
   9323SM  H15F12598   6.978   3.989   4.672 -0.9006  0.7104  1.3583
   9323SM  H15G12599   6.943   3.850   4.787  1.3018 -1.3167 -0.5656
   9323SM  C16F12600   6.769   3.946   4.688  0.2632 -0.1754 -0.4548
   9323SM  H16F12601   6.750   4.011   4.776  2.8338  0.6370 -0.4140
   9323SM  H16G12602   6.716   3.850   4.709 -1.7583  1.5442  3.3698
   9323SM  C17F12603   6.724   4.027   4.562  0.5978 -0.2645  0.0144
   9323SM  H17F12604   6.759   3.981   4.467 -3.7177  1.0223 -2.5043
   9323SM  H17G12605   6.770   4.127   4.573 -0.7692  0.2814  1.0832
   9323SM  C18F12606   6.578   4.052   4.555  0.2002  0.1982  0.7950
   9323SM  H18F12607   6.554   4.135   4.625 -2.9664 -0.3736  0.5036
   9323SM  H18G12608   6.513   3.971   4.591 -0.0990 -0.3444 -0.8582
   9323SM  C19F12609   6.530   4.106   4.419  0.0438 -0.1758 -0.6968
   9323SM  H19F12610   6.551   4.039   4.333 -0.0315 -1.5098  0.2881
   9323SM  H19G12611   6.588   4.199   4.400 -0.3661 -0.2068 -2.1642
   9323SM  C20F12612   6.380   4.137   4.414  0.4065 -0.0863 -0.4560
   9323SM  H20F12613   6.341   4.168   4.513  0.5458 -1.7025  0.1344
   9323SM  H20G12614   6.337   4.036   4.398  1.2023 -0.5848  0.4642
   9323SM  C21F12615   6.347   4.234   4.292 -0.1770  0.0431 -0.4111
   9323SM  H21F12616   6.236   4.230   4.287 -0.2505 -0.6639  1.1950
   9323SM  H21G12617   6.390   4.186   4.201 -1.6990 -1.2881 -0.4909
   9323SM  C22F12618   6.374   4.387   4.313  0.1154  0.8472 -0.0231
   9323SM  H22F12619   6.483   4.403   4.330  0.2322 -0.2893  0.3503
   9323SM  H22G12620   6.316   4.416   4.404 -2.6164 -2.1563 -0.6383
   9323SM  C23F12621   6.322   4.459   4.196 -0.7813 -0.1473 -0.3718
   9323SM  H23F12622   6.211   4.464   4.191 -0.7020  1.0054 -1.3742
   9323SM  H23G12623   6.356   4.413   4.101 -0.4276 -1.5089  0.3871
   9323SM  H23H12624   6.358   4.564   4.196  0.3208 -0.4909  1.0915
   9423SM     N12625   5.682   7.020   3.087 -0.0698  0.0493  0.0620
   9423SM   C1512626   5.795   6.953   3.017 -0.1527  0.1062  0.1685
   9423SM  H15A12627   5.821   6.861   3.067  1.8664 -0.0538 -1.0779
   9423SM  H15B12628   5.879   7.021   3.017  0.0782 -0.1675  0.9432
   9423SM  H15C12629   5.778   6.921   2.915  0.7784 -1.4467  0.4684
   9423SM   C1412630   5.607   7.115   2.996 -0.1545  0.7341 -0.1514
   9423SM  H14A12631   5.567   7.046   2.923 -0.6238 -0.7508  1.4266
   9423SM  H14B12632   5.679   7.178   2.947 -1.0074 -0.0074 -2.4757
   9423SM  H14C12633   5.535   7.180   3.044  1.6823  1.4909  1.7206
   9423SM   C1312634   5.577   6.917   3.129 -0.5753  0.2650  1.0264
   9423SM  H13A12635   5.542   6.863   3.042  0.1873 -1.9354  2.0058
   9423SM  H13B12636   5.493   6.968   3.175 -0.1703 -0.9295  3.2254
   9423SM  H13C12637   5.609   6.837   3.194 -0.0416 -3.0237 -2.8712
   9423SM   C1212638   5.727   7.086   3.220 -0.0374 -0.1463 -0.0564
   9423SM  H12A12639   5.770   7.008   3.280 -2.7799 -1.0398  0.8912
   9423SM  H12B12640   5.647   7.117   3.285  0.2182 -0.4902  0.4221
   9423SM   C1112641   5.818   7.212   3.203  0.5820 -0.3397  0.1495
   9423SM  H11A12642   5.827   7.248   3.308  1.4086 -0.0709 -0.0071
   9423SM  H11B12643   5.777   7.297   3.144  1.5971  1.7295  2.2728
   9423SM     P12644   6.053   7.088   3.224  0.4154  0.3983  0.1346
   9423SM   O1312645   6.027   6.939   3.208  0.2339 -0.3918  0.5941
   9423SM   O1412646   6.188   7.126   3.186  0.5987 -0.0863 -0.5131
   9423SM   O1112647   6.023   7.131   3.377  0.2239  0.0653  0.5018
   9423SM   O1212648   5.944   7.176   3.146 -0.1395 -0.4996 -0.1118
   9423SM   C1S12649   6.123   7.197   3.455  0.0057  0.2061  0.4166
   9423SM   H1S12650   6.095   7.301   3.480 -0.7407 -0.7044  3.8768
   9423SM   H1T12651   6.226   7.200   3.412 -0.0103  1.3900  0.4240
   9423SM    NF12652   6.220   7.199   3.689  0.1549 -0.3737  0.0039
   9423SM   HNF12653   6.317   7.176   3.696 -0.2617 -1.7700  2.4419
   9423SM   C2S12654   6.131   7.123   3.592  0.5495  0.3826 -0.2190
   9423SM   H2S12655   6.030   7.128   3.639 -0.3257 -1.3186 -1.7693
   9423SM   C3S12656   6.174   6.972   3.572 -0.0618 -0.1701 -0.3865
   9423SM   H3S12657   6.250   6.983   3.492  0.3403  1.1547  0.1341
   9423SM    O312658   6.060   6.900   3.532  0.1585 -0.6146 -0.7461
   9423SM   HO312659   6.022   6.966   3.473  0.6924  1.2015  0.8538
   9423SM   C4S12660   6.219   6.892   3.689  0.2057 -0.1132 -0.1867
   9423SM   H4S12661   6.137   6.865   3.757  1.9418 -2.2933  1.2021
   9423SM   C5S12662   6.341   6.832   3.701 -0.6168 -0.1530 -0.4171
   9423SM   H5S12663   6.419   6.857   3.628 -0.0662 -0.7508 -0.0384
   9423SM   C6S12664   6.387   6.733   3.808 -0.2689 -0.6530 -0.2665
   9423SM   H6S12665   6.472   6.784   3.858 -0.3314 -0.7600 -0.0490
   9423SM   H6T12666   6.430   6.642   3.761 -0.0476 -0.8340  0.2818
   9423SM   C7S12667   6.275   6.689   3.900 -0.0017 -0.0853 -1.1767
   9423SM   H7S12668   6.201   6.623   3.850  0.6209 -1.6191 -0.1390
   9423SM   H7T12669   6.221   6.774   3.947 -0.9665 -0.1367 -2.1552
   9423SM   C8S12670   6.340   6.621   4.024 -0.5383  0.0361 -0.3781
   9423SM   H8S12671   6.377   6.704   4.088 -0.6666  1.4383 -2.0530
   9423SM   H8T12672   6.425   6.555   3.995  0.0870  0.4899  0.3906
   9423SM   C9S12673   6.246   6.534   4.111 -0.1520 -0.2981 -0.3392
   9423SM   H9S12674   6.200   6.454   4.050  0.9414  0.1939 -1.8713
   9423SM   H9T12675   6.166   6.596   4.157  0.0487  0.1771 -0.6164
   9423SM  C10S12676   6.329   6.465   4.214  0.7288  0.6230 -0.5356
   9423SM  H10S12677   6.387   6.550   4.255 -1.3996  1.2531  1.3396
   9423SM  H10T12678   6.397   6.382   4.183  1.4686  1.7869 -2.1990
   9423SM  C11S12679   6.248   6.429   4.343  0.3159 -0.2117  0.0745
   9423SM  H11S12680   6.188   6.336   4.342  0.6457 -0.4444 -1.7829
   9423SM  H11T12681   6.172   6.508   4.360  1.9304  1.1627  1.2571
   9423SM  C12S12682   6.337   6.447   4.472 -0.4835  0.9800  0.5849
   9423SM  H12S12683   6.281   6.429   4.566 -1.3314 -2.3718 -0.4162
   9423SM  H12T12684   6.380   6.549   4.473 -0.3930  0.9687 -0.6263
   9423SM  C13S12685   6.461   6.351   4.492 -0.7524  0.1799 -0.4897
   9423SM  H13S12686   6.528   6.348   4.403 -0.6719  0.2703 -0.4330
   9423SM  H13T12687   6.417   6.249   4.496  0.0218 -0.1315  0.5134
   9423SM  C14S12688   6.549   6.399   4.609  0.1722  0.7380 -0.1835
   9423SM  H14S12689   6.486   6.407   4.700  0.2524 -2.3472  0.2463
   9423SM  H14T12690   6.591   6.497   4.578  0.4245  0.6319 -0.1768
   9423SM  C15S12691   6.667   6.305   4.640  0.2231 -0.4846  0.2835
   9423SM  H15S12692   6.738   6.375   4.690  0.5470  0.3156 -1.2379
   9423SM  H15T12693   6.713   6.267   4.546 -0.2587 -3.5334  1.1574
   9423SM  C16S12694   6.628   6.187   4.733 -0.3284 -0.7402 -0.2392
   9423SM  H16S12695   6.711   6.113   4.723  0.7689  0.2510  1.0212
   9423SM  H16T12696   6.530   6.140   4.712 -0.7695  0.0155  0.0915
   9423SM  C17S12697   6.617   6.228   4.881 -0.8270  0.1670  0.1486
   9423SM  H17S12698   6.528   6.291   4.898 -0.1072  1.2631 -0.0771
   9423SM  H17T12699   6.712   6.284   4.897  0.1312 -0.9356 -1.4017
   9423SM  C18S12700   6.622   6.114   4.975 -0.2568  0.1415 -0.4095
   9423SM  H18S12701   6.610   6.144   5.081  0.6037  0.6641 -0.4490
   9423SM  H18T12702   6.717   6.057   4.968 -0.1639  0.3329 -0.7544
   9423SM  H18U12703   6.535   6.048   4.953  1.5620 -2.6060  0.1680
   9423SM   C1F12704   6.183   7.318   3.745 -0.0505  0.7279  0.0522
   9423SM    OF12705   6.076   7.379   3.721 -0.1516 -0.1742 -0.3951
   9423SM   C2F12706   6.296   7.388   3.817  0.5457 -0.0672 -0.4585
   9423SM   H2F12707   6.364   7.431   3.740 -0.7028  1.6406 -0.6805
   9423SM   H2G12708   6.358   7.323   3.881  0.5281 -0.5332 -0.9039
   9423SM   C3F12709   6.249   7.509   3.906 -0.7320  0.3647  0.5743
   9423SM   H3F12710   6.169   7.564   3.852  0.4336 -1.0184 -2.8328
   9423SM   H3G12711   6.334   7.581   3.914 -2.6799  2.5591  3.4658
   9423SM   C4F12712   6.195   7.466   4.044  0.3123 -0.3336 -0.5402
   9423SM   H4F12713   6.279   7.440   4.112  0.6196  1.2035 -0.3183
   9423SM   H4G12714   6.151   7.365   4.026  1.9082 -1.3139  0.7107
   9423SM   C5F12715   6.097   7.565   4.113  0.1487  0.4694  0.6048
   9423SM   H5F12716   6.023   7.501   4.167  0.2439 -1.4838 -1.4255
   9423SM   H5G12717   6.040   7.621   4.036 -0.7281 -2.8858 -1.3982
   9423SM   C6F12718   6.168   7.657   4.212 -0.0407 -0.6170  0.7635
   9423SM   H6F12719   6.277   7.651   4.197  0.0795 -1.2312  1.7885
   9423SM   H6G12720   6.142   7.627   4.316 -0.6308  0.2637  0.8799
   9423SM   C7F12721   6.128   7.802   4.179 -0.6098  0.0625  0.5414
   9423SM   H7F12722   6.019   7.823   4.169 -0.6116 -0.5645 -0.8996
   9423SM   H7G12723   6.164   7.827   4.077 -3.3383 -1.8441 -1.0331
   9423SM   C8F12724   6.188   7.883   4.296  0.7476 -0.0231 -0.0878
   9423SM   H8F12725   6.292   7.858   4.327  0.5738  0.2144  0.7263
   9423SM   H8G12726   6.128   7.853   4.384  0.8894  0.2172  0.0931
   9423SM   C9F12727   6.176   8.034   4.277  0.3051 -0.3410  0.3694
   9423SM   H9F12728   6.068   8.056   4.265  0.2783  1.3820  3.0338
   9423SM   H9G12729   6.233   8.074   4.190  0.1527  0.2006  0.5197
   9423SM  C10F12730   6.238   8.114   4.393  0.5975  0.5304  0.2123
   9423SM  H10F12731   6.349   8.103   4.394  0.7732  1.8557  2.3338
   9423SM  H10G12732   6.202   8.059   4.483  1.3307 -2.0380 -0.9612
   9423SM  C11F12733   6.179   8.257   4.404 -0.6430 -0.1849 -0.1219
   9423SM  H11F12734   6.068   8.253   4.405 -0.9797  3.5253 -1.7390
   9423SM  H11G12735   6.197   8.323   4.316 -1.5469  0.0709 -0.1274
   9423SM  C12F12736   6.226   8.336   4.525  0.5549 -0.3059 -0.7661
   9423SM  H12F12737   6.336   8.349   4.519  0.5548  0.4562  0.4377
   9423SM  H12G12738   6.208   8.283   4.621  0.6347 -0.2106 -0.6990
   9423SM  C13F12739   6.162   8.477   4.521 -0.3785  0.8541 -0.6496
   9423SM  H13F12740   6.053   8.475   4.541 -0.3100  1.2692 -0.2207
   9423SM  H13G12741   6.181   8.528   4.425 -0.7584  0.2163 -1.0674
   9423SM  C14F12742   6.232   8.553   4.631  0.3877 -0.1488 -1.0268
   9423SM  H14F12743   6.342   8.560   4.612  0.5054 -0.2489 -0.3986
   9423SM  H14G12744   6.223   8.505   4.730 -0.5383 -1.0581 -1.5338
   9423SM  C15F12745   6.197   8.698   4.642  0.0803  0.4181 -0.1563
   9423SM  H15F12746   6.215   8.738   4.540 -0.4189  1.5611  0.1917
   9423SM  H15G12747   6.265   8.748   4.715  0.4246 -0.3495  0.0634
   9423SM  C16F12748   6.053   8.726   4.673 -0.0067  0.0555  0.4904
   9423SM  H16F12749   5.985   8.668   4.606  1.6547 -0.7548 -0.5629
   9423SM  H16G12750   6.017   8.825   4.639 -0.4431  0.1840  1.2837
   9423SM  C17F12751   6.027   8.700   4.816 -0.0801 -0.2344 -0.4655
   9423SM  H17F12752   6.084   8.608   4.839  1.0675  0.2357 -1.3529
   9423SM  H17G12753   5.920   8.685   4.844 -0.8642  0.6297 -2.8017
   9423SM  C18F12754   6.079   8.819   4.900 -0.1022 -0.7576  0.0551
   9423SM  H18F12755   6.038   8.910   4.851  0.0302 -0.3516  0.6849
   9423SM  H18G12756   6.190   8.828   4.891 -0.2944  3.0925 -0.2105
   9423SM  C19F12757   6.040   8.804   5.049 -0.2583 -0.7194 -0.1544
   9423SM  H19F12758   6.109   8.867   5.110 -0.9903  0.1088 -0.1599
   9423SM  H19G12759   6.038   8.695   5.071 -0.1370 -0.6840  0.0313
   9423SM  C20F12760   5.905   8.859   5.093 -0.7128  0.4538  1.3573
   9423SM  H20F12761   5.819   8.800   5.054  0.9547  0.3609 -2.6367
   9423SM  H20G12762   5.904   8.963   5.053  2.4801 -0.3039 -1.1280
   9423SM  C21F12763   5.903   8.877   5.249 -0.3998 -0.3876 -0.5383
   9423SM  H21F12764   5.844   8.970   5.266  3.3092  2.2854 -1.0672
   9423SM  H21G12765   6.003   8.896   5.292 -0.5513 -1.6809  0.4495
   9423SM  C22F12766   5.841   8.765   5.323 -0.7770  0.3930  0.1491
   9423SM  H22F12767   5.902   8.673   5.312 -2.4828 -0.6693 -0.7861
   9423SM  H22G12768   5.744   8.740   5.276  1.2540 -0.6664 -3.9434
   9423SM  C23F12769   5.799   8.792   5.473  0.6596 -0.0490  0.5315
   9423SM  H23F12770   5.887   8.808   5.540  1.3655 -0.1440 -0.3411
   9423SM  H23G12771   5.741   8.703   5.502 -0.1860  0.8637  1.7408
   9423SM  H23H12772   5.738   8.885   5.466  1.4231  0.5371  1.3523
   9523SM     N12773   1.203   1.619   2.759  0.0193 -0.6549 -0.2650
   9523SM   C1512774   1.189   1.490   2.691  0.6606  0.5706 -0.3701
   9523SM  H15A12775   1.217   1.415   2.763  1.6420  0.0369 -1.2967
   9523SM  H15B12776   1.250   1.478   2.603 -0.4486  0.6670 -1.1787
   9523SM  H15C12777   1.095   1.478   2.639  0.3956  0.3554  0.1475
   9523SM   C1412778   1.193   1.722   2.649 -0.0618  0.0359 -0.4352
   9523SM  H14A12779   1.095   1.719   2.604  0.1433 -0.7865 -0.8548
   9523SM  H14B12780   1.258   1.713   2.563  0.5379  1.7317 -0.1904
   9523SM  H14C12781   1.203   1.817   2.698 -2.1666 -1.6657  3.7576
   9523SM   C1312782   1.088   1.625   2.851  0.0899 -0.4473  0.0164
   9523SM  H13A12783   1.091   1.541   2.919  0.9193 -2.5483 -2.4600
   9523SM  H13B12784   0.996   1.626   2.794  0.2110  2.2209 -0.2513
   9523SM  H13C12785   1.089   1.708   2.920  1.6134  0.2058 -0.7486
   9523SM   C1212786   1.332   1.627   2.840  0.6239 -0.2533 -0.0364
   9523SM  H12A12787   1.345   1.731   2.866 -0.3438 -0.0745 -0.2256
   9523SM  H12B12788   1.418   1.609   2.777 -1.8372 -0.4881 -3.5910
   9523SM   C1112789   1.348   1.539   2.973 -0.3133 -0.7339 -0.3150
   9523SM  H11A12790   1.280   1.574   3.054  0.6445  1.2964 -0.3465
   9523SM  H11B12791   1.451   1.564   3.005 -1.3339  0.6516  2.1647
   9523SM     P12792   1.226   1.309   3.032 -0.2059  0.1884  0.2978
   9523SM   O1312793   1.088   1.367   3.027 -0.1493  0.7070 -0.3769
   9523SM   O1412794   1.246   1.178   2.972  0.0090  0.3121  0.2364
   9523SM   O1112795   1.284   1.301   3.183 -0.1841 -0.6996 -0.3263
   9523SM   O1212796   1.330   1.398   2.950  0.1142  0.2870 -0.4660
   9523SM   C1S12797   1.414   1.257   3.208  0.3336  0.4692 -0.3347
   9523SM   H1S12798   1.475   1.329   3.148 -0.5010  0.6054 -1.0397
   9523SM   H1T12799   1.428   1.152   3.175  0.5273  1.2339 -2.8640
   9523SM    NF12800   1.589   1.282   3.386  0.2916  0.1665  0.6084
   9523SM   HNF12801   1.624   1.205   3.439 -1.2293 -0.6713  0.4498
   9523SM   C2S12802   1.446   1.270   3.357 -0.0341  0.1637 -0.3433
   9523SM   H2S12803   1.401   1.364   3.395 -0.0820 -0.3333  0.8515
   9523SM   C3S12804   1.368   1.162   3.447 -0.3379 -0.4119  0.0475
   9523SM   H3S12805   1.407   1.063   3.416  0.4676 -0.2199  0.4239
   9523SM    O312806   1.229   1.174   3.420  0.1482  0.5714 -0.6662
   9523SM   HO312807   1.227   1.239   3.350 -0.8155  0.6740 -0.5543
   9523SM   C4S12808   1.405   1.185   3.593 -0.4070 -0.0184  0.5127
   9523SM   H4S12809   1.509   1.161   3.619  0.2599  0.8992 -1.1533
   9523SM   C5S12810   1.333   1.247   3.691 -0.1354 -0.4782  0.0776
   9523SM   H5S12811   1.231   1.284   3.671  0.0942  1.0379  1.5383
   9523SM   C6S12812   1.384   1.274   3.832  0.2905  0.3402  0.1750
   9523SM   H6S12813   1.311   1.226   3.901 -0.5344  1.6577  0.2418
   9523SM   H6T12814   1.376   1.381   3.860  1.6979  0.4791  0.1146
   9523SM   C7S12815   1.535   1.243   3.872  0.9658 -1.0789  1.1838
   9523SM   H7S12816   1.600   1.328   3.844 -0.3931  0.4150  2.3758
   9523SM   H7T12817   1.563   1.147   3.824  0.9774 -0.5422  0.0843
   9523SM   C8S12818   1.549   1.211   4.023  0.0648  0.0168 -0.7714
   9523SM   H8S12819   1.657   1.195   4.046 -0.6984 -1.7904  2.0647
   9523SM   H8T12820   1.497   1.118   4.053  1.4227 -0.1547  1.3444
   9523SM   C9S12821   1.509   1.319   4.127 -0.5933  0.0800  0.1792
   9523SM   H9S12822   1.403   1.343   4.103  0.0581  0.6481 -2.3902
   9523SM   H9T12823   1.562   1.414   4.105  1.2331 -0.9026  0.1641
   9523SM  C10S12824   1.540   1.284   4.268 -0.3061  0.5778 -0.7201
   9523SM  H10S12825   1.647   1.256   4.279 -0.7058 -0.6331  0.5641
   9523SM  H10T12826   1.482   1.190   4.282 -1.1798  1.0966 -0.7984
   9523SM  C11S12827   1.478   1.389   4.357  0.3035 -0.0373 -0.0282
   9523SM  H11S12828   1.378   1.431   4.330  0.0013  0.0369  1.1698
   9523SM  H11T12829   1.548   1.474   4.360  0.3017 -0.0106 -0.5873
   9523SM  C12S12830   1.442   1.346   4.503  0.0941 -0.2180 -0.8820
   9523SM  H12S12831   1.536   1.317   4.556  0.6830  1.5895 -0.8536
   9523SM  H12T12832   1.372   1.260   4.500  2.1455 -1.9419 -1.9212
   9523SM  C13S12833   1.377   1.462   4.569 -0.1119  0.1370  0.2049
   9523SM  H13S12834   1.274   1.462   4.527 -0.6339 -0.3535  1.4190
   9523SM  H13T12835   1.425   1.551   4.525  0.6470 -0.0651  0.6074
   9523SM  C14S12836   1.364   1.465   4.724  0.5481 -0.4152  0.2756
   9523SM  H14S12837   1.266   1.513   4.746 -0.1090 -1.5233 -0.1245
   9523SM  H14T12838   1.453   1.518   4.762  0.8699  1.4512 -2.8006
   9523SM  C15S12839   1.363   1.321   4.784 -0.4302  0.1242 -0.0133
   9523SM  H15S12840   1.461   1.275   4.762 -1.1325 -0.7343 -1.4342
   9523SM  H15T12841   1.294   1.256   4.726  1.4179 -1.8305 -0.1030
   9523SM  C16S12842   1.323   1.306   4.936 -0.0828  0.1761 -0.4538
   9523SM  H16S12843   1.297   1.199   4.952  0.5496  0.1478  0.4033
   9523SM  H16T12844   1.233   1.364   4.968  0.3028  0.8620 -0.5867
   9523SM  C17S12845   1.440   1.346   5.023 -0.1856 -0.2328  0.5863
   9523SM  H17S12846   1.454   1.456   5.018  0.0140 -0.2104  1.5406
   9523SM  H17T12847   1.536   1.304   4.987 -0.5205 -0.1150 -0.5006
   9523SM  C18S12848   1.414   1.306   5.168 -0.4579  0.3185 -0.1831
   9523SM  H18S12849   1.498   1.339   5.233 -1.4794 -0.7700  1.7477
   9523SM  H18T12850   1.397   1.197   5.178  2.8718 -0.2514  0.7256
   9523SM  H18U12851   1.329   1.368   5.203 -0.2803 -0.5896  1.9572
   9523SM   C1F12852   1.666   1.385   3.356 -0.4045 -0.2231 -0.4740
   9523SM    OF12853   1.624   1.478   3.286  0.8295  0.4927  0.4336
   9523SM   C2F12854   1.804   1.394   3.419  0.6412  0.4670  0.4672
   9523SM   H2F12855   1.881   1.356   3.349  0.6543  0.3549  0.5418
   9523SM   H2G12856   1.805   1.335   3.514  1.4493  1.4091  1.0660
   9523SM   C3F12857   1.818   1.542   3.462 -0.3794 -0.0269  0.3192
   9523SM   H3F12858   1.727   1.568   3.521  0.9057  1.0518  1.9366
   9523SM   H3G12859   1.815   1.617   3.381  0.3756  0.4635  0.7272
   9523SM   C4F12860   1.951   1.565   3.539  0.0271  0.1363  0.2472
   9523SM   H4F12861   2.034   1.518   3.482 -1.3408 -0.7559 -1.1006
   9523SM   H4G12862   1.948   1.523   3.642 -1.1446  1.8257  0.9635
   9523SM   C5F12863   1.981   1.716   3.561  0.3521  0.1023 -0.2549
   9523SM   H5F12864   1.885   1.771   3.572 -0.5358 -0.8623 -2.6347
   9523SM   H5G12865   2.024   1.751   3.465 -1.8207  0.6675 -1.0767
   9523SM   C6F12866   2.075   1.746   3.681  0.9117 -0.2243 -0.1823
   9523SM   H6F12867   2.149   1.663   3.680 -0.0221 -1.0825 -0.1372
   9523SM   H6G12868   2.025   1.706   3.772  2.2263 -2.5101 -0.3695
   9523SM   C7F12869   2.126   1.894   3.702  0.5830 -0.6619  0.0190
   9523SM   H7F12870   2.045   1.967   3.721 -0.7114 -1.6950 -1.2520
   9523SM   H7G12871   2.179   1.920   3.608  0.8148  0.5082  0.4631
   9523SM   C8F12872   2.227   1.900   3.812  0.5462 -0.0886  0.4124
   9523SM   H8F12873   2.299   1.819   3.789  1.6562  1.3025 -1.1944
   9523SM   H8G12874   2.163   1.868   3.897 -1.7872  1.4926 -0.6394
   9523SM   C9F12875   2.301   2.028   3.842  0.3977 -0.0005 -0.3474
   9523SM   H9F12876   2.226   2.110   3.831  2.0138  1.9200  1.9915
   9523SM   H9G12877   2.382   2.043   3.767  1.5941  0.1218  0.9355
   9523SM  C10F12878   2.365   2.021   3.983  0.5146  0.5330 -0.5332
   9523SM  H10F12879   2.290   2.054   4.057  2.4626  0.1698  1.7297
   9523SM  H10G12880   2.451   2.091   3.993  1.1826 -0.4071  0.7286
   9523SM  C11F12881   2.421   1.884   4.027 -0.3679  0.1017  0.2606
   9523SM  H11F12882   2.483   1.851   3.941  0.9535  2.0134  0.4206
   9523SM  H11G12883   2.336   1.814   4.038  1.1581 -1.7723  0.6846
   9523SM  C12F12884   2.496   1.888   4.158 -0.1282 -0.0742 -0.2548
   9523SM  H12F12885   2.431   1.911   4.245  1.0504  1.1010  0.3447
   9523SM  H12G12886   2.581   1.958   4.142 -0.6435  0.4006 -1.0057
   9523SM  C13F12887   2.551   1.757   4.203 -0.1526  0.1961 -0.6798
   9523SM  H13F12888   2.632   1.717   4.137  0.1871  0.1840 -0.2565
   9523SM  H13G12889   2.468   1.685   4.186 -1.6981  2.1495 -1.8553
   9523SM  C14F12890   2.598   1.752   4.352  0.0387 -1.0473  0.7024
   9523SM  H14F12891   2.520   1.805   4.411 -1.0375 -1.8756  0.0367
   9523SM  H14G12892   2.694   1.809   4.359  0.8054 -2.4953  3.5608
   9523SM  C15F12893   2.602   1.614   4.414 -0.2211 -0.1705 -0.0652
   9523SM  H15F12894   2.676   1.550   4.362  0.2854 -0.9713  1.5934
   9523SM  H15G12895   2.502   1.565   4.416  0.6479 -2.1755 -1.6694
   9523SM  C16F12896   2.632   1.627   4.567  0.2330 -0.0528 -0.2554
   9523SM  H16F12897   2.560   1.696   4.615 -1.7676  0.0463 -3.1875
   9523SM  H16G12898   2.736   1.666   4.578  0.5142 -1.0368  0.8013
   9523SM  C17F12899   2.640   1.484   4.636 -0.3722 -0.3265 -0.5193
   9523SM  H17F12900   2.714   1.431   4.572  0.7360  0.4776  0.0742
   9523SM  H17G12901   2.540   1.436   4.633 -0.8208  0.3604  1.6417
   9523SM  C18F12902   2.679   1.489   4.787  0.8196 -0.1114 -0.2369
   9523SM  H18F12903   2.614   1.416   4.841  0.8703  0.6780  0.9095
   9523SM  H18G12904   2.661   1.587   4.835 -0.2322  0.2915 -1.3780
   9523SM  C19F12905   2.829   1.472   4.815  0.0099 -0.3446 -0.7261
   9523SM  H19F12906   2.880   1.540   4.744 -0.6729  2.1816  1.0744
   9523SM  H19G12907   2.844   1.365   4.790 -3.4340 -1.6280  1.9702
   9523SM  C20F12908   2.875   1.496   4.955 -0.4173 -0.2570 -0.1624
   9523SM  H20F12909   2.838   1.418   5.025 -0.4612 -0.1182 -0.0303
   9523SM  H20G12910   2.828   1.587   4.996  0.5531 -0.5802  1.7879
   9523SM  C21F12911   3.029   1.506   4.967 -0.0253 -0.7573  0.3899
   9523SM  H21F12912   3.057   1.605   4.925 -0.3491 -0.5963  0.5496
   9523SM  H21G12913   3.070   1.422   4.906  1.9861 -0.1610  0.8662
   9523SM  C22F12914   3.092   1.491   5.099 -0.0200  0.6162 -0.1556
   9523SM  H22F12915   3.084   1.387   5.139 -0.8902  0.1457 -1.4575
   9523SM  H22G12916   3.033   1.548   5.173  0.6849 -0.3265  1.1701
   9523SM  C23F12917   3.243   1.523   5.117  0.4189 -0.7273 -0.1133
   9523SM  H23F12918   3.251   1.625   5.074 -2.2205  0.1768  1.3332
   9523SM  H23G12919   3.308   1.449   5.065 -1.0783 -1.2822 -1.2335
   9523SM  H23H12920   3.280   1.529   5.222  2.3348 -2.0474 -0.6525
   9623SM     N12921   4.832   0.178   2.798  0.5030 -0.0912  0.6301
   9623SM   C1512922   4.880   0.242   2.670 -0.1338  0.6264 -0.0851
   9623SM  H15A12923   4.899   0.347   2.686  1.2737  0.5262 -0.8844
   9623SM  H15B12924   4.815   0.224   2.585 -0.5685  2.4519 -0.1842
   9623SM  H15C12925   4.973   0.194   2.641  0.1585  0.2515  1.4224
   9623SM   C1412926   4.808   0.035   2.774  0.2637 -0.4290 -0.6666
   9623SM  H14A12927   4.884  -0.002   2.708  1.7296 -1.2160  1.3375
   9623SM  H14B12928   4.716   0.022   2.718 -0.6108 -0.8109  0.7861
   9623SM  H14C12929   4.802  -0.031   2.860 -1.1301 -1.1895 -1.3197
   9623SM   C1312930   4.942   0.190   2.902  0.0396 -0.3529 -0.5309
   9623SM  H13A12931   4.968   0.295   2.913  0.6005 -0.5697  0.2927
   9623SM  H13B12932   5.036   0.142   2.879 -0.4081 -0.4001 -2.3938
   9623SM  H13C12933   4.917   0.155   3.001 -0.3964 -0.9084 -0.8363
   9623SM   C1212934   4.706   0.237   2.856 -0.1008 -0.4202  0.2822
   9623SM  H12A12935   4.732   0.329   2.907  0.4183  0.2185 -1.0618
   9623SM  H12B12936   4.675   0.172   2.935 -1.5286 -1.8433 -1.3650
   9623SM   C1112937   4.594   0.275   2.758  0.1587 -0.5466  0.4165
   9623SM  H11A12938   4.629   0.334   2.670  0.0172 -0.1585  0.6201
   9623SM  H11B12939   4.515   0.332   2.810  1.7547  3.1702 -0.9249
   9623SM     P12940   4.434   0.065   2.794 -0.2957  0.2144 -0.1843
   9623SM   O1312941   4.295   0.105   2.757  0.1139  0.5398 -0.2305
   9623SM   O1412942   4.456  -0.081   2.782 -0.7752 -0.2046  0.1890
   9623SM   O1112943   4.471   0.116   2.940 -0.1376  0.0760 -0.0918
   9623SM   O1212944   4.543   0.147   2.702 -0.0274  0.4651 -0.1230
   9623SM   C1S12945   4.437   0.044   3.056  0.1552 -0.5125  0.4198
   9623SM   H1S12946   4.503  -0.045   3.064 -0.1371 -0.6412  1.4933
   9623SM   H1T12947   4.333   0.006   3.062  0.7533 -2.0028  2.6419
   9623SM    NF12948   4.472   0.064   3.304 -1.0017  0.1612 -0.3347
   9623SM   HNF12949   4.415   0.100   3.378  1.2209  1.3064  0.9482
   9623SM   C2S12950   4.468   0.133   3.179  0.0349 -0.0713 -0.3813
   9623SM   H2S12951   4.568   0.180   3.171 -0.6315  1.6451  0.7469
   9623SM   C3S12952   4.368   0.257   3.173 -0.4435  0.0684 -0.1617
   9623SM   H3S12953   4.270   0.213   3.201  0.1425 -0.7586  0.6527
   9623SM    O312954   4.344   0.315   3.044  0.1226 -0.0271 -0.6611
   9623SM   HO312955   4.368   0.239   2.991 -1.6781  0.7401 -2.7228
   9623SM   C4S12956   4.399   0.367   3.277  0.0710  0.3497  0.5219
   9623SM   H4S12957   4.344   0.357   3.372 -0.6310 -3.2650 -0.0962
   9623SM   C5S12958   4.480   0.474   3.270  0.4918 -0.4883 -0.3354
   9623SM   H5S12959   4.537   0.489   3.177 -2.2458 -0.3893 -2.0957
   9623SM   C6S12960   4.493   0.576   3.385  0.3211  0.6203  0.1603
   9623SM   H6S12961   4.448   0.667   3.340  1.8435  0.3123 -2.1396
   9623SM   H6T12962   4.601   0.596   3.400  0.2713  0.9864  0.0334
   9623SM   C7S12963   4.415   0.562   3.526 -1.1784  0.0319 -0.6206
   9623SM   H7S12964   4.310   0.528   3.522 -0.8217 -1.2537  0.2052
   9623SM   H7T12965   4.425   0.663   3.571 -0.4220  1.0546 -2.9074
   9623SM   C8S12966   4.472   0.448   3.623  0.0776 -0.3232 -0.0467
   9623SM   H8S12967   4.578   0.473   3.642  0.9507 -3.1530 -0.8104
   9623SM   H8T12968   4.472   0.352   3.567 -0.0096 -0.4003  0.0846
   9623SM   C9S12969   4.389   0.436   3.754 -0.0179  0.2995  0.7139
   9623SM   H9S12970   4.425   0.338   3.792 -0.4429 -0.9615 -1.9512
   9623SM   H9T12971   4.284   0.413   3.727  0.9055 -0.6083 -2.5205
   9623SM  C10S12972   4.399   0.554   3.853  0.1974  0.5938  0.0828
   9623SM  H10S12973   4.388   0.657   3.814  2.3465  1.4748  1.6366
   9623SM  H10T12974   4.494   0.559   3.910  0.0277 -0.5195  0.4996
   9623SM  C11S12975   4.272   0.534   3.949 -1.0189  0.2263 -0.2278
   9623SM  H11S12976   4.259   0.427   3.974  0.7355 -0.2983 -1.4127
   9623SM  H11T12977   4.182   0.568   3.894 -0.7918  0.4442 -0.4644
   9623SM  C12S12978   4.279   0.619   4.079 -0.6478 -1.0785  0.3463
   9623SM  H12S12979   4.276   0.724   4.045 -1.2000 -1.8168 -2.1125
   9623SM  H12T12980   4.379   0.606   4.126 -0.2330 -0.3901 -0.3442
   9623SM  C13S12981   4.168   0.592   4.185 -0.6594  0.1185  0.0218
   9623SM  H13S12982   4.171   0.483   4.209  1.1529  0.0457 -0.4225
   9623SM  H13T12983   4.072   0.619   4.136  0.2684 -1.2001 -2.6636
   9623SM  C14S12984   4.178   0.676   4.322 -0.3018 -0.3453  0.0035
   9623SM  H14S12985   4.079   0.665   4.372 -0.3441  1.9859  0.5603
   9623SM  H14T12986   4.177   0.784   4.294 -1.4945 -0.1735  0.6159
   9623SM  C15S12987   4.288   0.632   4.416  0.3908  0.6237 -0.3979
   9623SM  H15S12988   4.396   0.627   4.388  0.1932 -0.8516 -0.9859
   9623SM  H15T12989   4.260   0.531   4.453 -0.0963  0.0316 -2.2923
   9623SM  C16S12990   4.288   0.718   4.548 -0.1941  0.9123  0.8071
   9623SM  H16S12991   4.184   0.727   4.586 -0.8220  0.0307 -0.6131
   9623SM  H16T12992   4.322   0.820   4.522 -0.5594  0.8817  0.2109
   9623SM  C17S12993   4.383   0.658   4.651  0.0604  0.5058  0.8793
   9623SM  H17S12994   4.483   0.649   4.603 -0.7382 -1.7458 -0.5313
   9623SM  H17T12995   4.353   0.556   4.684 -3.6731  1.4268  0.8452
   9623SM  C18S12996   4.390   0.756   4.772  0.9239  0.0345 -0.3691
   9623SM  H18S12997   4.323   0.841   4.750 -0.0480 -0.1755  1.5691
   9623SM  H18T12998   4.495   0.788   4.790  1.8714 -2.0422 -1.7033
   9623SM  H18U12999   4.353   0.707   4.864  4.0211 -1.2987  0.3077
   9623SM   C1F13000   4.560  -0.034   3.339 -0.5859 -0.4202 -0.5227
   9623SM    OF13001   4.639  -0.071   3.256  0.6180  0.2923 -0.2553
   9623SM   C2F13002   4.570  -0.078   3.484 -0.0158  0.0839  0.4993
   9623SM   H2F13003   4.476  -0.055   3.539  0.4564  4.1563 -0.0929
   9623SM   H2G13004   4.656  -0.027   3.532  0.4222 -0.3642  0.1983
   9623SM   C3F13005   4.599  -0.224   3.508  0.5293  0.1383 -0.1805
   9623SM   H3F13006   4.693  -0.242   3.451  1.5526 -1.9502  1.9595
   9623SM   H3G13007   4.522  -0.293   3.468 -1.0508  1.6373  0.1759
   9623SM   C4F13008   4.628  -0.257   3.652  0.1790 -0.1907 -0.6232
   9623SM   H4F13009   4.535  -0.246   3.711  0.1282  3.7028 -1.2109
   9623SM   H4G13010   4.709  -0.200   3.703 -1.1544  1.7024 -0.5294
   9623SM   C5F13011   4.674  -0.407   3.661 -0.2104 -0.6222 -0.1881
   9623SM   H5F13012   4.779  -0.407   3.627  0.1476  0.2684  0.8677
   9623SM   H5G13013   4.603  -0.472   3.604 -0.1242 -2.5777  1.7958
   9623SM   C6F13014   4.674  -0.454   3.807  0.8714  0.5061 -0.0700
   9623SM   H6F13015   4.679  -0.565   3.803 -2.2414  0.1638  1.7658
   9623SM   H6G13016   4.569  -0.430   3.837  0.3520 -2.3946  0.7151
   9623SM   C7F13017   4.767  -0.398   3.910 -0.2981 -0.2884 -0.0731
   9623SM   H7F13018   4.735  -0.296   3.937  0.5763 -0.2876  1.0151
   9623SM   H7G13019   4.870  -0.392   3.867 -0.4507  2.0229 -0.2288
   9623SM   C8F13020   4.769  -0.484   4.037  0.0730  0.4195  0.0637
   9623SM   H8F13021   4.803  -0.587   4.010 -0.2543 -0.4156  2.6385
   9623SM   H8G13022   4.661  -0.496   4.060 -0.6999 -1.2462 -3.6682
   9623SM   C9F13023   4.844  -0.439   4.156  0.0144 -0.0521  0.2960
   9623SM   H9F13024   4.826  -0.330   4.170 -1.6590 -0.1892 -0.4192
   9623SM   H9G13025   4.953  -0.454   4.144  0.2373  2.2772 -1.2609
   9623SM  C10F13026   4.784  -0.508   4.280  0.7483 -0.1229 -0.3179
   9623SM  H10F13027   4.773  -0.619   4.272  3.0411 -0.3438 -1.0436
   9623SM  H10G13028   4.677  -0.483   4.296  0.8366 -1.2533  2.5925
   9623SM  C11F13029   4.846  -0.454   4.408 -0.2307 -0.8090 -0.1085
   9623SM  H11F13030   4.853  -0.343   4.409 -0.2542 -0.8145  0.7697
   9623SM  H11G13031   4.951  -0.489   4.403 -0.3737 -1.2533  0.0017
   9623SM  C12F13032   4.770  -0.498   4.530 -0.1938 -1.0004  0.0826
   9623SM  H12F13033   4.796  -0.603   4.557  2.4693  0.1202  2.4426
   9623SM  H12G13034   4.660  -0.483   4.524 -0.5284 -2.0969  2.2807
   9623SM  C13F13035   4.812  -0.422   4.651  0.1285  0.1325  0.8207
   9623SM  H13F13036   4.767  -0.322   4.637  0.5390 -0.0435 -2.5587
   9623SM  H13G13037   4.922  -0.417   4.666  0.5209  0.0297 -1.6031
   9623SM  C14F13038   4.761  -0.480   4.780 -0.0542  0.1040 -0.5471
   9623SM  H14F13039   4.762  -0.412   4.868  1.1157 -0.2953 -0.2396
   9623SM  H14G13040   4.812  -0.576   4.803 -0.9313 -0.0590  0.8289
   9623SM  C15F13041   4.614  -0.515   4.768 -0.2301 -0.1992 -0.0697
   9623SM  H15F13042   4.590  -0.594   4.694 -1.5159  0.3146 -0.2269
   9623SM  H15G13043   4.561  -0.425   4.729  1.8216  0.3528 -1.8013
   9623SM  C16F13044   4.548  -0.560   4.901  0.0051  0.1310  0.3473
   9623SM  H16F13045   4.443  -0.593   4.889 -0.0217 -0.8764  2.6724
   9623SM  H16G13046   4.541  -0.478   4.976  1.4408  1.0972 -0.5308
   9623SM  C17F13047   4.614  -0.674   4.966  0.5288  0.2874  0.2885
   9623SM  H17F13048   4.713  -0.645   5.008  1.6882 -0.5047 -1.7218
   9623SM  H17G13049   4.650  -0.754   4.898  1.2947  0.5056  0.4281
   9623SM  C18F13050   4.532  -0.738   5.084 -0.1587 -0.4101 -0.1373
   9623SM  H18F13051   4.468  -0.821   5.047 -0.4030  0.1868 -1.0775
   9623SM  H18G13052   4.461  -0.661   5.121  1.5694  0.5240  1.3801
   9623SM  C19F13053   4.611  -0.780   5.213 -0.5019  0.7443  0.4732
   9623SM  H19F13054   4.659  -0.689   5.254 -0.8623  2.0055 -1.7341
   9623SM  H19G13055   4.690  -0.851   5.180  0.5308  2.3082 -0.5661
   9623SM  C20F13056   4.514  -0.861   5.304 -0.1992 -0.0619  0.0698
   9623SM  H20F13057   4.476  -0.947   5.245 -1.3202 -0.7096  1.6901
   9623SM  H20G13058   4.435  -0.787   5.329 -0.4114 -0.1506 -0.3432
   9623SM  C21F13059   4.586  -0.905   5.433  1.0198  0.5153  0.9351
   9623SM  H21F13060   4.618  -0.814   5.488  0.2651  1.8906 -0.8017
   9623SM  H21G13061   4.680  -0.958   5.405  2.0312  1.4222  2.4455
   9623SM  C22F13062   4.505  -1.004   5.520 -0.6029  0.2665 -0.1383
   9623SM  H22F13063   4.411  -0.954   5.553 -1.1179  0.0861 -1.2962
   9623SM  H22G13064   4.560  -1.029   5.613  0.8020 -3.1138 -1.7171
   9623SM  C23F13065   4.467  -1.139   5.449  0.4567 -0.3165 -0.1533
   9623SM  H23F13066   4.553  -1.197   5.410 -1.7870 -1.8980 -3.1815
   9623SM  H23G13067   4.387  -1.116   5.375  0.5496  1.4120  0.2189
   9623SM  H23H13068   4.428  -1.204   5.530 -1.5835 -0.1375 -0.9450
   9723SM     N13069   4.742   1.205   2.475  0.4668 -0.4137 -0.1386
   9723SM   C1513070   4.729   1.341   2.418 -0.1532  0.1712 -0.1140
   9723SM  H15A13071   4.747   1.417   2.492 -0.0759  0.5068 -0.4746
   9723SM  H15B13072   4.636   1.350   2.365  0.2280  0.5699 -0.7308
   9723SM  H15C13073   4.810   1.367   2.351  0.2675  1.4607  0.8556
   9723SM   C1413074   4.610   1.188   2.555  0.6334 -0.2183  0.1612
   9723SM  H14A13075   4.526   1.194   2.487 -0.4909 -0.8181  1.4413
   9723SM  H14B13076   4.600   1.238   2.651  0.9740  1.2934 -0.5540
   9723SM  H14C13077   4.607   1.083   2.578 -0.4891 -0.1664  0.3165
   9723SM   C1313078   4.740   1.097   2.363 -0.4142  0.1410 -0.5727
   9723SM  H13A13079   4.753   0.998   2.403 -0.7273  0.7801  1.2139
   9723SM  H13B13080   4.821   1.122   2.295 -0.8153  1.5983 -0.5459
   9723SM  H13C13081   4.649   1.096   2.305 -0.3871  1.5223 -0.6818
   9723SM   C1213082   4.860   1.187   2.562  0.0148  0.4802 -0.2809
   9723SM  H12A13083   4.945   1.208   2.499 -0.8809  1.7649 -1.1098
   9723SM  H12B13084   4.876   1.082   2.585  0.5751  0.7528  0.6259
   9723SM   C1113085   4.862   1.250   2.705  0.5687  0.2246 -0.1811
   9723SM  H11A13086   4.942   1.201   2.764  0.2302 -0.1594 -0.0387
   9723SM  H11B13087   4.775   1.226   2.770  1.2036 -3.2742 -0.4470
   9723SM     P13088   5.027   1.448   2.715  0.8525 -0.2639 -0.2419
   9723SM   O1313089   5.122   1.388   2.620 -0.2104 -0.1767  0.1579
   9723SM   O1413090   5.026   1.598   2.723 -0.5977 -0.0879 -0.1393
   9723SM   O1113091   5.060   1.395   2.859  0.0842 -0.3955 -0.7113
   9723SM   O1213092   4.885   1.390   2.691 -0.7720 -0.0897  0.1932
   9723SM   C1S13093   4.972   1.449   2.958  0.4248 -0.5740 -0.3839
   9723SM   H1S13094   4.866   1.431   2.932  0.2327  1.4866 -1.2236
   9723SM   H1T13095   4.973   1.559   2.975  0.9620 -0.7469  0.8866
   9723SM    NF13096   4.905   1.457   3.203 -0.7898 -0.3901 -0.2502
   9723SM   HNF13097   4.927   1.549   3.234 -0.1546 -0.3228 -0.8955
   9723SM   C2S13098   5.002   1.399   3.106 -0.1312 -0.4253 -0.0482
   9723SM   H2S13099   4.992   1.289   3.117  1.2889 -0.3375  3.1633
   9723SM   C3S13100   5.156   1.427   3.134  0.1341 -0.1738  0.6919
   9723SM   H3S13101   5.173   1.536   3.126  1.0558 -0.3549  0.1011
   9723SM    O313102   5.244   1.368   3.041  0.4226 -0.0145  0.0407
   9723SM   HO313103   5.187   1.356   2.964  0.9703 -2.0048 -0.1119
   9723SM   C4S13104   5.202   1.389   3.271 -0.1420 -0.5264  0.3869
   9723SM   H4S13105   5.164   1.468   3.339  3.3280  0.0288  1.9057
   9723SM   C5S13106   5.269   1.281   3.316 -0.1727 -0.5595  0.5331
   9723SM   H5S13107   5.309   1.204   3.248 -0.7601 -0.6859  0.3265
   9723SM   C6S13108   5.295   1.264   3.462  0.5225 -0.4598  0.7173
   9723SM   H6S13109   5.319   1.358   3.515 -1.3607 -1.5821  3.8747
   9723SM   H6T13110   5.386   1.201   3.470  0.4521 -0.7825 -0.7688
   9723SM   C7S13111   5.177   1.193   3.539 -0.1370  0.5855  0.3644
   9723SM   H7S13112   5.168   1.086   3.509 -1.7655  1.0423 -0.9483
   9723SM   H7T13113   5.083   1.237   3.501 -1.6167  0.0021  3.1287
   9723SM   C8S13114   5.198   1.197   3.687 -0.2845 -0.3396 -0.1939
   9723SM   H8S13115   5.203   1.304   3.716  0.0359 -0.0912 -1.1115
   9723SM   H8T13116   5.286   1.149   3.734 -0.5915  0.2191  0.9735
   9723SM   C9S13117   5.076   1.146   3.764  0.1914 -0.0554  0.1475
   9723SM   H9S13118   5.060   1.038   3.745  0.1941 -0.3157  1.5087
   9723SM   H9T13119   4.989   1.192   3.712  0.5861  1.4446  0.7666
   9723SM  C10S13120   5.069   1.175   3.910 -0.7627 -0.1363  0.3255
   9723SM  H10S13121   5.100   1.275   3.945 -0.9410 -0.1577  0.5423
   9723SM  H10T13122   5.149   1.111   3.953 -0.1924 -0.2793 -0.8813
   9723SM  C11S13123   4.926   1.146   3.963  0.2817  0.0849  0.0284
   9723SM  H11S13124   4.892   1.045   3.935 -0.4756  0.5535 -0.7925
   9723SM  H11T13125   4.859   1.221   3.915  0.5998  0.5855  0.3522
   9723SM  C12S13126   4.915   1.173   4.113 -0.5135  0.2738  0.1328
   9723SM  H12S13127   4.807   1.181   4.140 -0.2376  0.8672  1.0977
   9723SM  H12T13128   4.968   1.270   4.123  0.5337 -0.1098 -1.3535
   9723SM  C13S13129   4.984   1.073   4.206  0.6618 -0.7092  0.3509
   9723SM  H13S13130   5.091   1.065   4.177  0.6310 -1.7475  0.4886
   9723SM  H13T13131   4.952   0.968   4.191  2.3780 -1.4476  1.5381
   9723SM  C14S13132   4.977   1.109   4.356 -0.6163 -0.3805  0.3305
   9723SM  H14S13133   4.988   1.219   4.367 -1.3606 -0.1966 -0.6317
   9723SM  H14T13134   5.058   1.059   4.414 -1.9498 -2.0908  0.7996
   9723SM  C15S13135   4.846   1.073   4.421 -0.6946 -0.1035  0.4307
   9723SM  H15S13136   4.767   1.133   4.370  0.3299  1.3305  0.4683
   9723SM  H15T13137   4.846   1.098   4.529 -0.6200 -0.2141  0.4562
   9723SM  C16S13138   4.820   0.923   4.409 -0.3384  0.7160  0.0710
   9723SM  H16S13139   4.892   0.855   4.460 -0.2467 -0.6588 -1.8029
   9723SM  H16T13140   4.809   0.888   4.304 -2.3517 -1.1583  0.8142
   9723SM  C17S13141   4.683   0.895   4.469  0.4213  0.1860 -0.5967
   9723SM  H17S13142   4.669   0.955   4.561 -0.9488 -0.0083 -0.6456
   9723SM  H17T13143   4.674   0.788   4.498  2.9497 -0.5247 -2.1808
   9723SM  C18S13144   4.569   0.918   4.371 -0.2833  0.5145  0.6065
   9723SM  H18S13145   4.480   0.852   4.379 -0.5213  0.7939  0.2839
   9723SM  H18T13146   4.599   0.912   4.264 -2.0606 -1.9440  0.1692
   9723SM  H18U13147   4.536   1.021   4.399 -1.8389  0.4365 -0.7563
   9723SM   C1F13148   4.784   1.406   3.217  0.6263 -0.1568  0.3763
   9723SM    OF13149   4.744   1.311   3.150  0.1557 -0.4774  0.7167
   9723SM   C2F13150   4.686   1.485   3.313  0.2655 -0.1860 -0.2187
   9723SM   H2F13151   4.595   1.508   3.255  1.2014 -0.1676 -1.7490
   9723SM   H2G13152   4.728   1.583   3.344 -1.7746 -0.0785  2.5523
   9723SM   C3F13153   4.665   1.405   3.439 -0.1351 -0.1534 -0.1523
   9723SM   H3F13154   4.617   1.306   3.419  2.0509 -1.1559 -0.6747
   9723SM   H3G13155   4.580   1.450   3.495  1.7259  2.1810  0.9355
   9723SM   C4F13156   4.785   1.396   3.521 -0.2246 -0.6424 -0.0056
   9723SM   H4F13157   4.875   1.364   3.463  0.2405  1.3394 -0.4545
   9723SM   H4G13158   4.755   1.317   3.593  1.0777 -2.7998 -1.6811
   9723SM   C5F13159   4.820   1.524   3.604 -1.0402  0.5357 -0.1679
   9723SM   H5F13160   4.765   1.546   3.698  0.8331 -0.5591  1.2511
   9723SM   H5G13161   4.814   1.617   3.544 -1.4025  1.3832  1.1192
   9723SM   C6F13162   4.968   1.529   3.652 -0.4832  0.3493  0.9006
   9723SM   H6F13163   5.033   1.548   3.563 -2.3953  3.0269 -0.0365
   9723SM   H6G13164   4.998   1.433   3.700 -1.6921  0.5014  2.0096
   9723SM   C7F13165   4.993   1.647   3.749  0.1655 -0.4126 -0.1111
   9723SM   H7F13166   4.908   1.664   3.818  0.9248  1.8467  0.3549
   9723SM   H7G13167   4.992   1.736   3.683  0.7652 -1.6473 -1.8411
   9723SM   C8F13168   5.136   1.639   3.822  0.5857 -0.2252 -0.3245
   9723SM   H8F13169   5.207   1.633   3.736  2.1057  3.6677  0.4615
   9723SM   H8G13170   5.153   1.540   3.869  2.0965 -1.8231 -3.8589
   9723SM   C9F13171   5.170   1.745   3.919 -0.4044 -0.5049  0.7287
   9723SM   H9F13172   5.162   1.842   3.864  0.8230 -0.3870  0.7246
   9723SM   H9G13173   5.275   1.736   3.955 -0.2710 -2.6969 -0.0960
   9723SM  C10F13174   5.081   1.742   4.043  0.2844  0.3140  0.1905
   9723SM  H10F13175   4.972   1.741   4.018  0.3362 -1.8072 -0.1049
   9723SM  H10G13176   5.098   1.838   4.097  2.0123  0.9547 -1.3792
   9723SM  C11F13177   5.089   1.621   4.140  0.2573 -0.0963 -0.4388
   9723SM  H11F13178   5.195   1.601   4.163  0.5274  1.1251 -0.5817
   9723SM  H11G13179   5.029   1.540   4.093  0.3295  0.4474 -1.4859
   9723SM  C12F13180   5.023   1.654   4.277 -0.4344 -0.1780 -0.0108
   9723SM  H12F13181   4.923   1.698   4.261  0.0468  1.5566  1.4484
   9723SM  H12G13182   5.088   1.729   4.326  0.5728 -1.8697  1.3581
   9723SM  C13F13183   5.016   1.526   4.358 -0.0355 -0.5430 -0.1820
   9723SM  H13F13184   5.119   1.487   4.367  1.2819  2.3647 -1.3989
   9723SM  H13G13185   4.948   1.447   4.318  0.7492 -1.3724  0.0988
   9723SM  C14F13186   4.939   1.555   4.487  0.2813  0.3549 -0.4334
   9723SM  H14F13187   4.842   1.608   4.473 -1.0294 -2.1466 -1.3528
   9723SM  H14G13188   5.008   1.618   4.548 -0.0038 -0.8905  1.2569
   9723SM  C15F13189   4.909   1.433   4.582  0.3197  0.2235  0.3437
   9723SM  H15F13190   4.999   1.367   4.591  1.0945  0.7567 -2.3560
   9723SM  H15G13191   4.833   1.375   4.526 -1.5258  2.5372  0.3196
   9723SM  C16F13192   4.853   1.477   4.713 -0.4759 -0.1815  0.9057
   9723SM  H16F13193   4.794   1.394   4.756 -2.5435  1.0274  0.5606
   9723SM  H16G13194   4.776   1.558   4.709 -0.2818  0.0348  1.3725
   9723SM  C17F13195   4.958   1.511   4.820 -0.4565 -0.2320  0.4389
   9723SM  H17F13196   4.988   1.612   4.786 -1.9757  0.5408  1.3351
   9723SM  H17G13197   5.046   1.444   4.809  1.1020  1.4688  1.9757
   9723SM  C18F13198   4.905   1.494   4.957  0.3819  0.1410  0.0893
   9723SM  H18F13199   4.862   1.393   4.968 -1.4157  0.5760 -2.2134
   9723SM  H18G13200   4.826   1.570   4.974  0.0318  0.1231 -1.2904
   9723SM  C19F13201   5.014   1.505   5.065  0.3222 -0.0433  0.0794
   9723SM  H19F13202   5.070   1.602   5.062 -1.4598  1.0752  1.1740
   9723SM  H19G13203   5.092   1.431   5.039 -0.3498 -0.6164 -0.3304
   9723SM  C20F13204   4.969   1.465   5.209  0.7479 -0.3879 -0.0030
   9723SM  H20F13205   4.950   1.356   5.204  0.7437 -0.3744 -0.2913
   9723SM  H20G13206   4.881   1.526   5.240  1.9405  1.3409  0.1201
   9723SM  C21F13207   5.088   1.483   5.303  0.0564  0.1896  0.2888
   9723SM  H21F13208   5.126   1.586   5.289 -0.8500  0.1987 -2.6279
   9723SM  H21G13209   5.173   1.423   5.263 -2.0159 -1.4573 -1.9909
   9723SM  C22F13210   5.046   1.449   5.448  0.7675  0.5203  0.8146
   9723SM  H22F13211   5.000   1.351   5.471  1.1784  0.4968  1.5645
   9723SM  H22G13212   4.965   1.521   5.475 -0.0638  0.0312 -0.2792
   9723SM  C23F13213   5.168   1.464   5.549  1.0259  0.5383 -0.7979
   9723SM  H23F13214   5.143   1.435   5.653  1.2278  0.5098 -0.7563
   9723SM  H23G13215   5.192   1.572   5.542  1.1057  0.6537  0.8792
   9723SM  H23H13216   5.247   1.387   5.531 -0.1418 -0.8015 -0.3768
   9823SM     N13217   1.049   6.407   2.829 -0.5306 -0.0379 -0.2565
   9823SM   C1513218   1.094   6.266   2.820  0.2302  0.8701 -0.0071
   9823SM  H15A13219   1.198   6.254   2.844  0.1628 -0.3525 -0.2477
   9823SM  H15B13220   1.096   6.233   2.717  0.8326 -2.8734  1.0327
   9823SM  H15C13221   1.040   6.201   2.887 -1.4818  1.3034 -0.9031
   9823SM   C1413222   1.122   6.490   2.729  0.4794 -0.0091  0.3743
   9823SM  H14A13223   1.228   6.473   2.731  0.6524  0.5264 -1.7661
   9823SM  H14B13224   1.102   6.595   2.744  0.4233 -0.0055  0.2721
   9823SM  H14C13225   1.103   6.473   2.624  1.9334  0.5035  0.0049
   9823SM   C1313226   0.903   6.403   2.795  0.1393  0.4276 -0.7382
   9823SM  H13A13227   0.861   6.497   2.827  1.8216  0.5799  1.2571
   9823SM  H13B13228   0.849   6.329   2.852 -0.1865  1.2109 -0.0157
   9823SM  H13C13229   0.881   6.387   2.690  1.4136 -1.9253 -0.7180
   9823SM   C1213230   1.074   6.454   2.970  0.1534 -0.7028  0.1590
   9823SM  H12A13231   1.179   6.456   2.996  0.4343  0.3454 -0.9785
   9823SM  H12B13232   1.043   6.373   3.035 -1.0136 -0.0177  0.4903
   9823SM   C1113233   1.018   6.585   3.036  0.3563  0.0597 -0.3411
   9823SM  H11A13234   1.055   6.579   3.140 -0.7910  0.5191  0.0997
   9823SM  H11B13235   0.908   6.574   3.033  0.3743  0.0256 -1.8806
   9823SM     P13236   1.206   6.755   2.976 -0.1439  0.1197  0.3338
   9823SM   O1313237   1.297   6.643   2.996 -0.0899  0.4210 -0.2530
   9823SM   O1413238   1.232   6.839   2.858  0.2520 -0.6478 -0.1504
   9823SM   O1113239   1.223   6.859   3.097  0.2146  0.6564 -0.2748
   9823SM   O1213240   1.062   6.708   2.969  0.4821  0.2339  0.3137
   9823SM   C1S13241   1.112   6.902   3.172 -0.0816  0.3814  0.4504
   9823SM   H1S13242   1.019   6.848   3.146  0.1281 -0.0512  0.5959
   9823SM   H1T13243   1.088   7.007   3.144 -0.5751  0.0806 -0.2902
   9823SM    NF13244   1.009   6.916   3.395  0.3184 -0.3361  0.4410
   9823SM   HNF13245   0.989   7.009   3.423 -1.0534 -0.2924 -0.5636
   9823SM   C2S13246   1.132   6.890   3.323 -0.5435  0.1140  0.2991
   9823SM   H2S13247   1.154   6.782   3.337 -0.6158 -0.7779 -4.5677
   9823SM   C3S13248   1.259   6.965   3.371 -0.1225 -0.2937  0.0210
   9823SM   H3S13249   1.251   7.076   3.363  0.7927 -0.1514  0.8873
   9823SM    O313250   1.379   6.922   3.303  0.2977 -0.0307 -0.5352
   9823SM   HO313251   1.342   6.890   3.220  1.3248 -1.4903 -0.4740
   9823SM   C4S13252   1.274   6.938   3.516 -0.0550 -0.4556  0.2372
   9823SM   H4S13253   1.267   6.831   3.543  1.1124 -0.9077 -1.0881
   9823SM   C5S13254   1.296   7.029   3.610  0.6961  0.2150 -0.4241
   9823SM   H5S13255   1.302   7.135   3.580  3.2168  1.0539  2.4985
   9823SM   C6S13256   1.317   7.014   3.761  0.5363 -0.1596  0.5538
   9823SM   H6S13257   1.267   7.101   3.809 -0.2152 -1.2682  1.8289
   9823SM   H6T13258   1.427   7.007   3.781  0.5517 -1.0755  0.1887
   9823SM   C7S13259   1.268   6.888   3.835  0.0879  0.2595  0.2164
   9823SM   H7S13260   1.306   6.906   3.938  1.8272  0.4344 -0.4265
   9823SM   H7T13261   1.331   6.801   3.807 -1.0189 -0.1051 -1.2656
   9823SM   C8S13262   1.113   6.852   3.822  0.0661 -0.5241 -0.1473
   9823SM   H8S13263   1.087   6.841   3.714  2.4251 -0.7585 -0.7559
   9823SM   H8T13264   1.052   6.939   3.856 -0.3562 -0.9487  0.1837
   9823SM   C9S13265   1.067   6.722   3.889  0.0396 -0.4161  0.0142
   9823SM   H9S13266   1.136   6.635   3.875  1.3607  0.3042  1.7279
   9823SM   H9T13267   0.969   6.698   3.842  0.9805  0.9593 -2.9074
   9823SM  C10S13268   1.055   6.740   4.035  1.1434 -0.2358 -0.0397
   9823SM  H10S13269   0.962   6.798   4.055  0.9823 -0.0139 -1.3212
   9823SM  H10T13270   1.138   6.794   4.084  1.4681 -1.3603  0.6972
   9823SM  C11S13271   1.041   6.598   4.100 -0.1801 -0.4543 -0.2103
   9823SM  H11S13272   1.139   6.547   4.089  0.3532  0.6813 -0.8922
   9823SM  H11T13273   0.976   6.537   4.035 -0.9216 -2.6029  2.3734
   9823SM  C12S13274   0.998   6.601   4.252 -0.2345  0.7191  0.6277
   9823SM  H12S13275   1.079   6.648   4.313 -0.8016  2.5779  0.0412
   9823SM  H12T13276   0.986   6.492   4.271 -1.2159  0.8738  0.9884
   9823SM  C13S13277   0.860   6.668   4.274 -0.3340 -0.5435  0.8409
   9823SM  H13S13278   0.786   6.648   4.194  0.7238 -0.0997 -0.2957
   9823SM  H13T13279   0.884   6.776   4.275 -0.9732 -0.3774  2.8636
   9823SM  C14S13280   0.796   6.640   4.409  1.2340 -0.3917 -0.4755
   9823SM  H14S13281   0.769   6.532   4.412  0.1466 -0.1120  0.3987
   9823SM  H14T13282   0.701   6.696   4.420  2.7000  1.9237  1.2606
   9823SM  C15S13283   0.872   6.689   4.539  0.1292 -0.3082 -0.5083
   9823SM  H15S13284   0.888   6.798   4.550  0.3817 -0.2830 -1.0626
   9823SM  H15T13285   0.976   6.648   4.539  0.3573  0.2333 -1.5171
   9823SM  C16S13286   0.791   6.640   4.667 -0.0833  0.4796  0.3595
   9823SM  H16S13287   0.711   6.568   4.640 -0.5370  0.4795  1.6307
   9823SM  H16T13288   0.727   6.717   4.717  1.4559  2.1121 -0.0829
   9823SM  C17S13289   0.882   6.585   4.769  0.4925 -0.1009 -0.4196
   9823SM  H17S13290   0.975   6.642   4.787  0.6896 -0.9911  1.8026
   9823SM  H17T13291   0.907   6.486   4.724 -1.6006 -0.8476 -0.0818
   9823SM  C18S13292   0.814   6.565   4.905 -0.1681  0.3178  0.2919
   9823SM  H18S13293   0.709   6.530   4.904  0.5368 -1.9553  0.5861
   9823SM  H18T13294   0.820   6.665   4.953 -0.1428  0.7447 -0.5798
   9823SM  H18U13295   0.853   6.483   4.970 -1.8706 -0.9661 -0.2473
   9823SM   C1F13296   0.903   6.838   3.392 -0.1939 -0.9930  0.3633
   9823SM    OF13297   0.908   6.717   3.366 -0.1307  0.3365 -0.1300
   9823SM   C2F13298   0.773   6.915   3.410 -0.2830  0.2043  0.3451
   9823SM   H2F13299   0.725   6.941   3.314 -1.9711 -1.5440  0.6575
   9823SM   H2G13300   0.786   7.012   3.464 -1.7090 -0.1779  1.4406
   9823SM   C3F13301   0.677   6.825   3.496 -0.2053  0.4087  0.0188
   9823SM   H3F13302   0.662   6.734   3.435  3.2406 -0.6838  0.5818
   9823SM   H3G13303   0.587   6.885   3.521 -1.6029 -0.9321 -1.5181
   9823SM   C4F13304   0.727   6.780   3.634 -0.2111 -0.4072 -0.4267
   9823SM   H4F13305   0.772   6.864   3.692 -1.2303  0.2657 -0.5896
   9823SM   H4G13306   0.804   6.703   3.611  0.6369 -0.7026  2.8686
   9823SM   C5F13307   0.627   6.700   3.707  0.3572  0.8157  0.2784
   9823SM   H5F13308   0.596   6.613   3.646 -0.3562  1.2458  0.0052
   9823SM   H5G13309   0.534   6.760   3.722  0.9261  2.1887 -1.3308
   9823SM   C6F13310   0.688   6.654   3.842 -0.0102 -0.4951  0.6147
   9823SM   H6F13311   0.716   6.741   3.904 -2.5578  0.4697  0.5296
   9823SM   H6G13312   0.784   6.599   3.826  0.2013 -0.4840  1.7487
   9823SM   C7F13313   0.597   6.566   3.930  0.1117 -0.3204 -0.2711
   9823SM   H7F13314   0.527   6.641   3.973  1.3449  1.6626 -1.5502
   9823SM   H7G13315   0.659   6.532   4.015 -0.7996  2.5495  1.6959
   9823SM   C8F13316   0.527   6.442   3.862  0.5235 -0.0904  0.1661
   9823SM   H8F13317   0.595   6.364   3.822 -0.3950 -1.9665  2.0111
   9823SM   H8G13318   0.472   6.492   3.780 -2.3516  0.5958  2.3384
   9823SM   C9F13319   0.430   6.360   3.956 -0.1210  0.2489  0.8901
   9823SM   H9F13320   0.355   6.301   3.898 -1.4447  1.9053  0.8396
   9823SM   H9G13321   0.357   6.417   4.017  0.1882  3.0535 -1.1576
   9823SM  C10F13322   0.506   6.258   4.042 -0.3060  0.0718  0.1192
   9823SM  H10F13323   0.588   6.323   4.080  0.6845 -2.0928  1.9800
   9823SM  H10G13324   0.548   6.185   3.969 -3.7499 -2.1289  0.1500
   9823SM  C11F13325   0.432   6.187   4.155 -0.2847  0.1315 -0.0370
   9823SM  H11F13326   0.373   6.105   4.109 -0.2465  0.0916 -0.0139
   9823SM  H11G13327   0.364   6.261   4.200 -0.8383 -0.8455  0.7697
   9823SM  C12F13328   0.512   6.127   4.281  0.3066  0.1825 -0.3216
   9823SM  H12F13329   0.535   6.216   4.342 -1.2606  0.0950  0.4590
   9823SM  H12G13330   0.602   6.072   4.247  0.4350 -1.9196  2.9480
   9823SM  C13F13331   0.422   6.028   4.366 -0.8927 -0.7317  0.6401
   9823SM  H13F13332   0.430   5.931   4.313 -1.2819 -1.5343  2.0095
   9823SM  H13G13333   0.317   6.060   4.350 -1.3471 -2.8639 -1.0684
   9823SM  C14F13334   0.477   6.022   4.505  0.6609 -0.0077 -0.5897
   9823SM  H14F13335   0.450   6.119   4.552 -1.4363  0.5838 -2.7601
   9823SM  H14G13336   0.587   6.012   4.508  0.6789 -0.1555 -1.3648
   9823SM  C15F13337   0.421   5.906   4.587 -0.5498  0.3890 -0.3594
   9823SM  H15F13338   0.435   5.805   4.544  3.8490  0.1611  1.1473
   9823SM  H15G13339   0.310   5.907   4.586 -0.5599 -0.5394 -1.7003
   9823SM  C16F13340   0.476   5.905   4.734  0.4639  0.2949  0.1615
   9823SM  H16F13341   0.430   5.994   4.783 -1.8687 -0.5512 -0.3430
   9823SM  H16G13342   0.586   5.920   4.729  0.8644 -2.0353  0.7398
   9823SM  C17F13343   0.462   5.770   4.810  0.2250  0.3713 -0.7074
   9823SM  H17F13344   0.516   5.689   4.758 -1.5886 -0.9141 -0.6766
   9823SM  H17G13345   0.357   5.733   4.807 -0.4991  2.0751  0.9172
   9823SM  C18F13346   0.506   5.778   4.956 -0.4835 -0.1250 -0.3927
   9823SM  H18F13347   0.440   5.845   5.014  0.9983  0.3564  0.8112
   9823SM  H18G13348   0.607   5.824   4.967 -1.6325  2.2642  0.6912
   9823SM  C19F13349   0.520   5.641   5.027 -0.7010  0.2548  0.4284
   9823SM  H19F13350   0.587   5.574   4.969 -0.6361  0.1390  0.6351
   9823SM  H19G13351   0.418   5.597   5.023 -0.7495  0.4610 -1.2419
   9823SM  C20F13352   0.566   5.654   5.169 -0.1845 -0.6462  0.0906
   9823SM  H20F13353   0.575   5.550   5.208  1.3642 -0.1277  1.2105
   9823SM  H20G13354   0.498   5.705   5.241 -1.1532 -2.4359  0.5089
   9823SM  C21F13355   0.706   5.718   5.199  0.2595 -0.4576  0.0106
   9823SM  H21F13356   0.700   5.827   5.178 -0.4095 -0.5730 -0.4241
   9823SM  H21G13357   0.781   5.679   5.127  1.7924  0.7453  0.8886
   9823SM  C22F13358   0.747   5.690   5.343  0.0338 -0.3172 -0.6511
   9823SM  H22F13359   0.753   5.580   5.360  0.6330 -0.2185 -0.2156
   9823SM  H22G13360   0.674   5.732   5.416  3.1366  4.8135  0.0048
   9823SM  C23F13361   0.879   5.754   5.382  0.2832 -0.7643  0.8661
   9823SM  H23F13362   0.872   5.864   5.384  2.9263 -0.5156 -0.1784
   9823SM  H23G13363   0.958   5.734   5.306 -0.6066  2.8272 -1.2002
   9823SM  H23H13364   0.908   5.720   5.484  0.5878 -0.2083  0.9645
   9923SM     N13365   1.306   5.409   2.544  0.0573  0.3839 -0.3345
   9923SM   C1513366   1.334   5.306   2.441  0.4798 -0.5063 -0.0809
   9923SM  H15A13367   1.328   5.347   2.341 -3.4484 -0.3446  0.0833
   9923SM  H15B13368   1.259   5.229   2.438 -0.2800  0.2305 -0.9761
   9923SM  H15C13369   1.436   5.272   2.451 -0.1203 -1.9324  1.5300
   9923SM   C1413370   1.396   5.520   2.509  0.7670  0.8643  0.2420
   9923SM  H14A13371   1.499   5.498   2.535  0.0628  1.0513  3.7629
   9923SM  H14B13372   1.355   5.606   2.560 -0.6299  2.0878 -2.7701
   9923SM  H14C13373   1.375   5.536   2.405 -3.1696 -2.0062  0.3685
   9923SM   C1313374   1.164   5.457   2.525 -0.6210  0.6891  0.1768
   9923SM  H13A13375   1.144   5.498   2.427 -0.2768 -1.4446 -0.8496
   9923SM  H13B13376   1.149   5.537   2.597 -1.8406 -0.5084  1.3004
   9923SM  H13C13377   1.094   5.383   2.560  1.0885  0.0224  2.4988
   9923SM   C1213378   1.329   5.358   2.687  0.4342 -0.1856  0.4350
   9923SM  H12A13379   1.425   5.307   2.690  0.4974 -0.0236  2.2344
   9923SM  H12B13380   1.249   5.290   2.710 -3.0052  3.4272  0.1484
   9923SM   C1113381   1.321   5.457   2.805 -0.2637 -0.4052 -0.1348
   9923SM  H11A13382   1.398   5.536   2.808  1.8468 -2.3601  3.0462
   9923SM  H11B13383   1.338   5.385   2.888  1.4792 -1.2576 -1.1661
   9923SM     P13384   1.066   5.449   2.878  0.0589 -0.4057  0.1397
   9923SM   O1313385   0.937   5.502   2.822 -0.2982  0.0982  0.4224
   9923SM   O1413386   1.087   5.301   2.884 -0.3561 -0.3375 -1.1273
   9923SM   O1113387   1.077   5.500   3.032  0.4088  0.2134 -0.2798
   9923SM   O1213388   1.186   5.518   2.803  0.3575 -0.2045 -0.4515
   9923SM   C1S13389   1.186   5.593   3.062 -0.8184  0.6641 -0.4954
   9923SM   H1S13390   1.203   5.669   2.983 -3.2216  1.9042  0.0887
   9923SM   H1T13391   1.281   5.535   3.066 -1.3561 -0.1662  1.1674
   9923SM    NF13392   1.269   5.726   3.257 -0.0429 -0.6418  0.1346
   9923SM   HNF13393   1.352   5.676   3.281  1.2214  0.3814 -1.7907
   9923SM   C2S13394   1.164   5.641   3.208 -0.4486  0.4321 -0.2303
   9923SM   H2S13395   1.068   5.698   3.201  0.3182  1.7495 -0.3036
   9923SM   C3S13396   1.138   5.513   3.308  0.1859  0.0567 -0.1864
   9923SM   H3S13397   1.231   5.453   3.297  0.2543  0.0501  0.4472
   9923SM    O313398   1.030   5.421   3.273 -0.7038 -0.6644  0.3649
   9923SM   HO313399   1.012   5.454   3.184 -0.6429  0.1389  0.6424
   9923SM   C4S13400   1.133   5.568   3.449 -0.6066 -0.5902 -0.2706
   9923SM   H4S13401   1.227   5.563   3.505  0.7880 -0.4396 -2.4704
   9923SM   C5S13402   1.026   5.632   3.493  0.5129 -0.5727  0.4940
   9923SM   H5S13403   0.930   5.627   3.439  0.4761  1.8026  0.2363
   9923SM   C6S13404   1.023   5.706   3.629  0.2593  0.4880 -0.0697
   9923SM   H6S13405   0.994   5.642   3.715  0.5024 -1.3170 -1.2845
   9923SM   H6T13406   0.949   5.789   3.620  0.2008  0.4600  0.1420
   9923SM   C7S13407   1.158   5.766   3.659 -0.1684  0.3533  0.0183
   9923SM   H7S13408   1.186   5.826   3.569 -0.8036 -0.6429 -0.8717
   9923SM   H7T13409   1.227   5.681   3.677  0.1879  1.1054  2.6570
   9923SM   C8S13410   1.153   5.845   3.795  0.2241  0.1057  0.2178
   9923SM   H8S13411   1.093   5.795   3.874 -1.7818 -1.3467 -2.0631
   9923SM   H8T13412   1.094   5.936   3.771  2.3329  1.2564 -0.8430
   9923SM   C9S13413   1.289   5.887   3.844 -0.4327 -0.2162 -0.2382
   9923SM   H9S13414   1.356   5.915   3.759 -1.6361 -2.8337 -2.2007
   9923SM   H9T13415   1.333   5.793   3.883  1.0106  1.8270  3.5671
   9923SM  C10S13416   1.278   5.988   3.957 -0.3651  0.1687  0.0991
   9923SM  H10S13417   1.209   5.951   4.036  0.5226 -3.3515 -0.6208
   9923SM  H10T13418   1.224   6.077   3.920  0.4745  0.0447 -1.4940
   9923SM  C11S13419   1.418   6.019   4.020  0.2331 -0.5363  0.1550
   9923SM  H11S13420   1.467   6.100   3.962 -0.5482  1.4137  2.0967
   9923SM  H11T13421   1.480   5.928   4.038  1.2837  0.5661  2.5661
   9923SM  C12S13422   1.414   6.095   4.158 -0.7230  0.5328 -0.1608
   9923SM  H12S13423   1.361   6.190   4.139 -1.2792 -0.2043 -2.6838
   9923SM  H12T13424   1.514   6.130   4.192 -1.0762  0.6563  0.7921
   9923SM  C13S13425   1.336   6.020   4.264 -0.1092  0.6384 -0.5869
   9923SM  H13S13426   1.365   5.913   4.270 -0.7775  0.5147  1.5050
   9923SM  H13T13427   1.228   6.008   4.239 -0.1372  0.4828 -0.3976
   9923SM  C14S13428   1.353   6.085   4.406 -0.1195  0.3610 -0.0479
   9923SM  H14S13429   1.448   6.052   4.454  1.0321  2.3866 -0.7800
   9923SM  H14T13430   1.272   6.050   4.474  0.2000 -0.4651 -0.0781
   9923SM  C15S13431   1.338   6.237   4.413  0.4507 -0.2496  0.6165
   9923SM  H15S13432   1.244   6.270   4.364  1.1563  0.3539 -0.3554
   9923SM  H15T13433   1.416   6.284   4.351  0.7133  1.3793  2.0916
   9923SM  C16S13434   1.363   6.288   4.554  1.3010  0.9278  0.5160
   9923SM  H16S13435   1.461   6.243   4.580 -0.4340 -3.5801  0.0294
   9923SM  H16T13436   1.288   6.249   4.626 -0.4972  0.8514 -1.2936
   9923SM  C17S13437   1.358   6.439   4.550  0.0113  0.1330  0.3661
   9923SM  H17S13438   1.442   6.473   4.485 -0.7947  3.1930  0.7534
   9923SM  H17T13439   1.377   6.480   4.652 -1.7164 -0.3201  0.8877
   9923SM  C18S13440   1.230   6.512   4.503 -0.7924  0.0523 -0.2916
   9923SM  H18S13441   1.149   6.497   4.578  0.6056 -1.0114  1.0701
   9923SM  H18T13442   1.187   6.474   4.408 -0.1808  0.1264 -0.6022
   9923SM  H18U13443   1.236   6.622   4.489  0.4577  0.2735  1.5849
   9923SM   C1F13444   1.271   5.857   3.226 -0.4334 -0.3796 -0.1834
   9923SM    OF13445   1.189   5.899   3.153  0.0292 -0.0894  0.5903
   9923SM   C2F13446   1.382   5.937   3.281  0.9162 -0.3483 -0.3816
   9923SM   H2F13447   1.469   5.947   3.212  0.6031  0.6910 -0.6490
   9923SM   H2G13448   1.419   5.891   3.376 -0.5988  2.7367  1.9006
   9923SM   C3F13449   1.332   6.078   3.326 -0.0072  0.0723  0.1409
   9923SM   H3F13450   1.286   6.126   3.237 -0.7789 -1.3537 -0.2481
   9923SM   H3G13451   1.414   6.153   3.337  0.3965 -0.3835  0.2403
   9923SM   C4F13452   1.252   6.080   3.459 -0.2252 -0.0519 -0.0212
   9923SM   H4F13453   1.314   6.025   3.532 -0.6126 -0.2642  0.1522
   9923SM   H4G13454   1.158   6.023   3.441 -0.1762  0.4929 -2.3309
   9923SM   C5F13455   1.205   6.220   3.497  0.3007  0.6376 -0.4855
   9923SM   H5F13456   1.138   6.257   3.417 -1.2742  0.3453  0.6438
   9923SM   H5G13457   1.283   6.298   3.510  0.7416  0.5390 -2.2749
   9923SM   C6F13458   1.127   6.214   3.629  0.2471  0.0062  0.2438
   9923SM   H6F13459   1.190   6.159   3.702 -0.0498  0.1082  0.5788
   9923SM   H6G13460   1.033   6.158   3.608 -0.1779  0.3987  1.0733
   9923SM   C7F13461   1.100   6.353   3.685 -0.3194  0.3950  0.2658
   9923SM   H7F13462   1.017   6.408   3.634 -1.1945 -1.7007 -0.6922
   9923SM   H7G13463   1.188   6.421   3.687 -0.5725  0.8226 -1.6552
   9923SM   C8F13464   1.050   6.336   3.829  0.2542 -0.0142  0.0319
   9923SM   H8F13465   1.028   6.434   3.877 -2.9003 -1.3385  1.5264
   9923SM   H8G13466   1.127   6.278   3.885  0.0333 -0.3882 -0.0525
   9923SM   C9F13467   0.919   6.255   3.847 -0.3944  0.3420  0.0816
   9923SM   H9F13468   0.935   6.153   3.805 -2.6656 -0.1011  0.1918
   9923SM   H9G13469   0.835   6.294   3.787 -1.6213 -0.0918  1.4635
   9923SM  C10F13470   0.878   6.232   4.000 -0.2152 -1.2319  0.0800
   9923SM  H10F13471   0.782   6.176   3.995 -0.8860 -0.1344  0.4108
   9923SM  H10G13472   0.871   6.329   4.052  0.7826  0.1208 -2.1576
   9923SM  C11F13473   0.980   6.136   4.074  0.3452  0.4432 -0.3583
   9923SM  H11F13474   1.080   6.184   4.077  0.4318  0.3292 -1.2296
   9923SM  H11G13475   0.998   6.039   4.022 -1.7845 -1.0209  1.4517
   9923SM  C12F13476   0.932   6.081   4.209 -0.0501 -0.7921 -0.4124
   9923SM  H12F13477   1.011   6.010   4.242  1.5170  0.5741 -1.0976
   9923SM  H12G13478   0.837   6.031   4.180  0.7241 -1.8255 -1.2439
   9923SM  C13F13479   0.911   6.186   4.321  0.0550 -0.2337 -0.8973
   9923SM  H13F13480   0.829   6.259   4.302 -0.6470  0.4160  3.6252
   9923SM  H13G13481   1.006   6.241   4.332  0.7107 -1.0087 -2.2887
   9923SM  C14F13482   0.868   6.133   4.463  0.0390  1.4007  0.6726
   9923SM  H14F13483   0.948   6.073   4.512 -0.5408  0.7755  0.8619
   9923SM  H14G13484   0.769   6.084   4.453  0.2173  1.0135  0.7843
   9923SM  C15F13485   0.842   6.255   4.551 -0.7501 -0.7482  0.2370
   9923SM  H15F13486   0.774   6.327   4.500  0.8478 -0.2155 -1.2709
   9923SM  H15G13487   0.936   6.312   4.569 -1.2562 -0.1793  1.0838
   9923SM  C16F13488   0.785   6.235   4.690  0.4736  0.4085 -0.1877
   9923SM  H16F13489   0.686   6.187   4.683 -0.0974  1.4212  0.6343
   9923SM  H16G13490   0.757   6.337   4.724 -1.2858  0.6238 -2.0630
   9923SM  C17F13491   0.872   6.147   4.787 -0.1959 -0.0541  0.8952
   9923SM  H17F13492   0.979   6.171   4.768 -0.3168  1.7625  2.2709
   9923SM  H17G13493   0.846   6.039   4.781  0.0369 -0.1267  1.1806
   9923SM  C18F13494   0.846   6.168   4.938  0.6216  0.7471 -0.1099
   9923SM  H18F13495   0.868   6.272   4.969 -0.3943  1.0294 -0.2867
   9923SM  H18G13496   0.924   6.103   4.983 -0.3068 -0.5739 -0.3706
   9923SM  C19F13497   0.708   6.145   4.992 -0.0597  0.5967  0.2683
   9923SM  H19F13498   0.664   6.052   4.949 -1.2625  1.1921  0.1538
   9923SM  H19G13499   0.634   6.218   4.951  0.2315  0.6645 -0.1437
   9923SM  C20F13500   0.713   6.138   5.146 -0.5289  0.7395 -0.0735
   9923SM  H20F13501   0.757   6.233   5.183 -0.4359  0.1534  1.3566
   9923SM  H20G13502   0.780   6.054   5.174 -0.2921  0.5175 -1.2233
   9923SM  C21F13503   0.582   6.114   5.215  0.4094  0.0063  0.2319
   9923SM  H21F13504   0.529   6.028   5.168  1.1590 -0.9720  1.1375
   9923SM  H21G13505   0.521   6.205   5.200 -0.4336 -0.4569  0.7079
   9923SM  C22F13506   0.597   6.085   5.366  0.4709 -0.4016  0.5262
   9923SM  H22F13507   0.669   6.003   5.387  1.0539  0.3761  1.6309
   9923SM  H22G13508   0.495   6.055   5.400  1.1035 -1.0781  1.9297
   9923SM  C23F13509   0.649   6.213   5.429  0.3483 -0.4375 -0.7669
   9923SM  H23F13510   0.606   6.302   5.378 -2.0270 -0.4429  1.0558
   9923SM  H23G13511   0.759   6.228   5.421  0.2496  1.2436  0.7001
   9923SM  H23H13512   0.623   6.228   5.536  3.1212  1.3250 -0.2236
  10023SM     N13513   1.126   0.006   2.795  0.0115  0.5754 -0.0419
  10023SM   C1513514   1.059  -0.077   2.693 -0.1437  0.0864 -0.2284
  10023SM  H15A13515   1.047  -0.011   2.609 -0.2606  1.5324  0.9000
  10023SM  H15B13516   0.960  -0.087   2.734 -0.1172 -0.0900 -0.2031
  10023SM  H15C13517   1.110  -0.172   2.681  0.6181  0.3501  0.7896
  10023SM   C1413518   1.264   0.042   2.754 -0.4639  0.4151 -0.4172
  10023SM  H14A13519   1.265   0.084   2.655  2.3878  0.1142 -0.6145
  10023SM  H14B13520   1.328  -0.046   2.746  0.1916  1.0130 -2.5845
  10023SM  H14C13521   1.317   0.093   2.833  0.1038 -0.9990  0.1545
  10023SM   C1313522   1.058   0.133   2.802  0.4005 -0.4589 -0.3323
  10023SM  H13A13523   0.952   0.117   2.819  0.6673 -1.4504  0.5131
  10023SM  H13B13524   1.057   0.181   2.705  0.1244 -2.0966 -1.1748
  10023SM  H13C13525   1.089   0.207   2.875 -0.1827 -0.3705 -0.1650
  10023SM   C1213526   1.130  -0.062   2.939 -0.0323 -0.0008 -0.6139
  10023SM  H12A13527   1.169   0.011   3.009  1.5401 -1.6230  0.2818
  10023SM  H12B13528   1.204  -0.140   2.931  0.1119  0.2937 -3.0268
  10023SM   C1113529   0.993  -0.118   2.986 -0.2913  0.9217 -0.2372
  10023SM  H11A13530   0.915  -0.043   2.957 -0.8655  0.4964  0.1768
  10023SM  H11B13531   0.992  -0.133   3.096  1.2108  1.1802 -0.1784
  10023SM     P13532   1.061  -0.376   2.943  0.4476  0.2060  0.4504
  10023SM   O1313533   1.004  -0.496   2.874 -0.7644 -0.6861  0.7071
  10023SM   O1413534   1.195  -0.337   2.904  0.1568 -0.1116 -0.2343
  10023SM   O1113535   1.054  -0.396   3.102  0.4073  0.1442  0.0483
  10023SM   O1213536   0.967  -0.248   2.922 -0.1027  0.0407 -0.2717
  10023SM   C1S13537   1.158  -0.355   3.190 -0.1881 -0.5088 -0.0748
  10023SM   H1S13538   1.225  -0.285   3.136 -1.9815  2.5857  1.4679
  10023SM   H1T13539   1.219  -0.441   3.225 -0.4129 -2.0193 -3.0842
  10023SM    NF13540   1.210  -0.203   3.374  0.1592 -0.3089  0.0291
  10023SM   HNF13541   1.262  -0.240   3.451 -0.3674 -2.6555 -0.6570
  10023SM   C2S13542   1.100  -0.284   3.311 -0.7237 -0.2834 -0.8254
  10023SM   H2S13543   1.023  -0.212   3.277 -2.5540 -1.1441  1.2332
  10023SM   C3S13544   1.025  -0.383   3.410  0.5274 -0.2949  0.3173
  10023SM   H3S13545   1.103  -0.438   3.466  0.9066  1.6555  1.8428
  10023SM    O313546   0.943  -0.487   3.343 -0.3233  0.2617 -0.3444
  10023SM   HO313547   0.986  -0.487   3.257  1.5184  3.7005  0.3878
  10023SM   C4S13548   0.948  -0.298   3.512 -0.0749  0.4342  0.7162
  10023SM   H4S13549   0.889  -0.216   3.469  1.3523  1.9561  1.5696
  10023SM   C5S13550   0.960  -0.314   3.646  0.4419 -0.7909  0.5505
  10023SM   H5S13551   1.024  -0.390   3.692 -1.2659 -1.5571  1.7528
  10023SM   C6S13552   0.887  -0.235   3.757  0.4050  0.3188  0.3647
  10023SM   H6S13553   0.958  -0.216   3.840 -1.2650  1.7810  1.5366
  10023SM   H6T13554   0.807  -0.299   3.801  0.5679  1.2627  2.1337
  10023SM   C7S13555   0.822  -0.104   3.708 -0.3744  0.1738 -0.0679
  10023SM   H7S13556   0.749  -0.123   3.627 -0.3169  1.8035 -0.5338
  10023SM   H7T13557   0.903  -0.045   3.660  0.0133  0.2336  0.6366
  10023SM   C8S13558   0.763  -0.021   3.824  0.9416  0.4136  0.1870
  10023SM   H8S13559   0.738   0.077   3.778 -0.8866 -0.2280 -0.2634
  10023SM   H8T13560   0.833  -0.004   3.909 -1.0892  1.1878  1.7806
  10023SM   C9S13561   0.643  -0.100   3.886 -0.2285 -1.0416 -0.2513
  10023SM   H9S13562   0.651  -0.203   3.927  1.5105  0.1603  2.7363
  10023SM   H9T13563   0.564  -0.100   3.807  1.5428  0.0947 -2.1414
  10023SM  C10S13564   0.590  -0.014   4.007  0.0368  0.4094 -0.0668
  10023SM  H10S13565   0.488  -0.054   4.022  0.6736 -1.9687 -1.4922
  10023SM  H10T13566   0.584   0.093   3.977 -1.0476  0.0217 -1.3339
  10023SM  C11S13567   0.668  -0.029   4.137 -0.4576 -0.3590  0.0728
  10023SM  H11S13568   0.776  -0.013   4.117 -0.6164  0.0120 -0.4971
  10023SM  H11T13569   0.659  -0.128   4.187 -0.7517 -1.7936 -2.6697
  10023SM  C12S13570   0.626   0.083   4.238 -0.0354 -0.1137  0.4498
  10023SM  H12S13571   0.521   0.062   4.268 -0.5568  1.2777 -0.3191
  10023SM  H12T13572   0.636   0.185   4.196  0.0495  0.3426  1.5373
  10023SM  C13S13573   0.717   0.080   4.364 -0.3276  0.1309  0.5221
  10023SM  H13S13574   0.824   0.099   4.339 -0.5681 -1.0468 -1.6516
  10023SM  H13T13575   0.713  -0.020   4.412 -0.2946 -1.4141 -2.4554
  10023SM  C14S13576   0.688   0.189   4.466 -0.0238  0.4578  0.1609
  10023SM  H14S13577   0.646   0.283   4.423  0.8134  2.0070  2.5640
  10023SM  H14T13578   0.784   0.223   4.510 -1.0753  0.7238  2.3476
  10023SM  C15S13579   0.582   0.151   4.575 -0.0745 -0.2740  0.3890
  10023SM  H15S13580   0.582   0.047   4.615  0.4354  1.0474  4.2442
  10023SM  H15T13581   0.485   0.174   4.526  0.7730 -1.2606 -1.9152
  10023SM  C16S13582   0.614   0.233   4.696  0.0100  0.3544 -0.2146
  10023SM  H16S13583   0.617   0.341   4.669  2.7754  0.5747  0.6605
  10023SM  H16T13584   0.710   0.204   4.743  0.2520  2.8825  1.0047
  10023SM  C17S13585   0.505   0.207   4.801 -0.5696 -0.0347 -0.1004
  10023SM  H17S13586   0.523   0.097   4.803  5.7120  0.5778 -1.8588
  10023SM  H17T13587   0.411   0.234   4.748  0.4431 -1.1295 -2.5757
  10023SM  C18S13588   0.520   0.301   4.924 -0.5670 -0.6102  0.3174
  10023SM  H18S13589   0.444   0.269   4.998 -0.9032 -0.2046  0.1601
  10023SM  H18T13590   0.514   0.408   4.894  2.2911 -0.6802 -0.8265
  10023SM  H18U13591   0.620   0.302   4.971 -0.8653  2.0057  1.0472
  10023SM   C1F13592   1.244  -0.087   3.321  0.2894 -0.7614  0.3095
  10023SM    OF13593   1.192  -0.044   3.218  0.6254  0.2311  0.6453
  10023SM   C2F13594   1.366  -0.017   3.377  0.5340  0.0664 -0.8632
  10023SM   H2F13595   1.442  -0.082   3.327 -1.3014 -1.8118 -1.3371
  10023SM   H2G13596   1.383  -0.026   3.486  1.6684  1.8535 -0.8577
  10023SM   C3F13597   1.373   0.135   3.342  0.2932 -0.1299  0.1945
  10023SM   H3F13598   1.285   0.194   3.377  0.9796 -0.1371  2.0359
  10023SM   H3G13599   1.363   0.148   3.232 -3.3333 -3.0273 -0.0005
  10023SM   C4F13600   1.495   0.209   3.399 -0.2065  0.0686 -0.2283
  10023SM   H4F13601   1.494   0.313   3.361  1.4333 -0.2577 -1.2882
  10023SM   H4G13602   1.591   0.163   3.368  0.5082 -0.6770  2.7589
  10023SM   C5F13603   1.508   0.204   3.552 -0.2040  0.2642  0.6234
  10023SM   H5F13604   1.515   0.102   3.594  0.5013 -0.7207 -1.7240
  10023SM   H5G13605   1.418   0.255   3.592 -2.1015 -3.0410  0.9012
  10023SM   C6F13606   1.630   0.283   3.602 -0.8300  0.0631  0.5509
  10023SM   H6F13607   1.614   0.390   3.579 -0.8774  0.0711  0.6223
  10023SM   H6G13608   1.722   0.251   3.547 -1.5488  1.1180 -1.3624
  10023SM   C7F13609   1.648   0.280   3.753  0.4231  0.4473 -0.0076
  10023SM   H7F13610   1.743   0.332   3.778  0.7985  0.5964 -1.6344
  10023SM   H7G13611   1.657   0.174   3.786 -2.2852 -0.1923 -1.0869
  10023SM   C8F13612   1.517   0.340   3.814 -0.0060  0.1260  0.4740
  10023SM   H8F13613   1.441   0.260   3.798  1.6592 -1.3021 -0.7936
  10023SM   H8G13614   1.495   0.435   3.762 -1.6133 -0.2205  0.4608
  10023SM   C9F13615   1.537   0.361   3.971  0.6208  0.0203  0.6553
  10023SM   H9F13616   1.632   0.406   4.005  0.2955  0.4942  0.9406
  10023SM   H9G13617   1.521   0.262   4.020 -2.0165  0.3538  0.6307
  10023SM  C10F13618   1.421   0.447   4.037 -0.5906  0.4046 -0.0408
  10023SM  H10F13619   1.327   0.399   4.001  1.3425 -3.6648 -0.3073
  10023SM  H10G13620   1.440   0.548   3.995  1.0849  0.0487 -0.2334
  10023SM  C11F13621   1.417   0.436   4.192  0.0255  0.4731  0.0249
  10023SM  H11F13622   1.499   0.507   4.215  1.4802 -0.9045 -0.7315
  10023SM  H11G13623   1.451   0.337   4.229 -0.4289  0.0129 -0.7473
  10023SM  C12F13624   1.286   0.470   4.264 -0.9761  0.3507 -0.5379
  10023SM  H12F13625   1.209   0.393   4.246 -0.7502  0.2861 -1.2614
  10023SM  H12G13626   1.237   0.557   4.215 -3.9382 -1.8954 -1.8409
  10023SM  C13F13627   1.309   0.484   4.413 -0.5054  0.1937 -0.3817
  10023SM  H13F13628   1.384   0.566   4.419 -1.5794  1.1291  0.8991
  10023SM  H13G13629   1.352   0.394   4.463  1.3407  0.7014 -0.9579
  10023SM  C14F13630   1.193   0.522   4.498 -0.4572 -0.4422 -0.1623
  10023SM  H14F13631   1.111   0.449   4.480 -1.0576 -0.0586  0.9301
  10023SM  H14G13632   1.152   0.623   4.476 -0.1190  0.0763  1.4717
  10023SM  C15F13633   1.232   0.510   4.654 -0.7221 -0.5940 -0.2687
  10023SM  H15F13634   1.249   0.613   4.692 -1.5865 -0.2089 -0.8912
  10023SM  H15G13635   1.327   0.455   4.671  0.1265  1.4752  2.2693
  10023SM  C16F13636   1.132   0.434   4.744 -0.1650 -0.8261  0.1065
  10023SM  H16F13637   1.178   0.418   4.844 -0.6143 -0.1810  0.4246
  10023SM  H16G13638   1.120   0.333   4.701 -3.8670 -1.0587  1.3220
  10023SM  C17F13639   1.003   0.505   4.753  0.7881  0.1217  0.3921
  10023SM  H17F13640   0.954   0.483   4.656 -2.6889 -0.9145  2.1818
  10023SM  H17G13641   1.021   0.615   4.759  0.5571  0.1705  0.2122
  10023SM  C18F13642   0.898   0.462   4.856  0.1429  0.4817 -0.9986
  10023SM  H18F13643   0.894   0.352   4.864 -1.1306  0.4987 -1.1238
  10023SM  H18G13644   0.801   0.502   4.819 -0.9625  0.6313  1.8592
  10023SM  C19F13645   0.925   0.531   4.998 -0.5074 -0.5710  0.3569
  10023SM  H19F13646   0.927   0.642   4.984 -1.3440 -0.6666 -0.6010
  10023SM  H19G13647   1.016   0.488   5.045  0.2050 -0.1756 -0.6322
  10023SM  C20F13648   0.814   0.499   5.092 -0.3930  0.3909 -0.4586
  10023SM  H20F13649   0.833   0.396   5.130 -1.0927 -0.5897 -2.5877
  10023SM  H20G13650   0.714   0.488   5.045 -1.7299 -0.0716  2.2760
  10023SM  C21F13651   0.805   0.604   5.210  0.3583 -0.4558 -0.7936
  10023SM  H21F13652   0.774   0.708   5.188 -1.1461 -0.4352  1.0708
  10023SM  H21G13653   0.911   0.616   5.239  0.1751 -0.3012 -0.1704
  10023SM  C22F13654   0.737   0.555   5.339  0.0900 -0.4845  0.0925
  10023SM  H22F13655   0.731   0.646   5.403  1.2406  0.4490 -1.0735
  10023SM  H22G13656   0.798   0.488   5.404 -1.4091 -1.8369  0.1767
  10023SM  C23F13657   0.600   0.494   5.330  0.2497  1.1463  0.2392
  10023SM  H23F13658   0.519   0.571   5.332 -0.2114  0.7243 -1.1410
  10023SM  H23G13659   0.582   0.415   5.406  0.5925 -0.2202 -1.0581
  10023SM  H23H13660   0.582   0.432   5.239 -2.3269 -1.0064  2.0532
  101CHL1    C313661   5.643   3.564   6.201 -0.1304  0.1923  0.1838
  101CHL1    H313662   5.637   3.674   6.185  3.0294  0.6132  1.1775
  101CHL1    O313663   5.528   3.513   6.269  0.3115 -0.1111 -0.1221
  101CHL1   H3'13664   5.539   3.418   6.280  1.8429  0.1838  1.2940
  101CHL1    C413665   5.647   3.496   6.066 -1.1123 -1.5253 -0.1307
  101CHL1   H4A13666   5.654   3.386   6.081 -1.7266 -1.5252  0.1840
  101CHL1   H4B13667   5.550   3.506   6.013  0.0279  1.9546 -1.8337
  101CHL1    C513668   5.759   3.537   5.975  0.1767 -0.6567 -0.4539
  101CHL1    C613669   5.733   3.597   5.861 -0.5227  0.3671  0.8920
  101CHL1    H613670   5.631   3.620   5.827 -0.1443 -0.0134 -0.5915
  101CHL1    C713671   5.838   3.641   5.754  0.3532 -0.3587  0.4836
  101CHL1   H7A13672   5.801   3.621   5.651  2.7955 -0.8407 -0.3793
  101CHL1   H7B13673   5.847   3.751   5.753  1.0587 -0.4063 -1.0967
  101CHL1    C813674   5.977   3.580   5.791 -0.8453  0.0701 -0.6959
  101CHL1    H813675   5.991   3.473   5.767 -0.3107  0.0475 -0.3000
  101CHL1   C1413676   6.080   3.661   5.729 -0.0728  0.2164  0.1098
  101CHL1   H1413677   6.065   3.766   5.762  0.5164  0.7349 -1.1723
  101CHL1   C1513678   6.071   3.674   5.573 -0.3617 -0.1125 -0.0325
  101CHL1  H15A13679   6.042   3.573   5.538 -3.1890  0.7913 -0.6182
  101CHL1  H15B13680   5.997   3.748   5.534 -0.5149  0.8504  1.9427
  101CHL1   C1613681   6.212   3.716   5.523  0.8478 -0.5000 -0.5237
  101CHL1  H16A13682   6.221   3.649   5.434 -0.3199 -0.8126 -0.4201
  101CHL1  H16B13683   6.197   3.821   5.491 -1.0595 -0.6938 -0.3633
  101CHL1   C1713684   6.309   3.705   5.651 -0.8443 -0.7189  0.6198
  101CHL1   H1713685   6.316   3.811   5.683  3.0268 -0.9009  0.7704
  101CHL1   C1313686   6.227   3.621   5.753  0.8016 -0.0120  0.0388
  101CHL1   C1813687   6.253   3.472   5.724  0.8921  0.4400  0.1293
  101CHL1  H18A13688   6.260   3.449   5.615  0.0476  1.4008 -0.1336
  101CHL1  H18B13689   6.349   3.446   5.775  0.4289 -1.2677  0.1878
  101CHL1  H18C13690   6.182   3.404   5.776  1.9748 -0.5432  0.3900
  101CHL1   C1213691   6.251   3.645   5.902  0.4750 -0.4361  0.5398
  101CHL1  H12A13692   6.358   3.627   5.923  0.5545  0.2369  0.7381
  101CHL1  H12B13693   6.243   3.755   5.918 -1.2342 -0.7257  2.0804
  101CHL1   C1113694   6.149   3.566   5.988 -0.5595 -0.1855  0.4742
  101CHL1  H11A13695   6.173   3.459   5.970  1.6264  0.3557 -0.0308
  101CHL1  H11B13696   6.169   3.588   6.095  2.1495 -0.2146  0.0402
  101CHL1    C913697   5.999   3.596   5.947  0.3308 -0.0392  0.1469
  101CHL1    H913698   5.988   3.702   5.979  1.0676 -0.3199  1.3875
  101CHL1   C1013699   5.896   3.520   6.035 -0.3622  0.2543  0.0455
  101CHL1   C1913700   5.925   3.366   6.027  0.7561 -0.1002  0.1803
  101CHL1  H19A13701   5.916   3.331   5.922  1.4761  1.0432 -0.2912
  101CHL1  H19B13702   6.028   3.330   6.049  1.3810 -0.8252 -3.3794
  101CHL1  H19C13703   5.856   3.310   6.092 -1.4242  0.3123 -1.6708
  101CHL1    C113704   5.892   3.572   6.179 -0.0887  0.0387  0.6210
  101CHL1   H1A13705   5.983   3.533   6.230 -0.2117  0.1800  0.9557
  101CHL1   H1B13706   5.895   3.684   6.180 -0.4642  0.0509  0.5091
  101CHL1    C213707   5.775   3.532   6.273  0.0524 -0.4211 -0.3597
  101CHL1   H2A13708   5.783   3.576   6.375  1.2013  1.5038 -1.2280
  101CHL1   H2B13709   5.778   3.422   6.281  1.1358 -0.3194  0.9924
  101CHL1   C2013710   6.454   3.657   5.607  0.0844  0.8240 -0.5442
  101CHL1   H2013711   6.449   3.547   5.589 -1.2065  0.2779  2.5032
  101CHL1   C2113712   6.551   3.677   5.726  0.1557  0.4454 -0.2079
  101CHL1  H21A13713   6.520   3.623   5.818  1.3897  1.3167  0.7475
  101CHL1  H21B13714   6.573   3.781   5.759  0.6119  0.7947 -1.5714
  101CHL1  H21C13715   6.650   3.631   5.709  0.7265  0.9266  1.5469
  101CHL1   C2213716   6.504   3.728   5.488  0.4499 -0.4552 -0.6166
  101CHL1  H22A13717   6.433   3.699   5.407 -1.3372 -3.1375  1.7089
  101CHL1  H22B13718   6.497   3.838   5.506  0.0156 -0.4336 -0.8882
  101CHL1   C2313719   6.649   3.704   5.434  0.8170 -0.4470 -1.0391
  101CHL1  H23A13720   6.718   3.752   5.507 -0.4944  1.0078 -0.6934
  101CHL1  H23B13721   6.649   3.593   5.437  1.3661 -0.4392 -0.4490
  101CHL1   C2413722   6.675   3.768   5.300  1.0450  0.6155  0.4553
  101CHL1  H24A13723   6.586   3.753   5.235  1.8967  0.3672 -0.6834
  101CHL1  H24B13724   6.686   3.879   5.302 -1.8539  0.9931  0.0876
  101CHL1   C2513725   6.795   3.706   5.222 -0.3799  0.1594 -0.0343
  101CHL1   H2513726   6.779   3.596   5.211  0.3482 -0.2484  2.4064
  101CHL1   C2613727   6.834   3.772   5.088 -0.2473 -0.3777 -1.0688
  101CHL1  H26A13728   6.913   3.709   5.043  2.3262  2.2942 -0.6446
  101CHL1  H26B13729   6.741   3.784   5.028 -0.7612  0.2321 -0.1895
  101CHL1  H26C13730   6.871   3.872   5.121 -2.1683 -0.2495  0.9760
  101CHL1   C2713731   6.922   3.711   5.305  0.1069  0.1656 -0.7406
  101CHL1  H27A13732   6.966   3.813   5.300  0.4842  0.0494  0.0821
  101CHL1  H27B13733   6.911   3.686   5.413  2.5414 -1.1008 -0.7149
  101CHL1  H27C13734   6.996   3.640   5.262  0.5988 -1.9056  3.0705
  102CHL1    C313735   3.592   4.659   6.179  0.4011 -0.1485 -0.3310
  102CHL1    H313736   3.574   4.569   6.117  0.9186 -0.3851 -0.1465
  102CHL1    O313737   3.541   4.637   6.311  0.5534 -0.1859 -0.4651
  102CHL1   H3'13738   3.502   4.721   6.335  1.4230 -0.0784  0.6613
  102CHL1    C413739   3.745   4.692   6.188  0.6380  0.6049  0.4994
  102CHL1   H4A13740   3.757   4.786   6.246  0.0950  0.9874 -0.0035
  102CHL1   H4B13741   3.791   4.600   6.230 -0.5134 -0.0731  0.3189
  102CHL1    C513742   3.801   4.716   6.049 -0.0413 -0.2851  0.4556
  102CHL1    C613743   3.897   4.634   5.999 -0.2647 -0.2179 -0.0771
  102CHL1    H613744   3.937   4.553   6.062 -0.5577  1.4035  2.3635
  102CHL1    C713745   3.957   4.665   5.863  0.5584  0.4907  0.2045
  102CHL1   H7A13746   4.068   4.656   5.869  0.5657 -0.0664 -0.6972
  102CHL1   H7B13747   3.922   4.584   5.797 -0.6558  0.7670  0.4897
  102CHL1    C813748   3.919   4.807   5.804  0.0106 -0.0640  0.8076
  102CHL1    H813749   3.982   4.887   5.849  3.0349 -0.6514 -1.9857
  102CHL1   C1413750   3.959   4.809   5.657 -0.3162  0.1698  0.1574
  102CHL1   H1413751   3.915   4.727   5.597  2.7821  0.5536 -3.0077
  102CHL1   C1513752   4.111   4.780   5.633 -0.0115 -0.4912  0.1310
  102CHL1  H15A13753   4.173   4.845   5.699 -1.4185  1.3577 -0.2650
  102CHL1  H15B13754   4.133   4.675   5.659  1.4573  0.0119  1.0393
  102CHL1   C1613755   4.132   4.828   5.489 -0.1927 -0.3606 -0.4106
  102CHL1  H16A13756   4.222   4.893   5.490 -0.8881  0.6417  1.7743
  102CHL1  H16B13757   4.127   4.735   5.428 -1.0709 -0.1619 -0.6582
  102CHL1   C1713758   4.002   4.909   5.452 -0.1532 -0.4018 -0.0360
  102CHL1   H1713759   3.933   4.839   5.401 -0.8497 -0.0473  0.4097
  102CHL1   C1313760   3.931   4.942   5.584  0.3507 -0.2022 -0.0839
  102CHL1   C1813761   4.002   5.063   5.649 -0.4919  0.8083  0.2604
  102CHL1  H18A13762   3.980   5.157   5.593 -2.9213  0.5463  0.6516
  102CHL1  H18B13763   3.959   5.074   5.751 -2.8098 -0.3403 -0.5293
  102CHL1  H18C13764   4.112   5.061   5.661 -0.2885  0.8538 -1.4320
  102CHL1   C1213765   3.780   4.959   5.589 -0.4603 -0.9011 -0.2096
  102CHL1  H12A13766   3.743   5.058   5.554 -1.7462 -0.7922  1.3520
  102CHL1  H12B13767   3.739   4.877   5.527  2.1803 -4.3376  2.2109
  102CHL1   C1113768   3.722   4.953   5.732 -0.7414  0.9311  0.0063
  102CHL1  H11A13769   3.753   5.054   5.766  0.6127  0.8545 -0.9226
  102CHL1  H11B13770   3.611   4.953   5.737 -0.7525 -0.4334  0.1315
  102CHL1    C913771   3.774   4.833   5.823  0.1940  0.4835  0.2558
  102CHL1    H913772   3.727   4.741   5.782  0.6852 -0.1966  1.1766
  102CHL1   C1013773   3.731   4.833   5.973  0.7835 -0.5739 -0.2274
  102CHL1   C1913774   3.777   4.970   6.030  0.5150 -1.2038 -0.0026
  102CHL1  H19A13775   3.718   5.053   5.986 -0.3052 -0.9467  1.5229
  102CHL1  H19B13776   3.735   4.983   6.132  0.4034 -1.0615 -0.0663
  102CHL1  H19C13777   3.886   4.992   6.034  0.3308  0.0449 -1.2191
  102CHL1    C113778   3.579   4.815   5.980  0.8119  0.0940 -0.1479
  102CHL1   H1A13779   3.525   4.899   5.930  1.6038 -0.2705 -1.6765
  102CHL1   H1B13780   3.562   4.722   5.921  0.4203 -0.4270  0.7535
  102CHL1    C213781   3.526   4.785   6.122 -0.3582  0.9303 -0.1617
  102CHL1   H2A13782   3.415   4.777   6.122 -0.4963  0.7979 -3.9822
  102CHL1   H2B13783   3.543   4.875   6.184  0.5347 -0.3938  1.6035
  102CHL1   C2013784   4.030   5.024   5.350 -0.0743 -0.5618  0.6473
  102CHL1   H2013785   4.115   5.086   5.386  0.9733 -1.6999  0.2173
  102CHL1   C2113786   3.913   5.117   5.318  0.5510  0.4809  0.3912
  102CHL1  H21A13787   3.952   5.200   5.255 -2.4368  1.9550  0.3579
  102CHL1  H21B13788   3.872   5.171   5.406 -1.0417 -1.3349  0.8183
  102CHL1  H21C13789   3.829   5.064   5.269 -1.2084  1.6523  2.0390
  102CHL1   C2213790   4.076   4.962   5.210 -0.9872  0.3295 -0.3751
  102CHL1  H22A13791   4.163   4.896   5.228 -2.6359 -2.0998 -0.8089
  102CHL1  H22B13792   3.996   4.892   5.176 -1.9355  1.6212 -0.9141
  102CHL1   C2313793   4.106   5.064   5.097  0.2707 -1.1633  0.4812
  102CHL1  H23A13794   4.007   5.103   5.063  1.0196 -0.0123 -0.4896
  102CHL1  H23B13795   4.155   5.150   5.147 -2.1684  1.1235 -0.7953
  102CHL1   C2413796   4.171   5.009   4.958 -0.5751  0.3226 -1.0295
  102CHL1  H24A13797   4.263   4.948   4.972 -0.9327  0.0728  0.3020
  102CHL1  H24B13798   4.098   4.937   4.915 -0.0118 -0.4603 -0.7007
  102CHL1   C2513799   4.202   5.107   4.848  0.2088  0.2990 -0.0639
  102CHL1   H2513800   4.254   5.053   4.766  0.1364  0.3683 -0.1555
  102CHL1   C2613801   4.081   5.182   4.793 -0.1402  0.0682  0.2620
  102CHL1  H26A13802   4.011   5.103   4.759  1.7769 -0.9689 -1.5115
  102CHL1  H26B13803   4.030   5.235   4.877 -0.0601  1.6680 -0.6678
  102CHL1  H26C13804   4.104   5.233   4.698 -0.0287  0.6245  0.5855
  102CHL1   C2713805   4.298   5.214   4.901 -0.6797 -0.7858 -0.2472
  102CHL1  H27A13806   4.363   5.266   4.827 -1.7940 -1.5056 -1.8030
  102CHL1  H27B13807   4.239   5.286   4.962 -2.4380  0.1330 -2.8644
  102CHL1  H27C13808   4.366   5.164   4.973 -1.9972 -0.5450  1.2081
  103CHL1    C313809   3.612   1.960   6.662  0.2127  0.1002 -0.3467
  103CHL1    H313810   3.690   2.030   6.626 -0.6474  0.6192 -1.2292
  103CHL1    O313811   3.630   1.918   6.796  0.7053 -0.5630  0.2642
  103CHL1   H3'13812   3.558   1.960   6.844  0.6204  0.6588 -0.8785
  103CHL1    C413813   3.480   2.036   6.645 -0.7001 -0.2546 -0.5890
  103CHL1   H4A13814   3.395   1.971   6.674  0.3381 -1.5528 -0.3559
  103CHL1   H4B13815   3.487   2.127   6.708  1.0551  0.5753 -1.9018
  103CHL1    C513816   3.454   2.074   6.499  0.2955  0.5345 -0.0484
  103CHL1    C613817   3.425   2.203   6.467  0.3239  0.2873 -0.5868
  103CHL1    H613818   3.423   2.288   6.536  1.8809  2.2612 -2.8097
  103CHL1    C713819   3.426   2.254   6.327  0.0400 -0.4878  0.2251
  103CHL1   H7A13820   3.347   2.332   6.318  0.3607  0.1018  2.0593
  103CHL1   H7B13821   3.521   2.303   6.297 -0.6451 -0.4153 -1.9612
  103CHL1    C813822   3.397   2.146   6.219  0.2098  0.3504  0.5176
  103CHL1    H813823   3.292   2.110   6.230 -0.1221  0.8921 -0.7452
  103CHL1   C1413824   3.421   2.189   6.071  0.5440 -0.1863 -0.1105
  103CHL1   H1413825   3.518   2.237   6.047 -0.2007  1.5872  0.2865
  103CHL1   C1513826   3.330   2.307   6.027 -0.6453  0.6965 -0.3573
  103CHL1  H15A13827   3.229   2.309   6.074  0.4346  1.2040  2.0814
  103CHL1  H15B13828   3.378   2.402   6.058  0.6725 -0.2718  0.6878
  103CHL1   C1613829   3.330   2.303   5.872 -0.4684 -0.1364  0.5533
  103CHL1  H16A13830   3.229   2.299   5.827  0.2904  0.0122 -1.2605
  103CHL1  H16B13831   3.374   2.400   5.838 -0.6224 -0.8255 -1.7317
  103CHL1   C1713832   3.419   2.180   5.836  0.3657  0.1478  0.0068
  103CHL1   H1713833   3.526   2.209   5.845  0.0357  0.9453  1.8278
  103CHL1   C1313834   3.406   2.085   5.961  0.1784 -0.2154 -0.2756
  103CHL1   C1813835   3.259   2.028   5.954 -0.1812  0.0263 -0.2958
  103CHL1  H18A13836   3.256   1.931   5.900  1.8058 -0.7013  0.8068
  103CHL1  H18B13837   3.238   2.008   6.061  1.8602  0.2652  0.1958
  103CHL1  H18C13838   3.186   2.103   5.916  1.3804  1.4077 -0.6756
  103CHL1   C1213839   3.509   1.982   5.989 -0.1683 -0.0522  0.7361
  103CHL1  H12A13840   3.504   1.898   5.917  0.2230 -0.1114  0.7735
  103CHL1  H12B13841   3.613   2.020   5.974 -0.5624  0.3045 -1.2676
  103CHL1   C1113842   3.487   1.925   6.128  0.7164 -0.0157 -0.3857
  103CHL1  H11A13843   3.393   1.867   6.119 -0.2629  1.5087 -0.4788
  103CHL1  H11B13844   3.561   1.845   6.148 -0.8145 -0.9899  1.6855
  103CHL1    C913845   3.492   2.027   6.243  0.2652  0.1895 -0.3406
  103CHL1    H913846   3.590   2.079   6.238 -0.7698  2.5011  1.3870
  103CHL1   C1013847   3.482   1.967   6.390 -0.4643 -0.8807 -0.3285
  103CHL1   C1913848   3.366   1.862   6.385 -0.2354 -0.2891 -0.4809
  103CHL1  H19A13849   3.410   1.775   6.333 -0.0510  0.0080 -0.8257
  103CHL1  H19B13850   3.345   1.837   6.491  1.2263  0.8640  0.1190
  103CHL1  H19C13851   3.276   1.906   6.337 -0.0902  0.9374  0.3137
  103CHL1    C113852   3.619   1.896   6.427  0.2227 -0.7694 -0.3219
  103CHL1   H1A13853   3.642   1.819   6.350  0.1341 -1.8796  0.7387
  103CHL1   H1B13854   3.694   1.976   6.410 -0.9085  0.7054  1.3112
  103CHL1    C213855   3.622   1.839   6.574  0.0054 -0.3330  0.5064
  103CHL1   H2A13856   3.728   1.808   6.589  0.4572  0.0316 -1.6045
  103CHL1   H2B13857   3.549   1.759   6.595 -0.7489  0.3593  0.5976
  103CHL1   C2013858   3.409   2.115   5.692 -0.2398  0.1599  0.1266
  103CHL1   H2013859   3.343   2.026   5.685  0.4058 -0.2074 -1.7287
  103CHL1   C2113860   3.551   2.072   5.657 -0.2976 -0.5399  0.1439
  103CHL1  H21A13861   3.594   2.017   5.744  2.2557  0.6960 -0.2376
  103CHL1  H21B13862   3.613   2.163   5.643 -2.3727  0.7137 -1.5078
  103CHL1  H21C13863   3.556   2.011   5.564 -0.2030  1.3019 -1.1115
  103CHL1   C2213864   3.366   2.216   5.581  0.5943 -0.2727  0.3845
  103CHL1  H22A13865   3.279   2.270   5.623  1.0408 -0.7228  1.9555
  103CHL1  H22B13866   3.445   2.294   5.586  1.4347 -1.2021  3.1788
  103CHL1   C2313867   3.333   2.150   5.447 -0.0473 -0.3649 -0.2339
  103CHL1  H23A13868   3.423   2.092   5.418  0.4037 -1.5178  3.0533
  103CHL1  H23B13869   3.246   2.081   5.449 -0.3810  0.0670  1.0996
  103CHL1   C2413870   3.307   2.254   5.337 -0.1725  0.0826  0.2728
  103CHL1  H24A13871   3.223   2.321   5.367 -0.2581  0.8565 -1.5945
  103CHL1  H24B13872   3.397   2.315   5.318  0.8059 -1.3646  0.0918
  103CHL1   C2513873   3.255   2.193   5.204 -0.2365 -0.5959  0.9943
  103CHL1   H2513874   3.155   2.146   5.211 -0.2105 -0.6862  0.7798
  103CHL1   C2613875   3.249   2.311   5.093 -0.0770 -0.0990 -0.6137
  103CHL1  H26A13876   3.211   2.276   4.994  1.0164  0.0697 -1.1065
  103CHL1  H26B13877   3.193   2.400   5.126  0.8237  0.7121 -1.2133
  103CHL1  H26C13878   3.355   2.334   5.070 -0.1868 -0.1026 -1.1547
  103CHL1   C2713879   3.345   2.080   5.141 -0.1819 -0.6226 -0.0574
  103CHL1  H27A13880   3.302   2.043   5.046  1.6088 -0.7773 -0.8587
  103CHL1  H27B13881   3.448   2.120   5.125 -0.0216 -1.4870 -1.3169
  103CHL1  H27C13882   3.344   1.997   5.215  0.5317 -0.4963  0.1053
  104CHL1    C313883   1.533   3.701   6.094  0.0061 -0.3690 -0.1462
  104CHL1    H313884   1.485   3.794   6.129 -1.6234 -1.5672  0.9043
  104CHL1    O313885   1.595   3.626   6.203 -0.2245  0.2465  0.4903
  104CHL1   H3'13886   1.675   3.594   6.162 -0.2541 -0.7567  1.1751
  104CHL1    C413887   1.432   3.610   6.008 -0.0491 -0.3923 -0.0367
  104CHL1   H4A13888   1.480   3.511   5.992 -0.6193 -0.7510  0.4472
  104CHL1   H4B13889   1.350   3.584   6.078 -0.4335  3.1938  1.0349
  104CHL1    C513890   1.386   3.668   5.884  0.5672  0.5262  0.1262
  104CHL1    C613891   1.254   3.674   5.861 -0.1245  0.0933 -0.2416
  104CHL1    H613892   1.194   3.627   5.941  1.0205 -1.1115 -0.0527
  104CHL1    C713893   1.192   3.730   5.743 -0.5986 -1.0730  0.5459
  104CHL1   H7A13894   1.104   3.666   5.719 -1.1775 -0.3515  0.6996
  104CHL1   H7B13895   1.150   3.829   5.772  2.8890  1.2905 -1.7278
  104CHL1    C813896   1.291   3.760   5.624  0.3145 -0.2978 -0.6445
  104CHL1    H813897   1.299   3.655   5.588  1.0357 -0.4933  0.0594
  104CHL1   C1413898   1.230   3.867   5.530  0.6804 -0.1987  0.8504
  104CHL1   H1413899   1.216   3.959   5.590 -0.1390 -0.0196  0.4026
  104CHL1   C1513900   1.096   3.839   5.459 -0.7585  0.0170  0.4471
  104CHL1  H15A13901   1.103   3.733   5.428 -0.4595  0.5961 -1.5778
  104CHL1  H15B13902   1.003   3.843   5.520  1.0403  2.4936  3.3523
  104CHL1   C1613903   1.096   3.939   5.342 -0.8110  0.0539 -0.1714
  104CHL1  H16A13904   1.092   3.881   5.247 -1.0724 -1.7594  0.9126
  104CHL1  H16B13905   1.009   4.007   5.348  0.7252  2.1008 -0.0629
  104CHL1   C1713906   1.234   4.010   5.339  0.0944  0.1094  0.1363
  104CHL1   H1713907   1.230   4.100   5.404  1.7907 -0.0813  0.5591
  104CHL1   C1313908   1.323   3.911   5.414 -0.0389  0.3825 -0.0949
  104CHL1   C1813909   1.348   3.794   5.315  0.3548 -0.1269 -0.0402
  104CHL1  H18A13910   1.256   3.773   5.256 -0.2851  1.8817  0.1595
  104CHL1  H18B13911   1.432   3.815   5.246  0.6563  1.2030  0.7062
  104CHL1  H18C13912   1.374   3.701   5.370 -0.2750 -0.3434 -0.1014
  104CHL1   C1213913   1.455   3.966   5.473  0.1328 -0.1528 -0.7953
  104CHL1  H12A13914   1.524   3.983   5.387 -0.5400 -0.9997 -1.5149
  104CHL1  H12B13915   1.428   4.062   5.522 -0.7739  0.2341 -2.0146
  104CHL1   C1113916   1.520   3.867   5.565  0.3037  0.4002  0.6962
  104CHL1  H11A13917   1.556   3.780   5.506 -1.2689 -0.2757  0.6781
  104CHL1  H11B13918   1.611   3.917   5.603  1.0086  1.5471 -2.2220
  104CHL1    C913919   1.425   3.811   5.677 -0.1354  0.6906  0.4357
  104CHL1    H913920   1.390   3.896   5.739 -1.0835  1.3425 -0.9360
  104CHL1   C1013921   1.487   3.727   5.787 -0.0825  0.3738  0.6323
  104CHL1   C1913922   1.563   3.608   5.717 -0.5364 -0.2137  0.0477
  104CHL1  H19A13923   1.653   3.658   5.675  0.9389 -1.6381  1.3848
  104CHL1  H19B13924   1.612   3.543   5.793 -0.0284  0.7661  0.5839
  104CHL1  H19C13925   1.508   3.551   5.639  2.3856 -1.3013 -1.3458
  104CHL1    C113926   1.589   3.816   5.870  0.0401 -0.1217 -0.2997
  104CHL1   H1A13927   1.671   3.829   5.796  0.7533 -0.9932  0.3170
  104CHL1   H1B13928   1.555   3.919   5.894 -0.1831 -0.3618  0.4424
  104CHL1    C213929   1.647   3.750   5.997  0.5991 -0.6620 -0.0180
  104CHL1   H2A13930   1.720   3.810   6.055  1.4347 -0.0505 -1.6699
  104CHL1   H2B13931   1.693   3.653   5.968  0.1615 -0.6168 -0.8874
  104CHL1   C2013932   1.262   4.065   5.202  0.7651  0.4524  0.0377
  104CHL1   H2013933   1.285   3.973   5.144  1.7729  0.0943  0.9728
  104CHL1   C2113934   1.381   4.162   5.206 -0.3444  0.0235 -0.0563
  104CHL1  H21A13935   1.379   4.218   5.111 -1.7607  1.4303  0.7560
  104CHL1  H21B13936   1.479   4.112   5.225 -1.1653 -0.9993  1.8699
  104CHL1  H21C13937   1.377   4.235   5.290 -0.0359 -0.4388  0.3717
  104CHL1   C2213938   1.143   4.147   5.142 -0.2769 -0.5895 -0.4798
  104CHL1  H22A13939   1.175   4.184   5.042 -0.8373  0.5208 -0.2665
  104CHL1  H22B13940   1.053   4.084   5.132 -1.6256  1.3811 -1.4872
  104CHL1   C2313941   1.095   4.268   5.229  0.7127  0.0658  0.4928
  104CHL1  H23A13942   1.072   4.236   5.333  0.2920 -0.1593  0.3341
  104CHL1  H23B13943   1.170   4.349   5.237  0.0457  0.7880 -0.2949
  104CHL1   C2413944   0.975   4.314   5.158 -0.0975  0.5186  0.6630
  104CHL1  H24A13945   1.010   4.336   5.055  2.0944 -2.2952  0.6830
  104CHL1  H24B13946   0.899   4.235   5.139  2.0357 -1.1646 -1.7351
  104CHL1   C2513947   0.910   4.436   5.232  0.0610  0.0944  0.0591
  104CHL1   H2513948   0.881   4.402   5.334  0.6213 -0.3462  0.0760
  104CHL1   C2613949   1.007   4.551   5.271  0.1087 -0.7068 -0.2304
  104CHL1  H26A13950   0.953   4.642   5.306 -1.1619 -0.2111 -3.1587
  104CHL1  H26B13951   1.064   4.501   5.352 -1.5000 -0.9468  0.8064
  104CHL1  H26C13952   1.075   4.578   5.187 -1.1057  1.4766 -0.5961
  104CHL1   C2713953   0.783   4.486   5.157  0.1382 -0.0697 -0.7704
  104CHL1  H27A13954   0.719   4.408   5.110  1.4358 -2.2628  0.8948
  104CHL1  H27B13955   0.719   4.548   5.223  0.4382 -2.2430  1.7203
  104CHL1  H27C13956   0.813   4.548   5.069  0.9401 -0.2098 -0.5994
  105CHL1    C313957   7.236   2.742   6.443 -0.1367  0.2354  0.2947
  105CHL1    H313958   7.196   2.837   6.402  0.2390  0.9433  1.4989
  105CHL1    O313959   7.243   2.762   6.587  0.8778 -0.3160  0.1882
  105CHL1   H3'13960   7.297   2.840   6.602  1.5841 -1.2239  3.0125
  105CHL1    C413961   7.149   2.622   6.408  0.3585 -0.0290 -0.1519
  105CHL1   H4A13962   7.189   2.532   6.460  1.7065 -0.3008 -1.5554
  105CHL1   H4B13963   7.047   2.643   6.444  0.4914 -0.0816  0.2578
  105CHL1    C513964   7.156   2.598   6.259 -0.4483 -0.3298  0.3837
  105CHL1    C613965   7.047   2.604   6.182 -0.3719 -0.0029 -0.5402
  105CHL1    H613966   6.953   2.628   6.233  0.2316  0.2317  0.4707
  105CHL1    C713967   7.040   2.557   6.041  0.5527  0.4546  0.5198
  105CHL1   H7A13968   6.957   2.489   6.015 -0.0407  0.7548  1.5954
  105CHL1   H7B13969   7.030   2.651   5.982  1.0198  0.6724  0.7893
  105CHL1    C813970   7.172   2.501   5.987 -0.7995 -0.1914  0.6372
  105CHL1    H813971   7.168   2.392   6.008  0.7037 -0.9279 -2.2573
  105CHL1   C1413972   7.170   2.509   5.834 -0.4736  0.1610 -0.1849
  105CHL1   H1413973   7.176   2.615   5.802  0.2420 -0.7636 -3.4086
  105CHL1   C1513974   7.058   2.440   5.766  0.4717  0.6264 -0.4139
  105CHL1  H15A13975   7.036   2.343   5.816 -0.7558  1.4429  0.7028
  105CHL1  H15B13976   6.971   2.509   5.767  1.8607  2.5595  2.6696
  105CHL1   C1613977   7.109   2.424   5.621  1.0971  0.1972  0.5875
  105CHL1  H16A13978   7.091   2.325   5.575 -1.7992  1.9472 -2.5597
  105CHL1  H16B13979   7.058   2.502   5.560  1.2046  1.3419  1.9057
  105CHL1   C1713980   7.256   2.463   5.625 -0.4648 -1.1198  0.5374
  105CHL1   H1713981   7.254   2.572   5.605 -0.4671 -0.3002  4.2818
  105CHL1   C1313982   7.297   2.447   5.770 -0.5625 -0.1850  0.1319
  105CHL1   C1813983   7.312   2.291   5.802  0.5174  0.2481  0.2418
  105CHL1  H18A13984   7.411   2.251   5.772  0.5214 -1.3110  2.1337
  105CHL1  H18B13985   7.302   2.281   5.912 -0.8978 -1.5960 -0.0050
  105CHL1  H18C13986   7.230   2.234   5.753 -1.3685  2.1798  1.0321
  105CHL1   C1213987   7.418   2.532   5.814  0.2281  0.2582 -0.3656
  105CHL1  H12A13988   7.513   2.486   5.779  0.4411  1.4683 -1.5021
  105CHL1  H12B13989   7.421   2.632   5.764  0.0896  0.3598 -0.1714
  105CHL1   C1113990   7.428   2.543   5.977 -0.3303  0.0375 -0.1992
  105CHL1  H11A13991   7.463   2.440   6.002 -0.6625 -0.1054 -0.2983
  105CHL1  H11B13992   7.504   2.620   6.001 -0.1253 -0.1482 -0.2487
  105CHL1    C913993   7.291   2.577   6.040 -0.3666  0.1750 -0.2341
  105CHL1    H913994   7.274   2.683   6.012  1.2483  0.6181  0.3856
  105CHL1   C1013995   7.299   2.575   6.196 -0.3031 -0.4141  0.0365
  105CHL1   C1913996   7.343   2.433   6.248 -0.6615  0.5158  0.4042
  105CHL1  H19A13997   7.448   2.414   6.217 -1.2512 -1.5878 -0.4860
  105CHL1  H19B13998   7.345   2.429   6.359 -0.0338  2.6137  0.5046
  105CHL1  H19C13999   7.280   2.352   6.206 -0.2064  0.4456 -0.1559
  105CHL1    C114000   7.395   2.685   6.246  0.6302  0.0612 -0.6232
  105CHL1   H1A14001   7.502   2.661   6.225  0.6374 -1.8226  1.3003
  105CHL1   H1B14002   7.367   2.777   6.190  1.9594  0.4424 -0.7008
  105CHL1    C214003   7.382   2.717   6.399  0.0939 -1.2066 -0.5314
  105CHL1   H2A14004   7.450   2.803   6.418 -0.7199 -0.1115 -2.3248
  105CHL1   H2B14005   7.417   2.626   6.452 -1.4050 -0.6939  1.4625
  105CHL1   C2014006   7.345   2.405   5.517 -0.1371 -0.3524  0.9548
  105CHL1   H2014007   7.346   2.298   5.545  0.1152 -0.7262 -0.4132
  105CHL1   C2114008   7.497   2.435   5.527 -0.2533  0.0964 -0.2550
  105CHL1  H21A14009   7.509   2.545   5.533 -0.7873  0.1516 -0.0700
  105CHL1  H21B14010   7.549   2.402   5.435  0.1447 -0.2535  0.0896
  105CHL1  H21C14011   7.549   2.378   5.607  0.6708 -0.8414 -1.4961
  105CHL1   C2214012   7.295   2.407   5.372  0.0116  0.1449 -0.0100
  105CHL1  H22A14013   7.185   2.426   5.373  0.3305  2.3007 -1.1336
  105CHL1  H22B14014   7.329   2.502   5.325 -0.0485 -0.5111 -1.4202
  105CHL1   C2314015   7.334   2.286   5.285  0.0862 -0.3869 -0.1815
  105CHL1  H23A14016   7.443   2.263   5.282 -0.2169 -1.8949 -2.7443
  105CHL1  H23B14017   7.277   2.199   5.325 -0.6856  0.5002  0.6774
  105CHL1   C2414018   7.272   2.302   5.141 -0.4133 -0.0791 -0.7215
  105CHL1  H24A14019   7.163   2.315   5.150 -0.5032 -1.5579  0.8495
  105CHL1  H24B14020   7.306   2.395   5.089 -0.9254  0.6976  0.3213
  105CHL1   C2514021   7.278   2.170   5.056  0.2984 -0.5136  0.0609
  105CHL1   H2514022   7.254   2.083   5.120 -0.4198  0.4060  1.0713
  105CHL1   C2614023   7.177   2.165   4.941 -0.8096  0.1131  0.1550
  105CHL1  H26A14024   7.212   2.241   4.867 -0.1311  0.8679  1.2147
  105CHL1  H26B14025   7.178   2.063   4.897  1.6731 -0.0506  0.4367
  105CHL1  H26C14026   7.081   2.202   4.982 -1.0515 -3.0768  2.9317
  105CHL1   C2714027   7.425   2.157   4.992  0.0992 -1.0261 -0.4627
  105CHL1  H27A14028   7.484   2.156   5.086  2.5975 -0.4643 -1.9540
  105CHL1  H27B14029   7.430   2.061   4.936  1.0956 -0.5761 -1.1656
  105CHL1  H27C14030   7.452   2.240   4.924  1.4043 -1.8886 -1.0232
  106CHL1    C314031   2.777   1.046   6.727 -0.5785 -0.2396  0.6971
  106CHL1    H314032   2.884   1.024   6.707  0.1125  1.3198  2.3521
  106CHL1    O314033   2.758   1.070   6.869  0.2778  0.3372  0.7329
  106CHL1   H3'14034   2.828   1.135   6.879  2.0101 -1.1784 -0.8255
  106CHL1    C414035   2.752   1.175   6.644 -0.1328 -0.3221  0.1629
  106CHL1   H4A14036   2.649   1.205   6.674 -0.0768 -0.6361  0.6735
  106CHL1   H4B14037   2.828   1.249   6.678 -2.1360  1.5309  0.9125
  106CHL1    C514038   2.749   1.159   6.498  0.4611 -0.3928  0.1044
  106CHL1    C614039   2.814   1.244   6.418 -0.7654 -0.5359 -0.2248
  106CHL1    H614040   2.875   1.322   6.466 -0.1747 -1.4811  0.6141
  106CHL1    C714041   2.835   1.238   6.271  0.0161 -0.5845 -0.0239
  106CHL1   H7A14042   2.835   1.343   6.235 -0.0993  0.7791  3.5443
  106CHL1   H7B14043   2.929   1.185   6.245  0.5116 -0.4509  1.3870
  106CHL1    C814044   2.723   1.149   6.215 -1.4264 -0.4908  0.2943
  106CHL1    H814045   2.635   1.216   6.222 -0.0717  1.4554 -0.4963
  106CHL1   C1414046   2.757   1.120   6.072  0.7458  0.0525 -0.2853
  106CHL1   H1414047   2.849   1.058   6.063 -0.3019 -1.6033 -0.0135
  106CHL1   C1514048   2.788   1.232   5.975 -0.1378 -0.3866  0.1704
  106CHL1  H15A14049   2.720   1.319   5.973  0.7621  0.4169  1.9960
  106CHL1  H15B14050   2.889   1.276   5.987  0.2422 -1.1652 -0.0618
  106CHL1   C1614051   2.780   1.156   5.831  0.0398 -0.1734  0.1961
  106CHL1  H16A14052   2.722   1.214   5.756  2.1475  0.0927 -1.3325
  106CHL1  H16B14053   2.884   1.141   5.797  0.1828  2.1753 -0.5974
  106CHL1   C1714054   2.704   1.021   5.856  0.4344  0.5313  0.3232
  106CHL1   H1714055   2.777   0.937   5.858 -1.4179 -1.1884 -0.0291
  106CHL1   C1314056   2.652   1.031   6.001  0.8905 -0.2224  0.1074
  106CHL1   C1814057   2.518   1.113   6.003 -0.3447 -0.4249 -0.6376
  106CHL1  H18A14058   2.486   1.141   6.106  1.1348  2.3022 -0.8186
  106CHL1  H18B14059   2.515   1.204   5.939  0.2889  0.1852  0.1677
  106CHL1  H18C14060   2.437   1.049   5.962 -1.0298  0.4099 -0.6104
  106CHL1   C1214061   2.645   0.896   6.073  0.4523 -1.2630 -0.6582
  106CHL1  H12A14062   2.573   0.828   6.024 -0.8294  0.0937 -0.7054
  106CHL1  H12B14063   2.743   0.844   6.080 -0.2849 -2.5757  0.3009
  106CHL1   C1114064   2.604   0.921   6.222 -0.5007 -0.1772  0.5669
  106CHL1  H11A14065   2.498   0.955   6.220 -1.4703 -2.9690  1.0180
  106CHL1  H11B14066   2.616   0.825   6.276  0.5679 -0.2833  0.1851
  106CHL1    C914067   2.701   1.016   6.293  0.0615  0.0565  0.2478
  106CHL1    H914068   2.799   0.965   6.305 -1.1111 -1.7125  3.7322
  106CHL1   C1014069   2.665   1.039   6.443 -0.3285  0.3696 -0.0820
  106CHL1   C1914070   2.523   1.087   6.447  0.0827  0.8475  0.4878
  106CHL1  H19A14071   2.501   1.173   6.380 -0.2589  0.0751 -0.4299
  106CHL1  H19B14072   2.455   1.005   6.413  1.3781 -0.0857  0.0905
  106CHL1  H19C14073   2.502   1.107   6.554  1.2682 -1.7630  1.2926
  106CHL1    C114074   2.682   0.913   6.531 -0.0551  0.6176 -0.5560
  106CHL1   H1A14075   2.602   0.837   6.520  1.5281 -1.5146  1.6108
  106CHL1   H1B14076   2.774   0.862   6.495  0.2748  0.9786 -0.2373
  106CHL1    C214077   2.680   0.938   6.683  0.1940 -0.0765 -0.3812
  106CHL1   H2A14078   2.693   0.846   6.745 -0.5318  1.2540  1.8604
  106CHL1   H2B14079   2.577   0.964   6.717  0.3400 -1.3069  1.1240
  106CHL1   C2014080   2.594   0.976   5.749  0.7786  0.2314  0.1513
  106CHL1   H2014081   2.519   1.059   5.749 -0.1838 -0.5955 -1.3683
  106CHL1   C2114082   2.526   0.839   5.769  0.5649 -0.3794  0.1241
  106CHL1  H21A14083   2.596   0.771   5.823  0.9598  0.7651  1.1055
  106CHL1  H21B14084   2.497   0.798   5.671  0.7650  0.3846 -0.2616
  106CHL1  H21C14085   2.436   0.848   5.834  1.1858 -1.4185  1.1839
  106CHL1   C2214086   2.661   0.978   5.606  0.0545  0.2689 -0.4974
  106CHL1  H22A14087   2.753   1.040   5.599  1.2083 -1.4547 -1.1143
  106CHL1  H22B14088   2.690   0.874   5.582  0.2531  0.4489 -1.0629
  106CHL1   C2314089   2.572   1.027   5.494  0.1484 -0.6734  0.0041
  106CHL1  H23A14090   2.477   0.971   5.507  0.8846 -1.9992 -0.1695
  106CHL1  H23B14091   2.550   1.136   5.502  3.3742 -0.0555  2.9508
  106CHL1   C2414092   2.638   0.992   5.359  0.6995 -0.7186 -0.2074
  106CHL1  H24A14093   2.725   1.061   5.351  1.3073 -1.3220  0.9653
  106CHL1  H24B14094   2.675   0.888   5.370  0.6951 -0.4775  2.8513
  106CHL1   C2514095   2.556   1.005   5.226  0.1641 -0.1397  0.2796
  106CHL1   H2514096   2.507   1.105   5.225  0.0394 -0.2028 -0.6649
  106CHL1   C2614097   2.648   0.997   5.101 -0.0316  0.9013 -0.2935
  106CHL1  H26A14098   2.595   1.023   5.008 -2.0396 -1.1078  0.2177
  106CHL1  H26B14099   2.745   1.051   5.113 -0.1872  1.1332 -0.0696
  106CHL1  H26C14100   2.668   0.889   5.089 -0.7500  0.8199 -0.7848
  106CHL1   C2714101   2.443   0.901   5.212  0.0334 -0.2542 -0.2170
  106CHL1  H27A14102   2.376   0.936   5.130  1.1084  0.8696 -0.6432
  106CHL1  H27B14103   2.484   0.801   5.186 -0.2083 -0.9521  1.8864
  106CHL1  H27C14104   2.382   0.896   5.305  0.7922  3.0073  0.5715
  107CHL1    C314105   5.770   5.602   6.463  1.2416 -0.3285  0.0679
  107CHL1    H314106   5.878   5.599   6.487  1.0731 -1.2507  0.7717
  107CHL1    O314107   5.701   5.608   6.588 -0.0688 -0.4524 -0.3635
  107CHL1   H3'14108   5.607   5.621   6.573 -0.5471 -1.6245  1.3605
  107CHL1    C414109   5.730   5.726   6.383 -0.3172 -0.1324 -0.1073
  107CHL1   H4A14110   5.619   5.719   6.379 -0.2695 -0.9207 -0.1723
  107CHL1   H4B14111   5.753   5.818   6.442 -1.0514  1.7107 -2.5104
  107CHL1    C514112   5.804   5.729   6.247 -0.2486 -0.0874 -0.1401
  107CHL1    C614113   5.879   5.831   6.206  0.1779 -0.1023  0.4285
  107CHL1    H614114   5.887   5.919   6.273  1.1672 -0.0082  0.1946
  107CHL1    C714115   5.942   5.838   6.066  0.0392  0.0446 -0.4058
  107CHL1   H7A14116   5.949   5.940   6.023  2.1064 -0.1340 -0.5669
  107CHL1   H7B14117   6.048   5.808   6.076  0.1001  0.3546 -0.1293
  107CHL1    C814118   5.882   5.746   5.962  0.9398 -0.3832 -0.5384
  107CHL1    H814119   5.782   5.782   5.931 -0.2618 -1.2581  2.0063
  107CHL1   C1414120   5.967   5.733   5.836 -0.2452 -0.4412 -0.3557
  107CHL1   H1414121   6.065   5.690   5.868  0.1395  0.1819 -0.6555
  107CHL1   C1514122   6.002   5.857   5.749  0.2397 -0.3554  0.3469
  107CHL1  H15A14123   5.912   5.923   5.748 -0.0166 -0.6133 -2.7346
  107CHL1  H15B14124   6.087   5.916   5.787  2.1642 -1.1865 -2.3924
  107CHL1   C1614125   6.032   5.805   5.606 -0.1481  0.9044 -0.0990
  107CHL1  H16A14126   5.957   5.855   5.541  0.0637  1.9962  0.4799
  107CHL1  H16B14127   6.137   5.816   5.570 -0.8598  1.4368 -2.1722
  107CHL1   C1714128   5.998   5.652   5.609 -0.0507 -0.7342 -0.8830
  107CHL1   H1714129   6.098   5.610   5.635  0.0959  0.6641  0.9237
  107CHL1   C1314130   5.910   5.636   5.736 -0.2816 -0.0242 -0.4071
  107CHL1   C1814131   5.764   5.680   5.706  0.1016 -0.3889 -0.5708
  107CHL1  H18A14132   5.698   5.683   5.795  0.2082 -1.6580 -0.4392
  107CHL1  H18B14133   5.761   5.770   5.641 -0.9745  0.2459  0.3249
  107CHL1  H18C14134   5.717   5.609   5.635 -1.6664  1.2844 -1.1685
  107CHL1   C1214135   5.899   5.494   5.802  0.9049 -0.5514  0.3025
  107CHL1  H12A14136   5.851   5.420   5.734 -0.1441  0.0905  0.3133
  107CHL1  H12B14137   6.000   5.449   5.809  0.6753 -1.2611 -0.6951
  107CHL1   C1114138   5.824   5.496   5.932  0.2243 -0.0572 -0.0703
  107CHL1  H11A14139   5.717   5.488   5.903  0.1963 -1.0118  0.2543
  107CHL1  H11B14140   5.838   5.397   5.981  0.5829  0.4641  0.8907
  107CHL1    C914141   5.856   5.610   6.030  0.4153  0.6310  0.5487
  107CHL1    H914142   5.960   5.595   6.066  0.3982 -0.7619  0.0738
  107CHL1   C1014143   5.768   5.607   6.159 -0.4342 -0.3737  0.8405
  107CHL1   C1914144   5.620   5.629   6.117 -0.4192 -0.7828 -0.3929
  107CHL1  H19A14145   5.554   5.650   6.204 -1.3207  3.8728 -1.9375
  107CHL1  H19B14146   5.617   5.727   6.065 -0.9039  0.2135  1.4247
  107CHL1  H19C14147   5.572   5.553   6.052 -0.0585 -0.6386 -0.8342
  107CHL1    C114148   5.790   5.476   6.242  0.7786  0.2429  0.1639
  107CHL1   H1A14149   5.741   5.395   6.185  0.5305  1.1747 -1.0018
  107CHL1   H1B14150   5.897   5.452   6.256  0.3432 -1.7252  0.4227
  107CHL1    C214151   5.721   5.481   6.381  0.0910  0.1035 -0.0816
  107CHL1   H2A14152   5.754   5.389   6.434  0.4013 -0.0925 -0.5983
  107CHL1   H2B14153   5.611   5.483   6.370  0.1131 -1.9745 -1.1963
  107CHL1   C2014154   5.947   5.597   5.476 -0.4769 -0.0189 -0.3963
  107CHL1   H2014155   5.873   5.666   5.431  1.4332  1.0964 -1.9983
  107CHL1   C2114156   5.888   5.454   5.492 -0.3389 -0.0504  0.0378
  107CHL1  H21A14157   5.959   5.411   5.565 -1.1315 -0.2160  0.7231
  107CHL1  H21B14158   5.866   5.396   5.399  0.2612 -0.0843 -0.0862
  107CHL1  H21C14159   5.790   5.445   5.543 -0.3945 -0.6656 -0.1625
  107CHL1   C2214160   6.071   5.589   5.376  0.0235  0.3645 -0.0527
  107CHL1  H22A14161   6.129   5.684   5.369  0.8206 -0.0031  1.2860
  107CHL1  H22B14162   6.148   5.525   5.425 -0.0559 -0.1165 -0.5501
  107CHL1   C2314163   6.048   5.530   5.236 -0.1682  0.0403 -0.3635
  107CHL1  H23A14164   6.016   5.423   5.241  0.6060 -0.1459  0.9219
  107CHL1  H23B14165   5.965   5.593   5.196  0.5195 -0.2294 -2.3692
  107CHL1   C2414166   6.162   5.563   5.136  0.0139  0.2470  0.2173
  107CHL1  H24A14167   6.178   5.671   5.150  0.1055  0.3843 -0.8739
  107CHL1  H24B14168   6.254   5.512   5.172 -0.0159  0.7363  1.0073
  107CHL1   C2514169   6.131   5.551   4.992  0.0294  0.2715 -0.6254
  107CHL1   H2514170   6.081   5.452   4.984 -2.6326  1.4184  0.5707
  107CHL1   C2614171   6.031   5.668   4.942  0.2899 -0.8134 -0.1450
  107CHL1  H26A14172   6.076   5.762   4.982  0.3116 -1.3261  1.0916
  107CHL1  H26B14173   6.040   5.667   4.831  0.6965  1.6349 -0.1925
  107CHL1  H26C14174   5.927   5.656   4.978 -0.6846  0.0047 -2.5156
  107CHL1   C2714175   6.272   5.553   4.927  0.2304 -0.2028  1.7560
  107CHL1  H27A14176   6.264   5.547   4.817  0.8226  2.6149  1.4802
  107CHL1  H27B14177   6.320   5.653   4.934 -1.0212  0.6869 -1.0129
  107CHL1  H27C14178   6.348   5.477   4.955  1.0819 -0.4483 -0.9448
  108CHL1    C314179   6.118   1.510   6.427  1.0254 -0.0801 -0.4477
  108CHL1    H314180   6.081   1.420   6.373 -2.1791  0.5674  0.4360
  108CHL1    O314181   6.164   1.476   6.558 -0.6694  0.0643  0.4039
  108CHL1   H3'14182   6.177   1.564   6.593 -2.0843 -0.3234  2.0377
  108CHL1    C414183   6.238   1.574   6.365 -0.3185 -0.6459  0.1438
  108CHL1   H4A14184   6.284   1.646   6.436 -3.4253 -0.0134  1.6881
  108CHL1   H4B14185   6.310   1.490   6.351  0.6834  0.2064  0.0114
  108CHL1    C514186   6.215   1.634   6.233 -0.2522 -0.1175 -0.2446
  108CHL1    C614187   6.285   1.602   6.119  0.4968  0.5709  0.4719
  108CHL1    H614188   6.371   1.533   6.118  0.9257  1.0952 -0.8774
  108CHL1    C714189   6.260   1.669   5.986 -0.9024  0.1616 -0.6340
  108CHL1   H7A14190   6.357   1.703   5.943  0.2161 -0.9337  0.9115
  108CHL1   H7B14191   6.219   1.595   5.914  1.3139  0.4111 -2.2465
  108CHL1    C814192   6.173   1.792   5.994 -0.3742  0.1658  0.8061
  108CHL1    H814193   6.239   1.877   6.022 -0.6143  0.2322  1.1877
  108CHL1   C1414194   6.126   1.828   5.853 -0.5312  0.5531 -0.0356
  108CHL1   H1414195   6.064   1.738   5.831  0.0447  0.5222 -1.6872
  108CHL1   C1514196   6.221   1.842   5.732 -0.5443 -0.4055  0.2479
  108CHL1  H15A14197   6.309   1.903   5.763 -0.7123  0.3963 -0.7817
  108CHL1  H15B14198   6.254   1.738   5.711  0.4411 -0.4472  1.8137
  108CHL1   C1614199   6.142   1.911   5.619  0.5355 -0.4159  0.0250
  108CHL1  H16A14200   6.200   2.003   5.596  0.3580 -0.0887  0.8687
  108CHL1  H16B14201   6.144   1.844   5.530  0.7175  0.8340 -0.9309
  108CHL1   C1714202   6.004   1.931   5.683  0.0450  0.2577 -0.0583
  108CHL1   H1714203   5.943   1.840   5.661 -0.2275  1.0850 -3.3699
  108CHL1   C1314204   6.024   1.939   5.841  0.1814  0.3879 -0.0129
  108CHL1   C1814205   6.086   2.078   5.877 -0.2443  0.2034 -0.1885
  108CHL1  H18A14206   6.179   2.096   5.820  0.0596 -0.6193  0.0251
  108CHL1  H18B14207   6.012   2.154   5.847 -1.5997 -1.8107 -2.2302
  108CHL1  H18C14208   6.120   2.086   5.983  2.3593 -1.2112 -0.8239
  108CHL1   C1214209   5.897   1.903   5.925  0.1704  0.1845  0.1636
  108CHL1  H12A14210   5.824   1.987   5.917  1.3246  1.3301  1.1485
  108CHL1  H12B14211   5.858   1.812   5.874  1.1870  1.2337 -2.6939
  108CHL1   C1114212   5.938   1.879   6.070  0.7214 -0.1760 -0.2249
  108CHL1  H11A14213   5.979   1.969   6.121 -1.3599  0.3439  0.6637
  108CHL1  H11B14214   5.847   1.845   6.124  1.8914 -2.7374  0.2674
  108CHL1    C914215   6.050   1.763   6.083 -0.3975 -0.4753  0.2209
  108CHL1    H914216   5.997   1.677   6.038 -1.6431 -0.4226  1.4951
  108CHL1   C1014217   6.087   1.729   6.228 -0.1800  0.2753 -0.6209
  108CHL1   C1914218   6.128   1.863   6.309 -0.2511 -0.2394 -0.0274
  108CHL1  H19A14219   6.230   1.892   6.276  0.4789 -1.3357  1.1624
  108CHL1  H19B14220   6.056   1.946   6.295  0.6024  0.8524  1.6776
  108CHL1  H19C14221   6.116   1.838   6.417 -2.0012  0.3835 -0.0443
  108CHL1    C114222   5.965   1.662   6.298  0.2722 -0.0769 -0.1931
  108CHL1   H1A14223   5.879   1.731   6.311 -0.5576 -0.8813 -1.1487
  108CHL1   H1B14224   5.913   1.588   6.233  0.8889  1.1542 -2.1793
  108CHL1    C214225   5.995   1.596   6.437  0.2919  0.8010 -0.1587
  108CHL1   H2A14226   5.910   1.526   6.448  1.6039 -1.1425 -1.7013
  108CHL1   H2B14227   5.994   1.674   6.516 -0.4503 -0.9037  1.5904
  108CHL1   C2014228   5.938   2.053   5.616  0.8329  0.1480  0.6646
  108CHL1   H2014229   6.004   2.136   5.649  0.3440  1.2611 -1.0222
  108CHL1   C2114230   5.799   2.089   5.665  0.1288  0.1332 -0.0647
  108CHL1  H21A14231   5.722   2.012   5.643 -0.5096  0.8017 -0.2166
  108CHL1  H21B14232   5.748   2.168   5.605 -2.3182 -1.0122  0.3866
  108CHL1  H21C14233   5.794   2.125   5.770 -1.1810 -0.4851  0.1055
  108CHL1   C2214234   5.949   2.044   5.459  0.0584  0.1713 -0.6507
  108CHL1  H22A14235   6.051   2.013   5.430 -0.0795 -2.0944  1.0374
  108CHL1  H22B14236   5.880   1.965   5.421  1.4746 -0.8322 -1.1957
  108CHL1   C2314237   5.913   2.172   5.376  0.4253  0.3906  0.8376
  108CHL1  H23A14238   5.804   2.194   5.382  0.0654 -0.2104 -1.9716
  108CHL1  H23B14239   5.969   2.261   5.412 -1.4546  1.7244  0.6333
  108CHL1   C2414240   5.929   2.159   5.219 -0.6862  0.0776 -0.5588
  108CHL1  H24A14241   6.033   2.120   5.209 -0.6445  0.1236 -0.3190
  108CHL1  H24B14242   5.863   2.080   5.176 -1.3394  1.1884 -1.6562
  108CHL1   C2514243   5.908   2.280   5.135  0.0527  0.3020 -0.0641
  108CHL1   H2514244   5.800   2.305   5.145  0.2329  0.7169  0.9687
  108CHL1   C2614245   5.990   2.402   5.185 -0.2960  0.2511  0.5438
  108CHL1  H26A14246   5.955   2.445   5.282 -1.7418  1.3865 -0.4205
  108CHL1  H26B14247   6.099   2.384   5.184 -0.1381  1.1381  0.0985
  108CHL1  H26C14248   5.959   2.486   5.118  0.4011 -0.7836 -1.1430
  108CHL1   C2714249   5.949   2.253   4.989 -0.1789 -0.6188 -0.3497
  108CHL1  H27A14250   5.928   2.346   4.932 -3.1557  0.1832  1.7812
  108CHL1  H27B14251   6.059   2.239   4.984 -0.0919 -0.4244  0.7743
  108CHL1  H27C14252   5.889   2.170   4.947 -0.0227 -2.3162  2.5378
  109CHL1    C314253   4.949   6.615   6.592  0.0934 -0.1698 -0.0835
  109CHL1    H314254   5.012   6.542   6.537 -1.1152 -1.5201  0.2594
  109CHL1    O314255   4.938   6.575   6.726 -0.2114 -0.9098  0.1276
  109CHL1   H3'14256   4.846   6.577   6.753 -0.3464 -0.2152 -0.3737
  109CHL1    C414257   5.006   6.755   6.594  0.1238 -0.2506  0.2964
  109CHL1   H4A14258   4.943   6.825   6.652 -0.6276 -0.0892 -0.6781
  109CHL1   H4B14259   5.099   6.751   6.653  0.9497  1.7299 -0.7768
  109CHL1    C514260   5.026   6.818   6.458  0.1121 -0.2890 -0.2576
  109CHL1    C614261   5.152   6.833   6.407 -0.5914  0.2183 -0.0687
  109CHL1    H614262   5.238   6.829   6.476 -0.6329  0.3895 -0.0085
  109CHL1    C714263   5.190   6.864   6.264  0.2994  0.0839 -0.3435
  109CHL1   H7A14264   5.274   6.936   6.255 -0.4234  0.9425 -0.3512
  109CHL1   H7B14265   5.232   6.772   6.220  1.6787  0.3320  0.3954
  109CHL1    C814266   5.069   6.905   6.187  0.0782  0.6102  0.0023
  109CHL1    H814267   5.044   7.010   6.216 -0.2481  0.6232 -0.3183
  109CHL1   C1414268   5.098   6.894   6.035  0.2105 -0.2315  0.0859
  109CHL1   H1414269   5.111   6.786   6.014  2.0827 -0.6020  2.6703
  109CHL1   C1514270   5.232   6.947   5.979 -0.1810  1.0789  0.4095
  109CHL1  H15A14271   5.258   7.047   6.020  1.2340  0.1187  2.0042
  109CHL1  H15B14272   5.317   6.877   6.000  1.0814  2.0186 -1.2987
  109CHL1   C1614273   5.212   6.964   5.831  0.2345  0.4109 -0.2434
  109CHL1  H16A14274   5.239   7.066   5.798 -0.2523  0.7215  0.3052
  109CHL1  H16B14275   5.285   6.892   5.788  0.5323  0.9220 -0.6108
  109CHL1   C1714276   5.071   6.923   5.793  0.8857 -0.6644 -0.6189
  109CHL1   H1714277   5.074   6.815   5.766 -2.0900 -0.7370 -0.9684
  109CHL1   C1314278   4.994   6.936   5.931  0.6451 -0.3053  0.1347
  109CHL1   C1814279   4.965   7.087   5.956 -0.1930 -0.4369 -0.6061
  109CHL1  H18A14280   4.911   7.102   6.052  0.3882 -0.0620 -0.3285
  109CHL1  H18B14281   5.057   7.149   5.967 -0.8680  0.4433  0.3590
  109CHL1  H18C14282   4.910   7.136   5.873  2.2137 -2.3103 -3.5425
  109CHL1   C1214283   4.869   6.851   5.955 -0.0797  0.5381  0.1571
  109CHL1  H12A14284   4.780   6.890   5.901  0.3729 -0.4366 -1.3452
  109CHL1  H12B14285   4.877   6.745   5.924  1.3010  0.8503 -0.6586
  109CHL1   C1114286   4.828   6.851   6.107 -0.1590 -0.9722 -0.4977
  109CHL1  H11A14287   4.786   6.950   6.135  1.6139 -0.4870  0.5422
  109CHL1  H11B14288   4.748   6.775   6.124 -0.2668 -0.7230  0.1410
  109CHL1    C914289   4.943   6.823   6.210  0.2806 -0.1510 -0.0320
  109CHL1    H914290   4.974   6.724   6.169  1.3098  1.0138 -2.2633
  109CHL1   C1014291   4.906   6.811   6.363  0.8502 -0.2653  0.7724
  109CHL1   C1914292   4.806   6.924   6.405  0.8712  0.3531  0.1892
  109CHL1  H19A14293   4.714   6.906   6.345  2.1443 -0.7331 -1.5538
  109CHL1  H19B14294   4.778   6.904   6.510 -0.9125 -1.2711 -0.5521
  109CHL1  H19C14295   4.845   7.029   6.400  1.6061  0.1516  1.2903
  109CHL1    C114296   4.838   6.663   6.384  0.5907  0.0309  0.2898
  109CHL1   H1A14297   4.743   6.676   6.329 -0.4539 -0.0333  2.0000
  109CHL1   H1B14298   4.899   6.585   6.333  0.5454 -0.8831  1.5822
  109CHL1    C214299   4.817   6.611   6.529  0.2488  0.3175  0.2012
  109CHL1   H2A14300   4.778   6.507   6.524  1.7983 -0.2965  0.2378
  109CHL1   H2B14301   4.742   6.683   6.569  0.4887  1.2869 -1.0225
  109CHL1   C2014302   5.015   6.987   5.666  0.3293  0.2229  0.1574
  109CHL1   H2014303   5.014   7.096   5.685  1.0551  0.0864  1.0299
  109CHL1   C2114304   4.874   6.939   5.637 -0.2564 -0.3199  0.3060
  109CHL1  H21A14305   4.837   6.983   5.542  0.3030  0.6468  0.5278
  109CHL1  H21B14306   4.799   6.974   5.712  1.8880  2.2045  1.4109
  109CHL1  H21C14307   4.871   6.828   5.625  0.8936 -0.1853 -1.4082
  109CHL1   C2214308   5.096   6.973   5.537  0.3126 -0.6535  0.3058
  109CHL1  H22A14309   5.201   7.008   5.554  0.2839 -0.3979 -0.0350
  109CHL1  H22B14310   5.089   6.869   5.500  0.8615 -0.4076 -0.5342
  109CHL1   C2314311   5.038   7.068   5.433 -0.0931  0.6257  0.7130
  109CHL1  H23A14312   4.954   7.015   5.384  0.3817 -0.5977  1.2017
  109CHL1  H23B14313   4.999   7.165   5.473 -2.0265  1.2754 -2.3880
  109CHL1   C2414314   5.148   7.101   5.323  0.1674  0.3272 -0.4340
  109CHL1  H24A14315   5.230   7.149   5.382  2.6665 -2.5861 -1.2282
  109CHL1  H24B14316   5.188   7.005   5.285  0.2406  0.2038 -0.0508
  109CHL1   C2514317   5.115   7.189   5.208  0.4034 -0.5500 -0.6161
  109CHL1   H2514318   5.082   7.292   5.235  2.2729 -0.5482  1.9973
  109CHL1   C2614319   5.235   7.200   5.122  0.2169  0.1037 -0.3878
  109CHL1  H26A14320   5.216   7.258   5.029  0.7639  0.5377 -0.2319
  109CHL1  H26B14321   5.317   7.255   5.171 -0.2153 -0.4889  1.0743
  109CHL1  H26C14322   5.274   7.103   5.083  1.5487  0.1589  0.7493
  109CHL1   C2714323   4.998   7.119   5.135 -0.0415 -0.2497  0.5987
  109CHL1  H27A14324   5.034   7.019   5.104 -1.6013 -1.8725  3.5743
  109CHL1  H27B14325   4.918   7.100   5.209  0.2046 -1.3689  0.5905
  109CHL1  H27C14326   4.964   7.178   5.047  0.2348 -0.3439  0.4266
  110CHL1    C314327   2.223   4.944   6.164 -0.3304  0.1661  0.7371
  110CHL1    H314328   2.134   4.892   6.124 -0.3668  0.2091  0.7622
  110CHL1    O314329   2.233   4.912   6.301 -0.0567 -0.1895  0.5773
  110CHL1   H3'14330   2.258   4.819   6.304  0.9266  0.0673  0.7653
  110CHL1    C414331   2.350   4.903   6.086  0.3006  0.4863 -0.4883
  110CHL1   H4A14332   2.436   4.961   6.127  0.1035  1.6210 -1.6105
  110CHL1   H4B14333   2.374   4.798   6.113 -2.0980 -0.0139 -0.0885
  110CHL1    C514334   2.340   4.928   5.944  0.4170  0.2068  0.3802
  110CHL1    C614335   2.348   4.829   5.857 -0.5077 -0.5823  0.2531
  110CHL1    H614336   2.364   4.724   5.889 -1.4998 -1.6808 -2.5527
  110CHL1    C714337   2.354   4.846   5.707 -0.3643  0.5264  0.2092
  110CHL1   H7A14338   2.446   4.801   5.664 -0.9566  0.5509 -1.1460
  110CHL1   H7B14339   2.266   4.796   5.661  0.6608  0.3038 -1.6351
  110CHL1    C814340   2.365   4.997   5.659 -0.1027 -0.4013 -0.3226
  110CHL1    H814341   2.468   5.040   5.663 -0.7826  1.3330 -0.5810
  110CHL1   C1414342   2.312   5.012   5.518 -0.0736  1.1787 -0.5249
  110CHL1   H1414343   2.207   4.978   5.514 -0.2577  1.8990 -2.9345
  110CHL1   C1514344   2.373   4.920   5.413  0.2620  0.7665  0.7339
  110CHL1  H15A14345   2.484   4.916   5.409  0.2633  1.5771 -0.9225
  110CHL1  H15B14346   2.329   4.821   5.434 -1.4785  1.9319  3.1114
  110CHL1   C1614347   2.321   4.989   5.281  0.3041 -0.3745 -0.6685
  110CHL1  H16A14348   2.403   5.012   5.210  0.1878  0.5463 -0.5148
  110CHL1  H16B14349   2.242   4.931   5.230  0.6265 -0.2315 -1.3498
  110CHL1   C1714350   2.264   5.132   5.314 -0.3294  0.3259  0.3621
  110CHL1   H1714351   2.156   5.109   5.322 -0.1260 -0.3230  1.3782
  110CHL1   C1314352   2.313   5.155   5.457  0.6395 -0.3779 -0.7533
  110CHL1   C1814353   2.460   5.209   5.455  0.1312 -0.0293 -0.2174
  110CHL1  H18A14354   2.521   5.161   5.375 -0.7331 -0.2937 -0.7291
  110CHL1  H18B14355   2.451   5.317   5.431  3.5780  0.4004 -0.1019
  110CHL1  H18C14356   2.514   5.201   5.552  1.8109  1.9349 -0.9305
  110CHL1   C1214357   2.220   5.243   5.547  0.2376  0.1382 -0.1688
  110CHL1  H12A14358   2.220   5.351   5.522  0.0296 -0.2479 -1.9304
  110CHL1  H12B14359   2.116   5.204   5.542  0.3706 -0.5265  1.4409
  110CHL1   C1114360   2.265   5.231   5.698  0.2926  0.1502 -0.2180
  110CHL1  H11A14361   2.365   5.278   5.692  0.5085 -0.4047 -1.4225
  110CHL1  H11B14362   2.190   5.291   5.754  0.3780 -1.0629  1.2341
  110CHL1    C914363   2.276   5.085   5.754  0.4567  0.0603  0.0541
  110CHL1    H914364   2.168   5.059   5.742  0.1473  1.3198 -0.0982
  110CHL1   C1014365   2.312   5.080   5.909  0.1773 -0.4366  0.5619
  110CHL1   C1914366   2.442   5.165   5.928 -0.3598 -0.1702  0.1124
  110CHL1  H19A14367   2.480   5.141   6.030 -0.9461 -2.5847 -0.1726
  110CHL1  H19B14368   2.520   5.136   5.854  0.3430 -1.0490  1.1591
  110CHL1  H19C14369   2.403   5.269   5.928 -0.1620 -0.0881  1.2466
  110CHL1    C114370   2.194   5.137   6.003  0.0059 -0.1594 -0.5982
  110CHL1   H1A14371   2.168   5.244   5.988 -5.0217 -1.1507 -0.9769
  110CHL1   H1B14372   2.111   5.075   5.963  0.1411 -2.3470  2.1709
  110CHL1    C214373   2.201   5.090   6.150 -0.0750 -0.4570  0.3621
  110CHL1   H2A14374   2.097   5.098   6.189 -2.2980 -3.5277 -4.0749
  110CHL1   H2B14375   2.272   5.149   6.213 -0.7386 -0.0259  0.7267
  110CHL1   C2014376   2.294   5.231   5.194 -0.5013  0.0150  0.8699
  110CHL1   H2014377   2.404   5.241   5.180 -0.6135  0.0830  0.0012
  110CHL1   C2114378   2.235   5.374   5.208 -0.4220  0.5308 -0.4943
  110CHL1  H21A14379   2.126   5.367   5.230 -0.4448 -1.9024 -1.1179
  110CHL1  H21B14380   2.246   5.429   5.112  0.8587  0.6028 -0.3198
  110CHL1  H21C14381   2.288   5.424   5.292  0.8473  1.5726 -1.8539
  110CHL1   C2214382   2.247   5.165   5.057 -0.5601 -0.3178 -0.8886
  110CHL1  H22A14383   2.291   5.230   4.979 -0.9740  0.0115 -0.8540
  110CHL1  H22B14384   2.282   5.061   5.039 -1.6951 -1.0014  0.5782
  110CHL1   C2314385   2.094   5.154   5.026  0.6831 -0.3187  0.0327
  110CHL1  H23A14386   2.049   5.072   5.086  1.8103 -1.2198 -0.3059
  110CHL1  H23B14387   2.052   5.248   5.067  1.1325 -0.3076  0.4800
  110CHL1   C2414388   2.081   5.137   4.877  0.3479  0.7330  0.0295
  110CHL1  H24A14389   2.143   5.217   4.831  1.5909 -0.3582 -0.2611
  110CHL1  H24B14390   2.125   5.037   4.861 -0.6052  0.0413  1.4970
  110CHL1   C2514391   1.932   5.143   4.823 -0.4196 -0.0639 -0.4109
  110CHL1   H2514392   1.872   5.081   4.893 -2.4847  2.9465  0.7196
  110CHL1   C2614393   1.875   5.288   4.837 -0.0593 -0.0246  0.0160
  110CHL1  H26A14394   1.893   5.317   4.942 -1.7560 -0.0193  0.3321
  110CHL1  H26B14395   1.921   5.364   4.770 -0.3421  0.1411  0.0052
  110CHL1  H26C14396   1.765   5.284   4.817  0.3532 -2.2361 -2.2926
  110CHL1   C2714397   1.911   5.084   4.685  0.4118  0.4104  0.0439
  110CHL1  H27A14398   1.998   5.024   4.650  1.1704  0.5618  1.5741
  110CHL1  H27B14399   1.827   5.013   4.692  0.2141  0.3855 -2.1364
  110CHL1  H27C14400   1.890   5.175   4.624  1.0883  1.0671  0.7527
  111CHL1    C314401   4.858   1.251   6.576  0.0688  0.0764 -0.5521
  111CHL1    H314402   4.905   1.334   6.518  1.7037  0.2394  0.9397
  111CHL1    O314403   4.930   1.232   6.695 -0.0324 -0.7151  0.2890
  111CHL1   H3'14404   4.901   1.146   6.727  1.2007 -0.7887  1.2821
  111CHL1    C414405   4.714   1.287   6.613 -0.1880 -0.0627  0.3586
  111CHL1   H4A14406   4.668   1.213   6.682 -3.0631  1.8559  0.6503
  111CHL1   H4B14407   4.715   1.381   6.672  0.9930 -1.1504  2.1922
  111CHL1    C514408   4.634   1.304   6.486  0.4264  0.4666  0.8637
  111CHL1    C614409   4.563   1.421   6.469 -0.1992 -0.2201  0.0998
  111CHL1    H614410   4.565   1.502   6.544 -0.0043 -1.7462  1.8168
  111CHL1    C714411   4.492   1.448   6.341  0.0621  0.0007  0.3094
  111CHL1   H7A14412   4.402   1.509   6.362  1.4506  2.2431  0.0937
  111CHL1   H7B14413   4.553   1.503   6.267 -0.8892  0.4793 -0.1394
  111CHL1    C814414   4.459   1.315   6.260  0.2135  0.4498 -0.6735
  111CHL1    H814415   4.384   1.260   6.321 -1.2756  2.7294 -0.3244
  111CHL1   C1414416   4.393   1.346   6.125 -0.2395  0.1011  0.2107
  111CHL1   H1414417   4.464   1.410   6.068 -0.3918 -0.9910 -1.2675
  111CHL1   C1514418   4.265   1.432   6.130  0.0327 -0.2644 -0.0308
  111CHL1  H15A14419   4.191   1.397   6.205  0.0306  2.3510  1.2956
  111CHL1  H15B14420   4.276   1.540   6.152 -2.7505 -0.2758  1.9495
  111CHL1   C1614421   4.204   1.405   5.986  0.3682  1.0691  0.5763
  111CHL1  H16A14422   4.104   1.359   6.004  0.8473 -0.1817  0.1693
  111CHL1  H16B14423   4.196   1.499   5.928 -1.0377  0.0853 -0.9225
  111CHL1   C1714424   4.295   1.301   5.913  0.0096  0.5483  0.0841
  111CHL1   H1714425   4.371   1.346   5.846 -1.5604  0.9001 -1.5485
  111CHL1   C1314426   4.364   1.228   6.031 -0.5079 -0.5853 -0.5192
  111CHL1   C1814427   4.273   1.136   6.114 -0.5009 -0.1223  0.5679
  111CHL1  H18A14428   4.223   1.060   6.050 -1.3861 -0.5086  1.6768
  111CHL1  H18B14429   4.327   1.082   6.195  0.2600  1.9268  1.4868
  111CHL1  H18C14430   4.193   1.183   6.175 -1.0628 -1.4820  0.9128
  111CHL1   C1214431   4.500   1.157   6.004  0.4808  0.3284 -0.5522
  111CHL1  H12A14432   4.465   1.063   5.956 -0.2696 -0.3974  1.3171
  111CHL1  H12B14433   4.551   1.230   5.937  1.8191 -0.4540 -0.4166
  111CHL1   C1114434   4.580   1.123   6.142  0.1640  0.4335  0.5481
  111CHL1  H11A14435   4.533   1.031   6.181 -0.2978 -0.2721 -1.5399
  111CHL1  H11B14436   4.683   1.090   6.117 -0.1417 -0.6951  0.7205
  111CHL1    C914437   4.586   1.229   6.247 -0.1978  0.5481 -0.6221
  111CHL1    H914438   4.660   1.300   6.204 -1.7829  1.9420 -1.1636
  111CHL1   C1014439   4.650   1.192   6.379 -0.8278  0.1183 -0.5002
  111CHL1   C1914440   4.576   1.070   6.438 -0.6706 -0.7269 -0.5936
  111CHL1  H19A14441   4.467   1.090   6.431 -0.6330  0.5525  1.5685
  111CHL1  H19B14442   4.605   0.987   6.370  0.4382  0.0086 -1.0463
  111CHL1  H19C14443   4.602   1.045   6.543  0.8324  1.4092 -0.3966
  111CHL1    C114444   4.805   1.141   6.368 -0.4376  0.0464 -0.1978
  111CHL1   H1A14445   4.815   1.052   6.302 -3.1184  0.3051 -1.0709
  111CHL1   H1B14446   4.842   1.233   6.319  1.9020  0.5763  2.3123
  111CHL1    C214447   4.872   1.126   6.496 -1.1187 -0.1445 -0.0498
  111CHL1   H2A14448   4.980   1.115   6.474 -0.7183 -0.3400  1.8336
  111CHL1   H2B14449   4.850   1.036   6.559  0.2179  0.3001  1.1140
  111CHL1   C2014450   4.212   1.211   5.811 -0.4178 -0.0501 -0.1005
  111CHL1   H2014451   4.171   1.129   5.874  0.5510 -0.2787  0.2562
  111CHL1   C2114452   4.314   1.139   5.717  0.7514 -0.0352 -0.0226
  111CHL1  H21A14453   4.388   1.080   5.773  1.2971 -0.3526 -1.0553
  111CHL1  H21B14454   4.363   1.204   5.642  3.1462  0.5941  1.9559
  111CHL1  H21C14455   4.249   1.066   5.663  0.6529  0.0021  0.0453
  111CHL1   C2214456   4.096   1.280   5.744 -0.5829 -0.3072  0.1210
  111CHL1  H22A14457   4.041   1.209   5.678 -1.4425  1.2718 -0.9229
  111CHL1  H22B14458   4.024   1.320   5.819  1.2955  0.4188  1.6119
  111CHL1   C2314459   4.145   1.393   5.658 -1.1436  0.2887 -0.3898
  111CHL1  H23A14460   4.195   1.466   5.724  0.2732 -1.4167  0.4808
  111CHL1  H23B14461   4.210   1.351   5.578  0.4942 -0.4304  1.2682
  111CHL1   C2414462   4.025   1.463   5.591 -0.1547  0.0390 -0.3009
  111CHL1  H24A14463   3.966   1.394   5.527 -0.0160 -0.2049 -0.1720
  111CHL1  H24B14464   3.954   1.498   5.668  0.7093  1.2325 -0.0196
  111CHL1   C2514465   4.065   1.576   5.492  0.0644  0.0020 -0.1776
  111CHL1   H2514466   4.117   1.659   5.545 -1.7604 -0.2463  2.1547
  111CHL1   C2614467   4.151   1.527   5.373  0.6191  0.1170  0.3645
  111CHL1  H26A14468   4.257   1.505   5.400  2.3936  1.6603 -4.3838
  111CHL1  H26B14469   4.097   1.435   5.344  1.3011  0.1965 -1.2282
  111CHL1  H26C14470   4.154   1.606   5.295 -0.7624  3.1927  3.1259
  111CHL1   C2714471   3.940   1.633   5.430  0.3180  0.7219  0.1100
  111CHL1  H27A14472   3.858   1.661   5.499  0.0667 -2.9307  1.5002
  111CHL1  H27B14473   3.970   1.720   5.366  0.1804  2.1067  1.8493
  111CHL1  H27C14474   3.890   1.550   5.375 -1.8396  2.3023 -0.4601
  112CHL1    C314475   6.325   0.277   6.563 -0.5511 -0.1942 -0.4334
  112CHL1    H314476   6.435   0.286   6.573 -0.4570 -0.3767 -1.2221
  112CHL1    O314477   6.267   0.314   6.686 -0.6075 -0.0908 -0.5191
  112CHL1   H3'14478   6.219   0.397   6.671 -0.9534 -0.1387  0.2585
  112CHL1    C414479   6.298   0.384   6.447 -1.0422  0.0355 -0.5257
  112CHL1   H4A14480   6.187   0.394   6.451 -1.1158 -0.8010 -0.2122
  112CHL1   H4B14481   6.340   0.478   6.488  1.0467 -0.9335 -0.3138
  112CHL1    C514482   6.363   0.339   6.313  0.7931 -0.3407 -0.3360
  112CHL1    C614483   6.450   0.419   6.250 -0.3302  0.8094  0.6628
  112CHL1    H614484   6.488   0.507   6.305  2.8665 -0.4267  0.6379
  112CHL1    C714485   6.506   0.380   6.114 -0.0656 -0.2848 -0.0137
  112CHL1   H7A14486   6.496   0.470   6.049 -0.8136  1.1906  2.0306
  112CHL1   H7B14487   6.615   0.357   6.114 -0.0709 -0.3113 -0.3586
  112CHL1    C814488   6.418   0.270   6.041 -0.1074  0.6185 -0.2325
  112CHL1    H814489   6.319   0.306   6.006  0.4066 -0.5734 -3.1323
  112CHL1   C1414490   6.498   0.218   5.921  0.4561 -0.2667  0.0360
  112CHL1   H1414491   6.595   0.186   5.963  0.0203  1.8112  2.9406
  112CHL1   C1514492   6.543   0.317   5.811  0.9319  0.0181 -0.3233
  112CHL1  H15A14493   6.456   0.376   5.778 -0.3132 -2.8228 -2.4631
  112CHL1  H15B14494   6.629   0.377   5.849  0.6503 -0.6003  1.3869
  112CHL1   C1614495   6.587   0.228   5.699  0.4646 -0.0572  0.0785
  112CHL1  H16A14496   6.537   0.264   5.606  0.0065  2.6784  1.2595
  112CHL1  H16B14497   6.697   0.241   5.690  0.3874  1.2232  0.6523
  112CHL1   C1714498   6.553   0.082   5.743 -0.1019  0.4879  0.0330
  112CHL1   H1714499   6.639   0.040   5.799  0.9962  2.3832 -0.1346
  112CHL1   C1314500   6.444   0.088   5.853  0.1080  0.1639 -0.4343
  112CHL1   C1814501   6.312   0.103   5.785  0.1697  0.1461  0.6912
  112CHL1  H18A14502   6.262   0.006   5.762 -1.7926  1.4491 -0.8306
  112CHL1  H18B14503   6.248   0.148   5.863 -0.6634 -1.4331  0.9607
  112CHL1  H18C14504   6.305   0.172   5.698 -1.5936  0.7416  1.2611
  112CHL1   C1214505   6.430  -0.025   5.955 -0.0272 -1.0307  0.0971
  112CHL1  H12A14506   6.380  -0.112   5.907 -1.3057 -0.8437  1.0317
  112CHL1  H12B14507   6.530  -0.060   5.990  1.2793  1.0097 -1.3919
  112CHL1   C1114508   6.346   0.024   6.077 -0.3756  0.0997  0.3956
  112CHL1  H11A14509   6.241   0.032   6.044 -0.2612 -1.3159 -0.3705
  112CHL1  H11B14510   6.344  -0.056   6.153 -0.0239 -1.5516 -1.2422
  112CHL1    C914511   6.394   0.157   6.142  0.1500  0.1194  1.1923
  112CHL1    H914512   6.496   0.127   6.175  0.3403 -1.5760 -0.7566
  112CHL1   C1014513   6.318   0.205   6.270 -0.0798  0.6711  0.0428
  112CHL1   C1914514   6.164   0.208   6.238  0.1116 -0.5838 -0.6947
  112CHL1  H19A14515   6.127   0.281   6.163  0.4259  0.7721  0.4328
  112CHL1  H19B14516   6.133   0.107   6.204  0.4338 -1.0073  0.2368
  112CHL1  H19C14517   6.104   0.238   6.328  1.0617  0.3903 -0.3658
  112CHL1    C114518   6.348   0.101   6.388 -0.0891  0.3908 -0.1192
  112CHL1   H1A14519   6.330  -0.006   6.366  0.5243 -0.3954  2.7904
  112CHL1   H1B14520   6.459   0.108   6.397 -0.0486  1.0801 -0.9650
  112CHL1    C214521   6.286   0.135   6.523  0.4811 -0.7207  0.2819
  112CHL1   H2A14522   6.327   0.058   6.592 -0.3546 -1.0770  0.3873
  112CHL1   H2B14523   6.175   0.130   6.521  0.2716  1.1071  2.8987
  112CHL1   C2014524   6.536  -0.015   5.619 -0.2020 -0.0916 -0.0003
  112CHL1   H2014525   6.454   0.027   5.556  0.9472  1.3601 -0.5646
  112CHL1   C2114526   6.501  -0.159   5.657  0.2341  0.3597 -0.4299
  112CHL1  H21A14527   6.398  -0.172   5.695  0.5926 -1.2191  0.0864
  112CHL1  H21B14528   6.570  -0.192   5.738 -1.0966  0.3743  0.7490
  112CHL1  H21C14529   6.493  -0.233   5.574 -0.1370  0.4124 -0.4428
  112CHL1   C2214530   6.652  -0.018   5.517  0.2791 -0.2924 -0.5816
  112CHL1  H22A14531   6.702   0.080   5.505 -0.6316  0.3525  0.5622
  112CHL1  H22B14532   6.724  -0.100   5.539 -0.9645 -1.7604 -1.7471
  112CHL1   C2314533   6.609  -0.049   5.373  0.5260 -0.4332 -0.0775
  112CHL1  H23A14534   6.702  -0.069   5.317  0.8897 -0.1617  0.4277
  112CHL1  H23B14535   6.539  -0.136   5.379 -1.3057  1.0459  1.1013
  112CHL1   C2414536   6.530   0.066   5.301 -0.0871  0.3073 -0.1520
  112CHL1  H24A14537   6.435   0.077   5.358 -0.0193  0.6437 -0.1015
  112CHL1  H24B14538   6.580   0.164   5.314  1.9882 -0.5249 -1.3424
  112CHL1   C2514539   6.499   0.034   5.158 -0.5381 -0.2652 -0.4471
  112CHL1   H2514540   6.437  -0.058   5.160  0.8307 -1.2275 -0.8239
  112CHL1   C2614541   6.420   0.159   5.105 -0.6262 -0.0272  0.0919
  112CHL1  H26A14542   6.339   0.191   5.173 -0.9333 -2.3993  0.9281
  112CHL1  H26B14543   6.493   0.241   5.089 -0.6378 -0.4765 -2.8167
  112CHL1  H26C14544   6.378   0.135   5.004 -3.0117  0.0856  0.9849
  112CHL1   C2714545   6.617  -0.002   5.068 -0.7159  0.0692 -0.3800
  112CHL1  H27A14546   6.694  -0.067   5.114 -2.0062  0.0065  1.8539
  112CHL1  H27B14547   6.577  -0.054   4.978 -0.5849 -1.3598  0.3488
  112CHL1  H27C14548   6.668   0.093   5.044 -2.2117  0.6357 -1.4822
  113CHL1    C314549   2.271   4.372   6.138  1.0310 -0.2941 -0.7822
  113CHL1    H314550   2.332   4.279   6.139  0.1728 -0.9044  1.1835
  113CHL1    O314551   2.231   4.405   6.268 -0.3445  0.3859 -0.6189
  113CHL1   H3'14552   2.271   4.343   6.329 -2.3508  1.3562  1.8690
  113CHL1    C414553   2.360   4.482   6.082  0.5950 -0.1183  0.2910
  113CHL1   H4A14554   2.294   4.571   6.085  0.1320 -0.4558  0.1865
  113CHL1   H4B14555   2.443   4.499   6.153  0.7958  1.2968 -0.2613
  113CHL1    C514556   2.394   4.449   5.936 -0.8986  0.6714 -0.0468
  113CHL1    C614557   2.523   4.446   5.893  0.0290  0.3171 -0.2444
  113CHL1    H614558   2.604   4.471   5.963  1.1428 -1.6246 -0.7631
  113CHL1    C714559   2.551   4.397   5.750 -0.0711  0.0589 -0.1447
  113CHL1   H7A14560   2.647   4.446   5.725  0.8446 -1.4123  0.3740
  113CHL1   H7B14561   2.557   4.286   5.747 -4.2478 -0.4181  1.4948
  113CHL1    C814562   2.431   4.412   5.643  0.4034  0.0335  0.4021
  113CHL1    H814563   2.407   4.517   5.617 -1.2501 -0.5306 -0.5262
  113CHL1   C1414564   2.464   4.339   5.516  0.1345 -0.0620  0.3292
  113CHL1   H1414565   2.465   4.228   5.528  1.9400 -0.3879 -2.0227
  113CHL1   C1514566   2.596   4.381   5.461  0.2192 -0.1158  1.0726
  113CHL1  H15A14567   2.614   4.491   5.460  0.1415 -0.1016  0.2214
  113CHL1  H15B14568   2.672   4.318   5.512 -0.2215  0.5528  2.6405
  113CHL1   C1614569   2.586   4.329   5.316 -0.4569 -0.2308 -1.0258
  113CHL1  H16A14570   2.624   4.411   5.252 -0.2699 -0.9798 -1.8847
  113CHL1  H16B14571   2.647   4.237   5.304 -0.2535 -0.2219 -0.1499
  113CHL1   C1714572   2.436   4.289   5.291  0.1057  0.3058  0.0484
  113CHL1   H1714573   2.420   4.180   5.309  2.2407 -0.2258 -0.9418
  113CHL1   C1314574   2.357   4.353   5.409 -0.2889  0.6692 -0.6180
  113CHL1   C1814575   2.321   4.501   5.374 -0.1704  0.1733 -0.2486
  113CHL1  H18A14576   2.404   4.565   5.337  1.3493 -0.7702  1.3689
  113CHL1  H18B14577   2.238   4.510   5.301  0.2387 -1.1559 -0.8985
  113CHL1  H18C14578   2.294   4.566   5.461 -1.3613 -0.0303 -0.4378
  113CHL1   C1214579   2.233   4.274   5.466  0.1950 -0.0278  0.4721
  113CHL1  H12A14580   2.148   4.276   5.394 -0.3521  1.5264  1.1103
  113CHL1  H12B14581   2.256   4.170   5.495 -0.4434 -0.7380 -1.4554
  113CHL1   C1114582   2.192   4.352   5.595  0.2557 -0.2756 -0.1549
  113CHL1  H11A14583   2.161   4.458   5.579 -1.6960 -0.5436  1.5301
  113CHL1  H11B14584   2.109   4.297   5.644 -1.0790  0.0654 -1.9445
  113CHL1    C914585   2.308   4.356   5.699  0.2993 -0.6260  0.1965
  113CHL1    H914586   2.336   4.249   5.711 -4.0574 -2.0164 -0.4700
  113CHL1   C1014587   2.270   4.407   5.844 -0.4385  0.1112  0.0978
  113CHL1   C1914588   2.178   4.527   5.823 -0.0947  0.1200  1.0830
  113CHL1  H19A14589   2.177   4.593   5.912  2.2040 -2.1214  2.8830
  113CHL1  H19B14590   2.221   4.599   5.750  0.6825 -0.1644  1.2553
  113CHL1  H19C14591   2.074   4.497   5.794 -0.0249 -0.0176  0.9747
  113CHL1    C114592   2.190   4.296   5.910 -0.0406  0.9414 -0.5582
  113CHL1   H1A14593   2.088   4.281   5.867 -0.1796 -0.5410  0.1832
  113CHL1   H1B14594   2.235   4.195   5.905 -2.7265 -0.3785 -0.3657
  113CHL1    C214595   2.158   4.329   6.057  0.4917  0.9012  0.1907
  113CHL1   H2A14596   2.110   4.241   6.105  1.2857  0.1335 -0.4045
  113CHL1   H2B14597   2.079   4.408   6.065 -1.1655 -0.8146  2.0774
  113CHL1   C2014598   2.391   4.311   5.140 -0.3265  0.2173 -0.7431
  113CHL1   H2014599   2.390   4.418   5.112 -1.5098  0.6055  0.6361
  113CHL1   C2114600   2.239   4.270   5.134 -0.0977 -0.4906 -0.4793
  113CHL1  H21A14601   2.177   4.336   5.197  0.8539  0.3398 -0.3908
  113CHL1  H21B14602   2.227   4.167   5.175 -2.3551 -0.1620 -0.1744
  113CHL1  H21C14603   2.199   4.276   5.030  0.6527 -0.3394 -0.7653
  113CHL1   C2214604   2.475   4.217   5.045  0.0241  0.1787 -0.0808
  113CHL1  H22A14605   2.584   4.237   5.060 -0.2516  0.6022  1.4795
  113CHL1  H22B14606   2.464   4.109   5.068  2.0028 -0.0096  0.2290
  113CHL1   C2314607   2.434   4.229   4.892 -0.0922 -0.0678 -0.1404
  113CHL1  H23A14608   2.333   4.186   4.878 -0.2463  0.5869 -1.1929
  113CHL1  H23B14609   2.435   4.338   4.869  1.3866 -0.2253 -0.9330
  113CHL1   C2414610   2.534   4.167   4.799  0.2995 -0.0613  0.0973
  113CHL1  H24A14611   2.521   4.202   4.694 -2.2191 -0.9578  0.0429
  113CHL1  H24B14612   2.634   4.207   4.825  0.3537  0.5004 -0.9149
  113CHL1   C2514613   2.535   4.013   4.790  0.1375  0.1325 -0.3525
  113CHL1   H2514614   2.562   3.981   4.893  0.6910 -3.3856 -1.4702
  113CHL1   C2614615   2.403   3.949   4.745 -0.4413 -0.6525  0.6210
  113CHL1  H26A14616   2.317   3.981   4.808  0.2525  3.0904 -0.1438
  113CHL1  H26B14617   2.380   3.976   4.640  1.7725 -0.8744  0.0222
  113CHL1  H26C14618   2.411   3.838   4.751 -0.0635 -0.6903 -0.4209
  113CHL1   C2714619   2.654   3.977   4.711 -0.2728  0.3040 -0.0724
  113CHL1  H27A14620   2.668   3.867   4.718  3.0451  0.6783  0.4800
  113CHL1  H27B14621   2.631   3.990   4.603 -1.0131 -1.4469 -0.1509
  113CHL1  H27C14622   2.744   4.027   4.752 -0.2963 -0.6478  1.2054
  114CHL1    C314623   6.549   6.607   6.979 -0.5118 -0.2202 -0.0412
  114CHL1    H314624   6.472   6.684   6.961 -1.0114 -1.2185 -2.7348
  114CHL1    O314625   6.577   6.580   7.117  0.4853 -0.0100  0.1626
  114CHL1   H3'14626   6.673   6.573   7.121  0.8087  2.7275 -0.9922
  114CHL1    C414627   6.499   6.478   6.914  0.0253 -0.4756  0.2910
  114CHL1   H4A14628   6.573   6.396   6.930 -0.4804 -1.0522 -0.2611
  114CHL1   H4B14629   6.405   6.445   6.963 -1.8755  1.7469 -1.6758
  114CHL1    C514630   6.469   6.489   6.766  0.0533 -0.1132 -0.4789
  114CHL1    C614631   6.351   6.458   6.714 -0.2740 -0.9565 -0.8673
  114CHL1    H614632   6.274   6.422   6.785 -1.8603  1.6638 -1.0996
  114CHL1    C714633   6.323   6.452   6.567 -0.1967  0.0401  0.2738
  114CHL1   H7A14634   6.294   6.350   6.537  0.1750 -0.3156  1.0806
  114CHL1   H7B14635   6.241   6.522   6.540 -0.2120  0.7371  1.9645
  114CHL1    C814636   6.440   6.499   6.480 -0.4591  0.6546 -0.0753
  114CHL1    H814637   6.488   6.400   6.461 -2.2147 -0.4932  1.2056
  114CHL1   C1414638   6.405   6.559   6.349  0.4062  0.3237 -0.6576
  114CHL1   H1414639   6.366   6.661   6.370 -2.1883 -0.3295 -1.8565
  114CHL1   C1514640   6.294   6.491   6.269 -0.5921 -0.1361  0.5233
  114CHL1  H15A14641   6.301   6.381   6.259 -3.1233 -0.1392 -4.0323
  114CHL1  H15B14642   6.194   6.520   6.308 -1.1226 -1.0727 -0.1072
  114CHL1   C1614643   6.308   6.557   6.129 -0.5962 -0.6632 -0.1010
  114CHL1  H16A14644   6.314   6.471   6.058  0.3806 -0.1102 -0.7070
  114CHL1  H16B14645   6.218   6.607   6.089  0.9922  1.4704 -1.2389
  114CHL1   C1714646   6.434   6.650   6.132  0.1677  0.0289 -0.2642
  114CHL1   H1714647   6.402   6.749   6.170  1.0094  0.1870  0.0723
  114CHL1   C1314648   6.515   6.596   6.249  0.0425  0.3793 -0.3565
  114CHL1   C1814649   6.591   6.464   6.212 -0.3223  0.3083  0.0932
  114CHL1  H18A14650   6.514   6.396   6.169 -0.9140 -1.0608  3.1034
  114CHL1  H18B14651   6.666   6.493   6.136 -0.1168 -0.8048 -0.1542
  114CHL1  H18C14652   6.644   6.408   6.292 -1.6698  0.8268  1.3894
  114CHL1   C1214653   6.613   6.694   6.311  0.3637  0.2252 -0.1924
  114CHL1  H12A14654   6.707   6.714   6.255  1.3479 -2.7811  0.1547
  114CHL1  H12B14655   6.561   6.788   6.335 -0.7858 -0.9606  2.2448
  114CHL1   C1114656   6.654   6.635   6.449  0.1934  0.1101  0.1658
  114CHL1  H11A14657   6.718   6.548   6.423 -1.0390 -0.4919 -0.9625
  114CHL1  H11B14658   6.724   6.709   6.493  0.9016 -0.1690 -0.4842
  114CHL1    C914659   6.544   6.600   6.546  0.0801  0.5136 -0.1269
  114CHL1    H914660   6.480   6.689   6.566  1.5476  1.8474 -1.1391
  114CHL1   C1014661   6.586   6.558   6.686 -0.0144 -0.1552  0.1362
  114CHL1   C1914662   6.693   6.443   6.672  1.6840 -0.3079  0.3048
  114CHL1  H19A14663   6.721   6.397   6.769  1.7234  1.5706  1.2205
  114CHL1  H19B14664   6.661   6.364   6.601  1.1396  1.2964 -1.3031
  114CHL1  H19C14665   6.787   6.490   6.634  0.5184  1.0877 -0.9994
  114CHL1    C114666   6.653   6.678   6.763 -0.3277  0.2392 -0.2647
  114CHL1   H1A14667   6.748   6.704   6.711  0.4971 -3.3431 -0.8287
  114CHL1   H1B14668   6.580   6.761   6.766  0.4060  0.8664  1.7978
  114CHL1    C214669   6.680   6.649   6.913 -0.2692  0.6658 -0.2094
  114CHL1   H2A14670   6.729   6.737   6.959 -0.0992  0.4900 -0.0552
  114CHL1   H2B14671   6.751   6.565   6.923  0.5146  1.2689 -0.6286
  114CHL1   C2014672   6.495   6.664   5.986 -0.8679  0.0995  0.4692
  114CHL1   H2014673   6.561   6.581   5.951 -0.3074  1.1201 -0.9823
  114CHL1   C2114674   6.590   6.788   5.993  0.1018  0.7180 -0.2056
  114CHL1  H21A14675   6.672   6.771   6.065  0.8923  0.8113 -1.0725
  114CHL1  H21B14676   6.539   6.881   6.028 -0.5955  0.2600  0.0312
  114CHL1  H21C14677   6.645   6.804   5.898 -1.5908 -1.5022 -1.6896
  114CHL1   C2214678   6.398   6.685   5.870  0.0194 -0.0942  0.0857
  114CHL1  H22A14679   6.330   6.598   5.862  0.5666 -0.5606  0.4486
  114CHL1  H22B14680   6.342   6.778   5.893  1.0956  0.3717  0.9210
  114CHL1   C2314681   6.455   6.686   5.727  0.7365  0.0539 -0.2715
  114CHL1  H23A14682   6.378   6.738   5.666 -0.3011 -0.6335  0.4157
  114CHL1  H23B14683   6.541   6.756   5.725 -0.1096  1.2180  1.3858
  114CHL1   C2414684   6.492   6.547   5.672 -0.3551 -0.0443 -0.3341
  114CHL1  H24A14685   6.573   6.501   5.732 -1.0662  1.2244  1.6704
  114CHL1  H24B14686   6.402   6.486   5.699 -0.2586 -0.3610 -0.7150
  114CHL1   C2514687   6.533   6.547   5.523 -0.3136  0.1816  0.5262
  114CHL1   H2514688   6.454   6.611   5.478  1.8689  2.6810 -0.0270
  114CHL1   C2614689   6.671   6.618   5.509 -0.3393  0.2689  0.3228
  114CHL1  H26A14690   6.670   6.723   5.545  1.0554  0.2268  0.5428
  114CHL1  H26B14691   6.760   6.570   5.554  0.3998  0.3559 -0.9899
  114CHL1  H26C14692   6.698   6.615   5.401  1.7071 -2.7939  0.7988
  114CHL1   C2714693   6.535   6.400   5.475 -0.5320 -0.4439  0.0483
  114CHL1  H27A14694   6.538   6.403   5.364  1.2409 -1.9872  0.0139
  114CHL1  H27B14695   6.619   6.342   5.518  0.6321  1.1780  0.0609
  114CHL1  H27C14696   6.441   6.351   5.509  0.7962 -1.3802  2.5998
  115CHL1    C314697   3.330   7.434   6.550 -0.2066 -0.0930  0.3711
  115CHL1    H314698   3.227   7.476   6.559 -0.1562  0.1945 -0.3745
  115CHL1    O314699   3.349   7.339   6.655  0.1562 -0.1925  0.6467
  115CHL1   H3'14700   3.259   7.308   6.667 -0.3120 -0.0478 -1.9460
  115CHL1    C414701   3.328   7.349   6.419 -0.3081 -0.4613  0.2719
  115CHL1   H4A14702   3.429   7.305   6.409 -0.4867 -0.8294  0.0589
  115CHL1   H4B14703   3.249   7.271   6.427  1.4322 -2.2419  1.0222
  115CHL1    C514704   3.321   7.432   6.295  0.6944 -0.0234 -0.2760
  115CHL1    C614705   3.225   7.411   6.207  0.1321  0.5859  0.1200
  115CHL1    H614706   3.152   7.330   6.223  1.1614 -0.3755  0.0094
  115CHL1    C714707   3.205   7.497   6.085 -0.8315  0.1685 -0.0356
  115CHL1   H7A14708   3.173   7.427   6.005  0.8021 -0.1288 -0.4634
  115CHL1   H7B14709   3.116   7.558   6.114  0.6127  1.0499  2.9321
  115CHL1    C814710   3.324   7.584   6.051 -0.3210 -0.0659 -0.2987
  115CHL1    H814711   3.402   7.516   6.008  0.7102 -0.2591  1.7675
  115CHL1   C1414712   3.278   7.687   5.948 -0.5455 -0.0619 -0.0262
  115CHL1   H1414713   3.201   7.748   6.000  2.7906  3.2481  1.5005
  115CHL1   C1514714   3.217   7.631   5.817 -0.3736 -0.9705 -0.0596
  115CHL1  H15A14715   3.267   7.536   5.788  1.6698  0.1790 -0.5038
  115CHL1  H15B14716   3.109   7.605   5.825 -0.0141 -2.4378  0.4158
  115CHL1   C1614717   3.240   7.743   5.710 -0.0839 -0.3324 -0.2549
  115CHL1  H16A14718   3.321   7.720   5.639 -0.6618  1.1946 -1.4798
  115CHL1  H16B14719   3.143   7.765   5.659 -0.6239  1.3167  1.3580
  115CHL1   C1714720   3.303   7.867   5.786 -0.6650  0.0548  0.4399
  115CHL1   H1714721   3.216   7.913   5.837 -1.0427  0.5479 -0.6203
  115CHL1   C1314722   3.383   7.796   5.904 -0.2849  0.6234  0.2085
  115CHL1   C1814723   3.508   7.726   5.836  0.0114  0.2794 -1.0667
  115CHL1  H18A14724   3.474   7.650   5.762  1.4492  1.0107 -2.5667
  115CHL1  H18B14725   3.577   7.794   5.782  2.8810 -1.1772  0.5199
  115CHL1  H18C14726   3.564   7.670   5.915 -0.7645 -2.7709 -2.5061
  115CHL1   C1214727   3.427   7.868   6.035 -0.1067 -0.1383  0.3942
  115CHL1  H12A14728   3.505   7.946   6.040  1.5706 -1.8123  4.0670
  115CHL1  H12B14729   3.337   7.926   6.065  1.6906  2.8491  0.3593
  115CHL1   C1114730   3.475   7.768   6.148 -0.5742 -0.0082 -0.0609
  115CHL1  H11A14731   3.566   7.721   6.106 -0.7142  0.8866 -1.4192
  115CHL1  H11B14732   3.511   7.819   6.239  2.3018  0.7111 -1.4920
  115CHL1    C914733   3.378   7.654   6.180 -0.4520 -0.1747  0.4031
  115CHL1    H914734   3.294   7.705   6.231 -0.4472 -1.0453  1.3208
  115CHL1   C1014735   3.429   7.546   6.281  0.2824 -0.1210 -0.4715
  115CHL1   C1914736   3.573   7.491   6.231 -0.3718  0.4665 -0.6367
  115CHL1  H19A14737   3.652   7.568   6.246  0.5454 -0.6721  0.5670
  115CHL1  H19B14738   3.605   7.400   6.284  0.7696 -0.3678 -2.6553
  115CHL1  H19C14739   3.577   7.463   6.124 -1.1203 -1.0167 -0.3063
  115CHL1    C114740   3.448   7.609   6.421  0.0412  0.5036  0.3187
  115CHL1   H1A14741   3.545   7.662   6.421 -0.6723  1.8659  0.8944
  115CHL1   H1B14742   3.362   7.680   6.426 -1.9275 -1.7010 -0.3353
  115CHL1    C214743   3.441   7.536   6.551  0.1470 -1.7160  0.1661
  115CHL1   H2A14744   3.427   7.606   6.636 -0.6750 -1.8733  0.1746
  115CHL1   H2B14745   3.541   7.491   6.567  1.4296  0.5194 -0.9994
  115CHL1   C2014746   3.389   7.964   5.698 -0.2779  0.2363  0.3997
  115CHL1   H2014747   3.476   7.904   5.665 -0.5104 -0.9319  1.8040
  115CHL1   C2114748   3.424   8.084   5.782 -0.2973  0.1605 -0.5600
  115CHL1  H21A14749   3.470   8.165   5.722 -2.6149  2.4842  0.5742
  115CHL1  H21B14750   3.501   8.064   5.859 -0.9383  1.8377  0.5551
  115CHL1  H21C14751   3.339   8.130   5.837  1.8012  0.5959  2.5949
  115CHL1   C2214752   3.314   7.999   5.567 -0.1606  0.5093 -0.2705
  115CHL1  H22A14753   3.265   7.907   5.529 -0.2548  0.1502  0.6845
  115CHL1  H22B14754   3.231   8.063   5.605 -1.2583 -2.8904  3.8197
  115CHL1   C2314755   3.400   8.048   5.454  0.4907  0.3533 -0.0398
  115CHL1  H23A14756   3.453   8.144   5.473  1.6748  0.0687 -1.7184
  115CHL1  H23B14757   3.480   7.973   5.434  0.2601 -0.4209  1.7728
  115CHL1   C2414758   3.330   8.075   5.320 -0.7800 -0.7778 -0.0842
  115CHL1  H24A14759   3.290   7.978   5.282 -0.3294 -0.3238 -1.8144
  115CHL1  H24B14760   3.249   8.148   5.340  0.6614  0.3258  2.2667
  115CHL1   C2514761   3.412   8.122   5.192  0.2873  0.6361  0.3683
  115CHL1   H2514762   3.474   8.031   5.177 -1.4473 -0.8095  1.5311
  115CHL1   C2614763   3.322   8.133   5.068 -1.4487 -0.1841 -0.7190
  115CHL1  H26A14764   3.252   8.217   5.085  0.8751  1.7000  0.0979
  115CHL1  H26B14765   3.387   8.148   4.979  3.2826 -0.9172  2.2610
  115CHL1  H26C14766   3.265   8.038   5.074 -0.8114 -0.5060  0.6791
  115CHL1   C2714767   3.492   8.246   5.197 -0.4537 -0.4305  0.6523
  115CHL1  H27A14768   3.553   8.248   5.104 -0.5325 -3.4302  0.4456
  115CHL1  H27B14769   3.431   8.337   5.215  0.4139 -0.0862  2.0167
  115CHL1  H27C14770   3.558   8.234   5.286  1.7188  0.2294 -0.8000
  116CHL1    C314771   3.973   6.948   6.553  0.4637 -1.0337  0.2635
  116CHL1    H314772   4.055   6.893   6.502 -0.1447 -0.3218 -1.5662
  116CHL1    O314773   3.934   6.899   6.673 -0.3744  0.1927 -0.1819
  116CHL1   H3'14774   3.862   6.958   6.696  0.2269  1.0763 -0.5377
  116CHL1    C414775   4.014   7.094   6.570 -1.0616 -0.2269 -0.3157
  116CHL1   H4A14776   3.940   7.156   6.625 -0.4214  1.5592 -1.3760
  116CHL1   H4B14777   4.101   7.104   6.637 -1.5379 -0.1665  0.3011
  116CHL1    C514778   4.041   7.168   6.440  0.0716 -0.2886 -0.1844
  116CHL1    C614779   4.155   7.223   6.403 -0.0320  0.1439 -0.3388
  116CHL1    H614780   4.233   7.205   6.478 -1.1106 -1.9851  0.3515
  116CHL1    C714781   4.180   7.302   6.276  0.7873  0.0925 -0.4501
  116CHL1   H7A14782   4.237   7.395   6.300 -0.4951  1.0882 -1.1572
  116CHL1   H7B14783   4.246   7.239   6.212 -0.3908 -1.6282 -0.0242
  116CHL1    C814784   4.050   7.335   6.209  0.1341  0.1890 -0.8715
  116CHL1    H814785   4.008   7.426   6.258 -0.4263  0.4723 -1.8521
  116CHL1   C1414786   4.070   7.381   6.065  0.3756  0.0766 -0.1892
  116CHL1   H1414787   4.117   7.295   6.014  0.3779 -0.0917  0.0926
  116CHL1   C1514788   4.170   7.497   6.049  0.5857  0.8152  0.6894
  116CHL1  H15A14789   4.151   7.569   6.132 -0.6504  0.8189  0.4252
  116CHL1  H15B14790   4.274   7.459   6.043 -0.4598 -2.2757  0.1819
  116CHL1   C1614791   4.129   7.554   5.909 -0.5005  0.1494 -0.5954
  116CHL1  H16A14792   4.114   7.662   5.930  2.8797  1.2690 -3.0359
  116CHL1  H16B14793   4.216   7.531   5.844 -0.2943 -0.8804  0.0234
  116CHL1   C1714794   4.004   7.479   5.868 -0.1562  0.0700  0.1173
  116CHL1   H1714795   4.033   7.387   5.812  1.0140 -0.8775  2.1470
  116CHL1   C1314796   3.940   7.421   5.992 -0.5293  0.6997  0.2686
  116CHL1   C1814797   3.868   7.535   6.062 -0.0236 -0.2959  0.1494
  116CHL1  H18A14798   3.925   7.631   6.067 -0.1370 -0.2814  1.6762
  116CHL1  H18B14799   3.777   7.555   6.003 -0.1732 -0.6311  0.2671
  116CHL1  H18C14800   3.836   7.514   6.167  1.4598  0.2372  0.7463
  116CHL1   C1214801   3.861   7.292   5.970 -0.2650 -0.1070  0.2386
  116CHL1  H12A14802   3.772   7.299   5.905  0.2423 -1.2397 -0.6072
  116CHL1  H12B14803   3.922   7.220   5.910  0.4131  1.1975 -0.7035
  116CHL1   C1114804   3.827   7.233   6.103  0.5408 -0.6823  0.2456
  116CHL1  H11A14805   3.750   7.300   6.146 -0.3290 -0.2318 -1.8512
  116CHL1  H11B14806   3.776   7.134   6.101  0.5708 -0.7063  0.6923
  116CHL1    C914807   3.949   7.216   6.204 -0.5348 -0.9866 -0.7746
  116CHL1    H914808   4.012   7.140   6.154  0.3177  0.3110 -1.7292
  116CHL1   C1014809   3.917   7.167   6.345  0.2323  0.5000  0.3146
  116CHL1   C1914810   3.811   7.262   6.406  0.1534 -0.0561  0.1999
  116CHL1  H19A14811   3.722   7.259   6.340  0.8164  0.6440 -0.7449
  116CHL1  H19B14812   3.780   7.224   6.506  0.4790 -1.3573 -0.1735
  116CHL1  H19C14813   3.836   7.370   6.412 -0.1352 -0.0022  0.4788
  116CHL1    C114814   3.869   7.022   6.330 -0.2249 -0.9256  0.0952
  116CHL1   H1A14815   3.769   7.017   6.282 -0.3196 -3.3854  0.3955
  116CHL1   H1B14816   3.938   6.961   6.267  2.7454  1.4630  0.8520
  116CHL1    C214817   3.844   6.946   6.464 -0.6408 -0.1410  0.7306
  116CHL1   H2A14818   3.818   6.840   6.443 -1.0833  0.0414  0.3340
  116CHL1   H2B14819   3.757   6.996   6.511 -1.8206 -0.7823 -0.6764
  116CHL1   C2014820   3.925   7.562   5.766 -1.2538  0.0404  0.5552
  116CHL1   H2014821   3.894   7.659   5.812 -0.5962 -0.2264  1.5841
  116CHL1   C2114822   3.789   7.493   5.729  0.0933 -0.3174  0.1756
  116CHL1  H21A14823   3.804   7.385   5.707  1.5692 -0.4881  1.7876
  116CHL1  H21B14824   3.747   7.539   5.637 -1.3846 -1.9919 -0.0584
  116CHL1  H21C14825   3.717   7.498   5.814 -0.4430  0.4183 -0.3026
  116CHL1   C2214826   4.004   7.584   5.639  0.0224 -0.1914 -0.2007
  116CHL1  H22A14827   3.945   7.648   5.570 -1.0297  0.5453  1.3149
  116CHL1  H22B14828   4.090   7.645   5.673  2.1603 -2.5125 -1.1107
  116CHL1   C2314829   4.056   7.461   5.569  0.2660  0.6970  0.9900
  116CHL1  H23A14830   4.126   7.410   5.638 -0.0048  0.3503  1.0094
  116CHL1  H23B14831   3.971   7.393   5.552 -0.9649  2.2618  0.6194
  116CHL1   C2414832   4.137   7.502   5.436 -0.1497 -0.1360 -0.4041
  116CHL1  H24A14833   4.200   7.418   5.399  1.5355  0.4014  1.0664
  116CHL1  H24B14834   4.059   7.526   5.360  0.9691  3.4127 -0.6390
  116CHL1   C2514835   4.234   7.624   5.443  0.2203  0.2021 -0.4119
  116CHL1   H2514836   4.169   7.702   5.486  1.3675  2.7751 -3.0058
  116CHL1   C2614837   4.357   7.606   5.537 -0.7127 -0.1628 -0.1234
  116CHL1  H26A14838   4.424   7.530   5.491  1.0392  1.6270 -0.6557
  116CHL1  H26B14839   4.413   7.701   5.546 -0.1071 -0.5441  0.2493
  116CHL1  H26C14840   4.325   7.582   5.641  0.0638  1.7123  0.6015
  116CHL1   C2714841   4.284   7.672   5.307 -1.2133 -0.5907  0.2304
  116CHL1  H27A14842   4.364   7.603   5.272 -1.0180 -1.1186  1.6813
  116CHL1  H27B14843   4.205   7.664   5.228  0.1840 -0.5338 -1.2307
  116CHL1  H27C14844   4.328   7.773   5.314 -1.5377 -0.5521  2.2824
  117CHL1    C314845   7.235   7.546   6.530 -0.7735 -0.0568 -0.2042
  117CHL1    H314846   7.317   7.618   6.508 -1.2710  0.8960  0.9849
  117CHL1    O314847   7.253   7.495   6.658 -0.0904  0.0258 -0.2844
  117CHL1   H3'14848   7.172   7.446   6.675 -0.1985  0.0518 -0.7139
  117CHL1    C414849   7.098   7.622   6.509  0.1485 -0.1883  0.5223
  117CHL1   H4A14850   7.020   7.544   6.521  1.1040 -1.2824 -0.1137
  117CHL1   H4B14851   7.103   7.696   6.592 -0.8341 -0.8801  1.2152
  117CHL1    C514852   7.084   7.684   6.369  0.1438  0.2214 -0.2116
  117CHL1    C614853   7.056   7.817   6.354  0.3192 -0.0175  0.1105
  117CHL1    H614854   7.038   7.877   6.444 -0.2632 -0.3051  0.1904
  117CHL1    C714855   7.055   7.883   6.219  1.0324 -0.0937 -0.4384
  117CHL1   H7A14856   6.959   7.939   6.210  0.1174 -1.7567 -1.8555
  117CHL1   H7B14857   7.140   7.952   6.203 -0.7767  2.0236 -1.5171
  117CHL1    C814858   7.044   7.777   6.104 -0.1461  0.6538  0.3688
  117CHL1    H814859   6.942   7.736   6.097  0.2406 -0.9827  2.8959
  117CHL1   C1414860   7.080   7.845   5.970  0.0358  0.4188  0.0608
  117CHL1   H1414861   7.187   7.873   5.973 -0.2174  1.8148 -1.9891
  117CHL1   C1514862   7.003   7.979   5.939 -0.5973  0.2920  0.4283
  117CHL1  H15A14863   6.899   7.971   5.978 -0.9083  0.4001 -0.3625
  117CHL1  H15B14864   7.035   8.070   5.994 -0.9315 -0.4695  1.9508
  117CHL1   C1614865   7.009   7.989   5.784 -0.3673  0.0579 -0.9322
  117CHL1  H16A14866   6.907   8.002   5.741 -1.5607  1.6444  2.0738
  117CHL1  H16B14867   7.069   8.079   5.759  0.1373 -0.1001 -0.3357
  117CHL1   C1714868   7.077   7.854   5.734  0.7086 -0.4240  0.5786
  117CHL1   H1714869   7.185   7.877   5.726  0.6564 -0.4230 -0.2562
  117CHL1   C1314870   7.057   7.755   5.847  0.2370  0.0500  0.0113
  117CHL1   C1814871   6.908   7.713   5.838 -0.0371 -1.0811 -0.3450
  117CHL1  H18A14872   6.885   7.643   5.755 -2.1321 -0.1796 -0.5634
  117CHL1  H18B14873   6.888   7.643   5.922  1.5802  0.3369  1.3219
  117CHL1  H18C14874   6.838   7.799   5.834  1.2006 -0.0705 -1.9272
  117CHL1   C1214875   7.154   7.641   5.857 -0.5042  0.4531  0.1807
  117CHL1  H12A14876   7.129   7.563   5.783  0.7410  0.1869  0.0095
  117CHL1  H12B14877   7.262   7.663   5.841 -0.1276 -0.7415  0.9148
  117CHL1   C1114878   7.149   7.564   5.994  0.7382  0.0448  0.4583
  117CHL1  H11A14879   7.061   7.497   5.997  0.1855  0.6387 -1.2135
  117CHL1  H11B14880   7.239   7.505   6.022  1.6644  0.8916 -0.6515
  117CHL1    C914881   7.142   7.661   6.115 -0.3023 -0.4301 -0.6099
  117CHL1    H914882   7.240   7.713   6.114 -0.9613  1.0086  1.5220
  117CHL1   C1014883   7.113   7.587   6.256  0.0340  0.3082 -0.0954
  117CHL1   C1914884   6.992   7.493   6.248  0.5810  0.6416  0.6023
  117CHL1  H19A14885   6.911   7.556   6.206  0.1509  0.1638  0.7048
  117CHL1  H19B14886   7.006   7.410   6.176 -1.4679  1.1562 -0.4595
  117CHL1  H19C14887   6.960   7.457   6.348  1.5408 -1.9485  0.0470
  117CHL1    C114888   7.242   7.499   6.288  0.2601  0.3884 -0.3275
  117CHL1   H1A14889   7.239   7.421   6.210  0.9753  0.2422 -0.2171
  117CHL1   H1B14890   7.330   7.564   6.268 -1.9685  3.5613 -0.4652
  117CHL1    C214891   7.242   7.436   6.426  0.3311 -0.1901 -0.0309
  117CHL1   H2A14892   7.335   7.375   6.436  1.2188  0.8562 -1.4271
  117CHL1   H2B14893   7.162   7.360   6.437 -0.9508  1.1646  0.2516
  117CHL1   C2014894   7.043   7.811   5.588  0.0612 -0.0739  0.3235
  117CHL1   H2014895   6.939   7.771   5.584 -0.2242  0.7014 -0.3100
  117CHL1   C2114896   7.139   7.704   5.544  0.1487  0.3925 -0.8051
  117CHL1  H21A14897   7.124   7.608   5.597 -0.1719 -0.0969 -1.7539
  117CHL1  H21B14898   7.245   7.733   5.559  0.7448 -1.4522 -1.1429
  117CHL1  H21C14899   7.129   7.682   5.435  1.0971 -0.4155 -0.7387
  117CHL1   C2214900   7.031   7.931   5.488 -0.3555  0.2400  0.1812
  117CHL1  H22A14901   6.967   8.011   5.531 -0.8764 -0.7955  1.4042
  117CHL1  H22B14902   7.132   7.977   5.485 -0.7119  1.0043 -1.0574
  117CHL1   C2314903   6.986   7.899   5.347 -0.1518  0.6294 -0.0429
  117CHL1  H23A14904   7.062   7.827   5.310  0.0591 -0.2912  2.0691
  117CHL1  H23B14905   6.889   7.845   5.342  0.4959 -0.4953 -3.6728
  117CHL1   C2414906   6.984   8.033   5.259 -0.7706 -0.1763 -0.0552
  117CHL1  H24A14907   6.908   8.101   5.302 -0.7624  1.1097 -1.9247
  117CHL1  H24B14908   7.089   8.071   5.259 -0.8233  0.2517 -3.0496
  117CHL1   C2514909   6.929   8.004   5.114 -1.0310 -0.5507 -0.0941
  117CHL1   H2514910   6.832   7.952   5.127 -0.9013 -0.1791  3.3214
  117CHL1   C2614911   6.897   8.132   5.033 -0.2133 -0.8900 -0.1639
  117CHL1  H26A14912   6.844   8.122   4.936 -1.8125  3.5386  0.0451
  117CHL1  H26B14913   6.842   8.195   5.106 -1.6769 -2.6695  0.3622
  117CHL1  H26C14914   6.989   8.186   5.003 -0.9202 -0.4478 -1.6380
  117CHL1   C2714915   7.035   7.920   5.032 -0.0670  0.0383  0.0460
  117CHL1  H27A14916   7.127   7.979   5.013  1.2739 -1.3305  1.8866
  117CHL1  H27B14917   7.065   7.831   5.092  1.0642  0.4849  0.1686
  117CHL1  H27C14918   6.988   7.890   4.936  1.7573  1.2156 -1.2785
  118CHL1    C314919   0.499   1.247   6.595  0.1016  0.3569 -0.0299
  118CHL1    H314920   0.535   1.353   6.595  1.4365  0.0020 -2.7918
  118CHL1    O314921   0.456   1.199   6.720 -0.2121  0.2849 -0.4138
  118CHL1   H3'14922   0.446   1.104   6.711  1.3174  0.0720 -0.0658
  118CHL1    C414923   0.387   1.230   6.494  0.1431 -0.5619  0.6181
  118CHL1   H4A14924   0.328   1.136   6.503 -0.7570  0.0995  2.0478
  118CHL1   H4B14925   0.308   1.305   6.516  0.2874  0.6725 -2.5395
  118CHL1    C514926   0.415   1.250   6.351 -0.7218 -0.2708  0.5773
  118CHL1    C614927   0.349   1.340   6.271  0.5310 -0.1744  0.3370
  118CHL1    H614928   0.263   1.398   6.307 -0.4269 -0.6491 -1.1247
  118CHL1    C714929   0.365   1.341   6.123  0.3317 -0.4913 -0.9973
  118CHL1   H7A14930   0.272   1.344   6.062 -0.3264  0.4380  0.0171
  118CHL1   H7B14931   0.411   1.436   6.086 -2.6113  1.7907  0.6815
  118CHL1    C814932   0.455   1.233   6.062 -0.9084  0.5165 -0.2273
  118CHL1    H814933   0.395   1.141   6.046 -1.1819  0.7966 -0.8429
  118CHL1   C1414934   0.519   1.278   5.927  0.2099  0.3869  0.2667
  118CHL1   H1414935   0.578   1.370   5.948  1.8861 -0.3442 -1.0375
  118CHL1   C1514936   0.421   1.327   5.818 -0.0595  0.1611  0.0885
  118CHL1  H15A14937   0.329   1.265   5.812 -0.3679  0.6618 -0.3711
  118CHL1  H15B14938   0.380   1.426   5.846  0.5751  0.7089 -0.8479
  118CHL1   C1614939   0.504   1.327   5.694  0.0879  0.3985  0.2852
  118CHL1  H16A14940   0.434   1.283   5.620 -1.7442 -0.2399  2.2967
  118CHL1  H16B14941   0.529   1.431   5.664 -0.1054  0.5263  0.5569
  118CHL1   C1714942   0.638   1.247   5.733  0.0211 -0.2793 -0.5253
  118CHL1   H1714943   0.706   1.333   5.754 -1.5523  0.7246  0.6698
  118CHL1   C1314944   0.616   1.178   5.864  1.1666  0.3729  0.3273
  118CHL1   C1814945   0.545   1.037   5.830  0.0973 -0.1657  0.5947
  118CHL1  H18A14946   0.616   0.965   5.786  0.6783 -0.3436  1.7843
  118CHL1  H18B14947   0.500   1.000   5.924 -1.7946  2.2226  0.7338
  118CHL1  H18C14948   0.458   1.060   5.765  0.6561 -2.8712 -1.2618
  118CHL1   C1214949   0.733   1.151   5.952 -0.2450 -0.8148 -0.7350
  118CHL1  H12A14950   0.789   1.068   5.904 -0.1141 -1.0790 -0.1274
  118CHL1  H12B14951   0.796   1.242   5.955  0.7324 -1.4476 -1.6498
  118CHL1   C1114952   0.693   1.122   6.095 -0.4573 -0.9677  0.5416
  118CHL1  H11A14953   0.659   1.016   6.093 -0.6543 -0.9794  2.2729
  118CHL1  H11B14954   0.789   1.124   6.151  0.1152  0.2464 -0.4530
  118CHL1    C914955   0.576   1.209   6.158 -0.0498 -0.0469  0.6117
  118CHL1    H914956   0.619   1.311   6.166  0.4490 -0.3513  2.1279
  118CHL1   C1014957   0.536   1.170   6.298  0.2740 -0.0976  0.2146
  118CHL1   C1914958   0.490   1.022   6.304 -0.2522 -0.7166 -0.7770
  118CHL1  H19A14959   0.413   0.999   6.228  0.9737  1.1373 -2.6854
  118CHL1  H19B14960   0.578   0.960   6.277 -0.5995 -1.0626 -1.1167
  118CHL1  H19C14961   0.455   0.987   6.404 -0.3893  1.3399 -0.0433
  118CHL1    C114962   0.648   1.191   6.400  0.4436  0.2656  0.3575
  118CHL1   H1A14963   0.740   1.134   6.378  1.2312  1.2482  1.0330
  118CHL1   H1B14964   0.664   1.298   6.372  0.2314 -0.1756 -1.6028
  118CHL1    C214965   0.619   1.163   6.549  0.4898  0.1155 -0.1907
  118CHL1   H2A14966   0.710   1.199   6.603  0.9118 -0.9514 -0.1749
  118CHL1   H2B14967   0.592   1.056   6.559 -6.0260  1.3499 -0.3960
  118CHL1   C2014968   0.698   1.164   5.620  0.0630 -0.2552  0.3012
  118CHL1   H2014969   0.740   1.071   5.663 -0.3733 -0.1970  0.8673
  118CHL1   C2114970   0.823   1.243   5.562  0.0713 -0.1712 -0.2810
  118CHL1  H21A14971   0.888   1.192   5.487  0.4493 -1.5285  0.9380
  118CHL1  H21B14972   0.891   1.267   5.647 -0.6733  2.1991 -0.2688
  118CHL1  H21C14973   0.793   1.345   5.530 -0.1027 -0.4291 -0.9465
  118CHL1   C2214974   0.603   1.114   5.513  0.3522  0.5536 -0.1603
  118CHL1  H22A14975   0.516   1.082   5.575  1.1100  0.4263  0.8609
  118CHL1  H22B14976   0.586   1.193   5.438  0.1296  0.5635 -0.1003
  118CHL1   C2314977   0.666   0.998   5.434  0.1876  0.3179  0.2254
  118CHL1  H23A14978   0.726   1.041   5.352 -0.0912  1.5031  0.6302
  118CHL1  H23B14979   0.731   0.946   5.508  1.0741  1.1738  0.0622
  118CHL1   C2414980   0.557   0.910   5.378  0.0721 -0.3491 -0.3617
  118CHL1  H24A14981   0.614   0.825   5.333  0.8475  0.3246 -0.6719
  118CHL1  H24B14982   0.484   0.878   5.456 -2.2825  0.5853 -2.0602
  118CHL1   C2514983   0.477   0.970   5.265  0.8380 -0.2032  0.2668
  118CHL1   H2514984   0.427   1.063   5.300 -0.2262 -0.3287 -0.8467
  118CHL1   C2614985   0.556   1.019   5.146 -0.8499  0.0567 -0.1755
  118CHL1  H26A14986   0.611   1.113   5.166 -0.2312 -0.2244 -0.4896
  118CHL1  H26B14987   0.636   0.947   5.116 -1.9911 -0.1210 -3.2187
  118CHL1  H26C14988   0.507   1.035   5.047 -0.1593  0.0215 -0.5291
  118CHL1   C2714989   0.361   0.881   5.220 -0.2592  0.2846 -0.7303
  118CHL1  H27A14990   0.283   0.868   5.298 -0.3901  1.0127 -0.7342
  118CHL1  H27B14991   0.316   0.912   5.123 -1.1415 -1.6413 -1.0037
  118CHL1  H27C14992   0.408   0.782   5.200  0.5848  0.7079 -0.8550
  119CHL1    C314993   1.997   0.204   6.984  0.2621  0.5026  0.1163
  119CHL1    H314994   1.953   0.103   6.970  2.9712 -0.7671  0.0447
  119CHL1    O314995   1.948   0.258   7.111 -0.5011  0.3207 -0.5656
  119CHL1   H3'14996   1.861   0.224   7.131  0.3723 -1.0921  1.0596
  119CHL1    C414997   2.152   0.214   6.974 -0.4860 -0.0790 -0.3611
  119CHL1   H4A14998   2.182   0.319   6.993  0.7530 -0.7495  1.6381
  119CHL1   H4B14999   2.184   0.137   7.048  0.0407  0.9574  0.5138
  119CHL1    C515000   2.191   0.167   6.834  0.2513 -0.5266  0.1126
  119CHL1    C615001   2.288   0.074   6.821  0.2902  0.2727 -0.9821
  119CHL1    H615002   2.337   0.031   6.910  0.1063 -1.5059 -1.6916
  119CHL1    C715003   2.345   0.028   6.692 -0.1489 -0.0597 -0.2136
  119CHL1   H7A15004   2.456   0.034   6.685  0.0137 -1.4899  0.7800
  119CHL1   H7B15005   2.319  -0.079   6.681 -2.2622  0.5493 -1.7750
  119CHL1    C815006   2.298   0.113   6.570 -0.4192  0.0381 -0.9344
  119CHL1    H815007   2.368   0.199   6.568 -0.1967 -0.0727  0.8271
  119CHL1   C1415008   2.320   0.032   6.441 -0.3443 -0.0756 -0.0263
  119CHL1   H1415009   2.253  -0.055   6.460 -0.4879  0.2859  1.1643
  119CHL1   C1515010   2.452  -0.026   6.411 -0.1588 -0.4540 -0.3755
  119CHL1  H15A15011   2.523   0.058   6.429 -0.2278 -0.4090 -0.3089
  119CHL1  H15B15012   2.487  -0.112   6.473  0.5042  0.8857  1.2152
  119CHL1   C1615013   2.438  -0.058   6.260 -0.1283  0.8935  1.2280
  119CHL1  H16A15014   2.519  -0.012   6.200 -1.1834 -0.3428 -1.2579
  119CHL1  H16B15015   2.429  -0.169   6.257 -0.7455  0.9418  1.2475
  119CHL1   C1715016   2.301   0.001   6.214  0.6553  0.1032 -0.0576
  119CHL1   H1715017   2.229  -0.083   6.226  0.2967  0.5261  0.7445
  119CHL1   C1315018   2.258   0.100   6.314 -0.5821 -0.0021  0.4266
  119CHL1   C1815019   2.324   0.231   6.288 -0.0065 -0.5215 -0.3426
  119CHL1  H18A15020   2.269   0.282   6.206  0.4295  1.1639  0.3700
  119CHL1  H18B15021   2.293   0.300   6.369 -0.7274 -2.5005  1.1510
  119CHL1  H18C15022   2.434   0.234   6.274 -0.2212  1.0325 -2.0913
  119CHL1   C1215023   2.104   0.114   6.334 -0.2400 -0.4030 -0.3704
  119CHL1  H12A15024   2.046   0.163   6.253 -0.1857 -1.0276 -0.7932
  119CHL1  H12B15025   2.057   0.013   6.340 -0.1115 -0.4851 -0.7257
  119CHL1   C1115026   2.078   0.196   6.460 -0.1584  0.2636  0.3067
  119CHL1  H11A15027   2.095   0.304   6.436  1.4866  0.1972  1.0299
  119CHL1  H11B15028   1.968   0.187   6.474 -0.1078  1.3875  1.6898
  119CHL1    C915029   2.151   0.148   6.586  0.2477 -0.4964  0.2853
  119CHL1    H915030   2.099   0.051   6.599 -0.3391 -0.1264  0.7842
  119CHL1   C1015031   2.122   0.233   6.709  0.2745 -0.5425  0.0402
  119CHL1   C1915032   2.176   0.372   6.693  0.3423  0.5139 -0.4062
  119CHL1  H19A15033   2.160   0.422   6.595  1.1989 -1.1087 -1.4267
  119CHL1  H19B15034   2.143   0.445   6.770  1.3340  1.6006 -0.9764
  119CHL1  H19C15035   2.287   0.372   6.704  0.4865  0.6017 -1.6963
  119CHL1    C115036   1.963   0.235   6.738  0.1453 -0.2817  0.2991
  119CHL1   H1A15037   1.905   0.301   6.670 -1.4722 -1.3171  0.6324
  119CHL1   H1B15038   1.921   0.134   6.716 -0.5051 -0.3228  1.6491
  119CHL1    C215039   1.922   0.288   6.876 -0.2312  0.4893  0.2349
  119CHL1   H2A15040   1.812   0.280   6.885 -0.2201 -1.6880 -0.8507
  119CHL1   H2B15041   1.964   0.389   6.897  1.7205 -0.5243  1.5659
  119CHL1   C2015042   2.304   0.034   6.063 -0.7665  0.3076  0.1376
  119CHL1   H2015043   2.373   0.120   6.052 -1.3521  0.7095 -0.5052
  119CHL1   C2115044   2.166   0.073   6.027 -0.3622  0.3008 -0.5319
  119CHL1  H21A15045   2.089  -0.004   6.050  0.1036  0.1817  0.7061
  119CHL1  H21B15046   2.155   0.079   5.917  0.3963 -0.1206 -0.6376
  119CHL1  H21C15047   2.132   0.172   6.066 -4.7074 -1.6475  1.2873
  119CHL1   C2215048   2.339  -0.086   5.965  0.0935 -0.3543  0.4166
  119CHL1  H22A15049   2.424  -0.143   6.008  2.2354  1.0738 -1.6789
  119CHL1  H22B15050   2.251  -0.153   5.966 -0.9836  0.9570 -1.0773
  119CHL1   C2315051   2.382  -0.039   5.828 -0.0172  0.1118 -0.0978
  119CHL1  H23A15052   2.303   0.027   5.788  0.0618 -2.0100 -4.3752
  119CHL1  H23B15053   2.476   0.016   5.850  0.5496 -1.1352  0.7390
  119CHL1   C2415054   2.415  -0.151   5.724  0.0793  0.3006 -0.7134
  119CHL1  H24A15055   2.504  -0.207   5.758  1.8239  2.8612 -0.8278
  119CHL1  H24B15056   2.328  -0.220   5.722 -0.8530  1.1876  2.7986
  119CHL1   C2515057   2.443  -0.099   5.583 -0.6464 -0.2394 -1.1018
  119CHL1   H2515058   2.348  -0.046   5.558 -0.8692  0.5748  1.2867
  119CHL1   C2615059   2.550   0.016   5.581 -0.2714  0.3267  0.2006
  119CHL1  H26A15060   2.649  -0.036   5.587 -1.1586 -1.6645 -1.3154
  119CHL1  H26B15061   2.545   0.059   5.479  0.4554  0.2653  0.1297
  119CHL1  H26C15062   2.539   0.087   5.666 -0.7968 -2.4314  2.6189
  119CHL1   C2715063   2.471  -0.213   5.477 -0.2976  0.0618 -0.1572
  119CHL1  H27A15064   2.567  -0.267   5.497  0.6106  0.4195 -3.0096
  119CHL1  H27B15065   2.383  -0.278   5.460 -1.2913  1.4009 -0.2388
  119CHL1  H27C15066   2.497  -0.164   5.380  1.8534 -0.4931  0.0715
  120CHL1    C315067   1.575   6.573   6.782  0.1127 -0.2871  0.8402
  120CHL1    H315068   1.496   6.615   6.847  1.7338  1.3199  1.8560
  120CHL1    O315069   1.673   6.509   6.860  0.2157 -0.4185 -0.1644
  120CHL1   H3'15070   1.656   6.415   6.846 -0.0790 -0.4576  0.4067
  120CHL1    C415071   1.516   6.466   6.688 -0.5022  0.6755 -0.3032
  120CHL1   H4A15072   1.605   6.407   6.655  0.4486  0.4934  2.3006
  120CHL1   H4B15073   1.459   6.395   6.751  2.8049 -2.9140 -0.9427
  120CHL1    C515074   1.433   6.504   6.569 -0.7347  0.3300 -0.5142
  120CHL1    C615075   1.312   6.448   6.558 -0.2433 -0.5753  0.3277
  120CHL1    H615076   1.275   6.367   6.624  0.8250 -1.8340 -0.5578
  120CHL1    C715077   1.221   6.490   6.445  0.0038  0.5389  0.0794
  120CHL1   H7A15078   1.159   6.411   6.397  1.3924 -0.4706 -0.1178
  120CHL1   H7B15079   1.152   6.559   6.497 -0.0759  0.2963  0.2983
  120CHL1    C815080   1.300   6.567   6.334  0.6339 -0.7122  1.1942
  120CHL1    H815081   1.367   6.500   6.275 -0.3921  0.4459 -1.4404
  120CHL1   C1415082   1.201   6.634   6.236 -0.8118 -0.1046  0.0363
  120CHL1   H1415083   1.151   6.717   6.291 -1.0113  0.0004 -0.2946
  120CHL1   C1515084   1.083   6.551   6.191 -0.8344  0.1618  0.4892
  120CHL1  H15A15085   1.100   6.442   6.181 -0.3179  0.3250 -0.5734
  120CHL1  H15B15086   1.007   6.566   6.271 -0.2662  1.9832  0.7316
  120CHL1   C1615087   1.034   6.619   6.062 -0.0627 -0.5589  0.3484
  120CHL1  H16A15088   1.028   6.539   5.986  1.0843 -0.4592  0.1382
  120CHL1  H16B15089   0.936   6.671   6.072 -0.3262 -0.8216 -0.7591
  120CHL1   C1715090   1.141   6.724   6.026 -0.0125 -0.4095  0.5151
  120CHL1   H1715091   1.092   6.812   6.074 -1.5562 -1.9902  1.9926
  120CHL1   C1315092   1.269   6.696   6.110  0.0168 -0.0825  0.6279
  120CHL1   C1815093   1.350   6.589   6.032  0.2203 -0.1271  0.1283
  120CHL1  H18A15094   1.402   6.626   5.941 -0.4208 -1.9082 -1.0006
  120CHL1  H18B15095   1.431   6.545   6.094 -0.2312 -2.8221 -1.0510
  120CHL1  H18C15096   1.281   6.515   5.986 -2.5979  2.0847  0.4505
  120CHL1   C1215097   1.348   6.808   6.168  0.0565 -0.4434  0.1812
  120CHL1  H12A15098   1.404   6.850   6.081  0.0496 -1.3452 -0.2739
  120CHL1  H12B15099   1.286   6.891   6.207 -0.2969  0.1216 -1.4858
  120CHL1   C1115100   1.449   6.760   6.267  0.1628 -0.1546  0.4740
  120CHL1  H11A15101   1.521   6.702   6.207 -2.9819 -2.7363 -1.0929
  120CHL1  H11B15102   1.500   6.848   6.313  0.0632 -0.3414  0.9504
  120CHL1    C915103   1.389   6.675   6.387  0.0116  0.8834 -0.1404
  120CHL1    H915104   1.326   6.748   6.442  0.4998  1.1101  0.1272
  120CHL1   C1015105   1.493   6.613   6.486 -0.1844 -0.0048 -0.0916
  120CHL1   C1915106   1.610   6.553   6.403 -0.7014  0.6548 -0.1365
  120CHL1  H19A15107   1.580   6.480   6.325 -0.0940  0.1259  0.1158
  120CHL1  H19B15108   1.659   6.633   6.343  3.5939 -0.5314  1.3869
  120CHL1  H19C15109   1.693   6.526   6.472 -0.8149 -0.9074 -0.5779
  120CHL1    C115110   1.547   6.727   6.579  0.0965 -0.0195 -0.0599
  120CHL1   H1A15111   1.599   6.809   6.524 -1.1420  2.2491  1.9296
  120CHL1   H1B15112   1.452   6.777   6.610  0.7001  2.1030 -1.4084
  120CHL1    C215113   1.636   6.673   6.690  0.1398 -0.2765 -0.5676
  120CHL1   H2A15114   1.678   6.754   6.753  0.4853 -1.4410  0.7723
  120CHL1   H2B15115   1.726   6.626   6.646  0.0765  0.1569 -1.1641
  120CHL1   C2015116   1.161   6.748   5.877 -0.1538  0.0022 -0.0327
  120CHL1   H2015117   1.214   6.669   5.818 -0.3450  1.7727 -2.7571
  120CHL1   C2115118   1.257   6.874   5.864  0.3990  0.2968  0.0011
  120CHL1  H21A15119   1.242   6.958   5.934  0.7635 -0.3708  0.9044
  120CHL1  H21B15120   1.267   6.907   5.759  1.5677 -0.8042 -0.2673
  120CHL1  H21C15121   1.366   6.856   5.883  0.6138 -0.1131 -1.5129
  120CHL1   C2215122   1.032   6.771   5.801 -0.5199 -0.1108 -0.7024
  120CHL1  H22A15123   0.965   6.683   5.807 -0.1787 -0.3484 -0.3859
  120CHL1  H22B15124   0.978   6.853   5.852  0.4708 -0.4288  0.9385
  120CHL1   C2315125   1.052   6.805   5.652  0.1600 -0.1875 -0.2082
  120CHL1  H23A15126   0.968   6.856   5.600  0.8796  1.4928  0.2369
  120CHL1  H23B15127   1.120   6.892   5.644 -1.1734  0.7833 -1.7364
  120CHL1   C2415128   1.093   6.684   5.565 -0.1567 -0.2048 -0.2134
  120CHL1  H24A15129   1.119   6.721   5.463  1.0802  0.7556  0.4171
  120CHL1  H24B15130   1.184   6.637   5.608 -0.8057 -1.5060 -0.2214
  120CHL1   C2515131   0.999   6.563   5.543 -0.3304 -0.1767 -0.0884
  120CHL1   H2515132   1.002   6.506   5.639  1.4701  1.0609  0.6443
  120CHL1   C2615133   0.854   6.605   5.519 -0.5560 -0.1616 -0.8690
  120CHL1  H26A15134   0.845   6.664   5.426 -1.3291 -0.2608 -0.8582
  120CHL1  H26B15135   0.790   6.515   5.507 -0.8684 -0.0915  0.1341
  120CHL1  H26C15136   0.814   6.663   5.605  0.6987  1.5433 -1.3725
  120CHL1   C2715137   1.040   6.480   5.426  0.4739 -0.2133  0.0470
  120CHL1  H27A15138   0.975   6.395   5.396 -0.1461  0.1295  0.3940
  120CHL1  H27B15139   1.065   6.537   5.334  1.0875  0.0947  0.3961
  120CHL1  H27C15140   1.133   6.428   5.457 -0.6812 -3.6367 -1.7801
  121CHL1    C315141   5.273   4.382   3.387  0.5037 -0.4330 -0.3602
  121CHL1    H315142   5.319   4.468   3.441 -0.5385 -1.4444  2.2943
  121CHL1    O315143   5.280   4.407   3.248 -0.7676 -0.2134  0.2203
  121CHL1   H3'15144   5.297   4.322   3.206 -0.9831  1.1365 -2.8167
  121CHL1    C415145   5.346   4.250   3.426 -0.2093  1.2344 -0.7872
  121CHL1   H4A15146   5.280   4.175   3.377  1.2477  0.2576 -1.3304
  121CHL1   H4B15147   5.446   4.244   3.378 -1.0679 -1.2857 -2.4954
  121CHL1    C515148   5.351   4.225   3.572 -0.3926 -0.5850  0.4654
  121CHL1    C615149   5.473   4.207   3.633 -0.2934 -0.3088  0.2254
  121CHL1    H615150   5.560   4.211   3.566 -1.9936 -0.1558 -2.0993
  121CHL1    C715151   5.466   4.174   3.779 -0.6646 -0.3569  1.0449
  121CHL1   H7A15152   5.532   4.089   3.806 -0.3994  0.5641  3.4724
  121CHL1   H7B15153   5.509   4.269   3.818  2.4744 -1.4999  0.7017
  121CHL1    C815154   5.336   4.147   3.845  0.5296 -0.0948 -0.9474
  121CHL1    H815155   5.288   4.049   3.825 -2.1096  0.9715 -0.2338
  121CHL1   C1415156   5.352   4.149   3.998  0.5187 -0.3177  0.1681
  121CHL1   H1415157   5.390   4.252   4.020  1.2369  0.0704 -2.5074
  121CHL1   C1515158   5.460   4.057   4.061  0.4950 -0.7140 -0.1723
  121CHL1  H15A15159   5.457   3.953   4.022 -1.6379 -0.8832  0.3321
  121CHL1  H15B15160   5.561   4.102   4.051 -0.1641  0.7378 -0.4795
  121CHL1   C1615161   5.419   4.061   4.211  0.0546 -0.7487 -0.8968
  121CHL1  H16A15162   5.395   3.958   4.244 -1.8993  0.2906  1.2287
  121CHL1  H16B15163   5.505   4.105   4.267 -1.6406  1.9895 -0.2781
  121CHL1   C1715164   5.285   4.144   4.228  0.0700 -0.0363 -0.3135
  121CHL1   H1715165   5.323   4.247   4.244 -0.3905 -0.0704  1.1544
  121CHL1   C1315166   5.224   4.136   4.086 -0.6507 -1.1551 -0.0393
  121CHL1   C1815167   5.160   3.997   4.075 -0.3689 -0.0763  0.5691
  121CHL1  H18A15168   5.234   3.916   4.092 -0.1306  0.0555  0.1826
  121CHL1  H18B15169   5.072   3.990   4.142 -0.6558  0.5164  0.2638
  121CHL1  H18C15170   5.126   3.980   3.971  0.2807  3.4584 -0.3548
  121CHL1   C1215171   5.126   4.250   4.029  0.1920  0.0127  0.0805
  121CHL1  H12A15172   5.024   4.258   4.071  0.9277 -0.3952  2.0230
  121CHL1  H12B15173   5.176   4.347   4.053  0.0918 -0.1988  1.1719
  121CHL1   C1115174   5.104   4.245   3.877 -0.7719  0.0254 -0.5464
  121CHL1  H11A15175   5.057   4.147   3.857 -2.0989  0.5247  0.0070
  121CHL1  H11B15176   5.022   4.316   3.852 -1.0826  0.6601  1.9549
  121CHL1    C915177   5.235   4.250   3.794 -0.6491  0.0309  0.1591
  121CHL1    H915178   5.284   4.348   3.807 -2.2699  1.0349 -0.8139
  121CHL1   C1015179   5.212   4.229   3.642  0.1706  0.2562 -1.1667
  121CHL1   C1915180   5.125   4.098   3.611  0.0626  0.1633 -0.1255
  121CHL1  H19A15181   5.164   4.010   3.666 -1.1714 -0.0191  0.5038
  121CHL1  H19B15182   5.018   4.111   3.640 -0.4161 -1.9209 -0.7431
  121CHL1  H19C15183   5.127   4.072   3.503 -0.8391  0.2726 -0.1772
  121CHL1    C115184   5.135   4.354   3.593 -0.0857  0.0372  0.1986
  121CHL1   H1A15185   5.032   4.340   3.632  0.2922 -0.6294  0.9881
  121CHL1   H1B15186   5.179   4.441   3.645  0.6930 -0.7356  0.8595
  121CHL1    C215187   5.129   4.385   3.435 -0.1766 -0.0854  0.3710
  121CHL1   H2A15188   5.071   4.475   3.405 -0.8917 -0.3128  1.0136
  121CHL1   H2B15189   5.077   4.298   3.389 -0.6662 -0.4937  1.6294
  121CHL1   C2015190   5.206   4.096   4.353  0.6967  0.1778  0.3640
  121CHL1   H2015191   5.192   3.987   4.339  0.5200  0.1265  0.9345
  121CHL1   C2115192   5.073   4.170   4.366 -0.4803  0.5942  0.4265
  121CHL1  H21A15193   5.085   4.275   4.398 -0.8946  1.8226 -3.0886
  121CHL1  H21B15194   5.005   4.120   4.439 -2.1660 -0.0463 -1.4830
  121CHL1  H21C15195   5.020   4.167   4.269  0.8453  0.0377 -0.3071
  121CHL1   C2215196   5.289   4.120   4.479 -0.4263 -0.4591 -0.6563
  121CHL1  H22A15197   5.394   4.083   4.474 -0.2478 -0.2720  0.9538
  121CHL1  H22B15198   5.287   4.230   4.499 -3.3235 -0.6018  0.2137
  121CHL1   C2315199   5.210   4.046   4.594  0.3564  0.4111  0.2242
  121CHL1  H23A15200   5.119   4.103   4.622  0.7581  0.2503  2.0004
  121CHL1  H23B15201   5.186   3.945   4.556  0.2132  0.2440  0.7534
  121CHL1   C2415202   5.296   4.021   4.718  0.0271  0.2375 -0.0494
  121CHL1  H24A15203   5.385   3.956   4.700  0.0866 -0.4994  2.4553
  121CHL1  H24B15204   5.337   4.119   4.751  0.0984  0.2818 -0.2678
  121CHL1   C2515205   5.209   3.957   4.828 -0.2656 -0.5892 -0.4955
  121CHL1   H2515206   5.121   4.021   4.850 -0.0927  0.4247 -2.4828
  121CHL1   C2615207   5.145   3.826   4.792  0.6885  0.5598  0.7581
  121CHL1  H26A15208   5.065   3.798   4.862 -1.2537 -1.8931 -2.1811
  121CHL1  H26B15209   5.087   3.837   4.698 -0.7909 -3.0588  1.0746
  121CHL1  H26C15210   5.218   3.742   4.784  0.9595  0.8668 -0.1481
  121CHL1   C2715211   5.296   3.935   4.949  0.1272 -0.4692 -0.0010
  121CHL1  H27A15212   5.234   3.898   5.034  1.8184 -1.7922  0.7167
  121CHL1  H27B15213   5.368   3.854   4.923  0.4114 -0.1316 -0.2699
  121CHL1  H27C15214   5.358   4.021   4.984  0.6009 -0.8753  0.1730
  122CHL1    C315215   2.860   3.839   3.419  0.0239 -0.1138 -0.1744
  122CHL1    H315216   2.769   3.818   3.480  0.2716  0.2916  0.3448
  122CHL1    O315217   2.814   3.876   3.292  0.0799 -0.0281  0.2712
  122CHL1   H3'15218   2.892   3.904   3.243 -1.3024  2.6075 -0.6435
  122CHL1    C415219   2.944   3.947   3.482 -0.0700 -0.0081 -1.0060
  122CHL1   H4A15220   3.034   3.959   3.417 -0.7904 -0.1469 -2.0412
  122CHL1   H4B15221   2.881   4.038   3.484  1.2957  0.9723  0.1725
  122CHL1    C515222   2.992   3.902   3.618  0.2047  0.5608 -0.6152
  122CHL1    C615223   2.957   3.976   3.732  0.6571  1.2580 -0.1008
  122CHL1    H615224   2.891   4.063   3.716 -1.4170 -0.5261 -1.7771
  122CHL1    C715225   2.979   3.941   3.872 -0.1136  0.3797 -0.7071
  122CHL1   H7A15226   3.023   4.028   3.926  0.2920  0.0240 -0.4604
  122CHL1   H7B15227   2.884   3.911   3.922  1.3926 -0.5872  1.7300
  122CHL1    C815228   3.071   3.818   3.890 -0.2118 -0.2846 -0.2228
  122CHL1    H815229   3.169   3.865   3.867 -1.5292  2.1397 -1.3083
  122CHL1   C1415230   3.065   3.767   4.024  0.6955 -0.5405  0.1301
  122CHL1   H1415231   2.960   3.731   4.031  1.1156 -1.7108  0.6780
  122CHL1   C1515232   3.089   3.865   4.146 -0.5384  0.0987  0.8554
  122CHL1  H15A15233   3.183   3.921   4.131 -0.2707 -0.7293 -0.6918
  122CHL1  H15B15234   2.997   3.926   4.160 -2.0203 -1.6226 -0.7462
  122CHL1   C1615235   3.112   3.776   4.262  0.4939  0.0031 -0.5620
  122CHL1  H16A15236   3.210   3.799   4.308 -0.8494  0.5336  2.2393
  122CHL1  H16B15237   3.026   3.782   4.332 -0.5427  0.0043 -1.7768
  122CHL1   C1715238   3.120   3.626   4.205 -0.2014  0.1477  0.1078
  122CHL1   H1715239   3.019   3.581   4.214 -0.1172 -0.0173  0.2383
  122CHL1   C1315240   3.146   3.643   4.058 -0.4546 -0.6401 -0.6662
  122CHL1   C1815241   3.294   3.681   4.039 -1.3023  0.3027 -0.0444
  122CHL1  H18A15242   3.337   3.762   4.101 -2.0629  0.4651  0.2806
  122CHL1  H18B15243   3.358   3.595   4.068 -1.9807 -0.5316 -0.9738
  122CHL1  H18C15244   3.309   3.697   3.930  1.4757 -2.0368 -0.1227
  122CHL1   C1215245   3.108   3.529   3.968 -0.3416 -0.2677  0.0057
  122CHL1  H12A15246   3.170   3.439   3.986  0.0877 -0.0944 -0.5708
  122CHL1  H12B15247   3.004   3.495   3.988 -0.5478  1.0981  1.4176
  122CHL1   C1115248   3.129   3.579   3.818  0.1550  0.5746  0.6846
  122CHL1  H11A15249   3.238   3.578   3.799  0.1845 -3.1540  0.1205
  122CHL1  H11B15250   3.085   3.496   3.757  1.7352  0.8737 -0.9361
  122CHL1    C915251   3.052   3.710   3.788 -0.0750  0.1003  0.0903
  122CHL1    H915252   2.943   3.690   3.800 -0.7558  2.5813 -1.1325
  122CHL1   C1015253   3.057   3.755   3.644  0.1693 -0.4402  0.7173
  122CHL1   C1915254   3.203   3.774   3.602  0.2261  0.2017  0.6491
  122CHL1  H19A15255   3.216   3.842   3.515 -0.8812 -1.2750 -0.7259
  122CHL1  H19B15256   3.256   3.826   3.685 -0.7916  0.3422  1.2308
  122CHL1  H19C15257   3.242   3.673   3.577  0.1271  0.1128  0.8571
  122CHL1    C115258   2.991   3.660   3.540  0.6787  1.3857 -0.5627
  122CHL1   H1A15259   3.059   3.572   3.528  2.1492  2.2751  0.7974
  122CHL1   H1B15260   2.906   3.608   3.589  2.0787 -1.9475 -1.3443
  122CHL1    C215261   2.940   3.708   3.403 -0.5701 -0.2077 -0.6008
  122CHL1   H2A15262   2.872   3.629   3.364  1.2813 -2.0174 -0.2782
  122CHL1   H2B15263   3.019   3.716   3.326 -0.3725  0.1205 -0.3646
  122CHL1   C2015264   3.209   3.538   4.291  0.8811 -0.4048  0.0754
  122CHL1   H2015265   3.307   3.591   4.286  0.9884 -0.6940 -1.9113
  122CHL1   C2115266   3.223   3.396   4.247  0.5342  0.4086 -0.0121
  122CHL1  H21A15267   3.127   3.341   4.245  0.1206  1.1202  0.2118
  122CHL1  H21B15268   3.288   3.340   4.318 -0.2487 -1.5038 -0.7337
  122CHL1  H21C15269   3.279   3.397   4.151  1.2516  1.7064  0.3857
  122CHL1   C2215270   3.159   3.537   4.438 -0.4010  0.3136 -0.3893
  122CHL1  H22A15271   3.153   3.641   4.476 -1.4277  0.2747 -0.4262
  122CHL1  H22B15272   3.056   3.498   4.449 -0.1640  0.1726  1.7915
  122CHL1   C2315273   3.251   3.466   4.531 -0.4499  1.5365 -0.2015
  122CHL1  H23A15274   3.243   3.355   4.524 -2.1093  1.3399  2.9125
  122CHL1  H23B15275   3.357   3.492   4.510 -0.1959  0.5281 -0.2445
  122CHL1   C2415276   3.222   3.503   4.675  0.6886  0.1007  0.4249
  122CHL1  H24A15277   3.249   3.609   4.694  0.7641  0.2111 -0.2913
  122CHL1  H24B15278   3.112   3.495   4.691  0.5730  1.9409  0.7675
  122CHL1   C2515279   3.300   3.410   4.780 -0.3272 -0.0659  0.6327
  122CHL1   H2515280   3.405   3.407   4.744 -0.8839  0.8827 -1.2478
  122CHL1   C2615281   3.293   3.476   4.914  0.0866  0.5265 -0.5296
  122CHL1  H26A15282   3.336   3.402   4.985  1.2659 -0.4568 -2.1928
  122CHL1  H26B15283   3.349   3.571   4.910  2.1424 -0.5333  1.2818
  122CHL1  H26C15284   3.186   3.502   4.934  0.1834  1.3647 -1.0525
  122CHL1   C2715285   3.251   3.264   4.783 -0.2784  0.2669 -0.0532
  122CHL1  H27A15286   3.313   3.203   4.852 -1.2194 -1.9989 -1.1375
  122CHL1  H27B15287   3.145   3.274   4.814 -0.1107 -0.6008  0.8365
  122CHL1  H27C15288   3.258   3.215   4.684 -0.7768  2.6242 -1.3455
  123CHL1    C315289   5.795   4.548   3.676  0.1469 -0.0833  0.5519
  123CHL1    H315290   5.684   4.551   3.674  0.0808 -1.6170 -1.8933
  123CHL1    O315291   5.852   4.582   3.552 -0.2779 -0.5016  0.3500
  123CHL1   H3'15292   5.948   4.587   3.560  0.0026  1.2880 -2.5981
  123CHL1    C415293   5.844   4.654   3.785  0.2130  0.0760  0.4371
  123CHL1   H4A15294   5.954   4.664   3.789  0.0167  2.5400  1.4286
  123CHL1   H4B15295   5.813   4.758   3.760  0.2450  0.5070  2.0226
  123CHL1    C515296   5.808   4.618   3.926 -0.3096  0.0901  0.4636
  123CHL1    C615297   5.744   4.708   4.003 -0.2077 -0.3234 -0.3493
  123CHL1    H615298   5.728   4.809   3.963 -1.7659 -0.1688  0.5730
  123CHL1    C715299   5.699   4.691   4.148 -0.0046  0.2242  0.2616
  123CHL1   H7A15300   5.729   4.779   4.210  2.9550  0.6366 -1.5479
  123CHL1   H7B15301   5.589   4.681   4.155  0.1078 -0.4698  1.3347
  123CHL1    C815302   5.764   4.559   4.204 -0.3235  0.9265 -0.7138
  123CHL1    H815303   5.870   4.577   4.234 -0.1389  0.3997 -1.0286
  123CHL1   C1415304   5.682   4.513   4.326  0.1383 -0.3411 -0.1498
  123CHL1   H1415305   5.580   4.479   4.297 -0.0951  1.2778 -1.3105
  123CHL1   C1515306   5.664   4.628   4.430  0.3525 -0.0309  0.5313
  123CHL1  H15A15307   5.765   4.675   4.441  0.2459 -0.1300  2.1551
  123CHL1  H15B15308   5.583   4.703   4.416 -1.7966 -2.1500  1.1138
  123CHL1   C1615309   5.641   4.557   4.560  0.6652 -0.4750 -0.5208
  123CHL1  H16A15310   5.725   4.579   4.629  0.0419 -0.1314  0.1424
  123CHL1  H16B15311   5.545   4.572   4.613  1.2329 -1.2630  0.7797
  123CHL1   C1715312   5.650   4.402   4.531 -0.3791 -0.0056  0.0155
  123CHL1   H1715313   5.548   4.373   4.497 -0.7570 -1.0034  1.8319
  123CHL1   C1315314   5.743   4.395   4.407  0.1160  0.7777  0.1836
  123CHL1   C1815315   5.887   4.421   4.450 -0.2983 -0.4491  0.7317
  123CHL1  H18A15316   5.894   4.520   4.499 -2.8659  0.1307  0.0575
  123CHL1  H18B15317   5.919   4.355   4.533  0.1271 -0.3847  0.6218
  123CHL1  H18C15318   5.961   4.424   4.367  2.9321  1.0149  3.4301
  123CHL1   C1215319   5.742   4.275   4.314 -0.0739 -0.5283 -0.2897
  123CHL1  H12A15320   5.811   4.198   4.355  0.2111 -0.3326 -0.3908
  123CHL1  H12B15321   5.638   4.238   4.323  0.6754 -2.4498  0.8604
  123CHL1   C1115322   5.800   4.303   4.171 -0.0901 -0.6414  0.0985
  123CHL1  H11A15323   5.911   4.309   4.176 -0.1608  0.3218  0.9150
  123CHL1  H11B15324   5.777   4.218   4.103 -0.0648 -0.9878  0.5132
  123CHL1    C915325   5.757   4.442   4.106  0.3729 -0.1272  1.2150
  123CHL1    H915326   5.657   4.416   4.064  1.4881 -3.2975  0.2527
  123CHL1   C1015327   5.840   4.475   3.973  0.4195  0.3457 -0.3541
  123CHL1   C1915328   5.997   4.469   3.991  0.2763  0.0040  0.4589
  123CHL1  H19A15329   6.035   4.366   4.005  0.1809  0.0825  1.3255
  123CHL1  H19B15330   6.046   4.503   3.897  0.5604 -0.6909  0.3544
  123CHL1  H19C15331   6.034   4.534   4.073 -0.3359  1.6747 -0.5247
  123CHL1    C115332   5.807   4.373   3.860  0.2475  0.1337  0.4203
  123CHL1   H1A15333   5.850   4.273   3.884 -0.5507 -0.1055  0.8956
  123CHL1   H1B15334   5.699   4.349   3.872  0.2496  0.5537  1.4167
  123CHL1    C215335   5.842   4.409   3.717 -0.0687  0.2529  0.1081
  123CHL1   H2A15336   5.796   4.336   3.648  2.8088 -1.0522 -0.5617
  123CHL1   H2B15337   5.953   4.410   3.708 -0.1206  0.5441 -0.5948
  123CHL1   C2015338   5.682   4.323   4.657 -0.3534 -0.0362 -0.1936
  123CHL1   H2015339   5.771   4.364   4.708 -1.2413 -0.2593  1.6130
  123CHL1   C2115340   5.718   4.177   4.639  0.2415  0.0049  0.0366
  123CHL1  H21A15341   5.822   4.175   4.598  0.3928  0.2356  0.4070
  123CHL1  H21B15342   5.652   4.114   4.576  0.8268 -2.3483  1.6411
  123CHL1  H21C15343   5.720   4.127   4.738  0.8802  1.0644  0.5862
  123CHL1   C2215344   5.564   4.327   4.762  0.1923 -0.1281  0.2318
  123CHL1  H22A15345   5.550   4.435   4.787  0.6866  0.0402 -0.2252
  123CHL1  H22B15346   5.470   4.289   4.716  0.4064 -0.5412  0.1346
  123CHL1   C2315347   5.593   4.286   4.911 -1.1193 -0.2867 -0.6869
  123CHL1  H23A15348   5.499   4.303   4.967 -0.8038  1.2892 -0.5664
  123CHL1  H23B15349   5.609   4.177   4.899  1.0622  0.0397 -1.2093
  123CHL1   C2415350   5.709   4.367   4.975 -0.3189 -0.4072 -0.1907
  123CHL1  H24A15351   5.795   4.382   4.906 -2.0629  1.1290 -2.1585
  123CHL1  H24B15352   5.671   4.467   5.003 -1.1850 -0.6898 -0.3502
  123CHL1   C2515353   5.776   4.303   5.099  0.0267 -0.2529 -0.4853
  123CHL1   H2515354   5.705   4.299   5.185  1.2667 -4.2228  0.6153
  123CHL1   C2615355   5.819   4.154   5.070 -0.0039 -0.0782  0.4950
  123CHL1  H26A15356   5.883   4.120   5.154  0.4913 -3.1947 -0.9996
  123CHL1  H26B15357   5.741   4.076   5.060 -1.5973  1.6105 -1.2721
  123CHL1  H26C15358   5.876   4.147   4.975 -1.0279 -0.0244 -0.1377
  123CHL1   C2715359   5.891   4.400   5.147 -0.2358 -0.1533 -0.2571
  123CHL1  H27A15360   5.984   4.369   5.094 -0.7515  1.4610 -2.2621
  123CHL1  H27B15361   5.878   4.505   5.113  1.2203  0.2049  0.2229
  123CHL1  H27C15362   5.914   4.399   5.256  1.0799 -0.4784 -0.5128
  124CHL1    C315363   5.006   5.391   3.312 -0.1548  0.3915 -0.4625
  124CHL1    H315364   4.919   5.321   3.311 -2.4176  2.9690 -2.6631
  124CHL1    O315365   5.066   5.412   3.193 -0.1392  0.1479 -0.0768
  124CHL1   H3'15366   4.995   5.399   3.129 -0.1594  1.0637 -0.2463
  124CHL1    C415367   4.974   5.533   3.363 -0.4778  0.3982  0.3256
  124CHL1   H4A15368   5.055   5.605   3.339 -1.2708  1.1496 -0.1388
  124CHL1   H4B15369   4.893   5.577   3.301  1.4605  0.7436 -2.1199
  124CHL1    C515370   4.929   5.545   3.509  0.1324  0.4306  0.3527
  124CHL1    C615371   4.811   5.605   3.534 -0.1845 -0.1148  0.1054
  124CHL1    H615372   4.747   5.649   3.456 -0.3209 -0.3695  0.0738
  124CHL1    C715373   4.764   5.627   3.674 -0.6434  0.3267 -0.1413
  124CHL1   H7A15374   4.732   5.733   3.663  0.7734  0.7813 -0.0976
  124CHL1   H7B15375   4.680   5.558   3.696  1.5263 -1.9640  1.6052
  124CHL1    C815376   4.870   5.595   3.789 -0.1679 -0.0307  0.9193
  124CHL1    H815377   4.933   5.686   3.794  1.0660 -0.7153 -0.7925
  124CHL1   C1415378   4.802   5.567   3.922 -0.9070 -0.5930 -0.0090
  124CHL1   H1415379   4.740   5.476   3.910 -0.5363 -1.0855  1.6009
  124CHL1   C1515380   4.713   5.674   3.990  0.1543  0.0757  0.6651
  124CHL1  H15A15381   4.764   5.773   3.992  1.5379 -0.5597 -0.6263
  124CHL1  H15B15382   4.620   5.690   3.931 -0.0351  2.4630  1.4974
  124CHL1   C1615383   4.685   5.629   4.133 -0.2877 -0.2490 -0.4097
  124CHL1  H16A15384   4.703   5.715   4.201 -0.2772  1.0487 -1.9951
  124CHL1  H16B15385   4.583   5.589   4.151  0.7594 -1.9318  2.3082
  124CHL1   C1715386   4.787   5.517   4.155 -0.8157  0.2985  0.4924
  124CHL1   H1715387   4.741   5.419   4.131 -1.1203  0.4451  0.4657
  124CHL1   C1315388   4.897   5.521   4.036 -0.4935  0.1976 -1.3192
  124CHL1   C1815389   4.993   5.634   4.072  0.0882  0.5708  0.2491
  124CHL1  H18A15390   5.034   5.663   3.973  0.6798 -1.5747 -0.1773
  124CHL1  H18B15391   4.947   5.727   4.113 -1.2017 -0.0187  0.1635
  124CHL1  H18C15392   5.082   5.595   4.126 -0.7138 -2.3743 -0.3800
  124CHL1   C1215393   4.974   5.393   3.990  0.1660 -0.5318 -0.6192
  124CHL1  H12A15394   5.053   5.358   4.060 -0.4703 -0.7489  0.0056
  124CHL1  H12B15395   4.911   5.304   3.971  1.4656 -1.7400  0.4913
  124CHL1   C1115396   5.048   5.418   3.856  0.3755 -0.0230 -0.0325
  124CHL1  H11A15397   5.123   5.494   3.883 -0.6671  1.5162 -1.2714
  124CHL1  H11B15398   5.098   5.322   3.831  0.9052  0.0099  0.8790
  124CHL1    C915399   4.951   5.471   3.749 -0.2579 -0.5439 -0.3653
  124CHL1    H915400   4.871   5.394   3.760 -2.3032  1.6167  0.6191
  124CHL1   C1015401   5.021   5.480   3.613  0.9131  0.0172  0.2531
  124CHL1   C1915402   5.139   5.580   3.619 -0.0968  0.5039 -0.1313
  124CHL1  H19A15403   5.100   5.679   3.651 -0.1267  0.5914 -0.4323
  124CHL1  H19B15404   5.214   5.551   3.695 -0.3203 -0.1069 -0.1397
  124CHL1  H19C15405   5.191   5.588   3.521 -1.1305  0.3798 -0.7157
  124CHL1    C115406   5.057   5.336   3.558  0.7244 -0.1907  0.0373
  124CHL1   H1A15407   5.139   5.289   3.617 -0.0796 -1.7941 -0.0849
  124CHL1   H1B15408   4.975   5.261   3.560  2.0109 -1.6701 -0.2874
  124CHL1    C215409   5.110   5.336   3.413  0.3330 -0.3272  0.0965
  124CHL1   H2A15410   5.131   5.229   3.391  2.1757 -0.5113  2.3152
  124CHL1   H2B15411   5.203   5.396   3.407 -0.4137  0.7337 -1.3577
  124CHL1   C2015412   4.837   5.502   4.306  0.6307  0.3805  0.5472
  124CHL1   H2015413   4.888   5.594   4.342 -1.0708  1.5580  0.1032
  124CHL1   C2115414   4.929   5.382   4.311  0.4940 -0.1272 -0.3381
  124CHL1  H21A15415   5.019   5.410   4.253  0.0793  2.9271  0.3487
  124CHL1  H21B15416   4.872   5.293   4.278 -1.2366  1.4636 -1.8081
  124CHL1  H21C15417   4.960   5.364   4.417  0.2013  1.2436 -0.0109
  124CHL1   C2215418   4.707   5.487   4.389  1.0464  1.0294  0.3122
  124CHL1  H22A15419   4.636   5.566   4.357 -2.1633 -1.2225  1.4770
  124CHL1  H22B15420   4.668   5.384   4.380 -0.9290  1.7647  0.0756
  124CHL1   C2315421   4.736   5.514   4.535 -0.7067 -0.1492 -0.2220
  124CHL1  H23A15422   4.792   5.424   4.569  0.7121  0.2669 -1.3530
  124CHL1  H23B15423   4.793   5.609   4.540 -1.8908  0.5551  0.4870
  124CHL1   C2415424   4.603   5.531   4.620 -0.6471 -0.5005 -0.7850
  124CHL1  H24A15425   4.555   5.621   4.577 -0.3127  0.3150  0.4638
  124CHL1  H24B15426   4.546   5.437   4.606 -2.2608  0.2092  0.6441
  124CHL1   C2515427   4.628   5.548   4.772 -0.2829 -0.0308 -0.4738
  124CHL1   H2515428   4.695   5.637   4.771 -1.7453  1.1726 -3.3835
  124CHL1   C2615429   4.491   5.576   4.832  0.1040 -0.0695  0.2275
  124CHL1  H26A15430   4.424   5.638   4.769 -0.1381 -0.6927 -0.1416
  124CHL1  H26B15431   4.435   5.482   4.853 -2.7206  1.9698  2.7756
  124CHL1  H26C15432   4.502   5.628   4.930  1.1743 -0.6728  0.4410
  124CHL1   C2715433   4.689   5.422   4.851 -0.4345 -0.3036 -0.3506
  124CHL1  H27A15434   4.785   5.387   4.808  0.8527  1.1035  1.2418
  124CHL1  H27B15435   4.706   5.443   4.959 -0.2596 -0.6677 -0.3025
  124CHL1  H27C15436   4.616   5.338   4.848  0.8002 -1.5427  1.7023
  125CHL1    C315437   5.485   5.261   3.581 -0.6188  0.4830 -0.0593
  125CHL1    H315438   5.395   5.327   3.579  0.4408  2.1480  2.2481
  125CHL1    O315439   5.553   5.258   3.455  0.1200 -0.0634 -0.3984
  125CHL1   H3'15440   5.629   5.205   3.482 -0.6785 -0.7057  0.7177
  125CHL1    C415441   5.589   5.317   3.688 -0.1026  0.0534  0.0888
  125CHL1   H4A15442   5.691   5.274   3.680 -0.0766  0.1124  0.1035
  125CHL1   H4B15443   5.601   5.424   3.661 -0.9375 -0.1553 -1.2200
  125CHL1    C515444   5.534   5.297   3.835  0.1942  0.4259  0.2127
  125CHL1    C615445   5.525   5.398   3.918 -0.5001 -0.5878  0.0925
  125CHL1    H615446   5.564   5.497   3.888 -2.3303  0.1239 -0.0750
  125CHL1    C715447   5.484   5.380   4.064  0.7553  0.8848  0.0103
  125CHL1   H7A15448   5.558   5.421   4.136  1.7859  0.7101 -0.9066
  125CHL1   H7B15449   5.392   5.438   4.086  1.1210  1.4947 -0.0479
  125CHL1    C815450   5.480   5.229   4.113  0.4726  0.0127  0.2593
  125CHL1    H815451   5.587   5.197   4.116  0.4395 -0.3218 -1.2948
  125CHL1   C1415452   5.403   5.215   4.243  0.3248  0.3744  0.1510
  125CHL1   H1415453   5.301   5.243   4.211  0.6498 -0.8692 -2.1570
  125CHL1   C1515454   5.455   5.298   4.362  0.1651 -0.5523  0.5233
  125CHL1  H15A15455   5.566   5.290   4.367  0.2753 -1.1816 -1.7011
  125CHL1  H15B15456   5.423   5.404   4.358  1.4637 -0.1672 -2.7778
  125CHL1   C1615457   5.384   5.242   4.490  0.1091  0.0179  0.0124
  125CHL1  H16A15458   5.457   5.213   4.568  1.4106 -1.6452 -1.7241
  125CHL1  H16B15459   5.318   5.319   4.535  0.6207 -0.0179  0.8424
  125CHL1   C1715460   5.317   5.106   4.437  0.2247  0.1255 -0.2595
  125CHL1   H1715461   5.211   5.133   4.415 -0.1149  0.4353  1.5460
  125CHL1   C1315462   5.386   5.071   4.301 -0.4334 -0.0342  0.4583
  125CHL1   C1815463   5.523   5.007   4.334  0.1500  0.0266 -0.1336
  125CHL1  H18A15464   5.593   5.018   4.248  1.1096  0.6788  0.7038
  125CHL1  H18B15465   5.566   5.062   4.421 -0.1936  1.3942 -0.7957
  125CHL1  H18C15466   5.512   4.902   4.369 -3.0645 -0.1958 -1.4869
  125CHL1   C1215467   5.306   4.993   4.193  0.1541 -0.2192  0.2078
  125CHL1  H12A15468   5.303   4.884   4.217  0.1780  0.3147  3.0042
  125CHL1  H12B15469   5.206   5.042   4.185 -0.2767 -1.2243 -1.0463
  125CHL1   C1115470   5.381   5.002   4.058 -0.0253 -0.2863  0.1750
  125CHL1  H11A15471   5.479   4.951   4.065  0.7146  0.8791 -1.1620
  125CHL1  H11B15472   5.329   4.943   3.980  1.3315  0.6599 -1.5099
  125CHL1    C915473   5.410   5.148   4.004  0.3672  0.5429 -0.3686
  125CHL1    H915474   5.312   5.198   3.989  0.7727  1.2131 -0.8341
  125CHL1   C1015475   5.482   5.152   3.864 -0.0164 -0.9858  0.2926
  125CHL1   C1915476   5.611   5.052   3.856  0.4455 -1.0302  0.2382
  125CHL1  H19A15477   5.663   5.071   3.953 -0.8901 -0.1283  0.8070
  125CHL1  H19B15478   5.576   4.946   3.856 -0.2417 -0.8047  0.0533
  125CHL1  H19C15479   5.672   5.063   3.764 -1.8481 -0.4516 -1.2863
  125CHL1    C115480   5.389   5.103   3.747 -0.2035 -0.1252  0.4066
  125CHL1   H1A15481   5.354   4.998   3.759  1.3926 -0.7321 -0.0676
  125CHL1   H1B15482   5.298   5.168   3.750  0.1346  0.3255  1.7145
  125CHL1    C215483   5.440   5.119   3.608 -0.7331  1.1239 -0.0321
  125CHL1   H2A15484   5.366   5.072   3.540  1.1154 -0.0482 -1.3488
  125CHL1   H2B15485   5.530   5.055   3.594 -0.3486  1.8178 -0.8978
  125CHL1   C2015486   5.299   4.996   4.545  0.9418  0.8536  0.1759
  125CHL1   H2015487   5.397   4.944   4.555  0.4601 -0.1344 -0.1159
  125CHL1   C2115488   5.191   4.891   4.499 -0.4932 -0.0623  0.3743
  125CHL1  H21A15489   5.184   4.810   4.574  0.0668 -0.7018 -0.2538
  125CHL1  H21B15490   5.229   4.859   4.399 -4.2355  0.6713 -1.4891
  125CHL1  H21C15491   5.092   4.940   4.481  0.1161  0.6467 -1.2591
  125CHL1   C2215492   5.266   5.054   4.688 -0.4219  0.2948 -0.2344
  125CHL1  H22A15493   5.324   5.145   4.713 -1.3679  0.6770  0.5935
  125CHL1  H22B15494   5.158   5.079   4.682 -0.5862 -0.5365 -1.0380
  125CHL1   C2315495   5.288   4.945   4.800 -0.0206 -0.2622 -0.0404
  125CHL1  H23A15496   5.228   4.982   4.885 -0.0949 -1.3997  0.4230
  125CHL1  H23B15497   5.222   4.859   4.775  0.1021 -0.4728  0.3487
  125CHL1   C2415498   5.439   4.934   4.825 -0.0189  0.0420  0.6096
  125CHL1  H24A15499   5.500   4.908   4.736 -0.1631 -1.1718  0.8427
  125CHL1  H24B15500   5.466   5.037   4.855 -2.0867  0.6408  0.5283
  125CHL1   C2515501   5.480   4.842   4.941 -0.1931 -0.3178  0.4818
  125CHL1   H2515502   5.591   4.839   4.948 -0.1444 -2.0774 -0.5175
  125CHL1   C2615503   5.412   4.888   5.070 -0.0012 -0.0571 -0.1489
  125CHL1  H26A15504   5.460   4.840   5.158 -0.9448  2.2041  1.7121
  125CHL1  H26B15505   5.420   4.998   5.083  1.2524 -0.2694  1.1343
  125CHL1  H26C15506   5.305   4.859   5.073 -1.0491  3.2526 -0.6049
  125CHL1   C2715507   5.431   4.702   4.920 -0.0135 -0.1366 -0.0546
  125CHL1  H27A15508   5.468   4.635   5.000  0.3834  1.3257  1.0229
  125CHL1  H27B15509   5.321   4.702   4.911  0.0460 -0.1883 -0.8295
  125CHL1  H27C15510   5.477   4.676   4.822  3.8250 -0.6103  1.6952
  126CHL1    C315511   3.070   4.735   3.453 -0.3319  0.5152  0.2623
  126CHL1    H315512   3.161   4.671   3.449  0.0140  1.0354 -0.4207
  126CHL1    O315513   3.069   4.821   3.339 -0.6763  0.7887  0.3199
  126CHL1   H3'15514   2.994   4.881   3.346 -2.2197 -0.9563 -0.2840
  126CHL1    C415515   2.942   4.655   3.476  0.2521  0.4126  0.6918
  126CHL1   H4A15516   2.864   4.734   3.483  1.7703  2.2185 -1.6336
  126CHL1   H4B15517   2.910   4.598   3.386  2.9770  2.0594 -1.4589
  126CHL1    C515518   2.939   4.575   3.601  0.4325 -0.0301  0.5301
  126CHL1    C615519   2.916   4.445   3.610 -0.5071  0.4168  0.0526
  126CHL1    H615520   2.908   4.390   3.515  1.0752  0.8175 -0.3564
  126CHL1    C715521   2.914   4.371   3.738 -0.0184 -0.7112 -0.0189
  126CHL1   H7A15522   2.847   4.285   3.719 -0.4008 -0.0309 -2.0309
  126CHL1   H7B15523   3.011   4.321   3.758 -0.3041 -0.8939  0.9270
  126CHL1    C815524   2.880   4.458   3.872 -0.2980  0.1008  0.5245
  126CHL1    H815525   2.774   4.489   3.872 -0.2654  0.2177  0.3066
  126CHL1   C1415526   2.911   4.373   4.004 -0.0062  0.2179  0.3613
  126CHL1   H1415527   3.018   4.343   4.000  0.2161  0.7371  1.8064
  126CHL1   C1515528   2.835   4.244   4.021 -0.2745  0.3256 -0.4387
  126CHL1  H15A15529   2.728   4.262   3.997 -0.9064 -0.9279  1.2918
  126CHL1  H15B15530   2.873   4.169   3.948 -2.3764 -0.7161 -0.5157
  126CHL1   C1615531   2.844   4.211   4.169  0.3387  0.1432 -0.5091
  126CHL1  H16A15532   2.745   4.184   4.211  0.6839  0.4326  0.5250
  126CHL1  H16B15533   2.896   4.113   4.182 -2.6218 -1.1731  4.5777
  126CHL1   C1715534   2.902   4.331   4.239  0.1418 -0.4311 -0.1129
  126CHL1   H1715535   3.012   4.316   4.232 -0.1019 -2.4839 -0.1168
  126CHL1   C1315536   2.889   4.446   4.132  0.5743 -0.2449 -0.1305
  126CHL1   C1815537   2.738   4.492   4.136 -0.1005 -0.6278  0.0889
  126CHL1  H18A15538   2.723   4.569   4.057 -0.7967 -1.2913 -0.4467
  126CHL1  H18B15539   2.671   4.406   4.112 -1.9603  0.5585  0.8345
  126CHL1  H18C15540   2.732   4.543   4.234  1.7521 -0.7910  0.3189
  126CHL1   C1215541   2.980   4.568   4.131  0.7972  0.8679 -0.2187
  126CHL1  H12A15542   2.963   4.628   4.223  4.2099  0.2663  0.9425
  126CHL1  H12B15543   3.080   4.526   4.156  0.7376  1.6851  1.5165
  126CHL1   C1115544   2.972   4.653   4.009 -0.2628  0.3811 -0.6796
  126CHL1  H11A15545   2.886   4.723   4.009 -0.5818  0.0062  0.2104
  126CHL1  H11B15546   3.064   4.716   4.010 -0.3611  0.6099  1.9462
  126CHL1    C915547   2.975   4.577   3.871  0.8177  0.1746  0.3330
  126CHL1    H915548   3.073   4.524   3.877  0.5471 -0.1282  2.6995
  126CHL1   C1015549   2.962   4.664   3.734 -0.3674 -0.3157  0.5709
  126CHL1   C1915550   2.844   4.765   3.757  0.1368  0.7132  0.0312
  126CHL1  H19A15551   2.809   4.813   3.663  0.2212 -0.6498 -0.7350
  126CHL1  H19B15552   2.761   4.703   3.798  1.4472  0.4898  2.5431
  126CHL1  H19C15553   2.874   4.841   3.832 -0.9485  1.9060 -0.7122
  126CHL1    C115554   3.091   4.752   3.704  0.0637  0.7682 -0.6009
  126CHL1   H1A15555   3.113   4.821   3.789  1.5720 -0.0479 -0.2953
  126CHL1   H1B15556   3.180   4.687   3.710 -0.4379  0.0422 -0.8437
  126CHL1    C215557   3.089   4.834   3.573  0.1690 -0.3966 -0.0783
  126CHL1   H2A15558   3.186   4.884   3.555  0.3923 -0.6355  0.4439
  126CHL1   H2B15559   3.005   4.905   3.587  0.1061 -0.4097 -0.3762
  126CHL1   C2015560   2.854   4.344   4.379  0.8446  0.6738 -0.9190
  126CHL1   H2015561   2.744   4.358   4.379  0.8586  0.7867 -0.9219
  126CHL1   C2115562   2.913   4.469   4.458  0.1692 -0.4702  1.0340
  126CHL1  H21A15563   2.847   4.558   4.447  0.0657 -0.8002 -1.4831
  126CHL1  H21B15564   3.017   4.498   4.431  0.5002 -1.2064  1.4859
  126CHL1  H21C15565   2.907   4.446   4.567  0.2202 -0.9270  0.9406
  126CHL1   C2215566   2.884   4.224   4.469  0.1597 -0.4576  0.4726
  126CHL1  H22A15567   2.814   4.236   4.554 -0.7305  1.8639 -0.5167
  126CHL1  H22B15568   2.850   4.132   4.417 -0.7586  0.0088  0.2217
  126CHL1   C2315569   3.031   4.200   4.509  0.1324 -0.5837  0.0554
  126CHL1  H23A15570   3.104   4.205   4.426 -0.3101  2.1653 -0.2686
  126CHL1  H23B15571   3.055   4.284   4.578 -1.8092  0.4239 -0.4262
  126CHL1   C2415572   3.043   4.077   4.595 -0.4694  0.4378 -0.2313
  126CHL1  H24A15573   2.983   4.079   4.688  0.8524 -0.2616  0.6782
  126CHL1  H24B15574   3.015   3.989   4.534 -0.0566  0.2147 -0.1052
  126CHL1   C2515575   3.189   4.052   4.631 -0.1879 -0.0072 -0.3946
  126CHL1   H2515576   3.237   4.046   4.530  0.5678 -1.6674  0.0418
  126CHL1   C2615577   3.257   4.171   4.700  0.0762  0.3670  0.4341
  126CHL1  H26A15578   3.367   4.158   4.702  0.2068  1.3261  2.1881
  126CHL1  H26B15579   3.233   4.267   4.649 -1.6203 -0.8759 -1.2811
  126CHL1  H26C15580   3.213   4.182   4.802 -1.7302  0.6306 -0.3284
  126CHL1   C2715581   3.198   3.924   4.707  0.2160  0.3668 -0.2588
  126CHL1  H27A15582   3.142   3.918   4.803  0.2846  0.8637 -0.1836
  126CHL1  H27B15583   3.161   3.836   4.651 -1.0382  0.9842 -0.4389
  126CHL1  H27C15584   3.306   3.904   4.722 -0.2995 -0.8116  2.6270
  127CHL1    C315585   4.587   5.335   3.366  0.5945  0.1956 -0.4899
  127CHL1    H315586   4.677   5.380   3.412  2.4762 -0.6191 -3.1512
  127CHL1    O315587   4.633   5.300   3.236  0.3856 -0.5381  0.0720
  127CHL1   H3'15588   4.552   5.261   3.202 -1.0341  0.2737  2.3116
  127CHL1    C415589   4.531   5.210   3.445 -0.0390 -0.4369 -0.0778
  127CHL1   H4A15590   4.443   5.166   3.392  0.3705 -0.6421 -0.5924
  127CHL1   H4B15591   4.607   5.130   3.435 -1.0981 -1.5887  0.7877
  127CHL1    C515592   4.492   5.250   3.592 -0.2012  0.1493 -0.3945
  127CHL1    C615593   4.552   5.200   3.697 -0.0674 -0.2963 -0.3351
  127CHL1    H615594   4.636   5.131   3.684  0.6353  0.5605 -0.4360
  127CHL1    C715595   4.516   5.237   3.836 -1.0767  0.1285  0.0080
  127CHL1   H7A15596   4.499   5.140   3.887 -1.1863 -1.4532 -2.8237
  127CHL1   H7B15597   4.597   5.296   3.885 -1.5743 -0.2359  1.3154
  127CHL1    C815598   4.385   5.304   3.865 -0.4378 -0.2523  0.0433
  127CHL1    H815599   4.303   5.231   3.850 -0.2368 -0.8818  1.7793
  127CHL1   C1415600   4.377   5.376   3.997  0.3737  0.0187  0.1367
  127CHL1   H1415601   4.457   5.453   3.989  0.5442 -0.1668  0.0489
  127CHL1   C1515602   4.410   5.291   4.119 -0.6398  0.5052 -0.2784
  127CHL1  H15A15603   4.375   5.186   4.116  0.4044  0.0745  1.3514
  127CHL1  H15B15604   4.521   5.277   4.120 -0.7259 -1.6925 -3.9303
  127CHL1   C1615605   4.359   5.374   4.236 -0.5294  0.0578 -0.2040
  127CHL1  H16A15606   4.296   5.315   4.306  0.7950 -0.3065  0.7277
  127CHL1  H16B15607   4.446   5.406   4.298 -1.1128 -0.1228  0.7300
  127CHL1   C1715608   4.278   5.491   4.172 -0.7522  0.1882 -0.1142
  127CHL1   H1715609   4.351   5.575   4.168  0.0430 -0.4397  0.5263
  127CHL1   C1315610   4.249   5.450   4.030 -0.1794 -0.4539  0.1868
  127CHL1   C1815611   4.123   5.354   4.028 -0.5476 -0.8909  0.2057
  127CHL1  H18A15612   4.119   5.309   3.927  0.9208 -0.6658  0.0165
  127CHL1  H18B15613   4.144   5.277   4.106 -0.7597  0.2337  1.4259
  127CHL1  H18C15614   4.030   5.403   4.065 -0.9185 -1.8420  0.5558
  127CHL1   C1215615   4.246   5.564   3.926  0.6517  0.8370  0.7701
  127CHL1  H12A15616   4.162   5.631   3.954  1.1621  0.4689  3.4572
  127CHL1  H12B15617   4.335   5.629   3.935  1.3192  0.4091 -1.8376
  127CHL1   C1115618   4.254   5.511   3.777  0.3492 -0.0280  0.3943
  127CHL1  H11A15619   4.154   5.467   3.759  1.0526 -0.8418 -1.9561
  127CHL1  H11B15620   4.267   5.602   3.714  1.8445  0.4574  1.3501
  127CHL1    C915621   4.372   5.407   3.758  0.0704 -0.9978  0.4329
  127CHL1    H915622   4.464   5.468   3.764 -1.2555  1.0246  1.0951
  127CHL1   C1015623   4.387   5.356   3.605 -1.0153  0.0598 -0.4965
  127CHL1   C1915624   4.255   5.286   3.563  0.2480 -0.4178  0.0608
  127CHL1  H19A15625   4.163   5.348   3.566  1.2161  1.0220  1.4736
  127CHL1  H19B15626   4.265   5.239   3.463  1.7709  0.5979 -0.3063
  127CHL1  H19C15627   4.226   5.212   3.640  0.1104  1.9551  2.4328
  127CHL1    C115628   4.434   5.479   3.510 -0.2612 -0.6287 -0.1134
  127CHL1   H1A15629   4.343   5.541   3.506  0.5383  0.5380 -0.7070
  127CHL1   H1B15630   4.513   5.540   3.559  0.8301 -0.7730 -1.6332
  127CHL1    C215631   4.472   5.436   3.367 -0.2110  0.2882  0.8081
  127CHL1   H2A15632   4.495   5.531   3.313  0.0600  0.1871  0.7416
  127CHL1   H2B15633   4.378   5.393   3.327  1.0270 -2.8890  1.0261
  127CHL1   C2015634   4.163   5.532   4.267  0.0754 -0.1447  0.3727
  127CHL1   H2015635   4.093   5.446   4.272  2.1565 -1.9894 -0.5379
  127CHL1   C2115636   4.089   5.652   4.198 -0.0085  0.5232 -0.2953
  127CHL1  H21A15637   4.154   5.729   4.150  0.1719  0.2479 -0.4935
  127CHL1  H21B15638   4.029   5.713   4.269  0.5523 -0.2658  0.8687
  127CHL1  H21C15639   4.025   5.613   4.115 -2.3529  2.6903  0.3528
  127CHL1   C2215640   4.224   5.569   4.410  0.4088 -0.2631 -0.0607
  127CHL1  H22A15641   4.292   5.490   4.449  0.7160  0.1844  0.3308
  127CHL1  H22B15642   4.293   5.656   4.402 -0.2172  0.1628 -1.0817
  127CHL1   C2315643   4.115   5.586   4.513  0.2767 -0.5191 -0.1839
  127CHL1  H23A15644   4.059   5.680   4.492 -2.1065 -1.6355  0.7957
  127CHL1  H23B15645   4.044   5.500   4.512 -0.3563 -0.0128  0.1384
  127CHL1   C2415646   4.168   5.602   4.658  0.2944 -0.2587  0.5878
  127CHL1  H24A15647   4.228   5.511   4.678 -1.7204 -1.5549  1.0469
  127CHL1  H24B15648   4.235   5.690   4.651  0.9371 -0.6619  1.4286
  127CHL1   C2515649   4.068   5.640   4.766  0.3011  1.1642  0.6246
  127CHL1   H2515650   3.990   5.708   4.725  0.1070 -0.8926 -2.8709
  127CHL1   C2615651   3.978   5.520   4.802  0.6575 -0.3317 -0.2463
  127CHL1  H26A15652   3.918   5.494   4.712 -4.0049  0.3613  2.3373
  127CHL1  H26B15653   4.042   5.440   4.845  1.4428  0.5042  0.1537
  127CHL1  H26C15654   3.911   5.559   4.882  2.5857  1.0335  0.7830
  127CHL1   C2715655   4.131   5.699   4.892  0.0025  0.4070 -0.0879
  127CHL1  H27A15656   4.064   5.754   4.962  1.7875  0.9099  1.3023
  127CHL1  H27B15657   4.179   5.617   4.949 -1.4424 -2.0652 -2.2483
  127CHL1  H27C15658   4.208   5.775   4.865  0.4272 -0.2439 -0.7415
  128CHL1    C315659   2.797   0.683   3.265 -0.7410  0.6003 -0.0437
  128CHL1    H315660   2.753   0.581   3.253  3.0590 -1.1567 -0.5995
  128CHL1    O315661   2.828   0.729   3.131  0.7288 -0.1531 -0.0410
  128CHL1   H3'15662   2.823   0.824   3.141 -1.1824 -0.1568 -0.6223
  128CHL1    C415663   2.702   0.781   3.342 -0.4168  0.1327  0.1027
  128CHL1   H4A15664   2.735   0.884   3.315 -1.1917  0.0898 -1.1017
  128CHL1   H4B15665   2.608   0.761   3.287  0.3089 -0.1914 -1.0659
  128CHL1    C515666   2.683   0.766   3.493 -0.2540  0.0679 -0.4294
  128CHL1    C615667   2.558   0.752   3.546  0.4347  0.5968 -0.1422
  128CHL1    H615668   2.465   0.737   3.488  0.0062 -1.7912  1.0365
  128CHL1    C715669   2.532   0.751   3.696 -0.1234  0.2780  0.1917
  128CHL1   H7A15670   2.449   0.820   3.717  0.4162  0.7766  0.7099
  128CHL1   H7B15671   2.493   0.651   3.725  0.8270  0.4409  2.2170
  128CHL1    C815672   2.663   0.775   3.780  0.2463 -1.0660  0.3895
  128CHL1    H815673   2.677   0.885   3.776 -1.7081 -0.8057 -0.9042
  128CHL1   C1415674   2.637   0.721   3.919  0.0829 -0.1503  0.2454
  128CHL1   H1415675   2.622   0.612   3.903  0.7526 -0.1689 -0.3472
  128CHL1   C1515676   2.507   0.761   3.997  0.2471 -0.0414  0.1236
  128CHL1  H15A15677   2.489   0.868   3.976 -0.6036  0.4583  3.0288
  128CHL1  H15B15678   2.423   0.703   3.953 -0.9723  0.8689  1.2162
  128CHL1   C1615679   2.528   0.723   4.135 -0.3574 -0.1757 -0.3992
  128CHL1  H16A15680   2.494   0.802   4.204 -0.0694  0.4913 -1.0102
  128CHL1  H16B15681   2.483   0.626   4.166  1.0373 -0.5543  0.5700
  128CHL1   C1715682   2.687   0.691   4.150  0.4454  0.0125 -0.1561
  128CHL1   H1715683   2.704   0.581   4.150  1.1694  0.0134 -3.8007
  128CHL1   C1315684   2.749   0.734   4.017 -0.2450 -0.5968  0.0629
  128CHL1   C1815685   2.778   0.884   4.035  0.0016  0.2434  0.2756
  128CHL1  H18A15686   2.689   0.943   4.065  0.8040  0.6958  1.8768
  128CHL1  H18B15687   2.857   0.902   4.111 -0.6268 -1.3949  1.3750
  128CHL1  H18C15688   2.805   0.924   3.935 -0.9364 -3.1633 -1.5193
  128CHL1   C1215689   2.877   0.668   3.962  0.4770 -0.3932 -0.7175
  128CHL1  H12A15690   2.962   0.696   4.028 -0.4479  0.1544  0.2742
  128CHL1  H12B15691   2.863   0.558   3.967  0.3480 -0.3278  0.7353
  128CHL1   C1115692   2.911   0.713   3.816  0.1029  0.2988  0.7423
  128CHL1  H11A15693   2.964   0.810   3.828 -0.7530  1.2833 -2.3724
  128CHL1  H11B15694   2.988   0.645   3.773 -0.0893  2.1217 -2.8109
  128CHL1    C915695   2.791   0.706   3.719 -0.0623 -0.3069  0.7692
  128CHL1    H915696   2.763   0.599   3.712 -0.6119 -0.1480  0.4572
  128CHL1   C1015697   2.818   0.748   3.568  0.3590  0.5993 -0.4713
  128CHL1   C1915698   2.887   0.882   3.571 -0.0237 -0.1945  0.4449
  128CHL1  H19A15699   2.829   0.953   3.634 -0.2138  0.8832 -0.8959
  128CHL1  H19B15700   2.995   0.873   3.597  0.4997  1.6048 -0.8955
  128CHL1  H19C15701   2.903   0.920   3.467 -1.9116  0.3653  0.3146
  128CHL1    C115702   2.901   0.638   3.499  0.4034  0.3509 -0.1850
  128CHL1   H1A15703   3.001   0.638   3.546 -0.0194  0.9298  0.7477
  128CHL1   H1B15704   2.844   0.542   3.501 -0.5433  0.8541 -1.6585
  128CHL1    C215705   2.924   0.664   3.349  0.1027 -0.1985  0.5496
  128CHL1   H2A15706   2.987   0.580   3.312  0.9483  0.5635  0.2118
  128CHL1   H2B15707   2.986   0.754   3.330 -0.9519  0.3329 -0.4710
  128CHL1   C2015708   2.732   0.741   4.292 -0.0978 -0.0627 -0.2954
  128CHL1   H2015709   2.722   0.851   4.289  1.2099  0.0800 -3.7750
  128CHL1   C2115710   2.880   0.703   4.309  0.1857 -0.5650 -0.3416
  128CHL1  H21A15711   2.942   0.733   4.222  0.4932  0.7702  0.3124
  128CHL1  H21B15712   2.878   0.593   4.325  0.0049 -0.4609  0.3894
  128CHL1  H21C15713   2.924   0.750   4.400 -0.9572 -0.4569  0.1718
  128CHL1   C2215714   2.652   0.671   4.402  0.3044  0.2147 -0.9233
  128CHL1  H22A15715   2.544   0.696   4.400  0.0183 -0.8841  0.1822
  128CHL1  H22B15716   2.659   0.561   4.388 -0.8211 -0.0167  0.2235
  128CHL1   C2315717   2.695   0.713   4.542 -0.6156  0.3860  0.1729
  128CHL1  H23A15718   2.793   0.671   4.573 -0.9152  0.5753  1.4291
  128CHL1  H23B15719   2.719   0.821   4.536 -0.0823  0.2383 -0.4480
  128CHL1   C2415720   2.587   0.688   4.656 -0.1956  0.0688 -0.2989
  128CHL1  H24A15721   2.496   0.746   4.630  0.7936  2.4396  1.1511
  128CHL1  H24B15722   2.562   0.580   4.661 -1.0756  0.2931  0.5386
  128CHL1   C2515723   2.628   0.717   4.801 -0.5087  0.6610 -0.1592
  128CHL1   H2515724   2.673   0.818   4.804 -0.9743  0.9786 -2.3968
  128CHL1   C2615725   2.505   0.702   4.887  0.4804  0.0299 -0.2243
  128CHL1  H26A15726   2.468   0.598   4.884 -0.4536  0.1736  2.6472
  128CHL1  H26B15727   2.531   0.728   4.992 -0.3012  0.5240 -0.1363
  128CHL1  H26C15728   2.427   0.773   4.851  0.9784 -0.9636 -3.5587
  128CHL1   C2715729   2.742   0.625   4.849 -0.9495 -0.3637 -0.0408
  128CHL1  H27A15730   2.800   0.678   4.928 -0.6180 -0.4498 -0.2276
  128CHL1  H27B15731   2.707   0.534   4.903  1.0005 -0.2904  1.4491
  128CHL1  H27C15732   2.794   0.587   4.759 -1.3371  0.0316 -0.4340
  129CHL1    C315733   6.922   4.332   3.533  0.3305  0.3074  0.2254
  129CHL1    H315734   6.860   4.408   3.586  0.2112  0.9847 -0.8505
  129CHL1    O315735   6.833   4.275   3.440  0.0879  0.8369 -0.6428
  129CHL1   H3'15736   6.853   4.181   3.444 -0.2090  0.7342 -1.4247
  129CHL1    C415737   7.026   4.405   3.443 -0.0621  0.0723 -0.2856
  129CHL1   H4A15738   7.071   4.323   3.383  0.2783 -0.6866  0.9834
  129CHL1   H4B15739   6.975   4.482   3.381  0.8442  0.2485 -0.8332
  129CHL1    C515740   7.134   4.456   3.531 -0.3571  0.1024 -0.3558
  129CHL1    C615741   7.177   4.580   3.522  0.1903  0.1665 -0.0250
  129CHL1    H615742   7.130   4.647   3.448  1.6124  1.7759  0.4750
  129CHL1    C715743   7.292   4.638   3.597  0.3398 -0.4651  0.4046
  129CHL1   H7A15744   7.358   4.697   3.530  0.6404 -1.7613 -0.4563
  129CHL1   H7B15745   7.264   4.715   3.673  2.9332 -1.4018  2.4528
  129CHL1    C815746   7.382   4.545   3.679  0.1313  0.1846 -0.0703
  129CHL1    H815747   7.456   4.502   3.608 -0.1579 -0.1374 -0.1759
  129CHL1   C1415748   7.443   4.612   3.799  0.2819 -0.4574 -0.2234
  129CHL1   H1415749   7.355   4.649   3.856 -0.4344  0.8505 -2.0822
  129CHL1   C1515750   7.524   4.740   3.772 -0.7368  0.5119 -0.5458
  129CHL1  H15A15751   7.588   4.728   3.682  2.1351 -1.3436  1.5345
  129CHL1  H15B15752   7.454   4.826   3.767  1.3913  2.3620 -0.3253
  129CHL1   C1615753   7.616   4.755   3.895 -0.2874  0.3882  0.7183
  129CHL1  H16A15754   7.723   4.768   3.869 -0.3106  1.8095  1.2076
  129CHL1  H16B15755   7.599   4.847   3.956 -1.7736  0.2264  0.5883
  129CHL1   C1715756   7.590   4.632   3.977  0.6496  0.1251  0.5558
  129CHL1   H1715757   7.506   4.650   4.048 -1.7684 -2.8354 -1.2989
  129CHL1   C1315758   7.527   4.521   3.886  0.8745 -0.6934  0.8877
  129CHL1   C1815759   7.640   4.464   3.799  0.4040  0.5317 -0.4318
  129CHL1  H18A15760   7.610   4.402   3.712  0.1300 -1.6473  1.1100
  129CHL1  H18B15761   7.709   4.540   3.757  2.0632 -2.0576 -2.7963
  129CHL1  H18C15762   7.707   4.402   3.863  0.2705  1.7345  0.9190
  129CHL1   C1215763   7.437   4.412   3.944 -0.1382  0.1541 -0.6068
  129CHL1  H12A15764   7.499   4.334   3.993  0.4788  1.8899  1.5392
  129CHL1  H12B15765   7.386   4.456   4.032  2.7719  0.6001  0.9541
  129CHL1   C1115766   7.352   4.343   3.842 -0.1341 -0.0913 -0.0102
  129CHL1  H11A15767   7.419   4.275   3.785 -0.7810  1.0256 -2.2177
  129CHL1  H11B15768   7.271   4.281   3.886 -1.2482  0.8627 -0.6519
  129CHL1    C915769   7.284   4.438   3.737 -0.1338  0.2274  0.0806
  129CHL1    H915770   7.212   4.496   3.798  0.9008  1.8099 -0.1518
  129CHL1   C1015771   7.209   4.361   3.630  0.0660  0.1025 -0.1104
  129CHL1   C1915772   7.307   4.261   3.554 -0.9098 -0.2910  0.0959
  129CHL1  H19A15773   7.401   4.309   3.519 -0.5590 -1.3654 -0.4560
  129CHL1  H19B15774   7.336   4.183   3.627  1.4276 -0.5226 -0.9869
  129CHL1  H19C15775   7.256   4.228   3.461 -0.1362  0.8167 -0.7643
  129CHL1    C115776   7.099   4.280   3.701 -0.0857 -0.4952 -0.4007
  129CHL1   H1A15777   7.159   4.192   3.735 -1.2840 -0.5999  1.6451
  129CHL1   H1B15778   7.051   4.335   3.785 -0.2522 -0.8705 -0.2432
  129CHL1    C215779   6.987   4.220   3.615  0.6330 -1.1856 -0.4077
  129CHL1   H2A15780   6.903   4.180   3.676 -2.2952  0.1282 -3.2481
  129CHL1   H2B15781   7.023   4.144   3.543  1.9025 -1.1820  0.2009
  129CHL1   C2015782   7.703   4.593   4.068  0.0835  0.4736  0.0880
  129CHL1   H2015783   7.779   4.542   4.006  0.3407  0.6211  0.2763
  129CHL1   C2115784   7.665   4.483   4.174 -0.1832 -0.2496  0.8660
  129CHL1  H21A15785   7.649   4.392   4.111  0.0197  0.5366 -0.3372
  129CHL1  H21B15786   7.584   4.513   4.245  1.0775  0.8984  1.8736
  129CHL1  H21C15787   7.755   4.462   4.235  0.7079  0.0311 -0.3288
  129CHL1   C2215788   7.767   4.713   4.143 -0.4120  0.1986  0.4775
  129CHL1  H22A15789   7.797   4.788   4.067  3.6473 -1.3688  0.2939
  129CHL1  H22B15790   7.693   4.750   4.217 -0.3337  1.4355 -0.0369
  129CHL1   C2315791   7.909   4.685   4.191 -0.5442  0.2646 -0.2576
  129CHL1  H23A15792   7.911   4.603   4.267 -1.6701 -0.6373 -1.1565
  129CHL1  H23B15793   7.963   4.630   4.112 -0.6501  1.5751 -1.2684
  129CHL1   C2415794   7.986   4.809   4.248  0.5525 -0.1068 -0.2314
  129CHL1  H24A15795   8.019   4.876   4.166 -1.2089  0.7851 -0.2583
  129CHL1  H24B15796   7.916   4.865   4.314 -0.9917 -0.6444 -1.3773
  129CHL1   C2515797   8.111   4.762   4.329 -0.5212  0.0183 -0.5019
  129CHL1   H2515798   8.071   4.687   4.400  1.1087  0.2753  0.7575
  129CHL1   C2615799   8.218   4.689   4.248 -0.4478 -0.0287  0.5806
  129CHL1  H26A15800   8.168   4.620   4.175 -0.4559  1.9347 -1.3779
  129CHL1  H26B15801   8.278   4.766   4.195 -1.1597  0.5763  0.6454
  129CHL1  H26C15802   8.291   4.639   4.315  0.6651 -0.7703 -1.1143
  129CHL1   C2715803   8.173   4.876   4.415  0.8388  0.8319  0.2409
  129CHL1  H27A15804   8.093   4.944   4.452  0.3887  0.7279 -0.5151
  129CHL1  H27B15805   8.232   4.836   4.500 -1.9299 -0.3730  1.7524
  129CHL1  H27C15806   8.235   4.943   4.352  1.0896  0.4536  0.0795
  130CHL1    C315807   5.046   6.846   3.586 -0.1326 -0.2301 -0.1765
  130CHL1    H315808   5.071   6.738   3.596 -1.8354 -0.7702 -1.2816
  130CHL1    O315809   4.976   6.849   3.462 -0.1114  0.7431 -0.0392
  130CHL1   H3'15810   4.969   6.943   3.444  1.8988  0.8190 -0.6657
  130CHL1    C415811   4.952   6.899   3.693 -0.6238 -0.5308 -0.4865
  130CHL1   H4A15812   4.916   7.004   3.678  1.9945  0.8166  1.7696
  130CHL1   H4B15813   4.861   6.835   3.695  0.2090 -1.7819 -1.3172
  130CHL1    C515814   5.016   6.903   3.836  0.2643 -0.0256  0.7791
  130CHL1    C615815   4.969   6.831   3.941  0.0457  0.1482 -0.1966
  130CHL1    H615816   4.876   6.773   3.933  0.3462 -0.3521 -0.0670
  130CHL1    C715817   5.031   6.843   4.079  0.6943  0.4297 -0.6905
  130CHL1   H7A15818   4.950   6.856   4.154  0.7314  1.8860 -0.8783
  130CHL1   H7B15819   5.093   6.758   4.114  0.8410  1.0203  0.5269
  130CHL1    C815820   5.132   6.959   4.088  0.1460  0.2938 -0.0818
  130CHL1    H815821   5.069   7.051   4.092 -2.3879 -1.3459  1.1198
  130CHL1   C1415822   5.205   6.940   4.218 -0.0005 -0.3677  0.0140
  130CHL1   H1415823   5.242   6.836   4.210 -1.9511 -1.0273 -0.9418
  130CHL1   C1515824   5.119   6.935   4.348  0.8202  0.0152  0.0084
  130CHL1  H15A15825   5.032   7.003   4.339  1.4408  0.9103  0.6659
  130CHL1  H15B15826   5.094   6.829   4.369  0.6719  0.1953  0.7757
  130CHL1   C1615827   5.219   6.980   4.459 -0.1501  0.5467  0.7972
  130CHL1  H16A15828   5.176   7.067   4.513  0.1823  0.5560  1.0559
  130CHL1  H16B15829   5.238   6.894   4.527  1.7433 -1.1430 -1.6929
  130CHL1   C1715830   5.357   7.003   4.380 -0.0727 -0.1113 -0.3478
  130CHL1   H1715831   5.398   6.900   4.371 -2.7397 -1.4739  1.6257
  130CHL1   C1315832   5.316   7.042   4.241 -0.2974 -0.2570  0.2230
  130CHL1   C1815833   5.265   7.187   4.245  0.7036 -0.0663  0.0281
  130CHL1  H18A15834   5.352   7.255   4.258  0.2851  1.5827 -4.2035
  130CHL1  H18B15835   5.225   7.210   4.144  0.8436  0.4829  0.0953
  130CHL1  H18C15836   5.181   7.200   4.317  0.7271 -3.6595  0.8938
  130CHL1   C1215837   5.421   7.020   4.128 -0.6075 -0.3239 -0.2184
  130CHL1  H12A15838   5.503   7.096   4.136 -0.0872 -1.0289  1.4164
  130CHL1  H12B15839   5.473   6.922   4.134  0.1075  0.0197 -0.5952
  130CHL1   C1115840   5.346   7.049   3.991 -0.6939 -0.2501  0.1014
  130CHL1  H11A15841   5.324   7.158   3.993  1.9532  0.3819 -0.7864
  130CHL1  H11B15842   5.416   7.031   3.907  0.6728  1.6757  0.7650
  130CHL1    C915843   5.224   6.957   3.971 -0.3115 -0.3407  0.2804
  130CHL1    H915844   5.265   6.854   3.970 -0.3294 -0.3671  1.5713
  130CHL1   C1015845   5.155   6.980   3.834  0.4265 -0.1070 -0.6477
  130CHL1   C1915846   5.127   7.133   3.826 -0.1016  0.1420 -0.6384
  130CHL1  H19A15847   5.057   7.156   3.742 -0.0468  0.7135 -0.5337
  130CHL1  H19B15848   5.074   7.185   3.909  0.3182  2.1932 -1.5824
  130CHL1  H19C15849   5.221   7.189   3.807 -0.4303  1.5603  1.5494
  130CHL1    C115850   5.247   6.941   3.711 -0.0065 -0.1566  0.2790
  130CHL1   H1A15851   5.337   7.006   3.713  0.0357 -0.2087  2.5565
  130CHL1   H1B15852   5.284   6.841   3.741 -1.8475 -0.8180  0.5071
  130CHL1    C215853   5.172   6.938   3.579  0.0144 -0.9185 -0.1007
  130CHL1   H2A15854   5.236   6.912   3.492  1.4142 -1.1129  0.9600
  130CHL1   H2B15855   5.128   7.039   3.561  1.1936 -0.3619  0.0409
  130CHL1   C2015856   5.464   7.090   4.445  0.0493 -0.4506  0.1281
  130CHL1   H2015857   5.497   7.164   4.369  0.6398  0.6372  1.3924
  130CHL1   C2115858   5.598   7.013   4.474 -0.0561  0.4169 -0.1728
  130CHL1  H21A15859   5.635   6.966   4.381 -2.8920  0.1962 -1.2969
  130CHL1  H21B15860   5.560   6.928   4.534 -2.2013 -0.0796 -2.0899
  130CHL1  H21C15861   5.675   7.076   4.524 -1.4364  2.1102 -0.0978
  130CHL1   C2215862   5.403   7.178   4.562 -0.1820 -0.6056  1.0729
  130CHL1  H22A15863   5.320   7.244   4.529  0.1961  0.3580  2.0183
  130CHL1  H22B15864   5.366   7.113   4.644 -1.3992 -0.9463  0.2887
  130CHL1   C2315865   5.510   7.269   4.629  0.0861 -0.6154 -0.2034
  130CHL1  H23A15866   5.575   7.205   4.693 -1.4396 -0.9825  1.0201
  130CHL1  H23B15867   5.571   7.307   4.543  2.5300 -2.9029  0.3821
  130CHL1   C2415868   5.445   7.379   4.718 -0.4427  0.3199 -0.8343
  130CHL1  H24A15869   5.363   7.428   4.661 -0.2082 -0.2480 -1.6635
  130CHL1  H24B15870   5.404   7.322   4.804  0.2350  1.0778  0.0258
  130CHL1   C2515871   5.544   7.488   4.767 -0.3041  1.3359 -0.2036
  130CHL1   H2515872   5.596   7.530   4.678  0.0101  0.7062 -0.3291
  130CHL1   C2615873   5.473   7.596   4.847  0.4593  0.4127  0.1521
  130CHL1  H26A15874   5.548   7.642   4.915 -0.3345 -0.5883  1.7677
  130CHL1  H26B15875   5.437   7.672   4.774  1.9320  0.3502 -0.6848
  130CHL1  H26C15876   5.388   7.561   4.910  0.6568 -0.8508 -0.2548
  130CHL1   C2715877   5.664   7.431   4.843  0.0924 -0.4809 -0.0805
  130CHL1  H27A15878   5.638   7.385   4.941  1.6978 -1.8799 -0.2714
  130CHL1  H27B15879   5.720   7.360   4.779 -0.4516 -0.3789 -0.6715
  130CHL1  H27C15880   5.735   7.512   4.873  0.5948 -1.4929  1.6641
  131CHL1    C315881   1.475   3.984   3.485  0.1239  0.3251  0.7124
  131CHL1    H315882   1.486   4.092   3.507  0.7754  0.0265  1.9303
  131CHL1    O315883   1.460   3.972   3.346 -0.1619  0.7704 -0.3739
  131CHL1   H3'15884   1.365   3.981   3.332 -0.3223 -0.8572 -0.5239
  131CHL1    C415885   1.596   3.908   3.537  0.4814  0.3256 -0.2029
  131CHL1   H4A15886   1.573   3.801   3.515 -0.7140  0.4841  0.1984
  131CHL1   H4B15887   1.685   3.941   3.479  0.5989 -0.8920 -0.7467
  131CHL1    C515888   1.628   3.912   3.686  0.1705 -0.9954 -0.0576
  131CHL1    C615889   1.735   3.967   3.735 -0.4901 -0.2055 -0.2837
  131CHL1    H615890   1.814   4.006   3.670 -0.6869  2.2649  0.8281
  131CHL1    C715891   1.757   3.982   3.885 -0.3133 -0.0741 -0.5602
  131CHL1   H7A15892   1.848   3.929   3.920 -0.5389  0.9922  1.7741
  131CHL1   H7B15893   1.765   4.087   3.920 -3.7103 -0.3973  1.6380
  131CHL1    C815894   1.640   3.915   3.968 -0.0123 -0.7464  0.1797
  131CHL1    H815895   1.664   3.806   3.971  2.2454 -0.3211  3.5613
  131CHL1   C1415896   1.639   3.974   4.109 -0.5996  0.5318 -0.0184
  131CHL1   H1415897   1.621   4.083   4.096  0.0321  0.9429  2.1895
  131CHL1   C1515898   1.777   3.956   4.188  0.1596  0.2874  0.3494
  131CHL1  H15A15899   1.813   3.851   4.193  2.7913  1.0329 -1.1981
  131CHL1  H15B15900   1.857   4.026   4.156 -0.4870 -0.1002 -2.2818
  131CHL1   C1615901   1.732   3.992   4.328 -0.2859 -0.0031 -0.3326
  131CHL1  H16A15902   1.755   3.912   4.402 -0.5734  2.2475  2.3687
  131CHL1  H16B15903   1.787   4.082   4.364 -1.3118  0.0732  1.1610
  131CHL1   C1715904   1.576   4.008   4.333 -0.4404  0.0670  0.0411
  131CHL1   H1715905   1.545   4.111   4.307  0.2758  0.3577  0.3319
  131CHL1   C1315906   1.533   3.930   4.204  0.0573 -0.2867 -0.6590
  131CHL1   C1815907   1.537   3.778   4.231  0.4861  0.1831 -0.7346
  131CHL1  H18A15908   1.452   3.733   4.286 -1.4818  0.6640 -3.2186
  131CHL1  H18B15909   1.529   3.727   4.132 -0.6908  3.3713 -2.4472
  131CHL1  H18C15910   1.636   3.749   4.273  0.1554 -1.7714 -1.2072
  131CHL1   C1215911   1.399   3.962   4.144 -0.7062  0.8061  0.0905
  131CHL1  H12A15912   1.311   3.922   4.200 -1.2187  2.3871  0.4684
  131CHL1  H12B15913   1.373   4.069   4.130 -1.1083  0.4746 -1.9365
  131CHL1   C1115914   1.391   3.902   3.998 -0.0145  0.3570 -0.5676
  131CHL1  H11A15915   1.383   3.793   4.018 -0.9172  0.4937 -0.1371
  131CHL1  H11B15916   1.291   3.932   3.960 -1.5756  0.0691  2.9128
  131CHL1    C915917   1.507   3.939   3.908  0.3306 -0.3153  1.6353
  131CHL1    H915918   1.496   4.049   3.895  0.5319 -0.3578  1.1118
  131CHL1   C1015919   1.496   3.881   3.764  0.0162 -0.3746 -0.2482
  131CHL1   C1915920   1.493   3.728   3.768  0.6417 -0.6757 -0.2372
  131CHL1  H19A15921   1.399   3.704   3.822 -1.2508  2.5351 -1.7534
  131CHL1  H19B15922   1.478   3.682   3.668  2.2655 -0.1209 -0.7722
  131CHL1  H19C15923   1.583   3.684   3.816  0.9658  1.1655  0.9466
  131CHL1    C115924   1.367   3.944   3.702  0.5942  0.4001  0.0018
  131CHL1   H1A15925   1.282   3.896   3.755  1.3255  0.1975  1.0136
  131CHL1   H1B15926   1.363   4.052   3.729  1.8209  0.6038 -0.5808
  131CHL1    C215927   1.351   3.931   3.552 -0.3987  0.7476 -0.3992
  131CHL1   H2A15928   1.264   3.995   3.524  0.1694  1.5529 -0.3493
  131CHL1   H2B15929   1.329   3.824   3.532 -0.2201  1.2141 -3.7439
  131CHL1   C2015930   1.506   3.984   4.471  0.7093 -0.0453  0.1146
  131CHL1   H2015931   1.522   3.876   4.491  2.0756  0.6204  3.2073
  131CHL1   C2115932   1.352   4.027   4.449  0.0044 -0.0008 -0.0832
  131CHL1  H21A15933   1.309   4.045   4.550 -1.7441  1.9936 -1.1285
  131CHL1  H21B15934   1.292   3.957   4.387  1.3695 -0.2704 -1.1424
  131CHL1  H21C15935   1.356   4.127   4.401  0.1087  0.5079  0.9384
  131CHL1   C2215936   1.570   4.067   4.588  0.5019 -0.5241 -0.2197
  131CHL1  H22A15937   1.679   4.051   4.575  0.8534  2.6898 -2.1494
  131CHL1  H22B15938   1.548   4.173   4.564  2.2413  0.1311  0.8837
  131CHL1   C2315939   1.528   4.023   4.729 -0.6889  0.3422  0.5695
  131CHL1  H23A15940   1.588   4.087   4.797 -0.7572  1.7545 -0.6481
  131CHL1  H23B15941   1.421   4.049   4.740 -1.2777 -0.9775 -1.4485
  131CHL1   C2415942   1.558   3.884   4.759 -0.5975  0.5193 -0.5994
  131CHL1  H24A15943   1.482   3.811   4.723 -1.2189  0.8703 -0.0352
  131CHL1  H24B15944   1.656   3.856   4.717  0.1952  1.1350  0.7677
  131CHL1   C2515945   1.559   3.839   4.910 -0.3817  0.8634 -0.7896
  131CHL1   H2515946   1.479   3.883   4.973 -0.2669 -3.4635  2.8235
  131CHL1   C2615947   1.526   3.690   4.921  0.1593 -0.2478  0.3143
  131CHL1  H26A15948   1.555   3.648   5.019  0.5412  0.9621  0.7357
  131CHL1  H26B15949   1.420   3.676   4.890  0.2968 -2.5976  0.7631
  131CHL1  H26C15950   1.586   3.642   4.840 -2.5788 -1.7185 -0.9934
  131CHL1   C2715951   1.693   3.878   4.976  0.0967 -0.3186 -0.4576
  131CHL1  H27A15952   1.710   3.988   4.968  0.7746 -0.4213 -0.4508
  131CHL1  H27B15953   1.701   3.846   5.082 -1.4631  1.2075  0.1817
  131CHL1  H27C15954   1.769   3.826   4.915  2.2067  0.2579  1.5733
  132CHL1    C315955   5.128   7.646   3.529  0.5405 -0.2992 -1.0788
  132CHL1    H315956   5.024   7.685   3.534  0.6395 -0.1576  2.8915
  132CHL1    O315957   5.169   7.620   3.397  0.4978 -0.1936  0.3713
  132CHL1   H3'15958   5.252   7.572   3.407 -0.2267 -1.3081  1.3408
  132CHL1    C415959   5.216   7.760   3.602 -0.1631  0.6532  0.4326
  132CHL1   H4A15960   5.320   7.725   3.586 -0.5076  0.5558 -2.0433
  132CHL1   H4B15961   5.212   7.857   3.548 -0.3517 -0.1294 -1.0070
  132CHL1    C515962   5.183   7.759   3.751 -0.2366  0.1225  0.2526
  132CHL1    C615963   5.159   7.872   3.810  0.6518  0.3755 -1.3848
  132CHL1    H615964   5.156   7.961   3.745 -0.0576  0.3622 -1.3794
  132CHL1    C715965   5.141   7.892   3.961  0.6181 -0.2223 -0.4893
  132CHL1   H7A15966   5.211   7.972   3.993  0.5820 -0.5949  0.5658
  132CHL1   H7B15967   5.039   7.930   3.981  1.1071  0.2350  1.3623
  132CHL1    C815968   5.175   7.764   4.038  0.3498  0.3687 -0.7935
  132CHL1    H815969   5.287   7.761   4.036  0.3235 -0.9558 -0.8968
  132CHL1   C1415970   5.125   7.771   4.190  0.1588 -0.5667  0.0352
  132CHL1   H1415971   5.015   7.769   4.181  0.1628  0.9809 -0.6806
  132CHL1   C1515972   5.155   7.895   4.264 -0.8973 -0.0367  0.3011
  132CHL1  H15A15973   5.263   7.919   4.256 -0.8477 -0.3753 -0.0671
  132CHL1  H15B15974   5.094   7.982   4.235 -1.5663  0.3762  2.7130
  132CHL1   C1615975   5.128   7.864   4.417 -0.8107 -0.5459  0.4053
  132CHL1  H16A15976   5.220   7.885   4.475  0.8482 -0.8152 -1.9764
  132CHL1  H16B15977   5.035   7.918   4.444  0.7152  1.0474  2.7983
  132CHL1   C1715978   5.101   7.710   4.417  0.5975 -0.4014 -0.1324
  132CHL1   H1715979   4.990   7.712   4.420  0.6188  0.0142  0.8020
  132CHL1   C1315980   5.156   7.654   4.286 -0.2788  0.3936  0.6172
  132CHL1   C1815981   5.307   7.642   4.309 -0.3004 -0.0961 -0.1624
  132CHL1  H18A15982   5.355   7.624   4.211 -1.4405 -0.1208 -0.7367
  132CHL1  H18B15983   5.361   7.730   4.350  3.6559 -2.1278 -0.6000
  132CHL1  H18C15984   5.336   7.551   4.365 -0.9284 -1.6868 -2.2721
  132CHL1   C1215985   5.096   7.524   4.220 -0.6520 -0.5003 -0.1057
  132CHL1  H12A15986   5.133   7.439   4.282 -0.4783  0.2711  0.8849
  132CHL1  H12B15987   4.986   7.531   4.210 -0.7547 -0.7277  0.7673
  132CHL1   C1115988   5.149   7.510   4.069  0.6396  0.0857 -0.5159
  132CHL1  H11A15989   5.259   7.498   4.078  0.5124  0.0117  1.1002
  132CHL1  H11B15990   5.097   7.428   4.016 -0.0897  0.5243 -0.4987
  132CHL1    C915991   5.129   7.633   3.976  0.2774  0.1887  0.4975
  132CHL1    H915992   5.018   7.631   3.972  0.3099 -2.3800 -0.7330
  132CHL1   C1015993   5.178   7.626   3.828  0.7275  0.4691  0.4984
  132CHL1   C1915994   5.316   7.558   3.827  0.1272 -0.1166 -0.1779
  132CHL1  H19A15995   5.311   7.452   3.858  0.3093  0.2926  1.3392
  132CHL1  H19B15996   5.367   7.560   3.728 -1.5593  2.0700 -1.0983
  132CHL1  H19C15997   5.376   7.610   3.905  0.5169  0.2955 -0.7346
  132CHL1    C115998   5.083   7.535   3.748 -0.5861  0.5069  0.0259
  132CHL1   H1A15999   5.077   7.438   3.801 -2.0683 -0.0716 -1.1220
  132CHL1   H1B16000   4.985   7.588   3.755 -0.9244 -0.0342 -0.4644
  132CHL1    C216001   5.123   7.513   3.604  0.4897  0.2893  0.5698
  132CHL1   H2A16002   5.058   7.448   3.541 -0.4782  2.2592 -0.5615
  132CHL1   H2B16003   5.224   7.468   3.604  2.0969  3.6564  0.6477
  132CHL1   C2016004   5.135   7.642   4.548 -0.7477 -0.3027  0.0856
  132CHL1   H2016005   5.245   7.639   4.558 -0.4947  2.0295 -1.2867
  132CHL1   C2116006   5.084   7.493   4.539  0.1149  0.7293  0.5039
  132CHL1  H21A16007   5.150   7.430   4.476  0.4113  0.9404  0.6028
  132CHL1  H21B16008   4.982   7.494   4.494 -1.2403  0.3239  3.3709
  132CHL1  H21C16009   5.057   7.452   4.638  1.6960  0.2608  0.7701
  132CHL1   C2216010   5.073   7.720   4.670 -0.2487 -0.1994 -0.6510
  132CHL1  H22A16011   5.100   7.828   4.678  0.3008 -0.4383  1.0557
  132CHL1  H22B16012   4.964   7.725   4.651 -0.6573 -0.2182  1.4843
  132CHL1   C2316013   5.073   7.654   4.809 -0.3774 -0.0403 -0.2099
  132CHL1  H23A16014   5.029   7.552   4.811  0.6920 -0.6019 -2.4495
  132CHL1  H23B16015   5.180   7.641   4.839 -0.1668 -0.4352 -1.1044
  132CHL1   C2416016   5.009   7.748   4.919 -0.8719  0.4527 -0.0113
  132CHL1  H24A16017   5.050   7.851   4.916 -0.4309  0.3761  2.2545
  132CHL1  H24B16018   4.901   7.757   4.894 -0.4349 -0.7320 -2.7317
  132CHL1   C2516019   5.026   7.697   5.070  0.8884  0.2127  0.2887
  132CHL1   H2516020   5.134   7.687   5.096  0.1332 -1.8708  3.0800
  132CHL1   C2616021   4.969   7.801   5.165  0.2814 -0.0518  0.3095
  132CHL1  H26A16022   4.861   7.821   5.146  0.5862  0.6263 -0.8145
  132CHL1  H26B16023   4.993   7.760   5.265  2.4489  0.9893  0.2545
  132CHL1  H26C16024   5.028   7.894   5.148  0.3852 -0.4713 -2.0332
  132CHL1   C2716025   4.970   7.555   5.101  0.1530 -0.3499  1.2285
  132CHL1  H27A16026   4.866   7.536   5.065 -0.1854  0.0903  1.9520
  132CHL1  H27B16027   5.028   7.481   5.042 -0.2848  0.7769 -0.6890
  132CHL1  H27C16028   4.980   7.520   5.206  0.5208  1.7898  1.9426
  133CHL1    C316029   0.481   1.431   3.698 -0.1986  0.0293 -0.2254
  133CHL1    H316030   0.548   1.497   3.640  1.6055 -1.9819 -0.5745
  133CHL1    O316031   0.382   1.373   3.609  0.0777  0.2389 -0.0475
  133CHL1   H3'16032   0.431   1.307   3.560 -0.8341  1.4835 -2.8129
  133CHL1    C416033   0.555   1.315   3.767  0.4366  0.1358 -0.2808
  133CHL1   H4A16034   0.477   1.241   3.793  0.7029 -0.2379 -0.5331
  133CHL1   H4B16035   0.620   1.267   3.691  1.9032  2.7030 -0.8019
  133CHL1    C516036   0.632   1.361   3.887 -0.1958  0.3328  0.3560
  133CHL1    C616037   0.765   1.346   3.896  0.4314  0.3072  0.3506
  133CHL1    H616038   0.803   1.293   3.808  0.0029  2.9115 -1.5489
  133CHL1    C716039   0.854   1.397   4.007 -0.5114  0.4602 -0.4798
  133CHL1   H7A16040   0.928   1.323   4.043 -1.6799 -0.9440 -0.8488
  133CHL1   H7B16041   0.908   1.486   3.967 -0.7609  1.3995  1.1986
  133CHL1    C816042   0.774   1.434   4.129  0.6541 -0.7193  0.0617
  133CHL1    H816043   0.742   1.341   4.181  0.9374 -0.1846  1.2324
  133CHL1   C1416044   0.860   1.515   4.223 -0.1693 -0.9545  0.2945
  133CHL1   H1416045   0.871   1.611   4.167 -0.1951  0.3224  2.3680
  133CHL1   C1516046   1.001   1.455   4.264 -0.0776 -0.0907  0.0204
  133CHL1  H15A16047   0.961   1.356   4.296  0.0750 -0.6684 -1.5289
  133CHL1  H15B16048   1.070   1.428   4.182  2.1320  1.8518  1.1096
  133CHL1   C1616049   1.047   1.548   4.377  0.6022  0.3995 -0.3040
  133CHL1  H16A16050   1.050   1.488   4.471 -0.8717 -1.8268 -1.5684
  133CHL1  H16B16051   1.133   1.615   4.357  0.0395  1.1747 -0.1573
  133CHL1   C1716052   0.921   1.638   4.410  0.1449 -1.3679  1.1445
  133CHL1   H1716053   0.936   1.719   4.336  0.1216 -2.2221  0.1760
  133CHL1   C1316054   0.798   1.562   4.354  0.1680  0.2257  0.6909
  133CHL1   C1816055   0.767   1.446   4.456 -0.0976  0.2564 -0.6495
  133CHL1  H18A16056   0.850   1.374   4.475 -1.1955 -0.8373  0.1787
  133CHL1  H18B16057   0.736   1.484   4.555 -1.2614  1.1538 -1.3318
  133CHL1  H18C16058   0.684   1.382   4.418  1.3288 -0.6110 -2.4776
  133CHL1   C1216059   0.671   1.645   4.314 -0.1666  0.1764  0.8409
  133CHL1  H12A16060   0.604   1.672   4.398 -0.4060 -0.4542  0.8569
  133CHL1  H12B16061   0.695   1.741   4.262 -1.4075  0.8562  1.4616
  133CHL1   C1116062   0.572   1.569   4.217 -0.6587  0.6194  0.2340
  133CHL1  H11A16063   0.520   1.494   4.281 -1.4922  0.0774 -1.0242
  133CHL1  H11B16064   0.489   1.636   4.186 -3.1095 -1.7863  1.1591
  133CHL1    C916065   0.648   1.517   4.093 -0.5548 -0.3524 -0.4481
  133CHL1    H916066   0.692   1.608   4.046  0.1160 -0.6272 -0.3657
  133CHL1   C1016067   0.555   1.454   3.985 -1.0578  0.2697  0.3331
  133CHL1   C1916068   0.454   1.360   4.059 -0.2829  0.0877  0.0172
  133CHL1  H19A16069   0.508   1.298   4.135 -0.1363  0.3505  0.1305
  133CHL1  H19B16070   0.379   1.428   4.103  1.0050  1.2407  0.4928
  133CHL1  H19C16071   0.388   1.297   3.996 -1.3906 -0.6207  1.7963
  133CHL1    C116072   0.485   1.572   3.905  0.0961 -0.2124 -0.7809
  133CHL1   H1A16073   0.415   1.625   3.973  0.2235 -0.0653 -0.7628
  133CHL1   H1B16074   0.565   1.639   3.868  0.5645  0.4359  1.2650
  133CHL1    C216075   0.396   1.511   3.792  0.6243 -0.2414  0.2699
  133CHL1   H2A16076   0.365   1.592   3.723  0.3694 -0.3727  0.2307
  133CHL1   H2B16077   0.316   1.448   3.836  0.5443  0.2089  0.7798
  133CHL1   C2016078   0.924   1.689   4.553  0.4675 -0.3459  0.3229
  133CHL1   H2016079   0.908   1.602   4.620  1.3350  0.3271  1.4213
  133CHL1   C2116080   0.806   1.782   4.595  0.5053 -0.3588  0.6556
  133CHL1  H21A16081   0.800   1.878   4.539  1.9597 -1.2215 -1.1063
  133CHL1  H21B16082   0.808   1.805   4.704 -1.3719 -1.3653  0.9446
  133CHL1  H21C16083   0.714   1.722   4.578  1.1605 -1.0045 -0.8524
  133CHL1   C2216084   1.058   1.761   4.580 -0.0767 -0.2530  0.0275
  133CHL1  H22A16085   1.145   1.698   4.553  0.5309  1.4390 -2.2149
  133CHL1  H22B16086   1.076   1.850   4.517  0.5681 -1.2849 -1.2719
  133CHL1   C2316087   1.076   1.807   4.723  0.3680 -0.1969 -0.7780
  133CHL1  H23A16088   1.018   1.890   4.769  0.1235 -0.8544  0.1261
  133CHL1  H23B16089   1.041   1.714   4.774 -2.9901  1.2025 -0.2377
  133CHL1   C2416090   1.217   1.841   4.742 -1.1423  0.0736  0.4497
  133CHL1  H24A16091   1.280   1.754   4.714 -0.5201  0.5457  0.3683
  133CHL1  H24B16092   1.247   1.930   4.683  1.0312 -2.2987 -2.2875
  133CHL1   C2516093   1.245   1.877   4.891 -0.3455 -1.3553  0.6383
  133CHL1   H2516094   1.154   1.926   4.931 -0.1627 -1.3989  1.1154
  133CHL1   C2616095   1.261   1.757   4.987 -0.3569 -0.7560  0.0722
  133CHL1  H26A16096   1.161   1.711   5.001 -0.8805  0.6114  1.1380
  133CHL1  H26B16097   1.338   1.680   4.965  1.9704  1.6284 -0.6510
  133CHL1  H26C16098   1.294   1.796   5.086 -1.0536  2.0215 -0.6773
  133CHL1   C2716099   1.355   1.984   4.900  0.1194  0.1076  0.1162
  133CHL1  H27A16100   1.445   1.935   4.858  0.3172  0.9212 -0.4172
  133CHL1  H27B16101   1.342   2.075   4.838 -0.4144  0.2716  0.4601
  133CHL1  H27C16102   1.377   2.009   5.006  0.2238 -2.3593  0.7524
  134CHL1    C316103   6.672   2.430   3.454  0.1215  0.6085 -0.0809
  134CHL1    H316104   6.684   2.539   3.473  0.1166  0.4797  0.6855
  134CHL1    O316105   6.632   2.425   3.319  0.2707 -0.2769 -0.4087
  134CHL1   H3'16106   6.572   2.351   3.308 -0.9802  0.6577 -0.1082
  134CHL1    C416107   6.794   2.349   3.483 -0.5967  0.2226 -0.0878
  134CHL1   H4A16108   6.785   2.241   3.460  4.8361 -1.1284  2.4449
  134CHL1   H4B16109   6.872   2.374   3.408 -1.1883  0.8337 -0.5107
  134CHL1    C516110   6.842   2.372   3.626 -0.0592 -0.5409  0.3924
  134CHL1    C616111   6.958   2.431   3.652 -0.2708 -0.8715  0.2406
  134CHL1    H616112   7.024   2.465   3.571  0.4056 -0.0940  1.0957
  134CHL1    C716113   7.011   2.464   3.789 -0.5037  0.1616 -0.3393
  134CHL1   H7A16114   7.116   2.430   3.799  0.1308  2.2678  0.5488
  134CHL1   H7B16115   7.019   2.574   3.805  0.7555  0.0620 -0.2308
  134CHL1    C816116   6.926   2.411   3.904 -0.1865  0.5896 -0.1283
  134CHL1    H816117   6.950   2.302   3.904 -1.3006  0.3236  0.3997
  134CHL1   C1416118   6.960   2.471   4.033 -0.1977 -0.3102 -0.1379
  134CHL1   H1416119   6.941   2.579   4.014 -0.8858 -0.6228 -1.2956
  134CHL1   C1516120   7.107   2.451   4.090  0.2716 -0.5419 -0.5928
  134CHL1  H15A16121   7.132   2.343   4.085 -1.4243 -0.9745 -0.2777
  134CHL1  H15B16122   7.174   2.519   4.033  0.0947  1.0175  0.9539
  134CHL1   C1616123   7.089   2.499   4.232 -0.5134 -0.2253 -0.1087
  134CHL1  H16A16124   7.142   2.434   4.305  1.1430  1.5888  0.3958
  134CHL1  H16B16125   7.140   2.597   4.243 -0.7075 -0.3855  2.9221
  134CHL1   C1716126   6.936   2.514   4.267 -0.0086  0.2882 -1.0783
  134CHL1   H1716127   6.915   2.622   4.252  4.3143  1.3363 -0.8869
  134CHL1   C1316128   6.873   2.434   4.155  0.1694  0.0871  0.8048
  134CHL1   C1816129   6.881   2.284   4.195 -0.3544 -0.7598  0.1403
  134CHL1  H18A16130   6.890   2.212   4.111  1.5347 -2.0604  1.3837
  134CHL1  H18B16131   6.964   2.263   4.266 -1.6740 -1.6657  1.4588
  134CHL1  H18C16132   6.793   2.251   4.254  0.6633  1.0455  2.8202
  134CHL1   C1216133   6.729   2.472   4.113 -0.0826 -0.2692  0.0047
  134CHL1  H12A16134   6.663   2.435   4.194  0.7025 -0.5623  0.5203
  134CHL1  H12B16135   6.724   2.582   4.098 -0.8104 -0.2396  0.3974
  134CHL1   C1116136   6.685   2.409   3.984 -0.2626  0.2459  0.8631
  134CHL1  H11A16137   6.669   2.301   4.001 -0.3196  0.1552  0.2399
  134CHL1  H11B16138   6.584   2.451   3.967 -0.2794 -0.9193 -2.8356
  134CHL1    C916139   6.775   2.434   3.862  0.5243  0.5515  0.1708
  134CHL1    H916140   6.771   2.544   3.842 -2.8468  1.0557  2.8814
  134CHL1   C1016141   6.734   2.352   3.737 -0.4567  0.3877  0.3071
  134CHL1   C1916142   6.717   2.202   3.761 -0.1041 -0.2953  0.2208
  134CHL1  H19A16143   6.645   2.179   3.842  1.3362  1.1542  1.9707
  134CHL1  H19B16144   6.688   2.151   3.666  2.4365 -1.0434 -0.2093
  134CHL1  H19C16145   6.811   2.153   3.792  0.1292 -0.1783 -0.2938
  134CHL1    C116146   6.596   2.403   3.689  0.3138  0.7397  0.0248
  134CHL1   H1A16147   6.516   2.369   3.757  0.6817  2.2729  1.2911
  134CHL1   H1B16148   6.596   2.513   3.704 -1.1388  0.9578 -1.3025
  134CHL1    C216149   6.557   2.383   3.542  0.2103 -0.0534 -0.4503
  134CHL1   H2A16150   6.466   2.439   3.510  0.4423 -0.1586 -1.3282
  134CHL1   H2B16151   6.532   2.276   3.526  0.8953 -0.4465  0.9524
  134CHL1   C2016152   6.902   2.497   4.419  0.4215 -0.3380  1.2287
  134CHL1   H2016153   6.946   2.401   4.453  3.0021 -0.5526 -2.2239
  134CHL1   C2116154   6.748   2.498   4.446  0.2409 -0.1332 -1.1370
  134CHL1  H21A16155   6.707   2.589   4.398  1.8753  3.1598  3.0736
  134CHL1  H21B16156   6.736   2.493   4.556 -1.0956 -3.0107 -1.3207
  134CHL1  H21C16157   6.712   2.405   4.397  0.1873 -0.5698 -0.2932
  134CHL1   C2216158   6.964   2.595   4.522 -0.2327 -0.2131 -1.0338
  134CHL1  H22A16159   6.932   2.700   4.503 -2.8687 -1.0169 -1.5562
  134CHL1  H22B16160   6.932   2.581   4.627  1.2085  1.2855 -0.3655
  134CHL1   C2316161   7.113   2.571   4.546  0.0327 -0.0735  0.5546
  134CHL1  H23A16162   7.140   2.463   4.552  0.1597 -0.1275 -0.6524
  134CHL1  H23B16163   7.178   2.605   4.463  1.8402 -1.0676  1.5205
  134CHL1   C2416164   7.168   2.634   4.670  0.0203  0.2296  0.3399
  134CHL1  H24A16165   7.140   2.741   4.670 -0.6563  0.0700 -1.0532
  134CHL1  H24B16166   7.127   2.581   4.759 -0.1706  1.8023  1.2267
  134CHL1   C2516167   7.324   2.640   4.684  0.7793 -0.5624 -0.4683
  134CHL1   H2516168   7.363   2.685   4.590  0.5233  0.8378  0.0725
  134CHL1   C2616169   7.366   2.719   4.813  0.0712  0.2695 -0.2769
  134CHL1  H26A16170   7.337   2.669   4.908  0.1304  1.4130  0.3591
  134CHL1  H26B16171   7.477   2.718   4.806 -0.0021 -1.5853 -2.4411
  134CHL1  H26C16172   7.336   2.826   4.822 -0.0647  0.1299  1.1882
  134CHL1   C2716173   7.380   2.501   4.704 -0.2482 -0.5876 -0.0738
  134CHL1  H27A16174   7.491   2.497   4.707 -0.2551 -0.3703  0.8285
  134CHL1  H27B16175   7.338   2.459   4.798  1.3334 -1.2863  0.3565
  134CHL1  H27C16176   7.355   2.428   4.624  1.1565 -0.6115 -0.5171
  135CHL1    C316177   7.452   2.621   3.493 -0.1075 -0.7651  0.5901
  135CHL1    H316178   7.498   2.524   3.463 -0.3438 -0.5409 -0.5448
  135CHL1    O316179   7.378   2.671   3.386 -0.2233  0.0366  0.0403
  135CHL1   H3'16180   7.304   2.610   3.380  0.6924 -1.0817 -0.2206
  135CHL1    C416181   7.362   2.594   3.603 -0.0871  0.6820 -0.3215
  135CHL1   H4A16182   7.295   2.679   3.628  0.0549  1.2081 -1.6423
  135CHL1   H4B16183   7.278   2.526   3.577 -0.6551  0.8517  1.0117
  135CHL1    C516184   7.432   2.529   3.725 -0.3758 -0.2771 -0.2538
  135CHL1    C616185   7.403   2.405   3.773  0.1237 -1.3672  0.3040
  135CHL1    H616186   7.326   2.344   3.723  0.6213 -1.3999 -0.4393
  135CHL1    C716187   7.479   2.339   3.883  0.3227  0.2132  0.3385
  135CHL1   H7A16188   7.405   2.270   3.930 -0.2329  0.7733  0.3004
  135CHL1   H7B16189   7.564   2.279   3.843 -0.2171  0.2327 -0.9035
  135CHL1    C816190   7.543   2.446   3.976 -0.2961 -0.4991 -0.7232
  135CHL1    H816191   7.456   2.497   4.023 -0.5166 -0.3135 -1.3195
  135CHL1   C1416192   7.628   2.384   4.090  0.0764  0.1722 -0.0225
  135CHL1   H1416193   7.711   2.327   4.043 -0.2391 -0.8563  0.6350
  135CHL1   C1516194   7.564   2.278   4.181 -0.0670  0.0981 -0.2363
  135CHL1  H15A16195   7.466   2.314   4.219  0.9268  0.4911  2.1064
  135CHL1  H15B16196   7.559   2.177   4.135  2.7352 -1.5863  2.7998
  135CHL1   C1616197   7.667   2.259   4.291  0.0820 -0.5267 -1.0136
  135CHL1  H16A16198   7.612   2.251   4.387 -0.7349 -0.8339 -1.4976
  135CHL1  H16B16199   7.720   2.163   4.271  2.0750  0.3157 -0.0614
  135CHL1   C1716200   7.758   2.385   4.290 -0.2067  0.1683  0.0213
  135CHL1   H1716201   7.852   2.358   4.237 -0.2754  1.2822 -0.6902
  135CHL1   C1316202   7.690   2.484   4.187  0.2101  0.4592 -0.6050
  135CHL1   C1816203   7.587   2.559   4.272  0.2642 -0.1795 -0.3012
  135CHL1  H18A16204   7.640   2.645   4.318 -0.8310  0.6483 -0.5489
  135CHL1  H18B16205   7.509   2.606   4.209 -0.9121 -1.3312  0.2565
  135CHL1  H18C16206   7.539   2.489   4.343  0.7516  0.3727  0.5841
  135CHL1   C1216207   7.782   2.575   4.110  0.3015  0.0831  0.3657
  135CHL1  H12A16208   7.821   2.652   4.181  1.1885 -0.3344  0.3385
  135CHL1  H12B16209   7.866   2.514   4.073  2.1485  2.9198 -0.4635
  135CHL1   C1116210   7.704   2.645   4.000 -0.7388 -0.2508 -0.1302
  135CHL1  H11A16211   7.631   2.713   4.049  1.6595  3.0338 -0.7800
  135CHL1  H11B16212   7.771   2.716   3.947 -1.0161 -0.4513 -0.7611
  135CHL1    C916213   7.625   2.553   3.899 -0.4063  0.4207 -0.9498
  135CHL1    H916214   7.700   2.497   3.837  0.1376  0.9861 -0.8147
  135CHL1   C1016215   7.539   2.626   3.787  0.0879  0.1071  0.4385
  135CHL1   C1916216   7.480   2.761   3.839 -0.2729 -0.2373  0.5051
  135CHL1  H19A16217   7.415   2.736   3.926 -0.9842  0.6840  0.2571
  135CHL1  H19B16218   7.558   2.833   3.871 -1.1304  1.1800 -0.4691
  135CHL1  H19C16219   7.419   2.809   3.759 -0.2484 -1.7038 -0.4392
  135CHL1    C116220   7.634   2.672   3.668  0.4081  0.0824 -0.5731
  135CHL1   H1A16221   7.700   2.750   3.712  1.6804 -1.6012  0.6599
  135CHL1   H1B16222   7.705   2.588   3.649  0.8319  0.4319 -0.5449
  135CHL1    C216223   7.571   2.718   3.534  0.7280  0.1019  0.4039
  135CHL1   H2A16224   7.652   2.727   3.459  2.6479 -0.7949  2.2789
  135CHL1   H2B16225   7.538   2.823   3.546  0.9299  0.1797  0.2714
  135CHL1   C2016226   7.805   2.436   4.436 -0.4771 -0.5217  0.7814
  135CHL1   H2016227   7.714   2.475   4.486 -0.4460 -0.8563  1.1104
  135CHL1   C2116228   7.910   2.548   4.418 -0.1437  0.7562  0.2989
  135CHL1  H21A16229   7.873   2.644   4.377  0.5055  0.8184 -0.1482
  135CHL1  H21B16230   7.998   2.509   4.362 -1.1857 -1.8662  0.3536
  135CHL1  H21C16231   7.946   2.562   4.523 -0.1656 -0.0375  0.4194
  135CHL1   C2216232   7.868   2.329   4.526  0.4870 -0.4698  0.1089
  135CHL1  H22A16233   7.895   2.372   4.624 -0.1141  1.5187 -0.5459
  135CHL1  H22B16234   7.787   2.256   4.547 -0.4361  0.6913  0.6957
  135CHL1   C2316235   7.988   2.259   4.459  0.1605 -0.1959 -0.0674
  135CHL1  H23A16236   7.981   2.254   4.348  3.5059  0.6613 -0.4331
  135CHL1  H23B16237   8.085   2.305   4.486  0.2051 -0.8534  0.9326
  135CHL1   C2416238   8.002   2.112   4.510 -0.3819  0.0360  0.1492
  135CHL1  H24A16239   8.007   2.127   4.620  0.3234  1.3615 -0.0424
  135CHL1  H24B16240   7.917   2.047   4.480  1.7993 -2.2288 -1.5516
  135CHL1   C2516241   8.125   2.035   4.477  0.1686  0.5204 -1.0935
  135CHL1   H2516242   8.210   2.087   4.526 -1.7219 -0.1043  3.3080
  135CHL1   C2616243   8.122   1.898   4.554  0.1888  0.5011  0.0096
  135CHL1  H26A16244   8.149   1.904   4.662 -0.5765 -0.4620  0.2756
  135CHL1  H26B16245   8.027   1.843   4.536 -0.1586  0.2792  2.2468
  135CHL1  H26C16246   8.205   1.833   4.518 -0.6761 -1.2534  1.0133
  135CHL1   C2716247   8.155   2.017   4.322  1.0606 -0.0016  0.9831
  135CHL1  H27A16248   8.166   2.113   4.267 -0.3717 -0.9945 -1.1654
  135CHL1  H27B16249   8.238   1.944   4.318 -0.3591 -1.6397  0.1537
  135CHL1  H27C16250   8.072   1.966   4.269  1.4203  1.7081 -1.3718
  136CHL1    C316251   7.152   0.855   3.733 -0.0744 -0.0185 -0.1514
  136CHL1    H316252   7.056   0.799   3.729 -0.2116  0.2286 -0.3689
  136CHL1    O316253   7.207   0.884   3.609 -0.0316  0.7232  0.1985
  136CHL1   H3'16254   7.296   0.918   3.623  1.0173 -1.4157 -0.6552
  136CHL1    C416255   7.114   0.987   3.791  0.5798 -0.2549 -0.1954
  136CHL1   H4A16256   7.197   1.061   3.797  0.6422  0.1976 -4.0569
  136CHL1   H4B16257   7.037   1.026   3.722  0.6103  1.3466  0.6078
  136CHL1    C516258   7.052   0.971   3.926 -0.7845 -0.2515  0.0049
  136CHL1    C616259   6.924   1.007   3.954  0.0983  0.9911  0.5869
  136CHL1    H616260   6.872   1.043   3.864  1.6257 -1.1998 -1.3059
  136CHL1    C716261   6.858   0.984   4.084 -0.5757 -1.0095 -0.1695
  136CHL1   H7A16262   6.817   1.078   4.126 -1.3990 -0.9388 -1.0920
  136CHL1   H7B16263   6.778   0.909   4.067 -0.9106 -0.1818 -2.7171
  136CHL1    C816264   6.951   0.934   4.203  0.6172  0.1531  0.1262
  136CHL1    H816265   7.007   1.019   4.246 -0.7111  0.9777  0.2890
  136CHL1   C1416266   6.875   0.858   4.303 -1.0136 -0.1701  0.7641
  136CHL1   H1416267   6.840   0.762   4.260  2.0550 -0.8987 -0.3521
  136CHL1   C1516268   6.745   0.926   4.358  0.2145 -0.7823 -0.0767
  136CHL1  H15A16269   6.768   1.034   4.371  0.6865 -1.1197  2.4961
  136CHL1  H15B16270   6.655   0.919   4.293 -0.9395 -0.8524  1.4666
  136CHL1   C1616271   6.724   0.863   4.496 -0.1848  0.1874 -0.2347
  136CHL1  H16A16272   6.740   0.936   4.579  1.9629  2.8289 -2.7458
  136CHL1  H16B16273   6.620   0.824   4.501 -0.2853 -0.0213 -2.7589
  136CHL1   C1716274   6.843   0.759   4.524 -0.2518 -0.0268 -0.4393
  136CHL1   H1716275   6.808   0.660   4.486  1.1062 -0.3958 -0.7768
  136CHL1   C1316276   6.954   0.819   4.425 -0.4087  0.2926  0.2658
  136CHL1   C1816277   7.015   0.945   4.493 -0.2985  0.0733 -0.1596
  136CHL1  H18A16278   7.047   0.912   4.594 -0.1400 -1.0170 -0.5416
  136CHL1  H18B16279   7.108   0.975   4.440 -0.6194  2.1159  0.3777
  136CHL1  H18C16280   6.955   1.038   4.500  1.6611  1.3281  0.8554
  136CHL1   C1216281   7.058   0.721   4.381 -0.4248  0.0959 -0.6261
  136CHL1  H12A16282   7.131   0.697   4.462 -1.4778  0.1624  0.3656
  136CHL1  H12B16283   7.018   0.622   4.348 -1.7953  0.3639  0.1685
  136CHL1   C1116284   7.143   0.780   4.265 -0.4737 -0.2944  0.4974
  136CHL1  H11A16285   7.211   0.854   4.313  0.1489 -1.0668  0.8309
  136CHL1  H11B16286   7.205   0.695   4.231 -1.2497 -1.4120  1.7632
  136CHL1    C916287   7.058   0.840   4.154  0.5724  0.5988  0.0161
  136CHL1    H916288   7.005   0.749   4.117 -0.4639  0.7760  1.0163
  136CHL1   C1016289   7.141   0.900   4.034  0.4480 -0.3922  0.4654
  136CHL1   C1916290   7.244   1.008   4.077 -0.2833  0.0945 -0.1189
  136CHL1  H19A16291   7.313   1.033   3.993  0.7528 -2.1745 -0.0126
  136CHL1  H19B16292   7.205   1.097   4.131  0.1120 -0.3221  0.8882
  136CHL1  H19C16293   7.315   0.958   4.147 -0.1229  0.1798 -0.2219
  136CHL1    C116294   7.218   0.777   3.966  0.1951  0.2943 -0.3410
  136CHL1   H1A16295   7.294   0.732   4.034  0.5622  0.9600 -0.3053
  136CHL1   H1B16296   7.137   0.702   3.954 -0.9397  1.5292 -0.7396
  136CHL1    C216297   7.263   0.797   3.822  0.3811  0.3504  0.2941
  136CHL1   H2A16298   7.294   0.703   3.771 -2.8118 -0.5899 -0.1791
  136CHL1   H2B16299   7.355   0.859   3.822  2.6444 -2.8062  0.2942
  136CHL1   C2016300   6.878   0.737   4.672 -0.1834 -0.0636  0.5371
  136CHL1   H2016301   6.918   0.829   4.719  0.7842  0.3230 -0.9794
  136CHL1   C2116302   6.996   0.636   4.680  0.0716 -0.3574 -0.1839
  136CHL1  H21A16303   6.974   0.563   4.600  0.3468 -0.3730 -0.2461
  136CHL1  H21B16304   7.009   0.583   4.777  1.7257 -0.9231 -0.6965
  136CHL1  H21C16305   7.090   0.691   4.658  0.1912 -0.6362 -0.3622
  136CHL1   C2216306   6.758   0.689   4.760  0.2988  0.5508  0.5999
  136CHL1  H22A16307   6.803   0.656   4.856 -0.3007 -1.6390  0.1935
  136CHL1  H22B16308   6.686   0.773   4.766 -0.5401 -0.1573  0.7826
  136CHL1   C2316309   6.670   0.567   4.707 -0.1220 -0.5357 -0.3259
  136CHL1  H23A16310   6.630   0.590   4.606  0.4547  1.2541 -0.1827
  136CHL1  H23B16311   6.738   0.479   4.700  1.0241  0.4135 -1.4050
  136CHL1   C2416312   6.561   0.528   4.813  0.0486 -0.0255 -0.5189
  136CHL1  H24A16313   6.604   0.485   4.906 -1.8431 -2.0411 -0.4914
  136CHL1  H24B16314   6.506   0.619   4.845  0.7298  0.2846 -0.2139
  136CHL1   C2516315   6.459   0.425   4.752  0.1904 -0.5567  0.0956
  136CHL1   H2516316   6.429   0.464   4.652  2.4823  0.8528 -0.1195
  136CHL1   C2616317   6.522   0.284   4.740 -0.8609 -1.0190 -0.4662
  136CHL1  H26A16318   6.612   0.297   4.676  0.5881  1.0176  1.8475
  136CHL1  H26B16319   6.544   0.253   4.844  0.8245  1.6857  0.0536
  136CHL1  H26C16320   6.441   0.217   4.702 -0.3606 -2.4591  0.8696
  136CHL1   C2716321   6.339   0.424   4.840 -0.5176  0.6212 -0.5146
  136CHL1  H27A16322   6.278   0.340   4.801 -0.1869  1.4780 -3.0819
  136CHL1  H27B16323   6.359   0.400   4.947 -0.4639 -0.7639 -0.8124
  136CHL1  H27C16324   6.292   0.522   4.821 -0.4526  0.3835 -2.0536
  137CHL1    C316325   2.028   0.973   3.630  0.1722 -0.1431  0.0586
  137CHL1    H316326   2.028   0.878   3.687  1.0241 -1.3826 -1.9365
  137CHL1    O316327   1.964   0.953   3.504 -0.2158  0.0681 -0.0600
  137CHL1   H3'16328   2.003   0.871   3.473  0.3674 -0.1813  1.2785
  137CHL1    C416329   1.954   1.087   3.697 -0.1143 -0.9707 -0.1552
  137CHL1   H4A16330   1.952   1.177   3.632  0.9058  1.5778  3.0996
  137CHL1   H4B16331   1.850   1.050   3.710 -0.1111 -1.3063 -1.0240
  137CHL1    C516332   2.004   1.124   3.837 -0.4486 -0.6117 -0.5433
  137CHL1    C616333   1.925   1.126   3.945 -0.0859  0.6818 -0.0182
  137CHL1    H616334   1.820   1.102   3.923  0.9273 -2.3964 -2.1292
  137CHL1    C716335   1.973   1.154   4.086 -0.9199  0.0436 -0.0104
  137CHL1   H7A16336   1.911   1.237   4.126 -0.4529  1.0303 -1.2624
  137CHL1   H7B16337   1.949   1.063   4.145  0.4563 -0.4031 -0.0857
  137CHL1    C816338   2.123   1.190   4.090 -0.0405 -0.3386  0.2579
  137CHL1    H816339   2.138   1.298   4.068  2.1789 -0.2738  1.7981
  137CHL1   C1416340   2.169   1.149   4.228  0.6356 -0.1911  0.7287
  137CHL1   H1416341   2.160   1.039   4.238 -2.0605  0.0974  2.6323
  137CHL1   C1516342   2.092   1.201   4.348  0.6708  0.2938 -0.1105
  137CHL1  H15A16343   2.047   1.301   4.328 -1.1941 -0.5944 -0.5324
  137CHL1  H15B16344   2.014   1.127   4.374  0.8633  0.2090  0.2216
  137CHL1   C1616345   2.198   1.211   4.459  0.3200  0.4211 -0.3458
  137CHL1  H16A16346   2.211   1.319   4.482  0.6827  1.0635 -3.1953
  137CHL1  H16B16347   2.164   1.166   4.554 -0.4996  0.8795 -0.4162
  137CHL1   C1716348   2.332   1.160   4.402  0.3302  0.8573 -0.2365
  137CHL1   H1716349   2.323   1.050   4.407  1.3009  0.6363 -2.3221
  137CHL1   C1316350   2.317   1.191   4.249  0.6713 -0.4968 -0.6106
  137CHL1   C1816351   2.350   1.342   4.238 -0.1944 -0.2030  0.4344
  137CHL1  H18A16352   2.457   1.365   4.220 -0.4505 -0.0861 -1.0790
  137CHL1  H18B16353   2.301   1.388   4.149 -0.6399 -0.9029  0.3137
  137CHL1  H18C16354   2.319   1.397   4.329  0.9303  0.2969  0.5364
  137CHL1   C1216355   2.396   1.110   4.151  0.0668 -0.3313 -0.2329
  137CHL1  H12A16356   2.504   1.134   4.153  0.2893 -0.7597 -2.9922
  137CHL1  H12B16357   2.382   1.001   4.165  0.1429 -0.3046  0.0583
  137CHL1   C1116358   2.357   1.135   4.003 -0.1767  0.0843 -0.6703
  137CHL1  H11A16359   2.384   1.241   3.981  2.7246 -0.1852  1.1026
  137CHL1  H11B16360   2.423   1.068   3.943 -1.0053 -1.8305  0.4592
  137CHL1    C916361   2.209   1.117   3.987  0.2313  0.4003 -0.5293
  137CHL1    H916362   2.198   1.007   4.002  1.3494  0.1783 -1.2104
  137CHL1   C1016363   2.161   1.146   3.845 -0.1144  0.0081  0.0817
  137CHL1   C1916364   2.188   1.291   3.795 -0.6957  0.2490  0.5537
  137CHL1  H19A16365   2.130   1.359   3.861  1.7282  3.1726 -0.1122
  137CHL1  H19B16366   2.296   1.316   3.798 -0.4901 -0.3161 -1.1445
  137CHL1  H19C16367   2.150   1.294   3.691 -1.6953 -1.3405  0.8304
  137CHL1    C116368   2.235   1.041   3.754 -0.0271 -0.5245  0.4783
  137CHL1   H1A16369   2.342   1.060   3.735 -0.5738  0.4192 -2.0704
  137CHL1   H1B16370   2.239   0.948   3.815 -1.5139 -1.2334 -0.4434
  137CHL1    C216371   2.176   1.017   3.614 -1.0143 -0.3079  0.2272
  137CHL1   H2A16372   2.241   0.940   3.568  0.0715  0.7747 -0.1116
  137CHL1   H2B16373   2.189   1.108   3.551  0.3120 -1.3492 -1.0960
  137CHL1   C2016374   2.449   1.202   4.488  0.0934 -0.0354  0.2170
  137CHL1   H2016375   2.491   1.296   4.448 -1.3790  0.0746 -1.2184
  137CHL1   C2116376   2.564   1.101   4.451  0.3990  0.2711 -0.9990
  137CHL1  H21A16377   2.650   1.129   4.515 -0.0611  0.4283 -0.4378
  137CHL1  H21B16378   2.601   1.118   4.348 -0.3780  2.6046 -0.9672
  137CHL1  H21C16379   2.537   0.996   4.475 -3.3886  1.1267 -0.8736
  137CHL1   C2216380   2.422   1.213   4.643 -0.3984 -0.2836  0.5088
  137CHL1  H22A16381   2.524   1.235   4.680 -0.5777 -2.9579  2.9091
  137CHL1  H22B16382   2.356   1.298   4.669  0.4950 -0.3301  3.1667
  137CHL1   C2316383   2.383   1.081   4.716 -0.4901 -0.6470 -0.1674
  137CHL1  H23A16384   2.287   1.046   4.673 -0.8268 -0.4505  0.4117
  137CHL1  H23B16385   2.451   0.996   4.692 -2.3361 -3.4448  3.5405
  137CHL1   C2416386   2.361   1.100   4.870 -0.4719 -0.0172  0.1747
  137CHL1  H24A16387   2.347   1.001   4.917  0.3240  0.0232  0.5208
  137CHL1  H24B16388   2.461   1.122   4.913 -1.2385  2.5436  0.7959
  137CHL1   C2516389   2.257   1.201   4.915  0.6112 -0.7849  0.5651
  137CHL1   H2516390   2.259   1.286   4.843  0.3610 -0.8006  0.5363
  137CHL1   C2616391   2.112   1.146   4.917  0.1356  0.1140 -0.9704
  137CHL1  H26A16392   2.050   1.217   4.977  0.1312  0.0976 -0.9555
  137CHL1  H26B16393   2.079   1.132   4.812  2.0919 -2.1234 -1.3545
  137CHL1  H26C16394   2.102   1.051   4.974 -0.6009  1.4936  1.3393
  137CHL1   C2716395   2.301   1.251   5.053  0.0156  0.0730  0.4477
  137CHL1  H27A16396   2.296   1.176   5.135 -2.0099  0.6887  0.9494
  137CHL1  H27B16397   2.406   1.286   5.047 -0.0339  0.3143  0.9228
  137CHL1  H27C16398   2.235   1.334   5.085 -0.6635 -0.5755  0.7653
  138CHL1    C316399   7.305   0.037   3.724 -0.5985  0.6844 -0.5426
  138CHL1    H316400   7.350  -0.057   3.687 -0.9443 -0.1246  0.9873
  138CHL1    O316401   7.330   0.121   3.607  0.2582  0.2551 -0.3634
  138CHL1   H3'16402   7.248   0.165   3.586  0.5246  0.5421 -0.8188
  138CHL1    C416403   7.156   0.010   3.750  0.5042  0.4285  0.4332
  138CHL1   H4A16404   7.093   0.099   3.772  0.1427  0.4728 -0.7563
  138CHL1   H4B16405   7.108  -0.030   3.658 -0.7810  0.8124  0.9133
  138CHL1    C516406   7.157  -0.087   3.866 -0.1916  0.1084 -0.1500
  138CHL1    C616407   7.090  -0.205   3.861 -0.0424  0.0773 -0.9225
  138CHL1    H616408   7.041  -0.239   3.769 -0.6243 -2.3818  0.2201
  138CHL1    C716409   7.080  -0.303   3.977 -0.4007 -0.3643  0.1868
  138CHL1   H7A16410   6.975  -0.334   3.995 -0.0780 -0.9088  1.1887
  138CHL1   H7B16411   7.146  -0.389   3.954  1.1333  1.4183 -2.7531
  138CHL1    C816412   7.128  -0.243   4.108 -0.5196  0.1056 -0.0777
  138CHL1    H816413   7.047  -0.187   4.160 -0.6302  0.1590 -0.3059
  138CHL1   C1416414   7.173  -0.354   4.207  0.3366 -0.2062  0.3266
  138CHL1   H1416415   7.256  -0.407   4.155 -1.3875 -1.9929 -0.7176
  138CHL1   C1516416   7.078  -0.471   4.230 -0.5165 -0.0245 -0.3579
  138CHL1  H15A16417   6.978  -0.424   4.239 -0.4031  0.4248 -1.3746
  138CHL1  H15B16418   7.080  -0.545   4.147  0.9845  0.5177 -0.8494
  138CHL1   C1616419   7.125  -0.544   4.359 -0.3754 -0.4098  0.2643
  138CHL1  H16A16420   7.033  -0.537   4.420 -0.6201  0.7361 -0.2048
  138CHL1  H16B16421   7.153  -0.648   4.333  1.1420  0.4688 -1.9153
  138CHL1   C1716422   7.241  -0.456   4.419  0.1030 -0.4573 -0.3785
  138CHL1   H1716423   7.340  -0.492   4.385  1.2229  1.3229  0.8193
  138CHL1   C1316424   7.220  -0.315   4.348  0.2735  0.7530  0.3117
  138CHL1   C1816425   7.099  -0.244   4.411 -0.5509  0.2594  0.2852
  138CHL1  H18A16426   7.010  -0.309   4.426 -0.0870 -0.3081  0.6485
  138CHL1  H18B16427   7.122  -0.212   4.515 -1.2637  2.4728 -0.2096
  138CHL1  H18C16428   7.064  -0.151   4.363 -2.0489 -0.1548  0.5411
  138CHL1   C1216429   7.341  -0.218   4.344 -0.2724 -0.3636  0.2744
  138CHL1  H12A16430   7.369  -0.157   4.433 -1.7918  0.9571 -0.1041
  138CHL1  H12B16431   7.430  -0.275   4.310 -2.0063 -3.2059  0.1562
  138CHL1   C1116432   7.313  -0.107   4.238  0.2170  0.1647  0.0736
  138CHL1  H11A16433   7.228  -0.045   4.273 -0.9185 -0.9474 -0.6189
  138CHL1  H11B16434   7.409  -0.054   4.218  1.0560 -1.6143 -0.8569
  138CHL1    C916435   7.251  -0.153   4.096 -0.1704  0.6621  0.1163
  138CHL1    H916436   7.339  -0.201   4.050  0.6543  0.6613  1.6380
  138CHL1   C1016437   7.232  -0.034   3.996  0.1124  0.0383 -0.1513
  138CHL1   C1916438   7.130   0.073   4.056 -0.1729  0.5377  0.1601
  138CHL1  H19A16439   7.166   0.102   4.157  0.2325 -4.3219  1.6804
  138CHL1  H19B16440   7.122   0.163   3.992 -4.2160 -0.6072 -1.2307
  138CHL1  H19C16441   7.030   0.027   4.069  0.4911 -0.8951  0.4185
  138CHL1    C116442   7.365   0.035   3.974 -0.1053  0.7358  0.5009
  138CHL1   H1A16443   7.392   0.096   4.063  0.5679  0.3788  0.5465
  138CHL1   H1B16444   7.443  -0.042   3.962 -2.1713 -1.1033 -2.2481
  138CHL1    C216445   7.370   0.108   3.843 -0.1005 -0.2332 -0.0081
  138CHL1   H2A16446   7.476   0.126   3.815  0.5048 -3.3414 -0.0920
  138CHL1   H2B16447   7.321   0.207   3.844  0.4255  0.0365 -0.2878
  138CHL1   C2016448   7.239  -0.455   4.571  0.1441  0.6015  0.3343
  138CHL1   H2016449   7.136  -0.422   4.598  1.4525  3.3547  2.4535
  138CHL1   C2116450   7.326  -0.347   4.653 -0.5748 -0.5112  0.2079
  138CHL1  H21A16451   7.327  -0.341   4.764 -0.2113  1.2138  0.1389
  138CHL1  H21B16452   7.304  -0.241   4.625  0.0156 -0.2253  0.7976
  138CHL1  H21C16453   7.432  -0.359   4.622 -1.0771 -1.0728 -1.4083
  138CHL1   C2216454   7.265  -0.595   4.632 -0.3281  0.5610 -0.0612
  138CHL1  H22A16455   7.197  -0.668   4.583  0.1762  0.4963 -0.6740
  138CHL1  H22B16456   7.365  -0.636   4.606 -1.4328 -4.3549  2.2019
  138CHL1   C2316457   7.238  -0.604   4.783 -0.2667 -0.1089  0.2035
  138CHL1  H23A16458   7.315  -0.540   4.831  1.8267 -1.9950 -0.4388
  138CHL1  H23B16459   7.132  -0.578   4.800  0.2956  2.7892 -0.2750
  138CHL1   C2416460   7.273  -0.752   4.827  0.0190 -0.1393  0.5567
  138CHL1  H24A16461   7.226  -0.815   4.749 -1.6642  2.4072 -0.6501
  138CHL1  H24B16462   7.383  -0.762   4.818  0.0807  1.1982 -0.4648
  138CHL1   C2516463   7.221  -0.789   4.968 -0.3207 -1.1850  0.4226
  138CHL1   H2516464   7.111  -0.791   4.955 -0.0336  0.0691 -4.0026
  138CHL1   C2616465   7.254  -0.934   5.019  0.3251 -0.5375  0.2572
  138CHL1  H26A16466   7.212  -0.953   5.121  0.1877 -2.5150 -0.1260
  138CHL1  H26B16467   7.204  -1.009   4.954 -0.3014  0.2811 -0.2284
  138CHL1  H26C16468   7.362  -0.960   5.015  0.7814  0.8959  1.9385
  138CHL1   C2716469   7.251  -0.679   5.069 -0.7626  0.4896  0.2951
  138CHL1  H27A16470   7.358  -0.650   5.072 -1.7023  4.6711  3.3835
  138CHL1  H27B16471   7.217  -0.579   5.034 -2.8551 -0.4638 -0.6051
  138CHL1  H27C16472   7.210  -0.695   5.171 -2.0406 -0.5964 -0.3527
  139CHL1    C316473   1.337   7.409   3.751  0.0973 -0.1151 -0.1128
  139CHL1    H316474   1.250   7.340   3.763 -1.4606  1.7789  0.0182
  139CHL1    O316475   1.364   7.390   3.615  0.3382 -0.0418  0.6630
  139CHL1   H3'16476   1.449   7.432   3.600  0.6882 -0.7869  0.5288
  139CHL1    C416477   1.306   7.558   3.780  0.2466 -0.1112  0.1755
  139CHL1   H4A16478   1.384   7.627   3.742 -0.8053  2.1866  1.9422
  139CHL1   H4B16479   1.214   7.588   3.726 -0.5210  1.2417  2.1260
  139CHL1    C516480   1.296   7.587   3.929 -0.1466  0.1090  0.0889
  139CHL1    C616481   1.183   7.631   3.982 -0.4385 -0.4482 -0.4439
  139CHL1    H616482   1.101   7.657   3.913 -0.0708  2.3196  0.0222
  139CHL1    C716483   1.161   7.660   4.124  0.8150 -0.3888 -0.0334
  139CHL1   H7A16484   1.097   7.748   4.143  0.0424 -1.0873  0.6854
  139CHL1   H7B16485   1.106   7.576   4.172 -0.8828  1.2844  1.0819
  139CHL1    C816486   1.296   7.659   4.208  0.2653 -0.4974 -0.5838
  139CHL1    H816487   1.353   7.749   4.179 -0.6375 -0.1482 -1.3408
  139CHL1   C1416488   1.260   7.650   4.352 -0.3974  0.3340 -0.2887
  139CHL1   H1416489   1.219   7.549   4.373 -1.1643  0.6267 -0.3417
  139CHL1   C1516490   1.157   7.746   4.422  0.2765  0.3901 -0.2179
  139CHL1  H15A16491   1.151   7.852   4.390 -1.0771  0.6311  0.7488
  139CHL1  H15B16492   1.059   7.695   4.408 -0.2118  1.1957  0.2162
  139CHL1   C1616493   1.200   7.749   4.571  0.7913 -0.0512 -0.3759
  139CHL1  H16A16494   1.237   7.851   4.594 -1.7401  0.1915  3.4364
  139CHL1  H16B16495   1.105   7.727   4.625 -1.8422  0.3146 -4.4744
  139CHL1   C1716496   1.317   7.650   4.582  0.5884  0.6788  0.0704
  139CHL1   H1716497   1.256   7.557   4.592 -2.6706  2.3496 -2.3964
  139CHL1   C1316498   1.386   7.654   4.444  0.3866 -0.1310  0.4406
  139CHL1   C1816499   1.462   7.790   4.433 -1.0200  0.2674  0.2146
  139CHL1  H18A16500   1.549   7.786   4.503 -2.3236 -0.4006  1.8762
  139CHL1  H18B16501   1.490   7.813   4.329 -2.1936  0.2027 -0.1317
  139CHL1  H18C16502   1.394   7.872   4.466  0.7269  2.3994 -1.2396
  139CHL1   C1216503   1.480   7.540   4.412  0.4003  0.5975  0.0344
  139CHL1  H12A16504   1.579   7.539   4.462  0.3640 -2.8465  0.2189
  139CHL1  H12B16505   1.429   7.444   4.437 -0.9218  1.0986 -0.6133
  139CHL1   C1116506   1.511   7.533   4.257 -0.1993  0.5555  0.0102
  139CHL1  H11A16507   1.572   7.623   4.235 -0.6826  0.6608 -0.9379
  139CHL1  H11B16508   1.570   7.443   4.232 -0.7482  0.1481  0.1495
  139CHL1    C916509   1.386   7.543   4.163  0.4004 -0.4185 -0.1210
  139CHL1    H916510   1.320   7.456   4.183 -2.0327  1.5087  0.8860
  139CHL1   C1016511   1.419   7.542   4.012  0.5774  0.6693 -0.2551
  139CHL1   C1916512   1.544   7.638   3.986  0.5769  0.5377 -0.4049
  139CHL1  H19A16513   1.543   7.637   3.875 -2.0298 -3.8464 -0.6049
  139CHL1  H19B16514   1.512   7.740   4.016 -1.5851 -0.5572  1.3152
  139CHL1  H19C16515   1.645   7.617   4.025  0.5367  0.4405 -0.3508
  139CHL1    C116516   1.458   7.394   3.974  0.3906  0.5068  0.3415
  139CHL1   H1A16517   1.561   7.383   4.012  1.2890  0.9402 -1.8482
  139CHL1   H1B16518   1.390   7.319   4.020 -0.4291  0.4363 -0.9442
  139CHL1    C216519   1.459   7.361   3.826  0.2584  0.4385 -0.1237
  139CHL1   H2A16520   1.469   7.256   3.792 -0.1040  0.8730 -1.6870
  139CHL1   H2B16521   1.549   7.412   3.786  0.8558  1.5288  2.4433
  139CHL1   C2016522   1.402   7.653   4.714 -0.0070 -0.5894  0.5554
  139CHL1   H2016523   1.499   7.609   4.682  0.4706  1.3625 -0.8717
  139CHL1   C2116524   1.352   7.554   4.819 -0.0912  0.2409 -0.3306
  139CHL1  H21A16525   1.255   7.584   4.864 -0.3058 -1.1990  0.2012
  139CHL1  H21B16526   1.411   7.548   4.913  0.1259  0.4780 -0.4480
  139CHL1  H21C16527   1.346   7.452   4.776 -3.4403  0.1632  0.1053
  139CHL1   C2216528   1.415   7.800   4.763 -0.1829 -0.0923  0.1873
  139CHL1  H22A16529   1.455   7.874   4.691  0.8110 -1.8473 -1.1312
  139CHL1  H22B16530   1.315   7.842   4.787  0.2867 -0.3334  2.8419
  139CHL1   C2316531   1.497   7.812   4.894 -0.9724 -0.0571 -0.2758
  139CHL1  H23A16532   1.502   7.920   4.921 -1.3111  0.5846 -2.5566
  139CHL1  H23B16533   1.443   7.759   4.975 -1.6042 -3.1460 -2.5261
  139CHL1   C2416534   1.647   7.773   4.899 -0.0765 -0.0777 -0.0697
  139CHL1  H24A16535   1.641   7.662   4.902 -1.3550 -0.0163  2.7962
  139CHL1  H24B16536   1.700   7.809   4.808  1.0901 -0.0740  0.5970
  139CHL1   C2516537   1.716   7.816   5.021 -0.6538  0.4118  0.2880
  139CHL1   H2516538   1.725   7.927   5.019  2.2125  0.3202 -3.0902
  139CHL1   C2616539   1.643   7.779   5.150  0.1304  0.0621  0.5323
  139CHL1  H26A16540   1.548   7.836   5.156  1.8514  3.1752  0.2970
  139CHL1  H26B16541   1.618   7.671   5.145 -1.5323  0.4579 -0.7903
  139CHL1  H26C16542   1.711   7.798   5.236 -0.0372  0.6702  0.5367
  139CHL1   C2716543   1.858   7.755   5.024 -0.3235  0.0139 -1.0037
  139CHL1  H27A16544   1.867   7.647   4.998  1.2242 -0.2366  0.3948
  139CHL1  H27B16545   1.932   7.792   4.950  2.1964 -0.2441  1.2177
  139CHL1  H27C16546   1.911   7.781   5.118  1.0642 -1.6360 -1.2921
  140CHL1    C316547   0.196   7.547   3.809  0.5025 -0.2010 -0.4463
  140CHL1    H316548   0.276   7.624   3.814  0.2625 -0.0126  0.5485
  140CHL1    O316549   0.195   7.517   3.668  0.4242 -0.6823 -0.1614
  140CHL1   H3'16550   0.261   7.448   3.662  2.3521  1.0825 -0.1563
  140CHL1    C416551   0.226   7.424   3.892 -0.6409  0.1015  0.2708
  140CHL1   H4A16552   0.148   7.349   3.866 -1.2557 -0.1429  2.5357
  140CHL1   H4B16553   0.313   7.368   3.854 -0.1127  0.1373  1.3782
  140CHL1    C516554   0.221   7.455   4.037 -0.3176  0.6125  0.0333
  140CHL1    C616555   0.318   7.409   4.120 -0.5606  0.0440  0.2028
  140CHL1    H616556   0.406   7.360   4.075 -1.4758  0.5381 -2.2865
  140CHL1    C716557   0.315   7.426   4.272  0.2383 -0.0376 -0.1207
  140CHL1   H7A16558   0.327   7.325   4.318 -2.1120 -0.5801 -0.5853
  140CHL1   H7B16559   0.403   7.490   4.292  1.8312 -2.5914  1.5566
  140CHL1    C816560   0.187   7.493   4.329 -0.0123  0.0523  0.4010
  140CHL1    H816561   0.111   7.412   4.339  0.4813 -0.3164  1.3326
  140CHL1   C1416562   0.215   7.549   4.467  0.2089  0.3242  0.0994
  140CHL1   H1416563   0.285   7.634   4.453  0.6180 -0.3266 -2.1888
  140CHL1   C1516564   0.284   7.453   4.570  0.4143 -0.7270  0.3187
  140CHL1  H15A16565   0.235   7.354   4.582  1.6805 -1.1610  2.3035
  140CHL1  H15B16566   0.390   7.435   4.545  0.4053 -0.0009 -0.2851
  140CHL1   C1616567   0.268   7.537   4.698 -0.1687  0.3491 -0.5591
  140CHL1  H16A16568   0.232   7.474   4.782 -1.3565  0.0894 -1.2393
  140CHL1  H16B16569   0.364   7.587   4.722 -0.2389 -0.7945  2.4717
  140CHL1   C1716570   0.164   7.650   4.667  0.3120  0.3939 -0.5745
  140CHL1   H1716571   0.219   7.741   4.635  0.2676  0.6652  0.0918
  140CHL1   C1316572   0.096   7.613   4.535  0.5277 -0.0879  0.6183
  140CHL1   C1816573  -0.010   7.502   4.560  0.2165  0.3711  0.2735
  140CHL1  H18A16574  -0.074   7.518   4.649 -1.5285 -0.6769 -0.7288
  140CHL1  H18B16575  -0.073   7.492   4.469 -0.1575  0.9720  0.4606
  140CHL1  H18C16576   0.042   7.409   4.589 -1.2750 -0.0394  1.7687
  140CHL1   C1216577   0.032   7.721   4.451 -0.1103  0.0474  0.6572
  140CHL1  H12A16578  -0.073   7.736   4.483  0.2658  0.5451  1.7046
  140CHL1  H12B16579   0.095   7.811   4.465 -0.5798  0.3121  1.0922
  140CHL1   C1116580   0.023   7.686   4.299 -0.1547 -0.0291  0.4368
  140CHL1  H11A16581  -0.065   7.619   4.288 -1.3732  1.6818 -0.8156
  140CHL1  H11B16582  -0.001   7.778   4.241  0.7653  0.1232  0.2913
  140CHL1    C916583   0.138   7.603   4.228  0.7284 -0.0083 -0.2482
  140CHL1    H916584   0.220   7.677   4.234  0.3237  0.3506  1.2358
  140CHL1   C1016585   0.100   7.546   4.088  0.1108  0.1198 -0.8207
  140CHL1   C1916586  -0.026   7.452   4.089 -0.5882  0.1787 -0.6820
  140CHL1  H19A16587  -0.009   7.360   4.149 -2.0667 -1.0577 -2.0702
  140CHL1  H19B16588  -0.114   7.505   4.133  0.2476  0.0462  1.2674
  140CHL1  H19C16589  -0.052   7.403   3.993 -1.5337  0.8414 -0.7728
  140CHL1    C116590   0.074   7.664   3.993  0.3669 -0.5409 -0.1467
  140CHL1   H1A16591  -0.027   7.709   4.003  0.3582 -0.6056  0.0657
  140CHL1   H1B16592   0.153   7.742   4.002 -0.6865  0.5842 -0.4180
  140CHL1    C216593   0.062   7.618   3.845  0.4311  0.9709  0.8195
  140CHL1   H2A16594   0.052   7.710   3.783  1.0497  2.2025  2.4653
  140CHL1   H2B16595  -0.022   7.545   3.838  1.6301 -0.4188  0.6286
  140CHL1   C2016596   0.077   7.681   4.792  0.2741  0.4774 -0.2340
  140CHL1   H2016597   0.020   7.599   4.839  1.0415  1.0612  1.8350
  140CHL1   C2116598  -0.018   7.801   4.767 -0.2155 -0.3132  0.1918
  140CHL1  H21A16599  -0.108   7.763   4.713 -1.7638  0.9964  1.7276
  140CHL1  H21B16600   0.035   7.885   4.717 -1.5808  0.9494  0.8019
  140CHL1  H21C16601  -0.067   7.840   4.858  0.4230 -0.0138  0.4089
  140CHL1   C2216602   0.171   7.735   4.906  0.3022 -0.4308 -0.4127
  140CHL1  H22A16603   0.264   7.675   4.913  0.1355 -0.7889 -1.1400
  140CHL1  H22B16604   0.195   7.841   4.885 -1.0580 -0.0053  0.0884
  140CHL1   C2316605   0.119   7.747   5.050  0.3698  0.5880  0.2417
  140CHL1  H23A16606   0.032   7.815   5.064  2.2020  2.6247  2.8593
  140CHL1  H23B16607   0.089   7.646   5.085  4.9996 -0.9843  0.3133
  140CHL1   C2416608   0.220   7.824   5.136 -0.0904 -0.0353 -0.1952
  140CHL1  H24A16609   0.312   7.760   5.134  0.4211  0.6926 -0.3912
  140CHL1  H24B16610   0.245   7.924   5.096 -2.0451  0.3332 -0.5815
  140CHL1   C2516611   0.181   7.837   5.285  0.4080 -0.4809 -0.4504
  140CHL1   H2516612   0.087   7.897   5.285  1.3047  1.0868  1.8105
  140CHL1   C2616613   0.280   7.919   5.368 -0.1461 -0.0688 -0.1392
  140CHL1  H26A16614   0.297   8.021   5.328  0.5979 -0.1857 -0.1183
  140CHL1  H26B16615   0.249   7.933   5.473 -0.3671 -0.4433 -0.1491
  140CHL1  H26C16616   0.379   7.869   5.373  0.9384  1.6693 -2.4692
  140CHL1   C2716617   0.154   7.703   5.369  0.4918  0.6861  0.2424
  140CHL1  H27A16618   0.082   7.635   5.319  0.5237  1.4250 -0.8492
  140CHL1  H27B16619   0.245   7.639   5.376  1.3374  1.6151 -1.5329
  140CHL1  H27C16620   0.120   7.716   5.474  0.0885 -0.6905  0.3006
  141DOPC     N16621   3.633   2.961   6.733  0.1094  0.7936  0.3058
  141DOPC   C1216622   3.691   2.876   6.845 -0.4427 -0.3158  0.3475
  141DOPC  H12A16623   3.731   2.782   6.810  1.2966  0.6636 -0.4147
  141DOPC  H12B16624   3.610   2.856   6.915  0.9458  2.5271  2.9709
  141DOPC   C1316625   3.735   3.023   6.640  0.1381 -0.0220  0.8337
  141DOPC  H13A16626   3.830   3.042   6.688 -0.4600  1.6126  1.4484
  141DOPC  H13B16627   3.748   2.965   6.550 -0.5927  0.5061  0.3798
  141DOPC  H13C16628   3.705   3.124   6.618  1.0273 -0.0100 -0.4014
  141DOPC   C1416629   3.553   3.074   6.800 -0.1902  0.0554  0.1357
  141DOPC  H14A16630   3.484   3.035   6.874  0.3112 -2.0115 -0.4065
  141DOPC  H14B16631   3.620   3.133   6.861  1.1370 -2.0949  0.8690
  141DOPC  H14C16632   3.503   3.141   6.733 -0.3924  0.0033  0.2325
  141DOPC   C1516633   3.532   2.876   6.655 -0.5269  0.2856  0.8662
  141DOPC  H15A16634   3.481   2.939   6.584  0.6746 -1.4784 -1.7251
  141DOPC  H15B16635   3.457   2.839   6.723  0.0136 -3.2068 -0.2388
  141DOPC  H15C16636   3.580   2.797   6.598  1.1063  0.1686  2.3166
  141DOPC   C1116637   3.809   2.934   6.929  0.8824  0.3380  0.0732
  141DOPC  H11A16638   3.782   3.026   6.986  0.0813  1.1045 -1.4986
  141DOPC  H11B16639   3.830   2.854   7.003 -1.5931  2.8522  3.8804
  141DOPC     P16640   4.055   3.029   6.909 -0.0844  0.1857  0.0262
  141DOPC   O1316641   4.097   2.952   7.026  0.3014  0.2223 -0.0382
  141DOPC   O1416642   4.045   3.173   6.931 -0.9539  0.6018  0.6592
  141DOPC   O1216643   3.923   2.963   6.851 -0.1835 -0.5232  0.0963
  141DOPC   O1116644   4.152   2.999   6.794 -0.7633 -0.2248 -0.0352
  141DOPC    C116645   4.224   2.878   6.769  0.0629 -0.2737 -0.1525
  141DOPC    HA16646   4.204   2.803   6.847 -1.9409  0.7414  0.3815
  141DOPC    HB16647   4.334   2.890   6.774  0.0051  0.1467  0.2062
  141DOPC    C216648   4.179   2.808   6.635 -0.5843 -0.7442  0.1560
  141DOPC    HS16649   4.242   2.717   6.630  1.1473  0.2904  1.7062
  141DOPC   O2116650   4.211   2.905   6.531 -0.0621 -0.0437  1.0870
  141DOPC   C2116651   4.336   2.911   6.493  0.0799  0.3182  0.0845
  141DOPC   O2216652   4.429   2.843   6.537 -0.2924 -0.4165 -0.4777
  141DOPC   C2216653   4.354   3.017   6.383  0.4030 -0.2996  0.4739
  141DOPC   H2R16654   4.363   3.107   6.447  0.1800  0.7720 -0.9440
  141DOPC   H2S16655   4.264   3.021   6.317  0.7886  0.3142 -0.0281
  141DOPC    C316656   4.028   2.766   6.631 -0.1406 -0.7653 -0.3882
  141DOPC    HX16657   3.957   2.852   6.636 -0.0709 -0.6960 -0.6050
  141DOPC    HY16658   4.005   2.719   6.729 -0.4224  1.0332  0.4604
  141DOPC   O3116659   3.993   2.682   6.523 -0.2046 -0.0571 -0.3545
  141DOPC   C3116660   3.953   2.741   6.414  0.3441 -0.3434  0.1031
  141DOPC   O3216661   3.937   2.862   6.403 -0.3310  0.3679 -0.0979
  141DOPC   C3216662   3.916   2.640   6.307  0.0694 -1.0269 -0.3873
  141DOPC   H2X16663   3.965   2.542   6.329  0.7656 -0.7950 -0.8618
  141DOPC   H2Y16664   3.808   2.629   6.332 -0.7034  1.4627 -2.2415
  141DOPC   C2316665   4.478   3.007   6.291  0.5898 -0.5306  0.0703
  141DOPC   H3R16666   4.542   2.920   6.317  0.3850 -1.9205 -3.4575
  141DOPC   H3S16667   4.538   3.100   6.303  0.1558 -0.4372  1.7644
  141DOPC   C2416668   4.446   2.989   6.143 -1.1083 -0.2175  0.1991
  141DOPC   H4R16669   4.363   3.055   6.108 -0.2459  0.5784 -0.3688
  141DOPC   H4S16670   4.406   2.885   6.131  0.8500 -1.3128  2.3706
  141DOPC   C2516671   4.568   3.016   6.049  0.0090  0.2500 -0.1241
  141DOPC   H5R16672   4.664   2.985   6.095 -0.7972 -2.1360  0.0636
  141DOPC   H5S16673   4.566   3.127   6.037 -1.6748  0.4568  1.5316
  141DOPC   C2616674   4.558   2.951   5.908 -0.2417 -0.2478 -0.2784
  141DOPC   H6R16675   4.612   3.013   5.834 -0.7501 -0.0627 -0.4970
  141DOPC   H6S16676   4.453   2.948   5.874  0.2077 -2.6851 -1.7003
  141DOPC   C2716677   4.601   2.801   5.908 -0.4833 -0.3932 -0.2288
  141DOPC   H7R16678   4.555   2.765   6.003 -1.8949  5.3295  1.6462
  141DOPC   H7S16679   4.710   2.804   5.889 -0.5396 -0.6433 -0.6001
  141DOPC   C2816680   4.536   2.721   5.792 -0.0765 -0.0169 -0.1351
  141DOPC   H8R16681   4.436   2.766   5.773 -0.4413 -1.4223 -1.9018
  141DOPC   H8S16682   4.517   2.620   5.834  0.8065  0.4195  1.3793
  141DOPC   C2916683   4.608   2.710   5.660  0.3660 -0.7576 -0.1728
  141DOPC   H9R16684   4.688   2.633   5.660 -0.0360 -1.2163 -1.6890
  141DOPC  C21016685   4.578   2.775   5.548 -0.0097 -0.2239 -0.4854
  141DOPC  H10R16686   4.632   2.762   5.453  3.4093  0.0539  1.2499
  141DOPC  C21116687   4.484   2.892   5.538 -0.3781 -0.5915 -0.5409
  141DOPC  H11R16688   4.444   2.919   5.638  1.8883  0.2231  0.1954
  141DOPC  H11S16689   4.397   2.869   5.472 -0.8513 -2.1569  0.5744
  141DOPC  C21216690   4.554   3.012   5.473  0.4230 -0.2516 -0.3147
  141DOPC  H12R16691   4.556   2.997   5.363  1.0706 -1.4366 -0.1570
  141DOPC  H12S16692   4.657   3.011   5.514  1.5983  0.1617 -3.0520
  141DOPC  C21316693   4.484   3.146   5.498  0.2985  0.3751  0.4559
  141DOPC  H13R16694   4.556   3.230   5.493 -1.7044  2.1000 -1.8487
  141DOPC  H13S16695   4.457   3.159   5.606 -0.8884  0.5205  0.1557
  141DOPC  C21416696   4.353   3.174   5.420 -0.0436 -0.2671 -0.1251
  141DOPC  H14R16697   4.284   3.091   5.444 -0.9735  0.7344  0.7818
  141DOPC  H14S16698   4.383   3.170   5.314  1.0557 -0.2689  0.1720
  141DOPC  C21516699   4.296   3.313   5.450  0.3063  0.1953  0.3449
  141DOPC  H15R16700   4.370   3.389   5.420 -0.4985  0.1596 -1.8829
  141DOPC  H15S16701   4.285   3.310   5.561 -2.6484  1.4711  0.1944
  141DOPC  C21616702   4.165   3.336   5.387  0.2267 -0.9091  0.2334
  141DOPC  H16R16703   4.173   3.337   5.276  0.5827 -0.9498  0.2565
  141DOPC  H16S16704   4.123   3.429   5.431  1.5249 -0.5769  0.8046
  141DOPC  C21716705   4.060   3.235   5.431  0.3691 -0.1759  0.1992
  141DOPC  H17R16706   4.072   3.203   5.536  0.4565 -0.2886  0.1553
  141DOPC  H17S16707   4.078   3.139   5.377  0.6822  0.0844 -0.1711
  141DOPC  C21816708   3.914   3.286   5.399 -0.0161  0.4150  0.5085
  141DOPC  H18R16709   3.887   3.381   5.450 -2.1213  0.5815 -0.7839
  141DOPC  H18S16710   3.843   3.203   5.420  0.4700 -0.1544 -0.0310
  141DOPC  H18T16711   3.910   3.313   5.291 -0.4906 -0.0915  0.3972
  141DOPC   C3316712   3.947   2.691   6.165  0.5909 -0.0849 -0.1600
  141DOPC   H3X16713   3.890   2.786   6.153 -1.0930 -1.3376 -3.1180
  141DOPC   H3Y16714   3.905   2.622   6.090  1.2633  0.4220 -1.0184
  141DOPC   C3416715   4.095   2.710   6.131 -1.3778 -0.3577 -0.0875
  141DOPC   H4X16716   4.142   2.618   6.170 -1.4750 -0.2933  0.1878
  141DOPC   H4Y16717   4.139   2.796   6.186 -1.5943  0.8025 -1.6687
  141DOPC   C3516718   4.129   2.733   5.985 -0.1095  0.1248  0.0162
  141DOPC   H5X16719   4.080   2.655   5.923  1.0938 -2.6933  2.3617
  141DOPC   H5Y16720   4.238   2.720   5.974  0.0209 -0.6008  1.8302
  141DOPC   C3616721   4.095   2.880   5.940 -0.2444  0.2954  0.2363
  141DOPC   H6X16722   3.993   2.912   5.970  1.2120  3.0562  2.6958
  141DOPC   H6Y16723   4.165   2.948   5.993 -0.9309  1.3930 -0.2500
  141DOPC   C3716724   4.123   2.913   5.792 -0.1767  0.6812 -0.0820
  141DOPC   H7X16725   4.110   3.023   5.789  0.6627  0.7650 -1.0029
  141DOPC   H7Y16726   4.230   2.898   5.766  0.3364  1.2336  1.5947
  141DOPC   C3816727   4.025   2.845   5.695 -0.4218  0.0081 -0.8973
  141DOPC   H8X16728   3.924   2.875   5.732  0.1320 -0.4186  1.0488
  141DOPC   H8Y16729   4.039   2.735   5.698 -2.0400 -0.2439 -1.5049
  141DOPC   C3916730   4.050   2.897   5.561 -0.5774  0.8843  0.3003
  141DOPC   H9X16731   4.147   2.949   5.554 -0.3723  0.5648  0.7615
  141DOPC  C31016732   3.967   2.907   5.457  0.1278 -0.9019 -0.1713
  141DOPC  H10X16733   4.001   2.962   5.368 -0.8417 -1.6730 -1.0557
  141DOPC  C31116734   3.834   2.842   5.451  0.3025 -0.3237  0.5385
  141DOPC  H11X16735   3.755   2.906   5.406  2.9275  2.5694 -0.2780
  141DOPC  H11Y16736   3.787   2.805   5.544 -1.6816  1.0913  0.1717
  141DOPC  C31216737   3.843   2.725   5.357  0.0262 -0.3047 -0.1314
  141DOPC  H12X16738   3.900   2.641   5.401 -1.1648 -0.5196  1.0887
  141DOPC  H12Y16739   3.898   2.748   5.264  0.7488  0.5840  0.4958
  141DOPC  C31316740   3.696   2.672   5.338 -0.2734 -0.3579  0.3957
  141DOPC  H13X16741   3.648   2.668   5.438 -1.6725  0.4857 -0.2132
  141DOPC  H13Y16742   3.643   2.746   5.275  1.1543 -0.2263 -0.7055
  141DOPC  C31416743   3.683   2.533   5.268 -0.2298 -0.3544 -0.0620
  141DOPC  H14X16744   3.575   2.506   5.271 -0.6988  1.1610 -1.9201
  141DOPC  H14Y16745   3.707   2.558   5.163  2.5414  0.5214  0.7037
  141DOPC  C31516746   3.773   2.417   5.311  0.0966 -0.5934  0.0349
  141DOPC  H15X16747   3.761   2.399   5.420 -0.6118  0.4554  0.1447
  141DOPC  H15Y16748   3.876   2.459   5.302 -0.0640  0.0636  1.1310
  141DOPC  C31616749   3.743   2.294   5.226  0.2129 -0.1523  0.0082
  141DOPC  H16X16750   3.635   2.268   5.237  0.4181 -1.4253 -0.8171
  141DOPC  H16Y16751   3.750   2.317   5.118  0.4462 -0.6819 -0.0906
  141DOPC  C31716752   3.820   2.164   5.276  0.2010 -0.1188  0.2896
  141DOPC  H17X16753   3.807   2.086   5.198 -1.1941  1.0402 -0.6983
  141DOPC  H17Y16754   3.927   2.192   5.269  0.6783 -2.1323 -1.2504
  141DOPC  C31816755   3.788   2.110   5.420 -0.2655 -0.1852  0.0128
  141DOPC  H18X16756   3.836   2.011   5.437  1.0598  0.3936 -0.2553
  141DOPC  H18Y16757   3.813   2.185   5.498  0.7567  0.3380 -0.7999
  141DOPC  H18Z16758   3.678   2.098   5.429 -0.2016  0.5034  2.4640
  142DOPC     N16759   4.870   2.789   7.126 -0.4530  0.0591 -0.3641
  142DOPC   C1216760   4.877   2.880   7.001 -0.3715  0.1894 -0.6682
  142DOPC  H12A16761   4.776   2.896   6.967 -1.2280 -0.4694  1.3676
  142DOPC  H12B16762   4.925   2.822   6.923  0.7969  0.6918 -0.3452
  142DOPC   C1316763   4.791   2.663   7.102 -0.0092 -0.8619 -0.0945
  142DOPC  H13A16764   4.813   2.591   7.179 -1.8175  0.6022  1.8954
  142DOPC  H13B16765   4.689   2.695   7.112  0.0923  0.3537 -2.1777
  142DOPC  H13C16766   4.814   2.622   7.004  0.4455 -1.4951  0.2670
  142DOPC   C1416767   4.815   2.861   7.245 -0.6992  0.8685  0.3849
  142DOPC  H14A16768   4.718   2.908   7.234 -0.4625  1.3355  0.2951
  142DOPC  H14B16769   4.826   2.789   7.324  1.6723  0.2754 -0.3999
  142DOPC  H14C16770   4.885   2.935   7.280 -0.1910  0.5807 -0.0162
  142DOPC   C1516771   5.013   2.759   7.158 -0.3657  0.5836  1.0785
  142DOPC  H15A16772   5.055   2.685   7.092  0.5741  0.8489  1.3640
  142DOPC  H15B16773   5.038   2.733   7.260 -0.7897 -0.6179  0.8925
  142DOPC  H15C16774   5.071   2.849   7.146  1.0057 -0.4098 -0.1489
  142DOPC   C1116775   4.935   3.019   7.015  0.7467  0.3297 -0.1492
  142DOPC  H11A16776   4.930   3.071   6.917 -0.9493 -0.4668 -0.5089
  142DOPC  H11B16777   4.867   3.072   7.084  0.9536  1.0085 -0.4595
  142DOPC     P16778   5.191   3.087   6.994 -0.5755 -0.1239  0.5208
  142DOPC   O1316779   5.313   3.035   7.063 -0.0968  0.4813  0.0535
  142DOPC   O1416780   5.176   3.230   6.982 -0.1271  0.0882 -0.1383
  142DOPC   O1216781   5.064   3.021   7.070  0.8309 -0.5151 -0.0745
  142DOPC   O1116782   5.181   3.019   6.854 -0.0556 -0.0282 -0.5571
  142DOPC    C116783   5.216   2.883   6.826 -0.1926 -0.0448 -0.0214
  142DOPC    HA16784   5.122   2.825   6.837 -0.1147 -0.1899 -0.1137
  142DOPC    HB16785   5.277   2.839   6.907  0.2476  2.2940  0.9943
  142DOPC    C216786   5.269   2.862   6.686 -0.2772  0.3494  0.9810
  142DOPC    HS16787   5.360   2.926   6.678  0.3375 -0.6543 -0.4311
  142DOPC   O2116788   5.184   2.912   6.580 -0.1528  0.1645 -0.5636
  142DOPC   C2116789   5.074   2.852   6.551 -0.1214 -0.2638  0.7511
  142DOPC   O2216790   5.012   2.775   6.623 -0.1461  0.6363  0.4873
  142DOPC   C2216791   5.020   2.911   6.422  0.0069  0.7638  0.2339
  142DOPC   H2R16792   5.093   2.976   6.371 -2.1113  0.7219 -3.1485
  142DOPC   H2S16793   4.942   2.985   6.451  0.4073  1.7669 -1.1663
  142DOPC    C316794   5.314   2.711   6.668  0.2334  0.2275 -0.0298
  142DOPC    HX16795   5.234   2.643   6.703 -0.2001  0.4353 -0.6087
  142DOPC    HY16796   5.403   2.721   6.734  0.6403  4.1682 -0.9606
  142DOPC   O3116797   5.341   2.690   6.530 -0.2626 -0.0336 -0.4187
  142DOPC   C3116798   5.444   2.613   6.505 -0.4259 -0.1485 -0.6020
  142DOPC   O3216799   5.507   2.547   6.589  0.1306 -0.0353 -0.2629
  142DOPC   C3216800   5.457   2.608   6.350  0.6034 -0.1554 -0.4498
  142DOPC   H2X16801   5.516   2.519   6.317 -0.4359 -0.1545 -2.4546
  142DOPC   H2Y16802   5.356   2.591   6.309  0.2176  0.5113  0.2127
  142DOPC   C2316803   4.955   2.812   6.329  0.5106  0.0192  0.6791
  142DOPC   H3R16804   4.921   2.873   6.243 -0.8169  0.1494  1.2697
  142DOPC   H3S16805   4.864   2.768   6.375 -0.8272  0.7060 -1.2009
  142DOPC   C2416806   5.052   2.699   6.286  0.1369 -0.3964 -0.2811
  142DOPC   H4R16807   5.089   2.649   6.379  0.5577  0.3978 -0.0066
  142DOPC   H4S16808   5.140   2.755   6.247 -2.3296  1.9820 -2.8110
  142DOPC   C2516809   5.003   2.601   6.183  0.7376  0.0075  0.1441
  142DOPC   H5R16810   4.903   2.564   6.215  1.1083  0.6017  2.1147
  142DOPC   H5S16811   5.072   2.514   6.181  2.6136  1.3978 -3.0523
  142DOPC   C2616812   4.985   2.665   6.045  0.4750  0.2246 -0.5898
  142DOPC   H6R16813   5.078   2.700   5.995  0.5850 -2.9793 -2.8848
  142DOPC   H6S16814   4.914   2.751   6.048  1.5568  1.3047 -2.8722
  142DOPC   C2716815   4.921   2.572   5.942  0.4563  0.2641 -0.8587
  142DOPC   H7R16816   4.861   2.628   5.867  0.8210  1.3564 -0.3512
  142DOPC   H7S16817   4.845   2.513   5.998  2.1469 -0.2404  0.9997
  142DOPC   C2816818   5.022   2.465   5.883  0.0640  0.0647  0.2097
  142DOPC   H8R16819   4.960   2.393   5.826 -0.4751 -0.0011  0.8723
  142DOPC   H8S16820   5.069   2.409   5.967 -2.4572  1.9810  3.0832
  142DOPC   C2916821   5.137   2.517   5.801  0.0509  0.6756 -0.0365
  142DOPC   H9R16822   5.236   2.520   5.849 -0.6101 -2.0420  1.7391
  142DOPC  C21016823   5.132   2.569   5.673  0.4699  0.2825  0.4293
  142DOPC  H10R16824   5.228   2.593   5.625  0.1589  0.1940 -0.2450
  142DOPC  C21116825   5.007   2.571   5.591  0.2413  0.2377  0.3547
  142DOPC  H11R16826   4.991   2.672   5.549  0.0227 -0.8680 -2.4297
  142DOPC  H11S16827   4.917   2.542   5.650  0.3164  2.0089  1.3762
  142DOPC  C21216828   5.024   2.465   5.476  0.2584 -0.6428 -0.6945
  142DOPC  H12R16829   5.029   2.361   5.515  1.1750  0.0687  1.2476
  142DOPC  H12S16830   5.115   2.480   5.415  0.3359 -0.0723 -0.4416
  142DOPC  C21316831   4.898   2.479   5.386 -0.5995 -0.8505 -0.5336
  142DOPC  H13R16832   4.869   2.585   5.373 -1.3833 -0.9535  0.2406
  142DOPC  H13S16833   4.815   2.439   5.449  0.5669 -1.5810  0.5867
  142DOPC  C21416834   4.924   2.408   5.253 -0.1350 -0.2627  0.0773
  142DOPC  H14R16835   4.916   2.300   5.279  0.8003 -0.9053 -2.1513
  142DOPC  H14S16836   5.024   2.428   5.210  0.3492 -0.4058  1.0972
  142DOPC  C21516837   4.825   2.427   5.138 -0.0102  0.0754  0.0522
  142DOPC  H15R16838   4.721   2.440   5.175 -0.1045  2.6423 -0.8550
  142DOPC  H15S16839   4.830   2.335   5.077  0.7457  0.8863 -1.1613
  142DOPC  C21616840   4.858   2.550   5.057 -0.0846 -0.0431  0.0958
  142DOPC  H16R16841   4.964   2.550   5.024  0.3361  2.0151  1.3168
  142DOPC  H16S16842   4.839   2.639   5.121  0.1667 -0.7386  1.1611
  142DOPC  C21716843   4.757   2.569   4.938 -0.3651  0.2540 -0.4187
  142DOPC  H17R16844   4.653   2.569   4.978 -0.7162  0.6761 -1.2998
  142DOPC  H17S16845   4.771   2.480   4.872  0.4663  0.0196  0.0614
  142DOPC  C21816846   4.787   2.682   4.845 -0.7133 -0.6369 -0.0247
  142DOPC  H18R16847   4.872   2.659   4.777 -0.8143  3.5259 -1.8929
  142DOPC  H18S16848   4.828   2.773   4.895  0.3236  0.0584 -2.0075
  142DOPC  H18T16849   4.697   2.718   4.791  0.1847  2.5798  0.3962
  142DOPC   C3316850   5.513   2.737   6.286 -0.2246  0.4633  0.3061
  142DOPC   H3X16851   5.621   2.746   6.310 -0.0622  0.8547 -0.5339
  142DOPC   H3Y16852   5.459   2.832   6.305  0.0023  0.9633 -1.4057
  142DOPC   C3416853   5.488   2.734   6.133 -0.6949 -0.2740  0.3261
  142DOPC   H4X16854   5.380   2.711   6.117 -0.4598 -1.3184  0.2167
  142DOPC   H4Y16855   5.544   2.645   6.099 -0.6834 -0.2882  0.3809
  142DOPC   C3516856   5.519   2.871   6.071  0.1937  0.3292  0.7028
  142DOPC   H5X16857   5.628   2.881   6.057  0.1838  0.4028  0.6821
  142DOPC   H5Y16858   5.486   2.952   6.140  0.5793  0.6076  0.5615
  142DOPC   C3616859   5.448   2.878   5.929  0.3669 -0.6092 -0.2736
  142DOPC   H6X16860   5.482   2.802   5.855 -1.4845 -0.6089 -1.1938
  142DOPC   H6Y16861   5.343   2.845   5.945  0.7484 -2.5892 -1.5081
  142DOPC   C3716862   5.450   3.017   5.870  0.2732 -0.5639 -0.1300
  142DOPC   H7X16863   5.390   3.021   5.776 -0.2375  1.1049  0.2271
  142DOPC   H7Y16864   5.389   3.080   5.938 -1.6791 -1.8789 -0.5728
  142DOPC   C3816865   5.591   3.071   5.853 -0.1613 -0.3248  0.1615
  142DOPC   H8X16866   5.669   3.002   5.812  0.5884  0.1924  0.6903
  142DOPC   H8Y16867   5.630   3.105   5.951  1.7706  0.8404 -0.9442
  142DOPC   C3916868   5.594   3.193   5.763  0.0855  0.0071  0.4343
  142DOPC   H9X16869   5.598   3.287   5.819 -1.9461  0.2543  0.2236
  142DOPC  C31016870   5.582   3.198   5.630 -0.1973 -0.1312  0.4489
  142DOPC  H10X16871   5.581   3.296   5.579  1.1114  0.3576  1.3021
  142DOPC  C31116872   5.555   3.088   5.529 -0.7379  0.0954  0.0089
  142DOPC  H11X16873   5.452   3.097   5.491 -0.8252  2.4497  0.5993
  142DOPC  H11Y16874   5.559   2.987   5.575 -2.9421  0.7479  1.7935
  142DOPC  C31216875   5.656   3.093   5.420 -0.2688 -0.3993  0.1433
  142DOPC  H12X16876   5.625   3.009   5.354 -0.8183 -1.2547  1.4569
  142DOPC  H12Y16877   5.760   3.074   5.454 -0.3065 -0.6211  0.1344
  142DOPC  C31316878   5.626   3.208   5.325 -0.2901 -0.0708  0.4840
  142DOPC  H13X16879   5.517   3.209   5.306 -0.0641 -0.7700 -0.9483
  142DOPC  H13Y16880   5.665   3.303   5.369  2.0393  0.1938 -1.9384
  142DOPC  C31416881   5.696   3.178   5.197 -0.7976 -0.0972  0.2260
  142DOPC  H14X16882   5.800   3.143   5.217 -1.0060  0.8001  3.4681
  142DOPC  H14Y16883   5.649   3.093   5.144  0.9810 -0.1779 -1.3357
  142DOPC  C31516884   5.707   3.282   5.091 -0.2244  0.3007 -0.0772
  142DOPC  H15X16885   5.785   3.357   5.116 -1.2053  1.0478  0.8606
  142DOPC  H15Y16886   5.606   3.328   5.091 -0.4587 -0.1899 -0.6170
  142DOPC  C31616887   5.723   3.212   4.958 -0.1438  0.1140 -0.3626
  142DOPC  H16X16888   5.821   3.161   4.975 -0.1824  0.3572  0.6906
  142DOPC  H16Y16889   5.650   3.129   4.945 -0.5937  0.0453  2.1210
  142DOPC  C31716890   5.718   3.305   4.839 -0.0733 -0.6532  0.1916
  142DOPC  H17X16891   5.619   3.355   4.831 -0.2607 -1.2955 -2.5040
  142DOPC  H17Y16892   5.801   3.379   4.845  0.0674 -0.7249 -0.8068
  142DOPC  C31816893   5.745   3.225   4.712  0.0886  0.0175  0.4015
  142DOPC  H18X16894   5.842   3.173   4.704 -1.0795 -2.4498  1.1875
  142DOPC  H18Y16895   5.668   3.146   4.696  1.5550 -0.9524 -2.7277
  142DOPC  H18Z16896   5.738   3.289   4.622  1.8500 -0.9219 -0.4581
  143DOPC     N16897   2.860   3.014   7.129  0.4577  0.1135  0.2901
  143DOPC   C1216898   2.909   3.134   7.050  0.5967 -0.1324  0.1633
  143DOPC  H12A16899   2.986   3.191   7.101  0.3087  0.6801 -0.2968
  143DOPC  H12B16900   2.825   3.202   7.054  0.8338  0.2318 -0.9155
  143DOPC   C1316901   2.810   3.040   7.267  1.0937 -0.9883  0.6979
  143DOPC  H13A16902   2.731   3.113   7.274 -2.2823 -4.2758  0.1577
  143DOPC  H13B16903   2.759   2.959   7.316 -1.0571  0.9603  1.8462
  143DOPC  H13C16904   2.893   3.066   7.331  2.0360 -2.1636 -0.0066
  143DOPC   C1416905   2.968   2.916   7.131  0.1452  0.2278  0.4269
  143DOPC  H14A16906   3.061   2.948   7.176 -0.0388  0.1220  0.8907
  143DOPC  H14B16907   2.943   2.835   7.197  0.9966 -0.4488 -0.0641
  143DOPC  H14C16908   2.982   2.878   7.032 -2.0152  1.9871 -0.6480
  143DOPC   C1516909   2.739   2.956   7.058  0.5498  0.2157  0.1537
  143DOPC  H15A16910   2.755   2.931   6.954  0.0254 -0.9939  0.3563
  143DOPC  H15B16911   2.651   3.018   7.065  0.9325  0.8252 -0.3203
  143DOPC  H15C16912   2.717   2.861   7.104  0.2405  0.5536  0.7176
  143DOPC   C1116913   2.957   3.112   6.906 -0.5216  0.8941  0.3444
  143DOPC  H11A16914   3.002   3.013   6.888 -1.7312  0.5892 -1.1346
  143DOPC  H11B16915   2.863   3.112   6.847  0.3577 -0.7255 -1.1087
  143DOPC     P16916   3.196   3.187   6.839 -0.4689  0.2917  0.1545
  143DOPC   O1316917   3.267   3.095   6.934 -0.1465 -0.3278 -0.2650
  143DOPC   O1416918   3.263   3.320   6.817  0.0956  0.1752 -0.8001
  143DOPC   O1216919   3.046   3.214   6.869 -0.3122 -0.1387  0.6912
  143DOPC   O1116920   3.200   3.110   6.700  0.3221  0.7686  0.0441
  143DOPC    C116921   3.129   3.153   6.588 -0.4542  0.0057  0.2274
  143DOPC    HA16922   3.126   3.264   6.583  0.8464  0.0490 -0.0115
  143DOPC    HB16923   3.023   3.118   6.584 -0.5812  0.4373 -0.2799
  143DOPC    C216924   3.201   3.107   6.458  0.3159  0.8195  0.5628
  143DOPC    HS16925   3.141   3.150   6.375 -1.2143 -2.0900  0.0243
  143DOPC   O2116926   3.195   2.963   6.444 -0.1501  0.1172  0.0246
  143DOPC   C2116927   3.076   2.908   6.433  0.1962  0.2158  0.2155
  143DOPC   O2216928   2.975   2.968   6.428 -0.0097  0.2474 -0.3950
  143DOPC   C2216929   3.085   2.756   6.413  0.0427  0.5926  0.2729
  143DOPC   H2R16930   3.084   2.720   6.519 -0.6832  3.2073  1.2348
  143DOPC   H2S16931   3.186   2.733   6.373 -0.6973 -0.1088 -1.2613
  143DOPC    C316932   3.340   3.172   6.440 -0.0644 -0.1029  0.2100
  143DOPC    HX16933   3.407   3.137   6.521  0.5524  1.8318  0.5813
  143DOPC    HY16934   3.335   3.282   6.449  1.5318  0.3604 -3.0653
  143DOPC   O3116935   3.401   3.158   6.308  0.5497  0.0499 -0.0196
  143DOPC   C3116936   3.481   3.061   6.294  0.9066 -0.2640  0.3109
  143DOPC   O3216937   3.505   2.965   6.365  0.8243 -0.1462  0.0755
  143DOPC   C3216938   3.561   3.081   6.155  0.5380  0.2856 -0.3191
  143DOPC   H2X16939   3.497   3.121   6.074 -0.8901 -0.6057  0.3313
  143DOPC   H2Y16940   3.638   3.157   6.178  0.4304  0.8087 -1.5979
  143DOPC   C2316941   2.966   2.695   6.330 -0.0435  0.5573 -1.1360
  143DOPC   H3R16942   2.868   2.702   6.382 -0.3237 -0.9225 -1.4051
  143DOPC   H3S16943   2.988   2.588   6.353  0.6121  0.5845 -1.6199
  143DOPC   C2416944   2.951   2.721   6.184 -0.7294 -0.3243  0.4586
  143DOPC   H4R16945   2.971   2.830   6.182 -1.6237 -0.1594 -0.8120
  143DOPC   H4S16946   2.852   2.708   6.135 -0.6270  0.8440 -0.0883
  143DOPC   C2516947   3.068   2.656   6.103 -0.2464  0.4310  0.2574
  143DOPC   H5R16948   3.046   2.548   6.092  3.6387 -0.3551 -1.4237
  143DOPC   H5S16949   3.171   2.668   6.143  0.3906 -2.7506 -0.2089
  143DOPC   C2616950   3.078   2.710   5.959 -0.5113 -0.0209 -0.2242
  143DOPC   H6R16951   3.101   2.817   5.981 -0.7619 -0.2031  1.0221
  143DOPC   H6S16952   2.980   2.706   5.908 -0.2135  1.4746 -0.9895
  143DOPC   C2716953   3.191   2.646   5.876 -0.1335 -0.0022 -0.2925
  143DOPC   H7R16954   3.168   2.538   5.866  2.0718 -0.7464  1.7091
  143DOPC   H7S16955   3.281   2.645   5.941 -0.9567  1.2514  0.9310
  143DOPC   C2816956   3.213   2.723   5.743  0.0486 -0.3061 -0.2885
  143DOPC   H8R16957   3.244   2.827   5.767  1.7743 -0.3615 -2.1005
  143DOPC   H8S16958   3.114   2.729   5.693 -0.0882 -0.3182 -0.0252
  143DOPC   C2916959   3.310   2.638   5.660 -0.6205 -0.3323 -0.8427
  143DOPC   H9R16960   3.401   2.609   5.715  0.1824 -0.2396 -2.0836
  143DOPC  C21016961   3.301   2.596   5.534 -0.9562  0.0445 -0.1855
  143DOPC  H10R16962   3.385   2.536   5.494 -0.2126 -2.1054  4.0255
  143DOPC  C21116963   3.192   2.623   5.440 -0.4418 -0.2685  1.1364
  143DOPC  H11R16964   3.138   2.720   5.453 -1.0426 -0.3993 -0.2090
  143DOPC  H11S16965   3.119   2.539   5.440 -0.5799 -0.1605  2.3951
  143DOPC  C21216966   3.252   2.628   5.290 -0.2704  0.1837  0.8453
  143DOPC  H12R16967   3.161   2.627   5.228 -0.5875 -1.3470  1.2923
  143DOPC  H12S16968   3.313   2.537   5.269 -1.8947 -1.0167  1.1776
  143DOPC  C21316969   3.323   2.756   5.246 -0.1250  0.3209  0.1613
  143DOPC  H13R16970   3.423   2.775   5.291  1.9160 -0.9993 -3.4250
  143DOPC  H13S16971   3.263   2.847   5.268 -0.1470  0.9714 -2.3550
  143DOPC  C21416972   3.357   2.765   5.096 -0.4391  0.2479  0.8171
  143DOPC  H14R16973   3.274   2.743   5.025 -0.3091 -1.4294  1.1353
  143DOPC  H14S16974   3.435   2.687   5.081  0.2650  1.2082 -0.7369
  143DOPC  C21516975   3.429   2.900   5.054  0.2749 -0.0156 -0.1202
  143DOPC  H15R16976   3.496   2.925   5.139  1.2408 -0.4669 -0.7432
  143DOPC  H15S16977   3.362   2.989   5.041  2.1035  1.1949 -1.9440
  143DOPC  C21616978   3.508   2.877   4.920 -0.8426 -0.3617  0.3273
  143DOPC  H16R16979   3.434   2.865   4.837  0.3314  2.4166 -1.2794
  143DOPC  H16S16980   3.568   2.784   4.917  0.0902  0.1855  1.3909
  143DOPC  C21716981   3.608   2.984   4.869  0.0111  0.3999  0.0546
  143DOPC  H17R16982   3.696   2.985   4.936  0.2795  1.4251 -0.2931
  143DOPC  H17S16983   3.553   3.077   4.893 -0.4556  0.2174 -0.2809
  143DOPC  C21816984   3.644   2.968   4.718 -0.3310  0.0777  0.9559
  143DOPC  H18R16985   3.708   3.057   4.697  0.8252 -1.1711 -1.1034
  143DOPC  H18S16986   3.565   2.962   4.641 -1.2468  2.1287  1.6503
  143DOPC  H18T16987   3.722   2.889   4.719  0.1561  0.5474  1.5656
  143DOPC   C3316988   3.630   2.957   6.098  0.1349 -0.2668  0.3186
  143DOPC   H3X16989   3.686   2.918   6.187 -0.1924  1.6258  1.4152
  143DOPC   H3Y16990   3.705   2.978   6.019 -0.4804  2.3062  0.3212
  143DOPC   C3416991   3.522   2.855   6.056  0.3589  0.6928  0.4919
  143DOPC   H4X16992   3.459   2.907   5.981 -0.3894 -0.0113  0.6156
  143DOPC   H4Y16993   3.462   2.819   6.142  0.9829 -0.2871  0.5354
  143DOPC   C3516994   3.590   2.733   5.998  0.2522  1.0840 -0.3612
  143DOPC   H5X16995   3.517   2.649   5.990  0.4210  0.8639  0.3455
  143DOPC   H5Y16996   3.663   2.702   6.075 -0.2455 -0.1047 -0.3443
  143DOPC   C3616997   3.656   2.760   5.863  0.6027  0.3818  0.1604
  143DOPC   H6X16998   3.593   2.780   5.774  1.3416 -2.3437 -1.0876
  143DOPC   H6Y16999   3.724   2.848   5.868 -0.4172  1.2286 -0.5292
  143DOPC   C3717000   3.745   2.646   5.802 -0.0235  0.3649  0.3551
  143DOPC   H7X17001   3.790   2.671   5.704 -0.6684 -2.6908 -0.8000
  143DOPC   H7Y17002   3.835   2.631   5.865 -0.6313 -0.2271  1.1105
  143DOPC   C3817003   3.682   2.504   5.792 -0.2713 -0.4091 -0.3538
  143DOPC   H8X17004   3.605   2.526   5.715  0.0926 -0.2098 -0.6677
  143DOPC   H8Y17005   3.622   2.474   5.880 -1.1677  0.8898 -0.5004
  143DOPC   C3917006   3.782   2.399   5.745  0.4070 -0.1188 -0.5792
  143DOPC   H9X17007   3.785   2.375   5.638  1.9110  2.6783 -1.2605
  143DOPC  C31017008   3.852   2.328   5.834  0.0562  1.0919 -0.2599
  143DOPC  H10X17009   3.931   2.261   5.796 -0.0662 -0.9684  2.8054
  143DOPC  C31117010   3.852   2.332   5.983  0.2019 -1.0519 -0.4948
  143DOPC  H11X17011   3.754   2.365   6.024  0.2561 -0.5180 -0.7864
  143DOPC  H11Y17012   3.927   2.409   6.010 -0.1630 -1.2819  1.3270
  143DOPC  C31217013   3.893   2.206   6.053 -0.3478 -0.1507  0.6482
  143DOPC  H12X17014   3.987   2.163   6.012 -1.2368 -0.6973 -0.9629
  143DOPC  H12Y17015   3.810   2.134   6.033  0.2539 -0.3605 -1.2758
  143DOPC  C31317016   3.902   2.227   6.211  0.2873  0.1403 -0.9972
  143DOPC  H13X17017   3.974   2.312   6.221  1.2899 -0.6711 -1.1453
  143DOPC  H13Y17018   3.800   2.261   6.239  0.8042  1.3781 -0.5471
  143DOPC  C31417019   3.952   2.112   6.293  0.0224 -1.2486  0.2663
  143DOPC  H14X17020   3.897   2.016   6.288  0.0011 -1.1927 -0.7117
  143DOPC  H14Y17021   4.058   2.102   6.262  0.5731  2.7632  0.2591
  143DOPC  C31517022   3.951   2.139   6.442  0.3160 -0.1396 -0.4319
  143DOPC  H15X17023   3.844   2.148   6.474  0.7309  1.1749  0.7013
  143DOPC  H15Y17024   4.008   2.233   6.457  3.6102 -1.6868 -2.3166
  143DOPC  C31617025   4.027   2.035   6.524  0.1504 -0.5564  0.0333
  143DOPC  H16X17026   3.971   1.942   6.544 -1.2537  0.0035 -1.1201
  143DOPC  H16Y17027   4.113   2.022   6.456  0.6667 -0.4130  0.6489
  143DOPC  C31717028   4.093   2.090   6.653  0.0602 -0.8082  0.7410
  143DOPC  H17X17029   4.185   2.035   6.684  0.4808 -0.1963  0.5972
  143DOPC  H17Y17030   4.122   2.197   6.647 -1.2550 -0.2413  3.0526
  143DOPC  C31817031   3.997   2.093   6.773 -0.2775  0.1647 -0.6752
  143DOPC  H18X17032   4.049   2.126   6.866 -0.6716 -1.1152  0.0228
  143DOPC  H18Y17033   3.927   2.178   6.760  0.8220  1.2517  0.2791
  143DOPC  H18Z17034   3.944   1.997   6.790 -0.0787  0.3481  1.1725
  144DOPC     N17035   4.030   2.413   7.560  0.2401  0.6121  0.1375
  144DOPC   C1217036   4.163   2.464   7.508  0.0495  0.2433  0.5377
  144DOPC  H12A17037   4.240   2.401   7.550  1.6148  0.9233 -1.1611
  144DOPC  H12B17038   4.179   2.566   7.540  1.2637  1.0521 -2.2731
  144DOPC   C1317039   4.023   2.439   7.707 -0.1671  0.5689  0.5973
  144DOPC  H13A17040   3.922   2.461   7.738 -0.3911  0.9398 -0.3660
  144DOPC  H13B17041   4.069   2.363   7.768  2.2681  3.1963  2.3146
  144DOPC  H13C17042   4.081   2.525   7.736  1.7070 -1.2167  2.4667
  144DOPC   C1417043   4.015   2.261   7.541  0.6121 -0.4619  0.0965
  144DOPC  H14A17044   4.097   2.206   7.584  1.1939 -1.6787 -2.3609
  144DOPC  H14B17045   3.922   2.220   7.576  1.2008 -1.8494  0.0642
  144DOPC  H14C17046   4.020   2.248   7.433  1.2951  0.7413 -0.0389
  144DOPC   C1517047   3.927   2.489   7.486 -0.1951 -0.5010 -0.4921
  144DOPC  H15A17048   3.945   2.489   7.380  0.7545 -1.6128 -0.3564
  144DOPC  H15B17049   3.914   2.592   7.517  1.4135  0.3105 -2.3020
  144DOPC  H15C17050   3.829   2.445   7.498  0.8598 -2.8209  0.3094
  144DOPC   C1117051   4.185   2.461   7.354 -0.7523  0.3692 -0.2253
  144DOPC  H11A17052   4.116   2.527   7.299 -0.8481  0.9150  0.5283
  144DOPC  H11B17053   4.286   2.494   7.322  0.0214 -0.3011  1.4112
  144DOPC     P17054   4.181   2.300   7.144  0.2167 -0.1654  0.1360
  144DOPC   O1317055   4.313   2.350   7.094  0.0089 -0.7169  0.3158
  144DOPC   O1417056   4.060   2.352   7.072 -0.1654  0.1048  0.2779
  144DOPC   O1217057   4.180   2.327   7.304 -0.1377 -0.0797  0.1955
  144DOPC   O1117058   4.179   2.138   7.148  0.4494  0.3191 -0.2001
  144DOPC    C117059   4.307   2.064   7.149  0.8151  0.3166  0.3681
  144DOPC    HA17060   4.304   1.992   7.234  0.0634 -0.5729 -0.3908
  144DOPC    HB17061   4.394   2.129   7.171  0.9329  0.5123 -0.6086
  144DOPC    C217062   4.340   1.995   7.013 -0.5147 -1.4865 -0.1055
  144DOPC    HS17063   4.434   1.937   7.022  1.0697  0.6822 -1.6801
  144DOPC   O2117064   4.349   2.102   6.916  0.1194 -0.1201  0.5825
  144DOPC   C2117065   4.464   2.175   6.906  0.5185  0.2556 -0.2838
  144DOPC   O2217066   4.563   2.147   6.971 -0.2945 -0.1245 -0.1088
  144DOPC   C2217067   4.452   2.290   6.803  0.1612  0.5414  0.0617
  144DOPC   H2R17068   4.360   2.352   6.808 -0.0301  0.5715 -2.3426
  144DOPC   H2S17069   4.449   2.243   6.702  1.7309 -1.7845  0.9990
  144DOPC    C317070   4.228   1.906   6.976 -1.0972  0.5148  0.1402
  144DOPC    HX17071   4.141   1.973   6.959  0.9772  2.7543 -2.5442
  144DOPC    HY17072   4.220   1.834   7.060  2.1419 -1.2756 -0.9167
  144DOPC   O3117073   4.270   1.846   6.851  0.4991 -0.6100  0.0963
  144DOPC   C3117074   4.183   1.747   6.817  0.4451 -0.7623 -0.0957
  144DOPC   O3217075   4.074   1.720   6.869 -0.2945 -0.1722  0.2054
  144DOPC   C3217076   4.251   1.660   6.709 -0.3406 -0.4678  0.2063
  144DOPC   H2X17077   4.282   1.716   6.618 -1.4450  0.2046  0.2293
  144DOPC   H2Y17078   4.345   1.621   6.754  0.2855  0.4991 -0.2027
  144DOPC   C2317079   4.580   2.371   6.806  0.3954  0.0897 -0.5554
  144DOPC   H3R17080   4.652   2.289   6.786 -1.3289 -1.6522  0.1158
  144DOPC   H3S17081   4.587   2.410   6.909  0.1464  2.7708 -1.4657
  144DOPC   C2417082   4.601   2.478   6.700 -0.1108 -0.0280 -0.4532
  144DOPC   H4R17083   4.700   2.520   6.724  0.0124 -1.2246  1.3643
  144DOPC   H4S17084   4.533   2.561   6.730  0.9700  0.5300  0.5141
  144DOPC   C2517085   4.580   2.438   6.555 -0.1404  0.5314 -0.0869
  144DOPC   H5R17086   4.470   2.421   6.547 -0.3376  1.0461  1.1936
  144DOPC   H5S17087   4.633   2.345   6.525 -2.0480 -0.1864 -1.4261
  144DOPC   C2617088   4.633   2.539   6.455  0.3676  0.5309  0.0396
  144DOPC   H6R17089   4.745   2.541   6.455  0.3754  0.3790 -0.7379
  144DOPC   H6S17090   4.593   2.640   6.478  0.9769  1.1413 -1.4675
  144DOPC   C2717091   4.596   2.504   6.308  0.7695  0.2533  0.4063
  144DOPC   H7R17092   4.631   2.402   6.283 -0.4288  0.1813 -1.1358
  144DOPC   H7S17093   4.656   2.576   6.249  0.5094 -1.3698 -2.0017
  144DOPC   C2817094   4.450   2.536   6.275  0.2424  0.1825 -0.1350
  144DOPC   H8R17095   4.450   2.570   6.170  3.8521  0.0258 -0.3113
  144DOPC   H8S17096   4.417   2.614   6.347  1.4858  1.4026 -0.8282
  144DOPC   C2917097   4.364   2.412   6.298  0.0755  0.6164  0.0341
  144DOPC   H9R17098   4.309   2.404   6.393 -1.3423 -0.8273 -0.8482
  144DOPC  C21017099   4.323   2.322   6.201 -0.2365 -0.0280  0.1591
  144DOPC  H10R17100   4.250   2.245   6.231 -2.3717  1.1276 -1.7663
  144DOPC  C21117101   4.370   2.320   6.059  0.1431 -0.0224 -0.4601
  144DOPC  H11R17102   4.387   2.218   6.018 -1.0835  0.1680 -1.5069
  144DOPC  H11S17103   4.454   2.390   6.044  1.8742 -1.8881  0.1044
  144DOPC  C21217104   4.248   2.375   5.970  0.4829 -0.2091 -0.0218
  144DOPC  H12R17105   4.244   2.477   6.013 -1.3046 -0.9319  1.6512
  144DOPC  H12S17106   4.152   2.319   5.969 -0.0895  0.6015 -3.3251
  144DOPC  C21317107   4.290   2.391   5.819  0.5745 -0.6184 -0.0479
  144DOPC  H13R17108   4.303   2.289   5.777  0.0665 -0.1779 -1.3166
  144DOPC  H13S17109   4.397   2.421   5.828  0.3369  0.2585 -0.0302
  144DOPC  C21417110   4.205   2.483   5.724 -0.4412 -0.0288 -0.5301
  144DOPC  H14R17111   4.225   2.592   5.731 -4.4877  1.0055 -1.9265
  144DOPC  H14S17112   4.099   2.468   5.755  0.0280  0.6339  1.5197
  144DOPC  C21517113   4.233   2.443   5.580 -0.2239 -0.7054 -0.2555
  144DOPC  H15R17114   4.175   2.351   5.558 -0.1151 -0.7146 -0.5003
  144DOPC  H15S17115   4.342   2.421   5.575  0.0284  0.3611  0.1805
  144DOPC  C21617116   4.197   2.562   5.483 -0.2432 -0.7753 -0.3166
  144DOPC  H16R17117   4.251   2.651   5.521 -0.0117 -1.0265 -0.0541
  144DOPC  H16S17118   4.088   2.586   5.487 -0.6631 -1.9870 -2.6201
  144DOPC  C21717119   4.238   2.538   5.337  0.2996 -0.2739 -0.7804
  144DOPC  H17R17120   4.184   2.449   5.298  3.5773 -2.4575 -0.7461
  144DOPC  H17S17121   4.347   2.521   5.341  0.3748  0.4046  2.1209
  144DOPC  C21817122   4.207   2.662   5.246  0.6666  0.6218  0.2906
  144DOPC  H18R17123   4.228   2.644   5.139 -1.3653 -2.7546  0.2915
  144DOPC  H18S17124   4.255   2.757   5.276  0.7957  0.7805 -0.4132
  144DOPC  H18T17125   4.099   2.687   5.259  0.6389  2.0466 -2.1922
  144DOPC   C3317126   4.154   1.553   6.655 -0.7082 -0.1815 -0.3247
  144DOPC   H3X17127   4.117   1.477   6.727  0.9086  0.3874  1.1740
  144DOPC   H3Y17128   4.213   1.491   6.584  0.0971  0.8735 -0.5924
  144DOPC   C3417129   4.042   1.616   6.571 -0.1789 -0.1594  0.4316
  144DOPC   H4X17130   4.099   1.691   6.512 -0.3719 -0.9261 -0.7704
  144DOPC   H4Y17131   3.964   1.667   6.631  0.5562 -0.4324  1.6397
  144DOPC   C3517132   3.978   1.521   6.467  0.1655 -0.3274 -0.0532
  144DOPC   H5X17133   3.904   1.455   6.518 -1.2851  1.3762  0.1178
  144DOPC   H5Y17134   4.064   1.465   6.422  0.0076 -1.5226  1.0582
  144DOPC   C3617135   3.885   1.577   6.358  0.2495 -0.3486 -0.2198
  144DOPC   H6X17136   3.842   1.492   6.301 -0.1323  0.1325 -0.6665
  144DOPC   H6Y17137   3.803   1.633   6.409  0.2940 -0.1235 -0.3932
  144DOPC   C3717138   3.957   1.682   6.265 -0.0523 -0.1025 -0.9955
  144DOPC   H7X17139   3.970   1.766   6.336 -1.0108 -1.0701  0.3595
  144DOPC   H7Y17140   4.060   1.649   6.239  0.7096  0.6200  0.9460
  144DOPC   C3817141   3.879   1.723   6.141 -0.4142 -0.6741  0.3625
  144DOPC   H8X17142   3.926   1.816   6.103  1.9479 -2.6248 -1.7778
  144DOPC   H8Y17143   3.776   1.760   6.164  0.2860  1.2069  0.6311
  144DOPC   C3917144   3.876   1.614   6.036  0.3494 -0.6153  0.1991
  144DOPC   H9X17145   3.887   1.513   6.076  0.0611  0.1960  2.4461
  144DOPC  C31017146   3.838   1.628   5.904 -0.1471 -0.3540 -0.3013
  144DOPC  H10X17147   3.866   1.557   5.825 -0.3643  0.2247 -0.9124
  144DOPC  C31117148   3.812   1.767   5.846  0.0152  0.2397 -0.8029
  144DOPC  H11X17149   3.773   1.844   5.915 -0.2537 -0.0383 -0.6461
  144DOPC  H11Y17150   3.737   1.766   5.764 -0.5973  0.7178 -0.2600
  144DOPC  C31217151   3.949   1.814   5.799 -0.2536  0.4891 -0.3004
  144DOPC  H12X17152   3.975   1.765   5.703  0.7732  2.1501 -0.9142
  144DOPC  H12Y17153   4.027   1.793   5.875 -0.3028 -1.3563 -0.7129
  144DOPC  C31317154   3.956   1.958   5.765  0.2322 -0.6977 -0.2093
  144DOPC  H13X17155   3.895   1.973   5.674 -0.4888 -3.6480 -0.3419
  144DOPC  H13Y17156   3.911   2.020   5.845  0.4755  0.2366 -0.7920
  144DOPC  C31417157   4.096   2.018   5.739 -0.5354  0.4089 -0.2768
  144DOPC  H14X17158   4.086   2.128   5.728 -2.6945  0.2158 -0.8274
  144DOPC  H14Y17159   4.157   2.007   5.831  1.1103  1.1506 -1.2541
  144DOPC  C31517160   4.175   1.953   5.619  1.1949  0.0702  0.4404
  144DOPC  H15X17161   4.176   1.842   5.624 -2.5707 -0.2359 -1.9807
  144DOPC  H15Y17162   4.279   1.991   5.614  1.1184  0.1759 -0.6122
  144DOPC  C31617163   4.122   1.991   5.480 -0.2906  0.1780  1.1398
  144DOPC  H16X17164   4.016   1.960   5.469  0.2739 -1.7734  0.7756
  144DOPC  H16Y17165   4.134   2.101   5.470  0.6062  0.1402  1.6938
  144DOPC  C31717166   4.184   1.923   5.352 -0.4620 -0.2663 -0.0038
  144DOPC  H17X17167   4.294   1.931   5.357 -0.4095  1.1451 -2.1441
  144DOPC  H17Y17168   4.170   1.812   5.354  0.0569 -0.3195  1.4364
  144DOPC  C31817169   4.132   1.967   5.221  0.1781 -0.1031  0.9346
  144DOPC  H18X17170   4.022   1.971   5.231  0.1679  0.1578  0.7044
  144DOPC  H18Y17171   4.173   2.058   5.173  1.8360 -1.7418 -0.9809
  144DOPC  H18Z17172   4.158   1.885   5.151  0.6713  0.2390  0.7144
  145DOPC     N17173   4.832   5.388   7.147 -0.4451  0.7244 -0.5604
  145DOPC   C1217174   4.899   5.418   7.010  0.3419  0.0802  0.2056
  145DOPC  H12A17175   4.966   5.499   7.036 -0.7984  0.9498  0.5599
  145DOPC  H12B17176   4.824   5.474   6.956  0.8810  1.0395  0.4295
  145DOPC   C1317177   4.924   5.319   7.237 -0.0510 -0.9505 -0.3685
  145DOPC  H13A17178   4.947   5.222   7.195 -0.0586 -0.5523 -1.3262
  145DOPC  H13B17179   5.015   5.376   7.245 -0.0127 -1.1696  0.9214
  145DOPC  H13C17180   4.892   5.311   7.340 -1.2928  1.9032 -0.4574
  145DOPC   C1417181   4.713   5.311   7.140  0.5127 -0.3518 -0.3015
  145DOPC  H14A17182   4.652   5.300   7.228 -1.4439  1.4447 -1.3225
  145DOPC  H14B17183   4.642   5.363   7.077  0.4486 -0.9918 -0.7678
  145DOPC  H14C17184   4.737   5.211   7.108  0.3640 -1.2741  2.2430
  145DOPC   C1517185   4.809   5.516   7.217  0.6750  0.3172 -0.1337
  145DOPC  H15A17186   4.734   5.567   7.158  1.6641  0.5613 -1.2175
  145DOPC  H15B17187   4.898   5.578   7.216  0.1406  1.0922  0.1673
  145DOPC  H15C17188   4.771   5.505   7.317 -0.0099  0.7094 -0.3445
  145DOPC   C1117189   4.968   5.307   6.927 -0.6403  0.1943 -1.1948
  145DOPC  H11A17190   5.015   5.368   6.847 -0.3930  1.6339  0.0048
  145DOPC  H11B17191   5.047   5.264   6.992 -2.0637 -1.6059 -0.5770
  145DOPC     P17192   4.883   5.062   6.921 -0.0707  0.0957  0.2501
  145DOPC   O1317193   4.757   4.993   6.885  0.0854  0.2058 -0.1396
  145DOPC   O1417194   4.933   5.037   7.057  0.1317  0.4874 -0.5476
  145DOPC   O1217195   4.876   5.215   6.875  0.5030  0.7423 -0.3339
  145DOPC   O1117196   4.993   4.996   6.819  0.2776  0.0815 -0.1729
  145DOPC    C117197   4.973   4.983   6.676  0.5734  0.7072  0.9634
  145DOPC    HA17198   4.874   5.016   6.638  0.4766  0.3612  0.9181
  145DOPC    HB17199   4.971   4.875   6.652 -3.2400  1.0182 -0.8584
  145DOPC    C217200   5.071   5.055   6.584  0.0413  0.4351  0.1147
  145DOPC    HS17201   5.078   5.018   6.480 -0.4033  2.3687 -0.6497
  145DOPC   O2117202   5.204   5.044   6.650  0.0595  0.4995 -0.2066
  145DOPC   C2117203   5.271   4.938   6.616 -0.1906  0.7330 -0.0217
  145DOPC   O2217204   5.229   4.845   6.547 -0.3330  0.1646  0.1693
  145DOPC   C2217205   5.416   4.942   6.674  0.5461  0.0344 -0.0716
  145DOPC   H2R17206   5.464   4.843   6.660  2.6053  0.3773  3.2979
  145DOPC   H2S17207   5.401   4.950   6.784 -0.3738  0.6852 -0.2308
  145DOPC    C317208   5.040   5.200   6.565 -0.8735  0.6990  0.5321
  145DOPC    HX17209   5.039   5.254   6.662  1.7274  0.4988  0.7639
  145DOPC    HY17210   4.940   5.205   6.517 -0.5212  0.1346 -0.2884
  145DOPC   O3117211   5.137   5.263   6.480  0.2075 -0.1528  0.0296
  145DOPC   C3117212   5.110   5.394   6.456  0.6902 -0.2399 -0.6127
  145DOPC   O3217213   5.004   5.449   6.499  0.1281  0.2071  0.2216
  145DOPC   C3217214   5.211   5.453   6.368  0.0332 -0.2463  0.2808
  145DOPC   H2X17215   5.264   5.525   6.435 -0.8576 -0.2523  1.0174
  145DOPC   H2Y17216   5.267   5.362   6.337 -1.1091 -1.6863  2.2027
  145DOPC   C2317217   5.501   5.057   6.625 -0.1110 -0.2484 -0.1027
  145DOPC   H3R17218   5.600   5.049   6.675 -0.0636 -1.2303 -0.3127
  145DOPC   H3S17219   5.447   5.151   6.647 -1.1469 -0.6713 -0.7216
  145DOPC   C2417220   5.531   5.055   6.475 -0.0111 -0.1537 -0.2676
  145DOPC   H4R17221   5.617   5.122   6.455 -0.5550 -0.3020 -3.7714
  145DOPC   H4S17222   5.452   5.114   6.425 -0.8976 -0.3460  0.8576
  145DOPC   C2517223   5.567   4.921   6.412 -0.0528  0.6352  0.3548
  145DOPC   H5R17224   5.492   4.840   6.419 -1.7839  2.0014 -1.2676
  145DOPC   H5S17225   5.664   4.897   6.460  0.2487  3.3192  1.3234
  145DOPC   C2617226   5.597   4.933   6.260 -0.3612 -0.1034 -0.2938
  145DOPC   H6R17227   5.504   4.960   6.206 -0.6007 -0.5687 -0.1144
  145DOPC   H6S17228   5.630   4.833   6.226  1.0559  0.3488 -0.3000
  145DOPC   C2717229   5.701   5.042   6.226  0.2826 -0.7473  0.3087
  145DOPC   H7R17230   5.799   5.032   6.279  1.0353 -0.6137 -1.0008
  145DOPC   H7S17231   5.655   5.139   6.254  2.3346  0.3884 -0.0435
  145DOPC   C2817232   5.734   5.049   6.073  0.6412  0.2704 -0.8205
  145DOPC   H8R17233   5.771   5.153   6.055  0.0557  0.6662  0.1464
  145DOPC   H8S17234   5.640   5.041   6.014  1.3055  1.8749 -2.1846
  145DOPC   C2917235   5.830   4.943   6.052 -0.8563  0.4851 -0.0044
  145DOPC   H9R17236   5.772   4.851   6.039 -0.0922 -0.4397  2.5598
  145DOPC  C21017237   5.965   4.941   6.039  0.1531 -0.3266  0.3124
  145DOPC  H10R17238   6.005   4.839   6.030  1.1121  0.0447  0.2149
  145DOPC  C21117239   6.054   5.059   6.037 -0.6611  0.1519  1.0476
  145DOPC  H11R17240   6.144   5.051   6.102  0.1289 -2.3933 -0.2280
  145DOPC  H11S17241   5.988   5.148   6.042 -0.7676  0.3363 -1.7331
  145DOPC  C21217242   6.123   5.072   5.893  0.1882 -0.2874 -0.2354
  145DOPC  H12R17243   6.194   4.990   5.871  0.4321 -0.3596  0.7914
  145DOPC  H12S17244   6.182   5.166   5.901  0.1261 -0.2222 -0.5189
  145DOPC  C21317245   6.021   5.099   5.784  0.3737 -0.6787  0.0914
  145DOPC  H13R17246   5.942   5.161   5.830  0.9791  0.2486 -0.0991
  145DOPC  H13S17247   5.980   5.005   5.740 -0.3571 -0.6980  0.8111
  145DOPC  C21417248   6.082   5.182   5.668  0.3658 -0.4880  0.2654
  145DOPC  H14R17249   6.129   5.282   5.681 -1.6701  0.4795  0.6711
  145DOPC  H14S17250   5.993   5.215   5.610  0.4077  2.1966  1.5671
  145DOPC  C21517251   6.156   5.100   5.564  0.0249 -0.8630 -0.3143
  145DOPC  H15R17252   6.100   5.008   5.534 -1.8985  0.8252 -2.2361
  145DOPC  H15S17253   6.253   5.068   5.607 -0.6403 -1.3441  0.8823
  145DOPC  C21617254   6.199   5.190   5.447  0.2685 -0.4877 -0.5440
  145DOPC  H16R17255   6.228   5.291   5.483 -0.2643 -0.7880  0.7833
  145DOPC  H16S17256   6.121   5.206   5.369  0.6551 -0.3799 -0.9177
  145DOPC  C21717257   6.327   5.145   5.378  0.4207 -0.3002 -0.2117
  145DOPC  H17R17258   6.410   5.163   5.448 -0.8454  1.5981  0.8879
  145DOPC  H17S17259   6.346   5.207   5.288  0.4851 -1.2675 -0.8798
  145DOPC  C21817260   6.316   5.001   5.336 -0.3884 -0.0405  0.0383
  145DOPC  H18R17261   6.394   4.982   5.260 -0.2296  0.2426  0.1310
  145DOPC  H18S17262   6.217   4.973   5.292 -0.1943 -1.6872  0.5632
  145DOPC  H18T17263   6.324   4.926   5.417  2.0280  0.3778  0.2314
  145DOPC   C3317264   5.138   5.512   6.245  0.4486 -0.6482 -0.8105
  145DOPC   H3X17265   5.054   5.579   6.277 -1.6627 -3.4947  0.0119
  145DOPC   H3Y17266   5.090   5.437   6.178  0.7253 -0.6408 -1.0197
  145DOPC   C3417267   5.230   5.605   6.164  0.0755 -0.3034 -0.6220
  145DOPC   H4X17268   5.303   5.539   6.112 -0.9626 -2.1720  0.1833
  145DOPC   H4Y17269   5.274   5.678   6.235 -2.6510  0.7039  0.1665
  145DOPC   C3517270   5.151   5.697   6.060 -0.2879 -0.2515 -0.1882
  145DOPC   H5X17271   5.088   5.767   6.119  2.2205  1.1125  1.0235
  145DOPC   H5Y17272   5.083   5.629   6.004  0.6543 -0.5292 -1.0221
  145DOPC   C3617273   5.238   5.772   5.960 -0.4135  0.0028  0.1621
  145DOPC   H6X17274   5.295   5.840   6.026  0.3753 -0.3317 -0.1615
  145DOPC   H6Y17275   5.316   5.705   5.919 -0.9077 -0.4139 -0.1112
  145DOPC   C3717276   5.163   5.854   5.859 -0.2780 -0.5571 -0.1105
  145DOPC   H7X17277   5.236   5.924   5.812  0.9196  0.1610  2.6199
  145DOPC   H7Y17278   5.118   5.784   5.785  0.1360 -0.3527 -0.5636
  145DOPC   C3817279   5.046   5.937   5.910  0.0136  0.1503 -0.1008
  145DOPC   H8X17280   5.086   5.967   6.009  1.1702 -0.6219 -0.3197
  145DOPC   H8Y17281   4.958   5.875   5.935 -1.1515  1.9927  0.6255
  145DOPC   C3917282   5.010   6.063   5.838 -0.7504  0.2603  0.1078
  145DOPC   H9X17283   5.087   6.138   5.814  0.0112 -0.5669 -0.0903
  145DOPC  C31017284   4.889   6.100   5.792  0.7931  0.5384  0.6835
  145DOPC  H10X17285   4.884   6.200   5.745 -0.4753 -0.7790 -2.1999
  145DOPC  C31117286   4.746   6.046   5.801 -0.0008 -0.5032  1.1056
  145DOPC  H11X17287   4.738   5.955   5.737 -2.8642  0.2810  0.2027
  145DOPC  H11Y17288   4.677   6.120   5.756 -2.5240 -3.3941 -0.2129
  145DOPC  C31217289   4.682   6.008   5.935 -0.0558 -0.9730 -0.1963
  145DOPC  H12X17290   4.662   6.112   5.968 -0.0664 -0.7531 -0.8710
  145DOPC  H12Y17291   4.753   5.947   5.995  0.6904 -0.9173 -0.9867
  145DOPC  C31317292   4.541   5.941   5.918 -0.3448 -0.2384  0.0212
  145DOPC  H13X17293   4.544   5.848   5.858  0.2915 -1.1813  1.4413
  145DOPC  H13Y17294   4.498   5.916   6.018  0.2728 -0.6264  0.1948
  145DOPC  C31417295   4.434   6.030   5.860  0.2858 -0.1917 -0.5973
  145DOPC  H14X17296   4.408   6.118   5.922 -2.9203 -1.2196 -0.3222
  145DOPC  H14Y17297   4.470   6.061   5.760 -0.2131  0.7974 -0.4776
  145DOPC  C31517298   4.299   5.960   5.851 -0.2338  0.0824  0.0570
  145DOPC  H15X17299   4.307   5.849   5.851 -2.4342 -0.1319 -0.6894
  145DOPC  H15Y17300   4.250   5.987   5.755 -0.3714 -0.3532  0.0015
  145DOPC  C31617301   4.205   5.999   5.964  0.4059 -0.2289  0.0555
  145DOPC  H16X17302   4.259   5.986   6.059 -2.4494 -0.8337  1.7161
  145DOPC  H16Y17303   4.174   6.106   5.968 -1.7582 -0.8486  1.8870
  145DOPC  C31717304   4.079   5.917   5.972 -0.4341  0.6090 -0.3896
  145DOPC  H17X17305   4.000   5.937   5.896 -0.0698 -0.4492 -1.0847
  145DOPC  H17Y17306   4.107   5.809   5.968 -2.0061  0.1083  0.9642
  145DOPC  C31817307   4.018   5.920   6.108 -0.0020  0.5014  0.0062
  145DOPC  H18X17308   3.996   6.022   6.146  1.1561  0.7746 -0.0110
  145DOPC  H18Y17309   3.934   5.847   6.099  0.6513 -0.5067  1.7245
  145DOPC  H18Z17310   4.089   5.873   6.180 -0.5068 -1.7253 -0.8530
  146DOPC     N17311   6.970   2.868   6.930 -0.3947  0.8275  0.4193
  146DOPC   C1217312   6.920   2.891   6.790  0.1925 -0.4372  0.7979
  146DOPC  H12A17313   7.003   2.924   6.729  0.5114 -1.2046  0.8135
  146DOPC  H12B17314   6.857   2.979   6.781 -0.2482 -0.8885 -1.1058
  146DOPC   C1317315   7.023   3.001   6.974  0.4062  0.5881  0.0944
  146DOPC  H13A17316   7.103   3.042   6.913 -0.8093  0.8862 -1.3558
  146DOPC  H13B17317   6.938   3.066   6.985 -1.1324 -1.2553 -0.4003
  146DOPC  H13C17318   7.070   2.991   7.071  1.1878  1.9799 -0.1167
  146DOPC   C1417319   7.071   2.763   6.923 -0.6024  0.2761  0.5549
  146DOPC  H14A17320   7.146   2.798   6.853 -1.0596 -1.0822 -0.6735
  146DOPC  H14B17321   7.121   2.735   7.015  0.8334  1.2062  0.0815
  146DOPC  H14C17322   7.040   2.672   6.874  0.6084 -0.0829  0.4113
  146DOPC   C1517323   6.860   2.835   7.023  0.2375  0.3749 -0.4230
  146DOPC  H15A17324   6.825   2.734   7.010  1.1831  0.2060 -1.9442
  146DOPC  H15B17325   6.778   2.902   6.998  0.7192  0.8102 -0.8822
  146DOPC  H15C17326   6.881   2.850   7.128  2.0269  1.1349 -0.8555
  146DOPC   C1117327   6.858   2.778   6.703 -1.1273 -0.3486  0.2229
  146DOPC  H11A17328   6.829   2.819   6.603  1.3981  1.6428  0.2109
  146DOPC  H11B17329   6.930   2.698   6.674 -1.5302 -0.1266 -1.5307
  146DOPC     P17330   6.749   2.563   6.805 -0.4176 -0.2548 -0.3481
  146DOPC   O1317331   6.622   2.521   6.874  0.2469  0.1012  0.4583
  146DOPC   O1417332   6.877   2.540   6.884 -0.0997  0.1004  0.4073
  146DOPC   O1217333   6.743   2.718   6.773 -0.1554  0.0426  0.2100
  146DOPC   O1117334   6.763   2.504   6.669 -0.2154 -0.2868 -0.2043
  146DOPC    C117335   6.687   2.538   6.552 -0.3195 -0.2907 -0.9832
  146DOPC    HA17336   6.750   2.520   6.463 -0.6450  2.1098 -1.7628
  146DOPC    HB17337   6.641   2.639   6.551 -2.3797 -1.1152  1.0373
  146DOPC    C217338   6.566   2.438   6.546  0.4906 -0.0121 -0.2902
  146DOPC    HS17339   6.508   2.451   6.639  1.8465 -0.0672  0.5918
  146DOPC   O2117340   6.621   2.305   6.535  0.2020 -0.3055 -0.4589
  146DOPC   C2117341   6.549   2.203   6.568  0.1348  0.4830  0.2265
  146DOPC   O2217342   6.434   2.208   6.624 -0.1012 -0.2542  0.0362
  146DOPC   C2217343   6.621   2.077   6.525 -0.2355 -0.2881  0.2310
  146DOPC   H2R17344   6.576   1.987   6.572 -1.9985 -0.6837 -2.0267
  146DOPC   H2S17345   6.729   2.080   6.554  0.1797  0.9828 -1.3056
  146DOPC    C317346   6.469   2.477   6.435 -0.1280 -0.2692 -0.2108
  146DOPC    HX17347   6.452   2.586   6.444 -0.4487 -0.4701  2.4804
  146DOPC    HY17348   6.375   2.423   6.459 -0.7978  1.7735  2.1522
  146DOPC   O3117349   6.516   2.438   6.304 -0.4377  0.3562 -0.0132
  146DOPC   C3117350   6.589   2.527   6.237  0.0322 -0.1238  0.1484
  146DOPC   O3217351   6.633   2.633   6.278 -0.2500  0.1026  0.3448
  146DOPC   C3217352   6.615   2.464   6.105 -0.0693  0.0723  0.9989
  146DOPC   H2X17353   6.683   2.378   6.121 -1.5942 -1.1467  1.1526
  146DOPC   H2Y17354   6.522   2.416   6.068  0.9965  0.1547 -2.1619
  146DOPC   C2317355   6.617   2.056   6.373  1.0716 -0.4394  0.1354
  146DOPC   H3R17356   6.700   1.989   6.342  1.1439  0.0415 -0.7394
  146DOPC   H3S17357   6.645   2.150   6.321 -0.2007  0.1522  0.4990
  146DOPC   C2417358   6.486   1.994   6.331  0.0764 -0.9362 -0.6041
  146DOPC   H4R17359   6.399   2.056   6.357  1.2362 -0.4174  2.4718
  146DOPC   H4S17360   6.484   1.899   6.388 -2.3192  0.4559  1.8151
  146DOPC   C2517361   6.494   1.965   6.184 -0.2136 -0.3263 -0.7739
  146DOPC   H5R17362   6.419   1.889   6.154 -0.8310 -0.7223  1.5399
  146DOPC   H5S17363   6.593   1.914   6.175  0.4876  0.5768  1.1171
  146DOPC   C2617364   6.485   2.087   6.097 -0.2204 -0.1425  0.1182
  146DOPC   H6R17365   6.568   2.154   6.126 -0.9730  0.3987  1.0728
  146DOPC   H6S17366   6.393   2.147   6.114 -1.6349 -2.1177 -0.1391
  146DOPC   C2717367   6.497   2.053   5.944 -0.8488  0.6012 -0.2419
  146DOPC   H7R17368   6.417   1.979   5.925 -1.1620  0.1504  2.3724
  146DOPC   H7S17369   6.590   1.993   5.938  0.0568  2.1066 -2.8400
  146DOPC   C2817370   6.513   2.172   5.849  0.3497  0.0063  0.3815
  146DOPC   H8R17371   6.588   2.240   5.895  1.4896 -1.0955  0.2081
  146DOPC   H8S17372   6.423   2.227   5.816  0.3728 -0.4148 -0.4048
  146DOPC   C2917373   6.565   2.110   5.727 -0.1729  0.1760 -0.2082
  146DOPC   H9R17374   6.574   2.001   5.717  4.0655  0.2040  1.3394
  146DOPC  C21017375   6.624   2.187   5.638 -0.5463  0.2052  0.2154
  146DOPC  H10R17376   6.670   2.151   5.545 -0.3829  2.0534 -0.4717
  146DOPC  C21117377   6.629   2.335   5.635  0.4848  0.4176  0.4141
  146DOPC  H11R17378   6.729   2.369   5.671  0.9391 -2.1009  1.8177
  146DOPC  H11S17379   6.548   2.369   5.703  0.1373  1.1186 -0.3358
  146DOPC  C21217380   6.597   2.402   5.496 -0.4256  0.9860  0.6002
  146DOPC  H12R17381   6.491   2.390   5.467 -0.3748  0.1579  0.7377
  146DOPC  H12S17382   6.640   2.347   5.410 -3.0113  3.2563 -2.3676
  146DOPC  C21317383   6.639   2.547   5.491 -0.0003 -0.6759  0.3244
  146DOPC  H13R17384   6.595   2.613   5.569 -1.5740 -0.0155 -1.0397
  146DOPC  H13S17385   6.595   2.599   5.403 -0.1344 -1.7123 -0.2382
  146DOPC  C21417386   6.793   2.572   5.475 -0.1345 -0.0985  0.1740
  146DOPC  H14R17387   6.812   2.508   5.386 -0.8458 -2.5974  1.7206
  146DOPC  H14S17388   6.848   2.543   5.567 -0.5066 -0.2903  0.3400
  146DOPC  C21517389   6.835   2.714   5.438  0.4251  0.0770 -0.1551
  146DOPC  H15R17390   6.800   2.792   5.510  0.6213 -0.0806  0.1117
  146DOPC  H15S17391   6.783   2.740   5.343  0.3608  2.4483  0.4683
  146DOPC  C21617392   6.989   2.722   5.409 -0.4865 -0.5779  0.0237
  146DOPC  H16R17393   7.036   2.637   5.355 -0.2794 -0.2259 -0.3610
  146DOPC  H16S17394   7.036   2.719   5.509  0.0847 -1.3270 -0.2576
  146DOPC  C21717395   7.035   2.839   5.325  0.6233 -0.8386 -0.2542
  146DOPC  H17R17396   6.965   2.832   5.240  0.6710 -0.9741 -0.2816
  146DOPC  H17S17397   7.145   2.842   5.313  0.7450  1.4502  0.8232
  146DOPC  C21817398   7.004   2.974   5.394 -0.0063  0.1937  0.0029
  146DOPC  H18R17399   6.898   2.985   5.427 -0.5757 -0.4550 -1.4834
  146DOPC  H18S17400   7.010   3.053   5.315  0.3758  0.9226  0.7513
  146DOPC  H18T17401   7.084   2.997   5.466  0.9403 -0.0877 -0.9310
  146DOPC   C3317402   6.675   2.572   6.002 -0.5526  0.4003 -0.6735
  146DOPC   H3X17403   6.714   2.513   5.917  1.8167  1.5274 -0.4551
  146DOPC   H3Y17404   6.760   2.630   6.045 -0.5064  0.1410 -0.4087
  146DOPC   C3417405   6.576   2.678   5.958  0.3229  0.1348 -0.1442
  146DOPC   H4X17406   6.538   2.733   6.046  0.0704  0.8084 -0.6630
  146DOPC   H4Y17407   6.488   2.635   5.905 -0.7918 -1.5531  2.8205
  146DOPC   C3517408   6.631   2.774   5.853 -0.3006 -0.0423 -0.2346
  146DOPC   H5X17409   6.703   2.714   5.793 -1.1623 -4.2370  2.4748
  146DOPC   H5Y17410   6.696   2.849   5.904 -0.0473 -0.6836  0.4118
  146DOPC   C3617411   6.524   2.847   5.779 -0.2005  0.1233  0.0911
  146DOPC   H6X17412   6.473   2.779   5.707  1.0538 -2.0534  1.1534
  146DOPC   H6Y17413   6.434   2.869   5.842  1.1090  0.2433  1.9909
  146DOPC   C3717414   6.586   2.970   5.716 -0.4267 -0.1779  0.8364
  146DOPC   H7X17415   6.647   3.016   5.796  0.4338 -0.6835  0.4946
  146DOPC   H7Y17416   6.659   2.932   5.641 -1.8559 -1.0775 -0.1670
  146DOPC   C3817417   6.505   3.087   5.662  0.5197 -1.2500 -0.6022
  146DOPC   H8X17418   6.560   3.184   5.665 -2.0402  0.2731  1.0994
  146DOPC   H8Y17419   6.421   3.108   5.732  0.4226 -2.5425 -0.2974
  146DOPC   C3917420   6.436   3.046   5.540 -0.1278  0.0325  0.1610
  146DOPC   H9X17421   6.372   2.958   5.557  0.1144  0.0103  0.9737
  146DOPC  C31017422   6.450   3.102   5.422  0.2795 -0.6499  0.4979
  146DOPC  H10X17423   6.398   3.060   5.335  1.5554 -0.4580 -0.3724
  146DOPC  C31117424   6.545   3.215   5.382 -0.1150  0.2229 -0.1531
  146DOPC  H11X17425   6.606   3.252   5.467 -1.0798  2.6748 -0.4655
  146DOPC  H11Y17426   6.493   3.304   5.340  1.1593  0.3141 -1.6683
  146DOPC  C31217427   6.648   3.174   5.270 -0.2112 -0.5768  0.0493
  146DOPC  H12X17428   6.603   3.148   5.172  1.4364 -1.4097 -0.5305
  146DOPC  H12Y17429   6.690   3.079   5.310  0.7485 -0.5647 -0.8747
  146DOPC  C31317430   6.741   3.291   5.229 -0.2725  0.6218  0.1297
  146DOPC  H13X17431   6.677   3.379   5.209  2.1760  2.2293 -1.2535
  146DOPC  H13Y17432   6.794   3.323   5.321  0.6197 -2.0200  0.6218
  146DOPC  C31417433   6.829   3.257   5.105 -0.2193  0.0660 -0.0680
  146DOPC  H14X17434   6.884   3.165   5.134  0.7351  1.2007  2.0394
  146DOPC  H14Y17435   6.783   3.237   5.007  1.8084  0.3869 -1.1501
  146DOPC  C31517436   6.922   3.375   5.079  0.0194 -0.2655  0.2987
  146DOPC  H15X17437   6.992   3.398   5.162  0.5323  1.1704 -0.4961
  146DOPC  H15Y17438   6.863   3.469   5.080  3.4361  2.0524 -0.7733
  146DOPC  C31617439   7.009   3.372   4.950 -0.2737  0.5003 -0.3724
  146DOPC  H16X17440   7.071   3.280   4.955 -1.2704 -0.1355  0.5968
  146DOPC  H16Y17441   6.938   3.344   4.868 -0.0719 -0.1926 -0.3148
  146DOPC  C31717442   7.100   3.489   4.933  0.0322  0.3334  0.7157
  146DOPC  H17X17443   7.042   3.577   4.898 -0.1084 -0.9290 -2.5266
  146DOPC  H17Y17444   7.163   3.498   5.025  1.4366 -0.7328 -0.1050
  146DOPC  C31817445   7.202   3.471   4.819 -0.1802  0.3029 -0.2395
  146DOPC  H18X17446   7.273   3.391   4.852 -0.2575  0.9954  1.7150
  146DOPC  H18Y17447   7.152   3.448   4.723 -1.2185 -1.1467  0.5983
  146DOPC  H18Z17448   7.271   3.558   4.813  1.8999 -0.8699  3.3386
  147DOPC     N17449   3.450   2.022   7.423 -0.5952  0.1550  0.3707
  147DOPC   C1217450   3.382   1.889   7.387 -0.1379 -0.0536  0.3150
  147DOPC  H12A17451   3.347   1.836   7.474 -1.2958  0.9192  0.4696
  147DOPC  H12B17452   3.455   1.830   7.333 -0.5959 -1.0269  0.7318
  147DOPC   C1317453   3.347   2.118   7.482  0.1413  0.4653 -0.4563
  147DOPC  H13A17454   3.390   2.209   7.521  0.8732 -0.1103  0.1218
  147DOPC  H13B17455   3.270   2.148   7.412  0.0291  0.2290 -0.4352
  147DOPC  H13C17456   3.303   2.068   7.567  1.4951  1.8937  1.1668
  147DOPC   C1417457   3.518   2.085   7.303 -0.0529 -0.2689 -0.1171
  147DOPC  H14A17458   3.579   2.009   7.256 -0.4376  0.2086 -1.4419
  147DOPC  H14B17459   3.447   2.098   7.223  0.1204 -0.8160 -0.3677
  147DOPC  H14C17460   3.573   2.176   7.322 -0.5845 -0.2430  1.4039
  147DOPC   C1517461   3.563   1.993   7.521 -0.0212  0.6478  0.3959
  147DOPC  H15A17462   3.615   2.083   7.549 -1.7534  0.5212  5.0443
  147DOPC  H15B17463   3.638   1.923   7.488 -0.2999  0.0043  1.0834
  147DOPC  H15C17464   3.538   1.952   7.618  1.2540 -1.3383 -0.0450
  147DOPC   C1117465   3.263   1.895   7.294 -0.0265 -0.4904 -0.0646
  147DOPC  H11A17466   3.239   1.790   7.266  1.8111 -0.5400 -1.6607
  147DOPC  H11B17467   3.181   1.935   7.357  1.1512 -1.3518  2.1064
  147DOPC     P17468   3.353   1.883   7.038  0.1000 -0.5184  0.0819
  147DOPC   O1317469   3.449   1.780   7.074 -0.1551 -0.0280  0.2774
  147DOPC   O1417470   3.394   1.992   6.942  0.5027  0.0053  0.4153
  147DOPC   O1217471   3.296   1.955   7.168 -0.2610 -0.4603 -0.6058
  147DOPC   O1117472   3.220   1.821   6.977  0.0690  0.0497  0.5772
  147DOPC    C117473   3.105   1.904   6.949  0.1432 -0.0252  0.0995
  147DOPC    HA17474   3.117   2.009   6.986  0.3415 -0.8673  2.6033
  147DOPC    HB17475   3.024   1.859   7.010  1.0113  0.4175  1.6470
  147DOPC    C217476   3.073   1.919   6.797  0.2717 -0.7923 -0.3871
  147DOPC    HS17477   2.962   1.923   6.785  0.4564  2.1023 -2.1781
  147DOPC   O2117478   3.124   1.811   6.711  0.1828  0.3703 -0.1736
  147DOPC   C2117479   3.059   1.697   6.721 -0.3889 -0.4469  0.7363
  147DOPC   O2217480   2.953   1.677   6.775 -0.0601 -0.2613 -0.3646
  147DOPC   C2217481   3.142   1.581   6.655 -0.7946  0.3215  0.1174
  147DOPC   H2R17482   3.142   1.497   6.728 -1.0179 -0.0152 -0.2660
  147DOPC   H2S17483   3.244   1.624   6.644  1.1296 -2.0284  5.4437
  147DOPC    C317484   3.119   2.054   6.740  0.0292  0.3038  0.1381
  147DOPC    HX17485   3.223   2.085   6.761 -0.0849  0.0566  1.1024
  147DOPC    HY17486   3.061   2.140   6.779  0.3008  1.0358 -1.0307
  147DOPC   O3117487   3.110   2.049   6.590 -0.4700  0.3783 -0.2478
  147DOPC   C3117488   2.985   2.041   6.551  0.3699  0.3703  0.2456
  147DOPC   O3217489   2.890   2.047   6.623  0.3183 -0.4154 -0.3735
  147DOPC   C3217490   2.980   2.027   6.399 -0.0566  0.0445 -0.6171
  147DOPC   H2X17491   3.073   1.986   6.354 -0.2978 -1.2471 -0.0005
  147DOPC   H2Y17492   2.899   1.953   6.381 -1.3108  2.0634 -4.5717
  147DOPC   C2317493   3.076   1.521   6.528  0.6259  0.1910 -0.8909
  147DOPC   H3R17494   2.973   1.481   6.541  0.8910  0.4536  3.1217
  147DOPC   H3S17495   3.137   1.430   6.509  0.4186 -0.4656  1.3934
  147DOPC   C2417496   3.080   1.615   6.402 -0.0262  0.8772  0.2463
  147DOPC   H4R17497   3.184   1.650   6.382  0.2750  1.2213  2.2674
  147DOPC   H4S17498   3.030   1.710   6.431  2.5450  2.0184  1.2695
  147DOPC   C2517499   3.018   1.560   6.276  0.3534  0.1542 -0.0658
  147DOPC   H5R17500   2.926   1.513   6.319  0.1656 -0.0466 -0.6726
  147DOPC   H5S17501   3.077   1.485   6.219  1.0385  0.2301  0.5326
  147DOPC   C2617502   2.970   1.674   6.177  0.0422  0.2243  0.4902
  147DOPC   H6R17503   3.053   1.736   6.137  1.4177 -1.8629 -0.0606
  147DOPC   H6S17504   2.906   1.736   6.244 -0.3827 -1.5384  1.8130
  147DOPC   C2717505   2.885   1.627   6.055  0.5644 -0.3642  0.1497
  147DOPC   H7R17506   2.801   1.570   6.100 -2.2882  2.3897 -1.3508
  147DOPC   H7S17507   2.950   1.552   6.005  0.8617 -0.5910  0.8530
  147DOPC   C2817508   2.819   1.734   5.959 -0.4569  0.3145  0.4912
  147DOPC   H8R17509   2.901   1.797   5.919  1.5075 -2.2161  0.2554
  147DOPC   H8S17510   2.742   1.789   6.017 -0.5864  1.3904 -0.6626
  147DOPC   C2917511   2.752   1.671   5.841  0.0105 -0.2544  0.0889
  147DOPC   H9R17512   2.766   1.562   5.838  0.1294 -0.2245 -2.0012
  147DOPC  C21017513   2.682   1.729   5.742 -0.4226  0.3883  0.3659
  147DOPC  H10R17514   2.656   1.680   5.647 -3.2709 -0.9395  1.7155
  147DOPC  C21117515   2.672   1.877   5.723 -0.2518  0.0329 -0.0464
  147DOPC  H11R17516   2.770   1.924   5.702  0.2310 -0.6188  0.6863
  147DOPC  H11S17517   2.631   1.915   5.820 -1.1624 -0.8236 -0.0754
  147DOPC  C21217518   2.576   1.915   5.608  0.0928  0.2513  0.0794
  147DOPC  H12R17519   2.474   1.885   5.638  0.3445  0.5695  1.3070
  147DOPC  H12S17520   2.606   1.867   5.512 -2.1100  1.8671 -1.5238
  147DOPC  C21317521   2.572   2.063   5.573 -0.3673  0.4650 -0.1201
  147DOPC  H13R17522   2.673   2.108   5.564  0.2789 -1.2931 -2.7896
  147DOPC  H13S17523   2.514   2.099   5.661 -0.6489 -2.4843  0.9991
  147DOPC  C21417524   2.483   2.104   5.448 -0.2050 -0.5888 -0.2691
  147DOPC  H14R17525   2.500   2.214   5.456  1.2797 -0.8357  0.3980
  147DOPC  H14S17526   2.376   2.082   5.466 -0.6847  1.4397 -0.3762
  147DOPC  C21517527   2.535   2.054   5.321 -0.4395  0.1198 -0.5012
  147DOPC  H15R17528   2.536   1.943   5.309  1.0224 -0.1199  1.3239
  147DOPC  H15S17529   2.645   2.073   5.316 -0.4350  0.0613 -0.6217
  147DOPC  C21617530   2.476   2.119   5.199  0.3190 -0.0916 -0.3510
  147DOPC  H16R17531   2.500   2.227   5.198 -0.3182  0.0967  1.4397
  147DOPC  H16S17532   2.365   2.118   5.204  0.2625  2.0030 -0.2217
  147DOPC  C21717533   2.525   2.046   5.076 -1.1265  0.7302  0.7964
  147DOPC  H17R17534   2.509   1.938   5.093 -2.2807  0.5632 -1.0888
  147DOPC  H17S17535   2.635   2.042   5.063 -1.0236  3.3244  0.2792
  147DOPC  C21817536   2.463   2.091   4.948  0.5129 -0.4901 -0.4852
  147DOPC  H18R17537   2.455   2.008   4.875 -1.4663  0.0586 -0.9593
  147DOPC  H18S17538   2.515   2.177   4.900  0.0149 -0.5029 -1.0682
  147DOPC  H18T17539   2.364   2.133   4.978  0.5198 -0.7446 -0.1064
  147DOPC   C3317540   2.948   2.161   6.330  0.7160  0.3070  0.0262
  147DOPC   H3X17541   3.014   2.247   6.353  1.1993 -0.1553  0.4198
  147DOPC   H3Y17542   2.851   2.201   6.367  0.6901  1.7009 -1.4338
  147DOPC   C3417543   2.934   2.138   6.179  0.0232 -0.3623 -0.5776
  147DOPC   H4X17544   2.872   2.049   6.153  1.1804 -0.9148 -1.5729
  147DOPC   H4Y17545   3.037   2.120   6.143  0.7211 -0.3724  1.3117
  147DOPC   C3517546   2.875   2.266   6.106  0.1604 -0.1029 -0.2644
  147DOPC   H5X17547   2.922   2.361   6.140 -4.2249  2.3088 -0.1841
  147DOPC   H5Y17548   2.766   2.278   6.125  0.5410  2.5626  0.8178
  147DOPC   C3617549   2.898   2.257   5.959  0.2124 -0.1467 -1.0847
  147DOPC   H6X17550   3.005   2.233   5.941  0.4500  0.6213 -0.7152
  147DOPC   H6Y17551   2.833   2.176   5.919 -1.7896 -1.5845  4.2680
  147DOPC   C3717552   2.874   2.391   5.886  0.3422  0.2560 -0.2762
  147DOPC   H7X17553   2.792   2.446   5.936 -0.4687  0.5491 -1.8509
  147DOPC   H7Y17554   2.965   2.455   5.886 -0.0877  0.9202  1.5979
  147DOPC   C3817555   2.834   2.367   5.737 -0.2764  0.2624 -0.9175
  147DOPC   H8X17556   2.817   2.468   5.694 -0.5513 -0.0115 -1.4634
  147DOPC   H8Y17557   2.742   2.305   5.741  1.4708 -2.4515 -0.0000
  147DOPC   C3917558   2.930   2.288   5.656  0.2417 -0.7111  0.5644
  147DOPC   H9X17559   3.005   2.228   5.710 -0.0198  0.4868  2.3304
  147DOPC  C31017560   2.917   2.273   5.520  0.2975  0.0669  0.5148
  147DOPC  H10X17561   2.981   2.196   5.475  0.7996  0.8391 -0.1070
  147DOPC  C31117562   2.810   2.342   5.427  0.5249 -0.3357 -0.2313
  147DOPC  H11X17563   2.731   2.394   5.485  0.4769 -0.7955  0.1244
  147DOPC  H11Y17564   2.768   2.250   5.381  1.7996 -0.6490 -0.8039
  147DOPC  C31217565   2.872   2.446   5.327 -0.4183 -0.1131  0.0574
  147DOPC  H12X17566   2.951   2.386   5.275 -0.4061  0.9600 -1.2023
  147DOPC  H12Y17567   2.926   2.524   5.385 -3.1006  1.3696  0.7108
  147DOPC  C31317568   2.773   2.509   5.235  0.0276 -0.1576  0.1305
  147DOPC  H13X17569   2.730   2.439   5.160 -2.3721  0.0703  1.2067
  147DOPC  H13Y17570   2.688   2.546   5.296  0.8473  0.7712  0.7219
  147DOPC  C31417571   2.838   2.620   5.155  0.1962 -0.3676  0.3397
  147DOPC  H14X17572   2.929   2.582   5.105 -0.1500 -0.5927 -0.1222
  147DOPC  H14Y17573   2.771   2.637   5.068 -1.7282 -2.9462  1.2177
  147DOPC  C31517574   2.858   2.754   5.232 -0.9402 -0.1819  0.0531
  147DOPC  H15X17575   2.904   2.744   5.332  0.6291 -0.3555 -0.6575
  147DOPC  H15Y17576   2.756   2.793   5.252 -2.2289 -1.6774 -2.9962
  147DOPC  C31617577   2.940   2.860   5.154  0.1208  0.0690 -0.4027
  147DOPC  H16X17578   3.040   2.813   5.165 -0.4929 -0.7624  2.2732
  147DOPC  H16Y17579   2.909   2.867   5.048 -2.0124  2.8141  0.2657
  147DOPC  C31717580   2.959   3.001   5.217 -0.7476 -0.2681  0.4326
  147DOPC  H17X17581   2.882   3.077   5.193  1.0435  1.0966 -1.2406
  147DOPC  H17Y17582   2.979   2.994   5.326 -2.3532  1.3768  0.8776
  147DOPC  C31817583   3.084   3.061   5.153 -0.0680 -0.3710 -0.6806
  147DOPC  H18X17584   3.118   3.152   5.206  2.1382 -0.9457 -1.0266
  147DOPC  H18Y17585   3.169   2.991   5.163  0.9653  0.9714  0.4213
  147DOPC  H18Z17586   3.063   3.079   5.045 -3.7721 -1.8902 -0.3491
  148DOPC     N17587   4.620   6.196   7.019 -0.3907  0.1014  0.2032
  148DOPC   C1217588   4.484   6.261   7.038 -0.1496 -0.9098 -0.0599
  148DOPC  H12A17589   4.484   6.348   7.103 -1.2498  0.0261 -1.2602
  148DOPC  H12B17590   4.424   6.183   7.084 -0.2116 -0.7755  0.0909
  148DOPC   C1317591   4.710   6.299   6.942  0.1860 -0.4675 -0.1408
  148DOPC  H13A17592   4.652   6.342   6.862 -0.4150 -0.5838  0.2281
  148DOPC  H13B17593   4.738   6.381   7.007 -2.7072  1.8224 -1.5419
  148DOPC  H13C17594   4.786   6.247   6.887 -0.4544 -2.6899  0.9738
  148DOPC   C1417595   4.602   6.077   6.923 -0.3090 -0.0452  0.5295
  148DOPC  H14A17596   4.543   6.108   6.837 -1.2155 -0.3560  1.0240
  148DOPC  H14B17597   4.686   6.014   6.899 -0.9333 -1.0613  0.9832
  148DOPC  H14C17598   4.548   5.995   6.967  3.5154 -1.9946  2.0369
  148DOPC   C1517599   4.688   6.159   7.149 -0.3816 -0.0183 -0.4925
  148DOPC  H15A17600   4.695   6.245   7.213  1.5277 -0.4315 -0.0726
  148DOPC  H15B17601   4.787   6.121   7.127  0.2722  1.5614 -0.4321
  148DOPC  H15C17602   4.623   6.091   7.202 -0.0636  1.0509  1.3444
  148DOPC   C1117603   4.406   6.311   6.916 -0.2391  0.5215  0.2195
  148DOPC  H11A17604   4.313   6.361   6.951  0.1054  2.2907 -1.2365
  148DOPC  H11B17605   4.475   6.388   6.876  1.6778 -1.2031  0.0290
  148DOPC     P17606   4.242   6.149   6.806  0.2669  0.1010  0.4336
  148DOPC   O1317607   4.176   6.129   6.938 -0.0828 -0.2042  0.6567
  148DOPC   O1417608   4.253   6.029   6.715  0.5380 -0.3660  0.0337
  148DOPC   O1217609   4.383   6.220   6.812  0.3452  0.4810  0.2554
  148DOPC   O1117610   4.151   6.259   6.739 -0.3067 -0.5490 -0.0630
  148DOPC    C117611   4.149   6.290   6.600 -0.1552 -0.0629 -0.1938
  148DOPC    HA17612   4.058   6.351   6.588 -1.5265 -2.2244 -1.4610
  148DOPC    HB17613   4.137   6.200   6.537  0.4012 -0.3545  0.1017
  148DOPC    C217614   4.274   6.359   6.542  0.8557  0.0455 -0.5692
  148DOPC    HS17615   4.357   6.294   6.575  0.0546 -1.2538 -1.0513
  148DOPC   O2117616   4.274   6.482   6.618 -0.6286 -0.0920 -0.3590
  148DOPC   C2117617   4.387   6.551   6.625 -0.3958  0.7745  0.5285
  148DOPC   O2217618   4.497   6.513   6.587 -0.1016 -0.4375  0.2409
  148DOPC   C2217619   4.349   6.690   6.675 -0.5662  1.0035 -0.0048
  148DOPC   H2R17620   4.350   6.694   6.786  0.8964 -0.2559  0.0511
  148DOPC   H2S17621   4.244   6.714   6.646 -1.3914 -1.7537  0.4011
  148DOPC    C317622   4.273   6.378   6.388  0.3675  0.0926 -0.1883
  148DOPC    HX17623   4.189   6.443   6.356  1.6925  1.0458 -1.9564
  148DOPC    HY17624   4.251   6.277   6.347 -0.2592  0.7012 -1.4054
  148DOPC   O3117625   4.393   6.438   6.335 -0.3876  0.4772  0.0636
  148DOPC   C3117626   4.491   6.344   6.313  0.7079 -0.1152 -0.4594
  148DOPC   O3217627   4.474   6.226   6.323  0.0203  0.1275  0.6526
  148DOPC   C3217628   4.624   6.408   6.293  0.4171 -0.6699  0.8884
  148DOPC   H2X17629   4.607   6.515   6.320 -1.9940 -1.2996  2.1469
  148DOPC   H2Y17630   4.704   6.366   6.357  0.2976 -1.1348  0.7395
  148DOPC   C2317631   4.445   6.801   6.615 -0.2550 -0.2561  0.4096
  148DOPC   H3R17632   4.550   6.796   6.649 -0.1414  2.2446  0.6397
  148DOPC   H3S17633   4.411   6.901   6.652 -0.6074 -0.2786  0.1535
  148DOPC   C2417634   4.454   6.818   6.462  0.1574 -0.4936  0.2956
  148DOPC   H4R17635   4.502   6.723   6.431 -1.0984 -1.1886  0.3799
  148DOPC   H4S17636   4.520   6.905   6.442  0.7572 -0.8923  0.5238
  148DOPC   C2517637   4.320   6.831   6.384 -0.1521 -0.1131  0.0647
  148DOPC   H5R17638   4.256   6.902   6.441  0.1548  1.6773 -1.7446
  148DOPC   H5S17639   4.279   6.729   6.395  2.1375 -1.2694 -1.2296
  148DOPC   C2617640   4.332   6.888   6.242  0.2401 -0.5673  0.3913
  148DOPC   H6R17641   4.316   6.998   6.243 -3.3485 -0.9607  0.2635
  148DOPC   H6S17642   4.240   6.849   6.194 -1.3526  2.8505  0.4096
  148DOPC   C2717643   4.453   6.838   6.164  0.3553 -0.2313 -0.3491
  148DOPC   H7R17644   4.443   6.727   6.162 -0.0221 -0.2365  1.2107
  148DOPC   H7S17645   4.540   6.858   6.230 -0.6540 -0.4281  1.0883
  148DOPC   C2817646   4.464   6.893   6.019 -0.1519  0.5698  0.0513
  148DOPC   H8R17647   4.564   6.875   5.974 -0.4919 -1.2811 -0.0731
  148DOPC   H8S17648   4.449   7.003   6.026  0.7080  0.8093 -1.4408
  148DOPC   C2917649   4.366   6.824   5.932 -0.5399  0.1036  0.5609
  148DOPC   H9R17650   4.363   6.715   5.946 -0.1742 -0.1854 -1.3801
  148DOPC  C21017651   4.277   6.885   5.854 -0.6222  0.5528  0.5581
  148DOPC  H10R17652   4.207   6.813   5.809  1.2419 -0.5577 -0.6842
  148DOPC  C21117653   4.249   7.033   5.811  0.2062 -0.5067 -0.4687
  148DOPC  H11R17654   4.330   7.107   5.830 -2.2898  2.1506  0.6406
  148DOPC  H11S17655   4.164   7.078   5.867  1.2208  0.4751  0.3309
  148DOPC  C21217656   4.206   7.052   5.663 -0.6939 -0.3683  0.5227
  148DOPC  H12R17657   4.158   7.152   5.655  0.5283  0.2384  0.5265
  148DOPC  H12S17658   4.135   6.972   5.632  0.1412 -0.9494  0.0591
  148DOPC  C21317659   4.323   7.050   5.564 -0.1377  0.0531 -0.8264
  148DOPC  H13R17660   4.284   7.028   5.462 -0.8487 -1.5238 -0.2470
  148DOPC  H13S17661   4.398   6.969   5.571  2.8611  2.5983 -1.2825
  148DOPC  C21417662   4.411   7.179   5.568 -0.3140  0.0076 -0.4649
  148DOPC  H14R17663   4.445   7.190   5.674 -1.0282 -0.6514 -0.1572
  148DOPC  H14S17664   4.348   7.268   5.548  2.6839  2.4385  0.1602
  148DOPC  C21517665   4.526   7.181   5.480 -0.6219  0.3118  1.1951
  148DOPC  H15R17666   4.492   7.165   5.375  0.6251 -0.0456  0.8280
  148DOPC  H15S17667   4.595   7.097   5.503 -0.4372  0.2645  0.4887
  148DOPC  C21617668   4.623   7.300   5.471 -1.0305 -0.3153 -0.2320
  148DOPC  H16R17669   4.688   7.308   5.561  2.1011 -1.0264 -2.2613
  148DOPC  H16S17670   4.567   7.396   5.461  1.4952  1.2614 -0.1349
  148DOPC  C21717671   4.722   7.300   5.356  1.1100  0.2063  0.4942
  148DOPC  H17R17672   4.761   7.196   5.359 -0.5551 -0.5541 -1.4136
  148DOPC  H17S17673   4.813   7.362   5.364  0.3300  1.4531  0.0375
  148DOPC  C21817674   4.657   7.319   5.217 -0.1876 -0.3811  0.6153
  148DOPC  H18R17675   4.571   7.249   5.211  1.0078 -1.8640 -0.2308
  148DOPC  H18S17676   4.730   7.288   5.139  3.5695  0.6398  3.4660
  148DOPC  H18T17677   4.634   7.424   5.191 -0.4994 -0.9566 -1.6975
  148DOPC   C3317678   4.672   6.389   6.144 -0.4355  0.7368 -0.1693
  148DOPC   H3X17679   4.710   6.288   6.115  2.1256  1.8125 -0.8722
  148DOPC   H3Y17680   4.766   6.448   6.148  1.0337 -1.5253  0.9385
  148DOPC   C3417681   4.581   6.456   6.039 -0.9418 -0.4926 -0.3156
  148DOPC   H4X17682   4.598   6.566   6.046 -0.1506 -0.5679 -0.8476
  148DOPC   H4Y17683   4.474   6.429   6.052 -1.0199 -0.1616 -0.2653
  148DOPC   C3517684   4.630   6.413   5.905  0.3313 -0.1585  0.0564
  148DOPC   H5X17685   4.568   6.457   5.824  1.7930 -0.5064 -1.2945
  148DOPC   H5Y17686   4.609   6.309   5.872  0.6695  0.3478 -1.8256
  148DOPC   C3617687   4.774   6.453   5.880  0.4315  0.4947  0.3323
  148DOPC   H6X17688   4.786   6.552   5.931  1.9528 -0.8767  2.8763
  148DOPC   H6Y17689   4.847   6.385   5.930  1.0440  0.6472 -0.3339
  148DOPC   C3717690   4.801   6.458   5.733 -0.5827  0.5006  0.2409
  148DOPC   H7X17691   4.757   6.372   5.678  1.3060 -0.0563 -0.4841
  148DOPC   H7Y17692   4.734   6.543   5.706 -1.8070 -1.0412 -1.9127
  148DOPC   C3817693   4.945   6.485   5.697 -0.4604 -0.0200  0.4972
  148DOPC   H8X17694   5.014   6.412   5.745 -1.6004 -2.4267 -1.3068
  148DOPC   H8Y17695   4.972   6.587   5.732 -0.6001  0.6801 -1.3741
  148DOPC   C3917696   4.960   6.474   5.547 -0.0531 -0.4872 -0.2313
  148DOPC   H9X17697   4.892   6.544   5.496  0.7665 -0.6819 -1.6358
  148DOPC  C31017698   5.028   6.381   5.464  1.0518 -0.7054 -0.2037
  148DOPC  H10X17699   5.014   6.389   5.356  1.3178 -1.1298 -0.2697
  148DOPC  C31117700   5.114   6.262   5.512  0.8992 -0.6942  0.5347
  148DOPC  H11X17701   5.115   6.258   5.623  2.5201  1.0202  0.6300
  148DOPC  H11Y17702   5.221   6.275   5.487  0.6206 -0.4907 -0.6192
  148DOPC  C31217703   5.074   6.123   5.453 -0.3662  0.6114 -0.0112
  148DOPC  H12X17704   5.097   6.135   5.345  0.1610  2.2682  0.2516
  148DOPC  H12Y17705   4.968   6.105   5.479 -0.1177 -0.1876  0.5087
  148DOPC  C31317706   5.171   6.007   5.489  0.7345  0.2799  0.3780
  148DOPC  H13X17707   5.259   6.022   5.423 -0.2174  0.9668 -0.7579
  148DOPC  H13Y17708   5.198   5.998   5.597 -1.0615 -1.5705  0.7492
  148DOPC  C31417709   5.100   5.871   5.456  0.3369 -0.7612  0.3364
  148DOPC  H14X17710   5.022   5.854   5.535  1.0000  2.1932  1.7479
  148DOPC  H14Y17711   5.044   5.889   5.362 -0.6976 -0.5836  0.9587
  148DOPC  C31517712   5.199   5.748   5.454  0.2051 -0.0449  0.4139
  148DOPC  H15X17713   5.253   5.772   5.548 -1.1837  3.2633  0.5370
  148DOPC  H15Y17714   5.266   5.765   5.366 -0.2562 -0.0347  0.0580
  148DOPC  C31617715   5.142   5.609   5.445 -0.0059  0.7615 -0.0877
  148DOPC  H16X17716   5.090   5.581   5.539 -0.2669 -0.7125 -0.6581
  148DOPC  H16Y17717   5.070   5.606   5.361  0.1182 -2.8641 -0.1943
  148DOPC  C31717718   5.251   5.496   5.435  0.8759  0.3693  0.5770
  148DOPC  H17X17719   5.275   5.500   5.327 -2.3852 -0.5693 -0.2907
  148DOPC  H17Y17720   5.335   5.519   5.504 -0.5473  2.8922  1.5922
  148DOPC  C31817721   5.201   5.353   5.455  0.3610 -0.9138 -1.0417
  148DOPC  H18X17722   5.282   5.277   5.444 -1.7574 -3.2887 -1.0716
  148DOPC  H18Y17723   5.155   5.345   5.555  0.4459 -2.3945 -1.0892
  148DOPC  H18Z17724   5.113   5.332   5.390  0.6537  1.3514 -2.2607
  149DOPC     N17725   3.382   0.740   7.500 -0.4639  0.0338 -0.0793
  149DOPC   C1217726   3.386   0.701   7.357 -0.3613 -0.0699 -0.3637
  149DOPC  H12A17727   3.402   0.594   7.353  2.4152  0.0799  2.5021
  149DOPC  H12B17728   3.473   0.750   7.317 -0.2681  0.3187  0.3048
  149DOPC   C1317729   3.397   0.893   7.519 -0.3143 -0.4520  0.3633
  149DOPC  H13A17730   3.391   0.924   7.622 -2.0409 -1.4971  0.6280
  149DOPC  H13B17731   3.487   0.937   7.480  0.3050  0.7724  2.9683
  149DOPC  H13C17732   3.318   0.934   7.458  0.9878  2.0130  0.2246
  149DOPC   C1417733   3.494   0.672   7.569 -0.7275 -0.1289 -0.2405
  149DOPC  H14A17734   3.474   0.569   7.593  0.4602 -0.2271  0.4260
  149DOPC  H14B17735   3.593   0.684   7.529 -0.6069  1.1364  0.3788
  149DOPC  H14C17736   3.499   0.725   7.663  1.8571  2.0999 -1.5017
  149DOPC   C1517737   3.257   0.689   7.559  0.1509  0.6266  0.2770
  149DOPC  H15A17738   3.175   0.728   7.501  2.2875  1.1442 -2.6422
  149DOPC  H15B17739   3.258   0.710   7.665  0.3931 -0.3782  0.4873
  149DOPC  H15C17740   3.252   0.581   7.554 -0.6418  0.6768 -0.3155
  149DOPC   C1117741   3.273   0.736   7.262 -0.0903  0.0012  0.3551
  149DOPC  H11A17742   3.293   0.693   7.161 -0.5746 -1.7950  0.9820
  149DOPC  H11B17743   3.177   0.691   7.296  0.4794 -3.2315 -1.8573
  149DOPC     P17744   3.170   0.964   7.174  0.2197 -0.2251  0.3727
  149DOPC   O1317745   3.233   1.101   7.145  1.3405  0.0329 -0.0812
  149DOPC   O1417746   3.036   0.960   7.235  0.1482 -0.0545 -0.3436
  149DOPC   O1217747   3.269   0.879   7.257  0.0945  0.4376 -0.5683
  149DOPC   O1117748   3.168   0.879   7.045 -0.2276  0.6990  0.0845
  149DOPC    C117749   3.152   0.937   6.917 -0.2177  0.4735 -0.0978
  149DOPC    HA17750   3.243   0.997   6.893  1.4892 -1.3728  1.3916
  149DOPC    HB17751   3.055   0.990   6.926 -0.5972 -0.1495 -0.4687
  149DOPC    C217752   3.127   0.813   6.824 -0.2623 -0.5684  0.3020
  149DOPC    HS17753   3.218   0.750   6.821 -0.1703 -0.4819  1.0608
  149DOPC   O2117754   3.096   0.854   6.691 -1.2007 -0.3553  0.2449
  149DOPC   C2117755   3.200   0.909   6.630  0.1480  0.0478  0.2129
  149DOPC   O2217756   3.313   0.925   6.668 -0.2139 -0.0098  0.1466
  149DOPC   C2217757   3.148   0.956   6.496 -0.7518 -0.8578  1.1125
  149DOPC   H2R17758   3.099   1.052   6.523 -1.2240 -0.5234 -0.7544
  149DOPC   H2S17759   3.073   0.884   6.459 -2.2775  1.1630  0.0318
  149DOPC    C317760   3.029   0.705   6.877 -0.1711 -0.4327  0.3213
  149DOPC    HX17761   2.939   0.766   6.898  0.8353  1.8359 -1.5027
  149DOPC    HY17762   3.074   0.665   6.971 -1.1763 -0.0919  0.9649
  149DOPC   O3117763   3.015   0.597   6.778  0.0307  0.5512  0.5570
  149DOPC   C3117764   2.889   0.565   6.751  0.0163 -0.5003  0.4440
  149DOPC   O3217765   2.790   0.624   6.796 -0.1244 -0.1640 -0.0251
  149DOPC   C3217766   2.875   0.435   6.670 -0.6597 -0.2504 -0.5934
  149DOPC   H2X17767   2.953   0.423   6.592  0.1863  2.2243 -0.2425
  149DOPC   H2Y17768   2.873   0.344   6.734 -0.2530  0.4124  0.3966
  149DOPC   C2317769   3.260   0.970   6.394  0.3254 -0.5283  0.0471
  149DOPC   H3R17770   3.324   0.882   6.371  2.1228  1.1161 -1.4521
  149DOPC   H3S17771   3.332   1.038   6.443 -1.2199  0.7537  0.6523
  149DOPC   C2417772   3.199   1.011   6.257  0.1233 -0.3141 -0.1043
  149DOPC   H4R17773   3.107   1.073   6.267 -0.4762 -0.9724 -1.2567
  149DOPC   H4S17774   3.166   0.916   6.210 -0.0963 -0.9207  1.2238
  149DOPC   C2517775   3.288   1.090   6.161 -0.0291  0.7823  0.1342
  149DOPC   H5R17776   3.385   1.036   6.156 -0.6559 -0.6017  1.8264
  149DOPC   H5S17777   3.315   1.186   6.209 -1.8584  0.6312  1.5998
  149DOPC   C2617778   3.227   1.098   6.016 -0.3197  0.8719 -0.0827
  149DOPC   H6R17779   3.144   1.172   6.019  0.9447  2.3038  0.2812
  149DOPC   H6S17780   3.187   1.001   5.977  0.8635  0.4996 -0.3950
  149DOPC   C2717781   3.326   1.163   5.914  0.6688  0.4715 -0.8199
  149DOPC   H7R17782   3.383   1.080   5.869 -0.6616 -0.9847  0.0764
  149DOPC   H7S17783   3.390   1.221   5.984  0.0747 -0.0344  0.1688
  149DOPC   C2817784   3.256   1.247   5.808 -0.0195  0.2594 -0.7996
  149DOPC   H8R17785   3.315   1.326   5.756 -0.6434  2.5853  1.7852
  149DOPC   H8S17786   3.170   1.301   5.853  0.4097  1.1261 -1.0151
  149DOPC   C2917787   3.214   1.151   5.698  0.2670  0.6313  0.1754
  149DOPC   H9R17788   3.184   1.048   5.720 -1.6208  1.0468 -0.2753
  149DOPC  C21017789   3.181   1.200   5.575  0.1227  1.4825 -0.0956
  149DOPC  H10R17790   3.145   1.124   5.504 -3.5804  0.9269  2.1154
  149DOPC  C21117791   3.194   1.332   5.518  0.6416 -0.2982 -0.1302
  149DOPC  H11R17792   3.222   1.316   5.412 -1.0116 -0.0714 -0.6305
  149DOPC  H11S17793   3.278   1.392   5.561 -1.6983  2.3187  1.1268
  149DOPC  C21217794   3.062   1.413   5.519  0.4925  0.2998  0.0582
  149DOPC  H12R17795   3.083   1.498   5.451  0.6396 -0.9510 -1.5184
  149DOPC  H12S17796   3.036   1.441   5.623  0.3818 -2.0935  0.7462
  149DOPC  C21317797   2.937   1.353   5.446  0.0143 -0.3793 -0.6517
  149DOPC  H13R17798   2.906   1.268   5.511 -0.6093  0.1953 -0.1874
  149DOPC  H13S17799   2.981   1.311   5.352  1.2677 -1.0915  0.2258
  149DOPC  C21417800   2.829   1.455   5.405  0.2436 -0.1387 -0.3645
  149DOPC  H14R17801   2.879   1.519   5.329 -2.6270  0.9998 -1.4614
  149DOPC  H14S17802   2.798   1.524   5.487  1.8316  1.2684 -0.8994
  149DOPC  C21517803   2.707   1.392   5.329 -1.0175 -0.0910 -0.4211
  149DOPC  H15R17804   2.658   1.327   5.404  0.0466  0.4509  0.7896
  149DOPC  H15S17805   2.747   1.325   5.249  2.6510  2.7544 -1.2463
  149DOPC  C21617806   2.605   1.478   5.261 -0.4446  0.4649  0.4041
  149DOPC  H16R17807   2.531   1.411   5.211 -1.5593 -1.5087  4.2590
  149DOPC  H16S17808   2.657   1.540   5.186 -0.2824  0.5911  0.6211
  149DOPC  C21717809   2.516   1.560   5.363  0.0611  0.4420  0.3430
  149DOPC  H17R17810   2.491   1.655   5.310  0.3325  2.0707  2.9308
  149DOPC  H17S17811   2.572   1.595   5.453 -1.7733 -1.5312  2.3591
  149DOPC  C21817812   2.392   1.481   5.406  0.5402 -0.3203  0.4341
  149DOPC  H18R17813   2.327   1.535   5.478 -0.6439  0.8252 -1.4186
  149DOPC  H18S17814   2.417   1.392   5.469 -1.5450 -1.3260 -0.0702
  149DOPC  H18T17815   2.332   1.440   5.322 -3.0173 -1.4305  3.2893
  149DOPC   C3317816   2.736   0.424   6.595  0.0072  0.0542  0.1988
  149DOPC   H3X17817   2.652   0.468   6.653  2.4572  1.0612  3.2922
  149DOPC   H3Y17818   2.723   0.316   6.574 -1.3962  0.1465  0.5148
  149DOPC   C3417819   2.743   0.492   6.454  0.4600 -0.1023 -0.4044
  149DOPC   H4X17820   2.825   0.441   6.400  0.4848 -1.6626  1.0148
  149DOPC   H4Y17821   2.770   0.598   6.474 -1.2974  0.4405 -0.7505
  149DOPC   C3517822   2.610   0.490   6.375 -0.1620  0.2119  0.2663
  149DOPC   H5X17823   2.542   0.552   6.438 -1.0936 -0.7375  0.2252
  149DOPC   H5Y17824   2.578   0.384   6.375  1.2245 -0.2231 -0.3684
  149DOPC   C3617825   2.630   0.533   6.234  0.2376  0.1787 -0.1935
  149DOPC   H6X17826   2.696   0.622   6.230 -1.0023  1.0998 -0.9379
  149DOPC   H6Y17827   2.691   0.458   6.178  0.0900  0.7663 -1.1664
  149DOPC   C3717828   2.498   0.560   6.166  0.0803  0.2651 -0.0887
  149DOPC   H7X17829   2.420   0.484   6.187  0.0793  0.3595  0.2526
  149DOPC   H7Y17830   2.457   0.658   6.198 -2.2158 -0.2350 -1.2850
  149DOPC   C3817831   2.517   0.561   6.015 -0.3404  0.0559  0.6049
  149DOPC   H8X17832   2.599   0.634   5.997 -1.4930  0.8473 -1.8520
  149DOPC   H8Y17833   2.430   0.604   5.962 -0.5110 -1.4490 -0.4057
  149DOPC   C3917834   2.559   0.428   5.956 -0.0682 -0.7018  0.4934
  149DOPC   H9X17835   2.664   0.396   5.962 -0.1889 -0.9906  1.0961
  149DOPC  C31017836   2.471   0.353   5.885 -0.2312  0.8570  0.0040
  149DOPC  H10X17837   2.506   0.250   5.870  2.4202  1.4210  1.8048
  149DOPC  C31117838   2.327   0.376   5.860  0.2946  0.3784  0.0668
  149DOPC  H11X17839   2.276   0.391   5.958 -1.6232  2.2263 -1.1216
  149DOPC  H11Y17840   2.266   0.291   5.822 -2.0084  1.8374  0.3298
  149DOPC  C31217841   2.298   0.485   5.753  0.7178 -0.1790 -0.5511
  149DOPC  H12X17842   2.340   0.584   5.780  0.2247 -0.0228 -0.3645
  149DOPC  H12Y17843   2.188   0.487   5.745  0.6460 -1.9617 -0.4354
  149DOPC  C31317844   2.357   0.456   5.616  0.3174  0.3122 -0.4612
  149DOPC  H13X17845   2.468   0.446   5.623  0.4253 -1.1498 -3.0435
  149DOPC  H13Y17846   2.326   0.361   5.567 -2.3098  0.2803  1.1271
  149DOPC  C31417847   2.322   0.569   5.518  0.1323  0.4794 -0.8617
  149DOPC  H14X17848   2.213   0.564   5.497 -0.3311 -0.3090  1.4992
  149DOPC  H14Y17849   2.343   0.660   5.578 -1.4201 -0.6209  1.5133
  149DOPC  C31517850   2.407   0.566   5.393 -0.3682 -0.1637  0.1796
  149DOPC  H15X17851   2.514   0.561   5.424  0.2126  0.4726 -1.5967
  149DOPC  H15Y17852   2.394   0.658   5.333 -0.1106 -0.3956 -0.2431
  149DOPC  C31617853   2.364   0.455   5.288  0.1118 -1.3167  0.2325
  149DOPC  H16X17854   2.316   0.372   5.344 -0.3908  0.4217  2.5163
  149DOPC  H16Y17855   2.298   0.509   5.216  0.1395 -0.8573  0.5467
  149DOPC  C31717856   2.483   0.421   5.206  0.1829  0.2994  0.6691
  149DOPC  H17X17857   2.521   0.510   5.151  2.4662 -0.2398  1.2593
  149DOPC  H17Y17858   2.560   0.364   5.262 -0.8588 -2.0830 -0.2026
  149DOPC  C31817859   2.441   0.321   5.092  0.2647  0.2546 -0.2682
  149DOPC  H18X17860   2.354   0.364   5.038  0.4924  2.1173  0.7576
  149DOPC  H18Y17861   2.527   0.306   5.023  0.3480 -0.8147  0.0486
  149DOPC  H18Z17862   2.423   0.227   5.147  1.3930  0.8672  1.2217
  150DOPC     N17863   1.144   4.625   6.919  0.4784 -0.1234 -0.5856
  150DOPC   C1217864   1.028   4.541   6.861  0.1831  0.2265 -0.9640
  150DOPC  H12A17865   0.934   4.586   6.890  0.6772 -0.3502  1.8935
  150DOPC  H12B17866   1.023   4.441   6.903  0.6959  0.5640 -0.0608
  150DOPC   C1317867   1.272   4.558   6.893 -0.5191 -0.0428 -0.2582
  150DOPC  H13A17868   1.289   4.532   6.789  2.7349 -1.4627  0.4987
  150DOPC  H13B17869   1.355   4.625   6.913  0.4502 -1.4892  0.7269
  150DOPC  H13C17870   1.275   4.466   6.948 -0.3074 -0.3349 -0.7477
  150DOPC   C1417871   1.123   4.638   7.070 -0.7212  0.6265 -0.2856
  150DOPC  H14A17872   1.033   4.693   7.090 -2.0846  0.7349 -5.2388
  150DOPC  H14B17873   1.128   4.543   7.121 -0.8963  0.0322 -1.3388
  150DOPC  H14C17874   1.192   4.705   7.118 -1.4114  0.9769  0.2256
  150DOPC   C1517875   1.134   4.757   6.847  0.0305 -0.5308 -0.0142
  150DOPC  H15A17876   1.146   4.737   6.742 -0.5698 -1.8558  0.1430
  150DOPC  H15B17877   1.214   4.819   6.884  0.3786 -1.4426  0.8313
  150DOPC  H15C17878   1.039   4.809   6.850 -0.5868 -1.6586  0.5892
  150DOPC   C1117879   1.044   4.514   6.706 -0.7270 -0.1946  0.1003
  150DOPC  H11A17880   0.943   4.493   6.663 -0.6444  0.1519 -0.2674
  150DOPC  H11B17881   1.068   4.607   6.650  0.2760  0.2141  1.1581
  150DOPC     P17882   1.097   4.267   6.673 -0.0912  0.3428  0.4364
  150DOPC   O1317883   1.065   4.222   6.812  0.0375 -0.0066 -0.1107
  150DOPC   O1417884   1.203   4.191   6.597  0.2354 -0.2224 -0.1106
  150DOPC   O1217885   1.137   4.417   6.682  0.1127  0.0602 -0.7599
  150DOPC   O1117886   0.962   4.273   6.578 -0.5280  0.4723  0.2256
  150DOPC    C117887   0.982   4.291   6.439 -0.3436 -0.2576 -0.3357
  150DOPC    HA17888   1.069   4.233   6.401  0.3653  1.3684 -1.3306
  150DOPC    HB17889   0.987   4.397   6.406  0.1662 -0.1757 -0.0024
  150DOPC    C217890   0.856   4.249   6.358 -0.0753  0.3067 -0.3498
  150DOPC    HS17891   0.769   4.305   6.399 -0.2254 -0.7455  0.8510
  150DOPC   O2117892   0.844   4.109   6.377  0.2338 -0.0630  0.4883
  150DOPC   C2117893   0.720   4.072   6.379 -0.3535  0.1200 -0.1060
  150DOPC   O2217894   0.626   4.146   6.350  0.4610  0.1896 -0.4324
  150DOPC   C2217895   0.723   3.925   6.424  0.4671  0.5010  0.4371
  150DOPC   H2R17896   0.686   3.915   6.529 -1.2093  0.4759 -0.1344
  150DOPC   H2S17897   0.830   3.894   6.425  0.0168 -1.1192  0.9818
  150DOPC    C317898   0.873   4.289   6.207  0.2240  0.5024  0.0431
  150DOPC    HX17899   0.960   4.226   6.175  0.8281  0.7534  1.1472
  150DOPC    HY17900   0.905   4.395   6.201  0.1899  0.4679 -1.0140
  150DOPC   O3117901   0.763   4.249   6.120  0.1045 -0.1527  0.1914
  150DOPC   C3117902   0.664   4.335   6.123  0.1704  0.9476  0.2763
  150DOPC   O3217903   0.651   4.429   6.198  0.7305 -0.6093  0.0308
  150DOPC   C3217904   0.555   4.285   6.025 -0.4531 -0.3156  0.3134
  150DOPC   H2X17905   0.593   4.191   5.980  2.4748  1.0938 -0.3746
  150DOPC   H2Y17906   0.467   4.263   6.090  0.3301 -1.6302  0.9636
  150DOPC   C2317907   0.640   3.826   6.331 -0.0443 -0.2445 -0.5012
  150DOPC   H3R17908   0.541   3.874   6.319 -0.2448 -0.3561  0.5846
  150DOPC   H3S17909   0.636   3.728   6.382  0.3271 -0.0966 -0.1782
  150DOPC   C2417910   0.716   3.799   6.198  0.0817  0.5734  0.2267
  150DOPC   H4R17911   0.783   3.714   6.220 -1.4264 -0.0317  2.9737
  150DOPC   H4S17912   0.773   3.888   6.162 -0.3293  0.9950  0.6034
  150DOPC   C2517913   0.617   3.758   6.082 -0.2778  1.0032  0.1267
  150DOPC   H5R17914   0.552   3.674   6.114 -0.2441  0.1251 -1.9450
  150DOPC   H5S17915   0.678   3.711   6.001 -0.8999  0.6846 -0.1605
  150DOPC   C2617916   0.538   3.875   6.029  0.3502  0.8346  0.4311
  150DOPC   H6R17917   0.617   3.948   6.003  0.5389  0.2852 -0.5655
  150DOPC   H6S17918   0.458   3.915   6.095 -2.3335 -2.3327 -0.6206
  150DOPC   C2717919   0.459   3.833   5.900 -0.4342 -0.0631 -0.0232
  150DOPC   H7R17920   0.532   3.789   5.829  0.1790 -2.4048  1.9222
  150DOPC   H7S17921   0.430   3.921   5.839  0.7461 -0.8052 -1.7285
  150DOPC   C2817922   0.336   3.742   5.922 -0.4255  0.4582 -0.2844
  150DOPC   H8R17923   0.376   3.650   5.970 -0.7885 -0.1359 -1.0965
  150DOPC   H8S17924   0.289   3.695   5.834 -3.4622  1.2124  0.8185
  150DOPC   C2917925   0.230   3.805   6.011  0.0412  0.5275 -0.4236
  150DOPC   H9R17926   0.242   3.772   6.115 -0.1003 -1.9504 -1.1296
  150DOPC  C21017927   0.137   3.890   5.976 -0.0250 -0.1296  0.4297
  150DOPC  H10R17928   0.071   3.933   6.053 -1.0191 -2.7421  1.1654
  150DOPC  C21117929   0.118   3.945   5.838  0.7890 -0.4829 -0.0263
  150DOPC  H11R17930   0.175   3.881   5.767 -0.0625 -1.8011  0.4450
  150DOPC  H11S17931   0.151   4.050   5.821 -2.4657  0.6757  0.1158
  150DOPC  C21217932  -0.033   3.949   5.806  0.4092 -0.4459  0.8371
  150DOPC  H12R17933  -0.053   4.029   5.731  1.3075  1.2531  2.3265
  150DOPC  H12S17934  -0.097   3.974   5.894 -3.5587 -0.1025 -1.8741
  150DOPC  C21317935  -0.075   3.820   5.739  0.5962 -1.1400  0.5758
  150DOPC  H13R17936  -0.045   3.738   5.807  1.6576  0.5506  2.2115
  150DOPC  H13S17937  -0.020   3.801   5.644 -0.1242  0.4663 -0.2156
  150DOPC  C21417938  -0.229   3.804   5.719  0.3279  0.7014 -0.2547
  150DOPC  H14R17939  -0.268   3.855   5.809  0.4039 -0.8054  0.6660
  150DOPC  H14S17940  -0.254   3.695   5.719  0.6160  0.6325  0.4488
  150DOPC  C21517941  -0.288   3.853   5.588  0.5170  0.0052 -0.1201
  150DOPC  H15R17942  -0.394   3.823   5.594  0.4316  0.6017  2.9252
  150DOPC  H15S17943  -0.244   3.803   5.499 -1.2790  0.9644 -1.6149
  150DOPC  C21617944  -0.290   4.002   5.568  0.0529 -0.5087 -0.0171
  150DOPC  H16R17945  -0.185   4.038   5.562  0.3306 -1.2320  0.4076
  150DOPC  H16S17946  -0.340   4.050   5.655  0.1164 -1.7151  0.7094
  150DOPC  C21717947  -0.362   4.047   5.438  0.1792 -0.7663 -0.4400
  150DOPC  H17R17948  -0.467   4.014   5.431  0.0675 -0.3630 -0.6593
  150DOPC  H17S17949  -0.310   4.006   5.349 -1.5417 -0.1081 -1.7974
  150DOPC  C21817950  -0.367   4.196   5.409  0.2630 -0.3642 -0.2092
  150DOPC  H18R17951  -0.267   4.243   5.401 -0.2668  1.0040  0.7104
  150DOPC  H18S17952  -0.419   4.250   5.492  1.4715 -0.4954  0.6568
  150DOPC  H18T17953  -0.424   4.226   5.318 -2.6108  2.4525  2.2735
  150DOPC   C3317954   0.507   4.387   5.925  0.0256  0.2239  0.2591
  150DOPC   H3X17955   0.591   4.394   5.853 -0.1356 -2.4611 -0.2860
  150DOPC   H3Y17956   0.496   4.492   5.960  0.0186  1.0705 -2.0932
  150DOPC   C3417957   0.378   4.338   5.856 -0.1452  0.3943 -0.0166
  150DOPC   H4X17958   0.301   4.336   5.937 -0.9865  2.0815 -0.7187
  150DOPC   H4Y17959   0.386   4.232   5.824  0.5978  0.4528 -0.0251
  150DOPC   C3517960   0.318   4.431   5.751  0.1065  0.8240 -0.5124
  150DOPC   H5X17961   0.386   4.448   5.665 -0.1308 -1.8366 -1.3062
  150DOPC   H5Y17962   0.309   4.530   5.799 -1.0818  0.6861 -0.4322
  150DOPC   C3617963   0.175   4.385   5.703  0.3390 -0.3518  0.2493
  150DOPC   H6X17964   0.182   4.282   5.663  0.4106  0.1438 -1.0587
  150DOPC   H6Y17965   0.124   4.382   5.802  0.9297  0.7888  0.6152
  150DOPC   C3717966   0.103   4.489   5.608 -0.3759  0.3884 -0.0350
  150DOPC   H7X17967   0.082   4.573   5.678  1.0195 -0.4781  1.5069
  150DOPC   H7Y17968   0.178   4.516   5.530  1.4476 -0.3142  1.3871
  150DOPC   C3817969  -0.024   4.437   5.541 -0.1301  0.0064  0.2840
  150DOPC   H8X17970  -0.087   4.391   5.620  1.6510 -1.9257  0.6619
  150DOPC   H8Y17971   0.001   4.350   5.476  1.4644  0.1773  0.6181
  150DOPC   C3917972  -0.108   4.547   5.486  0.5716 -0.0648  0.5170
  150DOPC   H9X17973  -0.056   4.599   5.404 -1.0066 -1.3521 -1.4124
  150DOPC  C31017974  -0.239   4.585   5.520  0.6739  0.5904  0.2617
  150DOPC  H10X17975  -0.288   4.668   5.466 -0.0326  0.7697  1.1447
  150DOPC  C31117976  -0.314   4.529   5.636  0.8620  0.2706  0.0719
  150DOPC  H11X17977  -0.295   4.420   5.639  1.2307  0.3230 -0.2792
  150DOPC  H11Y17978  -0.421   4.560   5.638  1.2455  1.7446 -0.7023
  150DOPC  C31217979  -0.266   4.583   5.776 -0.2941 -0.1335  0.3048
  150DOPC  H12X17980  -0.269   4.693   5.787 -1.2864 -0.3094  2.1965
  150DOPC  H12Y17981  -0.160   4.552   5.785 -0.8934 -2.4986 -0.0558
  150DOPC  C31317982  -0.349   4.523   5.897  0.4416  0.4527  0.9109
  150DOPC  H13X17983  -0.293   4.567   5.983 -2.8884  0.2870  3.3459
  150DOPC  H13Y17984  -0.453   4.561   5.901 -0.4179 -1.8790  3.5076
  150DOPC  C31417985  -0.349   4.370   5.908 -0.2776 -0.6029  0.0551
  150DOPC  H14X17986  -0.430   4.341   5.979  0.0296  0.7589  1.0149
  150DOPC  H14Y17987  -0.384   4.328   5.812 -0.0942 -4.0157  1.3469
  150DOPC  C31517988  -0.220   4.302   5.941 -0.8482 -0.7630  0.2095
  150DOPC  H15X17989  -0.136   4.343   5.881 -1.6472  0.7372  0.0579
  150DOPC  H15Y17990  -0.217   4.191   5.938  0.3476 -0.7768  0.9396
  150DOPC  C31617991  -0.185   4.319   6.088  0.2084 -0.5096 -0.3229
  150DOPC  H16X17992  -0.197   4.426   6.115 -1.3914 -0.3244 -1.5829
  150DOPC  H16Y17993  -0.262   4.271   6.152 -0.3605  0.9705  0.1412
  150DOPC  C31717994  -0.042   4.281   6.118 -0.5422  0.6332 -0.3529
  150DOPC  H17X17995  -0.022   4.174   6.096 -0.3827  0.6792 -0.4333
  150DOPC  H17Y17996   0.017   4.343   6.049  0.7893 -0.7559 -0.5061
  150DOPC  C31817997   0.003   4.305   6.267 -0.2630  0.6812  0.0884
  150DOPC  H18X17998  -0.038   4.238   6.346  0.1303 -0.8331 -0.9516
  150DOPC  H18Y17999   0.113   4.294   6.277 -0.2554 -0.9632 -1.3768
  150DOPC  H18Z18000  -0.022   4.410   6.294 -0.0486  1.0578 -1.1406
  151DOPC     N18001   2.700   4.419   7.088 -0.2701 -0.1120 -0.2383
  151DOPC   C1218002   2.647   4.521   6.985  0.2992 -0.1085  0.0120
  151DOPC  H12A18003   2.736   4.551   6.933 -1.9493  2.6812 -2.5918
  151DOPC  H12B18004   2.628   4.612   7.039  2.4750  0.1315  0.4691
  151DOPC   C1318005   2.787   4.316   7.021 -0.4041 -0.4906 -0.3926
  151DOPC  H13A18006   2.820   4.250   7.100  1.0232  0.5302 -0.1013
  151DOPC  H13B18007   2.742   4.262   6.939  1.3823 -1.5930 -0.7057
  151DOPC  H13C18008   2.873   4.369   6.982 -2.0357  1.6802 -1.2227
  151DOPC   C1418009   2.590   4.365   7.169 -0.3830  0.2824 -0.3306
  151DOPC  H14A18010   2.630   4.279   7.221 -0.1980  1.0371  0.8208
  151DOPC  H14B18011   2.550   4.441   7.234  1.5060  0.5666  0.5752
  151DOPC  H14C18012   2.508   4.338   7.104 -0.2244  1.7464 -1.1878
  151DOPC   C1518013   2.791   4.497   7.182  0.4743 -0.3990 -0.0350
  151DOPC  H15A18014   2.827   4.427   7.256 -1.1857 -0.0556  1.1566
  151DOPC  H15B18015   2.733   4.578   7.224 -2.2084 -3.0442  1.7835
  151DOPC  H15C18016   2.874   4.542   7.130  0.2945 -0.0319 -0.0074
  151DOPC   C1118017   2.541   4.494   6.879 -0.0982  0.0566 -0.2783
  151DOPC  H11A18018   2.519   4.589   6.826 -0.8948  1.0404  1.7325
  151DOPC  H11B18019   2.579   4.415   6.811  0.1979 -0.5009  0.5141
  151DOPC     P18020   2.279   4.484   6.913 -0.0395 -0.0268  0.1476
  151DOPC   O1318021   2.277   4.629   6.945 -0.0336 -0.4602 -0.7467
  151DOPC   O1418022   2.185   4.403   6.993  0.3700 -0.2787  0.1622
  151DOPC   O1218023   2.422   4.431   6.937 -0.0106  0.0539  0.5504
  151DOPC   O1118024   2.254   4.465   6.756  0.1752  0.1017 -0.0794
  151DOPC    C118025   2.129   4.473   6.701  0.3346 -0.5091 -0.9409
  151DOPC    HA18026   2.138   4.516   6.599  1.4517 -0.0953 -0.6862
  151DOPC    HB18027   2.059   4.540   6.756 -0.2080 -0.9405 -1.0999
  151DOPC    C218028   2.061   4.331   6.698 -0.0385 -0.4692  0.8809
  151DOPC    HS18029   2.086   4.271   6.789  1.5124  0.2675  0.9754
  151DOPC   O2118030   2.109   4.271   6.577 -1.1313  0.9586 -0.1783
  151DOPC   C2118031   2.086   4.147   6.570 -0.5923  0.9903  0.2892
  151DOPC   O2218032   2.029   4.075   6.651 -0.1090 -0.1703  0.0955
  151DOPC   C2218033   2.126   4.105   6.423  0.4594  0.1892 -0.2273
  151DOPC   H2R18034   2.236   4.114   6.409  0.7387  1.8394  2.4085
  151DOPC   H2S18035   2.074   4.170   6.349 -1.6426 -2.2944 -1.1208
  151DOPC    C318036   1.912   4.341   6.701  0.6367  0.3761  0.0165
  151DOPC    HX18037   1.874   4.369   6.802 -1.2050  0.5620 -0.6897
  151DOPC    HY18038   1.869   4.243   6.672  0.1273  0.8060 -0.7243
  151DOPC   O3118039   1.864   4.447   6.609 -0.6649 -0.2297  0.5545
  151DOPC   C3118040   1.864   4.416   6.479 -0.4236  0.0091 -1.4630
  151DOPC   O3218041   1.866   4.300   6.440 -0.5164  0.3552 -0.3459
  151DOPC   C3218042   1.869   4.540   6.393 -0.8338 -0.0540 -0.0432
  151DOPC   H2X18043   1.793   4.608   6.439  0.6100  1.5720  0.0605
  151DOPC   H2Y18044   1.957   4.603   6.417 -1.0838  0.4111 -0.3214
  151DOPC   C2318045   2.086   3.957   6.384 -0.3492  0.2366  0.8765
  151DOPC   H3R18046   1.977   3.958   6.365 -0.0005  1.9893 -1.6147
  151DOPC   H3S18047   2.118   3.883   6.460 -0.0423 -0.1284  0.3990
  151DOPC   C2418048   2.151   3.897   6.257 -0.4451  0.0305 -0.0511
  151DOPC   H4R18049   2.159   3.788   6.276  1.4783 -0.0867 -1.2337
  151DOPC   H4S18050   2.255   3.935   6.249 -1.0421  1.5233 -1.2321
  151DOPC   C2518051   2.063   3.920   6.136  0.1548  1.0376 -0.2279
  151DOPC   H5R18052   2.071   4.028   6.111  0.1349  0.6900 -1.9077
  151DOPC   H5S18053   1.963   3.883   6.168  0.8225 -1.7291 -1.0815
  151DOPC   C2618054   2.105   3.836   6.013 -0.3611  0.2761  0.1358
  151DOPC   H6R18055   2.093   3.730   6.043 -0.2248 -0.0324 -0.8702
  151DOPC   H6S18056   2.213   3.850   5.990 -0.1835 -1.6009 -0.3583
  151DOPC   C2718057   2.030   3.859   5.885  0.4497 -0.1255  0.4071
  151DOPC   H7R18058   2.030   3.969   5.868  0.0094 -0.2785 -0.6227
  151DOPC   H7S18059   1.921   3.839   5.892  0.1030  0.7847 -1.7600
  151DOPC   C2818060   2.097   3.787   5.765  0.3073  0.0806  0.3861
  151DOPC   H8R18061   2.204   3.816   5.763  0.4154 -0.3034  0.6542
  151DOPC   H8S18062   2.059   3.827   5.668  3.1865  3.7304  0.5387
  151DOPC   C2918063   2.082   3.643   5.782 -0.8641 -0.1342 -0.1842
  151DOPC   H9R18064   1.997   3.608   5.842 -0.5698 -1.5220 -0.5410
  151DOPC  C21018065   2.169   3.555   5.733 -0.4672 -0.0051 -0.2908
  151DOPC  H10R18066   2.158   3.446   5.740  0.4035 -0.1360 -0.7598
  151DOPC  C21118067   2.297   3.581   5.655 -0.2173  0.3613 -0.2280
  151DOPC  H11R18068   2.378   3.609   5.725 -0.1753  1.9289 -0.8826
  151DOPC  H11S18069   2.269   3.675   5.603 -0.7619 -0.5497 -1.6546
  151DOPC  C21218070   2.341   3.479   5.554  0.0271  0.9048  0.2643
  151DOPC  H12R18071   2.348   3.382   5.607 -1.8550 -0.7023 -2.1635
  151DOPC  H12S18072   2.446   3.505   5.528 -0.3963  2.9778  0.5060
  151DOPC  C21318073   2.252   3.461   5.422  1.0261  0.7945  0.3072
  151DOPC  H13R18074   2.230   3.562   5.382 -0.2201  0.7050  0.7000
  151DOPC  H13S18075   2.157   3.411   5.452  0.9522  0.3268 -0.6730
  151DOPC  C21418076   2.320   3.379   5.321 -0.0782  1.2081  0.2397
  151DOPC  H14R18077   2.244   3.346   5.247  0.1293 -1.4679  1.1362
  151DOPC  H14S18078   2.380   3.298   5.368 -1.8001  0.0691  0.5668
  151DOPC  C21518079   2.409   3.469   5.232 -0.0461  0.1832  0.2327
  151DOPC  H15R18080   2.488   3.517   5.293  0.9793 -1.7694  0.5186
  151DOPC  H15S18081   2.349   3.554   5.193 -0.0010  1.8286  3.3927
  151DOPC  C21618082   2.494   3.394   5.125  0.1484 -0.5844 -0.4463
  151DOPC  H16R18083   2.563   3.313   5.159 -0.0553 -0.8912 -0.7493
  151DOPC  H16S18084   2.563   3.476   5.094 -0.3657  1.3243  2.9848
  151DOPC  C21718085   2.418   3.351   4.996 -0.3595 -0.4847  0.0963
  151DOPC  H17R18086   2.338   3.425   4.975  0.3103  0.6893  1.4677
  151DOPC  H17S18087   2.370   3.255   5.026 -3.3419  0.9768  0.3573
  151DOPC  C21818088   2.512   3.339   4.882 -0.3223  0.1416  0.9504
  151DOPC  H18R18089   2.554   3.434   4.843 -1.2680  0.1513 -0.0778
  151DOPC  H18S18090   2.454   3.303   4.794  0.6440  1.2262 -0.1750
  151DOPC  H18T18091   2.585   3.258   4.904  0.9488  0.8332 -0.5649
  151DOPC   C3318092   1.867   4.508   6.239  0.9680 -0.7420  0.1071
  151DOPC   H3X18093   1.768   4.469   6.208 -0.1842  1.4877  0.8014
  151DOPC   H3Y18094   1.939   4.426   6.214  1.9512  0.5771 -1.5854
  151DOPC   C3418095   1.900   4.628   6.149 -0.6816 -0.1847 -0.1713
  151DOPC   H4X18096   2.011   4.631   6.144 -0.6862 -0.8921 -0.8672
  151DOPC   H4Y18097   1.871   4.726   6.191 -0.4383  0.1257 -0.7186
  151DOPC   C3518098   1.836   4.614   6.014 -0.1407  0.0740  0.0765
  151DOPC   H5X18099   1.726   4.597   6.025 -0.1656 -1.2829 -1.8388
  151DOPC   H5Y18100   1.871   4.524   5.959 -3.5081 -0.5295 -1.3032
  151DOPC   C3618101   1.862   4.734   5.921 -0.5879  0.1926  0.9074
  151DOPC   H6X18102   1.851   4.828   5.978 -1.0317  2.0782 -2.0565
  151DOPC   H6Y18103   1.967   4.726   5.885 -0.9470  1.3072 -0.4660
  151DOPC   C3718104   1.766   4.728   5.803 -0.0496  0.0009 -0.0456
  151DOPC   H7X18105   1.723   4.626   5.806 -0.6957  0.2662  2.4312
  151DOPC   H7Y18106   1.681   4.797   5.820  0.8593  0.9777  0.6872
  151DOPC   C3818107   1.833   4.758   5.666 -0.1467  0.5686 -0.2928
  151DOPC   H8X18108   1.764   4.728   5.584 -0.9859 -2.3071  1.3318
  151DOPC   H8Y18109   1.922   4.692   5.658  0.9405  1.5140  2.5728
  151DOPC   C3918110   1.859   4.909   5.673  0.6550  0.2134 -0.0857
  151DOPC   H9X18111   1.871   4.955   5.772 -0.4185  0.4482 -0.0499
  151DOPC  C31018112   1.895   4.976   5.563 -0.2746 -0.1842  0.2604
  151DOPC  H10X18113   1.911   5.085   5.565 -0.9496 -0.0875  0.8591
  151DOPC  C31118114   1.908   4.925   5.423 -0.1555 -0.0834 -0.3699
  151DOPC  H11X18115   1.898   4.815   5.417 -0.0286 -0.1124 -0.0669
  151DOPC  H11Y18116   2.011   4.945   5.387  0.8080 -1.1361  1.6526
  151DOPC  C31218117   1.798   4.987   5.328  0.5980  0.5294 -0.5803
  151DOPC  H12X18118   1.827   5.093   5.312 -0.9518  1.1806  0.6924
  151DOPC  H12Y18119   1.696   4.984   5.373  1.2111 -1.3070  0.8080
  151DOPC  C31318120   1.778   4.914   5.196  0.1444  0.3613  0.6852
  151DOPC  H13X18121   1.877   4.892   5.151 -0.9763 -0.3077 -1.6034
  151DOPC  H13Y18122   1.741   4.813   5.226  0.9427  0.0010  0.4910
  151DOPC  C31418123   1.675   4.969   5.100 -0.5465 -0.9362  0.6958
  151DOPC  H14X18124   1.591   5.018   5.155  1.3887 -0.1059  3.0832
  151DOPC  H14Y18125   1.711   5.060   5.047 -1.6437 -1.9726 -2.0137
  151DOPC  C31518126   1.624   4.875   4.988 -0.3524  0.1514  0.8236
  151DOPC  H15X18127   1.584   4.945   4.911  0.0199 -0.1893  0.3121
  151DOPC  H15Y18128   1.540   4.806   5.009  0.4938 -0.7575  1.2865
  151DOPC  C31618129   1.745   4.797   4.927  0.1542  0.5859 -0.7873
  151DOPC  H16X18130   1.831   4.867   4.927  1.0045 -0.4228 -0.0016
  151DOPC  H16Y18131   1.769   4.715   4.998 -1.4248  1.5496  0.9822
  151DOPC  C31718132   1.720   4.745   4.791  0.4452 -0.2046  0.7747
  151DOPC  H17X18133   1.653   4.805   4.726  1.3285 -0.6353 -0.5752
  151DOPC  H17Y18134   1.816   4.737   4.736  0.8535  0.7415  1.3392
  151DOPC  C31818135   1.648   4.605   4.774 -1.4385 -0.1246  0.9832
  151DOPC  H18X18136   1.707   4.519   4.811  1.0962  0.0763 -2.1734
  151DOPC  H18Y18137   1.555   4.615   4.834 -1.2184  1.7721  1.0826
  151DOPC  H18Z18138   1.630   4.577   4.668 -0.3572  0.3764  0.6463
  152DOPC     N18139   5.421   0.693   7.093 -0.0365 -0.6591 -0.2590
  152DOPC   C1218140   5.332   0.739   6.979  0.2804  0.2890  0.7535
  152DOPC  H12A18141   5.300   0.657   6.916  0.9084  1.7645 -1.5998
  152DOPC  H12B18142   5.389   0.789   6.902 -0.8554 -0.0483 -0.3462
  152DOPC   C1318143   5.481   0.812   7.164 -0.1620 -0.2766  0.4426
  152DOPC  H13A18144   5.412   0.890   7.193  1.1808  1.0687  0.2089
  152DOPC  H13B18145   5.538   0.774   7.248 -0.2660 -0.6099  0.3601
  152DOPC  H13C18146   5.556   0.861   7.103 -1.8435 -0.6778 -2.0836
  152DOPC   C1418147   5.525   0.602   7.046 -0.0298 -0.2697 -0.6525
  152DOPC  H14A18148   5.577   0.551   7.126 -1.5162  2.2199  2.1208
  152DOPC  H14B18149   5.485   0.519   6.990 -0.0846 -0.6858 -0.0109
  152DOPC  H14C18150   5.602   0.656   6.992  2.2348 -0.5459  2.0373
  152DOPC   C1518151   5.333   0.622   7.195  0.0174 -0.3048 -0.2716
  152DOPC  H15A18152   5.292   0.529   7.161 -1.0901  0.8181 -2.1956
  152DOPC  H15B18153   5.257   0.693   7.223  0.9670  0.5438  0.2346
  152DOPC  H15C18154   5.389   0.598   7.285 -1.6552 -3.1700  0.1145
  152DOPC   C1118155   5.201   0.814   7.017 -0.7794 -0.7123  0.1309
  152DOPC  H11A18156   5.226   0.874   7.107 -0.3795 -0.5920 -0.0582
  152DOPC  H11B18157   5.173   0.878   6.931  1.8079 -1.3003 -1.2534
  152DOPC     P18158   4.950   0.779   7.083  0.0883 -0.3319 -0.1192
  152DOPC   O1318159   4.958   0.914   7.139  0.0820 -0.7487  0.0756
  152DOPC   O1418160   4.861   0.691   7.160  0.1876  0.2282 -0.0155
  152DOPC   O1218161   5.095   0.728   7.063  0.8242  0.3693  1.1484
  152DOPC   O1118162   4.903   0.794   6.939  0.2306 -0.2855 -0.5456
  152DOPC    C118163   4.877   0.677   6.859  0.0664  0.6689 -0.7504
  152DOPC    HA18164   4.799   0.693   6.782 -0.5812 -4.1862 -1.4244
  152DOPC    HB18165   4.836   0.600   6.927 -0.2682  1.2480 -0.2947
  152DOPC    C218166   5.005   0.627   6.784 -0.1715  0.3178  0.7353
  152DOPC    HS18167   5.084   0.609   6.861 -0.4025 -3.4622  0.2848
  152DOPC   O2118168   5.040   0.732   6.691  0.5673  0.2906 -0.0455
  152DOPC   C2118169   5.169   0.719   6.650 -0.8057  0.1431 -0.0933
  152DOPC   O2218170   5.244   0.628   6.687  0.1513 -0.6367  0.2294
  152DOPC   C2218171   5.202   0.830   6.544  0.2495  0.8754 -0.3649
  152DOPC   H2R18172   5.313   0.831   6.537  0.7106 -1.7984  3.4167
  152DOPC   H2S18173   5.167   0.924   6.591 -0.5408 -0.3965  1.7279
  152DOPC    C318174   4.983   0.485   6.713  0.0309  0.1721 -0.1197
  152DOPC    HX18175   4.965   0.432   6.809  0.8219 -1.4015 -0.7982
  152DOPC    HY18176   5.078   0.457   6.662 -0.5373 -1.1011 -0.5320
  152DOPC   O3118177   4.870   0.484   6.622 -0.0855 -0.1774  0.0264
  152DOPC   C3118178   4.758   0.435   6.664  0.0934  0.0103 -0.3505
  152DOPC   O3218179   4.728   0.413   6.786  0.2106 -0.1277  0.1817
  152DOPC   C3218180   4.671   0.403   6.545 -0.2711  0.2511 -0.3620
  152DOPC   H2X18181   4.732   0.341   6.476 -0.1107 -0.2026  0.1827
  152DOPC   H2Y18182   4.596   0.332   6.585 -0.4547  0.7740  0.2383
  152DOPC   C2318183   5.121   0.809   6.409 -0.4790  1.0135  0.3820
  152DOPC   H3R18184   5.013   0.809   6.431 -0.4249  0.2191  0.6904
  152DOPC   H3S18185   5.142   0.707   6.371  1.5404  1.2715  0.6860
  152DOPC   C2418186   5.157   0.906   6.304 -0.0065 -0.0665  1.0472
  152DOPC   H4R18187   5.266   0.898   6.284 -0.0970 -0.9908  0.8782
  152DOPC   H4S18188   5.130   1.008   6.337  1.8891  0.3352  1.4896
  152DOPC   C2518189   5.077   0.865   6.174 -0.0290  0.0343 -0.0458
  152DOPC   H5R18190   4.977   0.837   6.214  0.5275  1.0713  2.1771
  152DOPC   H5S18191   5.125   0.770   6.141 -0.9661  0.0822 -1.6840
  152DOPC   C2618192   5.073   0.972   6.071  0.1463  1.1787 -0.6906
  152DOPC   H6R18193   5.174   0.972   6.025  0.1671  2.0746 -0.6580
  152DOPC   H6S18194   5.047   1.074   6.108  1.7541  1.6566 -0.8070
  152DOPC   C2718195   4.971   0.931   5.968  0.2367 -0.2138  0.6185
  152DOPC   H7R18196   4.888   0.880   6.021  1.6081 -1.3033  1.8528
  152DOPC   H7S18197   5.014   0.850   5.906  1.0452 -1.5114  2.7407
  152DOPC   C2818198   4.926   1.040   5.863 -0.2023 -0.5482  0.6107
  152DOPC   H8R18199   4.864   1.118   5.912  0.5348 -0.2915  1.1460
  152DOPC   H8S18200   4.864   0.995   5.782  1.0579 -2.5528  0.6796
  152DOPC   C2918201   5.038   1.120   5.801  0.2496 -0.0595  0.1574
  152DOPC   H9R18202   5.044   1.219   5.850 -0.8866 -0.1252  0.4556
  152DOPC  C21018203   5.107   1.089   5.691  0.4659  0.4780 -0.1690
  152DOPC  H10R18204   5.187   1.152   5.649  1.5722 -1.0341 -0.4336
  152DOPC  C21118205   5.085   0.965   5.611 -0.5966  0.4538 -0.9419
  152DOPC  H11R18206   5.081   0.877   5.679  0.7178  0.7851 -0.4009
  152DOPC  H11S18207   5.174   0.945   5.547 -1.2793 -0.3172 -1.6841
  152DOPC  C21218208   4.975   0.973   5.501 -0.4234 -0.8217  0.2130
  152DOPC  H12R18209   4.895   1.048   5.517  0.8011  0.7857 -0.9114
  152DOPC  H12S18210   4.934   0.872   5.478  0.4641 -0.4852 -3.4106
  152DOPC  C21318211   5.032   1.028   5.364 -0.1454  0.0643  0.0217
  152DOPC  H13R18212   5.117   0.963   5.336 -0.0943  0.1220  0.0432
  152DOPC  H13S18213   5.071   1.130   5.385 -0.9370  0.8181 -1.8795
  152DOPC  C21418214   4.930   1.028   5.248  0.3232  0.1841 -0.2421
  152DOPC  H14R18215   4.856   1.110   5.248  0.0190 -0.0835  0.1348
  152DOPC  H14S18216   4.882   0.928   5.242 -0.0255  0.4265 -2.0214
  152DOPC  C21518217   4.995   1.052   5.107 -0.1337  0.7674  0.4309
  152DOPC  H15R18218   5.066   0.969   5.087 -0.6508  1.0172 -2.8937
  152DOPC  H15S18219   5.058   1.143   5.116  0.2445  1.1735 -4.1358
  152DOPC  C21618220   4.890   1.061   4.995  0.1169 -0.2085  0.1123
  152DOPC  H16R18221   4.825   1.149   5.009  0.2185 -0.2100  0.5846
  152DOPC  H16S18222   4.820   0.975   4.994  1.4502 -1.3881  1.7667
  152DOPC  C21718223   4.953   1.082   4.859  0.0853  0.0717 -0.6914
  152DOPC  H17R18224   5.032   1.160   4.863  1.2261 -1.0093 -1.4707
  152DOPC  H17S18225   4.874   1.125   4.794  0.6320  0.6488 -0.9871
  152DOPC  C21818226   5.007   0.969   4.778  0.0263  0.1451 -0.1472
  152DOPC  H18R18227   5.091   1.002   4.712 -0.0908  0.5637 -0.0903
  152DOPC  H18S18228   4.931   0.937   4.704 -0.3688 -1.8423  1.0520
  152DOPC  H18T18229   5.040   0.890   4.848  1.7298 -0.1080 -1.1682
  152DOPC   C3318230   4.593   0.516   6.480  0.0391 -0.3774 -0.1541
  152DOPC   H3X18231   4.528   0.582   6.542 -0.3384  2.4501 -3.3317
  152DOPC   H3Y18232   4.521   0.473   6.408 -0.3978 -1.3291  0.8127
  152DOPC   C3418233   4.681   0.607   6.389 -0.2131  0.0439  0.2544
  152DOPC   H4X18234   4.777   0.562   6.356  0.3969  0.6573  1.1280
  152DOPC   H4Y18235   4.706   0.694   6.454 -0.7547  1.8456 -1.8278
  152DOPC   C3518236   4.608   0.649   6.261  0.0338  0.1477  0.4946
  152DOPC   H5X18237   4.514   0.704   6.283  0.1874  0.5821  0.0651
  152DOPC   H5Y18238   4.589   0.554   6.205 -0.2031  0.1385  0.5904
  152DOPC   C3618239   4.685   0.747   6.171  0.7229  0.0644  0.6468
  152DOPC   H6X18240   4.711   0.829   6.241 -2.2463 -0.0045  1.9843
  152DOPC   H6Y18241   4.786   0.713   6.140  0.6033 -0.2387  0.5890
  152DOPC   C3718242   4.593   0.795   6.052 -1.1835 -0.6491  0.1237
  152DOPC   H7X18243   4.487   0.797   6.086 -1.6289  0.4293 -1.2090
  152DOPC   H7Y18244   4.618   0.899   6.022 -3.1737 -0.5224 -1.3301
  152DOPC   C3818245   4.613   0.705   5.923  0.3005 -0.4366 -0.6452
  152DOPC   H8X18246   4.604   0.599   5.957 -2.8800 -0.6038 -1.6667
  152DOPC   H8Y18247   4.714   0.716   5.879  0.3301 -1.6254 -0.9222
  152DOPC   C3918248   4.496   0.720   5.827 -0.5029  0.4691  0.1100
  152DOPC   H9X18249   4.398   0.677   5.855 -2.0367  0.6857 -4.2226
  152DOPC  C31018250   4.492   0.785   5.708 -0.5783  0.1913  0.1336
  152DOPC  H10X18251   4.395   0.806   5.660  0.1184 -0.5678 -1.7123
  152DOPC  C31118252   4.606   0.857   5.635 -0.4116  0.3502  0.1141
  152DOPC  H11X18253   4.690   0.881   5.705 -1.8067  0.1640  1.9395
  152DOPC  H11Y18254   4.575   0.955   5.592  0.2926  0.5321  0.0078
  152DOPC  C31218255   4.653   0.772   5.518  0.2026 -0.0993 -0.6805
  152DOPC  H12X18256   4.716   0.690   5.558 -0.3792 -0.0961  0.2683
  152DOPC  H12Y18257   4.722   0.831   5.453  2.0877 -0.6810  0.6903
  152DOPC  C31318258   4.541   0.721   5.429  0.4160 -0.0821 -0.9305
  152DOPC  H13X18259   4.500   0.628   5.474  0.2533  0.3134 -0.2432
  152DOPC  H13Y18260   4.461   0.798   5.429  0.6324  0.2082  1.3992
  152DOPC  C31418261   4.576   0.685   5.284 -0.0816  0.1950  0.5898
  152DOPC  H14X18262   4.674   0.632   5.280  0.0793  0.4443  1.2004
  152DOPC  H14Y18263   4.495   0.617   5.249  1.5631 -2.3277  1.4087
  152DOPC  C31518264   4.586   0.804   5.192 -0.1790 -0.3912  0.5614
  152DOPC  H15X18265   4.646   0.770   5.105  0.5185  0.3278  0.7471
  152DOPC  H15Y18266   4.637   0.891   5.239 -0.2122  0.9771 -1.8002
  152DOPC  C31618267   4.450   0.864   5.143  0.5401  0.3868  0.2958
  152DOPC  H16X18268   4.387   0.790   5.089  0.2717  0.6552  0.2351
  152DOPC  H16Y18269   4.405   0.908   5.234  0.0339 -1.7036  1.1201
  152DOPC  C31718270   4.479   0.977   5.048  0.0664 -0.4786  0.3585
  152DOPC  H17X18271   4.534   1.048   5.113 -1.7093 -0.6998  2.2060
  152DOPC  H17Y18272   4.551   0.952   4.967 -0.0794 -2.2577  0.7355
  152DOPC  C31818273   4.355   1.047   5.005  0.4229  0.0122  0.2805
  152DOPC  H18X18274   4.303   0.974   4.940  0.9796  0.0369 -0.1984
  152DOPC  H18Y18275   4.290   1.070   5.092 -0.7428 -0.9836 -0.2916
  152DOPC  H18Z18276   4.389   1.138   4.952  0.0753  0.1852  0.3505
  153DOPC     N18277   6.228   4.766   7.172  0.1986 -0.5776 -0.2139
  153DOPC   C1218278   6.180   4.817   7.035  0.4373 -0.1110 -0.3013
  153DOPC  H12A18279   6.214   4.918   7.020 -0.5845  0.1386 -1.0709
  153DOPC  H12B18280   6.072   4.824   7.042  0.5461  0.5145  0.8823
  153DOPC   C1318281   6.372   4.796   7.193  0.2787 -0.0468  0.1717
  153DOPC  H13A18282   6.401   4.900   7.196  0.4591 -0.1215  1.3134
  153DOPC  H13B18283   6.404   4.749   7.285  0.2397  0.0589  0.2396
  153DOPC  H13C18284   6.432   4.749   7.117 -0.5462 -0.4332 -0.2504
  153DOPC   C1418285   6.223   4.616   7.179 -0.6243  0.9827 -0.2483
  153DOPC  H14A18286   6.296   4.585   7.105 -0.5172 -0.6054  0.4807
  153DOPC  H14B18287   6.244   4.572   7.275 -2.2157  0.7305  0.0153
  153DOPC  H14C18288   6.127   4.575   7.150 -0.4501 -1.1027  1.8031
  153DOPC   C1518289   6.148   4.824   7.286 -0.4611  1.2685 -0.7906
  153DOPC  H15A18290   6.177   4.807   7.389 -0.2352  1.2944 -0.8510
  153DOPC  H15B18291   6.044   4.795   7.284  0.1618 -1.1912 -1.3419
  153DOPC  H15C18292   6.143   4.931   7.284 -0.1030  1.3533  0.8732
  153DOPC   C1118293   6.204   4.723   6.912  0.1969  0.1261  0.5204
  153DOPC  H11A18294   6.144   4.629   6.917  1.3823 -0.8098 -1.6044
  153DOPC  H11B18295   6.165   4.791   6.833 -0.9281 -0.7412  0.3130
  153DOPC     P18296   6.397   4.565   6.841  0.0563 -0.1395  0.2009
  153DOPC   O1318297   6.342   4.471   6.939 -0.6173 -0.3267  0.4713
  153DOPC   O1418298   6.549   4.568   6.829  0.4050 -0.0499  0.1939
  153DOPC   O1218299   6.345   4.703   6.890  0.2318 -0.3482  0.1459
  153DOPC   O1118300   6.340   4.537   6.694  0.1291  0.1566  0.3071
  153DOPC    C118301   6.294   4.639   6.605 -0.5540 -0.0713  0.0062
  153DOPC    HA18302   6.218   4.712   6.639 -0.3174  1.3984 -2.3800
  153DOPC    HB18303   6.244   4.591   6.519 -2.1817 -0.9654  1.3915
  153DOPC    C218304   6.407   4.722   6.545  0.2069 -0.0209  0.6894
  153DOPC    HS18305   6.449   4.785   6.626  1.1664  0.5482 -0.2294
  153DOPC   O2118306   6.348   4.792   6.428 -0.0583  0.2367  0.0891
  153DOPC   C2118307   6.408   4.907   6.409  0.1487  0.1370  0.8299
  153DOPC   O2218308   6.480   4.961   6.490  0.1461 -1.1564  0.1340
  153DOPC   C2218309   6.372   4.952   6.267 -0.0661 -0.6613 -0.3298
  153DOPC   H2R18310   6.262   4.964   6.262 -0.2264 -0.7131  2.0539
  153DOPC   H2S18311   6.404   4.866   6.203  1.5130  1.0280 -1.9519
  153DOPC    C318312   6.506   4.622   6.482  0.5611 -0.6511  0.1958
  153DOPC    HX18313   6.446   4.540   6.439 -1.9493  1.1891 -0.0393
  153DOPC    HY18314   6.573   4.575   6.557 -0.2122 -4.0876 -1.1126
  153DOPC   O3118315   6.577   4.682   6.368 -0.2344  0.4213  0.2506
  153DOPC   C3118316   6.707   4.701   6.382  0.1089 -0.5389 -0.4063
  153DOPC   O3218317   6.773   4.674   6.480 -0.1718 -0.0317  0.8784
  153DOPC   C3218318   6.749   4.772   6.251  0.3990 -0.0889 -0.3269
  153DOPC   H2X18319   6.690   4.748   6.160  1.3531  0.4314 -1.1039
  153DOPC   H2Y18320   6.751   4.882   6.268 -0.3644  0.0137 -0.8569
  153DOPC   C2318321   6.456   5.076   6.239 -0.3655 -0.0593 -0.4419
  153DOPC   H3R18322   6.561   5.068   6.275 -0.1629  3.8273  0.3233
  153DOPC   H3S18323   6.437   5.157   6.312  1.9619 -0.3313  0.5392
  153DOPC   C2418324   6.466   5.121   6.095 -0.5233 -0.5445 -0.2477
  153DOPC   H4R18325   6.364   5.153   6.064  0.0355 -0.1239 -1.7340
  153DOPC   H4S18326   6.493   5.033   6.032 -0.4247 -2.1554  1.9164
  153DOPC   C2518327   6.561   5.237   6.056  0.1275  0.0631 -0.0694
  153DOPC   H5R18328   6.535   5.322   6.122 -1.2442 -0.7416  0.4841
  153DOPC   H5S18329   6.545   5.277   5.953 -0.1143  0.1403 -0.0026
  153DOPC   C2618330   6.712   5.211   6.064 -0.0611  0.0045 -0.4841
  153DOPC   H6R18331   6.746   5.147   5.980  0.2940  0.3701 -0.6248
  153DOPC   H6S18332   6.727   5.143   6.150  1.4542 -0.7594 -1.3050
  153DOPC   C2718333   6.806   5.339   6.079  0.3113  0.1379 -0.1958
  153DOPC   H7R18334   6.794   5.392   6.176 -0.2892  0.5758 -0.5032
  153DOPC   H7S18335   6.774   5.402   5.993 -0.8102  0.9531  0.7822
  153DOPC   C2818336   6.948   5.306   6.053 -0.4323  0.1906 -0.3096
  153DOPC   H8R18337   6.984   5.233   6.129 -2.1068 -0.2819  0.0690
  153DOPC   H8S18338   7.009   5.399   6.060 -0.9815  0.5361 -0.0562
  153DOPC   C2918339   6.978   5.247   5.912  0.8766 -0.5923  0.3789
  153DOPC   H9R18340   6.993   5.139   5.896 -2.1625 -0.7094 -2.7015
  153DOPC  C21018341   6.991   5.321   5.802 -0.5428 -0.8614  0.1582
  153DOPC  H10R18342   7.019   5.277   5.705  3.0583  0.6435  0.3837
  153DOPC  C21118343   7.006   5.473   5.799  0.2811  0.0329  0.0143
  153DOPC  H11R18344   7.116   5.485   5.813  0.4823  2.5402 -2.6544
  153DOPC  H11S18345   6.962   5.522   5.889  0.7114 -0.4826  0.5098
  153DOPC  C21218346   6.949   5.528   5.672 -0.1094 -0.4315  0.3432
  153DOPC  H12R18347   6.840   5.511   5.665 -0.8846  3.0123  2.0098
  153DOPC  H12S18348   7.006   5.476   5.592  1.0605 -0.6721  1.2982
  153DOPC  C21318349   6.961   5.681   5.667 -0.2822  0.1122 -0.8978
  153DOPC  H13R18350   7.069   5.701   5.684 -0.4307 -0.0192  0.2738
  153DOPC  H13S18351   6.897   5.723   5.747  3.6563  3.4462  0.8754
  153DOPC  C21418352   6.916   5.744   5.535  0.3215  0.0133  0.1697
  153DOPC  H14R18353   6.815   5.714   5.498  0.8069 -1.1671 -0.2473
  153DOPC  H14S18354   6.988   5.715   5.456 -0.1040  0.6780 -0.4812
  153DOPC  C21518355   6.933   5.898   5.526  0.1853 -0.0681  0.2051
  153DOPC  H15R18356   7.036   5.935   5.548  0.1044  0.0203  0.4362
  153DOPC  H15S18357   6.872   5.935   5.610 -2.2603 -0.8739 -1.1143
  153DOPC  C21618358   6.889   5.953   5.389  0.1663 -0.9004  0.9459
  153DOPC  H16R18359   6.889   6.064   5.381  0.6721 -0.9288  0.4782
  153DOPC  H16S18360   6.787   5.918   5.364  0.6238 -0.8295 -1.2352
  153DOPC  C21718361   6.980   5.911   5.268  0.0119 -0.0753  0.0981
  153DOPC  H17R18362   6.934   5.953   5.176 -0.2141  0.4286  0.4333
  153DOPC  H17S18363   6.979   5.800   5.263  1.5674 -0.1848  1.3845
  153DOPC  C21818364   7.122   5.965   5.284 -0.1311  0.2367 -0.8390
  153DOPC  H18R18365   7.121   6.072   5.314  1.7331 -0.1346  0.7585
  153DOPC  H18S18366   7.193   5.956   5.199  0.8708  0.1528 -0.0272
  153DOPC  H18T18367   7.175   5.903   5.360  0.4548  1.6423 -0.0703
  153DOPC   C3318368   6.897   4.734   6.221  0.2927 -0.5762  0.3978
  153DOPC   H3X18369   6.914   4.627   6.245  0.0720 -0.5229  0.8063
  153DOPC   H3Y18370   6.958   4.795   6.292  0.1322 -1.8512  1.6985
  153DOPC   C3418371   6.927   4.761   6.068 -0.2481 -0.1903  0.0524
  153DOPC   H4X18372   6.861   4.699   6.004  0.3501  0.2808 -1.0408
  153DOPC   H4Y18373   7.035   4.741   6.050 -0.2418  1.9134 -3.0405
  153DOPC   C3518374   6.884   4.892   6.013  0.7403 -0.4477  0.5229
  153DOPC   H5X18375   6.945   4.978   6.048  0.1151  0.8800 -1.4334
  153DOPC   H5Y18376   6.777   4.904   6.039  1.0942 -0.6419  2.1395
  153DOPC   C3618377   6.901   4.896   5.860  0.1661 -0.0364 -0.1976
  153DOPC   H6X18378   6.854   4.805   5.819  2.0569 -0.9015 -0.5652
  153DOPC   H6Y18379   6.861   4.989   5.816  0.1875  0.2728  0.4184
  153DOPC   C3718380   7.047   4.895   5.833  0.0589 -0.2180  0.0654
  153DOPC   H7X18381   7.103   4.962   5.902  1.7937  0.8625 -2.2571
  153DOPC   H7Y18382   7.073   4.789   5.851  1.5927 -0.0471 -0.9932
  153DOPC   C3818383   7.072   4.940   5.688 -0.0976 -0.0665 -0.1078
  153DOPC   H8X18384   7.050   5.048   5.675  4.1073  1.0508  0.6943
  153DOPC   H8Y18385   7.005   4.879   5.623 -1.0980  0.7118  0.1780
  153DOPC   C3918386   7.209   4.909   5.625  0.0075 -0.0511 -0.5556
  153DOPC   H9X18387   7.220   4.814   5.572 -0.6529 -0.2012 -0.4274
  153DOPC  C31018388   7.316   4.985   5.625 -0.7383  0.0905  0.0272
  153DOPC  H10X18389   7.405   4.946   5.575 -1.3007  0.3781 -1.2233
  153DOPC  C31118390   7.328   5.122   5.678 -0.1410  0.3330 -0.2150
  153DOPC  H11X18391   7.421   5.135   5.738  0.2587 -1.4786 -0.3887
  153DOPC  H11Y18392   7.240   5.159   5.734  1.9899  3.7346  1.2278
  153DOPC  C31218393   7.352   5.229   5.568 -0.3056  0.0392  0.0963
  153DOPC  H12X18394   7.272   5.212   5.493 -0.8404 -2.2904  1.1059
  153DOPC  H12Y18395   7.451   5.205   5.522 -0.0812 -0.3077  0.7467
  153DOPC  C31318396   7.354   5.375   5.609  0.2402 -0.3444  0.9639
  153DOPC  H13X18397   7.256   5.408   5.650 -0.1566  0.4542 -0.5584
  153DOPC  H13Y18398   7.411   5.379   5.704 -2.6413 -1.3563  2.8815
  153DOPC  C31418399   7.413   5.458   5.492 -0.0805  0.8198 -0.0458
  153DOPC  H14X18400   7.440   5.563   5.518 -0.1317  0.8986 -0.3044
  153DOPC  H14Y18401   7.508   5.413   5.457 -0.7125 -0.7907  0.2272
  153DOPC  C31518402   7.321   5.466   5.367 -0.0546 -0.1391  0.3991
  153DOPC  H15X18403   7.214   5.496   5.374 -0.3184 -1.0210  0.3607
  153DOPC  H15Y18404   7.326   5.363   5.324 -0.5627 -0.5814  1.3628
  153DOPC  C31618405   7.373   5.549   5.253 -0.5435  0.0480 -0.1956
  153DOPC  H16X18406   7.372   5.653   5.292 -1.0055  0.5081 -1.3911
  153DOPC  H16Y18407   7.481   5.524   5.252 -1.0012 -2.1838 -0.7461
  153DOPC  C31718408   7.300   5.549   5.118  0.3654 -0.0418  0.5014
  153DOPC  H17X18409   7.193   5.578   5.124  1.0206  2.2668  1.9822
  153DOPC  H17Y18410   7.341   5.626   5.049  0.7722 -0.3489  0.3975
  153DOPC  C31818411   7.309   5.412   5.045 -0.0256  0.1993  0.2036
  153DOPC  H18X18412   7.252   5.420   4.951  0.9128 -0.5422 -0.4486
  153DOPC  H18Y18413   7.412   5.393   5.009  0.1070 -0.4203  0.8780
  153DOPC  H18Z18414   7.265   5.325   5.099  0.6434  0.0764  0.5568
  154DOPC     N18415   7.652   3.763   7.096 -0.1163 -0.3979  0.4241
  154DOPC   C1218416   7.654   3.623   7.035 -0.3647 -0.2316  0.3660
  154DOPC  H12A18417   7.551   3.589   7.027 -0.1911 -0.8229  0.6129
  154DOPC  H12B18418   7.694   3.549   7.102 -1.0385 -1.4945 -0.5879
  154DOPC   C1318419   7.573   3.768   7.223  0.2889 -0.7581 -0.7273
  154DOPC  H13A18420   7.473   3.728   7.216 -0.2629  0.7061 -1.7197
  154DOPC  H13B18421   7.622   3.713   7.302 -0.1080 -2.5466 -1.6588
  154DOPC  H13C18422   7.565   3.870   7.257  0.2002 -0.8047 -0.6034
  154DOPC   C1418423   7.583   3.860   7.004 -0.1197 -0.2040  0.7451
  154DOPC  H14A18424   7.478   3.838   6.993 -0.3281  1.0960 -0.1300
  154DOPC  H14B18425   7.573   3.960   7.045 -1.4379 -0.3695  0.8652
  154DOPC  H14C18426   7.625   3.875   6.906 -1.1764  2.9948  0.6583
  154DOPC   C1518427   7.794   3.801   7.124 -0.4142 -0.0671  0.1491
  154DOPC  H15A18428   7.808   3.903   7.159  0.6969 -0.3348  0.5294
  154DOPC  H15B18429   7.864   3.787   7.043  0.0733  0.0047  0.5550
  154DOPC  H15C18430   7.829   3.734   7.200  0.1180  0.4630  0.3821
  154DOPC   C1118431   7.722   3.612   6.891 -0.0825  0.1914  0.0241
  154DOPC  H11A18432   7.698   3.517   6.837  3.0241 -1.2690  0.9404
  154DOPC  H11B18433   7.679   3.686   6.821  0.2465 -2.2755 -3.0392
  154DOPC     P18434   7.957   3.484   6.918 -0.3594 -0.2679 -0.2360
  154DOPC   O1318435   7.907   3.428   7.049 -0.1669 -0.3466  0.3572
  154DOPC   O1418436   8.100   3.507   6.905  0.2769 -0.0744 -0.0445
  154DOPC   O1218437   7.869   3.618   6.886  0.1337  0.1676 -0.1156
  154DOPC   O1118438   7.915   3.385   6.810  0.5142 -0.7033  0.1512
  154DOPC    C118439   7.917   3.426   6.667 -0.4476 -0.6005  0.7886
  154DOPC    HA18440   8.013   3.406   6.614 -1.7131 -1.9824 -1.1485
  154DOPC    HB18441   7.903   3.536   6.655 -1.6469 -0.8094  0.0394
  154DOPC    C218442   7.797   3.365   6.591  0.1458 -0.5188 -0.5606
  154DOPC    HS18443   7.706   3.394   6.649  2.1062  1.5511  1.7257
  154DOPC   O2118444   7.815   3.226   6.588  0.5226  0.6356 -0.0480
  154DOPC   C2118445   7.704   3.157   6.536  0.0408 -0.3263 -0.0816
  154DOPC   O2218446   7.598   3.214   6.514  0.0576 -0.0669 -0.4524
  154DOPC   C2218447   7.720   3.011   6.505 -0.7744 -0.0506 -0.6400
  154DOPC   H2R18448   7.623   2.963   6.480 -1.0167  0.5144 -0.7907
  154DOPC   H2S18449   7.751   2.962   6.600 -1.9007  2.5809  1.2305
  154DOPC    C318450   7.784   3.432   6.451  0.5260  0.5894 -0.2106
  154DOPC    HX18451   7.797   3.542   6.459  0.2290  0.5083  1.6410
  154DOPC    HY18452   7.683   3.404   6.414  0.5076  1.3011 -0.7171
  154DOPC   O3118453   7.872   3.369   6.354 -0.4712 -0.8035  0.2102
  154DOPC   C3118454   7.968   3.446   6.306 -0.0381 -0.3912  0.1012
  154DOPC   O3218455   7.969   3.569   6.306  0.4432 -0.1633 -0.1253
  154DOPC   C3218456   8.094   3.370   6.260 -0.0387  0.4491 -0.0200
  154DOPC   H2X18457   8.182   3.428   6.296 -0.4763 -0.0929  2.0334
  154DOPC   H2Y18458   8.100   3.270   6.309 -1.8892 -0.4787 -1.5423
  154DOPC   C2318459   7.834   2.982   6.403  0.1167  0.1155  0.5059
  154DOPC   H3R18460   7.856   2.873   6.401 -2.9346 -0.6092  0.5977
  154DOPC   H3S18461   7.929   3.031   6.433  0.1310  0.6420 -0.3669
  154DOPC   C2418462   7.802   3.031   6.260  0.8909 -0.2371  0.5384
  154DOPC   H4R18463   7.890   3.019   6.195  0.2833  1.3980 -0.6307
  154DOPC   H4S18464   7.773   3.138   6.262  0.7451 -0.1767 -1.8753
  154DOPC   C2518465   7.688   2.944   6.199 -0.1668  0.4062  0.7068
  154DOPC   H5R18466   7.596   2.969   6.257  1.0066  2.8213  1.6758
  154DOPC   H5S18467   7.707   2.837   6.223 -2.9931 -0.2777  0.2299
  154DOPC   C2618468   7.676   2.967   6.048  0.8226  0.0624 -0.0713
  154DOPC   H6R18469   7.648   3.071   6.023  2.3490  0.5088  0.0488
  154DOPC   H6S18470   7.594   2.905   6.005  0.7701  0.2250 -0.2079
  154DOPC   C2718471   7.796   2.918   5.974 -0.1684 -0.0215  0.3571
  154DOPC   H7R18472   7.829   2.824   6.024  0.7343  1.9589  3.8049
  154DOPC   H7S18473   7.884   2.985   5.969 -0.1547 -0.0987 -1.0436
  154DOPC   C2818474   7.750   2.894   5.826 -0.7520 -0.8215  0.0533
  154DOPC   H8R18475   7.642   2.870   5.818 -1.2442  1.1077  0.4011
  154DOPC   H8S18476   7.819   2.814   5.792  0.4397  0.4897 -0.7690
  154DOPC   C2918477   7.765   3.004   5.724 -0.4615 -0.0834  0.7511
  154DOPC   H9R18478   7.754   3.105   5.765  1.2689  0.3596  0.1861
  154DOPC  C21018479   7.805   3.001   5.596  0.5529  0.0578 -0.8470
  154DOPC  H10R18480   7.830   3.097   5.548  0.9578  1.0329  1.2184
  154DOPC  C21118481   7.849   2.865   5.537  0.2900  0.7244  0.6640
  154DOPC  H11R18482   7.761   2.796   5.537 -0.3146  1.4612  1.8649
  154DOPC  H11S18483   7.928   2.823   5.603  0.7518  1.7280  0.7725
  154DOPC  C21218484   7.894   2.882   5.391  0.0131 -0.5854 -0.6652
  154DOPC  H12R18485   8.002   2.909   5.398  0.1131 -1.3039  1.6255
  154DOPC  H12S18486   7.843   2.967   5.342 -0.1914 -0.1194  0.3326
  154DOPC  C21318487   7.886   2.758   5.295 -0.5937 -0.5564  0.4818
  154DOPC  H13R18488   7.928   2.675   5.356  0.0489 -0.5945 -0.0024
  154DOPC  H13S18489   7.944   2.785   5.205 -0.5921 -2.3083 -0.0794
  154DOPC  C21418490   7.742   2.732   5.242 -0.5970  0.2835 -0.3282
  154DOPC  H14R18491   7.700   2.825   5.199  4.3722  2.1331 -1.8816
  154DOPC  H14S18492   7.677   2.712   5.330 -0.7670  0.3058 -0.4485
  154DOPC  C21518493   7.726   2.625   5.140 -0.0520  0.4329 -0.2838
  154DOPC  H15R18494   7.772   2.663   5.047 -1.9044  2.4103 -0.4644
  154DOPC  H15S18495   7.617   2.625   5.117  0.2985  3.9888 -2.6581
  154DOPC  C21618496   7.758   2.483   5.185  0.0661  0.1681 -0.4053
  154DOPC  H16R18497   7.705   2.452   5.278  1.9245 -0.1219  0.5984
  154DOPC  H16S18498   7.864   2.482   5.217 -0.1896  2.6718  0.8044
  154DOPC  C21718499   7.723   2.371   5.083  0.3177 -0.2280 -0.1154
  154DOPC  H17R18500   7.614   2.348   5.084 -0.0432  1.2670 -1.0386
  154DOPC  H17S18501   7.782   2.285   5.121  0.6279 -0.4518 -1.0865
  154DOPC  C21818502   7.767   2.404   4.943  0.3048 -0.1583 -0.5299
  154DOPC  H18R18503   7.700   2.481   4.899  0.9474  0.6388 -0.1458
  154DOPC  H18S18504   7.786   2.320   4.874  0.3641 -0.9405  0.4100
  154DOPC  H18T18505   7.868   2.449   4.955 -0.3362  1.4222 -0.8334
  154DOPC   C3318506   8.108   3.367   6.103 -0.4528 -0.0830 -0.1477
  154DOPC   H3X18507   8.208   3.329   6.072 -0.7264 -0.2236 -0.8759
  154DOPC   H3Y18508   8.095   3.466   6.055  0.6681  0.3988  0.4990
  154DOPC   C3418509   8.003   3.277   6.052 -0.2973  0.1302  0.4388
  154DOPC   H4X18510   7.911   3.339   6.049  0.3942  1.2802  1.4632
  154DOPC   H4Y18511   7.999   3.192   6.123  0.5827 -1.5793 -1.4761
  154DOPC   C3518512   8.031   3.220   5.911  0.1731  1.0258 -0.6997
  154DOPC   H5X18513   7.948   3.151   5.887  0.7982  0.3064 -0.8209
  154DOPC   H5Y18514   8.130   3.169   5.914  0.4881  1.6606  0.3945
  154DOPC   C3618515   8.046   3.318   5.799 -0.2311  0.4298 -0.1184
  154DOPC   H6X18516   8.132   3.383   5.826 -0.8784  1.5193 -0.6198
  154DOPC   H6Y18517   8.072   3.260   5.708 -2.2681  2.4167 -2.0950
  154DOPC   C3718518   7.926   3.398   5.751  0.9854  0.1418 -0.6882
  154DOPC   H7X18519   7.849   3.323   5.723  0.7254  0.6089 -1.2299
  154DOPC   H7Y18520   7.893   3.463   5.835 -1.4585 -0.7419 -0.8714
  154DOPC   C3818521   7.964   3.490   5.634 -0.2805  0.0361 -0.1656
  154DOPC   H8X18522   8.029   3.434   5.563  1.1617 -0.0462  1.1579
  154DOPC   H8Y18523   8.034   3.566   5.675  1.2932 -1.1334 -0.5553
  154DOPC   C3918524   7.838   3.555   5.582 -1.0880  0.3497 -0.7682
  154DOPC   H9X18525   7.812   3.648   5.634  1.0298 -0.1216  1.2882
  154DOPC  C31018526   7.773   3.513   5.471  0.2398 -0.3626  0.1584
  154DOPC  H10X18527   7.683   3.565   5.435  0.9829  0.7951 -0.0801
  154DOPC  C31118528   7.826   3.410   5.376 -0.1023  0.0856 -0.2026
  154DOPC  H11X18529   7.766   3.316   5.381 -2.0144  1.2654  0.1701
  154DOPC  H11Y18530   7.934   3.386   5.389 -0.1208 -0.1224 -0.4183
  154DOPC  C31218531   7.819   3.456   5.232 -0.9381  0.3636 -0.7389
  154DOPC  H12X18532   7.902   3.529   5.221  0.3622 -0.7150  1.3467
  154DOPC  H12Y18533   7.726   3.508   5.200 -1.7315  0.2091  1.1566
  154DOPC  C31318534   7.855   3.337   5.135  0.4126 -0.3074 -0.3468
  154DOPC  H13X18535   7.927   3.272   5.189  2.2312  2.1955  0.4229
  154DOPC  H13Y18536   7.759   3.283   5.118  0.5539 -1.5400  2.2922
  154DOPC  C31418537   7.908   3.375   5.000  0.3359 -0.5205 -0.5749
  154DOPC  H14X18538   7.829   3.432   4.947  0.7746  1.6129  0.9281
  154DOPC  H14Y18539   8.002   3.434   5.013  0.3351 -0.5442 -0.4602
  154DOPC  C31518540   7.945   3.252   4.907 -0.2920  0.0329  0.4426
  154DOPC  H15X18541   8.029   3.198   4.955 -0.1704 -0.7542 -0.6095
  154DOPC  H15Y18542   7.992   3.290   4.814 -0.0240  1.3799  1.1007
  154DOPC  C31618543   7.832   3.147   4.890  0.2316 -0.3338 -0.2470
  154DOPC  H16X18544   7.817   3.095   4.987 -1.0409  0.2634 -0.1039
  154DOPC  H16Y18545   7.735   3.198   4.871  0.2509 -1.4999 -4.5066
  154DOPC  C31718546   7.864   3.044   4.777  0.2616 -0.3008 -0.5627
  154DOPC  H17X18547   7.860   3.083   4.673  2.8763  3.3782  0.5316
  154DOPC  H17Y18548   7.972   3.019   4.787  0.4430 -0.1845 -2.0617
  154DOPC  C31818549   7.784   2.920   4.787  0.0435  0.3330  0.1829
  154DOPC  H18X18550   7.828   2.837   4.728 -1.1865 -0.1500 -0.0961
  154DOPC  H18Y18551   7.774   2.877   4.889 -0.2307 -0.2320 -0.0765
  154DOPC  H18Z18552   7.684   2.933   4.740  0.3805 -0.9740 -0.9546
  155DOPC     N18553   2.587   1.136   7.435  0.5367 -0.6350 -0.3817
  155DOPC   C1218554   2.560   1.213   7.303 -0.5208  0.3855 -0.0637
  155DOPC  H12A18555   2.528   1.140   7.230  1.9936  0.5220 -1.3803
  155DOPC  H12B18556   2.656   1.240   7.262 -0.5674 -1.2171 -1.3429
  155DOPC   C1318557   2.465   1.088   7.503  0.2154 -0.3112  0.4012
  155DOPC  H13A18558   2.394   1.046   7.433  1.0274 -1.6283  0.3384
  155DOPC  H13B18559   2.497   1.035   7.592  3.5508  1.3801  0.3546
  155DOPC  H13C18560   2.417   1.174   7.547  3.3260  1.2395  1.0698
  155DOPC   C1418561   2.668   1.226   7.530 -0.0317  0.9324  0.0330
  155DOPC  H14A18562   2.718   1.177   7.613 -1.1915  1.8652  1.3390
  155DOPC  H14B18563   2.750   1.276   7.481 -0.2921  2.0888  0.7296
  155DOPC  H14C18564   2.602   1.299   7.575 -1.4354 -0.1765 -0.1501
  155DOPC   C1518565   2.668   1.011   7.403 -0.0046 -0.4002  0.2640
  155DOPC  H15A18566   2.775   1.020   7.409 -0.0323 -0.5282  0.9995
  155DOPC  H15B18567   2.647   0.955   7.313  0.0778 -0.3279  0.1985
  155DOPC  H15C18568   2.643   0.944   7.484  1.0099 -0.9662  0.1221
  155DOPC   C1118569   2.456   1.326   7.295 -0.6428 -1.2415  0.6883
  155DOPC  H11A18570   2.469   1.412   7.363  0.1919  1.0810 -2.2195
  155DOPC  H11B18571   2.466   1.381   7.199  0.4031  0.5525  1.7859
  155DOPC     P18572   2.232   1.222   7.192  0.1825  0.1211 -0.1703
  155DOPC   O1318573   2.141   1.324   7.139 -0.2681 -0.2862  0.6575
  155DOPC   O1418574   2.161   1.111   7.253 -0.5323  0.2083 -0.2939
  155DOPC   O1218575   2.321   1.288   7.306  0.3405  0.7231 -0.2922
  155DOPC   O1118576   2.337   1.180   7.087 -0.2894  0.6276  0.3358
  155DOPC    C118577   2.347   1.239   6.954  0.1097  0.6552 -1.1055
  155DOPC    HA18578   2.447   1.207   6.918  0.0259  1.1148 -1.7680
  155DOPC    HB18579   2.321   1.347   6.954 -0.9383  0.4419  0.3771
  155DOPC    C218580   2.242   1.162   6.863  0.3465  0.0842  0.0922
  155DOPC    HS18581   2.142   1.189   6.903 -0.6389 -0.7943 -1.6699
  155DOPC   O2118582   2.273   1.018   6.886 -0.1093 -0.1255 -0.0746
  155DOPC   C2118583   2.164   0.940   6.895  0.7148  0.2733 -0.3409
  155DOPC   O2218584   2.051   0.982   6.878  0.4346 -0.0775  0.0399
  155DOPC   C2218585   2.195   0.798   6.923  0.2749  0.2288 -0.7234
  155DOPC   H2R18586   2.099   0.743   6.921  0.4353 -0.2046  1.3130
  155DOPC   H2S18587   2.231   0.798   7.028  0.3071  0.5324 -0.7333
  155DOPC    C318588   2.262   1.197   6.714  0.6544  0.1591 -0.5667
  155DOPC    HX18589   2.359   1.154   6.679  0.6765  1.5934 -2.4750
  155DOPC    HY18590   2.280   1.307   6.716 -0.5804  0.3489  1.5222
  155DOPC   O3118591   2.149   1.157   6.626 -0.3055 -0.1218 -0.3196
  155DOPC   C3118592   2.050   1.243   6.637 -0.3930  0.3632  0.6875
  155DOPC   O3218593   2.022   1.331   6.717 -0.4009  0.0028 -0.2030
  155DOPC   C3218594   1.966   1.231   6.502  0.4545  0.4414  0.0370
  155DOPC   H2X18595   2.041   1.243   6.421 -0.1150 -0.3077 -0.6134
  155DOPC   H2Y18596   1.921   1.131   6.486  0.5028  0.7158 -1.9618
  155DOPC   C2318597   2.300   0.731   6.826  0.0221  0.2612 -0.0896
  155DOPC   H3R18598   2.337   0.633   6.863  1.7406 -0.1425 -2.5993
  155DOPC   H3S18599   2.395   0.788   6.821  0.9650 -1.2744 -0.2874
  155DOPC   C2418600   2.249   0.730   6.689 -0.6362  0.1480  0.1268
  155DOPC   H4R18601   2.219   0.834   6.663  0.8964  0.3908 -0.7795
  155DOPC   H4S18602   2.154   0.674   6.675 -1.8081  2.0800  0.0093
  155DOPC   C2518603   2.351   0.689   6.582  0.4683  0.1664  0.4130
  155DOPC   H5R18604   2.393   0.590   6.610  1.4112 -0.1400 -1.8650
  155DOPC   H5S18605   2.423   0.773   6.573 -0.4364  0.7172 -3.6666
  155DOPC   C2618606   2.288   0.682   6.443 -0.2416 -0.6354 -0.6345
  155DOPC   H6R18607   2.223   0.595   6.423 -0.1627 -0.4445 -1.7733
  155DOPC   H6S18608   2.378   0.673   6.378 -1.8051  1.2075 -3.2243
  155DOPC   C2718609   2.222   0.817   6.393 -0.2270 -0.1283 -0.0835
  155DOPC   H7R18610   2.272   0.903   6.442 -0.4200  0.0852 -0.2603
  155DOPC   H7S18611   2.118   0.837   6.428  0.0428  1.2509 -0.0154
  155DOPC   C2818612   2.225   0.827   6.240  0.1576  0.1656 -0.2275
  155DOPC   H8R18613   2.168   0.740   6.203  1.8412 -1.9706  1.8589
  155DOPC   H8S18614   2.329   0.823   6.201  0.3642 -0.7725  0.3856
  155DOPC   C2918615   2.157   0.949   6.189 -0.3011 -0.0998  0.2129
  155DOPC   H9R18616   2.188   1.044   6.235 -0.2723 -0.0877  0.1679
  155DOPC  C21018617   2.070   0.955   6.087 -1.1865 -0.3550  0.3278
  155DOPC  H10R18618   2.041   1.058   6.059  1.6105  0.3235 -0.4492
  155DOPC  C21118619   2.032   0.842   5.992  0.5686  0.0323  0.1427
  155DOPC  H11R18620   1.921   0.835   5.988  0.5812 -0.0917  0.0186
  155DOPC  H11S18621   2.076   0.750   6.035  2.2704  0.8434  0.1999
  155DOPC  C21218622   2.093   0.865   5.854  0.1549 -0.5515 -0.2708
  155DOPC  H12R18623   2.195   0.822   5.858 -0.1427 -1.2996 -0.3950
  155DOPC  H12S18624   2.090   0.971   5.823  0.5371 -0.2936  0.5572
  155DOPC  C21318625   2.026   0.780   5.742 -0.4805  0.6776 -0.0917
  155DOPC  H13R18626   2.029   0.676   5.783  0.8957  0.9498  0.5513
  155DOPC  H13S18627   2.087   0.775   5.650  1.4372  0.9261  1.1110
  155DOPC  C21418628   1.883   0.810   5.703  0.2375 -0.3053  0.1016
  155DOPC  H14R18629   1.858   0.913   5.667 -2.8429 -0.1694  2.1927
  155DOPC  H14S18630   1.832   0.794   5.801 -0.1938 -0.0692 -0.0822
  155DOPC  C21518631   1.829   0.710   5.593 -0.0642 -0.3914 -0.3885
  155DOPC  H15R18632   1.850   0.602   5.610  1.7017 -0.1753 -1.0360
  155DOPC  H15S18633   1.881   0.738   5.499  1.3046  2.1129  0.9986
  155DOPC  C21618634   1.677   0.737   5.568 -0.7943 -0.3096  0.3687
  155DOPC  H16R18635   1.668   0.845   5.546  3.0103  0.5158  2.0782
  155DOPC  H16S18636   1.618   0.717   5.660  0.9462  1.7290  2.0304
  155DOPC  C21718637   1.616   0.661   5.455  0.0126  0.4713  0.5079
  155DOPC  H17R18638   1.580   0.563   5.491 -0.1819  0.9362  1.6042
  155DOPC  H17S18639   1.696   0.640   5.381 -0.7435  0.3562 -0.3002
  155DOPC  C21818640   1.498   0.733   5.382 -0.3293 -0.4799  0.3128
  155DOPC  H18R18641   1.536   0.817   5.320  1.0086 -0.9264  0.5031
  155DOPC  H18S18642   1.425   0.765   5.460  0.7562 -0.9108  1.5356
  155DOPC  H18T18643   1.444   0.662   5.315  1.6545 -1.5577 -0.2023
  155DOPC   C3318644   1.850   1.333   6.507 -0.9592 -0.4724 -0.5716
  155DOPC   H3X18645   1.884   1.438   6.493  0.0104 -0.7211 -0.1369
  155DOPC   H3Y18646   1.801   1.321   6.606 -0.5738 -0.3029 -0.3557
  155DOPC   C3418647   1.741   1.308   6.399 -0.0538  0.1283  0.3775
  155DOPC   H4X18648   1.647   1.364   6.421  0.5820  2.4518 -2.1506
  155DOPC   H4Y18649   1.715   1.201   6.390  0.6863 -0.0687  0.5591
  155DOPC   C3518650   1.790   1.351   6.252  0.0998 -0.7444  0.1094
  155DOPC   H5X18651   1.740   1.284   6.178 -1.5897  0.5024  0.0529
  155DOPC   H5Y18652   1.900   1.342   6.242  0.5409  2.7378  0.5023
  155DOPC   C3618653   1.756   1.494   6.219 -0.3100  0.0840 -0.2924
  155DOPC   H6X18654   1.650   1.508   6.188 -0.0399  3.8087  0.0774
  155DOPC   H6Y18655   1.776   1.567   6.300  1.7712 -1.3321  0.5451
  155DOPC   C3718656   1.841   1.546   6.098  0.5682 -0.5463 -0.4217
  155DOPC   H7X18657   1.945   1.536   6.136 -0.2187 -0.3570  1.9458
  155DOPC   H7Y18658   1.834   1.479   6.010  2.0231 -0.1702 -0.8521
  155DOPC   C3818659   1.821   1.688   6.047  0.7572  0.2625 -0.1504
  155DOPC   H8X18660   1.718   1.698   6.007  0.7168  1.1922  0.1662
  155DOPC   H8Y18661   1.890   1.709   5.962  1.3122 -1.5496 -0.1986
  155DOPC   C3918662   1.853   1.786   6.157 -0.0638 -0.3307  0.4532
  155DOPC   H9X18663   1.957   1.783   6.194 -0.3168  3.7399  2.0220
  155DOPC  C31018664   1.776   1.889   6.203 -0.5022  0.0973  0.4019
  155DOPC  H10X18665   1.819   1.959   6.276 -1.1160  1.9973 -0.9982
  155DOPC  C31118666   1.628   1.913   6.173  0.2753  0.1161  0.5558
  155DOPC  H11X18667   1.611   1.906   6.063  0.9228  0.9876  0.3843
  155DOPC  H11Y18668   1.595   2.011   6.214  1.0031 -0.2924  2.1908
  155DOPC  C31218669   1.532   1.810   6.231 -0.2987 -0.1140 -0.0478
  155DOPC  H12X18670   1.547   1.813   6.341 -0.7955 -0.9693  0.0483
  155DOPC  H12Y18671   1.564   1.710   6.192  1.2348 -0.7102  2.4923
  155DOPC  C31318672   1.382   1.827   6.198 -0.5893 -0.0045 -0.1284
  155DOPC  H13X18673   1.355   1.932   6.222  1.3221  0.7597 -1.1331
  155DOPC  H13Y18674   1.376   1.812   6.088  2.8829  0.3019 -0.4577
  155DOPC  C31418675   1.285   1.739   6.278 -0.4143  0.2842 -0.3484
  155DOPC  H14X18676   1.303   1.757   6.386 -1.4258 -0.1015 -0.1073
  155DOPC  H14Y18677   1.184   1.774   6.249 -0.4728  0.2577 -0.1757
  155DOPC  C31518678   1.301   1.596   6.233  0.2616  1.6904  0.1448
  155DOPC  H15X18679   1.405   1.559   6.243  0.2569  0.6927 -2.7683
  155DOPC  H15Y18680   1.282   1.578   6.125  0.9840 -0.4876  0.3367
  155DOPC  C31618681   1.215   1.511   6.328  0.1522  0.3183  0.1311
  155DOPC  H16X18682   1.245   1.529   6.433 -1.0454  1.6989  0.2710
  155DOPC  H16Y18683   1.109   1.543   6.319  0.6000  1.8146 -0.1909
  155DOPC  C31718684   1.234   1.357   6.307  0.5196 -0.1819  0.1043
  155DOPC  H17X18685   1.206   1.336   6.202  0.8269  0.2578 -0.0691
  155DOPC  H17Y18686   1.337   1.324   6.331  0.0927  0.5089  3.3040
  155DOPC  C31818687   1.142   1.277   6.401 -0.0948  0.4826 -0.3657
  155DOPC  H18X18688   1.175   1.171   6.408  0.5080  0.7569  4.1679
  155DOPC  H18Y18689   1.156   1.312   6.505 -2.4427 -0.0954  0.2200
  155DOPC  H18Z18690   1.032   1.285   6.385 -0.5519 -0.6910  1.7267
  156DOPC     N18691   7.141   4.981   7.062 -0.0035 -0.3582  0.1559
  156DOPC   C1218692   7.280   4.916   7.057 -0.4081  0.0462  0.3092
  156DOPC  H12A18693   7.263   4.811   7.036 -0.0508  0.1267 -0.3797
  156DOPC  H12B18694   7.321   4.920   7.157 -1.6171 -0.8327  0.8783
  156DOPC   C1318695   7.156   5.118   7.114  0.2958 -1.2783 -0.4479
  156DOPC  H13A18696   7.165   5.110   7.222  0.6046 -2.7257 -0.5625
  156DOPC  H13B18697   7.241   5.170   7.075 -0.9432  0.9178 -0.3948
  156DOPC  H13C18698   7.068   5.179   7.098  1.7267  0.3183 -2.6641
  156DOPC   C1418699   7.053   4.912   7.163  0.2390 -0.3434 -0.7452
  156DOPC  H14A18700   6.953   4.953   7.174  0.1780 -0.8488  0.9253
  156DOPC  H14B18701   7.042   4.806   7.142 -2.1593 -0.7585  1.9111
  156DOPC  H14C18702   7.115   4.913   7.252  0.8396  1.1516 -1.1618
  156DOPC   C1518703   7.080   4.979   6.923  0.0357  0.8682  0.2382
  156DOPC  H15A18704   6.981   5.023   6.918 -2.6751 -4.4302  0.1805
  156DOPC  H15B18705   7.072   4.879   6.882 -0.3464  0.7224  0.6488
  156DOPC  H15C18706   7.148   5.032   6.859  3.7529  1.1311  4.0096
  156DOPC   C1118707   7.381   4.974   6.954 -0.6243 -0.0629  0.4779
  156DOPC  H11A18708   7.468   4.906   6.958  0.5315  1.4183  2.0426
  156DOPC  H11B18709   7.327   4.968   6.857  2.2118 -0.2491 -1.1687
  156DOPC     P18710   7.516   5.187   6.893 -0.1721 -0.3982  0.2040
  156DOPC   O1318711   7.622   5.100   6.834 -0.1046  0.0050  0.4463
  156DOPC   O1418712   7.558   5.314   6.952 -0.0591 -0.2601 -0.4742
  156DOPC   O1218713   7.425   5.106   6.991 -0.0399  0.4670  0.3444
  156DOPC   O1118714   7.424   5.215   6.767  0.0567 -0.2895  0.7461
  156DOPC    C118715   7.298   5.283   6.789  0.8831  0.0874 -0.4293
  156DOPC    HA18716   7.307   5.367   6.860 -1.9452 -0.7753  1.1191
  156DOPC    HB18717   7.209   5.220   6.812 -0.7558  1.6035 -2.2360
  156DOPC    C218718   7.266   5.366   6.663 -0.0424  0.3476 -0.3586
  156DOPC    HS18719   7.165   5.411   6.677  0.2893  0.3654  2.5005
  156DOPC   O2118720   7.285   5.292   6.545  0.3671  0.7181  0.5833
  156DOPC   C2118721   7.181   5.218   6.505  0.4141 -0.1169  0.7855
  156DOPC   O2218722   7.069   5.222   6.555  0.1067 -0.1568  0.3640
  156DOPC   C2218723   7.223   5.146   6.377 -0.1488  0.2333 -0.5665
  156DOPC   H2R18724   7.135   5.082   6.352  0.5684 -0.7370 -0.6502
  156DOPC   H2S18725   7.303   5.077   6.411  0.4821  2.0118  1.8826
  156DOPC    C318726   7.363   5.488   6.660 -0.4768  0.0401  0.1708
  156DOPC    HX18727   7.460   5.435   6.655 -0.4386  0.0329  0.9523
  156DOPC    HY18728   7.377   5.539   6.757  0.2361 -2.3407  1.4120
  156DOPC   O3118729   7.343   5.567   6.542  0.1949 -0.1964  0.2003
  156DOPC   C3118730   7.242   5.659   6.525 -0.0969 -0.0210 -0.0408
  156DOPC   O3218731   7.163   5.694   6.612 -0.0689  0.5581  0.1157
  156DOPC   C3218732   7.252   5.734   6.387  0.8905  0.4899  0.3714
  156DOPC   H2X18733   7.264   5.843   6.404  2.7204  0.5970 -1.2780
  156DOPC   H2Y18734   7.335   5.691   6.328 -0.3357 -0.9598 -0.3806
  156DOPC   C2318735   7.256   5.237   6.263  0.9275  0.5254  0.1608
  156DOPC   H3R18736   7.316   5.322   6.305 -2.8492  2.9395  1.1882
  156DOPC   H3S18737   7.165   5.289   6.226  1.0135 -0.7426 -1.9632
  156DOPC   C2418738   7.324   5.163   6.144  0.1350  0.1514 -0.4420
  156DOPC   H4R18739   7.250   5.090   6.106  0.1863  0.8007 -1.8332
  156DOPC   H4S18740   7.409   5.103   6.184 -0.9193  0.1757  2.0774
  156DOPC   C2518741   7.366   5.251   6.036  0.0674 -0.6311 -0.0241
  156DOPC   H5R18742   7.292   5.331   6.012  0.1308 -0.4163  0.4830
  156DOPC   H5S18743   7.367   5.206   5.935 -0.7021  0.5556 -0.5789
  156DOPC   C2618744   7.493   5.328   6.070 -0.1732 -0.1653 -0.0473
  156DOPC   H6R18745   7.518   5.356   6.174  3.5461 -1.5024 -0.4116
  156DOPC   H6S18746   7.496   5.419   6.005  2.3094  0.5108  0.8923
  156DOPC   C2718747   7.616   5.242   6.017  0.6159  0.0225  0.1149
  156DOPC   H7R18748   7.623   5.254   5.907 -0.1810  0.8615  0.1368
  156DOPC   H7S18749   7.600   5.138   6.053 -0.2451  0.7442  1.9948
  156DOPC   C2818750   7.757   5.305   6.062 -0.1752  0.0346  0.2621
  156DOPC   H8R18751   7.763   5.338   6.168  0.2498 -0.9403  0.5517
  156DOPC   H8S18752   7.772   5.390   5.992 -3.3448  1.2833  0.9449
  156DOPC   C2918753   7.879   5.207   6.038 -0.2623  0.5305  0.3063
  156DOPC   H9R18754   7.888   5.123   6.109  2.2855 -1.3212 -2.0149
  156DOPC  C21018755   7.974   5.212   5.948 -0.1871  0.3157  0.3912
  156DOPC  H10R18756   8.051   5.133   5.951 -1.5153 -1.0326  2.9061
  156DOPC  C21118757   7.995   5.308   5.837  1.0950  0.7682  0.0235
  156DOPC  H11R18758   7.900   5.355   5.804  1.3489 -0.6957 -3.0403
  156DOPC  H11S18759   8.021   5.256   5.743 -2.4872 -1.2632  0.0102
  156DOPC  C21218760   8.092   5.426   5.878  0.0031  0.4271 -0.0658
  156DOPC  H12R18761   8.056   5.483   5.966 -0.6727  1.4571 -0.9785
  156DOPC  H12S18762   8.090   5.496   5.791 -0.9910  2.1212  1.2569
  156DOPC  C21318763   8.234   5.392   5.918 -0.4219 -0.4284 -0.2356
  156DOPC  H13R18764   8.231   5.349   6.020  0.9677  0.3172  0.1495
  156DOPC  H13S18765   8.293   5.485   5.934 -1.6674  0.4614 -0.6827
  156DOPC  C21418766   8.319   5.307   5.833 -0.0428 -0.4528  0.2240
  156DOPC  H14R18767   8.275   5.206   5.822  0.8465 -0.9138  0.7892
  156DOPC  H14S18768   8.411   5.284   5.891  0.0883 -1.9577 -0.5359
  156DOPC  C21518769   8.354   5.366   5.694 -0.0076 -0.0782  0.3169
  156DOPC  H15R18770   8.428   5.448   5.701 -0.5594  0.4394  0.2277
  156DOPC  H15S18771   8.263   5.406   5.644  0.8423  1.0237 -0.3759
  156DOPC  C21618772   8.415   5.252   5.613 -0.5494  0.2495  0.1628
  156DOPC  H16R18773   8.347   5.171   5.580  0.7743  0.0642 -2.3894
  156DOPC  H16S18774   8.490   5.200   5.677 -1.3684 -1.6372 -0.3508
  156DOPC  C21718775   8.474   5.312   5.483 -0.4487 -0.1645  0.2455
  156DOPC  H17R18776   8.547   5.394   5.501 -0.6422  0.4289 -1.5388
  156DOPC  H17S18777   8.385   5.347   5.427 -0.2559 -0.9928 -0.6097
  156DOPC  C21818778   8.550   5.201   5.402  0.3280  0.3076 -0.1103
  156DOPC  H18R18779   8.635   5.147   5.449  0.4531 -0.7641 -1.4729
  156DOPC  H18S18780   8.595   5.236   5.306  1.2624 -2.0382 -0.6150
  156DOPC  H18T18781   8.477   5.120   5.377  1.5139 -0.7261 -0.3400
  156DOPC   C3318782   7.125   5.710   6.305  0.4596 -0.2418  1.0022
  156DOPC   H3X18783   7.050   5.790   6.324  1.2520  1.3973 -2.0487
  156DOPC   H3Y18784   7.089   5.607   6.323  0.1422 -0.2345  0.4319
  156DOPC   C3418785   7.141   5.730   6.152  0.0245 -0.0331 -0.4290
  156DOPC   H4X18786   7.043   5.736   6.100 -1.1537 -3.0091  1.1967
  156DOPC   H4Y18787   7.203   5.648   6.111  0.4963  0.0015  0.1880
  156DOPC   C3518788   7.209   5.864   6.108  0.5928  0.1143 -0.5949
  156DOPC   H5X18789   7.303   5.874   6.166 -1.0217  0.2376  2.2051
  156DOPC   H5Y18790   7.143   5.943   6.149 -0.5471 -2.1862  2.4326
  156DOPC   C3618791   7.215   5.900   5.963  0.6307 -0.2112  0.3693
  156DOPC   H6X18792   7.253   5.811   5.909  0.8607 -0.5115  1.0097
  156DOPC   H6Y18793   7.109   5.913   5.932  0.2963 -0.5530  1.3184
  156DOPC   C3718794   7.300   6.022   5.932 -0.4918  0.6187 -0.1523
  156DOPC   H7X18795   7.273   6.100   6.007  1.2538  0.7877  0.3479
  156DOPC   H7Y18796   7.404   5.997   5.961 -0.6392 -0.8317 -0.7867
  156DOPC   C3818797   7.286   6.074   5.781 -0.0799 -0.4383  0.0111
  156DOPC   H8X18798   7.336   6.173   5.787  0.4480 -0.7971  2.6375
  156DOPC   H8Y18799   7.179   6.099   5.767 -0.3198 -1.6307 -0.3775
  156DOPC   C3918800   7.328   5.975   5.674 -0.1384 -0.1897 -0.2344
  156DOPC   H9X18801   7.266   5.885   5.686 -1.9040  1.1463  1.2226
  156DOPC  C31018802   7.431   5.980   5.588  0.3135  0.1214  0.5905
  156DOPC  H10X18803   7.452   5.900   5.515  2.4080  1.9988 -1.0237
  156DOPC  C31118804   7.528   6.100   5.578  0.1666  0.8587 -0.3262
  156DOPC  H11X18805   7.481   6.199   5.597 -0.0150  1.3138 -2.8001
  156DOPC  H11Y18806   7.560   6.102   5.471  1.2344 -1.0228 -0.0965
  156DOPC  C31218807   7.653   6.078   5.659  0.6320 -0.1037 -0.0198
  156DOPC  H12X18808   7.689   5.976   5.632  1.6306  0.3194 -0.3024
  156DOPC  H12Y18809   7.619   6.070   5.764  0.0118 -1.1666 -0.2854
  156DOPC  C31318810   7.757   6.184   5.640  0.6146  0.3258  1.4331
  156DOPC  H13X18811   7.779   6.188   5.531 -2.7921  0.6724  0.6567
  156DOPC  H13Y18812   7.710   6.275   5.682 -0.8871 -0.1766  0.9081
  156DOPC  C31418813   7.884   6.140   5.714 -0.2646 -0.7248  0.2084
  156DOPC  H14X18814   7.950   6.229   5.702 -1.2838  0.0770  0.4535
  156DOPC  H14Y18815   7.855   6.130   5.821 -0.1386  2.6100  0.6613
  156DOPC  C31518816   7.961   6.018   5.650 -0.6421 -0.1648 -0.2713
  156DOPC  H15X18817   7.995   6.016   5.544  1.8317  1.9662  0.3723
  156DOPC  H15Y18818   7.902   5.928   5.677 -0.0473 -0.7860 -0.9915
  156DOPC  C31618819   8.100   6.018   5.727 -0.1472 -0.5832 -0.1007
  156DOPC  H16X18820   8.145   6.112   5.689 -0.1122 -1.2372 -1.7392
  156DOPC  H16Y18821   8.087   6.027   5.837 -3.7398 -0.5063 -0.4033
  156DOPC  C31718822   8.188   5.904   5.686 -0.1705 -0.5079 -0.5257
  156DOPC  H17X18823   8.181   5.888   5.576  2.6608  0.7794 -0.9861
  156DOPC  H17Y18824   8.292   5.935   5.711 -0.3377  0.2015 -0.6797
  156DOPC  C31818825   8.141   5.779   5.757  0.1767  0.2561 -0.0219
  156DOPC  H18X18826   8.168   5.778   5.864 -2.5681 -0.6085  0.7506
  156DOPC  H18Y18827   8.034   5.759   5.733  0.3142  1.7008 -2.1353
  156DOPC  H18Z18828   8.193   5.687   5.723 -0.7101  0.4105 -1.9339
  157DOPC     N18829   6.179   0.607   7.203 -0.4364 -0.5086  0.6621
  157DOPC   C1218830   6.072   0.667   7.117 -0.8565  0.1313 -0.7141
  157DOPC  H12A18831   5.989   0.597   7.116 -1.7873  1.2067 -0.4102
  157DOPC  H12B18832   6.104   0.672   7.014 -1.4694  0.8833 -0.8741
  157DOPC   C1318833   6.201   0.464   7.159 -0.3578  0.3574 -0.0793
  157DOPC  H13A18834   6.239   0.456   7.058  0.0550  0.0819  0.0980
  157DOPC  H13B18835   6.260   0.417   7.235 -1.4092 -0.1324  0.4536
  157DOPC  H13C18836   6.111   0.408   7.179 -1.1021  1.8475  0.9169
  157DOPC   C1418837   6.136   0.610   7.349 -0.2548  0.6921 -0.4131
  157DOPC  H14A18838   6.044   0.554   7.359  0.2411  0.0564  0.7176
  157DOPC  H14B18839   6.216   0.571   7.409 -0.2130  0.9529 -0.2989
  157DOPC  H14C18840   6.113   0.711   7.378 -2.9757 -0.2798  1.1493
  157DOPC   C1518841   6.301   0.688   7.203  0.2873 -0.3920  0.7552
  157DOPC  H15A18842   6.264   0.788   7.220 -2.8695 -1.2682 -0.3345
  157DOPC  H15B18843   6.360   0.683   7.113  2.2365 -2.2091  2.0164
  157DOPC  H15C18844   6.362   0.665   7.289 -0.6517 -0.7885  1.3268
  157DOPC   C1118845   6.020   0.808   7.158 -0.5387 -0.0802 -0.9813
  157DOPC  H11A18846   5.923   0.838   7.112 -1.6166  0.2702  1.3710
  157DOPC  H11B18847   6.003   0.804   7.268  1.7840 -0.9502 -0.6034
  157DOPC     P18848   6.143   0.959   6.979 -0.0987 -0.0492 -0.5094
  157DOPC   O1318849   6.256   1.052   6.984  0.3196 -0.1737  0.3756
  157DOPC   O1418850   6.019   1.013   6.919 -0.5888 -0.4694  0.0845
  157DOPC   O1218851   6.118   0.907   7.122 -0.8420  0.4374  0.1269
  157DOPC   O1118852   6.188   0.834   6.903  0.0852  0.1178 -0.7874
  157DOPC    C118853   6.306   0.829   6.823  0.2958 -0.1841 -0.0683
  157DOPC    HA18854   6.329   0.721   6.808 -1.6606 -0.5907 -0.4400
  157DOPC    HB18855   6.390   0.881   6.874 -0.1584 -1.1046  1.6875
  157DOPC    C218856   6.287   0.892   6.678  0.1759  0.1241 -0.5611
  157DOPC    HS18857   6.256   0.997   6.699 -0.8384 -0.0928 -0.9466
  157DOPC   O2118858   6.179   0.830   6.613  0.1757 -0.0161  0.1907
  157DOPC   C2118859   6.123   0.897   6.510  0.1969  0.0187  0.3219
  157DOPC   O2218860   6.127   1.017   6.481  0.0545 -0.0313 -0.4363
  157DOPC   C2218861   6.047   0.798   6.425  0.1520 -0.0233 -0.0476
  157DOPC   H2R18862   5.964   0.840   6.364 -0.2831 -1.0570 -0.1973
  157DOPC   H2S18863   6.009   0.726   6.501  1.1728  1.1075  1.5828
  157DOPC    C318864   6.415   0.887   6.590  0.0640  0.2448  0.3853
  157DOPC    HX18865   6.423   0.780   6.561 -0.0932  1.0198 -2.8359
  157DOPC    HY18866   6.509   0.913   6.645  1.1896  1.2654 -1.8922
  157DOPC   O3118867   6.417   0.966   6.467  0.1207 -1.3481 -0.5085
  157DOPC   C3118868   6.417   1.100   6.486  0.3765  0.3810 -0.7756
  157DOPC   O3218869   6.423   1.154   6.596  0.2058 -0.0460 -0.2433
  157DOPC   C3218870   6.406   1.168   6.353  0.1866 -0.0105  0.4281
  157DOPC   H2X18871   6.309   1.134   6.310 -0.5146  2.9711 -0.5802
  157DOPC   H2Y18872   6.395   1.278   6.358 -2.9283 -0.2465  1.0260
  157DOPC   C2318873   6.139   0.709   6.338  0.5756  0.6569  0.3406
  157DOPC   H3R18874   6.083   0.615   6.322 -0.7631  1.2816  1.2079
  157DOPC   H3S18875   6.227   0.683   6.401 -0.1078 -2.3170  0.1910
  157DOPC   C2418876   6.194   0.779   6.211 -0.0260 -1.0999  0.3379
  157DOPC   H4R18877   6.269   0.850   6.253 -0.5549 -1.5811  2.2312
  157DOPC   H4S18878   6.115   0.829   6.151  0.4334 -2.2553 -1.3031
  157DOPC   C2518879   6.281   0.701   6.110  0.5348 -0.0624  0.1971
  157DOPC   H5R18880   6.341   0.621   6.157 -0.2082 -1.1707 -0.7014
  157DOPC   H5S18881   6.352   0.775   6.069 -1.9212  2.9599  0.9764
  157DOPC   C2618882   6.190   0.650   5.997  0.3517  0.2851  0.6687
  157DOPC   H6R18883   6.098   0.710   5.979  0.8946  1.6638  2.2849
  157DOPC   H6S18884   6.157   0.552   6.038  1.8143 -0.8717 -0.7840
  157DOPC   C2718885   6.273   0.639   5.858 -1.1456 -0.1386 -0.1893
  157DOPC   H7R18886   6.219   0.578   5.783  0.4340 -0.4949 -1.0847
  157DOPC   H7S18887   6.361   0.578   5.886 -0.5578  1.4215  1.5468
  157DOPC   C2818888   6.314   0.774   5.787  0.8704 -0.5102 -0.1810
  157DOPC   H8R18889   6.391   0.754   5.709  1.7902  0.4129  0.4548
  157DOPC   H8S18890   6.354   0.849   5.859 -1.5109  1.6229 -0.9297
  157DOPC   C2918891   6.192   0.847   5.725  0.1195  0.2104 -0.0332
  157DOPC   H9R18892   6.117   0.883   5.797  0.6341  0.6511  0.2992
  157DOPC  C21018893   6.180   0.880   5.596 -0.1690 -0.6987 -0.4929
  157DOPC  H10R18894   6.085   0.924   5.561  0.6098  2.5880  1.1327
  157DOPC  C21118895   6.274   0.840   5.486  0.4576  0.3262 -0.5948
  157DOPC  H11R18896   6.275   0.733   5.455 -0.0949  1.5408 -5.6915
  157DOPC  H11S18897   6.379   0.860   5.514 -0.6254  3.1370  1.9649
  157DOPC  C21218898   6.252   0.935   5.369  0.5471 -0.0040 -0.0578
  157DOPC  H12R18899   6.254   1.039   5.409  0.3437  0.6155 -1.5600
  157DOPC  H12S18900   6.147   0.929   5.335  0.3229  2.2191  0.0845
  157DOPC  C21318901   6.361   0.929   5.266 -0.0750 -0.2039  1.0481
  157DOPC  H13R18902   6.460   0.900   5.307  0.6717 -2.3367 -1.9140
  157DOPC  H13S18903   6.367   1.021   5.203 -1.6743 -1.1501 -0.5921
  157DOPC  C21418904   6.343   0.813   5.166  0.0571 -0.2642  0.3947
  157DOPC  H14R18905   6.263   0.833   5.092 -0.5439  2.0547  1.5723
  157DOPC  H14S18906   6.310   0.722   5.221 -1.3585 -0.0384 -0.0503
  157DOPC  C21518907   6.473   0.779   5.085  0.2236 -0.1636 -0.1402
  157DOPC  H15R18908   6.443   0.706   5.007 -0.4253 -0.2120  0.1423
  157DOPC  H15S18909   6.551   0.727   5.145  1.9314 -0.4197 -2.4388
  157DOPC  C21618910   6.544   0.895   5.019  0.4523 -0.2089  0.3082
  157DOPC  H16R18911   6.634   0.855   4.968  0.8492 -0.3622  1.1067
  157DOPC  H16S18912   6.590   0.968   5.090  1.3924 -0.6669  0.1716
  157DOPC  C21718913   6.448   0.975   4.928  0.6388 -0.6964  0.0184
  157DOPC  H17R18914   6.383   1.040   4.990 -0.5569 -0.7995 -1.1044
  157DOPC  H17S18915   6.388   0.910   4.861  0.1998  1.4510 -1.8075
  157DOPC  C21818916   6.521   1.069   4.827  0.1633  0.1191  0.4968
  157DOPC  H18R18917   6.448   1.148   4.799 -1.2908 -1.3786 -0.1540
  157DOPC  H18S18918   6.567   1.010   4.745  0.6992 -0.4177  1.1691
  157DOPC  H18T18919   6.604   1.124   4.877  0.0596 -0.2836  1.1307
  157DOPC   C3318920   6.515   1.118   6.256 -0.0282 -0.1959  0.6527
  157DOPC   H3X18921   6.520   1.007   6.247  0.6635 -0.0642 -0.8828
  157DOPC   H3Y18922   6.613   1.161   6.285 -0.4294  0.7690  0.6095
  157DOPC   C3418923   6.483   1.157   6.110 -0.2591 -0.1885 -0.1377
  157DOPC   H4X18924   6.504   1.266   6.108  0.1690 -0.2740 -0.5604
  157DOPC   H4Y18925   6.379   1.125   6.087  0.1380 -2.2453  0.6507
  157DOPC   C3518926   6.579   1.081   6.010  0.1548  0.1362  0.0110
  157DOPC   H5X18927   6.571   0.970   6.000  1.6445 -0.1177  1.1637
  157DOPC   H5Y18928   6.683   1.094   6.049 -0.5204 -1.1789  2.4431
  157DOPC   C3618929   6.566   1.147   5.871  0.2841 -0.2521  0.1456
  157DOPC   H6X18930   6.614   1.248   5.868  1.9240 -1.0102 -0.8622
  157DOPC   H6Y18931   6.635   1.092   5.804 -0.5132 -0.6336 -0.3773
  157DOPC   C3718932   6.422   1.163   5.825  0.3539  0.1088 -0.3203
  157DOPC   H7X18933   6.367   1.068   5.840 -0.1257  0.8112  3.2958
  157DOPC   H7Y18934   6.368   1.230   5.895  1.0739  0.2452  0.1183
  157DOPC   C3818935   6.401   1.234   5.695  0.9146 -0.4633  0.0024
  157DOPC   H8X18936   6.445   1.336   5.697  0.9643 -0.4438  3.1819
  157DOPC   H8Y18937   6.291   1.249   5.688  0.9619 -0.1715 -0.1199
  157DOPC   C3918938   6.455   1.153   5.589  0.6229 -0.0924  0.4458
  157DOPC   H9X18939   6.467   1.046   5.609  1.8477 -0.2034 -0.7708
  157DOPC  C31018940   6.495   1.191   5.469  0.1546  0.6736  0.0848
  157DOPC  H10X18941   6.524   1.116   5.394 -2.8334 -1.6447  1.0406
  157DOPC  C31118942   6.494   1.333   5.417  0.2943 -0.0072  0.7847
  157DOPC  H11X18943   6.597   1.354   5.381 -0.1382 -1.1024 -1.2351
  157DOPC  H11Y18944   6.473   1.413   5.491 -1.3210 -0.3073  0.6732
  157DOPC  C31218945   6.402   1.338   5.288 -0.3235 -0.0334 -1.1931
  157DOPC  H12X18946   6.325   1.419   5.291 -0.0348  0.2083  0.0155
  157DOPC  H12Y18947   6.341   1.247   5.267  0.5751 -1.3246  1.4228
  157DOPC  C31318948   6.475   1.368   5.157  0.4120  0.6476  0.4492
  157DOPC  H13X18949   6.543   1.455   5.169 -0.7672  1.5219  1.1788
  157DOPC  H13Y18950   6.543   1.287   5.127  2.6067  3.1117 -1.6915
  157DOPC  C31418951   6.381   1.395   5.040  1.0755  0.0047 -0.1616
  157DOPC  H14X18952   6.325   1.299   5.036  1.1716 -0.1196  1.2051
  157DOPC  H14Y18953   6.304   1.467   5.075 -0.4082 -2.0274  0.9381
  157DOPC  C31518954   6.449   1.419   4.901 -0.3251  0.6356 -0.5046
  157DOPC  H15X18955   6.537   1.351   4.893 -0.5378  0.5340 -2.7477
  157DOPC  H15Y18956   6.501   1.516   4.913  0.2281  0.4191 -1.0634
  157DOPC  C31618957   6.345   1.419   4.794  0.2037  0.2029 -0.9795
  157DOPC  H16X18958   6.405   1.378   4.709  2.7147  0.5892  0.4955
  157DOPC  H16Y18959   6.267   1.344   4.817  0.9654  0.1935  1.9921
  157DOPC  C31718960   6.294   1.559   4.754 -0.8272  0.4754 -0.5007
  157DOPC  H17X18961   6.236   1.609   4.834 -1.9353 -0.7432 -0.5108
  157DOPC  H17Y18962   6.375   1.630   4.728 -1.8751  2.0706  0.4350
  157DOPC  C31818963   6.205   1.552   4.632  0.7387  0.3936  0.1925
  157DOPC  H18X18964   6.188   1.656   4.597  2.6320  0.1301 -1.7276
  157DOPC  H18Y18965   6.250   1.499   4.545 -1.0850 -0.9387 -0.0060
  157DOPC  H18Z18966   6.111   1.497   4.651  1.4573 -0.1811  2.4462
  158DOPC     N18967   5.656   5.814   7.384 -0.2369 -0.1308 -0.3443
  158DOPC   C1218968   5.654   5.874   7.243 -0.0756  0.3926  0.0361
  158DOPC  H12A18969   5.678   5.789   7.181  2.5251  0.1131  1.2832
  158DOPC  H12B18970   5.742   5.936   7.234  0.6277 -0.7015 -0.9417
  158DOPC   C1318971   5.633   5.916   7.484 -0.1627 -0.2160 -0.2830
  158DOPC  H13A18972   5.702   5.998   7.468 -0.0320  0.0125  1.2879
  158DOPC  H13B18973   5.538   5.965   7.470  0.4100  0.5616 -1.6960
  158DOPC  H13C18974   5.641   5.877   7.584  0.6826 -1.4031 -0.7861
  158DOPC   C1418975   5.797   5.762   7.405 -0.5009  0.6650  0.0932
  158DOPC  H14A18976   5.799   5.718   7.504 -2.9454  0.2765  0.0186
  158DOPC  H14B18977   5.825   5.688   7.331  0.4182  1.0640  0.0252
  158DOPC  H14C18978   5.867   5.844   7.403 -1.5839  1.5856 -0.4212
  158DOPC   C1518979   5.550   5.713   7.407  0.4563 -0.2969 -0.2227
  158DOPC  H15A18980   5.548   5.674   7.507  1.2350 -1.4823 -0.6520
  158DOPC  H15B18981   5.569   5.631   7.339  1.3432 -0.4850  0.2379
  158DOPC  H15C18982   5.449   5.744   7.383  0.9969  0.5580 -1.5713
  158DOPC   C1118983   5.537   5.957   7.197 -0.0123  0.5762  0.0435
  158DOPC  H11A18984   5.522   5.964   7.087 -0.1458 -0.9618 -0.0525
  158DOPC  H11B18985   5.458   5.897   7.248  1.5442 -1.3907  0.2447
  158DOPC     P18986   5.659   6.187   7.241  0.2603  0.2791  0.4691
  158DOPC   O1318987   5.789   6.123   7.204  0.1551 -0.0604  0.3747
  158DOPC   O1418988   5.667   6.286   7.347 -0.0441 -0.2286 -0.1796
  158DOPC   O1218989   5.543   6.081   7.266 -0.0108  0.3892  0.4045
  158DOPC   O1118990   5.612   6.257   7.112  1.0458  0.1716 -0.2571
  158DOPC    C118991   5.709   6.345   7.055 -0.5636  0.2973 -0.2680
  158DOPC    HA18992   5.816   6.327   7.079 -0.7788  1.6801  2.1132
  158DOPC    HB18993   5.685   6.449   7.086  0.1368  0.9189 -1.7257
  158DOPC    C218994   5.710   6.350   6.908  0.2286  0.3649  0.9433
  158DOPC    HS18995   5.618   6.403   6.876 -0.5829 -0.9049  1.1150
  158DOPC   O2118996   5.717   6.213   6.856 -0.2133 -0.8395  0.7789
  158DOPC   C2118997   5.604   6.175   6.793  0.1292  0.1317 -0.4935
  158DOPC   O2218998   5.509   6.244   6.770 -0.4393 -0.3235 -0.1934
  158DOPC   C2218999   5.608   6.031   6.761 -0.1247  0.1416  0.8666
  158DOPC   H2R19000   5.523   5.977   6.808  0.5251 -0.6293  1.1847
  158DOPC   H2S19001   5.706   5.992   6.795  0.0392  0.7414  1.0959
  158DOPC    C319002   5.822   6.432   6.842 -0.1726  0.0653 -0.1850
  158DOPC    HX19003   5.915   6.403   6.897 -1.5904 -1.9096  1.3099
  158DOPC    HY19004   5.800   6.539   6.865  0.3717  0.9373 -3.2492
  158DOPC   O3119005   5.826   6.415   6.689  0.2581 -0.2111  0.5398
  158DOPC   C3119006   5.933   6.367   6.638 -0.4212 -0.3999 -0.3264
  158DOPC   O3219007   6.026   6.314   6.695  0.7640 -0.2735  0.1879
  158DOPC   C3219008   5.928   6.391   6.483  0.3794  0.2604 -0.9736
  158DOPC   H2X19009   5.824   6.422   6.464 -0.0118 -0.6732 -0.4405
  158DOPC   H2Y19010   5.993   6.478   6.461 -0.3433  1.3613  1.0444
  158DOPC   C2319011   5.597   6.001   6.609  0.3941 -0.0562 -0.5477
  158DOPC   H3R19012   5.614   5.892   6.597  0.7430 -0.2287  1.2172
  158DOPC   H3S19013   5.675   6.060   6.558 -0.5248  1.2199 -0.5271
  158DOPC   C2419014   5.455   6.027   6.561 -0.0404  0.1449 -0.7177
  158DOPC   H4R19015   5.440   6.137   6.556  1.4279  0.3771 -0.4112
  158DOPC   H4S19016   5.389   5.987   6.640  0.0703  2.5584  0.7002
  158DOPC   C2519017   5.421   5.973   6.419 -0.3784  0.0575  0.4982
  158DOPC   H5R19018   5.311   5.976   6.401 -0.2597 -0.2970 -0.3342
  158DOPC   H5S19019   5.455   5.868   6.409  0.0835  0.2366  0.1638
  158DOPC   C2619020   5.487   6.056   6.307 -0.5825 -0.3419  0.1623
  158DOPC   H6R19021   5.596   6.038   6.319 -0.9778 -1.9105  2.0931
  158DOPC   H6S19022   5.461   6.162   6.329  1.1626  0.4129 -1.2056
  158DOPC   C2719023   5.444   6.002   6.185  0.5870  0.0019  0.3363
  158DOPC   H7R19024   5.335   5.985   6.190  0.4515  0.0085 -1.6933
  158DOPC   H7S19025   5.495   5.904   6.169  3.1823  1.4443 -0.8867
  158DOPC   C2819026   5.463   6.099   6.063  0.0391  0.0327 -0.7236
  158DOPC   H8R19027   5.434   6.201   6.097 -1.0942  0.6470 -3.3034
  158DOPC   H8S19028   5.385   6.084   5.986 -0.0788 -1.5450 -0.3279
  158DOPC   C2919029   5.599   6.105   6.008 -0.2450  0.2573 -0.5099
  158DOPC   H9R19030   5.676   6.148   6.073  0.3092 -2.1995  0.5755
  158DOPC  C21019031   5.633   6.062   5.881 -0.7888  0.5388  0.3661
  158DOPC  H10R19032   5.737   6.062   5.848 -1.1325 -0.0687 -0.7844
  158DOPC  C21119033   5.543   6.007   5.779  0.2959 -0.8181  0.2556
  158DOPC  H11R19034   5.441   6.046   5.802  0.7747  0.8942 -0.3641
  158DOPC  H11S19035   5.536   5.896   5.778 -3.0955 -0.7118 -1.3835
  158DOPC  C21219036   5.578   6.039   5.637  0.4920  0.4775  0.0081
  158DOPC  H12R19037   5.518   5.984   5.561  0.7753  0.3315 -0.1097
  158DOPC  H12S19038   5.686   6.015   5.633  0.6206  1.2081 -1.2157
  158DOPC  C21319039   5.566   6.188   5.601 -0.1727  0.5296  0.9587
  158DOPC  H13R19040   5.602   6.247   5.688 -0.0623  0.7085  0.7940
  158DOPC  H13S19041   5.460   6.216   5.590 -0.6546 -1.8228 -1.4935
  158DOPC  C21419042   5.634   6.232   5.473 -0.2055 -0.2367  0.1091
  158DOPC  H14R19043   5.741   6.202   5.476  0.1376  0.9533  1.8368
  158DOPC  H14S19044   5.644   6.342   5.486  2.0745 -0.5377  1.8262
  158DOPC  C21519045   5.571   6.185   5.345  0.7026  0.0323  0.4768
  158DOPC  H15R19046   5.460   6.191   5.348  0.6786 -0.7380  1.3152
  158DOPC  H15S19047   5.595   6.077   5.333 -1.7763 -0.6299  0.8435
  158DOPC  C21619048   5.623   6.263   5.223  0.4027  0.0178  0.4562
  158DOPC  H16R19049   5.717   6.216   5.187  0.4011  1.1336 -1.0787
  158DOPC  H16S19050   5.636   6.368   5.256  0.4350  0.8655 -2.0520
  158DOPC  C21719051   5.525   6.251   5.111 -0.4803 -0.0076  0.2996
  158DOPC  H17R19052   5.418   6.268   5.133  0.0505  2.3599  1.3966
  158DOPC  H17S19053   5.539   6.150   5.067  1.2729 -0.7485  2.3702
  158DOPC  C21819054   5.557   6.348   5.001  0.0244 -0.3136  0.1083
  158DOPC  H18R19055   5.661   6.338   4.963 -0.1342  0.1053 -0.4590
  158DOPC  H18S19056   5.531   6.451   5.035 -0.3513 -0.7832  1.2609
  158DOPC  H18T19057   5.499   6.317   4.912  0.1150 -2.2212  0.6891
  158DOPC   C3319058   5.961   6.257   6.417 -1.1910 -0.0827  0.5201
  158DOPC   H3X19059   5.922   6.174   6.480  1.9945 -0.9190  1.5817
  158DOPC   H3Y19060   6.071   6.256   6.409 -1.2411  0.2670 -0.2625
  158DOPC   C3419061   5.888   6.245   6.283  0.0144 -0.3328 -0.1669
  158DOPC   H4X19062   5.782   6.273   6.293  0.6996  3.0808 -1.3984
  158DOPC   H4Y19063   5.889   6.141   6.243 -0.7051 -0.2562 -0.3930
  158DOPC   C3519064   5.966   6.323   6.171  0.2146 -0.2867 -0.2333
  158DOPC   H5X19065   6.077   6.319   6.177  0.4182  2.7394 -0.4656
  158DOPC   H5Y19066   5.941   6.430   6.184 -0.3324 -0.1249 -2.2157
  158DOPC   C3619067   5.926   6.284   6.028  0.4059  0.3812  0.4423
  158DOPC   H6X19068   5.931   6.173   6.018  0.3216  0.2171  1.9572
  158DOPC   H6Y19069   5.818   6.295   6.007  0.6280  0.2278 -0.8713
  158DOPC   C3719070   6.008   6.365   5.924  0.0728  0.4164  0.1188
  158DOPC   H7X19071   5.959   6.459   5.892 -1.1517 -0.6130 -1.1602
  158DOPC   H7Y19072   6.104   6.395   5.971 -0.4324  1.6743  0.3873
  158DOPC   C3819073   6.032   6.288   5.798  0.2036  0.3623  0.1204
  158DOPC   H8X19074   5.934   6.273   5.748 -0.1052 -2.3474  1.4163
  158DOPC   H8Y19075   6.074   6.189   5.823 -0.7352 -0.2292 -0.5866
  158DOPC   C3919076   6.131   6.354   5.705  0.3027  0.2608  0.5790
  158DOPC   H9X19077   6.226   6.382   5.754  0.0841  0.2970  0.9841
  158DOPC  C31019078   6.112   6.400   5.578  0.4220 -0.1229  0.2156
  158DOPC  H10X19079   6.196   6.443   5.520  0.3581 -1.3993 -0.8878
  158DOPC  C31119080   5.979   6.402   5.498  0.1420  0.1701 -0.2435
  158DOPC  H11X19081   5.929   6.501   5.494 -2.5520 -1.1093 -0.0509
  158DOPC  H11Y19082   5.909   6.328   5.542  1.8952 -1.8512 -0.7103
  158DOPC  C31219083   5.989   6.342   5.349  0.0509 -0.6426  0.1408
  158DOPC  H12X19084   5.892   6.298   5.318 -0.4897  1.4716 -1.3987
  158DOPC  H12Y19085   6.055   6.253   5.349 -0.2811 -0.8926  0.3976
  158DOPC  C31319086   6.022   6.440   5.243  0.1205 -0.0867 -0.0950
  158DOPC  H13X19087   5.971   6.537   5.262  0.5315  0.1840 -0.3733
  158DOPC  H13Y19088   6.129   6.468   5.249 -0.2999  1.5595  0.2868
  158DOPC  C31419089   5.981   6.402   5.106 -0.6205  0.0742  0.3456
  158DOPC  H14X19090   5.870   6.391   5.109 -0.4938 -1.1181  1.8018
  158DOPC  H14Y19091   6.003   6.489   5.040 -1.7263 -0.3723 -0.6617
  158DOPC  C31519092   6.050   6.281   5.060  0.0891  0.2414  0.5418
  158DOPC  H15X19093   6.015   6.195   5.122  2.1463 -2.5910 -1.9488
  158DOPC  H15Y19094   6.161   6.283   5.063  0.4476 -0.6844 -4.2262
  158DOPC  C31619095   6.009   6.236   4.917  0.0987  0.4238 -0.2613
  158DOPC  H16X19096   6.043   6.134   4.891 -0.6144  0.0025  0.4353
  158DOPC  H16Y19097   5.899   6.229   4.902  0.0844  1.2837 -0.6296
  158DOPC  C31719098   6.056   6.324   4.805 -0.6793  0.2626 -0.2078
  158DOPC  H17X19099   6.007   6.423   4.808 -1.2812  0.1161 -2.8167
  158DOPC  H17Y19100   6.166   6.341   4.804 -0.3997 -1.3715  0.0279
  158DOPC  C31819101   6.031   6.269   4.665  0.0996 -0.0125  0.1572
  158DOPC  H18X19102   6.032   6.158   4.666  0.6820 -0.0043  0.9970
  158DOPC  H18Y19103   5.937   6.308   4.621  0.1666 -0.0884 -0.0559
  158DOPC  H18Z19104   6.106   6.309   4.593 -1.9086 -2.1785 -3.4706
  159DOPC     N19105   7.254   1.664   7.284 -0.0064 -0.1284 -0.4420
  159DOPC   C1219106   7.210   1.567   7.166 -0.0595 -0.6117 -0.0653
  159DOPC  H12A19107   7.114   1.523   7.188 -0.9690  0.9341 -0.7570
  159DOPC  H12B19108   7.290   1.497   7.147 -0.4186 -0.7454 -1.1603
  159DOPC   C1319109   7.390   1.722   7.248  0.2865  0.9703  0.8644
  159DOPC  H13A19110   7.374   1.805   7.181  0.7837 -0.6624 -1.3544
  159DOPC  H13B19111   7.438   1.756   7.339  0.6593  0.9885  0.6597
  159DOPC  H13C19112   7.446   1.644   7.199 -0.1167 -1.2566  3.6893
  159DOPC   C1419113   7.266   1.585   7.409  0.0884 -0.1688 -0.6816
  159DOPC  H14A19114   7.171   1.542   7.438 -0.2944  0.8245 -0.4296
  159DOPC  H14B19115   7.328   1.501   7.381 -0.5451 -1.9248  2.6592
  159DOPC  H14C19116   7.303   1.636   7.497  0.5474 -1.8039  0.1161
  159DOPC   C1519117   7.156   1.773   7.305 -0.1752  0.5050  0.2370
  159DOPC  H15A19118   7.202   1.841   7.375  1.0192 -0.7232  0.6930
  159DOPC  H15B19119   7.071   1.733   7.358  1.6606  0.1550  3.1542
  159DOPC  H15C19120   7.129   1.825   7.215  0.0282  0.1226 -0.0504
  159DOPC   C1119121   7.191   1.638   7.025 -0.3192 -0.3378 -0.3211
  159DOPC  H11A19122   7.129   1.568   6.964 -0.3600  0.8377 -1.6913
  159DOPC  H11B19123   7.133   1.733   7.034  0.4162  0.1257 -0.3523
  159DOPC     P19124   7.386   1.578   6.860  0.0818  0.2450 -0.2534
  159DOPC   O1319125   7.291   1.547   6.750 -0.4492 -0.0793 -0.7876
  159DOPC   O1419126   7.445   1.468   6.934 -0.1993  0.1528  0.7525
  159DOPC   O1219127   7.313   1.673   6.965  0.3021  0.1680 -0.6860
  159DOPC   O1119128   7.502   1.673   6.814 -0.7834 -0.0067 -0.4307
  159DOPC    C119129   7.476   1.799   6.739  0.1307 -0.3793  0.9578
  159DOPC    HA19130   7.520   1.885   6.795  0.7559 -0.4781  0.6318
  159DOPC    HB19131   7.370   1.827   6.725  0.8594  0.9257 -2.9421
  159DOPC    C219132   7.528   1.787   6.589  0.0795 -0.0424  0.2405
  159DOPC    HS19133   7.537   1.890   6.548  3.2749 -0.0641  0.6015
  159DOPC   O2119134   7.444   1.701   6.511 -0.0768  0.1867  0.2216
  159DOPC   C2119135   7.318   1.725   6.484  0.0911  0.5313 -0.0675
  159DOPC   O2219136   7.255   1.822   6.514  0.9502 -0.4385 -0.3254
  159DOPC   C2219137   7.274   1.621   6.385 -0.0463  0.6338  0.0551
  159DOPC   H2R19138   7.173   1.586   6.416 -1.1112  2.6380 -0.9885
  159DOPC   H2S19139   7.354   1.545   6.367 -0.8718 -0.4063  0.6984
  159DOPC    C319140   7.678   1.726   6.583  0.3228 -0.5785  0.3513
  159DOPC    HX19141   7.665   1.619   6.611 -0.0395 -0.9469 -1.1575
  159DOPC    HY19142   7.737   1.760   6.671  0.1811  1.3068 -0.2345
  159DOPC   O3119143   7.741   1.763   6.455 -0.4876 -0.2826  0.2525
  159DOPC   C3119144   7.754   1.657   6.377 -0.4124 -0.0439 -0.2680
  159DOPC   O3219145   7.719   1.544   6.398 -0.5339  0.0979  0.3605
  159DOPC   C3219146   7.798   1.717   6.234 -0.4930 -0.3630  0.0996
  159DOPC   H2X19147   7.732   1.805   6.215 -0.1321 -0.2681 -0.7750
  159DOPC   H2Y19148   7.904   1.747   6.252  0.5305 -4.1483  1.2589
  159DOPC   C2319149   7.243   1.692   6.248 -0.2096  0.4536  0.4111
  159DOPC   H3R19150   7.336   1.733   6.203 -1.4522  0.1241 -2.7120
  159DOPC   H3S19151   7.173   1.777   6.259 -0.0180  0.8365 -1.1969
  159DOPC   C2419152   7.166   1.605   6.152 -0.1137 -0.4962 -0.4352
  159DOPC   H4R19153   7.063   1.601   6.192  0.3952  1.4669  1.2642
  159DOPC   H4S19154   7.216   1.506   6.155  1.3701  0.2353  1.1010
  159DOPC   C2519155   7.150   1.680   6.016  0.5765  0.2226 -0.2737
  159DOPC   H5R19156   7.102   1.776   6.045 -1.7705 -1.0047  0.0926
  159DOPC   H5S19157   7.081   1.619   5.955  1.5539 -0.0162 -1.1706
  159DOPC   C2619158   7.277   1.696   5.940  0.6465  0.2004  1.0955
  159DOPC   H6R19159   7.322   1.596   5.925 -1.5541 -0.4756 -2.1299
  159DOPC   H6S19160   7.338   1.765   6.001 -0.3053  1.5129  0.6122
  159DOPC   C2719161   7.247   1.756   5.809  0.2673  0.0160  0.1233
  159DOPC   H7R19162   7.190   1.850   5.828 -1.5131 -0.8682 -0.5378
  159DOPC   H7S19163   7.181   1.700   5.740  0.1378 -0.4175  0.5942
  159DOPC   C2819164   7.374   1.794   5.724  0.9580 -0.2284 -0.3434
  159DOPC   H8R19165   7.398   1.695   5.682 -0.4312  0.2879 -2.5215
  159DOPC   H8S19166   7.459   1.834   5.784 -0.3647  0.4224  1.1955
  159DOPC   C2919167   7.355   1.896   5.614  0.1879 -0.4416  0.6372
  159DOPC   H9R19168   7.293   1.984   5.636 -1.3302 -1.2755 -0.0932
  159DOPC  C21019169   7.407   1.893   5.488 -0.0421 -0.1048  0.3563
  159DOPC  H10R19170   7.395   1.979   5.421  0.0435 -1.9659 -2.2355
  159DOPC  C21119171   7.490   1.788   5.428  0.1037  0.1135 -0.2442
  159DOPC  H11R19172   7.516   1.712   5.504  0.3949  0.1864 -0.2697
  159DOPC  H11S19173   7.588   1.827   5.392  0.4432  1.5417  2.0098
  159DOPC  C21219174   7.426   1.708   5.318  0.2372 -0.1112  0.7774
  159DOPC  H12R19175   7.331   1.670   5.361  0.7579 -3.4227 -0.6704
  159DOPC  H12S19176   7.494   1.627   5.283  2.2921  1.7119  0.3121
  159DOPC  C21319177   7.382   1.786   5.196  0.3094  0.0348 -0.3594
  159DOPC  H13R19178   7.478   1.816   5.149  0.4986 -1.5813 -1.0816
  159DOPC  H13S19179   7.321   1.873   5.230  1.1562 -0.5039  2.8349
  159DOPC  C21419180   7.305   1.703   5.094  0.3621  0.5535  0.2760
  159DOPC  H14R19181   7.228   1.640   5.144  1.6897  0.2410  2.0109
  159DOPC  H14S19182   7.378   1.639   5.040 -1.0318  1.4578 -2.9653
  159DOPC  C21519183   7.230   1.793   5.000 -1.4422 -0.1972  0.6983
  159DOPC  H15R19184   7.311   1.852   4.950 -0.1956 -1.0136  1.6863
  159DOPC  H15S19185   7.157   1.855   5.055 -1.7662 -0.8548  1.0209
  159DOPC  C21619186   7.157   1.714   4.894  0.1646  0.6429  0.6884
  159DOPC  H16R19187   7.086   1.638   4.932  1.0691  0.3209  1.7741
  159DOPC  H16S19188   7.226   1.665   4.822  1.3788  0.8981  1.6228
  159DOPC  C21719189   7.054   1.808   4.810 -0.0101  0.3434 -0.5909
  159DOPC  H17R19190   7.116   1.897   4.790  1.1165  0.0432  1.3512
  159DOPC  H17S19191   6.973   1.852   4.873  0.9722  1.8222 -0.3262
  159DOPC  C21819192   6.991   1.742   4.682 -0.4088 -0.4309 -0.5079
  159DOPC  H18R19193   7.070   1.711   4.611 -0.2988 -0.5798 -0.3193
  159DOPC  H18S19194   6.927   1.821   4.636  0.2262  0.2983 -0.1691
  159DOPC  H18T19195   6.912   1.670   4.713  0.9783 -1.7450  0.0529
  159DOPC   C3319196   7.764   1.612   6.117 -0.0556 -0.4596 -0.8507
  159DOPC   H3X19197   7.655   1.599   6.105 -0.3798  1.3084 -0.1758
  159DOPC   H3Y19198   7.804   1.512   6.144  1.1696 -0.0801 -1.1835
  159DOPC   C3419199   7.813   1.653   5.980  0.8010 -0.0033  0.0046
  159DOPC   H4X19200   7.921   1.624   5.976  0.8140  0.1122 -0.5838
  159DOPC   H4Y19201   7.788   1.760   5.972  0.1726 -0.1389  0.1420
  159DOPC   C3519202   7.748   1.593   5.859  0.3178 -0.3680  0.0347
  159DOPC   H5X19203   7.638   1.602   5.872  0.3949 -0.1175  0.5303
  159DOPC   H5Y19204   7.775   1.486   5.843 -0.0893 -0.4940  0.1704
  159DOPC   C3619205   7.770   1.646   5.714 -0.0605 -0.1118 -0.1480
  159DOPC   H6X19206   7.722   1.574   5.645  1.7175 -0.6267 -0.8807
  159DOPC   H6Y19207   7.709   1.738   5.695 -0.6033 -0.5734 -0.6836
  159DOPC   C3719208   7.910   1.671   5.667 -0.1310 -0.3699  0.1493
  159DOPC   H7X19209   7.930   1.771   5.711  2.9318 -1.6813  2.1661
  159DOPC   H7Y19210   7.969   1.594   5.722  1.6038 -0.0768 -1.1882
  159DOPC   C3819211   7.949   1.653   5.517  0.1122  0.9322  0.0320
  159DOPC   H8X19212   7.875   1.699   5.448  1.1971  0.0013 -1.8235
  159DOPC   H8Y19213   7.964   1.543   5.510  0.5559  0.9338  0.8943
  159DOPC   C3919214   8.081   1.720   5.492 -0.6069 -0.0627 -0.5087
  159DOPC   H9X19215   8.115   1.788   5.572 -0.9763 -2.3154  1.6952
  159DOPC  C31019216   8.173   1.699   5.393 -0.0444  0.3813 -0.3504
  159DOPC  H10X19217   8.270   1.750   5.389  0.4817 -0.5997 -0.6190
  159DOPC  C31119218   8.165   1.602   5.275  0.0655 -0.6353  0.0833
  159DOPC  H11X19219   8.145   1.666   5.187  0.5508 -1.3582 -0.5638
  159DOPC  H11Y19220   8.080   1.531   5.285  1.2038 -1.8253  2.0807
  159DOPC  C31219221   8.279   1.504   5.238 -0.2023 -0.7682 -0.4869
  159DOPC  H12X19222   8.322   1.469   5.334 -0.4071  2.6281  0.9632
  159DOPC  H12Y19223   8.367   1.558   5.197  0.6230 -0.5147  1.5100
  159DOPC  C31319224   8.250   1.390   5.142 -0.0068  0.0378 -0.2466
  159DOPC  H13X19225   8.348   1.338   5.137 -2.2334 -4.9125  0.7544
  159DOPC  H13Y19226   8.172   1.322   5.183  1.9085 -0.5256  2.8068
  159DOPC  C31419227   8.213   1.441   5.007 -0.8813  0.3505  0.4169
  159DOPC  H14X19228   8.110   1.485   5.006 -1.1711 -0.2547  1.7550
  159DOPC  H14Y19229   8.282   1.523   4.976  0.3739 -1.2998 -1.4258
  159DOPC  C31519230   8.227   1.336   4.891 -0.0927  0.0505 -0.4879
  159DOPC  H15X19231   8.144   1.270   4.925  0.5346  0.0970  1.2366
  159DOPC  H15Y19232   8.321   1.278   4.897  0.2472  0.7706  2.9677
  159DOPC  C31619233   8.210   1.399   4.748  0.1423  0.5175  0.3581
  159DOPC  H16X19234   8.266   1.494   4.732 -1.0252  0.8607 -2.3414
  159DOPC  H16Y19235   8.250   1.334   4.667 -2.1793  1.4660 -1.7060
  159DOPC  C31719236   8.064   1.428   4.721  0.0954  0.3560  0.0153
  159DOPC  H17X19237   8.010   1.332   4.740  0.7684 -0.5185 -2.1659
  159DOPC  H17Y19238   8.028   1.502   4.795 -0.3163 -2.3180  2.7107
  159DOPC  C31819239   8.028   1.467   4.575  0.0480 -0.5435  0.8974
  159DOPC  H18X19240   8.085   1.557   4.544 -2.1991  0.0858 -1.7672
  159DOPC  H18Y19241   8.051   1.382   4.508  1.8399 -1.5055  2.6079
  159DOPC  H18Z19242   7.921   1.492   4.558  0.3196 -1.4227 -2.7722
  160DOPC     N19243   3.039   6.915   7.408 -0.5473  0.3401 -0.0835
  160DOPC   C1219244   2.962   6.902   7.273 -0.7082 -0.4579  0.4315
  160DOPC  H12A19245   2.897   6.816   7.276 -0.9158 -0.4624 -2.0280
  160DOPC  H12B19246   3.041   6.880   7.203  0.5972  0.2491  1.6299
  160DOPC   C1319247   3.097   6.777   7.447  0.4159 -0.1031  0.0772
  160DOPC  H13A19248   3.149   6.790   7.541  0.0159  3.0948 -0.0341
  160DOPC  H13B19249   3.011   6.714   7.459 -2.7102  3.4781 -1.4670
  160DOPC  H13C19250   3.165   6.736   7.374  1.0508 -0.5738  0.9152
  160DOPC   C1419251   2.951   6.963   7.519  0.0420 -0.5730  0.4253
  160DOPC  H14A19252   3.008   6.961   7.611 -1.0649  2.4291  1.2718
  160DOPC  H14B19253   2.912   7.062   7.503  1.5015  0.0321  0.5056
  160DOPC  H14C19254   2.866   6.898   7.536 -1.1845  1.3127  1.8498
  160DOPC   C1519255   3.152   7.011   7.391  0.1334 -0.5433 -0.3453
  160DOPC  H15A19256   3.115   7.107   7.358  0.0536  0.6503  2.9250
  160DOPC  H15B19257   3.237   6.975   7.335  0.7308  1.9279 -1.1370
  160DOPC  H15C19258   3.196   7.032   7.487  2.1962  0.3343 -1.4112
  160DOPC   C1119259   2.889   7.029   7.223 -0.1097 -0.1709  0.2286
  160DOPC  H11A19260   2.830   7.007   7.131  1.9066 -0.4998 -1.0594
  160DOPC  H11B19261   2.824   7.053   7.309 -1.1154  1.2136 -0.8631
  160DOPC     P19262   3.057   7.167   7.082  0.2974 -0.0859 -0.2356
  160DOPC   O1319263   3.194   7.214   7.114 -0.6804  0.7199  0.4016
  160DOPC   O1419264   2.974   7.243   6.988  0.3459  0.2683 -0.3915
  160DOPC   O1219265   2.970   7.148   7.214  0.2975  0.1835  0.0008
  160DOPC   O1119266   3.084   7.022   7.036  0.4142 -0.0250 -0.4493
  160DOPC    C119267   3.213   6.966   7.005 -0.2360 -0.3847  0.8064
  160DOPC    HA19268   3.221   6.861   7.038 -0.7582 -0.9618 -0.7879
  160DOPC    HB19269   3.294   7.022   7.056 -0.3383  0.3048  0.2314
  160DOPC    C219270   3.230   6.974   6.850 -0.0101  0.2099 -1.1101
  160DOPC    HS19271   3.210   7.083   6.840  1.4909  0.5633 -0.4687
  160DOPC   O2119272   3.130   6.883   6.796 -1.0887 -0.1934  0.2874
  160DOPC   C2119273   3.085   6.922   6.684  0.0876 -0.5126 -0.1264
  160DOPC   O2219274   3.090   7.037   6.638  1.0481 -0.2408 -0.1869
  160DOPC   C2219275   3.017   6.797   6.614 -0.1596 -0.7252  0.0953
  160DOPC   H2R19276   2.953   6.744   6.688  0.9031 -0.6572  1.0882
  160DOPC   H2S19277   3.092   6.721   6.582 -1.0034 -1.4924 -0.1023
  160DOPC    C319278   3.372   6.942   6.807  0.2591  0.8793  0.0410
  160DOPC    HX19279   3.398   6.844   6.854  1.8324  0.9716 -0.5596
  160DOPC    HY19280   3.439   7.020   6.851 -1.0765  2.9109 -1.3930
  160DOPC   O3119281   3.376   6.956   6.665 -0.0705 -0.0456  0.3289
  160DOPC   C3119282   3.477   6.887   6.619 -0.1042 -0.4063 -0.1607
  160DOPC   O3219283   3.564   6.837   6.690  0.1242  0.0508 -0.2239
  160DOPC   C3219284   3.458   6.863   6.469  0.1098  0.2307  0.2929
  160DOPC   H2X19285   3.553   6.818   6.433  0.2170  1.3569 -0.9201
  160DOPC   H2Y19286   3.367   6.799   6.468  0.2806 -0.0094 -0.5866
  160DOPC   C2319287   2.940   6.829   6.485 -0.1639  0.3554  0.0150
  160DOPC   H3R19288   2.869   6.913   6.501 -1.0678 -0.6769  1.8321
  160DOPC   H3S19289   2.881   6.739   6.456  0.1249  0.1493  0.0652
  160DOPC   C2419290   3.031   6.870   6.367  0.2230  0.5411  0.0246
  160DOPC   H4R19291   3.089   6.784   6.326 -2.1218 -0.6709 -0.9584
  160DOPC   H4S19292   3.099   6.956   6.386  0.7136  0.1814 -0.0864
  160DOPC   C2519293   2.947   6.925   6.250 -0.2710  0.2947 -0.2094
  160DOPC   H5R19294   2.907   7.026   6.271 -1.2021  0.8745 -4.0069
  160DOPC   H5S19295   2.854   6.865   6.246 -2.4462  3.1919  2.2833
  160DOPC   C2619296   3.048   6.925   6.131 -0.1432  0.3428 -0.1382
  160DOPC   H6R19297   3.109   6.834   6.149 -0.9363 -0.2305 -0.2980
  160DOPC   H6S19298   3.096   7.025   6.141 -1.4408  1.0134 -0.2738
  160DOPC   C2719299   2.976   6.927   5.996  0.2028  0.4817 -0.2001
  160DOPC   H7R19300   2.917   7.021   5.992  1.1863  1.0770 -0.9163
  160DOPC   H7S19301   2.900   6.845   5.988  0.5323  0.2600 -1.1955
  160DOPC   C2819302   3.073   6.916   5.872 -0.2092  0.3643  0.0716
  160DOPC   H8R19303   3.141   7.003   5.888  1.4805 -1.0279  0.7321
  160DOPC   H8S19304   3.007   6.933   5.784  2.1545  0.2520 -1.8297
  160DOPC   C2919305   3.140   6.780   5.862 -0.5107  0.0488 -0.3985
  160DOPC   H9R19306   3.166   6.736   5.959 -1.6783  0.5788  0.1773
  160DOPC  C21019307   3.164   6.716   5.746  0.4695  0.2815  0.0493
  160DOPC  H10R19308   3.212   6.618   5.740 -1.2605 -0.5520 -0.8928
  160DOPC  C21119309   3.121   6.762   5.613  0.3595 -0.3701  0.2172
  160DOPC  H11R19310   3.073   6.863   5.604 -0.4597 -0.8294 -0.8136
  160DOPC  H11S19311   3.040   6.700   5.570  1.6814 -0.4681 -2.3001
  160DOPC  C21219312   3.237   6.780   5.516  0.3436 -0.0892  0.5445
  160DOPC  H12R19313   3.285   6.684   5.487 -1.2974 -0.2807 -1.9033
  160DOPC  H12S19314   3.301   6.855   5.566  2.2426 -0.4647 -1.1730
  160DOPC  C21319315   3.204   6.840   5.378  0.6620 -0.3367  0.2931
  160DOPC  H13R19316   3.187   6.949   5.396  0.9002 -0.2930  0.2500
  160DOPC  H13S19317   3.103   6.809   5.344  1.1589  0.3359 -1.9635
  160DOPC  C21419318   3.317   6.824   5.272 -0.8093 -0.4798 -0.5756
  160DOPC  H14R19319   3.275   6.837   5.170 -0.5493  1.5921 -0.4670
  160DOPC  H14S19320   3.360   6.722   5.278  0.9069  0.0926 -2.2754
  160DOPC  C21519321   3.433   6.932   5.290 -0.1798  0.0678  0.4986
  160DOPC  H15R19322   3.515   6.892   5.353  0.3458  1.1228  0.5019
  160DOPC  H15S19323   3.391   7.013   5.355 -2.4936 -2.8568  2.9816
  160DOPC  C21619324   3.491   6.978   5.150 -0.9427 -0.7142  0.7019
  160DOPC  H16R19325   3.544   7.075   5.157 -0.5893 -0.9244  1.0007
  160DOPC  H16S19326   3.400   6.995   5.090 -1.9118 -1.7090  1.8290
  160DOPC  C21719327   3.585   6.876   5.089  0.0040 -0.1544  0.0193
  160DOPC  H17R19328   3.522   6.785   5.075 -2.7665  1.3007  1.9810
  160DOPC  H17S19329   3.675   6.863   5.153  1.0233  2.2535 -0.7921
  160DOPC  C21819330   3.629   6.916   4.948 -0.1449 -0.2963  0.1515
  160DOPC  H18R19331   3.697   7.004   4.947  2.8459 -2.4479 -0.0377
  160DOPC  H18S19332   3.542   6.937   4.883 -0.2673  0.1588  0.4623
  160DOPC  H18T19333   3.689   6.833   4.902 -2.1774 -1.1728 -1.0528
  160DOPC   C3319334   3.434   6.993   6.390  0.3784 -0.2472  0.1924
  160DOPC   H3X19335   3.520   7.063   6.403  1.3798 -1.1772 -1.0329
  160DOPC   H3Y19336   3.341   7.042   6.425  1.0426  1.8484 -0.7979
  160DOPC   C3419337   3.424   6.972   6.241 -0.2551 -0.0896  0.6560
  160DOPC   H4X19338   3.335   6.907   6.219 -0.3181  0.4951 -1.0029
  160DOPC   H4Y19339   3.512   6.912   6.210  0.0081  0.4435  0.3599
  160DOPC   C3519340   3.408   7.102   6.154  0.0599  0.2902 -1.2693
  160DOPC   H5X19341   3.466   7.181   6.207  1.0869 -0.3814 -1.3663
  160DOPC   H5Y19342   3.300   7.130   6.160 -0.3617 -1.1867 -1.4622
  160DOPC   C3619343   3.469   7.098   6.013  0.2163 -0.2974  0.1414
  160DOPC   H6X19344   3.575   7.069   6.032  0.1993 -0.6075 -0.2327
  160DOPC   H6Y19345   3.421   7.015   5.958 -0.8272  0.5651 -0.2876
  160DOPC   C3719346   3.452   7.230   5.933  0.5726 -0.0475 -1.4822
  160DOPC   H7X19347   3.344   7.253   5.925  0.5461  0.0994 -0.7853
  160DOPC   H7Y19348   3.495   7.313   5.993 -1.7281  0.8802 -1.0530
  160DOPC   C3819349   3.509   7.234   5.787 -0.2026  0.0480  0.3297
  160DOPC   H8X19350   3.609   7.187   5.778 -0.4759 -0.4006 -0.4193
  160DOPC   H8Y19351   3.518   7.341   5.759 -2.3908  1.5074  4.3134
  160DOPC   C3919352   3.410   7.155   5.696 -0.1426  0.2125 -0.2019
  160DOPC   H9X19353   3.383   7.059   5.740  0.0278  0.5169  0.5830
  160DOPC  C31019354   3.363   7.201   5.580  0.8662 -0.2583  0.4366
  160DOPC  H10X19355   3.292   7.136   5.526  1.1285 -0.0424 -0.1755
  160DOPC  C31119356   3.390   7.337   5.525 -0.5809  0.1791  0.3750
  160DOPC  H11X19357   3.400   7.408   5.610 -0.0186  0.5930 -0.0314
  160DOPC  H11Y19358   3.301   7.367   5.465 -0.4588 -4.4892 -2.6662
  160DOPC  C31219359   3.518   7.340   5.437  0.8054 -0.7277 -0.7054
  160DOPC  H12X19360   3.521   7.256   5.364  0.9095 -0.9738 -0.4229
  160DOPC  H12Y19361   3.599   7.312   5.509  0.1244  0.1533  0.4458
  160DOPC  C31319362   3.522   7.468   5.355  0.2343 -0.3033 -0.1397
  160DOPC  H13X19363   3.445   7.488   5.277 -1.5357  0.5364  1.7178
  160DOPC  H13Y19364   3.522   7.555   5.424  0.8012 -2.1082  2.3114
  160DOPC  C31419365   3.650   7.476   5.271 -0.1321 -0.2199  0.6572
  160DOPC  H14X19366   3.741   7.441   5.325  0.0391  0.2416  0.6666
  160DOPC  H14Y19367   3.632   7.418   5.178 -0.6440  0.9991 -0.0239
  160DOPC  C31519368   3.679   7.619   5.229 -0.1598  0.3926  0.2436
  160DOPC  H15X19369   3.660   7.687   5.314 -0.2424 -0.6130  1.0444
  160DOPC  H15Y19370   3.605   7.648   5.151  1.4444  0.5987 -1.2872
  160DOPC  C31619371   3.819   7.634   5.168 -0.2491 -0.4435 -0.4183
  160DOPC  H16X19372   3.899   7.615   5.242  1.4348 -0.4890 -2.1575
  160DOPC  H16Y19373   3.825   7.562   5.083  3.6800  0.8441 -1.4633
  160DOPC  C31719374   3.836   7.781   5.112 -0.2205  0.1716  0.5007
  160DOPC  H17X19375   3.744   7.811   5.058 -0.3038  0.4656  0.8024
  160DOPC  H17Y19376   3.839   7.844   5.204  1.4946 -0.1376  0.6974
  160DOPC  C31819377   3.954   7.783   5.022 -0.1666 -0.1139 -0.7355
  160DOPC  H18X19378   4.039   7.723   5.059  0.5030  0.4809 -1.2849
  160DOPC  H18Y19379   3.919   7.747   4.922 -0.4792  2.7559 -1.7756
  160DOPC  H18Z19380   4.002   7.880   4.999  1.9700 -1.0311 -0.3580
  161DOPC     N19381   5.379   0.035   7.430  0.3718 -0.5975  0.5190
  161DOPC   C1219382   5.392  -0.102   7.381 -0.0523  0.0067 -0.3654
  161DOPC  H12A19383   5.294  -0.147   7.377  0.5240 -1.4507  0.7984
  161DOPC  H12B19384   5.450  -0.157   7.453 -1.6840  1.7958  2.4714
  161DOPC   C1319385   5.284   0.037   7.552  0.4276  0.2542  0.4820
  161DOPC  H13A19386   5.262   0.143   7.560  0.5472  0.3786 -0.6760
  161DOPC  H13B19387   5.195  -0.016   7.524 -0.7888  2.0841  0.6754
  161DOPC  H13C19388   5.341   0.006   7.638  1.0973 -1.3361 -0.4941
  161DOPC   C1419389   5.314   0.120   7.327  0.5122  0.3733 -0.4081
  161DOPC  H14A19390   5.274   0.208   7.375  1.0988 -0.2226  1.2273
  161DOPC  H14B19391   5.385   0.155   7.254  1.3845  0.0108  0.2468
  161DOPC  H14C19392   5.227   0.069   7.288  0.3885  0.6690 -0.5173
  161DOPC   C1519393   5.506   0.091   7.478  0.1893  0.1961 -0.5279
  161DOPC  H15A19394   5.488   0.184   7.530 -0.7534  0.0283 -0.5302
  161DOPC  H15B19395   5.583   0.114   7.406  2.0838  0.1387  1.3536
  161DOPC  H15C19396   5.546   0.016   7.545 -2.4044 -0.2451  0.6344
  161DOPC   C1119397   5.462  -0.126   7.250 -0.0173  0.0759 -0.2232
  161DOPC  H11A19398   5.450  -0.234   7.229  0.3667 -0.1455  0.6981
  161DOPC  H11B19399   5.414  -0.074   7.164  1.6318 -0.2939 -1.4024
  161DOPC     P19400   5.668   0.020   7.158  0.1423 -0.5785 -0.2964
  161DOPC   O1319401   5.805   0.046   7.201 -0.5253  0.4061 -0.5196
  161DOPC   O1419402   5.570   0.138   7.163 -0.1011  0.0337  0.3896
  161DOPC   O1219403   5.604  -0.092   7.248 -0.0887  0.1023  0.9433
  161DOPC   O1119404   5.687  -0.041   7.005 -0.4684  0.0104 -0.1855
  161DOPC    C119405   5.715  -0.177   6.996  1.2300 -0.0676  0.2219
  161DOPC    HA19406   5.636  -0.241   7.041  3.1456 -0.3398  3.5301
  161DOPC    HB19407   5.812  -0.207   7.041 -0.0227 -0.5387  2.8310
  161DOPC    C219408   5.706  -0.212   6.843 -0.4876  0.5366 -0.3504
  161DOPC    HS19409   5.744  -0.315   6.824  1.3527  1.4463 -2.0137
  161DOPC   O2119410   5.771  -0.111   6.762  0.7091 -0.7784 -0.2501
  161DOPC   C2119411   5.892  -0.090   6.787 -0.0653  0.2171 -0.1252
  161DOPC   O2219412   5.966  -0.162   6.852  0.1538 -0.0416  0.2386
  161DOPC   C2219413   5.936   0.041   6.723 -0.5570 -0.2977  0.4242
  161DOPC   H2R19414   6.047   0.049   6.711 -0.5351  0.4256  1.0452
  161DOPC   H2S19415   5.898   0.111   6.800  0.0377 -0.7720  1.1736
  161DOPC    C319416   5.559  -0.229   6.800  0.1888 -0.6572 -0.6938
  161DOPC    HX19417   5.515  -0.133   6.834 -0.3760 -0.6320 -1.4627
  161DOPC    HY19418   5.517  -0.313   6.860 -4.3955  0.5329 -1.8151
  161DOPC   O3119419   5.541  -0.250   6.657  0.1663 -0.0147 -0.1030
  161DOPC   C3119420   5.522  -0.133   6.582 -1.0564  0.3174 -0.2789
  161DOPC   O3219421   5.515  -0.023   6.616  0.7413  0.1133 -0.4342
  161DOPC   C3219422   5.516  -0.175   6.435  0.6746  0.3419  0.7753
  161DOPC   H2X19423   5.577  -0.267   6.419  0.9560  0.8017 -1.0092
  161DOPC   H2Y19424   5.410  -0.201   6.419  1.0460 -0.8405  0.0836
  161DOPC   C2319425   5.856   0.065   6.590  0.2255  0.2721  0.1942
  161DOPC   H3R19426   5.747   0.062   6.611  0.2573  1.9336  0.7594
  161DOPC   H3S19427   5.881  -0.014   6.516 -1.0994 -2.0297  2.0576
  161DOPC   C2419428   5.888   0.204   6.530 -0.3266 -0.2551  0.3162
  161DOPC   H4R19429   5.992   0.200   6.491 -0.5931  0.0837 -0.4437
  161DOPC   H4S19430   5.882   0.296   6.591 -0.7516  0.1568 -0.3327
  161DOPC   C2519431   5.804   0.234   6.403 -0.1223 -0.2761  0.2893
  161DOPC   H5R19432   5.698   0.229   6.436  0.3606 -0.2276  1.9406
  161DOPC   H5S19433   5.814   0.143   6.340 -3.1405 -2.8359  3.1473
  161DOPC   C2619434   5.850   0.362   6.338 -0.6291  0.2541  0.2777
  161DOPC   H6R19435   5.960   0.370   6.326 -0.4352  3.5912  2.7275
  161DOPC   H6S19436   5.828   0.450   6.403  1.7781  0.3365  1.0774
  161DOPC   C2719437   5.781   0.384   6.201  0.1729 -0.6859 -0.6153
  161DOPC   H7R19438   5.673   0.366   6.220  0.1825 -3.0001 -2.2588
  161DOPC   H7S19439   5.813   0.298   6.139  0.0871  0.1322 -1.8182
  161DOPC   C2819440   5.816   0.515   6.129  0.7351 -0.1057 -0.8168
  161DOPC   H8R19441   5.788   0.500   6.022  0.1182  0.0522 -0.6776
  161DOPC   H8S19442   5.925   0.537   6.133  0.6685  0.2413 -0.8626
  161DOPC   C2919443   5.750   0.634   6.205 -0.6673 -0.2115  0.7163
  161DOPC   H9R19444   5.764   0.646   6.313 -0.8728  0.9920  0.6287
  161DOPC  C21019445   5.694   0.745   6.145 -0.3139  0.0808  0.2484
  161DOPC  H10R19446   5.642   0.828   6.196 -0.1037  1.2602 -1.3585
  161DOPC  C21119447   5.678   0.755   5.997  0.2606 -0.1790 -0.6406
  161DOPC  H11R19448   5.609   0.836   5.965  1.7196 -0.1391 -4.0570
  161DOPC  H11S19449   5.632   0.658   5.967 -0.0416 -0.6877  1.3208
  161DOPC  C21219450   5.808   0.779   5.921  0.1928 -0.6687 -0.7400
  161DOPC  H12R19451   5.878   0.693   5.925 -0.2900 -1.0707 -0.7840
  161DOPC  H12S19452   5.848   0.877   5.956 -1.0340 -0.1182 -0.8232
  161DOPC  C21319453   5.765   0.789   5.771  0.3008 -0.2626  0.1448
  161DOPC  H13R19454   5.830   0.856   5.712 -2.9060  1.4323 -1.7464
  161DOPC  H13S19455   5.663   0.832   5.762 -0.1961 -1.7452 -2.0001
  161DOPC  C21419456   5.738   0.659   5.698 -0.0825 -0.1975 -0.7389
  161DOPC  H14R19457   5.679   0.594   5.765  1.1031  0.2409  0.8048
  161DOPC  H14S19458   5.830   0.597   5.687 -0.4963 -0.9048 -0.2789
  161DOPC  C21519459   5.673   0.663   5.556 -0.1199  0.9700 -0.5649
  161DOPC  H15R19460   5.574   0.714   5.551 -0.6221 -0.1051 -3.2431
  161DOPC  H15S19461   5.656   0.559   5.522  1.2356 -0.0294  1.6139
  161DOPC  C21619462   5.758   0.730   5.450  0.3520 -0.2335 -0.8724
  161DOPC  H16R19463   5.836   0.663   5.409  1.9073  1.3474 -0.6310
  161DOPC  H16S19464   5.817   0.812   5.497  0.6057 -0.4670 -0.7818
  161DOPC  C21719465   5.681   0.772   5.328 -0.0625  0.0144  0.0944
  161DOPC  H17R19466   5.758   0.810   5.258 -1.1568 -0.1472 -1.2341
  161DOPC  H17S19467   5.621   0.862   5.356 -0.2242 -0.0137 -0.1591
  161DOPC  C21819468   5.602   0.654   5.269 -0.0325  0.7284  0.4190
  161DOPC  H18R19469   5.566   0.680   5.167  1.0167  0.7148  0.0343
  161DOPC  H18S19470   5.509   0.634   5.328 -0.1607 -0.4670 -0.1533
  161DOPC  H18T19471   5.662   0.560   5.268 -0.2511  0.5063  2.6782
  161DOPC   C3319472   5.569  -0.065   6.343 -0.2917  0.0484 -0.0545
  161DOPC   H3X19473   5.668  -0.031   6.382 -0.7868  4.3507 -1.9782
  161DOPC   H3Y19474   5.497   0.018   6.352 -1.6230 -1.2700  2.1729
  161DOPC   C3419475   5.582  -0.103   6.192 -0.4573  0.1779  0.3034
  161DOPC   H4X19476   5.487  -0.154   6.165 -1.4558  2.1734 -0.1186
  161DOPC   H4Y19477   5.665  -0.175   6.174 -1.9688 -1.8358  1.0261
  161DOPC   C3519478   5.610   0.018   6.098  0.3913 -0.3231 -0.1093
  161DOPC   H5X19479   5.685   0.087   6.142 -0.6484 -0.4542  2.0130
  161DOPC   H5Y19480   5.513   0.072   6.106  2.2439  2.9733  3.0266
  161DOPC   C3619481   5.634  -0.016   5.953  0.4067  0.3020  0.3546
  161DOPC   H6X19482   5.723  -0.082   5.942 -0.9898 -1.5286 -0.6603
  161DOPC   H6Y19483   5.541  -0.062   5.913  0.4630  1.0581 -0.6861
  161DOPC   C3719484   5.642   0.112   5.869  0.4582 -0.6042  1.0002
  161DOPC   H7X19485   5.551   0.173   5.886  1.3230  1.1948 -0.4425
  161DOPC   H7Y19486   5.724   0.177   5.906  0.1061  0.6291 -0.3236
  161DOPC   C3819487   5.666   0.072   5.717  1.1244 -0.2204 -0.5496
  161DOPC   H8X19488   5.746  -0.004   5.708 -0.4752 -2.0665 -0.0084
  161DOPC   H8Y19489   5.697   0.168   5.670 -1.0794  0.0173 -1.6381
  161DOPC   C3919490   5.545   0.014   5.639  0.0298 -0.4080 -0.6061
  161DOPC   H9X19491   5.543  -0.096   5.640  0.6831 -0.4449  1.1126
  161DOPC  C31019492   5.447   0.088   5.577 -0.0926  0.0302 -0.5360
  161DOPC  H10X19493   5.376   0.035   5.512  1.2733  0.3173 -2.3566
  161DOPC  C31119494   5.457   0.242   5.566  0.3915  0.1163  0.8261
  161DOPC  H11X19495   5.535   0.289   5.631  0.9789  0.6129 -0.2111
  161DOPC  H11Y19496   5.364   0.296   5.592 -1.2335 -2.4440  0.6280
  161DOPC  C31219497   5.496   0.290   5.425 -0.1399  0.3090  1.0148
  161DOPC  H12X19498   5.602   0.265   5.399 -0.4413  1.0220 -1.1437
  161DOPC  H12Y19499   5.486   0.400   5.431 -3.6663  0.1410  0.2216
  161DOPC  C31319500   5.409   0.237   5.315 -0.2385  0.6701 -0.3090
  161DOPC  H13X19501   5.425   0.127   5.315  0.8037  0.7899 -1.9626
  161DOPC  H13Y19502   5.301   0.264   5.318 -0.3530  0.1453  1.0421
  161DOPC  C31419503   5.453   0.268   5.172 -0.5599 -0.5615  0.1138
  161DOPC  H14X19504   5.552   0.318   5.174 -0.1408 -1.3853  2.1556
  161DOPC  H14Y19505   5.471   0.172   5.119  3.0008  1.0577 -1.9725
  161DOPC  C31519506   5.350   0.360   5.105 -0.5098  0.1339  0.1637
  161DOPC  H15X19507   5.338   0.457   5.159  0.4031  1.7129 -2.2871
  161DOPC  H15Y19508   5.251   0.308   5.103  0.2379 -1.3252  0.0998
  161DOPC  C31619509   5.385   0.396   4.966 -0.7545  0.2928  0.0592
  161DOPC  H16X19510   5.346   0.496   4.939 -1.4605  0.3572  1.2653
  161DOPC  H16Y19511   5.495   0.408   4.959 -0.7342 -0.4588 -1.5391
  161DOPC  C31719512   5.342   0.285   4.873 -0.2322  0.0273 -0.4050
  161DOPC  H17X19513   5.384   0.189   4.909  1.0844  0.4673 -0.7186
  161DOPC  H17Y19514   5.231   0.282   4.880 -0.2583  0.5045 -0.5980
  161DOPC  C31819515   5.374   0.310   4.720 -0.6321 -0.1248  0.0781
  161DOPC  H18X19516   5.317   0.398   4.684 -0.3427 -1.4202 -3.9753
  161DOPC  H18Y19517   5.482   0.331   4.710 -0.7774  0.3076 -0.6200
  161DOPC  H18Z19518   5.348   0.218   4.664  2.6964  0.6071 -3.0007
  162DOPC     N19519   2.833   5.374   7.113 -0.4142 -0.1132 -0.1564
  162DOPC   C1219520   2.742   5.493   7.093 -0.4535  0.2886  0.1036
  162DOPC  H12A19521   2.797   5.583   7.116 -1.9329  1.2411  0.0705
  162DOPC  H12B19522   2.666   5.491   7.170  0.0016 -1.2367  0.5527
  162DOPC   C1319523   2.766   5.246   7.086  0.1442 -0.7500 -0.0214
  162DOPC  H13A19524   2.767   5.228   6.980  2.7216  0.9856 -0.3888
  162DOPC  H13B19525   2.831   5.167   7.122  1.0562 -0.2228 -0.4635
  162DOPC  H13C19526   2.671   5.237   7.137  0.5022  0.0106  0.8109
  162DOPC   C1419527   2.864   5.377   7.257  0.3438  0.2727  0.2236
  162DOPC  H14A19528   2.901   5.473   7.292  0.9056  0.7491 -1.5759
  162DOPC  H14B19529   2.773   5.367   7.314  0.6417 -0.6293  0.5487
  162DOPC  H14C19530   2.941   5.307   7.285 -0.5553 -0.6072  0.5197
  162DOPC   C1519531   2.947   5.391   7.029  0.5084 -0.6656  0.5868
  162DOPC  H15A19532   2.976   5.491   7.002  0.9361 -0.3710  2.0620
  162DOPC  H15B19533   2.921   5.347   6.933  0.4699 -1.0734  0.7801
  162DOPC  H15C19534   3.027   5.328   7.066  1.0123 -0.4194 -0.0696
  162DOPC   C1119535   2.672   5.501   6.961 -0.3325  0.0811  0.2450
  162DOPC  H11A19536   2.609   5.410   6.954  1.7462 -1.4516  0.2288
  162DOPC  H11B19537   2.607   5.590   6.951 -0.5769 -0.1526 -0.2417
  162DOPC     P19538   2.852   5.611   6.793 -0.1042  0.3664  0.2115
  162DOPC   O1319539   2.918   5.539   6.685 -0.6617  0.3305 -0.5509
  162DOPC   O1419540   2.942   5.664   6.898 -0.5521 -0.3886 -0.0684
  162DOPC   O1219541   2.761   5.499   6.848  0.4945  0.0953  0.5716
  162DOPC   O1119542   2.764   5.733   6.743  0.6063  0.4882 -0.3018
  162DOPC    C119543   2.640   5.707   6.682 -0.7350  0.4365  0.3156
  162DOPC    HA19544   2.599   5.808   6.663  0.8414  0.9674 -0.4374
  162DOPC    HB19545   2.574   5.638   6.740  0.5964  0.6131  2.1223
  162DOPC    C219546   2.650   5.653   6.538 -0.2063  0.1762  0.7252
  162DOPC    HS19547   2.723   5.570   6.532 -1.0528 -0.6538  1.6516
  162DOPC   O2119548   2.693   5.771   6.459 -0.1438 -0.4349 -0.4340
  162DOPC   C2119549   2.751   5.751   6.339 -0.1731 -0.8516  0.2396
  162DOPC   O2219550   2.787   5.642   6.295 -0.5358 -0.1308 -0.3753
  162DOPC   C2219551   2.767   5.887   6.266 -0.1531 -0.2927 -0.3406
  162DOPC   H2R19552   2.800   5.965   6.337  0.3327 -2.1813  1.5925
  162DOPC   H2S19553   2.664   5.908   6.229 -0.2785  2.3880  1.2926
  162DOPC    C319554   2.512   5.611   6.481  0.3997  0.1654 -0.1160
  162DOPC    HX19555   2.430   5.686   6.481  0.9300  0.7522 -1.1096
  162DOPC    HY19556   2.487   5.532   6.556  0.6744  1.5351  1.4706
  162DOPC   O3119557   2.525   5.552   6.345 -0.3782  0.0276 -0.4042
  162DOPC   C3119558   2.423   5.467   6.309 -0.0972 -0.0166 -1.2526
  162DOPC   O3219559   2.326   5.441   6.379 -0.0296  0.0839  0.0664
  162DOPC   C3219560   2.444   5.424   6.166 -0.4814  0.1077  0.5565
  162DOPC   H2X19561   2.497   5.327   6.177 -0.3061  0.2911  1.4129
  162DOPC   H2Y19562   2.345   5.403   6.119 -0.0233  1.1986 -0.9879
  162DOPC   C2319563   2.862   5.885   6.140  0.3730 -0.1730 -0.8088
  162DOPC   H3R19564   2.839   5.792   6.082 -0.4914 -1.7469  1.8692
  162DOPC   H3S19565   2.965   5.877   6.182  1.0808  0.2640 -2.3845
  162DOPC   C2419566   2.853   6.014   6.056  0.3032  0.2627 -0.4313
  162DOPC   H4R19567   2.896   6.101   6.111 -1.0972  0.1646  0.8845
  162DOPC   H4S19568   2.743   6.027   6.044  0.1011 -1.6646 -1.0371
  162DOPC   C2519569   2.920   5.989   5.917  0.3582 -0.5741 -0.2318
  162DOPC   H5R19570   2.887   6.076   5.856 -1.6968 -0.5853  0.7804
  162DOPC   H5S19571   2.881   5.896   5.871 -2.5197  1.2678 -1.8705
  162DOPC   C2619572   3.071   5.985   5.922  0.2360  0.6285  0.4532
  162DOPC   H6R19573   3.103   5.891   5.971 -0.4140  1.2150  2.0858
  162DOPC   H6S19574   3.118   6.069   5.978 -3.3790  1.1461  3.0536
  162DOPC   C2719575   3.138   5.986   5.786  0.2968  0.3030  0.6048
  162DOPC   H7R19576   3.246   5.967   5.807 -0.0422  0.5885  2.8378
  162DOPC   H7S19577   3.119   6.083   5.736 -0.5355 -1.1367 -2.0608
  162DOPC   C2819578   3.086   5.879   5.688  0.0630  0.6166  0.3395
  162DOPC   H8R19579   2.976   5.887   5.675  0.0664 -0.1089 -0.1832
  162DOPC   H8S19580   3.107   5.781   5.736 -0.7191  0.3510  0.1486
  162DOPC   C2919581   3.134   5.896   5.549  0.7780 -0.3164  0.3468
  162DOPC   H9R19582   3.086   5.984   5.504  0.6049 -0.3765  0.4158
  162DOPC  C21019583   3.195   5.804   5.472 -0.3139  0.3962  0.1775
  162DOPC  H10R19584   3.205   5.822   5.364 -0.3966  0.6378  0.2100
  162DOPC  C21119585   3.255   5.678   5.531 -0.2928 -0.0185 -0.2917
  162DOPC  H11R19586   3.255   5.686   5.641 -0.9732 -3.3609  0.0547
  162DOPC  H11S19587   3.360   5.668   5.494 -0.7415 -0.2947 -1.5647
  162DOPC  C21219588   3.178   5.546   5.502 -0.3489 -0.1046  0.1197
  162DOPC  H12R19589   3.068   5.561   5.504 -0.3452  1.1311 -2.9320
  162DOPC  H12S19590   3.205   5.463   5.570 -2.1110 -0.0893  0.9056
  162DOPC  C21319591   3.194   5.498   5.354  0.2514 -0.0132  0.0039
  162DOPC  H13R19592   3.301   5.503   5.324  0.6213 -6.1123 -1.1152
  162DOPC  H13S19593   3.140   5.561   5.280  1.1351 -0.0069 -0.6488
  162DOPC  C21419594   3.148   5.354   5.339  0.2610  0.3965 -0.2352
  162DOPC  H14R19595   3.178   5.288   5.423  0.4046  0.0918 -0.5244
  162DOPC  H14S19596   3.197   5.310   5.250  1.3167  0.2780  0.3767
  162DOPC  C21519597   3.004   5.335   5.295  0.2756  0.5035 -0.3018
  162DOPC  H15R19598   2.973   5.415   5.223 -0.6584 -1.2670 -1.9798
  162DOPC  H15S19599   2.947   5.331   5.390  0.1516 -0.4049 -0.4110
  162DOPC  C21619600   2.993   5.194   5.230  0.1837  0.5188  0.0358
  162DOPC  H16R19601   3.010   5.119   5.311 -0.4392 -0.5126 -0.7763
  162DOPC  H16S19602   3.080   5.185   5.162  0.0998 -0.6466  0.0634
  162DOPC  C21719603   2.869   5.162   5.144  0.8379 -0.3618 -0.6834
  162DOPC  H17R19604   2.894   5.066   5.094 -0.7462 -0.2489 -1.7504
  162DOPC  H17S19605   2.869   5.239   5.064  0.0448 -1.1839 -1.4985
  162DOPC  C21819606   2.731   5.145   5.215 -0.0174 -0.5252  0.2689
  162DOPC  H18R19607   2.749   5.121   5.322 -1.0213  1.3659  0.8984
  162DOPC  H18S19608   2.679   5.058   5.169  0.9722 -1.0866  0.1947
  162DOPC  H18T19609   2.670   5.236   5.197 -1.4964 -1.8741 -1.9795
  162DOPC   C3319610   2.511   5.526   6.074 -0.1088 -0.2987  0.2614
  162DOPC   H3X19611   2.521   5.490   5.970  3.0280  2.5680 -0.6121
  162DOPC   H3Y19612   2.614   5.559   6.101 -1.3449  1.9385  2.6676
  162DOPC   C3419613   2.441   5.658   6.062 -0.1005  0.2458  0.0025
  162DOPC   H4X19614   2.422   5.696   6.164  2.4732 -0.7049  0.9401
  162DOPC   H4Y19615   2.343   5.642   6.013 -0.1025  0.7732 -0.1678
  162DOPC   C3519616   2.521   5.770   5.985  0.9514 -0.5218 -0.0446
  162DOPC   H5X19617   2.622   5.779   6.031  1.0318  0.1449 -0.3378
  162DOPC   H5Y19618   2.458   5.861   5.997  1.0986 -0.3031 -0.8246
  162DOPC   C3619619   2.535   5.752   5.833 -0.6507  0.2558  0.5760
  162DOPC   H6X19620   2.623   5.814   5.806 -0.2565 -0.5184  0.0349
  162DOPC   H6Y19621   2.561   5.645   5.818  0.1045  0.6037 -0.6656
  162DOPC   C3719622   2.408   5.789   5.759  0.6744 -0.5076  0.6419
  162DOPC   H7X19623   2.320   5.732   5.797 -0.4282 -1.0812 -2.4377
  162DOPC   H7Y19624   2.398   5.897   5.780  1.2283 -0.1681 -0.7378
  162DOPC   C3819625   2.392   5.773   5.607  0.2908 -0.3820 -0.9770
  162DOPC   H8X19626   2.452   5.856   5.563  0.3410  0.4469  0.5923
  162DOPC   H8Y19627   2.282   5.789   5.599  0.3772 -0.1161 -1.7539
  162DOPC   C3919628   2.430   5.630   5.568 -0.0070  0.5732 -0.8116
  162DOPC   H9X19629   2.369   5.551   5.614 -0.5235  1.4061 -0.0278
  162DOPC  C31019630   2.527   5.594   5.482  0.0420 -0.2163  0.1715
  162DOPC  H10X19631   2.533   5.486   5.460 -2.7672 -0.2192 -0.9522
  162DOPC  C31119632   2.619   5.682   5.399 -0.7556  0.1137  0.3059
  162DOPC  H11X19633   2.590   5.789   5.391  0.6356  0.3416 -3.2091
  162DOPC  H11Y19634   2.625   5.647   5.294 -0.0347  0.4027  0.2477
  162DOPC  C31219635   2.764   5.701   5.452  0.8313 -0.2613 -0.5088
  162DOPC  H12X19636   2.806   5.608   5.495  1.6101 -0.6744 -2.1105
  162DOPC  H12Y19637   2.768   5.781   5.529  0.6988 -0.6001 -0.1433
  162DOPC  C31319638   2.858   5.717   5.329  0.1718 -0.0166 -0.6441
  162DOPC  H13X19639   2.962   5.699   5.363  0.4531  2.1651 -0.2280
  162DOPC  H13Y19640   2.836   5.638   5.254 -1.5954 -0.8582  0.6602
  162DOPC  C31419641   2.848   5.858   5.269 -0.5741  0.0431 -0.0093
  162DOPC  H14X19642   2.747   5.873   5.224 -0.5768 -0.8738 -0.3477
  162DOPC  H14Y19643   2.866   5.929   5.352 -1.3794 -1.1863  1.2717
  162DOPC  C31519644   2.969   5.897   5.178  0.6451 -0.0358  0.0657
  162DOPC  H15X19645   2.961   5.829   5.091  3.4646  1.5163 -1.5546
  162DOPC  H15Y19646   3.066   5.881   5.230  1.9405  0.6861 -1.9838
  162DOPC  C31619647   2.970   6.042   5.118 -0.2492 -0.0433  0.0346
  162DOPC  H16X19648   3.064   6.051   5.059  0.5668 -0.8842  1.1705
  162DOPC  H16Y19649   2.885   6.055   5.048  2.7867  2.7491 -3.5887
  162DOPC  C31719650   2.985   6.154   5.223 -0.4571  0.6779 -0.0871
  162DOPC  H17X19651   2.914   6.120   5.301  1.4159 -0.9051  1.0403
  162DOPC  H17Y19652   3.079   6.127   5.276 -2.2303 -4.7142  0.8889
  162DOPC  C31819653   2.968   6.301   5.185 -0.2952 -0.1643 -0.1343
  162DOPC  H18X19654   2.994   6.361   5.275  2.2722 -1.1858 -0.1150
  162DOPC  H18Y19655   3.051   6.325   5.116  0.0277  1.0085  0.6469
  162DOPC  H18Z19656   2.865   6.324   5.149 -0.5905  1.5031  1.6220
  163DOPC     N19657   2.211   1.671   7.031  0.0925 -0.0759  0.2628
  163DOPC   C1219658   2.203   1.827   7.021  0.5565  0.2059  0.6177
  163DOPC  H12A19659   2.263   1.869   7.100  0.6267  0.7738  0.2617
  163DOPC  H12B19660   2.099   1.850   7.038  0.7493 -0.2246  2.7604
  163DOPC   C1319661   2.356   1.622   7.032 -0.0171 -0.4396  0.2991
  163DOPC  H13A19662   2.408   1.661   7.118 -0.6917 -3.1392  2.0367
  163DOPC  H13B19663   2.358   1.515   7.042  0.4047 -0.2737  2.5544
  163DOPC  H13C19664   2.409   1.654   6.943 -0.2169 -1.7857 -0.3279
  163DOPC   C1419665   2.148   1.609   6.907 -0.4451  0.1132 -1.0086
  163DOPC  H14A19666   2.056   1.663   6.890  0.3813  1.0791 -2.6260
  163DOPC  H14B19667   2.211   1.621   6.820 -1.5299 -0.1493 -1.8456
  163DOPC  H14C19668   2.117   1.506   6.919  0.1239 -0.1067 -1.4044
  163DOPC   C1519669   2.156   1.632   7.160  0.2945  0.2250  0.6793
  163DOPC  H15A19670   2.140   1.526   7.143  0.7060  0.4265 -1.1532
  163DOPC  H15B19671   2.059   1.675   7.180  0.5953  0.1320  2.4770
  163DOPC  H15C19672   2.221   1.635   7.246  1.7709 -0.9594 -0.3263
  163DOPC   C1119673   2.244   1.902   6.892  0.2749  0.6935 -0.6850
  163DOPC  H11A19674   2.180   1.869   6.808 -0.8020  1.3229 -0.1363
  163DOPC  H11B19675   2.211   2.008   6.904 -1.3032  0.2732 -1.0942
  163DOPC     P19676   2.502   1.980   6.885 -0.4269 -0.1444 -0.0054
  163DOPC   O1319677   2.624   1.896   6.900 -0.2349  0.1709 -0.0853
  163DOPC   O1419678   2.480   2.075   7.002 -0.0470 -0.5265 -0.3074
  163DOPC   O1219679   2.382   1.882   6.864  0.3031 -0.1529 -0.0650
  163DOPC   O1119680   2.494   2.068   6.748 -0.1370  0.1581 -0.1623
  163DOPC    C119681   2.533   2.001   6.632  0.2226 -0.2973 -0.4363
  163DOPC    HA19682   2.474   1.909   6.613 -0.2131  0.0565 -0.8129
  163DOPC    HB19683   2.643   1.982   6.624  0.1352 -0.2979 -1.8949
  163DOPC    C219684   2.504   2.082   6.499 -0.1668  0.1473  0.4919
  163DOPC    HS19685   2.393   2.087   6.491 -0.2065 -1.5956 -0.4886
  163DOPC   O2119686   2.557   2.006   6.386  0.0195  0.1399  0.6769
  163DOPC   C2119687   2.484   1.914   6.329 -0.4112  0.1181 -0.1342
  163DOPC   O2219688   2.371   1.887   6.358  0.5095  0.1039 -0.6189
  163DOPC   C2219689   2.565   1.851   6.222 -0.0762 -0.2384  0.1609
  163DOPC   H2R19690   2.670   1.851   6.257 -0.0075  1.5010  0.0362
  163DOPC   H2S19691   2.563   1.923   6.137 -1.7678  0.4070  0.7102
  163DOPC    C319692   2.572   2.221   6.503  0.3260  0.5325 -0.4068
  163DOPC    HX19693   2.678   2.195   6.523  0.0125  0.4254  1.2425
  163DOPC    HY19694   2.534   2.282   6.587 -0.6448 -2.3743  1.4329
  163DOPC   O3119695   2.556   2.296   6.379 -0.3332  0.4242 -0.4344
  163DOPC   C3119696   2.442   2.340   6.338 -0.1471  0.0298 -0.2761
  163DOPC   O3219697   2.333   2.318   6.386 -0.3077 -0.5268  0.0307
  163DOPC   C3219698   2.481   2.438   6.221  0.1407  0.2256  0.0077
  163DOPC   H2X19699   2.566   2.499   6.258  0.1199  0.5912 -0.5408
  163DOPC   H2Y19700   2.525   2.370   6.145  2.6673  0.6382  1.0143
  163DOPC   C2319701   2.502   1.718   6.182  0.1882  0.6904  0.4058
  163DOPC   H3R19702   2.560   1.672   6.099  1.8743  1.3565  1.1714
  163DOPC   H3S19703   2.406   1.743   6.133 -0.6908 -0.7109  1.3392
  163DOPC   C2419704   2.487   1.609   6.292  0.6857 -0.9029 -0.4775
  163DOPC   H4R19705   2.412   1.645   6.365  1.4956 -2.5761  1.2693
  163DOPC   H4S19706   2.586   1.599   6.342  0.5404 -0.6754 -0.1392
  163DOPC   C2519707   2.448   1.473   6.241 -0.3870  0.4804  0.5779
  163DOPC   H5R19708   2.450   1.392   6.318 -0.2539 -0.2254 -0.1544
  163DOPC   H5S19709   2.535   1.442   6.179  0.6982 -0.2165  2.3646
  163DOPC   C2619710   2.310   1.469   6.174  0.5211 -0.1760 -0.0367
  163DOPC   H6R19711   2.303   1.546   6.094 -2.7065  0.4194  0.6879
  163DOPC   H6S19712   2.237   1.501   6.252  1.0313 -2.4225  1.4500
  163DOPC   C2719713   2.252   1.332   6.141  0.3434 -0.0181 -0.5292
  163DOPC   H7R19714   2.237   1.276   6.236 -1.0734 -0.8856 -1.2276
  163DOPC   H7S19715   2.339   1.284   6.092  0.9565  0.9597 -0.4331
  163DOPC   C2819716   2.134   1.337   6.036  0.1433 -0.6377  0.0464
  163DOPC   H8R19717   2.046   1.371   6.095 -0.5656 -0.2185 -1.2040
  163DOPC   H8S19718   2.100   1.238   5.997  2.0171 -0.9617 -0.8700
  163DOPC   C2919719   2.140   1.429   5.919  0.3042  0.3087  0.1905
  163DOPC   H9R19720   2.140   1.535   5.947  1.2739  0.0825  1.0828
  163DOPC  C21019721   2.152   1.393   5.789  0.2670 -0.7574  0.8223
  163DOPC  H10R19722   2.175   1.468   5.712  1.6512 -1.2332  0.7422
  163DOPC  C21119723   2.181   1.256   5.727  0.7506  0.2738 -0.2872
  163DOPC  H11R19724   2.143   1.166   5.779 -0.7150  0.3270 -1.2001
  163DOPC  H11S19725   2.292   1.243   5.725  0.7377  0.2133 -1.6468
  163DOPC  C21219726   2.134   1.225   5.580 -0.1225 -0.1892  0.1918
  163DOPC  H12R19727   2.177   1.307   5.519  1.9159 -0.9657  0.4969
  163DOPC  H12S19728   2.024   1.234   5.579 -0.1837 -0.3174  2.0346
  163DOPC  C21319729   2.173   1.090   5.519 -0.3706 -0.0591  0.1161
  163DOPC  H13R19730   2.140   1.012   5.591 -3.0919  0.4875 -0.4297
  163DOPC  H13S19731   2.283   1.091   5.504 -0.1952 -3.0182  0.6153
  163DOPC  C21419732   2.112   1.049   5.383 -0.1885  0.1980  0.0442
  163DOPC  H14R19733   2.142   0.948   5.348 -1.3930  0.4543 -1.8436
  163DOPC  H14S19734   2.140   1.124   5.307 -2.7840 -0.4815 -1.7046
  163DOPC  C21519735   1.959   1.052   5.378  0.0253 -0.1768 -0.9106
  163DOPC  H15R19736   1.921   1.151   5.410  3.0630  0.6451  0.5312
  163DOPC  H15S19737   1.929   0.972   5.449  0.3933  1.3843  1.0941
  163DOPC  C21619738   1.909   1.021   5.242 -0.3504 -0.3174  0.3206
  163DOPC  H16R19739   1.962   0.931   5.204  1.6911  0.0238  2.1934
  163DOPC  H16S19740   1.947   1.096   5.169  0.3744 -1.3380 -0.3849
  163DOPC  C21719741   1.756   1.008   5.220  0.4281 -0.4655 -0.6573
  163DOPC  H17R19742   1.708   1.103   5.253 -0.4872 -0.7093 -1.2394
  163DOPC  H17S19743   1.718   0.941   5.300 -2.0700 -1.3298 -2.4444
  163DOPC  C21819744   1.702   0.960   5.086 -0.4582 -0.1092  0.2208
  163DOPC  H18R19745   1.595   0.932   5.095  0.3479 -3.1078  1.7459
  163DOPC  H18S19746   1.750   0.864   5.057 -1.1282 -0.2476 -0.4471
  163DOPC  H18T19747   1.717   1.035   5.005  2.8037 -0.4345  0.3680
  163DOPC   C3319748   2.362   2.523   6.167 -0.3187 -0.4372 -0.8244
  163DOPC   H3X19749   2.316   2.584   6.249 -0.5155 -2.0885  0.3423
  163DOPC   H3Y19750   2.275   2.460   6.140 -0.4352  0.0487 -1.6049
  163DOPC   C3419751   2.390   2.613   6.048  0.2947  0.0244 -0.1063
  163DOPC   H4X19752   2.451   2.701   6.079  0.5127  0.1067 -0.7403
  163DOPC   H4Y19753   2.292   2.649   6.008 -0.4158  1.2925  2.5628
  163DOPC   C3519754   2.459   2.532   5.929 -0.6271  0.1866  0.2267
  163DOPC   H5X19755   2.407   2.434   5.935 -0.8458  0.2695 -0.2553
  163DOPC   H5Y19756   2.565   2.525   5.962 -1.2119 -0.7883  2.0824
  163DOPC   C3619757   2.444   2.589   5.788 -0.6011  0.6412  0.5368
  163DOPC   H6X19758   2.481   2.693   5.798 -2.3936  1.2675  0.9795
  163DOPC   H6Y19759   2.514   2.533   5.722 -0.0857  0.8625  0.8899
  163DOPC   C3719760   2.301   2.591   5.738  0.7246  0.4496  0.5053
  163DOPC   H7X19761   2.246   2.497   5.761  0.5340  0.2421 -0.7138
  163DOPC   H7Y19762   2.244   2.672   5.788  1.0792  0.9950  0.0466
  163DOPC   C3819763   2.290   2.633   5.578  0.5676 -0.1029 -0.4898
  163DOPC   H8X19764   2.352   2.722   5.555 -1.2195  1.2417 -0.3328
  163DOPC   H8Y19765   2.185   2.666   5.563  0.8258  2.1049  1.7891
  163DOPC   C3919766   2.338   2.520   5.485 -0.3356 -0.0698  0.2273
  163DOPC   H9X19767   2.356   2.426   5.539 -2.2564  0.1497  1.3466
  163DOPC  C31019768   2.345   2.530   5.355  0.6556  0.0786  0.2178
  163DOPC  H10X19769   2.376   2.448   5.289 -0.6661  0.1737 -0.5445
  163DOPC  C31119770   2.315   2.659   5.275  0.5600 -0.1304  0.6723
  163DOPC  H11X19771   2.394   2.665   5.198  0.4248 -0.7679  0.4780
  163DOPC  H11Y19772   2.319   2.748   5.342  1.4268 -0.3875  0.9854
  163DOPC  C31219773   2.169   2.661   5.217 -0.1602 -0.0349 -0.0345
  163DOPC  H12X19774   2.148   2.763   5.179  0.6780  0.0928 -0.1812
  163DOPC  H12Y19775   2.088   2.625   5.285  0.8671  0.6876  1.6299
  163DOPC  C31319776   2.162   2.580   5.086 -0.5617  0.6462 -0.2356
  163DOPC  H13X19777   2.263   2.565   5.043 -0.7890  1.8251 -1.2401
  163DOPC  H13Y19778   2.121   2.482   5.121  0.4605 -0.1476 -1.1974
  163DOPC  C31419779   2.069   2.635   4.985 -0.0300  0.0608 -0.1874
  163DOPC  H14X19780   2.115   2.721   4.931  1.3139  0.0904  0.9380
  163DOPC  H14Y19781   2.042   2.567   4.902 -0.9940  0.4295 -0.1795
  163DOPC  C31519782   1.941   2.693   5.044 -0.6162 -0.0425 -0.0478
  163DOPC  H15X19783   1.944   2.781   5.110  0.1686  0.2529 -0.4745
  163DOPC  H15Y19784   1.900   2.607   5.102 -0.6593 -0.1723 -0.2650
  163DOPC  C31619785   1.835   2.724   4.930 -0.8704  0.2694 -0.0748
  163DOPC  H16X19786   1.867   2.814   4.873  0.0122  0.2247  0.3332
  163DOPC  H16Y19787   1.826   2.634   4.867 -1.3062  0.4856 -0.3271
  163DOPC  C31719788   1.697   2.750   4.996 -0.1215  0.2095  0.5946
  163DOPC  H17X19789   1.668   2.658   5.051  1.4360 -1.4174 -1.1562
  163DOPC  H17Y19790   1.715   2.840   5.058  0.8482  1.1399 -0.9518
  163DOPC  C31819791   1.578   2.789   4.904  0.9163 -0.1936 -0.0637
  163DOPC  H18X19792   1.559   2.700   4.840  1.4768 -0.3509 -0.0211
  163DOPC  H18Y19793   1.492   2.823   4.965 -0.8486  0.2492 -2.6579
  163DOPC  H18Z19794   1.616   2.869   4.836  1.8576  0.2420  0.9420
  164DOPC     N19795   3.458   7.664   7.527  0.0090  0.3584  0.0415
  164DOPC   C1219796   3.452   7.698   7.375  0.1334  0.2806  0.5144
  164DOPC  H12A19797   3.376   7.639   7.326 -1.4053  2.3654  0.2088
  164DOPC  H12B19798   3.550   7.679   7.336 -0.1061  0.1169 -0.0205
  164DOPC   C1319799   3.574   7.736   7.588  0.2872  0.4295  0.2057
  164DOPC  H13A19800   3.585   7.716   7.694  0.6707  1.6454  0.4179
  164DOPC  H13B19801   3.662   7.720   7.528 -0.0095  1.3276 -0.4863
  164DOPC  H13C19802   3.546   7.840   7.586 -0.5303  0.1981 -1.1157
  164DOPC   C1419803   3.481   7.516   7.532  0.2644 -0.1703  0.0107
  164DOPC  H14A19804   3.573   7.494   7.480  0.0599  0.1434 -0.4891
  164DOPC  H14B19805   3.496   7.472   7.630  1.3061  0.6751  0.2599
  164DOPC  H14C19806   3.399   7.468   7.482  0.5006 -2.2647  1.4911
  164DOPC   C1519807   3.335   7.708   7.595 -0.4174 -0.4798 -0.0261
  164DOPC  H15A19808   3.244   7.678   7.545 -1.9842  0.3725  2.1455
  164DOPC  H15B19809   3.329   7.816   7.594 -1.7403 -0.5373 -0.1341
  164DOPC  H15C19810   3.323   7.682   7.699 -2.3830  1.8866  0.4196
  164DOPC   C1119811   3.424   7.843   7.318 -0.3151 -0.3762 -0.1328
  164DOPC  H11A19812   3.496   7.911   7.370 -1.9203  2.0328 -0.8820
  164DOPC  H11B19813   3.435   7.838   7.208  0.6944 -0.9922 -0.0212
  164DOPC     P19814   3.245   8.019   7.380  0.2265 -0.0172 -0.2609
  164DOPC   O1319815   3.323   8.065   7.496  0.1320  0.6545 -0.5782
  164DOPC   O1419816   3.097   8.008   7.389  0.1783 -0.1294 -0.8128
  164DOPC   O1219817   3.291   7.873   7.347  0.6472  0.7959  0.0409
  164DOPC   O1119818   3.278   8.096   7.248 -0.4612  0.2711  0.0593
  164DOPC    C119819   3.197   8.107   7.135 -0.1506  0.3787  0.4269
  164DOPC    HA19820   3.230   8.198   7.080  0.2782 -0.1074 -0.1261
  164DOPC    HB19821   3.088   8.115   7.155 -0.4358 -0.6071 -0.6830
  164DOPC    C219822   3.234   7.994   7.035 -0.1744 -0.6399 -0.2213
  164DOPC    HS19823   3.222   7.898   7.089 -1.9157 -1.4221 -1.8462
  164DOPC   O2119824   3.361   8.022   6.978  0.1982 -0.4813  0.1101
  164DOPC   C2119825   3.425   7.922   6.914  0.1806 -0.4946  0.8460
  164DOPC   O2219826   3.393   7.807   6.921 -0.4802  0.4187  0.0626
  164DOPC   C2219827   3.549   7.987   6.853  0.0935 -0.2021  0.3231
  164DOPC   H2R19828   3.633   7.930   6.898  1.0935  0.7408 -0.3157
  164DOPC   H2S19829   3.554   8.096   6.874  2.4301  0.3603 -2.4992
  164DOPC    C319830   3.136   7.996   6.911 -0.4758 -0.4979 -0.0032
  164DOPC    HX19831   3.156   8.078   6.839 -4.6467  1.3094  0.6474
  164DOPC    HY19832   3.039   8.037   6.944  0.0271  0.5134  0.2657
  164DOPC   O3119833   3.128   7.874   6.836  0.4231  0.0486 -0.7564
  164DOPC   C3119834   3.069   7.775   6.897 -0.3828 -0.0811 -0.5032
  164DOPC   O3219835   3.013   7.770   7.005  0.3100 -0.5659  0.0522
  164DOPC   C3219836   3.086   7.649   6.814  0.2233 -0.4759 -0.3282
  164DOPC   H2X19837   3.185   7.654   6.763 -0.0631  0.4191 -0.8091
  164DOPC   H2Y19838   3.075   7.565   6.886 -0.1313 -0.8072 -0.7596
  164DOPC   C2319839   3.551   7.974   6.700  0.3316  0.1539  0.7122
  164DOPC   H3R19840   3.557   7.865   6.678  0.3302  0.5253 -1.3155
  164DOPC   H3S19841   3.637   8.027   6.654 -1.4144  2.4843 -0.1035
  164DOPC   C2419842   3.423   8.028   6.639  0.7619  0.6691  1.3363
  164DOPC   H4R19843   3.430   8.137   6.658 -0.9847  1.5339 -2.1115
  164DOPC   H4S19844   3.329   7.986   6.682 -1.0120  4.1341  1.2006
  164DOPC   C2519845   3.429   8.003   6.483 -0.0098 -0.5621 -0.1592
  164DOPC   H5R19846   3.474   7.905   6.460  1.6285  0.6577 -2.4454
  164DOPC   H5S19847   3.507   8.065   6.434 -0.3426 -0.3740 -0.4555
  164DOPC   C2619848   3.300   8.018   6.407 -0.1498 -0.5034  0.4548
  164DOPC   H6R19849   3.228   7.935   6.420 -1.2578  0.6022  1.5921
  164DOPC   H6S19850   3.313   7.998   6.298  1.0783 -1.1881  0.7027
  164DOPC   C2719851   3.225   8.155   6.412 -0.3376  0.3981 -0.3270
  164DOPC   H7R19852   3.291   8.233   6.370  1.7939 -0.9649  0.3175
  164DOPC   H7S19853   3.196   8.183   6.516  0.2683 -2.9189  0.8682
  164DOPC   C2819854   3.103   8.146   6.315  0.1030  0.5002 -0.0169
  164DOPC   H8R19855   3.024   8.083   6.360 -1.3886  3.0512  1.1770
  164DOPC   H8S19856   3.131   8.088   6.224  0.1720 -1.7103  1.3377
  164DOPC   C2919857   3.032   8.279   6.304  0.4573 -0.0816  0.2169
  164DOPC   H9R19858   2.991   8.319   6.397  1.1479 -0.2721  0.6070
  164DOPC  C21019859   3.033   8.360   6.194 -0.3266  0.1663  0.3955
  164DOPC  H10R19860   2.975   8.453   6.196  1.7502  1.5953 -1.1785
  164DOPC  C21119861   3.086   8.332   6.050  0.5797  0.1642 -0.2339
  164DOPC  H11R19862   3.096   8.222   6.041 -0.1513  0.0772 -0.0727
  164DOPC  H11S19863   3.192   8.365   6.044  0.1642  1.2885 -2.1167
  164DOPC  C21219864   2.987   8.386   5.942 -0.6005  0.3962  0.1898
  164DOPC  H12R19865   2.970   8.496   5.952  0.2954  0.4552  1.1658
  164DOPC  H12S19866   2.885   8.342   5.955 -0.5764  0.5683  1.0458
  164DOPC  C21319867   3.036   8.358   5.790  0.0875  0.0252  0.7955
  164DOPC  H13R19868   3.035   8.251   5.762 -1.4453  0.3602 -0.5662
  164DOPC  H13S19869   3.144   8.383   5.782 -0.1988  0.6751 -2.8356
  164DOPC  C21419870   2.961   8.438   5.679  0.4096  0.0121 -0.3181
  164DOPC  H14R19871   2.937   8.541   5.714 -0.0078 -0.5248  1.0582
  164DOPC  H14S19872   2.864   8.387   5.664  0.7811 -0.5067 -1.0157
  164DOPC  C21519873   3.044   8.454   5.554 -0.2280 -0.3144  0.1490
  164DOPC  H15R19874   3.072   8.356   5.510  0.8934 -0.2288  0.6320
  164DOPC  H15S19875   3.137   8.513   5.574  0.3999 -0.8540 -1.0896
  164DOPC  C21619876   2.963   8.528   5.445 -0.0641 -0.2102 -0.7858
  164DOPC  H16R19877   2.934   8.623   5.494  0.3240  0.1485 -1.2414
  164DOPC  H16S19878   2.879   8.460   5.422  0.4989 -1.1531 -0.1135
  164DOPC  C21719879   3.037   8.555   5.316 -0.1802  0.2797  0.6552
  164DOPC  H17R19880   3.124   8.620   5.336 -0.3713  0.1248  2.0859
  164DOPC  H17S19881   2.968   8.620   5.258  0.1925  3.0453  3.0944
  164DOPC  C21819882   3.080   8.435   5.234 -0.0546 -0.9667 -0.8384
  164DOPC  H18R19883   3.026   8.343   5.265  0.1157 -1.5448 -2.1763
  164DOPC  H18S19884   3.189   8.416   5.241 -0.0941 -0.5229  2.9645
  164DOPC  H18T19885   3.040   8.451   5.131 -2.7010 -0.2516  0.2097
  164DOPC   C3319886   2.976   7.639   6.710  1.3969 -0.2505 -0.5994
  164DOPC   H3X19887   2.875   7.639   6.756  1.9029 -1.4019  0.5693
  164DOPC   H3Y19888   2.996   7.539   6.666 -0.3341 -0.3015 -1.3490
  164DOPC   C3419889   2.981   7.737   6.596 -0.0120  0.1327  0.2603
  164DOPC   H4X19890   3.085   7.722   6.560 -0.0247 -2.0012  0.9452
  164DOPC   H4Y19891   2.980   7.847   6.614  0.8920  0.3377 -0.8376
  164DOPC   C3519892   2.891   7.693   6.483 -0.4180  0.3036 -0.0222
  164DOPC   H5X19893   2.791   7.679   6.530  0.3658 -0.0550  1.6132
  164DOPC   H5Y19894   2.921   7.596   6.437 -1.3132  0.4666 -0.9986
  164DOPC   C3619895   2.888   7.788   6.359 -0.3485 -1.0165  0.0143
  164DOPC   H6X19896   2.828   7.878   6.386  0.4912 -0.4605  0.0680
  164DOPC   H6Y19897   2.990   7.823   6.332 -0.5921 -0.6361 -0.4304
  164DOPC   C3719898   2.812   7.733   6.236 -0.1187 -0.4876 -0.0387
  164DOPC   H7X19899   2.852   7.637   6.197 -1.5304 -0.5604 -1.4091
  164DOPC   H7Y19900   2.709   7.709   6.270  0.1982 -0.0027  1.3261
  164DOPC   C3819901   2.781   7.841   6.131  0.2068  0.5546 -0.1219
  164DOPC   H8X19902   2.705   7.902   6.185  0.1624 -1.5694  2.4023
  164DOPC   H8Y19903   2.724   7.791   6.049 -0.4929  0.3766  0.4611
  164DOPC   C3919904   2.900   7.926   6.088 -0.2923 -0.5197 -0.5929
  164DOPC   H9X19905   2.926   7.996   6.169  0.5573 -1.4036 -0.0780
  164DOPC  C31019906   2.959   7.940   5.970 -0.2665 -0.4023 -0.2251
  164DOPC  H10X19907   3.053   7.996   5.964  0.8596 -2.1097  0.7941
  164DOPC  C31119908   2.892   7.886   5.842  0.5770 -0.5892 -0.4674
  164DOPC  H11X19909   2.792   7.841   5.856 -0.7530  2.0508 -0.7039
  164DOPC  H11Y19910   2.955   7.812   5.789 -1.3952  0.1142 -4.1452
  164DOPC  C31219911   2.885   8.007   5.738  0.4862  0.9294 -0.0236
  164DOPC  H12X19912   2.993   8.021   5.713  0.9377 -0.1706  1.1969
  164DOPC  H12Y19913   2.833   8.094   5.783  0.1864  1.9433 -2.1983
  164DOPC  C31319914   2.817   7.974   5.608 -0.3070 -0.2089  0.3492
  164DOPC  H13X19915   2.873   7.898   5.550  0.1616 -1.6152  2.5126
  164DOPC  H13Y19916   2.720   7.928   5.635  0.7715 -2.6723  0.2117
  164DOPC  C31419917   2.785   8.091   5.515 -0.1920 -0.2117 -0.0533
  164DOPC  H14X19918   2.747   8.171   5.582  1.3346  0.0440  0.5493
  164DOPC  H14Y19919   2.700   8.053   5.454  0.9983 -4.3105  0.5870
  164DOPC  C31519920   2.895   8.143   5.422  1.1940 -0.2368  0.3230
  164DOPC  H15X19921   2.984   8.135   5.487  0.7217 -1.4593  0.8604
  164DOPC  H15Y19922   2.879   8.246   5.383  1.3988 -0.1487  0.4746
  164DOPC  C31619923   2.926   8.043   5.307  0.1363 -0.6596  0.2017
  164DOPC  H16X19924   3.035   8.025   5.302  0.8959  3.2410 -0.8810
  164DOPC  H16Y19925   2.880   7.946   5.334 -1.8816 -0.2663 -1.5910
  164DOPC  C31719926   2.881   8.093   5.170 -0.0716  0.6024 -0.2480
  164DOPC  H17X19927   2.781   8.141   5.165 -0.1366  0.3509 -2.3243
  164DOPC  H17Y19928   2.961   8.162   5.137  1.9424 -1.5478 -0.0761
  164DOPC  C31819929   2.888   7.983   5.062 -0.6797  0.0816 -0.3333
  164DOPC  H18X19930   2.991   7.943   5.050 -0.7119 -0.6800  1.5013
  164DOPC  H18Y19931   2.820   7.897   5.080 -1.0606 -0.1917 -2.7062
  164DOPC  H18Z19932   2.844   8.028   4.970 -0.6299  2.3980  0.7025
  165DOPC     N19933   0.082   1.289   6.906 -0.1598 -0.1588  0.6774
  165DOPC   C1219934  -0.058   1.242   6.856 -0.5921 -0.5504  0.2326
  165DOPC  H12A19935  -0.095   1.308   6.779 -3.8582 -2.0127  0.4121
  165DOPC  H12B19936  -0.124   1.254   6.940  1.4430  0.4076  1.7883
  165DOPC   C1319937   0.186   1.299   6.801 -0.0054  0.6037  0.1199
  165DOPC  H13A19938   0.289   1.305   6.830  2.1771  0.7292 -6.1321
  165DOPC  H13B19939   0.181   1.207   6.745 -1.1820  0.9729 -0.4343
  165DOPC  H13C19940   0.177   1.382   6.732  2.7583  0.4504 -0.5112
  165DOPC   C1419941   0.131   1.184   7.000  1.0690 -0.3353 -1.2322
  165DOPC  H14A19942   0.225   1.212   7.046 -1.3880  3.5697  2.0597
  165DOPC  H14B19943   0.064   1.168   7.082 -0.5030  1.4778 -2.0695
  165DOPC  H14C19944   0.138   1.090   6.947  0.5510 -1.3436  0.4397
  165DOPC   C1519945   0.051   1.418   6.972 -0.0193  0.1963 -0.2350
  165DOPC  H15A19946  -0.037   1.404   7.033 -0.9454  0.2679 -1.5090
  165DOPC  H15B19947   0.021   1.494   6.902 -2.3397  0.8437  1.3460
  165DOPC  H15C19948   0.139   1.442   7.030 -0.3678 -0.3116  0.5299
  165DOPC   C1119949  -0.072   1.105   6.799  0.2227 -0.1002 -0.0089
  165DOPC  H11A19950  -0.172   1.093   6.753  0.4110 -2.2832  0.0564
  165DOPC  H11B19951   0.004   1.078   6.722 -0.2095  1.7691 -1.1510
  165DOPC     P19952  -0.191   0.967   7.011 -0.3297  0.2494 -0.1124
  165DOPC   O1319953  -0.227   1.094   7.086  0.5324  0.1861  0.1677
  165DOPC   O1419954  -0.153   0.852   7.103  0.2943 -0.2035  0.2082
  165DOPC   O1219955  -0.069   1.006   6.907  0.7905 -0.5382  0.2511
  165DOPC   O1119956  -0.325   0.934   6.927  0.1501 -0.3682 -0.3482
  165DOPC    C119957  -0.309   0.847   6.816  1.0723 -0.7774  0.2996
  165DOPC    HA19958  -0.232   0.768   6.832  1.8966  0.1133  0.8004
  165DOPC    HB19959  -0.280   0.895   6.721 -0.8448  1.8134  0.9255
  165DOPC    C219960  -0.435   0.763   6.782  0.0437 -0.3679 -0.3656
  165DOPC    HS19961  -0.464   0.706   6.873  1.6357 -0.1326  0.3264
  165DOPC   O2119962  -0.398   0.680   6.671 -0.1667  0.1415  0.2960
  165DOPC   C2119963  -0.492   0.582   6.647  0.0622 -0.4963  0.2293
  165DOPC   O2219964  -0.586   0.553   6.714 -0.5517 -0.5047  0.5736
  165DOPC   C2219965  -0.482   0.539   6.497 -0.1620  0.1810 -0.5604
  165DOPC   H2R19966  -0.579   0.490   6.474  0.0825 -0.1260 -0.9627
  165DOPC   H2S19967  -0.399   0.466   6.482  1.8324  2.3649 -0.6673
  165DOPC    C319968  -0.566   0.849   6.746  0.0591  1.0596  0.2809
  165DOPC    HX19969  -0.575   0.930   6.822  0.2169  0.3550  1.0583
  165DOPC    HY19970  -0.656   0.785   6.750  0.9144 -0.2551 -0.6136
  165DOPC   O3119971  -0.558   0.903   6.613 -0.3079  0.2534  0.1803
  165DOPC   C3119972  -0.631   1.016   6.581 -0.7195 -0.9188  0.3428
  165DOPC   O3219973  -0.702   1.078   6.661 -0.4210 -0.3423  0.0544
  165DOPC   C3219974  -0.574   1.059   6.439  0.7062 -0.0633 -0.1817
  165DOPC   H2X19975  -0.464   1.068   6.454  0.4777  3.8897  0.0295
  165DOPC   H2Y19976  -0.592   0.971   6.373 -0.4825 -0.7722  1.0379
  165DOPC   C2319977  -0.459   0.654   6.404  0.0214  0.9647  0.0470
  165DOPC   H3R19978  -0.377   0.722   6.435  0.9835  0.6460 -1.6761
  165DOPC   H3S19979  -0.543   0.727   6.402  0.7692  1.8456 -0.1118
  165DOPC   C2419980  -0.420   0.600   6.264  0.1220  0.0527 -0.8519
  165DOPC   H4R19981  -0.495   0.522   6.242 -2.0284  1.7093  0.2890
  165DOPC   H4S19982  -0.321   0.549   6.271 -0.7569 -2.0611 -2.9227
  165DOPC   C2519983  -0.427   0.709   6.161  0.1351  1.0109 -0.1636
  165DOPC   H5R19984  -0.390   0.806   6.202 -1.0120  0.9155  1.1479
  165DOPC   H5S19985  -0.534   0.726   6.138 -0.1969 -1.0610 -0.3447
  165DOPC   C2619986  -0.360   0.682   6.026 -0.8207  0.8114 -0.1980
  165DOPC   H6R19987  -0.399   0.586   5.988  1.8652 -0.1721 -0.6896
  165DOPC   H6S19988  -0.251   0.665   6.039 -1.0344 -0.6089 -0.1397
  165DOPC   C2719989  -0.376   0.789   5.928  0.4480 -0.0777  0.5290
  165DOPC   H7R19990  -0.307   0.872   5.952  0.8313  0.1873 -1.3690
  165DOPC   H7S19991  -0.483   0.821   5.935  0.3207 -0.5944  1.0883
  165DOPC   C2819992  -0.348   0.740   5.778 -0.4659  0.0404 -0.2340
  165DOPC   H8R19993  -0.405   0.648   5.752  1.5270 -1.7274  1.2340
  165DOPC   H8S19994  -0.240   0.715   5.778  0.0387  1.9605  1.8385
  165DOPC   C2919995  -0.353   0.849   5.677 -0.1327 -0.0839 -0.0138
  165DOPC   H9R19996  -0.276   0.927   5.690  0.3540 -0.3243 -1.3566
  165DOPC  C21019997  -0.423   0.848   5.556  0.2104 -0.0526  0.6527
  165DOPC  H10R19998  -0.431   0.947   5.509 -0.7690 -0.0137  0.8802
  165DOPC  C21119999  -0.534   0.752   5.525 -0.1506 -0.5702  0.9004
  165DOPC  H11R20000  -0.633   0.791   5.554 -0.5715 -0.1354 -1.0178
  165DOPC  H11S20001  -0.521   0.653   5.573 -0.2372 -1.9479 -1.7168
  165DOPC  C21220002  -0.551   0.723   5.372 -0.1152 -0.7371  0.3144
  165DOPC  H12R20003  -0.605   0.626   5.368 -1.7173  0.0522  1.5284
  165DOPC  H12S20004  -0.454   0.716   5.317  1.1362  1.4267  2.0757
  165DOPC  C21320005  -0.635   0.829   5.298  0.3256  0.0437 -0.2952
  165DOPC  H13R20006  -0.593   0.930   5.315  1.9800 -0.7206  0.3090
  165DOPC  H13S20007  -0.735   0.836   5.347 -1.4845 -0.6023 -3.5912
  165DOPC  C21420008  -0.648   0.818   5.147  0.5352 -0.0147 -0.3285
  165DOPC  H14R20009  -0.673   0.717   5.108 -1.2051  0.8880 -1.7434
  165DOPC  H14S20010  -0.552   0.844   5.098  1.0006  0.3351  0.7554
  165DOPC  C21520011  -0.755   0.916   5.099  0.1134 -0.2748  0.3907
  165DOPC  H15R20012  -0.852   0.904   5.151 -0.5011  0.4939 -0.5336
  165DOPC  H15S20013  -0.768   0.912   4.989  0.0631 -0.9254  0.4170
  165DOPC  C21620014  -0.713   1.066   5.117  0.4710 -0.1386  0.1117
  165DOPC  H16R20015  -0.631   1.089   5.044  0.7143 -2.0517 -0.2720
  165DOPC  H16S20016  -0.675   1.093   5.218  0.1916 -2.9385  1.0319
  165DOPC  C21720017  -0.824   1.166   5.089 -0.4454 -0.2233  0.0125
  165DOPC  H17R20018  -0.802   1.261   5.143 -0.5270  0.5259 -1.2504
  165DOPC  H17S20019  -0.917   1.121   5.131 -1.0772 -1.6409 -2.7213
  165DOPC  C21820020  -0.837   1.187   4.942 -0.8254  0.5806 -0.3685
  165DOPC  H18R20021  -0.868   1.091   4.896  1.3867 -0.0550 -0.6466
  165DOPC  H18S20022  -0.744   1.215   4.888 -0.0118  0.9941  1.1744
  165DOPC  H18T20023  -0.901   1.276   4.922 -0.4767  0.6292 -1.2882
  165DOPC   C3320024  -0.628   1.191   6.391  0.4834 -0.5739 -0.3483
  165DOPC   H3X20025  -0.583   1.268   6.458  0.2499  1.2477 -2.1591
  165DOPC   H3Y20026  -0.739   1.200   6.392  0.4115 -0.9088 -2.2585
  165DOPC   C3420027  -0.586   1.221   6.240  0.8088  0.5251 -0.6724
  165DOPC   H4X20028  -0.479   1.196   6.230  1.6061  1.2938  3.7274
  165DOPC   H4Y20029  -0.601   1.330   6.220 -0.0318  1.0400  2.1968
  165DOPC   C3520030  -0.674   1.140   6.138 -1.1234  0.2598  1.0669
  165DOPC   H5X20031  -0.778   1.177   6.144 -1.5306 -0.9001  1.5163
  165DOPC   H5Y20032  -0.665   1.033   6.168  1.8421 -0.5332 -2.0283
  165DOPC   C3620033  -0.621   1.157   5.995 -0.3467  0.4931  0.0298
  165DOPC   H6X20034  -0.594   1.261   5.967  0.8934  0.2629  0.2870
  165DOPC   H6Y20035  -0.525   1.100   6.003 -0.2592  0.8801  3.7010
  165DOPC   C3720036  -0.718   1.099   5.900  0.2595  0.7756 -0.1463
  165DOPC   H7X20037  -0.796   1.175   5.875 -0.5027  0.4428  1.1760
  165DOPC   H7Y20038  -0.769   1.012   5.946  0.8775  0.4369 -0.0989
  165DOPC   C3820039  -0.655   1.053   5.762 -0.5770 -0.4484 -0.6387
  165DOPC   H8X20040  -0.588   0.964   5.771  0.3203  0.2165 -0.5507
  165DOPC   H8Y20041  -0.588   1.136   5.731  2.0987 -1.5657  1.7168
  165DOPC   C3920042  -0.756   1.034   5.655  0.0420 -0.1740 -0.3088
  165DOPC   H9X20043  -0.797   0.935   5.632  0.4752 -0.1893 -1.0315
  165DOPC  C31020044  -0.805   1.137   5.576  0.2053  0.3187 -0.4571
  165DOPC  H10X20045  -0.890   1.115   5.510  0.0973 -1.1948  0.1229
  165DOPC  C31120046  -0.771   1.287   5.579 -0.2435  0.4598 -0.6206
  165DOPC  H11X20047  -0.686   1.311   5.647 -0.5777  0.4143 -0.1772
  165DOPC  H11Y20048  -0.858   1.337   5.627 -0.6503  1.0475 -1.9411
  165DOPC  C31220049  -0.745   1.351   5.439 -0.4654  0.1099 -0.0204
  165DOPC  H12X20050  -0.842   1.345   5.384 -0.3939 -0.5956 -0.0722
  165DOPC  H12Y20051  -0.667   1.291   5.388 -0.3862  1.2031 -1.2252
  165DOPC  C31320052  -0.696   1.497   5.446 -1.3399 -0.3752 -0.0883
  165DOPC  H13X20053  -0.760   1.559   5.511  0.0943  2.1082 -0.9260
  165DOPC  H13Y20054  -0.594   1.503   5.490 -1.1119  0.2431 -0.6749
  165DOPC  C31420055  -0.687   1.576   5.305 -0.2537 -0.2622 -0.4074
  165DOPC  H14X20056  -0.629   1.669   5.318  0.8059 -1.1318  1.5740
  165DOPC  H14Y20057  -0.632   1.517   5.228  1.1325 -0.7043  0.8716
  165DOPC  C31520058  -0.831   1.615   5.263 -0.2002 -0.4373  0.1262
  165DOPC  H15X20059  -0.871   1.703   5.317 -0.9833 -0.2661 -0.7101
  165DOPC  H15Y20060  -0.908   1.541   5.294 -0.7282  1.0040  2.4416
  165DOPC  C31620061  -0.837   1.651   5.108 -0.0727  0.3695 -0.1319
  165DOPC  H16X20062  -0.764   1.732   5.090 -0.2172  0.1589 -1.8065
  165DOPC  H16Y20063  -0.809   1.560   5.050 -1.6959 -0.6192  0.5506
  165DOPC  C31720064  -0.968   1.719   5.074  0.5176 -0.4968  0.3051
  165DOPC  H17X20065  -1.061   1.664   5.100 -0.9237  1.9038  0.5506
  165DOPC  H17Y20066  -0.967   1.821   5.118  1.2095 -0.3609 -0.0075
  165DOPC  C31820067  -0.992   1.746   4.926  0.5172  0.8190 -0.1241
  165DOPC  H18X20068  -1.101   1.756   4.908  0.3327 -1.3033 -0.5080
  165DOPC  H18Y20069  -0.930   1.823   4.875  1.8091 -0.2400 -0.2104
  165DOPC  H18Z20070  -0.969   1.656   4.865  2.9956  0.3475  1.3632
  166DOPC     N20071   0.465   2.897   7.205  0.2411  0.2621  0.0455
  166DOPC   C1220072   0.398   2.906   7.070  0.8176  0.1132  0.6436
  166DOPC  H12A20073   0.410   3.003   7.023  2.3405 -0.6108 -0.5537
  166DOPC  H12B20074   0.291   2.894   7.080  0.9414 -0.4309  1.3773
  166DOPC   C1320075   0.612   2.917   7.197 -0.3325  0.1923  0.2739
  166DOPC  H13A20076   0.657   2.857   7.119 -2.4243 -1.0573 -0.0584
  166DOPC  H13B20077   0.630   3.022   7.183  2.1186 -0.6151 -4.9310
  166DOPC  H13C20078   0.656   2.887   7.291 -0.2876  2.3763  1.0031
  166DOPC   C1420079   0.435   2.764   7.266  0.1119  0.1839 -0.4040
  166DOPC  H14A20080   0.444   2.762   7.374  0.8537  1.9912 -0.4025
  166DOPC  H14B20081   0.332   2.736   7.252  0.0441 -1.1454  2.0754
  166DOPC  H14C20082   0.499   2.690   7.220  0.8759 -0.4937  1.6353
  166DOPC   C1520083   0.412   3.004   7.295  0.7618 -0.4368 -0.3366
  166DOPC  H15A20084   0.462   2.996   7.391  0.0147 -2.6574 -0.0587
  166DOPC  H15B20085   0.304   2.996   7.300  0.5277  0.4828 -2.7892
  166DOPC  H15C20086   0.423   3.102   7.251 -0.5251  0.4164  1.1620
  166DOPC   C1120087   0.439   2.795   6.972  0.4834  0.5084 -0.4462
  166DOPC  H11A20088   0.418   2.842   6.873 -1.1181  3.5601  1.1904
  166DOPC  H11B20089   0.547   2.769   6.979  0.0468 -1.3645 -0.2745
  166DOPC     P20090   0.213   2.651   7.000 -0.4449 -0.7915 -0.3107
  166DOPC   O1320091   0.150   2.739   7.101  0.1246 -0.1301  0.1518
  166DOPC   O1420092   0.181   2.507   7.015 -0.0137 -0.2137  0.4846
  166DOPC   O1220093   0.366   2.678   7.002 -0.7167 -0.5427  0.2891
  166DOPC   O1120094   0.164   2.703   6.860  0.2251  0.3828  0.5588
  166DOPC    C120095   0.221   2.655   6.735 -0.4517 -0.7126 -0.5351
  166DOPC    HA20096   0.328   2.631   6.750 -0.6136 -0.0858  2.1769
  166DOPC    HB20097   0.207   2.738   6.663 -1.6370  0.1596  0.6401
  166DOPC    C220098   0.140   2.532   6.671 -0.2831  0.0471 -0.2976
  166DOPC    HS20099   0.178   2.440   6.721  0.1630  0.2723 -0.2148
  166DOPC   O2120100   0.154   2.535   6.525 -0.2898 -0.2979  0.4428
  166DOPC   C2120101   0.180   2.414   6.468 -0.4226  0.4224 -0.3208
  166DOPC   O2220102   0.193   2.311   6.536 -0.0758 -0.4822 -0.1859
  166DOPC   C2220103   0.199   2.429   6.325 -0.0956 -0.3181 -0.5139
  166DOPC   H2R20104   0.159   2.335   6.280 -2.0038  1.4859 -2.8759
  166DOPC   H2S20105   0.307   2.441   6.305 -0.5219  0.8447 -2.4447
  166DOPC    C320106  -0.013   2.547   6.704 -0.3378  0.4071 -0.0303
  166DOPC    HX20107  -0.042   2.651   6.679  1.2038  1.0268  0.5998
  166DOPC    HY20108  -0.030   2.528   6.813  0.4406  1.2675  0.2511
  166DOPC   O3120109  -0.100   2.454   6.628  0.1172 -0.0147  0.6628
  166DOPC   C3120110  -0.107   2.333   6.664  0.0673  0.4437 -0.4800
  166DOPC   O3220111  -0.041   2.277   6.753  0.5530 -0.1287  0.0657
  166DOPC   C3220112  -0.210   2.258   6.584 -0.1826 -0.5930  0.3685
  166DOPC   H2X20113  -0.278   2.193   6.643  0.6668  0.1949  2.3142
  166DOPC   H2Y20114  -0.279   2.331   6.536  1.8722  1.3390  0.2039
  166DOPC   C2320115   0.135   2.546   6.249 -0.3121  0.3136  0.0491
  166DOPC   H3R20116   0.201   2.632   6.273  0.4174 -0.8256  2.4099
  166DOPC   H3S20117   0.030   2.560   6.285 -0.4934 -0.7626 -0.0314
  166DOPC   C2420118   0.118   2.526   6.102 -0.1286 -0.1184 -0.2607
  166DOPC   H4R20119   0.051   2.612   6.076  1.0740  1.3816  1.3238
  166DOPC   H4S20120   0.062   2.435   6.073 -1.8904  1.6540 -2.9261
  166DOPC   C2520121   0.245   2.531   6.022  1.1923 -0.6549 -0.9196
  166DOPC   H5R20122   0.305   2.442   6.051  3.6658  0.9608 -0.7759
  166DOPC   H5S20123   0.299   2.627   6.036  0.8690 -0.6315  0.2929
  166DOPC   C2620124   0.210   2.517   5.873  0.6206 -0.1034  0.3426
  166DOPC   H6R20125   0.142   2.599   5.845 -1.7847 -2.0802  0.0438
  166DOPC   H6S20126   0.152   2.428   5.842 -2.4480  2.1947 -0.9815
  166DOPC   C2720127   0.340   2.519   5.792 -0.4905 -0.3935 -0.7629
  166DOPC   H7R20128   0.387   2.419   5.807 -1.2916 -0.3837  2.5388
  166DOPC   H7S20129   0.407   2.602   5.825  0.2630 -1.8463  1.6663
  166DOPC   C2820130   0.308   2.510   5.647  0.1129  0.1050 -0.2582
  166DOPC   H8R20131   0.266   2.611   5.626 -0.5928  0.1254  1.1434
  166DOPC   H8S20132   0.230   2.432   5.633 -1.1421  1.2226  0.2309
  166DOPC   C2920133   0.431   2.487   5.561 -0.0539 -0.5678 -0.3074
  166DOPC   H9R20134   0.509   2.564   5.550 -0.4798 -0.1843 -0.6654
  166DOPC  C21020135   0.452   2.379   5.483  0.3404  0.3443  0.0779
  166DOPC  H10R20136   0.550   2.376   5.433  1.2005  1.2238  1.6151
  166DOPC  C21120137   0.379   2.249   5.483  0.0809 -0.1802 -0.0440
  166DOPC  H11R20138   0.290   2.248   5.549 -0.4496 -0.8394 -0.7473
  166DOPC  H11S20139   0.460   2.177   5.509  0.9009 -0.0609 -2.0616
  166DOPC  C21220140   0.344   2.221   5.343 -0.5156  0.6869  0.3062
  166DOPC  H12R20141   0.436   2.207   5.281  0.1890  1.6479  1.0949
  166DOPC  H12S20142   0.273   2.293   5.296  0.5916  1.2022 -0.6385
  166DOPC  C21320143   0.271   2.091   5.348  0.4895 -0.4845  0.3696
  166DOPC  H13R20144   0.172   2.118   5.391  1.8579  1.1851  2.7967
  166DOPC  H13S20145   0.317   2.016   5.416  1.9877  1.2960  1.4266
  166DOPC  C21420146   0.257   2.026   5.211  0.1417 -0.2684 -0.1452
  166DOPC  H14R20147   0.344   1.979   5.160 -0.8778 -1.2085 -1.0792
  166DOPC  H14S20148   0.241   2.114   5.144  0.4295  0.5270  0.8037
  166DOPC  C21520149   0.137   1.924   5.203 -0.7477  0.1019 -0.0800
  166DOPC  H15R20150   0.039   1.961   5.240 -1.9956 -3.7272  0.8910
  166DOPC  H15S20151   0.178   1.846   5.271 -0.4788 -1.5884 -2.0734
  166DOPC  C21620152   0.121   1.856   5.065  0.1914 -0.1234 -0.0623
  166DOPC  H16R20153   0.030   1.793   5.059 -0.0482  0.2949 -1.2615
  166DOPC  H16S20154   0.207   1.787   5.047  1.9962  1.9577  0.2337
  166DOPC  C21720155   0.110   1.955   4.944 -0.5841 -0.1036  0.2364
  166DOPC  H17R20156   0.075   2.056   4.974 -2.4403 -0.5466 -0.3102
  166DOPC  H17S20157   0.043   1.915   4.864 -0.5419  1.1935 -0.4802
  166DOPC  C21820158   0.241   1.973   4.869 -0.2884  0.5546  0.2498
  166DOPC  H18R20159   0.275   1.873   4.835 -0.2584  0.9587 -1.0011
  166DOPC  H18S20160   0.321   2.027   4.925 -0.6774  0.9509  0.4296
  166DOPC  H18T20161   0.219   2.028   4.774 -0.7343 -0.4908 -0.2699
  166DOPC   C3320162  -0.136   2.163   6.478  0.0683  0.0373 -0.3681
  166DOPC   H3X20163  -0.074   2.090   6.536 -1.0686 -1.1141 -0.5565
  166DOPC   H3Y20164  -0.072   2.229   6.417 -1.1180  2.3021  0.7187
  166DOPC   C3420165  -0.242   2.089   6.386 -0.4323 -0.5768 -0.3695
  166DOPC   H4X20166  -0.308   2.168   6.345  0.5439  0.2724 -0.3486
  166DOPC   H4Y20167  -0.311   2.033   6.453 -2.1123  1.4485 -0.3236
  166DOPC   C3520168  -0.188   2.005   6.273 -0.6703  0.5394  0.0049
  166DOPC   H5X20169  -0.279   1.961   6.228 -0.7531 -0.4723  1.1243
  166DOPC   H5Y20170  -0.132   1.917   6.312  1.0458  1.4939 -0.1960
  166DOPC   C3620171  -0.108   2.092   6.166  0.4808  1.1962 -0.2360
  166DOPC   H6X20172  -0.151   2.194   6.178 -1.1217  0.4220  1.0290
  166DOPC   H6Y20173  -0.003   2.092   6.202 -0.1284  0.9944  1.6606
  166DOPC   C3720174  -0.099   2.040   6.029  0.9910  0.1852  0.8197
  166DOPC   H7X20175  -0.034   1.950   6.027 -0.8584 -1.2140 -0.4103
  166DOPC   H7Y20176  -0.202   2.027   5.988  0.2410 -0.5526  2.8342
  166DOPC   C3820177  -0.023   2.146   5.944  0.4008 -0.8750  0.2311
  166DOPC   H8X20178   0.069   2.178   5.997  2.0343 -1.3548 -2.1341
  166DOPC   H8Y20179  -0.090   2.234   5.942 -1.6667 -2.3810 -1.8120
  166DOPC   C3920180  -0.006   2.092   5.804  0.4257  0.2490  0.6454
  166DOPC   H9X20181  -0.090   2.050   5.746  1.0757  0.3360 -0.3916
  166DOPC  C31020182   0.114   2.086   5.741 -0.8619  0.4940  0.1888
  166DOPC  H10X20183   0.116   2.045   5.639  2.0078 -1.0424  0.7622
  166DOPC  C31120184   0.252   2.126   5.797  0.1556 -0.0589  0.7196
  166DOPC  H11X20185   0.251   2.170   5.899  1.1273  0.7121  0.4102
  166DOPC  H11Y20186   0.295   2.211   5.739  1.3216 -1.2202 -0.1647
  166DOPC  C31220187   0.354   2.011   5.795 -0.3634  0.1567  0.3344
  166DOPC  H12X20188   0.364   1.982   5.688  0.4981 -0.6058  0.6027
  166DOPC  H12Y20189   0.315   1.938   5.869  3.4879  0.3858  2.8809
  166DOPC  C31320190   0.487   2.067   5.851  1.0646  0.3379 -0.4272
  166DOPC  H13X20191   0.556   1.982   5.862 -0.9111 -1.2766  0.0884
  166DOPC  H13Y20192   0.534   2.136   5.777  2.1651  1.6991  1.4716
  166DOPC  C31420193   0.476   2.152   5.978 -0.3538  0.4600  0.0902
  166DOPC  H14X20194   0.583   2.166   6.005 -0.1783 -0.2767 -0.2083
  166DOPC  H14Y20195   0.423   2.249   5.970 -1.2798  0.0470  0.9567
  166DOPC  C31520196   0.418   2.082   6.097  0.6023 -0.9382  0.1030
  166DOPC  H15X20197   0.450   1.976   6.100 -0.6265 -1.3298 -0.4485
  166DOPC  H15Y20198   0.310   2.061   6.090  0.6579 -1.0867 -0.3123
  166DOPC  C31620199   0.439   2.157   6.229  0.0654  0.4575 -0.7857
  166DOPC  H16X20200   0.543   2.192   6.242  0.6358 -0.3922 -2.7467
  166DOPC  H16Y20201   0.374   2.247   6.234 -0.1741  0.2457  0.0694
  166DOPC  C31720202   0.406   2.071   6.348  0.3955  0.2507  0.0786
  166DOPC  H17X20203   0.468   1.978   6.358  0.5064  0.4649  1.6665
  166DOPC  H17Y20204   0.431   2.133   6.436 -1.6932  1.3951 -0.0891
  166DOPC  C31820205   0.256   2.035   6.340  0.1932  0.4422 -0.3332
  166DOPC  H18X20206   0.228   1.982   6.433  0.8122  0.0855 -0.3446
  166DOPC  H18Y20207   0.193   2.125   6.356  2.5359  2.0756  0.1745
  166DOPC  H18Z20208   0.227   1.968   6.255  1.6450  0.5351 -0.9293
  167DOPC     N20209   0.572   0.126   7.288  0.2478 -0.0932  0.5133
  167DOPC   C1220210   0.583  -0.020   7.336  0.0273  0.1204  0.5150
  167DOPC  H12A20211   0.488  -0.048   7.381 -1.2140 -1.3482 -2.7504
  167DOPC  H12B20212   0.653  -0.031   7.417  0.1969  0.6654  0.4496
  167DOPC   C1320213   0.539   0.206   7.401 -0.4811  0.0976 -0.2078
  167DOPC  H13A20214   0.440   0.194   7.441 -2.5521  2.2914 -4.1005
  167DOPC  H13B20215   0.609   0.189   7.482  0.7428 -0.7022 -1.3863
  167DOPC  H13C20216   0.535   0.312   7.383  1.0321  0.5060  1.4787
  167DOPC   C1420217   0.451   0.139   7.194  0.0373  0.0868  0.4043
  167DOPC  H14A20218   0.361   0.121   7.251 -0.2796 -0.7028 -0.3107
  167DOPC  H14B20219   0.446   0.242   7.163  0.1421  0.5970  1.9952
  167DOPC  H14C20220   0.445   0.064   7.117 -1.9079 -2.6859  3.0122
  167DOPC   C1520221   0.689   0.171   7.211 -0.7849  0.2287 -0.1526
  167DOPC  H15A20222   0.713   0.122   7.118  1.3082  1.0956 -0.1221
  167DOPC  H15B20223   0.773   0.139   7.271  0.1350  1.9821 -0.4290
  167DOPC  H15C20224   0.690   0.279   7.204  0.8921  0.2655  0.2694
  167DOPC   C1120225   0.623  -0.118   7.229 -0.0044 -0.6820  0.1609
  167DOPC  H11A20226   0.562  -0.095   7.140  0.1969 -0.3339  0.1099
  167DOPC  H11B20227   0.727  -0.099   7.194  0.5632  0.8158  2.4253
  167DOPC     P20228   0.527  -0.371   7.208 -0.2898 -0.2974 -0.2361
  167DOPC   O1320229   0.385  -0.332   7.212  0.0622  0.5867 -0.0172
  167DOPC   O1420230   0.566  -0.496   7.275  0.5701 -0.0021  0.1258
  167DOPC   O1220231   0.610  -0.255   7.271 -0.0216 -0.7235 -0.3379
  167DOPC   O1120232   0.583  -0.378   7.065  0.9312  0.4124  0.4251
  167DOPC    C120233   0.716  -0.394   7.034  0.1331  0.2161 -0.0555
  167DOPC    HA20234   0.733  -0.504   7.037 -1.9040 -0.1216  2.0177
  167DOPC    HB20235   0.784  -0.345   7.107 -1.2449  0.7170  0.9206
  167DOPC    C220236   0.745  -0.353   6.888  0.3098  0.7921 -0.0498
  167DOPC    HS20237   0.698  -0.253   6.875  0.7872  0.8306 -1.7682
  167DOPC   O2120238   0.689  -0.453   6.799 -0.0500  0.2882 -0.1115
  167DOPC   C2120239   0.599  -0.402   6.717 -0.1743 -0.6456 -0.6170
  167DOPC   O2220240   0.574  -0.281   6.711 -0.2709 -0.1606  0.0338
  167DOPC   C2220241   0.557  -0.516   6.632 -0.0920 -0.2595  0.2645
  167DOPC   H2R20242   0.506  -0.600   6.684 -1.2640 -0.1117 -0.6128
  167DOPC   H2S20243   0.653  -0.553   6.591  0.9543  0.3780  2.0074
  167DOPC    C320244   0.892  -0.325   6.858  0.5678 -0.5383  0.7547
  167DOPC    HX20245   0.966  -0.395   6.904  2.2893  1.7485  1.6858
  167DOPC    HY20246   0.917  -0.232   6.914  0.9386 -1.0945  1.5365
  167DOPC   O3120247   0.915  -0.319   6.718  0.3647 -0.2791 -0.3135
  167DOPC   C3120248   0.879  -0.200   6.673  0.5733 -0.1184 -0.2641
  167DOPC   O3220249   0.854  -0.102   6.738 -0.2537 -0.7046 -0.2571
  167DOPC   C3220250   0.878  -0.201   6.528  0.2088 -0.1393  0.9192
  167DOPC   H2X20251   0.985  -0.209   6.496  1.1329  1.2064  3.3869
  167DOPC   H2Y20252   0.819  -0.292   6.504  0.0114 -0.7146  3.2886
  167DOPC   C2320253   0.470  -0.469   6.512 -0.2268 -0.0252  0.3583
  167DOPC   H3R20254   0.453  -0.564   6.458 -0.0724  0.1477 -0.0027
  167DOPC   H3S20255   0.522  -0.403   6.440  3.2002  0.2292  2.8379
  167DOPC   C2420256   0.326  -0.419   6.547  0.0260 -0.2416  0.0835
  167DOPC   H4R20257   0.338  -0.332   6.616 -2.2812 -1.3768  2.0924
  167DOPC   H4S20258   0.262  -0.492   6.601  0.0331 -0.3735 -0.0872
  167DOPC   C2520259   0.250  -0.370   6.417  0.6515  0.3517 -0.6029
  167DOPC   H5R20260   0.140  -0.369   6.433  0.6273 -3.6561  0.4411
  167DOPC   H5S20261   0.260  -0.455   6.347 -0.9731 -0.0349 -0.3987
  167DOPC   C2620262   0.294  -0.247   6.345  0.1936  0.2304  0.6764
  167DOPC   H6R20263   0.210  -0.226   6.275  0.0559 -1.8787  0.1546
  167DOPC   H6S20264   0.391  -0.263   6.293  0.0452  0.0387  0.4568
  167DOPC   C2720265   0.307  -0.128   6.439  0.3209 -0.4549  0.6660
  167DOPC   H7R20266   0.388  -0.150   6.513  1.5441 -1.8438 -1.0084
  167DOPC   H7S20267   0.207  -0.117   6.486 -0.9449 -0.3248 -1.8845
  167DOPC   C2820268   0.331   0.009   6.375 -0.2638 -0.3431 -0.4364
  167DOPC   H8R20269   0.259   0.022   6.291 -2.1052 -2.8422  0.6181
  167DOPC   H8S20270   0.434   0.006   6.333  0.2517 -0.0680  0.7775
  167DOPC   C2920271   0.313   0.130   6.463  0.0559 -0.0142  1.4777
  167DOPC   H9R20272   0.262   0.107   6.557 -0.9076 -0.0769  0.9524
  167DOPC  C21020273   0.353   0.254   6.423  0.1247  0.1129 -0.1916
  167DOPC  H10R20274   0.340   0.342   6.489  1.6124  1.1323 -1.2180
  167DOPC  C21120275   0.427   0.278   6.294 -0.2755 -0.1299  0.4265
  167DOPC  H11R20276   0.403   0.197   6.222 -1.9391 -0.0957  0.9046
  167DOPC  H11S20277   0.536   0.264   6.307 -0.1772 -1.0819 -1.0888
  167DOPC  C21220278   0.378   0.413   6.224  0.0545  0.2213  0.4113
  167DOPC  H12R20279   0.436   0.417   6.129 -0.0916  0.3640  0.3280
  167DOPC  H12S20280   0.271   0.405   6.198 -0.0915  2.9700 -0.2036
  167DOPC  C21320281   0.381   0.536   6.308  0.8130  0.0758 -0.5690
  167DOPC  H13R20282   0.476   0.539   6.366 -0.9722  0.8902  2.5414
  167DOPC  H13S20283   0.295   0.537   6.378  0.0797  1.1990 -1.4369
  167DOPC  C21420284   0.361   0.664   6.232  1.0162  0.1335  0.0744
  167DOPC  H14R20285   0.451   0.675   6.168  2.5617 -0.4238  2.0601
  167DOPC  H14S20286   0.363   0.751   6.301  3.3919 -0.0634  0.3522
  167DOPC  C21520287   0.235   0.667   6.148  0.4330  0.3379  0.3258
  167DOPC  H15R20288   0.150   0.642   6.215  1.0788 -0.5025  0.8506
  167DOPC  H15S20289   0.245   0.581   6.078  2.2322 -0.0407  1.0080
  167DOPC  C21620290   0.204   0.802   6.078 -0.9878 -0.3868  0.4026
  167DOPC  H16R20291   0.292   0.842   6.023 -0.9465  0.0764  0.8046
  167DOPC  H16S20292   0.187   0.876   6.158 -0.7292 -0.3130  0.3907
  167DOPC  C21720293   0.081   0.804   5.992 -0.4523  0.0698 -0.4651
  167DOPC  H17R20294   0.005   0.804   6.073 -1.0206  1.3383 -0.9785
  167DOPC  H17S20295   0.087   0.711   5.931  0.6718 -0.0588 -0.1996
  167DOPC  C21820296   0.061   0.937   5.917  0.4647 -0.1974  0.2338
  167DOPC  H18R20297   0.012   1.024   5.966  0.2825  0.0678 -0.4047
  167DOPC  H18S20298  -0.001   0.922   5.826  1.1863 -1.3570 -0.0927
  167DOPC  H18T20299   0.158   0.967   5.870  0.7245 -0.8415  0.3485
  167DOPC   C3320300   0.818  -0.073   6.468 -0.4142  0.2974  0.2405
  167DOPC   H3X20301   0.898  -0.002   6.495  0.6610 -1.2431  1.2715
  167DOPC   H3Y20302   0.723  -0.041   6.516 -2.2765  0.4248 -3.2196
  167DOPC   C3420303   0.802  -0.083   6.316 -0.1720 -0.0246 -0.5585
  167DOPC   H4X20304   0.731  -0.163   6.286 -1.4519  1.1121 -0.6324
  167DOPC   H4Y20305   0.909  -0.099   6.291  0.9233  3.1329  1.5906
  167DOPC   C3520306   0.758   0.055   6.260  0.3575  0.5832 -0.2037
  167DOPC   H5X20307   0.835   0.132   6.281 -2.3914  2.7739  2.7613
  167DOPC   H5Y20308   0.665   0.069   6.319  0.5846 -0.9809  0.5814
  167DOPC   C3620309   0.734   0.063   6.104 -0.1515 -0.0136 -0.0966
  167DOPC   H6X20310   0.652  -0.007   6.076 -1.0752  0.8370  0.4143
  167DOPC   H6Y20311   0.694   0.165   6.084 -1.6240 -0.5484  0.0029
  167DOPC   C3720312   0.862   0.034   6.021  0.5853  0.1227 -0.1754
  167DOPC   H7X20313   0.941   0.106   6.052  1.0973 -0.9468  1.0844
  167DOPC   H7Y20314   0.896  -0.068   6.051 -0.4067 -0.0248  0.4990
  167DOPC   C3820315   0.821   0.058   5.875 -0.0813 -0.6997 -0.1555
  167DOPC   H8X20316   0.773   0.157   5.869 -1.7730 -1.4183  0.8990
  167DOPC   H8Y20317   0.743  -0.018   5.852  0.3875 -1.5378  0.9378
  167DOPC   C3920318   0.941   0.046   5.786  0.2195  0.3360  0.1435
  167DOPC   H9X20319   1.038   0.020   5.831  1.9273  3.1774 -1.5393
  167DOPC  C31020320   0.945   0.076   5.654  0.1388  0.1524  0.2850
  167DOPC  H10X20321   1.037   0.065   5.595 -0.5340  0.3623 -0.8349
  167DOPC  C31120322   0.822   0.125   5.581  0.2067 -0.2027  0.0911
  167DOPC  H11X20323   0.848   0.197   5.500 -2.0582  0.2046 -0.3504
  167DOPC  H11Y20324   0.753   0.179   5.650  1.6874  1.2299  0.5022
  167DOPC  C31220325   0.757  -0.003   5.513  0.3556 -0.2259 -0.3324
  167DOPC  H12X20326   0.728  -0.084   5.584 -0.7808 -0.1421 -0.6883
  167DOPC  H12Y20327   0.826  -0.057   5.446  2.0833 -1.5853  2.3622
  167DOPC  C31320328   0.633   0.039   5.432 -0.3889 -0.0215 -0.8632
  167DOPC  H13X20329   0.568   0.082   5.511  3.5108  1.6770  1.7159
  167DOPC  H13Y20330   0.660   0.121   5.362  1.3533 -1.1024 -1.5289
  167DOPC  C31420331   0.558  -0.080   5.368  0.4862 -0.2591 -0.2925
  167DOPC  H14X20332   0.555  -0.174   5.428  1.8011 -0.4405 -0.4908
  167DOPC  H14Y20333   0.450  -0.055   5.373  0.3666 -0.8987  0.6788
  167DOPC  C31520334   0.594  -0.114   5.222 -0.2346 -0.1569 -0.1744
  167DOPC  H15X20335   0.702  -0.137   5.224 -0.7614 -2.9212  2.0284
  167DOPC  H15Y20336   0.570  -0.023   5.163  1.8170 -0.2398 -1.2202
  167DOPC  C31620337   0.511  -0.239   5.187 -0.1724 -0.3240 -0.2833
  167DOPC  H16X20338   0.521  -0.304   5.277 -0.6771 -1.7559 -1.2333
  167DOPC  H16Y20339   0.404  -0.210   5.188 -0.8041 -2.5163 -0.2124
  167DOPC  C31720340   0.553  -0.308   5.060 -0.0559 -0.2854 -0.4028
  167DOPC  H17X20341   0.562  -0.221   4.992 -0.4556  1.5957  1.8430
  167DOPC  H17Y20342   0.654  -0.350   5.077 -0.8870 -3.0600 -1.6104
  167DOPC  C31820343   0.460  -0.411   5.003 -0.8431  0.0243 -0.2720
  167DOPC  H18X20344   0.456  -0.504   5.064 -0.6533  0.9876  1.2412
  167DOPC  H18Y20345   0.356  -0.384   4.976 -2.1373 -0.5577  3.5718
  167DOPC  H18Z20346   0.514  -0.440   4.910 -0.0367 -0.8985  0.4608
  168DOPC     N20347   4.148   7.147   7.351  0.7563  0.2009  0.1463
  168DOPC   C1220348   4.106   7.291   7.358 -0.0649  0.0563  0.2475
  168DOPC  H12A20349   4.146   7.330   7.451  1.7564  0.2233 -0.5661
  168DOPC  H12B20350   3.999   7.299   7.372 -0.0063  1.5772  0.0284
  168DOPC   C1320351   4.106   7.087   7.479  0.0342 -0.1373  0.0485
  168DOPC  H13A20352   3.999   7.089   7.492  0.2572 -1.6507  3.2139
  168DOPC  H13B20353   4.113   6.979   7.474 -1.4761 -0.2161 -0.8461
  168DOPC  H13C20354   4.131   7.139   7.570 -1.9303  1.2202 -0.1404
  168DOPC   C1420355   4.294   7.134   7.336 -0.3542 -0.1454  0.7812
  168DOPC  H14A20356   4.343   7.167   7.426  2.0539  0.0922 -0.5487
  168DOPC  H14B20357   4.331   7.033   7.327  1.7119  0.6460 -0.0876
  168DOPC  H14C20358   4.343   7.191   7.259  1.2678 -1.8696  0.4619
  168DOPC   C1520359   4.068   7.080   7.242  0.2542  0.3749  0.1017
  168DOPC  H15A20360   4.084   7.120   7.143  0.0282  0.8701  0.2578
  168DOPC  H15B20361   3.964   7.102   7.261 -0.3767 -2.5186  0.4681
  168DOPC  H15C20362   4.079   6.973   7.243  0.8281  0.3985  2.3812
  168DOPC   C1120363   4.129   7.387   7.239  0.4222 -0.1875  0.3663
  168DOPC  H11A20364   4.098   7.489   7.270 -1.0161 -1.0529  2.0101
  168DOPC  H11B20365   4.239   7.392   7.232  0.4238 -0.1080  0.4416
  168DOPC     P20366   3.924   7.391   7.068 -0.1319 -0.2812  0.0208
  168DOPC   O1320367   3.908   7.530   7.111  0.3069  0.3696  0.4146
  168DOPC   O1420368   3.819   7.295   7.113 -0.2748 -0.1160 -0.4107
  168DOPC   O1220369   4.075   7.344   7.114  0.5120  0.3173  0.1973
  168DOPC   O1120370   3.940   7.389   6.905 -0.2624 -0.0750  0.0435
  168DOPC    C120371   4.048   7.463   6.852 -0.5460 -0.2389  0.2494
  168DOPC    HA20372   4.134   7.393   6.846  0.0712  0.5303 -0.0494
  168DOPC    HB20373   4.082   7.548   6.915  2.9267 -0.7587 -0.7162
  168DOPC    C220374   4.008   7.520   6.710 -0.3721 -0.0762  0.5902
  168DOPC    HS20375   3.995   7.429   6.647 -0.6148  0.6165 -0.3861
  168DOPC   O2120376   4.118   7.596   6.650 -0.1794 -0.2581  0.1867
  168DOPC   C2120377   4.241   7.536   6.636 -0.0196 -1.2496  0.1153
  168DOPC   O2220378   4.260   7.421   6.654 -0.1907 -0.1349  0.1565
  168DOPC   C2220379   4.347   7.637   6.583 -0.8109 -0.5040 -0.4777
  168DOPC   H2R20380   4.444   7.626   6.637  0.5078 -0.7391 -2.7772
  168DOPC   H2S20381   4.311   7.737   6.614 -0.6335 -0.0718 -1.6396
  168DOPC    C320382   3.864   7.587   6.694 -0.3151  0.1779  0.8252
  168DOPC    HX20383   3.856   7.668   6.769 -1.9385  2.2343 -1.4002
  168DOPC    HY20384   3.786   7.513   6.721 -1.8939  1.7697  0.8495
  168DOPC   O3120385   3.840   7.638   6.561  0.6568  0.3473  0.5957
  168DOPC   C3120386   3.872   7.762   6.540 -0.0082  0.9095 -0.8113
  168DOPC   O3220387   3.923   7.839   6.620  0.4701 -0.2338  0.2879
  168DOPC   C3220388   3.835   7.792   6.402  1.0321  0.1685  0.8754
  168DOPC   H2X20389   3.866   7.714   6.329  1.0097  0.7325  0.2506
  168DOPC   H2Y20390   3.725   7.796   6.391  1.0437 -1.4539 -0.0745
  168DOPC   C2320391   4.379   7.610   6.433  0.4537 -0.3697 -0.4051
  168DOPC   H3R20392   4.294   7.646   6.372 -1.2947 -0.1179  2.0408
  168DOPC   H3S20393   4.396   7.502   6.417 -0.3473 -0.5141 -0.3080
  168DOPC   C2420394   4.500   7.690   6.381 -0.4539  0.2224 -0.2459
  168DOPC   H4R20395   4.514   7.664   6.273  1.8995 -2.1912  0.5384
  168DOPC   H4S20396   4.587   7.652   6.437 -0.0139  0.0919 -1.0016
  168DOPC   C2520397   4.485   7.847   6.386 -0.2134  0.5986 -0.7367
  168DOPC   H5R20398   4.571   7.896   6.336  0.4669  1.7783  1.4462
  168DOPC   H5S20399   4.486   7.881   6.492  1.2944  1.0827 -0.8887
  168DOPC   C2620400   4.351   7.904   6.333  0.3482 -0.6858  0.2286
  168DOPC   H6R20401   4.365   8.014   6.328  0.9067 -0.7880 -0.7627
  168DOPC   H6S20402   4.265   7.878   6.399  1.4918  0.3437  2.2016
  168DOPC   C2720403   4.308   7.864   6.188 -0.1807 -0.5496  0.7562
  168DOPC   H7R20404   4.215   7.917   6.159  0.2963 -0.4747 -0.7107
  168DOPC   H7S20405   4.295   7.754   6.180 -0.2055 -0.5469  0.7602
  168DOPC   C2820406   4.425   7.907   6.094  1.1164  0.4132 -0.1832
  168DOPC   H8R20407   4.519   7.856   6.125  1.0984  0.3761 -0.1904
  168DOPC   H8S20408   4.436   8.017   6.099  1.3609  0.3343  2.5746
  168DOPC   C2920409   4.382   7.873   5.953 -0.2036 -0.1567 -0.0842
  168DOPC   H9R20410   4.303   7.938   5.913  1.1120  1.3001 -0.4363
  168DOPC  C21020411   4.434   7.773   5.886  0.3411 -0.1485 -0.6758
  168DOPC  H10R20412   4.418   7.770   5.777 -0.0830  0.1380 -0.6206
  168DOPC  C21120413   4.538   7.675   5.940  0.2378 -0.2225 -0.2780
  168DOPC  H11R20414   4.505   7.612   6.025  1.0365  1.4458  1.3457
  168DOPC  H11S20415   4.631   7.725   5.973  0.3240  0.5934 -1.6442
  168DOPC  C21220416   4.582   7.574   5.832 -0.0010  0.3033 -0.4193
  168DOPC  H12R20417   4.596   7.612   5.729  0.0112 -1.2722 -1.0353
  168DOPC  H12S20418   4.501   7.498   5.835 -0.0643  0.3936  0.4485
  168DOPC  C21320419   4.717   7.512   5.883 -0.0259  0.0433 -0.2031
  168DOPC  H13R20420   4.799   7.587   5.885  1.0592 -1.0817 -0.8271
  168DOPC  H13S20421   4.743   7.438   5.805 -2.1001 -0.2684 -0.6651
  168DOPC  C21420422   4.718   7.434   6.016  0.4470  0.0310  0.0576
  168DOPC  H14R20423   4.673   7.489   6.101 -1.2985 -0.6639 -0.3774
  168DOPC  H14S20424   4.824   7.412   6.043  0.2697  0.5384  1.2344
  168DOPC  C21520425   4.639   7.301   6.005  0.1786 -0.2787 -0.7443
  168DOPC  H15R20426   4.683   7.228   5.934  1.1285 -1.0879  0.6381
  168DOPC  H15S20427   4.534   7.323   5.975 -0.0774 -0.8489 -0.2980
  168DOPC  C21620428   4.627   7.238   6.146 -0.1869  0.1619  0.5113
  168DOPC  H16R20429   4.731   7.211   6.173  0.1869 -0.5516 -1.4913
  168DOPC  H16S20430   4.584   7.138   6.122  0.9257  0.0088 -0.9691
  168DOPC  C21720431   4.546   7.303   6.255 -0.6001  0.3521  0.0124
  168DOPC  H17R20432   4.442   7.322   6.220 -0.9272 -1.4776 -0.1316
  168DOPC  H17S20433   4.599   7.396   6.282  0.0126  0.4690 -1.5189
  168DOPC  C21820434   4.530   7.219   6.385 -0.6708 -0.5659 -0.6024
  168DOPC  H18R20435   4.471   7.274   6.461 -2.3589  0.1651 -2.3254
  168DOPC  H18S20436   4.628   7.183   6.421 -1.8180 -2.3147  0.9559
  168DOPC  H18T20437   4.469   7.131   6.355 -0.2122 -1.4377  0.9463
  168DOPC   C3320438   3.899   7.931   6.346  0.1013 -0.1583 -0.1511
  168DOPC   H3X20439   4.007   7.915   6.327 -0.2267 -1.4525 -1.0106
  168DOPC   H3Y20440   3.877   8.008   6.424  1.8197  0.7756 -0.5257
  168DOPC   C3420441   3.845   7.981   6.209  0.2136  0.0777  0.9387
  168DOPC   H4X20442   3.895   8.078   6.192 -1.5256  0.8058 -0.4169
  168DOPC   H4Y20443   3.736   7.995   6.194 -0.4746 -3.6569  1.4542
  168DOPC   C3520444   3.892   7.881   6.091 -0.3870 -0.0705 -0.3638
  168DOPC   H5X20445   3.828   7.790   6.093  0.3565 -0.5935  0.7397
  168DOPC   H5Y20446   3.992   7.844   6.121 -0.1616 -0.5153 -1.5958
  168DOPC   C3620447   3.909   7.939   5.949 -0.5855 -1.2129  0.4529
  168DOPC   H6X20448   3.986   8.019   5.955  0.5664 -2.3437  1.6051
  168DOPC   H6Y20449   3.940   7.862   5.876 -0.1257 -0.0326 -0.6340
  168DOPC   C3720450   3.787   8.001   5.875  0.2923 -0.2266  0.7981
  168DOPC   H7X20451   3.705   7.926   5.873  0.2058 -0.1277 -1.0731
  168DOPC   H7Y20452   3.749   8.083   5.939 -2.0529 -0.3328 -0.3511
  168DOPC   C3820453   3.815   8.053   5.727 -0.4990 -0.3667 -0.1907
  168DOPC   H8X20454   3.900   8.122   5.747 -1.7206  0.2034  4.0978
  168DOPC   H8Y20455   3.737   8.123   5.691  0.6289  0.4527 -1.1277
  168DOPC   C3920456   3.835   7.962   5.618  0.2219 -0.8286 -0.2809
  168DOPC   H9X20457   3.756   7.886   5.613 -1.3499  0.7500 -0.7255
  168DOPC  C31020458   3.929   7.968   5.522  0.3902 -0.1788  0.4628
  168DOPC  H10X20459   3.942   7.879   5.459 -1.9248 -0.3696  0.1813
  168DOPC  C31120460   4.038   8.076   5.517 -0.5739 -0.1725 -0.4632
  168DOPC  H11X20461   4.024   8.163   5.585  0.7130 -0.7327  0.5668
  168DOPC  H11Y20462   4.053   8.137   5.425  1.3262  1.7974  1.0371
  168DOPC  C31220463   4.175   8.017   5.549  0.2686 -0.1112 -0.1640
  168DOPC  H12X20464   4.209   7.937   5.480 -0.9157 -0.7520 -0.0378
  168DOPC  H12Y20465   4.163   7.974   5.651 -1.1708 -0.1256 -0.3152
  168DOPC  C31320466   4.282   8.125   5.554 -0.6177 -1.0732 -0.3190
  168DOPC  H13X20467   4.299   8.160   5.450  0.8665  0.4431  0.3976
  168DOPC  H13Y20468   4.268   8.211   5.622  1.7871 -1.2640  0.5036
  168DOPC  C31420469   4.414   8.063   5.604 -0.0228 -0.2382  0.2051
  168DOPC  H14X20470   4.484   8.139   5.645 -0.9666  0.9303 -0.2918
  168DOPC  H14Y20471   4.385   7.991   5.683  1.3776 -0.6435  0.3872
  168DOPC  C31520472   4.494   7.988   5.501  0.2706  0.0779  1.0334
  168DOPC  H15X20473   4.522   8.054   5.416  0.9126  1.7441  2.4741
  168DOPC  H15Y20474   4.432   7.903   5.464 -1.0803  2.0214 -1.4670
  168DOPC  C31620475   4.628   7.938   5.557 -0.0944 -0.0712 -0.3175
  168DOPC  H16X20476   4.671   8.024   5.612 -0.8662  0.5223 -0.6212
  168DOPC  H16Y20477   4.609   7.870   5.643  2.3732 -0.7938 -0.2796
  168DOPC  C31720478   4.727   7.877   5.455 -0.0633  0.7659  0.3722
  168DOPC  H17X20479   4.717   7.932   5.359 -2.3034  2.8130  1.6813
  168DOPC  H17Y20480   4.837   7.884   5.473  0.2084 -2.2119  0.3585
  168DOPC  C31820481   4.692   7.725   5.433 -0.1608 -0.2100  0.1273
  168DOPC  H18X20482   4.595   7.724   5.379  1.2147  1.2873 -2.6253
  168DOPC  H18Y20483   4.767   7.682   5.362 -0.6017  1.6468 -1.5390
  168DOPC  H18Z20484   4.688   7.675   5.532  0.7259  2.0650  1.3748
  169DOPC     N20485   1.451   0.712   7.640 -0.1547  0.6851 -0.0032
  169DOPC   C1220486   1.442   0.699   7.489  0.4525 -0.7948  0.8810
  169DOPC  H12A20487   1.508   0.621   7.455  1.6945  0.9169 -0.8791
  169DOPC  H12B20488   1.491   0.785   7.446 -2.3096 -0.2233 -1.4852
  169DOPC   C1320489   1.407   0.585   7.707  0.1241  0.1706 -0.0702
  169DOPC  H13A20490   1.424   0.590   7.814  1.2607  0.2462 -0.2522
  169DOPC  H13B20491   1.305   0.562   7.679 -0.7635  3.2447  0.3067
  169DOPC  H13C20492   1.463   0.504   7.664 -1.4858 -0.1282 -1.7358
  169DOPC   C1420493   1.382   0.827   7.702  0.0978  0.4228  0.1942
  169DOPC  H14A20494   1.418   0.920   7.662  0.2113  0.5694  0.6399
  169DOPC  H14B20495   1.276   0.825   7.682 -0.1527 -1.3032  1.4426
  169DOPC  H14C20496   1.400   0.814   7.807 -0.9582 -3.9861  0.0436
  169DOPC   C1520497   1.595   0.729   7.674  0.2218  0.2765  0.1780
  169DOPC  H15A20498   1.643   0.650   7.618 -3.1190 -1.7374 -0.1539
  169DOPC  H15B20499   1.612   0.717   7.780 -0.2545 -0.4629  0.1793
  169DOPC  H15C20500   1.629   0.825   7.639  0.2155 -0.6169 -2.5318
  169DOPC   C1120501   1.299   0.679   7.429 -1.1640  0.7756 -0.0978
  169DOPC  H11A20502   1.310   0.669   7.319  0.2543 -0.1846  0.1035
  169DOPC  H11B20503   1.268   0.580   7.468 -1.3650 -0.2141 -2.6086
  169DOPC     P20504   1.051   0.763   7.433  0.1918 -0.2241 -0.4983
  169DOPC   O1320505   0.977   0.873   7.500 -0.5482  0.6817  0.0069
  169DOPC   O1420506   1.001   0.628   7.462 -0.3229 -0.0562 -0.0149
  169DOPC   O1220507   1.202   0.777   7.470  0.4153 -0.3156 -0.1713
  169DOPC   O1120508   1.049   0.791   7.280  0.1467  0.2989 -0.1712
  169DOPC    C120509   1.072   0.924   7.229  0.4652  0.0567  0.6273
  169DOPC    HA20510   1.171   0.934   7.180  0.4924 -0.1658  0.6328
  169DOPC    HB20511   1.068   0.999   7.310 -1.7201 -0.9102  1.5006
  169DOPC    C220512   0.967   0.978   7.127 -1.0701 -0.3265  0.2888
  169DOPC    HS20513   0.864   0.982   7.169 -1.0022 -1.1624  0.5549
  169DOPC   O2120514   0.981   0.895   7.007 -0.0593 -0.0237 -0.3963
  169DOPC   C2120515   0.869   0.893   6.935 -0.1874 -0.9472 -0.3945
  169DOPC   O2220516   0.765   0.948   6.961 -0.0202  0.0963 -0.4847
  169DOPC   C2220517   0.889   0.821   6.802 -0.0229 -0.1174  0.6453
  169DOPC   H2R20518   0.858   0.715   6.810 -1.4596  0.1169 -1.1699
  169DOPC   H2S20519   0.997   0.825   6.774 -0.1725 -1.3283 -0.2005
  169DOPC    C320520   0.989   1.125   7.092 -0.3718 -0.6644  0.2671
  169DOPC    HX20521   0.988   1.179   7.189 -1.5134  0.7432 -0.4773
  169DOPC    HY20522   0.917   1.169   7.020  2.8959  1.3064 -2.0985
  169DOPC   O3120523   1.125   1.146   7.046  0.4312  0.3245 -0.3772
  169DOPC   C3120524   1.146   1.160   6.914  0.5678 -0.6689 -0.4705
  169DOPC   O3220525   1.055   1.158   6.833  0.1518 -0.5337  0.3009
  169DOPC   C3220526   1.286   1.179   6.884  0.8251 -0.0253 -0.2660
  169DOPC   H2X20527   1.324   1.284   6.891  0.8999 -0.0751  0.0996
  169DOPC   H2Y20528   1.333   1.120   6.966 -2.0715  0.7415  2.1382
  169DOPC   C2320529   0.807   0.890   6.692  0.4547 -0.1473  0.4833
  169DOPC   H3R20530   0.827   0.999   6.684 -0.3207 -0.1212 -2.0741
  169DOPC   H3S20531   0.696   0.881   6.703  0.2005  0.3657 -1.4181
  169DOPC   C2420532   0.816   0.835   6.541 -1.1924 -0.5451  0.0139
  169DOPC   H4R20533   0.737   0.884   6.479  0.0165  0.8357 -0.4842
  169DOPC   H4S20534   0.805   0.724   6.542  0.1593 -0.6995 -0.7909
  169DOPC   C2520535   0.950   0.859   6.482 -0.2836  0.1108  0.2467
  169DOPC   H5R20536   1.027   0.788   6.520  1.0230  1.4720  0.2474
  169DOPC   H5S20537   0.988   0.959   6.513 -0.7737 -0.3919  2.7170
  169DOPC   C2620538   0.947   0.853   6.329 -0.8020  0.0380 -0.0265
  169DOPC   H6R20539   0.894   0.942   6.289 -0.2889  0.3136 -0.1044
  169DOPC   H6S20540   0.894   0.767   6.284 -0.8676  0.0806 -0.0314
  169DOPC   C2720541   1.093   0.853   6.269  0.0522  0.4266 -0.4803
  169DOPC   H7R20542   1.147   0.763   6.303 -1.1989 -0.0020  0.4364
  169DOPC   H7S20543   1.153   0.933   6.318 -1.2681  0.6373  0.8505
  169DOPC   C2820544   1.094   0.858   6.116 -0.2881 -0.4280 -0.4941
  169DOPC   H8R20545   1.017   0.784   6.085 -0.0171 -1.5778  1.3953
  169DOPC   H8S20546   1.187   0.816   6.072 -0.1441 -0.3970 -0.2216
  169DOPC   C2920547   1.055   0.983   6.046  0.3406  0.7872  0.3342
  169DOPC   H9R20548   0.998   1.053   6.109 -0.1745  1.4968 -0.8756
  169DOPC  C21020549   1.074   1.014   5.915  0.0429  1.1729  0.4407
  169DOPC  H10R20550   1.042   1.109   5.871  1.5378  1.8278  0.6948
  169DOPC  C21120551   1.121   0.911   5.811  0.1783 -0.3092 -0.2882
  169DOPC  H11R20552   1.166   0.821   5.858  0.5697  0.7966  1.5402
  169DOPC  H11S20553   1.200   0.965   5.753 -1.0077 -1.6926 -3.3914
  169DOPC  C21220554   1.003   0.882   5.710 -0.4945 -0.5815  0.0292
  169DOPC  H12R20555   0.978   0.975   5.656  1.0267 -0.4670 -0.5473
  169DOPC  H12S20556   0.917   0.830   5.757 -0.3356 -1.8350 -0.9879
  169DOPC  C21320557   1.057   0.799   5.595  0.3354  0.6657 -0.1766
  169DOPC  H13R20558   1.139   0.849   5.538  0.0785 -0.9007 -2.0286
  169DOPC  H13S20559   0.972   0.774   5.528  0.7880 -2.1816  0.1742
  169DOPC  C21420560   1.085   0.656   5.645 -0.1351 -0.4586 -0.4084
  169DOPC  H14R20561   0.996   0.627   5.705 -0.6478 -1.8034 -1.7656
  169DOPC  H14S20562   1.178   0.654   5.705 -0.7172 -0.3089  0.5302
  169DOPC  C21520563   1.088   0.536   5.547 -0.1283 -0.8885  0.6350
  169DOPC  H15R20564   0.989   0.535   5.497 -0.3517 -1.1758  1.0799
  169DOPC  H15S20565   1.107   0.442   5.602  0.7746 -0.6197  0.8030
  169DOPC  C21620566   1.201   0.533   5.447 -0.9321 -0.1599 -0.3529
  169DOPC  H16R20567   1.296   0.525   5.504 -0.1754 -0.1425 -1.5637
  169DOPC  H16S20568   1.201   0.633   5.397  0.1418  2.3302  4.1049
  169DOPC  C21720569   1.181   0.434   5.335  0.9918 -0.3997 -0.8614
  169DOPC  H17R20570   1.074   0.441   5.306  1.1998 -1.0727 -1.8619
  169DOPC  H17S20571   1.181   0.332   5.378  0.7314 -1.0214 -2.2551
  169DOPC  C21820572   1.275   0.456   5.217 -0.6854 -0.4575  0.6747
  169DOPC  H18R20573   1.268   0.390   5.129 -0.8629 -0.1041  0.4217
  169DOPC  H18S20574   1.382   0.463   5.248 -0.1586 -1.5219 -0.7854
  169DOPC  H18T20575   1.246   0.555   5.175 -0.5886 -1.2657 -1.4147
  169DOPC   C3320576   1.338   1.112   6.753  0.0092  0.2706 -0.2949
  169DOPC   H3X20577   1.313   1.178   6.668  1.7686  1.0889 -0.2131
  169DOPC   H3Y20578   1.286   1.015   6.731  0.2492  0.2535 -0.8141
  169DOPC   C3420579   1.486   1.090   6.759  0.0788  0.1497  0.0647
  169DOPC   H4X20580   1.515   1.028   6.847 -1.6654 -1.5784 -0.5099
  169DOPC   H4Y20581   1.548   1.182   6.760  1.1866 -0.5644  0.8712
  169DOPC   C3520582   1.532   0.994   6.643  0.3310 -0.6795  0.1668
  169DOPC   H5X20583   1.500   0.892   6.674 -0.1217 -0.8309 -0.7621
  169DOPC   H5Y20584   1.643   0.990   6.650  0.3306 -0.2737  0.4231
  169DOPC   C3620585   1.486   1.028   6.502 -0.1615 -0.9463  0.0912
  169DOPC   H6X20586   1.376   1.045   6.502  0.0822  1.8859  3.4180
  169DOPC   H6Y20587   1.533   1.126   6.478  1.6208 -2.0757 -1.2486
  169DOPC   C3720588   1.534   0.938   6.395  0.2533 -0.1576 -0.8021
  169DOPC   H7X20589   1.635   0.906   6.426  0.8589  0.4602 -2.0794
  169DOPC   H7Y20590   1.480   0.841   6.403 -2.6530  1.4249  0.2994
  169DOPC   C3820591   1.538   1.004   6.256  0.0691 -0.6291 -0.3105
  169DOPC   H8X20592   1.592   1.101   6.252 -0.7630 -0.1560 -0.1261
  169DOPC   H8Y20593   1.432   1.030   6.234  0.2254  0.0973 -0.2147
  169DOPC   C3920594   1.600   0.910   6.154 -0.6075 -0.1587  0.4891
  169DOPC   H9X20595   1.693   0.867   6.193 -1.6855 -0.4999  2.9227
  169DOPC  C31020596   1.558   0.891   6.031  0.9558 -0.0304  0.1732
  169DOPC  H10X20597   1.628   0.828   5.975  0.4196 -0.8559  0.4018
  169DOPC  C31120598   1.441   0.956   5.954  0.4273 -0.2003  0.7169
  169DOPC  H11X20599   1.392   1.036   6.014 -0.8344  0.5284 -1.1740
  169DOPC  H11Y20600   1.362   0.886   5.920  0.1787  0.0436  0.7857
  169DOPC  C31220601   1.500   1.001   5.823  0.6284  0.2482  0.1469
  169DOPC  H12X20602   1.410   1.028   5.763  0.2558  0.4916  0.8063
  169DOPC  H12Y20603   1.543   0.911   5.773  0.0946  1.2118 -2.2064
  169DOPC  C31320604   1.597   1.106   5.832  0.1536  0.0795  0.2715
  169DOPC  H13X20605   1.558   1.183   5.903  0.6299 -0.1778  0.8206
  169DOPC  H13Y20606   1.696   1.079   5.874  0.5087 -0.0682 -0.6625
  169DOPC  C31420607   1.612   1.164   5.693  0.6162 -0.5646 -0.2249
  169DOPC  H14X20608   1.630   1.082   5.621  1.3243  0.5119 -1.3199
  169DOPC  H14Y20609   1.521   1.200   5.642 -0.0308 -1.6031  0.1791
  169DOPC  C31520610   1.736   1.258   5.685  0.7251  0.0930  0.0557
  169DOPC  H15X20611   1.775   1.249   5.581 -0.9385 -1.3304 -0.4941
  169DOPC  H15Y20612   1.808   1.224   5.762  1.4899  1.9398  0.2280
  169DOPC  C31620613   1.686   1.404   5.704 -0.4333  0.4288  0.0985
  169DOPC  H16X20614   1.598   1.392   5.771  0.3753 -0.8991  0.9801
  169DOPC  H16Y20615   1.761   1.457   5.766 -1.3126  2.0797 -0.2032
  169DOPC  C31720616   1.639   1.476   5.571  0.0025 -0.3091 -0.0209
  169DOPC  H17X20617   1.713   1.459   5.490  1.3025  1.3898  0.7246
  169DOPC  H17Y20618   1.549   1.421   5.536 -0.0531 -0.6667  0.6681
  169DOPC  C31820619   1.585   1.621   5.592 -0.5198  0.7545 -1.1273
  169DOPC  H18X20620   1.560   1.682   5.503 -2.0102  1.6722 -0.1348
  169DOPC  H18Y20621   1.488   1.614   5.647  0.4092  2.5558  0.8872
  169DOPC  H18Z20622   1.658   1.680   5.652  0.5065 -1.6333  0.1122
  170DOPC     N20623   0.693   6.044   7.328  0.2416  0.2149 -1.0114
  170DOPC   C1220624   0.840   6.046   7.297 -0.1209  0.4062 -0.3556
  170DOPC  H12A20625   0.860   5.958   7.238 -2.3252 -0.8938  0.6742
  170DOPC  H12B20626   0.901   6.042   7.386 -1.0883 -0.9200  0.2841
  170DOPC   C1320627   0.615   6.031   7.198  0.0747 -0.5690  0.0114
  170DOPC  H13A20628   0.581   6.128   7.165  0.8416  0.1017  1.1177
  170DOPC  H13B20629   0.673   5.981   7.122  1.2754 -0.9783  1.1607
  170DOPC  H13C20630   0.518   5.985   7.207 -0.7120  0.6124 -1.6797
  170DOPC   C1420631   0.648   6.158   7.415  0.5522 -0.8704 -0.2350
  170DOPC  H14A20632   0.546   6.153   7.449 -0.1185  2.3102 -1.4374
  170DOPC  H14B20633   0.718   6.170   7.497  1.3384 -1.9670 -0.7107
  170DOPC  H14C20634   0.652   6.252   7.362  3.0460 -1.3559 -1.0741
  170DOPC   C1520635   0.663   5.920   7.409  0.1348 -0.8064  0.2496
  170DOPC  H15A20636   0.559   5.891   7.399 -0.2794  0.2696  1.2646
  170DOPC  H15B20637   0.684   5.944   7.512  2.3785 -1.0911 -0.0972
  170DOPC  H15C20638   0.728   5.840   7.379  0.9052  0.3368 -1.2777
  170DOPC   C1120639   0.885   6.171   7.220  0.6706 -0.1364 -0.0579
  170DOPC  H11A20640   0.816   6.202   7.139  1.4349  2.2076  0.1157
  170DOPC  H11B20641   0.890   6.260   7.287 -0.2992  0.2070 -0.4192
  170DOPC     P20642   1.039   6.054   7.040  0.0062 -0.0306  0.1452
  170DOPC   O1320643   1.026   5.913   7.085 -0.3588  0.1644 -0.1926
  170DOPC   O1420644   1.156   6.091   6.967 -0.4405  0.0931 -0.2541
  170DOPC   O1220645   1.021   6.150   7.172 -0.1589 -0.8484  0.4549
  170DOPC   O1120646   0.912   6.092   6.952 -0.6416  0.2415 -0.1511
  170DOPC    C120647   0.889   6.226   6.896  0.1866 -0.0797  0.4671
  170DOPC    HA20648   0.931   6.305   6.963  1.0946 -0.6826  0.6235
  170DOPC    HB20649   0.785   6.255   6.873  1.0756  1.9066 -1.4235
  170DOPC    C220650   0.952   6.228   6.747 -0.1684  0.1567 -0.5489
  170DOPC    HS20651   1.062   6.239   6.757 -0.2910  2.0454 -0.9193
  170DOPC   O2120652   0.889   6.323   6.658 -0.0652 -0.0575  0.0769
  170DOPC   C2120653   0.931   6.446   6.664 -0.7810 -0.4049 -0.6280
  170DOPC   O2220654   1.025   6.483   6.735  0.3493  0.5636  0.2992
  170DOPC   C2220655   0.843   6.542   6.585 -0.3770 -0.2541 -0.2803
  170DOPC   H2R20656   0.740   6.502   6.597 -0.1460 -0.6679  0.3773
  170DOPC   H2S20657   0.859   6.525   6.476  1.9639 -0.2146  0.0107
  170DOPC    C320658   0.946   6.084   6.682 -0.5878 -0.4518  0.2486
  170DOPC    HX20659   0.842   6.045   6.676 -1.1782  0.9508  0.8176
  170DOPC    HY20660   1.008   6.018   6.745 -0.0025 -0.8299 -0.7130
  170DOPC   O3120661   1.005   6.089   6.551  0.8355  0.1496  0.0462
  170DOPC   C3120662   0.918   6.101   6.452 -0.4559  0.2800 -0.3826
  170DOPC   O3220663   0.801   6.086   6.462  0.2863 -0.3833  0.5657
  170DOPC   C3220664   0.989   6.137   6.320 -0.0526  0.1795 -0.0997
  170DOPC   H2X20665   1.024   6.240   6.338  0.1108  0.3657 -1.3993
  170DOPC   H2Y20666   1.077   6.069   6.324  0.4968  0.9050  0.3635
  170DOPC   C2320667   0.866   6.689   6.618 -0.2220 -0.1633  0.1274
  170DOPC   H3R20668   0.970   6.714   6.590 -0.6537 -0.1080 -1.5498
  170DOPC   H3S20669   0.854   6.709   6.727  0.6379  2.0536 -0.1452
  170DOPC   C2420670   0.773   6.785   6.545  0.1790  0.4485 -0.8870
  170DOPC   H4R20671   0.780   6.889   6.583 -1.8053  0.5688 -0.7454
  170DOPC   H4S20672   0.667   6.763   6.571  0.1594  2.6829  1.2826
  170DOPC   C2520673   0.792   6.780   6.392 -0.8492 -0.1907  0.9144
  170DOPC   H5R20674   0.766   6.684   6.342 -2.7529  0.4997  0.4785
  170DOPC   H5S20675   0.895   6.803   6.359  0.0486 -1.9743  2.3076
  170DOPC   C2620676   0.698   6.877   6.322 -0.1118  0.3993 -0.3462
  170DOPC   H6R20677   0.708   6.977   6.371 -0.1458  0.1780  0.1113
  170DOPC   H6S20678   0.593   6.844   6.331 -0.7002  1.1962 -3.1539
  170DOPC   C2720679   0.718   6.892   6.175 -0.3741  0.3658 -0.7491
  170DOPC   H7R20680   0.714   6.796   6.120 -1.7419  1.2453 -2.2999
  170DOPC   H7S20681   0.821   6.925   6.153 -0.7194  1.4385 -0.8211
  170DOPC   C2820682   0.625   6.994   6.116  0.1343  0.1793 -0.2645
  170DOPC   H8R20683   0.520   6.957   6.123  0.3580 -0.1644  2.7474
  170DOPC   H8S20684   0.635   6.994   6.005 -1.9036 -1.1010 -0.5077
  170DOPC   C2920685   0.629   7.136   6.176  0.5705  1.4165  0.2462
  170DOPC   H9R20686   0.583   7.141   6.276 -1.3848 -0.9657 -0.4296
  170DOPC  C21020687   0.669   7.249   6.121 -0.0109  0.5572  0.6476
  170DOPC  H10R20688   0.658   7.338   6.184 -0.3561  1.3326 -0.4833
  170DOPC  C21120689   0.725   7.272   5.984 -0.0702 -0.2346 -0.0844
  170DOPC  H11R20690   0.775   7.178   5.950 -0.7688 -0.6726  0.0699
  170DOPC  H11S20691   0.807   7.347   5.988  0.4610 -0.7752 -0.5666
  170DOPC  C21220692   0.623   7.307   5.872  0.4595  0.7894  0.8343
  170DOPC  H12R20693   0.543   7.371   5.913 -0.9263 -2.2013  3.1738
  170DOPC  H12S20694   0.581   7.207   5.847  2.4241  0.6383 -2.4810
  170DOPC  C21320695   0.694   7.361   5.744  0.5693 -0.1667  0.4285
  170DOPC  H13R20696   0.770   7.439   5.766  1.3706 -1.2374  1.6228
  170DOPC  H13S20697   0.617   7.393   5.671  1.3213  1.1521  0.1814
  170DOPC  C21420698   0.756   7.245   5.668 -0.4345 -0.4427 -0.2667
  170DOPC  H14R20699   0.687   7.171   5.623 -0.5572 -1.1281  1.0036
  170DOPC  H14S20700   0.826   7.189   5.734 -2.2062 -1.1325  1.1111
  170DOPC  C21520701   0.840   7.299   5.552 -0.0369 -0.5083  0.5751
  170DOPC  H15R20702   0.921   7.368   5.586  0.1369 -0.0785 -0.6814
  170DOPC  H15S20703   0.767   7.354   5.490  0.6962 -0.6760 -0.4571
  170DOPC  C21620704   0.910   7.199   5.459  0.1711  0.1280 -0.1592
  170DOPC  H16R20705   0.955   7.119   5.523 -2.0147 -1.1845 -0.1336
  170DOPC  H16S20706   0.989   7.242   5.394  1.1475 -4.7264 -2.6590
  170DOPC  C21720707   0.806   7.138   5.371  0.1762  1.7049 -0.5331
  170DOPC  H17R20708   0.756   7.213   5.306 -0.0221  0.9121 -1.3154
  170DOPC  H17S20709   0.725   7.086   5.428  0.0641 -0.2477 -2.3544
  170DOPC  C21820710   0.871   7.039   5.273 -0.7570  0.0069  0.3780
  170DOPC  H18R20711   0.795   6.992   5.208 -0.0218 -1.2921  0.4111
  170DOPC  H18S20712   0.922   6.955   5.326  2.8692  1.2799 -0.7519
  170DOPC  H18T20713   0.942   7.094   5.208 -0.7463 -1.7097 -1.1517
  170DOPC   C3320714   0.912   6.140   6.187 -0.3792  0.0168  0.6702
  170DOPC   H3X20715   0.875   6.039   6.162 -1.4998  0.1277  1.8010
  170DOPC   H3Y20716   0.985   6.170   6.109  0.3806  0.4898  1.5539
  170DOPC   C3420717   0.814   6.264   6.175 -0.4679  0.5494 -0.1920
  170DOPC   H4X20718   0.859   6.360   6.210  1.2918 -0.2666 -0.1085
  170DOPC   H4Y20719   0.738   6.248   6.253  1.4290  2.2906  2.1801
  170DOPC   C3520720   0.762   6.280   6.035  0.1523  0.0961 -0.3543
  170DOPC   H5X20721   0.696   6.197   6.003 -0.2600 -1.2592  3.4540
  170DOPC   H5Y20722   0.841   6.306   5.961  0.6849  0.8265  0.4519
  170DOPC   C3620723   0.658   6.395   6.029 -0.5264 -0.2558  0.1218
  170DOPC   H6X20724   0.566   6.369   6.086 -1.7839  0.8318 -1.3071
  170DOPC   H6Y20725   0.702   6.483   6.080 -2.2419  0.1004  1.0832
  170DOPC   C3720726   0.619   6.443   5.890  0.1153  0.2177  0.1503
  170DOPC   H7X20727   0.695   6.506   5.839  1.2593 -0.6120  0.7508
  170DOPC   H7Y20728   0.608   6.357   5.821 -1.6100 -0.7301  1.5313
  170DOPC   C3820729   0.492   6.521   5.872  0.1547 -0.3274 -0.2100
  170DOPC   H8X20730   0.407   6.473   5.926 -2.2892  1.6218 -2.0507
  170DOPC   H8Y20731   0.471   6.517   5.763  0.1931  1.7483 -0.3471
  170DOPC   C3920732   0.499   6.660   5.926 -0.1987  0.4977  0.9761
  170DOPC   H9X20733   0.554   6.667   6.021  0.1767  0.5380  0.7570
  170DOPC  C31020734   0.457   6.770   5.865 -0.3153 -0.9001  0.5786
  170DOPC  H10X20735   0.474   6.871   5.904 -0.6111 -1.2100  1.5173
  170DOPC  C31120736   0.406   6.782   5.728  0.9770  0.2786 -0.2663
  170DOPC  H11X20737   0.330   6.863   5.723 -1.3374 -1.7673 -0.2300
  170DOPC  H11Y20738   0.347   6.690   5.708  0.7062  0.4415 -0.2190
  170DOPC  C31220739   0.514   6.795   5.625  0.3935 -0.8456  0.3252
  170DOPC  H12X20740   0.573   6.703   5.605  0.3359 -0.3707 -2.5255
  170DOPC  H12Y20741   0.579   6.879   5.658 -0.8911  0.2681  0.1450
  170DOPC  C31320742   0.446   6.828   5.491  0.2189  0.4162  0.3783
  170DOPC  H13X20743   0.529   6.818   5.418 -1.3908 -2.1123 -1.2552
  170DOPC  H13Y20744   0.374   6.749   5.463  0.1970  0.5938 -0.0717
  170DOPC  C31420745   0.394   6.978   5.482  0.0303  0.4583  0.7829
  170DOPC  H14X20746   0.322   7.003   5.563  2.1180 -0.0347  2.9073
  170DOPC  H14Y20747   0.478   7.049   5.497 -0.4146  1.3466 -0.7091
  170DOPC  C31520748   0.332   6.993   5.342  0.0115 -0.0950  0.6252
  170DOPC  H15X20749   0.230   6.948   5.337 -0.5213  1.0469  0.8835
  170DOPC  H15Y20750   0.394   6.962   5.256 -2.2050 -0.2494 -1.0055
  170DOPC  C31620751   0.293   7.138   5.311 -0.5212  0.3621  0.2418
  170DOPC  H16X20752   0.386   7.198   5.313  0.4460 -0.9464 -1.9871
  170DOPC  H16Y20753   0.258   7.143   5.206  0.2831  0.5560 -0.0227
  170DOPC  C31720754   0.197   7.213   5.406 -0.3190 -0.4560 -0.7645
  170DOPC  H17X20755   0.099   7.162   5.395 -0.9530  0.8948 -1.8176
  170DOPC  H17Y20756   0.236   7.213   5.510 -0.4132 -1.1494 -0.7270
  170DOPC  C31820757   0.166   7.350   5.367 -0.4482  0.2842 -0.4669
  170DOPC  H18X20758   0.255   7.413   5.388  0.1318 -0.7646  0.3328
  170DOPC  H18Y20759   0.152   7.360   5.257 -1.3729 -3.3961 -0.8284
  170DOPC  H18Z20760   0.086   7.394   5.429  0.5457 -1.1564  1.9871
  171DOPC     N20761   3.729   3.083   2.781  0.6598  0.1580  0.8089
  171DOPC   C1220762   3.708   3.020   2.919 -0.3608 -0.0221 -0.2386
  171DOPC  H12A20763   3.755   2.923   2.927 -2.0538 -0.8171  0.7677
  171DOPC  H12B20764   3.602   3.009   2.934 -0.1135 -0.7026  1.1897
  171DOPC   C1320765   3.660   2.989   2.683  0.3593 -0.3578  0.9653
  171DOPC  H13A20766   3.661   3.023   2.581  0.3459  0.2876  1.1736
  171DOPC  H13B20767   3.693   2.887   2.690  2.4936  0.1992 -0.2844
  171DOPC  H13C20768   3.552   2.993   2.693  0.3855  0.9301  0.9949
  171DOPC   C1420769   3.869   3.101   2.745 -0.1989  0.3018 -0.6002
  171DOPC  H14A20770   3.914   3.009   2.709  0.4381 -0.0006  0.8522
  171DOPC  H14B20771   3.894   3.189   2.689 -1.6673 -0.4279 -2.5412
  171DOPC  H14C20772   3.920   3.102   2.840  1.2387 -0.5035 -1.3363
  171DOPC   C1520773   3.657   3.218   2.778 -0.1943  0.0872  0.2840
  171DOPC  H15A20774   3.697   3.285   2.854  1.9290  0.5087 -1.0962
  171DOPC  H15B20775   3.550   3.211   2.789 -0.3506 -1.5983 -1.8423
  171DOPC  H15C20776   3.685   3.274   2.690 -0.6950  1.7702  1.1372
  171DOPC   C1120777   3.754   3.113   3.043 -0.5538  0.8789  0.2528
  171DOPC  H11A20778   3.753   3.043   3.129  0.6523  0.7359  0.1613
  171DOPC  H11B20779   3.860   3.142   3.025 -0.6938  0.9736 -0.4425
  171DOPC     P20780   3.539   3.231   3.146 -0.0530 -0.2315 -0.2100
  171DOPC   O1320781   3.443   3.130   3.098  0.1137 -0.3321  0.0505
  171DOPC   O1420782   3.491   3.368   3.136 -0.3871  1.0072  0.6936
  171DOPC   O1220783   3.673   3.221   3.060  0.1193  0.0007  0.0361
  171DOPC   O1120784   3.594   3.201   3.295 -1.0770  0.0900  0.4849
  171DOPC    C120785   3.682   3.302   3.349 -0.1904 -0.3034 -0.2659
  171DOPC    HA20786   3.679   3.288   3.459  1.5364 -0.6209 -0.2379
  171DOPC    HB20787   3.664   3.409   3.329 -0.7942 -0.2625  0.4474
  171DOPC    C220788   3.834   3.294   3.309 -0.2751 -0.1934 -0.3231
  171DOPC    HS20789   3.830   3.310   3.199 -3.3515  1.2276 -0.0927
  171DOPC   O2120790   3.890   3.168   3.347 -0.0624 -0.2457  0.1226
  171DOPC   C2120791   4.003   3.130   3.290  0.4882  0.1474  0.2830
  171DOPC   O2220792   4.062   3.183   3.202  0.1650  0.8431  0.5308
  171DOPC   C2220793   4.032   2.987   3.345 -0.8671  0.0155 -0.2574
  171DOPC   H2R20794   3.947   2.919   3.327 -2.3746  1.3198  1.4598
  171DOPC   H2S20795   4.038   2.993   3.456 -0.6719 -1.5222 -0.1738
  171DOPC    C320796   3.917   3.419   3.362 -0.0632 -0.3498 -0.1503
  171DOPC    HX20797   3.884   3.512   3.310 -0.3862  1.2481  2.7091
  171DOPC    HY20798   4.018   3.389   3.327 -0.7829 -0.7277 -2.0625
  171DOPC   O3120799   3.905   3.430   3.500  0.4295  0.2902  0.6779
  171DOPC   C3120800   3.988   3.360   3.568  0.1002  0.2466 -0.2686
  171DOPC   O3220801   4.077   3.291   3.524  0.6131  0.2848  0.3699
  171DOPC   C3220802   3.952   3.364   3.718  0.0518 -0.3840  0.4415
  171DOPC   H2X20803   3.890   3.454   3.740 -0.8425 -0.4320 -1.5622
  171DOPC   H2Y20804   3.885   3.282   3.752 -0.7535  1.3735  3.4603
  171DOPC   C2320805   4.174   2.926   3.295  0.5182 -0.2271 -0.1785
  171DOPC   H3R20806   4.256   2.988   3.337  0.0299  0.4616 -0.2286
  171DOPC   H3S20807   4.171   2.931   3.184  0.0450  0.1696 -0.1524
  171DOPC   C2420808   4.181   2.785   3.344  0.2466 -0.0561  0.0759
  171DOPC   H4R20809   4.101   2.725   3.295 -1.1817 -1.0723  3.3840
  171DOPC   H4S20810   4.142   2.792   3.448 -1.6796  1.1413 -0.6750
  171DOPC   C2520811   4.319   2.725   3.325 -0.3808 -0.4249 -0.6798
  171DOPC   H5R20812   4.392   2.790   3.377 -1.8815 -0.5251  1.6911
  171DOPC   H5S20813   4.343   2.719   3.216 -2.2041 -0.5824 -1.1050
  171DOPC   C2620814   4.332   2.580   3.375  0.4238 -0.6701  0.1863
  171DOPC   H6R20815   4.433   2.549   3.341  1.4479  2.0667  0.4834
  171DOPC   H6S20816   4.241   2.522   3.346 -1.1097  1.5547  0.3160
  171DOPC   C2720817   4.309   2.578   3.530 -0.1331 -0.7276  0.1128
  171DOPC   H7R20818   4.221   2.641   3.556  0.6357  1.5970 -2.4216
  171DOPC   H7S20819   4.395   2.628   3.582 -0.0472 -1.0326  0.2638
  171DOPC   C2820820   4.287   2.432   3.595 -0.2697 -0.9471  0.4107
  171DOPC   H8R20821   4.197   2.376   3.561  0.6616 -1.7372 -0.8269
  171DOPC   H8S20822   4.289   2.438   3.706 -0.2139  0.1760  0.3619
  171DOPC   C2920823   4.407   2.342   3.571 -0.3157 -0.2261  0.3585
  171DOPC   H9R20824   4.401   2.284   3.477 -1.2381  1.6333 -0.7915
  171DOPC  C21020825   4.522   2.343   3.646 -0.1442 -0.3034 -0.2035
  171DOPC  H10R20826   4.601   2.274   3.613 -2.5091 -3.0604 -0.4856
  171DOPC  C21120827   4.550   2.422   3.767  0.1020 -0.2460 -0.0648
  171DOPC  H11R20828   4.479   2.506   3.783 -2.4127 -2.1773 -0.5505
  171DOPC  H11S20829   4.652   2.465   3.760  1.8313 -3.3095  2.8497
  171DOPC  C21220830   4.528   2.351   3.901  0.1952 -0.7227  0.7361
  171DOPC  H12R20831   4.572   2.249   3.895  0.8565 -0.3577 -2.0328
  171DOPC  H12S20832   4.421   2.326   3.919 -0.2644 -1.7714 -2.6768
  171DOPC  C21320833   4.596   2.413   4.023 -0.6448  0.7594 -0.4545
  171DOPC  H13R20834   4.551   2.514   4.035 -1.5571  0.5539 -1.9206
  171DOPC  H13S20835   4.707   2.424   4.016 -0.7178  1.5762 -0.4821
  171DOPC  C21420836   4.575   2.332   4.153 -0.4414  0.0611  0.1463
  171DOPC  H14R20837   4.621   2.234   4.129  2.2638  0.9154  1.4769
  171DOPC  H14S20838   4.469   2.317   4.183 -1.1827 -0.4716 -2.4925
  171DOPC  C21520839   4.653   2.401   4.268  0.3100  0.2543 -0.6085
  171DOPC  H15R20840   4.625   2.506   4.289 -0.0046  0.2795 -1.1423
  171DOPC  H15S20841   4.758   2.408   4.232  0.4997 -0.1227 -0.1284
  171DOPC  C21620842   4.631   2.328   4.401  0.2314  0.6789 -0.6497
  171DOPC  H16R20843   4.685   2.231   4.407  0.2280  0.7276  0.4557
  171DOPC  H16S20844   4.524   2.320   4.430  0.6968  0.6325  1.2229
  171DOPC  C21720845   4.690   2.412   4.513  0.0594  0.2798 -1.3539
  171DOPC  H17R20846   4.659   2.379   4.614 -0.3703  0.2792 -1.4880
  171DOPC  H17S20847   4.646   2.513   4.498 -0.7218  0.2401  0.5038
  171DOPC  C21820848   4.844   2.430   4.509 -0.0172  0.1335  0.2389
  171DOPC  H18R20849   4.881   2.484   4.419 -0.6654  2.5810  1.3711
  171DOPC  H18S20850   4.896   2.334   4.531  2.1007  0.9305 -1.0126
  171DOPC  H18T20851   4.877   2.495   4.593  0.9611 -0.3806  0.2668
  171DOPC   C3320852   4.079   3.367   3.817  1.2793  0.3455 -0.1410
  171DOPC   H3X20853   4.153   3.442   3.779  0.6695  1.2728  0.4422
  171DOPC   H3Y20854   4.122   3.265   3.810 -0.7101 -0.5459 -0.1186
  171DOPC   C3420855   4.035   3.410   3.959  0.9386 -0.3438  0.6293
  171DOPC   H4X20856   3.981   3.332   4.017  2.5029 -1.1563  1.0733
  171DOPC   H4Y20857   3.978   3.505   3.954  1.3925 -0.0430  1.0428
  171DOPC   C3520858   4.153   3.441   4.045  0.0938 -0.0347 -0.2336
  171DOPC   H5X20859   4.229   3.360   4.051 -0.2788 -0.2882  1.5284
  171DOPC   H5Y20860   4.107   3.454   4.145 -1.0445 -2.1052 -0.4429
  171DOPC   C3620861   4.229   3.566   4.000 -0.1220 -0.6593  0.4968
  171DOPC   H6X20862   4.282   3.551   3.903 -3.5645  1.1123 -1.8930
  171DOPC   H6Y20863   4.158   3.648   3.975  0.8305  0.0844  0.1678
  171DOPC   C3720864   4.330   3.613   4.100 -0.2700 -0.1077  0.6788
  171DOPC   H7X20865   4.273   3.624   4.194 -1.8872 -1.0284 -0.1534
  171DOPC   H7Y20866   4.404   3.531   4.108 -1.5768 -1.5688 -1.2833
  171DOPC   C3820867   4.401   3.741   4.049 -1.1096  0.5782 -0.2146
  171DOPC   H8X20868   4.321   3.816   4.035  0.9997  2.9478 -0.3005
  171DOPC   H8Y20869   4.448   3.718   3.950 -1.7738 -1.0075 -0.1992
  171DOPC   C3920870   4.513   3.799   4.127  0.2355  0.1192 -0.1927
  171DOPC   H9X20871   4.534   3.758   4.227  0.7532 -0.0952 -0.3840
  171DOPC  C31020872   4.589   3.903   4.093  0.0899 -0.2838 -0.4222
  171DOPC  H10X20873   4.666   3.941   4.161  2.1477 -0.2686 -2.6678
  171DOPC  C31120874   4.564   3.984   3.974 -0.1830  0.0371 -0.3601
  171DOPC  H11X20875   4.488   4.065   3.984 -0.5898  0.1286 -3.4657
  171DOPC  H11Y20876   4.531   3.921   3.889  2.0352  0.4126 -1.5889
  171DOPC  C31220877   4.690   4.056   3.921 -0.1256  0.4240  0.3455
  171DOPC  H12X20878   4.792   4.025   3.954 -0.3400 -1.3887 -0.5561
  171DOPC  H12Y20879   4.682   4.165   3.940 -0.3685  0.2874  1.0475
  171DOPC  C31320880   4.694   4.046   3.761  0.0340 -0.4762  0.1567
  171DOPC  H13X20881   4.774   4.112   3.719 -2.3543  1.6106 -1.4071
  171DOPC  H13Y20882   4.706   3.937   3.745 -0.8320 -0.1928 -3.0637
  171DOPC  C31420883   4.570   4.101   3.688  0.4137  0.2641  0.0108
  171DOPC  H14X20884   4.477   4.056   3.728  2.5898 -2.4374  2.5462
  171DOPC  H14Y20885   4.559   4.206   3.723  2.7392  0.7266 -0.4284
  171DOPC  C31520886   4.565   4.099   3.538 -0.6672  0.8429 -0.4461
  171DOPC  H15X20887   4.648   4.159   3.494  0.9164 -2.5328 -2.4596
  171DOPC  H15Y20888   4.470   4.144   3.502 -1.3806  0.6738  1.1198
  171DOPC  C31620889   4.551   3.957   3.481  0.2324  0.7424  0.4026
  171DOPC  H16X20890   4.644   3.901   3.503  0.4924  0.3056 -1.5820
  171DOPC  H16Y20891   4.462   3.905   3.524  0.2875  1.0533  0.8986
  171DOPC  C31720892   4.530   3.959   3.324  0.1695  0.6666 -0.0943
  171DOPC  H17X20893   4.528   3.852   3.296 -0.7179  1.2105 -2.3336
  171DOPC  H17Y20894   4.431   3.996   3.288 -1.1106 -2.0653  0.3091
  171DOPC  C31820895   4.637   4.016   3.237 -0.3951 -0.0098  0.5119
  171DOPC  H18X20896   4.631   4.006   3.126 -1.9319 -2.0853  0.7226
  171DOPC  H18Y20897   4.641   4.125   3.257 -1.3298  0.7471 -2.8071
  171DOPC  H18Z20898   4.737   3.969   3.250 -1.2742 -1.2318  3.6964
  172DOPC     N20899   3.360   4.558   2.315 -0.4237  0.3689  0.4145
  172DOPC   C1220900   3.381   4.457   2.423  0.5968 -0.0531 -0.3134
  172DOPC  H12A20901   3.452   4.383   2.388 -0.7438 -0.4441 -2.3449
  172DOPC  H12B20902   3.282   4.417   2.439  0.5822 -0.2102 -0.7859
  172DOPC   C1320903   3.474   4.639   2.302  0.7861  0.6405 -0.2865
  172DOPC  H13A20904   3.447   4.717   2.232 -1.2196 -1.6511 -2.2735
  172DOPC  H13B20905   3.494   4.680   2.399  0.0830  0.8218 -0.2131
  172DOPC  H13C20906   3.566   4.586   2.282  1.1161  0.6744  1.0703
  172DOPC   C1420907   3.244   4.644   2.339 -0.1449  0.5758 -0.0161
  172DOPC  H14A20908   3.269   4.698   2.430  0.9482 -1.0809  0.7207
  172DOPC  H14B20909   3.219   4.715   2.261 -0.3716 -0.5299 -0.9661
  172DOPC  H14C20910   3.150   4.593   2.353  0.2427 -0.4226 -0.9105
  172DOPC   C1520911   3.328   4.493   2.185 -0.7438  0.2611  0.2815
  172DOPC  H15A20912   3.290   4.566   2.115  1.7547  2.0056  0.6311
  172DOPC  H15B20913   3.255   4.414   2.192 -0.7703 -0.0201 -2.1307
  172DOPC  H15C20914   3.423   4.462   2.144 -0.7632 -0.2823  0.6371
  172DOPC   C1120915   3.421   4.513   2.563  0.3760  0.1920 -0.7710
  172DOPC  H11A20916   3.412   4.422   2.626  1.2762  0.1519 -0.6789
  172DOPC  H11B20917   3.531   4.529   2.570  0.5216 -1.2257  1.5695
  172DOPC     P20918   3.222   4.607   2.704  0.0071  0.2083  0.4275
  172DOPC   O1320919   3.204   4.464   2.722  0.8028 -0.5543  0.0788
  172DOPC   O1420920   3.110   4.685   2.648 -0.4265  0.2069 -0.2092
  172DOPC   O1220921   3.356   4.627   2.613  0.6272  0.1151 -0.5650
  172DOPC   O1120922   3.267   4.679   2.834 -0.1887 -0.2420  0.4358
  172DOPC    C120923   3.378   4.649   2.912 -0.3387 -0.0797 -0.7654
  172DOPC    HA20924   3.383   4.725   2.992  1.5517 -0.0125 -0.9183
  172DOPC    HB20925   3.470   4.655   2.849 -0.8473 -2.9697 -1.9423
  172DOPC    C220926   3.377   4.514   2.981  0.0712  0.5896 -0.2922
  172DOPC    HS20927   3.405   4.448   2.897  1.1465 -1.3236  1.4979
  172DOPC   O2120928   3.238   4.490   3.030  0.2591  0.0335  0.6409
  172DOPC   C2120929   3.215   4.360   3.037  0.7160 -0.1666  0.8067
  172DOPC   O2220930   3.291   4.279   2.996 -0.1983  0.2563 -0.0118
  172DOPC   C2220931   3.071   4.335   3.091  0.1859  0.0885  0.5070
  172DOPC   H2R20932   3.028   4.283   3.003  3.5252  0.4205 -1.5221
  172DOPC   H2S20933   3.024   4.431   3.120 -0.4799 -0.3035  0.7313
  172DOPC    C320934   3.478   4.500   3.098  0.0627 -0.4083  0.4294
  172DOPC    HX20935   3.578   4.516   3.054  0.4067 -1.7192  0.6957
  172DOPC    HY20936   3.481   4.395   3.136 -0.1929 -0.1661  1.1422
  172DOPC   O3120937   3.444   4.588   3.203 -0.4926  0.1469 -0.0294
  172DOPC   C3120938   3.530   4.585   3.307  0.4268  0.1473 -0.0571
  172DOPC   O3220939   3.647   4.568   3.292  0.0509  0.4502  0.2498
  172DOPC   C3220940   3.461   4.622   3.445 -0.5805  0.1403  0.8867
  172DOPC   H2X20941   3.443   4.731   3.437 -0.7337  0.1728  1.6534
  172DOPC   H2Y20942   3.361   4.576   3.459  0.8410 -3.6089 -0.0047
  172DOPC   C2320943   3.086   4.243   3.217 -0.2919  0.0727  0.2399
  172DOPC   H3R20944   3.127   4.142   3.193  1.7071  0.3529  2.1627
  172DOPC   H3S20945   2.988   4.212   3.261 -1.2996 -1.4575 -2.8013
  172DOPC   C2420946   3.177   4.309   3.318 -0.0878 -1.0054 -0.1156
  172DOPC   H4R20947   3.142   4.411   3.343 -0.4120 -1.4259  1.2312
  172DOPC   H4S20948   3.284   4.309   3.286  0.1050 -1.8523  0.4902
  172DOPC   C2520949   3.182   4.235   3.448  0.2384  0.5219  0.0806
  172DOPC   H5R20950   3.231   4.138   3.427 -1.4801 -0.3070 -0.3529
  172DOPC   H5S20951   3.079   4.217   3.485 -0.3571  0.9447 -1.2940
  172DOPC   C2620952   3.268   4.289   3.561 -0.2860 -0.3723 -0.4195
  172DOPC   H6R20953   3.233   4.382   3.611  1.2223  0.6611 -1.1841
  172DOPC   H6S20954   3.364   4.324   3.515 -1.0473  0.9991 -1.0344
  172DOPC   C2720955   3.281   4.186   3.672 -0.0220  0.0200 -0.5999
  172DOPC   H7R20956   3.317   4.084   3.646  1.6793  0.1616  0.9734
  172DOPC   H7S20957   3.184   4.174   3.724 -1.0102  1.1951 -2.1003
  172DOPC   C2820958   3.396   4.228   3.774  0.1007 -0.0942 -0.8510
  172DOPC   H8R20959   3.491   4.251   3.722 -0.2263  1.3181 -0.8643
  172DOPC   H8S20960   3.405   4.133   3.830  1.2157  0.8743  0.7113
  172DOPC   C2920961   3.359   4.342   3.867 -0.0239  0.2013  1.1502
  172DOPC   H9R20962   3.366   4.445   3.828  0.2281 -0.1686  0.2121
  172DOPC  C21020963   3.337   4.332   3.996 -0.4983  0.1440 -0.9059
  172DOPC  H10R20964   3.329   4.425   4.055  0.6654 -0.0048 -0.4846
  172DOPC  C21120965   3.324   4.203   4.082  0.4734  0.9131 -0.5644
  172DOPC  H11R20966   3.344   4.111   4.023 -1.6144  0.0070  0.0428
  172DOPC  H11S20967   3.215   4.201   4.104  0.8062  0.3199  1.2322
  172DOPC  C21220968   3.410   4.190   4.216  0.3047 -0.7155  1.2034
  172DOPC  H12R20969   3.353   4.244   4.295  0.5541 -0.2849  1.0944
  172DOPC  H12S20970   3.508   4.241   4.205 -0.8283  1.1213 -1.7062
  172DOPC  C21320971   3.432   4.045   4.252  0.7227 -0.2510  0.5088
  172DOPC  H13R20972   3.470   3.993   4.161 -1.3534 -0.2344 -0.4184
  172DOPC  H13S20973   3.330   4.006   4.270  1.3096 -2.5397 -0.8173
  172DOPC  C21420974   3.510   4.020   4.373  0.5157 -0.1053  0.3742
  172DOPC  H14R20975   3.476   4.089   4.452 -1.3414 -0.9587  0.3694
  172DOPC  H14S20976   3.616   4.044   4.347 -0.0348  0.8241 -1.1104
  172DOPC  C21520977   3.513   3.873   4.406  0.8695  0.4448 -0.5669
  172DOPC  H15R20978   3.569   3.822   4.325 -2.3194 -0.2274 -2.4933
  172DOPC  H15S20979   3.413   3.826   4.402  0.4313  1.2205  0.5986
  172DOPC  C21620980   3.568   3.838   4.546  1.0647  0.0603  0.5544
  172DOPC  H16R20981   3.544   3.733   4.574  0.8943 -0.0384  0.0494
  172DOPC  H16S20982   3.511   3.901   4.618  1.4548  1.0775 -0.0111
  172DOPC  C21720983   3.714   3.874   4.573 -0.8425  0.4661 -0.1424
  172DOPC  H17R20984   3.743   3.978   4.546  1.7942  0.7224  3.0045
  172DOPC  H17S20985   3.788   3.819   4.512  0.2877  1.5192  0.2382
  172DOPC  C21820986   3.761   3.858   4.716  1.2525  0.2094  0.1319
  172DOPC  H18R20987   3.872   3.858   4.720  1.2531  2.0098  2.5559
  172DOPC  H18S20988   3.723   3.759   4.749 -1.1136  0.4876 -1.5179
  172DOPC  H18T20989   3.717   3.932   4.786  0.5069  0.8380 -0.9640
  172DOPC   C3320990   3.547   4.587   3.571  0.8022  0.3125  0.0650
  172DOPC   H3X20991   3.654   4.604   3.547  0.9369 -0.8164 -0.2021
  172DOPC   H3Y20992   3.537   4.479   3.594  1.2810  0.6461  2.0234
  172DOPC   C3420993   3.513   4.681   3.694  0.1152  0.1074  0.4203
  172DOPC   H4X20994   3.583   4.654   3.777 -1.0705  0.8660  1.7028
  172DOPC   H4Y20995   3.411   4.661   3.732 -0.3664  0.9422 -0.4057
  172DOPC   C3520996   3.538   4.828   3.666 -0.3721  0.4049  0.1253
  172DOPC   H5X20997   3.450   4.873   3.617 -1.4343 -0.2571  1.3599
  172DOPC   H5Y20998   3.626   4.833   3.598 -0.8122  0.5828 -0.4381
  172DOPC   C3620999   3.572   4.915   3.785  0.4956 -0.3280  0.3107
  172DOPC   H6X21000   3.665   4.884   3.838  0.5480  1.1629  1.1403
  172DOPC   H6Y21001   3.595   5.018   3.750  0.7449 -0.7091 -0.6907
  172DOPC   C3721002   3.456   4.921   3.886  0.1642  0.6900  0.1198
  172DOPC   H7X21003   3.367   4.974   3.846  0.0582  0.9759  0.7275
  172DOPC   H7Y21004   3.410   4.821   3.903  1.1222  0.3957  1.0976
  172DOPC   C3821005   3.496   4.980   4.027  0.2341 -0.4756  0.2578
  172DOPC   H8X21006   3.401   4.974   4.086  0.8262  0.8870  1.4182
  172DOPC   H8Y21007   3.507   5.089   4.007 -0.0745 -0.5317 -0.2475
  172DOPC   C3921008   3.605   4.909   4.093  0.1826 -0.1788 -0.0498
  172DOPC   H9X21009   3.576   4.803   4.095 -0.0636 -0.1127 -0.0661
  172DOPC  C31021010   3.713   4.963   4.150 -0.4539 -0.1913  0.0328
  172DOPC  H10X21011   3.791   4.900   4.195 -1.2526 -0.2325  1.4333
  172DOPC  C31121012   3.745   5.107   4.152  0.0064  0.0790 -0.3249
  172DOPC  H11X21013   3.655   5.164   4.121 -0.3290 -1.0321 -1.5065
  172DOPC  H11Y21014   3.820   5.135   4.075 -1.0985  0.7708 -1.1732
  172DOPC  C31221015   3.786   5.149   4.293 -1.1991 -0.3557  0.0759
  172DOPC  H12X21016   3.826   5.253   4.288 -1.8645 -0.0083  1.5505
  172DOPC  H12Y21017   3.875   5.090   4.321 -1.3991 -0.2015  1.0620
  172DOPC  C31321018   3.677   5.135   4.401 -0.0396 -0.3321  0.4730
  172DOPC  H13X21019   3.590   5.191   4.359 -0.0488  0.0635  1.0093
  172DOPC  H13Y21020   3.647   5.029   4.417 -0.7940 -0.3077 -0.6690
  172DOPC  C31421021   3.704   5.206   4.530  0.0337  0.1445 -0.0355
  172DOPC  H14X21022   3.774   5.157   4.601 -0.2042 -0.2862 -0.0893
  172DOPC  H14Y21023   3.722   5.313   4.506  1.2020 -0.2329 -0.9487
  172DOPC  C31521024   3.581   5.216   4.627  0.9462 -0.3110 -0.2914
  172DOPC  H15X21025   3.555   5.112   4.653 -2.8137 -0.1972 -2.7720
  172DOPC  H15Y21026   3.497   5.259   4.569  1.2713  0.5746 -0.1327
  172DOPC  C31621027   3.611   5.289   4.758  0.0614 -0.5857 -0.4595
  172DOPC  H16X21028   3.707   5.242   4.789  2.5245  3.6238 -1.0186
  172DOPC  H16Y21029   3.641   5.395   4.745 -3.8872  0.6535 -0.7921
  172DOPC  C31721030   3.516   5.274   4.878 -0.0085  0.2252 -0.2051
  172DOPC  H17X21031   3.437   5.350   4.861  0.5131  1.0364  0.8645
  172DOPC  H17Y21032   3.482   5.169   4.877 -0.1469  0.2728 -0.6508
  172DOPC  C31821033   3.584   5.302   5.004 -0.3800 -0.7810 -0.2141
  172DOPC  H18X21034   3.647   5.394   5.005  0.3389 -1.2654  0.1231
  172DOPC  H18Y21035   3.521   5.295   5.095  0.2524  1.5411  0.4940
  172DOPC  H18Z21036   3.659   5.221   5.017  0.3010 -0.1056  0.1909
  173DOPC     N21037   2.641   2.924   2.628 -0.4196  0.2148 -0.2732
  173DOPC   C1221038   2.638   2.860   2.762  0.2194 -0.5127 -0.2818
  173DOPC  H12A21039   2.737   2.859   2.805  0.4614 -2.5495 -0.7974
  173DOPC  H12B21040   2.631   2.753   2.748 -1.4343 -0.4989  0.1638
  173DOPC   C1321041   2.504   2.922   2.563 -0.3359  0.3160  0.3866
  173DOPC  H13A21042   2.503   2.990   2.479  1.5909  1.4653  1.2403
  173DOPC  H13B21043   2.477   2.827   2.520 -1.2840  1.6349 -2.1167
  173DOPC  H13C21044   2.420   2.943   2.628  0.6801  0.4553  1.7024
  173DOPC   C1421045   2.735   2.841   2.550  0.9081 -0.5802 -0.6527
  173DOPC  H14A21046   2.734   2.860   2.443  1.0283 -0.7651 -0.6869
  173DOPC  H14B21047   2.838   2.854   2.580  0.6479 -0.8418  0.3725
  173DOPC  H14C21048   2.702   2.741   2.572 -1.1928 -0.1715 -1.7123
  173DOPC   C1521049   2.697   3.064   2.624  0.4528 -0.5702  0.5850
  173DOPC  H15A21050   2.627   3.133   2.670  0.8220 -0.3793  0.8665
  173DOPC  H15B21051   2.714   3.095   2.522 -0.3547  0.3942  0.7229
  173DOPC  H15C21052   2.786   3.077   2.684 -0.1423  1.6737  1.0714
  173DOPC   C1121053   2.549   2.914   2.876 -0.4926 -0.1660  0.1274
  173DOPC  H11A21054   2.582   2.873   2.973 -1.4454  1.9563  1.4149
  173DOPC  H11B21055   2.571   3.023   2.885 -0.5874  0.1377 -2.3829
  173DOPC     P21056   2.342   2.762   2.911  0.1191  0.0442  0.0136
  173DOPC   O1321057   2.449   2.656   2.924 -0.2762  0.5144  0.4238
  173DOPC   O1421058   2.219   2.723   2.827 -0.0953 -0.1481  0.1863
  173DOPC   O1221059   2.413   2.892   2.856  0.2841  0.0587  0.1970
  173DOPC   O1121060   2.292   2.802   3.061 -0.0894  0.1018  0.3719
  173DOPC    C121061   2.161   2.770   3.116 -0.7544  0.5597 -0.3365
  173DOPC    HA21062   2.119   2.681   3.064 -1.1817  0.8720 -0.5314
  173DOPC    HB21063   2.087   2.852   3.111  0.3334  1.5726 -0.1955
  173DOPC    C221064   2.171   2.724   3.274  0.4674 -0.0648  0.3487
  173DOPC    HS21065   2.072   2.686   3.307  0.5056 -0.0038  0.5325
  173DOPC   O2121066   2.223   2.836   3.351 -0.3428  0.2605 -0.0487
  173DOPC   C2121067   2.138   2.931   3.383  0.3428  0.6251 -0.1972
  173DOPC   O2221068   2.020   2.930   3.359 -0.3816 -0.4178 -0.1751
  173DOPC   C2221069   2.199   3.047   3.468 -0.1326  1.4788 -0.3674
  173DOPC   H2R21070   2.161   3.144   3.430 -2.1595  1.3145  1.1307
  173DOPC   H2S21071   2.310   3.048   3.453 -0.0763 -2.7339 -1.7710
  173DOPC    C321072   2.266   2.600   3.282  0.3226  0.3285  0.0381
  173DOPC    HX21073   2.363   2.631   3.238 -0.3289  0.8343 -1.1019
  173DOPC    HY21074   2.217   2.527   3.215 -1.8199 -2.9543  4.6345
  173DOPC   O3121075   2.274   2.548   3.415  0.2398 -0.2734  0.4572
  173DOPC   C3121076   2.392   2.571   3.479  0.0502 -0.6147  0.1888
  173DOPC   O3221077   2.473   2.651   3.451 -0.8010  0.1201 -0.3695
  173DOPC   C3221078   2.392   2.476   3.601  0.1464 -0.1551 -0.8038
  173DOPC   H2X21079   2.315   2.515   3.672 -0.4757 -1.2245 -0.8596
  173DOPC   H2Y21080   2.373   2.378   3.553  2.3827 -1.0102 -0.0713
  173DOPC   C2321081   2.152   3.041   3.619 -0.1367  0.1697  0.4994
  173DOPC   H3R21082   2.042   3.041   3.603 -0.2807 -2.3944  1.0385
  173DOPC   H3S21083   2.195   3.133   3.663  1.7164 -0.5845  0.3788
  173DOPC   C2421084   2.206   2.925   3.702 -0.1051 -0.0700  0.0225
  173DOPC   H4R21085   2.169   2.828   3.664 -0.2691 -0.5188  1.2713
  173DOPC   H4S21086   2.164   2.928   3.805 -0.4424 -2.1954 -0.0011
  173DOPC   C2521087   2.360   2.905   3.688  0.1468  1.1147 -0.4443
  173DOPC   H5R21088   2.404   3.005   3.709  0.9943  0.4815  0.9989
  173DOPC   H5S21089   2.392   2.871   3.587 -1.6557  0.2573 -0.7594
  173DOPC   C2621090   2.403   2.822   3.811 -0.5981 -0.2275 -0.0683
  173DOPC   H6R21091   2.384   2.715   3.789  0.8801 -0.2712 -1.3021
  173DOPC   H6S21092   2.337   2.848   3.896 -1.0806  1.6212 -0.9453
  173DOPC   C2721093   2.551   2.842   3.859  0.3598 -0.2530  0.1775
  173DOPC   H7R21094   2.573   2.951   3.868  0.2821 -0.0546 -1.6790
  173DOPC   H7S21095   2.617   2.806   3.777 -1.6235  0.4126 -1.8111
  173DOPC   C2821096   2.575   2.767   3.989  0.7189 -0.1385 -0.5020
  173DOPC   H8R21097   2.549   2.659   3.982 -1.5763  0.3826 -0.7753
  173DOPC   H8S21098   2.500   2.805   4.062 -0.4649 -1.4009 -1.0048
  173DOPC   C2921099   2.717   2.763   4.044  0.0597  0.0941 -0.1749
  173DOPC   H9R21100   2.793   2.719   3.977 -0.1417 -1.2897  0.4518
  173DOPC  C21021101   2.754   2.791   4.167 -0.4418  0.0565 -0.1889
  173DOPC  H10R21102   2.859   2.790   4.202 -0.4727 -2.2490 -0.0474
  173DOPC  C21121103   2.654   2.825   4.277  0.4010 -0.1186  0.1671
  173DOPC  H11R21104   2.587   2.741   4.308 -0.8525  1.2111  1.1866
  173DOPC  H11S21105   2.582   2.898   4.235  0.2526 -0.0090  0.6004
  173DOPC  C21221106   2.715   2.889   4.403  0.8087 -0.2805  1.2310
  173DOPC  H12R21107   2.632   2.934   4.462 -0.4219 -0.6635 -0.1309
  173DOPC  H12S21108   2.785   2.967   4.367 -0.7268  0.7018  0.2533
  173DOPC  C21321109   2.764   2.773   4.499 -0.1383  0.8465 -0.9128
  173DOPC  H13R21110   2.806   2.694   4.434  0.3802  0.7981 -0.5250
  173DOPC  H13S21111   2.680   2.732   4.559  1.0501  1.7740  1.5441
  173DOPC  C21421112   2.872   2.835   4.591 -0.0763 -0.8585 -0.0199
  173DOPC  H14R21113   2.879   2.761   4.675 -0.3540  0.0575  0.8341
  173DOPC  H14S21114   2.826   2.927   4.634 -0.3635 -0.6612 -0.7471
  173DOPC  C21521115   3.002   2.848   4.531 -0.1224 -0.6143 -0.2252
  173DOPC  H15R21116   2.986   2.918   4.446 -0.9776  2.3445  2.1902
  173DOPC  H15S21117   3.048   2.753   4.497  1.4655  0.0379  0.0039
  173DOPC  C21621118   3.097   2.901   4.642  0.3792  0.3491 -0.0482
  173DOPC  H16R21119   3.087   2.823   4.721 -0.0499 -0.0379 -0.4760
  173DOPC  H16S21120   3.057   2.993   4.690  2.1170  1.5657 -0.8267
  173DOPC  C21721121   3.238   2.909   4.593  0.0772 -0.3185  0.2068
  173DOPC  H17R21122   3.296   2.985   4.649 -0.0644  0.5730 -0.8076
  173DOPC  H17S21123   3.231   2.959   4.494  0.8019 -0.1768  0.2164
  173DOPC  C21821124   3.303   2.771   4.588 -0.4554  1.2583 -0.3896
  173DOPC  H18R21125   3.398   2.782   4.532 -0.2326 -0.6798 -0.4773
  173DOPC  H18S21126   3.243   2.696   4.532  0.2924 -0.7158  1.2945
  173DOPC  H18T21127   3.336   2.730   4.686 -1.2077 -0.4414 -0.7930
  173DOPC   C3321128   2.531   2.477   3.661  0.0810 -0.2519 -0.1726
  173DOPC   H3X21129   2.552   2.569   3.719  1.1823 -1.3930  1.3143
  173DOPC   H3Y21130   2.612   2.474   3.585 -0.1344  0.0537 -0.4183
  173DOPC   C3421131   2.537   2.369   3.775 -0.8186 -0.5179 -0.1902
  173DOPC   H4X21132   2.499   2.271   3.740 -0.4885 -0.2103 -1.4650
  173DOPC   H4Y21133   2.463   2.392   3.855 -0.4649  1.2763 -0.3433
  173DOPC   C3521134   2.679   2.357   3.829 -0.1086  0.0096 -0.5549
  173DOPC   H5X21135   2.709   2.445   3.891 -0.4465 -1.2004  1.4304
  173DOPC   H5Y21136   2.746   2.332   3.744 -0.1391 -1.0816 -0.2719
  173DOPC   C3621137   2.688   2.223   3.914 -0.4207  0.1209 -0.7101
  173DOPC   H6X21138   2.606   2.153   3.887  1.6129 -3.0363  0.7548
  173DOPC   H6Y21139   2.779   2.167   3.884 -0.4674  0.3677 -1.3220
  173DOPC   C3721140   2.697   2.243   4.068  0.4327 -0.8189 -0.2322
  173DOPC   H7X21141   2.692   2.155   4.135 -3.7510  0.3099  1.2750
  173DOPC   H7Y21142   2.794   2.295   4.088  0.4805 -0.6204 -0.9537
  173DOPC   C3821143   2.582   2.327   4.128  0.1817 -0.0499  1.1071
  173DOPC   H8X21144   2.493   2.262   4.110 -0.1017  0.3418  1.0889
  173DOPC   H8Y21145   2.575   2.425   4.076 -0.7169  0.3373  1.9287
  173DOPC   C3921146   2.594   2.366   4.273  1.0041  0.3920  0.9067
  173DOPC   H9X21147   2.662   2.452   4.288  0.5135  0.8740  0.4085
  173DOPC  C31021148   2.559   2.301   4.385  0.8771  0.7528  0.2905
  173DOPC  H10X21149   2.573   2.344   4.486  0.7323 -1.3291  1.2374
  173DOPC  C31121150   2.485   2.166   4.389 -0.4764 -0.0263  0.4413
  173DOPC  H11X21151   2.561   2.086   4.401 -0.6275 -0.3897 -0.8525
  173DOPC  H11Y21152   2.417   2.144   4.304 -1.7529  5.1185 -0.2474
  173DOPC  C31221153   2.381   2.188   4.505 -0.5142 -0.1381  0.5171
  173DOPC  H12X21154   2.313   2.268   4.471  0.5026  1.0211  1.0994
  173DOPC  H12Y21155   2.426   2.219   4.602 -1.0468  1.9837  0.1347
  173DOPC  C31321156   2.291   2.067   4.528  0.0123 -0.2794  0.1936
  173DOPC  H13X21157   2.253   2.051   4.425  2.5112  0.7292 -0.9640
  173DOPC  H13Y21158   2.355   1.981   4.556 -1.2523 -1.5996 -0.8715
  173DOPC  C31421159   2.166   2.077   4.619 -0.2275 -0.7478  0.8603
  173DOPC  H14X21160   2.116   1.978   4.620 -2.2552  0.1322 -1.9284
  173DOPC  H14Y21161   2.198   2.113   4.719  0.0514  0.2559  0.4210
  173DOPC  C31521162   2.057   2.179   4.572  0.2029  0.7439 -0.3014
  173DOPC  H15X21163   2.024   2.159   4.468  0.0589  0.0761 -0.1338
  173DOPC  H15Y21164   2.098   2.282   4.577  0.3924  0.6077  1.5953
  173DOPC  C31621165   1.934   2.170   4.658 -0.0691  0.1103 -0.3111
  173DOPC  H16X21166   1.888   2.069   4.665  0.2528  0.0180  0.5701
  173DOPC  H16Y21167   1.954   2.210   4.759 -2.0444  2.5458 -0.7945
  173DOPC  C31721168   1.817   2.252   4.602  0.0852  0.1753  0.2074
  173DOPC  H17X21169   1.785   2.203   4.508  0.3016 -0.7683  0.6075
  173DOPC  H17Y21170   1.740   2.241   4.682  0.7431 -0.0803  0.8140
  173DOPC  C31821171   1.847   2.401   4.578 -0.7404  0.4843 -0.6694
  173DOPC  H18X21172   1.761   2.466   4.553 -0.9302  0.6516  0.3698
  173DOPC  H18Y21173   1.902   2.446   4.663 -0.4062  0.6648 -0.9834
  173DOPC  H18Z21174   1.912   2.409   4.489 -1.5351 -2.3726 -1.6273
  174DOPC     N21175   4.440   2.409   2.959  0.1788  0.1010 -0.3431
  174DOPC   C1221176   4.345   2.525   2.935 -0.0069  0.2107 -0.2272
  174DOPC  H12A21177   4.288   2.541   3.025 -0.0477  2.1145 -0.5645
  174DOPC  H12B21178   4.270   2.496   2.862 -0.4642 -0.4814  0.5042
  174DOPC   C1321179   4.517   2.369   2.841 -0.9001 -0.1834  0.7855
  174DOPC  H13A21180   4.572   2.453   2.801 -0.7961 -0.4355  0.3902
  174DOPC  H13B21181   4.595   2.300   2.871 -0.5400 -1.0244 -1.8128
  174DOPC  H13C21182   4.455   2.323   2.765 -0.0448 -1.3541  0.7690
  174DOPC   C1421183   4.367   2.283   3.010 -0.0716 -0.0683  0.0923
  174DOPC  H14A21184   4.442   2.209   3.034  0.9367  0.6908 -0.6588
  174DOPC  H14B21185   4.305   2.302   3.097 -0.0768  0.0960  0.0519
  174DOPC  H14C21186   4.306   2.249   2.928  1.8817 -1.7504 -0.7418
  174DOPC   C1521187   4.538   2.448   3.068  0.2360  0.3472 -0.4584
  174DOPC  H15A21188   4.612   2.372   3.087 -1.4469 -1.4194 -0.6586
  174DOPC  H15B21189   4.492   2.464   3.164  0.0491  0.5854 -0.5853
  174DOPC  H15C21190   4.587   2.540   3.041  0.1658  1.1894  2.0783
  174DOPC   C1121191   4.401   2.664   2.902 -0.0410 -0.0861  0.4802
  174DOPC  H11A21192   4.313   2.731   2.914 -2.5967 -3.0892  0.0787
  174DOPC  H11B21193   4.476   2.693   2.977  2.7377 -1.4010 -1.5988
  174DOPC     P21194   4.592   2.746   2.738  0.3464  0.3397  0.1339
  174DOPC   O1321195   4.588   2.792   2.600  0.8285  0.2288 -0.1213
  174DOPC   O1421196   4.704   2.653   2.775 -0.0744 -0.0962 -0.0345
  174DOPC   O1221197   4.456   2.666   2.764 -0.4388  0.3468  0.7067
  174DOPC   O1121198   4.584   2.860   2.840 -0.3933  0.0707  0.5703
  174DOPC    C121199   4.688   2.951   2.868  0.1628  0.2900 -0.2729
  174DOPC    HA21200   4.650   3.051   2.898  0.2367 -0.7138  3.7325
  174DOPC    HB21201   4.736   2.974   2.771 -1.1873 -0.7803 -1.2407
  174DOPC    C221202   4.785   2.913   2.980 -0.2723 -0.1446  0.0450
  174DOPC    HS21203   4.798   2.803   2.971  1.1034  0.0098 -0.0526
  174DOPC   O2121204   4.735   2.960   3.109 -0.3724  0.0862  0.4093
  174DOPC   C2121205   4.691   2.878   3.196  0.3339 -0.2927 -0.2707
  174DOPC   O2221206   4.673   2.757   3.190 -0.4230 -0.4372 -0.3801
  174DOPC   C2221207   4.663   2.961   3.327  0.0714 -0.1743 -0.1270
  174DOPC   H2R21208   4.555   2.942   3.346  0.0645  0.0106  0.0247
  174DOPC   H2S21209   4.665   3.069   3.303 -1.5718 -0.4924 -1.9087
  174DOPC    C321210   4.932   2.978   2.964  0.1463  0.1087 -0.7280
  174DOPC    HX21211   4.908   3.083   2.992 -2.7271 -0.6566  0.0223
  174DOPC    HY21212   4.962   2.964   2.858  3.0956 -1.3456  0.1733
  174DOPC   O3121213   5.019   2.897   3.052 -0.2452  0.3614 -0.2111
  174DOPC   C3121214   5.121   2.963   3.099 -0.4332  0.0803 -1.0486
  174DOPC   O3221215   5.134   3.089   3.108 -0.2058  0.1566  0.4762
  174DOPC   C3221216   5.223   2.871   3.152 -0.1344 -0.1895 -0.4892
  174DOPC   H2X21217   5.164   2.787   3.193 -1.7052  0.1362 -1.9952
  174DOPC   H2Y21218   5.285   2.827   3.071  3.7852  1.7217  1.1901
  174DOPC   C2321219   4.743   2.915   3.453 -0.0165  0.4144  0.3038
  174DOPC   H3R21220   4.849   2.950   3.450  0.5715 -1.2433  0.4819
  174DOPC   H3S21221   4.742   2.804   3.457  0.9556  0.2306 -2.4800
  174DOPC   C2421222   4.685   2.967   3.587  0.3518  0.2115  0.1528
  174DOPC   H4R21223   4.656   3.071   3.558  1.6239  0.1857 -1.3023
  174DOPC   H4S21224   4.753   2.950   3.673  0.5135 -1.2451 -0.2468
  174DOPC   C2521225   4.548   2.898   3.633 -1.2521  0.5243  0.6347
  174DOPC   H5R21226   4.594   2.798   3.648 -0.7023 -0.1657 -4.0183
  174DOPC   H5S21227   4.468   2.900   3.555 -1.3324  0.1259  0.7075
  174DOPC   C2621228   4.486   2.958   3.759  0.2226  0.1043 -0.3849
  174DOPC   H6R21229   4.471   3.068   3.753 -2.8565 -0.1740  0.7096
  174DOPC   H6S21230   4.539   2.944   3.856  0.3695 -1.0240 -0.6153
  174DOPC   C2721231   4.355   2.894   3.793 -0.3518 -0.2052 -0.2700
  174DOPC   H7R21232   4.364   2.789   3.827  0.0532  0.5325  2.0551
  174DOPC   H7S21233   4.294   2.900   3.700 -0.5541  0.5560 -0.0981
  174DOPC   C2821234   4.288   2.971   3.913  0.5048  0.3276  0.5837
  174DOPC   H8R21235   4.252   3.068   3.874  0.7558  0.7788  1.4601
  174DOPC   H8S21236   4.367   2.986   3.990  0.5928  1.2850  0.3146
  174DOPC   C2921237   4.171   2.899   3.969 -0.0679  0.3193 -0.5303
  174DOPC   H9R21238   4.146   2.800   3.928  0.0892 -0.0709  0.2927
  174DOPC  C21021239   4.094   2.946   4.071 -0.1698 -0.3485 -0.9380
  174DOPC  H10R21240   3.993   2.907   4.089 -1.1863  2.0414 -1.1889
  174DOPC  C21121241   4.127   3.083   4.138 -0.3277  0.1736 -0.9997
  174DOPC  H11R21242   4.122   3.162   4.060  0.8639 -2.8197 -4.4330
  174DOPC  H11S21243   4.233   3.092   4.170 -0.0157 -0.6516 -1.7351
  174DOPC  C21221244   4.044   3.121   4.258  0.2448 -0.3654 -0.0071
  174DOPC  H12R21245   3.939   3.121   4.221  0.3381 -1.1483 -0.2918
  174DOPC  H12S21246   4.057   3.226   4.293 -3.0336  0.2882 -0.4152
  174DOPC  C21321247   4.053   3.017   4.371  0.6574 -0.1155 -0.6310
  174DOPC  H13R21248   4.159   2.985   4.367  0.8009  0.3254 -0.4333
  174DOPC  H13S21249   3.990   2.930   4.345  1.2465 -0.9818  0.7362
  174DOPC  C21421250   4.023   3.078   4.516 -0.2549  0.3403 -0.3863
  174DOPC  H14R21251   3.923   3.126   4.519  0.2365  1.4888 -1.6713
  174DOPC  H14S21252   4.095   3.162   4.523  1.5564 -1.1522 -0.2431
  174DOPC  C21521253   4.055   2.964   4.621 -0.2165  0.5060 -0.2956
  174DOPC  H15R21254   4.164   2.942   4.623  0.1478  2.2009 -0.0689
  174DOPC  H15S21255   3.992   2.876   4.595 -0.3625  0.6359 -0.3827
  174DOPC  C21621256   4.029   3.005   4.766 -0.2035 -0.0824 -1.2396
  174DOPC  H16R21257   3.924   3.041   4.768 -1.0566 -2.2439  2.1405
  174DOPC  H16S21258   4.092   3.095   4.781  2.0763 -1.4905 -1.9495
  174DOPC  C21721259   4.052   2.899   4.878  0.4943 -0.6865 -0.0678
  174DOPC  H17R21260   4.162   2.880   4.884  0.3665 -1.0737  1.4191
  174DOPC  H17S21261   3.995   2.806   4.856  1.3997 -0.7066 -2.7907
  174DOPC  C21821262   4.010   2.951   5.022 -0.2259 -0.6497  0.2842
  174DOPC  H18R21263   3.899   2.958   5.024 -0.3221 -1.2285 -1.5194
  174DOPC  H18S21264   4.048   3.052   5.048 -0.8770 -0.5391  0.8503
  174DOPC  H18T21265   4.045   2.883   5.102  1.0377 -1.3728 -0.8584
  174DOPC   C3321266   5.311   2.928   3.268  0.5182 -0.0840 -0.1020
  174DOPC   H3X21267   5.257   2.967   3.356  0.7149 -1.1413  0.5103
  174DOPC   H3Y21268   5.363   3.014   3.220 -2.3236  1.8557  0.0903
  174DOPC   C3421269   5.401   2.811   3.314 -0.3539 -0.3628  0.0297
  174DOPC   H4X21270   5.445   2.765   3.224 -1.4777  0.1108 -0.7903
  174DOPC   H4Y21271   5.330   2.744   3.367  0.2040  0.1191  1.4463
  174DOPC   C3521272   5.520   2.858   3.411 -0.1659  0.8808  0.3587
  174DOPC   H5X21273   5.576   2.931   3.349  0.3048  1.0875  1.0150
  174DOPC   H5Y21274   5.589   2.773   3.428 -1.4005 -0.3150 -0.3831
  174DOPC   C3621275   5.471   2.911   3.544 -0.0318  0.1591 -0.1345
  174DOPC   H6X21276   5.448   3.020   3.539  1.5131  0.6653  2.1636
  174DOPC   H6Y21277   5.377   2.857   3.565  0.5759 -1.4061 -1.2770
  174DOPC   C3721278   5.565   2.869   3.655 -0.3167  0.3539 -0.6081
  174DOPC   H7X21279   5.591   2.762   3.644 -0.8817  0.4313 -3.4397
  174DOPC   H7Y21280   5.658   2.930   3.650  0.1570 -0.2048  0.9738
  174DOPC   C3821281   5.501   2.897   3.793  0.3133 -0.0888  0.6321
  174DOPC   H8X21282   5.544   2.821   3.862 -1.2127 -1.4725  0.1321
  174DOPC   H8Y21283   5.395   2.865   3.782  1.1389 -2.9116  0.2551
  174DOPC   C3921284   5.489   3.039   3.848 -0.1451 -0.0122  0.0102
  174DOPC   H9X21285   5.406   3.102   3.812 -1.5081 -1.5871  0.2862
  174DOPC  C31021286   5.580   3.092   3.927  0.0974  0.2224 -0.5209
  174DOPC  H10X21287   5.568   3.195   3.966  2.0427  1.0643 -1.9373
  174DOPC  C31121288   5.705   3.022   3.966 -0.1245  0.2202 -0.4220
  174DOPC  H11X21289   5.789   3.094   3.971 -0.7686  0.9562  0.0393
  174DOPC  H11Y21290   5.725   2.944   3.890 -0.9367  1.2927 -1.7613
  174DOPC  C31221291   5.680   2.963   4.107  0.8895 -0.9984 -0.2756
  174DOPC  H12X21292   5.583   2.909   4.112 -1.3096  2.4988 -1.0261
  174DOPC  H12Y21293   5.667   3.052   4.173  1.6556 -1.6877  0.8264
  174DOPC  C31321294   5.794   2.880   4.160 -0.5665 -0.0059  0.0873
  174DOPC  H13X21295   5.808   2.782   4.111  0.2193 -0.5313  1.3364
  174DOPC  H13Y21296   5.883   2.942   4.137 -1.5970  0.3192 -3.7589
  174DOPC  C31421297   5.793   2.847   4.305 -0.8082 -0.2835  0.1610
  174DOPC  H14X21298   5.765   2.945   4.351 -1.9500 -0.0442 -0.9785
  174DOPC  H14Y21299   5.722   2.770   4.343 -1.9581  0.4345 -0.4891
  174DOPC  C31521300   5.941   2.804   4.346  0.5998  0.0403 -0.7051
  174DOPC  H15X21301   6.019   2.878   4.318 -0.3692  1.3541 -0.0761
  174DOPC  H15Y21302   5.964   2.708   4.294 -0.9560 -0.0313 -1.3078
  174DOPC  C31621303   5.950   2.781   4.500  0.4008 -0.3516  0.2567
  174DOPC  H16X21304   5.847   2.779   4.541 -0.8499  0.5864 -2.6149
  174DOPC  H16Y21305   5.996   2.680   4.510  2.6395  0.3650 -1.8308
  174DOPC  C31721306   6.048   2.870   4.585  0.1942  0.0765  0.0815
  174DOPC  H17X21307   6.044   2.832   4.689 -1.7020 -2.4162 -0.8089
  174DOPC  H17Y21308   6.147   2.840   4.544 -0.1192 -0.8586 -0.0134
  174DOPC  C31821309   6.025   3.016   4.565  0.4225  0.1471  0.6993
  174DOPC  H18X21310   6.062   3.081   4.647  1.1209  0.3072  0.2624
  174DOPC  H18Y21311   6.059   3.045   4.464  1.5999 -0.0028  1.0289
  174DOPC  H18Z21312   5.914   3.021   4.563  0.4760  1.2250 -0.7488
  175DOPC     N21313   4.468   5.211   2.764 -0.6409 -0.5683 -0.3001
  175DOPC   C1221314   4.338   5.253   2.828  0.0512 -0.2434 -0.0608
  175DOPC  H12A21315   4.296   5.330   2.765 -2.0414 -0.2188  1.2916
  175DOPC  H12B21316   4.363   5.300   2.922  1.3103  1.1829 -1.0537
  175DOPC   C1321317   4.528   5.089   2.825 -0.1064 -0.1037 -0.1772
  175DOPC  H13A21318   4.468   4.999   2.818  2.3729 -1.8010 -0.9551
  175DOPC  H13B21319   4.618   5.065   2.770 -0.5198 -1.2997 -0.3536
  175DOPC  H13C21320   4.554   5.117   2.925 -1.5455 -0.5750  0.3603
  175DOPC   C1421321   4.567   5.326   2.771  0.0545  0.1137  0.0768
  175DOPC  H14A21322   4.587   5.363   2.870  1.4029  0.2923 -0.2494
  175DOPC  H14B21323   4.668   5.302   2.740  0.7449  2.9983 -0.1476
  175DOPC  H14C21324   4.541   5.413   2.712  1.2210  0.2888 -0.1977
  175DOPC   C1521325   4.442   5.186   2.622  0.4101 -0.4400 -0.0854
  175DOPC  H15A21326   4.522   5.149   2.560  0.3903  0.2755 -0.5470
  175DOPC  H15B21327   4.401   5.280   2.588  0.6166  0.4727  2.0247
  175DOPC  H15C21328   4.362   5.113   2.621 -2.6594  2.6051 -2.2173
  175DOPC   C1121329   4.228   5.154   2.858 -0.3323 -0.2878 -0.3830
  175DOPC  H11A21330   4.132   5.207   2.878 -1.2679 -2.2661  0.6905
  175DOPC  H11B21331   4.222   5.093   2.766 -0.0815  0.5417 -0.9535
  175DOPC     P21332   4.275   5.119   3.114 -0.0976 -0.3403  0.2051
  175DOPC   O1321333   4.388   5.213   3.126 -0.2733  0.0579 -0.5848
  175DOPC   O1421334   4.277   5.009   3.207 -0.1924  0.9336 -0.2520
  175DOPC   O1221335   4.264   5.070   2.971 -0.3080 -0.0344  0.2655
  175DOPC   O1121336   4.149   5.211   3.145 -0.0589 -0.1360 -0.0919
  175DOPC    C121337   4.015   5.157   3.130 -0.5558 -0.3810  0.4051
  175DOPC    HA21338   4.012   5.059   3.077  0.2816 -0.0300 -0.3358
  175DOPC    HB21339   3.956   5.233   3.074 -1.4223 -2.5620 -1.8016
  175DOPC    C221340   3.951   5.140   3.266  0.2283 -0.0417 -0.0036
  175DOPC    HS21341   3.849   5.102   3.247 -0.4464  2.0653 -0.8240
  175DOPC   O2121342   3.948   5.269   3.325 -0.1921 -0.3697 -0.4240
  175DOPC   C2121343   3.842   5.297   3.401  0.2914  0.2971 -0.2616
  175DOPC   O2221344   3.740   5.235   3.391 -0.0942 -0.7354 -0.1566
  175DOPC   C2221345   3.882   5.410   3.494  0.0867 -0.1071 -0.6739
  175DOPC   H2R21346   3.841   5.512   3.476  0.8931  0.7929  2.0267
  175DOPC   H2S21347   3.990   5.420   3.470  0.4595 -0.4433  0.7619
  175DOPC    C321348   4.028   5.040   3.361 -0.5568 -0.3477  0.1931
  175DOPC    HX21349   4.124   5.092   3.381 -0.8705  0.0273  0.7470
  175DOPC    HY21350   4.056   4.949   3.305 -0.0272 -0.2017  0.2187
  175DOPC   O3121351   3.962   5.017   3.482  0.3400  0.0679 -0.0119
  175DOPC   C3121352   4.019   4.918   3.557  0.4059  0.5294 -0.0214
  175DOPC   O3221353   4.123   4.858   3.530  0.6082  0.2709 -0.1929
  175DOPC   C3221354   3.920   4.883   3.672 -0.6005  0.0654 -0.8884
  175DOPC   H2X21355   3.846   4.965   3.690  0.4454  1.0462 -0.9567
  175DOPC   H2Y21356   3.853   4.805   3.631 -0.8570  0.4700 -1.2473
  175DOPC   C2321357   3.864   5.375   3.647 -0.2118 -0.2784 -0.0955
  175DOPC   H3R21358   3.932   5.448   3.697 -0.3514  0.3325 -0.7875
  175DOPC   H3S21359   3.899   5.271   3.665  0.9026 -0.2270 -1.8131
  175DOPC   C2421360   3.716   5.386   3.689  0.4533 -0.6698 -0.1990
  175DOPC   H4R21361   3.663   5.308   3.630 -2.2176  1.1535 -0.4104
  175DOPC   H4S21362   3.670   5.479   3.649  1.5238  0.4608  1.0808
  175DOPC   C2521363   3.689   5.353   3.837  0.4409  0.2787  0.1092
  175DOPC   H5R21364   3.734   5.427   3.907  0.5941  0.2710  0.0200
  175DOPC   H5S21365   3.732   5.253   3.862 -1.4069 -0.4097  0.7160
  175DOPC   C2621366   3.538   5.341   3.866 -0.8562  0.0935 -0.2489
  175DOPC   H6R21367   3.508   5.301   3.965 -0.6327 -0.6831 -0.4896
  175DOPC   H6S21368   3.496   5.275   3.787  0.1077 -0.8371 -0.0027
  175DOPC   C2721369   3.460   5.474   3.859  0.2484 -0.3596  0.2884
  175DOPC   H7R21370   3.484   5.509   3.756 -1.4853  1.4491  0.4394
  175DOPC   H7S21371   3.496   5.545   3.936 -0.9919  0.4407  0.1464
  175DOPC   C2821372   3.306   5.462   3.856 -0.0940  0.3088 -0.2881
  175DOPC   H8R21373   3.274   5.398   3.941  2.6077 -1.0587 -0.1933
  175DOPC   H8S21374   3.276   5.419   3.759 -0.0373  1.7516 -0.9760
  175DOPC   C2921375   3.240   5.596   3.866 -0.2940 -0.4793 -0.4511
  175DOPC   H9R21376   3.283   5.682   3.813 -0.1578 -0.1524  0.1817
  175DOPC  C21021377   3.135   5.632   3.938  0.6282 -1.1194 -0.8648
  175DOPC  H10R21378   3.092   5.734   3.935  4.0144  0.5257  0.9096
  175DOPC  C21121379   3.054   5.545   4.033 -0.6858  0.4105 -0.4216
  175DOPC  H11R21380   3.098   5.444   4.021  1.7727  0.9872  2.4692
  175DOPC  H11S21381   2.954   5.545   3.985 -1.4943  2.0702  1.1405
  175DOPC  C21221382   3.026   5.574   4.181  0.5303  0.1797  1.0779
  175DOPC  H12R21383   2.954   5.496   4.214 -0.2345  0.5498  0.3380
  175DOPC  H12S21384   2.986   5.677   4.194  0.3424  0.1089  1.0658
  175DOPC  C21321385   3.153   5.559   4.271 -0.1954  0.1661 -0.0898
  175DOPC  H13R21386   3.112   5.584   4.372  2.1148  0.9443  0.7342
  175DOPC  H13S21387   3.228   5.637   4.247  0.2060 -0.2827 -0.3099
  175DOPC  C21421388   3.211   5.413   4.280 -0.2322 -0.1204  0.4852
  175DOPC  H14R21389   3.254   5.376   4.184  1.2053 -0.8688  1.3751
  175DOPC  H14S21390   3.116   5.358   4.295  0.1506 -0.9594 -0.1009
  175DOPC  C21521391   3.306   5.400   4.394 -0.0899 -0.3353 -0.0900
  175DOPC  H15R21392   3.354   5.301   4.408 -1.0035 -0.5491  1.9565
  175DOPC  H15S21393   3.249   5.420   4.487 -0.4921 -0.6376 -0.2672
  175DOPC  C21621394   3.418   5.510   4.398 -0.4328  0.3646 -0.4623
  175DOPC  H16R21395   3.481   5.483   4.485  1.2634 -3.1220 -2.5543
  175DOPC  H16S21396   3.379   5.613   4.411 -0.9942  0.1652 -0.5587
  175DOPC  C21721397   3.501   5.501   4.271  0.3636 -0.0985 -0.5206
  175DOPC  H17R21398   3.428   5.553   4.205  0.5390 -0.0526 -0.6795
  175DOPC  H17S21399   3.516   5.392   4.255  0.1073 -0.8161  3.1645
  175DOPC  C21821400   3.630   5.579   4.273  0.0398  0.0087 -0.6912
  175DOPC  H18R21401   3.701   5.553   4.354  0.8946  1.5049 -0.9309
  175DOPC  H18S21402   3.599   5.682   4.301  1.7896  0.1357  0.9743
  175DOPC  H18T21403   3.670   5.568   4.170  0.7479 -2.5340 -0.2263
  175DOPC   C3321404   3.990   4.840   3.801  0.8890 -0.0045  0.1068
  175DOPC   H3X21405   4.080   4.778   3.779  2.1103  2.0411 -0.9962
  175DOPC   H3Y21406   3.919   4.774   3.855 -0.1195 -0.0142 -1.1656
  175DOPC   C3421407   4.034   4.968   3.881 -0.5268  0.3190  0.0942
  175DOPC   H4X21408   3.943   5.029   3.897  0.1065  1.4223 -0.4190
  175DOPC   H4Y21409   4.105   5.025   3.817 -2.1241  1.4045 -0.7543
  175DOPC   C3521410   4.110   4.936   4.012 -0.7144  0.1822  0.1724
  175DOPC   H5X21411   4.046   4.867   4.072 -0.4814  0.2118  0.4597
  175DOPC   H5Y21412   4.110   5.033   4.065 -0.1045  0.8493 -1.0197
  175DOPC   C3621413   4.254   4.887   3.989 -0.4505 -0.4923  0.4330
  175DOPC   H6X21414   4.241   4.796   3.926 -2.9917 -1.4483  2.1806
  175DOPC   H6Y21415   4.305   4.957   3.920  0.0027 -0.4907  0.7611
  175DOPC   C3721416   4.347   4.869   4.108  0.0868  0.1975 -0.2512
  175DOPC   H7X21417   4.444   4.835   4.067 -0.3710 -2.0744  0.4282
  175DOPC   H7Y21418   4.368   4.969   4.152  2.9685 -0.5976  0.3907
  175DOPC   C3821419   4.297   4.777   4.217 -0.6471  0.0115  0.4383
  175DOPC   H8X21420   4.197   4.812   4.250 -1.4498 -1.2212 -0.5571
  175DOPC   H8Y21421   4.359   4.789   4.308 -1.0846  0.3534  0.6969
  175DOPC   C3921422   4.288   4.634   4.174  0.9509  0.1156  0.9698
  175DOPC   H9X21423   4.191   4.593   4.142  1.4935 -0.4053 -0.0593
  175DOPC  C31021424   4.385   4.540   4.167  0.0589 -0.5064 -0.3127
  175DOPC  H10X21425   4.362   4.445   4.119  0.2077 -1.1934  0.9273
  175DOPC  C31121426   4.524   4.566   4.220 -0.3523  0.0982 -0.0908
  175DOPC  H11X21427   4.527   4.676   4.232 -0.2445  0.1818 -0.8400
  175DOPC  H11Y21428   4.604   4.546   4.146  1.9187  3.7043  1.1329
  175DOPC  C31221429   4.566   4.495   4.356 -0.5405  0.0521  0.3262
  175DOPC  H12X21430   4.603   4.394   4.327  0.1539  0.1450  0.8596
  175DOPC  H12Y21431   4.478   4.487   4.422  1.0637  0.3237  2.6156
  175DOPC  C31321432   4.665   4.579   4.434 -0.4875  0.0613 -0.7953
  175DOPC  H13X21433   4.741   4.621   4.365  0.5921 -0.6228 -0.0399
  175DOPC  H13Y21434   4.615   4.660   4.493 -0.1259 -0.7569  0.6705
  175DOPC  C31421435   4.743   4.496   4.543  0.3751  0.0301  0.3661
  175DOPC  H14X21436   4.787   4.405   4.497  1.1045  0.9850 -0.9135
  175DOPC  H14Y21437   4.829   4.553   4.584 -0.3427  0.6844  0.9868
  175DOPC  C31521438   4.643   4.460   4.651  0.0943 -0.2312 -0.3831
  175DOPC  H15X21439   4.561   4.406   4.600  0.1972  0.1309 -0.9491
  175DOPC  H15Y21440   4.581   4.547   4.682 -1.0124 -1.0240 -0.3198
  175DOPC  C31621441   4.696   4.383   4.772  0.3596  0.2695  0.2718
  175DOPC  H16X21442   4.767   4.446   4.831  1.9781 -0.5380 -0.7687
  175DOPC  H16Y21443   4.618   4.360   4.848 -0.2559 -0.8961 -0.6865
  175DOPC  C31721444   4.771   4.248   4.734  0.3275  0.2166 -0.6616
  175DOPC  H17X21445   4.699   4.180   4.684 -0.6923  0.7985 -0.0352
  175DOPC  H17Y21446   4.851   4.279   4.663  1.8716 -0.3551  0.7554
  175DOPC  C31821447   4.830   4.171   4.860 -0.7441 -0.1509  0.5566
  175DOPC  H18X21448   4.754   4.119   4.923  0.4201  0.4970  2.5792
  175DOPC  H18Y21449   4.899   4.097   4.814 -0.1113  0.8994 -0.2210
  175DOPC  H18Z21450   4.899   4.237   4.916  1.2271 -3.0034  1.6999
  176DOPC     N21451   2.821   0.330   3.007 -0.4176 -0.2815 -0.2427
  176DOPC   C1221452   2.866   0.472   3.007  0.1219 -0.2022 -0.0536
  176DOPC  H12A21453   2.918   0.493   3.099 -1.1824  0.2419  0.6066
  176DOPC  H12B21454   2.779   0.536   3.012 -1.2982 -2.1475  2.1420
  176DOPC   C1321455   2.738   0.310   2.887  0.4672 -0.3079 -0.3663
  176DOPC  H13A21456   2.651   0.374   2.899 -0.5526 -1.7735  0.2410
  176DOPC  H13B21457   2.782   0.352   2.798 -1.6214  2.2716 -0.3073
  176DOPC  H13C21458   2.692   0.213   2.873  2.0861 -0.9178 -1.6744
  176DOPC   C1421459   2.741   0.291   3.131  0.0567  0.1727 -0.4136
  176DOPC  H14A21460   2.699   0.191   3.126 -2.5999  1.1294  0.8060
  176DOPC  H14B21461   2.792   0.306   3.225 -0.2832  0.4031 -0.2614
  176DOPC  H14C21462   2.654   0.356   3.138 -1.3692 -1.6354 -0.4762
  176DOPC   C1521463   2.937   0.244   3.001 -0.3951  0.8785 -0.0786
  176DOPC  H15A21464   2.904   0.141   2.999  1.8048  0.0941  0.8744
  176DOPC  H15B21465   3.004   0.246   3.086 -1.5002 -2.1700  0.9957
  176DOPC  H15C21466   2.993   0.271   2.913 -2.1189  0.4127 -1.3667
  176DOPC   C1121467   2.969   0.515   2.894 -0.0092 -0.3280  0.4148
  176DOPC  H11A21468   2.911   0.520   2.799  1.3109  1.8179 -0.3457
  176DOPC  H11B21469   2.997   0.621   2.914 -1.8832  0.0420  1.3018
  176DOPC     P21470   3.207   0.484   2.778 -0.3597  0.1736  0.2015
  176DOPC   O1321471   3.151   0.524   2.650 -0.0633  0.1839 -0.1066
  176DOPC   O1421472   3.306   0.381   2.770 -0.1958 -0.1583  0.7328
  176DOPC   O1221473   3.087   0.437   2.872  0.4613 -0.3936  0.1048
  176DOPC   O1121474   3.277   0.596   2.858  0.7961  0.1244  0.1527
  176DOPC    C121475   3.320   0.570   2.990  0.1276  0.1561 -0.7398
  176DOPC    HA21476   3.426   0.537   2.989  0.3478  0.8532 -0.8193
  176DOPC    HB21477   3.263   0.495   3.051  1.9567  1.8810  3.5130
  176DOPC    C221478   3.317   0.689   3.085 -0.2004 -0.5180 -0.0366
  176DOPC    HS21479   3.418   0.736   3.081  0.2942 -1.4779  0.9095
  176DOPC   O2121480   3.297   0.648   3.224 -0.3793 -0.2957 -0.1488
  176DOPC   C2121481   3.399   0.589   3.287 -0.3875  1.0516  0.1468
  176DOPC   O2221482   3.511   0.569   3.238 -0.1376  0.0223  0.4208
  176DOPC   C2221483   3.333   0.528   3.416  0.1523 -0.0678  0.7112
  176DOPC   H2R21484   3.388   0.431   3.417  1.4035  0.6131  0.0611
  176DOPC   H2S21485   3.227   0.501   3.400  0.1826  0.0352  0.3171
  176DOPC    C321486   3.211   0.789   3.046 -0.3789 -0.0239  0.0618
  176DOPC    HX21487   3.114   0.736   3.046  0.2742 -1.2890 -1.6460
  176DOPC    HY21488   3.216   0.822   2.940  0.5187 -0.3299  0.0033
  176DOPC   O3121489   3.201   0.901   3.138 -0.4331  0.2440 -0.1759
  176DOPC   C3121490   3.300   0.993   3.141 -0.2096 -0.2879  0.0200
  176DOPC   O3221491   3.399   0.994   3.069  0.2197 -0.1077  0.5340
  176DOPC   C3221492   3.265   1.093   3.248 -0.4307 -0.1741 -0.2479
  176DOPC   H2X21493   3.157   1.117   3.238 -0.2091  0.4553 -1.3141
  176DOPC   H2Y21494   3.281   1.040   3.344  1.3187  2.1750  0.8569
  176DOPC   C2321495   3.348   0.629   3.531 -0.5325 -0.2848  0.7184
  176DOPC   H3R21496   3.268   0.706   3.526 -0.1421  0.0912  0.0025
  176DOPC   H3S21497   3.451   0.671   3.524 -0.9557  0.5025 -1.5675
  176DOPC   C2421498   3.327   0.559   3.664 -0.0021  0.2681  0.0270
  176DOPC   H4R21499   3.405   0.481   3.663  1.7057  1.8737  1.4272
  176DOPC   H4S21500   3.225   0.515   3.656 -0.2026  0.9434 -1.4649
  176DOPC   C2521501   3.359   0.645   3.796  0.4920  0.1565 -0.0108
  176DOPC   H5R21502   3.278   0.721   3.790  0.8072  0.4522 -0.6875
  176DOPC   H5S21503   3.460   0.689   3.778  0.4795 -0.6434 -2.4721
  176DOPC   C2621504   3.328   0.564   3.919 -0.2183 -0.0050 -0.4339
  176DOPC   H6R21505   3.393   0.475   3.901  0.5465  0.6823 -1.1665
  176DOPC   H6S21506   3.219   0.544   3.919 -0.7787  2.2902  2.6397
  176DOPC   C2721507   3.357   0.628   4.052 -0.4404 -0.0458  0.1616
  176DOPC   H7R21508   3.277   0.705   4.058 -1.8508 -1.4345  0.0639
  176DOPC   H7S21509   3.457   0.675   4.060  0.0478 -0.9257 -0.5617
  176DOPC   C2821510   3.310   0.541   4.179  0.2028  0.2577  0.5029
  176DOPC   H8R21511   3.342   0.435   4.171  0.3491  0.4316 -2.2714
  176DOPC   H8S21512   3.200   0.555   4.184 -0.0425 -1.1460 -0.4171
  176DOPC   C2921513   3.368   0.589   4.306 -0.8621 -0.1884  0.2293
  176DOPC   H9R21514   3.467   0.634   4.292  0.5941 -2.4050  2.4929
  176DOPC  C21021515   3.316   0.595   4.433  0.5254  0.5180 -0.0601
  176DOPC  H10R21516   3.376   0.633   4.518  2.5835 -0.2131 -1.1223
  176DOPC  C21121517   3.180   0.552   4.478  0.0774  0.0184  0.1349
  176DOPC  H11R21518   3.116   0.559   4.386  0.8091  2.4877 -0.2731
  176DOPC  H11S21519   3.138   0.623   4.552  0.2987 -0.4825  0.7457
  176DOPC  C21221520   3.184   0.417   4.538  0.2038 -0.1219 -0.8420
  176DOPC  H12R21521   3.252   0.407   4.625  1.9202  1.9769 -1.8405
  176DOPC  H12S21522   3.230   0.342   4.470  0.6204 -1.7566  1.1252
  176DOPC  C21321523   3.044   0.392   4.577  0.5099 -0.2088  0.8335
  176DOPC  H13R21524   2.972   0.416   4.496  1.5893  1.9745  0.4365
  176DOPC  H13S21525   3.023   0.455   4.665  0.1211 -0.7762  1.1542
  176DOPC  C21421526   3.025   0.249   4.613  0.6402 -0.2924  0.7018
  176DOPC  H14R21527   3.091   0.225   4.699 -3.0361 -2.4894  3.2035
  176DOPC  H14S21528   3.040   0.175   4.532  1.2196  1.4667 -0.8528
  176DOPC  C21521529   2.881   0.228   4.668  0.0848 -0.1715 -0.4751
  176DOPC  H15R21530   2.811   0.231   4.582  0.6177 -1.6255 -0.9949
  176DOPC  H15S21531   2.863   0.312   4.738  2.3332 -1.1287  1.3749
  176DOPC  C21621532   2.866   0.094   4.738 -0.3996 -0.2026 -0.2297
  176DOPC  H16R21533   2.920   0.104   4.835 -0.7811 -0.9053  0.0700
  176DOPC  H16S21534   2.913   0.018   4.673 -0.8725 -1.6698  1.0680
  176DOPC  C21721535   2.725   0.051   4.769 -0.2667  0.0231 -0.0379
  176DOPC  H17R21536   2.677   0.127   4.834  0.9310  0.2098  0.6634
  176DOPC  H17S21537   2.734  -0.037   4.836  1.5685  1.1437  1.2674
  176DOPC  C21821538   2.631   0.007   4.654  0.4229 -0.2603 -0.0346
  176DOPC  H18R21539   2.622   0.090   4.581  1.1676 -1.2140 -1.2549
  176DOPC  H18S21540   2.534  -0.026   4.696  0.9975 -1.4721  0.3795
  176DOPC  H18T21541   2.679  -0.077   4.600 -0.4148 -0.5220 -0.3922
  176DOPC   C3321542   3.353   1.222   3.248  0.2475  0.5543  0.0581
  176DOPC   H3X21543   3.457   1.184   3.260 -0.5206 -1.8531 -0.2944
  176DOPC   H3Y21544   3.321   1.278   3.338  0.1472 -0.0373  0.3952
  176DOPC   C3421545   3.328   1.318   3.137 -0.5632 -0.1549  1.0434
  176DOPC   H4X21546   3.326   1.261   3.042  2.5015  2.4347 -0.7679
  176DOPC   H4Y21547   3.415   1.386   3.126  0.2368 -1.2275  0.6121
  176DOPC   C3521548   3.199   1.393   3.143 -0.0193 -0.1097 -0.0963
  176DOPC   H5X21549   3.119   1.322   3.173 -0.1311 -0.5082 -1.2868
  176DOPC   H5Y21550   3.173   1.421   3.039  0.4949  1.0261  0.0728
  176DOPC   C3621551   3.194   1.515   3.236 -0.9792  0.0231 -0.4992
  176DOPC   H6X21552   3.226   1.484   3.339 -0.4507 -2.1092 -1.2453
  176DOPC   H6Y21553   3.267   1.587   3.192 -0.9228 -1.7361 -3.5611
  176DOPC   C3721554   3.052   1.579   3.257  0.9041 -0.0571  0.1171
  176DOPC   H7X21555   3.055   1.685   3.292  0.3214 -0.0454  0.1427
  176DOPC   H7Y21556   2.997   1.578   3.161 -0.6992  1.4738  0.9427
  176DOPC   C3821557   2.977   1.497   3.359 -0.0232 -0.1792 -0.4432
  176DOPC   H8X21558   2.963   1.389   3.339 -1.0006 -0.2848  0.6813
  176DOPC   H8Y21559   2.876   1.543   3.355 -1.2100 -2.6486 -0.5649
  176DOPC   C3921560   3.040   1.523   3.498  0.2531 -0.2109 -0.2273
  176DOPC   H9X21561   3.076   1.627   3.507 -0.9878  0.1093  1.3355
  176DOPC  C31021562   3.062   1.432   3.594  0.1273  0.2291 -0.3916
  176DOPC  H10X21563   3.091   1.459   3.697  0.2241  0.9576 -0.6046
  176DOPC  C31121564   3.031   1.283   3.585  0.2365 -0.0477 -0.1470
  176DOPC  H11X21565   2.974   1.244   3.498  0.8586 -0.3751 -0.4195
  176DOPC  H11Y21566   2.969   1.261   3.674  2.6765 -1.9949  1.1953
  176DOPC  C31221567   3.147   1.185   3.590 -0.5866  0.4428  0.2477
  176DOPC  H12X21568   3.222   1.213   3.513 -0.7991 -0.8526 -0.4706
  176DOPC  H12Y21569   3.098   1.087   3.569  0.5005 -0.3442  1.2150
  176DOPC  C31321570   3.220   1.178   3.729  0.0358  0.1007  0.2324
  176DOPC  H13X21571   3.323   1.142   3.708 -0.5890 -1.1932 -0.6954
  176DOPC  H13Y21572   3.236   1.282   3.768 -0.5049  0.3576 -0.2347
  176DOPC  C31421573   3.157   1.080   3.834 -0.2717 -0.6805  0.3764
  176DOPC  H14X21574   3.049   1.100   3.847 -0.0162  1.7304 -0.6549
  176DOPC  H14Y21575   3.170   0.978   3.790  1.8473 -0.9015  1.3671
  176DOPC  C31521576   3.227   1.090   3.970 -0.4278  0.6240 -0.1761
  176DOPC  H15X21577   3.221   1.194   4.008  0.6656  0.2641  1.0561
  176DOPC  H15Y21578   3.333   1.056   3.963 -1.2034 -1.7600 -1.7891
  176DOPC  C31621579   3.163   1.004   4.077  0.1097  0.4984 -0.3879
  176DOPC  H16X21580   3.058   1.041   4.086  0.0340 -0.0860  1.5232
  176DOPC  H16Y21581   3.161   0.897   4.045  0.1326 -0.3278  2.1442
  176DOPC  C31721582   3.235   1.000   4.218 -0.2756 -0.0667  0.0117
  176DOPC  H17X21583   3.328   0.943   4.199  0.0244  0.7104 -0.9698
  176DOPC  H17Y21584   3.268   1.104   4.243  1.7934 -0.5075 -0.7017
  176DOPC  C31821585   3.150   0.947   4.321  0.6062 -0.3622 -0.0126
  176DOPC  H18X21586   3.066   1.014   4.348 -0.2197 -1.5378  0.3994
  176DOPC  H18Y21587   3.112   0.848   4.290 -1.0447  0.3574 -0.3840
  176DOPC  H18Z21588   3.203   0.930   4.417  0.2708  0.0392  0.2464
  177DOPC     N21589   6.068   5.632   2.692  0.1345 -0.3950  0.7414
  177DOPC   C1221590   6.098   5.752   2.783 -0.2240  1.1530  0.3152
  177DOPC  H12A21591   6.175   5.811   2.737  0.7001  0.5299  1.0309
  177DOPC  H12B21592   6.133   5.717   2.879  0.7434  2.1311  0.3387
  177DOPC   C1321593   6.197   5.562   2.672 -0.5776  0.0551  0.0837
  177DOPC  H13A21594   6.273   5.625   2.629 -0.4617 -0.3493 -0.3146
  177DOPC  H13B21595   6.214   5.520   2.770 -0.3852  0.6965  0.3242
  177DOPC  H13C21596   6.178   5.485   2.598 -1.2986  0.3027  0.0040
  177DOPC   C1421597   6.001   5.679   2.569  0.3040  0.1862  0.5472
  177DOPC  H14A21598   6.072   5.731   2.505  0.2253 -0.9347 -0.4842
  177DOPC  H14B21599   5.962   5.598   2.510 -0.3480  0.7877  0.1328
  177DOPC  H14C21600   5.922   5.751   2.583 -0.2274 -0.5513  1.3842
  177DOPC   C1521601   5.969   5.549   2.768 -0.0035  0.7207 -0.2331
  177DOPC  H15A21602   5.923   5.466   2.717 -0.2016 -1.2141  2.8079
  177DOPC  H15B21603   5.894   5.614   2.810 -0.6305  1.0219 -1.7739
  177DOPC  H15C21604   6.020   5.506   2.853 -1.2388 -2.5099 -0.9995
  177DOPC   C1121605   5.990   5.855   2.828 -0.0310  0.0981  0.0525
  177DOPC  H11A21606   6.033   5.936   2.891  3.4755  0.3184 -2.3138
  177DOPC  H11B21607   5.931   5.903   2.747 -0.7837 -0.4116  0.2983
  177DOPC     P21608   5.785   5.847   2.997  0.0820 -0.0237  0.2515
  177DOPC   O1321609   5.655   5.799   2.951  0.5582  0.1135  0.3765
  177DOPC   O1421610   5.800   5.995   2.988 -0.3364 -0.0499  0.2155
  177DOPC   O1221611   5.899   5.782   2.911 -0.6716 -0.6529  0.5513
  177DOPC   O1121612   5.808   5.789   3.147  0.2153 -0.1464  0.2697
  177DOPC    C121613   5.938   5.801   3.208  0.0519  0.2512 -0.1901
  177DOPC    HA21614   5.968   5.906   3.227  2.4773 -0.7650  2.2282
  177DOPC    HB21615   6.024   5.749   3.161  0.4435  0.2373  0.5221
  177DOPC    C221616   5.915   5.749   3.351  0.4176 -0.7253  0.6230
  177DOPC    HS21617   5.879   5.644   3.346  1.9309 -1.2254 -1.0559
  177DOPC   O2121618   5.813   5.850   3.404 -0.5738  0.0993  0.5775
  177DOPC   C2121619   5.718   5.797   3.480 -0.1331  0.0243 -0.0029
  177DOPC   O2221620   5.720   5.681   3.523 -0.2689 -0.3092 -0.0538
  177DOPC   C2221621   5.613   5.904   3.510 -0.3533  0.7055  0.3718
  177DOPC   H2R21622   5.628   5.992   3.443 -0.5172  0.1705 -0.3864
  177DOPC   H2S21623   5.629   5.931   3.616  0.4399 -0.1353  0.4781
  177DOPC    C321624   6.045   5.757   3.435  0.3298 -0.1006 -0.1413
  177DOPC    HX21625   6.085   5.859   3.414 -0.6288  0.7395  1.8600
  177DOPC    HY21626   6.122   5.690   3.391 -1.8116 -0.5318 -3.5899
  177DOPC   O3121627   6.020   5.740   3.576 -0.0424 -0.3889 -0.1745
  177DOPC   C3121628   5.993   5.615   3.617  0.2962 -0.3036  0.1471
  177DOPC   O3221629   6.001   5.511   3.556  0.0539 -0.4740 -0.2968
  177DOPC   C3221630   5.960   5.632   3.766 -0.0890  0.7066 -0.1557
  177DOPC   H2X21631   6.043   5.685   3.818  0.5291  1.4566 -1.8064
  177DOPC   H2Y21632   5.861   5.679   3.785 -0.5543 -0.7585  1.2459
  177DOPC   C2321633   5.472   5.850   3.494  0.4379  0.3519  0.4231
  177DOPC   H3R21634   5.459   5.759   3.556  0.4118  0.2910  0.3276
  177DOPC   H3S21635   5.440   5.821   3.392 -2.7238 -1.2247  1.7465
  177DOPC   C2421636   5.378   5.959   3.536  0.5236  0.2300  1.0354
  177DOPC   H4R21637   5.281   5.916   3.506  0.6317  0.3815  0.4608
  177DOPC   H4S21638   5.380   6.051   3.475 -1.3182  0.0741  0.6978
  177DOPC   C2521639   5.371   5.982   3.691 -0.4749 -0.1814 -0.2362
  177DOPC   H5R21640   5.285   6.049   3.713 -1.6972 -2.0122  0.8791
  177DOPC   H5S21641   5.465   6.033   3.722 -0.7869 -0.7717  1.8235
  177DOPC   C2621642   5.340   5.867   3.789 -0.3404  0.1609 -0.1113
  177DOPC   H6R21643   5.359   5.765   3.750  0.6706  0.8855 -1.6205
  177DOPC   H6S21644   5.239   5.885   3.831 -1.1060 -1.4810 -1.1960
  177DOPC   C2721645   5.426   5.864   3.917 -0.0138 -0.5546  0.6129
  177DOPC   H7R21646   5.428   5.963   3.967  0.6614 -0.7308  0.9577
  177DOPC   H7S21647   5.530   5.856   3.877  0.0828  1.7182  0.2696
  177DOPC   C2821648   5.385   5.755   4.015  0.0650 -0.0007 -1.4080
  177DOPC   H8R21649   5.379   5.656   3.966 -2.4979 -1.5735  1.6896
  177DOPC   H8S21650   5.281   5.773   4.051  0.4859 -0.7289  0.3027
  177DOPC   C2921651   5.490   5.735   4.131 -0.1023  0.4462 -0.1126
  177DOPC   H9R21652   5.590   5.708   4.096 -0.4722  0.3795 -1.1453
  177DOPC  C21021653   5.465   5.737   4.264 -0.3262  0.2348 -0.0630
  177DOPC  H10R21654   5.549   5.714   4.330  1.8807  0.8648 -2.5025
  177DOPC  C21121655   5.329   5.761   4.330 -0.0767  0.2070 -0.9525
  177DOPC  H11R21656   5.253   5.774   4.251 -0.6531 -3.6549 -1.2531
  177DOPC  H11S21657   5.340   5.853   4.392 -1.7086  0.8223 -1.5430
  177DOPC  C21221658   5.285   5.629   4.414  0.6885 -0.8928  0.2265
  177DOPC  H12R21659   5.365   5.581   4.475  0.3022 -0.4041  1.1384
  177DOPC  H12S21660   5.255   5.546   4.347  1.9091  0.0575 -1.6070
  177DOPC  C21321661   5.167   5.662   4.505  0.4023  0.4828  0.2888
  177DOPC  H13R21662   5.116   5.566   4.526  0.4330  0.2669 -0.5896
  177DOPC  H13S21663   5.095   5.724   4.448 -0.5485  1.1128  2.0843
  177DOPC  C21421664   5.197   5.740   4.639 -0.0894  0.2119  0.1779
  177DOPC  H14R21665   5.243   5.840   4.626  1.1552 -0.4337 -0.6761
  177DOPC  H14S21666   5.265   5.662   4.680 -1.5275 -0.9822  0.3852
  177DOPC  C21521667   5.068   5.767   4.722 -0.7179  1.1952 -0.0775
  177DOPC  H15R21668   5.098   5.766   4.829  0.8068 -0.0314 -0.4854
  177DOPC  H15S21669   4.991   5.687   4.717  0.2745  0.2642 -1.1327
  177DOPC  C21621670   4.993   5.895   4.676  0.7061 -0.3246  0.1833
  177DOPC  H16R21671   4.976   5.911   4.568  2.1233  0.9913  0.1253
  177DOPC  H16S21672   5.067   5.976   4.692  0.0654  0.0683  1.2649
  177DOPC  C21721673   4.860   5.911   4.745  0.1967  0.2457  0.0239
  177DOPC  H17R21674   4.802   5.824   4.708  0.0810  0.0541  0.6464
  177DOPC  H17S21675   4.812   6.002   4.703  0.6768  0.1185 -0.8132
  177DOPC  C21821676   4.867   5.922   4.898 -0.2800  0.6151  0.3110
  177DOPC  H18R21677   4.769   5.958   4.933 -0.3670  0.2564  0.4407
  177DOPC  H18S21678   4.947   5.992   4.933  0.5015 -0.7078  1.2581
  177DOPC  H18T21679   4.895   5.822   4.938 -0.0453  0.8073  0.6278
  177DOPC   C3321680   5.948   5.490   3.834 -0.0044 -0.7370 -0.2197
  177DOPC   H3X21681   6.025   5.429   3.782  1.2319  1.1274 -0.6496
  177DOPC   H3Y21682   5.848   5.448   3.808  0.4061 -0.0597 -3.2200
  177DOPC   C3421683   5.948   5.508   3.986 -0.3375 -1.4336 -0.0254
  177DOPC   H4X21684   5.897   5.602   4.016 -0.0167 -1.8555  2.0627
  177DOPC   H4Y21685   6.052   5.512   4.025 -0.4534  1.2854  0.1892
  177DOPC   C3521686   5.890   5.383   4.053  0.1576 -0.7224  0.7211
  177DOPC   H5X21687   5.939   5.304   3.992  2.2165  2.4500 -2.1999
  177DOPC   H5Y21688   5.783   5.383   4.023  0.3200  0.5599  0.0256
  177DOPC   C3621689   5.913   5.359   4.204  0.4320 -0.5823 -1.1250
  177DOPC   H6X21690   5.863   5.265   4.235 -0.2319  0.2593  0.4811
  177DOPC   H6Y21691   6.023   5.347   4.215  0.4062 -2.1007 -2.1850
  177DOPC   C3721692   5.888   5.485   4.290  0.0073  0.2822 -0.1470
  177DOPC   H7X21693   5.937   5.571   4.240  0.0378  0.3456 -0.0091
  177DOPC   H7Y21694   5.781   5.511   4.274  0.7067  2.0954 -2.6229
  177DOPC   C3821695   5.929   5.454   4.434 -0.2325 -0.2619 -0.3032
  177DOPC   H8X21696   5.939   5.547   4.494 -2.1999 -0.4733  0.4344
  177DOPC   H8Y21697   6.032   5.412   4.435 -0.1815 -0.1524 -0.8022
  177DOPC   C3921698   5.836   5.355   4.502  0.1025  0.0581  0.0160
  177DOPC   H9X21699   5.842   5.250   4.470 -0.2310 -0.2804  1.0263
  177DOPC  C31021700   5.752   5.374   4.606  0.2446  0.1761 -0.1069
  177DOPC  H10X21701   5.688   5.287   4.627 -1.3127  1.3686  0.2517
  177DOPC  C31121702   5.745   5.495   4.691  0.1603  0.0949  0.1940
  177DOPC  H11X21703   5.726   5.575   4.617 -1.0980  1.9827  2.4176
  177DOPC  H11Y21704   5.846   5.525   4.727 -0.2452  1.9976 -0.1302
  177DOPC  C31221705   5.632   5.508   4.788  1.1598 -0.2305  0.1137
  177DOPC  H12X21706   5.536   5.518   4.732  1.0644 -2.6799 -0.2414
  177DOPC  H12Y21707   5.642   5.604   4.843  0.9078  0.2394 -0.6318
  177DOPC  C31321708   5.621   5.391   4.877 -0.3506  0.5919  0.0316
  177DOPC  H13X21709   5.615   5.297   4.818  2.2558  1.4954 -1.8679
  177DOPC  H13Y21710   5.713   5.382   4.938 -0.9192  1.1566  0.9926
  177DOPC  C31421711   5.520   5.400   4.986  0.7368  0.0371 -0.2498
  177DOPC  H14X21712   5.533   5.321   5.064  0.1829 -0.2809 -0.4747
  177DOPC  H14Y21713   5.534   5.496   5.040 -0.6118 -0.3622  0.8708
  177DOPC  C31521714   5.374   5.376   4.934 -0.2386 -0.0920  0.3588
  177DOPC  H15X21715   5.367   5.281   4.878  0.1824 -0.5287  1.0422
  177DOPC  H15Y21716   5.344   5.469   4.879 -1.8754 -1.6326 -1.5168
  177DOPC  C31621717   5.269   5.350   5.045 -0.0632 -0.1720  0.8413
  177DOPC  H16X21718   5.303   5.272   5.118 -0.0280 -2.6255 -1.6267
  177DOPC  H16Y21719   5.251   5.448   5.095 -0.5415 -0.0937  0.5121
  177DOPC  C31721720   5.125   5.318   4.993  0.1586 -0.3081 -0.2262
  177DOPC  H17X21721   5.114   5.414   4.938 -0.6258 -1.0409 -1.3842
  177DOPC  H17Y21722   5.128   5.240   4.914  1.2790  0.0244 -0.5174
  177DOPC  C31821723   5.012   5.303   5.092 -0.6114 -0.2679  0.1996
  177DOPC  H18X21724   4.915   5.308   5.038 -0.2492  1.8431 -0.3497
  177DOPC  H18Y21725   5.028   5.206   5.143  3.3125  0.0430 -0.1780
  177DOPC  H18Z21726   5.017   5.386   5.166  0.0906  1.1257 -1.3499
  178DOPC     N21727   5.044   6.381   2.871 -0.1318  0.0831 -0.7276
  178DOPC   C1221728   4.919   6.433   2.794 -0.5455  0.2789 -0.1159
  178DOPC  H12A21729   4.850   6.352   2.773 -0.3726  0.2892 -0.7443
  178DOPC  H12B21730   4.943   6.485   2.702  0.5270 -0.2307 -0.1467
  178DOPC   C1321731   5.131   6.501   2.908 -0.3124 -0.3653  0.0047
  178DOPC  H13A21732   5.220   6.464   2.958 -0.1046  0.1270 -0.0039
  178DOPC  H13B21733   5.158   6.549   2.816  0.4412 -0.8914 -0.0554
  178DOPC  H13C21734   5.079   6.574   2.968  1.2870  1.0033 -0.2220
  178DOPC   C1421735   5.125   6.286   2.789  0.0099  0.0802 -0.3372
  178DOPC  H14A21736   5.068   6.203   2.752  0.8669  0.2135 -2.0337
  178DOPC  H14B21737   5.164   6.338   2.703  1.0598 -1.3825 -0.7906
  178DOPC  H14C21738   5.213   6.258   2.846  0.0085 -0.8633 -0.7843
  178DOPC   C1521739   5.008   6.312   3.000 -0.1984  0.5080  0.3467
  178DOPC  H15A21740   5.100   6.278   3.045  0.2871 -1.6014 -2.0340
  178DOPC  H15B21741   4.953   6.222   2.973  1.3469 -0.3549 -0.0527
  178DOPC  H15C21742   4.949   6.372   3.068  0.5025 -0.1364  1.5577
  178DOPC   C1121743   4.819   6.530   2.864 -0.3490  0.5583 -0.3940
  178DOPC  H11A21744   4.882   6.605   2.918 -0.3817  0.4897 -0.2601
  178DOPC  H11B21745   4.759   6.585   2.789  1.9578  0.6668 -2.2792
  178DOPC     P21746   4.625   6.366   2.924  0.3674 -0.3166  0.1738
  178DOPC   O1321747   4.687   6.248   2.866 -0.6878 -0.4742  0.1336
  178DOPC   O1421748   4.533   6.448   2.842  0.2014  0.4830  0.6417
  178DOPC   O1221749   4.741   6.468   2.964 -0.0199 -0.1571 -0.3649
  178DOPC   O1121750   4.566   6.338   3.063 -0.5813 -0.2047 -0.0019
  178DOPC    C121751   4.650   6.306   3.173 -0.0577 -0.4769  0.2987
  178DOPC    HA21752   4.704   6.399   3.198 -1.2911  0.1817  0.6108
  178DOPC    HB21753   4.728   6.231   3.147 -1.5112 -2.4446  1.3910
  178DOPC    C221754   4.565   6.266   3.292 -0.8280 -0.3170 -0.2845
  178DOPC    HS21755   4.633   6.241   3.376 -0.9030  2.1255  0.5886
  178DOPC   O2121756   4.483   6.149   3.264 -0.2631  0.1303  0.3564
  178DOPC   C2121757   4.547   6.032   3.261  0.6297 -0.2535 -0.4216
  178DOPC   O2221758   4.669   6.021   3.262  0.5540 -0.3945  0.3740
  178DOPC   C2221759   4.463   5.904   3.249 -0.6892 -0.1954  0.2035
  178DOPC   H2R21760   4.506   5.831   3.177 -0.5229 -1.5110  1.5677
  178DOPC   H2S21761   4.363   5.937   3.216  0.1824  1.8014 -0.5523
  178DOPC    C321762   4.477   6.380   3.357  0.2323 -0.2031  0.1829
  178DOPC    HX21763   4.407   6.410   3.276 -0.4984  0.2526  0.9667
  178DOPC    HY21764   4.545   6.463   3.387 -1.2173  0.3129  2.2653
  178DOPC   O3121765   4.410   6.336   3.478 -0.0009  0.3284 -0.3553
  178DOPC   C3121766   4.315   6.419   3.501 -0.4636 -0.7622  0.2432
  178DOPC   O3221767   4.290   6.526   3.449 -0.4265  0.1478 -0.1317
  178DOPC   C3221768   4.249   6.370   3.635  0.0656 -0.1310 -0.7081
  178DOPC   H2X21769   4.172   6.298   3.599 -0.8901 -0.5152  1.8691
  178DOPC   H2Y21770   4.322   6.314   3.697 -0.5297 -0.8120 -0.6036
  178DOPC   C2321771   4.454   5.827   3.377 -0.6371 -0.0025  0.2100
  178DOPC   H3R21772   4.537   5.759   3.405  1.2026  1.7270 -0.8059
  178DOPC   H3S21773   4.372   5.754   3.357  0.4259 -0.9389 -0.8505
  178DOPC   C2421774   4.410   5.901   3.505 -0.5073 -0.2508 -0.5426
  178DOPC   H4R21775   4.328   5.843   3.552 -1.2898  1.0070 -0.3039
  178DOPC   H4S21776   4.363   5.997   3.473 -2.8685 -1.4413 -0.8780
  178DOPC   C2521777   4.524   5.929   3.604 -0.0455  0.8775  1.0336
  178DOPC   H5R21778   4.617   5.939   3.544  0.0328 -0.8742  0.8094
  178DOPC   H5S21779   4.529   5.837   3.666 -0.5763  0.9600  1.2032
  178DOPC   C2621780   4.503   6.039   3.703  0.2001 -0.3003  0.3894
  178DOPC   H6R21781   4.482   6.122   3.632 -0.7558 -0.2028  0.7783
  178DOPC   H6S21782   4.595   6.048   3.765  0.4481 -2.4115  0.3900
  178DOPC   C2721783   4.392   6.029   3.796 -0.0332  0.4475 -0.1952
  178DOPC   H7R21784   4.374   5.925   3.832 -2.6660  0.9834  0.2918
  178DOPC   H7S21785   4.299   6.055   3.740 -0.4886 -0.4723  0.1115
  178DOPC   C2821786   4.390   6.125   3.914 -0.0046  0.1110  0.5352
  178DOPC   H8R21787   4.300   6.113   3.979  0.1124 -4.1527  0.2092
  178DOPC   H8S21788   4.384   6.230   3.880 -0.0934  0.0164  0.2496
  178DOPC   C2921789   4.508   6.106   4.006  0.6907  0.2257  0.0703
  178DOPC   H9R21790   4.589   6.174   3.977  0.2852  0.4512 -0.5513
  178DOPC  C21021791   4.514   6.012   4.104  0.2847 -0.0496  0.5403
  178DOPC  H10R21792   4.610   6.006   4.157  0.9828 -0.8507 -0.7608
  178DOPC  C21121793   4.406   5.922   4.154 -0.3059 -0.1495 -0.3918
  178DOPC  H11R21794   4.452   5.821   4.156  0.2387  0.0801  2.1792
  178DOPC  H11S21795   4.317   5.916   4.088 -0.9718 -0.9193  0.5486
  178DOPC  C21221796   4.348   5.963   4.300  0.1134  0.1184  0.1265
  178DOPC  H12R21797   4.260   5.897   4.320 -2.5730  3.0553 -1.1221
  178DOPC  H12S21798   4.302   6.064   4.292 -1.2448 -0.3923  1.0606
  178DOPC  C21321799   4.455   5.965   4.406 -0.0658  0.0771 -0.7416
  178DOPC  H13R21800   4.549   6.015   4.374  1.0463 -1.2509  0.3213
  178DOPC  H13S21801   4.473   5.859   4.434 -1.9724  0.0093  0.3406
  178DOPC  C21421802   4.412   6.049   4.525  0.4466  0.4009  0.2774
  178DOPC  H14R21803   4.305   6.026   4.543  0.3586  1.0930  0.6730
  178DOPC  H14S21804   4.402   6.155   4.491  0.1125  0.0506 -0.7431
  178DOPC  C21521805   4.486   6.030   4.650 -0.4166  0.9352 -0.2741
  178DOPC  H15R21806   4.583   6.085   4.648  1.8109 -2.7171 -2.1426
  178DOPC  H15S21807   4.520   5.924   4.648 -1.7782  0.3230  2.8535
  178DOPC  C21621808   4.402   6.062   4.771 -0.3553 -0.0814 -0.3635
  178DOPC  H16R21809   4.320   5.988   4.784 -0.0220 -0.2814  0.6491
  178DOPC  H16S21810   4.360   6.165   4.766 -0.3850 -0.0807 -0.0916
  178DOPC  C21721811   4.473   6.055   4.906  0.3323  0.4095  0.1327
  178DOPC  H17R21812   4.540   6.143   4.919  0.1352  0.7328 -0.8988
  178DOPC  H17S21813   4.522   5.956   4.901  1.6231  1.0026  0.5294
  178DOPC  C21821814   4.363   6.072   5.006  0.1136 -0.3374 -0.6510
  178DOPC  H18R21815   4.400   6.048   5.108 -0.0737  0.0711 -0.4816
  178DOPC  H18S21816   4.273   6.008   4.989  0.3333 -0.8135 -0.0535
  178DOPC  H18T21817   4.331   6.179   5.000  0.6873 -0.1729 -0.8234
  178DOPC   C3321818   4.175   6.483   3.699 -0.8659 -0.4718 -0.7568
  178DOPC   H3X21819   4.087   6.526   3.647 -1.4827  0.7462  1.1752
  178DOPC   H3Y21820   4.234   6.577   3.709  0.3605 -1.0695 -2.0530
  178DOPC   C3421821   4.134   6.453   3.846 -0.6379  0.1586 -0.2339
  178DOPC   H4X21822   4.113   6.541   3.910 -0.2747 -0.6934  1.0903
  178DOPC   H4Y21823   4.218   6.408   3.903 -0.2099 -0.4413 -1.2917
  178DOPC   C3521824   4.009   6.360   3.858 -0.0545 -0.5625  0.0032
  178DOPC   H5X21825   4.006   6.274   3.788 -0.0771 -0.0116 -0.6823
  178DOPC   H5Y21826   3.925   6.427   3.832 -0.3401 -0.3029  1.5355
  178DOPC   C3621827   4.009   6.303   4.011  0.3609  0.0780 -0.0483
  178DOPC   H6X21828   4.099   6.243   4.037 -0.8061 -1.5054  0.5173
  178DOPC   H6Y21829   4.015   6.401   4.065  1.9248  0.3020 -0.5707
  178DOPC   C3721830   3.878   6.225   4.038 -0.3713  0.3795 -0.3554
  178DOPC   H7X21831   3.796   6.282   3.989  0.0029 -0.7031 -2.3295
  178DOPC   H7Y21832   3.889   6.130   3.983  1.6938 -0.1937  0.9476
  178DOPC   C3821833   3.855   6.186   4.188 -0.6587  0.7223 -0.0156
  178DOPC   H8X21834   3.755   6.139   4.193 -0.7546  0.9429  0.1756
  178DOPC   H8Y21835   3.844   6.282   4.244 -0.7566  2.5105 -2.8816
  178DOPC   C3921836   3.966   6.117   4.259 -0.4502  0.1041 -0.4046
  178DOPC   H9X21837   4.070   6.134   4.229 -0.7758  2.0299 -0.5929
  178DOPC  C31021838   3.935   6.013   4.339 -0.0641 -1.4648  0.5704
  178DOPC  H10X21839   4.017   5.946   4.366 -1.5293 -2.4746  2.7828
  178DOPC  C31121840   3.796   5.968   4.379  0.5264  0.3787 -0.1493
  178DOPC  H11X21841   3.771   5.864   4.352  0.0529  0.7618 -1.2322
  178DOPC  H11Y21842   3.713   6.034   4.346 -0.3562 -1.6674 -2.2227
  178DOPC  C31221843   3.793   5.982   4.531  0.2710  0.4675 -0.4903
  178DOPC  H12X21844   3.761   6.087   4.549  0.5648  0.6787 -1.1675
  178DOPC  H12Y21845   3.887   5.948   4.579 -0.3916 -3.0951 -1.3743
  178DOPC  C31321846   3.684   5.874   4.579 -1.0342 -0.3725 -0.1858
  178DOPC  H13X21847   3.589   5.912   4.537 -1.5084  1.8344  2.5522
  178DOPC  H13Y21848   3.713   5.777   4.534 -0.8593  0.0144 -0.9256
  178DOPC  C31421849   3.686   5.849   4.730 -0.3353 -0.0805 -0.1278
  178DOPC  H14X21850   3.787   5.809   4.755 -0.7301 -0.6415  0.6312
  178DOPC  H14Y21851   3.684   5.947   4.782 -1.8566 -1.0929  1.8371
  178DOPC  C31521852   3.574   5.763   4.783  1.3505  1.0289  0.3309
  178DOPC  H15X21853   3.578   5.659   4.745  0.7980  0.1946  2.3886
  178DOPC  H15Y21854   3.477   5.804   4.748  0.5373 -0.5207  0.6759
  178DOPC  C31621855   3.576   5.759   4.941  0.1818 -0.7846  0.3517
  178DOPC  H16X21856   3.639   5.672   4.970 -0.5985 -0.8605  1.9386
  178DOPC  H16Y21857   3.626   5.851   4.977 -1.3477  0.1501  0.1723
  178DOPC  C31721858   3.434   5.738   5.008  0.1719 -0.1468  0.3806
  178DOPC  H17X21859   3.365   5.817   4.972  0.9536  0.6074  0.5219
  178DOPC  H17Y21860   3.404   5.640   4.963 -0.0853  0.2581 -0.3421
  178DOPC  C31821861   3.431   5.729   5.157 -0.0732 -0.1248  0.5312
  178DOPC  H18X21862   3.492   5.640   5.186  2.1021  0.6210 -1.4410
  178DOPC  H18Y21863   3.469   5.824   5.200  1.4589 -0.1136 -0.7469
  178DOPC  H18Z21864   3.328   5.710   5.194  0.9295 -3.8615  1.9518
  179DOPC     N21865   0.326   5.308   2.737 -0.0003  0.2420  0.0459
  179DOPC   C1221866   0.347   5.305   2.883  0.0042 -0.2490 -0.5819
  179DOPC  H12A21867   0.280   5.379   2.924  0.1625 -0.7498  0.6256
  179DOPC  H12B21868   0.439   5.356   2.907 -0.1304  0.2598 -1.1489
  179DOPC   C1321869   0.433   5.222   2.665 -0.5908  0.2189 -0.9362
  179DOPC  H13A21870   0.534   5.260   2.678 -0.3096 -0.9122  0.4315
  179DOPC  H13B21871   0.422   5.121   2.699 -0.5105  0.2708 -0.7549
  179DOPC  H13C21872   0.418   5.221   2.558  2.6623 -0.8232 -1.5246
  179DOPC   C1421873   0.332   5.449   2.685  0.4226  0.1868 -0.1654
  179DOPC  H14A21874   0.400   5.506   2.746  0.7117 -0.3244 -0.0069
  179DOPC  H14B21875   0.352   5.456   2.579 -1.2815 -0.2846 -0.5506
  179DOPC  H14C21876   0.243   5.507   2.705  1.8284  1.5157  2.8215
  179DOPC   C1521877   0.195   5.253   2.693 -0.0273 -0.1492  0.1159
  179DOPC  H15A21878   0.120   5.300   2.754  0.1134 -0.1944  0.3224
  179DOPC  H15B21879   0.190   5.145   2.704 -0.4727  0.0540  2.3192
  179DOPC  H15C21880   0.174   5.284   2.592  2.6081  0.1843 -0.4085
  179DOPC   C1121881   0.318   5.171   2.969 -0.7713  0.5074 -0.7419
  179DOPC  H11A21882   0.378   5.094   2.917 -0.3512  1.7403 -2.1278
  179DOPC  H11B21883   0.367   5.180   3.069 -1.2082  0.2920 -0.5035
  179DOPC     P21884   0.086   5.213   3.071 -0.3848  0.3818 -0.2374
  179DOPC   O1321885  -0.055   5.191   3.026  0.7029 -0.3791  0.4821
  179DOPC   O1421886   0.134   5.351   3.070  0.2386 -0.2528  0.3840
  179DOPC   O1221887   0.185   5.123   2.970  0.9562 -0.3721 -0.7344
  179DOPC   O1121888   0.114   5.149   3.215  0.1724 -0.0781  0.0247
  179DOPC    C121889   0.052   5.025   3.249  0.6113 -0.1978  0.5718
  179DOPC    HA21890   0.120   4.969   3.317  1.2339  0.1223  0.2157
  179DOPC    HB21891   0.035   4.963   3.159 -0.2257 -1.1106  1.3413
  179DOPC    C221892  -0.079   5.054   3.325  0.3434  0.3367 -0.1285
  179DOPC    HS21893  -0.136   5.127   3.263  0.2528  1.0950  0.8125
  179DOPC   O2121894  -0.038   5.108   3.450  0.3979  0.3885 -0.0058
  179DOPC   C2121895  -0.023   5.244   3.449 -0.3090 -0.0761 -0.4031
  179DOPC   O2221896  -0.065   5.324   3.369  0.0232 -0.1192 -0.3529
  179DOPC   C2221897   0.060   5.297   3.567 -0.0971  0.1732  0.3478
  179DOPC   H2R21898   0.154   5.238   3.576  0.2710 -0.1967 -3.7671
  179DOPC   H2S21899  -0.009   5.264   3.647 -3.7094 -1.6810 -3.1494
  179DOPC    C321900  -0.171   4.930   3.343  0.2893  1.0230  0.1400
  179DOPC    HX21901  -0.113   4.844   3.383 -1.4094 -1.0168 -1.5364
  179DOPC    HY21902  -0.200   4.903   3.239 -0.2510 -1.1575  0.8248
  179DOPC   O3121903  -0.289   4.940   3.424 -0.2764 -0.4685 -0.4010
  179DOPC   C3121904  -0.387   5.019   3.375  0.3838 -0.0565  0.4142
  179DOPC   O3221905  -0.380   5.082   3.272 -0.4280  0.1394 -0.2502
  179DOPC   C3221906  -0.507   5.020   3.464  0.1026 -0.1369  0.1385
  179DOPC   H2X21907  -0.590   5.041   3.394  1.2465  1.5679 -0.7809
  179DOPC   H2Y21908  -0.520   4.920   3.510  1.3835 -0.2510  0.3041
  179DOPC   C2321909   0.087   5.449   3.562 -0.1942  0.4051  1.2388
  179DOPC   H3R21910   0.002   5.518   3.544  0.6917  1.1412 -0.3163
  179DOPC   H3S21911   0.157   5.469   3.478 -1.7185  0.0049 -0.1930
  179DOPC   C2421912   0.160   5.495   3.693  0.6814 -0.1993  0.3106
  179DOPC   H4R21913   0.195   5.598   3.672  0.7232 -0.5758 -1.6890
  179DOPC   H4S21914   0.249   5.433   3.721 -1.0157 -1.0810  4.5571
  179DOPC   C2521915   0.064   5.503   3.813  0.5632  0.3165 -0.1054
  179DOPC   H5R21916   0.015   5.404   3.829  1.0962 -0.0595 -0.7469
  179DOPC   H5S21917  -0.016   5.577   3.792  2.2155  2.1345 -0.2753
  179DOPC   C2621918   0.148   5.535   3.938  0.3602 -0.5592 -0.0492
  179DOPC   H6R21919   0.211   5.625   3.923  0.9813 -0.6445  1.7425
  179DOPC   H6S21920   0.206   5.441   3.954 -3.2965 -3.1398 -0.5428
  179DOPC   C2721921   0.062   5.544   4.062  0.1297  0.3092  0.6380
  179DOPC   H7R21922   0.007   5.448   4.069  0.1043  0.1925 -0.8668
  179DOPC   H7S21923  -0.011   5.627   4.052 -0.3188 -0.2933 -1.6571
  179DOPC   C2821924   0.137   5.555   4.200 -0.3818 -0.3680  0.6092
  179DOPC   H8R21925   0.189   5.653   4.190 -1.5768  0.3977  1.4845
  179DOPC   H8S21926   0.213   5.477   4.219  1.3160  1.1007  0.1278
  179DOPC   C2921927   0.034   5.559   4.303  0.0365 -0.1158 -0.2416
  179DOPC   H9R21928  -0.031   5.470   4.304 -1.5380  0.9968 -0.0686
  179DOPC  C21021929   0.022   5.642   4.407 -0.4236 -0.5051  0.2442
  179DOPC  H10R21930  -0.052   5.622   4.486 -0.7397  1.4422  0.4933
  179DOPC  C21121931   0.104   5.766   4.457 -0.1298  0.0078 -0.2939
  179DOPC  H11R21932   0.198   5.775   4.398  0.9904  0.3552  1.4625
  179DOPC  H11S21933   0.134   5.755   4.564  0.5778 -0.5614 -0.5356
  179DOPC  C21221934   0.015   5.889   4.427 -0.0495 -0.3023  0.3379
  179DOPC  H12R21935   0.068   5.980   4.464 -1.2170  0.1544  0.9491
  179DOPC  H12S21936  -0.067   5.882   4.502  1.1120 -1.7931  1.5450
  179DOPC  C21321937  -0.026   5.906   4.282 -0.3695  0.3586  0.1162
  179DOPC  H13R21938  -0.106   5.832   4.260  0.3227  0.0595 -1.4710
  179DOPC  H13S21939   0.057   5.873   4.217 -1.5468 -1.5580 -0.4806
  179DOPC  C21421940  -0.070   6.038   4.228  0.0484  0.7496 -0.8505
  179DOPC  H14R21941  -0.154   6.070   4.294 -0.6083 -1.6155 -0.4173
  179DOPC  H14S21942  -0.122   6.016   4.132  1.1000  0.5145 -1.3801
  179DOPC  C21521943   0.031   6.153   4.215 -0.0570 -0.5412  0.3250
  179DOPC  H15R21944   0.120   6.112   4.162  0.3742  0.4828  0.2321
  179DOPC  H15S21945   0.060   6.185   4.317 -1.1093  0.1674  0.4212
  179DOPC  C21621946  -0.021   6.273   4.138  0.0542 -0.1496 -0.5125
  179DOPC  H16R21947  -0.063   6.223   4.048  3.4069 -0.5864 -1.9560
  179DOPC  H16S21948   0.060   6.339   4.100 -0.4706  0.1442 -1.1635
  179DOPC  C21721949  -0.110   6.359   4.224 -0.2013 -0.0078  0.2288
  179DOPC  H17R21950  -0.044   6.409   4.298  0.1822  1.9556 -1.3559
  179DOPC  H17S21951  -0.178   6.294   4.284  0.1881 -1.1918 -0.5912
  179DOPC  C21821952  -0.192   6.471   4.150 -0.4369 -0.5346  0.1043
  179DOPC  H18R21953  -0.273   6.425   4.088 -0.4053 -2.5444  1.4564
  179DOPC  H18S21954  -0.121   6.525   4.084  0.3463 -1.8025 -0.1171
  179DOPC  H18T21955  -0.233   6.544   4.222  0.3992 -0.9170  0.9944
  179DOPC   C3321956  -0.496   5.115   3.591  0.1658 -0.5898  0.2258
  179DOPC   H3X21957  -0.597   5.113   3.636  0.2070  2.7447  0.7035
  179DOPC   H3Y21958  -0.482   5.223   3.569  0.7582 -0.7737 -0.3390
  179DOPC   C3421959  -0.404   5.065   3.697  0.7105 -0.3632 -0.2715
  179DOPC   H4X21960  -0.304   5.074   3.650 -0.3708  2.6638 -2.3523
  179DOPC   H4Y21961  -0.425   4.957   3.712 -0.6703 -0.3269 -1.6941
  179DOPC   C3521962  -0.413   5.153   3.824  0.5647 -0.3862  0.3489
  179DOPC   H5X21963  -0.514   5.155   3.869  0.7924  1.2790  0.8600
  179DOPC   H5Y21964  -0.402   5.256   3.783  2.1052 -0.3138  0.8710
  179DOPC   C3621965  -0.315   5.107   3.933  0.4807  1.0113 -0.4038
  179DOPC   H6X21966  -0.319   4.999   3.957  3.0453  1.0109  0.3565
  179DOPC   H6Y21967  -0.210   5.105   3.895 -0.0040 -1.5817 -1.8280
  179DOPC   C3721968  -0.317   5.182   4.067 -0.3171 -0.1048 -0.5669
  179DOPC   H7X21969  -0.220   5.236   4.069 -0.4293  0.0890 -0.3758
  179DOPC   H7Y21970  -0.402   5.254   4.066  0.6071  1.0705 -2.8615
  179DOPC   C3821971  -0.328   5.103   4.198 -0.1468  0.0885  0.5237
  179DOPC   H8X21972  -0.422   5.043   4.194 -0.9397  1.3674 -0.6678
  179DOPC   H8Y21973  -0.348   5.160   4.291 -0.5433 -1.0411  1.1559
  179DOPC   C3921974  -0.220   5.000   4.223  0.0309 -0.1907  0.1349
  179DOPC   H9X21975  -0.221   4.909   4.161 -0.1959 -0.7564  0.9532
  179DOPC  C31021976  -0.125   5.015   4.314 -0.6307  0.1585 -0.0877
  179DOPC  H10X21977  -0.066   4.927   4.345 -1.0833  0.3456  1.3915
  179DOPC  C31121978  -0.098   5.147   4.385 -0.1291  0.1939  0.0380
  179DOPC  H11X21979  -0.193   5.201   4.402  0.3389  1.4551 -1.1965
  179DOPC  H11Y21980  -0.032   5.207   4.319 -1.3776  1.9671  0.3548
  179DOPC  C31221981  -0.033   5.134   4.523 -0.0178  0.3419 -0.1585
  179DOPC  H12X21982   0.071   5.099   4.510  0.5776  2.5220 -1.7471
  179DOPC  H12Y21983  -0.085   5.057   4.584  0.4732  0.9957  1.1273
  179DOPC  C31321984  -0.037   5.264   4.597 -0.5322 -0.6616 -0.3055
  179DOPC  H13X21985   0.037   5.330   4.546 -0.6942  2.0381  2.6372
  179DOPC  H13Y21986  -0.141   5.303   4.597 -0.7533 -1.2182  0.6625
  179DOPC  C31421987   0.019   5.252   4.742  0.5149 -0.0459  0.6346
  179DOPC  H14X21988  -0.044   5.172   4.786 -0.6641  0.1934 -0.5557
  179DOPC  H14Y21989   0.124   5.217   4.743  0.3650 -0.5577 -0.1495
  179DOPC  C31521990  -0.007   5.383   4.829 -0.0994 -0.0632  0.1895
  179DOPC  H15X21991  -0.089   5.362   4.900 -1.1819  0.7868 -0.7649
  179DOPC  H15Y21992  -0.033   5.469   4.763 -0.1255 -1.4210 -1.6402
  179DOPC  C31621993   0.115   5.422   4.918  0.0271  0.8804  0.7200
  179DOPC  H16X21994   0.156   5.327   4.957 -0.9341 -0.1432 -0.6581
  179DOPC  H16Y21995   0.193   5.473   4.857  1.9550  1.8466  3.7664
  179DOPC  C31721996   0.078   5.518   5.039 -1.2310  0.1874 -0.4064
  179DOPC  H17X21997   0.000   5.469   5.101 -0.9548  0.5595  0.2412
  179DOPC  H17Y21998   0.166   5.541   5.103 -2.0711  0.1577  0.8006
  179DOPC  C31821999   0.017   5.652   4.995 -0.2680  0.1706 -0.1163
  179DOPC  H18X22000   0.003   5.720   5.082  2.5186  0.4750  0.1918
  179DOPC  H18Y22001   0.092   5.696   4.926 -0.1293 -2.6042 -1.9133
  179DOPC  H18Z22002  -0.079   5.641   4.941 -0.7067 -1.7975  0.9587
  180DOPC     N22003   6.047   4.780   2.738  0.3389 -0.0266  0.2929
  180DOPC   C1222004   6.078   4.837   2.871  0.0651 -0.0586 -0.3369
  180DOPC  H12A22005   5.996   4.903   2.897 -2.7270 -3.7470  1.0418
  180DOPC  H12B22006   6.171   4.891   2.864  0.3159 -0.6050 -1.2788
  180DOPC   C1322007   5.925   4.694   2.750  0.3135 -0.2932  0.8421
  180DOPC  H13A22008   5.880   4.666   2.656  1.5679 -2.7795  0.8913
  180DOPC  H13B22009   5.960   4.604   2.800  3.3530 -0.4520 -1.2927
  180DOPC  H13C22010   5.847   4.743   2.806  0.7450  0.5872  0.6899
  180DOPC   C1422011   6.156   4.694   2.687  0.1993 -0.0044 -0.2782
  180DOPC  H14A22012   6.250   4.746   2.680  0.0892  0.6107  2.1002
  180DOPC  H14B22013   6.168   4.612   2.755 -1.7619 -1.4423 -1.5363
  180DOPC  H14C22014   6.119   4.655   2.593 -1.6501 -0.1799  0.4818
  180DOPC   C1522015   6.025   4.894   2.635 -0.5891 -0.3789 -0.0142
  180DOPC  H15A22016   6.115   4.950   2.612 -1.6803  1.1104 -0.8847
  180DOPC  H15B22017   5.960   4.967   2.680  0.1211 -1.1512  2.4261
  180DOPC  H15C22018   6.000   4.854   2.538 -4.2007  0.0867  0.5948
  180DOPC   C1122019   6.097   4.750   2.994 -0.5499  0.4598 -0.1347
  180DOPC  H11A22020   6.134   4.810   3.080  0.2256 -1.2491  0.7821
  180DOPC  H11B22021   5.999   4.703   3.017 -0.2258  0.1981  0.7602
  180DOPC     P22022   6.195   4.504   3.034  0.0907 -0.1336 -0.4263
  180DOPC   O1322023   6.331   4.458   3.030 -0.0746 -0.3066  0.4159
  180DOPC   O1422024   6.098   4.410   2.976 -0.3047  0.3591 -0.5453
  180DOPC   O1222025   6.194   4.642   2.963 -0.2947 -0.3588  0.0933
  180DOPC   O1122026   6.167   4.547   3.183  0.4669  0.5854 -0.0596
  180DOPC    C122027   6.048   4.541   3.265 -0.8138 -0.3589  0.6963
  180DOPC    HA22028   5.961   4.532   3.197  1.4898 -0.5342 -2.4218
  180DOPC    HB22029   6.044   4.636   3.323 -2.4760 -0.2040  0.3868
  180DOPC    C222030   6.053   4.421   3.364  0.0368 -0.5843  0.4484
  180DOPC    HS22031   5.967   4.428   3.435 -1.2785 -0.8077 -1.0576
  180DOPC   O2122032   6.181   4.431   3.433  0.8716  0.0744 -0.0189
  180DOPC   C2122033   6.194   4.526   3.523 -0.2793 -0.4559 -0.7468
  180DOPC   O2222034   6.106   4.602   3.562  0.2618 -0.1789 -0.0906
  180DOPC   C2222035   6.343   4.529   3.561 -0.3781  0.2225 -0.3050
  180DOPC   H2R22036   6.417   4.518   3.479  0.2685 -0.4542  0.3581
  180DOPC   H2S22037   6.362   4.441   3.626  0.7179 -0.6297 -1.7379
  180DOPC    C322038   6.049   4.280   3.294 -0.2466 -0.1390  0.6022
  180DOPC    HX22039   6.142   4.277   3.233 -0.9925 -1.4462 -0.5437
  180DOPC    HY22040   5.968   4.278   3.217  1.3368 -0.6828 -1.1142
  180DOPC   O3122041   6.059   4.172   3.383 -0.3767  0.5851  0.0738
  180DOPC   C3122042   5.938   4.125   3.411  0.0984  0.2140 -0.2282
  180DOPC   O3222043   5.828   4.165   3.372  0.0051  0.1730 -0.7771
  180DOPC   C3222044   5.953   3.999   3.499  0.6429 -0.2980  0.1390
  180DOPC   H2X22045   5.982   3.918   3.430 -0.1170 -0.4341 -0.0298
  180DOPC   H2Y22046   6.034   4.006   3.575 -0.1179 -1.4913  1.0956
  180DOPC   C2322047   6.362   4.659   3.643  0.3582 -0.5547 -0.3653
  180DOPC   H3R22048   6.274   4.689   3.703  1.2053  1.1638  0.1091
  180DOPC   H3S22049   6.376   4.753   3.585 -1.7149 -0.2493 -0.4471
  180DOPC   C2422050   6.485   4.634   3.730 -0.6707 -0.2582 -0.6066
  180DOPC   H4R22051   6.567   4.611   3.659 -1.9696  0.2988 -2.3656
  180DOPC   H4S22052   6.480   4.540   3.789 -0.0513 -0.0297 -0.1860
  180DOPC   C2522053   6.504   4.742   3.834 -0.6812  0.7119  0.2261
  180DOPC   H5R22054   6.468   4.840   3.796 -0.9909  0.6195  0.2707
  180DOPC   H5S22055   6.611   4.747   3.862 -0.7370  1.6877  0.2783
  180DOPC   C2622056   6.427   4.701   3.959  0.1630  0.3240 -0.6934
  180DOPC   H6R22057   6.486   4.618   4.004 -0.8878 -0.0607  0.0140
  180DOPC   H6S22058   6.324   4.661   3.947 -0.1763  0.9238  0.1376
  180DOPC   C2722059   6.412   4.821   4.063  0.0771  0.7473 -0.3016
  180DOPC   H7R22060   6.351   4.786   4.149 -0.9565 -0.6141 -1.5531
  180DOPC   H7S22061   6.344   4.892   4.011 -1.2144 -0.3524 -0.1780
  180DOPC   C2822062   6.546   4.885   4.102  0.1340 -0.3695  0.0870
  180DOPC   H8R22063   6.520   4.975   4.161 -0.9575 -1.0534  0.6776
  180DOPC   H8S22064   6.600   4.930   4.016 -0.9479 -0.7217 -0.8057
  180DOPC   C2922065   6.641   4.800   4.174 -0.1716 -0.2099  0.0351
  180DOPC   H9R22066   6.688   4.723   4.112 -0.9186 -0.6864  0.0441
  180DOPC  C21022067   6.681   4.816   4.301 -0.5439 -0.2652  0.5829
  180DOPC  H10R22068   6.751   4.740   4.338  0.7375  1.6412  2.3445
  180DOPC  C21122069   6.637   4.923   4.399 -0.2218 -0.6876 -0.8889
  180DOPC  H11R22070   6.545   4.978   4.370  0.0757  0.5492  0.3943
  180DOPC  H11S22071   6.727   4.988   4.399 -0.0877 -0.8730 -0.5171
  180DOPC  C21222072   6.624   4.867   4.544 -0.0539 -0.6502  0.7236
  180DOPC  H12R22073   6.592   4.946   4.615  1.0459  1.4937 -1.0216
  180DOPC  H12S22074   6.718   4.815   4.572  1.1420 -1.1501 -3.4869
  180DOPC  C21322075   6.517   4.754   4.554  0.7272 -1.1521  0.0495
  180DOPC  H13R22076   6.525   4.671   4.481 -1.7469  0.2330 -1.9703
  180DOPC  H13S22077   6.424   4.808   4.525  0.5039 -0.3080  2.1555
  180DOPC  C21422078   6.506   4.711   4.699 -0.5443  0.0683  0.3992
  180DOPC  H14R22079   6.439   4.784   4.751 -2.5184 -1.4649  0.1455
  180DOPC  H14S22080   6.604   4.705   4.750 -0.9524  1.2633  1.3837
  180DOPC  C21522081   6.431   4.578   4.719 -0.4036 -0.5338  0.3423
  180DOPC  H15R22082   6.434   4.557   4.828 -1.2857  0.3026  0.5416
  180DOPC  H15S22083   6.475   4.492   4.663 -0.9502  0.3511 -1.5293
  180DOPC  C21622084   6.281   4.586   4.701 -0.1801 -0.2212  0.0612
  180DOPC  H16R22085   6.250   4.621   4.600 -2.4432  1.4640  1.2312
  180DOPC  H16S22086   6.238   4.664   4.768 -0.7453  0.0136 -0.5666
  180DOPC  C21722087   6.215   4.453   4.738  0.1092  0.0821 -0.0966
  180DOPC  H17R22088   6.279   4.405   4.815  0.0862  0.7639  0.3501
  180DOPC  H17S22089   6.218   4.391   4.645  0.2642 -1.2027  0.7418
  180DOPC  C21822090   6.073   4.479   4.783 -0.3028 -0.6164  0.3152
  180DOPC  H18R22091   6.061   4.517   4.886 -0.1214  0.2373  0.0314
  180DOPC  H18S22092   6.007   4.392   4.761 -2.3637  1.3657 -1.9434
  180DOPC  H18T22093   6.040   4.569   4.727  1.1429  0.3157  0.9049
  180DOPC   C3322094   5.830   3.962   3.588  0.0944 -0.0579  0.1647
  180DOPC   H3X22095   5.740   3.942   3.526 -1.3287 -2.1666  2.6625
  180DOPC   H3Y22096   5.809   4.047   3.656 -0.1443 -0.1959  0.2665
  180DOPC   C3422097   5.849   3.837   3.675  0.1216 -0.4541 -0.1274
  180DOPC   H4X22098   5.759   3.824   3.738 -0.3699  1.9367 -0.2378
  180DOPC   H4Y22099   5.935   3.854   3.744 -0.4938 -1.3349  0.8774
  180DOPC   C3522100   5.857   3.702   3.595 -0.2583 -0.4917  0.2557
  180DOPC   H5X22101   5.930   3.710   3.511 -2.0202  1.9887 -1.1735
  180DOPC   H5Y22102   5.756   3.693   3.551 -0.6476 -3.1475  1.5264
  180DOPC   C3622103   5.883   3.572   3.665 -0.0021  1.5854 -0.0807
  180DOPC   H6X22104   5.881   3.488   3.592  0.2032 -0.1585  1.8358
  180DOPC   H6Y22105   5.984   3.569   3.711  0.3371 -1.7130 -0.7866
  180DOPC   C3722106   5.763   3.523   3.752  0.0871  0.6382 -0.3866
  180DOPC   H7X22107   5.732   3.614   3.807  2.3803  0.7775  0.7950
  180DOPC   H7Y22108   5.677   3.494   3.689 -0.4866 -0.4720  0.8566
  180DOPC   C3822109   5.796   3.401   3.835  0.0975  0.3388  0.8363
  180DOPC   H8X22110   5.716   3.394   3.912 -2.1914 -3.5848 -1.5397
  180DOPC   H8Y22111   5.894   3.425   3.883  0.7534 -1.0381  0.2460
  180DOPC   C3922112   5.816   3.270   3.747  0.0536 -0.1495 -0.6244
  180DOPC   H9X22113   5.726   3.207   3.742 -1.1718  0.7169  4.7570
  180DOPC  C31022114   5.925   3.231   3.681  0.3816  0.0259  0.0387
  180DOPC  H10X22115   5.907   3.146   3.615  0.8133  0.5363 -0.7466
  180DOPC  C31122116   6.060   3.298   3.687  0.3202 -0.4323  0.8838
  180DOPC  H11X22117   6.078   3.366   3.773  3.0093 -0.4836  0.4620
  180DOPC  H11Y22118   6.060   3.363   3.597  0.0004 -0.5380  0.8051
  180DOPC  C31222119   6.182   3.209   3.687  0.3182 -0.4322  0.1374
  180DOPC  H12X22120   6.266   3.271   3.649 -1.4957  0.6417 -2.3702
  180DOPC  H12Y22121   6.166   3.132   3.608  1.0342  0.5359 -0.9797
  180DOPC  C31322122   6.220   3.140   3.821  0.5330 -0.7980  0.2962
  180DOPC  H13X22123   6.316   3.093   3.792 -0.5343 -2.7180 -0.3097
  180DOPC  H13Y22124   6.231   3.218   3.900 -2.6719  0.0826  0.0326
  180DOPC  C31422125   6.119   3.026   3.860 -0.6163  0.5331  0.1539
  180DOPC  H14X22126   6.130   3.014   3.970  0.7022  0.0184 -0.0196
  180DOPC  H14Y22127   6.023   3.082   3.863 -0.4724  0.7561  1.6958
  180DOPC  C31522128   6.118   2.896   3.775  0.0035  0.8452  0.1475
  180DOPC  H15X22129   6.210   2.840   3.801 -1.6656 -1.5249  1.3345
  180DOPC  H15Y22130   6.143   2.932   3.673  1.7556  0.0652  0.2677
  180DOPC  C31622131   5.990   2.813   3.786 -0.1721  0.4676 -0.6472
  180DOPC  H16X22132   5.993   2.757   3.882 -1.3564  0.3194 -0.6850
  180DOPC  H16Y22133   5.895   2.871   3.781 -0.9821 -0.6087  1.1169
  180DOPC  C31722134   5.971   2.699   3.685  0.0464 -0.4387  1.0932
  180DOPC  H17X22135   6.073   2.657   3.669  0.7640  0.8211  2.1387
  180DOPC  H17Y22136   5.906   2.612   3.707 -0.2721 -0.3316  0.5935
  180DOPC  C31822137   5.918   2.766   3.546  0.9339  0.2966 -0.6657
  180DOPC  H18X22138   5.909   2.681   3.475  2.1233 -1.9314  1.6521
  180DOPC  H18Y22139   5.815   2.798   3.570  1.1602 -1.1738  2.8955
  180DOPC  H18Z22140   5.980   2.854   3.519  2.1528 -0.2472  0.2334
  181DOPC     N22141   1.251   2.344   2.972  0.0555  0.0152  0.4512
  181DOPC   C1222142   1.159   2.447   3.037 -0.8176 -1.1468 -0.1778
  181DOPC  H12A22143   1.107   2.398   3.117 -1.1635 -1.4890 -0.6074
  181DOPC  H12B22144   1.082   2.475   2.966 -1.7587 -0.7561  0.9559
  181DOPC   C1322145   1.159   2.249   2.916 -0.8745 -0.3356 -0.3911
  181DOPC  H13A22146   1.088   2.300   2.853 -3.2702  0.9567  3.0188
  181DOPC  H13B22147   1.211   2.177   2.855  2.0790  1.2645  0.0681
  181DOPC  H13C22148   1.107   2.201   2.998  1.2462  1.8719  2.4428
  181DOPC   C1422149   1.346   2.285   3.066 -0.1940 -0.0514  0.3918
  181DOPC  H14A22150   1.412   2.355   3.115  0.9269 -0.6900 -0.1797
  181DOPC  H14B22151   1.294   2.235   3.147 -0.9460  1.4517  0.8887
  181DOPC  H14C22152   1.413   2.216   3.018  0.3322  1.6591 -1.4768
  181DOPC   C1522153   1.326   2.407   2.855  0.3183  0.0671  0.2108
  181DOPC  H15A22154   1.404   2.344   2.817  1.2706  1.0380  0.5058
  181DOPC  H15B22155   1.378   2.493   2.894  0.2843  1.4971 -2.6260
  181DOPC  H15C22156   1.257   2.441   2.779  0.5832 -0.9311 -0.4938
  181DOPC   C1122157   1.219   2.581   3.098 -0.2116  0.0935  0.1969
  181DOPC  H11A22158   1.139   2.616   3.166  1.3902  1.9662  1.2115
  181DOPC  H11B22159   1.305   2.558   3.164  0.8654  1.2938 -0.7430
  181DOPC     P22160   1.259   2.828   3.014 -0.4239 -0.1917  0.0329
  181DOPC   O1322161   1.155   2.899   2.936  0.2534  0.0224  0.2733
  181DOPC   O1422162   1.402   2.852   2.977 -0.5677 -0.1528 -0.0831
  181DOPC   O1222163   1.240   2.674   2.992  0.2659  0.2716  0.2934
  181DOPC   O1122164   1.228   2.840   3.170  0.0250  0.0687 -0.1710
  181DOPC    C122165   1.339   2.856   3.263 -0.0710  0.3792  0.4266
  181DOPC    HA22166   1.347   2.963   3.293 -0.4669  0.2697  0.9280
  181DOPC    HB22167   1.435   2.830   3.213  0.8397  2.5624  0.8891
  181DOPC    C222168   1.314   2.775   3.389  0.3181 -0.5086 -0.3670
  181DOPC    HS22169   1.299   2.670   3.354 -1.1577 -0.1714 -0.8569
  181DOPC   O2122170   1.191   2.827   3.458  0.3952  0.1726 -0.6609
  181DOPC   C2122171   1.127   2.732   3.530 -0.3272 -0.4150 -0.0711
  181DOPC   O2222172   1.167   2.618   3.545 -0.1685  0.0233  0.3873
  181DOPC   C2222173   1.023   2.811   3.614 -0.6002 -0.1518 -0.3988
  181DOPC   H2R22174   0.993   2.747   3.700  0.6129 -1.1787 -0.7210
  181DOPC   H2S22175   0.946   2.826   3.535 -0.1215  0.0762 -0.8259
  181DOPC    C322176   1.439   2.795   3.480  0.4173 -0.1755 -0.5824
  181DOPC    HX22177   1.454   2.902   3.509 -0.0163 -0.0107 -0.9475
  181DOPC    HY22178   1.531   2.780   3.420  0.6623 -0.6382 -0.0902
  181DOPC   O3122179   1.439   2.714   3.599 -0.5508  0.1040 -0.4694
  181DOPC   C3122180   1.461   2.581   3.583  0.0893 -0.3664  0.3348
  181DOPC   O3222181   1.460   2.520   3.483 -0.4289 -0.0276  0.0382
  181DOPC   C3222182   1.460   2.517   3.720  0.1584 -0.2519 -0.2799
  181DOPC   H2X22183   1.565   2.538   3.751  0.5779  0.7372 -2.2085
  181DOPC   H2Y22184   1.384   2.573   3.778 -0.3376  0.2335 -1.3885
  181DOPC   C2322185   1.064   2.945   3.675  0.1931  0.3975 -0.4407
  181DOPC   H3R22186   0.977   3.013   3.685 -1.8086 -2.2292  1.2478
  181DOPC   H3S22187   1.137   3.000   3.611 -0.0546  0.5156 -0.6249
  181DOPC   C2422188   1.107   2.942   3.826  0.4585 -0.3829  0.3753
  181DOPC   H4R22189   1.019   2.915   3.887 -0.6700 -2.0242 -1.8136
  181DOPC   H4S22190   1.143   3.041   3.861  3.5063 -0.9094 -0.9233
  181DOPC   C2522191   1.212   2.833   3.848  0.0698 -0.1351  0.2855
  181DOPC   H5R22192   1.301   2.843   3.782  0.0497 -1.6136 -0.0122
  181DOPC   H5S22193   1.183   2.728   3.827  1.2753 -0.2984 -0.6977
  181DOPC   C2622194   1.275   2.830   3.990 -0.3759 -0.9721 -0.7936
  181DOPC   H6R22195   1.196   2.811   4.066 -0.9572  0.8502 -0.8970
  181DOPC   H6S22196   1.305   2.937   3.996 -0.1624 -0.9680 -1.8062
  181DOPC   C2722197   1.400   2.745   4.011 -0.4956  0.0787  0.2724
  181DOPC   H7R22198   1.457   2.773   3.919 -0.2405 -0.1343  0.3649
  181DOPC   H7S22199   1.368   2.640   4.000 -0.5399  0.1152  0.0406
  181DOPC   C2822200   1.476   2.762   4.137  0.1709  0.5367  0.5279
  181DOPC   H8R22201   1.397   2.759   4.215 -0.1989 -0.7540  0.1344
  181DOPC   H8S22202   1.512   2.867   4.143  0.2576  0.5723 -0.5356
  181DOPC   C2922203   1.582   2.657   4.154 -0.1509 -0.3430 -0.5458
  181DOPC   H9R22204   1.544   2.554   4.163  0.7883 -0.7053 -0.6084
  181DOPC  C21022205   1.716   2.688   4.164  0.0514  0.5222 -0.2971
  181DOPC  H10R22206   1.789   2.608   4.182  1.6144  2.6366  4.2242
  181DOPC  C21122207   1.775   2.825   4.160 -0.1003 -0.0705  0.4115
  181DOPC  H11R22208   1.706   2.911   4.171  0.6591  0.4194  1.6870
  181DOPC  H11S22209   1.832   2.839   4.066  0.9251 -0.1849  0.9999
  181DOPC  C21222210   1.866   2.853   4.281  0.0111  0.5269 -0.2928
  181DOPC  H12R22211   1.953   2.787   4.266 -0.6285 -0.4731  0.3254
  181DOPC  H12S22212   1.818   2.828   4.378 -0.5799  2.3366 -0.0779
  181DOPC  C21322213   1.921   2.988   4.289  0.1447  0.5102 -0.1189
  181DOPC  H13R22214   1.897   3.045   4.197 -0.4615 -1.3975 -1.1849
  181DOPC  H13S22215   2.030   2.997   4.309  0.2475 -0.0292 -0.4338
  181DOPC  C21422216   1.838   3.059   4.398 -0.2789  1.2072 -0.3100
  181DOPC  H14R22217   1.845   3.000   4.492  1.6758  2.2778  0.2755
  181DOPC  H14S22218   1.733   3.054   4.363 -0.7692 -1.3084  1.2474
  181DOPC  C21522219   1.908   3.198   4.413 -0.4749 -0.8206 -0.0616
  181DOPC  H15R22220   1.909   3.243   4.311 -1.3397  0.2947  0.4019
  181DOPC  H15S22221   2.008   3.199   4.461 -0.3176  0.0097 -0.3899
  181DOPC  C21622222   1.816   3.295   4.492  0.3107 -0.0260  0.3863
  181DOPC  H16R22223   1.785   3.253   4.590 -2.0142  1.6138  0.4213
  181DOPC  H16S22224   1.724   3.302   4.431  1.5889  0.5082 -1.5615
  181DOPC  C21722225   1.888   3.426   4.517 -1.0577  0.2648  0.0309
  181DOPC  H17R22226   1.913   3.465   4.416  0.4503 -2.3055 -0.7009
  181DOPC  H17S22227   1.984   3.412   4.572 -0.1429  1.7478 -1.1100
  181DOPC  C21822228   1.794   3.532   4.586 -0.2851  0.2777 -0.4556
  181DOPC  H18R22229   1.689   3.506   4.563 -0.8528 -0.9672  2.9264
  181DOPC  H18S22230   1.812   3.630   4.537 -1.7399  0.4164 -0.7594
  181DOPC  H18T22231   1.823   3.540   4.693 -1.4179 -0.2660 -0.0959
  181DOPC   C3322232   1.441   2.362   3.720  0.9837 -0.0812  0.0150
  181DOPC   H3X22233   1.512   2.318   3.647  1.0082  1.2423 -0.7752
  181DOPC   H3Y22234   1.337   2.340   3.686  0.7608 -3.0287  2.1590
  181DOPC   C3422235   1.466   2.298   3.860  0.6106 -0.5191  0.2283
  181DOPC   H4X22236   1.438   2.191   3.860 -0.4427 -0.2537  0.0640
  181DOPC   H4Y22237   1.391   2.332   3.934  1.7236 -1.3679  1.7964
  181DOPC   C3522238   1.612   2.312   3.909  0.1294 -0.4428 -0.2470
  181DOPC   H5X22239   1.651   2.415   3.899  1.7270 -1.0616 -0.7017
  181DOPC   H5Y22240   1.675   2.265   3.831  1.1806 -0.7506  0.7511
  181DOPC   C3622241   1.638   2.249   4.044  0.1962 -0.4889  0.1954
  181DOPC   H6X22242   1.568   2.292   4.119 -0.9182 -1.6996 -0.1210
  181DOPC   H6Y22243   1.614   2.141   4.034 -2.4375 -0.1937  2.0880
  181DOPC   C3722244   1.781   2.289   4.099 -0.0302  0.6749 -0.4816
  181DOPC   H7X22245   1.784   2.399   4.116 -0.5259  0.3296  2.3252
  181DOPC   H7Y22246   1.821   2.234   4.186  0.2016  1.2801 -0.1992
  181DOPC   C3822247   1.894   2.275   3.992  0.2848 -0.7806 -0.3417
  181DOPC   H8X22248   1.881   2.368   3.933 -0.1174 -1.5864 -1.5557
  181DOPC   H8Y22249   1.869   2.189   3.927 -1.1361  0.3217 -1.3231
  181DOPC   C3922250   2.038   2.255   4.041 -0.2066  0.2144  0.5152
  181DOPC   H9X22251   2.059   2.167   4.104  1.4329  0.9684  1.0817
  181DOPC  C31022252   2.145   2.337   4.010  0.1804 -0.0709  1.0776
  181DOPC  H10X22253   2.238   2.305   4.059  0.5353  1.7267  1.6502
  181DOPC  C31122254   2.144   2.469   3.931 -0.4179 -0.3626 -0.7917
  181DOPC  H11X22255   2.044   2.511   3.906 -0.3243 -0.1634 -0.8359
  181DOPC  H11Y22256   2.189   2.444   3.832  0.9581  0.6296 -0.4451
  181DOPC  C31222257   2.230   2.576   4.002  0.7920  0.8778 -0.2252
  181DOPC  H12X22258   2.229   2.676   3.953 -1.0803  0.6216 -0.7979
  181DOPC  H12Y22259   2.335   2.541   3.995  1.4225  2.3005  1.3984
  181DOPC  C31322260   2.193   2.612   4.146 -0.1616  0.1019 -0.1580
  181DOPC  H13X22261   2.089   2.651   4.148 -0.3847 -0.3215 -2.0057
  181DOPC  H13Y22262   2.191   2.513   4.197 -1.5294 -0.9673 -2.1612
  181DOPC  C31422263   2.297   2.701   4.221 -0.2570  0.0050  0.0331
  181DOPC  H14X22264   2.388   2.637   4.222 -0.1492  0.1604  0.3613
  181DOPC  H14Y22265   2.335   2.790   4.166  1.0075 -0.7762 -0.4117
  181DOPC  C31522266   2.248   2.743   4.358  0.0440  0.7264 -0.1471
  181DOPC  H15X22267   2.177   2.828   4.358 -1.3625 -0.4052 -1.1904
  181DOPC  H15Y22268   2.336   2.782   4.413  2.1741 -2.5942 -0.8997
  181DOPC  C31622269   2.185   2.631   4.445  0.6608 -0.1458  0.0714
  181DOPC  H16X22270   2.092   2.592   4.397  0.6501 -0.2629  0.1863
  181DOPC  H16Y22271   2.259   2.548   4.448  1.2176  0.3793  1.4777
  181DOPC  C31722272   2.145   2.672   4.583 -0.3995  0.0198 -0.4316
  181DOPC  H17X22273   2.126   2.578   4.639  3.8565  0.7870  2.8409
  181DOPC  H17Y22274   2.228   2.722   4.638  0.4383 -0.0657 -1.5773
  181DOPC  C31822275   2.026   2.767   4.583 -0.5155 -0.2186  0.0428
  181DOPC  H18X22276   1.986   2.777   4.686  0.6349  2.0712  0.3247
  181DOPC  H18Y22277   2.052   2.872   4.558  3.7657 -0.6555  1.9287
  181DOPC  H18Z22278   1.948   2.738   4.509  1.6043  1.6672 -3.2054
  182DOPC     N22279   3.088   6.567   3.246  0.1199 -0.2438 -0.1129
  182DOPC   C1222280   3.198   6.471   3.200  0.8907  0.0710 -0.9117
  182DOPC  H12A22281   3.150   6.404   3.130  0.2575  1.0774 -1.4816
  182DOPC  H12B22282   3.231   6.414   3.285 -3.5568 -2.4227 -0.5623
  182DOPC   C1322283   3.113   6.598   3.394 -0.6431 -0.0357 -0.3739
  182DOPC  H13A22284   3.214   6.634   3.410 -1.2052  1.0348  0.8594
  182DOPC  H13B22285   3.043   6.672   3.428  1.4317  1.0928  1.6885
  182DOPC  H13C22286   3.101   6.507   3.450 -1.5968 -0.8062 -1.7764
  182DOPC   C1422287   2.955   6.500   3.240  0.3825  0.0666  0.2230
  182DOPC  H14A22288   2.960   6.404   3.288  0.0945 -0.4806 -0.8022
  182DOPC  H14B22289   2.868   6.551   3.279 -1.0972 -1.7537 -0.5212
  182DOPC  H14C22290   2.924   6.479   3.138 -0.6038 -2.3725  0.9562
  182DOPC   C1522291   3.086   6.697   3.176  0.1565 -0.2434  0.2967
  182DOPC  H15A22292   3.065   6.694   3.070  1.1669  2.6492 -0.0778
  182DOPC  H15B22293   3.185   6.741   3.178 -0.2731  0.7251  0.6405
  182DOPC  H15C22294   3.018   6.766   3.223  1.8168 -0.3033  3.0110
  182DOPC   C1122295   3.323   6.527   3.142  1.1397  0.2253  0.8607
  182DOPC  H11A22296   3.398   6.453   3.107 -0.0616  0.0748 -1.5232
  182DOPC  H11B22297   3.302   6.591   3.054 -2.0437 -0.8880  0.6957
  182DOPC     P22298   3.497   6.551   3.329 -0.0523 -0.3145  0.1359
  182DOPC   O1322299   3.622   6.536   3.256  0.5009 -0.3128 -0.3309
  182DOPC   O1422300   3.444   6.430   3.393  0.4518  0.0713  0.4438
  182DOPC   O1222301   3.382   6.606   3.243  0.2028  0.3522 -0.5242
  182DOPC   O1122302   3.527   6.664   3.442  0.0750 -0.9874  0.1317
  182DOPC    C122303   3.417   6.745   3.480 -0.0118  0.1058  0.1687
  182DOPC    HA22304   3.337   6.673   3.506  0.7389 -1.4040 -1.4565
  182DOPC    HB22305   3.388   6.812   3.395  1.6966 -0.3251 -0.8021
  182DOPC    C222306   3.442   6.817   3.613 -0.1341  0.1639  0.2302
  182DOPC    HS22307   3.347   6.864   3.646  0.7664  1.6392  0.8221
  182DOPC   O2122308   3.545   6.917   3.609 -0.0456  0.1509  0.1578
  182DOPC   C2122309   3.527   7.032   3.677  0.4322  0.2681 -0.0970
  182DOPC   O2222310   3.432   7.055   3.754 -0.4936  0.0988  0.4441
  182DOPC   C2222311   3.641   7.139   3.662 -0.4583  1.0796 -0.4086
  182DOPC   H2R22312   3.633   7.185   3.561  1.1193  0.4266 -0.8686
  182DOPC   H2S22313   3.738   7.085   3.664 -2.1657 -2.2472  0.3655
  182DOPC    C322314   3.473   6.714   3.723 -0.4871  0.5839  0.3483
  182DOPC    HX22315   3.583   6.698   3.715 -0.8209 -1.2851 -1.2003
  182DOPC    HY22316   3.420   6.617   3.717  0.6705 -0.0823  0.4607
  182DOPC   O3122317   3.469   6.764   3.857  0.1180 -0.4771 -0.4999
  182DOPC   C3122318   3.344   6.783   3.896  0.6307  0.8938  0.4685
  182DOPC   O3222319   3.244   6.748   3.834  0.2953  0.0175  0.1176
  182DOPC   C3222320   3.346   6.846   4.034  0.0824 -0.4220  0.6569
  182DOPC   H2X22321   3.434   6.807   4.089  1.6763 -0.6932 -1.9109
  182DOPC   H2Y22322   3.353   6.956   4.019 -1.4389 -0.6373 -2.5659
  182DOPC   C2322323   3.652   7.249   3.774  0.9695 -0.4747  0.1269
  182DOPC   H3R22324   3.554   7.268   3.823  0.5367 -0.3339 -0.7770
  182DOPC   H3S22325   3.677   7.345   3.724 -0.7131  0.4352  0.9366
  182DOPC   C2422326   3.749   7.222   3.888  0.4008 -0.6543 -0.3630
  182DOPC   H4R22327   3.845   7.179   3.850  1.6843  0.6123  1.2797
  182DOPC   H4S22328   3.712   7.149   3.962  0.8069 -1.0509 -0.5439
  182DOPC   C2522329   3.782   7.355   3.964 -0.0696  0.3358 -0.2128
  182DOPC   H5R22330   3.687   7.413   3.973  0.9132  2.2672 -1.5909
  182DOPC   H5S22331   3.845   7.419   3.899 -1.1607  1.2346 -0.4268
  182DOPC   C2622332   3.851   7.317   4.098 -0.6183  0.5309 -0.7235
  182DOPC   H6R22333   3.954   7.281   4.077 -0.2151 -0.9375  2.9297
  182DOPC   H6S22334   3.804   7.239   4.162  1.7094 -0.4332 -0.0989
  182DOPC   C2722335   3.879   7.440   4.181 -0.1572 -0.1476 -0.3022
  182DOPC   H7R22336   3.925   7.522   4.122 -0.9078 -0.2767 -1.0912
  182DOPC   H7S22337   3.952   7.406   4.257  0.0176 -2.0195 -1.2228
  182DOPC   C2822338   3.751   7.486   4.258  0.2288 -0.3422 -0.4191
  182DOPC   H8R22339   3.717   7.407   4.328 -0.2626 -0.3105 -0.6169
  182DOPC   H8S22340   3.667   7.489   4.186 -0.2782 -1.7543  0.0727
  182DOPC   C2922341   3.765   7.611   4.342 -1.1894 -0.5359  0.3166
  182DOPC   H9R22342   3.713   7.697   4.296  0.1544 -1.1683 -2.6144
  182DOPC  C21022343   3.819   7.623   4.463 -0.2368 -0.4689  0.0768
  182DOPC  H10R22344   3.814   7.716   4.523  1.1085 -0.3587  0.0342
  182DOPC  C21122345   3.902   7.518   4.533 -0.0882  0.0001  0.3674
  182DOPC  H11R22346   4.009   7.548   4.536 -0.2786  0.8276 -0.4687
  182DOPC  H11S22347   3.892   7.423   4.476 -2.4987 -0.3053  1.1831
  182DOPC  C21222348   3.855   7.484   4.676 -0.8234  0.4401 -0.3264
  182DOPC  H12R22349   3.889   7.568   4.739 -0.6428 -0.4469  0.7979
  182DOPC  H12S22350   3.903   7.388   4.708  0.2669  1.1991  0.3854
  182DOPC  C21322351   3.703   7.461   4.700  0.1489 -0.4848 -0.4803
  182DOPC  H13R22352   3.685   7.378   4.628 -0.0358  0.7888 -1.9432
  182DOPC  H13S22353   3.651   7.548   4.655 -1.0045 -1.0520 -0.2692
  182DOPC  C21422354   3.675   7.439   4.847 -0.7698  0.0782  0.7990
  182DOPC  H14R22355   3.699   7.532   4.903 -1.3576  1.2453 -0.8082
  182DOPC  H14S22356   3.740   7.352   4.873  1.7114  0.3035 -3.7909
  182DOPC  C21522357   3.522   7.398   4.866 -0.0085 -0.2282  0.0419
  182DOPC  H15R22358   3.461   7.462   4.798 -0.8140 -0.6111  0.3916
  182DOPC  H15S22359   3.490   7.409   4.971 -2.0606 -0.0477 -0.5707
  182DOPC  C21622360   3.484   7.253   4.827 -0.1533 -0.9176 -0.1464
  182DOPC  H16R22361   3.555   7.188   4.883 -1.2995  0.2369  2.8472
  182DOPC  H16S22362   3.499   7.238   4.718 -1.6293 -3.6425 -0.0574
  182DOPC  C21722363   3.340   7.186   4.859  0.0460  0.0407 -0.2625
  182DOPC  H17R22364   3.311   7.205   4.964  0.3540  0.7217 -0.2959
  182DOPC  H17S22365   3.377   7.081   4.855 -0.5858 -0.2083  0.3071
  182DOPC  C21822366   3.229   7.201   4.761  0.1988 -0.7981 -0.5511
  182DOPC  H18R22367   3.254   7.169   4.657  2.0597 -0.3631 -0.2829
  182DOPC  H18S22368   3.200   7.308   4.761 -2.5435 -1.4405 -2.1016
  182DOPC  H18T22369   3.144   7.141   4.800 -1.7139  2.0583 -0.0266
  182DOPC   C3322370   3.220   6.809   4.110 -0.8073  0.1517 -0.3105
  182DOPC   H3X22371   3.216   6.698   4.099  0.5170  0.1190 -0.6166
  182DOPC   H3Y22372   3.134   6.866   4.069 -1.3631 -0.4998 -0.0781
  182DOPC   C3422373   3.224   6.833   4.261 -0.2103 -0.1800 -0.3902
  182DOPC   H4X22374   3.234   6.943   4.276 -2.8354  0.3270 -1.7598
  182DOPC   H4Y22375   3.309   6.775   4.302 -0.1883  0.7353  0.9134
  182DOPC   C3522376   3.105   6.778   4.340  0.0035  0.1276 -0.8993
  182DOPC   H5X22377   3.111   6.667   4.345  0.6067  0.1559 -0.9288
  182DOPC   H5Y22378   3.016   6.814   4.285 -1.5471 -0.8250  0.8534
  182DOPC   C3622379   3.082   6.842   4.479 -0.6207  0.1806 -0.0055
  182DOPC   H6X22380   3.108   6.950   4.469  1.7057 -0.2348  0.7835
  182DOPC   H6Y22381   2.974   6.828   4.496 -0.9085  0.4530 -1.4821
  182DOPC   C3722382   3.162   6.780   4.596 -0.2084 -0.2525  0.3260
  182DOPC   H7X22383   3.161   6.669   4.591 -0.1282 -0.2478  0.2010
  182DOPC   H7Y22384   3.268   6.814   4.589  0.5916 -2.3096  1.6322
  182DOPC   C3822385   3.117   6.835   4.734 -0.4996  0.1396 -0.6898
  182DOPC   H8X22386   3.013   6.803   4.756 -0.7873 -0.6027 -2.8295
  182DOPC   H8Y22387   3.121   6.946   4.735  1.2988  0.1117  0.9369
  182DOPC   C3922388   3.205   6.789   4.850  0.2712  0.9276 -0.5807
  182DOPC   H9X22389   3.309   6.825   4.848  0.5132  0.2339 -2.6018
  182DOPC  C31022390   3.167   6.684   4.934  0.4135 -0.5138  0.5556
  182DOPC  H10X22391   3.224   6.666   5.026  0.8970  1.9643  0.8241
  182DOPC  C31122392   3.048   6.595   4.919  0.5458 -0.1852  0.2063
  182DOPC  H11X22393   3.066   6.493   4.957 -3.5123 -0.5276  1.7305
  182DOPC  H11Y22394   3.020   6.586   4.812  0.3052 -0.4386  0.2895
  182DOPC  C31222395   2.924   6.646   5.001 -0.6443 -0.4824  0.2832
  182DOPC  H12X22396   2.844   6.572   4.983  1.0821 -2.2608 -0.3951
  182DOPC  H12Y22397   2.891   6.740   4.953  0.4700  0.6752  1.6555
  182DOPC  C31322398   2.945   6.680   5.145  0.0173  0.5558 -0.0730
  182DOPC  H13X22399   2.989   6.594   5.199  0.3837  0.4664 -0.5047
  182DOPC  H13Y22400   3.002   6.775   5.156 -1.8272  1.5710  1.1462
  182DOPC  C31422401   2.818   6.712   5.220 -0.4888 -0.3252  1.1049
  182DOPC  H14X22402   2.841   6.724   5.328  0.2229 -2.4921  1.2316
  182DOPC  H14Y22403   2.782   6.812   5.187 -1.5442 -0.6769  1.1254
  182DOPC  C31522404   2.702   6.608   5.199  0.2103  0.7014  0.0757
  182DOPC  H15X22405   2.744   6.506   5.213 -1.2754  0.1525  0.8252
  182DOPC  H15Y22406   2.666   6.617   5.094 -0.5741  0.3563  0.3074
  182DOPC  C31622407   2.590   6.640   5.301 -0.1080  0.1018 -0.6848
  182DOPC  H16X22408   2.632   6.648   5.403  2.1831  1.9852 -1.6861
  182DOPC  H16Y22409   2.550   6.741   5.277  2.1729  1.1152 -0.5199
  182DOPC  C31722410   2.483   6.531   5.304 -0.6697 -0.0040  0.0158
  182DOPC  H17X22411   2.437   6.534   5.203  1.4127  0.6661 -0.9590
  182DOPC  H17Y22412   2.511   6.424   5.315 -1.5397 -0.3815 -1.2641
  182DOPC  C31822413   2.380   6.548   5.414  0.2180 -0.5424 -0.2415
  182DOPC  H18X22414   2.428   6.566   5.513  1.5269 -1.4187 -0.6840
  182DOPC  H18Y22415   2.319   6.641   5.407 -0.0772 -0.6502  0.7394
  182DOPC  H18Z22416   2.328   6.451   5.425 -0.1109 -0.4699 -1.0612
  183DOPC     N22417   1.955   4.017   2.885 -0.3769  0.0268 -0.1519
  183DOPC   C1222418   1.821   4.078   2.899 -0.0680 -0.0118  0.4700
  183DOPC  H12A22419   1.794   4.082   3.004  1.0926  2.7750  0.7477
  183DOPC  H12B22420   1.757   4.003   2.854 -0.8095 -1.1021  3.1245
  183DOPC   C1322421   2.073   4.078   2.966 -0.4131  0.1314  0.1229
  183DOPC  H13A22422   2.165   4.022   2.961  0.5952  1.8360 -2.0655
  183DOPC  H13B22423   2.082   4.177   2.926 -0.9380 -0.3683 -1.2830
  183DOPC  H13C22424   2.043   4.091   3.069  0.5503 -1.6827  0.6845
  183DOPC   C1422425   2.003   4.005   2.741  0.0286  0.0585  0.1201
  183DOPC  H14A22426   2.019   4.105   2.705  0.6873 -1.0887 -3.1510
  183DOPC  H14B22427   2.092   3.947   2.720 -1.0899 -1.1267 -1.7465
  183DOPC  H14C22428   1.932   3.965   2.669  1.1325  2.6364 -2.6190
  183DOPC   C1522429   1.943   3.871   2.939 -0.6401  0.6445  0.3102
  183DOPC  H15A22430   2.039   3.821   2.932 -0.7503  0.3614  0.7598
  183DOPC  H15B22431   1.868   3.823   2.878 -0.3605  2.0489 -1.2045
  183DOPC  H15C22432   1.902   3.867   3.039  1.6979  1.6767  1.3948
  183DOPC   C1122433   1.793   4.223   2.843  0.1902  0.1729 -0.3693
  183DOPC  H11A22434   1.803   4.218   2.733  0.0660  2.8995 -0.5756
  183DOPC  H11B22435   1.683   4.235   2.854  0.1230 -0.2308 -0.5707
  183DOPC     P22436   1.840   4.385   3.031  0.4175  0.2375  0.1856
  183DOPC   O1322437   1.779   4.514   3.006  0.5633 -0.5208 -0.6134
  183DOPC   O1422438   1.964   4.376   3.105 -0.1266  0.0557 -0.2026
  183DOPC   O1222439   1.881   4.326   2.893 -0.3918 -0.5211 -0.2408
  183DOPC   O1122440   1.741   4.281   3.101  0.0524  0.2159  0.2300
  183DOPC    C122441   1.593   4.295   3.097 -0.8708 -0.4611 -0.0192
  183DOPC    HA22442   1.550   4.192   3.099  0.1879 -0.9334 -0.5497
  183DOPC    HB22443   1.564   4.344   3.001  1.5448  1.1437 -0.0016
  183DOPC    C222444   1.556   4.379   3.221  0.2378  0.4206 -0.1848
  183DOPC    HS22445   1.584   4.483   3.192 -2.1059  1.1206 -0.1719
  183DOPC   O2122446   1.625   4.321   3.339  0.7211  0.0184  0.2842
  183DOPC   C2122447   1.680   4.410   3.416  0.4039 -0.3048 -0.1571
  183DOPC   O2222448   1.684   4.530   3.402 -0.4423 -0.4295  0.2609
  183DOPC   C2222449   1.747   4.329   3.529 -0.7211  0.2728 -0.5389
  183DOPC   H2R22450   1.776   4.229   3.492  0.6068  0.0062  1.0798
  183DOPC   H2S22451   1.663   4.312   3.600  1.3001  0.7349  2.1220
  183DOPC    C322452   1.408   4.400   3.232  0.4466  0.3505  0.2892
  183DOPC    HX22453   1.366   4.299   3.252 -1.4258  1.1210  0.4310
  183DOPC    HY22454   1.360   4.427   3.135  0.3406 -0.0738  0.2195
  183DOPC   O3122455   1.373   4.485   3.345 -0.5259  0.5175 -0.5089
  183DOPC   C3122456   1.395   4.616   3.339 -0.1832 -0.0342  0.3590
  183DOPC   O3222457   1.437   4.677   3.245  0.1104  0.2360 -0.1673
  183DOPC   C3222458   1.348   4.682   3.466 -0.4623 -0.1364  0.4004
  183DOPC   H2X22459   1.251   4.636   3.494  0.3963 -2.0755  0.3286
  183DOPC   H2Y22460   1.431   4.662   3.537  0.3618 -2.6114 -1.1476
  183DOPC   C2322461   1.869   4.394   3.606  0.1288 -0.3079 -1.1355
  183DOPC   H3R22462   1.847   4.499   3.632  0.0893 -0.5835 -0.0305
  183DOPC   H3S22463   1.953   4.418   3.537 -0.5489  1.0139 -1.5354
  183DOPC   C2422464   1.903   4.323   3.731 -0.1138 -0.2218 -0.2162
  183DOPC   H4R22465   1.923   4.219   3.698  0.7527  0.3598 -1.6069
  183DOPC   H4S22466   1.821   4.321   3.806 -1.0089 -0.2947 -1.1705
  183DOPC   C2522467   2.034   4.380   3.793  0.0764  0.2942 -0.3841
  183DOPC   H5R22468   2.004   4.484   3.819 -0.3608  0.1693 -0.3914
  183DOPC   H5S22469   2.109   4.375   3.711  0.0025 -2.1704 -0.3792
  183DOPC   C2622470   2.081   4.303   3.918  0.0985  0.2899 -0.7459
  183DOPC   H6R22471   2.088   4.200   3.877 -3.1355  0.0974 -1.0904
  183DOPC   H6S22472   1.996   4.317   3.988  0.7589  1.8512 -0.1975
  183DOPC   C2722473   2.204   4.361   3.976  0.2199 -0.6520 -0.0869
  183DOPC   H7R22474   2.188   4.469   4.000  3.6881 -0.1814  0.7007
  183DOPC   H7S22475   2.281   4.372   3.897  0.6990  2.4020  0.6463
  183DOPC   C2822476   2.248   4.276   4.096 -0.3182 -0.4887 -0.9204
  183DOPC   H8R22477   2.239   4.172   4.058 -0.5046 -1.7790  2.3796
  183DOPC   H8S22478   2.179   4.276   4.183  0.0310  0.8368 -0.6268
  183DOPC   C2922479   2.380   4.317   4.142 -0.5620  0.2895 -0.3770
  183DOPC   H9R22480   2.414   4.420   4.119  1.4113 -0.2746 -0.1661
  183DOPC  C21022481   2.445   4.257   4.243 -0.2315  0.3013  0.4243
  183DOPC  H10R22482   2.544   4.293   4.273 -0.4129 -0.9963  2.7791
  183DOPC  C21122483   2.407   4.131   4.319 -0.0505 -0.6691  0.2135
  183DOPC  H11R22484   2.344   4.071   4.250 -3.5556  3.1989 -0.2929
  183DOPC  H11S22485   2.350   4.171   4.405  1.2825  1.6273  0.1326
  183DOPC  C21222486   2.520   4.039   4.359  0.0947 -0.4665  0.0583
  183DOPC  H12R22487   2.464   3.979   4.433  0.4123 -0.4339  0.3254
  183DOPC  H12S22488   2.600   4.101   4.405  0.3997 -0.0581 -0.9809
  183DOPC  C21322489   2.574   3.950   4.248 -0.4924 -0.5775 -0.4760
  183DOPC  H13R22490   2.602   4.017   4.164  0.2133 -0.9294 -0.5272
  183DOPC  H13S22491   2.484   3.896   4.212 -0.5241 -1.7486  1.2283
  183DOPC  C21422492   2.689   3.869   4.282  0.2288  0.1034 -0.3172
  183DOPC  H14R22493   2.780   3.926   4.313  0.8235 -1.2671  0.5695
  183DOPC  H14S22494   2.720   3.799   4.202  0.8202 -2.0099  1.6379
  183DOPC  C21522495   2.660   3.759   4.388 -0.3292 -0.2158 -0.3966
  183DOPC  H15R22496   2.593   3.688   4.336  0.5491 -0.9522 -0.5489
  183DOPC  H15S22497   2.597   3.796   4.472 -0.0270  0.6034 -0.5191
  183DOPC  C21622498   2.776   3.683   4.451 -0.0011 -0.1112 -0.2903
  183DOPC  H16R22499   2.821   3.746   4.531  2.7309  1.2799 -2.6843
  183DOPC  H16S22500   2.857   3.651   4.382  1.5115  0.6885  1.0395
  183DOPC  C21722501   2.722   3.567   4.535  0.2084 -0.0543  0.3156
  183DOPC  H17R22502   2.706   3.474   4.475 -0.2696  1.3021 -1.7538
  183DOPC  H17S22503   2.622   3.596   4.576  0.8471  1.1087  1.0871
  183DOPC  C21822504   2.813   3.524   4.645 -0.0207 -0.7268  0.2876
  183DOPC  H18R22505   2.913   3.492   4.611 -0.3488 -1.5721  0.1057
  183DOPC  H18S22506   2.778   3.438   4.706  1.2928 -1.1968  0.4054
  183DOPC  H18T22507   2.825   3.605   4.721 -1.0496 -0.0740 -0.2199
  183DOPC   C3322508   1.333   4.834   3.446  0.1733 -0.2300 -0.4010
  183DOPC   H3X22509   1.260   4.857   3.364  2.6289  1.7087 -2.1946
  183DOPC   H3Y22510   1.424   4.889   3.415  0.5093 -1.1448 -1.0698
  183DOPC   C3422511   1.285   4.904   3.570  0.3064 -0.5262  0.0679
  183DOPC   H4X22512   1.330   4.865   3.664 -0.8420 -0.4546  0.6595
  183DOPC   H4Y22513   1.178   4.876   3.581  0.1989 -0.7119 -1.3093
  183DOPC   C3522514   1.311   5.056   3.578  0.3933 -0.9268  0.3147
  183DOPC   H5X22515   1.251   5.109   3.501 -3.0351 -2.6361  1.5411
  183DOPC   H5Y22516   1.419   5.069   3.560 -0.0927  3.1595 -0.5539
  183DOPC   C3622517   1.268   5.113   3.717 -0.4089 -0.2179  0.4882
  183DOPC   H6X22518   1.161   5.084   3.730 -0.3264 -1.1342 -0.6879
  183DOPC   H6Y22519   1.322   5.064   3.800  0.1232 -1.9247 -0.7979
  183DOPC   C3722520   1.294   5.272   3.736 -0.7225  0.3555  0.5018
  183DOPC   H7X22521   1.399   5.292   3.705 -1.3266 -1.4785 -3.3074
  183DOPC   H7Y22522   1.224   5.322   3.664 -1.1181 -3.2422 -1.8561
  183DOPC   C3822523   1.262   5.309   3.884 -0.0837  0.2478 -0.0446
  183DOPC   H8X22524   1.354   5.283   3.940  0.6967 -0.1712 -1.4732
  183DOPC   H8Y22525   1.173   5.246   3.904  0.4431 -1.0950 -1.7031
  183DOPC   C3922526   1.245   5.460   3.888 -0.0279 -0.7660 -0.3952
  183DOPC   H9X22527   1.267   5.516   3.795 -0.5293  0.5873  0.2761
  183DOPC  C31022528   1.228   5.525   4.005 -0.5721  0.3328  0.0724
  183DOPC  H10X22529   1.229   5.635   4.003 -2.3795  0.3845  0.2531
  183DOPC  C31122530   1.194   5.461   4.140 -0.2439 -0.0589  0.3849
  183DOPC  H11X22531   1.237   5.358   4.141  0.7670  0.3552  1.3145
  183DOPC  H11Y22532   1.084   5.458   4.159  0.1053 -1.4445  2.5147
  183DOPC  C31222533   1.259   5.529   4.257 -0.1818 -0.6981  0.2483
  183DOPC  H12X22534   1.234   5.637   4.251 -0.1120 -0.6734  0.3915
  183DOPC  H12Y22535   1.367   5.509   4.239 -0.4785 -0.8337 -1.5001
  183DOPC  C31322536   1.230   5.482   4.399  0.0184 -0.4072 -0.2729
  183DOPC  H13X22537   1.124   5.503   4.423 -0.1115  0.2705 -1.3688
  183DOPC  H13Y22538   1.231   5.371   4.411 -0.4566 -0.2242  1.7534
  183DOPC  C31422539   1.319   5.536   4.510  0.4105 -0.9712  0.2087
  183DOPC  H14X22540   1.299   5.476   4.601  1.6569 -2.8416 -0.6792
  183DOPC  H14Y22541   1.426   5.515   4.488  0.8737  0.3738  1.0570
  183DOPC  C31522542   1.306   5.687   4.539  0.6717 -0.1934  0.0642
  183DOPC  H15X22543   1.198   5.709   4.554  1.0593  1.6081  0.5126
  183DOPC  H15Y22544   1.347   5.745   4.454 -1.6832  2.8694  0.8420
  183DOPC  C31622545   1.380   5.731   4.670 -0.0414 -0.2536  0.3570
  183DOPC  H16X22546   1.364   5.655   4.750 -0.0245 -0.1775  0.4325
  183DOPC  H16Y22547   1.489   5.725   4.651  0.1713  0.8329  1.1499
  183DOPC  C31722548   1.358   5.872   4.733 -0.8564  0.0349 -0.0006
  183DOPC  H17X22549   1.383   5.951   4.658  1.3299 -1.4598 -0.9439
  183DOPC  H17Y22550   1.247   5.868   4.745 -0.6217 -2.2687  2.3376
  183DOPC  C31822551   1.424   5.886   4.870 -0.6166  0.0577  0.3602
  183DOPC  H18X22552   1.532   5.865   4.854 -0.0048  2.2008  1.3658
  183DOPC  H18Y22553   1.401   5.982   4.922 -3.8845 -1.3112  1.7109
  183DOPC  H18Z22554   1.385   5.807   4.938 -1.2457  1.4877  1.7075
  184DOPC     N22555   6.596   0.557   3.203 -0.3771 -0.0853 -0.7993
  184DOPC   C1222556   6.558   0.579   3.354 -0.6129 -0.2396 -0.0915
  184DOPC  H12A22557   6.642   0.548   3.414 -0.3026  2.5830  1.1185
  184DOPC  H12B22558   6.481   0.510   3.384  0.0046 -0.3115  1.3988
  184DOPC   C1322559   6.499   0.637   3.119 -0.0694 -0.7324  0.3892
  184DOPC  H13A22560   6.407   0.582   3.125  0.4239 -1.8402 -1.4104
  184DOPC  H13B22561   6.494   0.742   3.145  0.8269 -0.2459 -1.2487
  184DOPC  H13C22562   6.532   0.638   3.016  0.5803 -0.7215  0.5953
  184DOPC   C1422563   6.603   0.409   3.168  0.2371 -0.0105 -0.4946
  184DOPC  H14A22564   6.660   0.398   3.076  0.8314 -1.4389  0.0180
  184DOPC  H14B22565   6.673   0.365   3.237 -0.2046 -0.4147 -0.3052
  184DOPC  H14C22566   6.505   0.365   3.173  0.6350 -1.2211 -2.1986
  184DOPC   C1522567   6.734   0.605   3.179  0.4790  0.3119 -0.3493
  184DOPC  H15A22568   6.815   0.549   3.223  0.1846 -0.3602 -0.6383
  184DOPC  H15B22569   6.745   0.708   3.209 -0.6227  0.5227 -0.6251
  184DOPC  H15C22570   6.750   0.606   3.072 -2.4146  1.6531 -0.8830
  184DOPC   C1122571   6.532   0.721   3.391  0.5808  0.0816  0.7075
  184DOPC  H11A22572   6.454   0.777   3.337  2.1560  0.3602 -1.3867
  184DOPC  H11B22573   6.509   0.720   3.500  2.2772  2.7949  1.1795
  184DOPC     P22574   6.768   0.806   3.476 -0.1378  0.0274  0.0511
  184DOPC   O1322575   6.890   0.764   3.401 -0.3228  0.7072 -0.2064
  184DOPC   O1422576   6.730   0.735   3.600  0.0262 -0.5070  0.2472
  184DOPC   O1222577   6.656   0.795   3.369  0.5104 -0.0395 -0.0856
  184DOPC   O1122578   6.777   0.961   3.518 -0.2299 -0.3674  0.0186
  184DOPC    C122579   6.668   1.053   3.524 -0.0385 -0.3427  0.0439
  184DOPC    HA22580   6.574   1.035   3.469 -0.4322 -1.9673  1.1633
  184DOPC    HB22581   6.699   1.153   3.487 -1.0642  0.4674  1.2914
  184DOPC    C222582   6.630   1.077   3.670 -0.7212  0.8800 -0.4034
  184DOPC    HS22583   6.720   1.076   3.735  0.2369 -0.1014 -1.7018
  184DOPC   O2122584   6.551   0.965   3.720  0.7719 -0.3378 -0.4665
  184DOPC   C2122585   6.526   0.952   3.846  0.4443 -0.7387  0.0225
  184DOPC   O2222586   6.569   1.026   3.935  0.3698  0.1472 -0.7167
  184DOPC   C2222587   6.449   0.833   3.874  0.0082  1.0491  0.9271
  184DOPC   H2R22588   6.494   0.747   3.821 -1.0722  2.1028 -1.9285
  184DOPC   H2S22589   6.352   0.852   3.823  0.5332 -1.9377 -1.5153
  184DOPC    C322590   6.567   1.216   3.690 -0.5531  0.0275 -0.3805
  184DOPC    HX22591   6.646   1.293   3.696 -0.1302 -0.3948 -0.5246
  184DOPC    HY22592   6.519   1.229   3.790  0.0123 -0.2798 -0.0675
  184DOPC   O3122593   6.461   1.252   3.595 -0.2450 -0.2384 -0.3178
  184DOPC   C3122594   6.486   1.360   3.526  0.1406 -0.4064 -0.4357
  184DOPC   O3222595   6.593   1.415   3.503  0.0393  0.0740 -0.4452
  184DOPC   C3222596   6.361   1.405   3.462  0.3911 -0.4943  0.4953
  184DOPC   H2X22597   6.381   1.435   3.357  2.1973 -1.1363  0.6329
  184DOPC   H2Y22598   6.292   1.318   3.451 -0.3022  0.1789 -0.7364
  184DOPC   C2322599   6.409   0.813   4.020 -0.3100 -0.2630 -0.4593
  184DOPC   H3R22600   6.307   0.858   4.020  0.2904  1.2083 -1.7887
  184DOPC   H3S22601   6.470   0.878   4.086  2.2314 -2.6096 -0.3373
  184DOPC   C2422602   6.428   0.669   4.080  0.8090  0.7928  0.2552
  184DOPC   H4R22603   6.394   0.592   4.008  0.6294  1.2724 -0.1817
  184DOPC   H4S22604   6.353   0.656   4.161  1.5083 -0.0673  0.7748
  184DOPC   C2522605   6.571   0.637   4.123  0.0209 -0.4315 -0.6274
  184DOPC   H5R22606   6.595   0.718   4.194 -0.6756 -0.5450 -0.2475
  184DOPC   H5S22607   6.636   0.649   4.034  1.0312  1.9950  0.3574
  184DOPC   C2622608   6.591   0.498   4.187  0.4290  0.3473  0.1759
  184DOPC   H6R22609   6.551   0.425   4.114 -1.0459  0.2338  1.0573
  184DOPC   H6S22610   6.526   0.500   4.277 -2.7874 -0.0106 -1.9661
  184DOPC   C2722611   6.738   0.464   4.218 -0.2276  0.0325 -0.4422
  184DOPC   H7R22612   6.781   0.528   4.297 -1.7225 -1.7389  1.9580
  184DOPC   H7S22613   6.792   0.481   4.123 -1.5147  1.0010 -1.0298
  184DOPC   C2822614   6.748   0.322   4.269 -0.1640  0.3467  0.0931
  184DOPC   H8R22615   6.687   0.253   4.207  0.0865 -0.2157  0.4674
  184DOPC   H8S22616   6.698   0.321   4.369  0.1078  1.1368  0.2521
  184DOPC   C2922617   6.890   0.265   4.271 -0.0375 -0.2986 -0.5286
  184DOPC   H9R22618   6.937   0.253   4.172  1.3712  0.7445 -0.0196
  184DOPC  C21022619   6.950   0.210   4.380  0.6114 -0.5738  0.5292
  184DOPC  H10R22620   7.054   0.172   4.384  1.6711  2.1374  2.5518
  184DOPC  C21122621   6.895   0.217   4.521  0.4105  0.3893  0.1340
  184DOPC  H11R22622   6.785   0.214   4.514  0.3070 -1.9120  1.7971
  184DOPC  H11S22623   6.927   0.307   4.579  0.5749 -0.0518  0.7357
  184DOPC  C21222624   6.937   0.095   4.605  0.1222  0.2305  0.5723
  184DOPC  H12R22625   6.899   0.011   4.543  3.7554 -0.4675 -0.9762
  184DOPC  H12S22626   6.887   0.097   4.704  0.6010 -1.9930  0.9009
  184DOPC  C21322627   7.089   0.078   4.627 -0.4057 -0.4908  1.1732
  184DOPC  H13R22628   7.132   0.179   4.645 -1.4048  0.0547  0.5724
  184DOPC  H13S22629   7.135   0.053   4.530 -2.0752  0.6065  0.0491
  184DOPC  C21422630   7.129  -0.016   4.740  0.3050  0.3230 -0.2385
  184DOPC  H14R22631   7.098  -0.117   4.705 -2.8799  0.3888  1.9490
  184DOPC  H14S22632   7.064   0.006   4.827 -0.0889 -0.3989 -0.3402
  184DOPC  C21522633   7.278  -0.009   4.785 -0.2077  0.3567  0.3598
  184DOPC  H15R22634   7.308   0.096   4.805  0.6021 -0.0158  1.1414
  184DOPC  H15S22635   7.342  -0.046   4.702  2.2575  0.9632  1.9016
  184DOPC  C21622636   7.306  -0.088   4.918  0.3047  0.1828  0.3015
  184DOPC  H16R22637   7.262  -0.190   4.908  2.1340 -0.8517  1.9154
  184DOPC  H16S22638   7.253  -0.043   5.005 -0.1252 -0.9131  0.6240
  184DOPC  C21722639   7.454  -0.096   4.954  0.3810 -0.1356  0.8984
  184DOPC  H17R22640   7.491   0.009   4.959  0.7932 -0.2863  1.0885
  184DOPC  H17S22641   7.515  -0.136   4.870 -0.6246  2.1404 -1.0315
  184DOPC  C21822642   7.475  -0.170   5.086  0.3305 -0.3929 -0.4294
  184DOPC  H18R22643   7.393  -0.156   5.159  1.5765 -2.5597  1.5287
  184DOPC  H18S22644   7.571  -0.134   5.131 -0.0407  0.4963 -0.3317
  184DOPC  H18T22645   7.480  -0.280   5.070 -0.2665 -0.2356 -1.8303
  184DOPC   C3322646   6.282   1.519   3.539 -0.2006  0.0137  0.1182
  184DOPC   H3X22647   6.198   1.551   3.472  0.7059 -1.4549 -1.8166
  184DOPC   H3Y22648   6.342   1.611   3.553 -0.7329  0.1653  1.5262
  184DOPC   C3422649   6.225   1.473   3.673 -0.0343  0.0114  0.7543
  184DOPC   H4X22650   6.307   1.417   3.724  0.5403  0.4741  0.3625
  184DOPC   H4Y22651   6.140   1.404   3.660 -0.6278  0.3610  2.5027
  184DOPC   C3522652   6.193   1.589   3.769 -0.0780  0.3651 -0.5742
  184DOPC   H5X22653   6.275   1.658   3.796 -1.3646  1.8443 -0.2779
  184DOPC   H5Y22654   6.163   1.544   3.866  0.6030 -1.0362 -0.9968
  184DOPC   C3622655   6.077   1.678   3.718  0.7599  0.1849 -0.0905
  184DOPC   H6X22656   6.043   1.741   3.803  2.6190  1.1739 -0.0407
  184DOPC   H6Y22657   6.105   1.738   3.630 -1.8722  1.8836  0.1329
  184DOPC   C3722658   5.947   1.606   3.667  0.2335  0.1426 -0.5447
  184DOPC   H7X22659   5.880   1.693   3.653 -1.3343 -0.6074  1.8208
  184DOPC   H7Y22660   5.965   1.563   3.566  1.6042 -4.2505  1.3282
  184DOPC   C3822661   5.878   1.504   3.759 -0.6821  0.2861 -0.2169
  184DOPC   H8X22662   5.854   1.541   3.861 -0.5500  1.7506 -0.6843
  184DOPC   H8Y22663   5.949   1.423   3.782 -0.8642 -0.5937 -2.4881
  184DOPC   C3922664   5.756   1.446   3.692 -0.0133  0.0486 -0.1297
  184DOPC   H9X22665   5.796   1.400   3.601 -0.4942 -0.6440  0.0049
  184DOPC  C31022666   5.629   1.450   3.733 -0.1532 -0.3512 -0.5746
  184DOPC  H10X22667   5.555   1.409   3.663 -0.0926 -2.9315  0.7393
  184DOPC  C31122668   5.575   1.507   3.863  0.0157 -0.3781  0.0252
  184DOPC  H11X22669   5.498   1.584   3.837 -0.2327 -0.4096  0.6467
  184DOPC  H11Y22670   5.658   1.549   3.924  0.1697  0.1120 -0.5087
  184DOPC  C31222671   5.502   1.396   3.948  0.3650  0.0796  0.6005
  184DOPC  H12X22672   5.575   1.315   3.969 -1.2824 -0.8409  3.2584
  184DOPC  H12Y22673   5.415   1.366   3.886  0.6520  0.4013  0.0262
  184DOPC  C31322674   5.472   1.457   4.088  0.3082  0.0397  0.0616
  184DOPC  H13X22675   5.573   1.483   4.127  0.6392  1.0391 -1.3630
  184DOPC  H13Y22676   5.414   1.552   4.083  0.1845 -0.0097  0.5479
  184DOPC  C31422677   5.389   1.367   4.180  0.8735 -0.6050 -0.3654
  184DOPC  H14X22678   5.280   1.378   4.161  0.6773  1.3108  1.5295
  184DOPC  H14Y22679   5.420   1.265   4.147  0.8351 -0.1935 -1.7325
  184DOPC  C31522680   5.422   1.377   4.322 -0.1302 -0.3234  0.2020
  184DOPC  H15X22681   5.402   1.482   4.352 -0.3577 -0.4903  0.6501
  184DOPC  H15Y22682   5.530   1.358   4.335 -0.4304 -0.4206  3.2349
  184DOPC  C31622683   5.346   1.272   4.402  0.5025  0.2817 -0.2837
  184DOPC  H16X22684   5.235   1.277   4.393  0.6090  0.6538 -1.5157
  184DOPC  H16Y22685   5.368   1.168   4.369  0.6705  0.3215 -0.2966
  184DOPC  C31722686   5.384   1.285   4.552 -0.4589 -0.6055 -0.3764
  184DOPC  H17X22687   5.494   1.272   4.545 -0.4863 -0.0669 -2.1651
  184DOPC  H17Y22688   5.379   1.390   4.589  2.0280 -1.6426  3.5838
  184DOPC  C31822689   5.315   1.196   4.654  0.3956 -0.1334  0.7187
  184DOPC  H18X22690   5.333   1.094   4.615  0.2952  0.2482 -0.3854
  184DOPC  H18Y22691   5.367   1.182   4.751  0.6794 -0.5418  0.5060
  184DOPC  H18Z22692   5.205   1.214   4.661  0.2940 -1.1244  1.9509
  185DOPC     N22693   0.735   6.057   2.398  0.5299  0.3038 -0.2739
  185DOPC   C1222694   0.758   5.983   2.531 -0.0564  0.0507  0.4068
  185DOPC  H12A22695   0.757   5.876   2.513  0.4152  0.1200 -0.0647
  185DOPC  H12B22696   0.673   5.993   2.596 -0.5128 -2.0812  0.2266
  185DOPC   C1322697   0.860   6.046   2.308 -0.3965 -0.7861 -0.7229
  185DOPC  H13A22698   0.871   5.950   2.259 -1.2383 -1.7499  0.8853
  185DOPC  H13B22699   0.859   6.123   2.232 -0.8361 -0.9379 -0.8760
  185DOPC  H13C22700   0.948   6.054   2.370 -1.4016  0.0774  0.6311
  185DOPC   C1422701   0.714   6.204   2.429 -0.1747 -0.5610 -0.0970
  185DOPC  H14A22702   0.647   6.224   2.511  0.8701 -1.7302  1.0893
  185DOPC  H14B22703   0.808   6.244   2.465  0.2837 -2.1716  0.5977
  185DOPC  H14C22704   0.702   6.268   2.343  1.7178 -1.1519 -0.8434
  185DOPC   C1522705   0.614   6.012   2.325  0.1733  0.4045  0.0416
  185DOPC  H15A22706   0.605   6.048   2.223 -0.1819  2.1839  0.6642
  185DOPC  H15B22707   0.518   6.031   2.371 -0.6891 -1.5771 -0.8157
  185DOPC  H15C22708   0.610   5.904   2.325 -2.5855  0.4231 -0.4288
  185DOPC   C1122709   0.878   6.017   2.614  0.3193 -0.5162  0.6873
  185DOPC  H11A22710   0.969   5.988   2.557  0.7082 -0.3254  1.2006
  185DOPC  H11B22711   0.877   6.128   2.621 -1.5938 -0.5027  0.5546
  185DOPC     P22712   0.768   6.012   2.841 -0.0041 -0.4012 -0.2512
  185DOPC   O1322713   0.643   5.931   2.832 -0.4313 -0.2395 -0.3354
  185DOPC   O1422714   0.743   6.162   2.835 -0.0473 -0.0703  0.2524
  185DOPC   O1222715   0.881   5.957   2.737  0.1439  0.0250 -0.1236
  185DOPC   O1122716   0.845   5.978   2.976 -0.0816  0.1833  0.5970
  185DOPC    C122717   0.855   5.835   2.995 -0.4823  0.0332  0.1753
  185DOPC    HA22718   0.952   5.816   3.046 -0.1973  3.2911  1.0556
  185DOPC    HB22719   0.865   5.774   2.902 -0.1961  0.3817 -0.0268
  185DOPC    C222720   0.754   5.770   3.098  0.1016 -0.2634  0.3226
  185DOPC    HS22721   0.656   5.792   3.050  0.2184  0.8111  0.5598
  185DOPC   O2122722   0.769   5.842   3.219 -0.2096  0.1532 -0.2258
  185DOPC   C2122723   0.653   5.867   3.280  0.2554 -0.6232  0.6307
  185DOPC   O2222724   0.540   5.836   3.243  0.2797  0.3833 -0.2921
  185DOPC   C2222725   0.693   5.914   3.423  0.4842 -0.8942 -0.2468
  185DOPC   H2R22726   0.714   6.023   3.418  0.2999 -0.8446  0.0488
  185DOPC   H2S22727   0.779   5.864   3.474 -0.2829 -1.3540  0.6223
  185DOPC    C322728   0.775   5.615   3.121 -0.0030  0.4466  0.0881
  185DOPC    HX22729   0.871   5.608   3.176  0.8300 -0.9361 -1.4835
  185DOPC    HY22730   0.796   5.563   3.025  0.0860 -0.0018  0.3478
  185DOPC   O3122731   0.664   5.569   3.195 -0.0564 -0.7236 -0.4589
  185DOPC   C3122732   0.564   5.531   3.129  0.2944  1.0092  0.3598
  185DOPC   O3222733   0.564   5.485   3.013 -0.1945 -0.3636  1.1940
  185DOPC   C3222734   0.443   5.529   3.219  0.1784 -0.2303 -0.3937
  185DOPC   H2X22735   0.452   5.602   3.302 -2.6571  0.4040 -0.5487
  185DOPC   H2Y22736   0.357   5.564   3.158 -0.3865  1.6514  1.3754
  185DOPC   C2322737   0.580   5.887   3.520  0.2976  0.4453 -0.0886
  185DOPC   H3R22738   0.548   5.781   3.522 -0.5303  0.6809 -0.2661
  185DOPC   H3S22739   0.485   5.939   3.493 -0.8739 -1.5240  0.0876
  185DOPC   C2422740   0.620   5.910   3.665  0.1759 -0.0652 -0.3478
  185DOPC   H4R22741   0.629   6.018   3.690 -0.0405  0.5573 -2.7026
  185DOPC   H4S22742   0.714   5.857   3.692  0.5781 -0.3640 -2.1843
  185DOPC   C2522743   0.520   5.839   3.766 -0.1501  0.2449  0.6655
  185DOPC   H5R22744   0.500   5.733   3.736 -1.5790  1.1473 -1.9002
  185DOPC   H5S22745   0.426   5.897   3.771 -0.7775 -0.7238  0.3171
  185DOPC   C2622746   0.579   5.837   3.905  0.2043  0.0574 -0.5567
  185DOPC   H6R22747   0.505   5.863   3.983  0.4339 -1.5345  0.2187
  185DOPC   H6S22748   0.656   5.918   3.909 -0.4462  0.7689 -1.8513
  185DOPC   C2722749   0.662   5.704   3.934 -0.5493 -0.9627  0.3682
  185DOPC   H7R22750   0.741   5.707   3.857 -0.9694  0.0104 -0.0434
  185DOPC   H7S22751   0.605   5.609   3.922  0.9190 -1.6151 -2.2343
  185DOPC   C2822752   0.727   5.709   4.070 -0.0036  0.0720  0.1164
  185DOPC   H8R22753   0.797   5.794   4.082 -0.8526  0.6880  0.8607
  185DOPC   H8S22754   0.792   5.619   4.080  1.2038  1.0138  1.1152
  185DOPC   C2922755   0.634   5.706   4.186 -0.3595 -1.1209 -0.2806
  185DOPC   H9R22756   0.531   5.699   4.147 -0.7970  1.1995  0.3223
  185DOPC  C21022757   0.666   5.729   4.317 -0.9339  0.3000 -0.0104
  185DOPC  H10R22758   0.584   5.745   4.388 -0.2472  2.2064  0.4094
  185DOPC  C21122759   0.811   5.753   4.357  0.3470 -0.4265  0.0840
  185DOPC  H11R22760   0.827   5.863   4.357  1.2320 -0.5452 -0.5881
  185DOPC  H11S22761   0.881   5.711   4.281  1.4199  1.9028 -0.2936
  185DOPC  C21222762   0.865   5.703   4.491  0.5324  0.5768  0.1181
  185DOPC  H12R22763   0.975   5.722   4.495  0.2877  2.5002 -0.9060
  185DOPC  H12S22764   0.846   5.594   4.491 -0.7746  0.7873 -0.0108
  185DOPC  C21322765   0.794   5.768   4.615 -0.7937  0.2244 -0.2519
  185DOPC  H13R22766   0.684   5.762   4.629 -0.9559  1.7010 -0.6465
  185DOPC  H13S22767   0.816   5.877   4.611 -2.4360  0.6409  0.9872
  185DOPC  C21422768   0.855   5.721   4.743 -0.1859 -0.2106  0.5163
  185DOPC  H14R22769   0.855   5.610   4.742 -0.6932 -0.2362 -1.9562
  185DOPC  H14S22770   0.779   5.738   4.823 -0.1122 -1.4040  0.8558
  185DOPC  C21522771   0.994   5.780   4.777  1.1193 -0.3217  0.0679
  185DOPC  H15R22772   0.994   5.883   4.734 -0.2364 -0.2699  0.1682
  185DOPC  H15S22773   1.067   5.718   4.721  0.5911  0.3058 -1.3387
  185DOPC  C21622774   1.017   5.797   4.924  0.6985  0.0291  0.0592
  185DOPC  H16R22775   0.939   5.866   4.960 -1.4612 -2.1883 -0.0681
  185DOPC  H16S22776   1.114   5.849   4.937  0.1262  1.2777 -0.5575
  185DOPC  C21722777   1.016   5.659   4.998 -0.0579 -0.1636 -0.9137
  185DOPC  H17R22778   0.914   5.623   4.972 -1.8620  1.9799  2.3477
  185DOPC  H17S22779   1.020   5.687   5.106  1.7345  0.1941 -1.0511
  185DOPC  C21822780   1.127   5.558   4.972 -0.3149 -0.0674 -0.2732
  185DOPC  H18R22781   1.110   5.501   4.878 -3.0451 -1.4748  0.9744
  185DOPC  H18S22782   1.137   5.484   5.055 -1.0702  0.9204  0.7224
  185DOPC  H18T22783   1.227   5.606   4.969 -0.4773  0.2365 -1.3356
  185DOPC   C3322784   0.418   5.394   3.295  0.0280 -0.0927  0.2156
  185DOPC   H3X22785   0.420   5.310   3.223  0.0310 -0.2640  0.4138
  185DOPC   H3Y22786   0.315   5.404   3.336  0.1136  1.0385  0.1751
  185DOPC   C3422787   0.526   5.366   3.396  0.2864 -1.3129  0.2652
  185DOPC   H4X22788   0.626   5.368   3.348  0.4452  0.8401  0.6053
  185DOPC   H4Y22789   0.512   5.260   3.427 -0.7361 -1.0131  0.8636
  185DOPC   C3522790   0.534   5.458   3.523 -0.5384  0.5091  0.0758
  185DOPC   H5X22791   0.428   5.470   3.555 -0.6484 -0.5938  0.1710
  185DOPC   H5Y22792   0.559   5.563   3.497 -2.3285  0.8310 -0.5306
  185DOPC   C3622793   0.617   5.399   3.640 -0.5186  0.0463 -0.1036
  185DOPC   H6X22794   0.580   5.455   3.729 -0.2615  0.1487 -0.0619
  185DOPC   H6Y22795   0.602   5.290   3.656  2.5031 -0.5686 -0.9047
  185DOPC   C3722796   0.769   5.414   3.616 -0.8388 -0.2851 -1.0802
  185DOPC   H7X22797   0.804   5.361   3.525  0.6753 -1.2436  0.0212
  185DOPC   H7Y22798   0.794   5.520   3.594  3.0904 -0.9625 -0.6512
  185DOPC   C3822799   0.851   5.354   3.735 -0.0064  0.7680  0.0038
  185DOPC   H8X22800   0.956   5.388   3.722  0.4162  1.5556  4.0979
  185DOPC   H8Y22801   0.842   5.245   3.721 -2.5365  0.8838  0.2485
  185DOPC   C3922802   0.817   5.394   3.872  0.1317  0.3776 -0.4460
  185DOPC   H9X22803   0.872   5.486   3.898  1.6202 -0.2645 -1.2294
  185DOPC  C31022804   0.755   5.331   3.976 -0.3754  1.2393 -0.0965
  185DOPC  H10X22805   0.711   5.397   4.053 -0.4128  1.7904 -0.5917
  185DOPC  C31122806   0.682   5.198   3.954 -0.2403 -0.0503 -0.2338
  185DOPC  H11X22807   0.650   5.197   3.848  0.4255  0.5117 -0.4505
  185DOPC  H11Y22808   0.596   5.179   4.022 -1.3640  0.5805 -1.4361
  185DOPC  C31222809   0.783   5.079   3.983 -0.1851  0.0453  0.9476
  185DOPC  H12X22810   0.873   5.099   3.920 -0.4314  2.1521  1.1880
  185DOPC  H12Y22811   0.731   4.996   3.931  0.1743 -0.8758  2.0346
  185DOPC  C31322812   0.815   5.021   4.123  0.0347 -0.5556  0.2315
  185DOPC  H13X22813   0.891   5.085   4.173 -0.5199 -0.2879  0.7399
  185DOPC  H13Y22814   0.730   5.018   4.194  1.5650  0.6641  2.2583
  185DOPC  C31422815   0.889   4.890   4.117  0.7033 -0.1230  0.5825
  185DOPC  H14X22816   0.891   4.863   4.225 -1.0266  1.5315  1.0756
  185DOPC  H14Y22817   0.826   4.823   4.054 -1.6495 -0.0654  2.7528
  185DOPC  C31522818   1.031   4.882   4.060 -0.4248  0.0884  0.4049
  185DOPC  H15X22819   1.095   4.948   4.122 -2.5881  1.8847  0.8522
  185DOPC  H15Y22820   1.019   4.920   3.957  0.4378  0.3817  0.4110
  185DOPC  C31622821   1.084   4.735   4.054 -0.0272 -0.1558  0.5917
  185DOPC  H16X22822   1.032   4.691   4.142  0.7287 -0.6079  0.8186
  185DOPC  H16Y22823   1.048   4.677   3.966  1.0147  0.6999 -0.4215
  185DOPC  C31722824   1.237   4.718   4.056  0.2046 -0.4280 -0.7711
  185DOPC  H17X22825   1.260   4.753   4.159 -2.0052 -2.4197  0.5178
  185DOPC  H17Y22826   1.263   4.610   4.062  1.0962 -0.1840 -0.1650
  185DOPC  C31822827   1.318   4.779   3.950  0.2069  0.1863  0.1121
  185DOPC  H18X22828   1.282   4.734   3.855 -0.6897  0.7480  0.1759
  185DOPC  H18Y22829   1.305   4.889   3.958  0.3046  0.1199  1.4391
  185DOPC  H18Z22830   1.425   4.757   3.969 -0.5382 -0.8067  4.3341
  186DOPC     N22831   7.319   1.075   3.267 -0.0260  0.2470 -0.3765
  186DOPC   C1222832   7.311   1.197   3.363  0.1711  0.2630 -0.2441
  186DOPC  H12A22833   7.336   1.161   3.462  3.5292  4.5450  0.8067
  186DOPC  H12B22834   7.210   1.234   3.370  0.7082  1.4961  2.1356
  186DOPC   C1322835   7.229   0.967   3.308 -0.2583 -0.4391  0.3189
  186DOPC  H13A22836   7.136   1.006   3.346 -1.2342 -1.3790 -1.0169
  186DOPC  H13B22837   7.202   0.906   3.223 -0.3666  2.9021 -2.2098
  186DOPC  H13C22838   7.272   0.894   3.376 -1.6519 -1.3730  0.2277
  186DOPC   C1422839   7.459   1.021   3.265 -0.0916 -0.2407 -0.2645
  186DOPC  H14A22840   7.527   1.073   3.199 -0.4478  0.3085 -0.2110
  186DOPC  H14B22841   7.502   1.030   3.364  0.9861  1.2280 -0.8240
  186DOPC  H14C22842   7.466   0.917   3.236  0.7531 -0.8035  1.7951
  186DOPC   C1522843   7.283   1.117   3.127 -0.8938 -0.0725 -0.0839
  186DOPC  H15A22844   7.325   1.212   3.096  0.2919 -0.4689  0.2824
  186DOPC  H15B22845   7.176   1.137   3.122 -0.4933  2.0523 -1.8371
  186DOPC  H15C22846   7.303   1.032   3.064 -1.2176  1.0179 -1.7360
  186DOPC   C1122847   7.393   1.320   3.331 -0.3567  0.8581 -0.4093
  186DOPC  H11A22848   7.394   1.382   3.423 -0.6158  1.2858 -0.6921
  186DOPC  H11B22849   7.494   1.279   3.307  0.7955  1.9053  2.2955
  186DOPC     P22850   7.262   1.524   3.235  0.2680  0.2955 -0.1623
  186DOPC   O1322851   7.119   1.491   3.244 -0.0867 -0.3849 -0.5371
  186DOPC   O1422852   7.302   1.624   3.138 -0.0494 -0.2382 -0.7846
  186DOPC   O1222853   7.349   1.399   3.216  0.5109  0.3396  0.4994
  186DOPC   O1122854   7.318   1.574   3.373 -0.0083  0.1189 -0.3608
  186DOPC    C122855   7.254   1.675   3.459  0.3091  0.6466  0.4605
  186DOPC    HA22856   7.279   1.655   3.565  0.1305  1.3123  0.6345
  186DOPC    HB22857   7.147   1.656   3.436  1.0065  0.1691 -2.8507
  186DOPC    C222858   7.295   1.815   3.425 -0.1326  0.1115 -0.5738
  186DOPC    HS22859   7.285   1.826   3.314  0.6350 -0.2942 -0.6914
  186DOPC   O2122860   7.429   1.826   3.469  0.5437 -0.2433 -0.2389
  186DOPC   C2122861   7.504   1.925   3.405 -0.2424  0.3026  0.2136
  186DOPC   O2222862   7.463   1.990   3.312 -0.3141 -0.4133  0.1250
  186DOPC   C2222863   7.636   1.931   3.478 -0.0252 -0.3689  0.1095
  186DOPC   H2R22864   7.711   1.911   3.398  0.3926  1.0082  0.1253
  186DOPC   H2S22865   7.652   1.843   3.543 -2.3820  0.4177  1.9189
  186DOPC    C322866   7.206   1.924   3.487 -0.2202 -0.0011  0.8186
  186DOPC    HX22867   7.110   1.912   3.432  1.5787 -1.6301 -2.2242
  186DOPC    HY22868   7.246   2.021   3.451 -2.5511  0.0765 -2.0106
  186DOPC   O3122869   7.186   1.899   3.633  0.0912  0.1278  0.1210
  186DOPC   C3122870   7.270   1.968   3.705  0.8583 -0.3372  0.7467
  186DOPC   O3222871   7.338   2.062   3.672  0.1898 -0.4043  0.1282
  186DOPC   C3222872   7.258   1.900   3.840  0.0371 -0.0611 -0.2121
  186DOPC   H2X22873   7.178   1.958   3.892  0.9923 -0.3639  1.7043
  186DOPC   H2Y22874   7.219   1.797   3.823 -0.6121  0.3282 -1.1658
  186DOPC   C2322875   7.678   2.061   3.556  0.2064  0.3684  0.5476
  186DOPC   H3R22876   7.596   2.090   3.625 -0.6823 -1.9801  0.5906
  186DOPC   H3S22877   7.685   2.136   3.475  2.6294 -1.9777 -1.6328
  186DOPC   C2422878   7.811   2.033   3.636 -0.2415 -0.5678  0.1869
  186DOPC   H4R22879   7.891   2.005   3.563 -2.2701 -2.1100 -1.5847
  186DOPC   H4S22880   7.795   1.950   3.708 -0.0624  0.0921  1.0028
  186DOPC   C2522881   7.850   2.155   3.719  0.1210  0.2458 -0.0042
  186DOPC   H5R22882   7.762   2.211   3.757 -0.5695 -1.7148  1.4341
  186DOPC   H5S22883   7.903   2.225   3.651 -1.4608  0.0154 -1.5720
  186DOPC   C2622884   7.936   2.113   3.842  0.8625  0.0815  0.6025
  186DOPC   H6R22885   7.867   2.068   3.917 -0.7989  0.9988 -0.2992
  186DOPC   H6S22886   7.975   2.207   3.887 -1.2912  1.5445 -0.3671
  186DOPC   C2722887   8.054   2.012   3.820 -0.1325  0.2565  0.4868
  186DOPC   H7R22888   8.010   1.920   3.775 -3.1171  0.7090  2.2217
  186DOPC   H7S22889   8.090   1.975   3.919 -2.7615 -0.0162  1.4080
  186DOPC   C2822890   8.175   2.064   3.746 -0.2474  0.7572  0.0788
  186DOPC   H8R22891   8.200   2.151   3.811 -0.2075 -1.1397  2.7732
  186DOPC   H8S22892   8.151   2.113   3.649  1.3182 -0.5328 -1.0157
  186DOPC   C2922893   8.283   1.958   3.729 -0.3021  0.4010  0.0592
  186DOPC   H9R22894   8.274   1.887   3.646 -0.3084  0.0668  0.3434
  186DOPC  C21022895   8.384   1.942   3.812  0.1913  0.0014  0.3060
  186DOPC  H10R22896   8.450   1.856   3.795  0.3865  0.0364  0.8591
  186DOPC  C21122897   8.408   2.023   3.935  0.7967 -0.7010 -0.0345
  186DOPC  H11R22898   8.314   2.020   3.995  1.6279 -1.5237  1.2556
  186DOPC  H11S22899   8.442   2.127   3.917  1.8321 -0.2425  3.6934
  186DOPC  C21222900   8.504   1.968   4.035 -0.1984  0.3622  0.4707
  186DOPC  H12R22901   8.599   1.936   3.988 -0.9867 -0.6443 -0.5026
  186DOPC  H12S22902   8.462   1.874   4.077 -1.6587  0.1311 -1.3919
  186DOPC  C21322903   8.512   2.064   4.159 -0.3671 -0.0110 -0.6299
  186DOPC  H13R22904   8.413   2.109   4.178 -0.1777 -0.2993  1.2898
  186DOPC  H13S22905   8.591   2.140   4.143  0.5428 -0.9978 -1.0259
  186DOPC  C21422906   8.569   1.995   4.286 -0.4906  0.3960  0.4814
  186DOPC  H14R22907   8.649   1.927   4.250  0.2031  1.0827  0.7014
  186DOPC  H14S22908   8.493   1.922   4.321 -0.1649 -0.6214 -0.8138
  186DOPC  C21522909   8.619   2.092   4.392  0.2712  0.3353  0.4573
  186DOPC  H15R22910   8.690   2.158   4.338 -1.8485  2.7656  0.4314
  186DOPC  H15S22911   8.680   2.031   4.461 -0.8904 -2.0565 -0.5142
  186DOPC  C21622912   8.505   2.166   4.458  0.1833 -0.7491 -0.2559
  186DOPC  H16R22913   8.439   2.084   4.494 -1.1464 -0.7758 -2.5312
  186DOPC  H16S22914   8.440   2.213   4.381  0.0414 -1.5122 -0.6113
  186DOPC  C21722915   8.547   2.268   4.574 -0.1804  0.1653  0.1643
  186DOPC  H17R22916   8.456   2.315   4.616  0.3140 -0.4206  1.9540
  186DOPC  H17S22917   8.618   2.339   4.526  1.0138 -1.0247  0.0984
  186DOPC  C21822918   8.608   2.186   4.686  0.1158  0.3202  0.0720
  186DOPC  H18R22919   8.527   2.128   4.735 -0.3644 -0.7835 -1.8939
  186DOPC  H18S22920   8.649   2.255   4.762  0.0436  1.4631 -0.8917
  186DOPC  H18T22921   8.682   2.115   4.644 -1.1072  0.0729 -1.8395
  186DOPC   C3322922   7.388   1.905   3.923 -0.5239 -0.2264  0.5565
  186DOPC   H3X22923   7.380   1.847   4.018  0.7508 -0.2258  0.6835
  186DOPC   H3Y22924   7.427   2.008   3.933  1.1616 -0.9668  2.3331
  186DOPC   C3422925   7.496   1.812   3.857 -0.3908  0.1303 -0.2347
  186DOPC   H4X22926   7.503   1.853   3.753  2.4085  0.1410 -0.1017
  186DOPC   H4Y22927   7.470   1.705   3.848  2.9016 -0.6114 -2.6350
  186DOPC   C3522928   7.640   1.812   3.924  0.0909 -0.6643 -0.7889
  186DOPC   H5X22929   7.677   1.916   3.922  1.6835 -1.2099 -2.7210
  186DOPC   H5Y22930   7.709   1.748   3.865  2.0721 -1.9876  2.6449
  186DOPC   C3622931   7.657   1.758   4.070  0.5133  0.5671 -0.0087
  186DOPC   H6X22932   7.654   1.836   4.148  2.3266  0.3647  0.2900
  186DOPC   H6Y22933   7.572   1.689   4.090 -0.1869  1.4558  0.1190
  186DOPC   C3722934   7.787   1.669   4.084  0.4164  0.7280 -0.2113
  186DOPC   H7X22935   7.784   1.585   4.011  2.3441  0.4391 -0.0278
  186DOPC   H7Y22936   7.881   1.724   4.064  2.6654 -2.3015  1.1275
  186DOPC   C3822937   7.811   1.612   4.227 -0.3737  1.0428 -0.0754
  186DOPC   H8X22938   7.900   1.546   4.224  0.3130  1.9602 -0.3757
  186DOPC   H8Y22939   7.724   1.550   4.258 -1.3765  2.5187  0.1668
  186DOPC   C3922940   7.848   1.712   4.332 -0.2409 -0.5142  0.1302
  186DOPC   H9X22941   7.952   1.745   4.348 -0.4543  1.2767 -1.7228
  186DOPC  C31022942   7.763   1.753   4.430 -0.0601  0.1889 -0.7160
  186DOPC  H10X22943   7.808   1.830   4.495  1.0176 -3.2762  3.0350
  186DOPC  C31122944   7.632   1.711   4.465  0.2107 -0.8531  0.6584
  186DOPC  H11X22945   7.602   1.609   4.434  0.3876 -0.3068 -1.4473
  186DOPC  H11Y22946   7.557   1.783   4.426 -0.7508 -1.6384  1.0076
  186DOPC  C31222947   7.608   1.734   4.618  0.7340  0.5224 -0.5492
  186DOPC  H12X22948   7.498   1.737   4.638  0.6985 -0.9047 -0.4815
  186DOPC  H12Y22949   7.651   1.828   4.659  0.6597 -0.1522  1.1441
  186DOPC  C31322950   7.670   1.620   4.703  0.2126 -0.1404  0.2602
  186DOPC  H13X22951   7.670   1.523   4.648  2.8729 -1.9276  3.0834
  186DOPC  H13Y22952   7.779   1.637   4.717  0.3031  0.2126 -0.7887
  186DOPC  C31422953   7.610   1.588   4.838 -0.4122  0.2538  0.0953
  186DOPC  H14X22954   7.608   1.679   4.902  1.3008 -0.2217  0.8568
  186DOPC  H14Y22955   7.512   1.546   4.806  0.0135  0.1590 -1.1346
  186DOPC  C31522956   7.698   1.480   4.909  0.0406 -0.1375 -0.3526
  186DOPC  H15X22957   7.802   1.518   4.903 -0.1638  0.2925 -1.7206
  186DOPC  H15Y22958   7.701   1.394   4.839  1.5300  0.1641 -0.6874
  186DOPC  C31622959   7.649   1.463   5.056 -0.0378  0.2535  0.0208
  186DOPC  H16X22960   7.620   1.563   5.095 -1.4880 -0.3645  0.6304
  186DOPC  H16Y22961   7.564   1.392   5.065 -1.3508  1.3278 -2.8173
  186DOPC  C31722962   7.766   1.408   5.150 -0.0646 -0.4191  0.2295
  186DOPC  H17X22963   7.804   1.307   5.121  2.1892  0.1063  1.1823
  186DOPC  H17Y22964   7.851   1.477   5.134  0.3350 -0.3713  2.2964
  186DOPC  C31822965   7.745   1.415   5.303  0.5202  0.7699 -0.2165
  186DOPC  H18X22966   7.637   1.422   5.327  0.6954  0.3219  0.7624
  186DOPC  H18Y22967   7.779   1.328   5.364 -0.7198 -0.1513 -0.7910
  186DOPC  H18Z22968   7.784   1.507   5.351  3.0424 -0.5971  0.5714
  187DOPC     N22969   0.310   0.783   2.774  0.4204  0.2915  0.0839
  187DOPC   C1222970   0.164   0.827   2.756 -0.4128 -0.0329 -0.3187
  187DOPC  H12A22971   0.155   0.851   2.651  0.5001  0.9196 -0.1879
  187DOPC  H12B22972   0.148   0.922   2.804  0.6682  0.6972 -1.3571
  187DOPC   C1322973   0.349   0.785   2.912 -0.0345  0.3582  0.1169
  187DOPC  H13A22974   0.286   0.718   2.969  0.4187 -0.0736  0.1175
  187DOPC  H13B22975   0.455   0.769   2.927  0.0367  1.9018  1.6737
  187DOPC  H13C22976   0.330   0.886   2.946  2.9056  1.5118 -1.2776
  187DOPC   C1422977   0.403   0.872   2.703 -0.3574 -0.7140 -0.2205
  187DOPC  H14A22978   0.497   0.825   2.681 -0.2774 -0.3204 -0.7318
  187DOPC  H14B22979   0.363   0.908   2.609 -3.3972  2.1244  1.9249
  187DOPC  H14C22980   0.433   0.962   2.753 -1.5922  1.8316 -3.6615
  187DOPC   C1522981   0.323   0.641   2.718 -0.1492 -0.2361 -0.2187
  187DOPC  H15A22982   0.297   0.643   2.613  1.1825  0.6292 -0.5635
  187DOPC  H15B22983   0.267   0.575   2.783  0.9815  1.8194  3.0528
  187DOPC  H15C22984   0.426   0.610   2.718 -0.7195 -2.2699 -0.3071
  187DOPC   C1122985   0.054   0.723   2.790 -0.0667 -0.0292  0.3466
  187DOPC  H11A22986  -0.041   0.774   2.765  0.4784  1.4796  1.2331
  187DOPC  H11B22987   0.074   0.634   2.726 -0.0673  1.1526 -1.3600
  187DOPC     P22988  -0.029   0.578   3.003 -0.4592  0.2865  0.2581
  187DOPC   O1322989  -0.021   0.459   2.919  0.1967  0.0727  0.8188
  187DOPC   O1422990  -0.162   0.641   3.025  0.0738  0.2575  0.0780
  187DOPC   O1222991   0.063   0.694   2.930  0.5052 -0.0978  0.1918
  187DOPC   O1122992   0.045   0.551   3.140  0.2369  0.2158  0.2348
  187DOPC    C122993   0.125   0.656   3.198 -1.0552 -0.4045  0.6953
  187DOPC    HA22994   0.077   0.754   3.220  0.5088  1.3668 -2.9728
  187DOPC    HB22995   0.210   0.685   3.134 -1.6205 -1.0428 -0.3708
  187DOPC    C222996   0.177   0.603   3.334  0.1608 -0.5707 -0.2765
  187DOPC    HS22997   0.217   0.504   3.301  1.9569 -0.2046  0.6596
  187DOPC   O2122998   0.065   0.584   3.426  0.1880 -0.3410  0.2449
  187DOPC   C2122999   0.087   0.483   3.515  0.1908 -0.5569  0.3450
  187DOPC   O2223000   0.183   0.409   3.512  0.5586  0.1729  0.6887
  187DOPC   C2223001  -0.018   0.489   3.632 -0.0725  0.5359  0.6768
  187DOPC   H2R23002  -0.061   0.387   3.632 -2.1295  1.3096 -1.8954
  187DOPC   H2S23003  -0.098   0.563   3.613 -1.0069 -0.9880 -1.8536
  187DOPC    C323004   0.297   0.683   3.398 -0.0048  0.5279 -0.5073
  187DOPC    HX23005   0.362   0.709   3.312 -1.2082 -0.2397 -1.6774
  187DOPC    HY23006   0.338   0.603   3.463  0.2181  3.1019  2.7899
  187DOPC   O3123007   0.253   0.788   3.478  0.8166 -0.1436  0.6357
  187DOPC   C3123008   0.351   0.869   3.512 -0.0080  0.1158 -0.6123
  187DOPC   O3223009   0.463   0.863   3.464  0.2239 -0.5058 -0.5497
  187DOPC   C3223010   0.308   0.962   3.626  0.0627  0.2610  0.4166
  187DOPC   H2X23011   0.367   1.054   3.603  1.1223 -0.8677 -1.6339
  187DOPC   H2Y23012   0.198   0.980   3.626 -0.2798 -1.3531  2.9081
  187DOPC   C2323013   0.035   0.523   3.769  0.2381  0.5627 -0.5923
  187DOPC   H3R23014   0.102   0.611   3.771 -0.0562  0.7817  1.2985
  187DOPC   H3S23015   0.100   0.438   3.800 -0.7467 -1.2115 -3.0030
  187DOPC   C2423016  -0.075   0.540   3.872 -0.3733  0.6028 -0.0235
  187DOPC   H4R23017  -0.145   0.616   3.832  0.7834  0.6360 -2.1331
  187DOPC   H4S23018  -0.026   0.586   3.960 -1.2158  0.9284  0.2825
  187DOPC   C2523019  -0.154   0.406   3.908 -0.8005 -0.1594  0.2304
  187DOPC   H5R23020  -0.075   0.330   3.924  2.1481  2.2759 -1.4553
  187DOPC   H5S23021  -0.223   0.379   3.825  0.3096  0.2633 -0.8709
  187DOPC   C2623022  -0.244   0.425   4.032  0.6695 -0.0549  0.0916
  187DOPC   H6R23023  -0.276   0.323   4.062  3.6854 -1.2276 -0.3402
  187DOPC   H6S23024  -0.338   0.484   4.026  0.5792  0.3621  3.3774
  187DOPC   C2723025  -0.161   0.459   4.154 -0.4246 -0.5836 -0.2671
  187DOPC   H7R23026  -0.170   0.568   4.176 -1.0362 -1.3524  4.2347
  187DOPC   H7S23027  -0.053   0.432   4.145 -0.1794  0.0566  0.6403
  187DOPC   C2823028  -0.198   0.375   4.280 -0.0202 -0.6084  0.4026
  187DOPC   H8R23029  -0.123   0.395   4.360 -0.7302  1.6030  0.5928
  187DOPC   H8S23030  -0.196   0.266   4.259  3.2476 -0.4273 -0.9372
  187DOPC   C2923031  -0.338   0.401   4.327  0.1472 -0.1668  0.1949
  187DOPC   H9R23032  -0.411   0.432   4.251  0.4506  2.0006  0.6936
  187DOPC  C21023033  -0.385   0.385   4.454  0.2152  0.1394  0.2634
  187DOPC  H10R23034  -0.492   0.401   4.474  0.5203  0.6903  1.5996
  187DOPC  C21123035  -0.305   0.356   4.580 -0.1095  0.5388  1.2765
  187DOPC  H11R23036  -0.200   0.381   4.556 -0.8096  0.4223 -2.4851
  187DOPC  H11S23037  -0.321   0.246   4.593 -2.0577  0.8759  2.1003
  187DOPC  C21223038  -0.345   0.437   4.705 -0.1985 -0.2272  0.7340
  187DOPC  H12R23039  -0.452   0.415   4.721 -0.5211  0.2435 -0.6160
  187DOPC  H12S23040  -0.331   0.542   4.671 -0.2156 -0.8748 -1.4413
  187DOPC  C21323041  -0.253   0.420   4.823 -0.6659 -0.1177  0.0214
  187DOPC  H13R23042  -0.154   0.465   4.802 -1.0290 -0.0363 -1.5955
  187DOPC  H13S23043  -0.237   0.314   4.853 -0.1536  0.0238  0.2589
  187DOPC  C21423044  -0.300   0.490   4.957  0.1212 -0.0758 -0.0261
  187DOPC  H14R23045  -0.402   0.451   4.979 -0.1436  0.7089  0.1635
  187DOPC  H14S23046  -0.301   0.601   4.958 -0.6562 -0.0274  3.1883
  187DOPC  C21523047  -0.206   0.465   5.082 -0.0276  0.0284 -0.0895
  187DOPC  H15R23048  -0.240   0.519   5.173 -2.5452 -1.1045 -0.2701
  187DOPC  H15S23049  -0.105   0.500   5.055 -0.9641  1.3767 -2.1104
  187DOPC  C21623050  -0.182   0.320   5.124 -0.4972  0.7766 -0.0557
  187DOPC  H16R23051  -0.099   0.317   5.198 -1.3897 -2.5187  0.9647
  187DOPC  H16S23052  -0.151   0.264   5.033 -1.0389 -0.4105  0.4708
  187DOPC  C21723053  -0.298   0.248   5.201  0.5298 -0.1195  0.6326
  187DOPC  H17R23054  -0.382   0.229   5.132  0.2136 -0.3958  1.0859
  187DOPC  H17S23055  -0.327   0.317   5.283  0.9594  2.8229 -1.5625
  187DOPC  C21823056  -0.262   0.116   5.259  0.4645  0.2303 -0.3706
  187DOPC  H18R23057  -0.248   0.123   5.369  0.7765  2.1150 -0.5084
  187DOPC  H18S23058  -0.162   0.088   5.220  0.4661  1.2413 -1.1104
  187DOPC  H18T23059  -0.343   0.040   5.248  0.2884  0.4793 -0.8039
  187DOPC   C3323060   0.376   0.914   3.757 -0.1100  0.1422 -0.1272
  187DOPC   H3X23061   0.356   0.992   3.833  2.0259  0.0979  0.5512
  187DOPC   H3Y23062   0.487   0.905   3.765 -0.0322  2.3380  3.0758
  187DOPC   C3423063   0.335   0.781   3.816  0.3629  0.3479  0.0963
  187DOPC   H4X23064   0.387   0.700   3.760 -2.2353 -1.2194 -0.1864
  187DOPC   H4Y23065   0.230   0.758   3.788 -0.1885  1.8114  0.8815
  187DOPC   C3523066   0.353   0.777   3.970 -0.5692  0.1419 -0.2474
  187DOPC   H5X23067   0.293   0.859   4.014  0.4644  0.8501 -0.1254
  187DOPC   H5Y23068   0.464   0.783   3.977 -0.6573  0.3838  1.1534
  187DOPC   C3623069   0.326   0.637   4.037 -0.0084  0.0596 -0.3145
  187DOPC   H6X23070   0.342   0.645   4.147 -1.0380  0.1664 -0.1544
  187DOPC   H6Y23071   0.219   0.613   4.018 -0.3464 -0.4524  1.9250
  187DOPC   C3723072   0.413   0.527   3.981 -0.0236 -0.0832  0.7944
  187DOPC   H7X23073   0.373   0.514   3.879  1.5863  0.6600  0.0403
  187DOPC   H7Y23074   0.520   0.552   3.969 -0.3483  0.5508 -1.0513
  187DOPC   C3823075   0.427   0.398   4.067 -0.0452  0.7311 -0.0276
  187DOPC   H8X23076   0.480   0.412   4.163  0.6485  0.0985 -0.3096
  187DOPC   H8Y23077   0.492   0.333   4.004 -0.0849 -0.8785  1.5243
  187DOPC   C3923078   0.296   0.327   4.091  0.1273 -0.4431 -0.3367
  187DOPC   H9X23079   0.233   0.314   4.002 -0.7189  2.3396 -0.2391
  187DOPC  C31023080   0.239   0.287   4.207 -0.5023 -0.1466 -0.0871
  187DOPC  H10X23081   0.135   0.252   4.206 -1.5759  2.6284 -2.5919
  187DOPC  C31123082   0.296   0.313   4.346  0.2276 -0.6598 -0.1560
  187DOPC  H11X23083   0.401   0.347   4.351  0.6125 -1.9377  1.3013
  187DOPC  H11Y23084   0.292   0.217   4.401  1.0787 -0.3249  0.5132
  187DOPC  C31223085   0.219   0.423   4.418 -0.3601  0.4492 -0.2965
  187DOPC  H12X23086   0.114   0.385   4.426  0.5506 -1.8778  1.6369
  187DOPC  H12Y23087   0.216   0.518   4.361 -1.1546 -0.1866 -1.3797
  187DOPC  C31323088   0.263   0.428   4.565  0.7657  0.2671  0.3048
  187DOPC  H13X23089   0.275   0.322   4.595  1.4175  0.1372 -0.3865
  187DOPC  H13Y23090   0.364   0.474   4.561  1.0163  0.0572  2.7289
  187DOPC  C31423091   0.177   0.509   4.660 -0.2934  0.0401 -0.4002
  187DOPC  H14X23092   0.173   0.609   4.614  1.4610 -0.7570 -2.4243
  187DOPC  H14Y23093   0.074   0.465   4.658  0.0465 -0.7640 -0.7336
  187DOPC  C31523094   0.226   0.522   4.807  0.3647  0.4649 -1.0297
  187DOPC  H15X23095   0.328   0.566   4.801  0.4931  0.1411 -1.2601
  187DOPC  H15Y23096   0.231   0.419   4.849  1.2350  0.2837 -1.5473
  187DOPC  C31623097   0.124   0.602   4.887 -0.7399  0.3296  0.2326
  187DOPC  H16X23098   0.091   0.695   4.836 -0.7071  0.6402  0.7739
  187DOPC  H16Y23099   0.032   0.538   4.883 -1.9385  2.0016  0.1915
  187DOPC  C31723100   0.172   0.647   5.025  0.2406  0.2523  0.0383
  187DOPC  H17X23101   0.275   0.684   5.002  1.1931 -2.0355  0.4048
  187DOPC  H17Y23102   0.115   0.734   5.065  0.7309  0.5056  0.2027
  187DOPC  C31823103   0.186   0.531   5.120 -0.0776  0.2020 -0.0570
  187DOPC  H18X23104   0.250   0.446   5.087 -0.5176 -0.4766  0.7791
  187DOPC  H18Y23105   0.208   0.563   5.224 -3.2780 -1.7601  1.3887
  187DOPC  H18Z23106   0.087   0.479   5.123  1.2061 -2.4456 -0.6672
  188DOPC     N23107   1.989   0.636   2.956  0.3335  0.3169  0.6323
  188DOPC   C1223108   2.115   0.553   2.954 -0.1133  0.5798  0.1976
  188DOPC  H12A23109   2.193   0.627   2.967 -0.1936  0.7396 -0.2145
  188DOPC  H12B23110   2.125   0.506   2.857 -1.8063 -0.7398  0.6089
  188DOPC   C1323111   1.993   0.757   2.866  0.3258  0.3497  0.1002
  188DOPC  H13A23112   2.051   0.838   2.906 -2.6018  1.0689  3.3921
  188DOPC  H13B23113   2.044   0.735   2.774  1.9364  1.5353  0.6718
  188DOPC  H13C23114   1.893   0.787   2.838 -1.0513 -3.0898  0.7133
  188DOPC   C1423115   1.953   0.673   3.095 -0.1357 -0.1265 -0.1877
  188DOPC  H14A23116   1.925   0.584   3.150  2.8286 -0.5754  0.7240
  188DOPC  H14B23117   2.033   0.719   3.149 -1.6509  0.5190  1.6157
  188DOPC  H14C23118   1.869   0.740   3.085  0.2508  0.7686  2.0892
  188DOPC   C1523119   1.879   0.550   2.899  0.6641 -0.5615 -0.3634
  188DOPC  H15A23120   1.868   0.451   2.940  1.8157 -0.1017  1.1271
  188DOPC  H15B23121   1.892   0.514   2.798 -0.4334  1.3077 -1.2370
  188DOPC  H15C23122   1.782   0.598   2.908  0.8146 -0.2848 -0.1855
  188DOPC   C1123123   2.139   0.441   3.064  1.0110  0.3339 -0.7374
  188DOPC  H11A23124   2.244   0.409   3.045  0.7316 -2.1352  1.3398
  188DOPC  H11B23125   2.122   0.487   3.164 -0.4988 -0.3167 -0.6671
  188DOPC     P23126   2.101   0.200   2.971  0.2398 -0.3360 -0.3812
  188DOPC   O1323127   2.181   0.220   2.851 -0.6835  0.0014 -0.1557
  188DOPC   O1423128   1.983   0.112   2.957 -0.7128  0.5752 -0.1660
  188DOPC   O1223129   2.053   0.334   3.040 -0.5914 -0.3246 -0.0204
  188DOPC   O1123130   2.200   0.135   3.072  0.5593  0.4316  0.2461
  188DOPC    C123131   2.163   0.090   3.202  0.2720 -0.1274  0.0199
  188DOPC    HA23132   2.214  -0.003   3.235  0.3191 -0.8122 -1.8940
  188DOPC    HB23133   2.055   0.065   3.208 -0.4393  2.8381  1.5267
  188DOPC    C223134   2.203   0.196   3.301  0.1229  0.3233 -0.8451
  188DOPC    HS23135   2.158   0.293   3.272  0.8768  1.1601  0.7044
  188DOPC   O2123136   2.347   0.199   3.317  0.4397 -0.0376 -0.1476
  188DOPC   C2123137   2.400   0.312   3.366  0.1145  0.3093 -0.5933
  188DOPC   O2223138   2.344   0.413   3.380 -0.3329 -0.5798 -0.2709
  188DOPC   C2223139   2.540   0.282   3.402 -0.3492 -0.0560  0.1301
  188DOPC   H2R23140   2.603   0.371   3.381 -0.0987 -0.6519 -1.8901
  188DOPC   H2S23141   2.587   0.196   3.349 -1.3512 -0.3304 -0.3359
  188DOPC    C323142   2.146   0.165   3.444  0.3136  0.0596  0.2096
  188DOPC    HX23143   2.191   0.078   3.496 -1.1431 -2.5377 -2.6007
  188DOPC    HY23144   2.046   0.125   3.416  1.9245 -2.8586 -1.7284
  188DOPC   O3123145   2.148   0.290   3.526 -0.2263  0.4820 -0.4310
  188DOPC   C3123146   2.040   0.364   3.515  0.0084 -0.1514 -0.1491
  188DOPC   O3223147   1.946   0.344   3.434  0.0563  0.2643 -0.2075
  188DOPC   C3223148   2.034   0.475   3.623  0.0108  0.0900 -0.0946
  188DOPC   H2X23149   1.976   0.557   3.576  1.5665  0.9487 -0.6043
  188DOPC   H2Y23150   1.987   0.421   3.708  0.4246  0.7034  0.5347
  188DOPC   C2323151   2.565   0.229   3.543  0.5957  0.2453  0.4131
  188DOPC   H3R23152   2.671   0.196   3.547  0.5183 -0.0107  0.3867
  188DOPC   H3S23153   2.508   0.134   3.551 -1.4356  1.4949  1.7959
  188DOPC   C2423154   2.528   0.313   3.668 -0.0694  0.0067  0.2797
  188DOPC   H4R23155   2.433   0.361   3.634  1.0538  0.4220 -2.5102
  188DOPC   H4S23156   2.604   0.393   3.680  1.0948 -0.8524 -1.0042
  188DOPC   C2523157   2.512   0.225   3.797 -0.6095  0.1892  0.7620
  188DOPC   H5R23158   2.608   0.168   3.797 -0.4577  0.3636  2.7570
  188DOPC   H5S23159   2.426   0.155   3.789 -0.9202  0.6822 -0.2310
  188DOPC   C2623160   2.519   0.306   3.924 -0.0180  0.2101 -0.2193
  188DOPC   H6R23161   2.430   0.372   3.927 -0.8126 -0.8470  0.3513
  188DOPC   H6S23162   2.610   0.367   3.945  0.6236 -0.8548  0.2031
  188DOPC   C2723163   2.508   0.209   4.049 -0.4706 -0.6994 -1.1913
  188DOPC   H7R23164   2.595   0.140   4.046 -1.3714 -1.8982 -0.6138
  188DOPC   H7S23165   2.415   0.149   4.055 -0.1422 -1.0964  0.5486
  188DOPC   C2823166   2.507   0.277   4.185  0.1516 -0.0617 -0.4890
  188DOPC   H8R23167   2.608   0.323   4.185 -1.1008  3.1388 -3.6290
  188DOPC   H8S23168   2.509   0.193   4.258  0.5260  0.4903  0.1540
  188DOPC   C2923169   2.396   0.379   4.195  0.6650  0.0566 -0.0652
  188DOPC   H9R23170   2.349   0.413   4.102  0.8833 -1.1390 -0.6263
  188DOPC  C21023171   2.366   0.419   4.321  0.0271  0.5063  0.3149
  188DOPC  H10R23172   2.290   0.498   4.323 -0.5036  0.0971 -1.5226
  188DOPC  C21123173   2.413   0.360   4.451 -0.1508 -0.2813  0.2707
  188DOPC  H11R23174   2.421   0.440   4.527 -3.9307 -0.6936  1.2923
  188DOPC  H11S23175   2.507   0.302   4.452 -0.2257 -0.4014  0.3961
  188DOPC  C21223176   2.299   0.270   4.499 -0.0942 -0.4596 -0.4675
  188DOPC  H12R23177   2.304   0.171   4.448 -2.4683 -0.3434 -1.0621
  188DOPC  H12S23178   2.201   0.321   4.486  0.4763  0.9135  0.4473
  188DOPC  C21323179   2.307   0.242   4.652 -0.2788  0.0674 -0.2268
  188DOPC  H13R23180   2.264   0.325   4.712 -2.7861 -1.0994 -0.2971
  188DOPC  H13S23181   2.415   0.238   4.677 -0.5195  0.7718  1.0184
  188DOPC  C21423182   2.241   0.104   4.692 -0.5696  0.0625 -0.1227
  188DOPC  H14R23183   2.265   0.093   4.800 -0.8774  2.2701  0.2097
  188DOPC  H14S23184   2.301   0.029   4.636 -0.3472  0.0792  0.0902
  188DOPC  C21523185   2.091   0.084   4.670 -0.2607  0.6177 -0.1306
  188DOPC  H15R23186   2.072   0.134   4.573  1.3918  0.3019 -0.6490
  188DOPC  H15S23187   2.027   0.145   4.738 -2.3214 -1.7294  0.1738
  188DOPC  C21623188   2.049  -0.067   4.680 -0.1255 -0.0805 -0.4709
  188DOPC  H16R23189   2.082  -0.116   4.774 -0.6065 -0.3229 -0.4265
  188DOPC  H16S23190   2.096  -0.125   4.598 -0.5410 -1.9431  0.5469
  188DOPC  C21723191   1.899  -0.088   4.674  0.3723  0.3400  0.5416
  188DOPC  H17R23192   1.844  -0.071   4.769 -0.0021  0.2510  0.3430
  188DOPC  H17S23193   1.883  -0.195   4.650  0.5635 -0.0369  2.0345
  188DOPC  C21823194   1.833  -0.000   4.565  0.3533 -0.3268  0.3958
  188DOPC  H18R23195   1.727  -0.032   4.558 -0.0283  1.3111 -3.3978
  188DOPC  H18S23196   1.864  -0.008   4.459  1.2996 -2.4366  0.7691
  188DOPC  H18T23197   1.820   0.106   4.597 -3.1314 -0.5788  0.1344
  188DOPC   C3323198   2.177   0.519   3.668  0.6322  0.1204 -0.4924
  188DOPC   H3X23199   2.222   0.568   3.579  0.2745 -0.4921 -1.0165
  188DOPC   H3Y23200   2.232   0.429   3.703 -0.5260 -1.3354 -2.2431
  188DOPC   C3423201   2.177   0.629   3.773 -0.1023  1.5120  0.0396
  188DOPC   H4X23202   2.113   0.712   3.738 -0.6325  1.6156  1.2037
  188DOPC   H4Y23203   2.283   0.662   3.771  0.3302  0.1697 -1.4261
  188DOPC   C3523204   2.126   0.583   3.911 -0.0660  0.0472  0.2722
  188DOPC   H5X23205   2.206   0.512   3.941  1.4935  1.2819 -0.7445
  188DOPC   H5Y23206   2.023   0.543   3.903 -0.5200  0.9141  1.4898
  188DOPC   C3623207   2.121   0.694   4.011 -0.2390 -0.2959 -0.1599
  188DOPC   H6X23208   2.222   0.737   4.024  0.2798 -0.3164 -3.2257
  188DOPC   H6Y23209   2.061   0.776   3.964 -1.3382 -1.5110 -0.9413
  188DOPC   C3723210   2.056   0.651   4.138 -0.4366 -0.8212  0.2198
  188DOPC   H7X23211   1.957   0.613   4.104  1.4097 -4.0368 -2.2136
  188DOPC   H7Y23212   2.112   0.564   4.178 -1.4397 -1.1240  0.9922
  188DOPC   C3823213   2.070   0.750   4.253  0.1388  0.2393  0.0806
  188DOPC   H8X23214   1.995   0.705   4.321 -2.6231 -2.3563 -4.1984
  188DOPC   H8Y23215   2.025   0.847   4.223 -2.5840 -0.0936  2.5521
  188DOPC   C3923216   2.208   0.767   4.305 -0.2979 -0.1670  0.1833
  188DOPC   H9X23217   2.287   0.767   4.227 -0.6646  0.6442 -0.2041
  188DOPC  C31023218   2.241   0.772   4.437  0.2839  0.8934 -0.0351
  188DOPC  H10X23219   2.345   0.805   4.454  1.1560 -0.7838 -1.7432
  188DOPC  C31123220   2.147   0.758   4.561  0.2906 -0.2860  0.7304
  188DOPC  H11X23221   2.042   0.753   4.526  0.5271  0.4389 -0.1031
  188DOPC  H11Y23222   2.139   0.853   4.619 -0.6230  0.1434 -0.0811
  188DOPC  C31223223   2.166   0.636   4.647  0.3817  0.0541 -0.1398
  188DOPC  H12X23224   2.275   0.636   4.667  0.4199 -0.9985 -0.2909
  188DOPC  H12Y23225   2.156   0.553   4.573  1.2373  0.3970 -0.6544
  188DOPC  C31323226   2.065   0.613   4.758  0.5412  0.0038  0.4634
  188DOPC  H13X23227   1.966   0.654   4.728  1.2742  0.8481 -0.9578
  188DOPC  H13Y23228   2.058   0.504   4.774  0.3026  0.0379  0.5982
  188DOPC  C31423229   2.125   0.676   4.881  0.3284 -0.2471 -0.0539
  188DOPC  H14X23230   2.217   0.624   4.915  1.1091  0.2317 -1.3692
  188DOPC  H14Y23231   2.144   0.781   4.848 -0.4326  0.4563  1.6089
  188DOPC  C31523232   2.029   0.666   5.002  0.5996  0.5698 -0.2456
  188DOPC  H15X23233   1.996   0.560   5.011 -1.9206  1.2450 -0.5705
  188DOPC  H15Y23234   1.932   0.716   4.982 -0.1928 -1.4045 -1.7027
  188DOPC  C31623235   2.093   0.716   5.129  0.0405 -1.0841 -1.0856
  188DOPC  H16X23236   2.197   0.677   5.140  0.5887  0.7121  0.6369
  188DOPC  H16Y23237   2.095   0.827   5.127  0.8929 -1.0798 -0.4497
  188DOPC  C31723238   2.012   0.674   5.254  0.2881  0.9746 -0.2706
  188DOPC  H17X23239   2.053   0.735   5.338 -0.0628  0.6132  0.1665
  188DOPC  H17Y23240   1.905   0.703   5.247 -0.0670 -0.6709 -2.7904
  188DOPC  C31823241   2.007   0.525   5.282  0.7063 -0.7703 -0.8876
  188DOPC  H18X23242   2.110   0.483   5.280  0.4965 -1.4667  0.9313
  188DOPC  H18Y23243   1.958   0.502   5.379  1.5779 -1.3781 -0.5765
  188DOPC  H18Z23244   1.937   0.487   5.205  1.5496  0.0456 -2.0960
  189DOPC     N23245   5.648   0.917   2.456  0.2017  0.5826  0.2475
  189DOPC   C1223246   5.648   0.834   2.589  0.1710 -0.1834 -0.1758
  189DOPC  H12A23247   5.723   0.757   2.585  1.4749  0.9815  0.7018
  189DOPC  H12B23248   5.550   0.791   2.597  0.6303 -1.2354 -0.1088
  189DOPC   C1323249   5.775   1.002   2.457  0.1362 -0.0930 -0.5195
  189DOPC  H13A23250   5.769   1.077   2.379  1.3478  0.0787 -0.4641
  189DOPC  H13B23251   5.798   1.048   2.552  1.1070 -1.4585 -0.0727
  189DOPC  H13C23252   5.865   0.947   2.435  0.9017  0.5422  0.9054
  189DOPC   C1423253   5.529   1.006   2.456 -0.5380  0.1864  0.8247
  189DOPC  H14A23254   5.553   1.082   2.529  1.0314  1.6123 -1.0683
  189DOPC  H14B23255   5.512   1.058   2.363  0.2705 -0.5709  0.2387
  189DOPC  H14C23256   5.440   0.949   2.479 -1.0104 -0.5489 -2.3471
  189DOPC   C1523257   5.651   0.825   2.342  0.7438  0.9950 -0.0865
  189DOPC  H15A23258   5.741   0.766   2.344 -0.2681 -0.5829  0.6219
  189DOPC  H15B23259   5.642   0.885   2.252 -0.4998 -0.0943 -0.7218
  189DOPC  H15C23260   5.563   0.763   2.340 -0.2728  2.2457  2.2193
  189DOPC   C1123261   5.671   0.907   2.725 -0.3138  0.6372 -0.0841
  189DOPC  H11A23262   5.603   0.995   2.732  0.4884  1.2914 -0.2606
  189DOPC  H11B23263   5.641   0.835   2.804  2.5546  1.6892  2.1359
  189DOPC     P23264   5.923   0.843   2.777  0.0095 -0.1044 -0.2695
  189DOPC   O1323265   6.062   0.904   2.769  0.0862  0.0738  0.4216
  189DOPC   O1423266   5.904   0.722   2.686  0.0524 -0.0088  0.3124
  189DOPC   O1223267   5.808   0.948   2.739 -0.0465 -0.3904 -0.5631
  189DOPC   O1123268   5.896   0.801   2.926 -0.0097  0.0605  0.5693
  189DOPC    C123269   5.832   0.885   3.021  0.1236 -1.2103 -0.3875
  189DOPC    HA23270   5.818   0.823   3.112 -0.2779 -0.1706  0.2771
  189DOPC    HB23271   5.730   0.925   2.998 -0.1278 -1.2053  0.7005
  189DOPC    C223272   5.924   0.999   3.073 -0.4561 -0.0728 -0.0610
  189DOPC    HS23273   5.958   1.066   2.992 -0.3419 -0.1646 -0.0905
  189DOPC   O2123274   6.030   0.933   3.149  0.1182  0.0024  0.5139
  189DOPC   C2123275   6.141   1.001   3.185  0.1842  0.3094 -0.0392
  189DOPC   O2223276   6.164   1.117   3.159  0.4090  0.4852 -0.5288
  189DOPC   C2223277   6.224   0.913   3.274  0.9061 -0.4419 -0.4723
  189DOPC   H2R23278   6.321   0.960   3.298  0.7345 -1.0340  1.5725
  189DOPC   H2S23279   6.239   0.820   3.215 -0.7053 -0.2613 -1.2269
  189DOPC    C323280   5.851   1.100   3.161  0.0220 -0.7334 -0.7109
  189DOPC    HX23281   5.779   1.157   3.099 -0.0091  1.5131  1.2383
  189DOPC    HY23282   5.927   1.174   3.194 -1.2594 -0.0179  0.7622
  189DOPC   O3123283   5.773   1.039   3.268 -0.0703  0.6275 -0.1079
  189DOPC   C3123284   5.771   1.103   3.386  0.3058  0.1971  0.5512
  189DOPC   O3223285   5.820   1.214   3.403  0.1051  0.3447  0.0443
  189DOPC   C3223286   5.698   1.019   3.495 -0.0768 -0.0356  1.2132
  189DOPC   H2X23287   5.597   0.997   3.454  0.7581 -3.4218  0.6428
  189DOPC   H2Y23288   5.743   0.919   3.512 -0.4797 -0.2412  1.1054
  189DOPC   C2323289   6.152   0.880   3.409  0.4739 -0.0104 -0.4465
  189DOPC   H3R23290   6.214   0.807   3.465  2.1276  1.1696 -0.6919
  189DOPC   H3S23291   6.055   0.826   3.396  0.6026 -0.4423  0.2860
  189DOPC   C2423292   6.140   0.997   3.507 -0.3470 -0.1383  0.6979
  189DOPC   H4R23293   6.084   1.083   3.464  0.9047  0.0303 -0.7038
  189DOPC   H4S23294   6.242   1.038   3.521  0.5862 -1.1781 -2.2776
  189DOPC   C2523295   6.096   0.938   3.639  0.5679  0.4493  0.3825
  189DOPC   H5R23296   6.173   0.865   3.671 -0.9833 -1.5779 -0.3313
  189DOPC   H5S23297   6.010   0.872   3.615 -0.0993  0.8111  1.6851
  189DOPC   C2623298   6.059   1.037   3.745 -0.1728 -0.2140  0.4927
  189DOPC   H6R23299   6.023   0.975   3.830 -0.5499  0.6544  0.9714
  189DOPC   H6S23300   5.975   1.099   3.709  0.4161  1.2452  1.5705
  189DOPC   C2723301   6.174   1.131   3.788 -0.1530 -0.0077  0.0879
  189DOPC   H7R23302   6.181   1.180   3.689  1.9349  1.4460  0.8919
  189DOPC   H7S23303   6.266   1.073   3.809 -0.4678 -0.1644  1.0664
  189DOPC   C2823304   6.152   1.219   3.905  0.7407 -0.6627  0.5058
  189DOPC   H8R23305   6.050   1.260   3.889  2.0424  1.9623 -1.8650
  189DOPC   H8S23306   6.218   1.309   3.914  1.0084 -0.9274  1.3409
  189DOPC   C2923307   6.158   1.135   4.029  0.6896 -1.1993 -0.2532
  189DOPC   H9R23308   6.073   1.073   4.060 -0.6843  0.9238  0.3692
  189DOPC  C21023309   6.260   1.144   4.113 -0.3380 -0.0727 -0.0986
  189DOPC  H10R23310   6.247   1.088   4.207  1.5392  3.0318  2.1855
  189DOPC  C21123311   6.393   1.218   4.107  0.8144  0.1453 -0.0706
  189DOPC  H11R23312   6.407   1.292   4.025  0.1305  3.7925  2.7782
  189DOPC  H11S23313   6.479   1.149   4.106  1.2899  0.6568  1.8330
  189DOPC  C21223314   6.412   1.292   4.238  0.0408 -0.2879 -0.7421
  189DOPC  H12R23315   6.316   1.339   4.270 -0.7226 -0.5516 -2.5342
  189DOPC  H12S23316   6.472   1.384   4.223 -1.9301  1.0091 -1.0604
  189DOPC  C21323317   6.480   1.200   4.350  0.4208  0.2415  0.4193
  189DOPC  H13R23318   6.569   1.155   4.301  0.5800  3.4408 -2.6899
  189DOPC  H13S23319   6.411   1.114   4.366 -1.8907  1.5456 -1.7347
  189DOPC  C21423320   6.507   1.277   4.478  0.1747 -0.1146 -0.2086
  189DOPC  H14R23321   6.449   1.221   4.554 -1.8471  0.0972 -1.4983
  189DOPC  H14S23322   6.465   1.380   4.465  1.5439  0.4769 -0.1105
  189DOPC  C21523323   6.655   1.294   4.512  0.4172  0.4760  0.7981
  189DOPC  H15R23324   6.699   1.299   4.410 -1.1228  0.6563  0.1089
  189DOPC  H15S23325   6.691   1.194   4.544 -2.0674 -0.6952  0.2363
  189DOPC  C21623326   6.693   1.408   4.611  0.0784 -0.1608  0.6462
  189DOPC  H16R23327   6.805   1.409   4.613  0.3415 -1.0194 -3.7075
  189DOPC  H16S23328   6.660   1.375   4.712  0.5344 -1.2944  0.4441
  189DOPC  C21723329   6.640   1.547   4.584  0.5987  0.5210  1.0644
  189DOPC  H17R23330   6.680   1.622   4.656  1.8847  0.7171  0.1642
  189DOPC  H17S23331   6.531   1.530   4.598  0.2958  1.6812  0.1794
  189DOPC  C21823332   6.664   1.608   4.442 -0.1790 -0.3861 -0.1331
  189DOPC  H18R23333   6.609   1.557   4.360 -0.8609  2.4964 -1.6158
  189DOPC  H18S23334   6.773   1.594   4.429 -0.3021 -0.1099 -1.6524
  189DOPC  H18T23335   6.635   1.715   4.442  1.0003 -0.0503 -0.0045
  189DOPC   C3323336   5.677   1.087   3.630 -0.2670 -0.0915 -0.0415
  189DOPC   H3X23337   5.605   1.171   3.625  0.8478  1.0293  1.7394
  189DOPC   H3Y23338   5.775   1.126   3.666 -0.5958  0.2364  0.5128
  189DOPC   C3423339   5.633   0.986   3.732  0.1092  0.3317  0.1002
  189DOPC   H4X23340   5.647   1.029   3.833 -0.0387  1.2659 -0.2642
  189DOPC   H4Y23341   5.710   0.908   3.713  0.4891  1.3401 -3.1674
  189DOPC   C3523342   5.503   0.912   3.709 -0.2019 -0.3528 -0.7019
  189DOPC   H5X23343   5.529   0.806   3.687 -1.0705 -0.4275 -1.4635
  189DOPC   H5Y23344   5.460   0.962   3.619  2.1136  3.3370  0.0269
  189DOPC   C3623345   5.413   0.909   3.829  0.4521 -0.3768  0.2174
  189DOPC   H6X23346   5.375   1.010   3.856 -1.9222  0.0007 -3.8465
  189DOPC   H6Y23347   5.325   0.853   3.791 -0.7099  1.2906  0.3528
  189DOPC   C3723348   5.474   0.834   3.941  0.7661  0.5800 -0.6049
  189DOPC   H7X23349   5.505   0.734   3.905  2.0033  1.2507 -1.4615
  189DOPC   H7Y23350   5.562   0.894   3.973  1.9349  0.0504 -2.6930
  189DOPC   C3823351   5.388   0.812   4.072 -0.2881  0.0151  0.1417
  189DOPC   H8X23352   5.346   0.914   4.085 -0.2719 -0.0073  0.3616
  189DOPC   H8Y23353   5.454   0.784   4.157  0.6196 -0.6972 -0.7685
  189DOPC   C3923354   5.277   0.714   4.059 -0.0395  0.4774  0.1660
  189DOPC   H9X23355   5.228   0.701   3.961  1.6190  1.8965 -0.9261
  189DOPC  C31023356   5.230   0.637   4.159  0.3344 -0.5311  0.0918
  189DOPC  H10X23357   5.149   0.566   4.135 -0.8814  0.7154  0.3427
  189DOPC  C31123358   5.261   0.630   4.304 -0.0697 -0.0637 -0.0918
  189DOPC  H11X23359   5.347   0.696   4.330 -0.2733  1.0122 -2.0143
  189DOPC  H11Y23360   5.289   0.526   4.331  0.7383  0.1893  0.0709
  189DOPC  C31223361   5.134   0.681   4.374 -0.3519 -0.4952  0.1568
  189DOPC  H12X23362   5.037   0.632   4.352  0.4671 -1.3450 -1.7637
  189DOPC  H12Y23363   5.117   0.791   4.366 -2.4519 -0.7052  0.9905
  189DOPC  C31323364   5.165   0.662   4.526 -0.2648  0.3087 -0.3196
  189DOPC  H13X23365   5.066   0.679   4.573  0.3598 -0.1612  1.2408
  189DOPC  H13Y23366   5.185   0.556   4.549  0.2198  0.9834  2.8169
  189DOPC  C31423367   5.270   0.756   4.579 -0.1892 -1.2120 -0.7303
  189DOPC  H14X23368   5.372   0.741   4.538 -0.5170  0.1349 -2.1718
  189DOPC  H14Y23369   5.242   0.862   4.558 -0.7164 -1.6666 -2.5247
  189DOPC  C31523370   5.295   0.736   4.736  0.2046 -0.9798 -0.6311
  189DOPC  H15X23371   5.337   0.635   4.758  2.8485  1.0051  5.3980
  189DOPC  H15Y23372   5.199   0.737   4.792 -0.9092 -3.0872 -2.3209
  189DOPC  C31623373   5.382   0.840   4.802 -0.2464 -0.4244  0.4564
  189DOPC  H16X23374   5.472   0.850   4.738 -1.3861  1.3618 -0.9640
  189DOPC  H16Y23375   5.330   0.938   4.806  0.9451  0.3368 -1.4106
  189DOPC  C31723376   5.424   0.805   4.943  0.6876 -0.3428  0.5674
  189DOPC  H17X23377   5.333   0.781   5.001  1.2196  0.9331  1.9854
  189DOPC  H17Y23378   5.503   0.727   4.938 -0.2559 -1.2417 -1.6038
  189DOPC  C31823379   5.482   0.923   5.016  0.0705  0.5266 -0.4503
  189DOPC  H18X23380   5.577   0.953   4.967  0.0734  0.7447 -0.3147
  189DOPC  H18Y23381   5.410   1.008   5.012  3.0191  3.3564  1.7864
  189DOPC  H18Z23382   5.505   0.900   5.122 -1.2861 -2.1858 -0.6690
  190DOPC     N23383   3.631   7.552   2.730  0.2684 -0.4944 -0.3143
  190DOPC   C1223384   3.642   7.650   2.855  0.2371  0.3846  0.1467
  190DOPC  H12A23385   3.570   7.620   2.929  1.4148 -2.8604  0.1395
  190DOPC  H12B23386   3.627   7.750   2.817 -1.6989  1.0794  2.5043
  190DOPC   C1323387   3.607   7.417   2.782 -0.0608 -0.2771 -0.4195
  190DOPC  H13A23388   3.526   7.405   2.853 -0.0422  0.6459 -0.2267
  190DOPC  H13B23389   3.587   7.344   2.705  2.4552  0.8511 -2.2758
  190DOPC  H13C23390   3.701   7.382   2.821  0.7545 -1.2502 -2.9992
  190DOPC   C1423391   3.752   7.560   2.649  0.3934  0.4478  0.0804
  190DOPC  H14A23392   3.779   7.660   2.619  0.4410 -0.5494 -3.7533
  190DOPC  H14B23393   3.830   7.506   2.700 -0.2138  0.0488  0.6033
  190DOPC  H14C23394   3.742   7.496   2.563 -0.4902 -0.9440  1.1751
  190DOPC   C1523395   3.515   7.591   2.637  0.8259  0.1112 -0.4080
  190DOPC  H15A23396   3.533   7.689   2.594 -1.5716  1.0117  0.4557
  190DOPC  H15B23397   3.427   7.602   2.698  1.4929  0.0234  0.5818
  190DOPC  H15C23398   3.493   7.525   2.554 -2.3165 -1.2199  1.3074
  190DOPC   C1123399   3.778   7.653   2.931 -0.2048 -0.4682 -0.5204
  190DOPC  H11A23400   3.856   7.682   2.857 -0.7039 -2.0461 -1.7177
  190DOPC  H11B23401   3.762   7.734   3.006  0.0948  0.7983 -1.7614
  190DOPC     P23402   3.749   7.481   3.129  0.0139 -0.2578  0.1950
  190DOPC   O1323403   3.738   7.335   3.142  0.0768  0.0378 -0.2754
  190DOPC   O1423404   3.622   7.551   3.148 -0.3062  0.7793 -0.0865
  190DOPC   O1223405   3.804   7.525   2.988 -0.2459 -0.0400  0.2824
  190DOPC   O1123406   3.851   7.531   3.229 -0.3075 -0.2519  0.0121
  190DOPC    C123407   3.988   7.568   3.209  0.0037 -0.0891 -0.1222
  190DOPC    HA23408   3.987   7.665   3.155  0.9465 -0.0118 -0.0190
  190DOPC    HB23409   4.041   7.502   3.137 -0.1055 -2.7853  2.0999
  190DOPC    C223410   4.069   7.579   3.343 -0.7001 -0.1547 -0.3584
  190DOPC    HS23411   4.176   7.602   3.328 -1.1326  0.7545 -2.3537
  190DOPC   O2123412   4.055   7.457   3.415 -0.2450 -0.5701  0.0598
  190DOPC   C2123413   4.148   7.423   3.502 -0.0600  0.1981  0.1217
  190DOPC   O2223414   4.260   7.479   3.509  1.1769 -0.2792  0.6404
  190DOPC   C2223415   4.102   7.305   3.587  0.6198  1.2386  0.3482
  190DOPC   H2R23416   4.164   7.214   3.571 -0.2657  1.1573 -3.9231
  190DOPC   H2S23417   3.998   7.278   3.558  0.8442 -1.4497  1.7247
  190DOPC    C323418   4.005   7.690   3.435 -0.2901  0.1389 -0.2632
  190DOPC    HX23419   3.900   7.660   3.458  0.4149 -4.2795 -1.7706
  190DOPC    HY23420   4.002   7.791   3.389  2.3485  1.1763  1.5791
  190DOPC   O3123421   4.078   7.699   3.558 -0.1910 -0.3574 -0.1341
  190DOPC   C3123422   4.192   7.757   3.559 -0.3312 -0.4641  0.3391
  190DOPC   O3223423   4.259   7.800   3.465  0.6353 -0.4269 -0.4341
  190DOPC   C3223424   4.248   7.745   3.696 -0.3165 -0.3570 -0.0386
  190DOPC   H2X23425   4.261   7.639   3.726  0.9830 -0.7000 -1.6601
  190DOPC   H2Y23426   4.348   7.792   3.694 -0.5663  0.2586  1.0932
  190DOPC   C2323427   4.100   7.342   3.738 -0.1208  0.9311 -0.3387
  190DOPC   H3R23428   4.019   7.285   3.788 -1.0279  1.5164 -1.1061
  190DOPC   H3S23429   4.067   7.447   3.754  2.9395  1.8836  0.5184
  190DOPC   C2423430   4.234   7.315   3.811  0.0222 -0.3270 -0.2094
  190DOPC   H4R23431   4.311   7.377   3.761  0.5750 -0.9082 -0.0845
  190DOPC   H4S23432   4.264   7.209   3.815  2.9250  0.4485  1.7210
  190DOPC   C2523433   4.227   7.368   3.957  0.1950 -0.4364  0.6119
  190DOPC   H5R23434   4.126   7.342   3.996 -0.1333 -0.4742 -0.2517
  190DOPC   H5S23435   4.220   7.479   3.958 -0.6031 -0.4734 -0.1656
  190DOPC   C2623436   4.339   7.315   4.039  0.5458 -0.6916  0.3046
  190DOPC   H6R23437   4.432   7.371   4.018 -0.1720 -0.1806 -1.8294
  190DOPC   H6S23438   4.355   7.207   4.014 -2.5769 -1.0586 -0.5078
  190DOPC   C2723439   4.301   7.322   4.188  0.1846 -0.0183 -0.4073
  190DOPC   H7R23440   4.211   7.259   4.204  1.0540 -0.9330  1.0973
  190DOPC   H7S23441   4.277   7.426   4.218 -1.4117 -0.0527 -1.4735
  190DOPC   C2823442   4.423   7.270   4.265  0.2103 -0.1537 -0.6060
  190DOPC   H8R23443   4.513   7.328   4.234 -0.6315  1.5629  0.0968
  190DOPC   H8S23444   4.447   7.163   4.246 -1.2438 -1.0844  2.3297
  190DOPC   C2923445   4.400   7.302   4.408  0.0737 -0.0023  0.0404
  190DOPC   H9R23446   4.405   7.411   4.422  0.5182  0.0450 -0.4867
  190DOPC  C21023447   4.361   7.222   4.511  0.2803 -0.8433 -0.1381
  190DOPC  H10R23448   4.339   7.271   4.607  0.7497  2.4010 -1.5581
  190DOPC  C21123449   4.343   7.075   4.495 -0.1175 -0.2817  0.1026
  190DOPC  H11R23450   4.394   7.030   4.583 -1.7693 -0.5523  0.9600
  190DOPC  H11S23451   4.379   7.037   4.397 -1.7315 -1.1861 -0.1827
  190DOPC  C21223452   4.190   7.043   4.506 -0.6147 -0.0860 -0.0595
  190DOPC  H12R23453   4.178   6.934   4.495 -0.4021 -0.0531 -0.6577
  190DOPC  H12S23454   4.130   7.078   4.420  1.8350  2.4604 -0.9056
  190DOPC  C21323455   4.124   7.089   4.639 -0.0775 -0.0995  0.8095
  190DOPC  H13R23456   4.131   7.199   4.652  1.1127  0.0475 -0.7208
  190DOPC  H13S23457   4.177   7.050   4.729  1.4963  1.7312  0.7613
  190DOPC  C21423458   3.977   7.048   4.646  0.1026 -0.1194  0.1635
  190DOPC  H14R23459   3.940   7.079   4.746  1.4759  0.6154  0.4627
  190DOPC  H14S23460   3.967   6.940   4.625  1.5823  0.1056 -2.0573
  190DOPC  C21523461   3.891   7.118   4.543  0.5343 -0.4381  0.3204
  190DOPC  H15R23462   3.923   7.098   4.438 -1.1969 -0.6318 -0.1988
  190DOPC  H15S23463   3.920   7.225   4.543  0.3208 -0.3776 -0.1091
  190DOPC  C21623464   3.748   7.090   4.569  0.5496  0.0850  0.5051
  190DOPC  H16R23465   3.684   7.165   4.518  0.5789 -1.7922 -2.5167
  190DOPC  H16S23466   3.730   7.087   4.679  0.5702  0.0887  0.5083
  190DOPC  C21723467   3.697   6.961   4.507 -0.4887 -0.5279  0.3332
  190DOPC  H17R23468   3.758   6.878   4.549  1.0415  1.1074  1.4719
  190DOPC  H17S23469   3.726   6.959   4.400  1.3018 -0.6117  0.7839
  190DOPC  C21823470   3.544   6.935   4.530 -0.0447 -0.0693 -0.5661
  190DOPC  H18R23471   3.478   7.017   4.497  2.1140  1.5440 -1.1093
  190DOPC  H18S23472   3.525   6.910   4.637 -1.7943  1.2367 -0.5353
  190DOPC  H18T23473   3.509   6.852   4.465 -1.5636 -0.5619  0.8050
  190DOPC   C3323474   4.166   7.820   3.814  0.3499  0.3231 -0.4530
  190DOPC   H3X23475   4.062   7.780   3.811  0.2782  0.2313  1.8411
  190DOPC   H3Y23476   4.178   7.929   3.795  0.6489  0.1547 -1.2750
  190DOPC   C3423477   4.232   7.800   3.949  0.7915  0.2485  0.4656
  190DOPC   H4X23478   4.320   7.868   3.955  1.2320 -0.3997  1.7593
  190DOPC   H4Y23479   4.270   7.697   3.967  0.4013  0.1247  0.5931
  190DOPC   C3523480   4.141   7.852   4.060  0.3048 -0.3051  0.0623
  190DOPC   H5X23481   4.038   7.809   4.055 -1.0204  2.8173 -2.3346
  190DOPC   H5Y23482   4.110   7.958   4.045  0.6535 -0.2750 -0.4744
  190DOPC   C3623483   4.205   7.843   4.198 -0.3288 -0.6946  0.2528
  190DOPC   H6X23484   4.256   7.745   4.190 -0.3429 -0.5195 -3.2454
  190DOPC   H6Y23485   4.282   7.923   4.194  0.0255 -1.0682 -0.7131
  190DOPC   C3723486   4.119   7.855   4.328  0.0257 -0.2831  0.1777
  190DOPC   H7X23487   4.095   7.959   4.357  0.0722  1.0152 -3.7459
  190DOPC   H7Y23488   4.028   7.801   4.293  1.3972 -0.9150 -2.7570
  190DOPC   C3823489   4.184   7.781   4.442  0.2748  0.7490  0.1675
  190DOPC   H8X23490   4.232   7.696   4.389 -1.5455  1.5699 -3.0853
  190DOPC   H8Y23491   4.107   7.737   4.508  2.3052 -2.3144  0.7058
  190DOPC   C3923492   4.279   7.866   4.523 -0.4426 -0.5555 -0.3244
  190DOPC   H9X23493   4.374   7.892   4.474 -1.6521  3.7472 -0.8159
  190DOPC  C31023494   4.250   7.916   4.645 -0.0365 -0.3497 -0.6991
  190DOPC  H10X23495   4.319   7.981   4.701 -3.5113  0.7131  2.7199
  190DOPC  C31123496   4.114   7.902   4.721  0.5175 -0.0330  0.1159
  190DOPC  H11X23497   4.117   7.835   4.810 -1.1215 -0.2774  0.0205
  190DOPC  H11Y23498   4.040   7.854   4.653  0.4727  1.2732 -0.7849
  190DOPC  C31223499   4.065   8.045   4.764  0.0773 -0.1584 -0.2032
  190DOPC  H12X23500   3.957   8.036   4.788  0.3672 -0.2767  1.1607
  190DOPC  H12Y23501   4.071   8.114   4.678  0.3979 -2.7577 -2.4113
  190DOPC  C31323502   4.142   8.102   4.876 -0.3103  0.1762  0.4145
  190DOPC  H13X23503   4.164   8.031   4.959 -2.0550  0.1187  0.8610
  190DOPC  H13Y23504   4.241   8.126   4.832 -0.3010  0.3705  0.5361
  190DOPC  C31423505   4.071   8.214   4.953  0.5789 -0.0293 -0.3112
  190DOPC  H14X23506   4.138   8.253   5.032  1.9216 -1.8060 -0.5124
  190DOPC  H14Y23507   4.042   8.283   4.871 -1.4639 -0.7342 -0.2352
  190DOPC  C31523508   3.938   8.164   5.022 -0.0277  0.5484 -0.4455
  190DOPC  H15X23509   3.960   8.083   5.094 -0.6385  1.7522  1.1734
  190DOPC  H15Y23510   3.875   8.124   4.939  2.1387 -1.1339 -1.3788
  190DOPC  C31623511   3.858   8.260   5.110 -0.5112 -0.3203 -0.0639
  190DOPC  H16X23512   3.754   8.222   5.116 -0.7393  0.1685 -0.7348
  190DOPC  H16Y23513   3.901   8.271   5.212  2.0615  0.7508 -1.1597
  190DOPC  C31723514   3.846   8.402   5.051 -0.1794  0.7603  0.0303
  190DOPC  H17X23515   3.952   8.436   5.051  0.9716 -2.3406  2.3316
  190DOPC  H17Y23516   3.806   8.405   4.948  1.9626  1.9275 -0.8313
  190DOPC  C31823517   3.759   8.493   5.137 -0.2747  0.0739 -0.7623
  190DOPC  H18X23518   3.778   8.595   5.097  3.5123 -0.0049  0.4409
  190DOPC  H18Y23519   3.653   8.466   5.117  0.1784 -2.0221 -0.5754
  190DOPC  H18Z23520   3.785   8.489   5.245  0.9156 -1.8714 -1.0582
  191DOPC     N23521   6.700   0.034   3.012 -0.0379 -0.2956 -0.1346
  191DOPC   C1223522   6.626  -0.067   3.103  0.5178  0.1754 -0.0844
  191DOPC  H12A23523   6.689  -0.154   3.116 -0.1989 -0.3505 -0.0720
  191DOPC  H12B23524   6.551  -0.111   3.038  0.2336  2.2138 -1.2167
  191DOPC   C1323525   6.800  -0.031   2.927 -0.0054 -0.0925 -0.0065
  191DOPC  H13A23526   6.750  -0.106   2.868 -1.5087  0.8665 -0.0182
  191DOPC  H13B23527   6.855   0.036   2.863 -0.0295  1.0016  1.0896
  191DOPC  H13C23528   6.871  -0.083   2.990  0.0903 -1.6404 -1.3428
  191DOPC   C1423529   6.767   0.139   3.094 -0.1174 -0.7337  0.1178
  191DOPC  H14A23530   6.843   0.103   3.161  1.7375  2.6115  0.0585
  191DOPC  H14B23531   6.818   0.208   3.027  0.7711 -2.5393 -1.1387
  191DOPC  H14C23532   6.690   0.184   3.155  1.0752 -0.4602  1.4829
  191DOPC   C1523533   6.601   0.098   2.921  0.3098 -0.1113  0.2496
  191DOPC  H15A23534   6.649   0.174   2.861 -1.9193 -0.5678 -2.2800
  191DOPC  H15B23535   6.514   0.133   2.974 -0.5185  0.1701 -1.2479
  191DOPC  H15C23536   6.570   0.029   2.845  1.3853 -1.8565  1.3028
  191DOPC   C1123537   6.571  -0.014   3.239 -0.8724 -0.1632  0.4603
  191DOPC  H11A23538   6.500  -0.093   3.273  0.0096 -1.0449  0.2955
  191DOPC  H11B23539   6.662  -0.021   3.302 -0.2010 -2.5389 -0.6382
  191DOPC     P23540   6.364   0.152   3.265  0.3001 -0.1648 -0.1479
  191DOPC   O1323541   6.269   0.041   3.220 -0.1656 -0.3229  0.3564
  191DOPC   O1423542   6.336   0.282   3.207  0.1371 -0.1821 -0.0689
  191DOPC   O1223543   6.510   0.114   3.224  0.0386  0.1764 -0.2586
  191DOPC   O1123544   6.372   0.152   3.423  0.8820  0.2539 -0.1164
  191DOPC    C123545   6.472   0.220   3.496  0.4485  0.4453 -0.1623
  191DOPC    HA23546   6.457   0.331   3.494  2.3211  0.7124 -0.5745
  191DOPC    HB23547   6.570   0.208   3.446 -0.5306 -0.6482 -1.8856
  191DOPC    C223548   6.469   0.189   3.651 -0.4982 -0.2223 -0.0129
  191DOPC    HS23549   6.534   0.269   3.691 -2.1884  1.4301 -0.4175
  191DOPC   O2123550   6.514   0.064   3.695  0.0609 -0.0196  0.3693
  191DOPC   C2123551   6.641   0.031   3.660  0.7795 -0.5566  0.7668
  191DOPC   O2223552   6.724   0.109   3.617  0.0080 -0.2786  0.1019
  191DOPC   C2223553   6.669  -0.114   3.711 -0.1619 -0.3166  0.0148
  191DOPC   H2R23554   6.701  -0.177   3.626  3.1059  0.9881  0.1249
  191DOPC   H2S23555   6.572  -0.155   3.747 -0.1228 -2.3909 -2.0446
  191DOPC    C323556   6.320   0.212   3.707  0.0193 -0.3370 -0.3927
  191DOPC    HX23557   6.332   0.194   3.816  3.3599  0.5394 -0.5019
  191DOPC    HY23558   6.260   0.131   3.662 -1.0259 -0.0965  0.5253
  191DOPC   O3123559   6.255   0.341   3.685 -0.5390  0.0877  0.0157
  191DOPC   C3123560   6.324   0.443   3.740  0.4150  0.7456  0.2312
  191DOPC   O3223561   6.420   0.428   3.816  0.6317 -0.2546  0.4958
  191DOPC   C3223562   6.247   0.576   3.705 -0.6941  0.7632  0.3488
  191DOPC   H2X23563   6.332   0.646   3.686  1.1629 -1.5025 -0.1092
  191DOPC   H2Y23564   6.193   0.547   3.612  0.2539 -1.6673  0.4817
  191DOPC   C2323565   6.759  -0.130   3.832 -0.2819 -0.3473  0.0486
  191DOPC   H3R23566   6.849  -0.065   3.829 -0.1100 -0.5808  0.0426
  191DOPC   H3S23567   6.799  -0.234   3.835 -0.6238 -0.5276 -1.1127
  191DOPC   C2423568   6.684  -0.093   3.961 -0.7640 -0.6284  0.2416
  191DOPC   H4R23569   6.589  -0.149   3.958 -1.0062 -0.3994  2.4428
  191DOPC   H4S23570   6.659   0.015   3.969 -3.9484 -0.9395 -2.7590
  191DOPC   C2523571   6.764  -0.144   4.087 -0.5676 -0.1445  0.7439
  191DOPC   H5R23572   6.865  -0.102   4.066 -1.8670  3.0323  0.4480
  191DOPC   H5S23573   6.774  -0.254   4.076 -1.8305 -0.1515 -0.6355
  191DOPC   C2623574   6.708  -0.118   4.222 -0.1458  0.5774 -0.0997
  191DOPC   H6R23575   6.664  -0.016   4.226 -0.7244  0.3609 -0.9070
  191DOPC   H6S23576   6.790  -0.123   4.298 -0.4516 -0.2352  0.1847
  191DOPC   C2723577   6.628  -0.227   4.290 -0.2840 -0.3957 -0.2222
  191DOPC   H7R23578   6.685  -0.307   4.343  0.1506  0.0332 -0.0419
  191DOPC   H7S23579   6.566  -0.276   4.212  0.2008 -2.1762  0.4613
  191DOPC   C2823580   6.514  -0.183   4.391  0.0916  0.1555  0.0909
  191DOPC   H8R23581   6.455  -0.272   4.421  0.0684  0.5686  1.3285
  191DOPC   H8S23582   6.452  -0.112   4.333 -0.3729 -0.6456 -0.4005
  191DOPC   C2923583   6.558  -0.108   4.513 -0.2387  0.0091 -0.9692
  191DOPC   H9R23584   6.650  -0.049   4.496  0.1107 -0.0426  0.5718
  191DOPC  C21023585   6.527  -0.125   4.640 -0.1386  0.0930 -0.6403
  191DOPC  H10R23586   6.567  -0.056   4.716 -0.5093  0.3294 -0.6567
  191DOPC  C21123587   6.421  -0.220   4.696 -0.6749 -0.0915  0.2364
  191DOPC  H11R23588   6.476  -0.315   4.712 -0.7170 -0.2192 -0.3477
  191DOPC  H11S23589   6.347  -0.236   4.615  0.9506 -0.1614 -1.3035
  191DOPC  C21223590   6.336  -0.165   4.808 -0.5974  0.2178  0.5452
  191DOPC  H12R23591   6.298  -0.065   4.777 -1.9683 -0.7628 -1.1108
  191DOPC  H12S23592   6.401  -0.148   4.897 -0.7932 -1.4130  1.0289
  191DOPC  C21323593   6.218  -0.255   4.842 -0.2646  0.2723 -0.4041
  191DOPC  H13R23594   6.180  -0.223   4.941 -3.5581 -0.5550 -1.2747
  191DOPC  H13S23595   6.248  -0.360   4.864  0.1498  0.5572  0.4288
  191DOPC  C21423596   6.091  -0.253   4.749  0.1399  0.2768 -0.3641
  191DOPC  H14R23597   6.066  -0.148   4.721 -2.2357  0.5291  2.2707
  191DOPC  H14S23598   6.012  -0.296   4.814  1.3449  2.0490  2.5240
  191DOPC  C21523599   6.103  -0.334   4.628  0.1109  0.3961  0.9217
  191DOPC  H15R23600   6.176  -0.414   4.655 -2.2881 -2.0304  0.6725
  191DOPC  H15S23601   6.149  -0.277   4.545  0.0313 -1.1557 -0.2292
  191DOPC  C21623602   5.967  -0.391   4.587 -0.5733  0.0424  0.4208
  191DOPC  H16R23603   5.901  -0.309   4.553 -0.3039 -0.9847 -2.9111
  191DOPC  H16S23604   5.930  -0.440   4.680  2.1351 -1.8129  0.6686
  191DOPC  C21723605   5.988  -0.501   4.479  0.2651  0.4439 -0.2072
  191DOPC  H17R23606   5.889  -0.543   4.453  0.6755 -0.2670 -0.6612
  191DOPC  H17S23607   6.056  -0.578   4.522 -0.0084  0.6815  0.6743
  191DOPC  C21823608   6.055  -0.452   4.356  0.2362  0.0538  0.0551
  191DOPC  H18R23609   6.166  -0.451   4.364  0.1482 -0.6407  1.6057
  191DOPC  H18S23610   6.019  -0.350   4.329  0.4195 -0.6925 -3.4591
  191DOPC  H18T23611   6.027  -0.518   4.271  2.9051 -1.2580  0.1078
  191DOPC   C3323612   6.152   0.617   3.817  0.5139 -0.3903  0.0708
  191DOPC   H3X23613   6.096   0.705   3.777  0.1123 -2.1886 -3.7943
  191DOPC   H3Y23614   6.210   0.658   3.902 -0.6930 -0.5226  0.9852
  191DOPC   C3423615   6.040   0.517   3.857 -0.2843 -0.2676 -0.1782
  191DOPC   H4X23616   6.089   0.436   3.917  0.4648 -0.3516 -0.8893
  191DOPC   H4Y23617   6.012   0.470   3.760 -0.4026 -0.9420  0.1748
  191DOPC   C3523618   5.917   0.576   3.924  0.4137  0.1909 -0.2096
  191DOPC   H5X23619   5.856   0.492   3.963  1.8437 -1.6159 -1.6531
  191DOPC   H5Y23620   5.864   0.625   3.840  2.1933 -1.3801 -2.3860
  191DOPC   C3623621   5.946   0.675   4.038 -0.2413 -0.3535 -0.1077
  191DOPC   H6X23622   6.023   0.644   4.113 -0.8127 -1.3797  0.0673
  191DOPC   H6Y23623   5.991   0.767   3.994 -0.4547  0.5637  1.4993
  191DOPC   C3723624   5.815   0.724   4.110  0.0958 -0.7822  0.1024
  191DOPC   H7X23625   5.756   0.786   4.039  1.1566  2.0571  1.4973
  191DOPC   H7Y23626   5.750   0.643   4.147 -1.5907  0.9173  1.0570
  191DOPC   C3823627   5.837   0.814   4.232 -0.7565 -0.2972  0.1416
  191DOPC   H8X23628   5.899   0.900   4.198  2.1142 -1.3989  2.1430
  191DOPC   H8Y23629   5.902   0.765   4.308 -0.0471  2.0628  1.1435
  191DOPC   C3923630   5.701   0.854   4.291  0.1872  0.8051  0.8083
  191DOPC   H9X23631   5.649   0.779   4.352 -1.0548 -0.1373 -1.3005
  191DOPC  C31023632   5.648   0.973   4.271  0.6996  0.2796 -0.1019
  191DOPC  H10X23633   5.554   0.991   4.326  0.4632  1.1998 -0.7802
  191DOPC  C31123634   5.709   1.084   4.190 -0.6205  0.1809 -1.2684
  191DOPC  H11X23635   5.626   1.157   4.178 -0.3107  1.1277  1.5860
  191DOPC  H11Y23636   5.735   1.051   4.087  1.3422  0.1358 -0.8002
  191DOPC  C31223637   5.822   1.164   4.258 -0.3943 -0.6415  0.8009
  191DOPC  H12X23638   5.907   1.095   4.280  1.6614  0.8712 -1.8439
  191DOPC  H12Y23639   5.778   1.205   4.351 -3.4791 -0.2980 -0.6973
  191DOPC  C31323640   5.863   1.277   4.159  0.2903 -0.3160 -0.9979
  191DOPC  H13X23641   5.920   1.233   4.076  1.1851  0.7556 -0.9746
  191DOPC  H13Y23642   5.767   1.308   4.112 -0.9776 -2.8658 -0.3235
  191DOPC  C31423643   5.930   1.389   4.237  0.1244  0.1057  0.3586
  191DOPC  H14X23644   5.858   1.453   4.293  0.5930  1.4945 -0.5650
  191DOPC  H14Y23645   5.990   1.338   4.315  2.4764  0.1465 -1.2987
  191DOPC  C31523646   6.026   1.479   4.161  0.6418 -0.0922  0.7778
  191DOPC  H15X23647   5.977   1.532   4.077  2.6379 -0.3229 -0.6006
  191DOPC  H15Y23648   6.103   1.413   4.115  0.8397  0.8377 -0.2517
  191DOPC  C31623649   6.098   1.585   4.249  0.5272  0.2957 -0.6458
  191DOPC  H16X23650   6.030   1.669   4.271  1.3378  0.0098  4.0500
  191DOPC  H16Y23651   6.138   1.538   4.342  1.4048 -1.0380 -1.6581
  191DOPC  C31723652   6.220   1.648   4.187  0.0381  0.6678 -0.7213
  191DOPC  H17X23653   6.282   1.572   4.136  1.2779  1.0578  0.1405
  191DOPC  H17Y23654   6.178   1.713   4.108 -0.0405  1.7028  0.1538
  191DOPC  C31823655   6.312   1.722   4.288 -0.1646  0.1273 -0.2354
  191DOPC  H18X23656   6.348   1.653   4.368 -1.4329 -0.3814 -0.0672
  191DOPC  H18Y23657   6.406   1.763   4.247  1.0321 -2.6365 -0.4989
  191DOPC  H18Z23658   6.252   1.794   4.347  0.2646  0.3182 -0.0316
  192DOPC     N23659   0.899   3.602   2.898 -0.0805  0.5229 -0.0411
  192DOPC   C1223660   0.969   3.663   3.020  0.0771  0.2731 -0.4642
  192DOPC  H12A23661   1.053   3.598   3.039  1.0654  0.9982 -2.1341
  192DOPC  H12B23662   0.903   3.666   3.105 -0.6217  3.0527 -0.9875
  192DOPC   C1323663   0.881   3.458   2.914 -0.1450  0.5244 -0.4925
  192DOPC  H13A23664   0.818   3.433   2.998 -0.4310  1.0073 -0.5603
  192DOPC  H13B23665   0.835   3.416   2.825  2.3486  0.4632 -1.8430
  192DOPC  H13C23666   0.976   3.407   2.920 -1.1330 -1.5550 -1.5797
  192DOPC   C1423667   0.983   3.615   2.778 -0.5782  0.9000 -0.5827
  192DOPC  H14A23668   0.998   3.719   2.752  1.9609  0.6217 -0.5030
  192DOPC  H14B23669   1.082   3.572   2.777 -1.1247 -0.4015 -0.8595
  192DOPC  H14C23670   0.921   3.566   2.705 -2.4101  0.8427  0.9416
  192DOPC   C1523671   0.765   3.669   2.882 -0.3465 -0.3376  0.1898
  192DOPC  H15A23672   0.790   3.774   2.873  0.3000 -0.5835 -1.0222
  192DOPC  H15B23673   0.703   3.656   2.970  1.1159 -1.6106  1.0714
  192DOPC  H15C23674   0.708   3.641   2.795  0.0131 -0.3998 -0.0279
  192DOPC   C1123675   1.027   3.805   2.996  0.0550  0.1676  0.1721
  192DOPC  H11A23676   1.102   3.817   3.077  2.1528  0.3092 -1.7062
  192DOPC  H11B23677   1.081   3.822   2.901  0.7014 -3.1094 -0.1348
  192DOPC     P23678   0.923   4.055   2.990 -0.0419  0.0082  0.2122
  192DOPC   O1323679   0.798   4.105   2.943  0.8992  0.0825  0.0544
  192DOPC   O1423680   1.045   4.089   2.916 -0.1946 -0.1896 -0.8756
  192DOPC   O1223681   0.915   3.895   2.998 -0.5661  0.3182 -0.0092
  192DOPC   O1123682   0.943   4.096   3.143  0.8803 -0.0159  0.1181
  192DOPC    C123683   0.833   4.114   3.238  0.4006 -0.4978  0.1872
  192DOPC    HA23684   0.734   4.074   3.206  0.1302 -0.6330  1.1706
  192DOPC    HB23685   0.814   4.219   3.267  0.8633 -0.0721 -1.0042
  192DOPC    C223686   0.854   4.027   3.366  0.3358 -0.0298  0.6656
  192DOPC    HS23687   0.763   4.021   3.429  0.2470  2.1440  0.7889
  192DOPC   O2123688   0.972   4.069   3.442  0.0954 -0.4702 -0.4955
  192DOPC   C2123689   0.955   4.189   3.491 -0.6466  0.2819  0.2894
  192DOPC   O2223690   0.851   4.255   3.491  0.8417  0.0263 -0.0849
  192DOPC   C2223691   1.086   4.253   3.555 -0.4335  0.1838 -0.6024
  192DOPC   H2R23692   1.176   4.224   3.497  1.7783  0.7733  2.2930
  192DOPC   H2S23693   1.088   4.194   3.650 -0.9568 -1.8168 -1.7708
  192DOPC    C323694   0.878   3.883   3.313  0.4939  0.2386  0.4307
  192DOPC    HX23695   0.979   3.881   3.267  0.9426 -0.5737  1.4035
  192DOPC    HY23696   0.797   3.851   3.244  0.7089  0.8391 -0.1052
  192DOPC   O3123697   0.881   3.792   3.426 -0.5321  0.0066 -0.3278
  192DOPC   C3123698   0.857   3.661   3.409 -0.1079 -0.0960  0.6676
  192DOPC   O3223699   0.837   3.610   3.297 -0.2760 -0.4050 -0.4376
  192DOPC   C3223700   0.827   3.592   3.542 -0.4659 -0.0619  0.2302
  192DOPC   H2X23701   0.872   3.649   3.626  0.2890  1.7517 -1.3390
  192DOPC   H2Y23702   0.717   3.594   3.558 -0.2078 -1.3569  2.7759
  192DOPC   C2323703   1.089   4.404   3.569 -0.1728 -0.6994 -0.4094
  192DOPC   H3R23704   0.994   4.455   3.596 -0.7034 -1.7498 -0.2553
  192DOPC   H3S23705   1.135   4.447   3.477  3.6773  0.8353  2.0012
  192DOPC   C2423706   1.190   4.441   3.682 -0.1255 -0.4139 -0.0354
  192DOPC   H4R23707   1.141   4.429   3.781 -1.4993  1.0797 -0.4915
  192DOPC   H4S23708   1.221   4.548   3.676  0.3155 -0.4752  0.9372
  192DOPC   C2523709   1.319   4.357   3.687 -0.7008 -0.0565  1.1623
  192DOPC   H5R23710   1.349   4.366   3.580  0.5420  0.7436  1.5727
  192DOPC   H5S23711   1.292   4.252   3.712 -0.1192 -0.0368  1.8716
  192DOPC   C2623712   1.419   4.427   3.772  0.2331 -0.0324 -0.7906
  192DOPC   H6R23713   1.400   4.534   3.793 -1.7448 -0.6060  0.6907
  192DOPC   H6S23714   1.510   4.427   3.708 -0.4993  1.5242 -1.9024
  192DOPC   C2723715   1.446   4.367   3.908  0.1997  0.3619  0.2594
  192DOPC   H7R23716   1.486   4.266   3.885  1.1892  0.6391  0.6959
  192DOPC   H7S23717   1.347   4.356   3.957  0.2705  0.1126  0.3508
  192DOPC   C2823718   1.534   4.446   4.001 -0.0153  0.1990 -0.4933
  192DOPC   H8R23719   1.510   4.554   4.000 -2.2321 -0.1762  2.1473
  192DOPC   H8S23720   1.638   4.424   3.967  0.1503 -1.8746  1.1747
  192DOPC   C2923721   1.523   4.388   4.138  0.8638 -0.3754  0.8423
  192DOPC   H9R23722   1.423   4.358   4.175 -0.0757  0.3924 -0.9343
  192DOPC  C21023723   1.614   4.360   4.227  0.3996  0.1098 -0.2750
  192DOPC  H10R23724   1.583   4.328   4.328  2.7599 -1.3952  0.0339
  192DOPC  C21123725   1.762   4.379   4.225  0.4212  0.4503  0.2223
  192DOPC  H11R23726   1.798   4.401   4.122 -0.1727  2.1967  0.3563
  192DOPC  H11S23727   1.807   4.281   4.250  1.8361  0.2044 -2.7784
  192DOPC  C21223728   1.824   4.490   4.313 -0.4218 -0.4573 -0.5379
  192DOPC  H12R23729   1.798   4.480   4.421 -1.0080  0.6510 -0.5572
  192DOPC  H12S23730   1.789   4.594   4.295  1.2467  0.3470  0.5647
  192DOPC  C21323731   1.976   4.486   4.301 -0.1453 -0.7668 -0.1168
  192DOPC  H13R23732   2.014   4.515   4.201 -0.4897  1.2072  0.2790
  192DOPC  H13S23733   2.012   4.383   4.321  0.7006 -0.0205  2.6323
  192DOPC  C21423734   2.039   4.569   4.416  0.5383 -0.1757  0.0229
  192DOPC  H14R23735   2.002   4.525   4.511  1.0406  0.8908  0.7207
  192DOPC  H14S23736   2.007   4.674   4.404  2.8657  0.3866 -1.8744
  192DOPC  C21523737   2.184   4.563   4.413  0.0440  0.3674 -0.3736
  192DOPC  H15R23738   2.220   4.606   4.317  0.1269  0.3641 -0.3450
  192DOPC  H15S23739   2.208   4.456   4.424 -0.4689  0.2579 -0.2800
  192DOPC  C21623740   2.263   4.642   4.517 -0.7013  0.1171 -0.3578
  192DOPC  H16R23741   2.253   4.599   4.619  2.8074  2.9537  1.3976
  192DOPC  H16S23742   2.213   4.740   4.533 -0.3510  0.2986 -0.3760
  192DOPC  C21723743   2.414   4.653   4.489  0.5591  0.5779 -0.8962
  192DOPC  H17R23744   2.436   4.743   4.550 -0.6429 -0.4783  1.2166
  192DOPC  H17S23745   2.433   4.674   4.381  1.1239  1.8251 -0.5712
  192DOPC  C21823746   2.497   4.536   4.545 -0.5717 -0.7163 -0.2967
  192DOPC  H18R23747   2.601   4.569   4.566 -0.6071 -0.1560 -0.9474
  192DOPC  H18S23748   2.523   4.464   4.464  0.5688 -0.4141 -0.2229
  192DOPC  H18T23749   2.441   4.485   4.626 -1.7833  0.0457 -0.6214
  192DOPC   C3323750   0.871   3.444   3.548 -0.3814 -0.6019  0.4271
  192DOPC   H3X23751   0.823   3.380   3.471  2.2754  0.5686 -2.4249
  192DOPC   H3Y23752   0.842   3.403   3.646  0.1317  0.5396  1.0813
  192DOPC   C3423753   1.030   3.431   3.542 -0.1550  1.0104 -0.0572
  192DOPC   H4X23754   1.079   3.497   3.616  0.5410  2.0955 -1.4329
  192DOPC   H4Y23755   1.058   3.459   3.438  2.8579  0.8994  0.6307
  192DOPC   C3523756   1.081   3.288   3.559 -0.1132 -0.0701  0.0413
  192DOPC   H5X23757   1.024   3.224   3.489  1.4280 -1.8363  0.3115
  192DOPC   H5Y23758   1.052   3.253   3.660  0.2630 -1.0363 -0.1732
  192DOPC   C3623759   1.233   3.261   3.537 -0.0525 -0.3601  0.2070
  192DOPC   H6X23760   1.254   3.160   3.580  0.4236  0.9770  3.3437
  192DOPC   H6Y23761   1.248   3.264   3.427 -1.0507 -1.4910  0.0163
  192DOPC   C3723762   1.333   3.360   3.593  0.0589  0.5243  0.4165
  192DOPC   H7X23763   1.322   3.461   3.546 -0.3782 -0.0732 -0.8024
  192DOPC   H7Y23764   1.328   3.357   3.704  1.9076 -1.2546  0.4950
  192DOPC   C3823765   1.475   3.309   3.564 -0.0350  0.9427 -0.0526
  192DOPC   H8X23766   1.479   3.199   3.576  1.6547  0.8078 -1.4271
  192DOPC   H8Y23767   1.536   3.362   3.640  0.1797  1.9512 -0.9078
  192DOPC   C3923768   1.519   3.323   3.424 -1.1992  0.8148  0.3307
  192DOPC   H9X23769   1.458   3.262   3.355  1.9174 -2.1369 -0.1100
  192DOPC  C31023770   1.624   3.395   3.380  0.1891  0.9116  1.2660
  192DOPC  H10X23771   1.652   3.395   3.273 -2.6124  1.4154  0.4601
  192DOPC  C31123772   1.715   3.489   3.450 -0.6016 -0.4424  0.3157
  192DOPC  H11X23773   1.683   3.511   3.554 -1.1954 -0.4616  0.1402
  192DOPC  H11Y23774   1.714   3.582   3.390 -0.3884 -0.4665  0.2729
  192DOPC  C31223775   1.859   3.433   3.449 -0.4599 -0.3869  0.5878
  192DOPC  H12X23776   1.935   3.512   3.465 -0.6843 -0.0876  0.1828
  192DOPC  H12Y23777   1.886   3.392   3.349 -2.2077 -0.0899 -0.0286
  192DOPC  C31323778   1.884   3.322   3.556 -0.4587  0.0827 -0.2677
  192DOPC  H13X23779   1.804   3.246   3.540 -1.3890 -0.2328  4.3997
  192DOPC  H13Y23780   1.985   3.284   3.530  0.1005  0.1943  1.6209
  192DOPC  C31423781   1.872   3.387   3.698 -0.1682  0.7737 -0.1758
  192DOPC  H14X23782   1.939   3.476   3.694  1.0719 -0.1027  0.4189
  192DOPC  H14Y23783   1.770   3.421   3.728 -0.1968 -1.0720  2.1127
  192DOPC  C31523784   1.910   3.285   3.806  0.4206 -0.1630  0.6245
  192DOPC  H15X23785   2.004   3.241   3.766  0.2795  0.8067 -0.8700
  192DOPC  H15Y23786   1.823   3.216   3.815  0.7531 -0.7205 -0.2641
  192DOPC  C31623787   1.931   3.355   3.938  0.4151 -0.2199  0.0927
  192DOPC  H16X23788   1.990   3.285   4.001  0.4227 -0.2077  0.0990
  192DOPC  H16Y23789   1.988   3.449   3.921  0.7706 -0.0283  2.1032
  192DOPC  C31723790   1.803   3.396   4.008 -0.0611  0.5907  0.7802
  192DOPC  H17X23791   1.726   3.424   3.933  0.4308 -1.5634 -0.6220
  192DOPC  H17Y23792   1.759   3.308   4.061  0.8986  0.1366  0.8385
  192DOPC  C31823793   1.822   3.510   4.106 -0.3128 -0.2055 -0.0791
  192DOPC  H18X23794   1.877   3.475   4.196  1.5103  0.1002 -1.0446
  192DOPC  H18Y23795   1.878   3.596   4.065  0.9718  0.2840  2.4762
  192DOPC  H18Z23796   1.727   3.548   4.149 -1.2130 -1.1482 -1.1704
  193DOPC     N23797   0.361   0.181   3.196 -0.0816  0.7290  0.6025
  193DOPC   C1223798   0.451   0.285   3.239  0.1057  0.0362 -0.0488
  193DOPC  H12A23799   0.550   0.243   3.244  0.5868  1.1745  0.3463
  193DOPC  H12B23800   0.415   0.318   3.335  1.4336  0.1959  0.4121
  193DOPC   C1323801   0.218   0.211   3.197 -0.1098 -0.2388  0.3668
  193DOPC  H13A23802   0.161   0.216   3.289 -1.3962  1.0545 -0.4347
  193DOPC  H13B23803   0.208   0.303   3.141  1.5324 -0.2370  0.0463
  193DOPC  H13C23804   0.155   0.137   3.148  0.4346 -1.9867  2.1980
  193DOPC   C1423805   0.377   0.056   3.284  0.0154  0.0493  0.0407
  193DOPC  H14A23806   0.341   0.068   3.385  0.2488 -0.6096  0.2038
  193DOPC  H14B23807   0.331  -0.031   3.239  1.3046 -1.0385  0.7598
  193DOPC  H14C23808   0.479   0.024   3.297 -0.3761 -0.7503  1.3013
  193DOPC   C1523809   0.398   0.134   3.060  0.4423  0.2629  0.1738
  193DOPC  H15A23810   0.344   0.048   3.023 -1.9298  0.8364  2.0290
  193DOPC  H15B23811   0.506   0.123   3.055  0.3057 -0.8199 -0.7422
  193DOPC  H15C23812   0.374   0.214   2.992 -1.3345  0.3217  0.8334
  193DOPC   C1123813   0.459   0.410   3.146  0.3982 -0.6115  0.7842
  193DOPC  H11A23814   0.505   0.377   3.050 -0.5930  0.8161 -0.2213
  193DOPC  H11B23815   0.356   0.442   3.119  1.3543  3.6062  1.4641
  193DOPC     P23816   0.689   0.540   3.183  0.1229  0.5077 -0.3910
  193DOPC   O1323817   0.703   0.675   3.120 -0.0570  0.1974 -0.8863
  193DOPC   O1423818   0.745   0.423   3.110 -0.1074 -0.1064 -0.2932
  193DOPC   O1223819   0.533   0.520   3.209 -0.6512  0.0883  0.1004
  193DOPC   O1123820   0.750   0.542   3.328 -0.4064 -0.3367 -0.0703
  193DOPC    C123821   0.686   0.612   3.431  0.3515 -0.9327 -0.4386
  193DOPC    HA23822   0.586   0.568   3.452  0.4406 -1.7131 -1.5669
  193DOPC    HB23823   0.671   0.720   3.408 -2.1672 -0.9419  0.7524
  193DOPC    C223824   0.766   0.620   3.566  0.2725 -0.1902  0.2635
  193DOPC    HS23825   0.848   0.694   3.561 -1.7244  2.2184  1.0402
  193DOPC   O2123826   0.805   0.484   3.600 -0.6352  0.0783  0.3571
  193DOPC   C2123827   0.912   0.475   3.675  0.0169 -0.4949  0.2534
  193DOPC   O2223828   0.970   0.560   3.737  0.2061 -0.5003  0.9006
  193DOPC   C2223829   0.949   0.325   3.687  0.4283 -0.0131 -0.2227
  193DOPC   H2R23830   0.978   0.292   3.585 -1.1706 -1.6840 -0.1969
  193DOPC   H2S23831   0.862   0.262   3.715  1.3946 -0.4404  2.0113
  193DOPC    C323832   0.664   0.671   3.680  0.0042 -0.2563 -0.2032
  193DOPC    HX23833   0.592   0.587   3.694 -0.0118  0.1579  2.6827
  193DOPC    HY23834   0.610   0.760   3.642  0.1800  0.5967  1.4826
  193DOPC   O3123835   0.731   0.693   3.804  0.2420 -0.4287  0.0172
  193DOPC   C3123836   0.772   0.820   3.827 -0.2370 -0.5729  0.3719
  193DOPC   O3223837   0.771   0.908   3.738  0.3400  0.2271 -0.1407
  193DOPC   C3223838   0.816   0.840   3.969 -0.5287  0.3280  0.2541
  193DOPC   H2X23839   0.777   0.754   4.027 -0.6270  1.5170  2.0093
  193DOPC   H2Y23840   0.925   0.833   3.985 -0.8352 -1.8581  1.9008
  193DOPC   C2323841   1.067   0.288   3.785 -0.0003  0.4054 -0.8149
  193DOPC   H3R23842   1.156   0.342   3.745 -0.5134  0.7761 -1.4877
  193DOPC   H3S23843   1.097   0.183   3.768 -0.8530 -0.9397  4.2476
  193DOPC   C2423844   1.054   0.323   3.933  0.5275 -0.0056  0.1140
  193DOPC   H4R23845   1.067   0.433   3.940  2.0533 -0.2081  1.0812
  193DOPC   H4S23846   1.141   0.284   3.990  1.1145  2.5815  1.1690
  193DOPC   C2523847   0.915   0.289   3.990  0.9235 -0.3031  0.2398
  193DOPC   H5R23848   0.901   0.179   3.993 -0.5738 -0.3243 -3.0930
  193DOPC   H5S23849   0.832   0.333   3.930  1.1778  1.1373  0.8935
  193DOPC   C2623850   0.889   0.353   4.129  1.3221  0.1807  0.3169
  193DOPC   H6R23851   0.948   0.318   4.217 -1.1170 -0.3402  1.8436
  193DOPC   H6S23852   0.786   0.320   4.157  0.9224 -0.4391 -1.7038
  193DOPC   C2723853   0.888   0.506   4.136  0.3601 -0.3783  0.6718
  193DOPC   H7R23854   0.823   0.551   4.057 -0.2085  1.1298  1.9522
  193DOPC   H7S23855   0.989   0.544   4.109  1.7830 -4.5925 -0.7464
  193DOPC   C2823856   0.859   0.563   4.278  0.2049  0.2473  0.4156
  193DOPC   H8R23857   0.905   0.664   4.283  0.3831  0.1303  3.5964
  193DOPC   H8S23858   0.916   0.502   4.352 -1.6874 -0.6485  1.2048
  193DOPC   C2923859   0.710   0.573   4.306  0.7891 -0.1301 -0.2300
  193DOPC   H9R23860   0.651   0.542   4.219  1.2996 -1.0022 -0.2784
  193DOPC  C21023861   0.649   0.603   4.416 -0.0165 -0.3059  0.0063
  193DOPC  H10R23862   0.542   0.628   4.414  0.0945  0.1525 -0.5282
  193DOPC  C21123863   0.724   0.632   4.548 -0.8631  0.4013 -0.3602
  193DOPC  H11R23864   0.833   0.651   4.534 -0.6836  0.1638  0.6492
  193DOPC  H11S23865   0.702   0.544   4.612 -1.3101  0.1960 -0.7949
  193DOPC  C21223866   0.683   0.758   4.625  0.6500  0.1028  0.0571
  193DOPC  H12R23867   0.651   0.844   4.562 -0.4099 -0.9308 -0.8395
  193DOPC  H12S23868   0.770   0.785   4.689  0.7275 -0.4144  0.1733
  193DOPC  C21323869   0.564   0.724   4.714 -0.2674 -0.8222 -0.1354
  193DOPC  H13R23870   0.597   0.637   4.774  0.3643 -0.5480 -0.0805
  193DOPC  H13S23871   0.471   0.696   4.660 -0.8512 -1.1265  1.0068
  193DOPC  C21423872   0.529   0.828   4.824 -0.6356 -0.0469  0.9316
  193DOPC  H14R23873   0.614   0.844   4.893 -0.9034  2.3002  0.8140
  193DOPC  H14S23874   0.446   0.780   4.880 -2.0363 -0.4801 -1.3851
  193DOPC  C21523875   0.483   0.960   4.766  0.5413 -0.0488 -0.2404
  193DOPC  H15R23876   0.554   0.994   4.688  0.5690 -0.2830 -0.3208
  193DOPC  H15S23877   0.492   1.039   4.843  1.0357 -0.5538  0.2228
  193DOPC  C21623878   0.337   0.959   4.716 -0.4506  0.2197  0.1232
  193DOPC  H16R23879   0.312   0.873   4.652  0.0836  0.7271 -0.7893
  193DOPC  H16S23880   0.338   1.044   4.645 -2.7216 -0.8206 -1.2449
  193DOPC  C21723881   0.235   0.956   4.825  0.3087 -0.1146 -0.6706
  193DOPC  H17R23882   0.290   0.912   4.911  2.8707  0.6595 -1.8231
  193DOPC  H17S23883   0.142   0.909   4.788  0.5838  1.2223 -3.3177
  193DOPC  C21823884   0.195   1.098   4.866 -0.1821 -0.1120 -0.1198
  193DOPC  H18R23885   0.287   1.154   4.893 -0.6228  0.7648 -0.4043
  193DOPC  H18S23886   0.112   1.098   4.940 -0.7960  1.6550 -0.7718
  193DOPC  H18T23887   0.155   1.150   4.777 -3.7458 -0.9185  0.8598
  193DOPC   C3323888   0.762   0.969   4.037  0.8783  1.2763 -0.2374
  193DOPC   H3X23889   0.654   0.992   4.021  1.2148  2.0014 -1.6301
  193DOPC   H3Y23890   0.809   1.056   3.987  1.8224  2.0044  1.7853
  193DOPC   C3423891   0.778   0.955   4.188  0.0794 -0.0984 -0.1076
  193DOPC   H4X23892   0.871   0.993   4.236 -0.4252 -0.2944  1.0669
  193DOPC   H4Y23893   0.763   0.849   4.216  0.6981 -0.4466 -1.0813
  193DOPC   C3523894   0.678   1.040   4.276 -0.3727  0.2981 -0.1564
  193DOPC   H5X23895   0.688   1.147   4.249  1.8172 -0.2795 -1.9601
  193DOPC   H5Y23896   0.706   1.017   4.381  0.5966 -0.6032 -0.5960
  193DOPC   C3623897   0.524   0.999   4.267  0.1695  0.0379 -0.1086
  193DOPC   H6X23898   0.492   1.023   4.164  0.4531  0.7468 -0.0406
  193DOPC   H6Y23899   0.531   0.892   4.295  1.1303 -0.4471 -2.0309
  193DOPC   C3723900   0.439   1.078   4.376 -0.0878  0.0726 -0.2835
  193DOPC   H7X23901   0.481   1.044   4.473  2.0965  2.0963 -0.4343
  193DOPC   H7Y23902   0.460   1.186   4.364 -1.9683  0.4328 -0.6285
  193DOPC   C3823903   0.287   1.056   4.360  0.3133  0.0500 -0.7360
  193DOPC   H8X23904   0.228   1.068   4.454  0.2913  2.9120 -1.0351
  193DOPC   H8Y23905   0.277   0.949   4.331 -1.9398 -0.7077  2.1983
  193DOPC   C3923906   0.229   1.147   4.260  0.9994 -0.1608 -0.2771
  193DOPC   H9X23907   0.280   1.144   4.163 -0.6246 -1.0138 -1.1419
  193DOPC  C31023908   0.122   1.230   4.278 -0.4666 -0.4228  0.0530
  193DOPC  H10X23909   0.090   1.292   4.192 -3.0588 -0.2921  1.0228
  193DOPC  C31123910   0.044   1.249   4.400 -0.1962  0.1289 -0.3322
  193DOPC  H11X23911   0.050   1.357   4.423  1.2343  0.5665 -2.4612
  193DOPC  H11Y23912   0.092   1.212   4.493 -0.7909 -0.7856 -0.3738
  193DOPC  C31223913  -0.101   1.210   4.378 -0.2610  0.2228 -0.9705
  193DOPC  H12X23914  -0.120   1.101   4.390 -1.4614  0.3461 -1.5581
  193DOPC  H12Y23915  -0.127   1.240   4.274 -3.2765  1.2091 -0.0355
  193DOPC  C31323916  -0.194   1.284   4.474 -0.1602 -0.5814  0.4296
  193DOPC  H13X23917  -0.173   1.237   4.572  1.2651 -1.5167 -0.2897
  193DOPC  H13Y23918  -0.164   1.391   4.476 -0.3972 -0.4856 -0.5234
  193DOPC  C31423919  -0.341   1.267   4.434 -0.6348 -0.9918 -0.5028
  193DOPC  H14X23920  -0.363   1.159   4.447 -0.0258 -0.8880  2.1234
  193DOPC  H14Y23921  -0.401   1.319   4.512 -1.6365 -3.0237  0.1568
  193DOPC  C31523922  -0.391   1.321   4.296 -0.9159  0.1380 -0.4754
  193DOPC  H15X23923  -0.345   1.257   4.218 -0.0785  2.8024 -2.2941
  193DOPC  H15Y23924  -0.349   1.423   4.287  0.5917 -0.6071 -2.4775
  193DOPC  C31623925  -0.543   1.320   4.263  0.0335 -0.2415 -1.5226
  193DOPC  H16X23926  -0.560   1.371   4.166  1.0014  3.5259  0.1063
  193DOPC  H16Y23927  -0.566   1.212   4.250  0.1139 -0.9379  2.5694
  193DOPC  C31723928  -0.640   1.377   4.366 -0.1057 -0.4778 -0.4294
  193DOPC  H17X23929  -0.745   1.354   4.337 -0.2400 -0.7821  0.2597
  193DOPC  H17Y23930  -0.612   1.333   4.464 -1.9715  0.6344  0.6776
  193DOPC  C31823931  -0.621   1.523   4.369 -0.5926  0.2957  0.2900
  193DOPC  H18X23932  -0.633   1.562   4.265 -1.0502  0.3184  0.3503
  193DOPC  H18Y23933  -0.698   1.568   4.436 -0.1132 -0.4131  1.3368
  193DOPC  H18Z23934  -0.520   1.556   4.402  0.9688 -1.1550 -2.6257
  194DOPC     N23935   2.904   7.474   2.720 -0.3571  0.0261  0.3479
  194DOPC   C1223936   2.881   7.393   2.848 -0.1878 -0.2412 -0.8854
  194DOPC  H12A23937   2.832   7.299   2.829 -1.5776  0.4149 -0.6761
  194DOPC  H12B23938   2.809   7.449   2.906  1.2895  1.2798 -0.4490
  194DOPC   C1323939   2.926   7.623   2.747  0.4729  0.3210 -0.4881
  194DOPC  H13A23940   2.829   7.660   2.776 -0.2368 -0.9562 -1.1668
  194DOPC  H13B23941   2.988   7.644   2.834  0.7520 -3.6013  0.4562
  194DOPC  H13C23942   2.948   7.674   2.655 -1.2857 -0.1651 -1.2152
  194DOPC   C1423943   2.779   7.458   2.630 -1.1681 -0.6698  0.2134
  194DOPC  H14A23944   2.754   7.353   2.627  1.4689 -1.3647  0.2969
  194DOPC  H14B23945   2.689   7.510   2.662 -0.8801  0.8889 -1.3834
  194DOPC  H14C23946   2.788   7.506   2.534 -0.2904  0.8508  1.0232
  194DOPC   C1523947   3.026   7.409   2.651 -0.6009 -0.4108 -0.8752
  194DOPC  H15A23948   3.003   7.320   2.595 -1.5858  0.1353 -1.3588
  194DOPC  H15B23949   3.103   7.382   2.722 -2.3601 -1.3138  0.7885
  194DOPC  H15C23950   3.073   7.486   2.591  1.0131 -0.4604  0.2508
  194DOPC   C1123951   2.998   7.362   2.948  0.6408 -0.6587  0.1196
  194DOPC  H11A23952   2.958   7.294   3.026  0.1715 -2.0656 -1.2925
  194DOPC  H11B23953   3.078   7.303   2.898  0.5875 -0.4797 -0.1814
  194DOPC     P23954   3.013   7.558   3.123  0.0912 -0.0061  0.1330
  194DOPC   O1323955   2.885   7.624   3.083  0.5970 -0.2470  0.1787
  194DOPC   O1423956   3.121   7.644   3.165  0.1402  0.2869 -0.5566
  194DOPC   O1223957   3.064   7.479   2.995  0.0874 -0.6901  0.1292
  194DOPC   O1123958   2.999   7.452   3.230 -0.0392  0.6558  0.0416
  194DOPC    C123959   3.111   7.386   3.285 -0.0998 -0.1937 -0.8624
  194DOPC    HA23960   3.206   7.431   3.249 -0.1989  1.3992  0.7465
  194DOPC    HB23961   3.110   7.280   3.250  2.1381 -0.2714 -0.8429
  194DOPC    C223962   3.112   7.379   3.443  0.4424 -0.9840  0.0104
  194DOPC    HS23963   3.020   7.327   3.477 -0.0306  0.7706  1.5659
  194DOPC   O2123964   3.127   7.511   3.502 -0.1208 -0.0523  0.4586
  194DOPC   C2123965   3.023   7.596   3.506  0.3596  0.1218  0.6881
  194DOPC   O2223966   2.909   7.566   3.479  0.1923  0.8919 -0.3607
  194DOPC   C2223967   3.076   7.734   3.553 -0.1478 -0.3221  0.1541
  194DOPC   H2R23968   3.151   7.773   3.480 -0.8200 -0.8519 -0.8416
  194DOPC   H2S23969   3.129   7.706   3.647 -1.1142  0.4559  0.9422
  194DOPC    C323970   3.230   7.287   3.486 -0.2238 -0.2817  0.0149
  194DOPC    HX23971   3.328   7.340   3.477 -0.4840  0.2813  0.4311
  194DOPC    HY23972   3.230   7.196   3.423  0.8776 -0.6311  0.4815
  194DOPC   O3123973   3.202   7.247   3.620  0.1291 -0.3519  0.2517
  194DOPC   C3123974   3.255   7.317   3.714 -1.1263 -0.9069  0.3793
  194DOPC   O3223975   3.332   7.410   3.701 -0.4120 -0.0073 -0.1663
  194DOPC   C3223976   3.189   7.273   3.844 -0.7465 -0.4296  0.4102
  194DOPC   H2X23977   3.090   7.230   3.817 -0.4973  0.3471 -1.9782
  194DOPC   H2Y23978   3.259   7.200   3.889 -1.4192 -1.5448 -0.2977
  194DOPC   C2323979   2.967   7.847   3.559 -0.7361  0.8312 -0.4941
  194DOPC   H3R23980   2.872   7.792   3.573 -0.0755 -0.1360  0.3177
  194DOPC   H3S23981   2.955   7.886   3.455 -3.1758 -0.9107 -0.9375
  194DOPC   C2423982   3.004   7.956   3.666  0.2423 -0.2653  0.3924
  194DOPC   H4R23983   2.943   8.042   3.631 -0.2980 -0.8184 -0.0327
  194DOPC   H4S23984   3.112   7.975   3.647 -0.1532 -0.8344 -2.9499
  194DOPC   C2523985   2.979   7.908   3.813 -0.0631 -0.1581  0.4377
  194DOPC   H5R23986   3.022   7.805   3.818  1.4319  0.4802  1.7737
  194DOPC   H5S23987   2.870   7.909   3.832  0.0182  0.5985  0.8962
  194DOPC   C2623988   3.058   7.992   3.918  0.5151  0.7180 -0.0788
  194DOPC   H6R23989   3.035   8.100   3.920  1.3004  0.9647 -1.9357
  194DOPC   H6S23990   3.163   7.979   3.882 -0.6022 -2.2878 -2.7383
  194DOPC   C2723991   3.030   7.930   4.057  0.5987 -0.0574  0.5078
  194DOPC   H7R23992   3.110   7.970   4.123  0.2379  1.7749 -0.0910
  194DOPC   H7S23993   3.042   7.820   4.061  2.2834  0.1434  1.6168
  194DOPC   C2823994   2.889   7.971   4.121  0.1940  0.2693  0.4886
  194DOPC   H8R23995   2.812   7.933   4.052  0.8869  0.8695 -0.6452
  194DOPC   H8S23996   2.882   8.082   4.118 -0.7105  0.1970 -1.4326
  194DOPC   C2923997   2.881   7.921   4.258  0.4701  0.4630  0.0146
  194DOPC   H9R23998   2.935   7.993   4.322  1.8576  0.8440 -1.5263
  194DOPC  C21023999   2.832   7.804   4.310  0.1073  0.2284  0.1139
  194DOPC  H10R24000   2.841   7.781   4.417 -2.0172  1.2802  0.5753
  194DOPC  C21124001   2.764   7.700   4.220 -0.1879 -0.3763  0.4673
  194DOPC  H11R24002   2.798   7.709   4.115 -1.4432 -2.8418 -0.2225
  194DOPC  H11S24003   2.653   7.707   4.214 -0.3487 -1.3680  1.7091
  194DOPC  C21224004   2.779   7.553   4.277 -0.3734 -0.2323  0.8794
  194DOPC  H12R24005   2.727   7.487   4.205  0.2678  0.6879 -0.4663
  194DOPC  H12S24006   2.722   7.549   4.372  0.0438  0.4764  1.1687
  194DOPC  C21324007   2.919   7.497   4.289  0.4733  0.4605 -0.1855
  194DOPC  H13R24008   2.967   7.557   4.369  0.7042  0.0264  0.0082
  194DOPC  H13S24009   2.975   7.509   4.193  0.5657  1.0155 -0.0644
  194DOPC  C21424010   2.919   7.354   4.330  0.0155  0.1551 -0.7640
  194DOPC  H14R24011   2.889   7.280   4.253 -0.3390 -0.4962 -0.0150
  194DOPC  H14S24012   2.849   7.344   4.416 -0.2665 -0.1687 -1.0259
  194DOPC  C21524013   3.054   7.309   4.400  0.4816 -0.1079  0.3873
  194DOPC  H15R24014   3.036   7.212   4.450  2.2630 -0.8632 -0.3689
  194DOPC  H15S24015   3.100   7.388   4.464  4.5533 -1.0806 -1.0367
  194DOPC  C21624016   3.161   7.295   4.291 -0.5178  0.5691  0.3468
  194DOPC  H16R24017   3.178   7.400   4.260  1.3737 -0.1630 -1.2588
  194DOPC  H16S24018   3.133   7.236   4.201 -0.9442  3.3094 -1.4470
  194DOPC  C21724019   3.293   7.239   4.348  0.1888  0.5148 -0.3119
  194DOPC  H17R24020   3.283   7.137   4.392 -1.3337  1.3575  1.4374
  194DOPC  H17S24021   3.311   7.305   4.435 -0.6511 -0.2375  0.4563
  194DOPC  C21824022   3.423   7.249   4.263 -0.1863  0.2639 -0.1761
  194DOPC  H18R24023   3.450   7.355   4.244  0.5649  0.2586  0.7763
  194DOPC  H18S24024   3.412   7.190   4.170  1.5046  0.4211 -0.5115
  194DOPC  H18T24025   3.495   7.196   4.329 -1.9143  0.0311  1.6366
  194DOPC   C3324026   3.167   7.390   3.942  0.0379 -0.5218 -0.3104
  194DOPC   H3X24027   3.257   7.450   3.965 -0.1390  0.3528 -1.7558
  194DOPC   H3Y24028   3.144   7.351   4.043 -1.1987  0.4853 -0.1776
  194DOPC   C3424029   3.054   7.485   3.901  0.4897 -0.0836 -0.0597
  194DOPC   H4X24030   3.071   7.541   3.806  1.5926 -1.4898 -0.7185
  194DOPC   H4Y24031   3.047   7.552   3.990  3.1686 -1.4121  1.2664
  194DOPC   C3524032   2.923   7.412   3.888 -0.0271 -0.7009 -0.9925
  194DOPC   H5X24033   2.906   7.350   3.979 -1.3044 -0.2819 -0.9258
  194DOPC   H5Y24034   2.921   7.342   3.802  0.8313 -0.3408 -1.3142
  194DOPC   C3624035   2.795   7.508   3.868 -0.5508  0.5299 -0.1640
  194DOPC   H6X24036   2.809   7.579   3.953 -0.1644 -0.2800  0.4537
  194DOPC   H6Y24037   2.816   7.559   3.772  1.2108 -0.2698 -0.2342
  194DOPC   C3724038   2.656   7.440   3.875  0.2143 -0.1999  0.5164
  194DOPC   H7X24039   2.615   7.443   3.772 -2.2915  1.4402  1.4614
  194DOPC   H7Y24040   2.653   7.333   3.903  0.0997 -1.0499 -2.4008
  194DOPC   C3824041   2.557   7.512   3.965 -0.5232  0.2726  0.1614
  194DOPC   H8X24042   2.570   7.619   3.939  0.8281 -0.2267 -1.3477
  194DOPC   H8Y24043   2.577   7.503   4.074 -3.1577  1.4861  0.8393
  194DOPC   C3924044   2.418   7.456   3.942  0.7955  0.2172 -0.5658
  194DOPC   H9X24045   2.403   7.408   3.844  0.8113 -1.1652  0.0862
  194DOPC  C31024046   2.311   7.443   4.022 -0.0297 -0.0010 -0.1905
  194DOPC  H10X24047   2.229   7.380   3.983  0.2805 -0.7975  0.4133
  194DOPC  C31124048   2.299   7.484   4.165  0.3153  0.3798 -0.1423
  194DOPC  H11X24049   2.192   7.498   4.190 -0.4741 -0.3678 -2.8093
  194DOPC  H11Y24050   2.358   7.578   4.173 -1.2525  1.4576 -0.6084
  194DOPC  C31224051   2.358   7.384   4.262 -0.2071  0.0418 -0.3222
  194DOPC  H12X24052   2.466   7.365   4.244 -0.6515 -3.3616 -0.0619
  194DOPC  H12Y24053   2.314   7.285   4.238 -1.6239  0.4983  0.2808
  194DOPC  C31324054   2.339   7.435   4.406 -0.6211 -0.3577  0.1842
  194DOPC  H13X24055   2.399   7.529   4.403 -1.0629 -0.0908 -0.8466
  194DOPC  H13Y24056   2.237   7.469   4.432  0.4083  2.5975  0.6705
  194DOPC  C31424057   2.393   7.331   4.505  0.4145  1.0007 -0.2143
  194DOPC  H14X24058   2.336   7.236   4.490  1.7360  0.4200 -1.8885
  194DOPC  H14Y24059   2.499   7.304   4.485 -0.0841  0.7022 -2.7538
  194DOPC  C31524060   2.380   7.379   4.650 -0.2224  0.5863  0.2367
  194DOPC  H15X24061   2.371   7.490   4.646  1.5996  0.7514 -0.3669
  194DOPC  H15Y24062   2.477   7.359   4.702  0.4217  1.8019 -0.4372
  194DOPC  C31624063   2.265   7.313   4.724 -0.6536 -0.1968  0.3353
  194DOPC  H16X24064   2.175   7.363   4.681  0.0334  0.8817  0.1141
  194DOPC  H16Y24065   2.259   7.206   4.694 -0.5100  0.1188 -0.8348
  194DOPC  C31724066   2.267   7.342   4.873  0.2068  0.4658 -0.1625
  194DOPC  H17X24067   2.364   7.303   4.912  0.2399 -0.4608 -1.1454
  194DOPC  H17Y24068   2.272   7.449   4.901  1.2942  0.6707 -1.0558
  194DOPC  C31824069   2.147   7.261   4.934  0.1530 -0.4173  0.2189
  194DOPC  H18X24070   2.151   7.242   5.043 -3.9158 -0.7460  0.4695
  194DOPC  H18Y24071   2.057   7.316   4.900  0.8235  1.4274  1.3037
  194DOPC  H18Z24072   2.147   7.164   4.880  0.5519  0.7161 -1.9288
  195DOPC     N24073   6.293   6.750   3.053 -0.2328 -0.8360  0.1520
  195DOPC   C1224074   6.184   6.687   3.144 -0.1622 -0.7071  0.7170
  195DOPC  H12A24075   6.106   6.762   3.142  1.4801  1.1023  0.0711
  195DOPC  H12B24076   6.229   6.679   3.242 -0.8048  0.7068  1.1613
  195DOPC   C1324077   6.348   6.872   3.122 -0.3123  0.4658  0.4194
  195DOPC  H13A24078   6.384   6.860   3.223 -0.8777 -2.1311  0.3986
  195DOPC  H13B24079   6.422   6.919   3.059  0.7539 -2.3766 -0.6488
  195DOPC  H13C24080   6.269   6.945   3.126 -2.1153 -1.3270 -0.4934
  195DOPC   C1424081   6.223   6.789   2.921 -0.3210 -0.2905  0.3232
  195DOPC  H14A24082   6.167   6.707   2.878 -2.0575  0.5751  0.8297
  195DOPC  H14B24083   6.157   6.874   2.921 -1.2624 -0.9940  0.5864
  195DOPC  H14C24084   6.301   6.816   2.852  0.1299  0.0787  0.9706
  195DOPC   C1524085   6.412   6.660   3.029 -0.2864  0.4739 -0.1364
  195DOPC  H15A24086   6.484   6.704   2.962 -2.2568 -0.0874 -2.7874
  195DOPC  H15B24087   6.385   6.570   2.977 -0.5224  1.0851 -1.1102
  195DOPC  H15C24088   6.455   6.632   3.124  0.0975 -1.3066 -0.8147
  195DOPC   C1124089   6.132   6.553   3.100 -0.0508  0.7729 -0.0956
  195DOPC  H11A24090   6.216   6.480   3.111 -0.4723 -0.1256 -2.3199
  195DOPC  H11B24091   6.054   6.514   3.169 -0.3681 -3.4397 -2.4355
  195DOPC     P24092   5.999   6.432   2.913  0.0084 -0.0177  0.1031
  195DOPC   O1324093   6.039   6.421   2.772  0.4574 -0.1973 -0.3182
  195DOPC   O1424094   5.858   6.443   2.950  0.1181  0.1803 -0.0894
  195DOPC   O1224095   6.082   6.548   2.969 -0.1082 -0.1360 -0.3737
  195DOPC   O1124096   6.057   6.299   2.985  0.0644 -0.4248 -0.3984
  195DOPC    C124097   6.195   6.251   2.977  0.1345  0.0575 -0.1613
  195DOPC    HA24098   6.269   6.333   2.977  1.3038 -0.8788  2.3624
  195DOPC    HB24099   6.205   6.190   2.885  0.5575  0.0338 -0.1032
  195DOPC    C224100   6.239   6.141   3.081 -0.3624 -0.0408  0.7124
  195DOPC    HS24101   6.165   6.059   3.091 -0.2867 -0.0926  0.8401
  195DOPC   O2124102   6.260   6.208   3.202  0.5258 -0.2081 -0.6476
  195DOPC   C2124103   6.153   6.228   3.279 -0.3897  0.1969  0.0327
  195DOPC   O2224104   6.048   6.177   3.252  0.4489  0.3528 -0.2573
  195DOPC   C2224105   6.183   6.311   3.406  0.4926 -0.4821  0.8289
  195DOPC   H2R24106   6.112   6.396   3.408  1.1568  0.0854  0.8028
  195DOPC   H2S24107   6.283   6.354   3.384  0.2079 -0.2681 -0.0904
  195DOPC    C324108   6.372   6.079   3.018  0.5251  0.7574 -0.9310
  195DOPC    HX24109   6.449   6.157   3.006  0.2123  1.2615  0.1919
  195DOPC    HY24110   6.346   6.038   2.918  0.1513  0.3596 -0.6742
  195DOPC   O3124111   6.413   5.968   3.094  0.3307  0.0024  0.5890
  195DOPC   C3124112   6.523   5.970   3.166 -0.2219 -0.2700  0.1698
  195DOPC   O3224113   6.596   6.064   3.188  0.5118 -0.3754  0.2692
  195DOPC   C3224114   6.545   5.829   3.213 -1.2385  0.6373 -1.0147
  195DOPC   H2X24115   6.454   5.765   3.210  0.2163 -1.5750 -0.3761
  195DOPC   H2Y24116   6.611   5.778   3.139 -3.0827 -1.6026 -1.2433
  195DOPC   C2324117   6.167   6.227   3.526 -0.0462  0.3539  0.0559
  195DOPC   H3R24118   6.217   6.130   3.503 -0.6971  0.6786 -3.3754
  195DOPC   H3S24119   6.058   6.208   3.526 -0.1694  0.9929  1.2670
  195DOPC   C2424120   6.217   6.288   3.655  0.2606 -0.2914 -0.1424
  195DOPC   H4R24121   6.192   6.218   3.738  2.2171  1.5308  2.1350
  195DOPC   H4S24122   6.157   6.378   3.680  0.4716 -0.2890  0.3705
  195DOPC   C2524123   6.356   6.323   3.651 -0.5028 -0.2833  0.2174
  195DOPC   H5R24124   6.367   6.424   3.606  0.0055 -1.3373 -2.1917
  195DOPC   H5S24125   6.413   6.250   3.589 -1.3434  0.7649 -1.9188
  195DOPC   C2624126   6.425   6.325   3.784  0.3314 -0.4431 -0.4059
  195DOPC   H6R24127   6.400   6.230   3.835  1.4781 -2.0861 -2.7126
  195DOPC   H6S24128   6.387   6.403   3.853  2.3934  1.8878 -1.7603
  195DOPC   C2724129   6.574   6.357   3.768 -0.2767  0.4044  0.0042
  195DOPC   H7R24130   6.574   6.460   3.726 -4.0655 -0.0095 -1.4217
  195DOPC   H7S24131   6.608   6.283   3.693 -0.3181  1.3294 -0.9498
  195DOPC   C2824132   6.650   6.326   3.896  0.0993 -0.0089 -0.6350
  195DOPC   H8R24133   6.631   6.219   3.917 -0.6147 -0.3128 -2.5637
  195DOPC   H8S24134   6.605   6.378   3.983  0.4639  1.6845 -1.3970
  195DOPC   C2924135   6.800   6.348   3.889  0.2796  0.5165 -0.4399
  195DOPC   H9R24136   6.846   6.310   3.797  0.9599  0.8160 -0.2249
  195DOPC  C21024137   6.881   6.410   3.968  0.0250 -0.1296 -0.5772
  195DOPC  H10R24138   6.988   6.412   3.943  0.3691 -0.7557  0.7601
  195DOPC  C21124139   6.835   6.488   4.089  0.1595  0.1707 -0.1241
  195DOPC  H11R24140   6.725   6.480   4.097  0.0122  0.4542 -1.6723
  195DOPC  H11S24141   6.862   6.594   4.067  2.8201  0.3680  3.1090
  195DOPC  C21224142   6.902   6.445   4.218  0.9654  0.0169  0.2524
  195DOPC  H12R24143   6.845   6.496   4.299  0.3310 -2.4103  1.4356
  195DOPC  H12S24144   7.004   6.487   4.231  1.1965 -0.7378  1.0028
  195DOPC  C21324145   6.900   6.296   4.234  1.0150  0.4011  0.7686
  195DOPC  H13R24146   6.968   6.261   4.154 -0.6863  1.3453 -1.2003
  195DOPC  H13S24147   6.800   6.258   4.205  0.7656  1.1734  0.5870
  195DOPC  C21424148   6.945   6.251   4.366 -0.0387 -0.4717 -0.6014
  195DOPC  H14R24149   6.923   6.143   4.375 -0.6621 -0.2933  0.0867
  195DOPC  H14S24150   6.913   6.305   4.458  3.6905  2.2659 -0.6770
  195DOPC  C21524151   7.103   6.258   4.370 -0.2052 -0.1005 -0.1262
  195DOPC  H15R24152   7.140   6.354   4.329 -1.7069  1.2308  1.4340
  195DOPC  H15S24153   7.145   6.169   4.318 -1.8589 -0.1420 -1.4976
  195DOPC  C21624154   7.155   6.266   4.515  0.1045 -0.0532  1.0701
  195DOPC  H16R24155   7.106   6.353   4.563 -0.8199 -0.7272  1.3799
  195DOPC  H16S24156   7.264   6.287   4.507  0.1974 -1.0870 -0.9969
  195DOPC  C21724157   7.135   6.138   4.595  1.0599 -0.3612  0.0745
  195DOPC  H17R24158   7.209   6.062   4.561 -0.1606 -2.9448  2.7485
  195DOPC  H17S24159   7.036   6.089   4.580 -0.0182  1.9043 -0.5410
  195DOPC  C21824160   7.138   6.153   4.747 -0.0921 -0.5053  0.3196
  195DOPC  H18R24161   7.236   6.199   4.774 -0.3183 -0.0662  0.3868
  195DOPC  H18S24162   7.130   6.063   4.811 -0.3653  0.4868  1.7191
  195DOPC  H18T24163   7.050   6.215   4.772 -0.7776 -0.4424 -2.0279
  195DOPC   C3324164   6.601   5.818   3.359 -0.0423  0.3828  0.0241
  195DOPC   H3X24165   6.698   5.871   3.360 -0.6942  1.6092  0.9663
  195DOPC   H3Y24166   6.618   5.711   3.385 -2.8553 -0.2543 -0.4432
  195DOPC   C3424167   6.504   5.870   3.462  0.0592  0.0479 -0.1353
  195DOPC   H4X24168   6.406   5.828   3.428  1.0223 -1.4259 -1.2418
  195DOPC   H4Y24169   6.487   5.979   3.448  0.8840  0.1518 -0.3396
  195DOPC   C3524170   6.522   5.832   3.607 -0.0917  0.1884  0.5339
  195DOPC   H5X24171   6.631   5.843   3.622  0.3749 -0.4723 -1.9407
  195DOPC   H5Y24172   6.492   5.727   3.625  0.4375 -0.0820 -0.1253
  195DOPC   C3624173   6.450   5.921   3.702 -0.2878  0.4890 -0.5996
  195DOPC   H6X24174   6.485   5.907   3.806  1.3553  0.2807 -1.1517
  195DOPC   H6Y24175   6.450   6.028   3.670  2.0480  0.5701 -0.4659
  195DOPC   C3724176   6.293   5.891   3.710 -0.2780  0.2471 -0.0595
  195DOPC   H7X24177   6.262   5.961   3.630  0.8619 -0.3415 -1.0419
  195DOPC   H7Y24178   6.258   5.787   3.697  1.5952 -0.6078  1.2579
  195DOPC   C3824179   6.236   5.958   3.834  0.9800  0.0410  0.2968
  195DOPC   H8X24180   6.281   6.059   3.842 -0.1407  0.8090 -2.0910
  195DOPC   H8Y24181   6.260   5.899   3.925  0.2606 -0.0608  0.4300
  195DOPC   C3924182   6.086   5.979   3.837 -0.7262  0.2195  0.2221
  195DOPC   H9X24183   6.058   6.047   3.755  0.5188 -0.2260 -0.6025
  195DOPC  C31024184   5.990   5.946   3.924  0.0262 -0.2580  0.1825
  195DOPC  H10X24185   5.884   5.962   3.902 -0.9499 -2.7377  2.5360
  195DOPC  C31124186   6.008   5.862   4.045 -0.1763  0.2303  0.1313
  195DOPC  H11X24187   6.099   5.801   4.029 -0.4441  0.2123 -1.5417
  195DOPC  H11Y24188   5.924   5.789   4.048  0.9884 -1.1713 -0.3328
  195DOPC  C31224189   6.016   5.952   4.166 -1.1140 -0.0159 -0.3290
  195DOPC  H12X24190   5.917   5.993   4.195 -1.2788 -0.8085  0.2483
  195DOPC  H12Y24191   6.082   6.041   4.150 -2.1368  1.2026  1.7900
  195DOPC  C31324192   6.075   5.887   4.288  0.2317 -0.3546  0.0538
  195DOPC  H13X24193   6.028   5.790   4.313  0.3815 -0.1554  1.1209
  195DOPC  H13Y24194   6.181   5.854   4.275  0.1868 -0.4490 -0.0728
  195DOPC  C31424195   6.075   5.976   4.411  0.1831 -0.3187 -0.1235
  195DOPC  H14X24196   6.131   6.071   4.398 -1.3989  0.7225  0.3185
  195DOPC  H14Y24197   5.973   5.999   4.450  0.4426 -0.3092  0.5644
  195DOPC  C31524198   6.137   5.910   4.541 -0.6959 -0.4620  0.1612
  195DOPC  H15X24199   6.084   5.813   4.556 -0.4148 -0.6015  0.2623
  195DOPC  H15Y24200   6.089   5.965   4.625 -1.1130 -0.1128 -0.3029
  195DOPC  C31624201   6.284   5.881   4.542 -0.3318 -0.2418  0.1986
  195DOPC  H16X24202   6.313   5.808   4.463  0.4035 -0.9357  1.0991
  195DOPC  H16Y24203   6.334   5.976   4.511  0.0710 -0.5387 -0.0673
  195DOPC  C31724204   6.340   5.827   4.672  0.1720  0.2381  0.4687
  195DOPC  H17X24205   6.297   5.724   4.674 -0.1236  0.2884 -1.3655
  195DOPC  H17Y24206   6.450   5.813   4.668 -0.1225 -2.8305  0.7794
  195DOPC  C31824207   6.289   5.911   4.795 -0.3152  0.1298 -0.2646
  195DOPC  H18X24208   6.187   5.894   4.835  0.9176  1.6736  4.1719
  195DOPC  H18Y24209   6.350   5.884   4.884 -0.0928 -2.2844 -1.0807
  195DOPC  H18Z24210   6.310   6.018   4.772  2.2335 -0.3799 -0.5453
  196DOPC     N24211   1.020   0.890   3.108 -0.2274 -0.5636 -0.1665
  196DOPC   C1224212   1.172   0.916   3.090 -0.2752  0.0193 -0.4628
  196DOPC  H12A24213   1.197   1.010   3.136  1.5954 -0.0061 -1.3733
  196DOPC  H12B24214   1.199   0.935   2.987  0.8346  3.1628  0.3006
  196DOPC   C1324215   0.984   0.876   3.252  0.0386  0.0826 -0.2600
  196DOPC  H13A24216   1.032   0.952   3.312 -0.3878 -0.9437  1.4350
  196DOPC  H13B24217   0.878   0.881   3.273  0.1572  0.3775  0.2976
  196DOPC  H13C24218   1.033   0.786   3.286  3.5186  2.0557  0.4913
  196DOPC   C1424219   0.965   0.770   3.040 -0.5893 -0.6040 -0.9652
  196DOPC  H14A24220   0.972   0.798   2.936  1.6163  0.2191 -0.6561
  196DOPC  H14B24221   1.023   0.683   3.068 -0.4421  0.2137  1.5502
  196DOPC  H14C24222   0.861   0.752   3.060 -0.5011  1.5062  2.0438
  196DOPC   C1524223   0.947   1.004   3.044 -0.4614 -0.8650  0.9199
  196DOPC  H15A24224   0.984   1.032   2.946 -1.1716 -0.6784  0.6990
  196DOPC  H15B24225   0.939   1.092   3.106 -0.5515 -0.4542  0.3367
  196DOPC  H15C24226   0.849   0.963   3.027 -0.4162 -0.8617  0.6367
  196DOPC   C1124227   1.278   0.807   3.136  0.3467  0.2899 -1.0088
  196DOPC  H11A24228   1.379   0.842   3.106 -0.2683  0.2034 -3.4440
  196DOPC  H11B24229   1.256   0.809   3.245 -2.8208  1.7939 -1.5750
  196DOPC     P24230   1.283   0.546   3.144  0.4705 -0.3590  0.0035
  196DOPC   O1324231   1.379   0.467   3.069 -1.0510  0.0534 -0.6818
  196DOPC   O1424232   1.152   0.481   3.173 -0.0109  0.1252  0.1579
  196DOPC   O1224233   1.246   0.682   3.077 -0.5928 -0.5255  0.6507
  196DOPC   O1124234   1.339   0.586   3.289 -0.5476  0.3427  0.2851
  196DOPC    C124235   1.290   0.551   3.417 -0.1658 -0.8049  0.1118
  196DOPC    HA24236   1.304   0.441   3.431 -0.6644 -0.8665  0.1310
  196DOPC    HB24237   1.180   0.563   3.424 -0.1292 -0.9196  0.9126
  196DOPC    C224238   1.346   0.652   3.525 -0.7356  0.2583  0.3584
  196DOPC    HS24239   1.337   0.754   3.483  4.3907  0.8341  0.1008
  196DOPC   O2124240   1.486   0.622   3.549  0.4804  0.3510 -0.6661
  196DOPC   C2124241   1.559   0.735   3.570 -0.0727  0.0382  1.0968
  196DOPC   O2224242   1.527   0.850   3.557 -0.2054 -0.2862 -0.2857
  196DOPC   C2224243   1.698   0.681   3.597  0.1620 -0.3618 -0.1861
  196DOPC   H2R24244   1.769   0.701   3.514 -0.1254 -1.0408 -0.6072
  196DOPC   H2S24245   1.705   0.571   3.611  2.8976 -0.3784 -1.0125
  196DOPC    C324246   1.278   0.637   3.657  0.2915  0.0585 -0.2893
  196DOPC    HX24247   1.314   0.540   3.697 -0.6965 -0.2355 -0.0940
  196DOPC    HY24248   1.168   0.635   3.644 -0.1682  1.9566  2.3258
  196DOPC   O3124249   1.309   0.741   3.753  0.2183  0.5773  0.1061
  196DOPC   C3124250   1.226   0.845   3.755  0.4039  0.8502  0.1415
  196DOPC   O3224251   1.145   0.873   3.670 -0.2227 -0.5781 -0.1517
  196DOPC   C3224252   1.242   0.917   3.886  0.5272  0.9079 -0.4039
  196DOPC   H2X24253   1.342   0.966   3.888  0.7896  0.3993  1.4913
  196DOPC   H2Y24254   1.163   0.995   3.891  1.8347  2.3724 -1.5041
  196DOPC   C2324255   1.766   0.744   3.723 -0.4436  0.5020  0.0918
  196DOPC   H3R24256   1.772   0.854   3.710 -1.0164  0.6342  0.8632
  196DOPC   H3S24257   1.865   0.695   3.735 -1.0828 -1.6569 -2.5049
  196DOPC   C2424258   1.677   0.724   3.848 -0.6317 -0.1784 -0.4428
  196DOPC   H4R24259   1.679   0.615   3.873 -0.9511  0.0139  0.4674
  196DOPC   H4S24260   1.570   0.750   3.829 -0.5455 -0.8606 -2.0168
  196DOPC   C2524261   1.733   0.804   3.970  0.2961 -0.5476 -0.5395
  196DOPC   H5R24262   1.711   0.911   3.948  1.8571 -0.2170 -0.6112
  196DOPC   H5S24263   1.843   0.791   3.967  0.4323  0.4824 -0.4700
  196DOPC   C2624264   1.676   0.758   4.101 -0.0297 -0.3258  0.0401
  196DOPC   H6R24265   1.710   0.653   4.114 -1.6712 -1.2749 -2.5017
  196DOPC   H6S24266   1.566   0.759   4.089  0.0312  0.3302 -0.5738
  196DOPC   C2724267   1.720   0.852   4.204  0.5351 -0.0805  0.0064
  196DOPC   H7R24268   1.702   0.959   4.182  2.2106  0.3858  0.7245
  196DOPC   H7S24269   1.831   0.846   4.197  0.5810  0.3292  0.3225
  196DOPC   C2824270   1.679   0.815   4.351 -0.2287 -0.8045  0.3397
  196DOPC   H8R24271   1.717   0.710   4.350 -0.2813 -0.8208 -0.0876
  196DOPC   H8S24272   1.568   0.816   4.357 -0.1851 -0.7720  1.2001
  196DOPC   C2924273   1.760   0.900   4.454  0.6048  0.7747 -0.0711
  196DOPC   H9R24274   1.852   0.949   4.420  0.9147  2.0638  2.3606
  196DOPC  C21024275   1.690   0.938   4.566  0.5847  0.0768  0.5995
  196DOPC  H10R24276   1.734   0.975   4.660 -2.4861  1.6903  1.5224
  196DOPC  C21124277   1.544   0.913   4.607 -0.0218 -0.6417 -0.1984
  196DOPC  H11R24278   1.497   0.821   4.565  0.5149 -0.7831 -0.4999
  196DOPC  H11S24279   1.485   0.993   4.558 -0.6940 -1.6511 -1.1064
  196DOPC  C21224280   1.520   0.912   4.758  0.1953 -0.4256 -0.7197
  196DOPC  H12R24281   1.581   0.991   4.807  0.5546 -1.5013  0.6304
  196DOPC  H12S24282   1.565   0.819   4.800 -1.2981 -1.9080 -2.2545
  196DOPC  C21324283   1.370   0.911   4.805  0.0356  0.7963  0.2911
  196DOPC  H13R24284   1.298   0.841   4.758 -1.6187  1.9571  1.0116
  196DOPC  H13S24285   1.335   1.013   4.780 -1.4089  0.1820 -0.2923
  196DOPC  C21424286   1.351   0.899   4.952  0.2565  0.2380  0.5481
  196DOPC  H14R24287   1.387   0.993   4.999 -1.9792  1.6119 -0.3167
  196DOPC  H14S24288   1.401   0.812   5.000 -3.3254 -1.2139  2.0673
  196DOPC  C21524289   1.207   0.880   5.002  0.1449  0.0947 -0.2690
  196DOPC  H15R24290   1.183   0.774   4.980  2.4835 -0.7099  0.6769
  196DOPC  H15S24291   1.131   0.937   4.945  0.6818 -0.1111 -1.2005
  196DOPC  C21624292   1.191   0.911   5.157  0.6023  0.1447  0.2198
  196DOPC  H16R24293   1.197   1.022   5.162 -0.5781  0.1928  0.8655
  196DOPC  H16S24294   1.279   0.875   5.216  2.3010  2.8003 -0.5129
  196DOPC  C21724295   1.058   0.877   5.209 -0.2034  1.0691  0.0130
  196DOPC  H17R24296   1.053   0.898   5.318  0.3286  0.3732  0.1825
  196DOPC  H17S24297   1.050   0.766   5.208  0.9267  0.9747  0.3597
  196DOPC  C21824298   0.937   0.938   5.146  0.6442  0.0399  0.4745
  196DOPC  H18R24299   0.922   0.907   5.041  2.2336  1.6397 -0.2868
  196DOPC  H18S24300   0.954   1.048   5.149 -0.1686  0.2077 -0.6576
  196DOPC  H18T24301   0.842   0.918   5.199  0.8533  1.0150  1.2459
  196DOPC   C3324302   1.230   0.822   4.003  0.4474  0.0200 -0.1588
  196DOPC   H3X24303   1.298   0.736   3.989  0.9149  0.3410  0.0878
  196DOPC   H3Y24304   1.127   0.782   4.012  0.6601 -0.9488 -1.6959
  196DOPC   C3424305   1.274   0.892   4.127 -0.4060 -0.8130 -0.0296
  196DOPC   H4X24306   1.210   0.982   4.118  1.2314  0.2965 -1.1127
  196DOPC   H4Y24307   1.379   0.926   4.121 -0.4399 -0.9663 -2.3967
  196DOPC   C3524308   1.254   0.813   4.258  0.2553 -1.0196  0.4317
  196DOPC   H5X24309   1.341   0.744   4.272  1.1976  0.2308  0.9579
  196DOPC   H5Y24310   1.156   0.763   4.249 -0.9247  1.0792  1.0798
  196DOPC   C3624311   1.245   0.910   4.376  0.4652 -0.1335  0.2296
  196DOPC   H6X24312   1.245   0.853   4.472 -2.5809  1.0483  1.0533
  196DOPC   H6Y24313   1.329   0.983   4.373 -0.5832  1.0811 -2.5266
  196DOPC   C3724314   1.110   0.993   4.372  0.5028  0.5480  0.4589
  196DOPC   H7X24315   1.114   1.063   4.287  0.8558  0.3209  0.2873
  196DOPC   H7Y24316   1.028   0.920   4.355  2.0615 -0.9755 -0.8699
  196DOPC   C3824317   1.080   1.077   4.501  0.0335 -0.0559  0.9285
  196DOPC   H8X24318   0.998   1.147   4.476 -0.1434 -0.7894 -0.6620
  196DOPC   H8Y24319   1.172   1.138   4.521  1.3137 -1.3040 -0.8486
  196DOPC   C3924320   1.038   0.997   4.626 -0.3121  0.2231 -0.0288
  196DOPC   H9X24321   1.098   0.905   4.635 -0.2247 -0.1663 -3.4182
  196DOPC  C31024322   0.953   1.038   4.723  0.4642 -0.2421 -0.7732
  196DOPC  H10X24323   0.933   0.970   4.807  2.1270  1.8368  1.4348
  196DOPC  C31124324   0.872   1.164   4.727  0.0087  0.4203  0.0548
  196DOPC  H11X24325   0.785   1.146   4.794  0.6192 -0.9521  0.4923
  196DOPC  H11Y24326   0.841   1.185   4.622  0.3288 -0.2453 -0.1791
  196DOPC  C31224327   0.943   1.280   4.786 -0.3350 -0.7469  0.1994
  196DOPC  H12X24328   0.884   1.373   4.771  1.3443  0.2795 -0.3998
  196DOPC  H12Y24329   1.041   1.300   4.738  0.7714 -0.2201  2.5141
  196DOPC  C31324330   0.960   1.267   4.940 -0.0840  0.5524 -0.5711
  196DOPC  H13X24331   0.872   1.211   4.979  0.5439 -1.6442 -2.0889
  196DOPC  H13Y24332   1.047   1.200   4.955 -0.5110 -0.1429 -1.0853
  196DOPC  C31424333   0.962   1.398   5.024  0.0096 -0.1526 -0.4035
  196DOPC  H14X24334   1.022   1.463   4.957 -2.9727  1.5429 -1.6144
  196DOPC  H14Y24335   0.864   1.451   5.020 -0.7921 -1.4820  0.8131
  196DOPC  C31524336   1.007   1.387   5.167 -0.8627  0.6481 -0.4904
  196DOPC  H15X24337   1.112   1.350   5.174 -0.5445  1.8154  2.0049
  196DOPC  H15Y24338   0.941   1.317   5.222 -1.9406  2.3058  0.4003
  196DOPC  C31624339   0.995   1.521   5.236  0.3967  0.3020  0.5046
  196DOPC  H16X24340   0.955   1.596   5.164 -1.6870 -1.6272 -0.4872
  196DOPC  H16Y24341   0.919   1.517   5.317  0.4881 -0.8647  0.5414
  196DOPC  C31724342   1.128   1.563   5.283  0.5651 -0.1587 -0.7152
  196DOPC  H17X24343   1.161   1.498   5.366  0.3093 -0.8624 -1.1609
  196DOPC  H17Y24344   1.203   1.553   5.202  1.6443  0.4469  0.1775
  196DOPC  C31824345   1.111   1.711   5.321  0.3205 -0.1587 -0.3820
  196DOPC  H18X24346   1.212   1.744   5.355 -0.0678  0.5053  0.1661
  196DOPC  H18Y24347   1.083   1.779   5.238  0.6258  0.8589  0.3305
  196DOPC  H18Z24348   1.050   1.727   5.412  1.6294  0.5890  0.4019
  197DOPC     N24349   3.602   6.946   3.152  0.1570  0.0146 -0.0143
  197DOPC   C1224350   3.636   7.058   3.058  0.9293 -0.0484 -0.1601
  197DOPC  H12A24351   3.723   7.109   3.098  0.4154  0.1312  0.7798
  197DOPC  H12B24352   3.556   7.129   3.075 -0.1595 -1.3979  0.5836
  197DOPC   C1324353   3.712   6.837   3.162  0.4085  0.1500 -0.5185
  197DOPC  H13A24354   3.689   6.770   3.244 -0.9741  0.3189 -0.7350
  197DOPC  H13B24355   3.713   6.779   3.071 -0.8539  1.1558 -1.2070
  197DOPC  H13C24356   3.809   6.882   3.180  0.1965  1.0118 -1.4324
  197DOPC   C1424357   3.482   6.861   3.108  0.8495 -0.0389 -0.0970
  197DOPC  H14A24358   3.493   6.818   3.010  0.7570  2.8426 -1.4580
  197DOPC  H14B24359   3.460   6.778   3.174  0.7938  1.8873  2.5105
  197DOPC  H14C24360   3.395   6.925   3.103  0.2669 -0.4868  2.5591
  197DOPC   C1524361   3.581   6.996   3.297  0.2677  0.4432  0.7413
  197DOPC  H15A24362   3.511   7.078   3.302 -2.8354 -1.8807 -0.8555
  197DOPC  H15B24363   3.667   7.030   3.353  1.4209  0.7410 -1.1145
  197DOPC  H15C24364   3.552   6.910   3.356 -0.7912  0.3048  0.0572
  197DOPC   C1124365   3.655   7.029   2.911 -0.0359 -0.0742 -0.0366
  197DOPC  H11A24366   3.562   6.997   2.858  0.5303  0.5608 -1.4534
  197DOPC  H11B24367   3.673   7.131   2.871 -2.7203  0.7778  0.7029
  197DOPC     P24368   3.912   6.976   2.906  0.0464 -0.7501 -0.4402
  197DOPC   O1324369   3.974   7.063   2.802 -0.3080  0.3428  0.3319
  197DOPC   O1424370   3.971   6.844   2.928 -0.0651  1.0723 -0.3060
  197DOPC   O1224371   3.761   6.938   2.881 -0.6814  0.1110 -0.1693
  197DOPC   O1124372   3.921   7.054   3.044  0.3472  0.6778 -0.1781
  197DOPC    C124373   4.015   7.153   3.087 -0.1036  0.3819  0.5254
  197DOPC    HA24374   3.956   7.232   3.137  0.3037  1.6602 -0.9570
  197DOPC    HB24375   4.069   7.199   3.002  0.3977  1.3296  1.3387
  197DOPC    C224376   4.119   7.092   3.187 -0.2939 -0.0651  0.5568
  197DOPC    HS24377   4.168   7.001   3.145 -0.6450 -0.8787  1.8666
  197DOPC   O2124378   4.055   7.067   3.310  0.1534 -0.2920  0.4686
  197DOPC   C2124379   4.017   6.940   3.331 -0.0603  0.3573 -0.4899
  197DOPC   O2224380   4.040   6.842   3.263 -0.3003  0.2671  0.0009
  197DOPC   C2224381   3.965   6.928   3.471 -0.1281 -1.1344 -0.6108
  197DOPC   H2R24382   3.856   6.951   3.472  0.3237  1.2205 -0.2050
  197DOPC   H2S24383   3.994   7.013   3.536 -0.0213 -0.1674 -1.8761
  197DOPC    C324384   4.246   7.197   3.201  0.1933  0.6200  0.0393
  197DOPC    HX24385   4.209   7.302   3.198 -2.2255 -0.1936 -1.8281
  197DOPC    HY24386   4.300   7.193   3.104  0.9717  3.1689  0.2805
  197DOPC   O3124387   4.329   7.178   3.314  0.0227  0.5273 -0.6276
  197DOPC   C3124388   4.414   7.080   3.302 -0.1552 -0.7194 -0.2858
  197DOPC   O3224389   4.408   7.000   3.212 -0.1714 -0.2648 -0.0746
  197DOPC   C3224390   4.508   7.076   3.421  0.8390  0.3855  0.1676
  197DOPC   H2X24391   4.580   7.161   3.415  1.5362  0.1154  3.2823
  197DOPC   H2Y24392   4.454   7.103   3.514 -0.3921  0.1462 -0.4643
  197DOPC   C2324393   3.996   6.791   3.539 -0.3860  0.1401  0.3024
  197DOPC   H3R24394   4.106   6.791   3.555 -0.6531  1.1493  2.5519
  197DOPC   H3S24395   3.970   6.707   3.471 -0.2412 -0.7545  1.3233
  197DOPC   C2424396   3.905   6.775   3.661  0.0562  0.1328 -0.2437
  197DOPC   H4R24397   3.900   6.672   3.703 -0.0494  0.9179  1.7681
  197DOPC   H4S24398   3.799   6.793   3.633  0.1204  0.7852 -0.0820
  197DOPC   C2524399   3.945   6.867   3.779  0.3527 -0.4549  0.2936
  197DOPC   H5R24400   3.937   6.972   3.744 -2.6904 -1.5249 -2.8433
  197DOPC   H5S24401   4.052   6.842   3.794  0.7051 -0.5265 -2.0246
  197DOPC   C2624402   3.847   6.863   3.899  0.2418  0.3198 -0.1338
  197DOPC   H6R24403   3.750   6.910   3.871 -0.0787 -0.1876  0.1208
  197DOPC   H6S24404   3.884   6.944   3.966  0.8464  3.0801 -3.4543
  197DOPC   C2724405   3.838   6.734   3.980  0.1666  0.3123  0.4475
  197DOPC   H7R24406   3.940   6.708   4.015  0.7494  1.3577 -0.4051
  197DOPC   H7S24407   3.813   6.663   3.898  0.6766  0.5819  0.0460
  197DOPC   C2824408   3.732   6.730   4.087 -0.6536  0.0637 -0.4567
  197DOPC   H8R24409   3.630   6.753   4.050 -1.1493 -2.2104 -0.6508
  197DOPC   H8S24410   3.760   6.808   4.162 -0.2909  0.9809 -1.5143
  197DOPC   C2924411   3.725   6.584   4.142 -0.0747 -0.4133 -0.7015
  197DOPC   H9R24412   3.694   6.509   4.067 -0.2282  0.8529 -1.9545
  197DOPC  C21024413   3.773   6.545   4.259  0.2598  0.2516  0.6986
  197DOPC  H10R24414   3.773   6.440   4.292  2.0675  0.0396  0.1276
  197DOPC  C21124415   3.835   6.632   4.364 -0.1450 -0.2883  0.0892
  197DOPC  H11R24416   3.767   6.668   4.444  1.4468  0.6976  1.0619
  197DOPC  H11S24417   3.864   6.733   4.329  1.0456 -0.2840  1.0069
  197DOPC  C21224418   3.950   6.563   4.443 -0.1596 -0.1490  0.1262
  197DOPC  H12R24419   4.042   6.583   4.384 -0.6139 -0.1275 -0.5936
  197DOPC  H12S24420   3.943   6.452   4.432 -1.1004 -0.1363  0.5179
  197DOPC  C21324421   3.968   6.614   4.591  0.0184  0.0196 -0.1780
  197DOPC  H13R24422   3.871   6.611   4.645  0.2084 -0.5610  0.1439
  197DOPC  H13S24423   4.008   6.717   4.597  0.2154  0.0892 -2.2214
  197DOPC  C21424424   4.069   6.524   4.661 -0.0931 -0.2772 -0.5284
  197DOPC  H14R24425   4.172   6.532   4.621 -0.8534  0.4524 -2.4854
  197DOPC  H14S24426   4.035   6.418   4.655  0.4830 -0.5290  0.4024
  197DOPC  C21524427   4.071   6.558   4.817 -0.1118 -0.6663  0.3917
  197DOPC  H15R24428   3.974   6.537   4.865 -1.1500  2.5628 -0.0290
  197DOPC  H15S24429   4.097   6.666   4.828  1.2505 -1.0168  0.8007
  197DOPC  C21624430   4.195   6.490   4.897  0.3962 -0.0349 -0.6684
  197DOPC  H16R24431   4.187   6.379   4.891 -2.0641 -0.0159  0.7598
  197DOPC  H16S24432   4.183   6.523   5.003 -0.0954  1.3042 -1.1235
  197DOPC  C21724433   4.327   6.541   4.850  0.6853  0.0521 -0.0793
  197DOPC  H17R24434   4.316   6.649   4.826  0.1240 -0.2792 -1.4469
  197DOPC  H17S24435   4.345   6.482   4.757 -0.8966 -0.6849  0.0528
  197DOPC  C21824436   4.438   6.529   4.953  0.2012  0.1779  0.5842
  197DOPC  H18R24437   4.410   6.603   5.031 -2.6550 -0.4915  0.3148
  197DOPC  H18S24438   4.535   6.565   4.913 -0.9426  1.2480 -1.3920
  197DOPC  H18T24439   4.443   6.428   4.998 -2.5251 -0.4951 -0.4091
  197DOPC   C3324440   4.586   6.944   3.443 -0.1237 -0.4549 -0.1554
  197DOPC   H3X24441   4.638   6.963   3.540 -2.2429 -2.9239  1.6173
  197DOPC   H3Y24442   4.656   6.927   3.359 -0.8005 -1.8620 -0.4620
  197DOPC   C3424443   4.490   6.828   3.472 -0.0705 -0.1576 -0.9694
  197DOPC   H4X24444   4.554   6.745   3.510  0.2078 -0.0209 -1.1336
  197DOPC   H4Y24445   4.448   6.777   3.383  1.5109 -2.1622 -0.6596
  197DOPC   C3524446   4.376   6.847   3.584  0.5484 -0.9446 -0.3510
  197DOPC   H5X24447   4.313   6.756   3.584  0.8314 -1.1762  1.0237
  197DOPC   H5Y24448   4.315   6.934   3.552  4.7456  2.0556 -1.0106
  197DOPC   C3624449   4.445   6.875   3.725  0.4483  0.4949  0.4249
  197DOPC   H6X24450   4.506   6.783   3.737 -0.4021 -0.0395  0.7826
  197DOPC   H6Y24451   4.502   6.970   3.724 -1.5351  1.7505  0.3803
  197DOPC   C3724452   4.337   6.889   3.836  0.1571 -0.4782 -0.4424
  197DOPC   H7X24453   4.271   6.973   3.809  0.5422 -0.3299 -0.9383
  197DOPC   H7Y24454   4.275   6.797   3.834 -0.4142 -0.0984 -0.2057
  197DOPC   C3824455   4.390   6.912   3.980 -0.3092  0.3838  0.1923
  197DOPC   H8X24456   4.459   6.999   3.982  0.2076 -0.0203  0.2766
  197DOPC   H8Y24457   4.456   6.830   4.016 -1.1193  0.0605  0.9613
  197DOPC   C3924458   4.296   6.939   4.093 -0.2822 -0.3652  0.5993
  197DOPC   H9X24459   4.261   7.043   4.092 -2.2105 -0.9539 -1.5312
  197DOPC  C31024460   4.244   6.848   4.177 -0.2620 -0.0577 -0.8592
  197DOPC  H10X24461   4.173   6.876   4.256  1.8198 -0.7412  1.4099
  197DOPC  C31124462   4.271   6.701   4.163 -0.4400  0.0089 -0.3192
  197DOPC  H11X24463   4.293   6.675   4.057 -2.3176 -1.1853 -0.4497
  197DOPC  H11Y24464   4.184   6.642   4.198 -1.1328  2.0441  1.6540
  197DOPC  C31224465   4.395   6.661   4.250  0.4180  0.5683 -0.4995
  197DOPC  H12X24466   4.372   6.686   4.356  0.3703 -0.9628 -0.1355
  197DOPC  H12Y24467   4.481   6.727   4.225  1.5514 -0.9589 -0.7544
  197DOPC  C31324468   4.433   6.510   4.239  0.1926  0.0996  0.0752
  197DOPC  H13X24469   4.510   6.499   4.319  0.9519  1.6048 -0.4165
  197DOPC  H13Y24470   4.340   6.454   4.263 -1.1111  1.9248 -0.5084
  197DOPC  C31424471   4.492   6.468   4.104 -0.2916  1.4466  0.5012
  197DOPC  H14X24472   4.530   6.365   4.120 -0.9400  1.2546  0.8428
  197DOPC  H14Y24473   4.415   6.462   4.025 -2.5722  0.4884  2.6389
  197DOPC  C31524474   4.615   6.549   4.062  0.3032  0.9881 -0.4201
  197DOPC  H15X24475   4.683   6.539   4.150  2.1678  0.8028 -1.8229
  197DOPC  H15Y24476   4.595   6.656   4.045  1.6454  1.5891  1.3715
  197DOPC  C31624477   4.692   6.487   3.954  0.2094  0.7888  0.2972
  197DOPC  H16X24478   4.793   6.533   3.951  0.3473  0.4433 -1.8076
  197DOPC  H16Y24479   4.702   6.377   3.966  1.2739  0.8697  0.2245
  197DOPC  C31724480   4.634   6.524   3.819 -0.3219  0.3379  0.4768
  197DOPC  H17X24481   4.531   6.484   3.810  0.4279 -1.5979 -0.0104
  197DOPC  H17Y24482   4.617   6.633   3.810 -0.7291  0.1482 -1.9566
  197DOPC  C31824483   4.724   6.476   3.704  0.2412  0.4291  0.9813
  197DOPC  H18X24484   4.712   6.365   3.701  0.5506  0.4016  0.7044
  197DOPC  H18Y24485   4.682   6.513   3.608  1.3377 -1.1382 -0.1806
  197DOPC  H18Z24486   4.830   6.509   3.712  0.1710  1.5010 -1.5453
  198DOPC     N24487   0.036   6.454   2.633 -0.6509 -0.2084  0.0249
  198DOPC   C1224488   0.104   6.407   2.762 -0.1131 -0.1867  0.4140
  198DOPC  H12A24489   0.167   6.323   2.739 -0.9190 -0.5728 -0.4751
  198DOPC  H12B24490   0.033   6.361   2.829  0.0383  0.2730  0.9021
  198DOPC   C1324491  -0.072   6.557   2.652 -0.3174 -0.1973  0.4673
  198DOPC  H13A24492  -0.113   6.585   2.556 -0.2531 -2.9013 -0.4247
  198DOPC  H13B24493  -0.153   6.511   2.706 -1.2931 -0.7121 -1.3475
  198DOPC  H13C24494  -0.046   6.646   2.708 -2.8230  0.2724  1.0176
  198DOPC   C1424495  -0.027   6.337   2.571 -0.0461 -0.2174  0.3085
  198DOPC  H14A24496   0.048   6.263   2.545  1.6708  0.2955  3.3000
  198DOPC  H14B24497  -0.108   6.288   2.623 -0.5892  0.0864 -0.2398
  198DOPC  H14C24498  -0.078   6.363   2.480 -0.2453 -0.1009  0.4524
  198DOPC   C1524499   0.146   6.506   2.548 -0.2229 -0.2192  0.0111
  198DOPC  H15A24500   0.115   6.504   2.445  1.9960  0.8445 -0.7467
  198DOPC  H15B24501   0.241   6.456   2.560  0.1567  0.4670 -0.0753
  198DOPC  H15C24502   0.154   6.610   2.576 -0.2765  0.0217 -0.8372
  198DOPC   C1124503   0.168   6.509   2.856 -0.5006 -0.6721 -0.1929
  198DOPC  H11A24504   0.228   6.455   2.933 -1.9888 -0.3805  1.2314
  198DOPC  H11B24505   0.222   6.592   2.805 -0.5600  1.1099  2.4283
  198DOPC     P24506   0.000   6.516   3.065 -0.3547 -0.3659  0.5485
  198DOPC   O1324507  -0.086   6.407   3.021 -0.7981  0.0398 -0.0657
  198DOPC   O1424508  -0.068   6.623   3.141  0.3230 -0.0062 -0.0133
  198DOPC   O1224509   0.070   6.585   2.934 -0.2134 -0.0697  0.1444
  198DOPC   O1124510   0.120   6.466   3.141  0.0943  0.0382  0.2894
  198DOPC    C124511   0.219   6.553   3.198  0.6361 -0.9653  0.0505
  198DOPC    HA24512   0.163   6.620   3.267  0.4485  0.2760 -1.2640
  198DOPC    HB24513   0.269   6.619   3.124  1.0055 -1.9893 -0.6260
  198DOPC    C224514   0.320   6.484   3.288  0.3477  0.2756  0.4657
  198DOPC    HS24515   0.391   6.434   3.218  0.4162 -0.5000  1.0727
  198DOPC   O2124516   0.257   6.383   3.373  0.9142 -0.1195  0.5622
  198DOPC   C2124517   0.338   6.289   3.413  0.3830  0.3024  0.6738
  198DOPC   O2224518   0.458   6.281   3.403 -0.3558  0.7675 -0.1254
  198DOPC   C2224519   0.258   6.175   3.470  0.2799 -0.1095  0.0102
  198DOPC   H2R24520   0.313   6.088   3.429 -0.0233 -0.0984 -0.4278
  198DOPC   H2S24521   0.156   6.180   3.426  0.2095  1.0881  0.2855
  198DOPC    C324522   0.398   6.580   3.385  0.0479 -0.3888  0.5906
  198DOPC    HX24523   0.446   6.658   3.321 -1.5718  0.9770  0.9746
  198DOPC    HY24524   0.481   6.529   3.440  2.5911  1.8911 -0.8409
  198DOPC   O3124525   0.311   6.638   3.483 -0.5139  0.5883 -0.3622
  198DOPC   C3124526   0.287   6.769   3.479  0.0482 -0.7398 -0.8383
  198DOPC   O3224527   0.337   6.851   3.407  0.1556  0.2737  0.5279
  198DOPC   C3224528   0.180   6.798   3.593  0.8827 -0.6035 -0.2798
  198DOPC   H2X24529   0.079   6.785   3.549  0.0449 -1.3609  1.7256
  198DOPC   H2Y24530   0.179   6.713   3.665 -2.0552 -1.1955 -0.8997
  198DOPC   C2324531   0.261   6.163   3.623  0.8124 -0.2016 -0.2269
  198DOPC   H3R24532   0.202   6.246   3.669 -0.1594 -0.9699 -0.0611
  198DOPC   H3S24533   0.365   6.166   3.662  0.6394  3.3773  0.3317
  198DOPC   C2424534   0.181   6.036   3.658  0.4041 -0.2262  0.2960
  198DOPC   H4R24535   0.247   5.956   3.618  0.5216  0.5296 -1.0605
  198DOPC   H4S24536   0.091   6.056   3.597  1.6059 -0.7162 -1.7123
  198DOPC   C2524537   0.146   6.011   3.800  0.2591 -1.3036 -0.2561
  198DOPC   H5R24538   0.089   6.092   3.851  0.2681 -0.4628 -1.5326
  198DOPC   H5S24539   0.240   6.007   3.858  0.1461 -0.9655 -0.0471
  198DOPC   C2624540   0.072   5.876   3.822 -0.0038 -0.4402 -0.0712
  198DOPC   H6R24541   0.056   5.865   3.931 -1.5975  0.1091 -0.2211
  198DOPC   H6S24542   0.130   5.791   3.780 -0.6139 -1.9077  1.9282
  198DOPC   C2724543  -0.072   5.862   3.768 -0.4010 -0.2169 -0.0813
  198DOPC   H7R24544  -0.111   5.771   3.818  0.5250  0.5768  2.2274
  198DOPC   H7S24545  -0.066   5.840   3.659 -1.0630 -1.1226  0.0573
  198DOPC   C2824546  -0.165   5.986   3.793 -0.0788 -0.6565 -0.5549
  198DOPC   H8R24547  -0.129   6.074   3.735  1.5154  0.4904  1.9827
  198DOPC   H8S24548  -0.159   6.017   3.900  0.4457 -0.3203 -0.6777
  198DOPC   C2924549  -0.308   5.964   3.756 -0.0174  0.6673  0.2663
  198DOPC   H9R24550  -0.313   5.949   3.647 -0.8248  0.2430  0.3609
  198DOPC  C21024551  -0.419   5.963   3.831  0.0065 -0.1102  0.8103
  198DOPC  H10R24552  -0.515   5.952   3.778  0.8431  3.5562 -1.8264
  198DOPC  C21124553  -0.441   5.981   3.976  0.5309 -0.0542 -0.3210
  198DOPC  H11R24554  -0.380   6.060   4.024 -0.4554 -0.5840  1.9237
  198DOPC  H11S24555  -0.423   5.889   4.036 -0.9017 -0.1166  0.0486
  198DOPC  C21224556  -0.589   6.015   4.016  0.2153 -0.3696 -0.4440
  198DOPC  H12R24557  -0.646   6.067   3.936 -0.9674  1.7386  1.6508
  198DOPC  H12S24558  -0.591   6.077   4.108 -0.2952  0.1148 -0.7768
  198DOPC  C21324559  -0.674   5.881   4.032  0.2241  0.4045 -0.0986
  198DOPC  H13R24560  -0.623   5.817   4.106 -1.5926 -0.5094  0.4335
  198DOPC  H13S24561  -0.679   5.829   3.934 -0.1797 -0.8048  0.5393
  198DOPC  C21424562  -0.817   5.919   4.077  0.0614  0.2628  0.1669
  198DOPC  H14R24563  -0.843   6.008   4.016  0.9766  1.6784  1.7442
  198DOPC  H14S24564  -0.799   5.964   4.177  1.7661 -0.8549  0.4061
  198DOPC  C21524565  -0.925   5.813   4.077 -0.9736 -0.7370  0.7558
  198DOPC  H15R24566  -0.894   5.729   4.142  0.6879 -0.8985 -0.1774
  198DOPC  H15S24567  -0.936   5.778   3.972 -0.4262  4.1597 -1.2244
  198DOPC  C21624568  -1.065   5.874   4.122 -0.0858  0.1712 -0.6651
  198DOPC  H16R24569  -1.139   5.792   4.113  0.8235 -0.4187 -3.7044
  198DOPC  H16S24570  -1.091   5.949   4.044 -0.0809 -0.7005 -1.5066
  198DOPC  C21724571  -1.064   5.930   4.269  0.4262 -0.4519 -0.0654
  198DOPC  H17R24572  -0.964   5.971   4.289  0.2127  0.5625 -0.9718
  198DOPC  H17S24573  -1.090   5.851   4.343 -0.9665 -0.0871 -0.1276
  198DOPC  C21824574  -1.172   6.036   4.296  0.2571 -0.2870  0.2512
  198DOPC  H18R24575  -1.272   5.991   4.284  1.2862 -2.4567 -0.8614
  198DOPC  H18S24576  -1.173   6.119   4.222  0.9484 -0.5510 -0.0687
  198DOPC  H18T24577  -1.170   6.072   4.401 -5.3848 -0.6144  0.7652
  198DOPC   C3324578   0.194   6.936   3.655 -0.6084  0.3630 -0.0272
  198DOPC   H3X24579   0.095   6.959   3.700 -1.7533 -2.2855 -0.9884
  198DOPC   H3Y24580   0.202   7.024   3.587 -0.9817  0.0915 -0.4244
  198DOPC   C3424581   0.302   6.939   3.756  0.3677 -0.8220 -0.2423
  198DOPC   H4X24582   0.400   6.952   3.704 -0.1146  3.1410 -0.5334
  198DOPC   H4Y24583   0.292   6.848   3.818 -0.4862  0.4475  1.5617
  198DOPC   C3524584   0.277   7.048   3.853 -0.1504  0.1782  0.1964
  198DOPC   H5X24585   0.169   7.046   3.881 -0.7244  0.7178 -1.8149
  198DOPC   H5Y24586   0.304   7.142   3.799  2.5472 -1.8398 -2.2644
  198DOPC   C3624587   0.376   7.047   3.978  0.4933  0.3180 -0.1534
  198DOPC   H6X24588   0.346   7.128   4.049  1.2459 -1.3393  2.1655
  198DOPC   H6Y24589   0.373   6.954   4.039  0.2442 -0.8996 -1.9675
  198DOPC   C3724590   0.527   7.067   3.950  0.2907  0.3755  0.6571
  198DOPC   H7X24591   0.573   6.977   3.903  1.2294  1.7253 -1.1284
  198DOPC   H7Y24592   0.548   7.150   3.880 -1.7564  0.2553 -0.1791
  198DOPC   C3824593   0.598   7.103   4.084 -0.2557 -0.5771 -0.4096
  198DOPC   H8X24594   0.551   7.191   4.133 -0.4392  1.0802 -3.3373
  198DOPC   H8Y24595   0.700   7.126   4.046 -1.5549  1.1904 -3.1789
  198DOPC   C3924596   0.608   6.985   4.172  0.2244  0.2430 -0.8276
  198DOPC   H9X24597   0.664   6.900   4.129  0.7438  0.5022 -0.6689
  198DOPC  C31024598   0.563   6.970   4.298 -0.1692  0.4014  0.1928
  198DOPC  H10X24599   0.595   6.884   4.358  0.4669  0.9519  0.6703
  198DOPC  C31124600   0.470   7.055   4.383  0.7736  0.9714  0.6045
  198DOPC  H11X24601   0.378   6.997   4.406  0.2675  1.2877 -0.5707
  198DOPC  H11Y24602   0.434   7.146   4.331  0.5697  1.8224  2.2051
  198DOPC  C31224603   0.527   7.105   4.513 -0.5526  0.4235  1.0428
  198DOPC  H12X24604   0.469   7.189   4.557  0.4199  1.8713 -0.3117
  198DOPC  H12Y24605   0.633   7.135   4.497  0.3130 -2.6549  0.5166
  198DOPC  C31324606   0.535   7.007   4.623 -1.0150  1.2975 -0.1264
  198DOPC  H13X24607   0.580   6.914   4.582 -1.6927  0.4541  0.9675
  198DOPC  H13Y24608   0.601   7.053   4.699 -2.8643  2.5839  0.7700
  198DOPC  C31424609   0.401   6.977   4.691  0.5896  0.0578 -0.0642
  198DOPC  H14X24610   0.362   7.070   4.736 -1.5934 -0.8492  0.0110
  198DOPC  H14Y24611   0.332   6.945   4.610  1.4724  2.6482 -1.9817
  198DOPC  C31524612   0.408   6.864   4.797  0.0621  0.1074  0.3460
  198DOPC  H15X24613   0.443   6.779   4.734  2.4541  0.9097  0.4837
  198DOPC  H15Y24614   0.311   6.842   4.846  0.9770 -0.9545  1.7645
  198DOPC  C31624615   0.526   6.896   4.896 -0.1991  0.2109 -0.7064
  198DOPC  H16X24616   0.620   6.898   4.837  0.2040 -1.6353 -0.1740
  198DOPC  H16Y24617   0.510   6.998   4.938  3.6575  2.1073 -3.1905
  198DOPC  C31724618   0.513   6.787   5.004  0.0568 -0.4078 -0.1255
  198DOPC  H17X24619   0.405   6.773   5.028 -0.2181  0.8038 -0.5612
  198DOPC  H17Y24620   0.544   6.692   4.954  0.1966  0.7572 -2.4258
  198DOPC  C31824621   0.596   6.806   5.125  1.0083 -0.3054 -0.5603
  198DOPC  H18X24622   0.704   6.806   5.100  1.4367  1.7532  0.9323
  198DOPC  H18Y24623   0.579   6.905   5.175  0.8705 -0.7723  0.3377
  198DOPC  H18Z24624   0.584   6.725   5.200  1.7450  1.2291  1.3163
  199DOPC     N24625   7.172   6.909   3.012  0.0307 -0.2739  0.2109
  199DOPC   C1224626   7.130   6.926   3.164  0.1013 -0.0279 -0.4302
  199DOPC  H12A24627   7.107   7.028   3.188  2.0553  0.2041  0.7564
  199DOPC  H12B24628   7.208   6.889   3.231  1.1296 -1.1357 -2.1544
  199DOPC   C1324629   7.079   6.985   2.920  0.3218 -0.4391 -0.2884
  199DOPC  H13A24630   6.979   6.962   2.956 -0.3583 -0.5155 -2.1312
  199DOPC  H13B24631   7.104   7.090   2.919  0.5112 -0.4912 -0.9252
  199DOPC  H13C24632   7.084   6.950   2.818  0.0383 -0.0671 -0.4326
  199DOPC   C1424633   7.174   6.766   2.968 -0.3306 -0.6626  0.0339
  199DOPC  H14A24634   7.232   6.753   2.878 -0.1037 -1.4721  0.2869
  199DOPC  H14B24635   7.219   6.697   3.038 -0.3328  0.9371  1.7025
  199DOPC  H14C24636   7.073   6.728   2.963 -1.3078  1.0706  3.5699
  199DOPC   C1524637   7.313   6.964   2.998  0.1833 -0.3484 -0.5080
  199DOPC  H15A24638   7.357   6.967   2.899  2.6880 -1.2614  0.4984
  199DOPC  H15B24639   7.378   6.900   3.055 -0.6987  0.2370  1.1963
  199DOPC  H15C24640   7.316   7.059   3.050 -0.1343 -0.8939  0.5214
  199DOPC   C1124641   7.014   6.842   3.215  0.0521 -0.0170 -0.4764
  199DOPC  H11A24642   7.048   6.737   3.223  0.2588 -0.0072 -1.1564
  199DOPC  H11B24643   7.005   6.863   3.324  1.1931 -0.8003 -0.2111
  199DOPC     P24644   6.788   6.762   3.127  0.6957  0.0391 -0.4095
  199DOPC   O1324645   6.842   6.632   3.074  0.1922  0.4903  0.2264
  199DOPC   O1424646   6.684   6.834   3.053  0.1611  0.6500  0.4969
  199DOPC   O1224647   6.904   6.868   3.137 -0.2248  0.6478 -0.2921
  199DOPC   O1124648   6.745   6.748   3.285 -0.2634 -0.1573  0.1471
  199DOPC    C124649   6.792   6.640   3.363  0.4504 -0.6904  0.1089
  199DOPC    HA24650   6.903   6.635   3.356  0.5196  1.3622 -1.0685
  199DOPC    HB24651   6.755   6.543   3.324  0.4076 -0.4453 -0.4704
  199DOPC    C224652   6.751   6.661   3.513 -0.1415 -0.4205 -0.2468
  199DOPC    HS24653   6.643   6.652   3.537  0.2566  0.0867  1.9310
  199DOPC   O2124654   6.797   6.790   3.554  0.3207  0.0640  0.7902
  199DOPC   C2124655   6.716   6.895   3.527 -0.2131  0.5897 -0.0208
  199DOPC   O2224656   6.605   6.880   3.475  0.4368 -0.1227  0.0359
  199DOPC   C2224657   6.779   7.028   3.561 -0.5067 -0.2165 -0.1432
  199DOPC   H2R24658   6.799   7.087   3.468  0.5612 -1.9096 -1.0423
  199DOPC   H2S24659   6.875   7.010   3.615 -1.1887 -2.7113  0.3449
  199DOPC    C324660   6.818   6.551   3.594  0.0061 -0.6891 -0.6659
  199DOPC    HX24661   6.759   6.457   3.585 -0.2334 -0.4633 -1.6206
  199DOPC    HY24662   6.800   6.586   3.698 -2.2684 -1.5815 -0.6942
  199DOPC   O3124663   6.960   6.532   3.574  0.0297  0.0380 -0.6323
  199DOPC   C3124664   7.002   6.417   3.581 -0.2424  0.0484  0.3508
  199DOPC   O3224665   6.941   6.311   3.585 -0.2971  0.7160  0.0940
  199DOPC   C3224666   7.157   6.429   3.573 -0.3768  0.9541 -0.4086
  199DOPC   H2X24667   7.203   6.416   3.473  0.4260 -1.4176  0.2022
  199DOPC   H2Y24668   7.189   6.528   3.612 -2.4005  1.4177  0.1744
  199DOPC   C2324669   6.680   7.109   3.650 -0.4535  0.3284  0.9497
  199DOPC   H3R24670   6.577   7.126   3.611 -0.2010 -0.3903 -0.0526
  199DOPC   H3S24671   6.724   7.211   3.655  2.8231 -0.8377 -1.2190
  199DOPC   C2424672   6.674   7.047   3.789 -0.5659 -0.1809 -0.5106
  199DOPC   H4R24673   6.774   7.017   3.828 -1.1329  0.2185  1.3272
  199DOPC   H4S24674   6.634   6.943   3.788  1.4472 -1.0082  0.2876
  199DOPC   C2524675   6.584   7.128   3.893  0.1858  0.1266 -0.5011
  199DOPC   H5R24676   6.481   7.128   3.852 -0.2305 -2.5342  0.4135
  199DOPC   H5S24677   6.610   7.235   3.910  2.7790 -0.5445  0.1296
  199DOPC   C2624678   6.581   7.066   4.037 -0.1815 -0.7190 -0.2169
  199DOPC   H6R24679   6.543   6.962   4.034 -0.1229 -0.8850  2.3649
  199DOPC   H6S24680   6.512   7.132   4.095 -0.6004 -1.1142 -0.2584
  199DOPC   C2724681   6.718   7.074   4.110  0.2232 -0.4048  0.3907
  199DOPC   H7R24682   6.766   7.174   4.106 -1.7935  0.6208  0.4758
  199DOPC   H7S24683   6.789   7.019   4.045 -0.1462 -2.5565  1.7235
  199DOPC   C2824684   6.717   7.017   4.249 -0.1201 -0.4068  0.0695
  199DOPC   H8R24685   6.656   7.081   4.316 -2.2605 -2.1021 -0.1428
  199DOPC   H8S24686   6.821   7.021   4.288  0.0900 -2.9721 -0.0748
  199DOPC   C2924687   6.669   6.877   4.266  0.3636 -0.2178  0.1272
  199DOPC   H9R24688   6.751   6.805   4.265 -0.1242 -0.7735 -1.1936
  199DOPC  C21024689   6.545   6.832   4.295 -0.0710 -0.0108  0.0076
  199DOPC  H10R24690   6.530   6.727   4.323 -0.1525 -0.0549 -0.1972
  199DOPC  C21124691   6.416   6.914   4.306 -0.2624 -0.5691 -0.3208
  199DOPC  H11R24692   6.367   6.926   4.207 -0.5497 -0.7455 -0.2017
  199DOPC  H11S24693   6.428   7.018   4.344 -1.7898 -0.9806  1.4257
  199DOPC  C21224694   6.322   6.867   4.420  0.7830  0.0413 -0.3663
  199DOPC  H12R24695   6.294   6.762   4.399 -0.4429  0.0456  1.0681
  199DOPC  H12S24696   6.228   6.925   4.408 -0.1060 -1.0339  1.0501
  199DOPC  C21324697   6.376   6.868   4.564 -0.6759 -0.1432 -0.4909
  199DOPC  H13R24698   6.411   6.966   4.603  0.0897 -1.1747  1.5602
  199DOPC  H13S24699   6.466   6.803   4.562 -0.1775  0.3940  1.6714
  199DOPC  C21424700   6.287   6.789   4.660 -0.3063 -0.7084  0.1344
  199DOPC  H14R24701   6.232   6.718   4.595 -0.9672  0.0448 -0.1470
  199DOPC  H14S24702   6.207   6.854   4.700 -2.8579 -3.0632 -0.8635
  199DOPC  C21524703   6.363   6.720   4.771 -0.4249 -0.5507 -0.5275
  199DOPC  H15R24704   6.423   6.796   4.826 -2.4667  0.4432  0.4477
  199DOPC  H15S24705   6.443   6.665   4.717  0.1699  1.2715 -1.6193
  199DOPC  C21624706   6.286   6.624   4.866  0.5210 -0.0561 -0.2429
  199DOPC  H16R24707   6.234   6.549   4.803 -1.6857  1.1861 -0.0123
  199DOPC  H16S24708   6.208   6.686   4.915  0.5577  0.2460 -0.5624
  199DOPC  C21724709   6.387   6.584   4.981  0.0819 -0.7821 -0.5619
  199DOPC  H17R24710   6.487   6.577   4.932  1.4779  1.6391  1.6701
  199DOPC  H17S24711   6.349   6.492   5.029  0.7806  0.4360  2.5122
  199DOPC  C21824712   6.377   6.674   5.103 -0.1276 -0.2762  0.0431
  199DOPC  H18R24713   6.461   6.668   5.177  1.0569  0.7563 -1.1655
  199DOPC  H18S24714   6.286   6.654   5.164 -1.0811 -1.9196 -1.8455
  199DOPC  H18T24715   6.362   6.774   5.057  0.1988 -0.5131 -0.5954
  199DOPC   C3324716   7.226   6.318   3.659 -0.1496  0.4860  0.0168
  199DOPC   H3X24717   7.212   6.220   3.608 -0.4201 -0.2111  1.3895
  199DOPC   H3Y24718   7.171   6.308   3.755  2.9924 -0.0619  1.8773
  199DOPC   C3424719   7.376   6.347   3.663 -0.6054  0.2118  0.5482
  199DOPC   H4X24720   7.408   6.335   3.558  1.9130 -1.3495  1.3973
  199DOPC   H4Y24721   7.434   6.269   3.717 -3.5897 -2.1595  0.6133
  199DOPC   C3524722   7.435   6.480   3.717 -0.8383 -0.3514 -0.3919
  199DOPC   H5X24723   7.368   6.509   3.801  1.0586  0.0713  1.0233
  199DOPC   H5Y24724   7.441   6.557   3.638 -0.3232  0.9616  0.8994
  199DOPC   C3624725   7.580   6.465   3.772  0.2578 -0.5248  0.0949
  199DOPC   H6X24726   7.584   6.404   3.864 -2.8927  2.1762  2.2388
  199DOPC   H6Y24727   7.642   6.410   3.698  0.6759  0.5731 -0.3917
  199DOPC   C3724728   7.622   6.608   3.807 -0.5844 -0.0835 -0.6624
  199DOPC   H7X24729   7.612   6.682   3.724 -0.8100  1.0878  0.3847
  199DOPC   H7Y24730   7.559   6.648   3.889  1.8176 -0.1641  1.3442
  199DOPC   C3824731   7.750   6.603   3.898 -0.1186 -0.5774  0.8933
  199DOPC   H8X24732   7.840   6.576   3.839  0.6125  1.3237  1.0302
  199DOPC   H8Y24733   7.743   6.516   3.966  1.2681 -1.4680 -0.0621
  199DOPC   C3924734   7.789   6.734   3.968  0.5889  0.2452 -0.1339
  199DOPC   H9X24735   7.797   6.828   3.912  1.3315  0.7436  0.7702
  199DOPC  C31024736   7.829   6.744   4.091 -0.1386  0.0233 -0.4453
  199DOPC  H10X24737   7.853   6.847   4.122 -1.0627 -0.1317  0.8757
  199DOPC  C31124738   7.855   6.630   4.192  0.2010 -0.6608  0.3891
  199DOPC  H11X24739   7.809   6.532   4.168  0.8406 -0.8330 -0.1619
  199DOPC  H11Y24740   7.810   6.672   4.284  0.2352  1.0778 -0.3420
  199DOPC  C31224741   7.993   6.614   4.248 -0.1536 -0.4275 -0.1624
  199DOPC  H12X24742   8.049   6.706   4.276  0.4685 -1.2950  1.6086
  199DOPC  H12Y24743   8.059   6.571   4.169 -0.4498  0.5246 -0.9530
  199DOPC  C31324744   7.993   6.523   4.376 -0.0575  0.5230  0.7362
  199DOPC  H13X24745   7.915   6.565   4.444  0.1353  3.3773 -0.6487
  199DOPC  H13Y24746   7.959   6.421   4.346  0.9619 -0.1219  1.7073
  199DOPC  C31424747   8.127   6.522   4.451  0.0355 -0.6374  0.4905
  199DOPC  H14X24748   8.201   6.488   4.375  0.3725  2.0724 -0.5014
  199DOPC  H14Y24749   8.169   6.622   4.475  0.1237 -0.7703  0.9085
  199DOPC  C31524750   8.118   6.442   4.578  0.4964 -0.1717  0.2957
  199DOPC  H15X24751   8.219   6.402   4.602 -0.4015 -2.2351  0.8753
  199DOPC  H15Y24752   8.060   6.349   4.565  1.7523 -0.6675 -2.6623
  199DOPC  C31624753   8.062   6.520   4.700  0.3301  0.0854 -0.3489
  199DOPC  H16X24754   8.145   6.579   4.745 -0.7259  0.4633  1.1855
  199DOPC  H16Y24755   7.991   6.593   4.657 -1.3817 -1.8748 -1.0386
  199DOPC  C31724756   7.985   6.427   4.795  0.1506  0.4676 -0.4644
  199DOPC  H17X24757   7.909   6.479   4.858  0.0989 -1.0092  0.7503
  199DOPC  H17Y24758   7.918   6.362   4.734 -1.0140 -1.6279  2.8052
  199DOPC  C31824759   8.074   6.336   4.883 -0.3453  0.4474 -0.0126
  199DOPC  H18X24760   8.151   6.396   4.935  3.6152 -0.8199 -3.8864
  199DOPC  H18Y24761   8.012   6.274   4.952  1.7365 -1.1366  0.5537
  199DOPC  H18Z24762   8.132   6.274   4.812 -0.1062 -1.3189  1.6151
  200DOPC     N24763   1.627   6.706   2.892  0.4173  0.0698  0.4974
  200DOPC   C1224764   1.600   6.724   3.038 -0.3262  0.1846  0.0095
  200DOPC  H12A24765   1.654   6.653   3.099  0.2088 -1.0902 -1.8514
  200DOPC  H12B24766   1.493   6.711   3.047 -0.0934 -1.1026  1.2504
  200DOPC   C1324767   1.572   6.814   2.804  0.2935 -0.0969 -0.1769
  200DOPC  H13A24768   1.466   6.816   2.826  0.4594 -1.1538  0.7844
  200DOPC  H13B24769   1.613   6.910   2.832  0.4445 -0.4061  0.6889
  200DOPC  H13C24770   1.594   6.791   2.701  0.8558  0.4578 -0.1859
  200DOPC   C1424771   1.563   6.576   2.845 -0.0055  0.1646  0.0081
  200DOPC  H14A24772   1.578   6.498   2.919 -0.6756 -0.6999 -0.7471
  200DOPC  H14B24773   1.456   6.589   2.840  0.0018 -0.2943 -1.9883
  200DOPC  H14C24774   1.606   6.545   2.751 -0.1309 -0.2877  0.0970
  200DOPC   C1524775   1.771   6.697   2.867 -1.1283 -0.2459  0.0957
  200DOPC  H15A24776   1.813   6.789   2.905 -1.3158  0.1252 -0.5774
  200DOPC  H15B24777   1.795   6.689   2.762 -0.5266 -2.7916  0.3753
  200DOPC  H15C24778   1.819   6.621   2.926 -1.4656 -0.8610 -0.4140
  200DOPC   C1124779   1.643   6.859   3.101  0.2807 -0.2297 -0.2293
  200DOPC  H11A24780   1.589   6.938   3.046 -1.9983 -1.6665 -0.1915
  200DOPC  H11B24781   1.591   6.860   3.199 -1.6054 -0.2171 -1.1821
  200DOPC     P24782   1.861   6.808   3.232 -0.2153  0.2926 -0.1221
  200DOPC   O1324783   2.003   6.847   3.236 -0.1100  0.1741 -0.1528
  200DOPC   O1424784   1.833   6.665   3.231  0.4125  0.0639 -0.2984
  200DOPC   O1224785   1.780   6.878   3.114 -0.2814  0.6779 -0.2715
  200DOPC   O1124786   1.796   6.877   3.356  0.1129  0.0761  0.4554
  200DOPC    C124787   1.798   7.019   3.356 -0.2039  0.1029 -0.0529
  200DOPC    HA24788   1.707   7.067   3.316  0.9115  2.5326  0.0981
  200DOPC    HB24789   1.893   7.059   3.312 -1.5313  1.8596 -1.4828
  200DOPC    C224790   1.799   7.082   3.504 -0.0470 -0.4959  0.3392
  200DOPC    HS24791   1.907   7.108   3.512  0.4938 -2.5201  0.1349
  200DOPC   O2124792   1.751   6.990   3.599 -0.1500  0.1634 -0.7417
  200DOPC   C2124793   1.848   6.913   3.644 -0.7470  0.5400  0.0250
  200DOPC   O2224794   1.969   6.925   3.631  0.0500 -0.5401 -0.0857
  200DOPC   C2224795   1.790   6.782   3.712 -0.0590 -0.2455  0.9340
  200DOPC   H2R24796   1.792   6.712   3.625 -4.4029  1.1379 -0.5883
  200DOPC   H2S24797   1.681   6.792   3.734  0.1575  0.3987  1.7284
  200DOPC    C324798   1.717   7.214   3.521  0.2892  0.0682 -0.0595
  200DOPC    HX24799   1.720   7.238   3.629 -2.5159  0.6720 -0.0212
  200DOPC    HY24800   1.609   7.190   3.505  0.7712 -1.8148 -0.6495
  200DOPC   O3124801   1.764   7.322   3.436 -0.2065  0.2652  0.9036
  200DOPC   C3124802   1.698   7.433   3.454 -0.4376  0.7228  0.0469
  200DOPC   O3224803   1.593   7.453   3.507  0.3587  0.0574 -0.3930
  200DOPC   C3224804   1.783   7.544   3.405 -0.4560  0.3680  0.5633
  200DOPC   H2X24805   1.882   7.509   3.367 -0.1572  2.3364 -0.5994
  200DOPC   H2Y24806   1.738   7.597   3.319  0.2969  0.0097 -0.0655
  200DOPC   C2324807   1.886   6.725   3.813 -0.5495  0.8337 -0.0505
  200DOPC   H3R24808   1.979   6.702   3.756 -0.0761  1.6334  0.3790
  200DOPC   H3S24809   1.862   6.621   3.845 -0.2735  0.0548 -2.2205
  200DOPC   C2424810   1.917   6.796   3.946  0.3004  0.2980 -0.8451
  200DOPC   H4R24811   1.825   6.852   3.974  0.7427 -0.0524  1.5359
  200DOPC   H4S24812   1.990   6.879   3.944 -2.2649  2.6863 -2.1152
  200DOPC   C2524813   1.949   6.707   4.067  0.3512  0.1959  0.0724
  200DOPC   H5R24814   2.039   6.644   4.048  1.3143  1.4161  0.4799
  200DOPC   H5S24815   1.869   6.631   4.080  0.0718  0.2613 -1.1925
  200DOPC   C2624816   1.949   6.797   4.186 -0.3395 -0.2404  0.4226
  200DOPC   H6R24817   1.849   6.833   4.219  1.3659  3.3109  2.1624
  200DOPC   H6S24818   2.018   6.882   4.171  0.8292 -1.4583 -1.5590
  200DOPC   C2724819   2.007   6.733   4.316 -0.6685  0.9367  0.0996
  200DOPC   H7R24820   1.985   6.795   4.405  1.2896  0.0336  1.2786
  200DOPC   H7S24821   2.117   6.728   4.298 -0.7405  0.1130 -0.1536
  200DOPC   C2824822   1.966   6.594   4.357 -0.4213  0.0211 -0.2276
  200DOPC   H8R24823   2.004   6.523   4.281  2.9567 -0.0711  1.3759
  200DOPC   H8S24824   1.855   6.586   4.358 -0.7155  3.0540  0.5664
  200DOPC   C2924825   2.012   6.548   4.493 -0.4739  0.3811 -0.2418
  200DOPC   H9R24826   1.972   6.612   4.572 -2.5682  0.1139 -1.0208
  200DOPC  C21024827   2.073   6.428   4.524  0.0897 -0.7801  0.3564
  200DOPC  H10R24828   2.115   6.415   4.625 -0.0247  3.3596  1.0934
  200DOPC  C21124829   2.103   6.323   4.418  0.0369 -0.2387 -0.1468
  200DOPC  H11R24830   2.049   6.338   4.322 -0.8440 -0.0095  0.3736
  200DOPC  H11S24831   2.062   6.224   4.447  0.7174 -0.8639 -1.2602
  200DOPC  C21224832   2.258   6.300   4.402  0.3774 -0.6150  0.1270
  200DOPC  H12R24833   2.291   6.256   4.499  1.2805  0.9546  0.5564
  200DOPC  H12S24834   2.302   6.401   4.394  1.8239 -1.1599  0.8472
  200DOPC  C21324835   2.313   6.236   4.269  1.4536 -0.1485 -0.5899
  200DOPC  H13R24836   2.246   6.151   4.243  0.9383 -0.4780  1.5445
  200DOPC  H13S24837   2.420   6.211   4.282  2.0514  0.6847 -3.3490
  200DOPC  C21424838   2.313   6.335   4.160  0.1794 -0.7030 -0.5281
  200DOPC  H14R24839   2.369   6.427   4.186 -0.8444 -0.1397 -0.2533
  200DOPC  H14S24840   2.209   6.370   4.138  0.6711  0.7603 -0.6156
  200DOPC  C21524841   2.360   6.265   4.026  0.4132 -0.1130  0.3797
  200DOPC  H15R24842   2.352   6.349   3.954 -1.3163 -0.8567 -0.3612
  200DOPC  H15S24843   2.283   6.187   4.008  1.3348 -1.3646  1.6458
  200DOPC  C21624844   2.500   6.201   4.032 -0.0636  0.3996 -0.1017
  200DOPC  H16R24845   2.506   6.109   4.093 -0.2921  0.3583 -0.1423
  200DOPC  H16S24846   2.576   6.279   4.058  1.0549 -0.8510  0.4914
  200DOPC  C21724847   2.543   6.154   3.892 -0.5170  0.1893  0.8424
  200DOPC  H17R24848   2.650   6.131   3.878 -0.6351  0.5899 -0.8350
  200DOPC  H17S24849   2.526   6.231   3.815 -1.2209 -0.4019  0.3916
  200DOPC  C21824850   2.463   6.034   3.842 -0.0761  0.6515  0.0268
  200DOPC  H18R24851   2.477   5.960   3.923  1.3351  1.1743  0.2841
  200DOPC  H18S24852   2.503   5.999   3.744  1.5589  1.4835  0.3705
  200DOPC  H18T24853   2.356   6.063   3.830 -0.5301 -0.3319  1.4852
  200DOPC   C3324854   1.803   7.644   3.515 -0.7985  0.4823 -0.6831
  200DOPC   H3X24855   1.710   7.665   3.572 -1.0281 -0.2404 -0.7756
  200DOPC   H3Y24856   1.820   7.741   3.465  2.0451  1.5351  2.0314
  200DOPC   C3424857   1.918   7.611   3.617  0.4466 -0.0424  0.0493
  200DOPC   H4X24858   2.007   7.603   3.551 -0.1131  0.1709 -0.7546
  200DOPC   H4Y24859   1.917   7.515   3.673 -0.7782  0.8526  1.6670
  200DOPC   C3524860   1.936   7.730   3.714 -0.0233 -0.2615 -0.2442
  200DOPC   H5X24861   1.865   7.730   3.799  0.3765 -1.0123  0.1079
  200DOPC   H5Y24862   1.924   7.830   3.669  0.8722  0.3969  0.9151
  200DOPC   C3624863   2.076   7.740   3.781 -0.0534  0.4801  0.5343
  200DOPC   H6X24864   2.109   7.646   3.830  1.8165  0.5238 -0.5750
  200DOPC   H6Y24865   2.149   7.757   3.699 -0.5974  0.5262  0.0550
  200DOPC   C3724866   2.082   7.852   3.882 -0.4736  0.7693  0.1136
  200DOPC   H7X24867   2.185   7.837   3.919 -0.6473 -2.1058 -0.3770
  200DOPC   H7Y24868   2.068   7.955   3.842 -0.7849  1.1261  1.0995
  200DOPC   C3824869   2.000   7.830   4.011 -0.1152 -0.2359 -0.2401
  200DOPC   H8X24870   2.007   7.723   4.040 -0.1936 -0.2790 -0.3762
  200DOPC   H8Y24871   1.890   7.839   3.998 -0.2276  0.0209  0.7924
  200DOPC   C3924872   2.052   7.912   4.124  0.1504 -0.2039  0.2125
  200DOPC   H9X24873   2.158   7.903   4.150 -0.5144 -1.1945  2.9158
  200DOPC  C31024874   1.980   7.989   4.213 -0.1336 -0.0923  0.6129
  200DOPC  H10X24875   2.044   8.036   4.289 -0.7847 -0.7568  1.6005
  200DOPC  C31124876   1.832   8.009   4.242  0.0297  0.2017  0.8926
  200DOPC  H11X24877   1.784   7.928   4.183  1.2737 -1.1573  1.6643
  200DOPC  H11Y24878   1.794   8.100   4.191  2.5678  0.3953 -0.8839
  200DOPC  C31224879   1.767   7.992   4.382  0.5604  0.2756  0.1514
  200DOPC  H12X24880   1.791   7.894   4.428 -0.1255 -0.3191 -0.7148
  200DOPC  H12Y24881   1.661   7.989   4.350  1.2819 -2.9325 -2.5219
  200DOPC  C31324882   1.785   8.113   4.475 -0.7309  0.7159 -0.1755
  200DOPC  H13X24883   1.884   8.117   4.524 -1.1984  2.5784  0.7043
  200DOPC  H13Y24884   1.771   8.206   4.416  2.2869 -0.4166 -3.0029
  200DOPC  C31424885   1.682   8.113   4.594  0.3567 -0.1884  0.5804
  200DOPC  H14X24886   1.583   8.139   4.553 -0.4372 -2.0705  1.2079
  200DOPC  H14Y24887   1.671   8.014   4.644  0.5195 -0.6781 -0.3419
  200DOPC  C31524888   1.725   8.217   4.701  0.2962 -0.4903 -0.0456
  200DOPC  H15X24889   1.737   8.320   4.661  1.4369 -0.6375 -0.1328
  200DOPC  H15Y24890   1.826   8.180   4.729  1.2558  1.4519 -0.7753
  200DOPC  C31624891   1.623   8.208   4.812 -1.3904  1.2508  0.8487
  200DOPC  H16X24892   1.524   8.245   4.776 -0.8353  0.8070 -1.2413
  200DOPC  H16Y24893   1.610   8.101   4.840 -2.3853  0.6560 -1.6388
  200DOPC  C31724894   1.654   8.282   4.938  0.3538  0.4020 -0.2507
  200DOPC  H17X24895   1.756   8.257   4.975 -1.2105 -2.4864  2.5651
  200DOPC  H17Y24896   1.661   8.392   4.920 -0.5598  0.4496 -0.3580
  200DOPC  C31824897   1.562   8.251   5.055  0.0599 -0.4209 -0.2654
  200DOPC  H18X24898   1.615   8.281   5.148  0.5252  1.1746 -0.9944
  200DOPC  H18Y24899   1.467   8.309   5.048  2.0368  3.0352 -1.0911
  200DOPC  H18Z24900   1.551   8.141   5.065  0.6025 -0.4355  0.2600
  201SOD    SOD24901   7.106   1.527   8.756  0.3704 -0.0385  0.1255
  202SOD    SOD24902   5.159   3.410   0.776  1.0825  0.4034  0.5435
  203SOD    SOD24903   4.124   4.067   8.531  0.2148 -0.0106 -0.1264
  204SOD    SOD24904   1.424   4.780   3.017  0.0887  0.2014  0.0198
  205SOD    SOD24905   2.822   5.992   9.346 -0.0380  0.1662 -0.1431
  206SOD    SOD24906   0.197   2.860   1.938  0.1547 -0.2028  0.1767
  207SOD    SOD24907   5.784   1.417   2.828  0.3328  0.5326  0.0215
  208SOD    SOD24908   5.821   5.680   7.946 -0.6471 -0.3042 -0.2499
  209SOD    SOD24909   6.300   1.272   3.088  0.2278 -0.5635  0.4694
  210SOD    SOD24910   4.149   1.191   9.153  0.2433 -0.0928  0.2602
  211SOD    SOD24911   2.395   6.327   7.021  0.4220  0.1986 -0.0284
  212SOD    SOD24912   1.510   7.486   8.003 -0.0420 -0.6973  0.4237
  213SOD    SOD24913   6.254   2.864   1.978 -0.3320  0.1178  0.1112
  214SOD    SOD24914   3.768   6.821   7.105 -0.0921  0.4450 -0.1495
  215SOD    SOD24915   2.181   2.712   8.739 -0.2022 -0.4629 -0.1346
  216SOD    SOD24916   0.226   5.701   8.787 -0.0321  0.3353 -0.1013
  217SOD    SOD24917   3.206   3.037   2.675 -0.5858  0.0059  0.4446
  218SOD    SOD24918   5.789   4.144   8.272  0.0034 -0.1185  0.0572
  219SOD    SOD24919   7.011   7.082   9.463 -0.4181  0.2697  0.0550
  220SOD    SOD24920   2.793   1.089   2.256  0.2725 -0.1219 -0.4145
  221SOD    SOD24921   4.545   5.205   1.773  0.1724  0.4772  0.4135
  222SOD    SOD24922   5.190   6.832   7.927 -0.2242 -0.0735  0.6682
  223SOD    SOD24923   0.708   0.329   1.310 -0.0475  0.0899  0.9319
  224SOD    SOD24924   2.474   5.592   1.043  0.1053  0.3585 -0.1238
  225SOD    SOD24925   3.659   5.636   2.546  0.3011  0.4539  0.1535
  226SOD    SOD24926   0.482   5.727   8.168  0.2409 -1.0481 -0.1388
  227CLA    CLA24927   5.397   1.177   1.293  0.4944 -0.1625  0.0618
  228CLA    CLA24928   3.260   0.147   1.843  0.3135  0.0772  0.5451
  229CLA    CLA24929   5.989   5.009   1.464 -0.1789 -0.0432  0.0668
  230CLA    CLA24930   4.830   7.150   8.107  0.1456  0.3356 -0.0902
  231CLA    CLA24931   1.615   3.637   7.027  0.2980  0.1061  0.0642
  232CLA    CLA24932   4.105   5.536   7.947  0.0916  0.4366 -0.3095
  233CLA    CLA24933   3.217   5.587   8.302  0.5181 -0.0649  0.3836
  234CLA    CLA24934   6.778   2.872   8.011  0.1151 -0.2199  0.0295
  235CLA    CLA24935   4.284   1.295   2.095  0.0199  0.4324  0.1190
  236CLA    CLA24936   2.165   4.390   8.242  0.1492  0.0372 -0.0254
  237CLA    CLA24937   1.495   6.029   8.115 -0.1629 -0.2761 -0.1792
  238CLA    CLA24938   4.246   4.695   1.138  0.0170  0.0950  0.0218
  239CLA    CLA24939   1.773   1.997   2.422 -0.0054 -0.3993 -0.4511
  240CLA    CLA24940   2.256   7.310   8.030  0.0622  0.2885 -0.5879
  241CLA    CLA24941   7.595   6.035   1.813  0.1052 -0.3157  0.0919
  242CLA    CLA24942   5.395   7.382   8.625  0.0684 -0.2205  0.0370
  243CLA    CLA24943   4.169   3.337   1.700  0.1632 -0.0264 -0.4971
  244CLA    CLA24944   2.968   2.261   2.284  0.2222 -0.0341  0.2146
  245CLA    CLA24945   3.750   4.543   1.299 -0.4147  0.3786 -0.4188
  246CLA    CLA24946   0.204   5.760   8.527  0.0392 -0.0817 -0.2937
  247CLA    CLA24947   0.271   2.108   0.773  0.2135 -0.6153  0.0357
  248CLA    CLA24948   2.944   2.454   1.028  0.5823  0.2631 -0.0446
  249CLA    CLA24949   0.303   7.049   2.663 -0.0314  0.1408  0.1989
  250CLA    CLA24950   5.266   5.760   8.235  0.0175  0.1142 -0.1464
  251CLA    CLA24951   3.405   1.068   9.075  0.1101  0.2127 -0.3466
  252CLA    CLA24952   6.224   1.622   2.638  0.0543 -0.3514 -0.1105
  253TIP3   OH224953   0.548   4.677   7.374 -0.0821 -0.3210 -0.1967
  253TIP3    H124954   0.476   4.643   7.321 -0.7639 -0.4384  0.7796
  253TIP3    H224955   0.605   4.721   7.311 -0.7302 -0.6800 -1.0612
  254TIP3   OH224956   6.147   2.640   8.180 -0.4637 -0.2256 -0.0934
  254TIP3    H124957   6.225   2.590   8.202 -1.2299 -0.6706  1.7511
  254TIP3    H224958   6.102   2.587   8.114 -0.0728 -0.8043  0.1028
  255TIP3   OH224959   6.065   5.144   7.015 -0.2911  0.0703 -0.2487
  255TIP3    H124960   6.053   5.082   6.943  1.8181 -2.3718  1.3628
  255TIP3    H224961   6.150   5.184   6.999 -0.7496  1.1063 -0.1908
  256TIP3   OH224962   0.302   2.965   8.084  0.5210 -0.0026  0.2906
  256TIP3    H124963   0.377   2.906   8.090  0.6633  0.0027 -1.1850
  256TIP3    H224964   0.301   3.010   8.168  2.1896  0.0036  0.3370
  257TIP3   OH224965   1.524   1.844   9.244 -0.4228  0.5937  0.6284
  257TIP3    H124966   1.483   1.860   9.329  1.9391  1.2140  1.7631
  257TIP3    H224967   1.563   1.757   9.252  1.8374  1.5805  1.1588
  258TIP3   OH224968   2.958   1.210   7.722 -0.3085 -1.0346 -0.6489
  258TIP3    H124969   3.034   1.167   7.763 -0.1381 -0.0422  0.1190
  258TIP3    H224970   2.904   1.237   7.796 -0.8579 -0.7378 -1.1599
  259TIP3   OH224971   5.482   2.356   9.125  0.1816 -0.6980  0.7302
  259TIP3    H124972   5.456   2.358   9.032 -1.3086 -2.0273  1.0734
  259TIP3    H224973   5.400   2.361   9.173  0.8572 -1.0632  1.9741
  260TIP3   OH224974   4.476   2.646   7.237  0.2083  0.1324  0.2442
  260TIP3    H124975   4.497   2.727   7.282 -0.8075 -0.4250  1.7818
  260TIP3    H224976   4.403   2.668   7.180  1.2438  0.7434 -0.9017
  261TIP3   OH224977   4.418   4.305   8.477 -0.1730 -0.2090  0.1891
  261TIP3    H124978   4.384   4.240   8.538  0.5377 -0.5410  0.2458
  261TIP3    H224979   4.417   4.387   8.526  0.1371 -0.4237  0.5648
  262TIP3   OH224980   3.810   3.889   9.317  0.3194 -0.2621 -0.1923
  262TIP3    H124981   3.742   3.827   9.342  1.3554 -1.2728  0.1950
  262TIP3    H224982   3.861   3.903   9.397  0.7903  0.1995 -0.5610
  263TIP3   OH224983   4.291   6.804   7.520 -0.2791  0.2384 -0.0988
  263TIP3    H124984   4.384   6.807   7.542 -0.3434 -0.6338  0.3366
  263TIP3    H224985   4.288   6.809   7.425  0.1426  1.4334 -0.0712
  264TIP3   OH224986   4.570   3.038   8.387  0.1646 -0.3891 -0.0314
  264TIP3    H124987   4.511   2.985   8.440  0.5065 -0.6952  0.0526
  264TIP3    H224988   4.534   3.034   8.298 -0.4978  0.2542  0.2007
  265TIP3   OH224989   0.537   2.762   8.779  0.2343  0.1335 -0.1271
  265TIP3    H124990   0.476   2.812   8.725 -0.0548 -0.5284 -0.4188
  265TIP3    H224991   0.519   2.790   8.869 -0.4495 -0.0132 -0.2189
  266TIP3   OH224992   4.840   6.854   8.768 -0.3463  0.2969  0.1361
  266TIP3    H124993   4.838   6.944   8.800  0.0490 -0.2768  1.8548
  266TIP3    H224994   4.761   6.847   8.714 -0.2959  1.7016 -0.1785
  267TIP3   OH224995   5.671   4.930   7.819  0.4606  0.1768  0.4127
  267TIP3    H124996   5.595   4.948   7.874 -0.1925  0.7407 -0.6460
  267TIP3    H224997   5.653   4.845   7.780  1.1526 -0.4578  1.4025
  268TIP3   OH224998   4.550   0.351   9.328  0.3544 -0.1631  0.2271
  268TIP3    H124999   4.465   0.372   9.367  0.2486 -1.9474  1.0473
  268TIP3    H225000   4.559   0.414   9.256 -1.6217  0.1312  0.1658
  269TIP3   OH225001   0.302   0.890   7.293  0.3247  0.5389 -0.0019
  269TIP3    H125002   0.327   0.892   7.201  0.5506 -0.1927  0.0370
  269TIP3    H225003   0.255   0.808   7.304 -2.0535  1.8206 -0.0332
  270TIP3   OH225004   1.329   0.999   7.954  0.8436 -0.3748  0.1633
  270TIP3    H125005   1.276   1.007   8.033  2.3457  0.4878  1.1286
  270TIP3    H225006   1.317   1.083   7.909  1.0520 -0.3403  0.1720
  271TIP3   OH225007   0.166   5.402   8.166  0.3906 -0.0752  0.1300
  271TIP3    H125008   0.092   5.461   8.151  1.1510  0.6239 -1.0243
  271TIP3    H225009   0.234   5.458   8.204  1.2268 -0.1239 -1.2524
  272TIP3   OH225010   6.187   6.642   8.975  0.1242  0.3975  0.1518
  272TIP3    H125011   6.207   6.601   8.890 -1.2625  0.0801 -0.0451
  272TIP3    H225012   6.113   6.700   8.957 -0.0339  0.5094  1.1005
  273TIP3   OH225013   6.105   5.161   8.884 -0.1081 -0.7582  0.5170
  273TIP3    H125014   6.190   5.205   8.887 -0.6003  0.4341 -1.0807
  273TIP3    H225015   6.101   5.121   8.797 -1.8249  0.7042 -0.1532
  274TIP3   OH225016   0.144   3.072   9.395  0.0843 -0.0206  0.6611
  274TIP3    H125017   0.086   2.996   9.388 -0.1065  0.2297 -0.8567
  274TIP3    H225018   0.084   3.147   9.401  0.2726  0.0666  1.7537
  275TIP3   OH225019   0.650   5.224   8.525 -0.4932 -0.3726 -1.0855
  275TIP3    H125020   0.671   5.131   8.524 -0.1863 -0.3166 -0.2733
  275TIP3    H225021   0.730   5.266   8.555 -0.0555  0.3175 -3.0351
  276TIP3   OH225022   2.382   4.332   6.531 -0.1729  0.1168 -0.3440
  276TIP3    H125023   2.313   4.333   6.597  0.1981  0.1775  0.0547
  276TIP3    H225024   2.432   4.412   6.548  0.7929 -0.5945  0.2528
  277TIP3   OH225025   1.774   2.950   8.390  0.2301  0.0892  0.1216
  277TIP3    H125026   1.758   3.044   8.383  1.5499  0.2226 -2.7813
  277TIP3    H225027   1.758   2.916   8.302  0.5338 -2.2968  0.8936
  278TIP3   OH225028   0.674   3.381   6.856  0.4062 -0.0598 -0.0743
  278TIP3    H125029   0.592   3.428   6.843 -0.0155 -1.3643 -2.7631
  278TIP3    H225030   0.723   3.394   6.775  3.0865  0.9668  1.5722
  279TIP3   OH225031   3.427   4.757   8.022 -0.3296 -0.2410  0.2388
  279TIP3    H125032   3.336   4.785   8.024 -0.0959  0.5420  0.7483
  279TIP3    H225033   3.444   4.736   7.930 -1.2477 -1.2094  0.2758
  280TIP3   OH225034   3.394   4.188   6.566  0.4272  0.3063 -0.6574
  280TIP3    H125035   3.368   4.279   6.552  1.4818  0.2908 -3.2961
  280TIP3    H225036   3.450   4.167   6.492  3.2438 -1.4151  1.7268
  281TIP3   OH225037   2.424   3.861   7.493  0.0834  0.2994  0.1362
  281TIP3    H125038   2.402   3.855   7.586  0.3178 -0.1020  0.1658
  281TIP3    H225039   2.420   3.955   7.474 -0.7866  0.3165  0.3456
  282TIP3   OH225040   0.243   7.023   7.488  0.0213  0.2356 -0.3054
  282TIP3    H125041   0.279   7.013   7.576  1.0112  0.8510 -0.6238
  282TIP3    H225042   0.287   6.956   7.436 -1.2956 -0.7881 -0.1346
  283TIP3   OH225043   7.292   6.250   8.786 -0.0209  0.5220  0.4042
  283TIP3    H125044   7.220   6.305   8.815  0.8295  2.0539 -0.3044
  283TIP3    H225045   7.339   6.303   8.722  1.1591 -0.8228  0.1082
  284TIP3   OH225046   4.139   2.361   3.176  0.0508 -0.6080  0.1953
  284TIP3    H125047   4.067   2.414   3.210  1.4712  0.2990  2.0012
  284TIP3    H225048   4.125   2.359   3.082 -0.1295  2.9910 -0.0059
  285TIP3   OH225049   5.355   0.822   1.879 -0.3037 -0.1678 -0.3876
  285TIP3    H125050   5.381   0.744   1.928  0.0416 -1.0018 -1.8374
  285TIP3    H225051   5.264   0.805   1.854 -0.6986  0.5560  0.5052
  286TIP3   OH225052   6.787   4.972   0.745  0.5887 -0.2284  0.5882
  286TIP3    H125053   6.852   4.966   0.675  0.9663 -0.1227  0.9293
  286TIP3    H225054   6.789   5.064   0.772  0.3429 -0.2378  0.6419
  287TIP3   OH225055   2.463   0.509   2.122 -0.2188 -0.1331 -0.5319
  287TIP3    H125056   2.441   0.481   2.210 -1.1077  0.7499 -0.4485
  287TIP3    H225057   2.557   0.491   2.113 -0.5358 -2.1903 -0.1837
  288TIP3   OH225058   4.558   4.475   1.467 -0.3860 -0.1228 -0.6998
  288TIP3    H125059   4.484   4.494   1.525  0.0171  0.9837 -0.5111
  288TIP3    H225060   4.560   4.548   1.405  1.1720  0.4769 -0.0243
  289TIP3   OH225061   7.422   3.272   2.267 -0.3658  0.0709 -0.4603
  289TIP3    H125062   7.476   3.341   2.227  0.5200 -0.3106  0.0274
  289TIP3    H225063   7.347   3.319   2.303  0.7209  0.9609  0.7557
  290TIP3   OH225064   2.125   7.391   1.904  0.3328  0.2169 -0.2631
  290TIP3    H125065   2.202   7.361   1.952  0.6602  1.8735  0.2952
  290TIP3    H225066   2.051   7.357   1.954  0.6783 -0.6993 -0.3547
  291TIP3   OH225067   2.338   0.966   3.300 -0.2615 -0.3596  0.6610
  291TIP3    H125068   2.389   0.885   3.292  2.9926  1.5438  0.2649
  291TIP3    H225069   2.352   1.011   3.216 -1.0254  1.0985  1.2895
  292TIP3   OH225070   4.464   1.271   1.799  0.3585 -0.2471  0.1117
  292TIP3    H125071   4.555   1.272   1.830  0.6811 -0.4835 -0.8005
  292TIP3    H225072   4.420   1.212   1.860  0.7390  0.1330  0.7675
  293TIP3   OH225073   7.083   4.460   2.186  0.4398  0.2449  0.0038
  293TIP3    H125074   7.025   4.425   2.119 -0.0204  1.0231 -0.0101
  293TIP3    H225075   7.033   4.530   2.227  1.7717  1.7083 -0.7851
  294TIP3   OH225076   3.303   6.398   3.627  0.3068  0.3788 -0.3530
  294TIP3    H125077   3.311   6.304   3.644  1.8327  0.5521  0.0668
  294TIP3    H225078   3.360   6.414   3.551  0.0885  0.9628 -0.4031
  295TIP3   OH225079   3.004   7.292   0.362  0.0178 -0.3236 -0.0557
  295TIP3    H125080   2.921   7.294   0.409  1.0674 -0.5663  1.8891
  295TIP3    H225081   2.982   7.321   0.273 -1.7597  1.8227  0.9870
  296TIP3   OH225082   6.809   4.501   2.067 -0.1583 -0.2433 -0.1740
  296TIP3    H125083   6.768   4.455   2.141 -1.5871  2.3604  0.7809
  296TIP3    H225084   6.780   4.592   2.076  2.7453  0.9737 -1.7733
  297TIP3   OH225085   4.154   5.298   1.563  0.3681  0.1233  0.4030
  297TIP3    H125086   4.114   5.347   1.634  0.6437 -0.7663  1.1843
  297TIP3    H225087   4.081   5.274   1.506  0.2265  1.4121  0.0030
  298TIP3   OH225088   0.150   4.642   1.334 -0.7132  0.2561  0.0429
  298TIP3    H125089   0.090   4.573   1.362 -0.4749 -0.3152 -0.8156
  298TIP3    H225090   0.168   4.622   1.242  1.1556  0.1341  0.3956
  299TIP3   OH225091   3.656   1.466   1.634  0.4351 -0.2276 -1.0182
  299TIP3    H125092   3.646   1.461   1.539 -1.1219  0.6206 -0.9246
  299TIP3    H225093   3.640   1.558   1.656  1.1808 -0.3229  0.0374
  300TIP3   OH225094   6.196   0.409   3.006 -0.3526  0.0464 -0.2389
  300TIP3    H125095   6.228   0.376   3.090 -1.1429  1.1323  0.5180
  300TIP3    H225096   6.160   0.495   3.026 -0.2509  0.4839 -1.7638
  301TIP3   OH225097   1.890   7.445   2.497 -0.6283 -0.2386  0.6529
  301TIP3    H125098   1.968   7.441   2.552 -0.5164 -0.2979  0.4911
  301TIP3    H225099   1.846   7.526   2.524 -0.7174 -0.4063  1.0191
  302TIP3   OH225100   0.090   5.532   2.888 -0.4104 -0.4334  0.2706
  302TIP3    H125101   0.009   5.509   2.844 -0.1529  0.0512 -0.4715
  302TIP3    H225102   0.099   5.467   2.958 -1.2517 -0.6989  0.1365
  303TIP3   OH225103   6.172   4.761   0.506  0.4184  0.5556  0.4536
  303TIP3    H125104   6.112   4.800   0.443  0.0636 -0.8081 -0.0815
  303TIP3    H225105   6.256   4.804   0.489  0.9947 -1.5064 -2.7259
  304TIP3   OH225106   5.807   3.084   2.335 -0.1233  0.1814  0.1298
  304TIP3    H125107   5.813   3.178   2.318  0.3455  0.2916  0.8868
  304TIP3    H225108   5.850   3.044   2.259  1.7214  0.6652  0.8588
  305TIP3   OH225109   3.354   7.262   1.249  0.0636 -0.0535 -0.1786
  305TIP3    H125110   3.379   7.322   1.319  0.8311 -0.0678 -0.4290
  305TIP3    H225111   3.318   7.186   1.295  0.8900 -0.2140  0.2168
  306TIP3   OH225112   1.645   1.096   0.668 -0.1090  0.2990  0.3749
  306TIP3    H125113   1.568   1.131   0.712 -0.6387 -1.3235  0.8130
  306TIP3    H225114   1.708   1.168   0.668 -1.0496  1.1499  1.4192
  307TIP3   OH225115   4.547   2.735   1.819 -0.6243 -0.3483  0.5793
  307TIP3    H125116   4.464   2.732   1.772 -0.3257  0.8253 -0.0628
  307TIP3    H225117   4.612   2.699   1.758 -0.4771 -0.2100  0.6517
  308TIP3   OH225118   1.794   5.357   1.278  0.2170  0.2802  0.3626
  308TIP3    H125119   1.796   5.302   1.357 -1.8535 -0.2121  0.1290
  308TIP3    H225120   1.703   5.388   1.273  0.2600  0.1742 -1.9084
  309TIP3   OH225121   3.875   1.540   2.121 -0.0926 -0.5419 -0.3309
  309TIP3    H125122   3.939   1.608   2.098 -1.7123  0.9445 -0.7446
  309TIP3    H225123   3.850   1.502   2.037  0.0969 -0.9748 -0.1919
  310TIP3   OH225124   7.432   6.034   2.707  0.2293  0.0707  0.6217
  310TIP3    H125125   7.469   6.084   2.779 -0.9378 -0.6697  1.7735
  310TIP3    H225126   7.340   6.023   2.730 -0.1456 -0.2647 -0.9454
  311TIP3   OH225127   6.045   4.149   2.961 -0.2838  0.3840 -0.9508
  311TIP3    H125128   5.951   4.149   2.977  0.1477  1.7469  2.4468
  311TIP3    H225129   6.070   4.241   2.968  1.3961 -0.0471 -0.9487
  312TIP3   OH225130   1.040   6.103   3.068 -0.0040  0.4620 -0.5903
  312TIP3    H125131   0.959   6.054   3.052  0.0007  0.1061  0.4306
  312TIP3    H225132   1.105   6.035   3.084  0.2626  0.7831 -0.3197
  313TIP3   OH225133   4.485   2.296   1.785  0.2320  0.1761  0.1079
  313TIP3    H125134   4.431   2.219   1.808  0.1702  0.3609  0.6039
  313TIP3    H225135   4.478   2.353   1.861  0.3275  0.6519 -0.2382
  314TIP3   OH225136   5.563   3.614   1.923  0.2512 -0.6003  0.0264
  314TIP3    H125137   5.587   3.522   1.926  0.2829 -0.5687  1.4208
  314TIP3    H225138   5.469   3.614   1.904  0.3108 -0.9058 -0.2700
  315TIP3   OH225139   3.738   2.929   0.811 -0.0251 -0.4008 -0.3765
  315TIP3    H125140   3.775   2.880   0.737 -3.2364  0.0970 -2.5104
  315TIP3    H225141   3.708   3.011   0.772  0.9288  1.2965  2.1806
  316TIP3   OH225142   2.179   6.871   3.456  0.4446  0.3000 -1.0561
  316TIP3    H125143   2.120   6.871   3.380  0.5184 -0.2163 -1.1191
  316TIP3    H225144   2.125   6.901   3.529 -0.0981 -0.8195 -0.9718
  317TIP3   OH225145   0.358   7.528   0.850  0.0534 -0.1787 -0.4674
  317TIP3    H125146   0.350   7.539   0.755  0.8265 -0.3934 -0.5646
  317TIP3    H225147   0.268   7.527   0.882 -0.1916  1.2940 -1.0385
  318TIP3   OH225148   6.997   2.755   2.059 -0.0187 -0.0957  0.0230
  318TIP3    H125149   7.015   2.713   1.975 -0.2100 -1.7205  0.7610
  318TIP3    H225150   7.052   2.833   2.059  1.5745 -1.1575 -0.7487
  319TIP3   OH225151   0.134   1.349   2.796  0.0305  0.1293 -0.5625
  319TIP3    H125152   0.051   1.394   2.784  0.2122  0.4092 -0.7825
  319TIP3    H225153   0.111   1.256   2.802 -0.2990  0.2091 -0.5873
  320TIP3   OH225154   2.133   0.027   0.433  0.3095  0.5953 -0.3317
  320TIP3    H125155   2.157   0.083   0.508 -0.8833  1.1738 -0.3617
  320TIP3    H225156   2.123   0.089   0.360  0.1876  0.1907 -0.6597
  321TIP3   OH225157   6.390   5.474   2.357  0.1417 -0.1990 -0.4851
  321TIP3    H125158   6.313   5.420   2.371 -0.0595  0.7036  2.6392
  321TIP3    H225159   6.368   5.528   2.282 -0.6520 -2.5871 -2.0932
  322TIP3   OH225160   1.030   7.144   0.483 -0.2715  0.2438 -0.3266
  322TIP3    H125161   1.093   7.213   0.505  0.4897 -0.2752 -0.8264
  322TIP3    H225162   1.035   7.137   0.387  0.1918 -0.9865 -0.2304
  323TIP3   OH225163   7.269   2.739   8.687  0.1265 -0.9214  0.2178
  323TIP3    H125164   7.274   2.655   8.643  1.9600 -2.1920  2.5735
  323TIP3    H225165   7.194   2.731   8.746  0.4382 -1.0133  0.6071
  324TIP3   OH225166   6.318   2.692   9.150 -0.4452 -0.5772  0.2204
  324TIP3    H125167   6.370   2.612   9.145  0.2261 -0.2536  1.4149
  324TIP3    H225168   6.378   2.761   9.119 -1.4724 -0.6804 -2.1665
  325TIP3   OH225169   3.025   4.315   7.271 -0.6332 -0.1660 -0.2251
  325TIP3    H125170   3.108   4.269   7.259 -0.2779 -0.2959  2.1824
  325TIP3    H225171   3.048   4.390   7.327 -2.2696 -0.7763  1.3471
  326TIP3   OH225172   4.941   6.259   6.708 -0.0159 -0.2045  0.1078
  326TIP3    H125173   4.953   6.348   6.741  1.0835 -0.0815 -0.5847
  326TIP3    H225174   4.862   6.264   6.654  0.2611  0.4508 -0.2502
  327TIP3   OH225175   6.191   0.375   8.712 -1.0722  0.0072 -0.0647
  327TIP3    H125176   6.167   0.422   8.792 -0.8865 -0.9831  0.5905
  327TIP3    H225177   6.108   0.339   8.680 -0.8697 -1.4059  0.8917
  328TIP3   OH225178   5.598   5.775   9.362  0.0458  0.3347 -0.1683
  328TIP3    H125179   5.554   5.744   9.283 -1.1622  2.0390 -0.2179
  328TIP3    H225180   5.638   5.697   9.400 -0.5868 -0.7595 -1.6773
  329TIP3   OH225181   6.500   4.629   9.182 -0.1794  0.0245  0.0356
  329TIP3    H125182   6.529   4.692   9.117  0.5899 -0.4885 -0.1310
  329TIP3    H225183   6.435   4.575   9.136 -3.5036  2.7515  1.0959
  330TIP3   OH225184   2.006   1.828   8.102  0.1531 -0.1034 -0.0347
  330TIP3    H125185   2.033   1.920   8.112 -0.4165  0.1733 -0.8660
  330TIP3    H225186   1.937   1.831   8.035 -0.1851 -1.0881  0.2528
  331TIP3   OH225187   5.877   1.037   8.684  0.1008 -0.6241  0.1873
  331TIP3    H125188   5.921   0.960   8.647  1.5275  0.0033  0.4735
  331TIP3    H225189   5.948   1.085   8.727 -0.8533  0.6023  0.4235
  332TIP3   OH225190   5.626   3.974   8.356  0.2391  0.4127  0.0474
  332TIP3    H125191   5.665   3.921   8.425 -2.1624  0.2305  1.3888
  332TIP3    H225192   5.545   3.928   8.333  0.1642  1.3446 -1.7414
  333TIP3   OH225193   1.102   4.216   8.014 -0.3168  0.4943  0.0593
  333TIP3    H125194   1.125   4.172   8.095 -3.4997 -0.6705  0.4712
  333TIP3    H225195   1.069   4.302   8.041  0.5897  0.9506 -0.2344
  334TIP3   OH225196   1.120   2.343   7.171 -0.0949 -0.3962  0.4932
  334TIP3    H125197   1.169   2.268   7.138  0.0297 -0.7842  1.5013
  334TIP3    H225198   1.058   2.305   7.234 -2.1826  0.0049 -1.2166
  335TIP3   OH225199   2.737   7.286   8.041  0.3771 -0.4379  0.0626
  335TIP3    H125200   2.686   7.281   7.961  1.1132 -1.0386 -0.3840
  335TIP3    H225201   2.820   7.244   8.019  0.2710 -1.4115  1.4033
  336TIP3   OH225202   0.779   7.147   8.069  0.5611 -0.2072  0.1165
  336TIP3    H125203   0.824   7.076   8.025  1.8213  0.1294  0.8128
  336TIP3    H225204   0.805   7.139   8.161 -2.8119 -1.5436  1.1013
  337TIP3   OH225205   0.387   6.337   9.204  0.1489  0.0678 -0.1092
  337TIP3    H125206   0.440   6.402   9.250  1.5827 -1.1870  0.0681
  337TIP3    H225207   0.450   6.284   9.156 -1.0784 -0.5911 -1.0639
  338TIP3   OH225208   2.075   4.887   8.918  0.2644  0.1251 -0.0164
  338TIP3    H125209   2.021   4.956   8.957 -0.5506 -0.0532 -0.7848
  338TIP3    H225210   2.165   4.917   8.931 -0.0609  2.4962 -2.2113
  339TIP3   OH225211   2.946   6.427   9.184  0.4151  0.1056  0.0182
  339TIP3    H125212   2.871   6.439   9.243 -0.4310  0.3227 -1.0614
  339TIP3    H225213   2.937   6.338   9.151 -0.1983  0.5841 -1.1829
  340TIP3   OH225214   7.178   4.897   6.596  0.0622  0.1558  0.2407
  340TIP3    H125215   7.197   4.831   6.663 -0.4675 -1.6230 -1.2775
  340TIP3    H225216   7.261   4.910   6.551 -0.3469 -1.3531 -1.0205
  341TIP3   OH225217   5.437   1.893   9.139 -0.3605 -0.0202  0.1001
  341TIP3    H125218   5.373   1.916   9.206 -0.1379  0.9232 -0.0026
  341TIP3    H225219   5.387   1.895   9.057 -0.7986 -1.8362  0.2634
  342TIP3   OH225220   2.121   7.087   7.446 -0.5639 -0.2548 -0.0671
  342TIP3    H125221   2.156   7.175   7.436 -0.3260 -0.1505  1.3870
  342TIP3    H225222   2.077   7.068   7.363 -0.1859  1.0239 -0.5807
  343TIP3   OH225223   1.189   6.763   7.763  0.6370 -0.6307  0.2277
  343TIP3    H125224   1.247   6.730   7.694 -0.0483 -1.3566 -0.0158
  343TIP3    H225225   1.215   6.714   7.841 -1.1732 -2.7159 -0.3916
  344TIP3   OH225226   5.460   4.717   7.425  0.2201 -0.5405 -0.1799
  344TIP3    H125227   5.403   4.644   7.402  2.8579 -3.7427  2.4917
  344TIP3    H225228   5.517   4.730   7.350  0.2321 -1.8215 -0.4033
  345TIP3   OH225229   4.089   7.439   9.761 -0.3441 -0.2620 -0.5918
  345TIP3    H125230   4.168   7.385   9.770 -0.2244 -0.0372 -0.2849
  345TIP3    H225231   4.020   7.376   9.742  0.0296 -0.3992 -1.5861
  346TIP3   OH225232   2.747   1.759   7.870  0.3997  0.2854  0.0624
  346TIP3    H125233   2.839   1.783   7.863  0.6601 -0.7467 -0.1452
  346TIP3    H225234   2.747   1.673   7.910 -0.4292 -0.0735 -0.6662
  347TIP3   OH225235   6.917   0.939   7.676  0.0938  0.0068 -0.0612
  347TIP3    H125236   6.823   0.923   7.674 -0.0882  1.0405  0.0498
  347TIP3    H225237   6.937   0.975   7.589  0.4391 -0.4803 -0.1887
  348TIP3   OH225238   4.401   2.381   8.774 -0.0576  0.0595  0.4901
  348TIP3    H125239   4.400   2.378   8.869 -3.0100  2.5644  0.6983
  348TIP3    H225240   4.369   2.295   8.747  0.5613 -0.5899  1.7423
  349TIP3   OH225241   3.754   6.991   9.188  0.1418  0.2092 -0.4138
  349TIP3    H125242   3.793   6.944   9.262  1.2990  1.1241 -0.4046
  349TIP3    H225243   3.728   6.922   9.127  2.1753 -0.4727 -0.5934
  350TIP3   OH225244   5.555   3.038   6.959 -0.3313  0.0170 -0.3291
  350TIP3    H125245   5.468   3.049   6.997  0.5054  0.2801  1.6123
  350TIP3    H225246   5.566   3.114   6.901 -1.1323  0.3318 -0.0807
  351TIP3   OH225247   3.571   7.379   9.640 -0.1150 -0.2749 -0.3381
  351TIP3    H125248   3.615   7.432   9.572  0.0084  0.7545  0.5150
  351TIP3    H225249   3.481   7.369   9.608 -0.6041  1.8467  0.1889
  352TIP3   OH225250   1.062   3.384   8.194 -0.0169 -0.1035  0.3286
  352TIP3    H125251   1.111   3.303   8.213 -2.1990 -1.5435  0.1496
  352TIP3    H225252   1.070   3.394   8.099 -1.0280 -1.0267  0.1265
  353TIP3   OH225253   6.836   6.968   7.092  0.7308 -0.1499 -0.2159
  353TIP3    H125254   6.762   6.928   7.138 -0.3116  0.6214 -1.1709
  353TIP3    H225255   6.896   6.895   7.077 -0.6482 -1.1845 -0.9975
  354TIP3   OH225256   6.645   6.794   9.368  0.1284  0.3050  0.1138
  354TIP3    H125257   6.632   6.883   9.334  0.5217  1.2321  2.2368
  354TIP3    H225258   6.638   6.804   9.463 -0.3811 -2.0518  0.3696
  355TIP3   OH225259   4.208   0.012   9.454 -0.2303  0.3197  0.0430
  355TIP3    H125260   4.254  -0.022   9.378 -0.3414 -0.3610  0.2679
  355TIP3    H225261   4.259   0.088   9.482  0.7053 -0.3696  0.2390
  356TIP3   OH225262   3.404   3.765   9.536  0.1137 -0.1299  1.0235
  356TIP3    H125263   3.441   3.702   9.474 -0.8609  0.2361  0.0326
  356TIP3    H225264   3.474   3.829   9.550  0.1727  0.0915 -0.1569
  357TIP3   OH225265   3.406   5.274   6.866 -0.4729 -0.0481  0.4423
  357TIP3    H125266   3.408   5.325   6.785 -1.5150 -0.6428  0.0257
  357TIP3    H225267   3.478   5.213   6.858  0.5462  1.0724  0.7723
  358TIP3   OH225268   2.840   3.771   6.856  0.7537 -0.4361  0.2860
  358TIP3    H125269   2.855   3.847   6.912 -1.8580  0.4263 -0.0234
  358TIP3    H225270   2.796   3.708   6.912 -1.5842  0.3074 -0.5670
  359TIP3   OH225271   6.846   7.352   8.612 -0.1647  0.0871  0.3776
  359TIP3    H125272   6.783   7.352   8.539  1.3400 -0.8245 -0.9798
  359TIP3    H225273   6.854   7.444   8.637  0.0897  0.5564 -1.3431
  360TIP3   OH225274   5.749   0.739   9.663  0.1133 -0.2196 -0.0322
  360TIP3    H125275   5.691   0.671   9.696 -1.0244 -0.4353 -2.2778
  360TIP3    H225276   5.835   0.698   9.661 -0.2877 -1.0907  0.0663
  361TIP3   OH225277   5.722   0.193   7.894  0.0252 -0.6050 -0.2530
  361TIP3    H125278   5.751   0.273   7.938  0.1042 -0.6966 -0.1416
  361TIP3    H225279   5.747   0.122   7.952  0.8173 -0.7807 -0.7964
  362TIP3   OH225280   5.366   5.346   8.114  0.1350  0.6908 -0.1557
  362TIP3    H125281   5.342   5.359   8.206 -0.3708  0.5279 -0.2587
  362TIP3    H225282   5.391   5.433   8.083 -0.1188  0.8273  0.0200
  363TIP3   OH225283   4.676   2.737   8.406  0.0733 -0.4584 -0.0474
  363TIP3    H125284   4.757   2.705   8.447 -0.1672  1.3340  1.9735
  363TIP3    H225285   4.618   2.758   8.479 -0.2762  3.2276 -1.1958
  364TIP3   OH225286   2.696   7.570   7.700  0.6408  0.4225  0.4680
  364TIP3    H125287   2.715   7.482   7.732 -0.6918 -1.4473 -3.2756
  364TIP3    H225288   2.782   7.606   7.676  0.9997 -1.4214 -1.3236
  365TIP3   OH225289   4.428   2.054   8.873 -0.2447  0.1492  0.1051
  365TIP3    H125290   4.381   2.079   8.952  1.5389 -2.2478  2.0701
  365TIP3    H225291   4.508   2.106   8.875 -0.3185  0.2832 -0.2905
  366TIP3   OH225292   6.050   0.512   8.265  0.7032 -0.3146 -0.0077
  366TIP3    H125293   6.035   0.424   8.228 -0.5481  0.1516 -0.6510
  366TIP3    H225294   6.128   0.544   8.219  0.7487 -0.8097 -0.2851
  367TIP3   OH225295   7.619   3.422   8.869  0.5046 -0.3496  0.5395
  367TIP3    H125296   7.715   3.424   8.866  0.4802  1.7355 -1.4939
  367TIP3    H225297   7.593   3.511   8.892 -0.9909 -1.0374  1.7134
  368TIP3   OH225298   5.956   3.487   8.154 -0.2217 -0.0733  0.0343
  368TIP3    H125299   5.977   3.421   8.089  0.1228  1.9572 -2.0362
  368TIP3    H225300   5.998   3.456   8.234  0.8649 -1.7853 -1.1326
  369TIP3   OH225301   7.001   5.523   8.295 -0.2758  0.0056 -0.2667
  369TIP3    H125302   6.969   5.435   8.311 -1.4637  0.4680  0.0127
  369TIP3    H225303   7.068   5.513   8.227 -0.0122 -1.1637  0.1568
  370TIP3   OH225304   5.614   3.327   7.614 -0.1235  0.5516  0.6745
  370TIP3    H125305   5.520   3.336   7.628 -0.1319  0.5189  0.6382
  370TIP3    H225306   5.645   3.417   7.606 -0.2844  0.5390 -0.1746
  371TIP3   OH225307   3.050   3.846   7.057 -0.1184 -0.0857 -0.7566
  371TIP3    H125308   3.040   3.751   7.055 -0.3577 -0.0990  0.3364
  371TIP3    H225309   3.143   3.859   7.077 -0.4936 -0.1463  1.2327
  372TIP3   OH225310   6.794   2.622   8.299 -0.0732 -0.3954 -0.2719
  372TIP3    H125311   6.716   2.616   8.245  0.1660 -1.0590 -0.5583
  372TIP3    H225312   6.807   2.716   8.313  0.0086 -0.1865 -1.5929
  373TIP3   OH225313   1.150   7.130   8.002  0.5738 -0.0183  0.1170
  373TIP3    H125314   1.107   7.090   8.077  0.2761 -1.7201 -0.9183
  373TIP3    H225315   1.240   7.097   8.005  0.4164 -0.5323 -0.5561
  374TIP3   OH225316   5.452   2.554   7.764 -0.0379 -0.3373 -0.2743
  374TIP3    H125317   5.432   2.559   7.670 -0.0682  0.2857 -0.2431
  374TIP3    H225318   5.499   2.472   7.775  0.2936 -0.2373 -0.9006
  375TIP3   OH225319   3.633   6.752   8.355  0.4205 -0.3752  0.1913
  375TIP3    H125320   3.606   6.842   8.370 -1.1868 -0.7948  0.0183
  375TIP3    H225321   3.725   6.749   8.382 -0.0978  0.7990  2.3015
  376TIP3   OH225322   0.074   3.276   8.072 -0.1508 -0.3325  0.6094
  376TIP3    H125323   0.136   3.239   8.009  2.6969  1.3361  2.1707
  376TIP3    H225324   0.092   3.229   8.154 -0.6249  0.4908  1.2050
  377TIP3   OH225325   6.068   1.651   8.372  0.3493 -0.0966  0.0539
  377TIP3    H125326   6.019   1.728   8.400 -0.9031 -1.2182  1.0884
  377TIP3    H225327   6.096   1.610   8.454  0.0137 -1.3558 -0.4536
  378TIP3   OH225328   6.369   2.866   7.365 -0.4898 -0.0985  0.0213
  378TIP3    H125329   6.429   2.852   7.291  1.5406 -2.4981  1.9596
  378TIP3    H225330   6.283   2.873   7.324  0.4615 -1.7806 -2.5591
  379TIP3   OH225331   2.340   4.527   8.484 -0.3476  0.0754 -0.5055
  379TIP3    H125332   2.329   4.484   8.399 -0.6034 -0.7263 -0.0811
  379TIP3    H225333   2.333   4.620   8.465 -2.4522 -0.1384 -1.0888
  380TIP3   OH225334   0.260   6.208   7.840 -0.2985 -0.3246 -0.0485
  380TIP3    H125335   0.268   6.113   7.835 -1.6139 -0.4406 -0.5010
  380TIP3    H225336   0.180   6.228   7.790  0.0682  1.0364 -0.1312
  381TIP3   OH225337   0.857   5.084   8.118 -0.5688 -0.5836  0.0606
  381TIP3    H125338   0.951   5.076   8.099 -0.1178  0.6475  1.5547
  381TIP3    H225339   0.827   5.155   8.062 -0.5691 -0.8208 -0.2450
  382TIP3   OH225340   5.228   6.309   8.961 -0.2639  0.3299 -0.0623
  382TIP3    H125341   5.143   6.324   8.920  0.8065  0.8213 -2.2527
  382TIP3    H225342   5.229   6.216   8.982 -1.5423  0.4340  0.5085
  383TIP3   OH225343   5.944   3.425   8.670 -0.4348  0.6719 -0.2493
  383TIP3    H125344   5.905   3.510   8.649  0.3987  0.7631 -1.5398
  383TIP3    H225345   5.878   3.361   8.644 -0.7281  0.9010 -0.0684
  384TIP3   OH225346   4.314   0.249   8.107  0.8036 -0.5922 -0.0318
  384TIP3    H125347   4.342   0.306   8.178  0.2218 -0.3972  0.0468
  384TIP3    H225348   4.305   0.307   8.031 -0.5657 -0.4078  0.2384
  385TIP3   OH225349   3.359   6.610   6.964 -0.0033 -0.1484  0.1256
  385TIP3    H125350   3.276   6.640   6.929  1.0043  0.9895 -1.4194
  385TIP3    H225351   3.390   6.545   6.901  0.5239 -0.1463  0.3714
  386TIP3   OH225352   2.369   4.734   9.183  0.1616  0.7840  0.7867
  386TIP3    H125353   2.351   4.644   9.156  1.4176  0.8030 -0.2343
  386TIP3    H225354   2.409   4.725   9.270  0.1530  0.3579  0.7491
  387TIP3   OH225355   2.279   5.718   7.258  0.1351 -0.4288  0.0997
  387TIP3    H125356   2.277   5.793   7.198 -1.5166  1.2106  2.0534
  387TIP3    H225357   2.257   5.756   7.344 -0.5942 -3.1401  1.1990
  388TIP3   OH225358   4.905   2.018   8.725  0.5347 -0.5306  0.3012
  388TIP3    H125359   4.874   2.107   8.741  0.1841 -0.5719 -0.1310
  388TIP3    H225360   4.921   1.982   8.812  0.6313 -0.0599  0.4789
  389TIP3   OH225361   7.345   3.010   6.609 -0.3458 -0.2133 -0.4650
  389TIP3    H125362   7.412   3.067   6.571  0.5127 -0.1756  1.0739
  389TIP3    H225363   7.287   3.070   6.657  0.1069 -0.5375  0.4995
  390TIP3   OH225364   7.619   4.773   6.750  0.1253 -0.5426 -0.5083
  390TIP3    H125365   7.585   4.718   6.820 -2.1594 -0.6931 -1.6476
  390TIP3    H225366   7.708   4.794   6.778 -0.2699 -1.5830  1.8308
  391TIP3   OH225367   1.088   7.227   7.764  0.3105  0.5270 -0.7991
  391TIP3    H125368   1.127   7.167   7.828 -2.0448  0.8976  1.1708
  391TIP3    H225369   1.161   7.255   7.709  1.9965 -1.8984  0.0255
  392TIP3   OH225370   7.527   4.023   8.106  0.0632  0.2294  0.1619
  392TIP3    H125371   7.480   3.942   8.091  0.5868  0.2723 -1.9866
  392TIP3    H225372   7.611   3.995   8.145  0.2504 -0.2768 -0.5836
  393TIP3   OH225373   5.472   6.214   8.567 -0.1472  0.6131 -0.4516
  393TIP3    H125374   5.491   6.258   8.649 -0.0439 -0.6793  0.2482
  393TIP3    H225375   5.557   6.204   8.524  0.3992 -1.8897  0.9848
  394TIP3   OH225376   4.280   5.587   6.526  0.3642 -0.5803 -0.5571
  394TIP3    H125377   4.189   5.576   6.555 -0.0578 -0.1186 -1.6409
  394TIP3    H225378   4.327   5.513   6.565 -0.5248 -0.9584 -0.1766
  395TIP3   OH225379   5.890   1.389   8.665 -0.0988 -0.0128  0.2139
  395TIP3    H125380   5.954   1.459   8.679  1.6959 -1.4223 -0.6792
  395TIP3    H225381   5.882   1.347   8.751  0.2208  0.1283  0.3140
  396TIP3   OH225382   3.781   4.772   7.927 -0.1300  0.1810  0.1686
  396TIP3    H125383   3.766   4.692   7.977 -0.9736  1.1504  1.5370
  396TIP3    H225384   3.777   4.744   7.835  1.3695 -1.6244  0.5971
  397TIP3   OH225385   5.455   1.533   8.984  0.0145  0.1198  0.6652
  397TIP3    H125386   5.522   1.599   8.966  2.2827 -2.5483 -1.7160
  397TIP3    H225387   5.503   1.460   9.023 -2.2717 -0.4724  2.6223
  398TIP3   OH225388   2.446   4.628   7.282 -0.1119 -0.0492 -0.5944
  398TIP3    H125389   2.464   4.663   7.194 -3.0667  1.2386 -0.8125
  398TIP3    H225390   2.477   4.696   7.342 -1.9612  1.0980 -0.8663
  399TIP3   OH225391   0.028   7.149   7.356 -0.5220 -0.4828 -0.8166
  399TIP3    H125392   0.107   7.115   7.398  0.2304  1.4047 -0.6179
  399TIP3    H225393   0.032   7.112   7.267  1.6583  1.0701 -1.4490
  400TIP3   OH225394   5.117   1.268   7.974 -0.0279 -0.0591 -0.0190
  400TIP3    H125395   5.158   1.191   8.014  2.5172  1.3662  0.2970
  400TIP3    H225396   5.178   1.294   7.905  0.8151  3.4251  1.8412
  401TIP3   OH225397   4.323   3.964   7.486 -0.2929 -0.4396 -0.2079
  401TIP3    H125398   4.338   3.990   7.395 -1.1067 -2.2697 -0.9340
  401TIP3    H225399   4.410   3.968   7.527 -0.1266  1.6533 -0.6690
  402TIP3   OH225400   2.831   6.524   8.756  0.0348  0.0950 -0.2961
  402TIP3    H125401   2.802   6.434   8.741 -2.9525  1.1769 -1.8331
  402TIP3    H225402   2.834   6.532   8.852 -1.7543 -1.0982 -0.0915
  403TIP3   OH225403   0.735   2.862   8.291 -0.5756 -0.5429 -0.0662
  403TIP3    H125404   0.817   2.907   8.272 -0.6548 -0.6748 -0.7398
  403TIP3    H225405   0.750   2.820   8.376 -0.5131  0.7659  0.5922
  404TIP3   OH225406   4.868   2.077   7.747  0.3596 -0.4142  0.4313
  404TIP3    H125407   4.795   2.030   7.787 -0.1671  1.4616  1.7588
  404TIP3    H225408   4.946   2.045   7.794 -0.1349  0.9692  2.2759
  405TIP3   OH225409   2.627   1.079   9.462 -0.7374 -0.4833 -0.2916
  405TIP3    H125410   2.571   1.004   9.484  0.9344 -1.3290  1.3565
  405TIP3    H225411   2.699   1.041   9.411  1.3076 -0.5017  2.4078
  406TIP3   OH225412   0.580   2.715   7.908  0.3095  0.1366  0.3167
  406TIP3    H125413   0.571   2.715   8.003 -0.1862 -0.1871  0.2766
  406TIP3    H225414   0.627   2.795   7.888  2.3764 -0.8299  1.0031
  407TIP3   OH225415   4.942   3.714   8.763 -0.2722 -0.3403 -0.0377
  407TIP3    H125416   4.871   3.657   8.734  0.3266 -1.0824 -0.0763
  407TIP3    H225417   4.994   3.659   8.822 -1.1214  0.9363  1.9906
  408TIP3   OH225418   6.324   1.271   6.821 -0.1695 -0.2750 -0.2576
  408TIP3    H125419   6.314   1.187   6.866 -0.0823 -0.0486  0.1888
  408TIP3    H225420   6.339   1.248   6.729  1.2190 -0.7827  0.0870
  409TIP3   OH225421   4.884   5.061   8.701  0.5264 -0.1979 -0.1886
  409TIP3    H125422   4.906   5.097   8.787  0.0388  1.2107 -0.6263
  409TIP3    H225423   4.905   5.131   8.640 -1.6863 -0.1269 -0.9540
  410TIP3   OH225424   0.109   6.695   7.985  0.0271 -0.1920  0.3601
  410TIP3    H125425   0.080   6.640   8.058  0.1848  1.5133  1.7818
  410TIP3    H225426   0.048   6.770   7.986 -0.2917 -0.3810 -1.6144
  411TIP3   OH225427   1.719   2.735   8.679  0.0196 -0.4650 -0.0260
  411TIP3    H125428   1.700   2.643   8.700  2.7348 -0.9596  0.6160
  411TIP3    H225429   1.695   2.784   8.757 -0.6327 -0.7330 -0.0543
  412TIP3   OH225430   7.303   2.455   7.294 -0.2765  0.2338  0.6584
  412TIP3    H125431   7.238   2.525   7.298 -0.9720 -0.3988  0.6796
  412TIP3    H225432   7.334   2.447   7.385 -0.3409  0.3761  0.6939
  413TIP3   OH225433   5.361   5.123   7.953  0.1455  0.1445  0.2694
  413TIP3    H125434   5.360   5.199   8.010 -0.0092  0.9821 -0.8218
  413TIP3    H225435   5.308   5.058   7.999 -1.1626  1.2827  0.4338
  414TIP3   OH225436   2.830   6.863   9.160  0.4288  0.5762 -0.4861
  414TIP3    H125437   2.787   6.828   9.082 -0.1347  0.7458 -0.2532
  414TIP3    H225438   2.759   6.878   9.222  0.9967 -0.9575  0.6205
  415TIP3   OH225439   2.192   5.172   9.291 -0.6817  0.0274  0.9532
  415TIP3    H125440   2.194   5.124   9.208  2.0356  1.5225  0.0467
  415TIP3    H225441   2.283   5.175   9.320 -1.4181  0.4996  3.4742
  416TIP3   OH225442   1.493   6.391   7.746 -0.0359  0.0226  0.3872
  416TIP3    H125443   1.433   6.402   7.672  1.3027  1.4121 -0.5471
  416TIP3    H225444   1.436   6.369   7.820 -1.5603  0.0865 -0.7250
  417TIP3   OH225445   7.464   0.726   8.154 -0.3040 -0.3022 -1.4356
  417TIP3    H125446   7.504   0.705   8.070 -1.9935 -1.5622 -1.9688
  417TIP3    H225447   7.448   0.641   8.195 -1.8004  0.1783 -0.9640
  418TIP3   OH225448   7.068   6.242   7.635  0.6379 -0.2806 -0.0647
  418TIP3    H125449   7.083   6.170   7.696  3.5911 -0.1172 -0.4062
  418TIP3    H225450   7.080   6.202   7.548  1.2457  0.3781 -0.2972
  419TIP3   OH225451   0.310   4.894   8.350  0.2024  0.2606  0.2527
  419TIP3    H125452   0.290   4.969   8.294  0.8722 -0.1637 -0.5645
  419TIP3    H225453   0.280   4.818   8.299  0.5225 -0.1058  0.6113
  420TIP3   OH225454   7.516   6.858   7.617 -0.4497  0.0145 -0.0006
  420TIP3    H125455   7.451   6.906   7.566  0.8105  2.6387  0.6774
  420TIP3    H225456   7.466   6.815   7.686 -1.5874  1.0369 -0.1543
  421TIP3   OH225457   4.042   1.315   7.193  0.1693  0.3319  0.1322
  421TIP3    H125458   4.037   1.399   7.148 -0.0050  0.6141  0.6652
  421TIP3    H225459   4.016   1.250   7.127 -1.0856  0.8353  0.0993
  422TIP3   OH225460   4.512   3.970   8.913  0.2224  0.4906  0.0377
  422TIP3    H125461   4.603   3.940   8.910  0.4167  0.9291  1.0761
  422TIP3    H225462   4.463   3.902   8.865  0.9486 -0.3241  0.4161
  423TIP3   OH225463   3.703   3.450   7.539  0.6004 -0.2922  0.5433
  423TIP3    H125464   3.743   3.418   7.458  1.0306  1.7907 -0.1144
  423TIP3    H225465   3.624   3.396   7.549  0.9585 -1.1271 -0.8180
  424TIP3   OH225466   7.578   7.090   6.795  0.5183  0.0642 -0.2828
  424TIP3    H125467   7.533   7.006   6.785  1.1908 -0.3112 -0.2598
  424TIP3    H225468   7.508   7.153   6.812  0.0936 -0.7194  1.0702
  425TIP3   OH225469   2.075   4.809   8.595 -0.3591  0.5852  0.0693
  425TIP3    H125470   2.009   4.789   8.660  0.4523  1.5147  1.2280
  425TIP3    H225471   2.131   4.731   8.591 -1.3284 -0.0933 -0.7156
  426TIP3   OH225472   5.614   3.232   8.374  0.7011 -0.3114  0.4266
  426TIP3    H125473   5.564   3.154   8.395  0.6434 -0.2322  0.5876
  426TIP3    H225474   5.575   3.266   8.293 -0.8093  0.8496  1.5682
  427TIP3   OH225475   5.618   5.743   7.864 -0.1771  0.5528 -0.3063
  427TIP3    H125476   5.591   5.835   7.869 -0.7417  0.3253  1.5137
  427TIP3    H225477   5.546   5.695   7.903  0.9373 -0.4781  0.5613
  428TIP3   OH225478   2.440   2.098   7.656  0.2392 -0.5620 -0.5696
  428TIP3    H125479   2.489   2.171   7.693  1.8990  0.0770 -3.6865
  428TIP3    H225480   2.486   2.020   7.689  1.1732 -0.0609 -0.6345
  429TIP3   OH225481   2.614   7.132   8.545  0.3158 -0.1366 -0.0292
  429TIP3    H125482   2.595   7.048   8.504 -1.6033  0.0800  0.3415
  429TIP3    H225483   2.662   7.181   8.479  0.1320 -0.9732 -0.7977
  430TIP3   OH225484   7.327   1.928   8.053 -0.6317  0.5354 -0.1854
  430TIP3    H125485   7.381   2.003   8.075  1.5153 -1.1307  0.5705
  430TIP3    H225486   7.387   1.867   8.009 -1.9414 -1.2949  0.4438
  431TIP3   OH225487   4.229   2.288   7.911 -0.5693  0.2178 -0.1069
  431TIP3    H125488   4.240   2.205   7.865 -0.3258  0.6181 -0.7847
  431TIP3    H225489   4.312   2.300   7.958 -0.9409 -0.3521  0.7317
  432TIP3   OH225490   2.047   5.303   8.695 -0.2078  0.2259  0.3067
  432TIP3    H125491   2.004   5.387   8.708 -0.5295 -0.0728  1.1856
  432TIP3    H225492   2.107   5.295   8.769  0.1031 -0.1452  0.0161
  433TIP3   OH225493   6.402   5.179   7.760 -0.1747  0.6937 -0.0373
  433TIP3    H125494   6.374   5.102   7.810 -0.5867  0.6581 -0.3196
  433TIP3    H225495   6.454   5.230   7.823  2.3115 -1.0394 -0.5546
  434TIP3   OH225496   6.844   0.276   8.461  0.3954  0.0324 -0.7090
  434TIP3    H125497   6.801   0.355   8.496 -0.6749 -0.6669 -0.3832
  434TIP3    H225498   6.928   0.273   8.506  0.4338  0.9722 -0.6948
  435TIP3   OH225499   7.037   2.741   7.504 -0.1276 -0.0242 -0.1263
  435TIP3    H125500   7.121   2.701   7.529 -1.0799 -0.6570  2.2759
  435TIP3    H225501   7.042   2.830   7.538  0.0175  0.3332 -1.0545
  436TIP3   OH225502   4.021   2.395   8.059 -0.1042 -0.5619 -0.1209
  436TIP3    H125503   4.055   2.340   7.989  0.6561 -0.6837  0.3395
  436TIP3    H225504   4.010   2.481   8.018  2.0127 -0.1696  0.0253
  437TIP3   OH225505   0.922   3.024   8.160 -0.3056  0.2761 -0.3278
  437TIP3    H125506   1.007   3.021   8.117  0.1284 -0.3850  0.5416
  437TIP3    H225507   0.923   3.105   8.210  0.7999 -0.8298  1.5702
  438TIP3   OH225508   1.764   1.873   7.920  0.2835 -0.3636  0.2163
  438TIP3    H125509   1.852   1.885   7.885  0.1413 -0.8549 -0.3291
  438TIP3    H225510   1.714   1.835   7.848 -0.1355 -0.9575  0.7960
  439TIP3   OH225511   5.532   5.676   8.334  0.1760  0.3440 -0.5502
  439TIP3    H125512   5.539   5.604   8.396 -0.0994  1.5964  0.9777
  439TIP3    H225513   5.439   5.684   8.316  0.2029  0.3744 -0.6821
  440TIP3   OH225514   7.489   4.952   7.938 -0.4128 -0.4614  0.3755
  440TIP3    H125515   7.467   5.042   7.914 -1.2948 -0.2639  1.7680
  440TIP3    H225516   7.550   4.922   7.871 -2.4285  0.1329 -1.8202
  441TIP3   OH225517   6.151   2.461   7.294 -0.4985  0.2372 -0.3483
  441TIP3    H125518   6.074   2.488   7.344  0.1314 -0.3719  1.0094
  441TIP3    H225519   6.179   2.379   7.336  0.3727 -0.0141 -1.3782
  442TIP3   OH225520   5.228   6.703   8.123 -0.0080 -0.0203  0.1733
  442TIP3    H125521   5.188   6.690   8.209 -1.1366  0.5918 -0.2411
  442TIP3    H225522   5.234   6.615   8.086  0.6627 -0.3107  0.9401
  443TIP3   OH225523   7.301   6.973   7.485  0.1791 -0.1238  0.0908
  443TIP3    H125524   7.337   6.928   7.409  2.9452  0.4121  0.9796
  443TIP3    H225525   7.351   7.054   7.491 -2.4853  1.6324  0.4123
  444TIP3   OH225526   5.687   5.248   6.923  0.0598  0.0877  0.7552
  444TIP3    H125527   5.781   5.250   6.938  0.1436 -0.2721  0.2972
  444TIP3    H225528   5.677   5.266   6.830 -0.4322  1.9560  1.1317
  445TIP3   OH225529   2.897   5.365   6.334  0.0835  0.3636  0.2693
  445TIP3    H125530   2.963   5.344   6.268  0.3824  1.9822  0.0184
  445TIP3    H225531   2.874   5.456   6.317 -1.1161  0.2759  1.3100
  446TIP3   OH225532   7.470   2.722   8.865 -0.3918 -0.7526 -0.2290
  446TIP3    H125533   7.402   2.683   8.920 -0.8896 -0.2536 -0.4702
  446TIP3    H225534   7.426   2.741   8.782  0.0664 -0.5134 -0.4234
  447TIP3   OH225535   5.370   3.578   9.424  0.6384  0.3962  0.0500
  447TIP3    H125536   5.298   3.641   9.425  1.2855  1.1713 -0.6376
  447TIP3    H225537   5.424   3.605   9.350  0.8891 -1.0241 -0.3163
  448TIP3   OH225538   5.349   5.220   8.690  0.3690  0.0155  0.2612
  448TIP3    H125539   5.295   5.266   8.626  1.5715  1.1623  0.0366
  448TIP3    H225540   5.289   5.159   8.733 -0.1692 -2.2653 -3.2659
  449TIP3   OH225541   4.985   0.483   7.772 -0.0965 -0.0427  0.5010
  449TIP3    H125542   4.990   0.491   7.867 -0.2299  1.4145  0.4006
  449TIP3    H225543   4.913   0.540   7.746 -1.1706 -1.7005 -0.3470
  450TIP3   OH225544   1.233   2.136   7.370 -0.2873  0.9655  0.1836
  450TIP3    H125545   1.291   2.065   7.396 -2.6420 -0.6519  1.3308
  450TIP3    H225546   1.257   2.155   7.279 -1.0251 -2.9015 -0.9975
  451TIP3   OH225547   3.836   2.087   8.542 -1.2178 -0.1706  0.4118
  451TIP3    H125548   3.930   2.081   8.558 -0.9599 -0.5159 -1.0402
  451TIP3    H225549   3.799   2.012   8.589 -0.6831 -0.4095  0.4603
  452TIP3   OH225550   5.434   5.650   6.566  0.1035  0.4268  0.5072
  452TIP3    H125551   5.353   5.698   6.549 -1.0228 -0.5598  2.7355
  452TIP3    H225552   5.413   5.592   6.639  2.3837 -1.0177  0.1166
  453TIP3   OH225553   7.585   4.975   7.531  0.1569 -0.2493 -0.5726
  453TIP3    H125554   7.536   4.992   7.451  0.2024 -1.7718 -0.9633
  453TIP3    H225555   7.616   5.061   7.560  1.0942  0.2235 -2.7967
  454TIP3   OH225556   0.779   0.824   8.580  0.7525 -0.4838  0.4208
  454TIP3    H125557   0.800   0.917   8.581  3.1868 -0.9345 -0.2176
  454TIP3    H225558   0.755   0.806   8.489  1.8859 -0.7255  0.1448
  455TIP3   OH225559   0.729   1.817   9.282 -0.5434 -0.1452 -0.2035
  455TIP3    H125560   0.693   1.906   9.286  0.3022  0.1817  0.7688
  455TIP3    H225561   0.821   1.830   9.257  0.1685 -0.5264  1.9840
  456TIP3   OH225562   0.078   4.731   8.254 -0.1567 -0.2734 -0.0290
  456TIP3    H125563   0.071   4.679   8.175 -1.3404  2.3390 -1.7877
  456TIP3    H225564  -0.007   4.775   8.262  0.8933  1.7310  1.0446
  457TIP3   OH225565   0.995   4.854   7.455  0.4022  0.0014  0.4492
  457TIP3    H125566   0.989   4.763   7.425 -1.4314  0.3355 -0.3617
  457TIP3    H225567   0.906   4.876   7.482  1.0668  1.2146  1.7505
  458TIP3   OH225568   2.989   3.514   8.615 -0.6063 -0.5516 -0.1513
  458TIP3    H125569   2.919   3.489   8.676 -0.8416  0.1292 -0.1315
  458TIP3    H225570   2.954   3.492   8.529 -0.9753  0.0414 -0.1649
  459TIP3   OH225571   4.250   5.793   8.707 -0.2596 -0.0628  0.0452
  459TIP3    H125572   4.181   5.755   8.654 -0.8783 -0.2947  0.9913
  459TIP3    H225573   4.297   5.718   8.744  0.2250  0.0931 -0.2427
  460TIP3   OH225574   3.804   1.346   9.383  0.1683 -1.0638 -0.6564
  460TIP3    H125575   3.766   1.342   9.295 -0.5993 -1.2692 -0.3145
  460TIP3    H225576   3.737   1.311   9.441 -0.6073  1.9321  0.4435
  461TIP3   OH225577   5.698   7.250   8.367  0.4489 -0.0760 -0.4722
  461TIP3    H125578   5.665   7.215   8.450 -0.3662  1.8964  0.0956
  461TIP3    H225579   5.781   7.293   8.389 -0.6113  2.0072 -0.2328
  462TIP3   OH225580   1.541   2.904   8.515  0.0283 -0.3035  0.2327
  462TIP3    H125581   1.616   2.958   8.541 -0.2326 -0.2100  0.8007
  462TIP3    H225582   1.554   2.889   8.422 -0.6007  1.8834 -0.2721
  463TIP3   OH225583   0.261   3.652   8.427  0.0873  0.4062 -0.1820
  463TIP3    H125584   0.199   3.616   8.363 -0.8130  0.3672  0.6766
  463TIP3    H225585   0.270   3.744   8.403  1.0716  0.0254 -1.3603
  464TIP3   OH225586   5.718   3.930   9.062  0.2788  0.3243 -1.2210
  464TIP3    H125587   5.667   3.852   9.041  1.6011 -0.8392 -0.3149
  464TIP3    H225588   5.809   3.904   9.047  0.8266  1.3255  0.1275
  465TIP3   OH225589   5.734   0.316   9.687 -0.1522 -0.0459  0.1456
  465TIP3    H125590   5.828   0.328   9.694 -0.2831  0.8196  0.5191
  465TIP3    H225591   5.715   0.241   9.743  0.3823 -0.6066 -0.3999
  466TIP3   OH225592   7.147   7.292   8.935  0.1117 -0.4065  0.2010
  466TIP3    H125593   7.239   7.269   8.948  0.1628 -0.9072 -0.9746
  466TIP3    H225594   7.134   7.289   8.841 -1.0270  0.0307  0.3267
  467TIP3   OH225595   1.233   2.958   8.485  0.5342 -0.5413 -0.3967
  467TIP3    H125596   1.223   2.914   8.401  0.7483 -3.8184  1.1436
  467TIP3    H225597   1.292   2.901   8.535  1.0454  1.7008  1.7307
  468TIP3   OH225598   6.111   2.941   8.092 -0.1824  0.1502  0.0797
  468TIP3    H125599   6.102   2.979   8.005 -1.1654 -0.0428  0.0848
  468TIP3    H225600   6.044   2.873   8.096 -0.2150  0.2145  1.0162
  469TIP3   OH225601   2.469   4.599   7.928 -0.1372 -0.2179  0.2383
  469TIP3    H125602   2.451   4.579   8.020 -2.8013  0.6301 -0.0087
  469TIP3    H225603   2.530   4.530   7.900  3.0719  1.0977  3.2882
  470TIP3   OH225604   3.439   5.019   7.276 -0.3881  0.6797 -0.6798
  470TIP3    H125605   3.354   5.053   7.248 -0.4284  1.1368 -0.0242
  470TIP3    H225606   3.502   5.059   7.216 -0.4302  1.9908  0.1054
  471TIP3   OH225607   2.296   1.318   8.381 -0.0310 -0.7986 -0.2725
  471TIP3    H125608   2.386   1.342   8.403  0.8464 -1.2165 -3.0640
  471TIP3    H225609   2.250   1.402   8.377  0.0135 -0.6188  1.7387
  472TIP3   OH225610   5.727   4.721   8.777 -0.5471 -0.1874  0.2458
  472TIP3    H125611   5.693   4.811   8.773 -0.6295 -0.2345 -0.2044
  472TIP3    H225612   5.713   4.694   8.868 -0.1137  0.4104  0.4935
  473TIP3   OH225613   7.465   5.081   9.130  0.1864  0.6638  0.1771
  473TIP3    H125614   7.524   5.044   9.065  0.2759  0.2874  0.4650
  473TIP3    H225615   7.417   5.005   9.164 -0.1757  0.9140  0.2304
  474TIP3   OH225616   1.509   1.830   8.549  0.4389  0.1837  0.8442
  474TIP3    H125617   1.550   1.916   8.560  0.6913  0.1021  0.5403
  474TIP3    H225618   1.415   1.846   8.562  0.4412  0.5745  0.3800
  475TIP3   OH225619   1.397   7.626   7.434  0.7845 -0.3225  0.6690
  475TIP3    H125620   1.440   7.552   7.392 -1.1390 -0.9742 -0.2719
  475TIP3    H225621   1.345   7.587   7.505  0.8107  0.2861  1.0337
  476TIP3   OH225622   3.521   5.634   7.852 -0.4208  0.2198 -0.1307
  476TIP3    H125623   3.615   5.651   7.845 -0.2901 -0.6247 -0.5032
  476TIP3    H225624   3.490   5.634   7.762 -0.7097  0.1263 -0.0314
  477TIP3   OH225625   4.997   2.711   9.321  0.0476 -0.4179  0.0831
  477TIP3    H125626   5.003   2.616   9.314  0.3917 -0.3526 -0.6001
  477TIP3    H225627   5.082   2.742   9.290  0.0789  0.1007  0.6690
  478TIP3   OH225628   0.196   4.639   6.392 -0.6743  0.5688 -0.1044
  478TIP3    H125629   0.237   4.706   6.447 -1.6628  0.3487  0.9391
  478TIP3    H225630   0.162   4.687   6.317 -0.6260  1.1091  0.2143
  479TIP3   OH225631   4.782   7.661   6.818 -0.1984 -0.3446  0.5019
  479TIP3    H125632   4.715   7.611   6.865 -0.2579 -2.2077 -1.4348
  479TIP3    H225633   4.865   7.627   6.852 -0.1528  1.2109  2.1200
  480TIP3   OH225634   2.768   4.774   7.344  0.1063 -0.2013  0.0340
  480TIP3    H125635   2.770   4.858   7.300  0.1156 -0.1054  0.2136
  480TIP3    H225636   2.715   4.789   7.422  0.5026 -0.2369  0.3173
  481TIP3   OH225637   3.456   2.576   6.643  0.2135 -0.9660 -0.0710
  481TIP3    H125638   3.436   2.571   6.550 -0.1790 -1.4151  0.0311
  481TIP3    H225639   3.551   2.563   6.648  0.3772  0.0089 -0.4708
  482TIP3   OH225640   6.445   1.802   8.085 -0.0115 -0.6657 -0.4363
  482TIP3    H125641   6.376   1.828   8.024  0.7226 -1.0643 -1.4706
  482TIP3    H225642   6.399   1.751   8.152 -0.9496  0.4420 -0.2151
  483TIP3   OH225643   2.084   5.588   9.103  0.0096 -0.1076 -0.2844
  483TIP3    H125644   2.039   5.631   9.175  0.2755  1.1521 -0.8309
  483TIP3    H225645   2.015   5.561   9.043 -0.1650 -0.4990  0.0913
  484TIP3   OH225646   4.876   0.297   9.330  0.2919  0.0095 -0.1621
  484TIP3    H125647   4.847   0.357   9.262 -0.3081 -0.0545  0.0298
  484TIP3    H225648   4.923   0.228   9.283 -0.2229 -0.0978 -0.5321
  485TIP3   OH225649   0.501   6.300   6.812 -0.0940 -0.0201 -0.3270
  485TIP3    H125650   0.406   6.301   6.800 -0.0669 -0.7260 -0.6852
  485TIP3    H225651   0.525   6.207   6.803  0.4445 -0.0598  1.1695
  486TIP3   OH225652   3.883   0.675   9.138 -0.1718  0.5372 -0.1692
  486TIP3    H125653   3.955   0.682   9.199  0.1968  0.1758 -0.5548
  486TIP3    H225654   3.850   0.765   9.129  0.0547  0.6599  0.2131
  487TIP3   OH225655   6.102   2.736   8.971  0.0148  0.6352 -0.0008
  487TIP3    H125656   6.166   2.744   9.042 -1.4604 -0.1760  1.4982
  487TIP3    H225657   6.117   2.813   8.916  1.0996  1.3734  1.2791
  488TIP3   OH225658   0.235   0.886   8.329  0.2222  0.4000 -0.3579
  488TIP3    H125659   0.145   0.881   8.296  0.2964  1.8139 -0.8283
  488TIP3    H225660   0.277   0.953   8.275  1.2973  0.4039  0.4535
  489TIP3   OH225661   4.191   3.608   8.961 -0.1249 -0.1229 -0.0914
  489TIP3    H125662   4.121   3.667   8.987 -0.3448 -0.9355  1.2202
  489TIP3    H225663   4.259   3.665   8.926 -1.7683  0.6375 -2.3273
  490TIP3   OH225664   5.604   7.477   9.699  0.1421  0.3246 -0.2248
  490TIP3    H125665   5.696   7.452   9.713 -0.1731 -0.2108  1.1199
  490TIP3    H225666   5.590   7.464   9.606  1.0517 -1.0073 -0.2181
  491TIP3   OH225667   6.317   2.766   7.970  0.0685  0.0700 -0.1342
  491TIP3    H125668   6.385   2.819   8.011  0.4269  1.1724 -2.0511
  491TIP3    H225669   6.240   2.779   8.025  1.4127 -1.5908  2.3773
  492TIP3   OH225670   1.510   4.857   7.455 -0.2444  0.0913  0.4378
  492TIP3    H125671   1.585   4.914   7.444 -0.4721  0.5987  1.4163
  492TIP3    H225672   1.547   4.770   7.468  0.0718 -0.3924 -2.9957
  493TIP3   OH225673   2.869   3.975   7.525 -0.1676  0.2727  0.1159
  493TIP3    H125674   2.823   3.911   7.579 -0.5436 -0.5753 -1.1593
  493TIP3    H225675   2.856   4.058   7.571 -0.5473 -0.3982  1.2644
  494TIP3   OH225676   0.680   4.519   6.996 -0.6197 -0.1106  0.2792
  494TIP3    H125677   0.733   4.441   6.981 -1.3527 -0.4874 -0.4223
  494TIP3    H225678   0.590   4.492   6.973 -0.8297  1.0155 -0.2865
  495TIP3   OH225679   5.515   0.598   6.706 -0.4517  0.5546 -0.0893
  495TIP3    H125680   5.484   0.689   6.707 -0.9943  0.4146 -1.8219
  495TIP3    H225681   5.437   0.547   6.683  0.4850 -0.0471 -2.1199
  496TIP3   OH225682   3.144   3.243   8.750 -0.0420  0.3010  0.1096
  496TIP3    H125683   3.198   3.205   8.681  0.2533  0.4431  0.2601
  496TIP3    H225684   3.206   3.265   8.820 -0.2292  0.9056  0.0909
  497TIP3   OH225685   2.980   2.775   6.815 -0.2633  0.5354 -0.0488
  497TIP3    H125686   3.053   2.722   6.783 -1.6185 -0.7959 -1.0976
  497TIP3    H225687   2.924   2.712   6.860 -0.9534  1.4557  0.3901
  498TIP3   OH225688   6.368   1.937   7.623 -0.4336  0.3390  0.1286
  498TIP3    H125689   6.414   2.020   7.616  0.4927 -0.2232 -0.7805
  498TIP3    H225690   6.279   1.960   7.651  0.1166  1.5258  0.9832
  499TIP3   OH225691   7.355   0.542   7.057  0.2109  0.1515 -0.1512
  499TIP3    H125692   7.297   0.468   7.039  0.5348 -0.7130  2.0218
  499TIP3    H225693   7.304   0.599   7.114  0.5446  0.8156 -0.5007
  500TIP3   OH225694   4.981   6.559   9.895 -0.4856  0.3140 -0.0466
  500TIP3    H125695   4.968   6.586   9.986 -0.5782 -0.8107  0.2941
  500TIP3    H225696   5.075   6.543   9.888 -0.7928 -2.6076  0.8042
  501TIP3   OH225697   1.789   0.922   8.444  0.2225  0.2121  0.2642
  501TIP3    H125698   1.827   0.958   8.524 -0.4190  0.9848  0.2287
  501TIP3    H225699   1.852   0.856   8.415  0.9212  0.5939  0.8869
  502TIP3   OH225700   0.828   3.357   7.579  0.4433 -0.5928 -0.9280
  502TIP3    H125701   0.760   3.321   7.523 -1.7441 -0.9251  1.7443
  502TIP3    H225702   0.884   3.282   7.600 -1.1314 -1.4182  0.5294
  503TIP3   OH225703   4.976   6.647   8.926  0.4441  0.3371  0.2678
  503TIP3    H125704   4.926   6.707   8.870  1.0766  0.6480  0.0206
  503TIP3    H225705   4.962   6.561   8.887  1.5836  0.6515 -0.9388
  504TIP3   OH225706   5.606   6.679   8.660  0.4278  0.1610 -0.6378
  504TIP3    H125707   5.519   6.648   8.687  1.6380 -2.2154  0.8825
  504TIP3    H225708   5.614   6.766   8.700 -0.2623 -0.6971  1.5266
  505TIP3   OH225709   6.035   2.729   7.568  0.1668  0.1434 -0.1813
  505TIP3    H125710   5.983   2.780   7.630 -1.7698 -1.6792 -0.2043
  505TIP3    H225711   6.049   2.789   7.494  0.4538  1.5426  0.9564
  506TIP3   OH225712   0.458   6.986   9.405 -0.5861  0.8611  0.2657
  506TIP3    H125713   0.499   6.911   9.447 -0.4099  0.0457 -1.2754
  506TIP3    H225714   0.407   6.948   9.333  0.2238  2.2623 -1.1012
  507TIP3   OH225715   6.715   1.168   7.458 -0.0237 -0.7932  0.2547
  507TIP3    H125716   6.693   1.194   7.369  1.4507  0.5931  0.2563
  507TIP3    H225717   6.755   1.081   7.448 -0.5496 -0.9761 -0.3328
  508TIP3   OH225718   0.321   7.015   9.016  0.3640  0.1293  0.2939
  508TIP3    H125719   0.312   6.968   8.933 -0.4135  0.2036  0.3299
  508TIP3    H225720   0.314   7.107   8.993  2.1328  0.2852  0.1896
  509TIP3   OH225721   6.552   2.588   7.921  0.2864  0.2184 -0.6365
  509TIP3    H125722   6.527   2.499   7.895 -0.1455  0.6025 -1.5573
  509TIP3    H225723   6.470   2.629   7.948  0.5953  0.1060  0.5465
  510TIP3   OH225724   1.669   6.132   7.869 -0.2576 -0.5092 -0.3785
  510TIP3    H125725   1.734   6.064   7.884  2.5705  2.2723  1.3110
  510TIP3    H225726   1.608   6.125   7.942  0.1974 -1.0013 -0.0427
  511TIP3   OH225727   5.582   0.385   7.273  0.0211  0.2214  0.3509
  511TIP3    H125728   5.538   0.371   7.357  2.2233 -2.2895  1.2215
  511TIP3    H225729   5.566   0.305   7.223 -1.8169  1.9242 -2.0428
  512TIP3   OH225730   1.065   5.667   8.774  0.1816  0.2778 -0.3599
  512TIP3    H125731   1.003   5.733   8.805 -2.2325 -1.2507 -1.5763
  512TIP3    H225732   1.096   5.700   8.689 -0.2723  0.3021 -0.5180
  513TIP3   OH225733   0.038   2.841   8.874  0.2069  0.2464  0.0603
  513TIP3    H125734   0.047   2.923   8.826  0.6669  0.5013  0.5733
  513TIP3    H225735  -0.055   2.819   8.867  0.1803  0.5364 -0.5199
  514TIP3   OH225736   1.816   0.429   8.128  0.4263  0.0051  0.0681
  514TIP3    H125737   1.874   0.494   8.088  0.7919 -0.9209 -0.9321
  514TIP3    H225738   1.753   0.481   8.177  1.4389  1.0760  0.2924
  515TIP3   OH225739   7.189   4.652   9.453  0.0382 -0.0896 -0.0531
  515TIP3    H125740   7.247   4.728   9.461  0.7296 -0.4238 -1.5253
  515TIP3    H225741   7.238   4.579   9.488 -0.7117  0.1488  1.5651
  516TIP3   OH225742   3.536   4.739   9.075 -0.5130 -0.0759 -0.2952
  516TIP3    H125743   3.512   4.812   9.132  0.8090 -1.0876  1.6692
  516TIP3    H225744   3.513   4.661   9.125  0.5611 -1.0123 -1.2091
  517TIP3   OH225745   6.430   0.493   7.998 -0.2546 -0.2083 -0.5008
  517TIP3    H125746   6.444   0.405   8.030 -2.9766 -0.5275  0.0636
  517TIP3    H225747   6.346   0.489   7.951  0.1025  1.8292 -1.4546
  518TIP3   OH225748   2.476   2.437   8.955 -0.3917 -0.9191  0.0719
  518TIP3    H125749   2.390   2.468   8.927 -0.1967  0.4210  0.8865
  518TIP3    H225750   2.463   2.405   9.044 -0.1464 -1.1919  0.0143
  519TIP3   OH225751   1.195   5.658   8.238 -0.3572 -0.3184 -0.2199
  519TIP3    H125752   1.241   5.609   8.170 -0.2176  0.0044 -0.3623
  519TIP3    H225753   1.253   5.732   8.257 -1.2969  0.6922 -1.1692
  520TIP3   OH225754   0.696   0.431   8.323  0.0511 -0.3679 -0.0404
  520TIP3    H125755   0.649   0.466   8.399  0.5941  0.2503  0.0171
  520TIP3    H225756   0.633   0.434   8.252 -0.0385  0.3604  0.0622
  521TIP3   OH225757   1.025   7.433   7.904 -0.4669  0.1954 -0.2619
  521TIP3    H125758   0.981   7.492   7.843 -0.3179 -0.4801 -1.0362
  521TIP3    H225759   1.026   7.349   7.859  0.5421 -0.0817  0.2602
  522TIP3   OH225760   6.984   0.690   7.936 -1.0947 -0.2873  0.2179
  522TIP3    H125761   7.034   0.718   8.013 -1.7796 -0.4074  0.7160
  522TIP3    H225762   6.928   0.764   7.915 -1.2467 -0.4265  0.1267
  523TIP3   OH225763   5.731   6.925   8.292  0.1842  0.1156  0.5169
  523TIP3    H125764   5.782   6.850   8.323  0.3390  0.0254  0.0473
  523TIP3    H225765   5.649   6.887   8.261 -0.8493  0.3977  2.6675
  524TIP3   OH225766   3.276   0.311   8.767 -0.0133  0.5348 -0.2602
  524TIP3    H125767   3.254   0.394   8.726 -0.5659  0.8168  0.5594
  524TIP3    H225768   3.271   0.329   8.861  1.2168 -0.0830 -0.0653
  525TIP3   OH225769   5.501   3.124   9.187 -0.2017 -0.0816 -0.1369
  525TIP3    H125770   5.412   3.090   9.200 -0.3947  0.5839  0.3132
  525TIP3    H225771   5.507   3.199   9.246  0.1615  0.7793 -1.2507
  526TIP3   OH225772   3.862   3.873   8.776 -0.5319  0.1439 -0.1986
  526TIP3    H125773   3.813   3.946   8.813 -1.0319 -0.3213  0.0667
  526TIP3    H225774   3.850   3.801   8.838 -3.0403 -1.2834 -2.0850
  527TIP3   OH225775   4.406   3.656   8.558  0.0696 -0.0378 -0.1980
  527TIP3    H125776   4.323   3.663   8.511 -0.1816  1.6841  0.4451
  527TIP3    H225777   4.455   3.735   8.534  1.8838 -1.3646 -1.1643
  528TIP3   OH225778   5.540   0.522   9.699  0.0762 -0.2001 -0.6605
  528TIP3    H125779   5.486   0.493   9.773  0.8760 -0.6237 -0.2358
  528TIP3    H225780   5.611   0.459   9.695  0.6580  0.4676 -1.0914
  529TIP3   OH225781   5.984   6.217   7.344 -0.0074  0.0228 -0.6212
  529TIP3    H125782   6.032   6.280   7.290  0.1316 -0.6357 -1.2759
  529TIP3    H225783   5.922   6.175   7.283  0.0590 -0.6328 -0.2464
  530TIP3   OH225784   1.813   2.531   8.227 -0.0664  0.4699  0.0212
  530TIP3    H125785   1.748   2.464   8.248  0.3075 -0.0465 -0.4404
  530TIP3    H225786   1.793   2.604   8.286  0.3611 -0.5679  1.4839
  531TIP3   OH225787   7.215   6.556   8.557 -0.4173 -0.2892  0.3191
  531TIP3    H125788   7.129   6.516   8.565 -0.2122 -0.5466  1.5262
  531TIP3    H225789   7.257   6.509   8.485 -1.4439  0.1860 -0.6223
  532TIP3   OH225790   6.209   3.083   7.201 -0.1158  0.0099  0.2521
  532TIP3    H125791   6.291   3.105   7.246  0.0900 -0.7697  0.2766
  532TIP3    H225792   6.221   3.117   7.113 -1.1336  2.9473  1.1399
  533TIP3   OH225793   5.840   5.037   8.500  1.1062 -1.1989 -0.7281
  533TIP3    H125794   5.888   5.024   8.418  1.5830 -1.8088 -0.3602
  533TIP3    H225795   5.749   5.041   8.474  1.3965  1.4820 -1.6248
  534TIP3   OH225796   5.074   5.981   8.120  0.1957 -0.3007 -0.1463
  534TIP3    H125797   5.129   6.056   8.096 -1.7582  0.9398 -0.9655
  534TIP3    H225798   5.134   5.922   8.165  2.2053  0.9588 -0.9947
  535TIP3   OH225799   0.239   5.591   7.823 -0.6828 -0.2220 -0.8679
  535TIP3    H125800   0.280   5.674   7.846 -1.7316 -0.3794  2.0580
  535TIP3    H225801   0.307   5.541   7.779  1.3444  0.6475  1.1096
  536TIP3   OH225802   6.278   3.488   9.415  0.0742 -0.2579  0.0658
  536TIP3    H125803   6.336   3.498   9.491 -1.7656  1.7335  1.3221
  536TIP3    H225804   6.227   3.569   9.412 -2.5035 -1.7712 -1.0732
  537TIP3   OH225805   0.384   4.019   6.438 -0.1123  0.6020  0.2905
  537TIP3    H125806   0.371   4.073   6.516 -0.6331  2.4111 -0.9698
  537TIP3    H225807   0.442   4.071   6.383 -0.6855 -0.0875 -1.0173
  538TIP3   OH225808   0.159   0.460   8.791 -0.3095 -0.2174  0.3358
  538TIP3    H125809   0.199   0.379   8.822 -1.2165 -0.7261  0.1908
  538TIP3    H225810   0.068   0.454   8.818 -0.0936  1.3920  1.5930
  539TIP3   OH225811   3.880   1.921   8.314  0.3083 -0.3207 -0.0009
  539TIP3    H125812   3.852   1.988   8.252 -2.8691 -1.2667  0.2137
  539TIP3    H225813   3.887   1.967   8.397 -0.9251 -0.0407 -0.0328
  540TIP3   OH225814   5.024   1.438   6.857  0.4954 -0.8939  0.4676
  540TIP3    H125815   5.119   1.442   6.845  0.6566 -0.8473  1.6141
  540TIP3    H225816   4.997   1.360   6.811  1.2116 -1.3243  0.7575
  541TIP3   OH225817   5.557   7.185   7.146  0.2434  0.1755  0.4100
  541TIP3    H125818   5.469   7.148   7.151  0.4625 -0.6202 -1.0979
  541TIP3    H225819   5.567   7.234   7.228 -1.0444 -0.9108  1.2569
  542TIP3   OH225820   4.204   6.461   8.796  0.1710 -0.1099 -0.3296
  542TIP3    H125821   4.284   6.495   8.757 -0.2160  1.1996 -0.0151
  542TIP3    H225822   4.174   6.530   8.855 -0.7496 -0.9195  0.1815
  543TIP3   OH225823   7.059   7.304   9.408 -0.0186 -0.9697 -0.3968
  543TIP3    H125824   7.019   7.387   9.435 -1.7798 -2.0558  0.5126
  543TIP3    H225825   7.147   7.328   9.378  0.4175  0.9410  2.0814
  544TIP3   OH225826   6.951   5.576   9.261 -0.3801 -0.1675 -0.0605
  544TIP3    H125827   6.997   5.657   9.283  0.2758 -0.3456 -0.7084
  544TIP3    H225828   6.875   5.574   9.319  0.0213  0.5194  0.5011
  545TIP3   OH225829   6.886   1.517   7.020 -0.0304 -0.7644 -0.6145
  545TIP3    H125830   6.895   1.518   6.925  0.4751  1.1432 -0.6062
  545TIP3    H225831   6.848   1.603   7.041  1.3292 -0.5008  0.9923
  546TIP3   OH225832   3.246   1.323   6.982  0.0252 -0.5151  0.2808
  546TIP3    H125833   3.322   1.356   7.031  0.5330 -0.2901 -0.6385
  546TIP3    H225834   3.244   1.230   7.003  0.8511 -0.6207 -0.0576
  547TIP3   OH225835   6.716   0.375   8.877 -0.0030 -0.3516  0.0804
  547TIP3    H125836   6.756   0.339   8.956  0.3418  0.6624  0.3844
  547TIP3    H225837   6.626   0.342   8.879 -0.2517  0.3405  1.3588
  548TIP3   OH225838   1.481   2.720   9.690  0.8447  0.2774  0.6784
  548TIP3    H125839   1.451   2.765   9.768 -0.0621  1.9706 -0.5885
  548TIP3    H225840   1.436   2.636   9.692 -1.2891  1.3562  0.6415
  549TIP3   OH225841   5.129   5.273   8.519  0.2799  0.3173  0.3979
  549TIP3    H125842   5.075   5.334   8.570 -0.1466  0.9525 -0.7708
  549TIP3    H225843   5.154   5.322   8.441  2.8446  0.1393  1.0165
  550TIP3   OH225844   3.435   2.137   7.843  0.2032  0.2641  0.3842
  550TIP3    H125845   3.499   2.075   7.808  0.7487  1.6993 -1.3208
  550TIP3    H225846   3.439   2.126   7.938  1.5575 -1.0307  0.2098
  551TIP3   OH225847   0.799   6.955   8.977  0.3465 -0.2375  0.1880
  551TIP3    H125848   0.738   7.020   9.013 -1.8357 -3.2456  2.5453
  551TIP3    H225849   0.859   6.935   9.049  1.4933 -0.2875 -0.7501
  552TIP3   OH225850   2.059   0.578   8.880 -0.0576  0.3532 -0.0545
  552TIP3    H125851   2.102   0.657   8.913 -0.2820  0.5345 -0.1945
  552TIP3    H225852   2.126   0.510   8.887  0.8592  0.9948 -1.9590
  553TIP3   OH225853   7.079   2.037   7.909  0.2002  0.2215  0.9435
  553TIP3    H125854   7.149   1.979   7.937  0.2468  0.1092  0.6079
  553TIP3    H225855   7.122   2.122   7.896  0.4809 -0.0795 -0.2079
  554TIP3   OH225856   7.616   6.845   8.435 -0.1318 -0.6061  0.2079
  554TIP3    H125857   7.702   6.840   8.392 -0.1639 -1.7451  0.2434
  554TIP3    H225858   7.554   6.826   8.365 -0.6026  2.9053 -0.4792
  555TIP3   OH225859   1.009   3.524   9.478 -0.1188  0.1265  0.4102
  555TIP3    H125860   1.100   3.520   9.448 -0.2631 -0.0217 -0.0247
  555TIP3    H225861   0.984   3.433   9.491 -0.4400  0.1121 -0.2263
  556TIP3   OH225862   7.465   6.092   7.753  0.2227  0.0654  0.0349
  556TIP3    H125863   7.404   6.027   7.719 -0.0688  0.7990 -0.8916
  556TIP3    H225864   7.549   6.067   7.715  0.4029 -0.6079  0.8491
  557TIP3   OH225865   6.735   5.200   8.032  0.0131  0.2127 -1.0225
  557TIP3    H125866   6.800   5.242   7.976  0.8234  0.0592 -0.2140
  557TIP3    H225867   6.657   5.255   8.021  1.3906  2.8232  0.9938
  558TIP3   OH225868   1.152   7.352   9.213 -0.4454 -0.0124 -0.0874
  558TIP3    H125869   1.097   7.377   9.140 -3.4423  1.6815  2.4979
  558TIP3    H225870   1.126   7.411   9.284  2.4503 -1.3332  2.3101
  559TIP3   OH225871   0.777   4.415   7.565 -0.0568  0.4686 -0.3463
  559TIP3    H125872   0.743   4.492   7.611  1.7343  1.7529 -1.0683
  559TIP3    H225873   0.839   4.451   7.501  1.0552 -1.5986 -0.4968
  560TIP3   OH225874   4.025   0.594   7.623  0.1643 -0.2819 -0.1094
  560TIP3    H125875   3.942   0.623   7.583 -0.0966 -0.9106 -0.0407
  560TIP3    H225876   4.052   0.667   7.678 -1.8264 -1.0907  2.1175
  561TIP3   OH225877   3.560   4.334   6.734  0.1117 -0.1345  0.1999
  561TIP3    H125878   3.642   4.312   6.778  0.8249  0.3057 -0.8623
  561TIP3    H225879   3.524   4.250   6.708  2.3420 -0.2632 -3.0046
  562TIP3   OH225880   5.371   4.051   7.411 -0.2966 -0.2464 -0.4958
  562TIP3    H125881   5.337   4.120   7.355 -1.7275 -0.6149 -0.1209
  562TIP3    H225882   5.443   4.092   7.459 -0.2222  0.5774 -1.2890
  563TIP3   OH225883   3.569   1.923   9.492 -0.4281  0.3272 -0.1101
  563TIP3    H125884   3.563   1.830   9.514  1.6849  0.4777  1.4082
  563TIP3    H225885   3.536   1.928   9.403  1.5821 -2.3185 -1.1716
  564TIP3   OH225886   1.285   1.564   7.459 -0.0426 -0.4165 -0.5203
  564TIP3    H125887   1.248   1.487   7.416 -1.4026  0.3991 -0.8969
  564TIP3    H225888   1.244   1.638   7.414  0.3223  0.5044  0.6091
  565TIP3   OH225889   3.849   4.278   7.673 -0.3112 -0.5681  0.9463
  565TIP3    H125890   3.831   4.338   7.601 -1.3191 -0.9353  0.8717
  565TIP3    H225891   3.945   4.271   7.675 -0.2654 -0.7825 -0.5484
  566TIP3   OH225892   1.114   3.867   7.302 -0.0157  0.1592  0.9044
  566TIP3    H125893   1.134   3.812   7.377 -0.9421 -0.1526  0.9440
  566TIP3    H225894   1.117   3.806   7.227  1.4642  0.5764  0.5893
  567TIP3   OH225895   5.994   0.314   9.114 -0.1533 -0.0896  1.4892
  567TIP3    H125896   5.911   0.279   9.081  0.5123 -1.0038  0.7132
  567TIP3    H225897   5.995   0.292   9.207 -1.6564  1.7197  1.9965
  568TIP3   OH225898   0.132   7.400   7.944 -0.0749 -0.0401 -0.5603
  568TIP3    H125899   0.116   7.493   7.925  0.2297  0.1114 -0.1056
  568TIP3    H225900   0.046   7.365   7.965  0.0318  0.5443  0.9471
  569TIP3   OH225901   2.378   6.511   8.647 -0.3259  0.5162 -0.1883
  569TIP3    H125902   2.469   6.480   8.647 -0.2751  0.5723 -1.6839
  569TIP3    H225903   2.326   6.431   8.652 -0.2089  0.4907  0.8042
  570TIP3   OH225904   4.733   6.700   8.126  0.1478 -0.0337  0.3569
  570TIP3    H125905   4.750   6.651   8.206  2.7352  1.3738  0.7780
  570TIP3    H225906   4.667   6.764   8.150  1.3480  0.7877  1.6109
  571TIP3   OH225907   1.593   1.597   9.337  0.0894 -0.1215 -0.4436
  571TIP3    H125908   1.622   1.618   9.426 -2.9138 -0.1080  0.6757
  571TIP3    H225909   1.662   1.541   9.302  2.7145  2.0712  0.8115
  572TIP3   OH225910   4.159   0.276   7.219 -0.0873 -0.4260  0.7331
  572TIP3    H125911   4.112   0.212   7.165  1.7736 -0.4749 -0.9480
  572TIP3    H225912   4.251   0.262   7.198  0.4360  2.5014  0.6503
  573TIP3   OH225913   3.705   3.979   7.953 -0.4934 -0.0175  0.3040
  573TIP3    H125914   3.641   3.960   8.021 -0.1108  1.0088  0.9920
  573TIP3    H225915   3.664   3.951   7.872 -1.4461 -0.1843  0.8294
  574TIP3   OH225916   2.578   6.908   8.372 -0.1496 -0.2219  0.0986
  574TIP3    H125917   2.602   6.922   8.280 -1.1542  0.5228 -0.0693
  574TIP3    H225918   2.624   6.828   8.397 -0.4347 -0.8345 -1.2709
  575TIP3   OH225919   6.090   0.972   8.297 -0.3344 -0.3891 -0.4441
  575TIP3    H125920   6.184   0.984   8.311 -0.5041  0.1348  0.3955
  575TIP3    H225921   6.069   1.031   8.225  0.0648 -0.9083 -0.9980
  576TIP3   OH225922   5.179   5.779   6.588 -0.0625 -0.0007  0.4008
  576TIP3    H125923   5.139   5.719   6.651 -0.2107 -0.7442 -0.3798
  576TIP3    H225924   5.106   5.823   6.546 -0.2253 -2.1290 -1.7842
  577TIP3   OH225925   5.188   0.404   6.975  0.1748 -0.1258 -0.3574
  577TIP3    H125926   5.164   0.379   7.064 -1.7707  0.6374 -0.6219
  577TIP3    H225927   5.269   0.356   6.957  0.4283 -0.5327  1.6933
  578TIP3   OH225928   7.643   0.875   7.332 -0.2408  0.1061 -0.0732
  578TIP3    H125929   7.644   0.785   7.363 -0.1451  0.5781  1.3424
  578TIP3    H225930   7.616   0.868   7.240 -2.1362 -1.2039  0.5252
  579TIP3   OH225931   1.762   6.378   7.777 -0.1198  0.4844  0.0386
  579TIP3    H125932   1.689   6.432   7.747 -1.4177  0.0891  2.2657
  579TIP3    H225933   1.722   6.295   7.801  1.1438  0.0789  0.8544
  580TIP3   OH225934   4.099   1.037   8.463 -0.5442  0.1573 -0.0320
  580TIP3    H125935   4.086   1.091   8.541 -1.6073  0.2701 -0.2753
  580TIP3    H225936   4.170   1.080   8.416  0.2326 -0.0170  0.9591
  581TIP3   OH225937   2.306   5.021   7.677  0.2668 -0.3737  0.2332
  581TIP3    H125938   2.366   4.984   7.742  2.2201 -0.7864 -1.6917
  581TIP3    H225939   2.363   5.061   7.611 -1.5411 -1.0134 -1.8423
  582TIP3   OH225940   4.866   4.674   7.370  0.3524  0.0895 -0.5333
  582TIP3    H125941   4.838   4.593   7.327  0.5882 -0.2482 -0.0572
  582TIP3    H225942   4.840   4.743   7.309 -0.3462 -0.3035 -0.6969
  583TIP3   OH225943   0.143   3.524   7.283 -0.1754 -0.5688  0.0002
  583TIP3    H125944   0.138   3.431   7.307  0.9480 -0.7649 -0.4572
  583TIP3    H225945   0.198   3.526   7.205 -0.9683  0.4030 -0.5662
  584TIP3   OH225946   1.429   6.760   9.440  0.0862  0.3906  0.2217
  584TIP3    H125947   1.463   6.842   9.404  0.7709  0.5627  1.2108
  584TIP3    H225948   1.466   6.692   9.385  0.8892  0.6630  0.4088
  585TIP3   OH225949   4.943   0.641   7.401 -0.4134  0.6076  0.2316
  585TIP3    H125950   4.917   0.549   7.413 -0.6825  0.8372  1.6128
  585TIP3    H225951   4.898   0.668   7.321  0.5196 -0.7559 -0.7957
  586TIP3   OH225952   6.210   5.827   8.591 -0.5196  0.1039  0.1246
  586TIP3    H125953   6.180   5.806   8.680 -0.3146  0.1453  0.2057
  586TIP3    H225954   6.241   5.917   8.597 -2.0434  0.6912 -0.3897
  587TIP3   OH225955   3.250   3.266   7.405  0.6917 -0.3927  0.1824
  587TIP3    H125956   3.257   3.247   7.311 -0.2133  1.2825 -0.2735
  587TIP3    H225957   3.249   3.181   7.447 -0.2701 -1.2511 -1.4626
  588TIP3   OH225958   7.386   1.303   8.602 -0.0867  0.3180  0.1820
  588TIP3    H125959   7.391   1.298   8.698  0.4711  1.9282  0.2646
  588TIP3    H225960   7.305   1.350   8.585 -0.4109 -0.3619 -0.1566
  589TIP3   OH225961   3.369   1.197   8.603  0.5432 -0.6260 -0.4343
  589TIP3    H125962   3.283   1.164   8.577 -0.0691 -0.6934  1.4766
  589TIP3    H225963   3.398   1.250   8.529 -0.6023 -1.5626 -1.6023
  590TIP3   OH225964   2.219   0.357   8.844 -0.1494 -0.0628 -0.3169
  590TIP3    H125965   2.257   0.334   8.928  1.8780  0.3571 -1.0512
  590TIP3    H225966   2.209   0.274   8.798 -1.6019 -0.3285  0.4409
  591TIP3   OH225967   4.594   7.143   6.737  0.2626 -0.0224  0.1015
  591TIP3    H125968   4.653   7.073   6.709  1.4580  0.5036  1.2155
  591TIP3    H225969   4.646   7.223   6.728 -1.9486  1.2501 -3.9370
  592TIP3   OH225970   3.845   1.500   6.860  0.1215  0.2741  0.2169
  592TIP3    H125971   3.764   1.551   6.852  0.3643  0.5765 -0.3753
  592TIP3    H225972   3.915   1.562   6.841  0.4966  0.0107  0.7227
  593TIP3   OH225973   4.657   0.583   7.304 -0.5695 -0.0802  0.6010
  593TIP3    H125974   4.635   0.639   7.379  0.5702 -0.1483  1.0026
  593TIP3    H225975   4.723   0.633   7.255 -0.2142 -0.6731  0.4636
  594TIP3   OH225976   6.095   6.281   8.192  0.1261 -0.0357  0.1220
  594TIP3    H125977   6.183   6.246   8.206 -0.3368 -0.9188  0.9959
  594TIP3    H225978   6.047   6.208   8.152  0.4004  1.2220 -2.7346
  595TIP3   OH225979   3.769   4.966   8.115 -0.2238  0.5825 -0.0699
  595TIP3    H125980   3.718   4.906   8.168 -0.0662 -0.5116 -1.1130
  595TIP3    H225981   3.788   4.917   8.035 -0.4237  2.1541 -1.1197
  596TIP3   OH225982   0.431   4.344   7.603  0.3598  0.0005 -0.2597
  596TIP3    H125983   0.481   4.267   7.576 -0.6581 -0.4961 -0.8029
  596TIP3    H225984   0.339   4.319   7.589  0.0285  2.2314 -3.1832
  597TIP3   OH225985   3.488   2.659   8.987  0.2503  0.5112 -0.4690
  597TIP3    H125986   3.400   2.673   9.024  0.2730  1.4819 -0.7489
  597TIP3    H225987   3.541   2.632   9.062 -0.6192 -1.6930 -0.5821
  598TIP3   OH225988   3.822   6.602   7.165 -0.5713  0.0257 -0.3316
  598TIP3    H125989   3.778   6.519   7.144  0.7274 -0.9651  0.6957
  598TIP3    H225990   3.908   6.594   7.125 -0.1135  0.4892  0.5452
  599TIP3   OH225991   6.524   2.507   9.031 -0.0418 -0.2167  0.3776
  599TIP3    H125992   6.547   2.600   9.026 -1.8485  0.3872  1.9142
  599TIP3    H225993   6.599   2.466   9.074  0.7509  0.5266 -0.2602
  600TIP3   OH225994   1.596   5.596   7.251 -0.2666 -0.5025 -0.2304
  600TIP3    H125995   1.666   5.640   7.203 -1.1930  0.6611 -0.5808
  600TIP3    H225996   1.577   5.518   7.200  2.3823 -2.2081  1.1579
  601TIP3   OH225997   2.418   3.774   9.467  0.4576  0.3564  0.0282
  601TIP3    H125998   2.476   3.803   9.396 -0.1157  0.0754 -0.5609
  601TIP3    H225999   2.477   3.735   9.532  0.8390 -1.0492 -1.1108
  602TIP3   OH226000   5.543   1.312   8.342  0.4920 -0.5256 -0.5262
  602TIP3    H126001   5.483   1.334   8.271 -0.7834 -0.0766  0.6463
  602TIP3    H226002   5.514   1.365   8.416  1.8777 -0.8583  0.3082
  603TIP3   OH226003   3.219   2.417   6.938 -0.3427 -0.3029  0.4680
  603TIP3    H126004   3.137   2.369   6.928 -0.0437 -0.9084  0.8267
  603TIP3    H226005   3.287   2.349   6.935  0.0532  0.0283  1.5085
  604TIP3   OH226006   6.682   0.924   8.720  0.0012  0.6800  0.6732
  604TIP3    H126007   6.628   0.874   8.659  0.6079  0.7369  0.0729
  604TIP3    H226008   6.734   0.858   8.766 -0.8005  0.5996  1.4869
  605TIP3   OH226009   3.820   6.326   8.095 -0.1125  0.1628  0.2075
  605TIP3    H126010   3.746   6.386   8.099 -2.2404 -2.2653  0.3382
  605TIP3    H226011   3.892   6.377   8.058 -1.6875  2.7749  0.5375
  606TIP3   OH226012   2.594   3.183   8.949 -0.1688 -0.1357  1.0660
  606TIP3    H126013   2.682   3.203   8.980  1.6919 -2.8981 -1.7898
  606TIP3    H226014   2.560   3.266   8.918  2.2667  0.7351  0.4694
  607TIP3   OH226015   1.372   2.186   7.953  0.4063  0.4313 -0.0208
  607TIP3    H126016   1.389   2.124   7.882  0.0750  0.0082  0.2674
  607TIP3    H226017   1.278   2.179   7.969  0.5334  0.2889  0.6822
  608TIP3   OH226018   7.105   5.154   9.188 -0.0092  0.1796  0.1783
  608TIP3    H126019   7.117   5.221   9.255 -0.7401 -0.0759  0.5717
  608TIP3    H226020   7.042   5.192   9.127  0.7741  0.4798 -0.4789
  609TIP3   OH226021   2.993   0.848   8.983 -0.2543 -0.4372 -0.3050
  609TIP3    H126022   2.978   0.855   8.889  1.3490  1.2726 -0.4927
  609TIP3    H226023   3.080   0.810   8.992 -0.2058 -0.1762  0.4593
  610TIP3   OH226024   1.174   3.543   7.738  0.1986  0.4503  0.1362
  610TIP3    H126025   1.261   3.504   7.749 -0.2776 -0.3844  1.0858
  610TIP3    H226026   1.150   3.525   7.647  0.7860  0.2189  0.0236
  611TIP3   OH226027   5.442   0.283   8.636  0.3834  0.6251  0.0905
  611TIP3    H126028   5.401   0.344   8.575  0.5298  1.3131  0.6684
  611TIP3    H226029   5.375   0.268   8.703  0.6250  0.7690  0.3668
  612TIP3   OH226030   4.158   3.270   8.679  0.1075  0.3447 -0.1687
  612TIP3    H126031   4.143   3.293   8.770 -0.3313 -0.9473  0.1152
  612TIP3    H226032   4.243   3.308   8.658  0.5569  0.0427  1.0179
  613TIP3   OH226033   2.028   3.487   7.109  0.4868  0.0170 -0.6238
  613TIP3    H126034   2.010   3.472   7.017  2.9170 -2.1476 -0.8629
  613TIP3    H226035   1.945   3.470   7.153 -0.4242 -0.0481 -2.3178
  614TIP3   OH226036   2.392   0.898   8.456 -0.1523 -0.0688 -0.1361
  614TIP3    H126037   2.352   0.885   8.371 -0.5291 -0.2507  0.0679
  614TIP3    H226038   2.319   0.896   8.518 -0.0281  1.2836  0.0799
  615TIP3   OH226039   6.631   3.691   7.080  0.2781 -0.0041 -0.0504
  615TIP3    H126040   6.601   3.752   7.013  0.8879 -0.4967 -0.7962
  615TIP3    H226041   6.720   3.718   7.100  0.1359  0.0786  0.4975
  616TIP3   OH226042   0.373   7.548   7.497  0.3855  0.1202  0.1804
  616TIP3    H126043   0.418   7.469   7.526 -0.1177  0.5818  2.4084
  616TIP3    H226044   0.321   7.520   7.422 -0.0079 -1.7488  1.0932
  617TIP3   OH226045   6.693   7.583   9.435 -0.2818  0.4756 -0.5870
  617TIP3    H126046   6.755   7.655   9.424  0.4081  0.2077  1.2052
  617TIP3    H226047   6.741   7.506   9.405 -0.1013  0.4116 -0.1398
  618TIP3   OH226048   3.516   5.282   7.765 -0.2440 -0.2272 -0.0676
  618TIP3    H126049   3.496   5.252   7.853 -0.8881  0.4228  0.0189
  618TIP3    H226050   3.612   5.277   7.758  0.1194  2.2921  1.6548
  619TIP3   OH226051   5.185   3.765   8.922  0.0928  0.4603 -0.5714
  619TIP3    H126052   5.127   3.819   8.975  1.4339 -0.6014  2.2005
  619TIP3    H226053   5.268   3.814   8.920  0.3295  0.0519 -0.8837
  620TIP3   OH226054   0.259   2.624   8.069  0.1322 -0.1124  0.1186
  620TIP3    H126055   0.334   2.564   8.063  0.4179  0.1900  0.6259
  620TIP3    H226056   0.276   2.676   8.148  0.1514  0.9823 -0.5771
  621TIP3   OH226057   3.580   5.312   7.391 -0.2899 -0.3708  0.4212
  621TIP3    H126058   3.501   5.320   7.444  0.3430  0.6149  1.2727
  621TIP3    H226059   3.650   5.342   7.448  0.5258  0.0306 -0.7423
  622TIP3   OH226060   7.001   1.398   7.291 -0.3923  0.4396 -0.0576
  622TIP3    H126061   6.906   1.393   7.275 -0.0368  0.4941 -2.5164
  622TIP3    H226062   7.008   1.407   7.386 -2.8012 -1.1426  0.3754
  623TIP3   OH226063   1.595   4.608   6.778 -0.0608 -0.2715 -0.2869
  623TIP3    H126064   1.544   4.586   6.700 -1.0168  1.2525 -0.1370
  623TIP3    H226065   1.680   4.634   6.744  0.0576 -1.1521 -0.6858
  624TIP3   OH226066   0.093   6.277   8.072 -0.2965 -0.5700 -0.6617
  624TIP3    H126067   0.187   6.278   8.053  0.0949 -0.5677  1.0372
  624TIP3    H226068   0.050   6.290   7.988  1.2507  0.5355 -1.3170
  625TIP3   OH226069   5.134   2.438   8.934  0.0556  0.0627  0.3351
  625TIP3    H126070   5.064   2.504   8.928 -0.0847 -0.2209 -2.1835
  625TIP3    H226071   5.214   2.487   8.916 -0.1189 -0.4547 -2.2770
  626TIP3   OH226072   0.621   1.903   8.144  0.2439  0.1142 -0.0287
  626TIP3    H126073   0.581   1.820   8.172 -0.7948  0.4572 -0.4370
  626TIP3    H226074   0.558   1.939   8.082  1.7676  0.1124 -1.6455
  627TIP3   OH226075   1.372   5.576   9.549  0.1633  0.4653 -0.2377
  627TIP3    H126076   1.307   5.644   9.532 -0.6683 -0.1615  0.3627
  627TIP3    H226077   1.336   5.525   9.621  1.3887  0.1802  0.2050
  628TIP3   OH226078   5.211   0.331   9.281  0.1222 -0.2095  0.3515
  628TIP3    H126079   5.177   0.360   9.366 -1.2389  0.3313 -0.3576
  628TIP3    H226080   5.228   0.411   9.232  0.9245 -0.5189  0.0997
  629TIP3   OH226081   1.419   3.441   7.206  0.3166 -0.3754  0.0844
  629TIP3    H126082   1.357   3.455   7.134  0.5084 -1.4547 -0.2994
  629TIP3    H226083   1.482   3.512   7.197 -1.0325  0.9608  0.6908
  630TIP3   OH226084   1.071   2.063   9.013 -0.5152 -0.0205 -0.0231
  630TIP3    H126085   1.154   2.095   9.047 -0.8881  1.4588 -0.4497
  630TIP3    H226086   1.079   2.070   8.918 -0.1154 -2.5298 -0.2336
  631TIP3   OH226087   0.439   1.385   9.052  0.1281  0.5489 -0.1900
  631TIP3    H126088   0.511   1.371   8.991  1.2908  0.5725  1.1249
  631TIP3    H226089   0.455   1.322   9.122 -1.7772 -0.2170 -0.3864
  632TIP3   OH226090   3.506   0.433   8.537 -0.4460  0.6072 -0.2856
  632TIP3    H126091   3.498   0.429   8.441 -0.9758 -2.3064 -0.2311
  632TIP3    H226092   3.418   0.455   8.568 -0.4963  0.6344 -0.4473
  633TIP3   OH226093   1.350   4.476   7.951 -0.2128  0.2006 -0.3156
  633TIP3    H126094   1.280   4.449   8.010  0.7425 -0.7696  0.4133
  633TIP3    H226095   1.308   4.481   7.865 -1.6461  1.7158  0.4071
  634TIP3   OH226096   5.842   1.602   7.879 -0.4928  0.2222 -0.1401
  634TIP3    H126097   5.911   1.634   7.936 -0.6141  0.2848 -0.0279
  634TIP3    H226098   5.822   1.675   7.821 -1.8353  0.9037  1.1062
  635TIP3   OH226099   6.363   2.612   6.747  0.6260  0.1706 -0.3119
  635TIP3    H126100   6.400   2.700   6.754  3.9059 -0.9169 -2.1497
  635TIP3    H226101   6.397   2.565   6.824  0.0241  0.0844 -0.0865
  636TIP3   OH226102   4.762   2.525   9.245 -0.2379  0.3329  0.2410
  636TIP3    H126103   4.782   2.607   9.199  1.7927 -0.5154 -0.5205
  636TIP3    H226104   4.724   2.553   9.328  1.9360  2.1598  0.7194
  637TIP3   OH226105   3.220   2.896   8.391 -1.1515 -0.1506 -0.2840
  637TIP3    H126106   3.167   2.861   8.462  0.2243 -0.0673  0.8382
  637TIP3    H226107   3.244   2.820   8.339  0.4054 -0.7209  1.1673
  638TIP3   OH226108   3.280   1.690   9.263 -0.4612  0.2758 -0.6336
  638TIP3    H126109   3.247   1.712   9.176 -0.8091  0.2408 -0.5089
  638TIP3    H226110   3.209   1.641   9.305  0.6501 -2.0567 -1.2781
  639TIP3   OH226111   7.389   4.123   6.935 -0.0176  0.0139 -0.0226
  639TIP3    H126112   7.456   4.183   6.967 -0.7750  0.0081  1.6513
  639TIP3    H226113   7.311   4.143   6.986 -1.8931  1.1617 -3.0457
  640TIP3   OH226114   2.190   6.657   9.205  0.6414  0.1545 -0.2560
  640TIP3    H126115   2.285   6.649   9.203  0.7497  1.4609 -1.3458
  640TIP3    H226116   2.173   6.749   9.223 -0.3773  0.3293 -1.8625
  641TIP3   OH226117   4.128   4.794   8.677 -0.2605  0.7894 -0.3719
  641TIP3    H126118   4.174   4.839   8.606 -0.5395  2.7052  0.5771
  641TIP3    H226119   4.072   4.730   8.633  0.5508  1.0145 -1.7785
  642TIP3   OH226120   5.640   3.241   7.336  0.6655 -0.1692 -0.0596
  642TIP3    H126121   5.573   3.299   7.371  0.6700  0.0315 -0.3728
  642TIP3    H226122   5.720   3.266   7.383  0.3072 -1.1952  1.1525
  643TIP3   OH226123   5.012   0.957   7.694 -0.0720 -0.0123  0.0041
  643TIP3    H126124   5.011   1.022   7.624 -0.6564  1.2072  1.0961
  643TIP3    H226125   4.923   0.960   7.730  0.2066 -0.6421  0.7703
  644TIP3   OH226126   6.950   0.822   7.068 -0.1310 -0.6884  0.5171
  644TIP3    H126127   6.981   0.912   7.075 -0.9796 -0.4195  0.9646
  644TIP3    H226128   6.869   0.829   7.018  1.6594 -1.6383 -2.8260
  645TIP3   OH226129   7.212   3.506   7.714  0.3750  0.3291  0.4971
  645TIP3    H126130   7.303   3.508   7.686  0.0885  0.2987 -0.4811
  645TIP3    H226131   7.203   3.424   7.763  0.6551 -0.1310 -0.2079
  646TIP3   OH226132   4.760   3.670   8.029 -0.2829 -0.2568  0.0960
  646TIP3    H126133   4.745   3.662   8.123 -0.0479  0.3965  0.1994
  646TIP3    H226134   4.689   3.621   7.988  0.0703 -1.2186  0.6232
  647TIP3   OH226135   7.070   2.756   8.378 -0.0743 -0.1200  0.0432
  647TIP3    H126136   7.000   2.803   8.334  1.0509  1.7337  0.1321
  647TIP3    H226137   7.033   2.730   8.462 -0.8200  0.3497 -0.1385
  648TIP3   OH226138   0.691   3.694   8.237 -0.7853 -0.2037  0.1454
  648TIP3    H126139   0.657   3.605   8.245  1.2222 -1.1078 -0.7168
  648TIP3    H226140   0.759   3.689   8.169  0.4107  1.6570  1.0914
  649TIP3   OH226141   6.298   3.981   7.704 -0.5440  0.3763  0.1704
  649TIP3    H126142   6.370   3.975   7.767  1.3783  0.0366 -1.9152
  649TIP3    H226143   6.310   3.906   7.646 -1.3442  1.4355 -1.4610
  650TIP3   OH226144   1.207   1.231   9.173 -0.3080  0.1875 -0.2908
  650TIP3    H126145   1.160   1.305   9.211 -0.0966 -0.2128  0.7723
  650TIP3    H226146   1.299   1.254   9.183 -0.2501  0.1445 -0.7083
  651TIP3   OH226147   6.690   4.230   7.830  0.6750 -0.0983  0.0031
  651TIP3    H126148   6.614   4.287   7.845 -0.7473 -2.1899  1.2656
  651TIP3    H226149   6.757   4.289   7.797 -0.6255  2.3616  1.4087
  652TIP3   OH226150   5.382   0.533   9.491  0.0288 -0.2276 -0.0073
  652TIP3    H126151   5.446   0.519   9.561 -1.8060 -0.5218  1.6849
  652TIP3    H226152   5.417   0.607   9.441  1.1652  0.2858  1.4850
  653TIP3   OH226153   3.503   3.598   8.875  0.3756 -0.0044 -0.3489
  653TIP3    H126154   3.473   3.517   8.834  1.1816 -0.2152 -0.5597
  653TIP3    H226155   3.587   3.616   8.832  0.9954  0.0468  0.8406
  654TIP3   OH226156   0.389   6.112   8.679  0.2543 -0.4430 -0.1847
  654TIP3    H126157   0.330   6.036   8.680 -0.8097  0.3530  0.7529
  654TIP3    H226158   0.366   6.161   8.759 -1.2899  2.4880 -2.2243
  655TIP3   OH226159   2.848   4.579   8.467 -0.1914  0.1508 -0.0574
  655TIP3    H126160   2.834   4.496   8.512  2.6407 -0.9837 -1.0194
  655TIP3    H226161   2.894   4.634   8.530  0.4669 -0.0716 -0.3384
  656TIP3   OH226162   4.926   0.936   8.410 -0.7529 -0.0897 -0.2067
  656TIP3    H126163   4.924   1.032   8.413 -2.9216  0.0329 -2.3436
  656TIP3    H226164   4.925   0.910   8.503 -1.1523  1.9678  0.4313
  657TIP3   OH226165   1.382   3.164   7.743 -0.0226  0.1385  0.0039
  657TIP3    H126166   1.307   3.164   7.684  1.0068 -0.9075 -1.3931
  657TIP3    H226167   1.404   3.256   7.755 -0.9696  0.4145 -0.3156
  658TIP3   OH226168   6.788   5.327   9.355  0.0824 -0.0947 -0.1757
  658TIP3    H126169   6.763   5.400   9.412 -2.3405  0.1456 -1.4285
  658TIP3    H226170   6.726   5.258   9.376  0.9739 -1.0180 -0.5398
  659TIP3   OH226171   4.021   2.395   8.949  0.1102 -0.6277 -0.4710
  659TIP3    H126172   3.961   2.470   8.952  0.3375 -0.4263 -0.9618
  659TIP3    H226173   4.009   2.359   8.861  0.6751 -0.6216 -0.5478
  660TIP3   OH226174   6.086   0.789   8.828 -0.0082 -0.4064 -0.1003
  660TIP3    H126175   6.073   0.788   8.733  1.1204  0.5459 -0.2798
  660TIP3    H226176   6.171   0.749   8.841  0.3796  0.5425  0.3992
  661TIP3   OH226177   1.641   3.094   8.889 -0.7396 -0.4491 -0.1575
  661TIP3    H126178   1.570   3.142   8.847  0.0677  0.2009 -0.8230
  661TIP3    H226179   1.651   3.015   8.835 -0.4661 -0.1705 -0.5252
  662TIP3   OH226180   1.536   7.339   8.502 -0.3683  0.0932 -0.0545
  662TIP3    H126181   1.624   7.346   8.464  0.5024  0.9837  1.9705
  662TIP3    H226182   1.490   7.417   8.469  0.6646  1.3474  1.3137
  663TIP3   OH226183   5.129   7.326   9.000 -0.4456 -0.3690  0.3266
  663TIP3    H126184   5.095   7.297   8.916  1.2413 -1.5858  0.0162
  663TIP3    H226185   5.105   7.257   9.061 -1.9179  0.6426  0.9524
  664TIP3   OH226186   5.945   4.744   7.580 -0.0310  0.0965 -0.4500
  664TIP3    H126187   5.965   4.838   7.586 -0.8417  0.1808  1.4360
  664TIP3    H226188   5.893   4.737   7.500 -0.3993  1.3586 -0.3557
  665TIP3   OH226189   5.951   1.009   8.968 -0.7013  0.5447 -0.1603
  665TIP3    H126190   5.983   0.934   8.919 -0.9328 -0.2488  0.8678
  665TIP3    H226191   6.029   1.049   9.006 -0.7258 -0.2389  0.7459
  666TIP3   OH226192   5.480   4.188   8.591  0.2535 -0.3005  0.4526
  666TIP3    H126193   5.395   4.176   8.548 -0.2300  0.2699  1.2120
  666TIP3    H226194   5.500   4.102   8.628  0.4394 -0.6642 -0.4838
  667TIP3   OH226195   4.435   1.232   8.572 -0.4681 -0.0617  0.0299
  667TIP3    H126196   4.389   1.298   8.520  1.3113  1.0701 -0.1945
  667TIP3    H226197   4.524   1.230   8.535 -0.1456 -1.7486  0.8014
  668TIP3   OH226198   2.923   2.010   8.408 -0.3728 -0.7969 -0.2216
  668TIP3    H126199   2.892   2.043   8.324 -1.1043 -0.7779  0.0454
  668TIP3    H226200   2.894   2.076   8.471  2.2996  0.4719 -0.1883
  669TIP3   OH226201   4.666   7.499   8.540  0.2552 -0.0866 -0.2406
  669TIP3    H126202   4.760   7.513   8.534  0.2530 -0.0190 -0.1367
  669TIP3    H226203   4.627   7.574   8.495  0.2364  0.5296  0.7704
  670TIP3   OH226204   4.814   7.517   7.563  0.5528  0.4281 -0.2219
  670TIP3    H126205   4.733   7.479   7.529  1.2004 -0.1887 -1.1353
  670TIP3    H226206   4.791   7.606   7.588 -1.0095 -0.5134  1.9552
  671TIP3   OH226207   6.905   2.877   9.162 -0.4843  0.1302  0.2737
  671TIP3    H126208   6.840   2.947   9.167 -0.4475  0.2241 -0.4134
  671TIP3    H226209   6.988   2.918   9.187 -0.6632  0.0306  1.0689
  672TIP3   OH226210   3.952   7.519   7.688 -0.3193  0.5080  0.0412
  672TIP3    H126211   3.982   7.602   7.652  1.1826 -0.9338 -2.2977
  672TIP3    H226212   3.894   7.483   7.621 -2.5011  0.4214  1.8367
  673TIP3   OH226213   4.449   7.444   7.891 -0.0658 -0.7224 -0.0446
  673TIP3    H126214   4.468   7.416   7.801  0.6317 -3.3032  0.8199
  673TIP3    H226215   4.495   7.380   7.946  3.8180  3.5312  2.3104
  674TIP3   OH226216   4.905   2.865   8.700 -0.2699 -0.3315 -0.2960
  674TIP3    H126217   4.994   2.852   8.667 -0.1677  2.0675 -1.1849
  674TIP3    H226218   4.865   2.925   8.636 -2.2753 -0.7515  0.4980
  675TIP3   OH226219   4.055   4.342   7.422 -0.5259  0.2265  0.0637
  675TIP3    H126220   4.079   4.304   7.506 -0.1045  0.5327  0.0801
  675TIP3    H226221   3.987   4.282   7.388 -1.2903  0.5496  0.9770
  676TIP3   OH226222   5.728   2.547   8.142 -0.1058 -0.2137  0.1665
  676TIP3    H126223   5.749   2.454   8.136  0.3471 -0.1513  0.7193
  676TIP3    H226224   5.640   2.555   8.104  0.0632 -0.7850 -0.3427
  677TIP3   OH226225   6.506   6.955   8.580  0.2663  1.1684 -0.1861
  677TIP3    H126226   6.581   6.932   8.525  2.4364  2.0332  2.1735
  677TIP3    H226227   6.495   6.880   8.638 -1.1143  0.8203 -0.8640
  678TIP3   OH226228   0.072   6.210   7.662 -0.5272 -0.6473  0.0658
  678TIP3    H126229   0.053   6.266   7.588  2.0042  0.9255  0.4918
  678TIP3    H226230   0.072   6.121   7.626  2.4706  0.1612 -2.3674
  679TIP3   OH226231   0.205   6.746   7.253 -0.0075 -0.1367 -0.8198
  679TIP3    H126232   0.167   6.750   7.340  0.0012  0.8394 -0.8533
  679TIP3    H226233   0.258   6.666   7.254 -0.9138 -0.7558 -0.3184
  680TIP3   OH226234   3.252   0.556   8.584 -0.0652 -0.0522 -0.3670
  680TIP3    H126235   3.282   0.586   8.670  1.1750 -0.0789 -0.7595
  680TIP3    H226236   3.224   0.635   8.539  0.0409  0.0738 -0.2118
  681TIP3   OH226237   5.285   6.137   8.050 -0.5554 -0.3973 -0.8767
  681TIP3    H126238   5.291   6.172   7.961 -1.0707 -1.3257 -1.2855
  681TIP3    H226239   5.369   6.095   8.065  0.5926  2.0631  0.1079
  682TIP3   OH226240   2.566   1.676   7.266 -0.0155 -0.1727 -0.2603
  682TIP3    H126241   2.646   1.693   7.216  1.1669 -0.5926  1.3858
  682TIP3    H226242   2.555   1.753   7.322 -0.7831 -0.1083 -0.4842
  683TIP3   OH226243   1.818   6.050   7.209 -0.2206 -0.0972  0.6409
  683TIP3    H126244   1.757   6.031   7.137 -2.0699 -0.0371  2.1202
  683TIP3    H226245   1.826   5.967   7.256  0.4164  0.0391  0.7767
  684TIP3   OH226246   2.251   5.634   7.884 -0.2418 -0.1342 -0.0941
  684TIP3    H126247   2.277   5.697   7.952 -1.9390  2.1298 -1.4149
  684TIP3    H226248   2.328   5.626   7.828 -0.6599  2.6100 -1.1744
  685TIP3   OH226249   1.298   6.524   7.601 -0.0174  0.2064 -0.2038
  685TIP3    H126250   1.269   6.592   7.540  0.5964 -0.1750 -0.9254
  685TIP3    H226251   1.222   6.468   7.613 -0.2498  0.4944 -0.3202
  686TIP3   OH226252   3.903   2.063   7.151 -0.3598 -0.0514  0.0991
  686TIP3    H126253   3.888   1.976   7.113  0.8625 -0.2518  0.0292
  686TIP3    H226254   3.998   2.075   7.146 -0.6575  2.2224 -1.8767
  687TIP3   OH226255   1.784   1.483   8.230  0.0510  0.0156 -0.0434
  687TIP3    H126256   1.793   1.509   8.322 -0.5715 -0.9681  0.3137
  687TIP3    H226257   1.742   1.558   8.188  1.0976  0.8022  0.2925
  688TIP3   OH226258   6.244   7.368   7.582  0.4843  0.4786  0.1962
  688TIP3    H126259   6.217   7.301   7.645  1.1587 -0.4552 -0.5008
  688TIP3    H226260   6.295   7.321   7.516  3.0836  2.0144  0.9733
  689TIP3   OH226261   0.629   4.108   8.758  0.1603  0.0251  0.1195
  689TIP3    H126262   0.721   4.132   8.761 -0.0204  0.6978  0.4244
  689TIP3    H226263   0.605   4.115   8.665  0.7157 -1.3814 -0.1670
  690TIP3   OH226264   5.991   2.706   8.420 -0.5643  0.3080  0.2675
  690TIP3    H126265   6.063   2.710   8.357 -0.7203 -1.9092 -0.1241
  690TIP3    H226266   5.912   2.705   8.367 -0.8306  1.1401  0.6316
  691TIP3   OH226267   1.265   1.048   7.466  0.2620 -0.3885  0.2592
  691TIP3    H126268   1.264   0.952   7.471  0.1816 -0.5189 -1.5298
  691TIP3    H226269   1.357   1.069   7.446  0.0971 -0.1835 -0.3167
  692TIP3   OH226270   2.574   1.004   7.055  0.1360 -0.1117  0.0951
  692TIP3    H126271   2.647   1.014   6.994  0.4203 -1.8509  0.0928
  692TIP3    H226272   2.496   1.019   7.001  0.4650  1.4926  0.0426
  693TIP3   OH226273   6.232   5.832   9.509  0.3240 -0.5084  0.3710
  693TIP3    H126274   6.177   5.910   9.513  1.1962  0.0682  1.4738
  693TIP3    H226275   6.205   5.780   9.584  0.9230 -0.4676  0.6168
  694TIP3   OH226276   4.016   0.105   7.581 -0.1360  0.1289  0.1653
  694TIP3    H126277   3.970   0.172   7.530 -0.6653 -1.8245 -2.0961
  694TIP3    H226278   4.041   0.150   7.662 -0.3032  3.0754 -1.2757
  695TIP3   OH226279   0.811   7.105   8.331  0.5150 -0.0921 -0.2042
  695TIP3    H126280   0.819   7.130   8.423 -0.1661 -3.7869  1.0032
  695TIP3    H226281   0.799   7.010   8.332 -2.8727 -0.0012 -3.8858
  696TIP3   OH226282   4.732   1.338   9.296  0.7764  0.2583  0.1444
  696TIP3    H126283   4.661   1.358   9.235 -0.1790 -1.0373  0.7800
  696TIP3    H226284   4.704   1.257   9.339  3.0993 -0.8279 -0.2767
  697TIP3   OH226285   6.118   5.454   9.162 -0.4807  0.0732  0.4474
  697TIP3    H126286   6.128   5.385   9.228 -0.4496  1.3683  1.8660
  697TIP3    H226287   6.148   5.533   9.206 -1.1343  1.1174 -0.9112
  698TIP3   OH226288   3.866   4.058   7.091 -0.6203  0.5485 -0.0358
  698TIP3    H126289   3.957   4.078   7.111 -0.5252 -0.4457  0.6026
  698TIP3    H226290   3.870   3.982   7.034 -0.9726  2.2135 -2.4315
  699TIP3   OH226291   5.511   5.522   7.702 -0.0262  0.0929  0.1193
  699TIP3    H126292   5.437   5.568   7.664 -1.0779 -0.2308  1.6482
  699TIP3    H226293   5.473   5.444   7.743  0.9853  0.3926  1.7596
  700TIP3   OH226294   2.337   1.649   8.849  0.4774  0.1997  0.0390
  700TIP3    H126295   2.347   1.742   8.826  3.2089  0.0164  0.0867
  700TIP3    H226296   2.360   1.645   8.942  1.9436 -0.6581 -0.3183
  701TIP3   OH226297   7.097   5.421   8.622  0.2047 -0.2371  0.6330
  701TIP3    H126298   7.058   5.491   8.570 -1.5510 -1.1625  0.6254
  701TIP3    H226299   7.190   5.422   8.599  0.1677  1.8956  0.4430
  702TIP3   OH226300   3.278   0.901   8.875  1.0084  0.6656 -0.4902
  702TIP3    H126301   3.307   0.989   8.849  0.7921  0.7904 -0.3161
  702TIP3    H226302   3.294   0.897   8.969 -2.5889  2.0109  0.3640
  703TIP3   OH226303   3.889   5.487   8.451  0.4244  0.1284  0.3625
  703TIP3    H126304   3.816   5.427   8.439 -0.1947  0.9927 -0.3691
  703TIP3    H226305   3.884   5.546   8.376  0.9694  1.1302  1.0853
  704TIP3   OH226306   2.329   4.806   8.454 -0.3517 -0.2449  0.2826
  704TIP3    H126307   2.282   4.882   8.490  0.9301  0.6256  0.1835
  704TIP3    H226308   2.298   4.800   8.364  0.4378  0.9606 -0.0968
  705TIP3   OH226309   1.895   6.126   8.294  0.0702  0.3125  0.0915
  705TIP3    H126310   1.942   6.165   8.220  1.6135  0.3178  1.0277
  705TIP3    H226311   1.843   6.055   8.255 -0.6048  1.4921 -1.2293
  706TIP3   OH226312   6.018   4.770   8.315  0.7366 -0.1782 -0.7561
  706TIP3    H126313   5.999   4.862   8.297  0.9371 -0.1013 -0.5866
  706TIP3    H226314   5.940   4.738   8.360  1.1746  0.2628  0.3721
  707TIP3   OH226315   1.987   0.810   7.279 -0.0193  0.4432 -0.3772
  707TIP3    H126316   1.899   0.841   7.300  0.0432 -0.1134  0.7536
  707TIP3    H226317   1.977   0.715   7.269  0.2547  0.5028 -1.3605
  708TIP3   OH226318   7.587   3.723   7.760  0.0339 -0.0765 -0.2979
  708TIP3    H126319   7.543   3.741   7.844  0.3173 -0.3431 -0.0888
  708TIP3    H226320   7.569   3.630   7.743  0.9999 -0.3464  0.0874
  709TIP3   OH226321   1.208   3.334   7.520 -0.5440  0.7796 -0.2161
  709TIP3    H126322   1.126   3.296   7.553 -0.8039  0.9250 -0.6849
  709TIP3    H226323   1.188   3.357   7.429 -0.1925  1.4516 -0.1239
  710TIP3   OH226324   5.545   7.414   9.436  0.3934  0.3196  0.6192
  710TIP3    H126325   5.451   7.428   9.423  0.1350 -0.4899  1.4813
  710TIP3    H226326   5.576   7.384   9.350  0.1746  2.0168 -0.0853
  711TIP3   OH226327   7.105   7.312   8.664 -0.1209  0.1662 -0.7730
  711TIP3    H126328   7.009   7.315   8.657 -0.4013 -3.2359 -0.1292
  711TIP3    H226329   7.131   7.245   8.602  1.5963 -0.6074  0.7028
  712TIP3   OH226330   5.882   2.872   9.123 -0.5931  0.6300 -0.3973
  712TIP3    H126331   5.842   2.786   9.121 -1.3001  0.9655 -1.4147
  712TIP3    H226332   5.969   2.859   9.084  1.4244 -0.5729  3.9131
  713TIP3   OH226333   7.212   0.339   8.343  0.3811  0.3054 -0.4928
  713TIP3    H126334   7.213   0.390   8.262 -0.4512 -0.5243 -1.0479
  713TIP3    H226335   7.201   0.248   8.314  0.9014 -0.0912  0.5161
  714TIP3   OH226336   2.438   3.280   7.973  0.1112  0.1463 -0.0754
  714TIP3    H126337   2.403   3.246   8.054 -1.6387 -0.5886 -1.0868
  714TIP3    H226338   2.419   3.374   7.976  0.4778  0.2029  0.5532
  715TIP3   OH226339   5.725   2.402   7.717 -0.5432  0.1572  0.1483
  715TIP3    H126340   5.815   2.407   7.748 -1.4005  2.0472  2.7791
  715TIP3    H226341   5.731   2.410   7.622  2.0026  1.2616  0.3204
  716TIP3   OH226342   0.010   1.334   9.022 -0.5765  0.2475  0.3403
  716TIP3    H126343   0.060   1.405   8.981 -1.5068  0.0724 -1.1723
  716TIP3    H226344   0.076   1.278   9.063  0.6063 -0.4372 -2.3061
  717TIP3   OH226345   4.416   7.619   8.312  0.1931 -0.0307 -0.4891
  717TIP3    H126346   4.499   7.655   8.282  0.1586 -1.0699 -1.9289
  717TIP3    H226347   4.385   7.682   8.377  2.8121 -0.3715  1.2510
  718TIP3   OH226348   5.511   0.026   7.802  0.5648 -0.1242 -0.4029
  718TIP3    H126349   5.576  -0.034   7.765 -0.1102 -0.1395 -1.6034
  718TIP3    H226350   5.562   0.100   7.835  1.1934 -0.1176 -1.3652
  719TIP3   OH226351   3.396   3.110   9.181 -0.4473 -0.1867  0.2209
  719TIP3    H126352   3.375   3.017   9.173 -0.9423 -0.0485 -0.1515
  719TIP3    H226353   3.325   3.146   9.235  1.0252 -0.4654  2.4718
  720TIP3   OH226354   3.320   7.511   8.842  0.5028 -0.2490 -0.1306
  720TIP3    H126355   3.305   7.459   8.921  1.3913  0.2384  0.3766
  720TIP3    H226356   3.410   7.490   8.816 -0.0624 -1.0889 -1.5566
  721TIP3   OH226357   6.673   3.804   8.225  0.3515  0.0001 -0.0746
  721TIP3    H126358   6.615   3.853   8.168  0.6575 -0.7648 -1.0824
  721TIP3    H226359   6.647   3.712   8.213  2.2985 -0.4656 -1.2568
  722TIP3   OH226360   3.535   2.475   8.777  0.2249 -0.0143  0.1644
  722TIP3    H126361   3.444   2.456   8.754 -0.5400  1.9980  1.2801
  722TIP3    H226362   3.531   2.505   8.867  2.0578 -0.1639  0.3325
  723TIP3   OH226363   1.161   5.110   8.138  0.1357  0.4164  0.5612
  723TIP3    H126364   1.179   5.016   8.134 -0.8638  0.2365  0.1512
  723TIP3    H226365   1.224   5.148   8.076 -0.5004 -0.1516 -0.4625
  724TIP3   OH226366   6.330   6.558   8.070  0.6038  0.0883  0.2538
  724TIP3    H126367   6.304   6.501   7.998 -1.8701  2.1647 -0.6533
  724TIP3    H226368   6.379   6.501   8.129 -0.7111 -2.6758 -1.1208
  725TIP3   OH226369   7.291   4.525   9.034  0.0333  0.5462 -0.2438
  725TIP3    H126370   7.261   4.495   8.949  1.4910 -0.4356 -0.4493
  725TIP3    H226371   7.275   4.451   9.093  2.5562 -0.2896 -0.5061
  726TIP3   OH226372   5.806   4.556   7.951  0.1061 -0.0407  0.3573
  726TIP3    H126373   5.863   4.541   7.876  0.2597 -0.0230  0.4706
  726TIP3    H226374   5.858   4.610   8.011  0.9584 -2.1316  1.6152
  727TIP3   OH226375   6.570   6.852   7.241  0.6646  0.4511 -0.6899
  727TIP3    H126376   6.575   6.759   7.218  0.4587  0.5715 -1.2145
  727TIP3    H226377   6.509   6.890   7.178 -1.1355  0.4941  0.9975
  728TIP3   OH226378   4.139   4.388   8.924  0.3919 -0.0542  0.5614
  728TIP3    H126379   4.207   4.443   8.885 -0.2919  0.7758  0.5070
  728TIP3    H226380   4.057   4.432   8.902 -0.1408 -0.7725  1.0475
  729TIP3   OH226381   4.529   2.095   9.253 -0.2350 -0.2729  0.4428
  729TIP3    H126382   4.438   2.104   9.226  0.2884  0.7441 -1.1868
  729TIP3    H226383   4.563   2.023   9.200  0.8196  1.7675 -1.8809
  730TIP3   OH226384   6.987   4.935   8.562 -0.0795 -0.2464 -0.2837
  730TIP3    H126385   6.940   5.014   8.535  0.0947 -0.3326 -0.8456
  730TIP3    H226386   7.026   4.958   8.646 -1.8802 -0.4701  0.6643
  731TIP3   OH226387   6.620   5.110   8.309  0.4510  0.1989  0.0943
  731TIP3    H126388   6.615   5.025   8.354 -1.6278  0.0470 -0.3256
  731TIP3    H226389   6.562   5.101   8.233  1.6801  1.3928 -1.0407
  732TIP3   OH226390   4.511   6.556   9.265  0.3179  0.1782 -0.5774
  732TIP3    H126391   4.482   6.579   9.176 -3.1932  1.0954  0.6353
  732TIP3    H226392   4.523   6.461   9.262 -1.6646 -0.0971 -1.6358
  733TIP3   OH226393   6.551   3.935   8.012  0.0065  0.0229  0.6067
  733TIP3    H126394   6.625   3.918   7.953 -0.7964 -0.4758 -0.2976
  733TIP3    H226395   6.568   4.022   8.047  0.1595  0.6480 -0.9220
  734TIP3   OH226396   7.077   5.740   8.530 -0.4025 -0.0860 -0.2878
  734TIP3    H126397   7.068   5.821   8.481 -0.9288 -0.4918 -0.8803
  734TIP3    H226398   7.162   5.704   8.503  0.1415  0.5892  0.4848
  735TIP3   OH226399   3.207   7.167   8.633  0.6458 -0.0806  0.0390
  735TIP3    H126400   3.252   7.119   8.703  1.6374  0.1213 -0.4486
  735TIP3    H226401   3.164   7.240   8.678 -0.8974 -1.3886  0.7988
  736TIP3   OH226402   7.008   4.850   8.921  0.0038  0.1545 -0.2051
  736TIP3    H126403   7.088   4.802   8.900 -0.6290 -0.3439 -1.5884
  736TIP3    H226404   6.946   4.824   8.853 -1.9849 -0.9642  1.9026
  737TIP3   OH226405   1.659   5.646   9.259 -0.0282  0.3600 -0.4613
  737TIP3    H126406   1.649   5.560   9.300  1.8607  1.0824  1.7482
  737TIP3    H226407   1.671   5.627   9.166  1.7580 -1.9159  0.1416
  738TIP3   OH226408   0.089   2.017   6.935  0.5962  0.3937 -0.1698
  738TIP3    H126409   0.121   2.098   6.895  1.1968 -0.2231 -0.9894
  738TIP3    H226410   0.025   2.046   7.000  0.1708  1.4813 -1.0332
  739TIP3   OH226411   3.713   2.190   6.924  0.0688  0.1772 -0.2618
  739TIP3    H126412   3.711   2.202   7.019  0.7308 -0.6600 -0.1243
  739TIP3    H226413   3.766   2.111   6.912  1.4599  1.2548 -1.4281
  740TIP3   OH226414   6.614   1.937   8.586 -0.4448  0.6085 -0.5143
  740TIP3    H126415   6.568   1.855   8.604  0.2158 -0.0816 -1.8230
  740TIP3    H226416   6.545   2.003   8.583 -1.1728 -0.1549 -0.9443
  741TIP3   OH226417   5.639   4.991   8.761 -0.3814  0.0439 -0.1960
  741TIP3    H126418   5.553   4.996   8.803 -1.0400  0.0427 -1.4904
  741TIP3    H226419   5.624   5.024   8.672  1.4098  2.0741  0.1821
  742TIP3   OH226420   6.143   4.068   6.905  0.4726 -0.0312 -0.3491
  742TIP3    H126421   6.238   4.059   6.917  0.4475  0.4143  0.2542
  742TIP3    H226422   6.123   4.016   6.827  0.7869 -2.4957  1.1059
  743TIP3   OH226423   4.839   1.207   7.423  0.6879 -0.1892  0.0221
  743TIP3    H126424   4.798   1.286   7.458 -1.0986 -2.0921  2.7083
  743TIP3    H226425   4.932   1.219   7.439  0.5825  1.7863 -0.6258
  744TIP3   OH226426   3.062   2.043   8.740 -0.4025  0.0996 -0.2085
  744TIP3    H126427   3.127   2.089   8.793 -0.9527  0.9095 -0.2155
  744TIP3    H226428   3.032   1.972   8.796  1.9410 -1.5653 -0.9558
  745TIP3   OH226429   3.371   5.976   9.424 -0.1506 -0.1252 -0.1595
  745TIP3    H126430   3.454   6.024   9.421 -0.7096  1.0924  2.1508
  745TIP3    H226431   3.304   6.044   9.416 -0.9424 -0.9074 -0.2345
  746TIP3   OH226432   0.073   6.548   9.021  0.0792  0.0838  0.0961
  746TIP3    H126433   0.132   6.575   8.950  0.9712 -2.9154 -0.4533
  746TIP3    H226434  -0.012   6.537   8.978  0.3881 -0.7525 -0.3253
  747TIP3   OH226435   1.482   2.406   8.092 -0.4347  0.4673  0.4232
  747TIP3    H126436   1.434   2.346   8.036  1.8329 -1.1848  0.0938
  747TIP3    H226437   1.521   2.470   8.032  0.7416 -0.3963  0.2315
  748TIP3   OH226438   0.528   4.073   9.014  0.7641  0.1735  0.0029
  748TIP3    H126439   0.566   4.153   9.050 -0.7761  1.7331 -1.6126
  748TIP3    H226440   0.542   4.081   8.920 -0.4309 -0.9013 -0.2847
  749TIP3   OH226441   6.240   7.524   6.943  0.2736  0.2495  0.1180
  749TIP3    H126442   6.151   7.534   6.910  0.2011  1.9996  0.7518
  749TIP3    H226443   6.296   7.543   6.868  0.0982  3.0964  0.6014
  750TIP3   OH226444   0.039   5.141   9.179  0.1129  0.0093  0.1316
  750TIP3    H126445   0.058   5.235   9.173 -0.7794  0.2092  0.1425
  750TIP3    H226446  -0.057   5.137   9.172  0.1903 -0.9561 -0.5562
  751TIP3   OH226447   4.757   6.679   9.372 -0.0737 -0.2781 -0.3730
  751TIP3    H126448   4.728   6.770   9.370 -0.9541 -0.3879  2.8818
  751TIP3    H226449   4.681   6.630   9.339 -1.0414 -0.0455  1.3903
  752TIP3   OH226450   3.990   3.766   9.095  0.4639  0.4840 -0.0391
  752TIP3    H126451   3.954   3.854   9.087 -0.4291  0.0964 -0.4703
  752TIP3    H226452   3.926   3.719   9.149 -0.2060 -0.4750 -1.5860
  753TIP3   OH226453   5.224   0.387   7.687 -0.7300 -0.0105  0.0712
  753TIP3    H126454   5.276   0.392   7.767 -0.6658  0.1950  0.0187
  753TIP3    H226455   5.157   0.456   7.698  0.4230  1.3138 -0.8612
  754TIP3   OH226456   4.772   4.613   7.777  0.8573  0.0460  1.0193
  754TIP3    H126457   4.823   4.693   7.771 -1.6502  1.6824 -0.0450
  754TIP3    H226458   4.725   4.608   7.694 -1.3587 -0.8422  2.2257
  755TIP3   OH226459   5.492   0.788   9.341 -0.4714 -0.2988  0.2722
  755TIP3    H126460   5.585   0.813   9.341 -0.1953 -1.2671  1.0267
  755TIP3    H226461   5.448   0.859   9.388  0.2506 -0.9931  2.0859
  756TIP3   OH226462   7.670   7.373   8.928 -0.3815 -0.4201  0.6710
  756TIP3    H126463   7.666   7.279   8.910 -1.3686 -0.4053  0.7791
  756TIP3    H226464   7.763   7.395   8.918 -0.0854 -1.4627  0.9417
  757TIP3   OH226465   0.327   5.810   8.009 -0.5521 -0.0952 -0.0121
  757TIP3    H126466   0.350   5.870   7.938  2.0315 -0.9307  0.0261
  757TIP3    H226467   0.277   5.864   8.071 -0.1198  1.4615 -0.9686
  758TIP3   OH226468   1.986   4.658   9.694 -0.3992  0.5825  0.9515
  758TIP3    H126469   2.057   4.598   9.717 -0.8388  0.8251  3.1477
  758TIP3    H226470   2.027   4.723   9.637  0.1888 -1.4858 -1.2021
  759TIP3   OH226471   7.248   1.565   8.548  0.4363 -0.4545 -0.3504
  759TIP3    H126472   7.281   1.645   8.507  0.0879 -1.0544 -1.8765
  759TIP3    H226473   7.208   1.516   8.476 -3.1660 -0.1096  1.1892
  760TIP3   OH226474   4.922   5.547   7.510 -0.1147 -0.4025  0.4450
  760TIP3    H126475   4.957   5.636   7.505  0.2680 -0.5596  0.2540
  760TIP3    H226476   4.998   5.491   7.492 -0.5631 -0.7452 -0.4338
  761TIP3   OH226477   5.047   2.220   9.047 -0.7832  0.8397  0.4188
  761TIP3    H126478   5.090   2.208   9.131  0.0121  2.5725  0.2904
  761TIP3    H226479   5.097   2.289   9.003 -2.6658  1.7435 -0.4419
  762TIP3   OH226480   6.729   4.486   7.041 -0.4715  0.0030 -0.2731
  762TIP3    H126481   6.687   4.501   7.125 -0.3001  0.5068 -0.2742
  762TIP3    H226482   6.663   4.511   6.976  0.2355  2.0407 -0.2743
  763TIP3   OH226483   5.810   0.537   7.577 -0.5306 -0.0482  0.0502
  763TIP3    H126484   5.759   0.593   7.518 -0.5246 -2.0520 -2.0021
  763TIP3    H226485   5.748   0.470   7.606 -0.2233  0.2335  1.4010
  764TIP3   OH226486   3.858   5.993   7.589  0.3845  0.2205  0.2921
  764TIP3    H126487   3.943   5.969   7.552  0.8222 -2.0962  2.5393
  764TIP3    H226488   3.834   5.919   7.645 -2.4476  1.4488  0.8888
  765TIP3   OH226489   3.596   0.027   8.299 -0.6179 -0.2646 -0.1579
  765TIP3    H126490   3.650   0.102   8.274  1.4159 -0.9996  1.7106
  765TIP3    H226491   3.648  -0.050   8.274 -1.4624 -1.0275  0.3567
  766TIP3   OH226492   5.764   0.845   8.419  0.6976  0.1463  0.0336
  766TIP3    H126493   5.674   0.874   8.399 -0.3091  0.0269  3.6564
  766TIP3    H226494   5.805   0.921   8.460  2.4610  0.2887 -1.8307
  767TIP3   OH226495   5.920   5.892   8.505  0.2608 -0.2869 -0.0126
  767TIP3    H126496   5.908   5.814   8.559  0.4392  0.2400  0.7881
  767TIP3    H226497   5.978   5.863   8.434  1.5051 -0.5172  1.0736
  768TIP3   OH226498   3.137   6.528   7.881 -0.3079  0.0987  0.1326
  768TIP3    H126499   3.051   6.522   7.841 -0.4621 -1.5547  0.6181
  768TIP3    H226500   3.138   6.459   7.947  0.6166  1.5065  1.6787
  769TIP3   OH226501   4.012   6.845   7.063  0.0514  0.2783 -0.0142
  769TIP3    H126502   3.999   6.921   7.006  1.2240  0.9648  0.5963
  769TIP3    H226503   4.047   6.778   7.004 -2.2911 -0.2986 -0.8458
  770TIP3   OH226504   0.382   0.624   8.699 -0.2924  0.1216  0.1080
  770TIP3    H126505   0.363   0.544   8.747  0.6157  0.6462  1.4034
  770TIP3    H226506   0.297   0.665   8.684 -0.6840 -0.6389  0.2205
  771TIP3   OH226507   3.115   5.696   9.432 -0.4590  0.5504 -0.3967
  771TIP3    H126508   3.126   5.761   9.502  0.9292  0.3531 -0.4037
  771TIP3    H226509   3.204   5.680   9.400 -0.7337 -1.3890 -0.3469
  772TIP3   OH226510   4.637   4.711   8.624 -0.3013  0.0410  0.2071
  772TIP3    H126511   4.676   4.743   8.705 -0.6281  2.0173 -0.3502
  772TIP3    H226512   4.710   4.670   8.577 -0.2268 -1.6608  1.6912
  773TIP3   OH226513   3.531   7.369   8.783  0.0553 -0.4225 -0.3302
  773TIP3    H126514   3.508   7.285   8.824  2.5795 -0.6178  0.8500
  773TIP3    H226515   3.539   7.348   8.690 -1.0673 -1.0546 -0.3107
  774TIP3   OH226516   3.766   1.587   7.217  0.0556 -0.1938  0.0528
  774TIP3    H126517   3.737   1.510   7.168  0.2356 -0.0543 -0.2731
  774TIP3    H226518   3.705   1.593   7.291  0.0798 -0.6826  0.1136
  775TIP3   OH226519   6.529   4.485   7.283  0.0672 -0.5995  0.3299
  775TIP3    H126520   6.508   4.533   7.362  1.3197 -1.7340  1.4131
  775TIP3    H226521   6.450   4.434   7.264  0.1530 -1.2564  1.6023
  776TIP3   OH226522   7.014   1.464   8.973  0.6339  0.8744 -0.4669
  776TIP3    H126523   7.075   1.516   9.025  0.2309  0.8436  0.0431
  776TIP3    H226524   6.936   1.518   8.966  0.2916  0.4332 -0.1158
  777TIP3   OH226525   6.029   3.172   7.620 -0.2885  0.5636 -0.1828
  777TIP3    H126526   6.112   3.197   7.661 -0.0457  0.1718 -0.4287
  777TIP3    H226527   6.010   3.085   7.654  0.5646 -0.3105 -1.8316
  778TIP3   OH226528   0.205   5.110   6.878 -0.3065 -0.5717  0.8090
  778TIP3    H126529   0.194   5.018   6.856 -1.2781  0.2052 -2.4046
  778TIP3    H226530   0.116   5.145   6.879  0.1469  0.6410  0.4268
  779TIP3   OH226531   6.889   5.291   8.354 -0.1285 -0.1949 -0.6257
  779TIP3    H126532   6.856   5.278   8.443 -1.6244  1.0675 -0.9371
  779TIP3    H226533   6.815   5.266   8.298  0.4427 -0.0269 -1.4744
  780TIP3   OH226534   0.875   3.507   6.982  1.0200  0.6258 -0.4281
  780TIP3    H126535   0.854   3.588   6.935  1.4121  1.3907  0.6820
  780TIP3    H226536   0.807   3.445   6.955  1.9129  0.6263 -2.9503
  781TIP3   OH226537   6.174   5.549   7.687  0.8469 -0.5553  0.2260
  781TIP3    H126538   6.231   5.504   7.625  2.5877  1.8811 -0.1157
  781TIP3    H226539   6.228   5.560   7.765  0.5866  0.9939  0.2304
  782TIP3   OH226540   1.718   1.842   7.424 -0.4995 -0.4179 -0.1914
  782TIP3    H126541   1.689   1.884   7.343  0.9682 -0.6769 -0.8792
  782TIP3    H226542   1.669   1.760   7.427 -0.4514 -0.4769 -0.8923
  783TIP3   OH226543   6.272   4.461   7.740 -0.7602 -0.3534  0.0926
  783TIP3    H126544   6.273   4.415   7.656  0.3084  0.8246 -0.5666
  783TIP3    H226545   6.363   4.484   7.756 -1.1905  1.0561  0.6637
  784TIP3   OH226546   3.536   3.023   7.144 -0.0959  0.0714 -0.2230
  784TIP3    H126547   3.570   3.106   7.110 -0.5044  1.4751  2.4730
  784TIP3    H226548   3.443   3.040   7.157 -0.3807 -1.1784 -0.5619
  785TIP3   OH226549   4.566   1.018   8.231  0.4699  0.3993  0.1628
  785TIP3    H126550   4.588   0.985   8.318  0.7503  0.1137 -0.0140
  785TIP3    H226551   4.583   0.944   8.173  0.6367  0.7060 -0.1808
  786TIP3   OH226552   4.450   3.492   9.250  0.4522  0.8527  0.4347
  786TIP3    H126553   4.492   3.575   9.223  0.5277  0.6371 -0.1381
  786TIP3    H226554   4.506   3.424   9.212 -1.2957  0.5506 -1.8304
  787TIP3   OH226555   2.880   7.612   7.174 -0.3972  0.4604 -0.4458
  787TIP3    H126556   2.939   7.672   7.128 -0.4408  0.0623 -1.0313
  787TIP3    H226557   2.843   7.558   7.105 -1.9585  1.1192 -0.1743
  788TIP3   OH226558   2.013   3.266   7.459  0.0737 -0.1691 -0.4381
  788TIP3    H126559   1.995   3.181   7.418  0.9613 -1.2927  1.3869
  788TIP3    H226560   1.932   3.290   7.503  0.1294 -0.5895 -0.0995
  789TIP3   OH226561   7.321   7.020   9.162  0.4400  0.4712 -0.1233
  789TIP3    H126562   7.351   7.107   9.137  1.0149  0.7804  1.4726
  789TIP3    H226563   7.392   6.962   9.133  0.5377  0.6623 -0.2721
  790TIP3   OH226564   5.980   2.844   6.886  0.1907  0.0533 -0.1866
  790TIP3    H126565   5.966   2.862   6.793  0.3352 -0.5652 -0.3311
  790TIP3    H226566   6.063   2.887   6.906  0.8268 -0.9345 -0.6713
  791TIP3   OH226567   6.707   7.504   8.996  0.3502 -0.5320  0.3575
  791TIP3    H126568   6.774   7.570   9.013 -0.5320  0.8144 -1.2054
  791TIP3    H226569   6.681   7.518   8.905 -3.5412  0.4401  1.4254
  792TIP3   OH226570   4.681   5.781   7.882  0.0297  0.0060  0.7206
  792TIP3    H126571   4.680   5.728   7.803  2.5770  0.6045  0.2126
  792TIP3    H226572   4.686   5.717   7.953  1.2614 -0.5021  0.2037
  793TIP3   OH226573   6.268   6.759   7.686 -0.2427  0.4110 -0.5996
  793TIP3    H126574   6.310   6.821   7.626 -0.7963  0.2907 -1.1192
  793TIP3    H226575   6.334   6.744   7.755  0.7646 -0.1495 -1.6447
  794TIP3   OH226576   0.010   6.007   7.302  0.2519  0.7763 -0.4055
  794TIP3    H126577  -0.031   6.064   7.237 -1.6882  1.8577  1.6639
  794TIP3    H226578  -0.058   5.990   7.366  1.6750 -1.4530  0.6422
  795TIP3   OH226579   5.971   7.321   7.236 -0.1386 -0.3586 -0.3556
  795TIP3    H126580   5.996   7.255   7.301 -2.9665 -1.7612 -0.5578
  795TIP3    H226581   5.999   7.283   7.152 -1.6685 -1.3175 -0.4619
  796TIP3   OH226582   0.028   0.057   7.025 -0.0523 -0.2811 -0.4886
  796TIP3    H126583  -0.046   0.108   6.991 -0.8259 -1.2992 -0.3711
  796TIP3    H226584   0.070   0.022   6.947  0.1646  0.0978 -0.5441
  797TIP3   OH226585   3.983   4.617   9.280 -0.3456  0.7365 -0.5775
  797TIP3    H126586   4.006   4.710   9.272 -1.1427  0.9102 -0.9903
  797TIP3    H226587   4.060   4.570   9.249 -0.0519  1.2664 -0.6657
  798TIP3   OH226588   3.030   0.472   9.003 -0.5336  0.0456  0.3358
  798TIP3    H126589   3.006   0.521   9.081 -1.2461 -0.0628  0.1950
  798TIP3    H226590   3.004   0.382   9.022 -0.1737 -0.0883  0.1985
  799TIP3   OH226591   4.456   5.484   7.299 -0.1177  0.6370 -0.6086
  799TIP3    H126592   4.494   5.396   7.304  0.8632  1.0290 -1.0819
  799TIP3    H226593   4.378   5.478   7.354  1.3064  0.1734  1.4793
  800TIP3   OH226594   5.523   2.683   6.945  0.2411 -0.7158  0.0845
  800TIP3    H126595   5.565   2.752   6.894 -0.6957 -0.3632 -0.2440
  800TIP3    H226596   5.591   2.617   6.958  0.6485 -0.5671 -1.1716
  801TIP3   OH226597   7.570   5.947   8.002 -0.7287  0.1192  0.2442
  801TIP3    H126598   7.528   5.987   7.926  0.9310 -1.4223 -1.6031
  801TIP3    H226599   7.538   5.856   8.002  0.3260 -0.2707  0.5456
  802TIP3   OH226600   1.004   3.500   8.433  0.0514 -0.4204  0.0158
  802TIP3    H126601   1.016   3.595   8.432  0.5807 -0.4708  1.0674
  802TIP3    H226602   1.039   3.471   8.349 -0.5907  0.3557 -0.5424
  803TIP3   OH226603   2.061   2.451   7.984 -0.0262  0.1259 -0.9178
  803TIP3    H126604   1.974   2.446   8.025  0.8857  0.5391  1.2255
  803TIP3    H226605   2.095   2.362   7.991  0.1555  0.2104 -0.7242
  804TIP3   OH226606   1.159   3.743   7.071 -0.0469  0.7479  0.5697
  804TIP3    H126607   1.136   3.776   6.984  0.3659  0.3249  0.2991
  804TIP3    H226608   1.242   3.786   7.092  0.1054  0.4681  0.5428
  805TIP3   OH226609   3.516   5.775   7.602 -0.2013  0.2954  0.0636
  805TIP3    H126610   3.535   5.868   7.609  0.1781  0.1219  1.8667
  805TIP3    H226611   3.582   5.741   7.542  0.4192  0.9890  0.3423
  806TIP3   OH226612   0.049   1.063   7.976  0.1973 -0.0491 -0.5940
  806TIP3    H126613  -0.037   1.071   7.935  0.2654  1.2138 -0.5067
  806TIP3    H226614   0.060   0.969   7.989 -1.6576 -0.1614  0.4529
  807TIP3   OH226615   3.557   5.439   7.109 -0.0891  0.0518 -0.1229
  807TIP3    H126616   3.569   5.421   7.202 -3.3156 -0.6248  0.2680
  807TIP3    H226617   3.565   5.534   7.102 -2.0311  0.3830  1.3183
  808TIP3   OH226618   7.471   6.672   7.158  0.3184  0.1986  0.0928
  808TIP3    H126619   7.555   6.697   7.118  0.7372 -1.6408 -0.2766
  808TIP3    H226620   7.457   6.582   7.129 -0.5894 -0.3610  2.1435
  809TIP3   OH226621   4.197   7.008   8.988  0.2542 -0.6400 -0.9888
  809TIP3    H126622   4.283   6.971   9.005 -0.2361 -1.7506 -0.8282
  809TIP3    H226623   4.165   7.036   9.073  0.5225 -0.0528 -1.0746
  810TIP3   OH226624   0.219   5.276   8.576  0.4780  0.4561 -0.2027
  810TIP3    H126625   0.146   5.336   8.568 -0.8762 -0.9938  0.6765
  810TIP3    H226626   0.179   5.189   8.581  2.0719 -0.2425  2.4407
  811TIP3   OH226627   6.069   0.306   7.691  0.0859 -0.3475  0.5575
  811TIP3    H126628   6.165   0.309   7.687  0.1247 -2.2259 -1.1436
  811TIP3    H226629   6.041   0.319   7.601 -1.3100  0.2496  1.0493
  812TIP3   OH226630   0.593   3.866   8.537  0.1997  0.3564  0.1374
  812TIP3    H126631   0.624   3.929   8.472  1.6805  0.3379  0.7882
  812TIP3    H226632   0.506   3.898   8.562 -0.0167  0.8562 -1.1860
  813TIP3   OH226633   4.524   4.079   7.029  0.4112 -0.5784 -0.1726
  813TIP3    H126634   4.529   4.061   6.935 -0.0695  0.5283 -0.4342
  813TIP3    H226635   4.593   4.144   7.045 -0.2512  0.1024 -0.0027
  814TIP3   OH226636   0.328   4.228   8.856  0.4596 -0.8584  0.3486
  814TIP3    H126637   0.342   4.318   8.827 -0.3300 -0.8590 -0.0721
  814TIP3    H226638   0.343   4.231   8.951 -2.2151  0.3423  0.8259
  815TIP3   OH226639   4.468   1.300   8.828  0.5027 -0.1098 -0.5340
  815TIP3    H126640   4.440   1.288   8.738  1.6238  0.2879 -0.9509
  815TIP3    H226641   4.564   1.303   8.824  0.6839 -2.0087  0.9066
  816TIP3   OH226642   1.423   3.450   7.788  0.0125  0.1465 -0.0067
  816TIP3    H126643   1.467   3.513   7.731  1.2986 -0.3411  0.4097
  816TIP3    H226644   1.479   3.444   7.865 -0.7615 -0.5528  0.5180
  817TIP3   OH226645   0.597   5.147   9.005 -0.2505 -0.0402 -0.0278
  817TIP3    H126646   0.620   5.079   8.941 -1.9937  0.9289 -1.8036
  817TIP3    H226647   0.537   5.103   9.065  1.0166 -0.8285  0.7167
  818TIP3   OH226648   6.271   7.357   7.836 -0.0337  0.1918 -0.3591
  818TIP3    H126649   6.301   7.379   7.748 -0.0966  0.6339 -0.2750
  818TIP3    H226650   6.319   7.277   7.859 -0.0574  0.0488 -0.8123
  819TIP3   OH226651   4.789   6.235   9.351  0.0654 -0.1054 -0.3298
  819TIP3    H126652   4.840   6.186   9.287  0.2135 -0.7181  0.2574
  819TIP3    H226653   4.781   6.177   9.426  3.0550  1.8866  1.7690
  820TIP3   OH226654   2.830   2.754   8.381  0.4603 -0.0107 -0.3625
  820TIP3    H126655   2.805   2.686   8.443 -0.7944 -0.6545 -1.5191
  820TIP3    H226656   2.754   2.763   8.324  1.7556  0.1585 -2.1522
  821TIP3   OH226657   6.234   3.782   9.071 -0.3384  0.7737 -0.4688
  821TIP3    H126658   6.253   3.826   8.989 -0.0254  0.3329 -0.6373
  821TIP3    H226659   6.294   3.707   9.073 -1.4786 -0.1701 -0.6147
  822TIP3   OH226660   0.538   1.319   9.327  0.4949  0.1806  0.7799
  822TIP3    H126661   0.507   1.369   9.402 -0.8648  0.3735  0.1169
  822TIP3    H226662   0.620   1.361   9.302  0.7095  0.4140  1.8458
  823TIP3   OH226663   5.463   1.151   9.228  0.4916  0.2619  0.0093
  823TIP3    H126664   5.544   1.112   9.195  1.2390  0.1568  1.8686
  823TIP3    H226665   5.400   1.138   9.157  1.1452 -2.7944 -0.1524
  824TIP3   OH226666   4.560   6.942   7.957  0.0099 -0.2155 -0.0359
  824TIP3    H126667   4.642   6.992   7.966  0.2119 -0.7304  1.2736
  824TIP3    H226668   4.550   6.929   7.863 -0.2558  2.6141 -0.4673
  825TIP3   OH226669   3.594   1.651   7.422 -0.6605 -0.8118 -0.1363
  825TIP3    H126670   3.651   1.599   7.479 -1.7573 -3.1573 -1.0362
  825TIP3    H226671   3.509   1.650   7.466 -0.9538 -0.6773 -0.6893
  826TIP3   OH226672   3.941   7.004   8.679 -0.4831  0.4409 -0.1566
  826TIP3    H126673   3.873   7.067   8.658 -2.2042  0.0205  3.3321
  826TIP3    H226674   4.017   7.057   8.704 -0.1448  0.9405 -2.0910
  827TIP3   OH226675   3.747   7.674   7.257 -0.8136 -0.8234  0.0985
  827TIP3    H126676   3.807   7.613   7.215  0.0359 -0.1736  0.3453
  827TIP3    H226677   3.771   7.760   7.223  1.0728 -0.0245  3.1069
  828TIP3   OH226678   6.942   5.956   7.380  0.1273 -0.2799 -0.3148
  828TIP3    H126679   6.976   5.892   7.317  0.0273  0.1729 -0.8343
  828TIP3    H226680   7.018   5.982   7.431  0.0751 -1.2077  0.2654
  829TIP3   OH226681   6.769   3.194   8.528  0.5273 -0.3884 -0.2214
  829TIP3    H126682   6.785   3.246   8.449  0.8399 -1.3871 -0.8288
  829TIP3    H226683   6.796   3.106   8.505  1.9270 -0.4572  1.4383
  830TIP3   OH226684   7.114   4.597   7.129 -0.0528 -0.2965  0.2651
  830TIP3    H126685   7.192   4.541   7.133 -0.2288 -0.5443  0.2687
  830TIP3    H226686   7.074   4.576   7.045 -0.7428 -1.0235  0.7638
  831TIP3   OH226687   3.586   1.924   7.814  0.5424  0.3941 -0.4412
  831TIP3    H126688   3.574   1.850   7.874 -0.6422  0.0549 -1.0832
  831TIP3    H226689   3.680   1.923   7.795  0.6392 -0.5884  0.0028
  832TIP3   OH226690   1.461   4.682   7.231 -0.0520  0.0602 -0.8300
  832TIP3    H126691   1.504   4.695   7.146  1.6809  0.1098  0.0096
  832TIP3    H226692   1.486   4.759   7.282 -1.9219  0.5374 -0.5753
  833TIP3   OH226693   0.998   5.964   7.564  0.0166 -0.5514 -0.1957
  833TIP3    H126694   1.076   5.975   7.618 -0.3318 -0.4854  0.3013
  833TIP3    H226695   0.956   5.885   7.599 -0.1384 -0.5900 -0.4647
  834TIP3   OH226696   3.763   5.519   9.030  0.3203 -0.6708 -0.2025
  834TIP3    H126697   3.818   5.477   9.097  1.3004 -0.2958 -0.7608
  834TIP3    H226698   3.703   5.450   9.002  0.8447 -1.2376  0.0486
  835TIP3   OH226699   3.978   6.462   8.598  0.1093 -0.3589 -0.3634
  835TIP3    H126700   4.035   6.414   8.538  0.2943 -0.4073 -0.1503
  835TIP3    H226701   4.031   6.474   8.677 -0.3925 -0.9547  0.0777
  836TIP3   OH226702   5.164   2.518   9.210 -0.2769  0.1625 -0.6502
  836TIP3    H126703   5.173   2.434   9.256 -0.0436 -0.6403 -2.0673
  836TIP3    H226704   5.128   2.494   9.125 -0.7914  1.5943 -0.8602
  837TIP3   OH226705   1.474   0.540   9.339 -0.8066 -0.1317 -0.4072
  837TIP3    H126706   1.569   0.532   9.336 -0.6340  1.5180 -0.2276
  837TIP3    H226707   1.442   0.450   9.333  0.8107 -0.9450  1.9073
  838TIP3   OH226708   6.848   7.228   7.168 -0.5223  0.3903  0.1178
  838TIP3    H126709   6.856   7.135   7.146 -1.4895  0.5780 -1.1612
  838TIP3    H226710   6.769   7.233   7.222 -0.1881  0.4154  0.6138
  839TIP3   OH226711   4.224   0.344   9.421  0.1885  0.1650 -0.0425
  839TIP3    H126712   4.139   0.320   9.385  0.3283  1.4381 -1.3382
  839TIP3    H226713   4.223   0.310   9.510 -0.2227 -3.0656 -1.1451
  840TIP3   OH226714   2.548   1.438   6.824 -0.2323  0.2209 -0.2121
  840TIP3    H126715   2.612   1.416   6.891 -0.0616  1.2642 -0.0092
  840TIP3    H226716   2.582   1.518   6.784 -0.6187 -0.0773 -1.1631
  841TIP3   OH226717   2.386   0.443   9.108  0.0788 -0.1723  0.3151
  841TIP3    H126718   2.408   0.532   9.136 -0.2341 -0.2417  0.7905
  841TIP3    H226719   2.470   0.402   9.091  0.2150  0.3527 -0.3428
  842TIP3   OH226720   2.413   1.024   7.808 -0.1201  0.1695 -0.6367
  842TIP3    H126721   2.392   0.933   7.828  3.6299 -0.3430  2.1402
  842TIP3    H226722   2.329   1.070   7.813 -1.9119 -2.8402 -0.5126
  843TIP3   OH226723   2.138   7.023   7.791 -0.7961  0.0342 -0.2082
  843TIP3    H126724   2.163   7.006   7.700 -0.3761 -1.3210  0.1245
  843TIP3    H226725   2.176   7.109   7.811  0.7089 -0.4564 -0.7805
  844TIP3   OH226726   3.090   6.764   8.530 -0.0959 -0.1116 -0.1463
  844TIP3    H126727   3.058   6.838   8.582 -0.7216 -0.5402  0.0894
  844TIP3    H226728   3.113   6.697   8.594 -0.4625 -0.4814 -0.3905
  845TIP3   OH226729   1.361   4.350   8.707  0.4328 -0.4574  0.8472
  845TIP3    H126730   1.414   4.430   8.706  0.3110 -0.3758 -0.0301
  845TIP3    H226731   1.283   4.374   8.757 -0.4428  0.5635 -0.8762
  846TIP3   OH226732   2.946   3.295   8.046  0.1591 -0.5581  0.6297
  846TIP3    H126733   3.006   3.235   8.090  0.1970  0.0861  1.4866
  846TIP3    H226734   2.866   3.245   8.034  0.6976 -1.2701 -0.0869
  847TIP3   OH226735   3.654   2.720   7.177  0.0118  0.0656 -0.3282
  847TIP3    H126736   3.572   2.671   7.169 -0.6708  0.8340  1.6170
  847TIP3    H226737   3.630   2.810   7.157  0.2244  0.4078  0.9107
  848TIP3   OH226738   7.029   7.350   6.715 -0.4008 -0.0765  0.5145
  848TIP3    H126739   7.026   7.254   6.715  0.9762 -0.1434  0.9809
  848TIP3    H226740   6.949   7.376   6.761 -0.0600 -1.0560  1.7201
  849TIP3   OH226741   3.407   0.291   9.346 -0.3665 -0.1676 -0.0819
  849TIP3    H126742   3.332   0.238   9.319 -0.8111 -0.3260  1.3934
  849TIP3    H226743   3.479   0.260   9.290 -1.1252 -0.7880 -0.7453
  850TIP3   OH226744   3.147   2.986   8.962  0.0774 -0.0580 -0.1960
  850TIP3    H126745   3.094   3.065   8.952  1.6495  1.0096 -0.2934
  850TIP3    H226746   3.107   2.940   9.037 -2.6714 -0.7277 -1.9329
  851TIP3   OH226747   4.107   2.577   6.922  0.0482  0.4706 -0.2450
  851TIP3    H126748   4.128   2.489   6.953 -0.0629 -0.5240 -2.7771
  851TIP3    H226749   4.161   2.635   6.976  0.3109 -1.1488  1.3085
  852TIP3   OH226750   6.108   7.003   7.992 -0.3258  0.2310 -0.2248
  852TIP3    H126751   6.019   6.990   8.024 -0.0622 -0.3711  0.2821
  852TIP3    H226752   6.160   6.934   8.034  0.5154  0.9953  0.0444
  853TIP3   OH226753   3.029   1.256   8.115 -0.4898  0.0214 -0.3426
  853TIP3    H126754   3.017   1.318   8.188  0.3310  0.7540 -0.8082
  853TIP3    H226755   2.958   1.276   8.055 -0.5893  0.0939 -0.2014
  854TIP3   OH226756   3.799   1.884   8.717  0.0767  0.3286 -0.0831
  854TIP3    H126757   3.732   1.840   8.771  0.3729 -0.4826 -0.3620
  854TIP3    H226758   3.872   1.899   8.777  0.3940 -0.5461 -0.2356
  855TIP3   OH226759   2.706   4.621   9.428 -0.1489 -0.2794 -0.1569
  855TIP3    H126760   2.619   4.650   9.457 -0.1735  0.6307 -1.0885
  855TIP3    H226761   2.744   4.698   9.385  1.0228 -0.7397  0.0161
  856TIP3   OH226762   4.559   5.056   7.074  0.3193  0.0506  0.5392
  856TIP3    H126763   4.600   5.032   6.991  0.1011 -2.1383  1.0153
  856TIP3    H226764   4.483   5.107   7.049  1.0278  0.6239 -0.5281
  857TIP3   OH226765   1.527   1.537   7.112 -0.0184 -0.0302 -0.2950
  857TIP3    H126766   1.447   1.552   7.062  0.0366  1.3483 -0.0056
  857TIP3    H226767   1.519   1.447   7.144 -1.4371  0.0750 -0.2938
  858TIP3   OH226768   5.214   1.942   9.283 -0.2468 -0.0466  0.2420
  858TIP3    H126769   5.173   1.872   9.333  0.6838  0.6920  2.1795
  858TIP3    H226770   5.145   2.008   9.273 -0.7698 -0.7009 -0.4817
  859TIP3   OH226771   2.495   4.312   8.975  0.1995 -0.4194  0.2637
  859TIP3    H126772   2.543   4.392   8.955  1.1581 -0.9225  0.5270
  859TIP3    H226773   2.558   4.256   9.020 -1.0780 -0.4420  2.1621
  860TIP3   OH226774   1.089   0.185   7.982 -0.3345  0.0849  0.1381
  860TIP3    H126775   1.140   0.117   8.025  0.3802  0.3661 -0.2496
  860TIP3    H226776   1.029   0.138   7.925  1.1258 -0.2109 -1.2202
  861TIP3   OH226777   7.409   4.772   9.552 -0.0008  0.4247 -0.1379
  861TIP3    H126778   7.482   4.780   9.614 -1.1294  1.7787  1.0771
  861TIP3    H226779   7.350   4.844   9.575 -1.4361 -0.2709 -1.4974
  862TIP3   OH226780   2.915   6.949   8.644  0.6852  0.2523  0.7108
  862TIP3    H126781   2.856   6.873   8.642  0.6118  0.2859 -1.5594
  862TIP3    H226782   2.887   6.999   8.721  1.1252 -2.2616  2.6219
  863TIP3   OH226783   5.102   1.166   7.500  0.1763 -0.1521  0.3055
  863TIP3    H126784   5.171   1.230   7.484  0.4631 -0.5466 -0.0536
  863TIP3    H226785   5.133   1.085   7.459 -0.6768 -0.2330 -0.2214
  864TIP3   OH226786   1.257   1.188   8.503  0.1153 -0.1316 -0.2976
  864TIP3    H126787   1.256   1.144   8.588  2.1403 -2.1762 -1.2410
  864TIP3    H226788   1.345   1.173   8.469 -0.0959  2.1099 -2.0515
  865TIP3   OH226789   6.400   2.117   8.055  0.2472  0.5032 -0.6321
  865TIP3    H126790   6.465   2.091   8.120  0.8544  3.5961  0.1539
  865TIP3    H226791   6.348   2.038   8.040  2.4984 -1.3551  0.6955
  866TIP3   OH226792   0.316   4.158   6.687 -0.1523 -0.1883  0.3927
  866TIP3    H126793   0.397   4.163   6.737  0.3279 -0.9290 -0.2863
  866TIP3    H226794   0.323   4.230   6.624  0.7235 -1.1859 -0.7025
  867TIP3   OH226795   4.767   4.156   8.267 -0.7034  0.6403  0.2391
  867TIP3    H126796   4.698   4.094   8.288 -0.4652  0.5958  0.9140
  867TIP3    H226797   4.753   4.229   8.326 -0.4235  0.8164  0.0914
  868TIP3   OH226798   6.731   6.150   8.723 -0.0572  0.2585  0.5671
  868TIP3    H126799   6.752   6.066   8.681  0.2235 -0.4316  2.0376
  868TIP3    H226800   6.637   6.160   8.711  0.2731  1.0851 -1.9609
  869TIP3   OH226801   7.333   6.749   7.806 -0.4758 -0.8800 -0.2490
  869TIP3    H126802   7.360   6.667   7.848  0.6174  0.3024  1.4741
  869TIP3    H226803   7.262   6.783   7.862  0.6290  0.4470  0.4022
  870TIP3   OH226804   1.009   7.584   7.205  0.0460  0.1784  0.2315
  870TIP3    H126805   0.945   7.641   7.162  1.6569  2.1518  0.2843
  870TIP3    H226806   1.086   7.640   7.218  1.9936 -2.1986 -0.2691
  871TIP3   OH226807   6.688   3.791   8.799  0.3814  0.6544  0.1048
  871TIP3    H126808   6.708   3.851   8.727  1.1425  0.1695 -0.1101
  871TIP3    H226809   6.662   3.710   8.756 -3.3811  1.5654  0.3519
  872TIP3   OH226810   1.874   2.040   6.561 -0.5281 -0.0115 -0.1959
  872TIP3    H126811   1.799   1.980   6.570 -0.0084 -0.5884  0.3741
  872TIP3    H226812   1.946   1.984   6.531  0.1693  0.1502  1.1159
  873TIP3   OH226813   5.369   4.579   8.911 -0.1577 -0.0052  0.2021
  873TIP3    H126814   5.382   4.602   9.003 -0.3849  0.4927  0.1125
  873TIP3    H226815   5.429   4.506   8.896  0.2431  0.2344  0.6129
  874TIP3   OH226816   1.917   3.533   7.899 -0.0088 -0.3312 -1.0996
  874TIP3    H126817   1.918   3.562   7.808  1.8873  1.3088 -0.6452
  874TIP3    H226818   1.998   3.483   7.909 -0.1360 -0.3884 -0.2880
  875TIP3   OH226819   3.301   3.320   7.867 -0.0294  0.0253 -0.4171
  875TIP3    H126820   3.238   3.390   7.886  0.0947 -0.0751  0.4042
  875TIP3    H226821   3.354   3.313   7.946 -1.0245 -2.0414  0.1411
  876TIP3   OH226822   3.503   2.654   6.902 -0.0249 -0.6668  0.0748
  876TIP3    H126823   3.481   2.601   6.825  0.6380  0.3086 -0.8267
  876TIP3    H226824   3.426   2.709   6.915 -1.0796 -2.3985  1.5591
  877TIP3   OH226825   6.987   0.091   7.823  0.1679 -0.8947 -0.4285
  877TIP3    H126826   6.907   0.129   7.787  1.7695  1.3373 -1.9667
  877TIP3    H226827   7.033   0.056   7.747  1.5488 -0.2697  0.0704
  878TIP3   OH226828   4.189   6.204   8.888  0.3637  0.5143  0.0640
  878TIP3    H126829   4.271   6.216   8.936  0.5010  1.3208 -0.3569
  878TIP3    H226830   4.168   6.291   8.853 -0.6153  0.2992  0.0763
  879TIP3   OH226831   6.916   6.080   6.934 -0.2715  0.9564 -0.5220
  879TIP3    H126832   6.905   6.156   6.878 -0.3431  0.6614 -0.9135
  879TIP3    H226833   6.907   6.005   6.875 -0.5132  0.6409 -0.0881
  880TIP3   OH226834   0.858   2.563   9.026  0.5395  0.1082  0.2670
  880TIP3    H126835   0.894   2.603   9.105  1.9706 -0.3541 -0.1185
  880TIP3    H226836   0.833   2.636   8.971 -0.5438  0.4377  1.1515
  881TIP3   OH226837   0.255   4.681   9.327 -0.2425  0.0468  0.0250
  881TIP3    H126838   0.283   4.630   9.403 -0.6876 -0.3015 -0.0391
  881TIP3    H226839   0.183   4.630   9.289 -1.8051  1.4820  0.8974
  882TIP3   OH226840   6.790   6.670   7.809 -0.3068  0.5906  0.1832
  882TIP3    H126841   6.804   6.577   7.792  1.1565  0.7586  0.3850
  882TIP3    H226842   6.745   6.702   7.730 -0.1947 -0.1402 -0.1867
  883TIP3   OH226843   1.932   2.465   7.180 -0.3466  0.3176  0.1300
  883TIP3    H126844   2.022   2.433   7.178  0.0448  1.4004  0.2375
  883TIP3    H226845   1.894   2.434   7.098 -0.0581 -0.6163  0.3303
  884TIP3   OH226846   5.098   3.919   7.937  0.2550 -0.5565 -0.4181
  884TIP3    H126847   5.165   3.917   8.005 -0.2317  1.0348  0.1428
  884TIP3    H226848   5.015   3.916   7.984 -0.2677  4.3491 -0.4513
  885TIP3   OH226849   1.278   6.007   9.472  0.2325 -0.0574  0.5802
  885TIP3    H126850   1.298   6.100   9.457  1.3541  0.0743  2.5069
  885TIP3    H226851   1.349   5.960   9.429  0.4868  0.0594  0.8672
  886TIP3   OH226852   0.861   4.267   9.051  0.2669  0.7079 -0.3515
  886TIP3    H126853   0.774   4.308   9.046  0.5764  1.2225 -2.6292
  886TIP3    H226854   0.917   4.335   9.086  0.1413  1.1271 -0.9438
  887TIP3   OH226855   0.863   5.459   8.285  0.4122 -0.4309  0.1406
  887TIP3    H126856   0.873   5.385   8.346 -0.9737 -0.1960  0.6850
  887TIP3    H226857   0.774   5.490   8.300  0.8816  1.1889 -0.2811
  888TIP3   OH226858   2.517   6.343   8.303 -0.5567 -0.0244 -0.0258
  888TIP3    H126859   2.535   6.256   8.268  1.5752  0.4461 -0.2607
  888TIP3    H226860   2.593   6.395   8.278 -0.9642  1.4689  1.6080
  889TIP3   OH226861   4.863   2.587   8.550 -0.5561  0.0402 -0.5999
  889TIP3    H126862   4.934   2.561   8.609 -1.0314 -0.5930 -0.2975
  889TIP3    H226863   4.784   2.556   8.593 -1.0438  0.9213 -0.8341
  890TIP3   OH226864   3.595   4.113   6.378 -0.2996 -0.2999  0.0301
  890TIP3    H126865   3.571   4.030   6.336 -2.0706 -1.7479  3.4776
  890TIP3    H226866   3.669   4.091   6.434 -0.1906  0.6787  0.2767
  891TIP3   OH226867   2.866   0.018   9.482  0.1462  0.6393  0.4115
  891TIP3    H126868   2.805  -0.030   9.426 -0.0263 -0.0845  1.1908
  891TIP3    H226869   2.829   0.010   9.570  0.9672  0.8219  0.7819
  892TIP3   OH226870   1.346   2.435   9.666  0.0820  0.0851  0.3080
  892TIP3    H126871   1.254   2.407   9.668 -0.4900  1.8875  0.7286
  892TIP3    H226872   1.368   2.437   9.572 -0.0549 -1.0627  0.2344
  893TIP3   OH226873   1.971   2.879   8.578  0.1047  0.1762 -0.0202
  893TIP3    H126874   1.910   2.891   8.505 -1.3179 -0.4430  1.0064
  893TIP3    H226875   1.937   2.803   8.625  1.3570  0.1659  0.9199
  894TIP3   OH226876   7.190   3.542   8.041 -0.5193 -0.1309 -1.0588
  894TIP3    H126877   7.160   3.471   8.099  0.0574  0.7253  0.3368
  894TIP3    H226878   7.276   3.565   8.075 -1.0149  1.7543 -0.9811
  895TIP3   OH226879   6.975   4.986   7.933 -0.0196  0.5883  0.6574
  895TIP3    H126880   6.940   4.972   8.021 -0.6172 -2.3675  0.0607
  895TIP3    H226881   7.063   4.949   7.935  0.0251  0.6477  0.0864
  896TIP3   OH226882   2.788   2.424   7.610 -0.3256 -0.1881 -0.1089
  896TIP3    H126883   2.866   2.380   7.642 -0.0356  0.1253 -0.3641
  896TIP3    H226884   2.805   2.438   7.517 -1.0709 -0.9159 -0.3582
  897TIP3   OH226885   5.793   0.376   9.405 -0.2729 -0.0196  0.3390
  897TIP3    H126886   5.720   0.323   9.371 -1.1692  1.4210 -0.0444
  897TIP3    H226887   5.798   0.353   9.497  0.6011 -2.1695 -0.1794
  898TIP3   OH226888   2.634   3.577   6.481 -0.1515 -0.0428 -0.6621
  898TIP3    H126889   2.595   3.661   6.455 -0.6573  0.1185  0.5463
  898TIP3    H226890   2.574   3.543   6.548  0.1661 -1.2681 -0.9761
  899TIP3   OH226891   4.234   3.130   7.244  0.0843 -0.1195 -0.3874
  899TIP3    H126892   4.180   3.108   7.168 -1.9567 -1.2074  1.2724
  899TIP3    H226893   4.247   3.047   7.289  0.3900  0.6368  0.9717
  900TIP3   OH226894   5.372   6.284   9.253  0.6570 -0.0715 -0.3766
  900TIP3    H126895   5.305   6.217   9.265  0.7578 -0.1473 -0.2306
  900TIP3    H226896   5.323   6.362   9.227  0.7539 -0.8346 -3.1244
  901TIP3   OH226897   2.748   3.848   8.502  0.3342  0.0126 -0.1819
  901TIP3    H126898   2.775   3.771   8.452  2.0129  1.3511 -1.4376
  901TIP3    H226899   2.716   3.909   8.435 -2.5522 -0.1281  0.9256
  902TIP3   OH226900   4.896   3.678   9.448  0.2778 -0.5845  0.1652
  902TIP3    H126901   4.924   3.590   9.423  1.6327 -0.6409  1.7231
  902TIP3    H226902   4.886   3.673   9.543 -0.8092  0.6464  0.1329
  903TIP3   OH226903   2.928   0.231   9.152 -0.0902 -0.4044 -0.3075
  903TIP3    H126904   2.910   0.137   9.151 -1.4551 -0.1717  0.6651
  903TIP3    H226905   2.939   0.252   9.244  0.3834  0.3711 -0.5351
  904TIP3   OH226906   0.518   5.368   6.717  0.0957 -0.0218 -0.7915
  904TIP3    H126907   0.428   5.338   6.710 -0.5753  1.2879  1.2170
  904TIP3    H226908   0.571   5.293   6.692 -1.5405 -1.0118 -1.4323
  905TIP3   OH226909   6.738   6.122   6.730  0.0966 -0.2784  0.3205
  905TIP3    H126910   6.794   6.195   6.757  0.3909 -0.4362  0.1407
  905TIP3    H226911   6.652   6.142   6.768  0.3428 -0.1717  0.8262
  906TIP3   OH226912   5.162   4.565   8.479  0.6373  0.0844  0.4578
  906TIP3    H126913   5.084   4.614   8.453  0.7233 -0.3589 -0.6757
  906TIP3    H226914   5.132   4.509   8.551  0.1304  0.5616  0.6199
  907TIP3   OH226915   2.213   0.441   7.635 -0.0248 -0.6880 -0.1990
  907TIP3    H126916   2.191   0.392   7.714  0.8552 -1.6167 -0.5099
  907TIP3    H226917   2.130   0.452   7.589 -0.4463 -0.6634  0.5493
  908TIP3   OH226918   5.492   3.387   8.836  0.6177  0.2273 -0.5478
  908TIP3    H126919   5.567   3.403   8.895  0.4052  1.2786 -0.5381
  908TIP3    H226920   5.485   3.292   8.831  1.0028  0.1154  0.6816
  909TIP3   OH226921   3.750   0.332   8.579 -0.3780 -0.3149 -0.0271
  909TIP3    H126922   3.780   0.383   8.504 -1.3502 -1.0107 -0.9248
  909TIP3    H226923   3.662   0.365   8.597 -1.1584 -1.8208 -0.8276
  910TIP3   OH226924   2.982   2.877   8.581 -0.2215 -0.3535 -0.7582
  910TIP3    H126925   2.938   2.960   8.601 -1.2824 -0.6985 -1.5577
  910TIP3    H226926   2.936   2.843   8.504  0.4801 -1.4776 -0.7085
  911TIP3   OH226927   0.990   3.944   8.017  0.2949  0.3459  0.1713
  911TIP3    H126928   1.085   3.944   8.013  0.3951  3.0215  0.7958
  911TIP3    H226929   0.970   3.978   8.104 -1.2496 -0.0296 -0.0085
  912TIP3   OH226930   3.842   1.335   7.392  0.1961 -0.6094  0.0557
  912TIP3    H126931   3.908   1.332   7.323  0.8247 -1.2177  0.6714
  912TIP3    H226932   3.792   1.255   7.381 -0.0611 -0.4341 -0.0455
  913TIP3   OH226933   0.510   0.876   8.450  0.2660 -0.1918  0.1579
  913TIP3    H126934   0.421   0.910   8.460  0.0834 -0.5347 -0.3117
  913TIP3    H226935   0.553   0.938   8.392  0.4249  0.1346  0.6187
  914TIP3   OH226936   6.463   6.702   7.867  0.1791  0.2413 -0.6064
  914TIP3    H126937   6.475   6.611   7.893 -0.4667  0.3416  0.1026
  914TIP3    H226938   6.546   6.728   7.827  1.2450  0.0586  1.3532
  915TIP3   OH226939   1.636   2.580   9.500  0.1595 -0.2480 -0.3060
  915TIP3    H126940   1.593   2.624   9.573 -1.2208  1.4647 -2.0403
  915TIP3    H226941   1.635   2.645   9.429  0.1318 -2.3092 -2.3020
  916TIP3   OH226942   4.676   6.573   6.810  0.1625 -0.1445  0.2555
  916TIP3    H126943   4.705   6.657   6.844  1.2834  0.0670 -1.1041
  916TIP3    H226944   4.610   6.596   6.744 -0.1834 -0.3861  0.5166
  917TIP3   OH226945   3.842   7.311   7.500  0.0083  0.3117  0.7226
  917TIP3    H126946   3.763   7.297   7.448  0.5906 -0.4098  0.0143
  917TIP3    H226947   3.824   7.268   7.583 -0.4162  0.3110  0.6304
  918TIP3   OH226948   0.977   5.262   7.909  0.9069  0.3390 -0.4563
  918TIP3    H126949   1.036   5.320   7.955  2.7734 -1.3796 -0.5433
  918TIP3    H226950   0.890   5.302   7.920  1.9004  2.3469  0.6199
  919TIP3   OH226951   0.381   5.911   8.273  0.4710  0.1100  0.4125
  919TIP3    H126952   0.383   5.882   8.365  1.5205 -0.1541  0.3202
  919TIP3    H226953   0.300   5.962   8.266  0.1137 -0.2964  1.3532
  920TIP3   OH226954   2.417   5.115   6.456  0.1176  0.0146  0.0869
  920TIP3    H126955   2.364   5.082   6.384  1.6857 -0.3674 -0.9477
  920TIP3    H226956   2.495   5.152   6.414  1.2975 -0.6342  1.5892
  921TIP3   OH226957   4.367   1.045   9.147  0.0064  0.4963  0.4578
  921TIP3    H126958   4.459   1.038   9.123 -0.0583  0.9921  0.0551
  921TIP3    H226959   4.336   0.954   9.148  0.2054  0.3931 -0.5993
  922TIP3   OH226960   2.647   2.225   7.143 -0.7037 -0.4579  0.5441
  922TIP3    H126961   2.591   2.180   7.079  2.8856 -0.0175 -3.2835
  922TIP3    H226962   2.608   2.312   7.151 -0.8829 -0.2750 -1.7020
  923TIP3   OH226963   4.921   3.586   7.333  0.2332  1.2686 -0.1661
  923TIP3    H126964   4.948   3.563   7.244  1.0047 -0.4738  0.4795
  923TIP3    H226965   4.833   3.549   7.342  0.3130  1.1002 -0.0770
  924TIP3   OH226966   1.985   5.675   7.799  0.6401 -0.8739  0.2299
  924TIP3    H126967   2.070   5.661   7.842  1.4762 -0.9360 -1.3672
  924TIP3    H226968   1.931   5.603   7.830  1.8194 -2.0212 -0.2708
  925TIP3   OH226969   6.857   2.940   8.293  0.0513  0.2581 -0.0912
  925TIP3    H126970   6.935   2.995   8.286 -1.4685  2.3878 -1.2873
  925TIP3    H226971   6.827   2.930   8.203 -1.2739 -0.2140  0.3819
  926TIP3   OH226972   7.336   7.036   8.752 -0.4332 -0.3056  0.3371
  926TIP3    H126973   7.254   7.052   8.706  0.4905 -0.1316 -1.3518
  926TIP3    H226974   7.324   6.951   8.794 -0.7083 -1.4469 -1.8738
  927TIP3   OH226975   1.156   0.974   8.642  0.3038 -0.2085  0.1513
  927TIP3    H126976   1.075   0.959   8.594  0.2068  1.1756 -0.1780
  927TIP3    H226977   1.138   0.943   8.731 -0.6866  0.3239  0.1439
  928TIP3   OH226978   0.514   1.099   8.840 -0.0560  0.0187  0.1938
  928TIP3    H126979   0.551   1.011   8.836 -1.9683 -0.8493  0.0951
  928TIP3    H226980   0.490   1.110   8.932  0.5005  0.5998  0.2756
  929TIP3   OH226981   4.836   7.642   9.027  0.2160 -0.1197  0.0804
  929TIP3    H126982   4.907   7.620   9.087 -1.0853 -1.8056  1.1086
  929TIP3    H226983   4.859   7.598   8.945  0.7355 -0.0069  0.1653
  930TIP3   OH226984   7.558   0.920   7.657 -0.0105  0.4564  0.1611
  930TIP3    H126985   7.521   0.834   7.638  1.4776 -0.4660  1.2388
  930TIP3    H226986   7.644   0.901   7.696  0.7683  2.4508 -0.4677
  931TIP3   OH226987   0.470   0.099   7.697  0.0364  0.0031 -0.0539
  931TIP3    H126988   0.533   0.030   7.678  3.0284  2.3843  0.5647
  931TIP3    H226989   0.396   0.053   7.738  1.2361 -2.9447 -0.9326
  932TIP3   OH226990   5.167   4.546   9.314  0.2231 -0.3073 -0.3313
  932TIP3    H126991   5.145   4.460   9.279  0.4733 -0.4801 -0.0691
  932TIP3    H226992   5.259   4.558   9.291  0.2916 -0.2739 -0.0387
  933TIP3   OH226993   5.652   1.356   9.113  0.1011  0.2974  0.2058
  933TIP3    H126994   5.654   1.263   9.134 -1.1250  0.3556  0.6183
  933TIP3    H226995   5.703   1.397   9.183 -0.5258  0.0716  0.8023
  934TIP3   OH226996   0.009   3.990   7.720  0.0282 -0.1588 -0.0905
  934TIP3    H126997  -0.003   3.992   7.625 -2.0590 -1.2719  0.0801
  934TIP3    H226998  -0.039   3.913   7.748  1.7322 -0.6190  1.7693
  935TIP3   OH226999   7.483   3.470   7.728 -0.2408 -0.1301  0.5504
  935TIP3    H127000   7.494   3.449   7.821  0.5196  1.5221  0.8760
  935TIP3    H227001   7.532   3.403   7.682  0.0978 -0.4725  1.3915
  936TIP3   OH227002   2.929   4.824   7.828 -0.0494 -0.0434  0.1437
  936TIP3    H127003   2.843   4.796   7.859  0.2559 -1.6847 -0.3936
  936TIP3    H227004   2.932   4.795   7.737  0.6590  0.9764 -0.1706
  937TIP3   OH227005   0.973   2.354   8.624  0.1914  0.6228 -0.3132
  937TIP3    H127006   0.915   2.294   8.576  0.3171 -0.6427  1.0262
  937TIP3    H227007   0.916   2.426   8.652 -0.6970 -0.4104  0.6554
  938TIP3   OH227008   5.971   6.473   8.342 -0.1266 -0.7363  0.0671
  938TIP3    H127009   5.948   6.419   8.418  1.9759 -1.6147  0.1640
  938TIP3    H227010   6.038   6.421   8.296  0.6603  1.0076 -0.8429
  939TIP3   OH227011   4.971   2.295   8.491  0.1053 -0.2693 -0.0076
  939TIP3    H127012   4.963   2.283   8.585  1.2115  0.3339  0.1836
  939TIP3    H227013   5.000   2.210   8.458 -0.9584 -0.6846  0.0867
  940TIP3   OH227014   2.777   2.925   8.868 -0.4580  0.4318  0.2085
  940TIP3    H127015   2.815   3.012   8.852 -0.3145  0.7402  2.0165
  940TIP3    H227016   2.831   2.888   8.937 -0.5854 -1.0824 -0.4687
  941TIP3   OH227017   2.073   4.054   9.299  0.2538 -0.0937 -0.4786
  941TIP3    H127018   2.114   4.099   9.225 -0.6427 -1.2412 -1.7333
  941TIP3    H227019   2.124   3.974   9.310 -0.5098 -0.6444 -0.8500
  942TIP3   OH227020   3.162   3.019   7.507 -0.3944 -0.3814  0.3552
  942TIP3    H127021   3.084   3.062   7.542  0.1895  0.5859  0.5021
  942TIP3    H227022   3.142   2.925   7.513 -1.3610 -0.1617  0.8117
  943TIP3   OH227023   2.813   3.369   7.222  0.3268 -0.1127 -0.1501
  943TIP3    H127024   2.782   3.452   7.258  0.9519 -0.7270  1.9581
  943TIP3    H227025   2.754   3.350   7.149  0.7584  2.6360 -1.3392
  944TIP3   OH227026   6.847   1.703   8.994 -0.3519  0.0292  0.3228
  944TIP3    H127027   6.757   1.669   8.995 -0.7240  0.8892 -1.0779
  944TIP3    H227028   6.870   1.714   9.086 -1.2049 -1.4080  0.7357
  945TIP3   OH227029   3.024   0.796   8.401  0.1059  0.3636 -0.4794
  945TIP3    H127030   2.984   0.726   8.452 -0.5874  1.7562  0.9912
  945TIP3    H227031   3.016   0.768   8.310 -1.0058 -1.0159  0.0124
  946TIP3   OH227032   0.749   2.933   7.948 -0.4753 -0.2680  0.0197
  946TIP3    H127033   0.732   3.024   7.924 -0.1675 -0.7052 -2.0784
  946TIP3    H227034   0.795   2.938   8.032 -1.8160  1.3981  0.7199
  947TIP3   OH227035   3.414   1.215   7.308 -0.3084 -0.5039  0.3444
  947TIP3    H127036   3.356   1.177   7.242 -0.4286 -0.2213  0.2825
  947TIP3    H227037   3.497   1.170   7.296 -0.1538 -0.0466 -0.3965
  948TIP3   OH227038   0.180   0.386   7.546 -0.0682 -0.8249  0.3185
  948TIP3    H127039   0.264   0.429   7.533  0.1541 -1.0768  0.8703
  948TIP3    H227040   0.200   0.292   7.545 -0.0862 -0.8783  1.9349
  949TIP3   OH227041   7.411   0.327   8.782 -0.1656  0.1983 -0.7189
  949TIP3    H127042   7.364   0.376   8.713 -0.0241 -0.7556 -1.5104
  949TIP3    H227043   7.417   0.238   8.748 -3.4437 -1.3225  2.1413
  950TIP3   OH227044   4.401   3.336   7.350  0.2064  0.0370  0.2441
  950TIP3    H127045   4.336   3.315   7.417 -0.0130 -1.6662 -0.4422
  950TIP3    H227046   4.383   3.274   7.279  1.8961  0.2363 -0.4123
  951TIP3   OH227047   3.991   6.416   6.880 -0.7293 -0.3774 -0.3604
  951TIP3    H127048   4.051   6.371   6.820 -0.5650 -1.1503  0.3719
  951TIP3    H227049   3.918   6.355   6.891 -0.5889 -0.3968  0.5053
  952TIP3   OH227050   5.236   6.371   8.585  0.4910  0.4120  0.6324
  952TIP3    H127051   5.297   6.313   8.538 -0.9504  0.4725 -1.4424
  952TIP3    H227052   5.293   6.436   8.626  1.9036 -0.1848 -0.2649
  953TIP3   OH227053   4.864   1.500   8.313  0.7485 -0.4105  0.1397
  953TIP3    H127054   4.896   1.577   8.266  1.1521 -0.3045  0.5770
  953TIP3    H227055   4.874   1.428   8.251 -0.1540 -0.0246 -0.4733
  954TIP3   OH227056   1.105   6.780   8.607  0.7615 -0.2999 -0.1526
  954TIP3    H127057   1.142   6.692   8.608  2.2084  0.2311  2.7755
  954TIP3    H227058   1.175   6.837   8.637 -1.0124  1.4441  0.9720
  955TIP3   OH227059   2.202   3.536   7.847  0.8024 -0.3512  0.2254
  955TIP3    H127060   2.181   3.444   7.828  0.5030 -0.6815  1.9752
  955TIP3    H227061   2.266   3.532   7.919  1.1959  0.8042 -0.0424
  956TIP3   OH227062   5.120   1.634   7.430  0.5027  0.3203  0.1294
  956TIP3    H127063   5.064   1.677   7.495 -0.2515 -0.1717 -0.1688
  956TIP3    H227064   5.187   1.698   7.410  0.7269  0.4974  1.3603
  957TIP3   OH227065   2.587   2.300   7.767  0.0839  0.2475 -0.9179
  957TIP3    H127066   2.647   2.268   7.834  1.4770  3.5180 -0.4165
  957TIP3    H227067   2.644   2.318   7.691 -0.6995  0.9527 -1.3489
  958TIP3   OH227068   5.036   6.021   7.737  0.0922  0.0972  0.2241
  958TIP3    H127069   4.947   6.051   7.753 -0.4927 -0.8564 -1.1079
  958TIP3    H227070   5.091   6.098   7.755 -0.9540  0.6050  1.3592
  959TIP3   OH227071   2.685   5.149   7.957  0.3162 -0.2695 -0.2147
  959TIP3    H127072   2.773   5.115   7.974 -0.4898 -1.6874  1.4270
  959TIP3    H227073   2.628   5.100   8.017 -1.4073  1.6310 -0.1744
  960TIP3   OH227074   5.049   3.256   7.638 -0.2367 -0.7591 -0.3036
  960TIP3    H127075   5.046   3.250   7.542  0.2576 -0.6513 -0.3291
  960TIP3    H227076   5.113   3.190   7.664  0.8180  0.2879 -0.1670
  961TIP3   OH227077   6.217   2.267   8.739  0.1278 -0.3383  0.1774
  961TIP3    H127078   6.202   2.323   8.815 -0.3741  2.6978 -1.9982
  961TIP3    H227079   6.187   2.181   8.767 -2.6955  1.2200  2.5324
  962TIP3   OH227080   0.467   5.287   8.107  0.5830  0.0494 -0.4032
  962TIP3    H127081   0.386   5.267   8.060 -0.8498  2.5129  0.7767
  962TIP3    H227082   0.443   5.282   8.200  2.0052  0.0620 -0.0084
  963TIP3   OH227083   3.857   5.550   6.771  0.2607  0.1799  0.3937
  963TIP3    H127084   3.801   5.476   6.794 -0.5045 -0.3864 -2.8057
  963TIP3    H227085   3.820   5.624   6.820 -2.6802 -0.4033 -0.7754
  964TIP3   OH227086   0.883   6.577   7.039 -0.1329  0.4237  0.0351
  964TIP3    H127087   0.812   6.519   7.013 -0.1850 -0.6737  2.3762
  964TIP3    H227088   0.840   6.661   7.058 -0.8582 -0.2268  1.4200
  965TIP3   OH227089   5.782   6.523   7.316 -0.0447 -0.3752  0.5760
  965TIP3    H127090   5.735   6.441   7.329  0.1492 -0.2882  2.0232
  965TIP3    H227091   5.725   6.590   7.352  0.1834  0.0171  0.2175
  966TIP3   OH227092   7.504   3.073   8.554 -0.1851  0.0934 -0.8077
  966TIP3    H127093   7.514   3.114   8.468  0.0615  0.4707 -0.5966
  966TIP3    H227094   7.411   3.049   8.558 -0.7938  2.3238 -0.1736
  967TIP3   OH227095   6.250   4.717   7.950 -0.0072 -0.2916  0.3746
  967TIP3    H127096   6.268   4.712   7.856 -0.1792  1.1872  0.2389
  967TIP3    H227097   6.243   4.811   7.968  1.0085 -0.5009  2.0580
  968TIP3   OH227098   5.728   0.357   6.967 -0.0976  0.5617  0.6178
  968TIP3    H127099   5.686   0.334   7.050 -1.1444  1.4163  0.3526
  968TIP3    H227100   5.689   0.298   6.903  1.6882 -1.0313  0.8971
  969TIP3   OH227101   0.951   2.475   8.342  0.9180 -0.1280  0.1123
  969TIP3    H127102   0.885   2.408   8.357  1.6362 -0.6673  0.9392
  969TIP3    H227103   1.022   2.429   8.297  1.4398  0.0514  0.7381
  970TIP3   OH227104   4.532   3.740   7.049 -0.6016  0.5846 -0.0035
  970TIP3    H127105   4.537   3.828   7.085 -0.4736  0.4057  0.4252
  970TIP3    H227106   4.623   3.710   7.047 -0.7849 -0.2017  1.5487
  971TIP3   OH227107   6.919   5.959   7.672  0.2774 -0.1380 -0.0249
  971TIP3    H127108   6.831   5.923   7.677 -0.1603  0.1727 -3.3335
  971TIP3    H227109   6.945   5.946   7.581  3.1272  1.0389  0.5160
  972TIP3   OH227110   1.705   5.128   8.353 -0.4939  0.3848 -0.5849
  972TIP3    H127111   1.649   5.052   8.370  1.0806 -0.6476  0.2269
  972TIP3    H227112   1.672   5.196   8.412 -0.0112 -0.6668  0.9383
  973TIP3   OH227113   0.705   2.295   8.920 -0.0786 -0.3202  0.5045
  973TIP3    H127114   0.799   2.309   8.927 -0.0741  0.1190 -0.3273
  973TIP3    H227115   0.672   2.306   9.010  0.5213  0.5987  0.6215
  974TIP3   OH227116   2.540   0.816   9.257 -0.4694 -0.1005  0.4878
  974TIP3    H127117   2.562   0.878   9.188 -1.0275 -0.9686 -0.4872
  974TIP3    H227118   2.623   0.776   9.281 -0.1288  0.8768  1.0078
  975TIP3   OH227119   7.216   5.189   8.478  0.2571 -0.4938 -0.0425
  975TIP3    H127120   7.140   5.242   8.454 -1.3021 -1.9587  1.3616
  975TIP3    H227121   7.243   5.146   8.397 -1.0451 -0.6734 -0.3927
  976TIP3   OH227122   4.748   0.445   8.428  0.1980 -0.1901  0.1999
  976TIP3    H127123   4.784   0.412   8.346 -0.2647 -0.4567  0.1014
  976TIP3    H227124   4.820   0.496   8.467  0.5075 -0.2881 -0.2351
  977TIP3   OH227125   0.746   2.252   8.515 -0.0351 -0.2515  0.2586
  977TIP3    H127126   0.663   2.299   8.509 -0.3831 -0.9926 -1.3507
  977TIP3    H227127   0.748   2.198   8.436  2.3785  0.3731 -0.1846
  978TIP3   OH227128   2.366   5.896   7.812 -0.4588 -0.6313  0.1058
  978TIP3    H127129   2.389   5.841   7.737  0.1366 -1.6445  0.9891
  978TIP3    H227130   2.449   5.935   7.840 -0.8682  0.7013 -0.4721
  979TIP3   OH227131   2.293   3.799   6.687 -0.2769  0.2487 -0.1046
  979TIP3    H127132   2.279   3.865   6.755  0.1294 -1.2163  1.4735
  979TIP3    H227133   2.214   3.744   6.690 -1.5586  1.7107 -2.7850
  980TIP3   OH227134   4.788   1.871   9.219  0.2606  0.1769  0.3029
  980TIP3    H127135   4.710   1.868   9.164  0.7754  1.7337 -0.5492
  980TIP3    H227136   4.764   1.819   9.296 -1.0733 -0.6091 -0.5950
  981TIP3   OH227137   5.082   1.205   9.179 -0.4472 -0.5779  0.2316
  981TIP3    H127138   5.147   1.162   9.124 -1.0407  0.2418 -1.1490
  981TIP3    H227139   5.043   1.133   9.230  2.0211 -0.9880  1.6868
  982TIP3   OH227140   4.349   3.897   6.812 -0.3135  0.1878 -0.1109
  982TIP3    H127141   4.279   3.853   6.861 -0.4588  0.3404 -0.1776
  982TIP3    H227142   4.374   3.836   6.743  0.4892 -0.3935  0.6698
  983TIP3   OH227143   5.220   2.248   9.268 -0.5027  0.1423 -0.0526
  983TIP3    H127144   5.306   2.206   9.261  0.0852  1.3472 -0.1842
  983TIP3    H227145   5.175   2.198   9.337  0.1246 -0.7740 -0.2893
  984TIP3   OH227146   6.073   5.926   8.114  0.0909  0.2885  0.4081
  984TIP3    H127147   6.059   5.843   8.160  0.6740  0.3070  0.6364
  984TIP3    H227148   5.985   5.956   8.091 -0.1054 -0.5445  0.0439
  985TIP3   OH227149   3.426   4.491   7.167 -0.9359 -0.0952  0.3760
  985TIP3    H127150   3.465   4.578   7.177  1.0448 -1.0093  1.2494
  985TIP3    H227151   3.501   4.434   7.149 -2.3494 -1.4084 -1.8287
  986TIP3   OH227152   0.872   3.629   8.027  0.3168  0.6849  0.5109
  986TIP3    H127153   0.946   3.689   8.038  0.8320  0.0374  0.6664
  986TIP3    H227154   0.911   3.541   8.036 -0.5910  0.3516  1.2909
  987TIP3   OH227155   4.185   0.516   9.118  0.2985 -0.5227  0.5155
  987TIP3    H127156   4.188   0.470   9.202  0.1663 -0.9877  0.2682
  987TIP3    H227157   4.106   0.482   9.075  0.1250  0.0328  0.3852
  988TIP3   OH227158   2.260   2.612   7.302 -0.1948 -0.1493 -0.0055
  988TIP3    H127159   2.225   2.560   7.229  1.0592 -0.8514 -0.1367
  988TIP3    H227160   2.354   2.617   7.285  0.1678 -0.5238  1.6871
  989TIP3   OH227161   2.334   3.507   7.095  0.3757  0.0998  0.1192
  989TIP3    H127162   2.242   3.485   7.082  0.3670  0.2473 -0.0764
  989TIP3    H227163   2.341   3.526   7.189 -0.1892  1.8253 -0.1367
  990TIP3   OH227164   2.328   1.692   6.677 -0.6181 -0.6053 -0.6359
  990TIP3    H127165   2.346   1.766   6.735 -1.5249  0.7804 -2.0519
  990TIP3    H227166   2.411   1.678   6.631  0.0765 -1.6467  0.8482
  991TIP3   OH227167   2.811   5.773   9.389 -0.0961 -0.2086 -0.1894
  991TIP3    H127168   2.720   5.757   9.364  0.1671 -0.7382 -0.8246
  991TIP3    H227169   2.849   5.686   9.400  0.0757  0.0056  1.0919
  992TIP3   OH227170   0.121   2.094   8.744  0.4140 -0.1558 -0.0160
  992TIP3    H127171   0.119   2.059   8.833 -0.5641  1.7793  0.7857
  992TIP3    H227172   0.090   2.185   8.753 -1.6343 -0.4819 -2.5780
  993TIP3   OH227173   0.136   3.796   9.331  0.0943  0.0280 -0.1763
  993TIP3    H127174   0.118   3.875   9.280 -0.8029 -0.3957 -0.5394
  993TIP3    H227175   0.053   3.748   9.331  0.6628 -0.9911 -0.0992
  994TIP3   OH227176   2.226   5.540   6.584  0.3207 -0.0823 -0.4359
  994TIP3    H127177   2.240   5.495   6.500 -1.6353  0.1436 -0.9465
  994TIP3    H227178   2.136   5.516   6.608  0.6038  0.4484  1.2402
  995TIP3   OH227179   5.105   1.469   9.274 -0.2635 -0.1230  0.1161
  995TIP3    H127180   5.120   1.380   9.244 -0.6903 -0.0808 -0.2256
  995TIP3    H227181   5.043   1.459   9.347  0.0182 -0.1434  0.3521
  996TIP3   OH227182   6.681   1.486   9.391  0.4593 -0.1698 -0.1544
  996TIP3    H127183   6.775   1.472   9.378  0.8458  0.7707  1.3311
  996TIP3    H227184   6.654   1.414   9.447  0.2335 -0.5832 -0.7920
  997TIP3   OH227185   2.742   0.083   8.376  0.1371  0.3375  0.5855
  997TIP3    H127186   2.804   0.104   8.446  0.7331 -0.0072  0.1596
  997TIP3    H227187   2.724   0.168   8.334  1.2594  0.2720 -0.0636
  998TIP3   OH227188   4.218   3.409   9.370  0.2691 -0.4504  0.1326
  998TIP3    H127189   4.297   3.458   9.348  0.4952  0.5579  2.7588
  998TIP3    H227190   4.247   3.346   9.436 -0.5072 -2.5332 -1.3994
  999TIP3   OH227191   3.149   2.644   7.060 -0.1100  0.0491 -0.2948
  999TIP3    H127192   3.194   2.724   7.035  3.0236 -0.7920  2.0115
  999TIP3    H227193   3.181   2.578   6.998 -0.6977  0.0865 -0.6380
 1000TIP3   OH227194   4.360   5.734   7.470 -0.6100  0.1506 -0.4652
 1000TIP3    H127195   4.314   5.664   7.422  0.2376 -1.3269  0.7777
 1000TIP3    H227196   4.334   5.722   7.561 -2.0930  2.8347 -0.4651
 1001TIP3   OH227197   3.524   7.241   8.172  0.0461  0.2225 -0.3075
 1001TIP3    H127198   3.565   7.230   8.087 -1.4494  0.6582 -1.1225
 1001TIP3    H227199   3.470   7.162   8.184 -0.3303  0.5000 -0.1209
 1002TIP3   OH227200   2.285   1.954   7.819  0.3687 -0.6866 -0.0470
 1002TIP3    H127201   2.286   2.019   7.749  0.2733 -0.5872  0.0429
 1002TIP3    H227202   2.372   1.959   7.858  0.8030 -1.5362 -0.8792
 1003TIP3   OH227203   3.836   3.111   8.284  0.8848 -0.2459 -0.3975
 1003TIP3    H127204   3.754   3.087   8.328  0.1169  0.6888 -1.2542
 1003TIP3    H227205   3.812   3.186   8.230  2.4813  0.4707 -0.1488
 1004TIP3   OH227206   6.248   3.386   8.963 -0.1995 -0.1179  0.1184
 1004TIP3    H127207   6.228   3.317   8.899  2.0297  0.0328 -0.8112
 1004TIP3    H227208   6.209   3.354   9.045 -1.5359 -1.1878 -0.8826
 1005TIP3   OH227209   6.413   6.874   8.102 -0.0634  0.1175  0.3000
 1005TIP3    H127210   6.408   6.844   8.011  1.5351 -0.2582  0.3101
 1005TIP3    H227211   6.330   6.847   8.141 -0.2808 -0.7707 -0.7390
 1006TIP3   OH227212   3.615   6.721   7.696  0.5541  0.0448  0.2205
 1006TIP3    H127213   3.663   6.715   7.613 -0.8208 -0.8980 -0.5351
 1006TIP3    H227214   3.610   6.631   7.728 -0.7845  0.1103  0.2403
 1007TIP3   OH227215   2.853   7.526   8.816  0.4516  0.2044 -0.7564
 1007TIP3    H127216   2.808   7.489   8.740 -1.7631  1.7174 -0.2857
 1007TIP3    H227217   2.811   7.485   8.891  0.8314  0.6251 -0.3114
 1008TIP3   OH227218   4.769   1.617   7.326 -0.0464  0.5279  0.3148
 1008TIP3    H127219   4.858   1.594   7.300  0.0782  0.3786  0.8746
 1008TIP3    H227220   4.714   1.553   7.281  0.1731  0.2452  0.4470
 1009TIP3   OH227221   2.841   4.088   6.835  0.4492  0.1490 -0.0107
 1009TIP3    H127222   2.758   4.040   6.824 -1.0177  2.3419  0.7778
 1009TIP3    H227223   2.891   4.068   6.756 -0.4236 -1.9725 -0.0844
 1010TIP3   OH227224   2.337   2.309   6.936 -0.2589 -0.2619 -0.1611
 1010TIP3    H127225   2.386   2.227   6.929  0.6730  0.2105  0.6155
 1010TIP3    H227226   2.404   2.377   6.935 -0.8883  0.4011  0.9593
 1011TIP3   OH227227   6.675   6.850   8.375 -0.1674  0.3691 -0.4324
 1011TIP3    H127228   6.655   6.904   8.299  1.7750  0.0504 -1.2221
 1011TIP3    H227229   6.767   6.867   8.394 -0.3070 -0.4172  1.1526
 1012TIP3   OH227230   3.858   1.942   7.718  0.2386 -0.2651 -0.3040
 1012TIP3    H127231   3.877   1.931   7.625 -0.0096  2.7269 -0.8217
 1012TIP3    H227232   3.944   1.955   7.759  0.2193  0.3989 -0.4667
 1013TIP3   OH227233   0.417   0.286   7.896  0.0038 -0.1906 -0.3919
 1013TIP3    H127234   0.457   0.222   7.837 -1.7528  0.4206 -2.3650
 1013TIP3    H227235   0.324   0.286   7.873 -0.4912  1.2475  1.3111
 1014TIP3   OH227236   4.575   7.092   8.299 -0.3502 -0.3374 -0.1308
 1014TIP3    H127237   4.638   7.141   8.352  1.2840 -2.8733  0.4978
 1014TIP3    H227238   4.624   7.068   8.221 -1.9516  1.1953 -1.6992
 1015TIP3   OH227239   1.477   4.494   9.532 -0.0957  0.1611 -0.1899
 1015TIP3    H127240   1.396   4.465   9.573  0.0492  2.5174  1.9795
 1015TIP3    H227241   1.533   4.417   9.532 -1.4835 -0.8905  0.4648
 1016TIP3   OH227242   6.346   0.351   7.580 -0.2498  0.6174  0.8159
 1016TIP3    H127243   6.360   0.331   7.488 -0.2306 -0.6130  1.0775
 1016TIP3    H227244   6.410   0.420   7.599  0.7379 -0.1163  0.2572
 1017TIP3   OH227245   2.087   4.151   7.044  0.2760  0.2085 -0.2324
 1017TIP3    H127246   2.116   4.240   7.024 -0.0895  1.0406  2.4587
 1017TIP3    H227247   2.124   4.133   7.131  0.1979 -2.2245 -0.6372
 1018TIP3   OH227248   5.206   0.080   9.153  0.2858  0.0374 -0.3386
 1018TIP3    H127249   5.217   0.159   9.205 -0.2162 -0.4481  0.5112
 1018TIP3    H227250   5.294   0.040   9.152 -0.1772 -1.3011  2.3662
 1019TIP3   OH227251   2.335   7.316   8.913  0.1912  0.0729 -0.1612
 1019TIP3    H127252   2.315   7.287   8.824 -0.8226  2.1922 -0.6871
 1019TIP3    H227253   2.288   7.399   8.923  0.4141 -0.0155  2.3119
 1020TIP3   OH227254   2.491   3.958   7.063 -0.3346 -0.0956  0.0346
 1020TIP3    H127255   2.473   3.889   6.998  0.5796 -0.2775 -0.0361
 1020TIP3    H227256   2.556   3.919   7.121 -1.5033 -0.1125  1.3790
 1021TIP3   OH227257   5.689   5.575   8.120 -0.2609  0.1266  0.1788
 1021TIP3    H127258   5.680   5.611   8.208 -0.7625  0.5364 -0.0365
 1021TIP3    H227259   5.606   5.595   8.076 -0.1452 -0.3728 -0.2791
 1022TIP3   OH227260   7.466   1.866   8.988  0.0805 -0.3640 -0.1238
 1022TIP3    H127261   7.441   1.784   9.031  1.0065  0.4130  2.0082
 1022TIP3    H227262   7.535   1.841   8.928  0.3712 -1.1602  0.5239
 1023TIP3   OH227263   5.957   6.493   8.841  0.4769  0.1072  0.3549
 1023TIP3    H127264   5.936   6.568   8.898  0.3636  0.0927  0.3328
 1023TIP3    H227265   5.897   6.424   8.871  1.0426 -0.1891  0.8299
 1024TIP3   OH227266   2.641   5.744   7.858 -0.2242 -0.2425  0.2269
 1024TIP3    H127267   2.737   5.744   7.852 -0.2698 -0.6061 -0.6818
 1024TIP3    H227268   2.623   5.775   7.947  0.7325 -0.0909  0.3851
 1025TIP3   OH227269   0.786   6.114   7.709  0.0280 -0.4998 -0.0781
 1025TIP3    H127270   0.875   6.102   7.676  0.8968 -4.2700  2.9034
 1025TIP3    H227271   0.794   6.186   7.772  1.1260 -1.1934  0.6039
 1026TIP3   OH227272   4.314   2.137   7.532 -0.5992  0.2347  0.6959
 1026TIP3    H127273   4.334   2.044   7.522  0.0737  0.5344 -1.4195
 1026TIP3    H227274   4.232   2.149   7.485 -0.4657  0.7700  0.5970
 1027TIP3   OH227275   2.707   5.529   7.597  0.0978  0.4067 -0.4625
 1027TIP3    H127276   2.757   5.604   7.629  0.0123  1.0133 -1.6991
 1027TIP3    H227277   2.707   5.538   7.502 -1.2950 -0.2635 -0.5615
 1028TIP3   OH227278   1.326   4.264   6.993 -0.3873 -0.2808  0.0656
 1028TIP3    H127279   1.272   4.193   6.959 -0.9241  0.0556  0.2034
 1028TIP3    H227280   1.415   4.228   6.995 -0.5918 -0.8142 -0.2323
 1029TIP3   OH227281   4.569   5.909   7.397  0.3251  0.2048 -0.3525
 1029TIP3    H127282   4.498   5.850   7.424 -2.0680  2.7824 -0.6113
 1029TIP3    H227283   4.619   5.924   7.477 -0.6621 -0.0702  0.3319
 1030TIP3   OH227284   3.119   6.271   7.466  0.0239  0.5182  0.1633
 1030TIP3    H127285   3.174   6.317   7.530  1.1982 -1.2358  0.4712
 1030TIP3    H227286   3.172   6.197   7.436 -1.3116  0.0805 -1.2762
 1031TIP3   OH227287   3.523   6.793   9.349 -0.4660  0.6884 -0.8798
 1031TIP3    H127288   3.570   6.806   9.432 -2.0139 -1.2572  0.3933
 1031TIP3    H227289   3.465   6.868   9.343 -0.8894  0.4761  0.2280
 1032TIP3   OH227290   5.823   5.323   8.087 -0.3206 -0.2982  0.1548
 1032TIP3    H127291   5.782   5.284   8.164 -2.1338 -0.5320 -0.8706
 1032TIP3    H227292   5.782   5.410   8.080  0.8736  0.2879  0.2439
 1033TIP3   OH227293   7.549   4.092   8.778  0.0857  0.0233  0.0622
 1033TIP3    H127294   7.546   4.112   8.871  1.2326  1.1537 -0.1133
 1033TIP3    H227295   7.642   4.078   8.759 -0.1158 -0.0918 -0.9339
 1034TIP3   OH227296   0.966   5.060   8.745 -0.2507  0.0554  0.1531
 1034TIP3    H127297   1.041   5.007   8.716 -0.1090 -0.9849  2.2479
 1034TIP3    H227298   0.893   5.027   8.694  0.3311 -0.3889 -0.4180
 1035TIP3   OH227299   3.785   6.214   7.748  0.7437  0.1009  0.0683
 1035TIP3    H127300   3.810   6.132   7.706 -1.8025  0.9329 -3.5075
 1035TIP3    H227301   3.723   6.188   7.816  1.2473 -1.0450  0.1027
 1036TIP3   OH227302   7.445   5.465   9.120  0.0060  0.2025  0.1598
 1036TIP3    H127303   7.366   5.418   9.148  0.5845 -1.7902 -1.3974
 1036TIP3    H227304   7.413   5.532   9.060 -0.5811  0.1718  0.4287
 1037TIP3   OH227305   5.132   5.795   7.911 -0.2629 -0.7610 -0.2249
 1037TIP3    H127306   5.158   5.837   7.829 -0.6358 -1.4893 -0.7260
 1037TIP3    H227307   5.105   5.867   7.967  1.7638 -0.0557 -0.0603
 1038TIP3   OH227308   2.829   4.403   9.297 -0.3887 -0.3934  0.3983
 1038TIP3    H127309   2.762   4.469   9.281  2.4993  2.3397 -1.7041
 1038TIP3    H227310   2.862   4.423   9.385  1.6909  2.4305 -0.8672
 1039TIP3   OH227311   4.038   4.936   6.598  0.3897 -0.6953 -0.4929
 1039TIP3    H127312   4.036   4.933   6.503 -1.7928 -2.8387 -0.4864
 1039TIP3    H227313   3.961   4.988   6.622  1.1020  0.1011  0.1231
 1040TIP3   OH227314   2.101   1.253   8.031 -0.1176  0.0972  0.3328
 1040TIP3    H127315   2.078   1.181   8.089  0.1424 -0.6318 -0.4539
 1040TIP3    H227316   2.054   1.329   8.067 -2.9081 -1.0754 -0.5604
 1041TIP3   OH227317   0.757   4.921   8.968  0.0951  0.5602  0.0627
 1041TIP3    H127318   0.752   4.836   8.925  1.1635  1.3757 -1.8212
 1041TIP3    H227319   0.816   4.907   9.042 -1.8865 -0.9136  1.4597
 1042TIP3   OH227320   6.579   5.113   8.635 -0.4307  0.3758  0.3596
 1042TIP3    H127321   6.561   5.050   8.565  2.8283 -2.3941  1.6982
 1042TIP3    H227322   6.671   5.136   8.623  0.4003 -0.5397  3.7996
 1043TIP3   OH227323   2.311   6.884   8.448 -0.0234 -0.1444 -0.0326
 1043TIP3    H127324   2.404   6.901   8.433 -0.2171  1.2756  0.2622
 1043TIP3    H227325   2.268   6.912   8.367 -0.3161  0.4722  0.3268
 1044TIP3   OH227326   6.520   7.629   9.934 -0.0323 -0.4526 -0.5952
 1044TIP3    H127327   6.516   7.537   9.910  1.0189 -1.2875  2.0678
 1044TIP3    H227328   6.601   7.661   9.893 -0.3724 -0.6766 -1.4761
 1045TIP3   OH227329   5.669   6.574   9.045 -0.2904  0.0151 -0.2728
 1045TIP3    H127330   5.685   6.638   8.975  0.5654 -0.4433 -0.5200
 1045TIP3    H227331   5.599   6.519   9.011 -0.0057 -0.0918 -0.7044
 1046TIP3   OH227332   7.347   5.869   8.524  0.2951  0.1483  0.1975
 1046TIP3    H127333   7.320   5.959   8.506 -0.9543 -0.1376  0.5869
 1046TIP3    H227334   7.373   5.835   8.439 -1.0625  0.2817 -0.2852
 1047TIP3   OH227335   0.141   4.914   9.083 -0.0008 -0.0164  0.1864
 1047TIP3    H127336   0.054   4.894   9.049  0.1375  0.4291 -0.4331
 1047TIP3    H227337   0.127   4.992   9.138  0.1122  0.4199 -0.4026
 1048TIP3   OH227338   3.553   0.805   9.053 -0.2216 -0.2091 -0.0213
 1048TIP3    H127339   3.483   0.868   9.071 -0.0934  0.5850 -2.0167
 1048TIP3    H227340   3.633   0.851   9.077 -0.1841  0.1095 -0.7320
 1049TIP3   OH227341   3.156   4.994   6.329 -0.1789  0.3968 -0.1275
 1049TIP3    H127342   3.102   4.932   6.378  0.0698  0.5119  0.2966
 1049TIP3    H227343   3.098   5.067   6.309 -0.3705  0.1985 -0.2926
 1050TIP3   OH227344   6.678   1.007   7.210 -0.7036  0.6802 -0.2094
 1050TIP3    H127345   6.587   1.037   7.203 -0.0661  2.7232 -0.5882
 1050TIP3    H227346   6.701   0.981   7.121 -0.6844  0.9485 -0.2850
 1051TIP3   OH227347   6.609   1.597   7.793  0.2255  0.3124  0.1912
 1051TIP3    H127348   6.655   1.665   7.743  0.2713  0.0290 -0.1557
 1051TIP3    H227349   6.676   1.557   7.848  0.0051  1.2476  1.1936
 1052TIP3   OH227350   0.453   0.874   7.681 -0.0322 -0.0812 -1.0143
 1052TIP3    H127351   0.534   0.852   7.635  0.0015 -0.0649 -0.9617
 1052TIP3    H227352   0.431   0.795   7.730 -0.6613 -0.4963 -1.9226
 1053TIP3   OH227353   1.974   3.718   8.098 -0.3965 -0.1365  0.2081
 1053TIP3    H127354   2.033   3.789   8.073  0.4715 -1.0976 -0.6056
 1053TIP3    H227355   1.953   3.675   8.015 -0.2893 -1.2831  0.7532
 1054TIP3   OH227356   6.490   5.333   8.002 -0.3012 -0.1131 -0.3682
 1054TIP3    H127357   6.431   5.408   8.015  1.9542  1.3952  2.4076
 1054TIP3    H227358   6.456   5.265   8.061  0.1135  0.4061  0.4990
 1055TIP3   OH227359   2.685   3.324   7.740 -0.2867 -0.2807  0.3222
 1055TIP3    H127360   2.736   3.297   7.664  0.7115  0.8774  0.5494
 1055TIP3    H227361   2.599   3.347   7.704 -1.1348 -3.3930  0.0938
 1056TIP3   OH227362   2.829   6.900   8.229 -0.3133  0.0100  0.0569
 1056TIP3    H127363   2.848   6.978   8.280 -0.7363 -0.4083  0.8826
 1056TIP3    H227364   2.906   6.888   8.172  1.3685 -0.9254  2.3825
 1057TIP3   OH227365   4.952   5.782   7.103  0.2129 -0.4798 -0.0641
 1057TIP3    H127366   4.960   5.876   7.088 -2.1996 -0.5157 -2.1119
 1057TIP3    H227367   4.890   5.752   7.037 -0.3972 -3.2439  1.6052
 1058TIP3   OH227368   2.187   2.359   7.171  0.1529  0.1126 -0.2642
 1058TIP3    H127369   2.224   2.345   7.083 -1.1506  0.1639 -0.8437
 1058TIP3    H227370   2.142   2.277   7.191 -0.1875  0.3673  0.0297
 1059TIP3   OH227371   0.938   6.906   7.872  0.7209 -0.5152 -0.2818
 1059TIP3    H127372   1.024   6.895   7.832  0.6998  0.1462 -0.5225
 1059TIP3    H227373   0.887   6.951   7.805 -0.0879 -1.6840 -0.4885
 1060TIP3   OH227374   1.365   1.812   9.470 -0.1120  0.5747 -0.2118
 1060TIP3    H127375   1.437   1.854   9.516  0.8066  0.8749 -1.8840
 1060TIP3    H227376   1.346   1.734   9.523  2.0870 -0.0401 -0.2080
 1061TIP3   OH227377   4.170   6.003   7.544  0.2811  0.1037  0.5533
 1061TIP3    H127378   4.240   5.988   7.608  1.2848  2.2386  0.0747
 1061TIP3    H227379   4.178   6.097   7.523 -0.7554 -0.2775 -1.8151
 1062TIP3   OH227380   7.257   4.747   8.829 -0.4462  0.4841 -0.1395
 1062TIP3    H127381   7.263   4.657   8.796 -0.4087  0.6895 -0.7058
 1062TIP3    H227382   7.299   4.800   8.761 -0.7016  0.9579  0.0677
 1063TIP3   OH227383   0.329   6.549   7.494  0.2935  0.5531 -0.5235
 1063TIP3    H127384   0.289   6.547   7.581  0.4501 -1.8497 -0.4379
 1063TIP3    H227385   0.403   6.610   7.502 -1.4093  2.6745  0.1470
 1064TIP3   OH227386   6.538   4.820   8.985  0.0321  0.2679 -0.3980
 1064TIP3    H127387   6.568   4.893   9.040 -0.1973  0.5785 -0.6764
 1064TIP3    H227388   6.461   4.855   8.940 -1.0614 -0.6453  0.6640
 1065TIP3   OH227389   0.954   7.631   7.699  0.2089 -0.3805  0.3080
 1065TIP3    H127390   1.009   7.709   7.691  0.5543 -0.6424  0.1007
 1065TIP3    H227391   0.868   7.659   7.667 -0.1843  0.4339  1.9481
 1066TIP3   OH227392   3.145   2.217   7.130  0.4403  0.2067 -0.3034
 1066TIP3    H127393   3.212   2.149   7.119 -0.0436 -0.0552 -2.0097
 1066TIP3    H227394   3.073   2.173   7.176 -0.0079 -0.5998 -1.6872
 1067TIP3   OH227395   2.374   6.679   8.890 -0.4516 -0.3899  0.3397
 1067TIP3    H127396   2.406   6.736   8.820 -0.7380  0.2043  0.6843
 1067TIP3    H227397   2.361   6.594   8.848  1.9258 -0.7768  0.2554
 1068TIP3   OH227398   0.886   6.897   9.228  0.4788  0.6390  0.0763
 1068TIP3    H127399   0.872   6.945   9.309 -1.0952 -1.0641  0.8730
 1068TIP3    H227400   0.980   6.880   9.225  0.4267 -0.1711  2.0856
 1069TIP3   OH227401   4.127   7.207   8.500  0.2949 -0.0939 -0.1347
 1069TIP3    H127402   4.160   7.281   8.449 -0.7304  0.6368  0.2221
 1069TIP3    H227403   4.137   7.234   8.591 -1.7118  0.3962 -0.0117
 1070TIP3   OH227404   6.467   5.687   7.893  0.4039 -0.0495 -0.2127
 1070TIP3    H127405   6.402   5.636   7.940  1.0846 -0.1139  0.6778
 1070TIP3    H227406   6.437   5.778   7.899  0.5610 -0.0400  0.4858
 1071TIP3   OH227407   6.953   6.319   6.791 -0.2873  0.2304  0.2671
 1071TIP3    H127408   7.017   6.364   6.735  0.5102 -2.6669 -1.3681
 1071TIP3    H227409   6.995   6.314   6.876  1.1145 -0.4233 -0.4314
 1072TIP3   OH227410   1.127   7.654   8.811  0.1530  0.2470  0.1363
 1072TIP3    H127411   1.211   7.608   8.816  0.2418 -0.1668 -3.0436
 1072TIP3    H227412   1.145   7.732   8.759 -1.2102  0.8030  0.4562
 1073TIP3   OH227413   4.340   4.213   8.241  0.4208  0.2933 -0.1938
 1073TIP3    H127414   4.363   4.257   8.323  1.8258 -2.1758  0.8460
 1073TIP3    H227415   4.411   4.236   8.181  2.1301 -1.7822  0.8880
 1074TIP3   OH227416   7.083   5.820   8.249  0.5823  0.3941 -0.4773
 1074TIP3    H127417   7.178   5.814   8.256  0.4560 -0.0647  1.2209
 1074TIP3    H227418   7.051   5.738   8.287 -0.5481  1.6677  1.4936
 1075TIP3   OH227419   4.850   3.939   8.085  0.0971 -0.1484 -0.4773
 1075TIP3    H127420   4.826   3.992   8.161 -2.6137 -1.8680  0.0025
 1075TIP3    H227421   4.820   3.851   8.106  1.0931 -1.1197 -2.7429
 1076TIP3   OH227422   4.728   7.112   9.600 -0.1880  0.0332 -0.1954
 1076TIP3    H127423   4.700   7.196   9.637 -0.5685 -0.5851  0.9898
 1076TIP3    H227424   4.823   7.110   9.613  0.0891  0.9974 -1.8070
 1077TIP3   OH227425   5.341   6.694   7.835 -0.5263 -0.3626  0.4594
 1077TIP3    H127426   5.389   6.687   7.753 -0.9727  2.4711 -0.1544
 1077TIP3    H227427   5.295   6.611   7.844 -0.5817 -0.6861 -2.2351
 1078TIP3   OH227428   3.684   3.861   8.574  0.0638  0.3141  0.0817
 1078TIP3    H127429   3.739   3.853   8.652  0.0042 -0.0204  0.0906
 1078TIP3    H227430   3.724   3.801   8.510 -0.6440 -0.4034  0.2926
 1079TIP3   OH227431   5.000   5.148   9.633  0.0293  0.8094 -0.2145
 1079TIP3    H127432   5.009   5.058   9.664  0.1587  0.4928 -1.1261
 1079TIP3    H227433   5.019   5.202   9.709  0.1108  0.0658  0.3039
 1080TIP3   OH227434   4.364   0.437   8.305  0.4574  0.1941  0.0331
 1080TIP3    H127435   4.409   0.405   8.384  2.3831  1.8984 -0.2748
 1080TIP3    H227436   4.400   0.525   8.292 -2.7314  1.5454 -0.5419
 1081TIP3   OH227437   7.012   0.607   8.484  0.2895  0.0300  0.0643
 1081TIP3    H127438   6.985   0.570   8.400  0.8106  1.6428 -0.8724
 1081TIP3    H227439   6.956   0.564   8.549 -0.2598 -1.1054 -1.1277
 1082TIP3   OH227440   0.890   5.983   8.002 -0.2642 -0.5455  0.5066
 1082TIP3    H127441   0.971   6.018   8.039 -0.3039  0.8752 -0.6722
 1082TIP3    H227442   0.917   5.935   7.924 -0.5118 -0.3731  0.3118
 1083TIP3   OH227443   6.340   6.182   7.639 -0.1421 -0.1703  0.3599
 1083TIP3    H127444   6.361   6.187   7.732 -2.7209  0.3416  0.9977
 1083TIP3    H227445   6.286   6.260   7.623  0.3416 -0.1938 -1.6001
 1084TIP3   OH227446   6.779   3.462   9.268  0.5222 -0.1309 -0.5999
 1084TIP3    H127447   6.778   3.545   9.316  1.5750 -0.4102 -0.0740
 1084TIP3    H227448   6.835   3.478   9.193  2.7128 -0.9924  0.7434
 1085TIP3   OH227449   0.015   7.462   6.739  0.1832  0.5371  0.0633
 1085TIP3    H127450   0.088   7.523   6.749  1.1293 -0.4862 -0.4129
 1085TIP3    H227451   0.056   7.375   6.739 -1.0382 -0.0597 -0.1764
 1086TIP3   OH227452   2.693   0.437   7.422  0.1810 -0.0922  0.1585
 1086TIP3    H127453   2.714   0.364   7.363  0.1452  0.2421 -0.2719
 1086TIP3    H227454   2.765   0.499   7.410 -1.0154  1.1024 -1.3899
 1087TIP3   OH227455   0.557   6.627   8.613  0.4492 -0.1847 -0.3435
 1087TIP3    H127456   0.602   6.556   8.657  0.5142  0.6353  0.9661
 1087TIP3    H227457   0.580   6.705   8.663  0.8516  0.8671 -2.0795
 1088TIP3   OH227458   3.169   1.123   7.902  0.2312  0.4801 -0.2256
 1088TIP3    H127459   3.120   1.147   7.981  1.2804 -0.8263  0.8596
 1088TIP3    H227460   3.239   1.188   7.896  0.1369  0.5928 -0.1112
 1089TIP3   OH227461   1.910   6.881   8.567  0.1696  0.4751  0.5862
 1089TIP3    H127462   1.917   6.930   8.485 -0.5857  1.1725  0.9186
 1089TIP3    H227463   1.978   6.814   8.561  0.7974  1.1505 -0.1754
 1090TIP3   OH227464   3.928   0.510   9.485  0.8953 -0.4118  0.8063
 1090TIP3    H127465   3.929   0.473   9.573 -0.8002 -1.0422  0.6066
 1090TIP3    H227466   3.835   0.517   9.463  1.2764 -0.4303 -1.0017
 1091TIP3   OH227467   1.840   6.455   8.701  0.3119 -0.5441 -0.2708
 1091TIP3    H127468   1.928   6.419   8.686  0.1808 -0.2706 -1.8155
 1091TIP3    H227469   1.790   6.429   8.624 -0.3961  1.0346 -0.3696
 1092TIP3   OH227470   4.586   0.998   7.703  0.6460  0.4035  0.8104
 1092TIP3    H127471   4.609   0.995   7.610 -1.4533 -0.8045  0.2654
 1092TIP3    H227472   4.666   1.027   7.747  1.4552  1.7492 -1.4259
 1093TIP3   OH227473   6.344   0.952   8.770 -0.1292 -0.1110  0.1648
 1093TIP3    H127474   6.368   0.944   8.677  0.7481 -1.0041  0.4438
 1093TIP3    H227475   6.353   0.863   8.804  2.6259  0.6944  1.8026
 1094TIP3   OH227476   3.997   1.194   7.983  0.1160 -0.6252 -0.2759
 1094TIP3    H127477   3.968   1.140   8.057  0.8079  0.7847  1.0897
 1094TIP3    H227478   3.918   1.237   7.952 -0.0748 -0.6919  0.1085
 1095TIP3   OH227479   2.898   1.036   9.194 -0.0444 -0.1153  0.1373
 1095TIP3    H127480   2.814   1.062   9.156 -0.5157  0.9247  1.7738
 1095TIP3    H227481   2.924   0.958   9.145 -2.7435 -1.4023  0.6186
 1096TIP3   OH227482   2.314   6.213   7.640 -0.1676 -0.3919 -0.2785
 1096TIP3    H127483   2.372   6.222   7.565  0.0301 -0.1476 -0.0979
 1096TIP3    H227484   2.296   6.303   7.668  0.3734 -0.4873  0.4296
 1097TIP3   OH227485   0.469   1.790   7.721  1.4222 -0.3007 -0.1147
 1097TIP3    H127486   0.552   1.779   7.768  0.1583 -2.0117  1.8727
 1097TIP3    H227487   0.404   1.806   7.789 -0.1389 -0.4778 -1.4825
 1098TIP3   OH227488   5.388   6.520   9.001  0.2486  0.0292 -0.3490
 1098TIP3    H127489   5.326   6.448   8.994  1.6411 -1.1023 -1.5503
 1098TIP3    H227490   5.368   6.560   9.086 -2.3440 -0.0330 -0.8584
 1099TIP3   OH227491   3.808   2.183   7.835 -0.4864  0.1021  0.2856
 1099TIP3    H127492   3.821   2.109   7.776 -1.4610  0.2100 -0.0892
 1099TIP3    H227493   3.762   2.248   7.782 -0.4219  0.6250  0.8637
 1100TIP3   OH227494   2.755   3.733   7.624 -0.4261 -0.4142  0.6840
 1100TIP3    H127495   2.732   3.679   7.549 -1.9306 -0.4634  1.1406
 1100TIP3    H227496   2.672   3.746   7.670  0.0849  1.3852  1.1723
 1101TIP3   OH227497   0.488   0.721   9.297 -0.4479 -0.1755  0.1843
 1101TIP3    H127498   0.562   0.756   9.248  0.6537  0.9304  2.4606
 1101TIP3    H227499   0.513   0.731   9.389 -3.3650  0.0717  1.0640
 1102TIP3   OH227500   6.009   5.175   7.780 -0.8001  0.3161  0.2990
 1102TIP3    H127501   6.050   5.231   7.846  0.1175 -0.3749  0.3319
 1102TIP3    H227502   5.961   5.109   7.830  0.6813 -0.7876  0.3195
 1103TIP3   OH227503   4.218   6.977   9.609  0.2223 -0.4866 -0.3062
 1103TIP3    H127504   4.188   6.886   9.612 -0.8620 -0.1110  1.8586
 1103TIP3    H227505   4.310   6.972   9.636 -0.0950 -0.8770  0.7666
 1104TIP3   OH227506   1.259   6.310   9.355  0.3577 -0.3055 -0.1159
 1104TIP3    H127507   1.280   6.338   9.444  0.9057 -0.5817 -0.1494
 1104TIP3    H227508   1.270   6.388   9.301 -1.5677  0.2743  0.2733
 1105TIP3   OH227509   0.576   3.484   7.277  0.3216  0.5210 -0.4779
 1105TIP3    H127510   0.532   3.400   7.263 -1.4955  1.3210  0.1292
 1105TIP3    H227511   0.549   3.538   7.203 -2.1416  1.9187  1.2830
 1106TIP3   OH227512   6.491   1.152   8.303  0.2623  0.2976  0.3792
 1106TIP3    H127513   6.573   1.193   8.277  0.5484 -0.0897  0.6611
 1106TIP3    H227514   6.426   1.187   8.242  1.1492 -1.6630 -1.8658
 1107TIP3   OH227515   2.758   1.438   9.254 -0.9923  0.7933  0.1927
 1107TIP3    H127516   2.815   1.443   9.331 -0.6068 -0.3540  0.0014
 1107TIP3    H227517   2.803   1.491   9.188 -1.6451  2.3254  0.9119
 1108TIP3   OH227518   3.399   3.049   8.856 -0.1188  0.0679 -0.1841
 1108TIP3    H127519   3.333   3.006   8.912  0.7894  1.0473  1.7126
 1108TIP3    H227520   3.477   2.994   8.865  0.6421  1.3155  1.1829
 1109TIP3   OH227521   0.545   3.205   7.909  0.1064  0.0930 -0.0746
 1109TIP3    H127522   0.628   3.246   7.881 -0.1068  1.4447  1.1548
 1109TIP3    H227523   0.570   3.149   7.982 -0.2154  1.7155  1.3549
 1110TIP3   OH227524   2.508   1.840   9.214  0.1522  0.1975 -0.2709
 1110TIP3    H127525   2.535   1.755   9.248 -1.7835 -0.3025  0.0954
 1110TIP3    H227526   2.583   1.869   9.160  0.2538 -2.4404 -1.6983
 1111TIP3   OH227527   7.094   7.236   6.998  0.2001  0.0128  0.2754
 1111TIP3    H127528   7.109   7.186   6.918  0.0083 -0.0695  0.2902
 1111TIP3    H227529   7.155   7.199   7.061 -1.2084 -1.4715  0.8308
 1112TIP3   OH227530   6.452   0.303   8.936  0.5085 -0.0476  0.1054
 1112TIP3    H127531   6.390   0.355   8.884 -0.5056 -1.8155 -0.5529
 1112TIP3    H227532   6.412   0.297   9.022  1.0283  0.9088  0.4261
 1113TIP3   OH227533   4.524   6.813   8.336 -0.2787  0.0698  0.2445
 1113TIP3    H127534   4.473   6.893   8.328 -1.4033 -0.6379  0.1996
 1113TIP3    H227535   4.574   6.825   8.417 -2.0937 -0.0843  1.4270
 1114TIP3   OH227536   4.227   6.513   7.610 -0.5602 -0.0325 -0.0014
 1114TIP3    H127537   4.212   6.543   7.520 -2.5399  1.6647  0.8229
 1114TIP3    H227538   4.140   6.485   7.640  0.4311 -2.6554  0.7496
 1115TIP3   OH227539   6.002   0.252   8.170 -0.2650 -0.5033  0.6745
 1115TIP3    H127540   5.978   0.184   8.232  0.0355 -1.5131 -0.2733
 1115TIP3    H227541   6.086   0.223   8.135  0.6787  1.1928  1.4188
 1116TIP3   OH227542   3.402   4.846   6.429  0.0888 -0.7431 -0.6916
 1116TIP3    H127543   3.317   4.889   6.419 -1.2826 -3.2898 -0.9317
 1116TIP3    H227544   3.463   4.917   6.449 -2.3996  1.0169  1.3335
 1117TIP3   OH227545   4.515   2.812   9.259  0.0228  0.1982 -0.1504
 1117TIP3    H127546   4.497   2.884   9.318  0.7084  0.4792 -0.2683
 1117TIP3    H227547   4.503   2.733   9.313  0.4069  0.4428  0.2987
 1118TIP3   OH227548   1.902   1.050   8.661 -0.4994 -0.6826  0.0987
 1118TIP3    H127549   1.853   1.110   8.717 -0.1249 -1.0233  0.8158
 1118TIP3    H227550   1.972   1.104   8.624 -1.1067 -0.3139 -0.5307
 1119TIP3   OH227551   2.635   5.287   7.463 -0.2241 -0.5752  0.4971
 1119TIP3    H127552   2.606   5.371   7.426  0.3656  0.4791  2.3092
 1119TIP3    H227553   2.634   5.301   7.558 -0.6031 -2.8035  0.8851
 1120TIP3   OH227554   6.858   5.552   9.014  0.0216  0.6493 -0.1444
 1120TIP3    H127555   6.900   5.620   8.961 -0.3187 -0.1734 -1.5187
 1120TIP3    H227556   6.911   5.547   9.093  1.9989  0.2439 -1.4428
 1121TIP3   OH227557   4.291   5.736   7.734 -0.3862 -0.8560 -0.6858
 1121TIP3    H127558   4.249   5.698   7.811 -1.2374  0.1595 -0.6090
 1121TIP3    H227559   4.303   5.828   7.757  1.6206 -1.0484 -0.8515
 1122TIP3   OH227560   0.049   2.436   8.312 -0.2419  0.4932 -0.1546
 1122TIP3    H127561  -0.006   2.475   8.244 -0.9863 -0.0975  0.0840
 1122TIP3    H227562  -0.008   2.430   8.388 -0.2718 -1.2830 -0.2565
 1123TIP3   OH227563   0.303   2.726   8.364 -0.4894 -0.4532 -0.4257
 1123TIP3    H127564   0.334   2.797   8.419  0.0646  0.3577 -1.7207
 1123TIP3    H227565   0.211   2.715   8.387 -1.1175  2.0045 -1.5119
 1124TIP3   OH227566   2.200   5.438   8.892  0.2246 -0.0260  0.9041
 1124TIP3    H127567   2.207   5.510   8.829 -0.0464  0.0456  0.9554
 1124TIP3    H227568   2.180   5.481   8.975  0.0961 -0.1594  0.9411
 1125TIP3   OH227569   6.841   1.357   7.982  0.0813  0.5589 -0.1842
 1125TIP3    H127570   6.847   1.309   7.899 -0.1488  0.9778 -0.4536
 1125TIP3    H227571   6.882   1.442   7.963 -1.0011  1.0935 -0.2181
 1126TIP3   OH227572   4.312   4.517   8.215  0.0735 -0.3121 -0.0118
 1126TIP3    H127573   4.287   4.441   8.162  1.5531 -0.5721 -0.3957
 1126TIP3    H227574   4.331   4.586   8.151  0.1049 -0.0593  0.2681
 1127TIP3   OH227575   3.143   7.174   8.093 -0.2077  0.2290 -0.3850
 1127TIP3    H127576   3.182   7.251   8.054 -2.5052  0.9029 -1.5568
 1127TIP3    H227577   3.129   7.198   8.185  1.1585  0.3230 -0.1898
 1128TIP3   OH227578   1.981   7.051   9.513  0.1012 -0.4724  0.0952
 1128TIP3    H127579   1.904   7.094   9.476  1.0037  1.4292  0.2689
 1128TIP3    H227580   2.038   7.124   9.540  2.6287 -1.7416 -1.3906
 1129TIP3   OH227581   5.897   3.983   8.114  0.1377  0.1770 -0.1299
 1129TIP3    H127582   5.945   3.967   8.033 -1.2921 -1.8382 -0.6625
 1129TIP3    H227583   5.928   3.915   8.174 -0.6587  0.0456  0.1438
 1130TIP3   OH227584   2.692   1.688   6.748  0.0704 -0.2637  0.1340
 1130TIP3    H127585   2.658   1.767   6.790 -1.5405 -0.8510  0.0161
 1130TIP3    H227586   2.787   1.693   6.760 -0.1358  0.8543  1.5736
 1131TIP3   OH227587   4.217   6.026   8.574 -0.2840 -0.0320  0.2148
 1131TIP3    H127588   4.189   5.963   8.641 -0.7472 -0.0699 -0.0099
 1131TIP3    H227589   4.259   5.972   8.506  0.1405  0.0012  0.4443
 1132TIP3   OH227590   3.094   3.893   7.375  0.0996 -0.5699  0.2754
 1132TIP3    H127591   3.067   3.869   7.286 -0.4261 -0.4446  0.3994
 1132TIP3    H227592   3.012   3.913   7.421  0.3847 -0.4157  0.7260
 1133TIP3   OH227593   2.607   3.654   8.642 -0.1968  0.0941 -0.1454
 1133TIP3    H127594   2.631   3.743   8.616  0.0931 -0.4685 -1.8889
 1133TIP3    H227595   2.533   3.665   8.702 -0.1992  1.4938 -0.3889
 1134TIP3   OH227596   0.722   0.838   7.589 -0.3179 -0.2758  0.0730
 1134TIP3    H127597   0.803   0.878   7.557  0.5607 -0.4893  1.8984
 1134TIP3    H227598   0.689   0.789   7.515  0.9660  0.2178 -0.8678
 1135TIP3   OH227599   6.936   6.077   7.899  0.1970 -0.1246  0.8137
 1135TIP3    H127600   6.876   6.026   7.953 -1.8277  0.8442 -0.4107
 1135TIP3    H227601   6.953   6.022   7.823  1.6436 -0.7694  1.5712
 1136TIP3   OH227602   3.487   3.711   7.670  0.3603  0.8669  0.0390
 1136TIP3    H127603   3.400   3.683   7.697  1.9300 -4.0052  0.9627
 1136TIP3    H227604   3.531   3.735   7.751  0.8937 -0.0699  0.0331
 1137TIP3   OH227605   2.857   0.718   7.606  0.6750  0.1086 -0.5616
 1137TIP3    H127606   2.787   0.772   7.643  0.3549  0.0205 -1.0330
 1137TIP3    H227607   2.919   0.782   7.569  0.2571  0.1508 -1.1894
 1138TIP3   OH227608   3.587   2.860   8.829  0.2092 -0.0573 -0.4012
 1138TIP3    H127609   3.645   2.807   8.774 -0.8115 -0.6365 -0.9342
 1138TIP3    H227610   3.537   2.797   8.880 -0.1291  0.4248 -0.1310
 1139TIP3   OH227611   5.600   0.897   8.919 -0.3246 -0.1774 -0.2226
 1139TIP3    H127612   5.676   0.843   8.897 -1.2741 -2.7451  2.2891
 1139TIP3    H227613   5.524   0.841   8.903 -1.8296  2.2511 -2.4888
 1140TIP3   OH227614   3.553   2.381   7.841 -0.3506 -0.0315 -0.3980
 1140TIP3    H127615   3.599   2.402   7.922 -2.8403  1.5012  0.7171
 1140TIP3    H227616   3.512   2.296   7.857 -1.5963  0.6839  0.3609
 1141TIP3   OH227617   7.428   0.697   7.551  0.0360 -0.5021  0.1106
 1141TIP3    H127618   7.478   0.618   7.530  1.9810  0.3205  1.2846
 1141TIP3    H227619   7.378   0.673   7.629 -1.0146 -1.1680 -0.7442
 1142TIP3   OH227620   5.973   3.565   7.545 -0.1119 -0.0477 -0.4778
 1142TIP3    H127621   6.036   3.621   7.500  0.1306 -0.9817 -1.3389
 1142TIP3    H227622   5.892   3.576   7.495  0.2517 -1.3616 -1.3964
 1143TIP3   OH227623   4.900   6.371   9.104 -0.2593 -0.3564  0.0931
 1143TIP3    H127624   4.806   6.358   9.093  0.1248 -1.8910 -1.8147
 1143TIP3    H227625   4.912   6.466   9.101 -1.7364 -0.1406  0.4305
 1144TIP3   OH227626   5.168   3.316   8.406  0.2997  0.5454 -0.2637
 1144TIP3    H127627   5.220   3.337   8.484  0.2591  1.6391 -0.5260
 1144TIP3    H227628   5.168   3.220   8.404  0.3089  0.4877  1.0805
 1145TIP3   OH227629   4.150   1.946   7.752  0.2565 -0.6512  0.6519
 1145TIP3    H127630   4.194   1.958   7.668 -2.1033 -1.1700 -0.7389
 1145TIP3    H227631   4.185   1.863   7.786 -1.0427 -2.1490 -1.4230
 1146TIP3   OH227632   6.968   6.407   8.574  0.4271  0.5598  0.2613
 1146TIP3    H127633   6.886   6.452   8.595  0.2234  0.1973  0.2595
 1146TIP3    H227634   6.952   6.368   8.488 -0.3490 -1.6697  1.3375
 1147TIP3   OH227635   0.314   5.605   6.842 -0.8368 -0.0395  0.0019
 1147TIP3    H127636   0.370   5.604   6.764 -0.4580  0.2150  0.2668
 1147TIP3    H227637   0.279   5.516   6.848 -2.3242  0.3906 -1.4878
 1148TIP3   OH227638   4.180   1.868   8.729  0.7776 -0.0712  0.1644
 1148TIP3    H127639   4.236   1.808   8.778  0.9423  1.0613  1.4277
 1148TIP3    H227640   4.122   1.906   8.795  0.9124  1.4049 -0.5252
 1149TIP3   OH227641   1.376   5.517   8.036  0.3428 -0.3598 -0.3916
 1149TIP3    H127642   1.366   5.439   7.981  1.0634  0.3861 -1.6151
 1149TIP3    H227643   1.455   5.500   8.087 -0.4925 -1.1843  0.6725
 1150TIP3   OH227644   4.262   3.285   7.915  0.6383  0.4291  0.0494
 1150TIP3    H127645   4.277   3.215   7.852 -0.6959  0.5159 -0.4055
 1150TIP3    H227646   4.195   3.340   7.874  0.7820  1.2820  0.9270
 1151TIP3   OH227647   4.500   4.804   8.137 -0.1515 -0.1226  0.0195
 1151TIP3    H127648   4.528   4.881   8.087 -0.2500 -1.1052 -1.6207
 1151TIP3    H227649   4.510   4.830   8.229  0.7230  1.5016 -0.4972
 1152TIP3   OH227650   4.808   7.122   8.776 -0.0705 -0.4305  0.7304
 1152TIP3    H127651   4.899   7.140   8.800  0.4092 -0.5813 -0.8486
 1152TIP3    H227652   4.806   7.135   8.681 -1.5846 -0.9135  0.6781
 1153TIP3   OH227653   2.093   6.890   6.422  0.4936  0.3043 -0.3678
 1153TIP3    H127654   2.152   6.964   6.416 -0.1350  1.0337  1.6045
 1153TIP3    H227655   2.072   6.883   6.516 -0.3072 -1.6916 -0.6366
 1154TIP3   OH227656   1.526   1.646   8.796  0.7418 -0.2215 -0.3457
 1154TIP3    H127657   1.496   1.651   8.705  1.2145 -0.1259 -0.5035
 1154TIP3    H227658   1.576   1.727   8.808  1.3031 -0.5819 -0.2312
 1155TIP3   OH227659   3.954   6.691   8.141 -0.0343  0.0976  0.0487
 1155TIP3    H127660   4.004   6.770   8.122 -0.9338  0.4963 -0.7030
 1155TIP3    H227661   3.939   6.695   8.236 -2.1350  2.1158 -0.2742
 1156TIP3   OH227662   7.076   0.529   8.852  0.0348 -0.5013 -0.1474
 1156TIP3    H127663   7.147   0.593   8.840 -0.5344 -0.1283 -1.9682
 1156TIP3    H227664   7.107   0.472   8.922  1.7385  0.1902 -0.2657
 1157TIP3   OH227665   3.145   4.613   7.384  0.2116  0.2263  0.1112
 1157TIP3    H127666   3.181   4.700   7.401  0.6229  0.1578 -0.3868
 1157TIP3    H227667   3.072   4.604   7.446 -0.9510  1.6176 -0.9673
 1158TIP3   OH227668   2.562   3.923   9.143 -0.3302  0.0006  0.2989
 1158TIP3    H127669   2.488   3.954   9.090  0.8834 -1.5656 -2.5669
 1158TIP3    H227670   2.552   3.967   9.227 -3.9317  0.6185 -0.2925
 1159TIP3   OH227671   0.440   4.359   7.307 -0.3989  0.3100  0.5152
 1159TIP3    H127672   0.533   4.361   7.331 -0.2172  3.0920 -0.0828
 1159TIP3    H227673   0.397   4.412   7.374 -0.8572  2.5540 -1.3979
 1160TIP3   OH227674   2.976   5.120   7.877  0.0194  0.1837 -0.4943
 1160TIP3    H127675   3.060   5.128   7.832 -0.3211  2.2929 -0.8826
 1160TIP3    H227676   2.936   5.042   7.840  1.7276 -0.7989 -0.3869
 1161TIP3   OH227677   1.682   0.409   7.549 -0.7985 -0.4841 -0.1684
 1161TIP3    H127678   1.761   0.461   7.532 -1.4612  0.1274 -1.5138
 1161TIP3    H227679   1.712   0.318   7.544  0.0031 -0.2611  0.3014
 1162TIP3   OH227680   2.592   5.941   7.321 -0.0698  0.0414  0.5134
 1162TIP3    H127681   2.687   5.945   7.311 -0.2964  1.0924 -2.0301
 1162TIP3    H227682   2.578   5.913   7.412  2.6598 -2.5972  0.2690
 1163TIP3   OH227683   0.334   5.878   9.351  0.5359  0.4640  0.1177
 1163TIP3    H127684   0.263   5.837   9.401 -0.2444  0.5738 -0.8681
 1163TIP3    H227685   0.321   5.971   9.364  1.6556  0.4599  1.4686
 1164TIP3   OH227686   0.734   5.339   8.015  0.4064 -0.1072 -0.0126
 1164TIP3    H127687   0.742   5.433   7.999 -0.2717 -0.3978 -2.4320
 1164TIP3    H227688   0.649   5.328   8.056  0.4626  0.3132  0.2216
 1165TIP3   OH227689   6.576   3.567   8.237  0.2514  0.0086 -0.2921
 1165TIP3    H127690   6.569   3.480   8.198  0.1331 -0.1804  0.1436
 1165TIP3    H227691   6.505   3.571   8.301  1.2119 -0.1641  0.8109
 1166TIP3   OH227692   6.238   6.768   7.035  0.4796  0.2169 -0.1608
 1166TIP3    H127693   6.183   6.842   7.059 -1.0801 -0.2887 -1.9257
 1166TIP3    H227694   6.254   6.722   7.118  0.1853  1.6382  0.7209
 1167TIP3   OH227695   0.627   3.552   6.622  0.3647  0.1800 -0.4470
 1167TIP3    H127696   0.710   3.589   6.652 -0.8722  1.5442  1.5210
 1167TIP3    H227697   0.570   3.628   6.608 -1.0841 -0.7885 -0.0121
 1168TIP3   OH227698   2.341   1.551   9.136 -0.9221  0.2439 -0.0845
 1168TIP3    H127699   2.256   1.524   9.172 -0.3219 -1.1558  0.3340
 1168TIP3    H227700   2.396   1.565   9.213 -0.0354 -1.3916 -0.3815
 1169TIP3   OH227701   2.015   5.476   8.109  0.2485 -0.0644 -0.0167
 1169TIP3    H127702   2.012   5.470   8.204 -1.3428  2.2765  0.1543
 1169TIP3    H227703   2.102   5.511   8.090  0.2884  0.1925  0.6268
 1170TIP3   OH227704   1.028   2.690   8.500 -0.3663 -0.3454  0.1047
 1170TIP3    H127705   1.106   2.731   8.462 -0.9783  1.2055  0.4366
 1170TIP3    H227706   1.019   2.607   8.453  0.6436  0.1228 -0.9609
 1171TIP3   OH227707   1.659   1.115   7.638  0.0432 -0.5844  0.2647
 1171TIP3    H127708   1.661   1.211   7.648  0.3708 -0.6524  0.9183
 1171TIP3    H227709   1.596   1.100   7.569 -1.7765 -0.0170  1.7117
 1172TIP3   OH227710   7.302   5.494   7.393 -0.2922 -0.0518 -0.3094
 1172TIP3    H127711   7.358   5.469   7.320 -0.4571 -0.7865 -0.1831
 1172TIP3    H227712   7.235   5.550   7.354 -0.5263 -0.6436 -0.7616
 1173TIP3   OH227713   0.288   1.541   7.585  0.3773 -0.1835  0.5976
 1173TIP3    H127714   0.348   1.471   7.559 -1.5490 -1.7141  0.0115
 1173TIP3    H227715   0.340   1.621   7.578  0.9867 -0.6168 -5.4476
 1174TIP3   OH227716   4.054   3.835   7.394  0.4641  0.1129 -0.3257
 1174TIP3    H127717   4.112   3.775   7.346 -1.2479 -2.5222  0.6954
 1174TIP3    H227718   4.097   3.847   7.478  1.5449  1.6048 -1.0496
 1175TIP3   OH227719   6.870   4.398   7.746 -0.2912  0.3637  0.4712
 1175TIP3    H127720   6.885   4.439   7.661  0.0127  0.0453  0.3645
 1175TIP3    H227721   6.939   4.434   7.802  0.7980 -0.9407  0.0378
 1176TIP3   OH227722   5.986   6.557   7.465  0.4561  0.5290 -0.1620
 1176TIP3    H127723   5.926   6.524   7.398  0.9271  1.3032 -0.9772
 1176TIP3    H227724   5.929   6.594   7.532  0.0158  1.6132 -1.1118
 1177TIP3   OH227725   4.052   1.675   9.013 -0.1930  0.2573  0.0625
 1177TIP3    H127726   3.965   1.635   9.019 -0.1416  0.1155 -0.1212
 1177TIP3    H227727   4.096   1.626   8.944  0.6390 -0.8384  1.3080
 1178TIP3   OH227728   2.275   1.256   9.256 -0.6787 -0.0530  0.6709
 1178TIP3    H127729   2.209   1.308   9.211 -0.5347 -1.2635 -1.0406
 1178TIP3    H227730   2.237   1.168   9.262  0.3372 -0.5123  0.6517
 1179TIP3   OH227731   4.105   1.548   7.933  0.0314 -0.1453 -0.0267
 1179TIP3    H127732   4.135   1.463   7.900  1.1529  0.4115 -0.5197
 1179TIP3    H227733   4.160   1.611   7.887 -2.1180  0.9868 -1.1849
 1180TIP3   OH227734   4.533   5.341   7.853  0.2477  0.2547 -0.2649
 1180TIP3    H127735   4.480   5.262   7.865 -0.5010  1.0196  1.7000
 1180TIP3    H227736   4.620   5.316   7.885  0.8620 -0.6301 -2.4026
 1181TIP3   OH227737   3.833   1.854   7.426  0.1562  0.5501 -0.0650
 1181TIP3    H127738   3.777   1.865   7.349 -0.6026  0.5266  0.4668
 1181TIP3    H227739   3.847   1.760   7.432  0.7990  0.6137 -0.5782
 1182TIP3   OH227740   2.011   4.606   8.897 -0.3000  0.4707  0.8738
 1182TIP3    H127741   2.096   4.602   8.854 -1.0808  1.1910 -0.8291
 1182TIP3    H227742   2.007   4.695   8.933  0.1846  0.0034  2.1205
 1183TIP3   OH227743   3.257   1.422   9.076 -0.0204  0.2667 -0.0671
 1183TIP3    H127744   3.202   1.347   9.054  0.0013  0.6335 -1.5214
 1183TIP3    H227745   3.325   1.422   9.009  0.8928  0.6921  0.8296
 1184TIP3   OH227746   3.736   3.725   7.546 -0.2692 -0.2134  0.4006
 1184TIP3    H127747   3.742   3.629   7.551  0.6197 -0.1075  1.5971
 1184TIP3    H227748   3.656   3.746   7.594 -0.3399 -0.3335  0.3368
 1185TIP3   OH227749   1.303   6.971   9.007  0.4227 -0.2402  0.0025
 1185TIP3    H127750   1.396   6.993   9.009  0.1604  0.9851 -0.3204
 1185TIP3    H227751   1.287   6.943   8.916  0.0958  1.4617 -0.5047
 1186TIP3   OH227752   0.134   7.263   7.053 -0.1208 -0.6381  0.0168
 1186TIP3    H127753   0.229   7.262   7.040 -0.2115  0.7685 -1.0104
 1186TIP3    H227754   0.113   7.355   7.072 -1.4567 -0.5626 -1.5749
 1187TIP3   OH227755   3.684   5.802   8.534 -0.3202 -0.7186  0.3991
 1187TIP3    H127756   3.667   5.708   8.535  0.7527 -0.9583 -0.7770
 1187TIP3    H227757   3.690   5.823   8.441 -0.7922  0.5775  0.6435
 1188TIP3   OH227758   0.417   6.776   8.265  0.5696 -0.6428 -0.3179
 1188TIP3    H127759   0.488   6.809   8.321  1.1394 -0.5615 -1.0670
 1188TIP3    H227760   0.424   6.681   8.274 -0.1142 -0.6117  0.6752
 1189TIP3   OH227761   6.503   2.680   7.050  0.3359 -0.1953 -0.0494
 1189TIP3    H127762   6.560   2.623   6.998 -1.3339 -2.3839  0.4007
 1189TIP3    H227763   6.530   2.665   7.141  2.3115  2.5888 -0.0133
 1190TIP3   OH227764   7.594   1.348   6.569  0.3447  0.0101  0.0308
 1190TIP3    H127765   7.613   1.403   6.493 -1.1323  2.0461  1.0229
 1190TIP3    H227766   7.498   1.344   6.571  0.4044 -1.3604  0.8865
 1191TIP3   OH227767   2.616   1.833   8.603  0.2849  0.0465  0.1531
 1191TIP3    H127768   2.545   1.835   8.667 -0.8628  0.1984 -1.0798
 1191TIP3    H227769   2.595   1.903   8.542  1.2899 -0.1719 -0.4647
 1192TIP3   OH227770   7.236   7.608   9.562 -0.1794  0.1189  0.6504
 1192TIP3    H127771   7.302   7.540   9.551  1.2168  1.4361  0.4517
 1192TIP3    H227772   7.155   7.561   9.581  0.4145 -1.6387 -0.9142
 1193TIP3   OH227773   7.033   0.269   6.719  0.4287  0.4334 -0.4031
 1193TIP3    H127774   7.005   0.321   6.794 -2.2451  0.4299 -1.2854
 1193TIP3    H227775   7.124   0.246   6.738  0.2494  1.5263  2.1787
 1194TIP3   OH227776   3.914   4.237   6.409  0.0024 -0.2460  0.1571
 1194TIP3    H127777   3.845   4.272   6.353  0.7182 -0.1258 -0.6729
 1194TIP3    H227778   3.921   4.299   6.481 -0.7932 -0.2933  0.2806
 1195TIP3   OH227779   6.031   4.864   9.425 -0.2822  0.0989 -0.2540
 1195TIP3    H127780   5.948   4.884   9.470 -0.5926  1.5897 -1.4314
 1195TIP3    H227781   6.006   4.852   9.333  0.9451  1.8327 -0.8596
 1196TIP3   OH227782   4.423   1.192   7.993 -0.0523  0.3633 -0.0477
 1196TIP3    H127783   4.387   1.125   8.051 -0.8899  1.0108  0.2082
 1196TIP3    H227784   4.514   1.167   7.980 -0.4453 -1.0341 -0.2732
 1197TIP3   OH227785   5.101   7.539   8.692 -0.6242 -0.0724  0.0605
 1197TIP3    H127786   5.185   7.496   8.677 -0.4395  0.1565  0.4112
 1197TIP3    H227787   5.056   7.536   8.607 -0.5733 -0.8531  0.0616
 1198TIP3   OH227788   1.727   5.860   6.495  0.2114  0.0309  0.4416
 1198TIP3    H127789   1.822   5.849   6.496  0.5282  2.1517 -0.9218
 1198TIP3    H227790   1.713   5.954   6.494 -1.8338 -0.2069 -1.4916
 1199TIP3   OH227791   2.739   6.742   8.621  1.2567  0.0470  0.2470
 1199TIP3    H127792   2.763   6.659   8.663  1.1263 -0.6592 -1.0303
 1199TIP3    H227793   2.767   6.732   8.530  3.3321  2.2969  0.5511
 1200TIP3   OH227794   2.397   7.562   8.648 -0.1941  0.1405 -0.0649
 1200TIP3    H127795   2.411   7.531   8.738 -1.2127 -0.1055  0.0201
 1200TIP3    H227796   2.485   7.568   8.611  0.2752  0.5363  1.0441
 1201TIP3   OH227797   6.295   1.977   6.695 -0.5827  0.7287 -0.3581
 1201TIP3    H127798   6.351   2.053   6.679  0.1257  0.6180  1.4637
 1201TIP3    H227799   6.208   2.014   6.707 -0.4208  1.1505 -0.4634
 1202TIP3   OH227800   1.703   0.409   8.607 -0.6949  0.1628 -0.3408
 1202TIP3    H127801   1.616   0.370   8.597  0.0652 -1.9939  0.8339
 1202TIP3    H227802   1.753   0.375   8.533  0.0381 -1.3696  0.8136
 1203TIP3   OH227803   6.918   4.078   8.852 -0.5437  0.0886 -0.2438
 1203TIP3    H127804   6.924   4.085   8.757 -0.1023  1.4974 -0.1336
 1203TIP3    H227805   6.858   4.148   8.878 -3.9187 -2.6786  0.2387
 1204TIP3   OH227806   3.112   4.980   8.468 -0.0338 -0.0718 -0.5688
 1204TIP3    H127807   3.035   5.035   8.483  2.3217  3.6860 -0.9524
 1204TIP3    H227808   3.153   5.016   8.390  1.3271 -3.0006 -1.3430
 1205TIP3   OH227809   4.828   1.456   7.618  0.0835 -0.0022 -0.0611
 1205TIP3    H127810   4.736   1.454   7.643 -0.1810 -1.2579 -1.0212
 1205TIP3    H227811   4.848   1.549   7.606 -1.1275  0.2730 -0.0537
 1206TIP3   OH227812   1.083   5.433   9.034 -0.2951  0.0553 -0.4321
 1206TIP3    H127813   1.118   5.346   9.017 -0.7112 -0.3946  0.8435
 1206TIP3    H227814   1.014   5.445   8.969  1.3750  0.4906 -2.2325
 1207TIP3   OH227815   5.282   4.110   7.137 -0.0372  0.1659  0.4873
 1207TIP3    H127816   5.304   4.088   7.047  0.1482  1.0820  0.3027
 1207TIP3    H227817   5.254   4.201   7.134 -1.2756 -0.1688  1.1511
 1208TIP3   OH227818   6.014   7.135   8.335 -0.2602 -0.0336 -0.3063
 1208TIP3    H127819   6.012   7.067   8.403 -0.6725  0.1052 -0.1732
 1208TIP3    H227820   5.968   7.097   8.261 -0.3661  0.0460 -0.2823
 1209TIP3   OH227821   4.017   5.604   7.606 -0.1330 -0.4264 -0.1521
 1209TIP3    H127822   4.066   5.581   7.685 -1.7057 -2.4438  0.3289
 1209TIP3    H227823   4.080   5.596   7.535  1.1905  0.9780  0.8209
 1210TIP3   OH227824   5.339   2.661   8.482  0.4230 -0.0674  0.4243
 1210TIP3    H127825   5.299   2.625   8.403 -1.3394 -1.5457  1.9017
 1210TIP3    H227826   5.430   2.678   8.457  0.5095 -2.5164 -1.3313
 1211TIP3   OH227827   0.187   1.358   7.255  0.2802 -0.3185  0.0854
 1211TIP3    H127828   0.271   1.326   7.222  0.1572  0.2116 -0.7759
 1211TIP3    H227829   0.137   1.278   7.275  1.2639 -0.6474  1.3993
 1212TIP3   OH227830   0.656   6.786   8.386 -0.3017  0.1692  0.3520
 1212TIP3    H127831   0.615   6.730   8.451  1.2267 -0.8066  0.5298
 1212TIP3    H227832   0.724   6.833   8.434 -0.6419  1.1267 -0.0837
 1213TIP3   OH227833   4.804   5.548   8.394  0.6521  0.4480 -0.2012
 1213TIP3    H127834   4.875   5.612   8.397  1.0765 -0.0597  1.5718
 1213TIP3    H227835   4.731   5.590   8.441 -0.3229  1.0344 -2.1463
 1214TIP3   OH227836   0.504   3.840   7.218 -0.0182  0.2643 -0.0743
 1214TIP3    H127837   0.534   3.750   7.234  1.9620  1.1272  1.6003
 1214TIP3    H227838   0.568   3.895   7.264 -2.5049  2.4623  1.0078
 1215TIP3   OH227839   5.321   5.054   9.422 -0.2752 -0.2916 -0.5824
 1215TIP3    H127840   5.301   4.961   9.426  0.7190 -0.5609 -1.4066
 1215TIP3    H227841   5.252   5.091   9.367 -0.9080 -0.4588  0.0832
 1216TIP3   OH227842   5.040   7.543   9.194 -0.3872 -0.0980  0.0287
 1216TIP3    H127843   5.093   7.622   9.204  0.2096 -0.6106  1.1254
 1216TIP3    H227844   5.052   7.517   9.102  1.1188 -0.0913  0.2047
 1217TIP3   OH227845   3.818   7.555   8.851 -0.4527 -0.3246 -0.0888
 1217TIP3    H127846   3.836   7.609   8.928 -1.0065 -0.5636  0.2167
 1217TIP3    H227847   3.726   7.531   8.860 -0.1687 -1.4656 -0.1203
 1218TIP3   OH227848   2.976   1.702   7.266  0.0791  0.5192  0.6584
 1218TIP3    H127849   3.012   1.639   7.203  1.2202 -0.3991  2.1214
 1218TIP3    H227850   2.906   1.746   7.220 -0.8701 -1.9415 -0.4297
 1219TIP3   OH227851   1.585   3.760   9.149 -0.1752  0.0568 -0.2098
 1219TIP3    H127852   1.594   3.855   9.141  2.6212 -0.1881 -0.8754
 1219TIP3    H227853   1.533   3.735   9.072  1.3979  0.8321 -1.6068
 1220TIP3   OH227854   2.228   6.022   8.244  0.2492  0.1042  0.5486
 1220TIP3    H127855   2.225   6.056   8.154  0.5657 -3.3474 -0.9258
 1220TIP3    H227856   2.144   5.978   8.255  0.6575 -0.4390  1.5447
 1221TIP3   OH227857   0.823   3.959   9.464  0.8092  0.0198 -0.0003
 1221TIP3    H127858   0.765   4.030   9.490  0.4175 -0.4473  0.4244
 1221TIP3    H227859   0.850   3.981   9.375 -2.2444 -1.1561 -1.3359
 1222TIP3   OH227860   5.004   5.440   8.145 -0.8722  0.1079  0.1510
 1222TIP3    H127861   5.049   5.442   8.229  2.0169 -1.3973 -1.2180
 1222TIP3    H227862   4.961   5.355   8.142  2.9429 -2.0073 -1.5585
 1223TIP3   OH227863   3.890   6.925   9.485 -0.0415 -0.3967  0.3578
 1223TIP3    H127864   3.820   6.978   9.522 -0.3186 -0.6216  0.1544
 1223TIP3    H227865   3.962   6.986   9.472  0.1688 -0.3567  1.5319
 1224TIP3   OH227866   6.666   7.402   7.846 -0.6092 -0.3299  0.3015
 1224TIP3    H127867   6.589   7.425   7.793  0.9307  0.0772 -1.9322
 1224TIP3    H227868   6.688   7.313   7.819  0.1257 -0.1732  0.3697
 1225TIP3   OH227869   2.282   7.320   7.411  0.0190  0.5722 -0.0089
 1225TIP3    H127870   2.256   7.309   7.503 -2.4121  0.6754 -0.6099
 1225TIP3    H227871   2.376   7.304   7.411  0.6755  3.1869  2.9564
 1226TIP3   OH227872   7.007   4.205   8.081 -0.0599 -0.0802  0.0356
 1226TIP3    H127873   7.036   4.256   8.005 -1.3399 -1.1485 -1.2265
 1226TIP3    H227874   7.026   4.262   8.156  0.2417  1.4790 -1.1534
 1227TIP3   OH227875   1.633   1.072   9.132 -0.1663 -0.3104  0.0728
 1227TIP3    H127876   1.584   1.037   9.057  1.3791 -1.9872 -0.2271
 1227TIP3    H227877   1.683   1.145   9.096  0.0577 -0.6846 -0.3881
 1228TIP3   OH227878   6.045   3.211   8.206 -0.5499  0.6334  0.1510
 1228TIP3    H127879   6.053   3.116   8.214 -0.4177  0.6898  0.7568
 1228TIP3    H227880   5.988   3.236   8.279 -0.3350  1.0543  0.1786
 1229TIP3   OH227881   3.332   6.219   8.749 -0.9206 -0.0182  0.6723
 1229TIP3    H127882   3.314   6.193   8.659 -1.5092  3.5066 -0.3929
 1229TIP3    H227883   3.410   6.274   8.743  0.0483 -1.0580  2.6352
 1230TIP3   OH227884   6.899   6.885   9.530 -0.1209  0.2293 -0.4375
 1230TIP3    H127885   6.818   6.894   9.480 -0.4849 -0.8687 -0.0713
 1230TIP3    H227886   6.873   6.903   9.621 -0.1262 -0.9034 -0.2086
 1231TIP3   OH227887   2.589   0.693   8.868  0.0442 -0.2914 -0.2108
 1231TIP3    H127888   2.635   0.662   8.789 -0.0257 -0.0602 -0.3426
 1231TIP3    H227889   2.507   0.644   8.868 -0.0990 -0.0563 -0.4607
 1232TIP3   OH227890   6.837   5.581   6.936 -0.0849 -0.1777 -0.3675
 1232TIP3    H127891   6.812   5.665   6.974 -0.7210 -0.3141 -0.4635
 1232TIP3    H227892   6.762   5.524   6.955  0.5992 -0.8979  0.2467
 1233TIP3   OH227893   4.545   6.056   6.627  0.0404 -0.3472 -0.0201
 1233TIP3    H127894   4.462   6.035   6.668  0.2521 -2.7626 -0.6758
 1233TIP3    H227895   4.545   6.006   6.545  1.8637  0.0729 -0.3257
 1234TIP3   OH227896   6.503   6.622   7.493  0.2401 -0.1708 -0.4836
 1234TIP3    H127897   6.596   6.623   7.472  0.8668  0.9492  1.9946
 1234TIP3    H227898   6.491   6.543   7.545 -0.3235 -0.5772 -1.2140
 1235TIP3   OH227899   2.945   7.146   7.924 -0.2298  0.1557  0.1449
 1235TIP3    H127900   3.013   7.171   7.987  0.7510  0.4034 -0.9769
 1235TIP3    H227901   2.968   7.193   7.844 -1.3453 -0.2890 -0.4565
 1236TIP3   OH227902   4.638   0.958   8.901  0.2147 -0.4647 -0.4531
 1236TIP3    H127903   4.676   1.044   8.886 -2.0308  1.3267  2.8585
 1236TIP3    H227904   4.560   0.956   8.846  0.8736 -0.9389 -1.4043
 1237TIP3   OH227905   0.060   4.960   9.441  0.2199 -0.0142 -0.3070
 1237TIP3    H127906  -0.001   4.900   9.396 -0.5569  1.0129 -0.6548
 1237TIP3    H227907   0.053   5.042   9.393  1.0290  0.4597  0.3657
 1238TIP3   OH227908   6.543   0.900   8.103  0.0456  0.4381  0.3434
 1238TIP3    H127909   6.485   0.921   8.030 -1.1496  0.5718  1.2902
 1238TIP3    H227910   6.507   0.950   8.177  0.8185 -0.2047  1.1802
 1239TIP3   OH227911   5.166   5.551   8.638  0.5565  0.0752 -0.1411
 1239TIP3    H127912   5.079   5.587   8.656  0.0758 -1.4947  0.8347
 1239TIP3    H227913   5.221   5.587   8.707  0.8536  1.5548 -1.1080
 1240TIP3   OH227914   4.779   3.874   8.919 -0.6148 -0.6239 -0.4048
 1240TIP3    H127915   4.800   3.863   9.012 -0.8327  0.0172 -0.2800
 1240TIP3    H227916   4.843   3.818   8.874  0.6462  0.4268  0.0310
 1241TIP3   OH227917   1.719   6.258   8.486 -0.8560  0.4173 -0.7613
 1241TIP3    H127918   1.760   6.213   8.412 -0.4693  0.6944 -0.7223
 1241TIP3    H227919   1.723   6.351   8.462  2.5081  0.9093  1.1090
 1242TIP3   OH227920   5.353   1.317   7.479  1.0279 -0.3405  0.3659
 1242TIP3    H127921   5.402   1.259   7.537  1.8014 -0.3437 -0.2632
 1242TIP3    H227922   5.390   1.300   7.392  1.2070  1.0189  0.1538
 1243TIP3   OH227923   0.883   3.215   8.355 -0.8317  0.4575  0.1708
 1243TIP3    H127924   0.916   3.290   8.306 -0.1735  0.2983  0.3594
 1243TIP3    H227925   0.953   3.194   8.416  0.3000 -2.1178 -1.8130
 1244TIP3   OH227926   4.950   3.480   8.366 -0.4457 -0.3327 -0.6829
 1244TIP3    H127927   4.869   3.429   8.354 -0.6191  0.0762 -1.2647
 1244TIP3    H227928   5.020   3.416   8.349 -0.6041 -0.9890  0.9571
 1245TIP3   OH227929   0.559   3.866   6.868  0.1117  0.1464  0.0932
 1245TIP3    H127930   0.588   3.951   6.835  1.9007 -0.0665  0.9690
 1245TIP3    H227931   0.473   3.852   6.828 -0.2465  2.3693 -0.0519
 1246TIP3   OH227932   4.532   6.192   7.713 -0.0743 -0.2574 -0.3990
 1246TIP3    H127933   4.439   6.193   7.736 -0.3023  1.1984 -1.2663
 1246TIP3    H227934   4.547   6.103   7.680 -1.8634  0.1949 -2.8107
 1247TIP3   OH227935   2.367   5.291   8.180  0.2816  0.1160 -0.5683
 1247TIP3    H127936   2.333   5.345   8.251  0.3824 -0.7320  0.1410
 1247TIP3    H227937   2.300   5.223   8.167 -0.1560  0.7697 -1.8970
 1248TIP3   OH227938   5.385   3.678   8.724 -0.1819 -0.1741  0.4373
 1248TIP3    H127939   5.388   3.719   8.638 -0.5170 -0.2988  0.3646
 1248TIP3    H227940   5.299   3.702   8.759 -0.8653 -1.7889 -0.0878
 1249TIP3   OH227941   5.914   4.368   7.140 -0.2872  0.1191  0.4635
 1249TIP3    H127942   5.967   4.378   7.061 -1.0215 -0.9085 -0.1813
 1249TIP3    H227943   5.978   4.344   7.208  0.2906  0.5795  0.0920
 1250TIP3   OH227944   4.221   0.464   7.980  0.0111  0.1905  0.1821
 1250TIP3    H127945   4.277   0.539   7.960  0.1169  0.4423  1.3665
 1250TIP3    H227946   4.179   0.443   7.896  0.9187  0.7823 -0.4404
 1251TIP3   OH227947   7.451   7.364   6.791  0.3996  0.1539  0.5471
 1251TIP3    H127948   7.376   7.395   6.740  0.2039 -0.2678  0.5773
 1251TIP3    H227949   7.526   7.412   6.754  0.2849 -0.2786 -0.2662
 1252TIP3   OH227950   1.567   6.563   9.320  0.4936 -0.2911  0.5748
 1252TIP3    H127951   1.566   6.536   9.229  0.4700 -0.5893  0.6622
 1252TIP3    H227952   1.656   6.546   9.350  0.6069  0.1591  0.5048
 1253TIP3   OH227953   4.609   2.812   7.888  0.5145 -0.4872  0.4395
 1253TIP3    H127954   4.626   2.719   7.871 -0.0635 -0.3984 -0.7090
 1253TIP3    H227955   4.662   2.832   7.965 -0.0157 -1.9842  1.2478
 1254TIP3   OH227956   1.310   6.956   8.712  0.5552 -0.1431 -0.7090
 1254TIP3    H127957   1.295   7.042   8.751  1.0310 -0.7917  0.9958
 1254TIP3    H227958   1.387   6.969   8.656  1.9800  0.0990  1.2142
 1255TIP3   OH227959   1.320   6.172   8.906  0.0160  0.7217  0.3043
 1255TIP3    H127960   1.227   6.194   8.912  0.3901  2.0202  1.9246
 1255TIP3    H227961   1.363   6.252   8.878  0.7020  0.2502 -0.0259
 1256TIP3   OH227962   0.920   5.755   6.730 -0.1880 -0.5230 -0.6994
 1256TIP3    H127963   1.004   5.777   6.691 -0.1769 -2.0198 -1.6172
 1256TIP3    H227964   0.928   5.662   6.754 -0.7184 -0.0441  1.5519
 1257TIP3   OH227965   7.040   7.257   8.227 -0.9930 -0.0523 -0.6284
 1257TIP3    H127966   7.044   7.352   8.241  3.8776 -0.2128  1.1036
 1257TIP3    H227967   7.059   7.245   8.134 -1.5830  0.6572 -0.8488
 1258TIP3   OH227968   3.653   3.071   7.823 -0.4715 -0.0061 -0.3747
 1258TIP3    H127969   3.650   2.998   7.884  1.0547 -0.0637 -0.3164
 1258TIP3    H227970   3.568   3.070   7.779 -1.1526 -0.6771  0.9080
 1259TIP3   OH227971   2.977   7.216   8.966 -0.0205 -0.1004  0.5138
 1259TIP3    H127972   3.011   7.283   8.906 -0.0906  1.3772  2.0391
 1259TIP3    H227973   2.899   7.182   8.923  0.6343  0.0112 -0.7929
 1260TIP3   OH227974   7.327   1.136   8.141  0.0205  0.3336 -0.7455
 1260TIP3    H127975   7.363   1.126   8.053  2.3895  3.3609 -0.3272
 1260TIP3    H227976   7.368   1.216   8.174 -1.9232  0.1498  2.5828
 1261TIP3   OH227977   1.629   7.518   7.799 -0.3220  0.0694 -0.3320
 1261TIP3    H127978   1.694   7.550   7.736  2.0536 -2.2145  0.7378
 1261TIP3    H227979   1.563   7.474   7.746 -0.7949  2.0110 -1.4342
 1262TIP3   OH227980   2.931   0.565   7.369  0.6577 -0.1354  0.1340
 1262TIP3    H127981   2.983   0.485   7.383  0.4856  0.1441  2.7313
 1262TIP3    H227982   2.915   0.599   7.457 -0.9103  1.7426 -0.8168
 1263TIP3   OH227983   6.491   6.383   8.544 -0.0059 -0.1136 -0.3833
 1263TIP3    H127984   6.401   6.399   8.572  0.6862  0.7791  1.4786
 1263TIP3    H227985   6.510   6.294   8.574  0.7470  0.8497  2.2753
 1264TIP3   OH227986   1.678   5.007   7.951 -0.1224  0.0729  0.0668
 1264TIP3    H127987   1.755   4.955   7.974  0.2958 -0.2089 -1.7461
 1264TIP3    H227988   1.612   4.983   8.015  0.8692 -0.7459  0.8099
 1265TIP3   OH227989   7.491   2.640   9.275 -0.3457 -0.0170  0.5205
 1265TIP3    H127990   7.467   2.718   9.325 -0.5570  1.9146 -2.3722
 1265TIP3    H227991   7.417   2.626   9.216  0.9765 -0.5497 -1.0723
 1266TIP3   OH227992   6.048   2.922   7.381 -0.3748  0.8758  0.4270
 1266TIP3    H127993   6.061   2.941   7.288 -0.7344 -3.0230 -0.5948
 1266TIP3    H227994   6.021   3.005   7.419 -0.0988  2.6602 -2.9213
 1267TIP3   OH227995   6.359   5.789   8.193  0.3286 -0.4183  0.0882
 1267TIP3    H127996   6.350   5.846   8.117 -0.3107  1.1183  1.2612
 1267TIP3    H227997   6.454   5.782   8.207  0.5120 -1.8749 -1.6483
 1268TIP3   OH227998   1.011   3.391   7.909 -0.0202  0.5284  0.0645
 1268TIP3    H127999   1.056   3.306   7.910 -1.1868 -0.1225  0.9818
 1268TIP3    H228000   1.053   3.440   7.839  0.3506 -1.0045 -0.8440
 1269TIP3   OH228001   4.419   0.532   7.596  0.6161 -0.1110 -0.0792
 1269TIP3    H128002   4.364   0.478   7.539  0.6668  0.8121 -1.0198
 1269TIP3    H228003   4.447   0.605   7.541  2.5923 -0.4196  0.4433
 1270TIP3   OH228004   5.443   1.840   7.996  0.1678 -0.0970  0.5343
 1270TIP3    H128005   5.425   1.868   8.086  2.1951  2.1817  0.3533
 1270TIP3    H228006   5.477   1.918   7.953  2.3340 -1.8964 -1.2952
 1271TIP3   OH228007   6.253   4.799   7.672 -0.5456  0.3194 -0.5227
 1271TIP3    H128008   6.158   4.799   7.658 -0.8054  0.2203  1.0135
 1271TIP3    H228009   6.281   4.887   7.649 -0.8534  0.0921 -1.8363
 1272TIP3   OH228010   6.327   6.121   9.142  0.0595  0.3220  0.3125
 1272TIP3    H128011   6.409   6.090   9.104  0.1315  1.0616 -0.1603
 1272TIP3    H228012   6.333   6.217   9.137 -0.5099  0.4000  0.9617
 1273TIP3   OH228013   5.089   4.447   8.932  0.3442 -0.7929  0.2179
 1273TIP3    H128014   5.182   4.447   8.953  0.0832 -0.6141  1.4790
 1273TIP3    H228015   5.085   4.459   8.838  1.5815  0.0537  0.2545
 1274TIP3   OH228016   6.195   1.049   9.727 -0.5584 -0.1436 -0.4345
 1274TIP3    H128017   6.105   1.042   9.695 -0.9039  1.2862  0.1535
 1274TIP3    H228018   6.188   1.039   9.822 -0.1641  0.4824 -0.3350
 1275TIP3   OH228019   7.646   0.739   8.696 -0.3675 -0.4287 -0.3672
 1275TIP3    H128020   7.654   0.672   8.763 -0.6307 -0.9063 -0.8017
 1275TIP3    H228021   7.731   0.740   8.652 -0.1661 -0.0561  0.0144
 1276TIP3   OH228022   6.895   3.372   8.811 -0.3536  0.2108 -0.5873
 1276TIP3    H128023   6.930   3.409   8.730 -2.4673  2.4682 -0.5599
 1276TIP3    H228024   6.827   3.311   8.782 -0.8485  0.7308 -0.5201
 1277TIP3   OH228025   1.377   0.227   7.807 -0.0963  0.3640  0.5240
 1277TIP3    H128026   1.445   0.245   7.871  1.3819 -1.0531 -0.5369
 1277TIP3    H228027   1.422   0.180   7.737 -2.2613 -1.0853 -0.0166
 1278TIP3   OH228028   7.549   5.241   7.511  0.3069 -0.2526  0.6543
 1278TIP3    H128029   7.587   5.319   7.552 -0.3990 -0.0770  0.9950
 1278TIP3    H228030   7.577   5.246   7.420 -0.3770  0.8417  0.4733
 1279TIP3   OH228031   3.880   1.393   8.744  0.1239 -0.1199 -0.0702
 1279TIP3    H128032   3.802   1.397   8.690  0.1933  2.6419 -0.0907
 1279TIP3    H228033   3.848   1.403   8.834  0.3750 -0.0780  0.0175
 1280TIP3   OH228034   6.032   1.322   8.430  0.1243 -0.5141  0.0395
 1280TIP3    H128035   6.000   1.295   8.516  1.2974  0.9033  0.9693
 1280TIP3    H228036   6.120   1.356   8.447 -0.6715  2.4468 -1.2064
 1281TIP3   OH228037   7.151   7.196   7.928 -0.3072  0.0796 -0.3857
 1281TIP3    H128038   7.075   7.200   7.870 -0.9898 -0.1265  0.4638
 1281TIP3    H228039   7.216   7.255   7.888 -1.2876  1.0535 -0.5904
 1282TIP3   OH228040   3.232   5.721   7.641  0.4567  0.7106 -0.6673
 1282TIP3    H128041   3.320   5.756   7.651  0.5249  1.2100 -2.5967
 1282TIP3    H228042   3.235   5.634   7.682  1.0582  1.7675  1.6687
 1283TIP3   OH228043   2.672   1.104   7.904 -0.3831  0.4425 -0.0352
 1283TIP3    H128044   2.577   1.113   7.897 -0.3038  0.4273 -1.3305
 1283TIP3    H228045   2.697   1.049   7.830  0.6755  0.6790  0.1282
 1284TIP3   OH228046   2.810   5.065   7.455  0.5100  0.2716  0.5960
 1284TIP3    H128047   2.856   5.102   7.531  2.8527  0.6185 -0.8722
 1284TIP3    H228048   2.728   5.114   7.450 -1.0320 -1.5366  4.3554
 1285TIP3   OH228049   5.973   3.839   9.019  0.1682  0.2872 -0.4347
 1285TIP3    H128050   6.062   3.834   9.055  0.3787 -0.6124 -1.0538
 1285TIP3    H228051   5.946   3.748   9.010 -1.3715  0.5596  1.0646
 1286TIP3   OH228052   4.565   2.125   8.427 -0.0113  0.4325 -0.4009
 1286TIP3    H128053   4.583   2.190   8.359 -0.1483  1.0508  0.1339
 1286TIP3    H228054   4.616   2.048   8.402 -0.5955  0.4033 -1.5586
 1287TIP3   OH228055   1.862   4.751   6.678 -0.9089  0.1377 -0.7436
 1287TIP3    H128056   1.914   4.814   6.628  1.5275  0.9616  2.5396
 1287TIP3    H228057   1.887   4.666   6.643 -0.4550  0.7294 -1.9060
 1288TIP3   OH228058   7.660   7.083   9.295 -0.2236 -0.4007 -0.6870
 1288TIP3    H128059   7.743   7.073   9.343  1.0022 -0.2663 -2.6567
 1288TIP3    H228060   7.656   7.005   9.239 -1.1107 -0.0794 -1.0789
 1289TIP3   OH228061   0.990   0.327   8.997 -0.4209  0.6356 -0.3550
 1289TIP3    H128062   0.918   0.293   8.943 -0.9594  3.2050 -1.4097
 1289TIP3    H228063   1.048   0.372   8.935  0.4541  1.2477  0.8589
 1290TIP3   OH228064   3.049   6.333   8.125 -0.0307  0.2507 -0.4775
 1290TIP3    H128065   3.024   6.331   8.217 -0.3853 -0.0668 -0.5810
 1290TIP3    H228066   3.145   6.331   8.127 -0.0044 -2.5204 -0.1540
 1291TIP3   OH228067   4.973   6.290   9.721  0.4742 -0.1375 -0.3049
 1291TIP3    H128068   4.978   6.354   9.793 -2.7171 -1.1909  1.0156
 1291TIP3    H228069   4.901   6.321   9.666 -0.9649 -2.3394  0.2160
 1292TIP3   OH228070   7.579   0.421   6.931 -0.2158  0.1864  0.0254
 1292TIP3    H128071   7.568   0.327   6.945  0.7921  0.1399  0.5729
 1292TIP3    H228072   7.496   0.449   6.893 -0.8435 -0.7748  0.6379
 1293TIP3   OH228073   3.427   5.811   7.069  0.3819  0.1475 -0.1170
 1293TIP3    H128074   3.434   5.728   7.116  1.9519 -0.1546 -0.8179
 1293TIP3    H228075   3.457   5.877   7.132 -1.6566  0.3325  0.7232
 1294TIP3   OH228076   0.652   7.570   7.650 -0.4949 -0.1487 -0.1538
 1294TIP3    H128077   0.732   7.517   7.645  0.6376  1.0549  2.7703
 1294TIP3    H228078   0.581   7.506   7.653  0.5905 -1.3940  0.2677
 1295TIP3   OH228079   3.084   2.554   8.990  0.7232  0.3038 -0.0127
 1295TIP3    H128080   3.078   2.626   8.928  0.4488  1.0554  0.8584
 1295TIP3    H228081   3.137   2.588   9.062  0.6312 -0.3781  0.3939
 1296TIP3   OH228082   1.370   3.602   8.699 -0.6174  0.2277  0.2730
 1296TIP3    H128083   1.342   3.683   8.656 -0.7042 -0.1004 -0.3037
 1296TIP3    H228084   1.378   3.625   8.791 -1.7075  0.6264  0.2841
 1297TIP3   OH228085   0.388   1.728   8.848  0.1986 -0.0660  0.8715
 1297TIP3    H128086   0.474   1.687   8.846  0.0107 -0.4585  0.2512
 1297TIP3    H228087   0.400   1.811   8.801  0.3918  0.2010  1.3919
 1298TIP3   OH228088   6.738   4.823   7.425 -0.6180  0.6161  0.2363
 1298TIP3    H128089   6.760   4.907   7.466  0.8622 -0.0757  0.9144
 1298TIP3    H228090   6.714   4.847   7.335  0.5429  1.7013  0.1834
 1299TIP3   OH228091   2.165   0.809   9.009  0.2944 -0.4405  0.2233
 1299TIP3    H128092   2.114   0.860   9.072  0.4293  0.2109 -0.1854
 1299TIP3    H228093   2.218   0.873   8.963 -0.7691 -0.6980 -1.4906
 1300TIP3   OH228094   2.145   4.168   7.999 -0.5829  0.2296  0.3275
 1300TIP3    H128095   2.146   4.090   8.053 -0.3684  0.6069  0.8813
 1300TIP3    H228096   2.142   4.241   8.062  2.6443  0.7959 -0.0175
 1301TIP3   OH228097   4.891   0.823   8.654  0.1278  0.2012  0.2591
 1301TIP3    H128098   4.802   0.799   8.681  0.0500 -0.4793 -0.5705
 1301TIP3    H228099   4.935   0.847   8.736 -0.7460  0.3169  0.7056
 1302TIP3   OH228100   0.621   4.627   7.653 -0.1899 -0.6622 -0.4507
 1302TIP3    H128101   0.607   4.675   7.572 -2.0849  0.5069  0.4971
 1302TIP3    H228102   0.566   4.549   7.644 -1.4708  0.1341  0.2049
 1303TIP3   OH228103   3.316   6.231   8.103  0.3865 -0.4003 -0.0945
 1303TIP3    H128104   3.358   6.226   8.189 -1.0203 -0.6729  0.6013
 1303TIP3    H228105   3.389   6.242   8.041  1.3536  1.1524  1.2282
 1304TIP3   OH228106   1.821   5.157   8.794  0.3866  0.3093  0.4886
 1304TIP3    H128107   1.824   5.115   8.880 -2.0717 -1.7363 -0.2731
 1304TIP3    H228108   1.908   5.143   8.757  0.3587 -2.3393  1.1804
 1305TIP3   OH228109   5.949   6.619   7.126  0.3270 -0.0799  0.4853
 1305TIP3    H128110   5.872   6.598   7.179 -0.9345  2.4627 -0.1254
 1305TIP3    H228111   5.968   6.711   7.148  0.8861  0.4854 -2.0239
 1306TIP3   OH228112   7.350   2.101   8.956 -0.0198  0.5165  0.8843
 1306TIP3    H128113   7.406   2.026   8.977 -1.7044 -0.9497  0.4071
 1306TIP3    H228114   7.299   2.072   8.880 -1.0435  1.9801  0.9786
 1307TIP3   OH228115   7.311   2.880   8.262  0.4338  0.2815  0.0314
 1307TIP3    H128116   7.225   2.847   8.291 -0.3980  2.3799  0.1275
 1307TIP3    H228117   7.374   2.831   8.314 -0.7034 -1.2156  0.0700
 1308TIP3   OH228118   1.988   1.441   7.559 -0.1589 -0.4804  0.0372
 1308TIP3    H128119   2.041   1.361   7.561 -0.8937 -1.0100 -0.9166
 1308TIP3    H228120   1.961   1.454   7.650  2.5524  0.4927  0.8016
 1309TIP3   OH228121   5.709   7.362   7.350  0.0036  0.1189  0.3499
 1309TIP3    H128122   5.789   7.349   7.299 -0.8492 -0.8080 -0.8201
 1309TIP3    H228123   5.670   7.442   7.313  0.3385  0.5368  0.8799
 1310TIP3   OH228124   4.900   7.453   8.195  0.4390  0.4739  0.4435
 1310TIP3    H128125   4.953   7.484   8.122  0.4064 -0.5016 -0.0046
 1310TIP3    H228126   4.876   7.363   8.172 -2.0245  1.1067  0.2952
 1311TIP3   OH228127   5.362   2.801   7.199  0.1009  0.7347 -0.5005
 1311TIP3    H128128   5.342   2.877   7.144  1.5701  1.6280  0.1356
 1311TIP3    H228129   5.417   2.745   7.144 -1.9929 -0.5538 -1.4135
 1312TIP3   OH228130   6.488   1.161   8.929 -0.3958  0.3344 -0.3625
 1312TIP3    H128131   6.473   1.084   8.874 -1.4648  0.3663 -0.1312
 1312TIP3    H228132   6.568   1.140   8.978 -1.0080 -0.9076  0.1543
 1313TIP3   OH228133   7.055   4.882   8.300 -0.5506 -0.1756 -0.1104
 1313TIP3    H128134   6.982   4.924   8.254 -1.6990 -2.8778 -0.9747
 1313TIP3    H228135   7.024   4.871   8.390 -1.3818 -1.5272 -0.5300
 1314TIP3   OH228136   1.628   2.802   7.016  0.0525 -0.1244  0.6593
 1314TIP3    H128137   1.677   2.865   7.069 -0.8406  0.0478  1.2976
 1314TIP3    H228138   1.593   2.853   6.943  1.5535 -0.4244 -0.3086
 1315TIP3   OH228139   0.347   6.814   7.995  0.1176 -0.8697  0.5024
 1315TIP3    H128140   0.260   6.777   7.982  0.2451 -0.9507 -0.1261
 1315TIP3    H228141   0.371   6.788   8.084 -0.2583 -1.3323  0.4714
 1316TIP3   OH228142   6.174   0.438   7.912 -0.1723 -0.3238  0.5161
 1316TIP3    H128143   6.128   0.517   7.939  2.4002  1.3020  0.5556
 1316TIP3    H228144   6.144   0.422   7.822 -0.5825  0.8473  0.4261
 1317TIP3   OH228145   0.065   4.622   8.720  0.5425  0.4550  0.3052
 1317TIP3    H128146   0.120   4.660   8.789 -0.6828  1.7433  0.6173
 1317TIP3    H228147   0.123   4.614   8.644  1.1232  1.9908  0.5520
 1318TIP3   OH228148   7.461   0.070   8.683  0.0323 -0.3201  0.5900
 1318TIP3    H128149   7.432   0.020   8.759 -4.6679  1.4914  0.3355
 1318TIP3    H228150   7.451   0.010   8.609  1.4358 -1.0796  0.9860
 1319TIP3   OH228151   4.699   6.506   8.689  0.5268 -0.4107 -0.1614
 1319TIP3    H128152   4.722   6.538   8.602 -0.4702 -0.5046 -0.4730
 1319TIP3    H228153   4.734   6.417   8.692  1.5024 -0.0376 -0.0543
 1320TIP3   OH228154   2.057   4.056   8.449 -0.5056 -0.3658 -0.5341
 1320TIP3    H128155   2.146   4.091   8.446 -0.8714  0.7651  0.6503
 1320TIP3    H228156   2.024   4.082   8.536 -2.3221  0.1453 -1.3202
 1321TIP3   OH228157   0.170   5.775   7.253 -0.4585  0.0733 -0.3493
 1321TIP3    H128158   0.244   5.797   7.196 -0.4372 -0.1355 -0.4021
 1321TIP3    H228159   0.125   5.858   7.266  1.0950  0.6906  1.5643
 1322TIP3   OH228160   0.083   3.511   8.244 -0.1884 -0.0964  0.1263
 1322TIP3    H128161   0.141   3.514   8.168  0.3731  0.2039  0.5517
 1322TIP3    H228162   0.086   3.420   8.273 -0.3474 -0.1952 -0.1691
 1323TIP3   OH228163   1.656   1.622   6.791  0.2575  0.4999 -0.3629
 1323TIP3    H128164   1.624   1.697   6.841 -1.5181 -1.5365  1.7924
 1323TIP3    H228165   1.607   1.624   6.709 -0.7149  0.9980  0.2253
 1324TIP3   OH228166   6.847   5.730   8.666  0.0801 -0.2065 -0.1786
 1324TIP3    H128167   6.932   5.749   8.626 -0.3565  0.8329 -0.6512
 1324TIP3    H228168   6.834   5.802   8.728 -0.1961 -0.6837  0.3226
 1325TIP3   OH228169   3.354   7.366   7.283 -0.0389  0.1055  0.1136
 1325TIP3    H128170   3.285   7.312   7.245  0.1685 -0.0478 -0.0457
 1325TIP3    H228171   3.365   7.439   7.222 -0.7861  0.6998  0.6617
 1326TIP3   OH228172   7.485   7.521   7.018  0.9425  0.3506 -0.6983
 1326TIP3    H128173   7.501   7.612   6.994 -2.4548  1.4731  0.7815
 1326TIP3    H228174   7.455   7.480   6.936  1.9617  0.6333 -1.2394
 1327TIP3   OH228175   1.194   2.645   9.346  0.3417 -0.4611 -0.1620
 1327TIP3    H128176   1.188   2.659   9.252  0.4123  1.1108  0.0407
 1327TIP3    H228177   1.106   2.618   9.372 -0.0094  0.3233 -0.5068
 1328TIP3   OH228178   2.471   4.861   7.821  0.5406 -0.2306 -0.6256
 1328TIP3    H128179   2.470   4.901   7.908 -1.7821  1.5089 -1.3556
 1328TIP3    H228180   2.464   4.767   7.839 -0.1284  0.1027  1.0761
 1329TIP3   OH228181   7.513   3.384   7.992  0.5842 -0.8395  0.2307
 1329TIP3    H128182   7.597   3.343   8.016  1.0922  0.4514  0.7919
 1329TIP3    H228183   7.500   3.451   8.060 -1.7232 -2.0656  1.1055
 1330TIP3   OH228184   4.214   4.005   8.326 -0.4895  0.0261  0.8208
 1330TIP3    H128185   4.223   3.935   8.261  1.8120  0.8263  0.1830
 1330TIP3    H228186   4.238   4.085   8.278  1.1622  0.6622  2.5937
 1331TIP3   OH228187   0.890   1.817   8.178 -0.4165 -0.3496 -0.2890
 1331TIP3    H128188   0.889   1.810   8.273  0.0935  1.4475 -0.1054
 1331TIP3    H228189   0.805   1.856   8.156  0.2799  1.2133 -0.3317
 1332TIP3   OH228190   5.621   0.446   8.160 -0.1067  0.2191  0.0234
 1332TIP3    H128191   5.569   0.375   8.198 -0.9586  0.2182 -1.1023
 1332TIP3    H228192   5.556   0.506   8.124  0.4009  3.1953  3.5775
 1333TIP3   OH228193   0.009   3.675   8.996 -0.0529  0.0879  0.2142
 1333TIP3    H128194   0.069   3.609   9.030 -1.8461 -0.8260  1.7935
 1333TIP3    H228195  -0.021   3.723   9.074 -1.8818  0.0213 -0.3959
 1334TIP3   OH228196   1.277   3.897   7.924  0.0463 -0.4318  0.7481
 1334TIP3    H128197   1.358   3.944   7.944  0.9812 -2.3087  1.7080
 1334TIP3    H228198   1.297   3.850   7.843 -0.5139  0.0143  0.3459
 1335TIP3   OH228199   6.654   2.171   8.897  0.2573 -0.4583 -0.5480
 1335TIP3    H128200   6.739   2.216   8.894  0.2330 -0.2858  0.7126
 1335TIP3    H228201   6.675   2.082   8.927 -0.0335 -0.3020  0.1431
 1336TIP3   OH228202   1.327   6.608   8.008 -0.0661  0.1743  0.2335
 1336TIP3    H128203   1.378   6.680   8.045 -0.3240  0.2109  0.5208
 1336TIP3    H228204   1.263   6.587   8.076 -0.2333 -0.0766 -0.0012
 1337TIP3   OH228205   2.745   1.348   8.389  0.3017 -0.0364  0.4501
 1337TIP3    H128206   2.669   1.370   8.443  0.5576  0.2379  0.7000
 1337TIP3    H228207   2.716   1.274   8.336  0.2585 -0.7356  1.4323
 1338TIP3   OH228208   2.095   1.662   6.544 -0.1548 -0.3492  0.5718
 1338TIP3    H128209   2.180   1.662   6.588 -0.7282 -1.2341  1.7490
 1338TIP3    H228210   2.046   1.592   6.587 -1.3476 -0.1190 -0.3514
 1339TIP3   OH228211   6.223   0.715   7.710  0.0798  0.0678 -0.1375
 1339TIP3    H128212   6.149   0.664   7.678 -0.1977 -0.0006  0.5823
 1339TIP3    H228213   6.185   0.796   7.743 -0.1986 -1.2604  3.2719
 1340TIP3   OH228214   4.516   4.699   9.508  0.3833  0.1440 -0.2285
 1340TIP3    H128215   4.426   4.673   9.485  0.3714 -0.3650  0.3538
 1340TIP3    H228216   4.571   4.643   9.454  0.3512  0.1069 -0.2233
 1341TIP3   OH228217   2.902   4.945   7.123  0.1677 -0.0411 -0.5823
 1341TIP3    H128218   2.912   4.941   7.028 -1.1979 -3.0008 -0.6986
 1341TIP3    H228219   2.932   4.860   7.154 -0.1903  0.5581  1.5494
 1342TIP3   OH228220   2.067   4.422   8.532  0.1976 -0.1279  0.4646
 1342TIP3    H128221   2.157   4.409   8.560  0.1368  1.3150  1.4504
 1342TIP3    H228222   2.072   4.431   8.436  0.7264 -2.5704  0.1942
 1343TIP3   OH228223   2.266   3.792   7.769  0.2018  0.4279  0.2770
 1343TIP3    H128224   2.189   3.840   7.802 -1.3001  0.1274 -2.4741
 1343TIP3    H228225   2.244   3.700   7.783 -0.2289  0.3203 -0.9651
 1344TIP3   OH228226   4.260   7.651   9.797  0.6414 -0.7296  0.1385
 1344TIP3    H128227   4.289   7.606   9.876  0.0323  1.9314  2.0165
 1344TIP3    H228228   4.179   7.607   9.772  0.1882 -0.8793  1.7640
 1345TIP3   OH228229   3.052   7.068   9.209 -0.2413  0.6232  0.1678
 1345TIP3    H128230   2.998   7.104   9.279  0.4561  2.5144 -0.2028
 1345TIP3    H228231   3.015   7.104   9.129  0.1335  0.0181 -0.2879
 1346TIP3   OH228232   7.120   4.047   9.416  0.3387 -0.2043 -0.1091
 1346TIP3    H128233   7.112   4.093   9.332 -0.5405 -0.6456 -0.2816
 1346TIP3    H228234   7.052   4.086   9.471 -0.2821 -1.1487 -0.1926
 1347TIP3   OH228235   5.359   2.588   8.875 -0.8154 -0.0886 -0.5360
 1347TIP3    H128236   5.411   2.514   8.845 -1.4015 -0.8327  0.2249
 1347TIP3    H228237   5.409   2.665   8.850 -1.2521 -0.6311 -3.3921
 1348TIP3   OH228238   6.347   6.922   7.452  0.3764 -0.0960  0.5383
 1348TIP3    H128239   6.349   6.978   7.374 -1.0813  0.2480  0.7126
 1348TIP3    H228240   6.382   6.838   7.423  1.4939  0.5533 -0.0326
 1349TIP3   OH228241   1.443   7.166   8.065  0.1846 -0.2573 -0.1578
 1349TIP3    H128242   1.420   7.202   8.151  0.5753 -0.5186  0.0607
 1349TIP3    H228243   1.482   7.081   8.085 -1.2917 -1.0942 -0.7061
 1350TIP3   OH228244   4.331   4.329   7.352  0.3177  0.1638  0.2848
 1350TIP3    H128245   4.387   4.376   7.290 -0.2718  0.1793 -0.2459
 1350TIP3    H228246   4.243   4.362   7.335 -0.2799 -1.8327 -0.7982
 1351TIP3   OH228247   0.246   0.140   9.252  0.3975 -0.3084  0.2428
 1351TIP3    H128248   0.192   0.199   9.305 -1.3101 -0.5440 -1.1534
 1351TIP3    H228249   0.185   0.076   9.217  1.9902 -2.0907  0.5473
 1352TIP3   OH228250   4.799   7.172   7.790  0.0799 -0.2901  0.5119
 1352TIP3    H128251   4.794   7.079   7.767 -2.3137 -0.5325  1.7148
 1352TIP3    H228252   4.785   7.175   7.884 -1.6608  1.3797  0.2541
 1353TIP3   OH228253   4.417   6.117   7.272 -0.0167 -0.3716  0.2267
 1353TIP3    H128254   4.384   6.174   7.342 -0.0149  0.8628 -0.7528
 1353TIP3    H228255   4.482   6.062   7.316 -1.0971 -0.6914  1.5163
 1354TIP3   OH228256   0.250   4.725   8.919  0.2727  0.1054  0.3477
 1354TIP3    H128257   0.317   4.767   8.865 -1.7968  0.5654 -2.0910
 1354TIP3    H228258   0.226   4.791   8.984  3.6134 -0.8516  2.8472
 1355TIP3   OH228259   2.413   5.256   7.006  0.2016  0.6660 -0.4311
 1355TIP3    H128260   2.394   5.261   6.913 -1.0813 -1.1451 -0.3169
 1355TIP3    H228261   2.377   5.337   7.042 -2.3094 -0.0692 -1.0870
 1356TIP3   OH228262   4.048   1.320   6.912 -0.6346  0.2158 -0.3905
 1356TIP3    H128263   3.997   1.239   6.921  0.2089 -0.5936 -2.3216
 1356TIP3    H228264   3.982   1.388   6.899 -1.3758 -0.0519  1.6084
 1357TIP3   OH228265   5.512   3.554   6.555 -0.3026  0.1824  0.3142
 1357TIP3    H128266   5.603   3.530   6.572 -0.2503 -0.0138 -0.2376
 1357TIP3    H228267   5.506   3.560   6.460 -1.0304 -0.4261  0.3207
 1358TIP3   OH228268   4.571   7.307   8.080 -0.2632  0.1119 -0.3505
 1358TIP3    H128269   4.506   7.239   8.097 -0.5590  0.0466 -1.6542
 1358TIP3    H228270   4.654   7.269   8.107 -0.6034 -0.2504  0.2016
 1359TIP3   OH228271   2.945   5.511   9.377  0.1485  0.4614 -0.4311
 1359TIP3    H128272   2.985   5.578   9.432 -0.5664  0.6727 -0.1565
 1359TIP3    H228273   3.019   5.471   9.331  0.7978  0.0486  0.9202
 1360TIP3   OH228274   4.080   2.811   7.284  0.3471  0.7725  0.3763
 1360TIP3    H128275   4.013   2.744   7.279  0.6673  0.0936  3.2784
 1360TIP3    H228276   4.098   2.835   7.193 -2.3958 -0.3946 -0.5585
 1361TIP3   OH228277   2.269   4.661   6.327 -0.2111 -0.3431 -0.2275
 1361TIP3    H128278   2.294   4.649   6.418  1.4637 -1.1642 -0.7488
 1361TIP3    H228279   2.255   4.572   6.294 -2.0770  0.0037 -0.4614
 1362TIP3   OH228280   5.125   3.788   8.559  0.2647  0.2090 -0.1025
 1362TIP3    H128281   5.145   3.701   8.525  0.7332  0.5040 -0.6014
 1362TIP3    H228282   5.055   3.774   8.622 -1.7382 -0.1950 -2.2843
 1363TIP3   OH228283   4.923   1.723   8.500  0.1765 -0.4996  0.5287
 1363TIP3    H128284   5.007   1.681   8.519 -1.7159 -3.9004  2.3434
 1363TIP3    H228285   4.864   1.651   8.480 -2.1979  1.8070 -1.5870
 1364TIP3   OH228286   7.548   0.176   7.687 -0.2392 -0.3931 -0.2608
 1364TIP3    H128287   7.588   0.101   7.732 -0.9524 -1.0112 -0.6235
 1364TIP3    H228288   7.523   0.236   7.757 -0.3215 -0.8377  0.0950
 1365TIP3   OH228289   1.172   0.432   8.057 -0.0612  0.2819 -0.2291
 1365TIP3    H128290   1.129   0.348   8.039  1.0381 -0.2167 -0.6815
 1365TIP3    H228291   1.142   0.490   7.987  0.1575 -0.1202 -0.6637
 1366TIP3   OH228292   6.628   5.766   8.389  0.7099  0.0753 -0.0656
 1366TIP3    H128293   6.555   5.705   8.402  0.1463  0.5100 -1.0418
 1366TIP3    H228294   6.671   5.735   8.309  1.2931  0.1284  0.2202
 1367TIP3   OH228295   3.208   3.835   8.894 -0.0075  0.3518 -0.2690
 1367TIP3    H128296   3.160   3.800   8.818  2.4296  0.8439 -2.1685
 1367TIP3    H228297   3.260   3.761   8.925 -1.7122 -0.1279  1.6614
 1368TIP3   OH228298   7.191   0.447   7.761 -0.0936  0.2280  0.0423
 1368TIP3    H128299   7.237   0.526   7.789 -0.7311  1.0108 -1.0248
 1368TIP3    H228300   7.227   0.429   7.674 -0.4449 -0.2670 -0.0010
 1369TIP3   OH228301   4.315   5.871   6.491 -0.1739 -0.2453 -0.0417
 1369TIP3    H128302   4.287   5.912   6.573 -0.9122  0.5484 -0.6679
 1369TIP3    H228303   4.311   5.777   6.508  0.1728 -0.0905  0.9819
 1370TIP3   OH228304   6.848   4.974   9.097 -0.2546 -0.1515 -0.3269
 1370TIP3    H128305   6.852   5.068   9.079 -0.0404  0.1162  1.0060
 1370TIP3    H228306   6.900   4.934   9.027 -0.1860  0.7395 -0.7983
 1371TIP3   OH228307   4.448   0.190   7.096  0.0757 -0.4963 -0.0556
 1371TIP3    H128308   4.452   0.251   7.170  0.0481  1.0222 -1.2612
 1371TIP3    H228309   4.539   0.176   7.070 -0.0065  0.8967 -1.2154
 1372TIP3   OH228310   4.844   3.913   6.876  0.0485 -0.0271 -0.0285
 1372TIP3    H128311   4.809   3.997   6.846 -0.2823  0.3705  1.3892
 1372TIP3    H228312   4.936   3.914   6.849 -0.1511  0.4356 -0.7119
 1373TIP3   OH228313   4.560   7.527   6.914  0.4688  0.4324 -0.0760
 1373TIP3    H128314   4.552   7.484   6.999  0.2030 -1.2850 -0.9213
 1373TIP3    H228315   4.480   7.578   6.905  0.3187  0.3069  0.5420
 1374TIP3   OH228316   4.208   4.169   9.539 -0.1396 -0.3910 -0.0602
 1374TIP3    H128317   4.254   4.152   9.457  0.0044  0.0981 -0.0837
 1374TIP3    H228318   4.267   4.225   9.588 -0.1067 -0.8978  0.4960
 1375TIP3   OH228319   0.337   2.925   8.581  0.1791  0.3422 -0.0049
 1375TIP3    H128320   0.364   3.003   8.532  0.5175  1.1666  1.4305
 1375TIP3    H228321   0.306   2.959   8.665 -0.3283 -1.0244  0.3878
 1376TIP3   OH228322   5.815   5.179   9.680  0.0203 -0.3981 -0.1397
 1376TIP3    H128323   5.886   5.126   9.716  0.5799  1.3219  1.4378
 1376TIP3    H228324   5.735   5.144   9.719  0.4499  0.2816  1.4051
 1377TIP3   OH228325   7.229   4.891   7.959  0.0224 -0.4302 -0.0269
 1377TIP3    H128326   7.214   4.798   7.944 -0.6988 -0.1674 -1.1569
 1377TIP3    H228327   7.323   4.899   7.970  0.0070 -1.3937  0.9666
 1378TIP3   OH228328   7.538   6.083   8.692 -0.1668  0.1944 -0.3003
 1378TIP3    H128329   7.573   6.137   8.621 -1.1179  1.1536 -0.0707
 1378TIP3    H228330   7.480   6.142   8.740 -0.4761 -0.7799  0.5469
 1379TIP3   OH228331   7.662   4.851   9.674 -0.1062 -0.1267 -0.0203
 1379TIP3    H128332   7.699   4.868   9.588 -1.3479 -0.2152 -0.5901
 1379TIP3    H228333   7.712   4.907   9.733  0.3303  0.4219 -0.8936
 1380TIP3   OH228334   0.580   3.656   7.027 -0.2174  0.1917 -0.1987
 1380TIP3    H128335   0.514   3.599   6.988 -0.6615  0.6197 -0.0740
 1380TIP3    H228336   0.592   3.727   6.964  1.3465 -0.7332 -1.0077
 1381TIP3   OH228337   0.585   1.341   8.669 -0.0479  0.3225 -0.4568
 1381TIP3    H128338   0.505   1.288   8.666  0.3078 -0.1794 -1.2425
 1381TIP3    H228339   0.625   1.318   8.753 -0.7379  0.6059 -0.0356
 1382TIP3   OH228340   1.718   5.281   8.116 -0.2627  0.1627  0.0673
 1382TIP3    H128341   1.695   5.234   8.036  2.5427 -1.5589  0.1126
 1382TIP3    H228342   1.706   5.218   8.186  0.1377  0.6887  0.6255
 1383TIP3   OH228343   1.201   1.812   8.599 -0.3338  0.5632 -0.6315
 1383TIP3    H128344   1.180   1.740   8.539 -0.9315  0.3962 -0.2291
 1383TIP3    H228345   1.144   1.797   8.675  2.0540 -0.5894  1.0705
 1384TIP3   OH228346   1.341   1.669   8.187  0.0498 -0.7752  0.1607
 1384TIP3    H128347   1.368   1.753   8.149 -1.6930 -0.6833 -1.0142
 1384TIP3    H228348   1.255   1.652   8.148 -0.7890 -1.8785  2.3168
 1385TIP3   OH228349   3.722   2.223   8.094 -0.5509 -0.1407 -0.5581
 1385TIP3    H128350   3.795   2.212   8.155  0.8063  1.2152 -1.8549
 1385TIP3    H228351   3.751   2.180   8.014 -1.3538  0.0629 -0.9692
 1386TIP3   OH228352   3.269   0.628   8.859  0.1222 -0.2171 -0.6065
 1386TIP3    H128353   3.266   0.722   8.878  0.6572 -0.4212  0.5854
 1386TIP3    H228354   3.215   0.588   8.926  3.5233 -1.1299  1.8523
 1387TIP3   OH228355   1.591   0.074   9.013  0.1056 -0.8977 -0.9570
 1387TIP3    H128356   1.646   0.003   8.981 -0.8196 -2.5438  0.8327
 1387TIP3    H228357   1.527   0.030   9.071 -0.2657  1.4305  0.5413
 1388TIP3   OH228358   3.500   0.154   8.791  0.3540  0.5153  0.1473
 1388TIP3    H128359   3.436   0.223   8.774  0.3323  0.1947 -1.1736
 1388TIP3    H228360   3.581   0.202   8.810  0.0444  0.9075  0.5165
 1389TIP3   OH228361   6.390   4.988   6.874 -0.4887  0.2948  0.1991
 1389TIP3    H128362   6.382   4.894   6.857 -0.8041  0.6024 -1.6640
 1389TIP3    H228363   6.483   5.008   6.860 -0.5125  0.3258  0.0745
 1390TIP3   OH228364   4.069   1.248   9.361  0.2341  1.0832 -0.3341
 1390TIP3    H128365   3.985   1.291   9.379  0.6431  1.6783  0.2067
 1390TIP3    H228366   4.066   1.168   9.414 -0.2361  0.7848 -0.7948
 1391TIP3   OH228367   7.571   2.755   7.169  0.3344 -0.2707 -0.2492
 1391TIP3    H128368   7.664   2.760   7.147 -0.0219 -0.5625 -1.9203
 1391TIP3    H228369   7.569   2.763   7.264  1.9336  1.3639 -0.3009
 1392TIP3   OH228370   0.175   7.169   8.692  0.2094  0.0093  0.5407
 1392TIP3    H128371   0.083   7.190   8.710  0.3896  0.0999  1.3738
 1392TIP3    H228372   0.195   7.219   8.612 -0.5897 -0.3720  0.0910
 1393TIP3   OH228373   5.022   6.060   9.615 -0.0861 -0.0951  0.4269
 1393TIP3    H128374   5.028   6.142   9.664  0.3844 -1.6455  3.1472
 1393TIP3    H228375   4.949   6.014   9.655 -2.4844  0.1564 -3.1548
 1394TIP3   OH228376   4.750   0.331   8.777 -0.0182  0.1290 -0.5553
 1394TIP3    H128377   4.726   0.422   8.793  1.4065  0.7428 -1.6803
 1394TIP3    H228378   4.679   0.280   8.816 -0.5706  1.6950  0.5770
 1395TIP3   OH228379   2.364   7.564   7.737 -0.3160 -0.6635  0.6241
 1395TIP3    H128380   2.395   7.644   7.780 -0.6956 -0.1352 -0.0644
 1395TIP3    H228381   2.284   7.540   7.785 -0.9908  0.1803 -0.0637
 1396TIP3   OH228382   0.776   5.271   7.451 -0.2282 -0.1482 -0.1562
 1396TIP3    H128383   0.811   5.273   7.362 -0.1902  1.6506 -0.1333
 1396TIP3    H228384   0.683   5.254   7.440 -0.4322  1.1951 -0.6316
 1397TIP3   OH228385   4.957   6.043   7.046 -0.0483 -0.4146  0.3600
 1397TIP3    H128386   5.034   6.100   7.050 -0.6269  0.3231  3.1250
 1397TIP3    H228387   4.927   6.049   6.956  2.6400 -0.1052 -0.5939
 1398TIP3   OH228388   0.146   7.503   9.450 -0.2243 -0.8081 -0.5099
 1398TIP3    H128389   0.123   7.596   9.451 -1.0503 -0.9998  0.6595
 1398TIP3    H228390   0.237   7.501   9.422  0.2938  0.4948  0.9041
 1399TIP3   OH228391   5.989   1.061   9.379 -0.2749  0.3195  0.2294
 1399TIP3    H128392   6.033   0.981   9.408 -0.5917 -0.0905 -0.3769
 1399TIP3    H228393   6.000   1.123   9.451 -2.2190 -1.0964  1.8790
 1400TIP3   OH228394   4.555   2.869   6.976  1.0608 -0.5857  0.3520
 1400TIP3    H128395   4.606   2.879   6.895  1.1904 -1.3707  0.3318
 1400TIP3    H228396   4.548   2.958   7.010 -0.7370  0.0839 -1.5635
 1401TIP3   OH228397   0.233   3.290   7.413  0.1509  0.2389 -0.3500
 1401TIP3    H128398   0.258   3.331   7.496 -0.8986  2.1588 -0.9236
 1401TIP3    H228399   0.314   3.290   7.361 -0.0158  2.7276 -0.7386
 1402TIP3   OH228400   2.968   4.854   7.528 -0.1788 -0.0876 -0.0868
 1402TIP3    H128401   2.903   4.913   7.492 -1.6123 -1.0994  0.7322
 1402TIP3    H228402   2.935   4.766   7.508 -0.3726 -0.6654  2.4077
 1403TIP3   OH228403   0.774   0.698   7.861 -0.0490 -0.1956 -0.0896
 1403TIP3    H128404   0.795   0.771   7.803  1.0504 -0.3572  0.0847
 1403TIP3    H228405   0.855   0.646   7.864 -0.5948 -1.0405  0.3376
 1404TIP3   OH228406   2.382   5.703   8.803  0.8066  0.5487  0.8000
 1404TIP3    H128407   2.431   5.622   8.785 -0.3225  0.1399 -0.6310
 1404TIP3    H228408   2.290   5.678   8.789  0.0955  1.2042  3.6886
 1405TIP3   OH228409   1.225   6.759   9.611  0.3077  0.1589  0.0045
 1405TIP3    H128410   1.308   6.773   9.566 -0.4683  0.3745 -1.4224
 1405TIP3    H228411   1.195   6.674   9.580 -0.4627  0.5091 -0.2376
 1406TIP3   OH228412   0.718   0.127   8.503 -0.0271  0.3873  0.1526
 1406TIP3    H128413   0.662   0.064   8.548 -0.6705  2.4655  2.4455
 1406TIP3    H228414   0.659   0.175   8.444  0.0023  0.3951  0.1290
 1407TIP3   OH228415   2.587   1.135   8.268  0.4572  0.1207 -0.3416
 1407TIP3    H128416   2.512   1.126   8.209 -1.0726  1.6841  1.2321
 1407TIP3    H228417   2.664   1.120   8.213 -0.9407  0.2508 -2.4157
 1408TIP3   OH228418   4.943   1.162   9.417  0.0603 -0.5740 -0.2417
 1408TIP3    H128419   4.867   1.105   9.434  1.8380 -3.0095  0.1269
 1408TIP3    H228420   4.905   1.249   9.405 -2.7228 -1.5428  0.5954
 1409TIP3   OH228421   4.025   4.709   8.286 -0.1845 -0.5794  0.7032
 1409TIP3    H128422   3.958   4.643   8.266 -1.0762  0.6522 -0.5726
 1409TIP3    H228423   4.090   4.662   8.339 -0.5852 -2.5920 -0.4763
 1410TIP3   OH228424   7.083   2.361   6.976  0.4706  1.0709  0.5154
 1410TIP3    H128425   7.097   2.313   6.894 -0.7101  0.6677  0.5377
 1410TIP3    H228426   7.036   2.440   6.949  0.4236  1.1253  0.7571
 1411TIP3   OH228427   2.128   4.398   9.718 -0.2589 -0.4594  0.2922
 1411TIP3    H128428   2.132   4.311   9.678 -0.3694  0.0672 -0.8888
 1411TIP3    H228429   2.088   4.383   9.804 -2.1742 -1.3033 -0.6907
 1412TIP3   OH228430   6.276   2.031   8.310 -0.0917  0.3437  0.0464
 1412TIP3    H128431   6.261   1.977   8.388  1.3002 -1.4703 -0.8488
 1412TIP3    H228432   6.371   2.032   8.300 -0.2049  1.2481 -1.1693
 1413TIP3   OH228433   4.806   2.373   7.764 -0.5464  0.2084  0.5056
 1413TIP3    H128434   4.819   2.379   7.859 -0.8171  2.6911  0.4537
 1413TIP3    H228435   4.792   2.280   7.747  1.1714 -0.5046  2.6640
 1414TIP3   OH228436   2.927   4.070   8.568 -0.2051  0.0606 -0.0377
 1414TIP3    H128437   2.861   4.013   8.528  0.0551  0.1227 -0.5684
 1414TIP3    H228438   3.001   4.012   8.587 -0.5636 -0.0937  0.9541
 1415TIP3   OH228439   2.358   6.234   9.240  0.6431 -0.1674 -0.2236
 1415TIP3    H128440   2.344   6.141   9.259  0.5669  0.0529  0.8557
 1415TIP3    H228441   2.277   6.262   9.197  1.6432 -1.1831 -2.9782
 1416TIP3   OH228442   2.517   2.498   8.490 -0.2442 -0.0135  0.4905
 1416TIP3    H128443   2.487   2.585   8.514  2.2396  0.4481  2.2396
 1416TIP3    H228444   2.471   2.439   8.550 -2.1796 -0.0211 -0.9127
 1417TIP3   OH228445   6.259   3.568   8.748 -0.3130  0.1959 -0.2699
 1417TIP3    H128446   6.317   3.641   8.773  2.2577 -1.3230 -1.4388
 1417TIP3    H228447   6.297   3.492   8.791 -2.7591 -0.6014  0.6501
 1418TIP3   OH228448   7.463   6.414   6.751  0.3153  0.1653 -0.1895
 1418TIP3    H128449   7.448   6.320   6.762  1.7261 -0.0243  0.3019
 1418TIP3    H228450   7.426   6.453   6.831 -0.6508  0.0889 -0.5854
 1419TIP3   OH228451   6.596   7.065   8.032  0.1429 -0.3317 -0.4766
 1419TIP3    H128452   6.541   6.991   8.059 -1.3509  0.4549 -1.1875
 1419TIP3    H228453   6.535   7.139   8.026  1.2894  0.5838 -1.3572
 1420TIP3   OH228454   2.677   5.265   8.877 -0.5431  0.3249  0.0316
 1420TIP3    H128455   2.708   5.177   8.900 -0.6321  0.0044 -1.0166
 1420TIP3    H228456   2.757   5.319   8.876 -0.4756  0.2418  0.5786
 1421TIP3   OH228457   6.873   1.910   7.422 -0.0930 -0.4253 -0.7042
 1421TIP3    H128458   6.890   1.955   7.340  0.4050 -0.1762 -0.4676
 1421TIP3    H228459   6.944   1.937   7.480  0.5522 -1.9669 -0.7321
 1422TIP3   OH228460   4.296   5.173   8.334  0.1785  0.5447  0.2403
 1422TIP3    H128461   4.370   5.166   8.274 -0.4628  1.0312 -0.6360
 1422TIP3    H228462   4.245   5.248   8.301 -0.4225  0.5534  1.1379
 1423TIP3   OH228463   4.265   2.947   8.825  0.5051  0.1236 -0.1730
 1423TIP3    H128464   4.276   2.946   8.730  1.1301  1.2706 -0.1316
 1423TIP3    H228465   4.171   2.957   8.838  0.3800 -0.3696 -0.6629
 1424TIP3   OH228466   3.932   0.192   8.775 -0.3734 -0.3799  0.2811
 1424TIP3    H128467   3.863   0.227   8.719 -0.2716  1.5242  1.2613
 1424TIP3    H228468   3.962   0.267   8.826  0.5234 -1.7306  1.8540
 1425TIP3   OH228469   2.506   4.181   6.900  0.0270 -0.3751 -0.0789
 1425TIP3    H128470   2.508   4.127   6.979  1.4870 -0.1926  0.0372
 1425TIP3    H228471   2.461   4.262   6.928  2.2054  0.4896  1.1437
 1426TIP3   OH228472   0.841   7.344   8.954 -0.4864  0.1585 -0.6323
 1426TIP3    H128473   0.802   7.373   8.872  1.6993 -0.0526 -1.8328
 1426TIP3    H228474   0.820   7.250   8.959 -2.1801  0.5473  0.0259
 1427TIP3   OH228475   7.376   3.870   7.574 -0.1080 -0.1029  0.1750
 1427TIP3    H128476   7.456   3.839   7.616 -0.6705 -0.2494  1.1613
 1427TIP3    H228477   7.353   3.800   7.513  1.6860  0.8888 -1.7632
 1428TIP3   OH228478   5.568   2.797   8.877  0.2218 -0.1424  0.3808
 1428TIP3    H128479   5.617   2.819   8.956  0.0041 -2.4136  1.2350
 1428TIP3    H228480   5.627   2.815   8.805 -0.2051  3.7944  0.8104
 1429TIP3   OH228481   2.794   7.445   8.568  0.3930  0.2570 -0.0359
 1429TIP3    H128482   2.814   7.366   8.518  0.5238  1.0334 -1.2488
 1429TIP3    H228483   2.726   7.489   8.517  0.0320  0.7248  0.8370
 1430TIP3   OH228484   4.587   4.520   6.692  0.1180 -0.1197  0.6734
 1430TIP3    H128485   4.577   4.572   6.613  2.7522 -0.7453 -0.1797
 1430TIP3    H228486   4.599   4.585   6.762 -2.0150  0.4297  0.6053
 1431TIP3   OH228487   6.918   3.931   8.138 -0.2292 -0.5152 -0.2757
 1431TIP3    H128488   6.920   4.027   8.132  1.2386 -0.3749  1.6540
 1431TIP3    H228489   6.843   3.912   8.194 -0.5695 -0.4995 -0.7252
 1432TIP3   OH228490   5.805   0.536   8.434  0.1160  0.8158 -0.6140
 1432TIP3    H128491   5.883   0.517   8.382  0.6400  1.2080  0.0053
 1432TIP3    H228492   5.781   0.626   8.410 -0.1119  0.7128 -0.7673
 1433TIP3   OH228493   0.465   4.861   8.801 -0.2416  0.0572  0.2294
 1433TIP3    H128494   0.505   4.852   8.714 -0.4863 -0.3340  0.1550
 1433TIP3    H228495   0.484   4.951   8.826 -0.8570  0.4249 -0.5748
 1434TIP3   OH228496   4.600   2.255   8.198 -0.1312 -0.2427 -0.0857
 1434TIP3    H128497   4.632   2.340   8.229  0.3923 -0.4793  0.0422
 1434TIP3    H228498   4.560   2.274   8.113  0.6683  0.0206 -0.4224
 1435TIP3   OH228499   7.496   4.149   7.854 -0.2024  0.5836  0.9207
 1435TIP3    H128500   7.575   4.109   7.818 -0.7141 -0.4538  0.9177
 1435TIP3    H228501   7.495   4.122   7.946 -1.3720 -0.7567  0.5395
 1436TIP3   OH228502   4.871   5.817   9.689 -0.0882  0.0488  0.2099
 1436TIP3    H128503   4.933   5.746   9.676  0.1353  0.1475  0.7172
 1436TIP3    H228504   4.801   5.800   9.625 -0.1601 -0.7647  0.5023
 1437TIP3   OH228505   0.047   0.225   8.237  0.3388  0.1680  0.4293
 1437TIP3    H128506   0.095   0.231   8.320 -0.1195  0.8096  0.6524
 1437TIP3    H228507  -0.044   0.244   8.260  0.4482  2.0536 -0.4618
 1438TIP3   OH228508   6.113   1.382   7.533  0.3311  0.5741 -0.2445
 1438TIP3    H128509   6.185   1.440   7.508 -0.0453  0.8636 -0.6684
 1438TIP3    H228510   6.093   1.405   7.624  1.4581 -0.2220  0.2340
 1439TIP3   OH228511   1.558   0.928   8.881  0.0802  0.3378 -0.3833
 1439TIP3    H128512   1.528   0.843   8.848  0.1016  0.1486  0.0751
 1439TIP3    H228513   1.651   0.916   8.898 -0.3028 -0.1911  1.6187
 1440TIP3   OH228514   3.210   2.272   7.770  0.0796  0.4458 -0.1900
 1440TIP3    H128515   3.281   2.210   7.785  0.2696  0.2790 -1.6165
 1440TIP3    H228516   3.226   2.343   7.832 -0.0461 -0.8169  1.3439
 1441TIP3   OH228517   7.311   4.027   6.686  0.2036 -0.2042  0.2396
 1441TIP3    H128518   7.261   4.096   6.643 -1.2571  0.0898  2.2841
 1441TIP3    H228519   7.332   4.061   6.772  1.8641 -1.2909  0.3273
 1442TIP3   OH228520   5.840   6.480   7.772  0.1298  0.5177  0.2380
 1442TIP3    H128521   5.824   6.561   7.724  0.2805  0.0315 -0.6616
 1442TIP3    H228522   5.802   6.412   7.717 -1.2443  0.0997  1.6483
 1443TIP3   OH228523   6.544   2.514   8.558 -0.0311 -0.0239 -0.2576
 1443TIP3    H128524   6.534   2.605   8.531  0.0880  0.6909  1.9284
 1443TIP3    H228525   6.525   2.514   8.652  0.3400 -2.1950 -0.1203
 1444TIP3   OH228526   3.396   4.777   7.487 -0.7419  0.0561  0.0963
 1444TIP3    H128527   3.434   4.770   7.399 -1.8072 -0.0680 -0.3706
 1444TIP3    H228528   3.389   4.871   7.503  1.9430  0.1672  1.1961
 1445TIP3   OH228529   3.562   5.572   8.390  0.1517  0.0901  0.0296
 1445TIP3    H128530   3.586   5.479   8.398  1.8214  0.6015  1.6426
 1445TIP3    H228531   3.467   5.571   8.382  0.2759 -1.8679 -2.5202
 1446TIP3   OH228532   5.232   2.980   9.212  0.2801  0.2156  0.2416
 1446TIP3    H128533   5.200   2.967   9.123  0.8983 -1.5189  0.2330
 1446TIP3    H228534   5.266   2.894   9.238  1.4311  1.0379  1.6204
 1447TIP3   OH228535   2.928   1.440   6.886 -0.6280 -0.3372 -0.3721
 1447TIP3    H128536   2.910   1.513   6.827 -1.1182  0.4633  0.7287
 1447TIP3    H228537   2.972   1.480   6.961  0.8883 -1.4719 -0.6061
 1448TIP3   OH228538   5.794   1.181   8.326  0.2137 -0.4432 -0.1163
 1448TIP3    H128539   5.868   1.231   8.362 -0.0839 -0.5374  0.6366
 1448TIP3    H228540   5.719   1.239   8.334 -0.3046 -1.2909  1.5482
 1449TIP3   OH228541   6.346   5.410   9.363  0.1728  0.4015 -0.2812
 1449TIP3    H128542   6.412   5.343   9.346 -0.4135  0.0843 -1.3588
 1449TIP3    H228543   6.277   5.365   9.411  0.7574  0.7612  0.9556
 1450TIP3   OH228544   2.407   7.526   8.218 -0.0689  0.4237  0.2467
 1450TIP3    H128545   2.358   7.450   8.186  1.0173 -0.3518  0.3583
 1450TIP3    H228546   2.420   7.581   8.140 -0.7270  0.4144  0.1311
 1451TIP3   OH228547   0.783   4.094   7.087  0.0661 -0.3596  0.0449
 1451TIP3    H128548   0.787   4.005   7.052  0.1604 -0.2722 -0.1754
 1451TIP3    H228549   0.751   4.085   7.176 -1.5710 -0.4787 -0.5223
 1452TIP3   OH228550   6.359   0.625   9.162  0.0887  0.2976  0.6353
 1452TIP3    H128551   6.335   0.717   9.166 -0.2777  0.1742  1.3497
 1452TIP3    H228552   6.342   0.591   9.250  1.0443 -0.2504  0.6261
 1453TIP3   OH228553   4.327   5.439   8.683 -0.3007 -0.9091 -0.3454
 1453TIP3    H128554   4.312   5.347   8.702 -0.0729 -0.7263  0.8069
 1453TIP3    H228555   4.270   5.459   8.609 -0.3726 -1.9569 -0.5838
 1454TIP3   OH228556   6.945   0.429   7.901  0.0462 -0.7904  0.5883
 1454TIP3    H128557   6.950   0.522   7.921 -1.7747 -0.0808 -1.8088
 1454TIP3    H228558   7.032   0.408   7.866 -0.0904  0.5146 -0.6260
 1455TIP3   OH228559   1.202   0.463   8.887 -0.4939 -0.3524 -0.2236
 1455TIP3    H128560   1.256   0.494   8.959 -2.0003  0.7895  0.4791
 1455TIP3    H228561   1.210   0.532   8.820 -2.2928  0.6712  0.5437
 1456TIP3   OH228562   6.215   2.361   9.230  0.0368  0.2021  0.5473
 1456TIP3    H128563   6.268   2.400   9.299  0.0464 -0.0380  0.6756
 1456TIP3    H228564   6.126   2.361   9.265 -0.4188  2.3936 -0.4035
 1457TIP3   OH228565   5.213   4.287   6.530  0.2354  0.3012  0.3462
 1457TIP3    H128566   5.290   4.249   6.572 -0.7669 -1.2556  0.8568
 1457TIP3    H228567   5.237   4.292   6.437  1.4080  1.0571  0.6685
 1458TIP3   OH228568   4.721   6.550   7.218 -0.1188 -0.3429 -0.3948
 1458TIP3    H128569   4.768   6.539   7.136  0.3954  1.6900 -0.4429
 1458TIP3    H228570   4.759   6.486   7.277  1.4683  0.0428 -0.9589
 1459TIP3   OH228571   7.293   6.659   8.172  0.1798 -0.5246 -0.1693
 1459TIP3    H128572   7.229   6.729   8.169 -0.4494 -1.0170  1.1120
 1459TIP3    H228573   7.366   6.695   8.223  0.6418 -0.2075 -1.0293
 1460TIP3   OH228574   4.966   2.079   9.313  0.0331 -0.4780  0.3233
 1460TIP3    H128575   4.928   1.992   9.314  0.9840 -0.9513 -1.0678
 1460TIP3    H228576   4.892   2.139   9.302 -0.4747 -1.2287 -0.3734
 1461TIP3   OH228577   4.009   5.699   8.609 -0.3161  0.6089  0.1763
 1461TIP3    H128578   3.978   5.627   8.555 -1.4660  0.4301  1.0182
 1461TIP3    H228579   3.971   5.682   8.696 -0.1058  1.8884  0.5489
 1462TIP3   OH228580   7.312   2.452   8.601  0.0498  0.3128 -0.1285
 1462TIP3    H128581   7.348   2.438   8.688  0.1658  1.5328  0.0430
 1462TIP3    H228582   7.247   2.383   8.589  0.0400  0.1374  0.9181
 1463TIP3   OH228583   4.476   6.591   7.674 -0.2057  0.3347  0.0388
 1463TIP3    H128584   4.506   6.503   7.654  0.1851  0.1938  1.1708
 1463TIP3    H228585   4.381   6.586   7.669 -0.1482  0.2938 -1.6066
 1464TIP3   OH228586   6.535   6.695   8.743 -0.1411 -0.1849 -0.1619
 1464TIP3    H128587   6.593   6.757   8.787  0.5634 -2.3699  2.2462
 1464TIP3    H228588   6.593   6.634   8.699 -0.6176 -1.3932  0.8283
 1465TIP3   OH228589   3.249   1.307   7.513  1.2254 -0.0814  0.7412
 1465TIP3    H128590   3.302   1.282   7.437  1.1516 -1.6057  1.1564
 1465TIP3    H228591   3.281   1.251   7.584  0.2405  0.2228  1.4519
 1466TIP3   OH228592   6.966   3.849   8.986  0.0050 -0.4956  0.0058
 1466TIP3    H128593   6.965   3.827   8.893  1.1019  0.3261 -0.2214
 1466TIP3    H228594   6.931   3.938   8.989 -0.2899 -0.6249  0.4161
 1467TIP3   OH228595   4.087   6.766   8.798 -0.0400  0.2934  0.0557
 1467TIP3    H128596   4.068   6.807   8.714  2.2979 -0.4469 -0.9190
 1467TIP3    H228597   4.086   6.838   8.861 -1.1475  0.9652 -0.6831
 1468TIP3   OH228598   5.907   3.382   9.189 -0.4617  0.0804 -0.1046
 1468TIP3    H128599   5.858   3.301   9.209 -3.3000  1.7548  0.2956
 1468TIP3    H228600   5.996   3.364   9.220 -0.9512 -2.9083 -0.1238
 1469TIP3   OH228601   7.581   4.868   8.956 -0.4373  0.2487  0.0417
 1469TIP3    H128602   7.527   4.795   8.988  1.7036 -0.5650  2.1150
 1469TIP3    H228603   7.561   4.874   8.863 -3.0511 -0.8519  0.4439
 1470TIP3   OH228604   5.449   0.596   8.014 -0.3866 -0.2408 -0.1361
 1470TIP3    H128605   5.483   0.676   8.055  0.3321 -1.0639  0.9511
 1470TIP3    H228606   5.493   0.592   7.930  0.2143  0.0755  0.1536
 1471TIP3   OH228607   1.213   6.992   7.472 -0.6298  0.1172 -0.1826
 1471TIP3    H128608   1.248   7.071   7.512 -0.8863  0.1632 -0.0527
 1471TIP3    H228609   1.254   6.989   7.385  1.5048 -1.0305  0.7845
 1472TIP3   OH228610   1.360   3.559   8.252  0.2997  0.2528  0.2003
 1472TIP3    H128611   1.298   3.487   8.267 -0.0872  0.3930 -0.6987
 1472TIP3    H228612   1.351   3.580   8.160  2.7542 -0.7169 -0.3567
 1473TIP3   OH228613   0.228   2.542   9.198  0.7011 -0.1884 -0.4549
 1473TIP3    H128614   0.268   2.479   9.138  0.3673 -1.7422  0.8764
 1473TIP3    H228615   0.235   2.626   9.153  3.3213 -0.7610 -1.3103
 1474TIP3   OH228616   2.118   3.776   8.839 -0.0492 -0.2143  0.6198
 1474TIP3    H128617   2.062   3.806   8.766  1.5327  0.9940 -0.1698
 1474TIP3    H228618   2.074   3.809   8.917 -0.2983  0.9947  0.0002
 1475TIP3   OH228619   6.702   1.373   7.176 -0.1140  0.2398  0.7717
 1475TIP3    H128620   6.767   1.425   7.127 -0.2200 -0.9622 -0.7173
 1475TIP3    H228621   6.657   1.322   7.108  0.0247 -1.8369  2.1858
 1476TIP3   OH228622   3.923   7.202   9.111  0.2265 -0.4794  0.0240
 1476TIP3    H128623   3.994   7.156   9.157  1.0258 -2.0324 -2.5534
 1476TIP3    H228624   3.854   7.137   9.103 -0.5584  0.2921  0.4312
 1477TIP3   OH228625   2.511   4.060   8.135 -0.0003  0.0986  0.1863
 1477TIP3    H128626   2.505   4.024   8.046 -1.4960  0.1937  0.2228
 1477TIP3    H228627   2.585   4.120   8.132 -0.1247  0.2160 -1.0532
 1478TIP3   OH228628   4.468   4.771   7.757 -0.3711 -0.1515  0.5446
 1478TIP3    H128629   4.377   4.745   7.742 -0.0591  0.5487 -3.4185
 1478TIP3    H228630   4.519   4.713   7.700  1.4563  1.0061  0.9297
 1479TIP3   OH228631   2.060   5.190   8.119 -0.1287 -0.4335 -0.4530
 1479TIP3    H128632   2.051   5.167   8.026 -0.9181  1.6581 -0.9516
 1479TIP3    H228633   1.995   5.259   8.133  1.7274  1.1307  1.0123
 1480TIP3   OH228634   1.016   2.713   7.628  0.0563  0.2426  0.4552
 1480TIP3    H128635   1.111   2.711   7.618  0.0444 -0.7904  0.3962
 1480TIP3    H228636   1.002   2.752   7.714  0.6460 -1.4063  1.3582
 1481TIP3   OH228637   6.291   2.354   7.729 -0.6380 -0.0847  0.0757
 1481TIP3    H128638   6.367   2.308   7.766 -1.1143  0.3959  1.7258
 1481TIP3    H228639   6.313   2.447   7.739 -1.2059  0.0506  0.0674
 1482TIP3   OH228640   4.858   6.100   8.521 -0.2653  0.0160  0.1392
 1482TIP3    H128641   4.899   6.045   8.453 -1.8790 -1.2285  0.1010
 1482TIP3    H228642   4.796   6.154   8.473 -0.1737  0.3774  0.4298
 1483TIP3   OH228643   3.549   2.156   8.977  0.2769 -0.3451  0.6566
 1483TIP3    H128644   3.591   2.233   9.017 -0.7679 -0.0731  1.2755
 1483TIP3    H228645   3.586   2.152   8.889 -0.0196  1.1967  0.4213
 1484TIP3   OH228646   0.415   0.528   7.511  0.6190  0.0489 -0.2330
 1484TIP3    H128647   0.453   0.517   7.598 -0.2359 -0.9408  0.0381
 1484TIP3    H228648   0.459   0.605   7.475 -0.0243  1.3651  1.6305
 1485TIP3   OH228649   7.284   1.151   7.665 -0.0260 -0.4506  0.0963
 1485TIP3    H128650   7.342   1.226   7.676 -3.1593  1.9995  1.5037
 1485TIP3    H228651   7.305   1.116   7.578  3.2589  0.3572  0.4214
 1486TIP3   OH228652   2.893   6.218   9.410  0.2692 -0.4563  0.5677
 1486TIP3    H128653   2.971   6.248   9.457  0.7773  0.0020 -0.5161
 1486TIP3    H228654   2.846   6.299   9.389 -0.7748 -0.7634  1.6504
 1487TIP3   OH228655   2.981   6.204   9.041  0.0386  0.1419 -0.2363
 1487TIP3    H128656   2.993   6.114   9.010  1.6205  0.5792 -1.0022
 1487TIP3    H228657   3.029   6.258   8.978 -1.9037  1.6779 -0.5073
 1488TIP3   OH228658   1.730   6.516   8.440 -0.1138 -0.2292  0.3002
 1488TIP3    H128659   1.681   6.598   8.426  0.4118  0.2416  1.0874
 1488TIP3    H228660   1.806   6.523   8.383 -0.8729 -0.8977 -0.8193
 1489TIP3   OH228661   2.086   5.335   7.613 -0.3345  0.0756 -0.1058
 1489TIP3    H128662   2.019   5.270   7.636 -1.1244  1.1294  0.6198
 1489TIP3    H228663   2.135   5.348   7.694  0.6161 -0.4986 -0.5678
 1490TIP3   OH228664   5.636   6.653   9.310  0.1577  0.1145 -0.3179
 1490TIP3    H128665   5.667   6.630   9.222 -0.1655 -0.3661 -0.3084
 1490TIP3    H228666   5.626   6.569   9.354 -0.3162  0.3222 -0.0338
 1491TIP3   OH228667   6.355   1.478   7.978 -0.1809  0.3451  0.2392
 1491TIP3    H128668   6.288   1.532   8.020  1.7656  1.7011  1.8341
 1491TIP3    H228669   6.404   1.539   7.923 -0.2941 -0.6530 -1.0141
 1492TIP3   OH228670   0.781   5.569   7.846 -0.6540 -0.4134  0.4970
 1492TIP3    H128671   0.783   5.601   7.755  0.1538 -2.1487 -0.1478
 1492TIP3    H228672   0.869   5.534   7.861 -0.2729  1.2777  2.5333
 1493TIP3   OH228673   0.377   3.617   8.122 -0.5520  0.3837 -0.0460
 1493TIP3    H128674   0.421   3.624   8.038  0.7329  0.7535  0.6217
 1493TIP3    H228675   0.333   3.702   8.134 -3.0621 -0.6206 -1.5295
 1494TIP3   OH228676   6.633   4.930   9.264 -0.3064  0.4215  0.2174
 1494TIP3    H128677   6.706   4.939   9.204  0.5559  1.3458  1.3625
 1494TIP3    H228678   6.669   4.884   9.339 -1.6390 -1.7006 -0.3671
 1495TIP3   OH228679   3.491   0.446   9.543  0.2567 -0.9532 -0.0441
 1495TIP3    H128680   3.472   0.383   9.473  1.9087  0.8581 -2.2559
 1495TIP3    H228681   3.586   0.445   9.550  0.3225  1.2991 -0.1557
 1496TIP3   OH228682   4.021   1.563   8.183 -0.2112  0.2031 -0.0574
 1496TIP3    H128683   4.027   1.477   8.225  0.5083  0.1675 -0.2132
 1496TIP3    H228684   4.052   1.549   8.094 -0.7245  0.4932 -0.2843
 1497TIP3   OH228685   7.073   6.078   8.695  0.6997 -0.6056 -0.1309
 1497TIP3    H128686   7.135   6.130   8.644  0.8972 -1.4189 -0.7580
 1497TIP3    H228687   6.987   6.100   8.658  0.5136  0.9786  1.1422
 1498TIP3   OH228688   4.713   6.384   7.835  0.1436  0.3081 -0.3745
 1498TIP3    H128689   4.647   6.329   7.794 -2.8229  2.8661  0.5171
 1498TIP3    H228690   4.735   6.339   7.916  0.9806 -1.4723 -1.5214
 1499TIP3   OH228691   6.866   5.186   8.636  0.3060 -0.3989  0.4765
 1499TIP3    H128692   6.891   5.276   8.656  0.4654 -0.5607  1.0250
 1499TIP3    H228693   6.835   5.151   8.720 -0.1680 -0.7183  0.1689
 1500TIP3   OH228694   6.320   7.168   8.054 -0.3028  0.1248  0.1969
 1500TIP3    H128695   6.230   7.139   8.042 -0.6246  0.6376  1.2889
 1500TIP3    H228696   6.331   7.177   8.148  1.1236 -0.6229  0.1285
 1501TIP3   OH228697   4.300   3.438   6.505 -0.5506  0.3489  0.5688
 1501TIP3    H128698   4.299   3.380   6.581  1.5100 -3.0064 -1.7009
 1501TIP3    H228699   4.393   3.443   6.481 -1.2078  0.5077 -2.2063
 1502TIP3   OH228700   5.402   4.369   8.245 -0.4617  0.1259  0.0428
 1502TIP3    H128701   5.376   4.298   8.303  0.7209 -0.9254 -0.6497
 1502TIP3    H228702   5.432   4.325   8.165 -1.1815  1.4752 -1.0261
 1503TIP3   OH228703   7.346   3.893   8.410  0.4510  0.0880 -0.4558
 1503TIP3    H128704   7.277   3.857   8.354 -0.2961  1.0864 -0.2104
 1503TIP3    H228705   7.311   3.977   8.440  1.3011  0.0858  0.6035
 1504TIP3   OH228706   5.714   2.348   7.447 -0.3412  0.3398 -0.2057
 1504TIP3    H128707   5.787   2.400   7.412 -0.1648 -0.1426 -0.5618
 1504TIP3    H228708   5.650   2.344   7.376  0.5749 -1.7350 -1.0158
 1505TIP3   OH228709   0.756   5.877   6.938  0.2321 -0.3095 -0.0020
 1505TIP3    H128710   0.807   5.818   6.881  0.4795 -0.0329 -0.0665
 1505TIP3    H228711   0.812   5.953   6.950 -0.6280  0.5250 -1.0356
 1506TIP3   OH228712   1.983   4.224   8.978 -0.0098 -0.1346 -0.0591
 1506TIP3    H128713   1.956   4.314   8.962 -0.2809  0.3034  2.4476
 1506TIP3    H228714   1.902   4.177   8.997  0.3918 -0.1005  1.9491
 1507TIP3   OH228715   0.019   7.632   9.158 -0.2472 -0.2887  0.3872
 1507TIP3    H128716  -0.005   7.683   9.080  1.8217  0.6813  0.3239
 1507TIP3    H228717  -0.009   7.543   9.136  0.5770 -0.1181 -1.6628
 1508TIP3   OH228718   2.090   1.688   7.491 -0.6156  0.3881  0.2644
 1508TIP3    H128719   2.045   1.604   7.494 -1.3984  0.8117  0.8492
 1508TIP3    H228720   2.182   1.666   7.473 -0.9149 -0.5421 -0.1788
 1509TIP3   OH228721   0.745   2.708   8.503 -0.0748  0.0782 -0.1167
 1509TIP3    H128722   0.839   2.719   8.492 -0.3447  2.3496 -0.6557
 1509TIP3    H228723   0.736   2.639   8.569  1.9085 -1.0892 -0.9803
 1510TIP3   OH228724   1.941   1.840   9.096  0.0839  0.1847  0.2151
 1510TIP3    H128725   1.925   1.745   9.089 -4.8318  0.6692  0.8957
 1510TIP3    H228726   1.968   1.867   9.009  0.5473 -1.6985 -0.2675
 1511TIP3   OH228727   3.097   0.338   8.499 -0.1360  0.3656 -0.1509
 1511TIP3    H128728   3.146   0.328   8.417 -0.1138  1.6473 -0.3177
 1511TIP3    H228729   3.153   0.393   8.554  0.5538 -1.6960  1.3599
 1512TIP3   OH228730   4.058   5.522   6.272  0.1613 -0.1675 -0.1791
 1512TIP3    H128731   4.143   5.543   6.311 -1.0795  0.7442  2.2367
 1512TIP3    H228732   4.069   5.433   6.238  2.5204  0.5106 -1.3880
 1513TIP3   OH228733   2.399   6.326   7.279  0.6013 -0.5920 -0.2596
 1513TIP3    H128734   2.459   6.299   7.348  1.3458 -2.4693 -1.5474
 1513TIP3    H228735   2.330   6.259   7.280 -2.0418  1.9048  1.6939
 1514TIP3   OH228736   4.182   1.941   9.278  0.1802 -0.0541 -0.3132
 1514TIP3    H128737   4.172   2.035   9.290  2.1249  0.2620 -0.8089
 1514TIP3    H228738   4.093   1.907   9.279 -0.5209  1.6589  0.8303
 1515TIP3   OH228739   7.120   2.529   7.759 -0.1177  0.0562  0.1946
 1515TIP3    H128740   7.040   2.578   7.738 -0.3659 -1.3725 -2.6755
 1515TIP3    H228741   7.101   2.486   7.842 -1.0007  2.3664  1.2676
 1516TIP3   OH228742   4.533   2.547   8.992 -0.4062 -0.1691  0.4341
 1516TIP3    H128743   4.484   2.627   8.970 -0.3615 -0.5159 -1.0371
 1516TIP3    H228744   4.531   2.543   9.088 -0.7477  1.3808  0.5168
 1517TIP3   OH228745   5.602   0.146   6.829  0.0621  0.1054  0.7782
 1517TIP3    H128746   5.642   0.073   6.877  1.7136  0.0189 -0.6068
 1517TIP3    H228747   5.583   0.110   6.743  1.9887  1.5196 -0.3373
 1518TIP3   OH228748   7.365   5.144   7.711  0.0322 -0.2889 -0.2047
 1518TIP3    H128749   7.332   5.054   7.705 -0.5390 -0.1253  0.3910
 1518TIP3    H228750   7.415   5.156   7.630 -3.0458  0.1089 -2.2161
 1519TIP3   OH228751   0.204   0.232   6.836 -0.8564 -0.1879 -0.1014
 1519TIP3    H128752   0.277   0.287   6.865  0.2033 -0.6878 -1.6849
 1519TIP3    H228753   0.140   0.294   6.802 -1.1523  0.2519  1.2135
 1520TIP3   OH228754   0.283   1.812   7.921  0.3378 -0.1312 -0.3214
 1520TIP3    H128755   0.331   1.894   7.934 -1.0579  0.6087  0.4018
 1520TIP3    H228756   0.249   1.790   8.008 -1.2218 -0.2405 -0.9226
 1521TIP3   OH228757   2.126   4.803   6.815  0.2536 -0.0546 -0.1660
 1521TIP3    H128758   2.203   4.859   6.802 -0.7513  1.3078 -0.5190
 1521TIP3    H228759   2.159   4.729   6.865  1.6316  0.9104  0.4370
 1522TIP3   OH228760   6.767   4.599   8.890 -0.2952 -0.2284  0.4837
 1522TIP3    H128761   6.765   4.695   8.887  1.6133 -0.0682  1.8688
 1522TIP3    H228762   6.831   4.579   8.959 -1.8060 -2.5087  1.3614
 1523TIP3   OH228763   3.505   7.641   7.906 -0.3144 -0.5640 -0.4455
 1523TIP3    H128764   3.537   7.563   7.861 -0.6285 -0.4863 -0.8015
 1523TIP3    H228765   3.538   7.631   7.996 -0.0509 -0.9272 -0.5782
 1524TIP3   OH228766   3.390   5.838   9.073  0.4718  0.0501 -0.0572
 1524TIP3    H128767   3.428   5.906   9.128 -0.9014 -1.4377  2.9799
 1524TIP3    H228768   3.451   5.828   9.000  2.9057  1.5343  1.6590
 1525TIP3   OH228769   6.298   0.518   9.415 -0.3746  0.0057 -0.2097
 1525TIP3    H128770   6.309   0.429   9.447 -0.7390  0.3705  1.0123
 1525TIP3    H228771   6.204   0.535   9.424 -0.2576  0.6230 -0.0695
 1526TIP3   OH228772   3.448   7.516   8.149  0.3512  0.4721 -0.4608
 1526TIP3    H128773   3.500   7.436   8.158 -0.3627  0.0639  0.1436
 1526TIP3    H228774   3.450   7.555   8.236 -1.0278  0.0124 -0.1914
 1527TIP3   OH228775   6.238   3.128   8.516  0.0388  0.1189 -0.4085
 1527TIP3    H128776   6.276   3.076   8.445 -1.2522  0.2014 -1.2108
 1527TIP3    H228777   6.148   3.095   8.524 -0.6929  1.8931 -0.6539
 1528TIP3   OH228778   2.256   6.968   9.020 -0.3849 -0.0484 -0.4827
 1528TIP3    H128779   2.199   6.932   8.953 -0.8491  0.1159 -0.1776
 1528TIP3    H228780   2.200   6.979   9.097 -0.2696  1.3202 -0.5592
 1529TIP3   OH228781   0.658   0.990   8.251 -0.4507 -0.5584 -0.1650
 1529TIP3    H128782   0.642   1.004   8.158  0.7073 -2.2637 -0.6570
 1529TIP3    H228783   0.735   0.933   8.254  0.7804  1.0736  1.8841
 1530TIP3   OH228784   4.377   6.090   9.388  0.5857 -0.0822  0.0846
 1530TIP3    H128785   4.412   6.017   9.337  2.8511  0.9647  0.0249
 1530TIP3    H228786   4.349   6.050   9.470  0.8248 -1.1779 -0.3447
 1531TIP3   OH228787   1.608   5.671   6.636 -0.3350  0.0518 -0.6545
 1531TIP3    H128788   1.586   5.727   6.710  0.4509 -1.1944  0.5893
 1531TIP3    H228789   1.653   5.728   6.574  1.1510  0.6804  0.9200
 1532TIP3   OH228790   2.217   0.826   7.737  1.2365  0.1746 -0.0929
 1532TIP3    H128791   2.264   0.768   7.678  1.6594 -1.0897  1.4035
 1532TIP3    H228792   2.164   0.881   7.680  2.4563 -0.2194 -1.6821
 1533TIP3   OH228793   4.780   5.616   8.085 -0.1796 -0.0191  0.0414
 1533TIP3    H128794   4.788   5.624   8.180  3.0828  1.0578 -0.2016
 1533TIP3    H228795   4.843   5.547   8.062 -0.3978  0.2517 -1.4144
 1534TIP3   OH228796   3.161   5.296   6.495  0.0384 -0.2608 -0.5621
 1534TIP3    H128797   3.177   5.269   6.405  0.3340  2.7021 -1.5099
 1534TIP3    H228798   3.243   5.337   6.523 -0.5614  0.2684  0.4983
 1535TIP3   OH228799   7.501   2.231   7.879 -0.4007 -0.1039 -0.0879
 1535TIP3    H128800   7.497   2.325   7.862  0.5107 -0.0222  0.1258
 1535TIP3    H228801   7.590   2.215   7.909  0.5297 -1.5499 -3.1812
 1536TIP3   OH228802   6.576   0.695   8.499 -0.2885  0.5027 -0.4762
 1536TIP3    H128803   6.566   0.643   8.419 -0.4781  1.0560 -0.8224
 1536TIP3    H228804   6.580   0.631   8.569 -0.6380  0.0266 -0.8832
 1537TIP3   OH228805   1.141   3.935   6.584  0.0294  0.5365 -0.0009
 1537TIP3    H128806   1.222   3.886   6.566  0.8849  2.3106 -1.3364
 1537TIP3    H228807   1.168   4.027   6.579 -1.9366  1.1650  0.3106
 1538TIP3   OH228808   5.582   0.637   7.794  0.4101  0.6988 -0.6759
 1538TIP3    H128809   5.557   0.676   7.710  3.0265  0.5092 -1.6595
 1538TIP3    H228810   5.666   0.678   7.815 -0.1607  0.6962  1.8708
 1539TIP3   OH228811   4.010   5.143   7.876 -0.0458 -0.5343 -0.2976
 1539TIP3    H128812   4.050   5.123   7.791 -0.5425 -0.8845 -0.4499
 1539TIP3    H228813   4.073   5.109   7.940  0.1627 -0.5881 -0.5271
 1540TIP3   OH228814   3.058   6.553   8.940 -0.3893 -0.5126  0.2327
 1540TIP3    H128815   3.060   6.467   8.899  0.5137 -0.5252  0.2813
 1540TIP3    H228816   3.044   6.536   9.033 -0.8547 -0.5647  0.1575
 1541TIP3   OH228817   3.063   0.774   9.510  0.2559  0.9677  0.5526
 1541TIP3    H128818   3.086   0.684   9.534 -0.0815  1.0768  1.3209
 1541TIP3    H228819   3.145   0.823   9.518  0.3978  0.7717  0.3219
 1542TIP3   OH228820   4.143   0.027   8.778  0.2436  0.2961 -0.1267
 1542TIP3    H128821   4.068   0.082   8.757 -0.0861  0.0612  0.4105
 1542TIP3    H228822   4.142   0.020   8.873  3.4004  3.7299  0.3468
 1543TIP3   OH228823   4.298   7.422   8.732  0.4605  0.4696  0.0380
 1543TIP3    H128824   4.217   7.410   8.781  0.1384 -1.2611 -0.8615
 1543TIP3    H228825   4.287   7.507   8.688 -1.7464 -0.5650 -1.6045
 1544TIP3   OH228826   1.988   5.650   6.682 -0.5621  0.0833 -0.2015
 1544TIP3    H128827   1.975   5.744   6.674 -0.2210 -0.0185 -2.6146
 1544TIP3    H228828   1.914   5.612   6.635 -0.7426 -0.8998  0.8197
 1545TIP3   OH228829   6.311   5.513   8.772 -0.1428 -0.1289  0.4929
 1545TIP3    H128830   6.217   5.504   8.790 -0.2785  0.3520  0.0380
 1545TIP3    H228831   6.339   5.588   8.825  0.2621 -1.0442  1.6137
 1546TIP3   OH228832   0.843   4.306   6.911 -0.0582  0.1928  0.1860
 1546TIP3    H128833   0.831   4.227   6.964 -0.7168  1.1300  1.5022
 1546TIP3    H228834   0.928   4.294   6.869 -0.1704 -1.2339  0.3121
 1547TIP3   OH228835   5.493   5.986   8.123 -0.6995  0.0715  0.5220
 1547TIP3    H128836   5.553   5.999   8.196  0.5884  0.2096 -0.5359
 1547TIP3    H228837   5.445   5.907   8.146  0.7384 -0.7439  0.8397
 1548TIP3   OH228838   3.249   6.020   6.484  0.1806  0.2719 -0.2923
 1548TIP3    H128839   3.242   6.026   6.389 -1.5245 -0.3770 -0.2466
 1548TIP3    H228840   3.277   5.930   6.500  0.6103  0.4234 -0.1730
 1549TIP3   OH228841   4.385   6.379   8.011  0.1534 -0.1604  0.0474
 1549TIP3    H128842   4.400   6.466   8.048  0.9579 -0.2393 -0.0697
 1549TIP3    H228843   4.400   6.319   8.083  0.4229 -0.2437 -0.0762
 1550TIP3   OH228844   6.300   2.961   8.289 -0.2009 -0.3198 -0.0394
 1550TIP3    H128845   6.376   2.925   8.245 -1.4764 -0.7202 -2.0445
 1550TIP3    H228846   6.231   2.962   8.222 -1.8743  0.3283  1.5911
 1551TIP3   OH228847   7.545   4.759   9.296 -0.0360 -0.6701 -0.3072
 1551TIP3    H128848   7.486   4.771   9.371  2.4028  2.0063  1.4190
 1551TIP3    H228849   7.493   4.786   9.220 -1.4682  0.2479  0.9274
 1552TIP3   OH228850   2.554   1.957   7.876 -0.1030 -0.3807 -0.3729
 1552TIP3    H128851   2.604   1.879   7.901  0.4235  0.2679  0.6515
 1552TIP3    H228852   2.615   2.029   7.887 -0.5128  0.1796 -1.5553
 1553TIP3   OH228853   3.541   5.527   8.718 -0.4669  0.0157  0.7396
 1553TIP3    H128854   3.477   5.564   8.780 -0.3529  0.6801  0.4667
 1553TIP3    H228855   3.490   5.509   8.639 -0.0358  2.0779 -0.0658
 1554TIP3   OH228856   0.410   6.514   8.256  0.5573 -0.0899 -0.1018
 1554TIP3    H128857   0.413   6.452   8.183  1.0062  1.9748 -1.9379
 1554TIP3    H228858   0.477   6.484   8.316  0.9582 -1.2291 -1.0822
 1555TIP3   OH228859   3.833   3.887   8.300 -0.2283  0.2416  0.4049
 1555TIP3    H128860   3.866   3.798   8.287 -2.5966 -0.6519  0.0452
 1555TIP3    H228861   3.892   3.942   8.247  1.1192 -1.1214  0.4216
 1556TIP3   OH228862   2.800   4.636   9.119 -0.5526  0.0681 -0.1192
 1556TIP3    H128863   2.886   4.599   9.141 -0.4275  0.1777 -0.4156
 1556TIP3    H228864   2.771   4.585   9.043 -0.0562  1.0323 -0.9898
 1557TIP3   OH228865   7.409   1.390   7.777  0.8748  0.3926  0.5143
 1557TIP3    H128866   7.466   1.434   7.840  0.9140  1.9644 -0.5584
 1557TIP3    H228867   7.468   1.365   7.705  0.8805 -1.6099  1.1474
 1558TIP3   OH228868   2.853   1.324   8.650  0.5404  0.2305  0.3649
 1558TIP3    H128869   2.948   1.324   8.660  0.4185  0.4109  1.6698
 1558TIP3    H228870   2.839   1.344   8.558  1.7665  0.3869  0.1957
 1559TIP3   OH228871   5.138   6.939   7.719  0.5615 -0.0722 -0.5470
 1559TIP3    H128872   5.140   6.870   7.653 -0.4732  0.0429 -0.7035
 1559TIP3    H228873   5.162   7.019   7.672 -0.8674  0.1370 -0.9608
 1560TIP3   OH228874   5.370   3.117   7.319  0.7079  0.8007 -0.9177
 1560TIP3    H128875   5.445   3.058   7.322 -0.2940 -0.4958 -0.0318
 1560TIP3    H228876   5.343   3.117   7.227 -0.0547 -1.1996 -0.7363
 1561TIP3   OH228877   3.141   1.397   8.713 -0.1719  0.2224 -0.7733
 1561TIP3    H128878   3.128   1.341   8.789 -0.1066 -1.1833 -1.7445
 1561TIP3    H228879   3.173   1.480   8.748 -1.7040  0.1806  0.8427
 1562TIP3   OH228880   4.832   0.130   7.619  0.0682  0.4913  0.8075
 1562TIP3    H128881   4.892   0.193   7.578 -0.1712  1.1866  1.4923
 1562TIP3    H228882   4.747   0.151   7.582  0.5281 -2.0998 -2.0561
 1563TIP3   OH228883   4.538   7.421   8.853 -0.8173  0.4615  0.1296
 1563TIP3    H128884   4.456   7.411   8.805 -1.1621 -1.2465  1.0052
 1563TIP3    H228885   4.600   7.454   8.787 -2.0820  1.3617 -0.6449
 1564TIP3   OH228886   6.018   6.586   7.967 -0.1359 -0.0113  0.3597
 1564TIP3    H128887   6.106   6.548   7.957  0.5017  0.8696  2.1300
 1564TIP3    H228888   5.959   6.519   7.933  1.2360 -0.2318 -1.8143
 1565TIP3   OH228889   6.476   7.348   9.791 -0.7095 -0.4447 -0.5102
 1565TIP3    H128890   6.493   7.261   9.755 -2.0635 -0.2993 -1.5875
 1565TIP3    H228891   6.385   7.366   9.768 -0.6976  0.9212  0.4220
 1566TIP3   OH228892   4.470   4.298   7.624 -0.2366 -0.2120  0.3542
 1566TIP3    H128893   4.399   4.293   7.559 -1.1448 -0.1900  1.3284
 1566TIP3    H228894   4.436   4.356   7.692  0.1848 -1.2603  1.4891
 1567TIP3   OH228895   2.185   0.255   9.135 -0.4079 -0.3634  0.2113
 1567TIP3    H128896   2.098   0.295   9.140  0.8580  2.6628 -0.3165
 1567TIP3    H228897   2.245   0.328   9.120  2.2762 -2.3351  0.6072
 1568TIP3   OH228898   4.061   5.134   9.166  0.1915  0.2337  0.0706
 1568TIP3    H128899   3.986   5.134   9.107  0.3614  2.4768 -0.2430
 1568TIP3    H228900   4.023   5.146   9.253  0.0085 -2.1609  0.3965
 1569TIP3   OH228901   2.766   3.675   7.148 -0.6413  0.3189  0.0514
 1569TIP3    H128902   2.672   3.658   7.138 -0.6794  0.6521 -0.1909
 1569TIP3    H228903   2.770   3.763   7.185 -0.4062  0.9469 -1.3728
 1570TIP3   OH228904   0.806   7.111   7.369 -0.6607 -0.0858 -0.5217
 1570TIP3    H128905   0.712   7.119   7.358 -0.8475  1.8289  1.6025
 1570TIP3    H228906   0.843   7.191   7.330  0.0103 -0.4646 -0.6869
 1571TIP3   OH228907   2.310   2.483   7.709 -1.0291  0.8836  0.4430
 1571TIP3    H128908   2.314   2.396   7.668 -1.4787  0.4553  1.2745
 1571TIP3    H228909   2.287   2.542   7.638  2.8943  0.9494 -0.9796
 1572TIP3   OH228910   4.574   0.129   7.491  0.2081  0.3962 -0.4764
 1572TIP3    H128911   4.606   0.067   7.426 -1.2717  0.0488 -0.9204
 1572TIP3    H228912   4.480   0.134   7.475 -0.5338 -0.8698  2.5626
 1573TIP3   OH228913   0.898   4.103   8.670 -0.5791 -0.3699 -0.1599
 1573TIP3    H128914   0.949   4.123   8.749 -0.0435  2.8953 -1.1692
 1573TIP3    H228915   0.957   4.051   8.616  0.1986 -0.0204  0.3362
 1574TIP3   OH228916   6.714   4.948   7.827  0.8282 -0.0113 -0.0940
 1574TIP3    H128917   6.799   4.964   7.868  0.3812  0.5093  0.6487
 1574TIP3    H228918   6.720   4.989   7.741  1.6273 -0.7429 -0.4055
 1575TIP3   OH228919   4.026   6.395   7.156  0.0258 -0.4155  0.1698
 1575TIP3    H128920   4.013   6.409   7.062 -1.7449 -1.0918  0.2900
 1575TIP3    H228921   4.024   6.300   7.167  0.8579 -0.3725  0.8353
 1576TIP3   OH228922   0.106   1.477   8.640  0.1168 -0.1133 -0.8157
 1576TIP3    H128923   0.162   1.500   8.714 -0.3129  1.7018 -1.0206
 1576TIP3    H228924   0.158   1.412   8.591  2.2088  1.6887 -1.1489
 1577TIP3   OH228925   6.296   4.010   7.379  0.4994  0.0146  0.2538
 1577TIP3    H128926   6.319   3.977   7.293 -2.5309 -0.4414 -0.4899
 1577TIP3    H228927   6.319   3.939   7.439 -0.4373 -1.0925 -0.6360
 1578TIP3   OH228928   0.850   1.335   6.781 -0.2151 -0.3347 -0.1147
 1578TIP3    H128929   0.908   1.260   6.793  0.9411  0.7127  1.1247
 1578TIP3    H228930   0.777   1.320   6.841  0.1767 -0.3099  0.3664
 1579TIP3   OH228931   3.032   7.422   9.180  0.2326  0.2921  0.9033
 1579TIP3    H128932   3.006   7.338   9.142 -0.6624  0.8638  0.2150
 1579TIP3    H228933   3.125   7.430   9.162  0.1007 -0.0769  0.0518
 1580TIP3   OH228934   0.183   0.406   9.318  0.2164 -0.1523 -0.7680
 1580TIP3    H128935   0.114   0.472   9.328  1.2378  0.5779  3.4792
 1580TIP3    H228936   0.243   0.444   9.253 -1.6534  0.7112 -2.0814
 1581TIP3   OH228937   1.902   6.983   8.929 -0.2345  0.4713  0.1410
 1581TIP3    H128938   1.839   7.006   8.860  0.9820  1.7017 -0.6459
 1581TIP3    H228939   1.955   6.913   8.890 -0.5901  0.0238  0.4676
 1582TIP3   OH228940   2.744   6.746   7.132 -0.0929  0.0088  0.0202
 1582TIP3    H128941   2.725   6.662   7.088  2.0111 -0.2662 -0.4525
 1582TIP3    H228942   2.669   6.759   7.191 -1.7263 -0.9188 -1.7265
 1583TIP3   OH228943   5.345   4.930   7.487 -0.5791  0.2643 -0.4962
 1583TIP3    H128944   5.302   4.915   7.572 -0.9103  1.7042 -0.3846
 1583TIP3    H228945   5.396   4.850   7.472 -1.2476 -0.4040  0.6122
 1584TIP3   OH228946   0.077   3.974   8.246 -0.4084 -0.2558 -0.0901
 1584TIP3    H128947   0.142   3.949   8.311  0.3794 -1.0640 -1.1511
 1584TIP3    H228948   0.106   3.932   8.165  0.0961  2.7519 -1.6337
 1585TIP3   OH228949   5.404   2.575   7.417 -0.2892  0.0873  0.4559
 1585TIP3    H128950   5.395   2.636   7.343  0.2786  1.4906  1.4917
 1585TIP3    H228951   5.389   2.489   7.379  1.3131  0.6304 -1.6044
 1586TIP3   OH228952   0.283   0.545   7.907  0.6891 -0.4447 -0.2838
 1586TIP3    H128953   0.220   0.494   7.957  0.4498  0.6809  0.6140
 1586TIP3    H228954   0.329   0.481   7.853 -1.1252 -1.3234 -0.8801
 1587TIP3   OH228955   7.085   3.053   9.259 -0.0047  0.5072 -0.9562
 1587TIP3    H128956   7.138   3.042   9.338  0.4807 -0.8546 -1.4369
 1587TIP3    H228957   7.135   3.112   9.203  0.6168 -0.0964 -1.0482
 1588TIP3   OH228958   3.953   0.315   9.683  0.0004 -0.6101  0.3049
 1588TIP3    H128959   3.892   0.242   9.678 -0.6734 -0.0539  0.3809
 1588TIP3    H228960   4.038   0.274   9.702 -0.3383 -1.3812  0.1646
 1589TIP3   OH228961   4.404   4.398   7.067 -0.6072  0.1502  0.1795
 1589TIP3    H128962   4.412   4.485   7.028 -1.6612  0.6781  1.0639
 1589TIP3    H228963   4.489   4.356   7.052  0.0520  1.4819  0.0779
 1590TIP3   OH228964   0.719   0.521   7.522 -0.1971 -0.0709 -0.8273
 1590TIP3    H128965   0.702   0.529   7.616 -1.4200  0.7142 -1.0847
 1590TIP3    H228966   0.804   0.563   7.509 -0.5159  0.8141 -0.2062
 1591TIP3   OH228967   0.581   5.064   7.902  0.6645  0.3753 -0.2320
 1591TIP3    H128968   0.582   4.977   7.940 -0.4284 -0.1930 -1.4353
 1591TIP3    H228969   0.667   5.074   7.863  1.6153  0.7619  1.8360
 1592TIP3   OH228970   7.033   0.589   7.162  0.4693  0.0398 -0.0465
 1592TIP3    H128971   7.113   0.620   7.205  0.6337  0.4958 -0.6677
 1592TIP3    H228972   7.010   0.659   7.101 -0.0004 -0.4059 -0.3862
 1593TIP3   OH228973   6.185   1.542   8.578  0.5995  0.0383 -0.3827
 1593TIP3    H128974   6.209   1.607   8.644  0.6662  0.6763 -1.0230
 1593TIP3    H228975   6.242   1.467   8.597 -1.3545 -0.9729  2.0849
 1594TIP3   OH228976   6.355   5.189   8.778  0.2460 -0.1149 -0.2747
 1594TIP3    H128977   6.393   5.272   8.808 -1.1079  0.2057  0.6560
 1594TIP3    H228978   6.426   5.146   8.730  1.2936  1.1152  0.1122
 1595TIP3   OH228979   0.148   6.834   8.265  0.3490 -0.4526  0.1790
 1595TIP3    H128980   0.124   6.875   8.182  1.2322  1.8814  1.0113
 1595TIP3    H228981   0.242   6.818   8.258  0.4722 -0.0440  0.7839
 1596TIP3   OH228982   2.185   5.787   8.486  0.4264 -0.7663  0.3531
 1596TIP3    H128983   2.131   5.860   8.517 -0.0351 -1.5040  1.3536
 1596TIP3    H228984   2.134   5.749   8.414  0.8881  0.1604 -0.4879
 1597TIP3   OH228985   4.578   2.400   7.178 -0.0695 -0.4913  0.0859
 1597TIP3    H128986   4.538   2.486   7.184 -0.6208 -0.7194 -0.2882
 1597TIP3    H228987   4.508   2.342   7.148 -0.3503 -1.5260  2.4532
 1598TIP3   OH228988   1.678   6.183   8.886  0.0994  0.4615 -0.2204
 1598TIP3    H128989   1.640   6.103   8.922  2.4576 -0.7820 -0.3083
 1598TIP3    H228990   1.629   6.199   8.805 -0.0557 -1.2404 -0.5011
 1599TIP3   OH228991   4.965   3.164   8.588  0.0257  0.4301  0.1563
 1599TIP3    H128992   4.890   3.213   8.555  0.1075  0.9432  0.7050
 1599TIP3    H228993   5.001   3.120   8.511  0.5860  2.1023 -0.5913
 1600TIP3   OH228994   7.349   6.461   7.001 -0.2375  0.0204 -0.0478
 1600TIP3    H128995   7.328   6.370   6.980 -0.9003  0.4864 -1.5315
 1600TIP3    H228996   7.268   6.496   7.038  0.2366 -0.1654  1.2234
 1601TIP3   OH228997   0.533   7.078   8.323  0.5234  0.0543  0.1602
 1601TIP3    H128998   0.558   7.107   8.410  2.5400  0.1293 -0.4056
 1601TIP3    H228999   0.611   7.090   8.269 -0.1858 -1.4557 -1.3139
 1602TIP3   OH229000   5.846   6.360   9.537  0.4472 -0.0049  0.3607
 1602TIP3    H129001   5.887   6.275   9.523  0.2594 -0.1498  0.6866
 1602TIP3    H229002   5.756   6.349   9.507  1.0454  0.7789 -1.9151
 1603TIP3   OH229003   1.003   4.514   9.152 -0.4846  0.4906 -0.4596
 1603TIP3    H129004   0.919   4.559   9.162  0.2258  1.6853  0.4186
 1603TIP3    H229005   1.049   4.563   9.084 -0.0147  0.6110 -0.0617
 1604TIP3   OH229006   4.155   6.745   8.357 -0.0101 -0.7238 -0.4457
 1604TIP3    H129007   4.216   6.818   8.367  0.3834 -1.0341 -0.5912
 1604TIP3    H229008   4.206   6.667   8.378 -0.4719 -0.9478 -0.1325
 1605TIP3   OH229009   6.812   6.026   9.410  0.4689 -0.5623 -0.1901
 1605TIP3    H129010   6.800   5.969   9.487 -0.2287 -1.4896 -0.9626
 1605TIP3    H229011   6.724   6.054   9.387  0.7907  0.7760  0.0993
 1606TIP3   OH229012   0.979   2.789   7.877 -0.0939  0.0497 -0.0088
 1606TIP3    H129013   0.990   2.712   7.931 -0.3627  0.4464  0.6204
 1606TIP3    H229014   0.887   2.813   7.886  0.2854  1.2710  0.9553
 1607TIP3   OH229015   0.200   1.161   9.105  0.6074 -0.3941 -0.3764
 1607TIP3    H129016   0.294   1.154   9.124  0.3683 -2.2560  0.3389
 1607TIP3    H229017   0.170   1.071   9.096 -0.8541  0.2092 -2.0934
 1608TIP3   OH229018   4.178   6.625   6.962  0.1424  0.3201  0.0987
 1608TIP3    H129019   4.260   6.595   7.002  0.3345  0.9958  0.2225
 1608TIP3    H229020   4.128   6.545   6.946  1.0035 -0.1404 -0.3620
 1609TIP3   OH229021   1.211   6.310   7.286  0.4431 -0.2071  0.5125
 1609TIP3    H129022   1.151   6.380   7.311 -0.0242 -0.1430 -0.7521
 1609TIP3    H229023   1.166   6.263   7.216  3.0630  1.7517 -2.7770
 1610TIP3   OH229024   1.736   3.402   9.174 -0.3209 -0.0668  0.1668
 1610TIP3    H129025   1.808   3.357   9.218 -1.1327 -1.4728  0.1170
 1610TIP3    H229026   1.712   3.343   9.102 -0.7914  0.9155 -0.5022
 1611TIP3   OH229027   6.924   0.963   7.375  0.1054  0.1067  0.0666
 1611TIP3    H129028   6.848   0.974   7.317  0.5388  2.9466 -0.0948
 1611TIP3    H229029   7.000   0.968   7.316  0.4977  1.2570  0.6347
 1612TIP3   OH229030   3.119   4.695   7.124  0.0535 -0.3058 -0.1333
 1612TIP3    H129031   3.202   4.689   7.078  0.1885 -1.3641  0.2153
 1612TIP3    H229032   3.134   4.648   7.206 -0.4464  0.7748  0.5948
 1613TIP3   OH229033   2.951   7.654   7.654 -0.7387  0.1330 -0.1814
 1613TIP3    H129034   3.028   7.685   7.701  0.1821 -1.4337 -0.5789
 1613TIP3    H229035   2.964   7.683   7.564 -2.3976  2.9456  0.3570
 1614TIP3   OH229036   7.286   6.097   8.383  0.4357  0.1565 -0.0076
 1614TIP3    H129037   7.228   6.093   8.307  0.3286 -1.0265  0.1153
 1614TIP3    H229038   7.363   6.046   8.356  1.0052  0.9020  0.1810
 1615TIP3   OH229039   5.787   2.195   9.318 -0.5991 -0.1529  0.6645
 1615TIP3    H129040   5.721   2.209   9.250  1.8739  0.0159 -1.9116
 1615TIP3    H229041   5.817   2.105   9.304  0.4670  0.1332  1.0318
 1616TIP3   OH229042   1.126   1.175   7.668 -0.3106  0.7124  0.1139
 1616TIP3    H129043   1.156   1.264   7.690  1.6466  0.2494 -0.4295
 1616TIP3    H229044   1.178   1.152   7.590  0.2581 -1.4071  1.0505
 1617TIP3   OH229045   3.046   6.396   9.548  0.1636  0.1823 -0.0311
 1617TIP3    H129046   3.038   6.489   9.569  1.2925  0.2382  0.2289
 1617TIP3    H229047   3.041   6.353   9.634 -1.2430 -0.0835 -0.2252
 1618TIP3   OH229048   3.786   6.367   8.983 -0.2157 -0.2187 -0.0797
 1618TIP3    H129049   3.738   6.372   9.065  0.9952 -0.4346  0.6605
 1618TIP3    H229050   3.806   6.274   8.971 -1.0485 -0.2990 -1.0324
 1619TIP3   OH229051   7.338   0.664   7.812  0.3161  0.5189  0.6822
 1619TIP3    H129052   7.303   0.753   7.816  0.2003  0.6500 -1.6697
 1619TIP3    H229053   7.427   0.672   7.848  0.3333  1.6273  0.4379
 1620TIP3   OH229054   4.480   5.350   6.371  0.6663 -0.4986 -0.5498
 1620TIP3    H129055   4.441   5.426   6.328 -1.3502  0.2628  2.3106
 1620TIP3    H229056   4.564   5.381   6.404 -0.2020  0.6064  0.7117
 1621TIP3   OH229057   6.665   2.736   9.020 -0.0762 -0.2196  0.0406
 1621TIP3    H129058   6.607   2.812   9.027  0.1640 -0.1620  1.8700
 1621TIP3    H229059   6.753   2.773   9.027  0.0354 -0.6537  1.1805
 1622TIP3   OH229060   4.729   3.447   7.652 -0.3821 -0.4439  0.5279
 1622TIP3    H129061   4.762   3.531   7.623  2.9359 -0.3116  3.9913
 1622TIP3    H229062   4.772   3.383   7.595 -0.4590  0.0574 -0.1002
 1623TIP3   OH229063   5.984   2.996   8.552  0.5191 -0.1524 -0.0705
 1623TIP3    H129064   5.953   2.991   8.643 -0.8528 -1.2343 -0.5674
 1623TIP3    H229065   5.995   2.905   8.526  1.6547  0.1653 -0.7668
 1624TIP3   OH229066   7.278   7.047   8.139  0.1490  0.2143  0.5200
 1624TIP3    H129067   7.220   7.107   8.090  0.3397 -0.9835 -1.2909
 1624TIP3    H229068   7.223   6.971   8.157  0.5760 -0.0498  0.6965
 1625TIP3   OH229069   5.945   7.464   7.757 -0.3542  0.0363  0.0626
 1625TIP3    H129070   5.994   7.423   7.685  0.0197  0.8723 -0.1770
 1625TIP3    H229071   5.906   7.391   7.804  0.5613 -0.6172 -0.1568
 1626TIP3   OH229072   5.585   1.390   8.701 -0.3344  0.1599  0.6403
 1626TIP3    H129073   5.621   1.314   8.746  2.0499  0.4468 -0.6256
 1626TIP3    H229074   5.653   1.457   8.708 -1.3726  1.3765 -0.3195
 1627TIP3   OH229075   0.562   3.906   9.243  0.3238 -0.1608 -0.2227
 1627TIP3    H129076   0.569   3.947   9.156  0.2506  0.6975  0.1622
 1627TIP3    H229077   0.650   3.913   9.279  0.2739 -0.2047 -0.0929
 1628TIP3   OH229078   5.124   2.505   8.343 -0.1497 -0.3670 -0.1895
 1628TIP3    H129079   5.055   2.562   8.308  0.4732  1.8276  1.8894
 1628TIP3    H229080   5.079   2.445   8.402 -0.5314 -0.4772 -0.5893
 1629TIP3   OH229081   6.863   2.937   8.887  0.3160 -0.5254 -0.2750
 1629TIP3    H129082   6.920   3.010   8.909 -1.2233  0.5564  0.3437
 1629TIP3    H229083   6.791   2.978   8.837 -0.3726 -1.6817 -0.2631
 1630TIP3   OH229084   7.384   5.325   8.181  0.4891  0.1526  0.2501
 1630TIP3    H129085   7.361   5.243   8.226  0.5399  1.0499  2.0163
 1630TIP3    H229086   7.349   5.314   8.093 -1.0603 -1.0935  0.9520
 1631TIP3   OH229087   0.038   6.879   9.533 -0.1354  0.0592 -0.4650
 1631TIP3    H129088   0.092   6.956   9.514 -0.1315  0.4787  1.1482
 1631TIP3    H229089   0.096   6.821   9.583 -0.1739 -0.9693 -1.5664
 1632TIP3   OH229090   1.938   2.645   9.335  0.4018 -0.6125 -0.0442
 1632TIP3    H129091   1.934   2.737   9.308  1.3322 -0.9711 -1.5310
 1632TIP3    H229092   1.848   2.624   9.360 -0.3744  0.0630 -2.0257
 1633TIP3   OH229093   1.638   2.717   7.539 -0.2124 -0.0700 -0.0693
 1633TIP3    H129094   1.561   2.759   7.500  0.2283 -0.5051 -1.4855
 1633TIP3    H229095   1.603   2.641   7.585 -0.8693  1.0864  1.3896
 1634TIP3   OH229096   0.560   3.448   8.981  0.1948  0.2388  0.4353
 1634TIP3    H129097   0.642   3.495   8.965 -0.4453  0.6025 -2.4205
 1634TIP3    H229098   0.492   3.508   8.950 -0.9743 -0.8902  0.7524
 1635TIP3   OH229099   3.652   7.327   7.299  0.3440  0.2750 -0.0403
 1635TIP3    H129100   3.696   7.310   7.216  1.5000  0.6446  0.4738
 1635TIP3    H229101   3.567   7.364   7.275  0.2810 -0.5176 -1.0591
 1636TIP3   OH229102   3.072   3.778   8.391 -0.0557 -0.1055 -0.5131
 1636TIP3    H129103   3.114   3.700   8.354 -1.4417 -1.6085  0.9063
 1636TIP3    H229104   3.026   3.817   8.317 -0.7196 -1.6222 -0.9437
 1637TIP3   OH229105   7.002   3.599   7.857  0.1412 -0.0255 -0.5019
 1637TIP3    H129106   7.054   3.602   7.777 -0.0472 -3.9418 -0.9274
 1637TIP3    H229107   7.067   3.587   7.927  0.0776 -1.5102 -0.6666
 1638TIP3   OH229108   6.898   4.283   8.510  0.3212  0.5504  0.2973
 1638TIP3    H129109   6.969   4.340   8.541 -0.7195  1.3409  1.2777
 1638TIP3    H229110   6.822   4.340   8.503 -0.4857 -0.4985  0.2399
 1639TIP3   OH229111   2.452   6.707   9.146 -0.1739  0.5113  0.4259
 1639TIP3    H129112   2.475   6.616   9.163  2.7960  1.1055  0.2169
 1639TIP3    H229113   2.420   6.707   9.056 -1.0725 -0.4346  0.7345
 1640TIP3   OH229114   7.101   5.191   7.625 -0.9072 -0.4662 -0.3890
 1640TIP3    H129115   7.192   5.184   7.656 -1.0361 -3.0791 -0.3250
 1640TIP3    H229116   7.056   5.119   7.669 -2.9882  0.6446 -0.5974
 1641TIP3   OH229117   1.743   4.697   9.497 -0.3431 -0.0159 -0.2340
 1641TIP3    H129118   1.658   4.676   9.537 -0.8104 -0.1856 -1.2899
 1641TIP3    H229119   1.801   4.710   9.572 -1.2360 -0.1415  0.5098
 1642TIP3   OH229120   2.931   7.108   8.369 -0.5719 -0.0110  0.8295
 1642TIP3    H129121   3.004   7.169   8.368  0.6542 -1.4299 -0.2141
 1642TIP3    H229122   2.948   7.051   8.443  0.9415 -2.0662 -0.9888
 1643TIP3   OH229123   0.650   1.339   8.153  0.3154 -0.3313 -0.2931
 1643TIP3    H129124   0.644   1.326   8.247 -0.8636 -0.8342 -0.4161
 1643TIP3    H229125   0.561   1.363   8.126  0.6284 -0.2110 -1.2740
 1644TIP3   OH229126   3.896   1.110   7.001  0.7766  0.1985 -0.0562
 1644TIP3    H129127   3.870   1.050   7.070 -0.3425  0.9644  0.2098
 1644TIP3    H229128   3.815   1.130   6.954  1.0457  1.8117  0.1172
 1645TIP3   OH229129   4.068   6.815   7.795 -0.2018  0.0467  0.3772
 1645TIP3    H129130   4.122   6.864   7.733 -0.8876  1.8328  1.0948
 1645TIP3    H229131   4.127   6.796   7.868 -0.4427  1.9579  1.1447
 1646TIP3   OH229132   5.228   6.530   7.436 -0.4187  0.0421  0.1252
 1646TIP3    H129133   5.136   6.534   7.411 -0.4726 -0.1077  0.2975
 1646TIP3    H229134   5.250   6.619   7.464 -0.5423  0.0516  0.1915
 1647TIP3   OH229135   6.461   0.109   7.728 -0.2947 -0.0385 -0.3961
 1647TIP3    H129136   6.412   0.036   7.692 -0.5678  0.0850 -0.2741
 1647TIP3    H229137   6.428   0.186   7.682 -0.2905  0.0577 -0.2395
 1648TIP3   OH229138   2.275   4.189   7.257  0.3933 -0.3007  0.3285
 1648TIP3    H129139   2.266   4.123   7.326 -0.9437 -1.1347 -0.6023
 1648TIP3    H229140   2.288   4.271   7.304  2.3372 -1.2223  1.5123
 1649TIP3   OH229141   5.884   2.790   8.003  0.7494 -0.2106  0.1449
 1649TIP3    H129142   5.890   2.695   8.011 -3.4415 -0.6981 -0.1572
 1649TIP3    H229143   5.832   2.817   8.079 -0.5284  1.3900 -1.2316
 1650TIP3   OH229144   3.990   1.924   8.931 -0.3348  0.4619 -0.1618
 1650TIP3    H129145   3.989   1.837   8.972 -3.1511  0.3729 -0.2720
 1650TIP3    H229146   4.015   1.983   9.002  2.7268 -0.4326 -0.3334
 1651TIP3   OH229147   6.064   3.339   6.424 -0.8789 -0.5313 -0.1893
 1651TIP3    H129148   5.992   3.286   6.459 -0.4962 -1.9760 -1.4696
 1651TIP3    H229149   6.063   3.322   6.330 -0.0619  0.9502 -0.4880
 1652TIP3   OH229150   6.484   2.573   7.528  0.0633  0.5135 -0.2516
 1652TIP3    H129151   6.409   2.599   7.582  0.1376 -1.2555  0.7377
 1652TIP3    H229152   6.463   2.484   7.499  1.3391  0.3766 -0.7970
 1653TIP3   OH229153   4.029   5.929   7.906  0.5621  0.5729  0.1448
 1653TIP3    H129154   4.089   5.958   7.837  0.5079  0.7255  0.1602
 1653TIP3    H229155   3.949   5.903   7.859  0.4122  0.9713  0.1699
 1654TIP3   OH229156   4.099   1.181   8.695 -0.1082 -0.0843  0.0946
 1654TIP3    H129157   4.164   1.168   8.764  0.0554 -0.8185 -0.1908
 1654TIP3    H229158   4.027   1.227   8.738 -0.1629 -0.8498  0.8368
 1655TIP3   OH229159   5.023   4.392   8.659 -0.2426  0.6088 -0.8927
 1655TIP3    H129160   4.933   4.421   8.676 -0.0216  0.6770  0.2422
 1655TIP3    H229161   5.023   4.300   8.685  0.0318  0.6280 -0.8229
 1656TIP3   OH229162   0.690   3.957   7.354  0.2626  0.0283 -0.2325
 1656TIP3    H129163   0.715   4.045   7.380 -1.3858  1.0857 -1.9632
 1656TIP3    H229164   0.745   3.899   7.407  1.4673  2.0767  0.8549
 1657TIP3   OH229165   6.764   0.092   7.469 -0.0159 -0.1095 -0.0805
 1657TIP3    H129166   6.730   0.154   7.405 -2.6836 -0.4227  0.9179
 1657TIP3    H229167   6.703   0.018   7.466  0.4831 -0.6682  1.9503
 1658TIP3   OH229168   1.602   2.791   8.900 -0.4767 -0.1045 -0.0979
 1658TIP3    H129169   1.520   2.744   8.917 -1.1950  1.3229  0.5774
 1658TIP3    H229170   1.621   2.836   8.983  0.3887  0.4729 -0.5974
 1659TIP3   OH229171   3.776   3.561   9.148  0.5767  0.2760  0.2191
 1659TIP3    H129172   3.816   3.510   9.078 -1.6017 -1.2197 -0.0300
 1659TIP3    H229173   3.710   3.614   9.104 -0.1934 -0.0051  1.0145
 1660TIP3   OH229174   5.021   0.294   8.602 -0.3105  0.1163 -0.3907
 1660TIP3    H129175   4.983   0.382   8.606  0.5956  0.6358 -2.0371
 1660TIP3    H229176   5.038   0.279   8.509  4.5219  0.4722  0.1520
 1661TIP3   OH229177   0.179   4.962   7.509  0.6129  0.1594  0.4415
 1661TIP3    H129178   0.087   4.937   7.523  0.1364  1.6229  0.1069
 1661TIP3    H229179   0.194   4.949   7.416  0.1415  1.6854  0.1188
 1662TIP3   OH229180   2.903   1.713   7.539 -0.5804 -0.1417 -0.0489
 1662TIP3    H129181   2.929   1.696   7.449 -0.7985 -1.5715  0.1366
 1662TIP3    H229182   2.949   1.646   7.590  0.5729  1.4442  1.0772
 1663TIP3   OH229183   6.696   4.934   7.170  0.1142  0.2169  0.7638
 1663TIP3    H129184   6.609   4.974   7.164 -1.0468 -2.1228  0.4579
 1663TIP3    H229185   6.701   4.875   7.095  2.2355  0.7211  0.4550
 1664TIP3   OH229186   6.197   0.158   8.452 -0.0990 -0.1913 -0.1650
 1664TIP3    H129187   6.210   0.111   8.370 -1.7254 -0.5951 -0.2302
 1664TIP3    H229188   6.284   0.165   8.490  0.3720 -2.2004 -0.7507
 1665TIP3   OH229189   3.997   3.308   9.206  0.4115 -0.2411  0.5441
 1665TIP3    H129190   3.986   3.225   9.253 -1.2029  0.7188  1.9927
 1665TIP3    H229191   4.076   3.347   9.243  0.8361 -0.8551  0.2922
 1666TIP3   OH229192   1.407   0.023   8.020 -0.8464  0.0401 -0.7394
 1666TIP3    H129193   1.432   0.107   8.056 -0.3355 -0.3919 -0.0569
 1666TIP3    H229194   1.362   0.044   7.938 -1.2760  0.9962 -0.2719
 1667TIP3   OH229195   4.456   1.460   8.216 -0.7448 -0.1716 -0.0901
 1667TIP3    H129196   4.405   1.476   8.137 -0.5914 -1.2925 -0.4313
 1667TIP3    H229197   4.392   1.466   8.288 -0.9395  0.5435 -0.3192
 1668TIP3   OH229198   3.129   2.057   8.120 -0.3376 -0.6372  0.7201
 1668TIP3    H129199   3.088   2.141   8.142 -1.4514 -1.0109  0.1497
 1668TIP3    H229200   3.222   2.069   8.142 -0.5017  0.6926  0.7625
 1669TIP3   OH229201   6.385   3.573   8.441  0.0413 -0.5754 -0.2614
 1669TIP3    H129202   6.418   3.483   8.444 -0.1902 -0.6342  1.1702
 1669TIP3    H229203   6.290   3.563   8.445 -0.0872 -0.3008 -1.7736
 1670TIP3   OH229204   0.145   6.394   9.246  0.4877  0.0118  0.2203
 1670TIP3    H129205   0.233   6.361   9.229  1.1710  1.3465  1.0399
 1670TIP3    H229206   0.121   6.440   9.165  0.3562 -0.6981 -0.1546
 1671TIP3   OH229207   2.647   4.903   9.540  0.2995  0.6950 -0.0380
 1671TIP3    H129208   2.723   4.890   9.596  0.3025 -0.1583 -0.2365
 1671TIP3    H229209   2.676   4.969   9.476  0.8656  0.3966 -0.0943
 1672TIP3   OH229210   5.752   4.652   9.095 -0.5313  0.0801  0.3516
 1672TIP3    H129211   5.709   4.670   9.178 -1.5005 -1.6762  0.2751
 1672TIP3    H229212   5.748   4.557   9.085 -0.6120  0.2496 -1.7888
 1673TIP3   OH229213   0.391   3.299   7.194 -0.0841  0.5982 -0.0243
 1673TIP3    H129214   0.450   3.281   7.121 -0.5358  0.3642 -0.3332
 1673TIP3    H229215   0.313   3.337   7.153  0.0133  1.2939  0.4195
 1674TIP3   OH229216   5.210   5.623   9.347  0.1464  0.2125  0.6805
 1674TIP3    H129217   5.191   5.598   9.437 -0.1044  0.5113  0.7102
 1674TIP3    H229218   5.196   5.718   9.344 -1.6924 -0.0433 -0.1171
 1675TIP3   OH229219   4.755   2.246   9.205  0.3993 -0.2166 -0.2013
 1675TIP3    H129220   4.739   2.339   9.223  0.7928 -0.0062 -0.8972
 1675TIP3    H229221   4.671   2.203   9.223  0.2140  0.2719  0.1219
 1676TIP3   OH229222   5.838   5.062   8.952 -0.1000  0.5454 -0.0245
 1676TIP3    H129223   5.901   5.122   8.912  0.2732 -0.2896 -0.7119
 1676TIP3    H229224   5.771   5.049   8.885  0.9558 -1.5059 -0.7430
 1677TIP3   OH229225   3.264   1.648   8.494 -0.2496  0.3152 -0.4023
 1677TIP3    H129226   3.346   1.696   8.489 -0.9662  1.5181 -1.6028
 1677TIP3    H229227   3.204   1.697   8.437 -0.5918 -2.9345 -3.1812
 1678TIP3   OH229228   1.185   4.297   9.139  0.2127  0.3076 -0.2960
 1678TIP3    H129229   1.256   4.329   9.082  0.2107  1.1470  0.1531
 1678TIP3    H229230   1.131   4.374   9.155 -0.7013 -0.2809 -0.4655
 1679TIP3   OH229231   2.433   0.473   8.348 -0.3739  0.1933 -0.4244
 1679TIP3    H129232   2.372   0.545   8.331 -1.0212 -0.3536 -0.4075
 1679TIP3    H229233   2.378   0.397   8.366  0.3092 -0.4354 -0.9368
 1680TIP3   OH229234   4.682   0.573   8.057  0.7106 -0.5845  0.0314
 1680TIP3    H129235   4.775   0.553   8.051  0.5480 -1.2991 -0.1324
 1680TIP3    H229236   4.639   0.504   8.007  0.1654  0.3602 -0.8566
 1681TIP3   OH229237   7.450   5.453   7.164 -0.1553  0.0895  0.6023
 1681TIP3    H129238   7.502   5.393   7.110  0.1399 -1.1167  2.1511
 1681TIP3    H229239   7.513   5.519   7.194  0.4220 -1.0873  2.0711
 1682TIP3   OH229240   1.506   1.138   8.459 -0.1425 -0.2531 -0.0287
 1682TIP3    H129241   1.571   1.118   8.391 -1.0435  0.2801 -1.0946
 1682TIP3    H229242   1.555   1.136   8.541  1.4071  0.9081 -0.8715
 1683TIP3   OH229243   6.464   6.161   8.761  0.5239 -0.5533  0.6401
 1683TIP3    H129244   6.409   6.236   8.782 -1.4096 -1.3625 -1.1495
 1683TIP3    H229245   6.413   6.085   8.789  0.9858 -1.3089 -0.5038
 1684TIP3   OH229246   3.021   5.130   9.221  0.1802  0.0462  0.0959
 1684TIP3    H129247   3.075   5.066   9.269 -0.2359  0.9645  1.8464
 1684TIP3    H229248   3.078   5.206   9.210  0.7031 -0.5940 -2.0669
 1685TIP3   OH229249   0.061   4.027   9.132 -0.1945 -0.2070  0.1541
 1685TIP3    H129250   0.130   3.974   9.092  0.2969 -0.7171  1.6208
 1685TIP3    H229251   0.092   4.117   9.122 -0.0604 -0.3232 -0.5551
 1686TIP3   OH229252   1.798   5.938   8.091 -0.2726  0.2957 -0.1578
 1686TIP3    H129253   1.797   5.901   8.002 -0.4979 -2.3008  0.8471
 1686TIP3    H229254   1.710   5.974   8.104 -1.0215 -1.4343 -0.1999
 1687TIP3   OH229255   2.247   5.297   7.373 -0.1823 -0.4069  0.3712
 1687TIP3    H129256   2.212   5.314   7.461  1.3633  1.7152  0.6416
 1687TIP3    H229257   2.206   5.363   7.318 -0.1950 -0.9525 -0.2816
 1688TIP3   OH229258   1.331   0.564   8.450  0.2127 -0.2889 -1.1329
 1688TIP3    H129259   1.417   0.598   8.425 -0.4201  0.3142 -2.5967
 1688TIP3    H229260   1.329   0.571   8.545  2.0569 -0.9931 -0.9951
 1689TIP3   OH229261   1.177   6.720   7.419  0.3016  0.0109 -0.7075
 1689TIP3    H129262   1.201   6.800   7.465  2.7465 -0.0159 -1.8197
 1689TIP3    H229263   1.172   6.745   7.327 -3.2711 -0.2201 -0.7275
 1690TIP3   OH229264   1.524   6.360   8.217 -0.0667  0.0314  0.2534
 1690TIP3    H129265   1.604   6.371   8.166 -1.0859  0.5306 -1.3294
 1690TIP3    H229266   1.512   6.265   8.223  0.4473 -0.0409  0.1798
 1691TIP3   OH229267   6.940   3.018   7.475 -0.1994  0.1168 -0.1206
 1691TIP3    H129268   6.889   2.952   7.427  0.3981 -1.1623  0.9214
 1691TIP3    H229269   6.921   3.000   7.567  0.8445  0.6779  0.2196
 1692TIP3   OH229270   7.066   6.211   7.272 -0.0368 -0.6281 -0.0193
 1692TIP3    H129271   7.068   6.125   7.230  0.2502 -0.2005 -0.9001
 1692TIP3    H229272   7.148   6.215   7.321 -0.0144 -0.8259 -0.0383
 1693TIP3   OH229273   1.766   1.365   7.397  0.2301 -0.5012  0.3579
 1693TIP3    H129274   1.838   1.378   7.458 -0.1052 -1.2413  0.9343
 1693TIP3    H229275   1.697   1.424   7.427  1.0013  1.1390 -0.9348
 1694TIP3   OH229276   1.504   4.112   7.595 -0.2749 -0.3536 -0.3564
 1694TIP3    H129277   1.471   4.046   7.534 -3.0375 -1.9043  2.4868
 1694TIP3    H229278   1.495   4.071   7.681  1.9281  2.2621  1.2757
 1695TIP3   OH229279   7.226   1.420   8.025  0.0594 -0.1365  0.1439
 1695TIP3    H129280   7.156   1.391   7.966 -0.0137  0.3286 -0.0033
 1695TIP3    H229281   7.307   1.395   7.981 -0.0124 -1.3056  0.6401
 1696TIP3   OH229282   6.233   5.122   8.518  0.4671  0.4879 -0.2028
 1696TIP3    H129283   6.304   5.128   8.582 -0.6130 -0.1066  1.1059
 1696TIP3    H229284   6.164   5.179   8.553 -0.6374 -0.8362 -0.1352
 1697TIP3   OH229285   3.826   5.784   7.750  0.2455 -0.0234  0.1994
 1697TIP3    H129286   3.889   5.727   7.707  0.8755 -0.2766  1.3929
 1697TIP3    H229287   3.774   5.725   7.805 -1.5072  0.0865 -1.2553
 1698TIP3   OH229288   6.186   6.617   8.442  0.3831  0.1691  0.1741
 1698TIP3    H129289   6.101   6.578   8.419  0.5270 -0.5884  0.8856
 1698TIP3    H229290   6.240   6.542   8.469  1.8215  0.4226 -1.7994
 1699TIP3   OH229291   3.604   2.390   7.360  0.5079 -0.0697  0.7681
 1699TIP3    H129292   3.541   2.434   7.304 -0.4980  0.1846  2.0608
 1699TIP3    H229293   3.681   2.377   7.304 -1.4035 -2.4536 -1.5877
 1700TIP3   OH229294   1.257   3.826   8.291  0.2252  0.2297 -0.3557
 1700TIP3    H129295   1.297   3.744   8.320 -1.6337 -0.1136  1.4914
 1700TIP3    H229296   1.163   3.807   8.289 -0.3089  2.4527  0.6960
 1701TIP3   OH229297   7.037   4.826   7.683 -0.0329  0.1635 -0.3599
 1701TIP3    H129298   6.963   4.782   7.640  1.3141 -1.9529 -0.6464
 1701TIP3    H229299   7.079   4.757   7.734  2.4875  0.9812 -1.2188
 1702TIP3   OH229300   0.408   7.487   9.279 -0.0311 -0.6126  0.8281
 1702TIP3    H129301   0.475   7.425   9.309  1.3064  0.3598 -0.0537
 1702TIP3    H229302   0.441   7.573   9.305  0.1566  0.0735 -1.4549
 1703TIP3   OH229303   5.258   6.204   8.324  0.0575 -0.3410 -0.0468
 1703TIP3    H129304   5.264   6.189   8.230 -3.1752 -0.8975 -0.2579
 1703TIP3    H229305   5.288   6.294   8.336 -1.0758  0.3066 -1.8634
 1704TIP3   OH229306   4.468   4.678   7.014 -0.6210  0.0693  0.0672
 1704TIP3    H129307   4.403   4.748   7.007 -1.1822 -0.5600 -1.9876
 1704TIP3    H229308   4.533   4.699   6.947 -0.6140 -1.1558 -0.3342
 1705TIP3   OH229309   6.870   0.466   8.679 -0.0314  0.0919  0.0238
 1705TIP3    H129310   6.802   0.446   8.743 -0.0669 -0.3879 -0.1595
 1705TIP3    H229311   6.951   0.471   8.730  0.1666 -1.6592 -0.0591
 1706TIP3   OH229312   5.579   4.214   7.529  0.3935  0.1200  0.5074
 1706TIP3    H129313   5.617   4.265   7.600 -0.9885  3.7981 -1.1464
 1706TIP3    H229314   5.573   4.276   7.456  0.5240 -3.0556 -2.4556
 1707TIP3   OH229315   5.928   7.399   8.343 -0.2697 -0.2863  0.5592
 1707TIP3    H129316   5.985   7.324   8.359 -0.0350 -0.0967  0.6143
 1707TIP3    H229317   5.934   7.415   8.248  1.8988  1.4112  0.9040
 1708TIP3   OH229318   1.097   6.078   8.506 -0.3073 -0.2176 -0.4537
 1708TIP3    H129319   1.089   6.059   8.412  0.0817  1.9883 -0.9895
 1708TIP3    H229320   1.186   6.110   8.517 -0.0772 -1.2370  0.8561
 1709TIP3   OH229321   7.657   7.581   8.189 -0.1935 -0.2237 -0.0922
 1709TIP3    H129322   7.712   7.524   8.242  0.5561 -1.7212 -2.3344
 1709TIP3    H229323   7.711   7.658   8.172 -0.1446 -0.0987  0.6013
 1710TIP3   OH229324   5.739   4.459   8.685 -0.4237  0.0999 -0.6418
 1710TIP3    H129325   5.738   4.554   8.697 -0.2176 -0.2185  2.5612
 1710TIP3    H229326   5.819   4.443   8.634 -0.0309  1.5617 -0.5319
 1711TIP3   OH229327   1.050   5.564   7.716  0.3648 -0.2456 -0.3517
 1711TIP3    H129328   1.102   5.545   7.794  0.7965  0.0600 -0.5565
 1711TIP3    H229329   1.101   5.529   7.643 -0.7131 -1.8137 -0.3913
 1712TIP3   OH229330   2.055   6.224   8.087  0.5858 -0.0422 -0.4426
 1712TIP3    H129331   2.081   6.147   8.036 -0.4092 -0.9937  0.4270
 1712TIP3    H229332   2.062   6.297   8.025  0.2641 -1.0217 -1.6893
 1713TIP3   OH229333   2.255   1.928   8.754  0.1979  0.0506 -0.0596
 1713TIP3    H129334   2.173   1.957   8.795  0.7594  1.5875  0.0666
 1713TIP3    H229335   2.235   1.924   8.660 -0.7021 -2.1198  0.1548
 1714TIP3   OH229336   6.685   4.525   9.361 -0.2514 -1.1324  0.1180
 1714TIP3    H129337   6.605   4.560   9.399  0.4064 -0.1988  0.6658
 1714TIP3    H229338   6.658   4.494   9.274 -0.8344  0.9556 -0.5063
 1715TIP3   OH229339   0.287   5.364   6.979 -0.0211  0.2961 -0.3509
 1715TIP3    H129340   0.268   5.276   6.946 -2.4914  0.0418  1.4502
 1715TIP3    H229341   0.372   5.356   7.022 -0.3953 -1.3427  0.1552
 1716TIP3   OH229342   0.631   1.193   6.958 -0.5291 -0.4749 -0.0482
 1716TIP3    H129343   0.554   1.186   6.901 -1.7874  1.8729  1.2447
 1716TIP3    H229344   0.661   1.102   6.967 -2.8718 -1.4415 -0.9577
 1717TIP3   OH229345   2.699   7.117   6.958 -0.2712 -0.2691 -0.4671
 1717TIP3    H129346   2.740   7.201   6.941 -0.5433 -0.0830 -0.2253
 1717TIP3    H229347   2.772   7.056   6.970 -0.0547  0.1174  0.2612
 1718TIP3   OH229348   0.335   6.936   7.729 -0.0941 -0.5186  0.0686
 1718TIP3    H129349   0.395   6.863   7.712  0.9192  0.3430 -0.2002
 1718TIP3    H229350   0.315   6.930   7.822  0.0732 -1.0709  0.0720
 1719TIP3   OH229351   3.121   4.211   8.410 -0.4472 -0.7377 -0.3748
 1719TIP3    H129352   3.037   4.180   8.446 -0.5586  1.5903  1.5891
 1719TIP3    H229353   3.096   4.263   8.333 -0.7659 -0.5345 -0.1367
 1720TIP3   OH229354   3.108   2.453   8.713  0.5541 -0.0324  0.4141
 1720TIP3    H129355   3.095   2.546   8.732 -0.8432 -0.2094  0.4515
 1720TIP3    H229356   3.093   2.409   8.797 -0.5846 -0.4165  0.0273
 1721TIP3   OH229357   3.433   1.990   8.639  0.4547 -0.0652 -0.0282
 1721TIP3    H129358   3.368   2.031   8.581  1.0148 -1.1125 -1.4629
 1721TIP3    H229359   3.502   2.056   8.648  0.5110 -0.0001 -0.8410
 1722TIP3   OH229360   4.779   0.131   8.575  0.1760  0.6655 -0.1294
 1722TIP3    H129361   4.834   0.180   8.636  0.7202 -2.2749  1.9663
 1722TIP3    H229362   4.697   0.116   8.622 -0.3708  0.4246 -1.1161
 1723TIP3   OH229363   1.974   5.194   8.459  0.2383  0.3100  0.7707
 1723TIP3    H129364   1.955   5.252   8.533  0.6914  0.2297  0.9521
 1723TIP3    H229365   1.890   5.152   8.439  0.1777  0.1221  1.4160
 1724TIP3   OH229366   1.919   5.539   8.741  0.0847 -0.5197  0.4997
 1724TIP3    H129367   1.831   5.568   8.714 -0.4093 -2.4152 -0.0653
 1724TIP3    H229368   1.915   5.538   8.837 -0.5033 -0.5305  0.4830
 1725TIP3   OH229369   7.155   4.471   8.821 -0.1484 -0.4427  0.1680
 1725TIP3    H129370   7.079   4.470   8.879 -0.2133  2.5114  0.2704
 1725TIP3    H229371   7.119   4.490   8.734  0.4921  1.8731  0.3692
 1726TIP3   OH229372   4.791   0.377   7.446  0.3009  0.7939 -0.6906
 1726TIP3    H129373   4.733   0.396   7.372 -0.1852 -0.3977 -0.6402
 1726TIP3    H229374   4.737   0.389   7.524 -0.0011 -0.6015 -0.6529
 1727TIP3   OH229375   5.689   3.575   8.183  0.0315 -0.4174 -0.2942
 1727TIP3    H129376   5.635   3.496   8.179 -1.4887  0.6425 -2.0960
 1727TIP3    H229377   5.779   3.543   8.171 -0.5921 -1.8354 -1.3996
 1728TIP3   OH229378   4.747   7.349   6.811 -0.8368 -0.1882 -0.2998
 1728TIP3    H129379   4.778   7.344   6.902 -0.8209 -1.6183 -0.3520
 1728TIP3    H229380   4.685   7.421   6.811 -1.0876 -0.3769  0.9339
 1729TIP3   OH229381   3.228   5.634   6.837 -0.1025  0.4700  0.2264
 1729TIP3    H129382   3.134   5.616   6.842  0.0051 -0.5555 -1.0035
 1729TIP3    H229383   3.260   5.618   6.926 -0.5888 -2.4565 -0.0187
 1730TIP3   OH229384   6.324   7.627   7.574  0.2084 -0.1321 -0.8257
 1730TIP3    H129385   6.302   7.536   7.553  0.6070 -0.6508  0.8928
 1730TIP3    H229386   6.257   7.654   7.637 -0.3775  1.0561 -1.9116
 1731TIP3   OH229387   1.150   2.976   9.107 -0.4830 -0.1600  0.1216
 1731TIP3    H129388   1.161   2.881   9.103  0.4546 -0.0033 -1.5676
 1731TIP3    H229389   1.235   3.010   9.134 -0.0736  0.3224 -1.6450
 1732TIP3   OH229390   0.336   1.758   9.206 -0.5549  0.4227  0.0810
 1732TIP3    H129391   0.342   1.675   9.159  0.9389  1.1271 -1.0496
 1732TIP3    H229392   0.245   1.764   9.233 -0.5507 -1.8928  0.7926
 1733TIP3   OH229393   2.320   2.307   8.633 -0.9912  0.0793  0.7609
 1733TIP3    H129394   2.339   2.218   8.604 -2.3900 -1.0833  3.1083
 1733TIP3    H229395   2.227   2.319   8.611 -0.7437  1.0823  0.2236
 1734TIP3   OH229396   2.811   3.493   7.920  0.3131 -0.4252 -0.2606
 1734TIP3    H129397   2.860   3.427   7.970  0.8005 -1.2267 -1.7620
 1734TIP3    H229398   2.760   3.443   7.857  0.4518  0.6033 -1.2199
 1735TIP3   OH229399   5.370   4.558   7.691  0.3037 -0.2153  0.5256
 1735TIP3    H129400   5.280   4.572   7.663  0.5620 -1.8145 -1.3211
 1735TIP3    H229401   5.365   4.480   7.747  0.5097 -0.1482  0.6377
 1736TIP3   OH229402   4.859   7.472   8.810 -0.0680  0.3240  0.4185
 1736TIP3    H129403   4.930   7.513   8.760  0.0271  0.8826  1.0000
 1736TIP3    H229404   4.860   7.380   8.781  1.1591  0.2189  0.7027
 1737TIP3   OH229405   2.963   1.481   8.302  0.5434 -0.0104 -0.6880
 1737TIP3    H129406   2.885   1.434   8.330  0.6716  0.0010 -0.3004
 1737TIP3    H229407   2.956   1.566   8.344  0.8541 -0.0746 -0.5004
 1738TIP3   OH229408   0.535   2.430   7.683 -0.2718  0.1241  0.0241
 1738TIP3    H129409   0.570   2.434   7.594  2.2248  1.5090  0.9724
 1738TIP3    H229410   0.482   2.510   7.692 -1.0146 -0.3153 -0.3836
 1739TIP3   OH229411   3.847   0.032   8.536  0.5475  0.5082 -0.2232
 1739TIP3    H129412   3.814   0.114   8.498 -1.9412  0.0276  0.7460
 1739TIP3    H229413   3.893   0.060   8.616 -1.2522  0.9466  0.7101
 1740TIP3   OH229414   0.884   3.034   9.172 -0.2487 -0.0413 -0.2044
 1740TIP3    H129415   0.839   3.012   9.090 -1.4489 -1.8746  0.8864
 1740TIP3    H229416   0.976   3.014   9.155 -0.0700  1.8465 -1.8203
 1741TIP3   OH229417   5.148   4.788   6.882  0.1294 -0.1593  0.1488
 1741TIP3    H129418   5.091   4.714   6.860  0.7477  0.0230 -2.3047
 1741TIP3    H229419   5.095   4.866   6.864  0.6601 -0.0003 -0.7665
 1742TIP3   OH229420   4.112   3.248   7.519  0.2928 -0.2880  0.1456
 1742TIP3    H129421   4.031   3.207   7.551  0.3034  0.3134  0.9841
 1742TIP3    H229422   4.094   3.268   7.427  0.2057 -1.9275 -0.2275
 1743TIP3   OH229423   7.480   5.449   7.794  0.1183  0.1731 -0.3213
 1743TIP3    H129424   7.420   5.522   7.806 -0.1392 -0.2699  1.3829
 1743TIP3    H229425   7.426   5.380   7.755 -0.5369 -0.2233  1.1962
 1744TIP3   OH229426   5.968   7.625   9.766  0.5481  0.1034 -0.6166
 1744TIP3    H129427   6.061   7.609   9.777  0.2568 -0.8993  0.5994
 1744TIP3    H229428   5.934   7.544   9.729  0.0772  0.2565 -0.5317
 1745TIP3   OH229429   3.110   1.765   8.306  0.0850  0.0127 -0.0815
 1745TIP3    H129430   3.059   1.828   8.357  1.5944  1.1556  0.0811
 1745TIP3    H229431   3.137   1.814   8.228 -1.4305 -1.4298 -1.6025
 1746TIP3   OH229432   7.223   4.132   8.516 -0.0424 -0.5112  0.2045
 1746TIP3    H129433   7.128   4.128   8.504 -0.1581 -2.0642  1.2435
 1746TIP3    H229434   7.257   4.157   8.431 -1.4834  2.5565  0.4038
 1747TIP3   OH229435   4.448   5.942   8.006 -0.1199  0.2918  0.6288
 1747TIP3    H129436   4.388   5.894   8.064  0.0379 -1.7268 -0.7714
 1747TIP3    H229437   4.513   5.877   7.980  1.3920  1.8674  0.3306
 1748TIP3   OH229438   0.156   0.664   8.994  0.2597 -0.7465  0.4370
 1748TIP3    H129439   0.219   0.611   9.042  0.4794 -1.4593 -0.6040
 1748TIP3    H229440   0.129   0.609   8.920  0.2769  0.4816 -0.5169
 1749TIP3   OH229441   3.125   4.180   7.890  0.5091 -0.3744 -0.2526
 1749TIP3    H129442   3.158   4.245   7.953 -0.9194  0.1776 -0.0433
 1749TIP3    H229443   3.204   4.148   7.846  1.4146  0.1961  0.8901
 1750TIP3   OH229444   7.432   7.430   9.497  0.7364  0.2541 -0.0962
 1750TIP3    H129445   7.462   7.347   9.535  0.4244  0.2864  0.2321
 1750TIP3    H229446   7.394   7.406   9.413  1.4012  0.1746 -0.3757
 1751TIP3   OH229447   6.255   7.641   9.766 -0.2928 -0.6224 -0.3208
 1751TIP3    H129448   6.304   7.664   9.687 -1.1343 -0.8954 -0.9447
 1751TIP3    H229449   6.306   7.677   9.838  1.2543 -1.5994 -0.8768
 1752TIP3   OH229450   3.231   3.162   8.319 -0.1877 -0.1823  0.2548
 1752TIP3    H129451   3.266   3.169   8.408  0.7768 -0.3583 -0.1027
 1752TIP3    H229452   3.199   3.072   8.312 -1.9345  0.3294  1.0002
 1753TIP3   OH229453   7.632   3.016   7.782  0.2175 -0.1327 -0.0048
 1753TIP3    H129454   7.568   3.028   7.852 -1.7961 -0.6713 -1.6649
 1753TIP3    H229455   7.697   2.955   7.818 -1.3097 -1.1946  1.0446
 1754TIP3   OH229456   5.141   3.303   8.753 -0.5941 -0.7626 -0.3092
 1754TIP3    H129457   5.217   3.245   8.755 -0.7067 -0.9097 -0.2502
 1754TIP3    H229458   5.069   3.247   8.727 -0.7821 -0.7404  0.1585
 1755TIP3   OH229459   3.733   5.792   6.807  0.1006  0.5426 -0.5371
 1755TIP3    H129460   3.751   5.811   6.899  1.1755 -1.9065 -0.1771
 1755TIP3    H229461   3.787   5.856   6.759 -1.0969  2.3956  0.4380
 1756TIP3   OH229462   4.474   2.438   8.025 -0.2929 -0.2798  0.2131
 1756TIP3    H129463   4.450   2.509   8.084  0.6319  0.1662  0.0706
 1756TIP3    H229464   4.539   2.476   7.967 -0.1529 -1.1105 -0.1940
 1757TIP3   OH229465   5.221   3.470   7.239  0.1597 -0.4249  0.2583
 1757TIP3    H129466   5.187   3.436   7.321 -0.1412 -1.2786 -0.2125
 1757TIP3    H229467   5.147   3.465   7.179  0.1536  0.9084  0.1253
 1758TIP3   OH229468   0.397   4.052   9.383 -0.1402  0.3083 -0.4251
 1758TIP3    H129469   0.476   4.010   9.349 -0.5033  0.0115 -0.9059
 1758TIP3    H229470   0.350   3.982   9.428 -0.3906  0.3615 -0.6028
 1759TIP3   OH229471   5.830   3.639   9.177 -0.0919  0.3613  0.4338
 1759TIP3    H129472   5.869   3.552   9.186  0.8923  0.5896 -1.2677
 1759TIP3    H229473   5.858   3.687   9.254  2.6204  0.3386 -0.4435
 1760TIP3   OH229474   2.092   1.129   8.445 -0.2105  0.2310 -0.2102
 1760TIP3    H129475   2.064   1.107   8.356 -1.8911  0.7119  0.1649
 1760TIP3    H229476   2.166   1.189   8.432  0.0228 -0.2497 -1.2589
 1761TIP3   OH229477   2.190   1.903   9.233 -0.5828  0.0729 -0.0092
 1761TIP3    H129478   2.259   1.838   9.250  0.2837  1.0645  0.3902
 1761TIP3    H229479   2.108   1.854   9.240 -0.1745 -0.3702  3.6143
 1762TIP3   OH229480   6.087   4.215   7.298  0.4016 -0.3527 -0.3006
 1762TIP3    H129481   6.067   4.123   7.281  0.9551 -0.5128 -0.1296
 1762TIP3    H229482   6.026   4.241   7.368  1.4265 -1.1175  0.9353
 1763TIP3   OH229483   4.960   0.516   8.087 -0.3319  0.4678  0.3073
 1763TIP3    H129484   5.040   0.474   8.119 -0.3275  0.3982  0.2067
 1763TIP3    H229485   4.945   0.589   8.147 -0.5267  0.1208  0.6876
 1764TIP3   OH229486   2.500   3.219   7.172 -0.0828  0.3296  0.2195
 1764TIP3    H129487   2.410   3.252   7.167 -0.6577 -1.2597 -0.9008
 1764TIP3    H229488   2.552   3.282   7.122 -0.7149  0.8710  0.2367
 1765TIP3   OH229489   3.096   6.798   9.313  0.0344 -0.8315 -0.2108
 1765TIP3    H129490   3.129   6.885   9.339  2.2996 -1.5385 -0.5024
 1765TIP3    H229491   3.014   6.816   9.269  0.3072  1.1609 -0.0045
 1766TIP3   OH229492   7.625   5.200   7.938  0.8216 -0.3368 -0.4103
 1766TIP3    H129493   7.638   5.228   8.029  0.4945 -2.0015  0.1825
 1766TIP3    H229494   7.583   5.274   7.896  0.1388  0.1402  1.0397
 1767TIP3   OH229495   2.896   5.723   7.648 -0.2347  0.0445 -0.6892
 1767TIP3    H129496   2.933   5.810   7.635 -0.3743  0.0789 -0.8535
 1767TIP3    H229497   2.902   5.708   7.743 -1.7766  0.9363 -0.4211
 1768TIP3   OH229498   1.704   2.040   9.041  0.1004 -0.7794  0.2152
 1768TIP3    H129499   1.637   1.999   9.096  0.0368 -1.1906 -0.1639
 1768TIP3    H229500   1.737   2.113   9.093 -0.4327 -0.7579  0.5244
 1769TIP3   OH229501   2.241   0.319   8.467  0.1854 -0.6409 -0.0619
 1769TIP3    H129502   2.261   0.233   8.506  2.6359  0.1412  0.5758
 1769TIP3    H229503   2.168   0.352   8.518  1.0302 -1.1917  1.5935
 1770TIP3   OH229504   2.152   2.089   8.047  0.0920  0.3278  0.2340
 1770TIP3    H129505   2.215   2.109   8.117  0.1057  1.1594 -0.0028
 1770TIP3    H229506   2.197   2.026   7.991  2.0184  3.1403 -1.6646
 1771TIP3   OH229507   2.746   5.514   9.156 -0.3753 -0.3038 -0.1132
 1771TIP3    H129508   2.792   5.482   9.234  0.7500 -1.5165 -1.2244
 1771TIP3    H229509   2.785   5.600   9.140  0.4404 -0.6770 -0.1740
 1772TIP3   OH229510   3.716   0.267   8.271 -0.3550 -0.6269 -0.1503
 1772TIP3    H129511   3.789   0.303   8.221 -0.7711 -0.8770 -0.9608
 1772TIP3    H229512   3.686   0.340   8.325  0.1220 -0.3587 -0.2407
 1773TIP3   OH229513   6.963   7.573   7.339  0.0690  0.2479 -0.6943
 1773TIP3    H129514   6.949   7.582   7.433  2.9255  1.0220 -0.2373
 1773TIP3    H229515   6.908   7.639   7.299 -0.3899  0.6213  0.5224
 1774TIP3   OH229516   1.804   1.926   8.346  0.3757  0.1935  0.5452
 1774TIP3    H129517   1.829   1.881   8.426 -1.0197 -0.8736  0.4142
 1774TIP3    H229518   1.727   1.978   8.370 -0.1807 -0.2980 -0.1298
 1775TIP3   OH229519   0.883   1.566   9.043  0.0426  0.2578 -0.4226
 1775TIP3    H129520   0.917   1.656   9.042  0.5796  0.0661  0.5406
 1775TIP3    H229521   0.942   1.518   9.100 -1.8147 -0.0923  1.3092
 1776TIP3   OH229522   3.599   1.238   9.536  0.5730  0.6083  0.3269
 1776TIP3    H129523   3.588   1.186   9.615 -3.1358  0.5003 -0.0914
 1776TIP3    H229524   3.568   1.180   9.465  2.7205  1.1024 -1.1178
 1777TIP3   OH229525   0.879   0.314   8.147  0.0787 -0.3622  0.7006
 1777TIP3    H129526   0.808   0.338   8.206  0.4753 -0.2711  1.1404
 1777TIP3    H229527   0.958   0.322   8.199  0.6243  1.4075 -0.2993
 1778TIP3   OH229528   4.315   7.369   8.342 -0.0623 -0.3920  0.6093
 1778TIP3    H129529   4.332   7.460   8.317 -0.1953 -0.4761  0.2025
 1778TIP3    H229530   4.387   7.347   8.402  1.4142 -0.8140 -1.2438
 1779TIP3   OH229531   6.177   4.601   9.422  0.1144 -0.2806  0.0018
 1779TIP3    H129532   6.118   4.541   9.376 -0.3683  0.4641 -0.3697
 1779TIP3    H229533   6.130   4.684   9.423  1.8431  0.7959 -1.7876
 1780TIP3   OH229534   0.411   6.662   9.031  0.4010 -0.7184 -0.0314
 1780TIP3    H129535   0.348   6.704   9.088  0.1820  0.4842 -1.1152
 1780TIP3    H229536   0.486   6.644   9.088 -0.2185 -0.5407  0.8677
 1781TIP3   OH229537   4.341   2.679   7.691 -0.2246 -0.3853  0.4019
 1781TIP3    H129538   4.392   2.757   7.710  0.0705 -0.4849  0.0171
 1781TIP3    H229539   4.405   2.609   7.685 -0.1468 -0.1925 -2.0248
 1782TIP3   OH229540   6.569   6.048   8.308  0.3445  0.0019  0.1887
 1782TIP3    H129541   6.635   6.058   8.239 -0.4484 -1.3894 -0.8439
 1782TIP3    H229542   6.603   5.978   8.364  0.9302  1.0495  1.1695
 1783TIP3   OH229543   0.643   7.570   8.093  0.4008  0.0580 -0.6897
 1783TIP3    H129544   0.674   7.654   8.060 -4.1877  2.2530 -0.3007
 1783TIP3    H229545   0.616   7.522   8.015  0.5764  0.1206 -0.7880
 1784TIP3   OH229546   0.360   5.032   7.107  0.1305 -0.3667 -0.3610
 1784TIP3    H129547   0.309   4.990   7.177 -1.2058 -1.6776 -2.0463
 1784TIP3    H229548   0.294   5.066   7.047  1.2118 -1.3243 -2.1699
 1785TIP3   OH229549   2.622   1.597   8.983 -0.2195  0.2247 -0.4852
 1785TIP3    H129550   2.695   1.535   8.983 -0.9720 -0.7155  0.6113
 1785TIP3    H229551   2.544   1.541   8.979 -0.8938  1.1656 -0.7239
 1786TIP3   OH229552   2.271   0.027   8.413  0.4997 -0.5606  0.0074
 1786TIP3    H129553   2.290  -0.029   8.338 -0.1351 -0.4513 -0.2411
 1786TIP3    H229554   2.318  -0.015   8.486 -0.4948 -1.8159 -0.0298
 1787TIP3   OH229555   6.473   4.795   9.683  0.3621  0.7545  0.0614
 1787TIP3    H129556   6.564   4.778   9.708  0.2273 -0.2290 -0.1058
 1787TIP3    H229557   6.451   4.725   9.622 -0.0797  1.7544 -0.9855
 1788TIP3   OH229558   1.845   3.657   9.154  0.6716 -0.2326 -0.2420
 1788TIP3    H129559   1.831   3.562   9.154 -0.3337 -0.1457  1.8745
 1788TIP3    H229560   1.757   3.693   9.162  1.1464  0.8324  0.2817
 1789TIP3   OH229561   7.012   5.865   9.119  0.2625 -0.8678 -0.5225
 1789TIP3    H129562   7.065   5.868   9.198 -0.0153 -1.7476 -0.2970
 1789TIP3    H229563   7.024   5.952   9.079  0.9137 -0.6447  0.1373
 1790TIP3   OH229564   5.306   0.380   7.947  1.0905 -0.2835 -0.5505
 1790TIP3    H129565   5.300   0.327   8.026 -3.3787  0.9162  0.2097
 1790TIP3    H229566   5.336   0.466   7.977  0.6738 -0.1973 -0.3780
 1791TIP3   OH229567   0.214   3.210   8.342  0.4044 -0.0676 -0.0295
 1791TIP3    H129568   0.194   3.236   8.432  0.5730 -0.0560  0.0050
 1791TIP3    H229569   0.310   3.208   8.338  0.4759 -2.6884  0.5906
 1792TIP3   OH229570   1.711   5.308   9.209 -0.6960  0.1223 -0.0321
 1792TIP3    H129571   1.797   5.299   9.250 -0.6213 -1.4253 -0.4552
 1792TIP3    H229572   1.652   5.326   9.282 -0.1044  0.6892  0.3245
 1793TIP3   OH229573   5.607   4.856   8.525  0.2411 -0.0178  1.0466
 1793TIP3    H129574   5.558   4.810   8.593 -1.4346  0.3949  0.1586
 1793TIP3    H229575   5.687   4.805   8.515 -0.6542 -1.5761  1.5072
 1794TIP3   OH229576   0.857   1.093   9.166 -0.0475 -0.2487 -0.1987
 1794TIP3    H129577   0.947   1.119   9.187 -0.1316  0.1816 -0.3597
 1794TIP3    H229578   0.843   1.124   9.077 -0.8136  0.9436  0.3010
 1795TIP3   OH229579   0.076   6.998   8.045  0.2601  0.2862 -0.7589
 1795TIP3    H129580   0.060   7.044   7.963  0.5777  2.2220  0.1877
 1795TIP3    H229581   0.045   7.059   8.113 -0.2333 -1.3503  0.5484
 1796TIP3   OH229582   3.024   6.355   8.393  0.6178  0.3689 -0.4620
 1796TIP3    H129583   3.096   6.403   8.434  1.4826 -0.8543 -0.5018
 1796TIP3    H229584   2.946   6.381   8.444  1.4152  0.0801  0.9760
 1797TIP3   OH229585   4.698   5.684   7.620  0.3249  0.0384 -0.2098
 1797TIP3    H129586   4.777   5.638   7.593  0.5705 -1.2924  2.4649
 1797TIP3    H229587   4.627   5.637   7.577  0.8992  1.6821 -3.2187
 1798TIP3   OH229588   5.985   2.424   8.495 -0.8966 -0.7163  0.1226
 1798TIP3    H129589   5.948   2.512   8.489 -0.9474 -0.8072 -1.1436
 1798TIP3    H229590   6.079   2.438   8.500 -0.9334 -0.5822  0.5252
 1799TIP3   OH229591   2.159   2.130   9.353  0.3468  0.7372  0.5309
 1799TIP3    H129592   2.145   2.050   9.303  1.9628  0.1524  0.9604
 1799TIP3    H229593   2.254   2.140   9.358  0.2059  1.9195  1.6899
 1800TIP3   OH229594   3.809   1.541   7.585 -0.4150  0.8761 -0.4266
 1800TIP3    H129595   3.814   1.454   7.545  0.1561  0.2945  0.8466
 1800TIP3    H229596   3.900   1.571   7.588 -0.7863  2.6122 -3.0491
 1801TIP3   OH229597   1.840   1.442   6.900  0.4314 -0.2117  0.2297
 1801TIP3    H129598   1.784   1.506   6.856  0.1972 -0.3937  0.2622
 1801TIP3    H229599   1.896   1.406   6.830  0.3616 -0.1841  0.1600
 1802TIP3   OH229600   1.205   4.844   7.283  0.0354  0.0294  0.4988
 1802TIP3    H129601   1.158   4.870   7.362  1.5029  2.1955  0.7532
 1802TIP3    H229602   1.251   4.764   7.307  0.8330  0.8970  2.0427
 1803TIP3   OH229603   7.114   3.863   7.362  0.2172 -0.0287 -0.5793
 1803TIP3    H129604   7.085   3.913   7.285 -1.1381  1.2856  0.7192
 1803TIP3    H229605   7.067   3.903   7.435  3.3800  0.4584  1.3396
 1804TIP3   OH229606   4.280   2.755   7.076  0.4281 -0.0258  0.3395
 1804TIP3    H129607   4.362   2.797   7.050  0.0946  1.1916  1.1779
 1804TIP3    H229608   4.215   2.824   7.071 -0.2311 -0.5508  1.3095
 1805TIP3   OH229609   6.228   6.132   9.454  0.5636  0.2627  0.2056
 1805TIP3    H129610   6.285   6.112   9.380  0.2548  2.2779 -0.6506
 1805TIP3    H229611   6.229   6.228   9.459 -3.0037  0.4327 -0.0920
 1806TIP3   OH229612   2.894   6.528   7.755 -0.1095 -0.3316  0.4453
 1806TIP3    H129613   2.836   6.569   7.818  1.0177  0.6919  0.8645
 1806TIP3    H229614   2.878   6.575   7.673  1.8104  1.7107  1.1213
 1807TIP3   OH229615   2.292   5.742   8.143  0.0028  0.7318  0.0034
 1807TIP3    H129616   2.319   5.749   8.234  0.9167  1.3844 -0.2981
 1807TIP3    H229617   2.210   5.790   8.138  0.4166  1.4823  0.3077
 1808TIP3   OH229618   2.355   7.211   8.659  0.0169 -0.0086 -0.2686
 1808TIP3    H129619   2.437   7.175   8.693  0.0314 -1.0182 -1.3128
 1808TIP3    H229620   2.369   7.218   8.564 -0.6957  0.9223 -0.3230
 1809TIP3   OH229621   3.076   7.511   9.426  0.2973  0.0053 -0.2904
 1809TIP3    H129622   3.004   7.570   9.448 -0.8133 -1.2727 -0.3345
 1809TIP3    H229623   3.047   7.468   9.345  1.6806  0.3555 -1.0058
 1810TIP3   OH229624   6.569   3.788   6.807 -0.3782  0.1785  0.0956
 1810TIP3    H129625   6.573   3.741   6.724 -0.6866  0.0950  0.1276
 1810TIP3    H229626   6.660   3.806   6.829 -0.1438 -1.6011  0.7674
 1811TIP3   OH229627   7.329   6.384   8.358 -0.2564  0.3030 -0.3806
 1811TIP3    H129628   7.402   6.376   8.297  0.0099  0.2836 -0.0625
 1811TIP3    H229629   7.260   6.330   8.320  0.2653 -0.5586 -0.1379
 1812TIP3   OH229630   0.356   0.546   9.134 -0.4618  0.8164 -0.2493
 1812TIP3    H129631   0.423   0.515   9.072 -1.1003  0.6140 -0.8438
 1812TIP3    H229632   0.400   0.615   9.184  0.1042  0.8829 -0.8319
 1813TIP3   OH229633   6.827   6.475   9.188  0.4034 -0.5538  0.6006
 1813TIP3    H129634   6.831   6.569   9.167 -0.0786 -0.7843 -0.6362
 1813TIP3    H229635   6.909   6.440   9.155  0.2640 -0.6861  0.3912
 1814TIP3   OH229636   2.456   5.618   7.702 -0.3235  0.3584 -0.0897
 1814TIP3    H129637   2.537   5.646   7.744 -0.7230  3.0243 -0.8949
 1814TIP3    H229638   2.484   5.554   7.636  0.8254 -0.4000  1.0846
 1815TIP3   OH229639   2.501   3.694   6.987  0.0072  0.5063  0.5791
 1815TIP3    H129640   2.445   3.632   7.034 -0.3484  0.6056  0.2951
 1815TIP3    H229641   2.487   3.674   6.895 -0.4653  1.2930  0.4635
 1816TIP3   OH229642   2.802   7.317   7.347 -0.2792 -0.2351  0.1010
 1816TIP3    H129643   2.867   7.378   7.382 -0.2737 -0.6276  0.7887
 1816TIP3    H229644   2.853   7.244   7.313 -0.3599 -0.6089  0.7691
 1817TIP3   OH229645   4.343   3.783   8.813 -0.8380  0.5380 -0.4353
 1817TIP3    H129646   4.285   3.811   8.743 -1.2270 -0.0215 -0.3469
 1817TIP3    H229647   4.406   3.725   8.770 -1.4416 -0.2864 -0.2301
 1818TIP3   OH229648   4.769   5.054   7.676 -0.4735 -0.3215  0.6313
 1818TIP3    H129649   4.849   5.096   7.643 -1.6188  1.2135 -0.3896
 1818TIP3    H229650   4.745   4.991   7.608 -0.1511 -0.7734  0.9321
 1819TIP3   OH229651   0.754   6.401   7.541 -0.1305  0.1823  0.2992
 1819TIP3    H129652   0.831   6.453   7.564 -0.7163  1.3159 -0.2215
 1819TIP3    H229653   0.714   6.379   7.625  0.0771  0.6319  0.5159
 1820TIP3   OH229654   4.315   7.185   6.771  0.3394 -0.4297 -0.6676
 1820TIP3    H129655   4.409   7.178   6.754  0.2209  0.9799 -2.1488
 1820TIP3    H229656   4.291   7.270   6.735 -1.3949 -0.4834  0.2917
 1821TIP3   OH229657   3.057   1.273   7.258  0.2530  0.0927 -0.5875
 1821TIP3    H129658   3.115   1.304   7.328  1.0921  1.1176 -1.6834
 1821TIP3    H229659   3.117   1.234   7.194 -0.7049 -3.3533  0.4269
 1822TIP3   OH229660   4.419   6.580   7.069  0.2821  0.5780  0.0446
 1822TIP3    H129661   4.513   6.591   7.087  0.2896 -1.6820  1.7926
 1822TIP3    H229662   4.381   6.561   7.155 -1.7618  1.1348 -0.6901
 1823TIP3   OH229663   6.550   2.890   6.280  0.6318 -0.0371 -0.0033
 1823TIP3    H129664   6.589   2.811   6.242  0.3558 -0.2174  0.0801
 1823TIP3    H229665   6.527   2.864   6.369 -0.8604 -0.3370 -0.4531
 1824TIP3   OH229666   4.533   2.572   9.419 -0.1855 -0.1546  0.3962
 1824TIP3    H129667   4.538   2.579   9.514  0.9977 -0.0109  0.3383
 1824TIP3    H229668   4.448   2.531   9.403 -1.1555  1.3238  1.4141
 1825TIP3   OH229669   0.899   2.849   6.417  0.1139 -0.0039  0.0216
 1825TIP3    H129670   0.840   2.924   6.417 -0.0659 -0.0907  1.6927
 1825TIP3    H229671   0.859   2.787   6.356  0.0263  1.0619 -1.0234
 1826TIP3   OH229672   5.144   3.156   9.407  0.4145  0.0090 -0.0346
 1826TIP3    H129673   5.158   3.104   9.328  1.5014  1.2632 -0.7096
 1826TIP3    H229674   5.076   3.109   9.455 -1.3317 -0.0526 -2.3807
 1827TIP3   OH229675   1.862   5.931   7.806 -0.6837 -1.0004  0.0982
 1827TIP3    H129676   1.878   5.837   7.791 -0.6973 -0.7253 -1.9949
 1827TIP3    H229677   1.930   5.975   7.755 -1.9213  0.1263 -0.6499
 1828TIP3   OH229678   0.398   5.350   7.246  0.6359 -0.0446 -0.6029
 1828TIP3    H129679   0.466   5.355   7.179  1.7808  0.4862  0.5368
 1828TIP3    H229680   0.435   5.291   7.313  0.6634  1.4375  0.7431
 1829TIP3   OH229681   5.272   6.105   7.374  0.2932 -0.4893 -0.2106
 1829TIP3    H129682   5.355   6.063   7.349  2.1273  2.3040  0.7213
 1829TIP3    H229683   5.277   6.193   7.336 -1.3833  0.3973  1.4699
 1830TIP3   OH229684   7.189   0.111   8.006  0.0112  0.5199  0.2305
 1830TIP3    H129685   7.115   0.118   7.946 -0.1381  0.9889  0.4616
 1830TIP3    H229686   7.241   0.189   7.989 -0.1666  0.7920  0.8828
 1831TIP3   OH229687   3.683   7.623   6.964 -0.6339  0.2474  0.5555
 1831TIP3    H129688   3.628   7.643   7.040 -1.1910 -0.8023  0.4400
 1831TIP3    H229689   3.760   7.579   7.001  0.4041  2.1425  0.7685
 1832TIP3   OH229690   1.421   4.646   8.503  0.3722 -0.1949 -0.1458
 1832TIP3    H129691   1.443   4.736   8.477  1.5456 -0.2769  0.5112
 1832TIP3    H229692   1.327   4.639   8.486 -0.4057  2.1286  2.4305
 1833TIP3   OH229693   2.013   5.769   7.536  0.2701  0.0403  0.5525
 1833TIP3    H129694   2.106   5.792   7.544  0.5480 -1.3415  1.7088
 1833TIP3    H229695   1.988   5.740   7.624 -0.4649 -2.3232 -0.3466
 1834TIP3   OH229696   0.601   7.122   9.026 -0.2662  0.3008 -0.1256
 1834TIP3    H129697   0.534   7.071   9.072 -1.2096  1.6244  0.0379
 1834TIP3    H229698   0.558   7.154   8.947  1.0676 -1.1671 -1.5150
 1835TIP3   OH229699   3.293   7.367   9.089  0.3015 -0.0707 -0.0148
 1835TIP3    H129700   3.296   7.273   9.107 -0.5738 -0.4833 -1.8279
 1835TIP3    H229701   3.356   7.405   9.151 -0.7885 -1.5815  2.1584
 1836TIP3   OH229702   0.303   3.554   9.005  0.2101  0.5695  0.1215
 1836TIP3    H129703   0.355   3.589   9.078  0.8808  1.1432 -0.6185
 1836TIP3    H229704   0.334   3.601   8.928 -0.0970 -0.4296 -0.6354
 1837TIP3   OH229705   0.499   4.483   8.162 -0.0151 -0.4970  0.2997
 1837TIP3    H129706   0.431   4.433   8.206 -0.8703 -1.6500 -2.1700
 1837TIP3    H229707   0.468   4.493   8.072  1.9982  1.0341 -0.3097
 1838TIP3   OH229708   6.612   6.857   7.643  0.8215  0.7738 -0.1342
 1838TIP3    H129709   6.566   6.784   7.602 -0.7524  1.6188  0.0265
 1838TIP3    H229710   6.621   6.922   7.572 -1.3495  1.9865  0.6019
 1839TIP3   OH229711   6.920   2.350   8.283  0.4223 -0.3479 -0.4796
 1839TIP3    H129712   6.894   2.440   8.262  0.5235 -0.4842 -1.1843
 1839TIP3    H229713   6.855   2.322   8.348  1.3605  0.7955  1.0504
 1840TIP3   OH229714   1.435   1.624   6.583 -0.0505 -0.5442  0.5380
 1840TIP3    H129715   1.450   1.545   6.532 -0.5877  0.0281 -0.5451
 1840TIP3    H229716   1.387   1.594   6.660 -1.3110 -1.1409 -0.4428
 1841TIP3   OH229717   1.935   2.025   6.815 -0.2537  0.9095 -0.7519
 1841TIP3    H129718   1.987   2.105   6.820  0.2758  0.6479 -1.7915
 1841TIP3    H229719   1.897   2.026   6.727 -1.1371  0.5524 -0.3909
 1842TIP3   OH229720   1.608   5.814   8.764 -0.4948  0.3331  0.1566
 1842TIP3    H129721   1.653   5.885   8.719  0.3565 -0.3499 -0.0775
 1842TIP3    H229722   1.553   5.859   8.829  0.1870  1.2012  0.1597
 1843TIP3   OH229723   0.974   1.558   8.627 -0.5924  0.6650  0.1634
 1843TIP3    H129724   1.031   1.536   8.701 -2.4104 -0.0785  1.4223
 1843TIP3    H229725   1.035   1.582   8.556  1.2718 -0.4126  1.3018
 1844TIP3   OH229726   1.194   5.037   7.111  0.1836 -0.6889  0.4287
 1844TIP3    H129727   1.216   4.956   7.156  0.4005  0.2852  2.1640
 1844TIP3    H229728   1.098   5.036   7.106  0.2317 -1.5136 -0.4904
 1845TIP3   OH229729   4.465   7.039   9.690 -0.2430  0.1721 -0.3502
 1845TIP3    H129730   4.545   7.062   9.642 -0.1444  0.5192 -0.0231
 1845TIP3    H229731   4.496   7.002   9.772 -0.4036 -1.1197 -0.8521
 1846TIP3   OH229732   3.205   4.157   9.195  0.6064 -0.7003  0.2012
 1846TIP3    H129733   3.154   4.078   9.175  0.1015  0.2267 -2.4932
 1846TIP3    H229734   3.258   4.172   9.117  0.3700  1.8907  0.4709
 1847TIP3   OH229735   6.467   1.509   8.518 -0.3153 -0.4785  0.2935
 1847TIP3    H129736   6.467   1.562   8.598 -1.0741  1.6467 -1.0151
 1847TIP3    H229737   6.559   1.498   8.496 -0.1418  0.7354  0.3584
 1848TIP3   OH229738   1.532   6.965   8.476  0.0661  0.0544  0.3395
 1848TIP3    H129739   1.483   7.040   8.441  0.8700  1.2252  1.6323
 1848TIP3    H229740   1.505   6.891   8.421  0.3849  1.5553 -1.9457
 1849TIP3   OH229741   4.047   4.173   8.713 -0.1164  0.2306 -0.1322
 1849TIP3    H129742   4.080   4.220   8.789 -1.8444  0.2303  0.6628
 1849TIP3    H229743   3.977   4.118   8.747  0.0512 -0.8894 -1.4975
 1850TIP3   OH229744   7.270   3.216   9.151  0.3016 -0.0654 -0.2859
 1850TIP3    H129745   7.348   3.179   9.109 -0.6229 -0.9416 -1.2641
 1850TIP3    H229746   7.256   3.299   9.107  1.8380  1.1098  1.2863
 1851TIP3   OH229747   1.244   4.049   9.258  0.6764 -0.4059 -0.3564
 1851TIP3    H129748   1.223   4.141   9.275  1.0211 -0.8602  3.1342
 1851TIP3    H229749   1.160   4.005   9.253  0.4673 -0.5539  2.8159
 1852TIP3   OH229750   6.749   5.440   8.608 -0.0597 -0.1626  0.0967
 1852TIP3    H129751   6.805   5.518   8.608 -0.6862  0.3057 -0.2253
 1852TIP3    H229752   6.715   5.435   8.697 -1.0566  0.7242 -0.2119
 1853TIP3   OH229753   1.445   6.657   8.820 -0.1062  0.0798  0.2251
 1853TIP3    H129754   1.475   6.730   8.874  0.2737  0.3192 -0.3048
 1853TIP3    H229755   1.504   6.657   8.745  0.8269 -1.6933  0.9231
 1854TIP3   OH229756   0.366   2.005   8.671 -0.5184  0.0839 -0.5695
 1854TIP3    H129757   0.442   2.050   8.707 -0.1345 -1.0490  0.0907
 1854TIP3    H229758   0.291   2.060   8.698 -0.0386  0.5365 -0.1302
 1855TIP3   OH229759   5.314   0.234   8.189  0.3195 -0.7037 -0.2595
 1855TIP3    H129760   5.270   0.149   8.197 -0.3602 -0.2194  1.6356
 1855TIP3    H229761   5.396   0.222   8.237 -0.2199 -0.0342  0.8717
 1856TIP3   OH229762   1.425   3.782   6.817 -0.5811  0.4672  0.0416
 1856TIP3    H129763   1.486   3.716   6.850 -1.1464 -0.4734 -0.7714
 1856TIP3    H229764   1.455   3.864   6.858  1.1673  0.0250 -0.2510
 1857TIP3   OH229765   6.896   0.024   9.030  0.4833  0.0697  0.3185
 1857TIP3    H129766   6.854   0.109   9.043 -0.4565 -0.0999 -1.2959
 1857TIP3    H229767   6.979   0.045   8.987 -0.0019  0.1757 -0.6057
 1858TIP3   OH229768   3.737   6.680   9.222 -0.4728  0.5656 -0.2442
 1858TIP3    H129769   3.663   6.663   9.280 -0.2183 -1.5425 -0.4409
 1858TIP3    H229770   3.698   6.690   9.135 -0.5748 -0.2143 -0.2959
 1859TIP3   OH229771   2.794   1.857   8.188  0.6258  0.7565  0.1325
 1859TIP3    H129772   2.779   1.793   8.258 -1.6300 -1.3422 -2.0502
 1859TIP3    H229773   2.833   1.806   8.117  0.1688  2.1328 -1.1638
 1860TIP3   OH229774   3.942   6.660   9.547  0.1048  0.2721 -0.0784
 1860TIP3    H129775   3.987   6.697   9.622 -1.2486  0.6005  0.6012
 1860TIP3    H229776   3.924   6.735   9.490 -1.1614  0.4606  0.5192
 1861TIP3   OH229777   5.096   2.403   7.852 -0.2756  0.3383  0.1973
 1861TIP3    H129778   5.152   2.469   7.812  2.1756 -2.5413 -1.5062
 1861TIP3    H229779   5.017   2.402   7.798  0.6932  0.2599 -1.2591
 1862TIP3   OH229780   2.227   0.922   9.277  0.3414  0.6533 -0.1924
 1862TIP3    H129781   2.237   0.838   9.322 -0.3670  0.4580 -0.3794
 1862TIP3    H229782   2.315   0.945   9.248  0.5593  0.0311 -0.0401
 1863TIP3   OH229783   0.233   0.050   8.136  0.2599  0.0573 -0.1840
 1863TIP3    H129784   0.171   0.109   8.180  0.7173 -0.8751  1.8113
 1863TIP3    H229785   0.312   0.053   8.191  0.6647 -1.5718 -0.6350
 1864TIP3   OH229786   0.293   3.110   7.830 -0.2686 -0.1940  0.1695
 1864TIP3    H129787   0.278   3.038   7.891 -0.5388  0.5443  1.0119
 1864TIP3    H229788   0.376   3.148   7.859  0.4480 -0.8593 -0.9838
 1865TIP3   OH229789   7.404   3.369   8.306 -0.4040 -0.2223  0.4015
 1865TIP3    H129790   7.410   3.284   8.262 -0.1228  0.0331 -0.0655
 1865TIP3    H229791   7.326   3.362   8.361 -0.5710 -0.6684  0.1175
 1866TIP3   OH229792   3.357   7.502   8.445 -0.2383 -0.0351 -0.3945
 1866TIP3    H129793   3.402   7.585   8.464  1.0950 -1.3423  2.9500
 1866TIP3    H229794   3.265   7.521   8.463  0.1387  0.6025  1.0360
 1867TIP3   OH229795   2.407   7.251   8.365 -0.2423 -0.0226  0.0805
 1867TIP3    H129796   2.499   7.224   8.371 -0.3588 -0.3422  0.4436
 1867TIP3    H229797   2.401   7.293   8.279  0.4539  0.8181  0.4181
 1868TIP3   OH229798   3.618   6.684   8.989  0.2310 -0.3571  0.0690
 1868TIP3    H129799   3.535   6.650   8.957 -0.3969  1.4484 -0.3701
 1868TIP3    H229800   3.671   6.697   8.910  0.9193 -1.3816  0.3349
 1869TIP3   OH229801   6.105   4.348   6.955  0.6620 -0.0541 -0.4528
 1869TIP3    H129802   6.118   4.254   6.940  1.6147 -0.1618  0.8280
 1869TIP3    H229803   6.194   4.385   6.954  0.4340  0.5618  0.6296
 1870TIP3   OH229804   2.737   1.769   7.079  0.3736 -0.3734 -0.4123
 1870TIP3    H129805   2.696   1.821   7.010 -0.1776  0.0646  0.2308
 1870TIP3    H229806   2.811   1.725   7.036 -0.3726 -0.6543 -1.4325
 1871TIP3   OH229807   2.112   6.920   9.268  0.3572  0.2049 -0.0575
 1871TIP3    H129808   2.025   6.911   9.228  0.1939  2.3395 -0.2973
 1871TIP3    H229809   2.095   6.961   9.353  1.1215  0.8012 -0.1807
 1872TIP3   OH229810   0.955   6.977   7.564  0.2120  0.0757  0.2500
 1872TIP3    H129811   1.048   6.970   7.544 -0.1641 -0.5816 -1.4572
 1872TIP3    H229812   0.917   7.021   7.487 -0.7237  1.4886  1.4536
 1873TIP3   OH229813   6.847   6.310   8.912 -0.2095 -0.3419 -0.0159
 1873TIP3    H129814   6.924   6.363   8.892 -0.9822  0.8234  0.0153
 1873TIP3    H229815   6.803   6.299   8.827  0.4385 -1.7617 -0.1908
 1874TIP3   OH229816   0.758   3.344   7.840  0.1116  0.0875 -0.3507
 1874TIP3    H129817   0.759   3.368   7.748 -0.6385 -0.7820 -0.5991
 1874TIP3    H229818   0.845   3.366   7.872  1.0386 -1.4035 -1.7383
 1875TIP3   OH229819   4.816   0.394   7.125  0.0265 -0.4103  0.1368
 1875TIP3    H129820   4.822   0.483   7.159  1.5336  0.2950 -1.7979
 1875TIP3    H229821   4.784   0.404   7.035  0.0962 -1.8328 -0.0760
 1876TIP3   OH229822   4.146   4.197   7.994 -0.0499  0.1561  0.6709
 1876TIP3    H129823   4.211   4.237   8.052 -0.5474 -0.4235  1.6341
 1876TIP3    H229824   4.065   4.199   8.043 -0.8721  1.2067 -0.6675
 1877TIP3   OH229825   5.917   1.724   9.480  0.6468 -0.2386 -0.2743
 1877TIP3    H129826   5.991   1.728   9.541  0.3276 -2.1904  0.3121
 1877TIP3    H229827   5.861   1.654   9.515 -1.7399  1.4551 -0.4299
 1878TIP3   OH229828   4.767   2.625   7.476 -0.6290 -0.7241 -0.3352
 1878TIP3    H129829   4.686   2.578   7.496 -1.0631 -1.2210 -2.9379
 1878TIP3    H229830   4.809   2.572   7.408  1.9032 -0.4528  0.8980
 1879TIP3   OH229831   2.858   7.555   8.200  0.3421  0.6683  0.2786
 1879TIP3    H129832   2.801   7.564   8.123  1.8229  0.8494 -0.8496
 1879TIP3    H229833   2.805   7.587   8.273 -0.7803  1.4021 -0.8108
 1880TIP3   OH229834   3.124   2.728   8.759  0.3367 -0.1383  0.1443
 1880TIP3    H129835   3.152   2.791   8.826  1.2916 -0.8972  0.4700
 1880TIP3    H229836   3.073   2.781   8.698 -1.6806  0.3784  2.1161
 1881TIP3   OH229837   3.080   5.888   8.396 -0.2684 -0.3460 -0.2086
 1881TIP3    H129838   3.106   5.803   8.362 -0.8062 -0.2270 -0.9545
 1881TIP3    H229839   3.120   5.951   8.336 -0.1551 -0.0816  0.1391
 1882TIP3   OH229840   5.240   6.032   8.923  0.5129  0.1587  0.1657
 1882TIP3    H129841   5.197   5.956   8.962 -1.2369  1.6233  1.2616
 1882TIP3    H229842   5.195   6.044   8.839  0.0633  0.6042  0.4710
 1883TIP3   OH229843   0.523   3.606   8.532 -0.0916  0.1632 -0.2222
 1883TIP3    H129844   0.569   3.687   8.511 -0.0358 -0.4549 -2.7951
 1883TIP3    H229845   0.473   3.585   8.453 -0.8571 -1.8168  0.7125
 1884TIP3   OH229846   3.469   0.325   7.715  0.1762 -0.3339 -0.3003
 1884TIP3    H129847   3.420   0.301   7.637  1.0368  0.8464 -1.2396
 1884TIP3    H229848   3.407   0.377   7.767 -0.6031 -1.6589  0.1494
 1885TIP3   OH229849   7.267   7.441   7.547 -0.4458 -0.0578 -0.3637
 1885TIP3    H129850   7.199   7.380   7.519 -1.4997 -0.2117  2.2485
 1885TIP3    H229851   7.347   7.409   7.506 -1.2626 -2.2118 -0.4124
 1886TIP3   OH229852   7.070   7.264   7.371 -1.2354 -0.2338 -0.3418
 1886TIP3    H129853   7.002   7.211   7.329 -1.4855  0.3613 -0.7000
 1886TIP3    H229854   7.026   7.346   7.393 -0.6943  0.0630 -0.3573
 1887TIP3   OH229855   1.109   3.016   7.866  0.2344 -0.4212 -0.3509
 1887TIP3    H129856   1.061   2.934   7.854  1.2249 -0.6721 -3.0690
 1887TIP3    H229857   1.187   2.991   7.916  0.7263 -1.2456 -1.4971
 1888TIP3   OH229858   7.610   0.472   7.454  0.5936 -0.7721 -0.2047
 1888TIP3    H129859   7.584   0.429   7.373 -0.1659 -2.2006  0.7758
 1888TIP3    H229860   7.687   0.423   7.484 -0.2522 -1.4466  0.9026
 1889TIP3   OH229861   6.853   1.247   7.686 -0.0640  0.0520 -0.1683
 1889TIP3    H129862   6.807   1.203   7.757 -0.2948  1.5575  0.6697
 1889TIP3    H229863   6.795   1.238   7.610 -1.1190  0.7206  0.5306
 1890TIP3   OH229864   5.273   6.577   9.256  0.1330  0.0167  0.7087
 1890TIP3    H129865   5.193   6.565   9.308 -1.1344  1.5239 -0.7729
 1890TIP3    H229866   5.309   6.660   9.286 -1.1102  1.3745 -1.2999
 1891TIP3   OH229867   2.056   5.440   8.389 -0.1945  0.1529 -0.2292
 1891TIP3    H129868   2.033   5.349   8.408  2.2609 -0.3578  0.6682
 1891TIP3    H229869   1.980   5.491   8.418 -0.6473 -1.4464  1.6021
 1892TIP3   OH229870   3.906   3.407   8.946 -0.2479  0.2343  0.0834
 1892TIP3    H129871   3.886   3.323   8.905  2.1522  0.5345 -1.9095
 1892TIP3    H229872   3.955   3.383   9.026  1.3485 -0.3201 -1.0102
 1893TIP3   OH229873   6.048   0.821   9.536  0.4478 -0.0411 -0.6351
 1893TIP3    H129874   6.144   0.827   9.534  0.4286  0.6796  0.2120
 1893TIP3    H229875   6.028   0.741   9.487  1.4774 -0.1327 -0.9197
 1894TIP3   OH229876   5.845   4.206   9.179 -0.1788  0.0809 -0.0276
 1894TIP3    H129877   5.764   4.157   9.161 -1.4806  2.1394 -0.1040
 1894TIP3    H229878   5.889   4.155   9.247 -2.1882 -0.4616  0.9556
 1895TIP3   OH229879   2.733   6.468   9.022 -0.9592  0.6637 -0.1994
 1895TIP3    H129880   2.815   6.489   9.067 -0.2945 -1.6864 -0.2068
 1895TIP3    H229881   2.688   6.552   9.016 -0.3784  1.4174  3.3882
 1896TIP3   OH229882   4.252   6.480   8.367 -0.7559  0.3963 -0.4707
 1896TIP3    H129883   4.296   6.460   8.449  0.4012 -0.5527 -1.2775
 1896TIP3    H229884   4.245   6.395   8.323  0.4476  1.1266 -2.1874
 1897TIP3   OH229885   6.957   6.667   8.933  0.2339  0.0483  0.1740
 1897TIP3    H129886   6.875   6.658   8.983  0.7450 -1.9131  0.7650
 1897TIP3    H229887   7.015   6.717   8.991  0.1625 -0.4887  0.7235
 1898TIP3   OH229888   7.598   0.220   7.981  0.0395 -0.0569  0.1022
 1898TIP3    H129889   7.611   0.192   8.071 -1.1390  0.0052  0.3054
 1898TIP3    H229890   7.519   0.274   7.983  0.7738  1.1078 -0.7333
 1899TIP3   OH229891   6.743   7.346   9.321 -0.1585  0.1490 -0.2592
 1899TIP3    H129892   6.807   7.333   9.251  0.9403  0.2999  0.6827
 1899TIP3    H229893   6.659   7.320   9.282  0.3316  0.7262 -1.7757
 1900TIP3   OH229894   4.497   5.554   9.496  0.3381 -0.0897 -0.7873
 1900TIP3    H129895   4.550   5.501   9.436 -0.6625  0.5750 -2.3238
 1900TIP3    H229896   4.418   5.503   9.510  0.2394  0.0970 -0.6579
 1901TIP3   OH229897   1.517   2.578   9.113 -0.1215  0.2353  0.0908
 1901TIP3    H129898   1.606   2.544   9.105 -0.2638 -0.3075  0.7351
 1901TIP3    H229899   1.475   2.556   9.030  0.2757  0.3058 -0.1326
 1902TIP3   OH229900   5.851   0.017   9.410 -0.2200  0.3686 -0.0982
 1902TIP3    H129901   5.836  -0.025   9.495  1.3597 -0.8454 -0.3694
 1902TIP3    H229902   5.771   0.067   9.393 -0.7453  0.2760  1.8848
 1903TIP3   OH229903   3.039   0.890   7.516 -0.3767 -0.8333 -0.2407
 1903TIP3    H129904   3.052   0.934   7.432  1.7195 -3.3730 -1.4141
 1903TIP3    H229905   3.117   0.913   7.567  0.9249 -3.1934 -0.9964
 1904TIP3   OH229906   1.777   4.369   9.236  0.0906 -0.2839  0.1505
 1904TIP3    H129907   1.802   4.320   9.314 -0.9855 -3.5522 -1.3605
 1904TIP3    H229908   1.693   4.409   9.258  1.0593  1.1124  1.4731
 1905TIP3   OH229909   0.486   7.597   8.538 -0.5136  0.0151  0.2689
 1905TIP3    H129910   0.519   7.512   8.568 -0.9777 -0.4996 -0.6443
 1905TIP3    H229911   0.467   7.584   8.445  0.1024  1.3367 -0.0622
 1906TIP3   OH229912   3.324   1.137   9.460 -0.5846 -0.1884 -0.4525
 1906TIP3    H129913   3.338   1.079   9.536  0.8611  0.2839 -0.3202
 1906TIP3    H229914   3.273   1.085   9.399  0.5632 -1.5903 -0.2808
 1907TIP3   OH229915   1.116   5.849   7.323 -0.4158 -0.4555 -0.3766
 1907TIP3    H129916   1.056   5.887   7.258 -0.4331  2.2188  1.0601
 1907TIP3    H229917   1.088   5.887   7.406  0.5417 -2.6166  1.0263
 1908TIP3   OH229918   4.925   1.207   8.311 -0.1489 -0.2061 -0.7332
 1908TIP3    H129919   4.904   1.168   8.226  0.1090 -2.5706  0.2144
 1908TIP3    H229920   4.853   1.267   8.328  0.3139  1.1466 -3.0489
 1909TIP3   OH229921   1.712   1.746   8.153  0.3621 -0.8764 -0.1415
 1909TIP3    H129922   1.752   1.796   8.225 -0.8668 -1.1795  0.7745
 1909TIP3    H229923   1.735   1.796   8.075  1.7846 -0.5706  0.4334
 1910TIP3   OH229924   2.135   1.614   9.422 -0.1135 -0.1463  0.0980
 1910TIP3    H129925   2.144   1.689   9.481 -0.9129 -0.1121  0.1882
 1910TIP3    H229926   2.162   1.539   9.473 -0.4355 -0.0673  0.3841
 1911TIP3   OH229927   4.851   5.934   8.265 -0.1339 -0.4239 -0.3544
 1911TIP3    H129928   4.894   5.890   8.338  0.3971 -0.7811 -0.8775
 1911TIP3    H229929   4.913   5.928   8.193  0.0950  1.4659 -0.3654
 1912TIP3   OH229930   5.022   7.191   9.619  0.2491 -0.0582 -0.1404
 1912TIP3    H129931   5.027   7.253   9.546 -0.4768  0.3383  0.1468
 1912TIP3    H229932   5.083   7.121   9.594  1.7806  1.1975 -0.0344
 1913TIP3   OH229933   1.695   4.260   8.521  0.7141 -0.4360  0.1744
 1913TIP3    H129934   1.620   4.303   8.479  1.3116 -0.1435 -0.6261
 1913TIP3    H229935   1.770   4.312   8.494  1.0773  0.1396  2.1489
 1914TIP3   OH229936   5.815   0.527   7.284  0.3456  0.0111 -0.6884
 1914TIP3    H129937   5.743   0.474   7.249 -1.3014  1.7822 -0.1439
 1914TIP3    H229938   5.786   0.617   7.273  2.1985  0.7697  0.2075
 1915TIP3   OH229939   3.824   3.482   9.443  0.8351  0.0630 -0.5543
 1915TIP3    H129940   3.877   3.463   9.366  1.7685 -4.1493  0.8689
 1915TIP3    H229941   3.886   3.515   9.508  1.6352 -3.1811  0.5280
 1916TIP3   OH229942   0.198   7.655   6.780  0.3373  0.1701 -0.7108
 1916TIP3    H129943   0.249   7.617   6.850 -2.4438 -1.7257  0.4810
 1916TIP3    H229944   0.197   7.749   6.798  0.8809 -0.1177  0.9476
 1917TIP3   OH229945   2.462   4.750   8.906  0.1519  0.3946 -0.3496
 1917TIP3    H129946   2.443   4.844   8.906  0.6333  0.4935 -0.0448
 1917TIP3    H229947   2.416   4.717   8.983  1.7786  0.7630  0.8343
 1918TIP3   OH229948   5.928   6.379   8.597  0.2723 -0.3411  0.5321
 1918TIP3    H129949   5.955   6.453   8.651  0.5126  0.0547 -0.1276
 1918TIP3    H229950   5.889   6.317   8.659 -0.8661  0.7646  0.9516
 1919TIP3   OH229951   0.559   0.817   8.774 -0.3697  0.4509 -0.6254
 1919TIP3    H129952   0.611   0.827   8.694 -0.1006 -1.0599 -0.6529
 1919TIP3    H229953   0.498   0.746   8.754  0.5429 -0.8256  0.9302
 1920TIP3   OH229954   6.382   1.502   7.534 -0.3079 -0.1072  0.2811
 1920TIP3    H129955   6.427   1.553   7.602 -0.0483 -1.8947  1.5180
 1920TIP3    H229956   6.443   1.501   7.460  0.9643 -0.9693  1.2800
 1921TIP3   OH229957   7.057   6.779   8.700  0.5402 -0.7285 -0.4641
 1921TIP3    H129958   7.152   6.777   8.702  0.5732  0.3987  1.0715
 1921TIP3    H229959   7.030   6.742   8.784 -0.3698 -0.6035 -0.6839
 1922TIP3   OH229960   3.313   6.632   9.219  0.0360  0.1605 -0.1957
 1922TIP3    H129961   3.242   6.682   9.259  0.0650  0.9902 -1.1486
 1922TIP3    H229962   3.387   6.642   9.280  0.2269  1.8102 -0.6484
 1923TIP3   OH229963   3.954   0.815   8.518 -0.0665  0.2452 -0.5242
 1923TIP3    H129964   4.007   0.880   8.471 -0.3874  0.5252 -0.5019
 1923TIP3    H229965   3.863   0.842   8.501 -0.1827  0.5356  0.5214
 1924TIP3   OH229966   6.296   5.243   6.917  0.0438  0.1166  0.8235
 1924TIP3    H129967   6.331   5.154   6.910 -2.1193 -0.7327  0.0246
 1924TIP3    H229968   6.345   5.294   6.852 -0.9680 -1.2942 -1.1210
 1925TIP3   OH229969   1.171   5.780   9.596 -0.4163 -0.2602 -0.4627
 1925TIP3    H129970   1.179   5.778   9.691 -0.2730 -1.6624 -0.4727
 1925TIP3    H229971   1.189   5.870   9.572 -2.4841  0.5968  0.9927
 1926TIP3   OH229972   2.851   1.463   7.194 -0.1567 -0.1433 -0.5060
 1926TIP3    H129973   2.922   1.400   7.185 -0.9950 -1.4645  1.4800
 1926TIP3    H229974   2.874   1.515   7.271 -1.0804 -0.2739 -0.1228
 1927TIP3   OH229975   3.952   0.469   8.949  0.3526  0.4260 -0.3538
 1927TIP3    H129976   3.967   0.484   8.856 -2.3854  0.6254 -0.8362
 1927TIP3    H229977   3.911   0.550   8.981  1.2144  0.3466  1.0314
 1928TIP3   OH229978   5.936   2.927   7.753  0.6959  0.3956  0.3845
 1928TIP3    H129979   5.923   2.884   7.837 -0.0725 -0.4056 -0.1207
 1928TIP3    H229980   5.849   2.957   7.727  0.6655 -0.5614 -0.7333
 1929TIP3   OH229981   0.436   1.136   7.730 -0.4060  0.7744 -0.1404
 1929TIP3    H129982   0.377   1.154   7.803 -3.0393  0.7263 -2.1429
 1929TIP3    H229983   0.435   1.041   7.721  0.1308  0.7602 -0.0939
 1930TIP3   OH229984   5.226   4.961   7.753 -0.8150  0.0817  0.2301
 1930TIP3    H129985   5.282   5.030   7.787  2.4559 -1.0981 -2.2508
 1930TIP3    H229986   5.252   4.882   7.801 -0.6133 -0.3990 -0.6459
 1931TIP3   OH229987   7.648   1.527   8.411  0.1263  0.0959 -0.4642
 1931TIP3    H129988   7.597   1.597   8.451  1.2742 -0.0892  1.4270
 1931TIP3    H229989   7.685   1.479   8.485 -1.5521 -3.2650 -1.6291
 1932TIP3   OH229990   0.171   4.538   8.456 -0.0367 -0.0683  0.3987
 1932TIP3    H129991   0.118   4.583   8.389 -0.8920  1.3623  1.9417
 1932TIP3    H229992   0.147   4.446   8.448 -0.6757  0.1760 -0.7667
 1933TIP3   OH229993   1.221   6.241   8.263  0.5230 -0.3256  0.0918
 1933TIP3    H129994   1.306   6.277   8.289  0.6590 -2.2626  2.6704
 1933TIP3    H229995   1.169   6.318   8.239  2.8171  0.9452 -1.2080
 1934TIP3   OH229996   4.130   4.283   7.696 -0.1615 -0.1244 -0.5446
 1934TIP3    H129997   4.159   4.373   7.709 -3.3776  1.0630 -0.6488
 1934TIP3    H229998   4.110   4.251   7.784  0.0688 -0.4118 -0.5944
 1935TIP3   OH229999   7.117   7.524   7.781 -0.2612  0.3827 -0.0395
 1935TIP3    H130000   7.201   7.523   7.828 -0.0557  2.4820 -0.2679
 1935TIP3    H230001   7.139   7.557   7.694 -1.0765 -0.8031 -0.7237
 1936TIP3   OH230002   3.515   2.607   7.654  0.0557  0.4707 -0.0797
 1936TIP3    H130003   3.536   2.686   7.703 -1.8152  0.9730  0.0116
 1936TIP3    H230004   3.537   2.535   7.712  2.4754  0.8615 -0.4413
 1937TIP3   OH230005   5.987   5.123   7.287 -0.2438  0.1038 -0.5193
 1937TIP3    H130006   6.015   5.135   7.197 -1.0627  0.8131 -0.6896
 1937TIP3    H230007   5.907   5.070   7.281 -0.4728  0.4098 -0.2334
 1938TIP3   OH230008   6.540   3.511   7.897  0.0311 -0.3554  1.0044
 1938TIP3    H130009   6.570   3.591   7.940  0.3716  0.0534  0.0484
 1938TIP3    H230010   6.449   3.530   7.871 -0.1591 -0.5841  1.4901
 1939TIP3   OH230011   5.405   3.895   7.933  0.2537  0.0751 -0.3427
 1939TIP3    H130012   5.454   3.885   8.014  1.9416 -0.3359 -1.3782
 1939TIP3    H230013   5.440   3.974   7.893 -1.4184  0.9746 -0.1460
 1940TIP3   OH230014   6.781   6.603   7.461 -0.2309 -0.0748  0.4679
 1940TIP3    H130015   6.797   6.518   7.501 -0.6462 -1.3521 -1.8893
 1940TIP3    H230016   6.845   6.609   7.389 -0.2398  1.5894  0.5469
 1941TIP3   OH230017   0.503   0.067   9.351  0.2098 -0.1435  0.4021
 1941TIP3    H130018   0.418   0.096   9.318  0.9934  0.5414 -1.0805
 1941TIP3    H230019   0.566   0.131   9.317  1.6076 -1.8665 -0.3996
 1942TIP3   OH230020   4.433   0.767   9.393  0.4696 -0.0200  0.3554
 1942TIP3    H130021   4.439   0.697   9.458  1.8407 -1.3720 -1.1245
 1942TIP3    H230022   4.516   0.761   9.345 -1.2766 -0.4710 -2.8357
 1943TIP3   OH230023   6.525   4.383   8.282  0.0097 -0.0052  0.2193
 1943TIP3    H130024   6.505   4.467   8.242  0.0661 -0.0385  0.1204
 1943TIP3    H230025   6.472   4.320   8.233  0.3482 -0.0920 -0.0406
 1944TIP3   OH230026   4.552   4.539   8.349 -0.3722 -0.2368  0.1447
 1944TIP3    H130027   4.592   4.524   8.263 -0.0151 -3.4971  0.7700
 1944TIP3    H230028   4.461   4.514   8.338 -0.4607 -0.1126  0.5903
 1945TIP3   OH230029   5.813   5.326   8.806  0.4765 -0.4539 -0.0121
 1945TIP3    H130030   5.776   5.283   8.883 -0.7685 -2.6969 -1.7290
 1945TIP3    H230031   5.856   5.404   8.840 -2.6726  0.3643  2.6262
 1946TIP3   OH230032   5.014   0.343   8.929  0.2148  0.7201  0.1792
 1946TIP3    H130033   4.947   0.331   8.861 -2.1568 -0.0038  2.4952
 1946TIP3    H230034   5.060   0.259   8.932 -1.0876  0.0107  0.8632
 1947TIP3   OH230035   1.392   7.158   8.353 -0.3078  0.3469 -0.1734
 1947TIP3    H130036   1.430   7.231   8.402  0.8448 -0.4877  0.2200
 1947TIP3    H230037   1.298   7.165   8.369  0.0787 -0.4833  3.0526
 1948TIP3   OH230038   3.230   6.440   6.737 -0.0264 -0.5676  0.5083
 1948TIP3    H130039   3.283   6.459   6.660  0.1909 -1.1334  0.5183
 1948TIP3    H230040   3.145   6.414   6.702 -0.1437 -0.1508  0.4801
 1949TIP3   OH230041   1.595   2.072   8.442 -0.0432  0.0950  0.5395
 1949TIP3    H130042   1.500   2.076   8.459 -0.2939  1.1096 -0.9016
 1949TIP3    H230043   1.615   2.156   8.402  1.7047  0.3245  1.8070
 1950TIP3   OH230044   0.335   6.227   7.461  0.8437 -0.0176 -0.0342
 1950TIP3    H130045   0.350   6.277   7.381  0.2933  0.7766  0.3521
 1950TIP3    H230046   0.329   6.292   7.530  3.1176 -0.7782  0.9795
 1951TIP3   OH230047   5.120   3.500   7.514 -0.0266  0.0076 -0.1454
 1951TIP3    H130048   5.083   3.456   7.591  1.0808 -0.2971  0.2244
 1951TIP3    H230049   5.043   3.524   7.461 -0.8599  0.9085  1.4038
 1952TIP3   OH230050   3.208   6.148   8.513  0.3563  0.1458 -0.0018
 1952TIP3    H130051   3.284   6.159   8.456 -0.8038  0.8111 -1.4986
 1952TIP3    H230052   3.135   6.184   8.463 -0.7769  0.5557  1.8476
 1953TIP3   OH230053   2.182   7.504   9.376  0.0373 -0.1355 -0.3569
 1953TIP3    H130054   2.151   7.593   9.361 -0.2330 -0.2837 -0.6921
 1953TIP3    H230055   2.161   7.457   9.296  0.7467 -0.3511 -0.4211
 1954TIP3   OH230056   0.889   2.859   7.394 -0.1481 -0.3861  0.0042
 1954TIP3    H130057   0.902   2.798   7.467 -1.9339 -0.6613  0.1193
 1954TIP3    H230058   0.917   2.810   7.317 -2.2595 -1.6749 -0.0027
 1955TIP3   OH230059   0.014   0.580   7.697 -0.3533  0.3103  0.2253
 1955TIP3    H130060   0.093   0.528   7.708  1.8507  3.0221 -1.3395
 1955TIP3    H230061  -0.009   0.569   7.605 -0.6220  1.0708  0.1958
 1956TIP3   OH230062   1.716   2.217   7.689  0.0636 -0.3850  0.7345
 1956TIP3    H130063   1.728   2.235   7.596  1.3902 -0.6108  0.8399
 1956TIP3    H230064   1.733   2.123   7.698 -0.8977 -0.5420  1.0907
 1957TIP3   OH230065   3.744   4.710   7.661 -0.2086 -0.0216  0.1797
 1957TIP3    H130066   3.741   4.759   7.579  1.3215 -1.1720 -0.6069
 1957TIP3    H230067   3.708   4.625   7.639  1.8675 -0.9574  0.1941
 1958TIP3   OH230068   2.058   0.031   9.255 -0.2744  0.1888  0.0334
 1958TIP3    H130069   2.124   0.099   9.243 -0.2410  0.4372  1.5362
 1958TIP3    H230070   1.994   0.047   9.186  1.0447  0.1303 -1.2723
 1959TIP3   OH230071   5.933   5.051   8.236 -0.1624  0.0073 -0.3378
 1959TIP3    H130072   6.018   5.095   8.237 -0.2506  0.3160 -2.4036
 1959TIP3    H230073   5.913   5.039   8.143 -1.6638 -1.4728  0.1204
 1960TIP3   OH230074   6.327   6.187   8.264  0.2912 -0.0277  0.0529
 1960TIP3    H130075   6.372   6.259   8.307 -0.2900 -0.4516  1.4300
 1960TIP3    H230076   6.396   6.123   8.246  0.6519  0.4527 -0.2806
 1961TIP3   OH230077   6.234   6.389   7.887 -0.3379 -0.3623 -0.2098
 1961TIP3    H130078   6.157   6.338   7.911 -0.0017 -1.5458 -1.5287
 1961TIP3    H230079   6.224   6.406   7.794  0.6582  0.0818 -0.2526
 1962TIP3   OH230080   5.679   4.291   6.603  0.9840 -0.2572 -0.2099
 1962TIP3    H130081   5.661   4.383   6.582  2.8346  0.3817  0.7443
 1962TIP3    H230082   5.594   4.256   6.629 -0.0317  0.7816 -1.9318
 1963TIP3   OH230083   6.855   6.397   7.626  0.0104  0.1583  0.7315
 1963TIP3    H130084   6.925   6.335   7.644  0.9246  0.5721 -1.2295
 1963TIP3    H230085   6.794   6.349   7.570  0.1025  0.6321  0.2177
 1964TIP3   OH230086   4.811   0.962   7.880 -0.6468  0.0141 -0.0077
 1964TIP3    H130087   4.795   1.054   7.905  0.1746  0.6510 -1.7125
 1964TIP3    H230088   4.891   0.939   7.927 -0.6129  0.3008  0.0824
 1965TIP3   OH230089   0.280   6.871   9.232 -0.5418 -0.0291  0.5729
 1965TIP3    H130090   0.196   6.826   9.223 -1.5337  1.8310  0.0483
 1965TIP3    H230091   0.277   6.941   9.167  2.0807 -0.8146 -0.5215
 1966TIP3   OH230092   5.786   0.824   7.933  0.4931 -0.0455  0.4458
 1966TIP3    H130093   5.860   0.783   7.978 -0.1452 -0.7636  0.8841
 1966TIP3    H230094   5.745   0.879   8.000  1.7350  1.9035 -0.3203
 1967TIP3   OH230095   4.141   6.143   7.211  0.2663  0.2906  0.3242
 1967TIP3    H130096   4.132   6.144   7.115  1.2045 -1.4334  0.1919
 1967TIP3    H230097   4.222   6.096   7.228 -1.0155 -1.4781  2.0196
 1968TIP3   OH230098   6.569   1.200   8.625  0.1653 -0.4797 -0.1734
 1968TIP3    H130099   6.476   1.222   8.622  0.0763 -0.6544  0.8112
 1968TIP3    H230100   6.571   1.104   8.630  0.4216 -0.5095 -0.7589
 1969TIP3   OH230101   0.174   2.642   8.738  0.4394  0.4373  0.1381
 1969TIP3    H130102   0.102   2.669   8.680  0.1901  2.0806  1.1487
 1969TIP3    H230103   0.167   2.701   8.813  0.9421 -1.4539  1.7203
 1970TIP3   OH230104   4.371   3.398   8.569 -0.2486 -0.3237  0.0878
 1970TIP3    H130105   4.384   3.492   8.558 -0.5331 -0.1741  0.9624
 1970TIP3    H230106   4.424   3.358   8.500 -0.1072  0.4743 -0.2731
 1971TIP3   OH230107   3.727   0.155   9.668  0.5408 -0.2970  0.0285
 1971TIP3    H130108   3.771   0.080   9.706 -1.3227 -0.4377  2.1093
 1971TIP3    H230109   3.635   0.128   9.661 -0.3325  1.9706  1.5428
 1972TIP3   OH230110   3.425   4.370   7.828 -0.6215 -0.0155 -0.0356
 1972TIP3    H130111   3.386   4.364   7.915 -0.6221 -1.4867 -0.1150
 1972TIP3    H230112   3.426   4.280   7.795  1.9232  0.0788 -0.4365
 1973TIP3   OH230113   3.137   3.558   8.873  0.1713  0.0669  0.1461
 1973TIP3    H130114   3.191   3.484   8.903 -0.3013 -0.2579  0.2202
 1973TIP3    H230115   3.115   3.536   8.783 -0.9035 -0.4610  0.5065
 1974TIP3   OH230116   6.882   3.440   8.053 -0.0521  0.6549  0.3930
 1974TIP3    H130117   6.916   3.496   7.983  0.5126  1.2515  1.1334
 1974TIP3    H230118   6.849   3.363   8.007  0.3731  1.0016 -0.5269
 1975TIP3   OH230119   5.893   5.652   9.284 -0.2282  1.3737 -0.2949
 1975TIP3    H130120   5.978   5.669   9.244 -0.1479  0.4571 -0.5373
 1975TIP3    H230121   5.831   5.655   9.212  0.0195 -1.0854 -0.6813
 1976TIP3   OH230122   5.732   6.922   8.741 -0.0472 -0.1689 -0.0496
 1976TIP3    H130123   5.803   6.977   8.709 -1.0315  0.5081 -1.2051
 1976TIP3    H230124   5.714   6.953   8.829 -0.5633  1.4005 -0.6680
 1977TIP3   OH230125   7.266   4.319   7.302  0.1357  0.3362 -0.1097
 1977TIP3    H130126   7.249   4.249   7.364 -1.3937  1.2383  0.5400
 1977TIP3    H230127   7.231   4.287   7.219  0.5539 -0.1485 -0.1031
 1978TIP3   OH230128   0.743   4.714   8.182 -0.1048  0.2039 -0.2565
 1978TIP3    H130129   0.713   4.674   8.101 -0.4457  1.0282 -0.5397
 1978TIP3    H230130   0.678   4.781   8.202 -0.2490 -0.2610  0.9174
 1979TIP3   OH230131   2.646   2.311   8.795  0.2472  0.7175 -0.1214
 1979TIP3    H130132   2.589   2.326   8.870 -0.2861 -2.0228  0.1436
 1979TIP3    H230133   2.732   2.293   8.832  0.3604  0.9558 -0.2663
 1980TIP3   OH230134   5.422   3.320   9.367 -0.2086 -0.8235 -0.0403
 1980TIP3    H130135   5.350   3.263   9.394 -0.8842 -0.8005 -1.6593
 1980TIP3    H230136   5.405   3.403   9.412 -0.6464 -1.1155  0.3401
 1981TIP3   OH230137   6.043   3.744   8.698 -0.2166  0.4365  0.0436
 1981TIP3    H130138   6.102   3.671   8.678  1.0739  1.3657  0.3869
 1981TIP3    H230139   6.019   3.730   8.790 -1.0783 -0.3001 -0.2772
 1982TIP3   OH230140   6.917   4.993   6.654  0.7473  0.4409 -0.1352
 1982TIP3    H130141   6.920   5.086   6.630  3.5031  0.2712 -0.7914
 1982TIP3    H230142   7.003   4.959   6.628  0.3892 -1.9469  1.5059
 1983TIP3   OH230143   3.834   6.270   7.477 -0.8522 -0.2887 -0.7587
 1983TIP3    H130144   3.839   6.262   7.572  0.4171  1.9375 -0.5587
 1983TIP3    H230145   3.755   6.323   7.461 -0.6200  0.0283 -0.8708
 1984TIP3   OH230146   1.068   1.439   9.300 -0.0521  0.0844 -0.2453
 1984TIP3    H130147   1.088   1.532   9.287  0.5674 -0.2261 -1.7773
 1984TIP3    H230148   1.042   1.432   9.392 -0.9181  1.9095 -0.3149
 1985TIP3   OH230149   2.802   1.339   7.950 -0.1953  0.1884  0.0527
 1985TIP3    H130150   2.738   1.410   7.945 -0.1798  0.1883 -0.1780
 1985TIP3    H230151   2.753   1.262   7.920 -0.0238  0.2324 -0.3536
 1986TIP3   OH230152   0.529   1.637   8.167  0.4728  0.4280 -0.2146
 1986TIP3    H130153   0.474   1.576   8.119 -0.3055  1.2681 -0.4269
 1986TIP3    H230154   0.499   1.632   8.258 -1.0188  1.9637 -0.5747
 1987TIP3   OH230155   5.630   7.187   8.630 -0.3013  0.2587 -0.2626
 1987TIP3    H130156   5.616   7.121   8.698  0.0122 -0.8017 -1.2019
 1987TIP3    H230157   5.571   7.259   8.654 -0.0816 -0.0222  1.2036
 1988TIP3   OH230158   0.142   4.277   8.572 -0.2499  0.3034 -0.0451
 1988TIP3    H130159   0.066   4.221   8.562  0.8398 -1.1493 -0.5077
 1988TIP3    H230160   0.155   4.284   8.667  0.2851 -1.2341  0.0198
 1989TIP3   OH230161   1.535   4.496   9.279 -0.5429 -0.3563 -0.1996
 1989TIP3    H130162   1.507   4.512   9.368  3.1393  0.1340  1.0598
 1989TIP3    H230163   1.561   4.583   9.246 -0.6684 -0.7130 -1.2867
 1990TIP3   OH230164   1.103   2.501   8.873  0.1312 -0.5786 -0.1741
 1990TIP3    H130165   1.016   2.515   8.910 -0.2469  1.9854 -1.7588
 1990TIP3    H230166   1.087   2.484   8.780  1.3028  0.2693 -0.5604
 1991TIP3   OH230167   6.263   1.207   7.757 -0.2302 -0.1767  0.2533
 1991TIP3    H130168   6.334   1.224   7.695 -0.5399  0.7980  0.1503
 1991TIP3    H230169   6.224   1.293   7.773  0.3491 -0.2657  2.4392
 1992TIP3   OH230170   4.643   2.894   6.718  0.0142 -0.7637  0.1723
 1992TIP3    H130171   4.702   2.924   6.649 -1.5161  0.4574 -0.6750
 1992TIP3    H230172   4.568   2.857   6.671  0.5749 -3.4483  1.2200
 1993TIP3   OH230173   1.383   5.092   7.329  0.4108  0.3078 -0.0444
 1993TIP3    H130174   1.419   5.010   7.363  1.9409  1.3480  0.9740
 1993TIP3    H230175   1.312   5.065   7.271 -0.2240 -1.6763  1.5501
 1994TIP3   OH230176   1.005   7.044   9.457 -0.2638 -0.2608 -0.3452
 1994TIP3    H130177   0.949   7.116   9.429 -1.3622 -1.0467 -0.2423
 1994TIP3    H230178   1.063   7.027   9.383  1.1148  1.7537  0.1987
 1995TIP3   OH230179   1.566   4.895   8.423  0.2462 -0.2238 -1.2411
 1995TIP3    H130180   1.643   4.850   8.390  2.9379  2.1785  1.2582
 1995TIP3    H230181   1.581   4.905   8.517 -4.0378 -1.2092 -0.2335
 1996TIP3   OH230182   3.095   6.299   8.823  0.0007 -0.1709  0.0455
 1996TIP3    H130183   3.036   6.255   8.762  0.0462  0.1854 -0.2593
 1996TIP3    H230184   3.176   6.250   8.818 -0.1285 -0.3951  0.1339
 1997TIP3   OH230185   5.222   1.866   8.579 -0.0314 -0.6413 -0.0820
 1997TIP3    H130186   5.207   1.788   8.632  2.1547 -1.9459 -1.2697
 1997TIP3    H230187   5.315   1.863   8.557 -0.1950  1.5532 -1.3540
 1998TIP3   OH230188   0.789   5.132   7.706 -0.3966  0.2598  0.0894
 1998TIP3    H130189   0.865   5.177   7.743 -0.2618  1.0393 -1.0825
 1998TIP3    H230190   0.746   5.198   7.652 -2.9061  0.3616  2.0470
 1999TIP3   OH230191   2.910   2.670   7.350 -0.5812 -0.4789  0.2982
 1999TIP3    H130192   2.839   2.697   7.407 -0.9293  0.6674 -0.6278
 1999TIP3    H230193   2.898   2.576   7.337 -2.2446 -0.2183 -0.2486
 2000TIP3   OH230194   6.561   2.102   8.284 -0.1843  0.1324 -0.1409
 2000TIP3    H130195   6.571   2.177   8.343  0.9891  0.6957 -0.9944
 2000TIP3    H230196   6.643   2.053   8.294 -0.6379 -0.6417 -0.1346
 2001TIP3   OH230197   6.897   3.769   7.079  0.2063  0.4271 -0.2470
 2001TIP3    H130198   6.954   3.841   7.104  1.7605 -1.5403  2.4865
 2001TIP3    H230199   6.942   3.726   7.007  1.5524 -0.2966  0.9849
 2002TIP3   OH230200   0.944   5.890   8.841  0.4242  0.3275  0.6176
 2002TIP3    H130201   0.941   5.971   8.789  1.0695  0.0294  0.0953
 2002TIP3    H230202   0.985   5.917   8.924  0.8323  0.5046  0.3645
 2003TIP3   OH230203   3.187   2.491   7.945 -0.4693 -0.0254  0.3160
 2003TIP3    H130204   3.112   2.545   7.972  0.6051  0.1680  3.3057
 2003TIP3    H230205   3.253   2.554   7.915 -0.7148 -0.0413 -0.2774
 2004TIP3   OH230206   3.889   7.182   7.749 -0.1360  0.3731 -0.0511
 2004TIP3    H130207   3.844   7.138   7.821  0.3848  1.0480  0.6964
 2004TIP3    H230208   3.980   7.189   7.778  0.2539 -0.0497 -1.1092
 2005TIP3   OH230209   1.575   5.411   7.028  0.2591 -0.0710 -0.0623
 2005TIP3    H130210   1.603   5.449   6.944 -1.0527 -1.0797 -0.9922
 2005TIP3    H230211   1.620   5.326   7.031  1.0777  0.3709  0.7509
 2006TIP3   OH230212   3.537   1.815   8.450  0.3321  0.0128 -0.1623
 2006TIP3    H130213   3.534   1.855   8.537 -0.4199  0.7864 -0.5372
 2006TIP3    H230214   3.583   1.879   8.396  0.8923 -0.5125 -0.3235
 2007TIP3   OH230215   0.214   0.109   7.498  0.0350 -0.0293 -0.2954
 2007TIP3    H130216   0.265   0.033   7.524  0.3408 -0.3204 -1.6424
 2007TIP3    H230217   0.151   0.075   7.434 -2.8212  0.0528  2.2631
 2008TIP3   OH230218   1.121   7.080   9.208  0.2041 -0.7319 -0.2645
 2008TIP3    H130219   1.137   7.174   9.219 -0.1745 -0.2390 -3.1638
 2008TIP3    H230220   1.201   7.047   9.166 -0.4575 -1.2636 -1.1402
 2009TIP3   OH230221   3.813   3.303   6.820 -0.7523  0.8680 -0.6706
 2009TIP3    H130222   3.890   3.264   6.861 -1.6580  1.0973  1.3770
 2009TIP3    H230223   3.845   3.339   6.737  1.0493 -0.1652 -0.4664
 2010TIP3   OH230224   7.066   1.386   7.771  0.6651  0.4130 -0.0368
 2010TIP3    H130225   6.995   1.348   7.719 -0.8692  2.3939  0.4999
 2010TIP3    H230226   7.135   1.319   7.771 -1.8239 -2.3160  0.8279
 2011TIP3   OH230227   0.156   0.295   7.150  0.2631 -0.2180  0.0115
 2011TIP3    H130228   0.125   0.218   7.104  0.0070 -0.9623  1.3721
 2011TIP3    H230229   0.077   0.348   7.164  0.0979 -0.6650  0.8124
 2012TIP3   OH230230   2.253   3.658   8.547  0.4357 -0.1119 -0.1788
 2012TIP3    H130231   2.305   3.650   8.627  0.2077 -1.0124 -0.1050
 2012TIP3    H230232   2.265   3.748   8.519  0.3237  0.2896  1.0084
 2013TIP3   OH230233   6.625   0.630   8.199  0.3358 -0.2168  0.0181
 2013TIP3    H130234   6.564   0.583   8.142  1.0533 -0.1226 -0.8510
 2013TIP3    H230235   6.602   0.722   8.188  1.2762 -0.0905 -1.1272
 2014TIP3   OH230236   2.534   4.131   6.627  0.3113 -0.0512 -0.6737
 2014TIP3    H130237   2.497   4.200   6.573  1.2426  0.1358 -1.0948
 2014TIP3    H230238   2.541   4.170   6.714 -0.5592 -0.1262 -0.5627
 2015TIP3   OH230239   4.714   5.816   9.193  0.1695 -0.5182  0.2622
 2015TIP3    H130240   4.619   5.830   9.198  0.1106 -0.4310 -0.8572
 2015TIP3    H230241   4.745   5.882   9.131  1.3503  1.0640  2.3992
 2016TIP3   OH230242   4.528   5.073   8.006  0.5079 -0.0102 -0.1666
 2016TIP3    H130243   4.616   5.094   7.973  0.4748  0.0726 -0.2009
 2016TIP3    H230244   4.512   5.140   8.073 -0.0017  0.6713 -0.9605
 2017TIP3   OH230245   5.371   1.998   8.273  0.2936  0.4929  0.0242
 2017TIP3    H130246   5.391   2.072   8.217  1.3336 -0.2526 -0.6180
 2017TIP3    H230247   5.402   2.024   8.360 -1.3589  1.6645  0.3291
 2018TIP3   OH230248   3.933   1.086   7.549  0.8540  0.0932  0.3312
 2018TIP3    H130249   3.869   1.108   7.616 -1.5319 -2.6329 -0.8529
 2018TIP3    H230250   4.017   1.087   7.595 -0.2785  1.4327  2.5365
 2019TIP3   OH230251   3.450   2.778   7.877 -0.4080  0.2867  0.4167
 2019TIP3    H130252   3.423   2.860   7.919 -0.1233  1.6334 -1.8795
 2019TIP3    H230253   3.376   2.754   7.821  0.8346  0.9465 -1.6072
 2020TIP3   OH230254   4.376   5.908   8.982  0.6461 -0.5099  0.3050
 2020TIP3    H130255   4.289   5.947   8.982  1.2466  0.9008  0.4190
 2020TIP3    H230256   4.365   5.825   8.937 -0.8629 -0.6262  0.8108
 2021TIP3   OH230257   3.388   0.727   8.282  0.2422 -0.5709 -0.7957
 2021TIP3    H130258   3.422   0.638   8.292  3.6700  0.3828 -2.2757
 2021TIP3    H230259   3.337   0.725   8.201  0.5707 -1.1285 -0.9902
 2022TIP3   OH230260   5.693   0.435   8.924  0.1641  0.5821  0.0948
 2022TIP3    H130261   5.729   0.488   8.995  2.3750  1.0283 -1.2875
 2022TIP3    H230262   5.647   0.497   8.868  0.0015  0.5106  0.1468
 2023TIP3   OH230263   6.078   1.737   7.697 -0.7442  1.0937 -0.1406
 2023TIP3    H130264   6.101   1.699   7.612  1.1429 -1.3800  1.3383
 2023TIP3    H230265   5.999   1.789   7.679 -0.2059  1.0229 -3.4394
 2024TIP3   OH230266   6.189   2.978   8.862  0.1005 -0.1513  0.2608
 2024TIP3    H130267   6.212   2.916   8.793  2.5602  1.2042 -0.2725
 2024TIP3    H230268   6.147   3.050   8.816 -1.0492 -0.5612  0.6341
 2025TIP3   OH230269   4.988   4.104   8.589  0.0467  0.4801  0.1890
 2025TIP3    H130270   5.018   4.158   8.515  0.0630  0.3085  0.0675
 2025TIP3    H230271   5.063   4.103   8.649  0.0812  0.5161  0.1476
 2026TIP3   OH230272   4.289   3.123   7.698 -0.2385  1.0777  0.0098
 2026TIP3    H130273   4.215   3.149   7.642  0.6574  3.4417 -0.1802
 2026TIP3    H230274   4.329   3.050   7.651 -1.3731  0.9399 -0.8054
 2027TIP3   OH230275   5.778   0.898   6.896 -0.0563 -0.8758 -0.6375
 2027TIP3    H130276   5.736   0.933   6.974  0.6743 -1.3227 -0.0403
 2027TIP3    H230277   5.862   0.944   6.890 -0.9855  0.7399 -2.3788
 2028TIP3   OH230278   5.329   5.336   7.778 -0.1220 -0.7233  0.1615
 2028TIP3    H130279   5.269   5.407   7.803  1.1935 -0.3659  2.6457
 2028TIP3    H230280   5.303   5.262   7.833 -0.6472 -1.7880 -1.4723
 2029TIP3   OH230281   7.453   2.745   6.920 -0.0773  0.9956  0.1491
 2029TIP3    H130282   7.513   2.739   6.994 -1.6270  2.3779  1.6048
 2029TIP3    H230283   7.392   2.672   6.931 -0.5470  1.4327  0.4696
 2030TIP3   OH230284   0.213   0.539   6.929  0.2464 -0.4418 -0.0603
 2030TIP3    H130285   0.135   0.569   6.978  1.4605  1.3103  0.9205
 2030TIP3    H230286   0.257   0.479   6.989  2.0518  2.1589  1.4405
 2031TIP3   OH230287   2.104   4.886   9.547  0.1755 -0.2339 -0.1382
 2031TIP3    H130288   2.088   4.867   9.455 -0.7749  2.2697 -0.5782
 2031TIP3    H230289   2.191   4.925   9.550 -0.3146  0.9024 -0.2109
 2032TIP3   OH230290   0.531   0.179   8.215 -0.2074  0.1032  0.1739
 2032TIP3    H130291   0.579   0.111   8.170 -2.1977  0.2087 -2.3124
 2032TIP3    H230292   0.491   0.231   8.145 -3.9566 -0.0439  1.9654
 2033TIP3   OH230293   2.479   7.648   8.948 -0.3037 -0.0319  0.2218
 2033TIP3    H130294   2.489   7.699   9.028 -0.9897 -0.4470  0.5783
 2033TIP3    H230295   2.538   7.690   8.886  0.9981 -0.3061  1.2305
 2034TIP3   OH230296   0.451   4.419   6.877  0.4469 -0.1922 -0.4919
 2034TIP3    H130297   0.482   4.329   6.865  0.2091 -0.5451  1.3522
 2034TIP3    H230298   0.357   4.415   6.856  0.3986 -0.4088 -0.2287
 2035TIP3   OH230299   6.073   6.991   7.096 -0.1466  0.1720 -0.1981
 2035TIP3    H130300   5.994   6.961   7.142 -0.0505 -0.6360 -0.5444
 2035TIP3    H230301   6.044   7.070   7.049 -0.5502  0.3156  0.2737
 2036TIP3   OH230302   7.468   5.707   7.977 -0.2267 -0.0501  0.0208
 2036TIP3    H130303   7.389   5.659   7.999 -0.7082  0.5300 -0.4193
 2036TIP3    H230304   7.538   5.663   8.026 -1.2120  1.2044  2.7660
 2037TIP3   OH230305   2.746   4.226   8.016 -0.0218 -0.5647  0.1742
 2037TIP3    H130306   2.794   4.300   8.051 -1.0120  0.3163 -0.2772
 2037TIP3    H230307   2.813   4.171   7.975  0.6975  0.2070  0.2928
 2038TIP3   OH230308   4.544   7.365   7.133  0.0016  0.1006  0.7172
 2038TIP3    H130309   4.469   7.323   7.091 -1.1047  2.9827 -0.4592
 2038TIP3    H230310   4.620   7.324   7.091 -1.0223  0.0079 -1.1811
 2039TIP3   OH230311   1.979   1.923   7.433 -0.0978 -0.2775 -0.2367
 2039TIP3    H130312   1.897   1.874   7.429 -0.1025 -0.1962 -3.1662
 2039TIP3    H230313   2.047   1.855   7.437 -0.2249 -0.3590  1.0719
 2040TIP3   OH230314   4.217   5.427   8.200  0.2887  0.4043  0.1961
 2040TIP3    H130315   4.289   5.442   8.139 -0.1482  1.3304 -0.1082
 2040TIP3    H230316   4.138   5.446   8.149 -0.3043 -2.0312  0.0668
 2041TIP3   OH230317   1.238   3.216   8.396  0.4290 -0.2494 -0.2138
 2041TIP3    H130318   1.233   3.128   8.434 -1.5969 -1.4396 -2.9177
 2041TIP3    H230319   1.244   3.201   8.302 -1.9793  2.4543 -0.9507
 2042TIP3   OH230320   3.035   6.172   6.561 -0.5745  0.0245 -0.0763
 2042TIP3    H130321   2.991   6.089   6.582  0.0066 -0.2909 -0.0541
 2042TIP3    H230322   3.120   6.145   6.526 -0.2169  0.6196  0.3064
 2043TIP3   OH230323   5.869   7.392   9.702  0.0040  0.2612 -0.5197
 2043TIP3    H130324   5.887   7.308   9.745 -0.9372  0.5033  0.3915
 2043TIP3    H230325   5.894   7.378   9.611 -1.4752 -1.4818 -0.7145
 2044TIP3   OH230326   4.607   1.394   7.239  0.2049 -0.0190  0.2879
 2044TIP3    H130327   4.608   1.306   7.202 -1.6440 -0.0158  0.1400
 2044TIP3    H230328   4.613   1.380   7.334  0.5030 -0.2650  0.2342
 2045TIP3   OH230329   1.952   3.208   8.769 -0.0917 -0.1632  0.2190
 2045TIP3    H130330   1.954   3.219   8.674 -2.5647 -0.5194  0.0473
 2045TIP3    H230331   1.923   3.293   8.803  0.2629 -0.1956  0.6119
 2046TIP3   OH230332   7.568   2.579   8.141  0.3932  0.0358  0.0820
 2046TIP3    H130333   7.475   2.573   8.162  0.4445  2.5820  1.3875
 2046TIP3    H230334   7.570   2.579   8.045 -0.7101 -2.0246 -0.0163
 2047TIP3   OH230335   4.515   5.473   7.611 -0.0653  0.3748 -0.1375
 2047TIP3    H130336   4.541   5.425   7.690  1.7553  0.7409 -0.4750
 2047TIP3    H230337   4.423   5.494   7.626 -0.1988 -0.9482  1.1680
 2048TIP3   OH230338   0.688   1.603   8.647 -0.6376 -0.4926  0.6061
 2048TIP3    H130339   0.661   1.513   8.665  0.7654 -1.7687 -2.7173
 2048TIP3    H230340   0.783   1.601   8.652 -0.5850  0.8460  0.5445
 2049TIP3   OH230341   1.730   4.079   8.178  0.0918  0.5975  0.6772
 2049TIP3    H130342   1.761   3.988   8.173  0.5598  0.8468 -2.6650
 2049TIP3    H230343   1.636   4.071   8.191  0.1157 -0.3520  0.3723
 2050TIP3   OH230344   6.087   5.280   8.010 -0.0579  0.2929  0.1877
 2050TIP3    H130345   5.995   5.305   8.020 -0.0449  0.5556 -0.3360
 2050TIP3    H230346   6.119   5.271   8.100 -1.1617 -1.9393  0.4159
 2051TIP3   OH230347   4.703   5.944   7.632 -0.3288 -0.4924  0.3150
 2051TIP3    H130348   4.681   5.851   7.628 -0.5033 -0.4582  0.4642
 2051TIP3    H230349   4.726   5.959   7.724  0.0677 -0.4706  0.2145
 2052TIP3   OH230350   5.344   5.422   9.212 -0.0332 -0.8203 -0.0443
 2052TIP3    H130351   5.264   5.385   9.175  0.9502 -4.6486  1.2156
 2052TIP3    H230352   5.316   5.467   9.291 -1.1627  0.2293 -0.9951
 2053TIP3   OH230353   1.990   0.450   7.449  0.3004  0.1933  0.0006
 2053TIP3    H130354   2.075   0.494   7.448  0.3335  0.2203  1.6150
 2053TIP3    H230355   1.943   0.487   7.374  0.5075  2.6233  0.9896
 2054TIP3   OH230356   1.479   4.971   8.161 -0.5249  0.1515 -0.1571
 2054TIP3    H130357   1.447   4.892   8.117  1.6637 -0.7529 -0.2220
 2054TIP3    H230358   1.474   4.950   8.254  0.5399 -0.2867 -0.1888
 2055TIP3   OH230359   4.368   7.014   9.370  0.0030  0.2901 -0.8966
 2055TIP3    H130360   4.390   6.922   9.364 -0.3465  0.2113 -1.0038
 2055TIP3    H230361   4.336   7.025   9.460 -1.3286 -0.0082 -1.3092
 2056TIP3   OH230362   7.001   0.323   9.292 -0.4279  0.4219 -0.0536
 2056TIP3    H130363   7.079   0.272   9.311 -1.0387 -0.4143  0.2551
 2056TIP3    H230364   6.993   0.383   9.367 -0.4450  0.0578  0.2383
 2057TIP3   OH230365   1.613   0.230   7.968 -0.1590  0.0334  0.7681
 2057TIP3    H130366   1.660   0.166   8.022  2.3042  0.7517 -0.3349
 2057TIP3    H230367   1.580   0.295   8.030  1.7483  0.3214  1.5606
 2058TIP3   OH230368   0.865   6.655   8.721 -1.1371  0.5501 -0.1515
 2058TIP3    H130369   0.867   6.606   8.639  0.0008 -1.3206  0.9212
 2058TIP3    H230370   0.948   6.703   8.723  0.2745 -1.7367  1.1437
 2059TIP3   OH230371   1.346   6.269   6.960 -0.1664 -0.1882 -0.4678
 2059TIP3    H130372   1.289   6.342   6.983 -1.7111 -1.8383  1.3194
 2059TIP3    H230373   1.287   6.194   6.953  1.6262 -1.7881  0.5066
 2060TIP3   OH230374   1.863   3.158   7.999 -0.7973 -0.1302 -0.1286
 2060TIP3    H130375   1.929   3.210   8.046 -1.1585  1.4402 -1.2483
 2060TIP3    H230376   1.910   3.124   7.923 -0.9861  0.0608 -0.3337
 2061TIP3   OH230377   6.439   1.445   9.652 -0.3079  0.0711 -0.6229
 2061TIP3    H130378   6.369   1.387   9.621  1.6800 -2.5234 -0.6226
 2061TIP3    H230379   6.508   1.385   9.682  1.0994  2.4886  1.3115
 2062TIP3   OH230380   1.935   5.715   9.282 -0.5887  0.4704  0.3405
 2062TIP3    H130381   1.942   5.803   9.319 -2.0128  0.8383 -0.1889
 2062TIP3    H230382   1.843   5.691   9.296 -0.0784 -1.1908  1.0228
 2063TIP3   OH230383   2.517   1.840   8.221  0.0781  0.2324  0.2484
 2063TIP3    H130384   2.584   1.866   8.158 -0.4302  2.8065  0.6823
 2063TIP3    H230385   2.443   1.812   8.167  0.1221  1.1569 -0.3082
 2064TIP3   OH230386   1.748   5.499   7.900  0.3601 -0.1630 -0.1228
 2064TIP3    H130387   1.795   5.461   7.974 -0.9969 -0.2634  0.7356
 2064TIP3    H230388   1.725   5.425   7.845  0.3256 -0.2338 -0.0128
 2065TIP3   OH230389   3.217   2.720   7.789  0.1153  0.2353 -0.1293
 2065TIP3    H130390   3.190   2.727   7.697  2.2347  0.6683 -0.7733
 2065TIP3    H230391   3.135   2.729   7.838 -1.3416 -1.8055 -1.9881
 2066TIP3   OH230392   7.233   0.752   8.814 -0.8173  0.0894  0.0243
 2066TIP3    H130393   7.200   0.775   8.728  3.1469  1.5053 -1.3462
 2066TIP3    H230394   7.259   0.835   8.854 -0.0761 -0.7586  1.4256
 2067TIP3   OH230395   4.931   4.925   9.186 -0.1102  0.1460  0.1458
 2067TIP3    H130396   4.909   4.879   9.267 -0.7137 -0.2099 -0.2134
 2067TIP3    H230397   4.987   4.865   9.137  1.7051  1.0293  1.0335
 2068TIP3   OH230398   3.431   2.257   6.929 -0.0723 -0.2743 -0.4143
 2068TIP3    H130399   3.413   2.163   6.928 -1.0318 -0.1083 -1.8412
 2068TIP3    H230400   3.524   2.264   6.909  0.2718 -0.9343  0.8251
 2069TIP3   OH230401   4.136   6.351   9.382  0.1522  0.0514  0.2917
 2069TIP3    H130402   4.165   6.260   9.377 -0.0914 -0.0741  1.0254
 2069TIP3    H230403   4.212   6.399   9.415  0.7783  0.3815 -1.5248
 2070TIP3   OH230404   5.645   3.594   7.879  0.4580  0.2425  1.0264
 2070TIP3    H130405   5.656   3.587   7.974  0.5521  0.4277  1.0287
 2070TIP3    H230406   5.733   3.608   7.845  0.5274 -0.6041  0.8403
 2071TIP3   OH230407   4.152   3.539   7.264 -0.1410  0.4752 -0.0273
 2071TIP3    H130408   4.079   3.481   7.242  0.0188 -0.3590  1.4755
 2071TIP3    H230409   4.172   3.518   7.355  1.1756  1.5648 -0.0370
 2072TIP3   OH230410   1.286   0.727   8.684 -0.1288 -0.2870 -0.4192
 2072TIP3    H130411   1.213   0.757   8.737 -1.7281 -2.8081 -1.0404
 2072TIP3    H230412   1.312   0.804   8.633 -2.0084  0.8152  0.2139
 2073TIP3   OH230413   0.107   0.906   9.084  0.0525 -0.1409 -0.1669
 2073TIP3    H130414   0.073   0.864   9.163  4.5781 -1.0237  1.6188
 2073TIP3    H230415   0.145   0.834   9.033 -0.0275  0.8102 -1.6325
 2074TIP3   OH230416   7.202   4.521   7.472 -0.4291  0.4253  0.6248
 2074TIP3    H130417   7.144   4.581   7.426 -0.2149  0.9134  0.9772
 2074TIP3    H230418   7.237   4.463   7.404 -1.3287  0.1200  0.4135
 2075TIP3   OH230419   4.507   6.293   9.296  0.5568  0.2501  0.6217
 2075TIP3    H130420   4.590   6.244   9.300 -0.1036 -0.8940  0.7557
 2075TIP3    H230421   4.440   6.227   9.311 -0.3650  1.2597  1.0842
 2076TIP3   OH230422   2.408   2.787   9.069  0.0909  0.2276 -0.2296
 2076TIP3    H130423   2.489   2.738   9.082  1.1500  2.3288  2.0550
 2076TIP3    H230424   2.339   2.730   9.104  1.0135 -0.3861  0.6359
 2077TIP3   OH230425   2.860   3.980   6.581  0.4621  0.2494 -0.5672
 2077TIP3    H130426   2.816   4.031   6.513 -0.5301 -0.6575 -0.6215
 2077TIP3    H230427   2.837   3.889   6.562  0.5778 -0.0608  0.6920
 2078TIP3   OH230428   1.580   5.632   8.979  0.8305  0.2289  0.1743
 2078TIP3    H130429   1.607   5.686   8.905  0.1066  0.5964  0.1724
 2078TIP3    H230430   1.488   5.654   8.993  1.2744  1.1139  1.9965
 2079TIP3   OH230431   3.664   5.630   7.402 -0.4580 -0.0060 -0.0116
 2079TIP3    H130432   3.709   5.554   7.439 -1.6008 -0.6757  0.0338
 2079TIP3    H230433   3.719   5.656   7.327  1.5580  0.9980  1.7194
 2080TIP3   OH230434   1.369   7.629   9.171  0.8300 -0.3179 -0.4094
 2080TIP3    H130435   1.318   7.599   9.247 -0.7055 -1.0053 -1.6310
 2080TIP3    H230436   1.307   7.683   9.121  1.6211 -0.3330 -1.4384
 2081TIP3   OH230437   1.460   4.334   8.395 -0.5475 -0.0163 -0.1628
 2081TIP3    H130438   1.435   4.328   8.302  0.8745 -0.9167 -0.5067
 2081TIP3    H230439   1.401   4.402   8.430  0.2744  1.8933 -2.1911
 2082TIP3   OH230440   1.428   5.089   6.875 -0.1645 -0.4182  0.1367
 2082TIP3    H130441   1.514   5.095   6.915 -0.2681 -0.0159  0.3089
 2082TIP3    H230442   1.368   5.073   6.949 -0.1383 -1.6231 -0.0833
 2083TIP3   OH230443   5.473   5.469   7.211  0.3010 -0.1475 -0.0937
 2083TIP3    H130444   5.466   5.392   7.154  0.0198 -0.0192 -0.2338
 2083TIP3    H230445   5.454   5.543   7.153 -2.6083 -0.1651  0.6888
 2084TIP3   OH230446   0.462   3.596   7.486 -0.1620 -0.2790  0.3676
 2084TIP3    H130447   0.517   3.563   7.415  0.8484 -0.1495  1.0824
 2084TIP3    H230448   0.460   3.526   7.550 -1.7662 -0.7357 -0.1286
 2085TIP3   OH230449   3.315   4.155   7.434 -0.4344  0.7720 -0.4050
 2085TIP3    H130450   3.310   4.250   7.425  0.0989  0.6421 -2.5050
 2085TIP3    H230451   3.295   4.121   7.347 -0.1469 -1.0338  0.1864
 2086TIP3   OH230452   7.144   6.802   9.117 -0.3736  0.1846  0.0159
 2086TIP3    H130453   7.103   6.775   9.199  0.9742 -0.8599  0.3851
 2086TIP3    H230454   7.150   6.897   9.123 -0.6458  0.1494  0.9404
 2087TIP3   OH230455   4.623   2.395   7.467 -0.3552  0.1726 -0.1262
 2087TIP3    H130456   4.573   2.371   7.390 -0.6061  1.7075 -0.4728
 2087TIP3    H230457   4.592   2.336   7.536 -0.5738 -0.7909 -1.0343
 2088TIP3   OH230458   2.106   1.182   7.571 -0.0982  0.1584  0.4356
 2088TIP3    H130459   2.152   1.158   7.491  1.6194  1.4309  0.9697
 2088TIP3    H230460   2.063   1.101   7.600  1.2313 -0.9284 -0.5047
 2089TIP3   OH230461   1.220   1.526   6.759  0.0207  0.1795 -0.1956
 2089TIP3    H130462   1.127   1.511   6.740  0.2412  0.6682 -1.7375
 2089TIP3    H230463   1.221   1.550   6.852 -1.4433  0.5792 -0.2560
 2090TIP3   OH230464   2.437   7.562   7.125 -0.3012  0.1641 -0.5688
 2090TIP3    H130465   2.354   7.517   7.141  0.4783 -1.0051  0.2741
 2090TIP3    H230466   2.504   7.496   7.142  0.9497  1.9874  2.0430
 2091TIP3   OH230467   4.325   7.522   7.542 -0.2508 -0.2572 -0.0691
 2091TIP3    H130468   4.304   7.610   7.510  1.6351  0.9120  1.5780
 2091TIP3    H230469   4.276   7.514   7.624  0.6077 -0.1498  0.4730
 2092TIP3   OH230470   1.815   6.741   7.900  0.2333  0.6765 -0.1383
 2092TIP3    H130471   1.730   6.747   7.857  0.6755  0.6608 -1.0363
 2092TIP3    H230472   1.796   6.750   7.993 -1.0277 -1.6981 -0.1027
 2093TIP3   OH230473   0.649   6.017   8.624 -0.6297  0.4309  0.6504
 2093TIP3    H130474   0.619   5.930   8.598 -1.5103  0.8599  0.1953
 2093TIP3    H230475   0.569   6.067   8.637 -0.1683  1.9240 -1.6411
 2094TIP3   OH230476   2.250   2.304   7.457 -0.0178 -0.0918  0.1804
 2094TIP3    H130477   2.244   2.353   7.375  0.4915  0.1938  0.3077
 2094TIP3    H230478   2.342   2.277   7.461  0.0939  0.3882  0.9377
 2095TIP3   OH230479   0.851   5.729   7.613 -0.5890 -0.1855 -0.3650
 2095TIP3    H130480   0.914   5.670   7.657 -2.0754 -1.1048  0.6090
 2095TIP3    H230481   0.840   5.690   7.526  1.2439  0.8094 -1.1086
 2096TIP3   OH230482   5.662   2.021   7.202  0.5098  0.5562  0.2620
 2096TIP3    H130483   5.571   1.998   7.224  0.2206 -0.1550 -1.5031
 2096TIP3    H230484   5.665   2.116   7.213 -0.0855  0.4626  1.4901
 2097TIP3   OH230485   5.571   6.803   8.011  0.3342  0.2715  0.1644
 2097TIP3    H130486   5.658   6.798   7.970 -0.1889  0.1748 -0.9624
 2097TIP3    H230487   5.510   6.789   7.939 -0.6057 -1.0355  1.1849
 2098TIP3   OH230488   5.055   0.848   9.234 -0.3503  0.4698 -0.0404
 2098TIP3    H130489   5.076   0.866   9.325 -1.2021  0.2089  0.2204
 2098TIP3    H230490   4.961   0.829   9.234 -0.5145  1.1482 -1.0711
 2099TIP3   OH230491   5.215   5.895   6.846 -0.5345  0.3642  0.3356
 2099TIP3    H130492   5.243   5.857   6.763  1.4828 -1.2451  1.6434
 2099TIP3    H230493   5.125   5.922   6.831 -0.3805 -0.2927 -2.2190
 2100TIP3   OH230494   2.341   5.627   6.806 -0.3062  0.0845  0.5002
 2100TIP3    H130495   2.298   5.712   6.810  0.2844  0.4780 -0.8657
 2100TIP3    H230496   2.308   5.587   6.726 -0.4669 -0.9231  1.0542
 2101TIP3   OH230497   7.203   2.625   8.128  0.3974  0.1958 -0.2871
 2101TIP3    H130498   7.160   2.661   8.206  0.0005  0.4371 -0.6139
 2101TIP3    H230499   7.243   2.544   8.158  2.9572  1.7929  0.9479
 2102TIP3   OH230500   3.765   4.711   8.926  0.2743  0.1451 -0.2485
 2102TIP3    H130501   3.694   4.715   8.990 -0.3312  2.4884 -0.9639
 2102TIP3    H230502   3.721   4.700   8.841  0.8683  0.0231 -0.5480
 2103TIP3   OH230503   2.648   6.069   9.484  0.2296  0.3256  0.4090
 2103TIP3    H130504   2.557   6.042   9.469 -0.4846  2.0541  1.3098
 2103TIP3    H230505   2.641   6.140   9.548  2.3424 -0.3510  1.4522
 2104TIP3   OH230506   3.523   6.461   6.786  0.0701  0.4568  0.3653
 2104TIP3    H130507   3.490   6.458   6.696  0.0328  1.5684  0.3195
 2104TIP3    H230508   3.618   6.475   6.775  0.0204  0.9104  0.4912
 2105TIP3   OH230509   7.679   0.633   7.072  0.1420 -0.2225 -0.3875
 2105TIP3    H130510   7.613   0.702   7.082  0.5584  0.5566 -2.5079
 2105TIP3    H230511   7.632   0.559   7.035  0.2550 -0.0182 -0.9460
 2106TIP3   OH230512   7.565   6.405   8.210 -0.1720  0.3730 -0.3852
 2106TIP3    H130513   7.607   6.325   8.177  1.0521  0.9441 -0.2602
 2106TIP3    H230514   7.637   6.467   8.222 -1.2839  2.1597 -2.2791
 2107TIP3   OH230515   6.714   5.889   9.059  0.0359  0.8647 -0.2001
 2107TIP3    H130516   6.683   5.976   9.084  1.4063  1.1311  0.6441
 2107TIP3    H230517   6.788   5.872   9.118  0.1882 -0.6053 -0.7832
 2108TIP3   OH230518   3.518   6.883   7.911  0.0091  0.6677 -0.1501
 2108TIP3    H130519   3.568   6.833   7.846  2.1389 -1.0436  2.5768
 2108TIP3    H230520   3.476   6.817   7.966 -2.6907  2.0695 -0.3569
 2109TIP3   OH230521   4.327   2.052   8.343  0.2226 -0.2020  0.0746
 2109TIP3    H130522   4.307   2.113   8.271  1.4303  0.3392  0.1709
 2109TIP3    H230523   4.412   2.081   8.376 -0.3708 -0.3446  1.8357
 2110TIP3   OH230524   2.519   5.461   8.729 -0.0505 -0.1010  0.5416
 2110TIP3    H130525   2.599   5.412   8.744 -0.8517 -1.5951  0.1710
 2110TIP3    H230526   2.537   5.515   8.653  0.8913  0.2748  1.0220
 2111TIP3   OH230527   6.811   3.653   8.420 -0.4870 -0.0511  0.0421
 2111TIP3    H130528   6.741   3.631   8.481  0.0163  0.5803  0.8826
 2111TIP3    H230529   6.769   3.707   8.353 -1.1459 -1.1526 -0.4619
 2112TIP3   OH230530   2.185   3.471   8.810  0.4549 -0.3905  0.2114
 2112TIP3    H130531   2.113   3.520   8.851  1.0853  0.6610  0.0963
 2112TIP3    H230532   2.152   3.447   8.724  0.2236  0.0459  0.1766
 2113TIP3   OH230533   6.088   0.097   9.314 -0.5966 -0.6218 -0.0158
 2113TIP3    H130534   6.006   0.071   9.357 -0.7051  0.0302  0.1729
 2113TIP3    H230535   6.079   0.065   9.224 -1.8428  0.9950 -0.5165
 2114TIP3   OH230536   0.532   5.444   9.059  0.0324  0.2642  0.2846
 2114TIP3    H130537   0.552   5.357   9.024  3.6732  1.2438 -0.5046
 2114TIP3    H230538   0.436   5.450   9.055 -0.2440 -2.9547 -1.4138
 2115TIP3   OH230539   1.378   6.463   8.434 -0.1943  0.6144  0.2017
 2115TIP3    H130540   1.435   6.482   8.359 -1.1232 -0.8867 -0.9309
 2115TIP3    H230541   1.439   6.442   8.505  0.7301 -1.1712 -1.0298
 2116TIP3   OH230542   0.126   0.477   8.107 -0.3882 -0.3379  0.2299
 2116TIP3    H130543   0.205   0.498   8.156  1.0946 -0.9803 -1.7313
 2116TIP3    H230544   0.094   0.395   8.146  0.4755 -0.5801  0.4434
 2117TIP3   OH230545   1.302   4.792   8.077  0.3023 -0.2869 -0.3293
 2117TIP3    H130546   1.224   4.738   8.089  1.0106 -1.5299 -1.1733
 2117TIP3    H230547   1.301   4.816   7.984  1.1612 -0.6895 -0.4507
 2118TIP3   OH230548   6.239   6.323   8.837 -0.7364  0.0508 -1.0361
 2118TIP3    H130549   6.151   6.353   8.861 -0.5337 -1.1847  1.6644
 2118TIP3    H230550   6.297   6.369   8.898  0.2937 -0.4998 -1.5791
 2119TIP3   OH230551   3.999   4.008   9.502 -0.2885  0.4771  0.0064
 2119TIP3    H130552   4.074   4.064   9.486  0.2138 -0.1156  0.2413
 2119TIP3    H230553   3.972   4.028   9.592  1.5783 -1.5474  1.1108
 2120TIP3   OH230554   4.492   0.692   8.218 -0.3620 -0.0104  0.2906
 2120TIP3    H130555   4.538   0.626   8.166 -0.9614  0.9330 -1.5148
 2120TIP3    H230556   4.561   0.731   8.273  0.1610 -1.4854  0.7169
 2121TIP3   OH230557   3.476   4.725   8.460  0.5042  0.1057  0.3621
 2121TIP3    H130558   3.390   4.754   8.430 -0.4536 -0.5409  2.3446
 2121TIP3    H230559   3.499   4.787   8.530  2.1265  0.8437 -0.7479
 2122TIP3   OH230560   7.435   7.393   7.309  0.2643  0.5641  0.5225
 2122TIP3    H130561   7.490   7.418   7.234  1.7406  1.6083  1.8832
 2122TIP3    H230562   7.378   7.324   7.275 -0.1197  1.9924 -1.9250
 2123TIP3   OH230563   4.447   1.379   6.770  0.2513  0.6654  0.2875
 2123TIP3    H130564   4.360   1.420   6.769 -0.4777 -0.7449  1.9018
 2123TIP3    H230565   4.448   1.326   6.850  1.6480 -1.3704 -0.9912
 2124TIP3   OH230566   5.401   4.695   8.642 -0.2139  0.2145 -0.1769
 2124TIP3    H130567   5.314   4.701   8.603  0.1933 -1.3336 -1.4155
 2124TIP3    H230568   5.385   4.669   8.733 -1.0793  1.6085  0.0997
 2125TIP3   OH230569   3.136   5.770   9.136 -0.2352  0.1511 -0.1175
 2125TIP3    H130570   3.145   5.679   9.109  1.2307  0.6024 -1.2572
 2125TIP3    H230571   3.222   5.809   9.120 -0.7099  1.6428  0.7443
 2126TIP3   OH230572   4.685   1.388   8.540  0.0303 -0.3870 -0.2993
 2126TIP3    H130573   4.698   1.425   8.453 -1.0265 -1.2593 -0.8575
 2126TIP3    H230574   4.724   1.452   8.599  1.0437  0.0776 -1.4194
 2127TIP3   OH230575   5.793   4.290   7.752 -0.8813  0.4362 -0.6593
 2127TIP3    H130576   5.810   4.384   7.753  0.3828  0.2615  2.0769
 2127TIP3    H230577   5.878   4.250   7.766 -1.8284 -0.9363  1.7719
 2128TIP3   OH230578   2.399   4.977   8.104 -0.1185  0.4510  0.4454
 2128TIP3    H130579   2.471   5.007   8.160 -0.0992  1.5247 -0.1248
 2128TIP3    H230580   2.321   4.989   8.158  0.0547 -0.2103  0.8691
 2129TIP3   OH230581   5.434   5.610   8.013 -0.3523  0.3311 -0.0033
 2129TIP3    H130582   5.386   5.660   8.079 -1.3831  1.6692 -1.6630
 2129TIP3    H230583   5.365   5.575   7.956  0.4262 -1.8961  0.3097
 2130TIP3   OH230584   6.957   6.820   8.443 -0.5995  0.2695  0.3874
 2130TIP3    H130585   6.982   6.775   8.524 -1.4256  0.4217  0.7449
 2130TIP3    H230586   6.946   6.911   8.469  0.3106  0.5459 -0.1665
 2131TIP3   OH230587   6.516   2.853   6.775 -0.4798  0.0988  0.3431
 2131TIP3    H130588   6.531   2.926   6.836 -0.1228  0.2607  0.0644
 2131TIP3    H230589   6.599   2.806   6.772 -0.1477  0.7131 -0.8258
 2132TIP3   OH230590   0.705   2.563   8.725 -0.4703  0.2470  0.0902
 2132TIP3    H130591   0.661   2.485   8.756  0.6032  0.2204  1.6627
 2132TIP3    H230592   0.650   2.636   8.754 -1.5489  0.1312 -1.5037
 2133TIP3   OH230593   0.135   0.841   6.776  0.1204  0.1940  0.0090
 2133TIP3    H130594   0.074   0.910   6.803  2.0511  1.8011  0.4960
 2133TIP3    H230595   0.098   0.761   6.812 -2.3955  0.8600 -0.8753
 2134TIP3   OH230596   2.126   6.452   7.957  0.0944 -0.6377 -0.1387
 2134TIP3    H130597   2.159   6.477   7.871 -1.8179 -0.2899 -0.8185
 2134TIP3    H230598   2.115   6.535   8.004  0.2429 -0.7514  0.0999
 2135TIP3   OH230599   6.820   3.805   7.913 -0.1581  0.2316 -0.2086
 2135TIP3    H130600   6.857   3.850   7.989 -0.3822 -0.9319  0.6133
 2135TIP3    H230601   6.881   3.734   7.895  0.5791  1.2330 -1.9540
 2136TIP3   OH230602   5.748   3.462   6.646 -0.2586 -0.4866 -0.1500
 2136TIP3    H130603   5.796   3.525   6.700 -1.1894 -0.6963  0.9670
 2136TIP3    H230604   5.801   3.383   6.648 -1.2736 -1.2055  2.3142
 2137TIP3   OH230605   5.351   3.482   8.247 -0.0872 -0.2755  0.2419
 2137TIP3    H130606   5.329   3.415   8.312 -1.4009  0.4339  0.5649
 2137TIP3    H230607   5.268   3.508   8.209  0.4764  0.6418 -0.4201
 2138TIP3   OH230608   3.186   2.414   7.305 -0.1585  0.9740  0.3140
 2138TIP3    H130609   3.210   2.466   7.228  0.0433  0.8664  0.3051
 2138TIP3    H230610   3.146   2.335   7.269  2.4379 -0.3985  0.2093
 2139TIP3   OH230611   7.193   1.705   7.976 -0.4802  0.3383  0.0100
 2139TIP3    H130612   7.205   1.622   8.022 -2.0250  0.4793  0.7169
 2139TIP3    H230613   7.248   1.767   8.025  1.0167 -0.3176 -0.7784
 2140TIP3   OH230614   3.653   5.022   9.239  0.1904  0.2419  0.2282
 2140TIP3    H130615   3.742   5.009   9.204 -0.3001  0.9496 -1.4002
 2140TIP3    H230616   3.667   5.054   9.328  1.6090  1.2423 -0.3108
 2141TIP3   OH230617   5.735   2.029   8.229 -0.3568 -0.3160 -0.0095
 2141TIP3    H130618   5.785   2.006   8.151  1.6370 -0.0485  1.0996
 2141TIP3    H230619   5.681   1.952   8.247 -0.4763 -0.5644 -1.3461
 2142TIP3   OH230620   5.737   1.689   8.521  0.0029  0.0254  0.8176
 2142TIP3    H130621   5.776   1.626   8.461 -1.3946  1.2964 -1.5790
 2142TIP3    H230622   5.795   1.765   8.517  0.1987 -0.0858  1.5198
 2143TIP3   OH230623   6.669   5.840   7.047 -0.2508 -0.0861  0.0023
 2143TIP3    H130624   6.694   5.925   7.084  2.5570 -0.0053 -1.8167
 2143TIP3    H230625   6.645   5.858   6.956 -2.3638 -0.9352  0.3194
 2144TIP3   OH230626   6.515   2.817   8.186  0.1101 -0.6346 -0.1727
 2144TIP3    H130627   6.584   2.837   8.122 -0.1811  0.2727 -0.2248
 2144TIP3    H230628   6.522   2.723   8.201  2.1789 -0.3890  0.7571
 2145TIP3   OH230629   1.395   3.179   6.103 -0.0774  0.2587  0.7669
 2145TIP3    H130630   1.304   3.209   6.112  0.4955  2.4626  0.0125
 2145TIP3    H230631   1.442   3.226   6.172  0.6523 -0.0402  0.4826
 2146TIP3   OH230632   4.801   3.112   6.629 -0.0151 -0.0287  0.7974
 2146TIP3    H130633   4.894   3.133   6.618  0.0638 -0.5555  0.4075
 2146TIP3    H230634   4.760   3.196   6.651  0.3624  0.4330 -0.2065
 2147TIP3   OH230635   5.740   5.475   7.824 -0.2551 -0.2252 -0.0789
 2147TIP3    H130636   5.722   5.381   7.825  0.3470 -0.3495 -0.1157
 2147TIP3    H230637   5.664   5.514   7.781 -0.6861 -0.6530  0.2820
 2148TIP3   OH230638   5.165   3.894   8.301 -0.2755 -0.0050 -0.6926
 2148TIP3    H130639   5.106   3.873   8.374 -0.0645  0.5602 -0.3567
 2148TIP3    H230640   5.148   3.825   8.236 -0.0033 -0.8800  0.1539
 2149TIP3   OH230641   1.601   3.045   7.480  0.0273 -0.0683 -0.1862
 2149TIP3    H130642   1.660   3.095   7.424  2.0069 -0.7006  1.2214
 2149TIP3    H230643   1.595   3.096   7.561 -2.6757  0.7676 -0.8308
 2150TIP3   OH230644   1.421   3.044   9.163 -0.1520 -0.3567  0.1294
 2150TIP3    H130645   1.515   3.033   9.149  0.0016  0.6436  0.2295
 2150TIP3    H230646   1.409   3.033   9.257  0.3293  2.1073  0.5692
 2151TIP3   OH230647   0.044   7.389   7.659  0.1191  0.1529  0.3538
 2151TIP3    H130648  -0.020   7.326   7.624  0.9840 -1.0416  0.8795
 2151TIP3    H230649   0.129   7.352   7.636  0.6672  0.5083  1.7447
 2152TIP3   OH230650   3.062   3.958   9.101  0.6138 -0.2742  0.2401
 2152TIP3    H130651   2.983   3.905   9.092  0.2444  0.3727 -0.5350
 2152TIP3    H230652   3.123   3.922   9.036  0.2619  0.4091 -0.4806
 2153TIP3   OH230653   0.192   6.262   6.854  0.0185 -0.0671  1.1939
 2153TIP3    H130654   0.144   6.313   6.789  0.7327 -0.0563  0.6637
 2153TIP3    H230655   0.197   6.318   6.931  0.7961  0.6805  0.6182
 2154TIP3   OH230656   5.943   3.597   7.817 -0.5110 -0.4462 -0.3762
 2154TIP3    H130657   5.962   3.582   7.725 -2.0183  0.3487 -0.8559
 2154TIP3    H230658   5.946   3.511   7.857  1.8489 -0.6185 -0.7935
 2155TIP3   OH230659   4.701   4.837   7.544  0.3636  0.2007  0.1062
 2155TIP3    H130660   4.755   4.772   7.499 -2.6026 -3.1492  0.9307
 2155TIP3    H230661   4.618   4.835   7.497 -1.2060  0.2006  2.7123
 2156TIP3   OH230662   5.623   2.868   6.753 -0.9157 -0.8604  0.3418
 2156TIP3    H130663   5.611   2.917   6.835  0.2033 -1.5965  0.9686
 2156TIP3    H230664   5.714   2.885   6.728 -0.7830 -1.8757  0.0930
 2157TIP3   OH230665   6.737   0.133   7.731 -0.2249  0.6149  0.5171
 2157TIP3    H130666   6.758   0.127   7.638  1.3397 -1.8717  0.9169
 2157TIP3    H230667   6.644   0.110   7.736 -0.5035  1.4543 -0.4615
 2158TIP3   OH230668   3.833   5.008   8.973  0.0514 -1.0216 -0.1033
 2158TIP3    H130669   3.875   5.048   8.897 -0.2192 -1.7251 -0.6461
 2158TIP3    H230670   3.837   4.914   8.955 -1.4357 -1.1263 -0.0303
 2159TIP3   OH230671   2.123   2.248   8.994 -0.3671 -0.1668 -0.1767
 2159TIP3    H130672   2.080   2.236   9.079 -0.5758  0.0805 -0.2471
 2159TIP3    H230673   2.197   2.187   8.996 -1.5387 -1.6626 -0.6187
 2160TIP3   OH230674   1.704   3.367   8.595 -0.3201  0.5126  0.4424
 2160TIP3    H130675   1.612   3.357   8.619 -0.8014 -0.0875 -1.5535
 2160TIP3    H230676   1.732   3.446   8.642 -1.7882  0.5969  1.2226
 2161TIP3   OH230677   6.103   3.794   7.437  0.3176 -0.3727  0.4969
 2161TIP3    H130678   6.126   3.817   7.527  1.0723  0.5683  0.0749
 2161TIP3    H230679   6.066   3.874   7.400  0.4682 -0.6092 -0.1814
 2162TIP3   OH230680   3.473   6.121   7.760  0.0444  0.1123  0.3821
 2162TIP3    H130681   3.529   6.123   7.837 -1.1603  2.5362  1.3012
 2162TIP3    H230682   3.393   6.077   7.790  0.6610 -1.5943 -0.3739
 2163TIP3   OH230683   3.637   6.022   9.132  0.0554  0.3984  0.0426
 2163TIP3    H130684   3.573   6.080   9.090 -0.8292 -0.3194  0.3938
 2163TIP3    H230685   3.695   6.082   9.179  0.4354  1.1446 -1.3198
 2164TIP3   OH230686   3.587   4.009   6.872 -0.8589  0.5051 -0.3206
 2164TIP3    H130687   3.600   3.934   6.814 -2.4084 -0.1833  0.1690
 2164TIP3    H230688   3.633   4.081   6.829  2.6210 -1.1409  0.2680
 2165TIP3   OH230689   4.791   4.835   7.178  0.1755 -0.2644 -0.3664
 2165TIP3    H130690   4.705   4.865   7.150  0.3651 -1.3490 -2.2661
 2165TIP3    H230691   4.852   4.880   7.119  0.7508 -1.1324 -0.4449
 2166TIP3   OH230692   5.050   6.637   7.863  0.1610  0.2836 -0.0992
 2166TIP3    H130693   5.057   6.545   7.839  0.1760  0.6699 -1.6773
 2166TIP3    H230694   4.956   6.653   7.871  0.1476  0.1956 -0.0824
 2167TIP3   OH230695   2.193   3.393   9.085 -0.6327 -0.4552  0.0935
 2167TIP3    H130696   2.212   3.452   9.158 -0.3217  0.2322 -0.5348
 2167TIP3    H230697   2.227   3.438   9.008 -1.9945 -0.6471 -0.6447
 2168TIP3   OH230698   4.134   4.111   6.511 -0.1020 -0.7573  0.0015
 2168TIP3    H130699   4.108   4.018   6.514  0.8093 -1.0522 -0.9095
 2168TIP3    H230700   4.056   4.156   6.480  0.4075 -1.6465 -2.8062
 2169TIP3   OH230701   2.885   3.142   8.780  0.1840 -0.4428 -0.1162
 2169TIP3    H130702   2.825   3.212   8.753 -0.3589 -1.1931 -0.9249
 2169TIP3    H230703   2.971   3.173   8.754 -0.0477 -0.0508 -0.4361
 2170TIP3   OH230704   1.755   2.378   8.552  0.1073 -0.0195 -0.4814
 2170TIP3    H130705   1.739   2.469   8.530 -0.2571  0.2936  1.0358
 2170TIP3    H230706   1.737   2.330   8.470 -0.1475  1.2000 -1.1560
 2171TIP3   OH230707   0.741   4.947   7.509 -0.3726  0.0307 -0.0712
 2171TIP3    H130708   0.751   5.010   7.580 -0.5884 -0.6358  0.5697
 2171TIP3    H230709   0.662   4.974   7.464 -0.0669  0.6406 -0.2522
 2172TIP3   OH230710   3.227   3.633   7.748  0.4125  0.4400  0.0170
 2172TIP3    H130711   3.199   3.721   7.725  1.6593  0.7960 -0.2427
 2172TIP3    H230712   3.156   3.576   7.719 -0.8680  1.4159  1.0699
 2173TIP3   OH230713   5.805   5.370   9.152 -0.4080 -0.1413 -0.6025
 2173TIP3    H130714   5.898   5.385   9.135 -0.4974  0.6916 -0.4086
 2173TIP3    H230715   5.801   5.349   9.245 -0.4578  0.2717 -0.5091
 2174TIP3   OH230716   0.029   1.569   7.272 -0.5715 -0.1282 -0.0898
 2174TIP3    H130717   0.090   1.497   7.259 -0.3325 -0.6025  3.0177
 2174TIP3    H230718   0.016   1.605   7.184  1.8778 -1.8277 -1.2673
 2175TIP3   OH230719   4.585   6.710   7.417  0.0547  0.2828  0.1442
 2175TIP3    H130720   4.570   6.665   7.500 -1.7842  0.1354 -0.2248
 2175TIP3    H230721   4.638   6.649   7.366 -0.1027 -0.2819  0.6494
 2176TIP3   OH230722   2.241   1.153   8.672 -0.3289 -0.0684  0.0362
 2176TIP3    H130723   2.306   1.222   8.670  1.3896 -1.6300 -0.5713
 2176TIP3    H230724   2.215   1.141   8.581  0.2114 -0.9282 -0.0196
 2177TIP3   OH230725   0.451   5.456   7.748 -0.0606 -0.0343 -0.4657
 2177TIP3    H130726   0.464   5.362   7.762  1.6128  0.2471  0.0971
 2177TIP3    H230727   0.511   5.478   7.676  0.7841  0.8633  0.4655
 2178TIP3   OH230728   0.922   7.050   8.750 -0.1990  0.0068 -0.0345
 2178TIP3    H130729   1.006   7.081   8.786  0.6096 -1.5077 -0.5237
 2178TIP3    H230730   0.881   7.003   8.823 -0.3926  0.3123  0.0550
 2179TIP3   OH230731   4.064   3.422   8.270 -0.1355  0.0602 -0.0344
 2179TIP3    H130732   4.078   3.338   8.314 -0.7239 -0.4983 -0.8908
 2179TIP3    H230733   4.128   3.423   8.199 -0.5889  0.0360 -0.4434
 2180TIP3   OH230734   3.896   4.461   7.027 -0.2657  0.0067 -0.0311
 2180TIP3    H130735   3.972   4.491   7.076 -0.2475 -1.9164  1.2345
 2180TIP3    H230736   3.904   4.503   6.942  1.8947  0.2905  0.2657
 2181TIP3   OH230737   7.092   1.892   7.611  0.0407 -0.1547  0.0120
 2181TIP3    H130738   7.095   1.959   7.680 -1.6330  0.7551 -0.7482
 2181TIP3    H230739   7.105   1.810   7.658 -0.0899  0.5169  1.2885
 2182TIP3   OH230740   1.782   4.471   8.984 -0.0938 -0.0655  0.1459
 2182TIP3    H130741   1.857   4.527   8.964  0.2595 -0.0861  1.3201
 2182TIP3    H230742   1.785   4.460   9.079 -1.0995 -0.7617  0.1162
 2183TIP3   OH230743   4.032   7.187   9.540 -0.0692 -0.1801  0.1780
 2183TIP3    H130744   4.051   7.273   9.577 -1.3127 -0.3965  1.3887
 2183TIP3    H230745   4.080   7.126   9.595 -0.3356 -0.3537  0.2202
 2184TIP3   OH230746   4.778   5.253   7.951  0.1521 -0.9209  1.0751
 2184TIP3    H130747   4.823   5.323   7.904 -0.1948 -0.5372  1.3018
 2184TIP3    H230748   4.844   5.185   7.963  0.3695 -0.8233  0.4516
 2185TIP3   OH230749   2.492   5.480   8.035 -0.4169 -0.8770 -0.2533
 2185TIP3    H130750   2.478   5.412   8.100  1.0323  0.1122  1.1429
 2185TIP3    H230751   2.468   5.562   8.079 -0.3544 -0.2833 -1.2779
 2186TIP3   OH230752   5.535   1.047   8.452 -0.5287  0.0733  0.0978
 2186TIP3    H130753   5.558   1.059   8.544  1.2334  2.6083 -0.5861
 2186TIP3    H230754   5.558   1.130   8.410 -0.9582 -1.1158 -2.7125
 2187TIP3   OH230755   2.207   5.333   7.853  0.4985  0.1042 -0.1088
 2187TIP3    H130756   2.205   5.416   7.900 -2.0567 -0.8932  1.7548
 2187TIP3    H230757   2.295   5.298   7.870  1.2273  1.8594  0.0017
 2188TIP3   OH230758   7.031   3.859   8.403  0.3817 -0.3425  0.3717
 2188TIP3    H130759   6.953   3.805   8.415 -1.1999  1.3612 -1.4150
 2188TIP3    H230760   7.016   3.904   8.320  1.4391  3.0548  1.8493
 2189TIP3   OH230761   2.049   4.711   7.847 -0.1673  0.4706 -0.2994
 2189TIP3    H130762   1.963   4.672   7.861  0.5073 -0.1862  2.8036
 2189TIP3    H230763   2.062   4.768   7.923  1.8612  1.1093 -1.0546
 2190TIP3   OH230764   6.262   0.214   9.492  0.0556 -0.5160  0.0536
 2190TIP3    H130765   6.203   0.182   9.423 -0.9933  0.6505  0.3914
 2190TIP3    H230766   6.328   0.145   9.500 -0.9159 -1.5766 -0.7522
 2191TIP3   OH230767   0.586   4.804   7.104  0.1468  0.2211 -0.4105
 2191TIP3    H130768   0.590   4.850   7.020  0.9784 -1.2921 -1.2426
 2191TIP3    H230769   0.500   4.761   7.104 -0.6293  1.7003  0.3658
 2192TIP3   OH230770   1.008   3.856   8.624 -0.4523 -0.2193 -0.3417
 2192TIP3    H130771   0.984   3.781   8.678 -1.5272 -0.8714 -1.6590
 2192TIP3    H230772   1.027   3.818   8.538  1.0458  0.7996 -0.5015
 2193TIP3   OH230773   4.437   0.260   7.732 -0.3046 -0.3401  0.1211
 2193TIP3    H130774   4.474   0.284   7.817 -0.0510 -2.3617  0.6373
 2193TIP3    H230775   4.510   0.218   7.686 -1.4422 -2.9497  0.5350
 2194TIP3   OH230776   3.599   7.199   9.292 -0.0109  0.3231 -0.1817
 2194TIP3    H130777   3.625   7.126   9.237  0.2283  0.5127 -0.3217
 2194TIP3    H230778   3.661   7.269   9.270 -0.3869  0.6447 -0.2217
 2195TIP3   OH230779   5.935   1.269   6.990 -0.5392 -0.2659 -0.0357
 2195TIP3    H130780   5.982   1.186   6.979 -0.0448  0.0932 -0.6797
 2195TIP3    H230781   5.908   1.292   6.901  0.8250  1.1385 -0.1107
 2196TIP3   OH230782   1.955   4.605   7.025 -0.3338  0.3487  0.6339
 2196TIP3    H130783   2.012   4.607   7.102  1.1030 -1.3538 -0.3193
 2196TIP3    H230784   1.980   4.682   6.974  2.0617 -0.9999 -0.3651
 2197TIP3   OH230785   5.486   7.673   9.197 -0.3353  0.5462 -0.3212
 2197TIP3    H130786   5.513   7.742   9.257  0.1355  2.0933 -2.2304
 2197TIP3    H230787   5.468   7.718   9.115  0.8371 -1.6848 -1.9044
 2198TIP3   OH230788   1.575   6.874   8.901  0.2556  0.2940 -0.0568
 2198TIP3    H130789   1.621   6.875   8.817 -0.6040  0.9842 -0.5417
 2198TIP3    H230790   1.564   6.967   8.924 -0.1192  0.1263  0.4708
 2199TIP3   OH230791   2.814   2.980   7.728 -0.5117  0.3567  0.0940
 2199TIP3    H130792   2.857   3.064   7.713 -1.0156  0.8958  1.5174
 2199TIP3    H230793   2.725   3.003   7.755 -0.1994 -0.5317  2.0819
 2200TIP3   OH230794   0.613   1.470   7.017 -0.3699 -0.3680 -0.1340
 2200TIP3    H130795   0.587   1.381   6.994  1.9803 -0.6664 -2.0820
 2200TIP3    H230796   0.681   1.492   6.953 -1.1838  3.0187 -0.0144
 2201TIP3   OH230797   0.832   1.580   7.536  0.3740  0.0151 -0.7030
 2201TIP3    H130798   0.737   1.581   7.531  0.3505  1.6270 -0.3230
 2201TIP3    H230799   0.853   1.617   7.622  1.3396 -1.0147 -0.4666
 2202TIP3   OH230800   4.009   0.201   9.317 -0.3240  0.1136 -0.0001
 2202TIP3    H130801   4.053   0.122   9.348  0.3711 -0.2011 -1.7059
 2202TIP3    H230802   3.918   0.190   9.344 -0.2697 -1.3470 -0.3307
 2203TIP3   OH230803   0.300   2.873   7.575  0.4188  1.0046  0.1981
 2203TIP3    H130804   0.267   2.867   7.486  1.0064  2.2343 -0.1343
 2203TIP3    H230805   0.233   2.922   7.623  1.1207  2.4144 -0.1778
 2204TIP3   OH230806   1.184   2.882   7.179  0.1587  0.1144  0.0108
 2204TIP3    H130807   1.223   2.803   7.216 -0.4066  0.2070  0.8423
 2204TIP3    H230808   1.195   2.873   7.085  0.6952 -0.6361  0.1407
 2205TIP3   OH230809   4.232   5.787   8.090  0.2965  0.4998 -0.3322
 2205TIP3    H130810   4.144   5.798   8.053  0.0581  1.0572  0.3731
 2205TIP3    H230811   4.252   5.695   8.077 -0.4163  0.3535 -0.4521
 2206TIP3   OH230812   1.762   2.283   7.425  0.2668  0.3045  0.3287
 2206TIP3    H130813   1.749   2.365   7.377 -0.1619 -0.2648 -0.5472
 2206TIP3    H230814   1.793   2.221   7.358  1.2757 -0.0699  1.1167
 2207TIP3   OH230815   6.018   6.864   7.619 -0.2838  0.1595  0.4627
 2207TIP3    H130816   5.934   6.818   7.624  0.2913 -0.7585  2.6494
 2207TIP3    H230817   6.084   6.796   7.627  0.7061  0.8990 -0.9891
 2208TIP3   OH230818   3.152   4.888   8.043 -0.1606  0.2915  0.4973
 2208TIP3    H130819   3.123   4.947   8.113  0.5805  2.3538 -0.8524
 2208TIP3    H230820   3.115   4.925   7.963  0.8100 -0.7406 -0.4683
 2209TIP3   OH230821   2.069   6.192   7.330  0.3648 -0.2234  1.2612
 2209TIP3    H130822   2.042   6.251   7.400 -0.3589 -0.8389  1.5186
 2209TIP3    H230823   2.003   6.123   7.330  0.9624 -0.8152  0.6958
 2210TIP3   OH230824   6.610   1.558   8.974 -0.2058  0.2916 -0.4495
 2210TIP3    H130825   6.524   1.525   8.999 -0.6893  0.1338 -2.2083
 2210TIP3    H230826   6.649   1.488   8.922  0.8487  0.5071  0.0272
 2211TIP3   OH230827   2.266   4.541   7.725  0.2102  0.5358 -0.0763
 2211TIP3    H130828   2.210   4.587   7.787 -0.4736  0.2869 -0.4958
 2211TIP3    H230829   2.355   4.552   7.759  0.1179  2.4470 -0.3282
 2212TIP3   OH230830   5.823   2.290   8.150  0.1094 -0.2273 -0.1894
 2212TIP3    H130831   5.787   2.211   8.191 -0.0553  0.2896  0.6805
 2212TIP3    H230832   5.914   2.291   8.178 -0.4934  1.2341  1.9684
 2213TIP3   OH230833   0.393   4.284   8.355  0.2451 -0.2326  0.0237
 2213TIP3    H130834   0.331   4.263   8.425  0.8345  1.7499  1.2580
 2213TIP3    H230835   0.471   4.232   8.375 -0.5055 -1.7255 -0.7732
 2214TIP3   OH230836   2.811   4.145   7.314 -0.4699  0.3603 -0.0596
 2214TIP3    H130837   2.842   4.097   7.391 -1.1670  0.0954  0.0680
 2214TIP3    H230838   2.884   4.203   7.290 -0.3564  0.6705  0.9896
 2215TIP3   OH230839   0.232   4.176   7.259  0.7685 -0.0064 -0.1956
 2215TIP3    H130840   0.296   4.244   7.275  1.8009 -1.0840  0.3911
 2215TIP3    H230841   0.268   4.126   7.185 -0.1329  0.2581 -0.8330
 2216TIP3   OH230842   2.202   0.811   8.682 -0.2516 -0.1622 -0.1945
 2216TIP3    H130843   2.253   0.781   8.758 -0.8721  1.7988  1.0607
 2216TIP3    H230844   2.118   0.766   8.691 -0.2407 -0.1184  0.1472
 2217TIP3   OH230845   2.369   3.715   8.792  0.4085  0.5749  0.1972
 2217TIP3    H130846   2.413   3.800   8.792  0.2930  0.7161 -2.4588
 2217TIP3    H230847   2.281   3.733   8.825  0.0536  1.7402 -1.2462
 2218TIP3   OH230848   5.777   7.491   8.989 -0.0526  0.8513  0.3988
 2218TIP3    H130849   5.699   7.470   9.040 -0.3202  0.8395 -0.0147
 2218TIP3    H230850   5.752   7.475   8.898  0.8683 -0.5742  0.3466
 2219TIP3   OH230851   3.783   0.301   9.117 -0.3379  0.6850 -0.0649
 2219TIP3    H130852   3.825   0.295   9.203  1.1686 -0.4201 -0.8465
 2219TIP3    H230853   3.827   0.375   9.074 -0.0432  0.2924 -0.4367
 2220TIP3   OH230854   7.372   7.661   9.114 -0.7734  0.3676  0.1646
 2220TIP3    H130855   7.415   7.693   9.193  1.5737 -0.6718 -0.5816
 2220TIP3    H230856   7.365   7.738   9.057  2.7143  0.2191 -0.7225
 2221TIP3   OH230857   3.894   5.314   6.612  0.5913  0.1177  0.2972
 2221TIP3    H130858   3.983   5.284   6.591  0.1876 -0.4837 -0.5674
 2221TIP3    H230859   3.846   5.234   6.631  0.1423  0.4197  0.4329
 2222TIP3   OH230860   4.464   3.436   7.685 -0.6306  0.0501  0.2613
 2222TIP3    H130861   4.425   3.349   7.690 -1.6907  0.3785 -1.4305
 2222TIP3    H230862   4.552   3.421   7.649 -1.8987 -0.1878 -3.1814
 2223TIP3   OH230863   4.563   5.263   8.207 -0.2992 -0.4163 -0.6625
 2223TIP3    H130864   4.606   5.338   8.165 -0.4232  0.0984  0.1012
 2223TIP3    H230865   4.599   5.261   8.295 -1.0182 -0.6571 -0.3644
 2224TIP3   OH230866   1.160   1.451   7.728 -0.0641 -0.0477 -0.8778
 2224TIP3    H130867   1.113   1.454   7.811 -0.7620 -2.4402 -1.1310
 2224TIP3    H230868   1.121   1.522   7.676  0.1556  1.2614  0.6794
 2225TIP3   OH230869   7.572   4.446   9.298 -0.6387  0.1176  0.0549
 2225TIP3    H130870   7.536   4.519   9.348  0.2236  0.0203  0.8574
 2225TIP3    H230871   7.660   4.475   9.274  0.5221 -1.3576  2.1242
 2226TIP3   OH230872   3.414   5.710   9.359 -0.5201  0.0929  0.0135
 2226TIP3    H130873   3.486   5.726   9.298 -0.6861 -0.4646 -0.3297
 2226TIP3    H230874   3.387   5.798   9.387 -0.4528  0.3540 -0.7235
 2227TIP3   OH230875   0.283   6.645   8.523  0.4211  0.7578 -0.1343
 2227TIP3    H130876   0.377   6.640   8.535  0.3542  0.4354  0.2903
 2227TIP3    H230877   0.268   6.730   8.481  0.9925  0.3333 -1.2399
 2228TIP3   OH230878   7.127   2.289   7.624 -0.2468  0.3052 -0.3331
 2228TIP3    H130879   7.197   2.229   7.651 -0.8150  0.0322  0.5677
 2228TIP3    H230880   7.123   2.354   7.695 -0.6166  0.5675 -0.5915
 2229TIP3   OH230881   7.309   2.076   7.318  0.1289  0.1216  0.3124
 2229TIP3    H130882   7.355   2.043   7.241  0.9167  0.5929  0.5783
 2229TIP3    H230883   7.220   2.094   7.287 -0.0825 -1.3795 -0.0559
 2230TIP3   OH230884   5.612   4.403   9.128 -0.1572 -0.6610  0.0500
 2230TIP3    H130885   5.690   4.347   9.130  0.2405 -0.3990 -3.0986
 2230TIP3    H230886   5.566   4.377   9.049 -2.5075  0.2869  1.0045
 2231TIP3   OH230887   2.123   0.762   8.012  0.0264 -0.0208  0.6260
 2231TIP3    H130888   2.064   0.686   8.006  1.1122 -0.8016 -0.7101
 2231TIP3    H230889   2.151   0.778   7.922  0.8317  1.1590  1.0672
 2232TIP3   OH230890   0.933   1.836   9.041 -0.6970  0.0074 -0.5457
 2232TIP3    H130891   0.853   1.855   8.993 -0.8165  0.2469 -0.2581
 2232TIP3    H230892   0.975   1.922   9.052  1.1824 -0.4043 -3.4049
 2233TIP3   OH230893   3.022   7.328   7.726  0.0619 -0.0223 -0.1419
 2233TIP3    H130894   3.018   7.419   7.756 -1.5937 -0.2590  0.4157
 2233TIP3    H230895   3.059   7.334   7.637 -1.1739  1.3165 -0.6002
 2234TIP3   OH230896   2.761   2.118   8.217  0.0841  0.5385  0.5862
 2234TIP3    H130897   2.696   2.133   8.286 -2.3072 -0.3137 -1.3429
 2234TIP3    H230898   2.761   2.024   8.203 -1.3079  0.8448 -2.1243
 2235TIP3   OH230899   0.556   6.465   9.420  0.2274 -0.0024  0.0119
 2235TIP3    H130900   0.619   6.394   9.430  1.2994  0.8737 -0.3624
 2235TIP3    H230901   0.604   6.544   9.448 -0.9444  0.5796  0.4603
 2236TIP3   OH230902   0.255   2.261   8.410  0.3369 -0.4778 -0.0270
 2236TIP3    H130903   0.289   2.324   8.473  1.0392  0.2402 -1.0805
 2236TIP3    H230904   0.228   2.315   8.335  1.2133 -1.4286 -1.0693
 2237TIP3   OH230905   7.629   1.651   7.526 -0.1849 -0.1134 -0.4767
 2237TIP3    H130906   7.695   1.700   7.577 -0.4361  0.6744 -0.8933
 2237TIP3    H230907   7.680   1.605   7.460  0.3231 -2.3366  1.3297
 2238TIP3   OH230908   0.171   0.834   7.643  0.5128 -0.5248  0.1074
 2238TIP3    H130909   0.246   0.891   7.621  0.0688 -0.3485 -1.0497
 2238TIP3    H230910   0.153   0.787   7.561 -1.4577  0.3915 -0.0471
 2239TIP3   OH230911   3.148   5.378   9.212 -0.1509 -0.1749  0.7214
 2239TIP3    H130912   3.231   5.390   9.258  0.4358  0.6218 -0.4793
 2239TIP3    H230913   3.166   5.408   9.123 -1.2802 -1.5166 -0.0036
 2240TIP3   OH230914   5.927   5.386   7.066  0.1444  0.5268 -0.2157
 2240TIP3    H130915   5.955   5.380   7.158  1.0460  1.1503 -0.4361
 2240TIP3    H230916   5.952   5.302   7.028 -0.8380  0.0077  0.2637
 2241TIP3   OH230917   4.639   6.932   9.415 -0.2171  0.2426  0.3867
 2241TIP3    H130918   4.598   7.004   9.367  0.0970  0.0737 -0.1454
 2241TIP3    H230919   4.687   6.975   9.486 -0.1153  0.5515  0.1339
 2242TIP3   OH230920   6.556   4.863   8.040 -0.3325 -0.2130 -0.0560
 2242TIP3    H130921   6.563   4.780   7.994 -1.3174  0.4135 -1.3869
 2242TIP3    H230922   6.591   4.928   7.979  1.0824  0.2973  1.2362
 2243TIP3   OH230923   2.858   4.714   8.230  0.2818  0.4484 -0.2510
 2243TIP3    H130924   2.870   4.668   8.313 -0.5383  1.2641  0.3397
 2243TIP3    H230925   2.893   4.802   8.246 -0.1450  0.6997 -0.6697
 2244TIP3   OH230926   6.786   6.336   7.208  0.3252 -0.3458  0.2371
 2244TIP3    H130927   6.820   6.425   7.201 -0.7595  0.1415  0.8508
 2244TIP3    H230928   6.861   6.280   7.194  1.1717  0.6785  0.5626
 2245TIP3   OH230929   1.570   6.888   9.247  0.1121  0.7671 -0.2324
 2245TIP3    H130930   1.647   6.888   9.303  1.1196  0.3171 -1.5776
 2245TIP3    H230931   1.566   6.977   9.211 -1.2081  1.4146  1.3956
 2246TIP3   OH230932   0.274   1.084   8.702  0.2889  0.0900 -0.2943
 2246TIP3    H130933   0.261   0.991   8.722 -1.4944  0.3644 -0.0502
 2246TIP3    H230934   0.366   1.100   8.722  1.5152 -2.3163 -3.3163
 2247TIP3   OH230935   0.953   6.618   7.907  0.2099 -0.4038 -0.6125
 2247TIP3    H130936   0.953   6.714   7.914  0.3101 -0.4564  0.2674
 2247TIP3    H230937   0.867   6.592   7.942  0.3243 -0.6519 -0.5161
 2248TIP3   OH230938   4.450   2.830   8.532 -0.1568  0.0852  0.4941
 2248TIP3    H130939   4.403   2.759   8.575  0.1611 -0.7389 -0.5023
 2248TIP3    H230940   4.390   2.860   8.463 -0.7064  1.4673  1.5022
 2249TIP3   OH230941   5.958   0.566   7.793 -0.2102  0.4043  0.0745
 2249TIP3    H130942   5.897   0.555   7.719 -1.0635  0.5691  0.7397
 2249TIP3    H230943   5.918   0.516   7.864  1.0287 -0.4526  0.2055
 2250TIP3   OH230944   7.460   0.865   8.521  0.8286 -0.1217  0.1598
 2250TIP3    H130945   7.371   0.832   8.534  0.5842 -0.3800 -1.8386
 2250TIP3    H230946   7.515   0.812   8.579 -0.3974  0.6948  2.1625
 2251TIP3   OH230947   1.081   3.259   9.235  0.1941 -0.0279 -0.1773
 2251TIP3    H130948   1.041   3.260   9.148 -0.9196  2.0756  0.2836
 2251TIP3    H230949   1.012   3.225   9.292  0.4686 -0.1886  0.0594
 2252TIP3   OH230950   6.949   1.030   7.930  0.6719 -0.5113  0.7138
 2252TIP3    H130951   6.872   1.086   7.936  1.2460  0.2216  1.3677
 2252TIP3    H230952   6.951   1.002   7.838 -0.2717 -0.4033  0.6526
 2253TIP3   OH230953   6.734   2.191   9.280 -0.3052  0.1748  0.0799
 2253TIP3    H130954   6.641   2.200   9.299 -0.0030 -0.1121  1.8603
 2253TIP3    H230955   6.759   2.273   9.239 -1.5126 -0.0862 -1.2360
 2254TIP3   OH230956   3.567   4.499   7.632  0.4623  0.3452  0.2580
 2254TIP3    H130957   3.514   4.454   7.697  0.8885  1.0605  1.1268
 2254TIP3    H230958   3.523   4.482   7.548  0.1880 -0.9932  0.6643
 2255TIP3   OH230959   3.920   6.134   8.708 -1.1137 -0.0508 -0.6256
 2255TIP3    H130960   4.008   6.128   8.747 -0.8809  1.3556 -0.8780
 2255TIP3    H230961   3.919   6.064   8.643  0.2257  0.5513 -1.3475
 2256TIP3   OH230962   6.518   7.043   9.288 -0.2283 -0.6150 -0.4748
 2256TIP3    H130963   6.540   7.121   9.238 -1.7814  0.9942  1.1977
 2256TIP3    H230964   6.427   7.025   9.264 -0.3690 -0.9756  0.3285
 2257TIP3   OH230965   4.232   4.839   6.764  0.4615  0.0330  0.4279
 2257TIP3    H130966   4.213   4.751   6.731 -1.5101  0.2634  0.8407
 2257TIP3    H230967   4.164   4.894   6.725  0.6277  1.0640  1.5494
 2258TIP3   OH230968   6.851   6.033   8.489  0.5805  0.3703 -0.0950
 2258TIP3    H130969   6.838   5.986   8.406 -0.3318  0.7424 -0.1752
 2258TIP3    H230970   6.850   6.125   8.464  0.1833  0.4856  0.3519
 2259TIP3   OH230971   4.748   2.802   9.089 -0.0174  0.1013  0.2833
 2259TIP3    H130972   4.793   2.884   9.110 -1.3118  0.5082  1.7178
 2259TIP3    H230973   4.670   2.803   9.146  1.0295 -3.1276  2.0193
 2260TIP3   OH230974   1.032   1.541   7.206 -0.7620  0.0315  0.3644
 2260TIP3    H130975   1.049   1.622   7.256  2.2093 -0.4678  0.3633
 2260TIP3    H230976   0.988   1.484   7.268 -0.2882  0.6570  1.3112
 2261TIP3   OH230977   1.871   0.916   8.929 -0.3626 -0.0799 -0.7422
 2261TIP3    H130978   1.918   0.996   8.950 -0.4814 -0.2543  0.2371
 2261TIP3    H230979   1.901   0.893   8.841  0.0100  0.7875 -0.8495
 2262TIP3   OH230980   3.583   1.277   7.536 -0.1922  0.1150 -0.1779
 2262TIP3    H130981   3.610   1.187   7.517 -1.5805 -0.3032 -0.2307
 2262TIP3    H230982   3.559   1.314   7.451  0.0860  0.4539 -0.1148
 2263TIP3   OH230983   7.479   0.204   8.319  0.1281  0.8992 -0.0409
 2263TIP3    H130984   7.389   0.237   8.322  0.6195  2.2707  0.7235
 2263TIP3    H230985   7.472   0.112   8.343 -1.1623  0.7592 -0.8741
 2264TIP3   OH230986   1.615   4.291   9.676  0.2223  0.5400 -0.1911
 2264TIP3    H130987   1.549   4.303   9.744 -2.0000 -0.9919 -1.9497
 2264TIP3    H230988   1.594   4.207   9.637  0.6171  1.8718 -3.5678
 2265TIP3   OH230989   5.738   6.203   8.065  0.5364 -0.1521  0.0982
 2265TIP3    H130990   5.721   6.130   8.125 -0.3779  1.3334  1.7141
 2265TIP3    H230991   5.715   6.281   8.114  2.1812  1.3212 -1.3342
 2266TIP3   OH230992   0.550   0.604   6.874  0.3242  0.3068  0.5786
 2266TIP3    H130993   0.534   0.637   6.786 -1.3999  0.0384  0.7488
 2266TIP3    H230994   0.515   0.514   6.872  0.6758  0.1417  1.4135
 2267TIP3   OH230995   3.906   4.756   6.964 -0.0977  0.2112 -0.1505
 2267TIP3    H130996   3.926   4.714   6.880  0.7744  1.5134 -0.6247
 2267TIP3    H230997   3.989   4.752   7.012 -0.7110 -0.9391  0.8675
 2268TIP3   OH230998   1.055   5.562   8.474  0.0359  0.0662 -0.1818
 2268TIP3    H130999   0.995   5.515   8.532  0.5511  0.1419  0.4321
 2268TIP3    H231000   1.037   5.528   8.387 -0.0431 -0.7967  0.1690
 2269TIP3   OH231001   5.356   6.192   7.788 -0.0742  0.1574  0.2351
 2269TIP3    H131002   5.377   6.281   7.759  1.8772 -0.1901  0.4617
 2269TIP3    H231003   5.347   6.142   7.706  1.5053  0.0265  0.1029
 2270TIP3   OH231004   4.884   4.244   8.025  0.6170  0.4997  0.3160
 2270TIP3    H131005   4.927   4.159   8.016 -0.4695 -0.2101  1.4647
 2270TIP3    H231006   4.826   4.233   8.100  0.0230  2.0880  0.1184
 2271TIP3   OH231007   2.676   3.894   7.288  0.4048 -0.2663  0.1814
 2271TIP3    H131008   2.708   3.982   7.309  0.1561 -0.5197  1.7405
 2271TIP3    H231009   2.635   3.864   7.369 -1.2562 -1.0597 -0.9141
 2272TIP3   OH231010   3.442   4.499   8.664 -0.0315 -0.2457  0.7669
 2272TIP3    H131011   3.402   4.585   8.674  0.1024 -0.1174  0.2506
 2272TIP3    H231012   3.370   4.441   8.639  0.0252 -0.0982  0.2423
 2273TIP3   OH231013   1.919   6.659   6.866 -0.0896 -0.4142 -0.2404
 2273TIP3    H131014   1.978   6.632   6.937  2.5903 -1.2674 -2.5616
 2273TIP3    H231015   1.839   6.610   6.882  0.2872 -0.3299  2.3281
 2274TIP3   OH231016   0.658   5.527   6.905  0.3155 -0.3615  0.4068
 2274TIP3    H131017   0.616   5.493   6.826 -0.8205 -0.4074  1.0078
 2274TIP3    H231018   0.751   5.534   6.882 -0.0417 -0.0759 -1.0249
 2275TIP3   OH231019   7.069   1.927   8.206 -0.1729  0.6676  0.3173
 2275TIP3    H131020   7.031   1.843   8.232  0.9397  0.2388  0.6335
 2275TIP3    H231021   7.162   1.919   8.228  0.2892  1.3314 -1.2154
 2276TIP3   OH231022   7.045   4.710   9.206 -0.0207 -0.1085  0.2221
 2276TIP3    H131023   7.095   4.701   9.287  0.8074 -0.5558 -0.3089
 2276TIP3    H231024   7.019   4.802   9.203  0.3306  0.0130  0.7700
 2277TIP3   OH231025   4.657   3.292   8.995 -0.4397 -0.0613 -0.3073
 2277TIP3    H131026   4.576   3.306   8.946 -0.7368 -0.3168  0.1097
 2277TIP3    H231027   4.710   3.236   8.938 -0.9464 -0.6915 -0.1659
 2278TIP3   OH231028   6.169   5.721   9.250 -0.4598 -0.3511  0.6901
 2278TIP3    H131029   6.247   5.738   9.196 -0.2872 -1.6634  0.4721
 2278TIP3    H231030   6.187   5.765   9.333  0.2786 -0.1841  0.4488
 2279TIP3   OH231031   5.929   0.964   9.760 -0.3498  0.1562 -0.0937
 2279TIP3    H131032   5.836   0.942   9.761  0.3607 -3.5578  0.0002
 2279TIP3    H231033   5.968   0.903   9.697  2.1046  1.1466  0.3262
 2280TIP3   OH231034   4.106   0.201   7.824  0.1464 -0.3580 -0.0735
 2280TIP3    H131035   4.196   0.175   7.803 -0.2412 -1.1523 -0.8237
 2280TIP3    H231036   4.082   0.146   7.899  0.6907  0.7302  0.9255
 2281TIP3   OH231037   7.440   3.019   8.054  0.1928  0.1428 -0.3769
 2281TIP3    H131038   7.385   2.976   8.119  0.4065  0.2488 -0.1266
 2281TIP3    H231039   7.382   3.082   8.012 -0.1049 -0.3422 -0.7015
 2282TIP3   OH231040   0.587   4.418   8.611  0.2165  0.0024 -0.2823
 2282TIP3    H131041   0.596   4.347   8.548  3.8479  0.7114 -0.7355
 2282TIP3    H231042   0.599   4.498   8.560  1.1015  0.7066  0.9703
 2283TIP3   OH231043   6.736   5.651   7.256 -0.3587 -0.2224  0.5394
 2283TIP3    H131044   6.657   5.600   7.274 -0.6579 -0.1322 -0.4696
 2283TIP3    H231045   6.708   5.718   7.193  0.6624 -0.6003 -0.3468
 2284TIP3   OH231046   2.803   0.665   9.072 -0.4826 -0.1616 -0.2818
 2284TIP3    H131047   2.714   0.668   9.036 -1.0304  3.0529  0.9320
 2284TIP3    H231048   2.852   0.729   9.020  0.8628 -1.1526 -0.2774
 2285TIP3   OH231049   0.113   2.375   8.782  0.0355 -0.1606 -0.2192
 2285TIP3    H131050   0.068   2.407   8.861  2.1724 -1.2892  1.5879
 2285TIP3    H231051   0.176   2.445   8.761 -1.3115  0.6614 -1.7066
 2286TIP3   OH231052   3.237   5.957   7.809  0.1541 -0.5668  0.2462
 2286TIP3    H131053   3.249   5.876   7.859  1.2920 -1.2528 -1.0809
 2286TIP3    H231054   3.158   5.996   7.847 -1.1789 -2.9130  0.1068
 2287TIP3   OH231055   4.216   5.959   9.567  0.1619 -0.0342  0.8284
 2287TIP3    H131056   4.238   5.881   9.517 -0.0173  0.2124  0.3592
 2287TIP3    H231057   4.122   5.950   9.585 -0.3100  0.9903 -0.8958
 2288TIP3   OH231058   1.140   3.642   6.794  0.1528  0.2778  0.1202
 2288TIP3    H131059   1.216   3.699   6.782  0.2521 -0.0008 -0.6364
 2288TIP3    H231060   1.167   3.581   6.862  0.8210 -0.1667 -0.5286
 2289TIP3   OH231061   6.729   2.531   7.672  0.5883 -0.1668  0.3188
 2289TIP3    H131062   6.666   2.560   7.606  1.0300  0.2089  0.0593
 2289TIP3    H231063   6.694   2.563   7.755 -0.2223 -1.0576  0.3346
 2290TIP3   OH231064   2.196   7.297   7.709  0.4141  0.4934  0.2771
 2290TIP3    H131065   2.117   7.341   7.680  0.0690  0.9141  1.7983
 2290TIP3    H231066   2.196   7.305   7.804  1.8313 -0.2718  0.3837
 2291TIP3   OH231067   2.035   5.828   8.184 -0.0151 -0.6780 -0.2113
 2291TIP3    H131068   1.954   5.803   8.229 -0.0716  2.2207  1.6303
 2291TIP3    H231069   2.007   5.892   8.118  0.7096  0.3601  0.4493
 2292TIP3   OH231070   0.451   0.278   8.447 -0.1739 -0.1930  0.1010
 2292TIP3    H131071   0.471   0.241   8.361  0.6910 -0.0877  0.2529
 2292TIP3    H231072   0.357   0.263   8.457  0.0001 -1.6280 -0.1841
 2293TIP3   OH231073   0.676   4.207   7.748  0.4256 -0.2738 -0.4508
 2293TIP3    H131074   0.691   4.277   7.685  0.5312  0.9565  0.8758
 2293TIP3    H231075   0.762   4.167   7.761  0.6641  0.3238 -0.1426
 2294TIP3   OH231076   5.598   6.573   8.399  0.2871 -0.0052 -0.0847
 2294TIP3    H131077   5.564   6.653   8.361  1.1250 -0.3596 -1.6894
 2294TIP3    H231078   5.630   6.599   8.486  1.0346  1.5357 -0.7752
 2295TIP3   OH231079   7.458   2.274   7.464  0.6005 -0.2476 -0.5751
 2295TIP3    H131080   7.446   2.196   7.519  2.3952 -0.4079 -0.3622
 2295TIP3    H231081   7.404   2.256   7.387  0.3875 -1.3615 -0.1957
 2296TIP3   OH231082   0.393   0.937   6.724  0.9725  0.4035  0.2463
 2296TIP3    H131083   0.298   0.944   6.713  1.2016  1.2243 -1.6699
 2296TIP3    H231084   0.412   0.845   6.702  0.5825  0.0481  1.3081
 2297TIP3   OH231085   1.448   1.290   7.201  0.0719  0.8198  0.1994
 2297TIP3    H131086   1.411   1.309   7.287 -0.9224  1.5198 -0.3574
 2297TIP3    H231087   1.519   1.228   7.218 -0.8882  0.0005  1.3836
 2298TIP3   OH231088   1.731   3.221   8.359 -0.6952 -0.3927 -0.2070
 2298TIP3    H131089   1.726   3.265   8.444 -3.2705 -2.2608  0.7259
 2298TIP3    H231090   1.679   3.276   8.301 -2.5099 -1.2261  0.5488
 2299TIP3   OH231091   1.826   5.508   9.003  0.5689  0.0852 -0.1364
 2299TIP3    H131092   1.743   5.552   8.984  0.6751 -0.3434 -1.7950
 2299TIP3    H231093   1.803   5.440   9.066 -0.6753 -0.9998 -1.6756
 2300TIP3   OH231094   0.757   1.974   7.556 -0.3258 -0.5034 -0.3563
 2300TIP3    H131095   0.780   1.916   7.483 -0.6412 -0.9723 -0.0897
 2300TIP3    H231096   0.701   2.041   7.515  1.3087  0.5351 -0.9612
 2301TIP3   OH231097   2.844   6.314   7.448  0.1517  0.0289 -0.4078
 2301TIP3    H131098   2.851   6.410   7.446  1.9169 -0.0790 -2.3049
 2301TIP3    H231099   2.933   6.284   7.467 -0.4735 -1.2527  0.5970
 2302TIP3   OH231100   2.759   3.113   6.537  0.4197  0.3210 -0.1210
 2302TIP3    H131101   2.762   3.044   6.604 -2.2282 -0.6681 -0.9166
 2302TIP3    H231102   2.832   3.092   6.479  0.0192 -1.5152 -0.0272
 2303TIP3   OH231103   1.199   4.897   8.687  0.2526  0.3231 -0.0656
 2303TIP3    H131104   1.278   4.931   8.728  0.1347 -2.0125  2.3767
 2303TIP3    H231105   1.230   4.821   8.637 -0.1172  1.0775 -1.4954
 2304TIP3   OH231106   3.075   6.895   8.089 -0.1955  0.4150 -0.1089
 2304TIP3    H131107   3.140   6.894   8.160  0.4538  0.5857 -0.6856
 2304TIP3    H231108   3.084   6.982   8.050 -1.0900  0.5971  0.0776
 2305TIP3   OH231109   0.914   6.120   8.697 -0.3321 -0.2574 -0.1830
 2305TIP3    H131110   0.829   6.093   8.661 -1.1885  2.2154 -0.1909
 2305TIP3    H231111   0.978   6.077   8.640 -1.6388  0.8543 -2.6464
 2306TIP3   OH231112   3.162   3.872   7.655  0.4137  0.0510 -0.4148
 2306TIP3    H131113   3.219   3.938   7.694  1.5937 -1.3227  0.2944
 2306TIP3    H231114   3.159   3.894   7.562  2.2840  0.0761 -0.5039
 2307TIP3   OH231115   2.790   2.508   8.010  0.2786 -0.0529 -0.3079
 2307TIP3    H131116   2.779   2.421   7.971 -0.8426 -0.4644  0.8504
 2307TIP3    H231117   2.724   2.562   7.967 -0.1184 -0.1876  0.1350
 2308TIP3   OH231118   5.506   1.697   7.487 -0.3227 -0.1529  0.1357
 2308TIP3    H131119   5.421   1.740   7.483 -0.7666 -1.0003  0.2409
 2308TIP3    H231120   5.531   1.701   7.580  0.0663  0.6700  0.0058
 2309TIP3   OH231121   0.717   1.850   7.819  0.3832  0.2578  0.2073
 2309TIP3    H131122   0.770   1.914   7.867  1.5759 -1.5689  1.4652
 2309TIP3    H231123   0.714   1.884   7.730  0.0388  2.5915  1.0413
 2310TIP3   OH231124   1.362   2.605   8.886  0.7103  0.0407  0.5740
 2310TIP3    H131125   1.276   2.563   8.891  0.9621 -0.4291  0.9478
 2310TIP3    H231126   1.350   2.676   8.822  0.5090 -1.1144 -0.7063
 2311TIP3   OH231127   1.974   2.203   9.551  0.2083  0.0146 -0.3224
 2311TIP3    H131128   2.053   2.249   9.580  1.1074 -0.9035 -1.2388
 2311TIP3    H231129   2.003   2.148   9.478 -1.2992 -0.2798 -0.7451
 2312TIP3   OH231130   5.367   7.121   9.590  0.4559 -0.1538 -0.0859
 2312TIP3    H131131   5.346   7.161   9.506  1.0069  0.0356 -0.1384
 2312TIP3    H231132   5.339   7.030   9.581 -0.3956  0.1002 -0.1197
 2313TIP3   OH231133   0.328   3.754   6.498  0.6539  0.1306  0.0889
 2313TIP3    H131134   0.309   3.708   6.416 -0.7147  0.9662 -0.0963
 2313TIP3    H231135   0.358   3.841   6.470 -1.9753  1.2351  0.4150
 2314TIP3   OH231136   1.722   4.235   7.943  0.1404 -0.0406 -0.4026
 2314TIP3    H131137   1.745   4.191   8.025  0.3477  2.0770  0.7516
 2314TIP3    H231138   1.793   4.298   7.929 -0.1623 -0.0053 -1.9580
 2315TIP3   OH231139   5.343   6.337   7.236 -0.3043  0.1727  0.0810
 2315TIP3    H131140   5.332   6.406   7.302  1.4909 -0.6813  1.3355
 2315TIP3    H231141   5.430   6.352   7.200  0.3122 -1.7037  0.7075
 2316TIP3   OH231142   2.584   5.888   7.620  0.8443  0.0561  0.2637
 2316TIP3    H131143   2.636   5.955   7.665 -0.0747 -0.6184  2.4687
 2316TIP3    H231144   2.621   5.805   7.651 -0.3379 -0.4320  0.3965
 2317TIP3   OH231145   7.497   6.896   8.166  0.3355 -0.2117 -0.5442
 2317TIP3    H131146   7.428   6.957   8.138  0.6636 -0.1214 -1.1766
 2317TIP3    H231147   7.579   6.943   8.150  0.5349  0.4771  2.0870
 2318TIP3   OH231148   5.019   7.553   7.964  0.0210  0.0423 -0.2932
 2318TIP3    H131149   5.109   7.587   7.959  0.2875 -0.7328 -1.1076
 2318TIP3    H231150   4.964   7.630   7.950  0.5907  0.3189 -1.1522
 2319TIP3   OH231151   6.750   1.105   8.949 -0.1113  0.4529  0.0536
 2319TIP3    H131152   6.815   1.040   8.976 -0.6217  0.1781  0.6256
 2319TIP3    H231153   6.732   1.083   8.857  0.3752  0.3467 -0.0237
 2320TIP3   OH231154   1.501   2.562   7.037 -0.0874 -0.6701  0.0506
 2320TIP3    H131155   1.412   2.577   7.067 -0.8954 -1.8190 -1.5873
 2320TIP3    H231156   1.534   2.649   7.014 -1.0180 -0.3007  0.0881
 2321TIP3   OH231157   6.462   0.042   8.836 -0.5304 -0.0590 -0.0872
 2321TIP3    H131158   6.467   0.128   8.877 -2.7267 -0.3649  0.9344
 2321TIP3    H231159   6.548   0.030   8.794  0.6136  1.6456  1.6423
 2322TIP3   OH231160   1.713   6.678   9.104  0.4424  0.0612  0.1403
 2322TIP3    H131161   1.689   6.678   9.011  1.8325 -0.6743 -0.2491
 2322TIP3    H231162   1.658   6.745   9.143 -0.0920  0.4618 -1.2376
 2323TIP3   OH231163   1.723   4.718   9.227 -0.5639 -0.2294  0.1935
 2323TIP3    H131164   1.780   4.792   9.204  1.3701 -1.9144 -0.7839
 2323TIP3    H231165   1.734   4.709   9.322  1.0260 -0.6450  0.0024
 2324TIP3   OH231166   5.755   1.530   9.281  0.0842 -0.3455 -0.4167
 2324TIP3    H131167   5.682   1.592   9.291 -1.1658 -1.7982 -0.0990
 2324TIP3    H231168   5.823   1.581   9.237  0.3781  2.1969  2.5720
 2325TIP3   OH231169   6.901   7.080   9.261 -0.2659  0.3997 -0.3906
 2325TIP3    H131170   6.849   7.027   9.201  0.8816  0.8538 -1.8557
 2325TIP3    H231171   6.911   7.164   9.216  1.8252  0.2870 -0.2479
 2326TIP3   OH231172   4.788   6.590   8.383 -0.4446  0.2942  0.2981
 2326TIP3    H131173   4.828   6.504   8.397 -0.9984  0.3853  2.7219
 2326TIP3    H231174   4.862   6.651   8.380 -0.1510 -0.0662  0.0353
 2327TIP3   OH231175   2.122   3.267   7.791 -0.1552 -0.0175 -0.1160
 2327TIP3    H131176   2.156   3.179   7.806 -0.6206 -0.0192  0.9906
 2327TIP3    H231177   2.047   3.254   7.732 -0.0482 -0.3306 -0.1843
 2328TIP3   OH231178   6.848   1.974   8.717 -0.0494 -0.1037 -0.3667
 2328TIP3    H131179   6.762   1.965   8.676 -0.9829  1.1161  1.1986
 2328TIP3    H231180   6.879   2.060   8.690 -1.2941  1.3443  2.3629
 2329TIP3   OH231181   0.176   7.464   7.289 -0.4006 -0.3072 -0.0515
 2329TIP3    H131182   0.254   7.428   7.247 -0.3826  0.2277 -0.4846
 2329TIP3    H231183   0.116   7.390   7.297  1.1201 -1.3770  2.6866
 2330TIP3   OH231184   6.793   5.109   6.952  0.0074 -0.1537  0.2096
 2330TIP3    H131185   6.800   5.047   6.880  0.2637 -0.2768  0.3415
 2330TIP3    H231186   6.765   5.057   7.027  1.0979 -0.2794  0.5490
 2331TIP3   OH231187   1.124   3.989   7.598 -0.1799  0.1973  0.2817
 2331TIP3    H131188   1.033   3.962   7.584 -0.9524  1.0935  3.0237
 2331TIP3    H231189   1.134   3.991   7.693  2.2414  1.6536  0.0712
 2332TIP3   OH231190   3.950   0.368   7.475 -0.2832 -0.2486 -0.2615
 2332TIP3    H131191   3.967   0.450   7.522  0.8634 -1.0291  0.7463
 2332TIP3    H231192   3.858   0.350   7.493 -0.5670  0.8246 -0.5316
 2333TIP3   OH231193   3.755   2.827   7.448 -0.1127  0.2485  0.1592
 2333TIP3    H131194   3.661   2.833   7.466 -0.4256 -0.7005 -0.9584
 2333TIP3    H231195   3.760   2.783   7.363  1.3970 -1.6950  1.1720
 2334TIP3   OH231196   4.889   1.202   8.625  0.3857 -0.5327  0.2384
 2334TIP3    H131197   4.815   1.249   8.587 -0.2231 -1.3649  0.3529
 2334TIP3    H231198   4.955   1.269   8.641 -0.0567  0.1182 -0.5579
 2335TIP3   OH231199   2.016   2.976   7.838  0.0270 -0.7555  0.4008
 2335TIP3    H131200   2.030   2.972   7.744 -0.9357  0.3522  0.1703
 2335TIP3    H231201   2.073   2.909   7.875  0.0392 -1.5519 -1.0074
 2336TIP3   OH231202   6.329   4.029   9.261 -0.3343 -0.1877  0.3086
 2336TIP3    H131203   6.300   3.972   9.189  0.5948 -1.5941  1.0127
 2336TIP3    H231204   6.266   4.102   9.261 -3.2056 -2.4913  1.0446
 2337TIP3   OH231205   0.868   2.091   7.807  0.1867  0.4051 -0.0071
 2337TIP3    H131206   0.868   2.025   7.738  2.6550 -1.0246  1.2214
 2337TIP3    H231207   0.786   2.138   7.794 -0.3664 -1.0448 -2.6808
 2338TIP3   OH231208   0.651   5.901   7.778 -0.2657  0.2694 -0.1803
 2338TIP3    H131209   0.718   5.837   7.755 -0.6383 -0.0175 -0.4819
 2338TIP3    H231210   0.682   5.984   7.741  0.7117  0.4939  1.0715
 2339TIP3   OH231211   5.468   4.305   7.979  0.1464  0.4371  0.4622
 2339TIP3    H131212   5.402   4.285   7.912  0.5400  0.1801  0.1446
 2339TIP3    H231213   5.482   4.400   7.971  1.6326  0.1457 -1.2082
 2340TIP3   OH231214   2.455   1.312   9.487 -0.0873  0.8124 -0.4040
 2340TIP3    H131215   2.529   1.250   9.482  0.3285  1.3982 -2.3510
 2340TIP3    H231216   2.402   1.291   9.410 -0.8806  1.7261 -0.1120
 2341TIP3   OH231217   6.381   3.984   6.840 -0.2023  0.5934  0.1071
 2341TIP3    H131218   6.360   3.993   6.747 -0.1500  1.1015  0.1442
 2341TIP3    H231219   6.441   3.910   6.844 -3.1800 -2.0741  0.1598
 2342TIP3   OH231220   5.411   2.105   8.539 -0.1043  0.2653  0.1993
 2342TIP3    H131221   5.496   2.148   8.543  0.0796  0.1389 -1.6621
 2342TIP3    H231222   5.365   2.135   8.618  1.2230  1.2336  0.6309
 2343TIP3   OH231223   4.833   4.657   8.454  0.0685  0.1516  0.2496
 2343TIP3    H131224   4.792   4.721   8.396  1.2098  0.7436  0.0550
 2343TIP3    H231225   4.832   4.575   8.404 -0.6398  0.2109  0.1560
 2344TIP3   OH231226   4.688   4.736   6.863  0.0400 -0.2878  0.0549
 2344TIP3    H131227   4.691   4.831   6.876  1.6005 -0.3018  0.0345
 2344TIP3    H231228   4.772   4.705   6.899 -0.9097 -1.7989  1.0842
 2345TIP3   OH231229   4.538   4.587   7.261  0.4908 -0.4793 -0.5945
 2345TIP3    H131230   4.621   4.541   7.249 -0.1125 -1.0947 -2.9134
 2345TIP3    H231231   4.513   4.616   7.173 -0.6633  1.6593  0.3580
 2346TIP3   OH231232   6.434   6.204   7.921  0.2565 -0.0959  0.4565
 2346TIP3    H131233   6.373   6.278   7.918  1.8620  1.4340  2.4373
 2346TIP3    H231234   6.520   6.245   7.927  1.4606 -2.1752 -1.3163
 2347TIP3   OH231235   5.969   2.390   9.361  0.3594 -0.0158  0.4326
 2347TIP3    H131236   5.898   2.328   9.344  0.3509 -0.1897  1.0525
 2347TIP3    H231237   5.971   2.398   9.456 -1.4933  3.1399  0.3121
 2348TIP3   OH231238   6.057   6.811   7.334 -0.2385 -0.8192  0.3455
 2348TIP3    H131239   6.078   6.842   7.422 -0.4790 -0.0015  0.1218
 2348TIP3    H231240   6.056   6.715   7.342  0.6260 -0.7895  1.0291
 2349TIP3   OH231241   0.721   2.554   7.278  0.1218  0.6416 -0.0784
 2349TIP3    H131242   0.684   2.481   7.328 -0.6258  0.6937 -0.5385
 2349TIP3    H231243   0.683   2.544   7.190  0.4321  1.2782 -0.2868
 2350TIP3   OH231244   4.387   1.806   8.232 -0.1652  0.2910  0.3422
 2350TIP3    H131245   4.372   1.889   8.276 -0.5230  0.9553 -0.9725
 2350TIP3    H231246   4.299   1.769   8.220 -0.0330 -0.1157  0.6371
 2351TIP3   OH231247   2.696   4.454   8.227 -0.1467  0.8024 -0.3346
 2351TIP3    H131248   2.613   4.488   8.193  0.2318  1.7072 -0.3574
 2351TIP3    H231249   2.725   4.519   8.290 -0.5837 -0.6212  1.3986
 2352TIP3   OH231250   7.442   7.246   9.097  0.5501 -0.6715 -0.5820
 2352TIP3    H131251   7.507   7.309   9.129  0.4511 -0.6793 -0.3675
 2352TIP3    H231252   7.484   7.207   9.020  0.0433  0.6642 -1.5695
 2353TIP3   OH231253   7.226   5.573   7.976 -0.6991  0.0900  0.0409
 2353TIP3    H131254   7.200   5.481   7.973 -0.9643  0.1900 -1.6885
 2353TIP3    H231255   7.146   5.620   7.952  0.4399  0.5180 -3.3336
 2354TIP3   OH231256   1.445   6.483   9.057 -0.3722 -0.1965 -0.5632
 2354TIP3    H131257   1.357   6.467   9.091  0.5342 -0.1844  1.9522
 2354TIP3    H231258   1.431   6.508   8.966 -2.9212 -0.6977 -0.3752
 2355TIP3   OH231259   1.856   3.564   7.620  1.4707  0.1169  0.8540
 2355TIP3    H131260   1.848   3.646   7.571 -1.3957  0.1730  1.2401
 2355TIP3    H231261   1.827   3.497   7.558  1.1423 -0.2421  1.3899
 2356TIP3   OH231262   3.164   4.787   9.102 -0.0894  0.0346 -0.5945
 2356TIP3    H131263   3.220   4.864   9.107 -0.9638  0.6526 -0.1233
 2356TIP3    H231264   3.217   4.715   9.136  1.3158  0.0742 -2.5365
 2357TIP3   OH231265   4.579   5.362   8.660  0.4281  0.1484  0.0114
 2357TIP3    H131266   4.600   5.336   8.749 -1.9471 -1.6002  0.1695
 2357TIP3    H231267   4.490   5.397   8.665  0.2682  0.0952 -1.6554
 2358TIP3   OH231268   4.298   5.911   8.331  0.4397  0.5913 -0.1299
 2358TIP3    H131269   4.384   5.868   8.326  0.1055 -0.0195 -0.7880
 2358TIP3    H231270   4.250   5.877   8.256  0.7241  3.3892 -1.7186
 2359TIP3   OH231271   5.485   1.186   8.047 -0.2292  0.4757 -0.2196
 2359TIP3    H131272   5.446   1.245   7.982 -0.1157  0.6839 -0.0994
 2359TIP3    H231273   5.410   1.156   8.099 -0.1994  1.1418  0.2263
 2360TIP3   OH231274   6.069   1.454   7.791 -0.3257  0.1272 -0.2913
 2360TIP3    H131275   5.994   1.504   7.824 -0.0057  0.1382  0.4428
 2360TIP3    H231276   6.141   1.517   7.790  0.0730 -0.2985  0.6200
 2361TIP3   OH231277   1.359   0.622   9.077 -0.2031  0.1222 -0.1512
 2361TIP3    H131278   1.404   0.620   9.162 -1.1537  1.6510  0.4273
 2361TIP3    H231279   1.429   0.637   9.014  0.3262  0.5544  0.5256
 2362TIP3   OH231280   7.182   3.917   8.048 -0.2419  0.3937 -0.1621
 2362TIP3    H131281   7.170   3.925   7.953 -1.2090 -2.1568 -0.3502
 2362TIP3    H231282   7.094   3.927   8.084 -0.3330 -1.1979  0.1560
 2363TIP3   OH231283   0.231   1.463   9.242 -0.5022  0.3665 -0.3233
 2363TIP3    H131284   0.300   1.417   9.289 -1.0171 -1.4319 -1.2109
 2363TIP3    H231285   0.262   1.469   9.152 -0.0349  2.7178 -0.0751
 2364TIP3   OH231286   2.351   5.523   7.091 -0.0215  0.5004 -0.9685
 2364TIP3    H131287   2.311   5.585   7.152 -3.6065 -1.1418 -1.3696
 2364TIP3    H231288   2.347   5.566   7.006 -1.7757  0.1512 -1.1136
 2365TIP3   OH231289   4.598   6.971   7.343 -0.2947 -0.1056 -0.2846
 2365TIP3    H131290   4.570   6.974   7.251 -0.4496 -0.3338 -0.2449
 2365TIP3    H231291   4.583   6.881   7.370  0.1253 -0.1377 -0.1511
 2366TIP3   OH231292   7.166   0.849   7.502  0.0300  0.0103 -0.3481
 2366TIP3    H131293   7.112   0.892   7.568  0.5737 -0.4640  0.4106
 2366TIP3    H231294   7.243   0.818   7.549  1.6361  1.7955 -1.6146
 2367TIP3   OH231295   6.123   2.113   9.135 -0.2187  0.0294 -0.3721
 2367TIP3    H131296   6.048   2.160   9.098  0.4925  0.1599 -1.7347
 2367TIP3    H231297   6.187   2.182   9.153 -1.3794  0.3070  3.5060
 2368TIP3   OH231298   3.661   3.630   7.905  0.5025 -0.3973  0.1868
 2368TIP3    H131299   3.662   3.544   7.861 -1.4419 -0.5440  0.3679
 2368TIP3    H231300   3.584   3.627   7.962  1.5237  0.7606  1.7025
 2369TIP3   OH231301   3.254   0.043   9.478 -0.3883  0.1379  0.3971
 2369TIP3    H131302   3.222  -0.042   9.508 -0.3848  0.8519  2.5590
 2369TIP3    H231303   3.245   0.039   9.383 -2.4765 -1.4349  0.5911
 2370TIP3   OH231304   0.353   6.060   6.952  0.2424 -0.0821  0.3204
 2370TIP3    H131305   0.437   6.049   6.906  0.7330 -0.4179  1.2601
 2370TIP3    H231306   0.312   6.135   6.909 -0.0444 -1.3161 -1.7184
 2371TIP3   OH231307   3.445   3.281   8.149 -0.3034 -0.2010 -0.1773
 2371TIP3    H131308   3.358   3.269   8.185 -0.2317 -0.7264 -0.1792
 2371TIP3    H231309   3.480   3.193   8.138  0.2947  0.0074 -0.0192
 2372TIP3   OH231310   2.593   0.365   8.804 -0.0723 -0.1577  0.1607
 2372TIP3    H131311   2.643   0.425   8.749  0.4101  0.0369  0.7975
 2372TIP3    H231312   2.501   0.387   8.786  0.0935  1.4797  1.1226
 2373TIP3   OH231313   4.386   4.082   7.259 -0.2200  0.1558  0.0788
 2373TIP3    H131314   4.427   4.086   7.173 -0.3976  2.0249  0.0495
 2373TIP3    H231315   4.364   4.173   7.280 -1.1472 -0.3854  1.6350
 2374TIP3   OH231316   5.506   1.669   7.782 -0.4968  0.0776 -0.0694
 2374TIP3    H131317   5.502   1.713   7.867  0.2667  1.7626 -0.8632
 2374TIP3    H231318   5.501   1.576   7.803 -0.4515  0.4570  1.8044
 2375TIP3   OH231319   3.259   0.864   7.837  0.7393  0.6322  0.1606
 2375TIP3    H131320   3.219   0.951   7.843  0.1408  0.5678 -1.9599
 2375TIP3    H231321   3.351   0.879   7.860  0.2751  1.4606  1.5754
 2376TIP3   OH231322   6.758   4.704   8.560  0.8046  0.5093 -0.0373
 2376TIP3    H131323   6.837   4.650   8.565 -0.1701 -0.9037  0.7321
 2376TIP3    H231324   6.773   4.774   8.623  2.7300  2.1332 -2.1209
 2377TIP3   OH231325   3.706   2.337   9.131  0.6077  0.3382  0.0045
 2377TIP3    H131326   3.690   2.431   9.132 -2.5662 -0.1011  0.0036
 2377TIP3    H231327   3.762   2.321   9.208  0.4141  2.1090  0.5462
 2378TIP3   OH231328   4.471   7.297   8.560  0.2639 -0.1490  0.4055
 2378TIP3    H131329   4.520   7.378   8.547 -1.7020  1.0642  0.0919
 2378TIP3    H231330   4.421   7.313   8.640 -0.1025 -1.0833  0.3655
 2379TIP3   OH231331   6.722   4.299   8.921 -0.3705 -0.3341  0.1191
 2379TIP3    H131332   6.700   4.272   9.010  0.5762 -1.4775  0.0339
 2379TIP3    H231333   6.731   4.394   8.926  1.1681 -0.4981  1.6064
 2380TIP3   OH231334   0.435   0.682   6.629  0.0330 -0.1368  0.2548
 2380TIP3    H131335   0.434   0.659   6.536 -0.6395  0.2956  0.1438
 2380TIP3    H231336   0.372   0.623   6.669  1.2492 -1.1920  0.6732
 2381TIP3   OH231337   1.709   7.021   8.685  0.1563 -0.6796  0.3709
 2381TIP3    H131338   1.646   7.005   8.615  0.9049 -1.3911 -0.1633
 2381TIP3    H231339   1.794   7.000   8.646  0.7622  0.4971  0.9974
 2382TIP3   OH231340   2.689   2.751   7.923  0.2869  0.3040  0.1913
 2382TIP3    H131341   2.653   2.802   7.850  2.2043  1.2347 -0.1589
 2382TIP3    H231342   2.628   2.768   7.995 -0.4787  1.0997 -0.6080
 2383TIP3   OH231343   1.175   5.159   7.732 -0.5757  0.1508  0.1780
 2383TIP3    H131344   1.146   5.154   7.641 -0.4023 -2.6599  0.1966
 2383TIP3    H231345   1.096   5.182   7.781 -0.6277  1.8989 -0.6201
 2384TIP3   OH231346   0.476   0.884   7.997  0.1059  0.7957  0.1095
 2384TIP3    H131347   0.537   0.955   7.976  0.7545  0.2967  0.2857
 2384TIP3    H231348   0.401   0.899   7.939  0.0638  1.8449  0.4211
 2385TIP3   OH231349   2.033   6.839   8.233 -0.2117 -0.0796  0.6088
 2385TIP3    H131350   2.090   6.764   8.216  0.1622  0.5880 -1.3609
 2385TIP3    H231351   2.094   6.912   8.246 -0.5901  0.2984  0.2644
 2386TIP3   OH231352   5.980   6.235   7.894 -0.2869 -0.1337  0.2590
 2386TIP3    H131353   5.959   6.202   7.806 -0.2330 -0.8031  0.4987
 2386TIP3    H231354   5.909   6.204   7.949  0.2913 -0.7251  0.6871
 2387TIP3   OH231355   1.225   6.823   8.339 -0.3916  0.1549 -0.2606
 2387TIP3    H131356   1.142   6.824   8.292 -0.6286 -1.6152  0.0424
 2387TIP3    H231357   1.199   6.816   8.431  0.0965  1.7709  0.0398
 2388TIP3   OH231358   5.721   5.888   8.304  0.2379  0.2401  0.3597
 2388TIP3    H131359   5.771   5.897   8.385 -0.7557  2.2660  0.8010
 2388TIP3    H231360   5.669   5.808   8.317 -0.5409  0.9865  2.1140
 2389TIP3   OH231361   4.600   0.184   6.806 -0.2324 -0.0709  0.8297
 2389TIP3    H131362   4.672   0.121   6.795 -2.4416 -2.7238  0.5207
 2389TIP3    H231363   4.643   0.270   6.803  2.6215 -1.3807 -1.9822
 2390TIP3   OH231364   2.671   7.599   9.314  0.0377  0.4919  0.1916
 2390TIP3    H131365   2.615   7.522   9.308  0.2085  0.3735  0.1110
 2390TIP3    H231366   2.622   7.668   9.269 -0.1413  0.4472  0.3146
 2391TIP3   OH231367   2.030   3.780   7.069  0.0419 -0.3172 -0.1172
 2391TIP3    H131368   2.104   3.813   7.119  1.3402 -1.4350 -1.2409
 2391TIP3    H231369   2.023   3.688   7.096  1.0112 -1.0541 -2.1963
 2392TIP3   OH231370   4.997   3.561   7.939  0.1740  0.0046 -0.1769
 2392TIP3    H131371   4.912   3.594   7.967  0.5123  0.9053 -0.1547
 2392TIP3    H231372   5.018   3.612   7.861  0.0729 -1.1926 -1.0180
 2393TIP3   OH231373   4.089   6.083   9.271 -0.2894 -0.2412 -0.1822
 2393TIP3    H131374   4.144   6.056   9.345 -0.4838  0.1404  0.1055
 2393TIP3    H231375   4.124   6.034   9.196  0.3633 -0.1003  0.0207
 2394TIP3   OH231376   6.196   7.306   9.159 -0.5244  0.0071  0.4330
 2394TIP3    H131377   6.181   7.246   9.232  0.3680 -0.8466 -0.0458
 2394TIP3    H231378   6.117   7.360   9.155 -1.1339 -0.7915  1.2115
 2395TIP3   OH231379   0.300   2.263   7.978  0.3300  0.2438  0.0542
 2395TIP3    H131380   0.366   2.330   7.999  0.4338  0.3921 -0.6897
 2395TIP3    H231381   0.219   2.312   7.968  0.1287  0.0773  0.8387
 2396TIP3   OH231382   4.619   3.421   7.931  0.5492 -0.4965 -0.0560
 2396TIP3    H131383   4.661   3.419   7.845  0.6714 -1.8625  0.0135
 2396TIP3    H231384   4.554   3.351   7.927 -1.7251  1.5013 -0.1269
 2397TIP3   OH231385   3.010   3.182   7.746  0.1135  0.2162  0.1422
 2397TIP3    H131386   3.027   3.164   7.838  1.3418  1.0295  0.0992
 2397TIP3    H231387   2.997   3.277   7.741  0.7494  0.2794 -0.6008
 2398TIP3   OH231388   5.643   7.391   7.972 -0.7880 -0.3545 -0.2958
 2398TIP3    H131389   5.611   7.334   8.042 -0.3326  0.9358  0.9911
 2398TIP3    H231390   5.723   7.348   7.941  0.6523  0.4534  1.9819
 2399TIP3   OH231391   3.648   6.453   7.834  0.1484  0.0931 -0.1046
 2399TIP3    H131392   3.684   6.367   7.814  0.9276 -0.0237  1.6578
 2399TIP3    H231393   3.724   6.508   7.853 -0.4522  0.1827  2.4003
 2400TIP3   OH231394   3.567   4.030   8.332 -0.1916 -0.6238  0.3127
 2400TIP3    H131395   3.658   4.006   8.311 -0.1350  0.6940 -1.0854
 2400TIP3    H231396   3.514   3.962   8.289  0.1052 -0.7660  0.1679
 2401TIP3   OH231397   3.023   6.126   7.938 -0.2462 -0.6805  0.1288
 2401TIP3    H131398   3.027   6.175   7.855  0.3517 -0.6581  0.1683
 2401TIP3    H231399   3.044   6.191   8.004  3.3242 -1.5022 -0.0147
 2402TIP3   OH231400   5.574   6.313   9.463 -0.0296  0.0086  0.5605
 2402TIP3    H131401   5.549   6.365   9.540  1.2825  2.9892 -0.8337
 2402TIP3    H231402   5.493   6.304   9.413  0.0538  3.0129 -0.3209
 2403TIP3   OH231403   6.945   7.237   7.749 -0.5876  0.1925  0.5979
 2403TIP3    H131404   6.905   7.153   7.772  0.5167 -1.2376 -2.1917
 2403TIP3    H231405   6.898   7.265   7.670 -0.9433  2.2788  1.4777
 2404TIP3   OH231406   4.942   7.471   8.474  0.2928 -0.2798  0.5024
 2404TIP3    H131407   4.987   7.387   8.483  1.5081  0.2908  0.0796
 2404TIP3    H231408   4.921   7.478   8.381  0.1518 -0.1466  0.5444
 2405TIP3   OH231409   0.955   3.588   7.514  0.1510 -0.3498 -0.1419
 2405TIP3    H131410   0.907   3.515   7.552  0.2830 -1.2690 -1.6819
 2405TIP3    H231411   0.931   3.588   7.422  0.3040  1.4407 -0.2327
 2406TIP3   OH231412   1.252   4.563   7.351 -0.1515  0.0192 -0.4960
 2406TIP3    H131413   1.332   4.592   7.309  0.0762  1.4464  0.8263
 2406TIP3    H231414   1.243   4.472   7.326  2.7142 -0.6470  0.4992
 2407TIP3   OH231415   0.258   3.311   8.889  0.1218  0.2299 -0.8095
 2407TIP3    H131416   0.352   3.292   8.886 -0.0329 -1.6157  1.9126
 2407TIP3    H231417   0.249   3.376   8.958 -0.6463 -0.0230 -0.6633
 2408TIP3   OH231418   6.869   0.086   8.267  0.2417  0.2463 -0.6799
 2408TIP3    H131419   6.851   0.140   8.345 -1.7031 -0.4246 -0.6072
 2408TIP3    H231420   6.841   0.141   8.194 -2.9010 -0.9985 -0.5369
 2409TIP3   OH231421   4.187   3.811   8.135  0.2265  0.2636  0.0078
 2409TIP3    H131422   4.209   3.757   8.059 -1.1027 -0.1981 -0.0713
 2409TIP3    H231423   4.096   3.839   8.119 -0.0656  0.1888  1.4057
 2410TIP3   OH231424   7.221   5.941   7.745 -0.4347 -0.5473 -0.5728
 2410TIP3    H131425   7.206   5.945   7.839 -2.3479  0.2917 -0.8815
 2410TIP3    H231426   7.189   5.854   7.720 -0.9724 -0.3429 -0.6064
 2411TIP3   OH231427   3.069   7.679   7.376  0.4525 -0.3548 -0.6328
 2411TIP3    H131428   3.004   7.657   7.309  2.3752 -0.8004 -2.4534
 2411TIP3    H231429   3.090   7.771   7.359  0.0197 -0.0879  0.2285
 2412TIP3   OH231430   6.324   0.802   9.493 -0.4836  0.3007  0.1674
 2412TIP3    H131431   6.320   0.706   9.493  0.1876  0.2474  1.4889
 2412TIP3    H231432   6.410   0.822   9.529 -0.9428  1.4081  0.7025
 2413TIP3   OH231433   0.683   6.656   7.938 -0.5035  0.2307 -0.0063
 2413TIP3    H131434   0.592   6.625   7.938 -0.1541 -0.8241  0.6917
 2413TIP3    H231435   0.687   6.716   7.863 -2.1935  1.5780  0.9000
 2414TIP3   OH231436   7.279   2.594   9.029  0.0622 -0.3344 -0.1085
 2414TIP3    H131437   7.205   2.638   8.988 -0.1929  0.2362  0.9119
 2414TIP3    H231438   7.247   2.508   9.053 -0.8573  0.4785  1.8452
 2415TIP3   OH231439   5.984   2.668   8.702  0.0466 -0.1609  0.1308
 2415TIP3    H131440   6.061   2.699   8.654  1.6113 -0.2423  2.3837
 2415TIP3    H231441   6.005   2.687   8.794 -1.9785 -1.5946  0.9575
 2416TIP3   OH231442   4.591   4.954   9.215  0.0297 -0.2287 -0.1170
 2416TIP3    H131443   4.511   4.914   9.247 -0.1570 -0.3709 -0.7549
 2416TIP3    H231444   4.659   4.923   9.274 -0.1235 -1.4205 -0.5466
 2417TIP3   OH231445   1.259   6.467   9.607  0.4398 -0.1568 -0.4535
 2417TIP3    H131446   1.313   6.537   9.643  0.0013  0.2434 -0.5632
 2417TIP3    H231447   1.189   6.454   9.671  0.7361 -0.7687 -0.2459
 2418TIP3   OH231448   3.535   4.288   8.244  0.0978 -0.0798 -0.4948
 2418TIP3    H131449   3.606   4.331   8.292 -0.1722  0.6478 -0.7296
 2418TIP3    H231450   3.546   4.195   8.264  0.1178  0.1799  0.8101
 2419TIP3   OH231451   2.769   6.881   7.857  0.0336 -1.0424 -0.5314
 2419TIP3    H131452   2.769   6.827   7.936  0.8116 -1.8880 -1.0814
 2419TIP3    H231453   2.839   6.944   7.871 -1.1405  0.1468  0.2872
 2420TIP3   OH231454   3.089   3.060   8.016 -0.2649 -0.4781  0.5717
 2420TIP3    H131455   3.041   2.983   7.984  1.6467 -0.6055 -2.3432
 2420TIP3    H231456   3.176   3.026   8.036  0.2022  0.6847  0.5430
 2421TIP3   OH231457   3.495   3.391   6.922  0.0638 -0.0809 -0.6453
 2421TIP3    H131458   3.527   3.451   6.856 -0.0135 -0.0632 -0.6667
 2421TIP3    H231459   3.417   3.351   6.883 -0.2377  0.2549 -0.3948
 2422TIP3   OH231460   2.186   2.930   7.204  0.2028  0.5974 -0.1733
 2422TIP3    H131461   2.132   2.853   7.224 -2.7862  2.3449 -0.9191
 2422TIP3    H231462   2.246   2.899   7.136 -0.0518 -1.3614  0.4124
 2423TIP3   OH231463   3.293   7.411   6.937 -0.1889 -0.2278  0.1220
 2423TIP3    H131464   3.256   7.356   7.006 -0.9448  1.4901  1.1261
 2423TIP3    H231465   3.260   7.373   6.856  0.1892 -1.8865  0.7012
 2424TIP3   OH231466   2.845   5.759   9.081 -0.0557  0.0990  0.2056
 2424TIP3    H131467   2.793   5.837   9.102 -0.8325 -0.9560  2.6741
 2424TIP3    H231468   2.934   5.782   9.107  0.0803  0.7674 -0.8209
 2425TIP3   OH231469   6.138   3.991   8.601  0.5181  0.3216  0.4183
 2425TIP3    H131470   6.205   3.932   8.565  0.5354  0.3776  0.3585
 2425TIP3    H231471   6.107   3.946   8.680 -1.8964 -1.5213 -1.3823
 2426TIP3   OH231472   1.767   2.393   7.913 -0.2685  0.1405  0.1150
 2426TIP3    H131473   1.705   2.357   7.976  0.1578 -0.2003  0.3411
 2426TIP3    H231474   1.765   2.331   7.840 -1.5560  1.0718 -0.7082
 2427TIP3   OH231475   1.429   2.143   9.695 -0.0114 -0.0169 -0.2350
 2427TIP3    H131476   1.404   2.234   9.707  0.4001 -0.1090  1.5182
 2427TIP3    H231477   1.495   2.146   9.625  0.1016  1.0345 -0.0978
 2428TIP3   OH231478   4.292   1.796   9.066 -0.8963  0.6987 -0.2935
 2428TIP3    H131479   4.277   1.844   9.147  0.0031  0.6021 -0.0534
 2428TIP3    H231480   4.214   1.743   9.054 -0.3108 -0.6435  1.4750
 2429TIP3   OH231481   5.104   1.744   9.454 -0.1048 -0.2029 -0.2849
 2429TIP3    H131482   5.030   1.686   9.469 -0.3934 -0.2965 -1.8687
 2429TIP3    H231483   5.180   1.695   9.486 -0.5195 -0.8488 -0.2824
 2430TIP3   OH231484   2.943   4.799   8.935 -0.1247  0.3427 -0.4995
 2430TIP3    H131485   3.023   4.781   8.984  0.3320  0.1137 -1.2985
 2430TIP3    H231486   2.873   4.765   8.990  0.0443  2.8481  1.4172
 2431TIP3   OH231487   2.890   2.405   7.264 -0.5668  0.3455  0.7898
 2431TIP3    H131488   2.947   2.329   7.274  0.7381  1.4433  2.0509
 2431TIP3    H231489   2.804   2.368   7.245  0.7128 -1.3566 -2.4818
 2432TIP3   OH231490   5.156   5.581   7.130  0.3333 -0.2102 -0.1888
 2432TIP3    H131491   5.230   5.621   7.084  1.0180  0.0582  1.0795
 2432TIP3    H231492   5.089   5.650   7.133  0.0705 -0.4078 -1.2233
 2433TIP3   OH231493   0.774   4.651   7.907  0.1822 -0.5924 -0.7969
 2433TIP3    H131494   0.856   4.655   7.857  0.3999  0.0763 -0.3980
 2433TIP3    H231495   0.705   4.661   7.842  0.4489 -0.1683 -1.0167
 2434TIP3   OH231496   7.078   2.186   7.177  0.3015  0.0279 -0.2117
 2434TIP3    H131497   7.088   2.253   7.110 -0.2758  1.0988  0.7472
 2434TIP3    H231498   7.022   2.119   7.136 -0.3485  0.8388 -0.6633
 2435TIP3   OH231499   3.319   3.119   8.589 -0.4127  0.0240  0.0047
 2435TIP3    H131500   3.352   3.096   8.676  0.3442 -0.2331 -0.3343
 2435TIP3    H231501   3.330   3.039   8.537 -0.9302  0.1491 -0.3113
 2436TIP3   OH231502   1.773   4.621   8.061 -0.1761 -0.4913  0.1793
 2436TIP3    H131503   1.691   4.656   8.026 -1.0684 -1.4938  1.2277
 2436TIP3    H231504   1.768   4.635   8.155  1.0882 -0.1374  0.2213
 2437TIP3   OH231505   5.750   4.521   7.487 -0.3813  0.3277  0.0834
 2437TIP3    H131506   5.789   4.580   7.423 -0.2305  0.2439  0.0958
 2437TIP3    H231507   5.816   4.452   7.499  0.7018  1.6321  2.1962
 2438TIP3   OH231508   2.816   3.522   9.146  0.3499 -0.5242  0.9528
 2438TIP3    H131509   2.723   3.534   9.165  0.5092 -0.2378  1.5715
 2438TIP3    H231510   2.844   3.605   9.109  0.1995 -0.8518  0.0867
 2439TIP3   OH231511   4.704   2.181   8.934  0.5461  0.0466 -0.1214
 2439TIP3    H131512   4.718   2.153   9.024 -1.5116  0.6141  0.4117
 2439TIP3    H231513   4.707   2.277   8.937 -1.0274  0.1337 -0.3381
 2440TIP3   OH231514   6.451   1.219   7.560  0.1180 -0.0248 -0.3307
 2440TIP3    H131515   6.536   1.200   7.520  0.8513 -0.7319  1.4561
 2440TIP3    H231516   6.453   1.314   7.577 -0.0800  0.2290 -1.6100
 2441TIP3   OH231517   4.234   1.635   7.299  0.8446 -0.1330  0.0625
 2441TIP3    H131518   4.302   1.600   7.241  2.0029  1.2176  0.5579
 2441TIP3    H231519   4.153   1.627   7.249  1.7412  0.5443 -1.5553
 2442TIP3   OH231520   2.526   0.119   9.173  0.0320  0.7956 -0.1863
 2442TIP3    H131521   2.579   0.191   9.138  0.1316  1.0214  0.4077
 2442TIP3    H231522   2.449   0.161   9.212  1.1028  0.8359  2.0927
 2443TIP3   OH231523   5.995   2.529   7.971  0.3582 -0.1686  0.3004
 2443TIP3    H131524   6.017   2.509   7.880  0.9946 -1.4401  0.6993
 2443TIP3    H231525   5.932   2.461   7.996 -2.6183  2.2042 -0.1862
 2444TIP3   OH231526   1.016   0.897   7.782  0.2573 -0.3120  0.2915
 2444TIP3    H131527   1.049   0.985   7.799 -0.5687 -0.1850  1.3261
 2444TIP3    H231528   0.987   0.900   7.691 -0.5009  0.7354  0.5499
 2445TIP3   OH231529   0.657   5.844   6.603 -0.2534 -0.5415 -0.0497
 2445TIP3    H131530   0.708   5.908   6.552 -0.2512  0.3937  1.0946
 2445TIP3    H231531   0.723   5.785   6.639 -0.3155 -1.8017 -1.8472
 2446TIP3   OH231532   7.155   2.239   8.622  0.5238  0.1159 -0.2113
 2446TIP3    H131533   7.158   2.222   8.528 -0.4924 -0.6605 -0.1209
 2446TIP3    H231534   7.160   2.152   8.662 -1.0940  0.2617  0.3807
 2447TIP3   OH231535   6.036   3.577   8.933  0.6207 -0.1961  0.9581
 2447TIP3    H131536   5.992   3.502   8.894  0.9179 -0.3616  0.9331
 2447TIP3    H231537   6.128   3.549   8.940  0.9603  0.5758 -0.1267
 2448TIP3   OH231538   4.293   4.005   7.812 -0.0337  0.1644 -1.0370
 2448TIP3    H131539   4.249   3.949   7.747 -1.0812  0.6235 -0.7376
 2448TIP3    H231540   4.241   4.085   7.814  1.1577  0.9744 -1.0894
 2449TIP3   OH231541   4.351   5.154   6.942  0.6463 -0.6686 -0.4487
 2449TIP3    H131542   4.289   5.226   6.955  0.2510 -0.9057 -0.9963
 2449TIP3    H231543   4.413   5.187   6.877  1.1975 -0.3729  0.2157
 2450TIP3   OH231544   2.996   3.567   7.039 -0.1342  0.2441 -0.3394
 2450TIP3    H131545   2.955   3.523   6.965 -0.0180  0.9176 -0.8121
 2450TIP3    H231546   2.926   3.571   7.105 -0.0577 -0.8860 -0.1786
 2451TIP3   OH231547   5.367   1.453   8.195  0.0742  0.2343  0.1894
 2451TIP3    H131548   5.307   1.406   8.252 -1.7816 -0.2199 -1.9979
 2451TIP3    H231549   5.310   1.494   8.129  2.0248  1.4615 -0.8191
 2452TIP3   OH231550   2.455   5.514   7.402 -0.1074 -0.4971  0.2142
 2452TIP3    H131551   2.406   5.578   7.350  0.4507  0.4802  0.8595
 2452TIP3    H231552   2.407   5.432   7.389 -0.7866  0.0137 -0.7121
 2453TIP3   OH231553   0.579   0.608   8.511 -0.1343 -0.3396  0.4694
 2453TIP3    H131554   0.514   0.576   8.574 -1.3713 -0.5212 -0.8597
 2453TIP3    H231555   0.549   0.696   8.488  0.6470 -0.0369  0.5649
 2454TIP3   OH231556   6.791   7.185   9.545  0.3766 -0.0296 -0.2826
 2454TIP3    H131557   6.774   7.229   9.462 -0.9962  3.0952  1.4753
 2454TIP3    H231558   6.704   7.161   9.577  0.7943 -0.3084  0.6819
 2455TIP3   OH231559   7.670   6.387   9.463 -0.0077 -0.3493 -0.2808
 2455TIP3    H131560   7.724   6.387   9.543  0.2452 -1.1337 -0.4424
 2455TIP3    H231561   7.733   6.398   9.392 -0.1458 -0.4901 -0.4242
 2456TIP3   OH231562   1.661   5.263   7.753  0.0550  0.1931  0.4759
 2456TIP3    H131563   1.571   5.295   7.758 -0.1912 -0.5309  0.9584
 2456TIP3    H231564   1.657   5.175   7.790  1.3934  1.0261  2.8801
 2457TIP3   OH231565   6.047   4.992   7.589  0.3687  0.5368  0.5617
 2457TIP3    H131566   6.115   5.013   7.525  0.1024  1.8582  0.6897
 2457TIP3    H231567   6.046   5.066   7.649  0.1080 -0.3349  1.6872
 2458TIP3   OH231568   7.263   6.539   9.306  0.1207 -0.7269 -0.1639
 2458TIP3    H131569   7.196   6.471   9.296  0.7081 -1.5863  1.3740
 2458TIP3    H231570   7.214   6.618   9.329 -0.5983 -0.5012 -2.2834
 2459TIP3   OH231571   0.130   1.884   8.543 -0.4505  0.4563 -0.1675
 2459TIP3    H131572   0.219   1.884   8.507 -0.2659  0.5713  0.2862
 2459TIP3    H231573   0.139   1.927   8.628 -1.1054  1.3828 -0.5431
 2460TIP3   OH231574   7.540   2.984   6.816 -0.0850  0.1912  0.1145
 2460TIP3    H131575   7.527   2.901   6.862 -0.4518  1.2763  2.0839
 2460TIP3    H231576   7.466   2.991   6.756  0.8228 -1.6315 -1.2945
 2461TIP3   OH231577   3.946   6.784   7.544 -0.2630  0.1125  0.3552
 2461TIP3    H131578   3.952   6.770   7.639 -0.4534 -1.7313  0.1316
 2461TIP3    H231579   4.034   6.765   7.512 -0.3420  0.1881  0.0940
 2462TIP3   OH231580   3.237   6.201   9.350  0.0051 -0.1931 -0.5061
 2462TIP3    H131581   3.197   6.282   9.382  0.1348  0.0368 -0.9244
 2462TIP3    H231582   3.267   6.221   9.262  2.0028 -0.0284  0.1525
 2463TIP3   OH231583   4.180   6.534   9.153 -0.4217  0.6654 -0.5971
 2463TIP3    H131584   4.135   6.494   9.227 -0.9547  2.1503 -0.0758
 2463TIP3    H231585   4.116   6.530   9.081  0.1913 -1.0147 -1.0940
 2464TIP3   OH231586   2.438   3.570   6.728  0.3030  0.3115  0.3187
 2464TIP3    H131587   2.366   3.524   6.772  1.1185  0.6219  2.0872
 2464TIP3    H231588   2.395   3.638   6.677 -0.7659 -0.8167 -0.3665
 2465TIP3   OH231589   3.115   4.418   7.664 -0.1979  0.1235  0.6513
 2465TIP3    H131590   3.189   4.358   7.658  0.4642  0.9610  0.0927
 2465TIP3    H231591   3.111   4.444   7.756 -1.6973 -2.2112  1.3207
 2466TIP3   OH231592   6.004   4.452   9.266 -0.4862  0.6899 -0.0355
 2466TIP3    H131593   6.026   4.442   9.174  1.1791 -0.0355  0.4181
 2466TIP3    H231594   5.928   4.395   9.279 -0.2939  0.2518 -0.8034
 2467TIP3   OH231595   5.894   2.551   7.390 -0.0102 -0.8775 -0.1055
 2467TIP3    H131596   5.847   2.592   7.319  0.8143 -2.0766 -1.4077
 2467TIP3    H231597   5.904   2.619   7.456 -0.3489  0.4207 -1.3588
 2468TIP3   OH231598   0.087   3.993   7.428  0.2841  0.5922 -0.0634
 2468TIP3    H131599   0.145   4.038   7.366  0.2357 -0.3120 -0.7783
 2468TIP3    H231600   0.114   3.901   7.424 -1.0241  0.1949 -0.2138
 2469TIP3   OH231601   0.089   2.057   7.924  0.4422  0.0705  0.0442
 2469TIP3    H131602   0.070   1.979   7.976  0.7730  0.9146  1.4911
 2469TIP3    H231603   0.159   2.102   7.972  0.3883  1.1597 -0.8466
 2470TIP3   OH231604   3.293   6.939   8.853  1.0082 -0.1586 -0.2100
 2470TIP3    H131605   3.324   6.875   8.789 -0.7036 -1.1805 -0.0722
 2470TIP3    H231606   3.209   6.904   8.883  1.4988  0.5720  2.1902
 2471TIP3   OH231607   4.776   6.901   7.731 -0.1195 -0.1782  0.2858
 2471TIP3    H131608   4.780   6.814   7.773  0.5080 -0.2896  0.0077
 2471TIP3    H231609   4.833   6.893   7.655 -0.4397  0.3386 -0.0103
 2472TIP3   OH231610   5.377   4.499   6.745  0.0583  0.1554  0.0047
 2472TIP3    H131611   5.395   4.533   6.833 -3.9145 -0.0300  1.0763
 2472TIP3    H231612   5.350   4.409   6.760  1.9653 -0.8106 -1.8391
 2473TIP3   OH231613   5.637   4.257   8.393 -0.7344  0.5319  0.4118
 2473TIP3    H131614   5.653   4.345   8.425 -0.1359  0.9465 -0.9684
 2473TIP3    H231615   5.564   4.224   8.447  0.2204  1.1737  2.1563
 2474TIP3   OH231616   7.654   5.785   8.323 -0.2148 -0.1152 -0.3842
 2474TIP3    H131617   7.729   5.791   8.382  1.1799 -0.0697 -2.0872
 2474TIP3    H231618   7.658   5.696   8.288 -0.4952  0.1268 -1.0509
 2475TIP3   OH231619   1.531   4.032   7.886 -0.1204 -0.4494  0.5352
 2475TIP3    H131620   1.602   4.096   7.885  0.0457 -0.6316  0.6153
 2475TIP3    H231621   1.575   3.947   7.883 -0.3996 -0.5549 -1.5824
 2476TIP3   OH231622   2.854   2.618   7.009  0.1743 -0.1106  0.0859
 2476TIP3    H131623   2.798   2.562   7.063  0.7016 -1.3751 -0.6372
 2476TIP3    H231624   2.934   2.628   7.060 -0.1997  0.6214  0.5451
 2477TIP3   OH231625   6.127   5.251   9.408 -0.2670  0.0045  0.1162
 2477TIP3    H131626   6.101   5.201   9.331 -1.4997  0.5814  0.1370
 2477TIP3    H231627   6.160   5.186   9.469 -1.4915 -0.7542  0.0095
 2478TIP3   OH231628   0.567   1.422   7.473  0.4494 -0.4894  0.0021
 2478TIP3    H131629   0.546   1.472   7.394 -1.1401  2.5599  2.1226
 2478TIP3    H231630   0.492   1.364   7.485  0.3964 -0.5052 -0.3772
 2479TIP3   OH231631   3.297   7.320   9.494 -0.5651  0.0769  0.4418
 2479TIP3    H131632   3.220   7.371   9.471 -0.8799  0.1962  1.6779
 2479TIP3    H231633   3.275   7.231   9.467 -1.6764 -0.1310  1.8720
 2480TIP3   OH231634   3.820   1.633   7.893  0.4106 -0.5721 -0.3493
 2480TIP3    H131635   3.891   1.615   7.954  2.1195  0.7149 -1.8597
 2480TIP3    H231636   3.863   1.664   7.814 -1.8603  1.6819 -0.8376
 2481TIP3   OH231637   3.545   2.428   8.161  0.0799 -0.5015  0.4682
 2481TIP3    H131638   3.457   2.389   8.159  0.7273 -1.9858 -0.3554
 2481TIP3    H231639   3.604   2.353   8.159  1.3769  0.5253 -1.1857
 2482TIP3   OH231640   5.318   6.441   7.980  0.0150  0.1959  0.3480
 2482TIP3    H131641   5.327   6.431   8.075 -1.4540  1.5991  0.6592
 2482TIP3    H231642   5.406   6.421   7.946  0.1673 -2.0093  1.8118
 2483TIP3   OH231643   2.909   4.512   8.779 -0.3291 -0.4555 -0.5058
 2483TIP3    H131644   2.912   4.480   8.870 -1.5016 -0.4724 -0.4548
 2483TIP3    H231645   2.862   4.443   8.732 -1.8188  0.6183 -0.6404
 2484TIP3   OH231646   6.694   6.003   6.466 -0.0700  0.1126  0.0153
 2484TIP3    H131647   6.760   5.983   6.400 -0.0564  1.5356 -0.4417
 2484TIP3    H231648   6.745   6.030   6.543 -0.1078 -0.0946  0.1142
 2485TIP3   OH231649   6.052   7.653   9.068  0.3068 -0.2140  0.0158
 2485TIP3    H131650   6.075   7.662   8.976 -0.0292  2.8230  0.1445
 2485TIP3    H231651   5.973   7.597   9.067  0.2364 -0.1377 -1.5309
 2486TIP3   OH231652   6.222   2.127   6.996 -0.5709  0.2193 -0.0939
 2486TIP3    H131653   6.269   2.056   7.040 -1.2745  0.0071  0.3430
 2486TIP3    H231654   6.145   2.084   6.957 -1.1303  0.7734  0.3775
 2487TIP3   OH231655   3.865   5.951   8.969  0.9837 -0.3531  0.1845
 2487TIP3    H131656   3.809   5.995   8.905  2.0766  2.8239  1.2160
 2487TIP3    H231657   3.819   5.962   9.052  1.6129 -0.6441  0.5742
 2488TIP3   OH231658   6.131   4.666   8.692 -0.4225  0.8794 -0.0575
 2488TIP3    H131659   6.073   4.742   8.688 -1.0408  0.4710  0.8155
 2488TIP3    H231660   6.137   4.644   8.785  2.1339  1.6191  0.0223
 2489TIP3   OH231661   3.175   5.457   8.948 -0.1581 -0.2781  0.5670
 2489TIP3    H131662   3.235   5.530   8.935 -0.5910 -0.0640 -0.3057
 2489TIP3    H231663   3.199   5.394   8.880  1.0017 -1.5170  2.0293
 2490TIP3   OH231664   3.822   1.713   8.519 -0.0856 -0.1403  0.4687
 2490TIP3    H131665   3.798   1.785   8.577 -2.6395  0.0706 -0.7066
 2490TIP3    H231666   3.839   1.756   8.435  1.8016 -0.6150  0.5741
 2491TIP3   OH231667   3.728   6.422   8.491 -0.5645  0.4221  0.6004
 2491TIP3    H131668   3.805   6.459   8.535  0.4302  0.6110 -1.2064
 2491TIP3    H231669   3.721   6.333   8.526 -0.2051  0.7727  1.5965
 2492TIP3   OH231670   2.399   3.577   9.053  0.2123 -0.0117  0.3616
 2492TIP3    H131671   2.429   3.487   9.064 -1.0430 -0.5752 -0.6297
 2492TIP3    H231672   2.392   3.589   8.959 -1.5663  0.4451  0.5186
 2493TIP3   OH231673   5.776   3.125   9.158  0.7348  0.1713  0.3769
 2493TIP3    H131674   5.682   3.116   9.174  0.5748 -0.9228 -0.9742
 2493TIP3    H231675   5.807   3.035   9.145  1.7344  0.6068 -0.3766
 2494TIP3   OH231676   4.327   4.505   7.725  0.0634 -0.5077  0.1482
 2494TIP3    H131677   4.240   4.532   7.696  0.9329  1.3079 -1.0219
 2494TIP3    H231678   4.343   4.557   7.804  0.9145  0.9910 -0.9302
 2495TIP3   OH231679   1.082   0.712   9.131 -0.0614  0.2899  0.9476
 2495TIP3    H131680   1.171   0.677   9.119  0.3408  1.4093  0.5488
 2495TIP3    H231681   1.095   0.806   9.142 -1.2553  0.5580  0.2120
 2496TIP3   OH231682   6.573   6.608   8.227 -0.1965  0.3613  0.2421
 2496TIP3    H131683   6.615   6.685   8.265  0.4873  0.5179 -0.7926
 2496TIP3    H231684   6.502   6.643   8.174  0.2936  0.3118 -0.4602
 2497TIP3   OH231685   4.309   2.711   8.968 -0.5222  0.7818  0.2672
 2497TIP3    H131686   4.278   2.799   8.989 -3.6638 -0.1817  0.1660
 2497TIP3    H231687   4.300   2.704   8.873  2.0333  1.0657 -0.0669
 2498TIP3   OH231688   3.468   4.048   8.608 -0.0075  0.2026  0.9426
 2498TIP3    H131689   3.496   4.091   8.527 -0.2588  1.4514  1.4960
 2498TIP3    H231690   3.536   3.982   8.624 -1.2342 -1.8068 -1.5644
 2499TIP3   OH231691   5.723   7.583   7.634 -0.8069 -0.1884 -0.1122
 2499TIP3    H131692   5.768   7.651   7.584 -1.9808  0.4258 -0.3770
 2499TIP3    H231693   5.793   7.539   7.683  0.1569  0.2440 -1.0564
 2500TIP3   OH231694   7.459   1.343   8.260  0.3737  0.0656  0.1930
 2500TIP3    H131695   7.454   1.286   8.336 -0.6497 -0.0804  0.0279
 2500TIP3    H231696   7.417   1.424   8.288  0.9792  0.4075  0.1272
 2501TIP3   OH231697   4.906   1.475   7.954  0.3249 -0.3664  0.4437
 2501TIP3    H131698   4.952   1.534   8.013 -2.1955  1.7494  0.4752
 2501TIP3    H231699   4.972   1.410   7.929  2.9153  1.6785  1.4532
 2502TIP3   OH231700   7.292   0.253   9.038 -0.4480 -0.2175  0.1997
 2502TIP3    H131701   7.289   0.333   9.090  0.2345 -0.7357  1.0633
 2502TIP3    H231702   7.335   0.280   8.956 -1.4113  0.5708 -0.0639
 2503TIP3   OH231703   4.528   3.426   8.328  0.1874 -0.1405 -0.7820
 2503TIP3    H131704   4.608   3.418   8.276 -0.0411  0.8676 -1.3033
 2503TIP3    H231705   4.458   3.436   8.263 -0.3859 -1.0491 -0.3354
 2504TIP3   OH231706   3.319   5.664   8.814  0.2921  1.0321  0.1906
 2504TIP3    H131707   3.274   5.697   8.737 -1.5682 -0.2763  0.6357
 2504TIP3    H231708   3.322   5.738   8.874 -4.1249  0.5632  1.3256
 2505TIP3   OH231709   1.681   5.456   6.789 -0.3649 -0.1739 -0.5513
 2505TIP3    H131710   1.646   5.371   6.764 -0.6843 -0.5561  1.1142
 2505TIP3    H231711   1.647   5.516   6.723 -2.6448 -0.8322 -0.0558
 2506TIP3   OH231712   7.449   4.423   7.853 -0.6203 -0.6352 -0.1531
 2506TIP3    H131713   7.481   4.462   7.934 -0.7014  0.7466 -0.7586
 2506TIP3    H231714   7.494   4.338   7.847  1.1704  0.2501  0.1691
 2507TIP3   OH231715   6.439   0.979   8.505 -0.4027  0.1180 -0.3357
 2507TIP3    H131716   6.458   1.046   8.439 -0.2498  1.8542  1.3584
 2507TIP3    H231717   6.491   0.903   8.478 -1.7546  0.0832 -3.1648
 2508TIP3   OH231718   4.321   2.173   9.081  0.1706  0.3068  0.0389
 2508TIP3    H131719   4.315   2.262   9.117  1.6057  0.0112  1.1033
 2508TIP3    H231720   4.230   2.146   9.069 -0.3010  1.6168  0.4592
 2509TIP3   OH231721   6.857   7.086   8.537 -0.6990  0.0541 -0.2532
 2509TIP3    H131722   6.951   7.088   8.523 -0.7386 -0.2541 -0.5977
 2509TIP3    H231723   6.837   7.167   8.582 -0.3452  0.3831 -0.6774
 2510TIP3   OH231724   2.064   2.276   6.795  0.4817  0.2046 -0.1473
 2510TIP3    H131725   2.082   2.277   6.701  1.1958  0.6246 -0.0086
 2510TIP3    H231726   2.145   2.244   6.835 -0.5434 -2.2484  0.1868
 2511TIP3   OH231727   3.091   5.747   7.110  0.2840 -0.1536 -0.0543
 2511TIP3    H131728   3.024   5.703   7.058  0.1162  0.1044 -0.0586
 2511TIP3    H231729   3.102   5.691   7.187  0.1972 -0.2940 -0.1440
 2512TIP3   OH231730   5.235   2.153   7.823  0.1389 -0.0844 -0.3692
 2512TIP3    H131731   5.214   2.108   7.905  0.8272 -0.5170 -0.4282
 2512TIP3    H231732   5.170   2.223   7.817  1.1313  1.0574  1.4232
 2513TIP3   OH231733   3.356   5.441   6.636  0.4894 -0.0275 -0.6807
 2513TIP3    H131734   3.428   5.484   6.588  2.2120 -1.9027  0.0729
 2513TIP3    H231735   3.321   5.510   6.692  3.7235  0.3706  1.1251
 2514TIP3   OH231736   0.680   0.863   9.202 -0.1877 -0.1614  1.0308
 2514TIP3    H131737   0.751   0.927   9.203  0.1078 -0.4429 -0.1878
 2514TIP3    H231738   0.724   0.779   9.190 -0.7664 -0.2288 -0.9009
 2515TIP3   OH231739   1.450   0.243   9.345  0.1319  0.4302  0.7486
 2515TIP3    H131740   1.457   0.148   9.348  0.7705  0.4468  0.0527
 2515TIP3    H231741   1.359   0.260   9.323  0.5208 -0.0901 -1.5097
 2516TIP3   OH231742   2.996   4.795   8.639  0.1918 -0.4332  0.0690
 2516TIP3    H131743   3.007   4.774   8.732  0.4739  1.5432  0.5291
 2516TIP3    H231744   3.080   4.831   8.612 -0.5436  1.0809 -0.3346
 2517TIP3   OH231745   7.573   5.074   7.267 -0.0902 -0.7511  0.1175
 2517TIP3    H131746   7.663   5.106   7.269 -0.0642 -0.7794  2.5111
 2517TIP3    H231747   7.557   5.053   7.175  0.9467  3.0542 -1.1191
 2518TIP3   OH231748   6.414   0.492   8.665 -0.5314 -0.0996 -0.3629
 2518TIP3    H131749   6.481   0.424   8.665 -1.0687 -0.6488 -1.4464
 2518TIP3    H231750   6.331   0.444   8.673 -0.8570  0.5040 -0.0267
 2519TIP3   OH231751   3.218   5.004   7.506  0.2367 -0.1212 -0.0167
 2519TIP3    H131752   3.175   5.053   7.436 -0.3730  0.7227  0.9232
 2519TIP3    H231753   3.151   4.942   7.536 -1.5200  2.9325  3.2426
 2520TIP3   OH231754   3.895   5.157   8.748 -0.6725 -0.1252 -0.2167
 2520TIP3    H131755   3.859   5.243   8.727 -0.3381  0.5019  1.5850
 2520TIP3    H231756   3.972   5.148   8.691 -2.1580 -0.4271 -2.3129
 2521TIP3   OH231757   4.220   4.906   7.270  0.2427 -0.1979  0.2620
 2521TIP3    H131758   4.132   4.943   7.271  0.5882  0.6467  1.0238
 2521TIP3    H231759   4.243   4.902   7.177  0.4876  2.3138  0.1355
 2522TIP3   OH231760   5.915   3.311   7.822 -0.0184  0.1222  0.1192
 2522TIP3    H131761   5.953   3.268   7.745 -0.2262  0.8626 -0.4138
 2522TIP3    H231762   5.830   3.270   7.833  0.3698 -0.5994  0.4933
 2523TIP3   OH231763   5.932   4.060   8.438 -0.3393 -0.7718 -0.4730
 2523TIP3    H131764   6.013   4.070   8.487 -1.6440 -0.2694  1.7409
 2523TIP3    H231765   5.891   3.982   8.475 -1.3592 -0.3899 -0.7568
 2524TIP3   OH231766   5.071   6.386   9.343 -0.2481 -0.3879  0.0020
 2524TIP3    H131767   5.000   6.416   9.400 -0.1197 -1.2563  0.6223
 2524TIP3    H231768   5.028   6.371   9.258 -0.7071 -0.4378  0.2418
 2525TIP3   OH231769   5.637   7.137   9.559 -0.2893 -0.4935  0.4340
 2525TIP3    H131770   5.560   7.093   9.593 -0.0053  0.3809  2.3204
 2525TIP3    H231771   5.611   7.228   9.550  0.0709 -0.4611 -0.4344
 2526TIP3   OH231772   6.396   7.480   8.311  0.2092 -0.0318 -0.5351
 2526TIP3    H131773   6.344   7.430   8.373 -0.2459  0.1362 -0.7779
 2526TIP3    H231774   6.456   7.415   8.273 -0.2613 -0.3649 -0.7232
 2527TIP3   OH231775   5.832   6.359   9.130 -0.0018  0.4302 -0.2712
 2527TIP3    H131776   5.774   6.283   9.138  0.2026  0.3159  0.1598
 2527TIP3    H231777   5.774   6.435   9.139  0.0535  0.3174  1.2683
 2528TIP3   OH231778   1.859   0.152   8.118 -0.3723  0.2842  0.6961
 2528TIP3    H131779   1.840   0.243   8.096  0.1717 -0.1671 -1.9610
 2528TIP3    H231780   1.937   0.155   8.173 -0.7609  1.4292  1.2086
 2529TIP3   OH231781   2.597   0.384   7.670 -0.1698  0.2310 -0.0053
 2529TIP3    H131782   2.592   0.288   7.672  1.7075  0.0821  2.0690
 2529TIP3    H231783   2.603   0.406   7.577  1.2542 -1.8519 -0.4944
 2530TIP3   OH231784   5.175   3.783   9.357 -0.4253  0.4003  0.0086
 2530TIP3    H131785   5.158   3.846   9.286  1.4788  1.0712  0.1052
 2530TIP3    H231786   5.094   3.784   9.409 -1.3247  0.9686 -1.3354
 2531TIP3   OH231787   4.793   0.904   7.502  0.2790  0.2601 -0.0028
 2531TIP3    H131788   4.735   0.925   7.428  0.8521  1.3562 -0.1498
 2531TIP3    H231789   4.877   0.943   7.479  1.0067 -1.0388  0.3660
 2532TIP3   OH231790   2.287   0.874   8.207  0.0947  0.0340  0.2849
 2532TIP3    H131791   2.318   0.949   8.157  1.7276  0.2514  1.5724
 2532TIP3    H231792   2.263   0.810   8.140 -2.2523  1.9522 -0.8849
 2533TIP3   OH231793   2.818   6.618   7.491  0.1821  0.4443  0.1062
 2533TIP3    H131794   2.844   6.585   7.405 -1.3798 -0.5490 -0.0192
 2533TIP3    H231795   2.745   6.677   7.474  2.0366  3.0347  0.4770
 2534TIP3   OH231796   2.273   4.266   7.790  0.2618 -0.4157 -0.8079
 2534TIP3    H131797   2.264   4.361   7.785  0.2616 -0.3850 -0.3125
 2534TIP3    H231798   2.198   4.238   7.844  2.1689 -0.3193  2.1205
 2535TIP3   OH231799   6.109   7.305   8.718  0.7631  0.1938 -0.0266
 2535TIP3    H131800   6.112   7.397   8.742  1.7924 -0.2251  1.6216
 2535TIP3    H231801   6.031   7.271   8.762  0.6967  0.1686 -0.1654
 2536TIP3   OH231802   7.280   1.932   7.009 -0.2935 -0.1558 -0.0314
 2536TIP3    H131803   7.184   1.938   7.009 -0.4664 -2.1498  0.0577
 2536TIP3    H231804   7.298   1.838   7.002  1.6245 -0.0841  2.5085
 2537TIP3   OH231805   0.893   2.298   8.060  0.0075 -0.8504 -0.7304
 2537TIP3    H131806   0.873   2.388   8.035 -0.3787 -0.1323  1.8373
 2537TIP3    H231807   0.971   2.275   8.010  1.0128  1.4770 -0.3572
 2538TIP3   OH231808   5.162   6.218   7.070 -0.4898 -0.5471  0.0658
 2538TIP3    H131809   5.183   6.249   6.983 -1.5935 -1.1711 -0.4432
 2538TIP3    H231810   5.228   6.259   7.127  0.2649 -0.1698 -1.0477
 2539TIP3   OH231811   0.171   6.666   8.789 -0.0713 -0.1995  0.6235
 2539TIP3    H131812   0.217   6.744   8.758 -1.2928  0.5876  0.7087
 2539TIP3    H231813   0.184   6.601   8.720 -0.2096  0.5326 -0.1103
 2540TIP3   OH231814   2.690   6.617   7.937  0.1102  0.0107  0.1647
 2540TIP3    H131815   2.623   6.571   7.988  0.5453  0.6941  1.3943
 2540TIP3    H231816   2.640   6.670   7.874 -0.4958  0.2728  0.8544
 2541TIP3   OH231817   1.270   4.879   7.831  0.5741  0.5032  0.6739
 2541TIP3    H131818   1.234   4.962   7.800 -1.7382 -0.3421  0.8990
 2541TIP3    H231819   1.262   4.821   7.756  0.0363 -0.1050  1.1914
 2542TIP3   OH231820   7.582   5.666   8.604  0.4688  0.4829  0.0720
 2542TIP3    H131821   7.505   5.722   8.592  0.3394  0.4387  0.6754
 2542TIP3    H231822   7.645   5.698   8.539 -0.1896  0.2765 -0.6992
 2543TIP3   OH231823   6.345   7.283   8.922 -0.2283 -0.4314 -0.4896
 2543TIP3    H131824   6.317   7.351   8.984  0.1097  0.6036 -1.4533
 2543TIP3    H231825   6.306   7.309   8.839  1.1533 -0.5820 -1.2043
 2544TIP3   OH231826   2.113   4.825   7.619  0.0959  0.4371 -0.4127
 2544TIP3    H131827   2.090   4.769   7.693 -0.6288 -0.4007 -1.2535
 2544TIP3    H231828   2.183   4.881   7.653 -1.1503  1.0354  1.3124
 2545TIP3   OH231829   1.900   2.995   9.000  0.1770 -0.3801  0.2866
 2545TIP3    H131830   1.843   3.010   8.924 -1.6515 -0.9352  1.4922
 2545TIP3    H231831   1.966   3.064   8.994 -1.0108  0.7258 -0.8090
 2546TIP3   OH231832   5.180   7.253   8.103  0.4445 -0.2040 -0.7604
 2546TIP3    H131833   5.208   7.231   8.191  1.3440  0.7893 -0.7802
 2546TIP3    H231834   5.087   7.230   8.101  0.5241 -0.6644  0.2863
 2547TIP3   OH231835   3.658   2.289   7.611 -0.0394 -0.4691  0.1780
 2547TIP3    H131836   3.617   2.322   7.530 -0.3474 -0.7085  0.2341
 2547TIP3    H231837   3.603   2.325   7.681 -1.9280 -3.0936  0.1860
 2548TIP3   OH231838   1.331   6.234   7.966 -0.1943  0.3801  0.4361
 2548TIP3    H131839   1.362   6.266   8.051  0.9293  0.2531  0.0865
 2548TIP3    H231840   1.380   6.153   7.952  0.1887  0.7982 -0.6825
 2549TIP3   OH231841   6.062   2.184   8.269  0.2557  0.6765 -0.0264
 2549TIP3    H131842   6.120   2.109   8.281 -1.0280 -0.2190  0.9083
 2549TIP3    H231843   6.028   2.203   8.356  0.1537  2.0213 -0.3379
 2550TIP3   OH231844   3.610   1.973   9.194 -0.1665  0.1663 -0.0688
 2550TIP3    H131845   3.588   2.040   9.130 -0.5952 -0.0153 -0.1194
 2550TIP3    H231846   3.611   1.891   9.144  4.0418  0.4773 -0.8338
 2551TIP3   OH231847   2.607   6.213   8.945 -0.1962 -0.0805  0.2144
 2551TIP3    H131848   2.676   6.279   8.948 -0.0019 -0.3058  2.4378
 2551TIP3    H231849   2.528   6.262   8.926  0.2067  0.5464  0.1072
 2552TIP3   OH231850   3.861   4.119   8.488 -0.1961  0.5369 -0.0867
 2552TIP3    H131851   3.796   4.052   8.468 -0.2635  1.0975 -1.8545
 2552TIP3    H231852   3.809   4.195   8.516 -0.1766  0.2856  0.6587
 2553TIP3   OH231853   2.684   4.438   7.632 -0.8717 -0.4438  0.3835
 2553TIP3    H131854   2.761   4.391   7.662 -1.0526 -1.2667 -0.4131
 2553TIP3    H231855   2.621   4.429   7.704 -0.3527 -0.0575  0.8933
 2554TIP3   OH231856   3.667   7.028   8.407  0.2276  0.0712  0.2191
 2554TIP3    H131857   3.739   7.047   8.468 -0.6745  1.4222  0.9214
 2554TIP3    H231858   3.603   7.098   8.423 -1.4485 -1.3127 -0.0649
 2555TIP3   OH231859   0.286   6.981   7.098 -0.6938  0.0066  0.8217
 2555TIP3    H131860   0.210   7.039   7.087 -0.4067  0.0981 -1.0743
 2555TIP3    H231861   0.253   6.907   7.149 -2.1015 -0.0049 -0.0641
 2556TIP3   OH231862   3.359   3.913   9.211 -0.0891  0.0741  0.1407
 2556TIP3    H131863   3.317   3.969   9.277  0.2859 -0.2931  0.7066
 2556TIP3    H231864   3.394   3.973   9.146 -0.1481  0.4687  0.4698
 2557TIP3   OH231865   1.445   7.340   9.139 -0.3085  0.2162  0.2402
 2557TIP3    H131866   1.505   7.404   9.176 -1.3736  0.0699  2.3494
 2557TIP3    H231867   1.358   7.376   9.156 -0.8778 -0.6348 -0.7630
 2558TIP3   OH231868   1.282   5.819   7.608 -0.0774  0.1182  0.1959
 2558TIP3    H131869   1.203   5.802   7.659 -1.1887 -0.4624 -1.5884
 2558TIP3    H231870   1.342   5.861   7.669 -1.3189 -0.4888  1.9310
 2559TIP3   OH231871   0.662   5.662   8.297  0.1538 -0.1160  0.2160
 2559TIP3    H131872   0.632   5.700   8.379 -2.7674  0.7312 -1.1206
 2559TIP3    H231873   0.726   5.726   8.263  0.5472  0.0710  1.2811
 2560TIP3   OH231874   1.119   3.451   8.939  0.1310  0.4832 -0.2993
 2560TIP3    H131875   1.201   3.427   8.984 -1.1528 -1.4838  1.1690
 2560TIP3    H231876   1.089   3.530   8.984 -0.1344 -0.3555  1.0669
 2561TIP3   OH231877   3.557   1.488   7.783  0.1701  0.1331  0.4216
 2561TIP3    H131878   3.621   1.548   7.744 -1.3546  1.5764  0.0222
 2561TIP3    H231879   3.542   1.422   7.715 -0.4188  1.0741 -0.3906
 2562TIP3   OH231880   2.196   6.608   8.178 -0.0999  0.3198 -0.6897
 2562TIP3    H131881   2.236   6.684   8.137 -1.6897  1.0147 -1.0301
 2562TIP3    H231882   2.260   6.578   8.242 -0.2781  3.2930  1.0354
 2563TIP3   OH231883   2.638   5.370   8.341 -0.2964 -0.0508  0.0144
 2563TIP3    H131884   2.672   5.439   8.398 -0.4823  1.5255 -1.6795
 2563TIP3    H231885   2.599   5.306   8.401 -0.0765  1.2729  1.6501
 2564TIP3   OH231886   3.530   1.252   8.130 -0.0746  0.2155  0.6522
 2564TIP3    H131887   3.460   1.268   8.068  0.5743 -2.1439 -0.8352
 2564TIP3    H231888   3.504   1.171   8.175  1.6416 -0.7661 -0.0026
 2565TIP3   OH231889   5.979   1.268   6.615  0.0407  0.4442 -0.5431
 2565TIP3    H131890   6.036   1.343   6.598  1.5506 -0.6894 -0.7207
 2565TIP3    H231891   6.021   1.195   6.568 -1.2009 -0.5847 -0.1168
 2566TIP3   OH231892   0.522   2.360   9.181  0.3366 -0.7499  0.3097
 2566TIP3    H131893   0.479   2.413   9.248  1.1794  2.5705 -1.5361
 2566TIP3    H231894   0.451   2.333   9.123  0.2094  1.8512 -0.8778
 2567TIP3   OH231895   3.340   1.340   7.946  0.4602 -0.5819 -0.1787
 2567TIP3    H131896   3.278   1.405   7.977 -0.9089 -1.2717 -1.3560
 2567TIP3    H231897   3.411   1.392   7.908 -0.0685  0.2266 -0.0938
 2568TIP3   OH231898   7.547   4.958   8.202  0.2499  0.3697  0.3761
 2568TIP3    H131899   7.616   5.017   8.231  0.6515 -0.7292  1.7770
 2568TIP3    H231900   7.555   4.955   8.107  2.6613 -0.3358  0.5437
 2569TIP3   OH231901   2.852   2.378   6.543  0.5637 -0.7523 -0.4460
 2569TIP3    H131902   2.781   2.441   6.528  0.2958 -1.5164 -2.7042
 2569TIP3    H231903   2.892   2.407   6.625  0.0332  1.9717 -1.0410
 2570TIP3   OH231904   5.680   6.330   7.609 -0.3052  0.1504  0.7872
 2570TIP3    H131905   5.590   6.352   7.632 -0.0465  1.4220  0.6439
 2570TIP3    H231906   5.678   6.316   7.514 -0.1286  1.3842  0.5940
 2571TIP3   OH231907   0.304   4.389   6.534  0.2639 -0.3637  0.1944
 2571TIP3    H131908   0.239   4.417   6.599  0.3552  0.2726  0.0143
 2571TIP3    H231909   0.283   4.439   6.455 -0.0068 -1.3187 -0.3618
 2572TIP3   OH231910   6.970   5.647   7.888 -0.0984  0.7691  0.1184
 2572TIP3    H131911   6.882   5.612   7.898  0.4105 -1.4112 -1.9199
 2572TIP3    H231912   6.990   5.634   7.795  1.9793  2.1967  0.2985
 2573TIP3   OH231913   6.971   7.520   8.239  0.2539 -0.3159  0.1682
 2573TIP3    H131914   6.927   7.601   8.266 -0.2673 -0.1401 -1.1430
 2573TIP3    H231915   6.946   7.508   8.148 -0.3507 -2.4115  0.5575
 2574TIP3   OH231916   0.295   6.462   7.241  0.5925 -0.6360 -0.0229
 2574TIP3    H131917   0.292   6.484   7.334 -0.0874  1.2943 -0.4677
 2574TIP3    H231918   0.388   6.446   7.224  0.7456 -0.8829  0.9438
 2575TIP3   OH231919   6.075   5.145   9.157 -0.7764  0.0861 -0.2460
 2575TIP3    H131920   6.116   5.156   9.071 -1.0015  0.7047 -0.2841
 2575TIP3    H231921   6.040   5.056   9.156  1.8230 -1.0454  0.3429
 2576TIP3   OH231922   5.291   3.205   8.071  0.3595 -0.0922  0.0188
 2576TIP3    H131923   5.328   3.157   7.997  0.4307  0.2811 -0.1946
 2576TIP3    H231924   5.271   3.292   8.035  0.5535  0.1467  0.4778
 2577TIP3   OH231925   5.989   4.289   8.220  0.0380 -0.4015  0.4872
 2577TIP3    H131926   6.081   4.287   8.194 -0.0407  1.5260 -0.0285
 2577TIP3    H231927   5.941   4.314   8.141 -0.9182 -1.0988  0.8216
 2578TIP3   OH231928   5.804   6.241   8.805  0.4672  0.1950 -0.7172
 2578TIP3    H131929   5.826   6.158   8.848 -0.4799 -0.2632 -1.1140
 2578TIP3    H231930   5.709   6.248   8.812  0.7017  2.6073  1.8010
 2579TIP3   OH231931   4.019   2.836   9.121 -0.0994  0.2944  0.1370
 2579TIP3    H131932   4.083   2.904   9.140 -0.9849  1.2430 -0.2361
 2579TIP3    H231933   3.938   2.866   9.162 -0.3874 -0.7760  0.4028
 2580TIP3   OH231934   5.495   4.527   6.510 -0.3246 -0.7733 -0.1915
 2580TIP3    H131935   5.433   4.577   6.457  0.2155  1.8249  1.4644
 2580TIP3    H231936   5.457   4.528   6.598  0.6725 -1.6477  0.2587
 2581TIP3   OH231937   7.518   6.614   9.349  0.1467 -0.7385 -0.7015
 2581TIP3    H131938   7.554   6.531   9.380  0.6259 -0.8097 -1.4393
 2581TIP3    H231939   7.423   6.602   9.352  0.2172 -1.3417 -0.8977
 2582TIP3   OH231940   5.991   4.731   8.051  0.2451 -0.4666 -0.6364
 2582TIP3    H131941   6.078   4.699   8.026  1.1935  2.3938 -1.4162
 2582TIP3    H231942   5.997   4.744   8.145 -0.0525 -2.0983 -0.3571
 2583TIP3   OH231943   3.482   7.203   7.045 -0.1922  0.1832 -0.2475
 2583TIP3    H131944   3.512   7.245   6.965 -0.7710 -0.0696 -0.5988
 2583TIP3    H231945   3.396   7.242   7.062  0.3614  0.9897  0.8168
 2584TIP3   OH231946   6.300   0.592   8.204 -0.4603  0.2376 -0.2487
 2584TIP3    H131947   6.355   0.550   8.270 -0.3059 -1.2897 -1.3059
 2584TIP3    H231948   6.341   0.570   8.120 -2.4453 -0.6545 -1.0440
 2585TIP3   OH231949   7.016   0.005   7.568 -0.0572 -0.3366 -0.2232
 2585TIP3    H131950   6.940   0.062   7.551  1.3107  1.3319 -1.0250
 2585TIP3    H231951   7.070   0.013   7.490  1.4647 -0.6348  0.7532
 2586TIP3   OH231952   5.020   5.326   9.237 -0.2663 -0.2821  0.2654
 2586TIP3    H131953   5.011   5.418   9.212 -1.0579 -0.1212  1.0857
 2586TIP3    H231954   4.939   5.306   9.282 -1.0159 -1.9992 -1.7151
 2587TIP3   OH231955   3.660   6.147   8.845  0.0348 -0.1886  0.2381
 2587TIP3    H131956   3.604   6.224   8.856 -1.2094 -0.9063 -0.8195
 2587TIP3    H231957   3.735   6.180   8.794 -1.6672 -0.1164 -2.3952
 2588TIP3   OH231958   5.063   6.095   8.704  0.6201 -0.0320  0.1319
 2588TIP3    H131959   4.985   6.065   8.657 -0.7499  0.8710  1.7357
 2588TIP3    H231960   5.105   6.156   8.643 -1.4641  1.6191  0.2283
 2589TIP3   OH231961   4.956   6.459   8.145 -0.1727  0.1061 -0.0829
 2589TIP3    H131962   4.868   6.435   8.117 -0.8168  1.4429  0.6777
 2589TIP3    H231963   4.963   6.423   8.234 -0.0962  0.3299  0.0024
 2590TIP3   OH231964   2.043   4.853   8.081 -0.6450  0.2838 -0.0513
 2590TIP3    H131965   1.962   4.862   8.131  0.3132  0.0848  1.6508
 2590TIP3    H231966   2.050   4.934   8.031  0.1553  2.3650  3.0706
 2591TIP3   OH231967   2.160   1.932   8.493  0.8455 -0.3031  0.2114
 2591TIP3    H131968   2.072   1.906   8.517  1.8009 -0.4957  4.1681
 2591TIP3    H231969   2.148   1.995   8.422 -2.5410  0.4996  1.3313
 2592TIP3   OH231970   0.507   1.973   9.107 -0.0750  0.1288 -0.3852
 2592TIP3    H131971   0.444   1.922   9.159  0.4470 -0.4417 -0.2970
 2592TIP3    H231972   0.537   2.042   9.167  0.3296 -0.3696 -0.0088
 2593TIP3   OH231973   6.716   2.848   7.384 -0.4509  0.2284 -0.1734
 2593TIP3    H131974   6.729   2.764   7.340 -2.5834 -0.8115  1.0093
 2593TIP3    H231975   6.665   2.899   7.322 -2.3749 -0.7795  0.4910
 2594TIP3   OH231976   6.592   5.876   8.640 -0.0085  0.2404  0.1770
 2594TIP3    H131977   6.530   5.862   8.568  0.6424  0.5432 -0.4643
 2594TIP3    H231978   6.670   5.826   8.614 -0.1689 -0.5967  1.2380
 2595TIP3   OH231979   5.575   5.028   9.776  0.1988  0.3255  0.1973
 2595TIP3    H131980   5.491   5.073   9.770 -0.7120 -1.3079  0.1152
 2595TIP3    H231981   5.560   4.958   9.841  1.5799  0.1827  0.3979
 2596TIP3   OH231982   3.646   1.311   8.628  0.5551 -0.5999  0.1872
 2596TIP3    H131983   3.631   1.319   8.533  1.1064 -0.6897  0.0893
 2596TIP3    H231984   3.566   1.270   8.661  0.5462 -0.9998 -0.3118
 2597TIP3   OH231985   7.452   6.576   7.592  0.3769 -0.3280  0.3724
 2597TIP3    H131986   7.387   6.619   7.647  0.2319  1.7153 -1.2730
 2597TIP3    H231987   7.402   6.515   7.538 -0.0595  0.4881 -0.1652
 2598TIP3   OH231988   0.108   4.238   8.182  0.2298 -0.0760  0.2919
 2598TIP3    H131989   0.200   4.210   8.185 -0.2743 -1.8105  0.1986
 2598TIP3    H231990   0.058   4.157   8.181 -1.2823  0.8170 -1.0757
 2599TIP3   OH231991   2.102   0.236   8.256  0.0796  0.2573  0.0317
 2599TIP3    H131992   2.168   0.208   8.191  2.3034  1.0536  1.8130
 2599TIP3    H231993   2.153   0.262   8.332 -2.3626  0.8955  1.5609
 2600TIP3   OH231994   7.255   1.719   8.826  0.4521 -0.2749  0.2868
 2600TIP3    H131995   7.239   1.793   8.884 -1.5402 -0.8919  0.6043
 2600TIP3    H231996   7.314   1.753   8.759  1.4329  0.9278  1.7027
 2601TIP3   OH231997   0.814   6.741   8.164  0.2077  0.2865 -0.2105
 2601TIP3    H131998   0.749   6.742   8.234  1.2917  0.0011  0.8247
 2601TIP3    H231999   0.773   6.688   8.095 -1.0013  0.8330  0.0459
 2602TIP3   OH232000   2.525   5.247   7.726  0.1951 -0.3002  0.0775
 2602TIP3    H132001   2.581   5.192   7.780  3.9513  1.9529 -1.1548
 2602TIP3    H232002   2.511   5.326   7.779 -1.0799 -0.4421 -0.0193
 2603TIP3   OH232003   4.181   0.855   8.727 -0.2715  0.4130  0.0155
 2603TIP3    H132004   4.102   0.886   8.681 -0.6493 -0.0913  0.3126
 2603TIP3    H232005   4.156   0.855   8.819 -0.6222 -1.6573 -0.0258
 2604TIP3   OH232006   0.180   4.260   7.532  0.4529 -0.1958 -0.3048
 2604TIP3    H132007   0.174   4.174   7.573 -0.1574  0.0002  0.0276
 2604TIP3    H232008   0.161   4.245   7.440  0.5502 -0.4449 -0.2837
 2605TIP3   OH232009   1.995   1.088   9.257 -0.0403  0.5082  0.2002
 2605TIP3    H132010   2.069   1.038   9.291  1.0982  2.0110  0.0636
 2605TIP3    H232011   1.923   1.026   9.253  0.8316 -0.6505  1.7049
 2606TIP3   OH232012   5.369   0.584   9.156 -0.6621  0.6385 -0.3863
 2606TIP3    H132013   5.407   0.637   9.225 -0.4276  1.7048 -1.3049
 2606TIP3    H232014   5.428   0.509   9.147  1.8456  2.6692 -2.3635
 2607TIP3   OH232015   0.448   4.928   7.450 -0.2563  0.1444  0.0984
 2607TIP3    H132016   0.466   4.834   7.456  0.2396  0.2294  0.0055
 2607TIP3    H232017   0.362   4.939   7.491 -1.3274 -0.6543 -1.8207
 2608TIP3   OH232018   0.574   3.448   8.196  0.5517  0.3919  0.1109
 2608TIP3    H132019   0.493   3.497   8.181  1.1494  1.1206 -0.8942
 2608TIP3    H232020   0.576   3.383   8.126  0.6978  0.1927  0.2994
 2609TIP3   OH232021   4.330   4.932   9.291 -0.6505 -0.4990 -0.2712
 2609TIP3    H132022   4.258   4.869   9.283 -0.0846 -0.9558 -2.3477
 2609TIP3    H232023   4.324   4.985   9.211 -0.2774  1.2217  0.7886
 2610TIP3   OH232024   2.626   4.531   8.874 -0.4723 -0.2783 -0.4036
 2610TIP3    H132025   2.683   4.562   8.803  0.8980  0.6719  1.0479
 2610TIP3    H232026   2.555   4.595   8.877  0.8786  1.2156  0.7719
 2611TIP3   OH232027   0.441   7.318   7.689 -0.4624 -0.4797 -0.1642
 2611TIP3    H132028   0.495   7.338   7.766  1.1695  0.2241 -1.4504
 2611TIP3    H232029   0.411   7.228   7.703  1.1246 -0.9251  0.5468
 2612TIP3   OH232030   6.547   6.438   7.673 -0.0030 -0.2264  0.2969
 2612TIP3    H132031   6.591   6.365   7.628 -0.7085 -1.2311  1.1826
 2612TIP3    H232032   6.572   6.428   7.765  2.5091  2.5855  0.0470
 2613TIP3   OH232033   4.670   0.443   7.681  0.0770 -0.1387  0.3434
 2613TIP3    H132034   4.575   0.454   7.685  0.0943  1.0545 -1.3982
 2613TIP3    H232035   4.705   0.532   7.685  1.0675 -0.4888 -0.1009
 2614TIP3   OH232036   4.304   1.063   8.227  0.0657  0.3041 -0.3320
 2614TIP3    H132037   4.256   0.985   8.202  1.5337 -0.3407 -1.2528
 2614TIP3    H232038   4.396   1.039   8.220  0.5650  2.0959 -0.6235
 2615TIP3   OH232039   6.129   0.021   7.740  0.3106  0.3293  0.0847
 2615TIP3    H132040   6.046  -0.027   7.746  0.5399 -0.0092  0.6370
 2615TIP3    H232041   6.105   0.112   7.759 -0.3090  0.6700 -2.0394
 2616TIP3   OH232042   0.560   2.088   8.843  0.1215  0.0146 -0.3219
 2616TIP3    H132043   0.535   2.053   8.928 -3.7540  1.9456 -0.4550
 2616TIP3    H232044   0.606   2.169   8.863  2.6059 -1.3249 -0.1556
 2617TIP3   OH232045   6.670   1.102   7.895 -0.1510  0.5467 -0.0190
 2617TIP3    H132046   6.592   1.137   7.939  0.1969  1.2038  0.0965
 2617TIP3    H232047   6.646   1.013   7.871 -0.3834  0.1937  1.4349
 2618TIP3   OH232048   7.102   5.312   7.943 -0.0676  0.0133 -0.2158
 2618TIP3    H132049   7.116   5.217   7.936  0.3005  0.0809 -0.4152
 2618TIP3    H232050   7.034   5.331   7.879  1.1471  0.1601 -1.5263
 2619TIP3   OH232051   3.635   5.060   7.072  0.2627  0.4283  0.3601
 2619TIP3    H132052   3.620   4.968   7.048 -0.6665  0.5015  0.6068
 2619TIP3    H232053   3.663   5.102   6.991  1.1302 -0.1598  0.3399
 2620TIP3   OH232054   7.058   6.113   8.980 -0.1166  0.1825  0.0554
 2620TIP3    H132055   7.092   6.100   8.892 -0.2339  1.2957 -0.1699
 2620TIP3    H232056   6.984   6.173   8.969  1.8825  3.1292  1.2149
 2621TIP3   OH232057   1.080   6.185   9.181  1.0115 -0.2623 -0.2584
 2621TIP3    H132058   1.150   6.215   9.238  0.1435 -0.0770  0.7317
 2621TIP3    H232059   1.103   6.219   9.094  0.6994  2.2488  0.5648
 2622TIP3   OH232060   2.221   7.561   8.953  0.4088 -0.3512  0.1351
 2622TIP3    H132061   2.179   7.572   9.038 -0.4416  1.7709 -0.4826
 2622TIP3    H232062   2.278   7.638   8.944  0.3572 -0.4463 -1.2639
 2623TIP3   OH232063   5.437   0.393   7.513  0.2442  0.2079  0.3032
 2623TIP3    H132064   5.362   0.411   7.569  0.1481  1.0932 -0.0899
 2623TIP3    H232065   5.511   0.387   7.572  0.1445  1.1340  0.5331
 2624TIP3   OH232066   1.799   7.381   8.384 -0.5677  0.0666  0.5380
 2624TIP3    H132067   1.828   7.416   8.299 -0.5484 -0.3912  0.3556
 2624TIP3    H232068   1.875   7.391   8.441  0.1245 -1.5221 -0.0481
 2625TIP3   OH232069   3.993   6.573   8.956  0.2082  0.2984 -0.7173
 2625TIP3    H132070   3.903   6.541   8.951  0.6715 -0.8935 -3.9475
 2625TIP3    H232071   3.995   6.648   8.895  1.6675 -0.6302 -1.8824
 2626TIP3   OH232072   1.596   1.927   9.530  0.0401 -1.0550  0.3071
 2626TIP3    H132073   1.568   2.004   9.482 -1.3441 -1.4567  0.4334
 2626TIP3    H232074   1.673   1.956   9.580 -0.9811  0.4843  1.0340
 2627TIP3   OH232075   2.133   6.744   7.439  0.4819 -0.7977 -0.4756
 2627TIP3    H132076   2.058   6.774   7.388  0.2083  1.4757  1.0929
 2627TIP3    H232077   2.184   6.690   7.378 -0.6723  0.3780 -2.6098
 2628TIP3   OH232078   7.147   3.746   8.647 -0.7759 -0.2351  0.2841
 2628TIP3    H132079   7.183   3.825   8.689 -1.7422  0.5783 -0.3890
 2628TIP3    H232080   7.115   3.776   8.562  0.8036 -1.7791 -0.9414
 2629TIP3   OH232081   6.897   1.641   7.944  0.1553  0.3343 -0.1400
 2629TIP3    H132082   6.948   1.698   7.887  0.7693  1.9588  1.8760
 2629TIP3    H232083   6.832   1.699   7.984 -1.1974 -1.0376 -0.2588
 2630TIP3   OH232084   0.115   6.555   8.241  0.1952  0.2311  0.2682
 2630TIP3    H132085   0.199   6.511   8.232  0.1228 -0.3017  1.8316
 2630TIP3    H232086   0.130   6.622   8.307 -0.0909  1.5836 -0.9923
 2631TIP3   OH232087   6.631   0.854   7.662  0.2194  0.2920 -0.0008
 2631TIP3    H132088   6.579   0.778   7.686 -0.3044  0.7089  0.2271
 2631TIP3    H232089   6.584   0.894   7.589  0.5741  0.3144 -0.2211
 2632TIP3   OH232090   4.600   0.855   8.011  0.6598  0.0686  0.2564
 2632TIP3    H132091   4.646   0.778   8.045 -0.5071 -1.0259 -0.5347
 2632TIP3    H232092   4.661   0.892   7.947  0.4875 -1.4021 -0.8326
 2633TIP3   OH232093   1.846   4.348   8.317 -0.2459  0.3948  0.3244
 2633TIP3    H132094   1.841   4.265   8.269  1.4290  1.8180 -2.5719
 2633TIP3    H232095   1.940   4.363   8.328 -0.5338  1.7499  1.1059
 2634TIP3   OH232096   2.078   6.091   7.698 -0.4675  0.0556 -0.0680
 2634TIP3    H132097   2.166   6.126   7.687 -0.3557 -0.5111 -1.1310
 2634TIP3    H232098   2.024   6.147   7.641 -0.7573  0.2521  0.3966
 2635TIP3   OH232099   4.529   3.142   6.682 -0.6700  0.7378 -0.2925
 2635TIP3    H132100   4.583   3.064   6.696 -1.2096  0.4615  0.3153
 2635TIP3    H232101   4.557   3.203   6.750  0.2699  1.3724 -1.2268
 2636TIP3   OH232102   2.027   7.383   8.881  0.1505 -1.0174  0.8229
 2636TIP3    H132103   2.108   7.432   8.894 -0.0921 -0.4274  0.1170
 2636TIP3    H232104   2.053   7.309   8.826  0.0431 -0.3416 -0.1479
 2637TIP3   OH232105   3.046   1.307   9.405 -0.5860  0.7415 -0.0089
 2637TIP3    H132106   3.071   1.296   9.497  0.5514  1.3904 -0.2110
 2637TIP3    H232107   3.047   1.218   9.369  1.1785  0.6741  0.1005
 2638TIP3   OH232108   0.021   6.728   7.012 -0.5522  0.2162 -0.2582
 2638TIP3    H132109   0.102   6.751   7.058 -0.3626  0.5839 -0.7741
 2638TIP3    H232110   0.042   6.645   6.969 -0.0631  0.8824 -1.3388
 2639TIP3   OH232111   0.982   6.330   8.507 -0.0697 -0.2965 -0.1982
 2639TIP3    H132112   1.011   6.241   8.529 -0.3233 -0.0556  1.2360
 2639TIP3    H232113   0.961   6.326   8.414  0.5777 -1.5562 -0.3148
 2640TIP3   OH232114   6.114   1.432   8.876 -0.3887 -0.2769 -0.4522
 2640TIP3    H132115   6.175   1.370   8.836 -1.0122 -0.5022 -1.0779
 2640TIP3    H232116   6.030   1.387   8.875 -0.3833 -0.3691  1.3408
 2641TIP3   OH232117   6.509   2.313   7.894 -0.1859  0.0310 -0.3351
 2641TIP3    H132118   6.465   2.253   7.954 -2.3550  0.6376 -1.2298
 2641TIP3    H232119   6.594   2.329   7.935  0.3722 -3.3025  0.1307
 2642TIP3   OH232120   6.011   0.205   9.665  0.5366 -0.3091  0.0083
 2642TIP3    H132121   6.096   0.227   9.628 -0.1910 -0.4911 -1.8896
 2642TIP3    H232122   6.028   0.132   9.725  1.8898  0.5771  0.7579
 2643TIP3   OH232123   4.758   4.847   8.833  0.0573  0.4248 -0.4626
 2643TIP3    H132124   4.703   4.911   8.879  0.6041 -0.1499  1.0478
 2643TIP3    H232125   4.809   4.899   8.770 -1.3389  1.1115 -1.0669
 2644TIP3   OH232126   3.905   1.133   8.248  0.4913  0.5797 -0.0143
 2644TIP3    H132127   3.898   1.048   8.291 -1.0706 -0.1316 -1.5589
 2644TIP3    H232128   3.827   1.180   8.275  1.2541  1.4997  0.6760
 2645TIP3   OH232129   2.089   4.798   9.292  0.1813  0.0592 -0.0326
 2645TIP3    H132130   2.050   4.710   9.298  0.0850 -0.0444 -1.6509
 2645TIP3    H232131   2.158   4.789   9.227 -0.1761  1.2907 -0.6116
 2646TIP3   OH232132   4.789   2.416   8.328 -0.3991  0.5856  0.9360
 2646TIP3    H132133   4.827   2.354   8.391  3.1304  0.1471 -1.3788
 2646TIP3    H232134   4.789   2.499   8.375  2.7715  0.4139  1.4731
 2647TIP3   OH232135   4.045   2.148   9.092 -0.1303  0.2273  0.2392
 2647TIP3    H132136   4.006   2.168   9.177 -1.2111  1.3694 -0.4855
 2647TIP3    H232137   4.022   2.223   9.037 -0.0320 -0.7889 -1.2477
 2648TIP3   OH232138   1.687   4.575   8.333 -0.1022 -0.5379  0.0519
 2648TIP3    H132139   1.735   4.496   8.308  0.5672 -1.0166  2.5447
 2648TIP3    H232140   1.601   4.544   8.360 -0.5895 -0.1201 -0.9712
 2649TIP3   OH232141   6.609   5.398   8.379  0.3857 -0.1431 -0.3809
 2649TIP3    H132142   6.612   5.306   8.353 -1.0961 -0.1095 -0.7237
 2649TIP3    H232143   6.647   5.399   8.467 -0.4790 -1.2320  0.0209
 2650TIP3   OH232144   7.000   6.229   9.391  0.5421  0.0001  0.5567
 2650TIP3    H132145   7.090   6.205   9.412  0.8263  1.6246  1.3985
 2650TIP3    H232146   6.949   6.150   9.410  1.6514 -0.6093  1.1019
 2651TIP3   OH232147   0.827   4.693   7.173 -0.6966  0.1958  0.4809
 2651TIP3    H132148   0.781   4.638   7.108 -1.4331  2.4267 -1.0185
 2651TIP3    H232149   0.781   4.777   7.170 -0.5150  0.5376  3.7104
 2652TIP3   OH232150   0.765   3.840   7.869 -0.0520  0.0590  0.5349
 2652TIP3    H132151   0.775   3.752   7.907 -1.2915  0.1375  1.0626
 2652TIP3    H232152   0.822   3.895   7.922  0.1096 -0.2795  0.7215
 2653TIP3   OH232153   6.320   1.289   8.507 -0.0897  0.1201 -0.0586
 2653TIP3    H132154   6.365   1.372   8.518 -1.2195  0.7259  0.1732
 2653TIP3    H232155   6.356   1.252   8.426  1.6127  0.0270  0.6961
 2654TIP3   OH232156   1.532   2.174   9.439  0.0175  0.2497  0.1686
 2654TIP3    H132157   1.459   2.195   9.381  0.3193  1.0142  0.0476
 2654TIP3    H232158   1.599   2.239   9.418  1.0733 -0.9410 -0.3155
 2655TIP3   OH232159   1.050   5.136   8.426  0.3552  0.2813 -0.7780
 2655TIP3    H132160   0.958   5.145   8.398  0.6846  0.8774 -1.7190
 2655TIP3    H232161   1.101   5.169   8.352  1.2652  2.3098  0.6671
 2656TIP3   OH232162   5.831   4.301   6.829  0.0057  0.1419  0.3485
 2656TIP3    H132163   5.804   4.278   6.740  0.0703 -0.4026  0.4681
 2656TIP3    H232164   5.878   4.384   6.819  1.2947 -0.6328 -0.3346
 2657TIP3   OH232165   0.948   6.487   7.304  0.4844  0.1099 -0.7505
 2657TIP3    H132166   0.859   6.510   7.333 -0.0483 -0.5224 -1.7940
 2657TIP3    H232167   0.953   6.522   7.214  1.2090 -0.0653 -0.7858
 2658TIP3   OH232168   3.484   2.459   7.110 -0.1856 -0.3866 -0.2343
 2658TIP3    H132169   3.497   2.523   7.040  0.5028 -0.9022 -0.5959
 2658TIP3    H232170   3.453   2.380   7.065 -0.0362 -0.6273  0.0805
 2659TIP3   OH232171   5.983   4.078   9.416 -0.4603  0.4943 -0.4460
 2659TIP3    H132172   6.050   4.131   9.459 -1.6685  1.4303  0.3625
 2659TIP3    H232173   5.980   3.996   9.467 -0.6098  0.8569  0.1356
 2660TIP3   OH232174   7.139   0.506   9.118 -0.4567  0.1783 -0.5055
 2660TIP3    H132175   7.094   0.582   9.155  0.4877  1.2086 -1.3885
 2660TIP3    H232176   7.091   0.430   9.152 -0.0469  1.0404  2.2630
 2661TIP3   OH232177   6.432   2.153   8.555  0.8652  0.2289  0.0565
 2661TIP3    H132178   6.376   2.172   8.631  0.2184 -0.1163 -0.3246
 2661TIP3    H232179   6.370   2.138   8.483  1.3539 -2.1356  0.0480
 2662TIP3   OH232180   6.307   5.919   7.954 -0.2389  0.1044 -0.2802
 2662TIP3    H132181   6.340   6.009   7.949 -0.0044  0.2092  2.0331
 2662TIP3    H232182   6.214   5.928   7.973 -0.3560 -0.1557 -0.7184
 2663TIP3   OH232183   3.667   4.681   8.688  0.1607 -0.2990 -0.4155
 2663TIP3    H132184   3.710   4.711   8.607  2.1935 -1.6522  0.0743
 2663TIP3    H232185   3.605   4.614   8.658  0.6099 -0.5060 -0.9169
 2664TIP3   OH232186   2.169   3.882   9.541  0.4047  0.0293  0.2654
 2664TIP3    H132187   2.100   3.815   9.542 -0.1596  0.5918  1.3587
 2664TIP3    H232188   2.243   3.839   9.498  0.2549 -1.5325  1.4564
 2665TIP3   OH232189   6.661   6.319   7.461 -0.2518 -0.6345 -0.2841
 2665TIP3    H132190   6.631   6.229   7.454  2.5176 -1.9663  2.6718
 2665TIP3    H232191   6.686   6.343   7.371 -1.6519 -2.5395 -1.2336
 2666TIP3   OH232192   5.257   4.553   7.304  0.1959  0.2204 -0.0308
 2666TIP3    H132193   5.189   4.590   7.248 -1.0538 -1.4262  0.3316
 2666TIP3    H232194   5.282   4.472   7.261  0.1799 -0.3977  1.0786
 2667TIP3   OH232195   6.098   2.532   6.699 -0.0162  0.0735  0.0454
 2667TIP3    H132196   6.188   2.550   6.725  0.2722 -1.0845 -0.1006
 2667TIP3    H232197   6.099   2.539   6.603  0.4896 -2.2342 -0.1631
 2668TIP3   OH232198   6.828   5.953   8.235  0.2911 -0.1942 -0.2136
 2668TIP3    H132199   6.921   5.936   8.251 -0.4960 -3.5141  1.7198
 2668TIP3    H232200   6.816   5.938   8.142  1.7526  1.0910 -0.6636
 2669TIP3   OH232201   4.968   6.388   8.414 -0.4695  0.3265  0.0956
 2669TIP3    H132202   5.052   6.418   8.448 -1.1169 -0.4753  2.5960
 2669TIP3    H232203   4.968   6.294   8.428 -1.1496  0.0545 -1.4711
 2670TIP3   OH232204   3.746   1.311   7.965  0.0724  0.5097  0.3476
 2670TIP3    H132205   3.682   1.376   7.935  1.1249  0.9953 -0.9856
 2670TIP3    H232206   3.710   1.277   8.046 -2.0492  0.5072 -0.5361
 2671TIP3   OH232207   6.677   6.069   7.413 -0.3500  0.1688 -0.6205
 2671TIP3    H132208   6.652   6.000   7.474 -0.0007  0.2732 -0.3577
 2671TIP3    H232209   6.764   6.044   7.382  0.2007  0.9817  0.2179
 2672TIP3   OH232210   7.381   3.304   6.623  0.2485  0.0894  0.3557
 2672TIP3    H132211   7.452   3.282   6.563  0.5502  3.1732 -0.6267
 2672TIP3    H232212   7.372   3.399   6.615 -2.6643  0.0736  1.9693
 2673TIP3   OH232213   5.983   1.403   7.212  0.2565 -0.1675  0.0384
 2673TIP3    H132214   5.982   1.378   7.120 -0.4933 -0.4581  0.1184
 2673TIP3    H232215   6.002   1.497   7.211  0.0918 -0.1385 -0.4192
 2674TIP3   OH232216   1.536   0.246   8.319  0.2141  0.4277  0.8683
 2674TIP3    H132217   1.556   0.325   8.269 -1.8279  0.7415  0.4582
 2674TIP3    H232218   1.443   0.253   8.339 -0.7017 -3.0345 -1.3735
 2675TIP3   OH232219   7.626   4.541   6.564  0.0522  0.0331 -0.0582
 2675TIP3    H132220   7.567   4.615   6.580 -0.2802 -0.3189  0.3908
 2675TIP3    H232221   7.706   4.580   6.529 -0.8892  0.4057 -1.8677
 2676TIP3   OH232222   6.295   2.356   8.259  0.0774  0.1061 -0.2776
 2676TIP3    H132223   6.211   2.320   8.286  0.6016  0.4570  1.9884
 2676TIP3    H232224   6.341   2.281   8.221 -0.4963 -0.5749  0.3278
 2677TIP3   OH232225   1.217   7.398   8.592 -0.1501 -0.7676  0.2450
 2677TIP3    H132226   1.212   7.374   8.499 -0.0185 -0.3074  0.1178
 2677TIP3    H232227   1.243   7.490   8.592  0.4901 -0.9360  0.7474
 2678TIP3   OH232228   6.404   5.111   8.136 -0.2753  0.0955 -0.4503
 2678TIP3    H132229   6.432   5.046   8.072 -2.7717 -0.7380 -0.7845
 2678TIP3    H232230   6.335   5.067   8.186  2.5384  0.1381  3.9510
 2679TIP3   OH232231   7.204   2.287   7.920  0.0585  0.2154 -0.2047
 2679TIP3    H132232   7.263   2.329   7.858  0.3453  1.3553  0.8058
 2679TIP3    H232233   7.241   2.306   8.006 -0.9606 -0.3279  0.3782
 2680TIP3   OH232234   3.860   0.696   8.796 -0.1265  0.5846 -0.4260
 2680TIP3    H132235   3.901   0.717   8.712  0.1270 -0.4454 -0.5700
 2680TIP3    H232236   3.772   0.667   8.773 -0.7541  2.2011 -0.1647
 2681TIP3   OH232237   2.739   5.090   9.328 -0.3749 -0.2292  0.4130
 2681TIP3    H132238   2.736   5.047   9.242  0.2304 -0.3403  0.4373
 2681TIP3    H232239   2.829   5.122   9.334 -0.4899  0.0029  0.9018
 2682TIP3   OH232240   1.851   4.834   6.936 -0.2543  0.4528 -0.2197
 2682TIP3    H132241   1.861   4.803   6.846 -1.9505  1.1290 -0.6851
 2682TIP3    H232242   1.890   4.921   6.937 -0.8624  0.7356 -0.5054
 2683TIP3   OH232243   4.933   5.278   8.876 -0.1646  0.5820  0.1816
 2683TIP3    H132244   4.894   5.218   8.940  0.6734 -0.8494 -0.6085
 2683TIP3    H232245   5.025   5.282   8.900 -0.3846  2.4416  0.8705
 2684TIP3   OH232246   0.095   2.490   7.891  0.0447  0.2180  0.3204
 2684TIP3    H132247   0.128   2.539   7.966  1.1362  0.8764 -0.5644
 2684TIP3    H232248   0.112   2.546   7.816 -0.5744 -0.6426 -0.4888
 2685TIP3   OH232249   2.022   0.794   8.377 -0.4372 -0.4957  0.1960
 2685TIP3    H132250   2.064   0.850   8.313 -0.9589 -2.5268 -2.0629
 2685TIP3    H232251   2.061   0.820   8.461  0.2319  2.2867 -0.8686
 2686TIP3   OH232252   2.649   0.853   7.728  0.5007 -0.6894 -0.5037
 2686TIP3    H132253   2.585   0.816   7.667 -0.3880 -1.1723  0.6956
 2686TIP3    H232254   2.608   0.845   7.814  1.3933  0.7240  0.0788
 2687TIP3   OH232255   0.600   4.337   9.126  0.4979 -0.1133 -0.1549
 2687TIP3    H132256   0.535   4.328   9.195  0.9873  1.1618  0.5169
 2687TIP3    H232257   0.552   4.373   9.051  0.5168  1.4837  0.5584
 2688TIP3   OH232258   4.257   2.618   8.682  0.1006 -0.0684 -0.2983
 2688TIP3    H132259   4.303   2.542   8.717  0.4516  1.0559  1.8564
 2688TIP3    H232260   4.229   2.591   8.595  0.6181 -2.4932  0.2074
 2689TIP3   OH232261   3.428   1.308   8.856 -0.1752 -0.0111  0.3035
 2689TIP3    H132262   3.450   1.228   8.904 -0.0695  0.1870  0.5871
 2689TIP3    H232263   3.388   1.277   8.775 -0.0816 -0.3530  0.3869
 2690TIP3   OH232264   2.464   3.030   8.349  0.3204  0.0649 -0.1568
 2690TIP3    H132265   2.427   3.101   8.298  1.4792  0.1270 -0.9569
 2690TIP3    H232266   2.390   2.994   8.398 -0.7372  0.3040 -1.5273
 2691TIP3   OH232267   1.132   4.354   7.169 -0.3844  0.0078  0.2544
 2691TIP3    H132268   1.206   4.347   7.109  1.3738  0.4977  2.2646
 2691TIP3    H232269   1.118   4.264   7.199 -1.4093 -0.2767 -0.9533
 2692TIP3   OH232270   3.276   5.501   7.782 -0.1664 -0.1080 -0.1147
 2692TIP3    H132271   3.352   5.454   7.815 -0.0997 -0.8293 -1.2667
 2692TIP3    H232272   3.201   5.456   7.821 -0.1093 -1.3155 -1.3377
 2693TIP3   OH232273   1.059   0.852   8.869  0.0371  0.1622 -0.2265
 2693TIP3    H132274   0.969   0.827   8.888  0.4226  0.9064  3.1862
 2693TIP3    H232275   1.109   0.819   8.944  2.9510 -1.6733 -2.7590
 2694TIP3   OH232276   6.149   6.109   8.490  0.1063 -0.2141 -0.1761
 2694TIP3    H132277   6.163   6.077   8.401 -1.3541  2.6812 -1.5823
 2694TIP3    H232278   6.055   6.098   8.504 -0.0294  1.2698  0.1623
 2695TIP3   OH232279   4.357   0.867   7.878  0.7564 -0.2137 -0.4186
 2695TIP3    H132280   4.379   0.927   7.806 -0.4829  0.5635 -0.1683
 2695TIP3    H232281   4.408   0.899   7.952  2.2811 -1.2008 -0.9761
 2696TIP3   OH232282   7.178   5.433   9.190  0.0369  0.2668 -0.7035
 2696TIP3    H132283   7.138   5.383   9.120  0.3434  0.6429 -1.1559
 2696TIP3    H232284   7.108   5.489   9.223 -0.8683 -1.7767  1.1197
 2697TIP3   OH232285   7.388   1.227   9.031  0.0432 -0.0763 -0.5662
 2697TIP3    H132286   7.436   1.153   9.070  1.8342 -0.7270 -3.6882
 2697TIP3    H232287   7.454   1.296   9.024 -0.6206  0.5054 -1.1239
 2698TIP3   OH232288   3.133   0.071   7.828 -0.2058 -0.2681  0.3138
 2698TIP3    H132289   3.165   0.054   7.917 -2.5281 -0.7978  1.1221
 2698TIP3    H232290   3.133   0.166   7.821  3.4624 -0.1818 -0.5669
 2699TIP3   OH232291   6.387   7.319   9.394 -0.0088  0.1880 -0.1065
 2699TIP3    H132292   6.394   7.391   9.331  1.2424  0.0817 -0.1158
 2699TIP3    H232293   6.344   7.358   9.470 -3.1077 -0.0899 -1.5727
 2700TIP3   OH232294   5.808   2.012   7.935 -0.4032  0.2230  0.0850
 2700TIP3    H132295   5.843   1.935   7.890 -0.2237 -0.0475  0.6723
 2700TIP3    H232296   5.727   2.033   7.888 -0.5821 -0.4722  0.0655
 2701TIP3   OH232297   2.336   2.042   7.216 -0.1368 -0.2062  0.2601
 2701TIP3    H132298   2.389   2.091   7.278 -2.0435  1.3827  0.7556
 2701TIP3    H232299   2.372   2.065   7.130 -0.5480  1.6229  0.5263
 2702TIP3   OH232300   1.433   3.748   8.910 -0.4237  0.0738 -0.0223
 2702TIP3    H132301   1.477   3.809   8.851  0.1348 -0.5060 -0.2327
 2702TIP3    H232302   1.358   3.796   8.944 -0.4710  0.5841 -0.8253
 2703TIP3   OH232303   0.681   1.254   7.654 -0.1143  0.0896 -0.1769
 2703TIP3    H132304   0.601   1.217   7.692  0.1043 -0.4126 -0.2045
 2703TIP3    H232305   0.649   1.326   7.599 -0.6561 -0.7743 -1.0334
 2704TIP3   OH232306   2.021   5.517   7.400 -0.6349  0.2738 -0.2648
 2704TIP3    H132307   1.999   5.608   7.418 -3.3811 -0.4907  0.6353
 2704TIP3    H232308   2.042   5.479   7.485  1.5451  0.2203 -0.7462
 2705TIP3   OH232309   1.263   3.692   7.456 -0.2934 -0.4201 -0.2192
 2705TIP3    H132310   1.357   3.680   7.438  0.1433 -0.3313  1.7418
 2705TIP3    H232311   1.220   3.626   7.402  0.6967  0.7670 -2.6322
 2706TIP3   OH232312   1.257   2.350   8.579  0.2793 -0.0707 -0.9177
 2706TIP3    H132313   1.164   2.371   8.586  0.4343  0.1620  0.9792
 2706TIP3    H232314   1.260   2.254   8.573 -0.0711 -0.2112  0.5965
 2707TIP3   OH232315   4.759   0.715   7.698  0.4297  0.8358  0.4145
 2707TIP3    H132316   4.765   0.766   7.779 -0.0148  2.0602 -0.3018
 2707TIP3    H232317   4.794   0.773   7.630 -1.1321  0.6402 -0.5992
 2708TIP3   OH232318   5.082   4.849   8.752 -0.3787  0.1665 -0.0558
 2708TIP3    H132319   5.151   4.899   8.709 -1.2162  0.3420 -1.2387
 2708TIP3    H232320   5.000   4.881   8.714 -0.9457 -2.1257 -0.9356
 2709TIP3   OH232321   5.167   5.526   7.931  0.1411  0.1979 -0.1916
 2709TIP3    H132322   5.121   5.521   8.014 -0.3823  0.2062 -0.4785
 2709TIP3    H232323   5.160   5.618   7.904  1.3751  0.4721  0.3463
 2710TIP3   OH232324   5.058   3.131   7.316  0.6033 -0.2372 -0.1761
 2710TIP3    H132325   5.038   3.097   7.228  0.7489 -1.6863  0.3249
 2710TIP3    H232326   5.153   3.125   7.323  0.9888  3.1280 -1.1596
 2711TIP3   OH232327   4.689   1.281   8.215 -0.7636  0.7269  0.2044
 2711TIP3    H132328   4.618   1.343   8.197 -2.5262 -1.3460 -0.3295
 2711TIP3    H232329   4.645   1.199   8.238  1.4250 -1.0557 -1.4621
 2712TIP3   OH232330   2.060   2.294   8.570 -0.2664 -0.2981 -0.1778
 2712TIP3    H132331   1.989   2.271   8.631 -0.8305  0.6867 -0.4295
 2712TIP3    H232332   2.044   2.241   8.493 -1.0628  0.2942 -0.4370
 2713TIP3   OH232333   0.856   3.538   7.255  0.3861 -0.6444 -0.4428
 2713TIP3    H132334   0.862   3.510   7.164  0.9796 -1.0806 -0.2754
 2713TIP3    H232335   0.763   3.528   7.277  0.3421 -1.1175 -0.8208
 2714TIP3   OH232336   7.176   0.828   8.552  0.4117 -0.0536 -0.3878
 2714TIP3    H132337   7.123   0.764   8.505  0.3626 -0.1773 -0.1665
 2714TIP3    H232338   7.182   0.903   8.492 -0.6036  0.2411 -0.1438
 2715TIP3   OH232339   4.630   6.827   6.908 -0.5014  0.2927  0.3358
 2715TIP3    H132340   4.541   6.835   6.942 -0.7292 -2.2453  0.4899
 2715TIP3    H232341   4.686   6.860   6.979 -1.2264 -0.1371  1.1198
 2716TIP3   OH232342   3.894   2.636   8.975  0.3149 -0.5123  0.0797
 2716TIP3    H132343   3.935   2.715   9.009 -2.4120  0.9536  0.2955
 2716TIP3    H232344   3.854   2.664   8.892 -1.8410 -1.2335  0.8081
 2717TIP3   OH232345   0.012   1.119   8.799 -0.2728 -0.2016 -0.2971
 2717TIP3    H132346   0.051   1.127   8.886 -0.7096 -1.4016  0.0329
 2717TIP3    H232347   0.086   1.096   8.742 -0.1988 -0.6972 -0.0029
 2718TIP3   OH232348   5.690   0.994   8.109 -0.2780 -0.0536 -0.7493
 2718TIP3    H132349   5.637   1.065   8.073  1.5150  1.6249 -0.2606
 2718TIP3    H232350   5.717   1.024   8.195  1.7157 -0.6633 -1.0976
 2719TIP3   OH232351   4.291   7.003   8.369 -0.0853  0.2304 -0.3290
 2719TIP3    H132352   4.359   7.051   8.322 -0.0191 -0.8777 -1.4219
 2719TIP3    H232353   4.249   7.068   8.424  1.7913  0.9837  0.3077
 2720TIP3   OH232354   6.863   5.296   7.788 -0.1810  0.2961  0.5303
 2720TIP3    H132355   6.879   5.368   7.726 -1.7726  0.4149  0.1949
 2720TIP3    H232356   6.851   5.219   7.732  0.5494 -0.0479  0.8340
 2721TIP3   OH232357   2.039   3.477   8.543  0.0270 -0.4146  0.4614
 2721TIP3    H132358   2.006   3.476   8.453  0.7647  1.1343  0.1479
 2721TIP3    H232359   2.104   3.547   8.544  0.2362 -0.6002  2.1399
 2722TIP3   OH232360   4.868   1.552   9.460  0.3960 -0.0887  0.7204
 2722TIP3    H132361   4.818   1.478   9.425  1.2591 -0.9692  1.2726
 2722TIP3    H232362   4.804   1.622   9.471 -0.0075  0.0807 -2.0808
 2723TIP3   OH232363   3.332   2.945   8.066 -0.0789 -0.2093 -0.0713
 2723TIP3    H132364   3.412   2.977   8.108  0.6278 -2.0330  0.0801
 2723TIP3    H232365   3.312   2.863   8.112 -1.4213 -0.3326 -0.8282
 2724TIP3   OH232366   6.712   1.029   6.694  0.5061  0.5558 -0.3506
 2724TIP3    H132367   6.668   1.101   6.649 -1.4678 -0.5974 -0.3878
 2724TIP3    H232368   6.805   1.046   6.682  0.0855  1.1476 -3.5320
 2725TIP3   OH232369   1.466   1.541   8.376 -0.2577  0.3503  0.5540
 2725TIP3    H132370   1.466   1.460   8.325 -1.4214 -0.8390  2.3669
 2725TIP3    H232371   1.438   1.608   8.313  2.0772 -0.2901 -1.3612
 2726TIP3   OH232372   4.509   7.554   9.646 -0.0689  0.0213  0.5887
 2726TIP3    H132373   4.422   7.592   9.657  0.3298  1.0869  0.2151
 2726TIP3    H232374   4.566   7.629   9.630  1.6636 -0.1182  4.7499
 2727TIP3   OH232375   4.726   6.061   9.582 -0.1908  0.4698  0.2963
 2727TIP3    H132376   4.770   5.977   9.570 -0.0193  0.7570 -1.3122
 2727TIP3    H232377   4.684   6.054   9.668 -0.0128 -1.1794  0.2826
 2728TIP3   OH232378   1.258   3.191   8.123  0.4657  0.0443  0.0218
 2728TIP3    H132379   1.331   3.248   8.147  0.0742  0.0642  1.2426
 2728TIP3    H232380   1.300   3.113   8.086  1.4005 -1.5653  3.9792
 2729TIP3   OH232381   7.516   4.618   6.958 -0.2494 -0.2189 -0.3472
 2729TIP3    H132382   7.474   4.619   7.043 -0.0504 -1.0670 -0.2277
 2729TIP3    H232383   7.560   4.533   6.954  0.9698  0.3995 -0.6978
 2730TIP3   OH232384   4.046   0.521   7.114  0.4431  0.3568  0.1722
 2730TIP3    H132385   4.072   0.429   7.117  2.2054  0.8088 -0.1041
 2730TIP3    H232386   4.088   0.555   7.035  1.6592  1.8888  1.4168
 2731TIP3   OH232387   4.697   1.895   8.427  0.2748 -0.3598 -0.4650
 2731TIP3    H132388   4.646   1.816   8.410 -0.3761  0.1227 -0.8066
 2731TIP3    H232389   4.770   1.865   8.481 -0.4190 -1.0523  0.1127
 2732TIP3   OH232390   4.056   0.702   9.353  0.4192  0.9799  0.1754
 2732TIP3    H132391   4.121   0.744   9.410 -0.4683  2.3094  0.2619
 2732TIP3    H232392   4.003   0.650   9.413  0.8458  0.6031  0.2327
 2733TIP3   OH232393   0.900   1.180   7.822  0.3621  0.6227 -0.1290
 2733TIP3    H132394   0.965   1.171   7.752  0.0413  3.4546 -0.9171
 2733TIP3    H232395   0.816   1.180   7.776 -0.4071 -3.2846  0.9035
 2734TIP3   OH232396   4.833   0.455   9.113 -0.2643  0.4184 -0.5695
 2734TIP3    H132397   4.807   0.536   9.069 -0.9251 -0.4677 -1.8472
 2734TIP3    H232398   4.907   0.422   9.062 -0.6208 -0.2874 -0.6373
 2735TIP3   OH232399   6.733   7.564   7.068 -0.0523  0.4336 -0.2136
 2735TIP3    H132400   6.682   7.551   7.148 -0.7013  1.0455 -0.5193
 2735TIP3    H232401   6.767   7.653   7.076 -0.3811  0.6124 -0.7540
 2736TIP3   OH232402   6.533   2.514   8.218  0.0682  0.4907 -0.4094
 2736TIP3    H132403   6.556   2.441   8.160  0.0552 -0.5373  0.8149
 2736TIP3    H232404   6.444   2.495   8.247 -0.0031  1.0879 -0.2165
 2737TIP3   OH232405   0.293   2.112   6.677 -0.1971 -0.0706  0.2202
 2737TIP3    H132406   0.252   2.170   6.613 -0.7674  0.1991  0.8251
 2737TIP3    H232407   0.251   2.134   6.760  0.4317 -0.5206  0.6646
 2738TIP3   OH232408   1.148   2.172   8.214 -0.2553  0.0105  0.2200
 2738TIP3    H132409   1.106   2.099   8.259  1.0971 -0.8265  0.1832
 2738TIP3    H232410   1.132   2.157   8.121 -0.9043  0.3738  0.2645
 2739TIP3   OH232411   5.665   4.949   9.528  0.7186  0.3876 -0.0515
 2739TIP3    H132412   5.686   5.032   9.486  2.0916  0.6954  1.1406
 2739TIP3    H232413   5.629   4.974   9.614  0.1576 -0.2461 -0.0878
 2740TIP3   OH232414   4.962   2.637   8.877 -0.3324 -0.3765 -0.2540
 2740TIP3    H132415   4.928   2.699   8.812 -2.0832  0.4492  1.3638
 2740TIP3    H232416   4.885   2.585   8.902  0.0659 -0.0441  1.8182
 2741TIP3   OH232417   6.292   6.925   8.874 -0.4544  0.6206  0.1669
 2741TIP3    H132418   6.290   6.980   8.796  1.8577  2.0422  0.9998
 2741TIP3    H232419   6.320   6.839   8.843  0.1660  1.0989 -0.6247
 2742TIP3   OH232420   6.504   5.128   9.084 -0.5830  0.5675 -0.1550
 2742TIP3    H132421   6.518   5.080   9.166  0.6451 -0.7747 -1.0956
 2742TIP3    H232422   6.434   5.190   9.104  1.7190  2.5253  2.8346
 2743TIP3   OH232423   3.009   1.883   7.917 -0.1746 -0.0445 -0.0909
 2743TIP3    H132424   3.099   1.872   7.949  1.0756  0.8528 -2.9006
 2743TIP3    H232425   2.981   1.967   7.952  0.5092  0.1621 -0.0154
 2744TIP3   OH232426   0.626   1.076   7.264 -0.5829 -0.2043  0.0752
 2744TIP3    H132427   0.677   1.085   7.345  1.8141 -1.9345 -1.1255
 2744TIP3    H232428   0.590   0.988   7.268 -1.7370  0.2361 -0.1171
 2745TIP3   OH232429   6.807   3.756   9.327 -0.0547  0.2692 -0.0101
 2745TIP3    H132430   6.895   3.793   9.332  0.4732 -0.5410 -2.1932
 2745TIP3    H232431   6.753   3.827   9.291 -0.0193  0.3598  0.1145
 2746TIP3   OH232432   4.543   1.775   7.324 -0.6621  0.1770  0.0491
 2746TIP3    H132433   4.625   1.730   7.347  0.9097  1.3248 -2.8136
 2746TIP3    H232434   4.510   1.726   7.249 -1.3922  1.0844 -0.2282
 2747TIP3   OH232435   0.098   2.611   7.646 -0.2039 -0.4155 -0.2830
 2747TIP3    H132436   0.183   2.649   7.626 -0.6300  1.1861  0.7717
 2747TIP3    H232437   0.075   2.561   7.568  1.3322 -0.1955 -0.8975
 2748TIP3   OH232438   4.513   6.330   7.428 -0.5084  0.1218  0.0221
 2748TIP3    H132439   4.607   6.315   7.423 -0.6719 -1.1991  0.5484
 2748TIP3    H232440   4.489   6.299   7.516 -1.2846  1.3612  0.2723
 2749TIP3   OH232441   1.784   3.429   7.189  0.0465 -0.3638  0.5653
 2749TIP3    H132442   1.783   3.340   7.152  0.7604 -0.1655  0.0310
 2749TIP3    H232443   1.726   3.480   7.132 -0.9294 -0.6266  1.2907
 2750TIP3   OH232444   0.834   5.844   9.109 -0.1976  0.8415 -0.7298
 2750TIP3    H132445   0.773   5.795   9.164  0.2667 -1.2678 -1.9800
 2750TIP3    H232446   0.899   5.878   9.170  1.7920 -3.5644  0.0083
 2751TIP3   OH232447   6.037   6.801   9.325  0.2790  0.0564 -0.0550
 2751TIP3    H132448   6.131   6.783   9.329  0.3021  0.3044  0.7574
 2751TIP3    H232449   5.997   6.716   9.304  0.6965  0.0002 -0.6443
 2752TIP3   OH232450   4.222   1.155   8.925 -0.0380 -0.1154 -0.0923
 2752TIP3    H132451   4.279   1.227   8.898  0.8641 -0.6182  0.4038
 2752TIP3    H232452   4.281   1.080   8.934 -0.6526 -0.4784  1.1628
 2753TIP3   OH232453   3.527   3.395   8.410 -0.0697  0.1567 -0.2470
 2753TIP3    H132454   3.436   3.419   8.427 -0.5143 -1.2844 -0.4550
 2753TIP3    H232455   3.525   3.352   8.325  0.8403  0.2596 -0.3308
 2754TIP3   OH232456   7.324   6.495   7.323  0.2473  0.4464  0.2505
 2754TIP3    H132457   7.384   6.567   7.306  0.8728  0.1843  1.2459
 2754TIP3    H232458   7.245   6.516   7.274  0.8869  1.1734 -0.4726
 2755TIP3   OH232459   0.880   2.657   6.946 -0.3615  0.3051  0.3889
 2755TIP3    H132460   0.925   2.720   6.890  0.8980  0.2387  1.2929
 2755TIP3    H232461   0.788   2.666   6.921  0.0504  0.9098 -1.0439
 2756TIP3   OH232462   2.814   0.116   7.889  0.1122 -0.3681 -0.3441
 2756TIP3    H132463   2.764   0.046   7.931 -1.0968  0.2062 -0.7766
 2756TIP3    H232464   2.891   0.073   7.854 -0.7887 -1.5684 -0.9259
 2757TIP3   OH232465   3.939   5.069   6.907 -0.5560  0.4565  0.0288
 2757TIP3    H132466   3.866   5.107   6.859  0.1663  2.0905  0.1241
 2757TIP3    H232467   3.945   4.979   6.877 -1.5460  0.7887 -1.2195
 2758TIP3   OH232468   1.564   2.587   7.897 -0.0338 -0.1585  0.0519
 2758TIP3    H132469   1.582   2.680   7.893 -0.0791 -0.0461  1.8366
 2758TIP3    H232470   1.598   2.552   7.815 -0.3574  1.4620 -0.8066
 2759TIP3   OH232471   0.632   5.869   8.081 -0.1131 -0.0562 -0.1162
 2759TIP3    H132472   0.715   5.912   8.099  0.3017 -0.7526 -0.3132
 2759TIP3    H232473   0.615   5.884   7.988  0.0379 -0.3187 -0.1878
 2760TIP3   OH232474   2.721   6.236   7.219  0.0192 -0.2836  0.6024
 2760TIP3    H132475   2.777   6.263   7.292  1.4029  0.1558 -0.5629
 2760TIP3    H232476   2.682   6.318   7.189  0.7238 -0.1969 -0.1301
 2761TIP3   OH232477   2.994   3.475   7.688 -0.9518 -0.0098  0.8345
 2761TIP3    H132478   2.910   3.521   7.696 -0.5490  0.9448 -0.3028
 2761TIP3    H232479   3.010   3.469   7.594 -0.8351 -2.2441  0.9298
 2762TIP3   OH232480   1.164   1.577   8.437  0.4702 -0.0008 -0.0570
 2762TIP3    H132481   1.151   1.501   8.379  2.5133  0.6700 -1.5382
 2762TIP3    H232482   1.259   1.580   8.451  0.4635  2.3436 -0.1501
 2763TIP3   OH232483   6.198   4.268   9.176  0.1982 -0.0174  0.3298
 2763TIP3    H132484   6.160   4.318   9.248  1.2379 -1.5041  1.9931
 2763TIP3    H232485   6.248   4.333   9.126 -1.1699  1.1885  0.4365
 2764TIP3   OH232486   4.139   5.584   9.021 -0.0625  0.5216  0.2109
 2764TIP3    H132487   4.103   5.621   8.941  0.5802  0.4331 -0.1243
 2764TIP3    H232488   4.135   5.489   9.008 -0.4800  0.4904  0.5230
 2765TIP3   OH232489   6.081   0.519   6.650 -0.5024  0.0971 -0.4824
 2765TIP3    H132490   6.094   0.613   6.665 -1.2603 -0.2563  3.2501
 2765TIP3    H232491   5.986   0.509   6.645 -0.4330 -0.5401 -0.5209
 2766TIP3   OH232492   7.251   1.166   6.796  0.7601  0.4581 -0.4021
 2766TIP3    H132493   7.215   1.233   6.855  3.4522  2.3852 -0.7872
 2766TIP3    H232494   7.284   1.098   6.854 -0.3889  0.2728  0.0715
 2767TIP3   OH232495   0.744   4.973   8.563  0.3447 -0.5520  0.0817
 2767TIP3    H132496   0.666   4.922   8.539 -0.3487  0.2964  0.4842
 2767TIP3    H232497   0.800   4.968   8.486 -0.1331 -1.1160 -0.2408
 2768TIP3   OH232498   5.391   5.464   6.766  0.5170 -0.1027 -0.4193
 2768TIP3    H132499   5.355   5.382   6.800  0.9359 -0.2465 -0.3160
 2768TIP3    H232500   5.383   5.526   6.840 -0.5578  0.1865 -0.7599
 2769TIP3   OH232501   4.726   1.239   8.846  0.6800 -0.1921 -0.1818
 2769TIP3    H132502   4.778   1.216   8.769  0.8138  2.1758 -0.8780
 2769TIP3    H232503   4.777   1.307   8.891 -0.3362 -0.0855  0.8828
 2770TIP3   OH232504   6.830   6.971   9.830  0.5090  0.7964  0.0249
 2770TIP3    H132505   6.910   7.023   9.823  0.3970  1.4357  2.4000
 2770TIP3    H232506   6.782   7.011   9.904 -1.4622 -0.2667 -0.5942
 2771TIP3   OH232507   6.939   0.027   9.327  0.5099 -0.3009 -0.2798
 2771TIP3    H132508   6.921   0.008   9.235  1.6468 -2.4557 -0.1224
 2771TIP3    H232509   7.026   0.067   9.327 -0.0345  0.9338 -0.2155
 2772TIP3   OH232510   1.391   7.504   8.841 -0.3414 -0.0923  0.1364
 2772TIP3    H132511   1.457   7.454   8.792 -0.1914  0.2497 -0.0175
 2772TIP3    H232512   1.380   7.456   8.923 -1.0444 -1.0143 -0.4798
 2773TIP3   OH232513   5.249   0.771   8.724 -0.2087  0.6268 -0.2823
 2773TIP3    H132514   5.241   0.866   8.726  0.9645  0.7243  1.3474
 2773TIP3    H232515   5.210   0.741   8.806  1.7424 -0.0562  0.4689
 2774TIP3   OH232516   6.100   5.951   8.825 -0.3533 -0.3320 -0.0375
 2774TIP3    H132517   6.076   6.008   8.752 -1.9094 -1.1989 -0.2401
 2774TIP3    H232518   6.054   5.989   8.900 -0.2869 -0.5429  0.1083
 2775TIP3   OH232519   1.280   4.719   7.622  0.5705  0.1553  0.3927
 2775TIP3    H132520   1.271   4.628   7.649  0.1187  0.4162  1.1406
 2775TIP3    H232521   1.352   4.718   7.559  0.3540 -0.7665  0.1410
 2776TIP3   OH232522   6.085   4.651   8.984  0.1750 -0.3809  0.5965
 2776TIP3    H132523   6.062   4.719   9.047 -0.5084 -0.1183  0.0748
 2776TIP3    H232524   6.005   4.601   8.971 -0.3612  0.8984 -1.6734
 2777TIP3   OH232525   4.407   6.299   9.018  0.8181  0.2417 -0.0717
 2777TIP3    H132526   4.418   6.296   9.113  0.4761  1.2822  0.0126
 2777TIP3    H232527   4.346   6.372   9.004  1.1430  0.3184 -1.1120
 2778TIP3   OH232528   3.025   1.444   7.583 -0.1464 -0.1359 -0.1761
 2778TIP3    H132529   3.097   1.395   7.543  0.5272 -0.0559  0.9015
 2778TIP3    H232530   2.954   1.380   7.591  0.6763 -0.9331  1.1008
 2779TIP3   OH232531   1.263   5.198   8.569  0.4873 -0.9136  0.2135
 2779TIP3    H132532   1.188   5.185   8.511  0.3420  0.4267  0.0664
 2779TIP3    H232533   1.242   5.148   8.648 -0.4778 -0.7097  0.0956
 2780TIP3   OH232534   2.166   3.941   8.177  0.0659  0.3852  0.1110
 2780TIP3    H132535   2.238   3.881   8.194 -0.5327  0.2095  2.3796
 2780TIP3    H232536   2.175   4.009   8.245 -1.8240  0.3850  0.4295
 2781TIP3   OH232537   2.147   7.290   9.160 -0.5951  0.1016  0.0215
 2781TIP3    H132538   2.184   7.267   9.075 -0.3692 -1.6221  0.5559
 2781TIP3    H232539   2.067   7.239   9.166 -1.1164  0.9388  0.4674
 2782TIP3   OH232540   6.254   3.206   7.759  0.1487  0.4079 -0.3522
 2782TIP3    H132541   6.242   3.301   7.755  1.4461  0.6880  1.3093
 2782TIP3    H232542   6.274   3.188   7.851  0.3333 -1.4317 -0.7103
 2783TIP3   OH232543   6.299   2.657   7.701  0.1228 -0.0548  0.2952
 2783TIP3    H132544   6.234   2.716   7.663  1.1660  0.2012 -1.1584
 2783TIP3    H232545   6.311   2.689   7.791 -0.0447  1.3498 -0.1628
 2784TIP3   OH232546   6.578   3.074   7.799  0.5398  0.4816 -0.2293
 2784TIP3    H132547   6.537   3.041   7.718  0.6152 -0.2703  0.0318
 2784TIP3    H232548   6.626   2.999   7.834  2.5453  1.4285 -0.7576
 2785TIP3   OH232549   6.756   4.872   8.801  0.2995 -0.5468 -0.1174
 2785TIP3    H132550   6.679   4.852   8.854 -0.1752 -1.0735 -0.9935
 2785TIP3    H232551   6.767   4.966   8.811  0.0178 -0.5804  0.6376
 2786TIP3   OH232552   3.002   2.459   8.464 -0.1746 -0.3710 -0.2368
 2786TIP3    H132553   2.914   2.486   8.489 -0.4944 -0.1644 -1.5170
 2786TIP3    H232554   3.049   2.450   8.547 -1.0241  0.8035  0.3957
 2787TIP3   OH232555   2.221   1.259   7.798 -0.2090  0.1368  0.0935
 2787TIP3    H132556   2.162   1.227   7.730 -1.4701  0.0234  1.2022
 2787TIP3    H232557   2.165   1.272   7.874  1.6344 -2.8271  2.1380
 2788TIP3   OH232558   1.261   2.243   9.209  0.2047 -0.1861 -0.1029
 2788TIP3    H132559   1.188   2.200   9.254 -2.1270  0.7748 -2.6897
 2788TIP3    H232560   1.294   2.307   9.273  1.0741 -2.8273  2.3230
 2789TIP3   OH232561   3.552   3.000   8.510 -0.1291 -0.9922  0.4556
 2789TIP3    H132562   3.597   3.021   8.592  0.9999  0.8050 -0.5571
 2789TIP3    H232563   3.601   2.925   8.475  1.1227 -0.0740  0.1553
 2790TIP3   OH232564   2.965   2.419   6.819  0.1902 -0.2643  0.1522
 2790TIP3    H132565   2.905   2.345   6.814  1.3355 -1.3240  1.4445
 2790TIP3    H232566   2.925   2.477   6.884 -0.4361  0.0141 -0.4683
 2791TIP3   OH232567   5.136   5.889   9.433  0.0333 -0.1360 -0.0288
 2791TIP3    H132568   5.169   5.948   9.366 -1.2409 -0.7752 -1.2501
 2791TIP3    H232569   5.102   5.947   9.501  0.5820  0.5140 -0.2882
 2792TIP3   OH232570   7.204   3.969   7.779  0.2005  0.0448  0.1622
 2792TIP3    H132571   7.251   3.919   7.711  0.4050  1.7379 -1.0165
 2792TIP3    H232572   7.258   4.047   7.791 -2.3797  2.2492 -1.4752
 2793TIP3   OH232573   3.671   6.400   7.054  0.2867 -0.3247 -0.3395
 2793TIP3    H132574   3.607   6.453   7.007 -0.0660 -0.4912 -0.0599
 2793TIP3    H232575   3.710   6.344   6.987 -0.1704 -0.5227 -0.4431
 2794TIP3   OH232576   7.397   6.514   7.963  0.7425 -0.0881 -0.0337
 2794TIP3    H132577   7.489   6.488   7.962  1.5764  2.5740 -1.8752
 2794TIP3    H232578   7.383   6.551   8.050  1.2676 -0.8644  0.3921
 2795TIP3   OH232579   7.132   6.134   8.161 -0.4015  0.5248  0.3202
 2795TIP3    H132580   7.085   6.080   8.097  0.6217 -0.6974  0.5437
 2795TIP3    H232581   7.210   6.163   8.113 -0.9187  1.7983  0.2213
 2796TIP3   OH232582   7.260   0.706   7.267 -0.1503 -0.3953 -0.4857
 2796TIP3    H132583   7.354   0.715   7.281 -0.1422 -1.2122  0.0145
 2796TIP3    H232584   7.220   0.749   7.343 -0.1841 -0.0551 -0.6943
 2797TIP3   OH232585   5.611   4.055   7.831 -0.2873 -0.3763  0.3955
 2797TIP3    H132586   5.640   4.021   7.915  0.8776 -0.2571  0.0517
 2797TIP3    H232587   5.669   4.130   7.813 -1.0156  0.0766 -0.1561
 2798TIP3   OH232588   5.210   0.729   8.994  0.8133  0.1472 -0.0398
 2798TIP3    H132589   5.272   0.669   9.036  2.4160  1.4372 -0.4592
 2798TIP3    H232590   5.195   0.797   9.060  1.0289  0.6214 -0.4753
 2799TIP3   OH232591   2.522   3.754   7.774 -0.4860 -0.1436 -0.1409
 2799TIP3    H132592   2.433   3.728   7.750  0.5182 -0.1705 -4.6465
 2799TIP3    H232593   2.511   3.835   7.823 -2.9925  0.4003 -1.4378
 2800TIP3   OH232594   0.969   4.747   8.454  0.7260  0.4605 -0.0992
 2800TIP3    H132595   0.925   4.811   8.398 -0.1397 -0.4373 -0.4837
 2800TIP3    H232596   0.980   4.791   8.538  0.8638  1.3739 -0.5879
 2801TIP3   OH232597   3.655   2.625   7.991 -0.2104  0.3931  0.1117
 2801TIP3    H132598   3.608   2.575   8.057 -0.1418 -1.2627 -1.0391
 2801TIP3    H232599   3.592   2.691   7.962 -0.5108  0.6239  1.2479
 2802TIP3   OH232600   2.433   2.082   9.366  0.6801 -0.1807 -0.1374
 2802TIP3    H132601   2.429   2.036   9.450  1.5095 -0.7216 -0.3840
 2802TIP3    H232602   2.467   2.017   9.304  0.1003  0.2171 -0.8984
 2803TIP3   OH232603   3.087   7.290   6.769 -0.2976 -0.1820 -0.2034
 2803TIP3    H132604   3.026   7.305   6.842 -1.8854 -2.6949 -0.9075
 2803TIP3    H232605   3.057   7.209   6.728  2.3252 -0.4244 -1.8935
 2804TIP3   OH232606   5.071   4.705   7.139 -0.3388 -0.3240  0.1536
 2804TIP3    H132607   5.079   4.764   7.065  0.4531  0.1764  0.6221
 2804TIP3    H232608   4.980   4.676   7.137 -0.5000  0.2104 -0.6079
 2805TIP3   OH232609   2.867   3.267   9.090 -0.0936 -0.3767 -0.3897
 2805TIP3    H132610   2.843   3.359   9.103 -0.5634 -0.6307  0.6869
 2805TIP3    H232611   2.929   3.268   9.018  0.0999  0.8179 -0.2264
 2806TIP3   OH232612   7.091   3.144   8.820  0.5825  0.3443  0.1406
 2806TIP3    H132613   7.185   3.161   8.822  0.4740  0.9307  0.8108
 2806TIP3    H232614   7.051   3.230   8.831 -0.0489  0.1904 -0.8193
 2807TIP3   OH232615   2.184   0.940   7.448 -0.5878  0.3143 -0.2791
 2807TIP3    H132616   2.169   1.010   7.385 -1.1988 -0.1214 -0.6364
 2807TIP3    H232617   2.126   0.869   7.419 -1.7065  0.4831  1.3897
 2808TIP3   OH232618   5.670   4.051   8.817 -0.2671 -0.2390 -0.2622
 2808TIP3    H132619   5.703   4.041   8.906  0.5965 -0.1362 -0.5577
 2808TIP3    H232620   5.742   4.093   8.769  0.9055 -3.8310 -1.9721
 2809TIP3   OH232621   7.092   2.943   7.723  0.3290 -0.1314  0.0372
 2809TIP3    H132622   7.000   2.935   7.749  0.5825 -0.2865  0.9028
 2809TIP3    H232623   7.140   2.895   7.790  1.0569  0.0412 -0.3537
 2810TIP3   OH232624   7.528   7.178   7.564  0.5043 -0.1868  0.5615
 2810TIP3    H132625   7.575   7.112   7.615  1.4804 -0.2323 -0.3607
 2810TIP3    H232626   7.577   7.185   7.482 -0.3509  0.7281  0.0981
 2811TIP3   OH232627   7.413   0.600   9.082 -0.3323 -0.0008  0.1954
 2811TIP3    H132628   7.323   0.577   9.059 -1.5022 -0.0865  4.1994
 2811TIP3    H232629   7.421   0.693   9.058 -3.2873  1.4758  3.8380
 2812TIP3   OH232630   3.150   4.555   8.609 -0.3141 -0.3231 -0.0137
 2812TIP3    H132631   3.196   4.472   8.623  0.8378  0.7068  3.3156
 2812TIP3    H232632   3.069   4.546   8.660 -1.3219 -0.2142 -1.5529
 2813TIP3   OH232633   2.991   2.298   8.213  0.3767 -0.7138  0.2411
 2813TIP3    H132634   2.900   2.270   8.205  0.2848 -0.4578  0.4079
 2813TIP3    H232635   2.993   2.352   8.291  0.5607 -0.2642 -0.0709
 2814TIP3   OH232636   0.462   2.446   8.095  0.0094  1.0019  0.6053
 2814TIP3    H132637   0.541   2.465   8.045 -0.3559  1.2080  0.0987
 2814TIP3    H232638   0.487   2.464   8.186  0.5525  1.0344  0.4547
 2815TIP3   OH232639   4.399   5.563   8.044  0.4374  0.0784 -0.4243
 2815TIP3    H132640   4.309   5.549   8.013 -0.0726 -3.8300  1.9972
 2815TIP3    H232641   4.454   5.523   7.977 -0.2061 -2.9055  0.6793
 2816TIP3   OH232642   2.773   2.207   6.806 -0.5350 -0.6733  0.3068
 2816TIP3    H132643   2.814   2.149   6.742  0.9688 -0.1188  0.7290
 2816TIP3    H232644   2.679   2.185   6.802 -0.1616 -2.2670 -0.3879
 2817TIP3   OH232645   1.591   4.007   9.731 -0.0361  0.0462  0.3481
 2817TIP3    H132646   1.666   3.950   9.714 -0.8401 -0.9802  0.1237
 2817TIP3    H232647   1.569   3.990   9.822  0.2306  0.6464  0.5327
 2818TIP3   OH232648   4.576   2.554   7.759 -0.5144 -0.1742  0.1821
 2818TIP3    H132649   4.542   2.464   7.754  0.1579 -0.3688 -1.5694
 2818TIP3    H232650   4.671   2.544   7.747 -0.6407  0.8828 -2.5062
 2819TIP3   OH232651   2.868   0.407   7.978 -0.2350 -0.4346  0.0351
 2819TIP3    H132652   2.881   0.433   7.887 -3.1312  1.1596 -0.0595
 2819TIP3    H232653   2.811   0.331   7.973  0.4748 -1.0087  0.5228
 2820TIP3   OH232654   3.569   6.372   7.335 -0.0108  0.1416  0.3951
 2820TIP3    H132655   3.489   6.350   7.288 -0.9176  1.5455  1.2307
 2820TIP3    H232656   3.638   6.367   7.268 -1.0961  0.9387 -0.8386
 2821TIP3   OH232657   4.417   0.545   9.529  0.3119  0.0165 -0.0823
 2821TIP3    H132658   4.359   0.475   9.500 -1.1615  1.2699 -0.2906
 2821TIP3    H232659   4.411   0.543   9.624  0.0460  0.0386 -0.0970
 2822TIP3   OH232660   0.838   5.668   7.347 -0.0796 -0.1004  0.3349
 2822TIP3    H132661   0.893   5.651   7.270 -0.6975 -1.4254  0.1503
 2822TIP3    H232662   0.760   5.613   7.333 -1.2800  1.4247  0.7844
 2823TIP3   OH232663   4.956   2.866   7.556  0.0996  0.7652  0.0147
 2823TIP3    H132664   5.037   2.847   7.508 -1.8844 -0.7406 -3.0676
 2823TIP3    H232665   4.920   2.780   7.577 -0.4759  1.4112  1.8346
 2824TIP3   OH232666   3.023   1.950   7.658 -0.3971 -0.7367 -0.0971
 2824TIP3    H132667   2.969   1.883   7.616 -1.9144 -0.2362  0.9440
 2824TIP3    H232668   3.044   1.914   7.744 -3.1363  0.8862  1.4071
 2825TIP3   OH232669   7.129   1.049   7.186 -0.2307  0.3952 -0.0683
 2825TIP3    H132670   7.218   1.013   7.190 -0.3019 -0.5697 -3.8255
 2825TIP3    H232671   7.122   1.102   7.265  2.7005 -1.5936  1.7339
 2826TIP3   OH232672   4.240   3.673   8.352 -0.1182  0.1467 -0.5421
 2826TIP3    H132673   4.288   3.605   8.305 -0.9380  0.2011 -1.5007
 2826TIP3    H232674   4.207   3.731   8.283 -1.5440  0.1068  0.0607
 2827TIP3   OH232675   3.862   3.255   7.660 -0.2478 -0.3011  0.2692
 2827TIP3    H132676   3.797   3.191   7.690  1.0211 -1.4510  0.6631
 2827TIP3    H232677   3.810   3.325   7.621 -1.7196 -1.2228  0.4852
 2828TIP3   OH232678   2.215   3.231   7.220  0.4429 -0.1418  0.2046
 2828TIP3    H132679   2.147   3.180   7.176  0.4536 -0.2024  0.2580
 2828TIP3    H232680   2.166   3.293   7.275  0.4329 -0.2874  0.3582
 2829TIP3   OH232681   3.489   2.927   7.490  0.3656  0.0988  0.0573
 2829TIP3    H132682   3.483   3.009   7.539  0.6596  0.5996 -0.7130
 2829TIP3    H232683   3.400   2.913   7.457  0.5036  0.5809 -0.5365
 2830TIP3   OH232684   6.036   0.865   8.576  0.2967  0.1053 -0.1665
 2830TIP3    H132685   6.059   0.776   8.551 -0.6245 -0.3266  0.4744
 2830TIP3    H232686   6.051   0.917   8.497 -1.1833 -0.9774 -1.2102
 2831TIP3   OH232687   2.803   0.948   8.602  0.0531 -0.3550  0.5844
 2831TIP3    H132688   2.755   0.866   8.593  0.5652 -0.9898  2.9485
 2831TIP3    H232689   2.742   1.015   8.570  0.0977 -1.6635 -2.6750
 2832TIP3   OH232690   1.094   4.396   8.769  0.4195  0.1222 -0.2425
 2832TIP3    H132691   1.026   4.409   8.702  1.0363  1.2659 -0.6601
 2832TIP3    H232692   1.096   4.478   8.817  0.6948 -0.3360  0.5383
 2833TIP3   OH232693   4.939   6.519   7.014 -0.1829  0.1052 -0.1772
 2833TIP3    H132694   4.957   6.560   6.929  0.0305  2.9221  1.0968
 2833TIP3    H232695   5.023   6.517   7.058 -0.7894  1.8867  1.1902
 2834TIP3   OH232696   1.978   1.570   8.559  0.0853  0.4075 -0.3303
 2834TIP3    H132697   1.996   1.536   8.646  1.1837 -0.6079 -0.9201
 2834TIP3    H232698   1.884   1.556   8.546 -1.2273  4.7949  2.4119
 2835TIP3   OH232699   6.770   0.310   9.140 -0.1675 -0.6979  0.2315
 2835TIP3    H132700   6.846   0.326   9.197 -0.3226 -2.0240  0.8482
 2835TIP3    H232701   6.724   0.394   9.138 -0.1711 -0.5976  2.1277
 2836TIP3   OH232702   2.392   3.800   8.263  0.0242 -0.0639  0.4320
 2836TIP3    H132703   2.433   3.876   8.221 -0.8828  0.8050  1.0524
 2836TIP3    H232704   2.459   3.732   8.262  0.6700  0.5577 -0.6649
 2837TIP3   OH232705   2.685   3.346   6.975 -0.5513 -0.1232  0.3853
 2837TIP3    H132706   2.658   3.263   6.936  3.5457 -1.4506 -0.1317
 2837TIP3    H232707   2.741   3.387   6.908  0.3281  1.3373  1.9281
 2838TIP3   OH232708   3.495   1.612   8.263  0.4689 -0.2463 -0.3272
 2838TIP3    H132709   3.498   1.695   8.311  0.4547 -0.7887  0.6548
 2838TIP3    H232710   3.576   1.567   8.288  0.2718 -0.7097 -0.4966
 2839TIP3   OH232711   2.075   7.398   8.498  0.3989  0.1709 -0.2438
 2839TIP3    H132712   2.058   7.350   8.579 -0.9075  0.4341 -0.3391
 2839TIP3    H232713   2.160   7.366   8.469  0.2150 -1.0266  0.4568
 2840TIP3   OH232714   1.968   5.290   9.361 -0.4936 -0.3520  0.7859
 2840TIP3    H132715   1.992   5.323   9.447 -0.0694 -1.3797  1.0661
 2840TIP3    H232716   2.046   5.246   9.329 -0.8709 -0.5924  0.1764
 2841TIP3   OH232717   3.587   6.049   7.508 -0.4952  0.4054 -0.3178
 2841TIP3    H132718   3.680   6.069   7.509 -0.6589  1.3432 -1.6973
 2841TIP3    H232719   3.552   6.090   7.587  0.0443  1.1693 -0.4723
 2842TIP3   OH232720   3.239   4.307   8.644 -0.4472 -0.3644  0.3861
 2842TIP3    H132721   3.219   4.269   8.558 -1.2235 -0.9564  0.8204
 2842TIP3    H232722   3.240   4.233   8.704  0.3848  0.0110  0.8558
 2843TIP3   OH232723   4.590   6.825   8.636 -0.1738 -0.0293  0.6913
 2843TIP3    H132724   4.516   6.875   8.669  0.5336  0.7884  1.0614
 2843TIP3    H232725   4.564   6.733   8.649 -0.8014  0.2491  1.5249
 2844TIP3   OH232726   0.021   5.583   8.829  0.2726 -0.1670 -0.5259
 2844TIP3    H132727  -0.020   5.611   8.748 -1.7643  0.6313  0.7049
 2844TIP3    H232728   0.000   5.489   8.836 -2.3589  0.4060  0.5375
 2845TIP3   OH232729   1.140   0.681   8.301  0.0462 -0.3697 -0.1513
 2845TIP3    H132730   1.200   0.639   8.363 -2.3028 -1.7687  1.3325
 2845TIP3    H232731   1.057   0.634   8.313 -1.3522  1.4414 -2.1084
 2846TIP3   OH232732   1.409   3.947   7.378  0.2403  0.1920  0.2977
 2846TIP3    H132733   1.318   3.934   7.406  0.1677  2.0608  1.0975
 2846TIP3    H232734   1.407   3.934   7.283 -0.5855 -1.0506  0.4632
 2847TIP3   OH232735   2.967   3.993   8.127  0.2052 -0.3201 -0.5106
 2847TIP3    H132736   3.044   3.947   8.092  1.8901  0.3196  2.0803
 2847TIP3    H232737   2.992   4.085   8.126 -1.9063  0.3273 -2.6921
 2848TIP3   OH232738   6.878   1.989   8.982 -0.5440 -0.1002 -0.0100
 2848TIP3    H132739   6.835   1.905   9.000 -1.3710 -0.1147 -1.8119
 2848TIP3    H232740   6.883   1.993   8.886  4.4345 -0.5408  0.0010
 2849TIP3   OH232741   7.543   6.494   8.878 -0.0465  0.4257 -0.0596
 2849TIP3    H132742   7.517   6.472   8.788 -0.9824  0.0073  0.3072
 2849TIP3    H232743   7.460   6.500   8.926  0.5269 -1.3986  1.2582
 2850TIP3   OH232744   0.955   2.667   7.208 -0.6149 -0.0586 -0.3831
 2850TIP3    H132745   0.935   2.673   7.115  0.1689 -0.6705 -0.6045
 2850TIP3    H232746   0.890   2.606   7.243 -1.4217  0.7913 -0.3524
 2851TIP3   OH232747   0.890   1.067   8.523  0.1892 -0.2452 -0.0228
 2851TIP3    H132748   0.930   1.036   8.441  1.4253 -0.2869  0.5769
 2851TIP3    H232749   0.916   1.159   8.529 -1.0346  0.1432 -0.3312
 2852TIP3   OH232750   7.515   2.564   7.837 -0.0388 -0.2022 -0.4634
 2852TIP3    H132751   7.501   2.654   7.809  0.6299  0.2261  0.5413
 2852TIP3    H232752   7.581   2.530   7.776 -1.2149 -0.4381 -1.6432
 2853TIP3   OH232753   2.565   2.469   6.957 -0.3257 -0.2534  0.5326
 2853TIP3    H132754   2.638   2.463   6.896 -0.0992  0.9929  0.6416
 2853TIP3    H232755   2.568   2.560   6.989 -1.4613 -0.3968  1.1078
 2854TIP3   OH232756   5.860   1.335   8.935  0.8459  0.3111  0.2341
 2854TIP3    H132757   5.802   1.380   8.998  0.1595 -0.5511  0.2315
 2854TIP3    H232758   5.852   1.243   8.957 -0.4659 -0.1703 -1.9680
 2855TIP3   OH232759   5.725   0.785   7.357 -0.2515 -0.0826 -0.4604
 2855TIP3    H132760   5.737   0.880   7.345 -0.8172  0.2291  1.1502
 2855TIP3    H232761   5.670   0.778   7.436 -2.8413 -1.6450 -2.2337
 2856TIP3   OH232762   6.783   4.065   8.343 -0.2662  0.3459 -0.2248
 2856TIP3    H132763   6.820   4.137   8.393  1.6989  0.0135 -1.1012
 2856TIP3    H232764   6.743   4.107   8.267 -1.1661  0.6592  0.4052
 2857TIP3   OH232765   1.536   3.548   9.314 -0.4039 -0.2969  0.1323
 2857TIP3    H132766   1.519   3.617   9.251  0.1406 -1.2762 -1.1155
 2857TIP3    H232767   1.599   3.491   9.272  1.1224 -0.2127  2.1308
 2858TIP3   OH232768   6.836   7.378   6.911 -0.6056 -0.1109 -0.3125
 2858TIP3    H132769   6.872   7.317   6.976 -0.7897 -1.1197 -1.1174
 2858TIP3    H232770   6.791   7.445   6.962 -0.6497 -0.8241  0.6067
 2859TIP3   OH232771   5.544   1.721   9.344  0.2154 -0.2115 -0.6152
 2859TIP3    H132772   5.463   1.683   9.379  0.2590  0.8911  0.7735
 2859TIP3    H232773   5.516   1.782   9.276 -0.1328  0.1318 -0.1683
 2860TIP3   OH232774   1.405   4.311   7.451  0.3181  0.3031  0.7991
 2860TIP3    H132775   1.448   4.248   7.509  1.4871  2.2656  2.1859
 2860TIP3    H232776   1.326   4.266   7.420 -0.3547 -0.8839  3.9157
 2861TIP3   OH232777   0.548   5.035   6.907 -0.1267 -0.0207  0.4676
 2861TIP3    H132778   0.485   5.004   6.843  0.1559 -4.1049  1.9251
 2861TIP3    H232779   0.496   5.059   6.983 -0.1352  0.1263  0.4166
 2862TIP3   OH232780   2.373   6.550   8.371  0.1785 -0.3426  0.0334
 2862TIP3    H132781   2.386   6.559   8.465  1.2988 -2.2772  0.1246
 2862TIP3    H232782   2.415   6.467   8.349 -0.2465 -0.0450 -2.1462
 2863TIP3   OH232783   4.769   3.971   7.787 -0.7776 -0.0159  0.1781
 2863TIP3    H132784   4.712   4.035   7.831 -0.3077  1.3475 -1.1276
 2863TIP3    H232785   4.816   3.929   7.859 -2.8457 -0.6541  1.2435
 2864TIP3   OH232786   6.695   7.498   9.691  0.0685 -0.1547  0.0647
 2864TIP3    H132787   6.621   7.441   9.707 -0.2143  0.1355 -0.1916
 2864TIP3    H232788   6.680   7.534   9.603  1.2746 -1.2452 -0.6324
 2865TIP3   OH232789   6.344   1.945   7.202 -0.4273  0.3618  0.4743
 2865TIP3    H132790   6.355   1.892   7.281  0.3229 -0.2017  0.0003
 2865TIP3    H232791   6.253   1.929   7.175 -0.5494  0.2001  0.9566
 2866TIP3   OH232792   1.124   2.704   9.083 -0.0343 -0.3471  0.0166
 2866TIP3    H132793   1.104   2.615   9.052  1.1923 -0.7845  0.4244
 2866TIP3    H232794   1.063   2.760   9.034  0.5145 -1.2059 -1.7471
 2867TIP3   OH232795   3.485   6.056   7.223 -0.3733 -0.4439  0.1733
 2867TIP3    H132796   3.543   6.056   7.299  1.6853  0.3062 -1.2719
 2867TIP3    H232797   3.451   6.145   7.219  1.6852  0.3755 -1.1945
 2868TIP3   OH232798   7.598   2.227   8.169  0.0706 -0.2466  0.1275
 2868TIP3    H132799   7.658   2.287   8.213  0.5785 -0.7598  0.1556
 2868TIP3    H232800   7.623   2.140   8.202 -0.1268 -0.5485 -0.4967
 2869TIP3   OH232801   6.918   1.692   8.737 -0.4003 -0.1303 -0.0485
 2869TIP3    H132802   6.886   1.716   8.824 -0.4848  0.7966 -0.3281
 2869TIP3    H232803   6.906   1.771   8.684  2.6645  0.4455 -0.0887
 2870TIP3   OH232804   4.021   2.557   9.302  0.1213 -0.2189 -0.3390
 2870TIP3    H132805   4.115   2.552   9.286  0.3926 -0.7340  1.2115
 2870TIP3    H232806   3.992   2.635   9.254  1.2457 -0.3098 -1.1974
 2871TIP3   OH232807   0.928   4.491   7.325 -0.0819  0.0571  0.5137
 2871TIP3    H132808   0.896   4.560   7.266 -0.5614  0.1653  0.8872
 2871TIP3    H232809   1.003   4.454   7.280 -1.0239 -0.5350 -0.6397
 2872TIP3   OH232810   5.104   7.268   8.502  0.2596 -0.0828 -0.3168
 2872TIP3    H132811   5.069   7.188   8.464  0.6705 -1.1849  1.4993
 2872TIP3    H232812   5.184   7.286   8.451  0.3117 -0.9747 -0.5579
 2873TIP3   OH232813   6.301   4.259   7.546  0.3099 -0.0819  0.4415
 2873TIP3    H132814   6.296   4.254   7.450 -1.0656 -0.7141  0.5244
 2873TIP3    H232815   6.306   4.168   7.575 -0.0229  0.0664  0.9912
 2874TIP3   OH232816   6.582   6.537   9.436  0.3507  0.0472 -0.5325
 2874TIP3    H132817   6.601   6.621   9.395  0.3782  1.1328  1.5924
 2874TIP3    H232818   6.666   6.509   9.472  0.1441 -0.4478 -0.4322
 2875TIP3   OH232819   1.102   3.426   7.270 -0.2064  0.0522 -0.9062
 2875TIP3    H132820   1.125   3.406   7.179  0.1485  1.0794 -1.0609
 2875TIP3    H232821   1.019   3.474   7.263 -1.0097 -1.2306 -0.5521
 2876TIP3   OH232822   1.542   0.043   8.735 -0.2450 -0.1752  0.3761
 2876TIP3    H132823   1.633   0.014   8.726 -0.4471 -1.2165  1.3373
 2876TIP3    H232824   1.505  -0.017   8.800 -1.2197  1.1385  1.0839
 2877TIP3   OH232825   6.440   5.681   9.398 -0.2848  0.3399  0.0804
 2877TIP3    H132826   6.361   5.728   9.426 -0.3140  0.1493  0.3222
 2877TIP3    H232827   6.407   5.598   9.363 -0.1627  0.0755  0.5837
 2878TIP3   OH232828   1.929   6.092   8.959 -0.5827 -0.1256  0.2170
 2878TIP3    H132829   1.852   6.119   8.909  0.6283  0.4270 -1.4612
 2878TIP3    H232830   1.927   6.146   9.038 -0.3888  1.9968 -1.1609
 2879TIP3   OH232831   2.962   1.770   9.196  0.5430  0.0434 -0.5439
 2879TIP3    H132832   3.042   1.780   9.144  1.8746  0.1708  1.3931
 2879TIP3    H232833   2.940   1.677   9.189  0.0036  0.2645 -2.2185
 2880TIP3   OH232834   4.869   1.647   8.976 -0.0335  0.1855  0.6068
 2880TIP3    H132835   4.795   1.707   8.986  0.5670  1.0290  0.1083
 2880TIP3    H232836   4.945   1.699   9.000  0.5478 -0.2368 -0.2843
 2881TIP3   OH232837   2.168   6.400   9.072 -0.5749 -0.2452 -0.1914
 2881TIP3    H132838   2.083   6.433   9.043 -0.8029 -0.2051  0.4862
 2881TIP3    H232839   2.198   6.465   9.136 -0.1742 -0.4087 -0.2141
 2882TIP3   OH232840   0.640   3.962   8.247 -0.2560 -0.3047  0.0242
 2882TIP3    H132841   0.650   3.869   8.228 -1.1708 -0.4809  0.3513
 2882TIP3    H232842   0.630   4.003   8.161 -3.3916 -0.9707 -0.0365
 2883TIP3   OH232843   5.058   2.045   7.982  0.0654 -0.2089  0.0399
 2883TIP3    H132844   5.055   1.983   8.055 -3.1309 -0.7682 -0.4319
 2883TIP3    H232845   4.984   2.103   7.997  0.2080  0.5661 -1.9982
 2884TIP3   OH232846   0.550   7.224   9.315 -0.0033 -0.1634 -0.0348
 2884TIP3    H132847   0.599   7.196   9.238 -0.3109 -2.6496  0.5815
 2884TIP3    H232848   0.519   7.142   9.354  0.1987  1.0047  2.7772
 2885TIP3   OH232849   1.107   3.088   8.871  0.6645 -0.5012  0.1021
 2885TIP3    H132850   1.038   3.141   8.911  0.4676 -1.7541  1.5420
 2885TIP3    H232851   1.135   3.029   8.941  2.3337 -0.8696 -0.8255
 2886TIP3   OH232852   3.110   0.365   7.708  0.5158  0.5589  0.1825
 2886TIP3    H132853   3.018   0.385   7.723  0.1636 -0.6184 -0.2458
 2886TIP3    H232854   3.122   0.371   7.613  0.2000 -1.7504 -0.0785
 2887TIP3   OH232855   2.153   2.432   9.366 -0.3535  0.2794  0.1486
 2887TIP3    H132856   2.116   2.348   9.391  1.1966  0.0238  1.7815
 2887TIP3    H232857   2.083   2.496   9.381 -0.7549 -0.4106  1.3174
 2888TIP3   OH232858   0.665   6.347   8.936 -0.3706 -0.1859 -0.4022
 2888TIP3    H132859   0.745   6.400   8.940 -0.2693 -0.4325  1.9074
 2888TIP3    H232860   0.692   6.262   8.971 -1.6365 -0.2621  0.4299
 2889TIP3   OH232861   7.432   4.613   7.212 -0.4789  0.3876 -0.5851
 2889TIP3    H132862   7.412   4.693   7.262  0.4252 -0.0799  0.5781
 2889TIP3    H232863   7.516   4.584   7.248 -0.1029 -0.3105 -1.9904
 2890TIP3   OH232864   6.708   0.885   6.945 -0.2761 -0.6884 -0.5866
 2890TIP3    H132865   6.700   0.946   6.872 -1.2655 -0.8094 -0.5956
 2890TIP3    H232866   6.641   0.819   6.928 -1.1636 -0.2181  0.8833
 2891TIP3   OH232867   2.841   5.673   7.373 -0.4015  0.8993  0.4227
 2891TIP3    H132868   2.838   5.769   7.379 -1.0608  0.8959  0.1512
 2891TIP3    H232869   2.934   5.652   7.386  0.0579  1.6958 -1.2129
 2892TIP3   OH232870   3.222   6.062   7.339  0.5277 -0.5732  0.9521
 2892TIP3    H132871   3.301   6.017   7.309  0.6395  0.7659 -0.9387
 2892TIP3    H232872   3.156   6.042   7.273 -1.0132 -2.2519  2.8681
 2893TIP3   OH232873   2.696   7.239   8.307 -0.2582  0.8085  0.4351
 2893TIP3    H132874   2.701   7.275   8.218 -0.5469  1.0920  0.5359
 2893TIP3    H232875   2.781   7.196   8.319 -0.4577  0.2229 -0.2116
 2894TIP3   OH232876   0.929   2.174   9.230  0.1881  0.0927 -0.3198
 2894TIP3    H132877   0.966   2.171   9.142  1.1949 -0.9242  0.1072
 2894TIP3    H232878   0.959   2.093   9.271  0.3975  0.9033  1.2092
 2895TIP3   OH232879   1.638   3.553   8.278 -0.8556  0.3573 -0.8021
 2895TIP3    H132880   1.544   3.562   8.262 -1.6291 -2.2151  1.5526
 2895TIP3    H232881   1.655   3.608   8.354 -0.5832  0.2287 -0.7695
 2896TIP3   OH232882   1.867   1.571   9.004  0.0445 -0.2854  0.0141
 2896TIP3    H132883   1.827   1.549   8.920  1.0727  1.2801 -0.9316
 2896TIP3    H232884   1.804   1.540   9.069 -1.0758 -0.9612 -1.3346
 2897TIP3   OH232885   7.282   3.218   7.921  0.0502  0.1498 -0.0561
 2897TIP3    H132886   7.364   3.254   7.954 -0.9216  0.9868  1.5370
 2897TIP3    H232887   7.215   3.250   7.981 -1.6119  0.3600 -1.9012
 2898TIP3   OH232888   2.063   4.505   9.261  0.2545  0.2686 -0.2712
 2898TIP3    H132889   1.974   4.469   9.261  0.0559  0.7536 -0.4464
 2898TIP3    H232890   2.098   4.479   9.176 -0.1886  1.2031 -0.7551
 2899TIP3   OH232891   3.926   0.218   6.880  0.1423 -0.0598 -0.1653
 2899TIP3    H132892   3.872   0.295   6.863  0.2065 -0.0225 -0.1984
 2899TIP3    H232893   3.920   0.166   6.799 -0.6703 -0.5507  0.1932
 2900TIP3   OH232894   2.556   1.037   8.810 -0.0261 -0.7084 -0.4565
 2900TIP3    H132895   2.537   1.062   8.719 -0.9203 -2.8244 -0.9076
 2900TIP3    H232896   2.559   0.941   8.808  1.6042 -0.7552  1.4521
 2901TIP3   OH232897   0.671   5.106   7.207  0.3696  0.1220  0.4956
 2901TIP3    H132898   0.629   5.166   7.146  0.7562 -0.8906 -0.8046
 2901TIP3    H232899   0.607   5.037   7.221  0.5913 -0.0670  0.5936
 2902TIP3   OH232900   5.627   3.671   9.012 -0.4306  0.6490  0.3479
 2902TIP3    H132901   5.685   3.650   9.085 -2.7230 -1.4441  1.7487
 2902TIP3    H232902   5.656   3.614   8.941 -0.7255 -0.4028  1.0433
 2903TIP3   OH232903   4.191   5.502   7.421  0.0938  0.6699 -1.0943
 2903TIP3    H132904   4.230   5.471   7.503  0.1998 -0.3304 -1.5055
 2903TIP3    H232905   4.122   5.438   7.402  1.0047  0.0721 -2.5136
 2904TIP3   OH232906   0.314   3.815   6.765  0.3754  0.5312  0.1249
 2904TIP3    H132907   0.261   3.746   6.803  1.2534  0.4180  1.1943
 2904TIP3    H232908   0.322   3.792   6.672  0.2147 -0.5141  0.3635
 2905TIP3   OH232909   6.072   6.606   6.878  0.5077 -0.4113 -0.0804
 2905TIP3    H132910   6.139   6.671   6.901 -0.6358  0.3029  1.3682
 2905TIP3    H232911   6.015   6.602   6.954  0.8779 -3.6333  0.1463
 2906TIP3   OH232912   3.645   7.552   9.424 -0.2730 -0.3191  0.2527
 2906TIP3    H132913   3.582   7.543   9.353  1.3348  1.2844 -1.4974
 2906TIP3    H232914   3.716   7.493   9.400  1.5852  2.2847 -1.1147
 2907TIP3   OH232915   3.595   7.350   6.842 -0.0491  0.2065 -0.3186
 2907TIP3    H132916   3.615   7.423   6.901 -0.0774 -0.6421  0.7615
 2907TIP3    H232917   3.510   7.373   6.805  0.3602  1.1616 -0.7083
 2908TIP3   OH232918   7.179   3.125   7.251 -0.0425  0.6499 -0.0134
 2908TIP3    H132919   7.162   3.162   7.338  0.8356  0.0713  0.4229
 2908TIP3    H232920   7.196   3.202   7.196  0.6380  0.9801  0.6233
 2909TIP3   OH232921   5.344   3.032   7.581 -0.1275 -0.4914 -0.1248
 2909TIP3    H132922   5.398   2.956   7.563 -1.6431 -1.7888  0.5985
 2909TIP3    H232923   5.333   3.074   7.496 -1.8583 -2.8740 -1.1754
 2910TIP3   OH232924   7.402   7.083   8.404  0.0456 -0.4489 -0.3828
 2910TIP3    H132925   7.443   6.998   8.423  1.6708  0.1490 -1.0302
 2910TIP3    H232926   7.365   7.073   8.317 -0.0929 -0.5995 -0.3077
 2911TIP3   OH232927   2.622   2.687   8.850  0.2185  0.2287  0.1269
 2911TIP3    H132928   2.625   2.627   8.925  1.5959  0.7198  0.5056
 2911TIP3    H232929   2.668   2.765   8.881 -0.8217  1.1695 -0.6270
 2912TIP3   OH232930   1.144   3.407   6.987  0.1909  0.0656  0.5765
 2912TIP3    H132931   1.119   3.316   6.971  1.6548 -0.2128 -0.3491
 2912TIP3    H232932   1.065   3.457   6.969 -0.5941 -0.9955  0.9437
 2913TIP3   OH232933   7.559   3.235   7.617 -0.2427 -0.1062 -0.0374
 2913TIP3    H132934   7.489   3.170   7.608 -0.4366  0.2936 -1.8229
 2913TIP3    H232935   7.625   3.191   7.671 -1.0036 -1.2269  0.0332
 2914TIP3   OH232936   3.364   4.445   6.435 -0.5930 -0.0261 -0.6637
 2914TIP3    H132937   3.289   4.502   6.448 -0.0034  1.1327 -2.0318
 2914TIP3    H232938   3.415   4.488   6.366  2.2332  0.1631  1.3421
 2915TIP3   OH232939   4.520   1.735   8.009 -0.3498  0.1807  0.2788
 2915TIP3    H132940   4.575   1.810   8.032 -0.4814  0.6130 -0.7797
 2915TIP3    H232941   4.450   1.736   8.075 -1.7579  2.5173 -1.0923
 2916TIP3   OH232942   1.154   5.987   8.159 -0.0133  0.0838 -0.1925
 2916TIP3    H132943   1.220   5.953   8.099 -1.1291 -0.6925 -1.0311
 2916TIP3    H232944   1.192   6.066   8.196  1.3305 -0.2996 -0.7204
 2917TIP3   OH232945   6.258   0.903   9.174  0.4204 -0.2522 -0.0401
 2917TIP3    H132946   6.166   0.881   9.163  0.5299 -0.0211 -1.7193
 2917TIP3    H232947   6.271   0.981   9.120  1.9108 -1.1586 -1.0799
 2918TIP3   OH232948   5.727   4.273   8.089  0.3867  0.0991  0.0219
 2918TIP3    H132949   5.766   4.357   8.064 -1.4303  2.0635  3.0828
 2918TIP3    H232950   5.640   4.274   8.049  0.3028 -0.2167  0.1903
 2919TIP3   OH232951   3.885   6.403   9.381 -0.5958  0.1864  0.2950
 2919TIP3    H132952   3.877   6.491   9.418  0.4522  1.1664 -1.6993
 2919TIP3    H232953   3.973   6.374   9.407 -1.1337 -0.5490  1.4084
 2920TIP3   OH232954   5.050   0.102   9.461 -0.0779  0.4003  0.2279
 2920TIP3    H132955   5.114   0.031   9.473 -1.8990 -1.2393  0.7799
 2920TIP3    H232956   5.102   0.182   9.466  2.1723 -0.8720 -0.9772
 2921TIP3   OH232957   1.916   3.881   8.316 -0.0723  0.0080  0.1035
 2921TIP3    H132958   1.974   3.828   8.262  0.8290  2.0219 -0.9845
 2921TIP3    H232959   1.973   3.942   8.362 -1.1842  1.0861  0.1202
 2922TIP3   OH232960   1.301   3.155   7.121 -0.0645 -0.2575 -0.3730
 2922TIP3    H132961   1.346   3.208   7.187  2.6106 -0.9029 -1.5694
 2922TIP3    H232962   1.235   3.107   7.171 -1.7159  3.0252  0.9907
 2923TIP3   OH232963   2.450   0.266   8.032 -0.0324 -0.4923 -0.1988
 2923TIP3    H132964   2.452   0.348   7.984 -2.8263  0.1652  0.5826
 2923TIP3    H232965   2.500   0.283   8.112  0.5835 -0.0148 -0.6820
 2924TIP3   OH232966   6.811   2.656   9.307 -0.0065 -0.5100  0.1850
 2924TIP3    H132967   6.848   2.727   9.254  1.1681 -1.0187  0.2742
 2924TIP3    H232968   6.842   2.674   9.396 -0.9346 -0.3368  0.4813
 2925TIP3   OH232969   4.792   3.259   9.322 -0.3828  0.7999 -0.0757
 2925TIP3    H132970   4.806   3.262   9.417  1.8896  1.8330 -0.3881
 2925TIP3    H232971   4.852   3.324   9.286 -0.9297  0.1800 -2.2754
 2926TIP3   OH232972   5.325   4.230   9.027 -0.1091 -0.2485  0.2811
 2926TIP3    H132973   5.296   4.139   9.023  1.1840 -0.6467 -1.9707
 2926TIP3    H232974   5.407   4.228   9.075 -0.1480 -0.2571  0.3473
 2927TIP3   OH232975   4.850   0.410   9.588  0.2275 -0.2054  0.6862
 2927TIP3    H132976   4.859   0.344   9.658  0.9953 -0.7129  0.1288
 2927TIP3    H232977   4.871   0.362   9.508  0.1206  0.5634  0.1928
 2928TIP3   OH232978   6.543   2.152   7.655 -0.4532 -0.0165 -0.4854
 2928TIP3    H132979   6.633   2.169   7.628  0.0351 -2.4549 -0.6244
 2928TIP3    H232980   6.527   2.213   7.727  0.4663  2.0629 -1.9582
 2929TIP3   OH232981   2.106   6.330   8.666 -0.4241  0.1059 -0.0706
 2929TIP3    H132982   2.144   6.329   8.577 -0.1323  0.3241  0.0473
 2929TIP3    H232983   2.135   6.247   8.705 -0.3390  0.1247 -0.0928
 2930TIP3   OH232984   3.207   5.136   7.241  0.2265  0.0229 -0.0817
 2930TIP3    H132985   3.230   5.226   7.219  0.4927  1.0281  3.5994
 2930TIP3    H232986   3.136   5.114   7.181 -1.1390  3.4072  0.0737
 2931TIP3   OH232987   4.716   2.987   7.494 -0.5925 -0.3048  0.7341
 2931TIP3    H132988   4.757   3.072   7.474 -0.5047 -0.4584  0.2641
 2931TIP3    H232989   4.788   2.933   7.527 -0.4298 -0.5466 -0.0083
 2932TIP3   OH232990   2.527   3.929   8.721  0.2215 -0.3956 -0.3015
 2932TIP3    H132991   2.507   3.986   8.647 -1.7709  0.1303  0.5755
 2932TIP3    H232992   2.622   3.936   8.732  0.1222  2.4549 -0.5151
 2933TIP3   OH232993   6.489   2.858   7.630  0.1989 -0.0266  1.3442
 2933TIP3    H132994   6.485   2.769   7.664 -0.2443 -0.3161  0.5538
 2933TIP3    H232995   6.434   2.857   7.552 -1.2202  1.3734  2.2623
 2934TIP3   OH232996   5.107   3.926   6.806 -0.4222 -0.1617 -0.0172
 2934TIP3    H132997   5.154   3.859   6.756 -0.5859  1.1409 -2.0451
 2934TIP3    H232998   5.172   3.994   6.822 -1.3651  1.4069 -2.3756
 2935TIP3   OH232999   5.505   0.732   7.529  0.0732  0.1293 -0.0604
 2935TIP3    H133000   5.491   0.827   7.528 -0.2529  0.1275  1.8183
 2935TIP3    H233001   5.421   0.695   7.502 -0.5060  0.3493  1.3706
 2936TIP3   OH233002   0.807   3.478   9.146 -0.4410  0.3045  0.8261
 2936TIP3    H133003   0.722   3.475   9.190 -1.9166  0.9063 -1.7785
 2936TIP3    H233004   0.796   3.544   9.077  1.9231 -0.0928 -0.0295
 2937TIP3   OH233005   3.754   0.188   9.383  0.4173 -0.3128 -0.5623
 2937TIP3    H133006   3.736   0.208   9.475 -2.2205  0.4564 -1.1558
 2937TIP3    H233007   3.712   0.103   9.368 -0.9473  0.4956 -1.5023
 2938TIP3   OH233008   4.945   7.356   9.373  0.0672 -0.1689 -0.1816
 2938TIP3    H133009   4.850   7.365   9.383  0.0571  0.7010 -0.9363
 2938TIP3    H233010   4.973   7.436   9.329  1.1362 -0.4830 -0.1176
 2939TIP3   OH233011   3.489   6.549   8.479  0.0248 -0.0719 -0.1470
 2939TIP3    H133012   3.526   6.618   8.424  0.4019 -0.9308 -0.9995
 2939TIP3    H233013   3.561   6.486   8.489 -1.1462 -1.7836 -1.8288
 2940TIP3   OH233014   1.708   0.254   9.173  0.5998 -0.5404 -0.0849
 2940TIP3    H133015   1.696   0.191   9.102  0.8061 -1.9189  1.0485
 2940TIP3    H233016   1.624   0.254   9.220  0.7003 -0.2017  0.1030
 2941TIP3   OH233017   4.304   5.994   7.798 -0.1380  0.2735  0.5054
 2941TIP3    H133018   4.359   5.978   7.874  1.9814 -0.7930 -1.1379
 2941TIP3    H233019   4.286   6.088   7.800  2.8147  0.9250  0.5016
 2942TIP3   OH233020   0.015   1.955   8.268  0.4648 -0.2268  0.5295
 2942TIP3    H133021   0.055   1.931   8.351  0.4877 -1.2221  0.2396
 2942TIP3    H233022   0.086   1.998   8.219 -0.1583  2.6190  1.9048
 2943TIP3   OH233023   0.849   0.615   9.173 -0.4225  0.2280  0.0485
 2943TIP3    H133024   0.940   0.633   9.150 -0.6389  0.3278 -0.7396
 2943TIP3    H233025   0.844   0.520   9.180 -0.2743  0.2199  0.0482
 2944TIP3   OH233026   7.298   4.893   7.357 -0.6111 -0.2201  0.1027
 2944TIP3    H133027   7.310   4.987   7.345  0.2195 -0.3795 -0.4239
 2944TIP3    H233028   7.289   4.881   7.451  1.1035  0.2032  0.3447
 2945TIP3   OH233029   5.691   3.611   8.736 -0.2848 -0.3555 -0.7643
 2945TIP3    H133030   5.653   3.696   8.715 -0.6962 -0.2341  0.3961
 2945TIP3    H233031   5.620   3.549   8.723 -0.3068 -0.3793 -0.5339
 2946TIP3   OH233032   6.208   7.592   7.981  0.3357 -0.0347  0.4501
 2946TIP3    H133033   6.186   7.652   7.910  0.7162 -0.3761  0.0377
 2946TIP3    H233034   6.214   7.506   7.939  0.8332 -0.1965  0.8472
 2947TIP3   OH233035   1.525   0.786   8.402 -0.0646 -0.1652  0.1567
 2947TIP3    H133036   1.597   0.850   8.399 -0.6389  0.5188  0.5163
 2947TIP3    H233037   1.446   0.840   8.399 -0.6645 -1.0012 -3.2646
 2948TIP3   OH233038   4.574   0.200   8.021 -0.3052  0.6169 -0.3661
 2948TIP3    H133039   4.593   0.106   8.017 -0.7923  0.3831  1.8519
 2948TIP3    H233040   4.482   0.205   8.046  0.3651  1.6108  2.1469
 2949TIP3   OH233041   2.107   2.750   7.983  0.3398  0.4239 -0.1287
 2949TIP3    H133042   2.025   2.720   8.023 -0.7158 -0.2168 -2.5846
 2949TIP3    H233043   2.145   2.671   7.945  2.9975  0.3981  2.2661
 2950TIP3   OH233044   4.774   2.448   8.959 -0.2205 -0.0854  0.7235
 2950TIP3    H133045   4.803   2.429   9.048 -0.8043  0.3268  1.0041
 2950TIP3    H233046   4.689   2.491   8.969 -0.4590 -0.3470 -0.0434
 2951TIP3   OH233047   1.641   5.872   7.598 -1.2359  0.6519 -0.1869
 2951TIP3    H133048   1.685   5.855   7.682 -1.5749 -1.0772 -0.3263
 2951TIP3    H233049   1.651   5.967   7.585 -0.9358  0.9182  1.6579
 2952TIP3   OH233050   1.345   2.927   8.013 -0.5366  0.2194 -0.2846
 2952TIP3    H133051   1.328   2.838   7.984  0.9934 -0.2438  0.1948
 2952TIP3    H233052   1.421   2.955   7.963 -0.5577  0.9979  0.0997
 2953TIP3   OH233053   7.257   2.811   7.889 -0.4966  0.0247 -0.1231
 2953TIP3    H133054   7.251   2.734   7.945 -0.7138  0.1785  0.0690
 2953TIP3    H233055   7.209   2.879   7.937 -1.1282  0.0218 -0.7284
 2954TIP3   OH233056   2.183   1.551   8.391  0.7003  0.3767  0.3762
 2954TIP3    H133057   2.100   1.564   8.435  0.3041  0.7794 -0.4661
 2954TIP3    H233058   2.239   1.622   8.422 -0.0069  1.4771 -0.7572
 2955TIP3   OH233059   5.111   3.769   7.042  0.1763 -0.0810  0.1592
 2955TIP3    H133060   5.080   3.836   6.981  0.6960 -0.1629 -0.2038
 2955TIP3    H233061   5.120   3.690   6.989  0.9299 -0.0761  0.2663
 2956TIP3   OH233062   5.545   5.100   8.432 -0.1502 -0.0026  0.0155
 2956TIP3    H133063   5.562   5.015   8.473  0.6994 -0.1071 -0.5306
 2956TIP3    H233064   5.455   5.093   8.401 -0.0480 -0.7652 -0.1423
 2957TIP3   OH233065   2.651   0.344   9.067  0.6517 -0.0782  0.7599
 2957TIP3    H133066   2.643   0.361   8.973  0.4584  0.7705  0.9271
 2957TIP3    H233067   2.744   0.350   9.085  0.8346 -1.5079  0.3951
 2958TIP3   OH233068   7.189   7.642   8.535 -1.0263  0.0306  0.1702
 2958TIP3    H133069   7.199   7.680   8.448  1.9147  0.3893  0.5580
 2958TIP3    H233070   7.237   7.560   8.531  1.2047  1.1293  2.0009
 2959TIP3   OH233071   2.804   0.756   9.374 -0.0661 -0.1258  0.0060
 2959TIP3    H133072   2.829   0.721   9.288 -0.0310  2.1783 -0.9811
 2959TIP3    H233073   2.887   0.779   9.415 -0.1481 -0.0659  0.1371
 2960TIP3   OH233074   3.824   0.840   7.697  0.0197 -0.0047 -0.2690
 2960TIP3    H133075   3.795   0.793   7.618 -0.3696  1.3293 -0.9501
 2960TIP3    H233076   3.826   0.932   7.670  2.7458  0.2243  0.4052
 2961TIP3   OH233077   2.071   1.512   8.829  0.4512 -0.4459 -0.4172
 2961TIP3    H133078   2.152   1.558   8.806 -0.0352  0.4638 -0.3514
 2961TIP3    H233079   2.051   1.542   8.918  0.2490 -0.9817 -0.2751
 2962TIP3   OH233080   3.303   1.819   8.020 -0.4341  0.1341 -0.0508
 2962TIP3    H133081   3.396   1.800   8.030 -0.3733  0.5108  0.1099
 2962TIP3    H233082   3.293   1.909   8.051 -0.9722 -0.1345  0.5691
 2963TIP3   OH233083   2.733   4.869   8.722  0.2534  0.2697  0.0278
 2963TIP3    H133084   2.806   4.824   8.679 -0.4661  0.4133 -1.4355
 2963TIP3    H233085   2.745   4.852   8.815 -0.2364 -3.4508 -0.4323
 2964TIP3   OH233086   5.363   3.970   8.842 -0.1116  0.0637  0.2690
 2964TIP3    H133087   5.452   3.951   8.871  0.8084  3.0424 -0.2048
 2964TIP3    H233088   5.362   3.944   8.750  0.0829 -0.4551  0.4101
 2965TIP3   OH233089   1.010   0.961   8.298  0.3349  0.1144  0.3906
 2965TIP3    H133090   1.008   0.865   8.295  0.9762  0.0774  0.7956
 2965TIP3    H233091   1.044   0.986   8.212 -0.0707 -0.0128  0.1930
 2966TIP3   OH233092   4.509   0.329   9.657 -0.1208  0.4929 -0.1673
 2966TIP3    H133093   4.564   0.401   9.626 -0.2228  1.1408  1.0923
 2966TIP3    H233094   4.546   0.252   9.615  0.9908  1.0739 -0.3105
 2967TIP3   OH233095   5.845   0.143   8.366  0.2372  0.3337 -0.0130
 2967TIP3    H133096   5.872   0.214   8.423  1.3907  0.5635 -0.8137
 2967TIP3    H233097   5.815   0.074   8.425 -1.3834  1.6474  0.7543
 2968TIP3   OH233098   1.674   2.469   7.244  0.0881 -0.6640 -0.2659
 2968TIP3    H133099   1.769   2.475   7.238  0.0218  1.0462  0.0234
 2968TIP3    H233100   1.643   2.500   7.158 -0.2416  1.8548  0.6730
 2969TIP3   OH233101   1.665   1.236   8.181 -0.1736  0.2436 -0.5531
 2969TIP3    H133102   1.572   1.255   8.169  0.3017  2.2129 -1.6751
 2969TIP3    H233103   1.705   1.322   8.197  1.3816 -0.6365  0.5851
 2970TIP3   OH233104   4.373   1.579   7.564  0.1450 -0.2800 -0.1737
 2970TIP3    H133105   4.425   1.502   7.587 -1.0081 -1.1417 -0.3300
 2970TIP3    H233106   4.348   1.564   7.472 -1.1610 -0.3777  0.1727
 2971TIP3   OH233107   7.663   0.591   9.271  0.2960  0.1174  0.0810
 2971TIP3    H133108   7.632   0.619   9.185  0.5490  0.8276  0.2136
 2971TIP3    H233109   7.620   0.651   9.333 -1.4280 -1.5986  0.6396
 2972TIP3   OH233110   3.792   0.273   7.951 -0.1674  0.2511 -0.1670
 2972TIP3    H133111   3.771   0.179   7.947  0.5922  0.1079 -1.1769
 2972TIP3    H233112   3.874   0.281   7.903 -0.0433  1.3950  0.2168
 2973TIP3   OH233113   2.040   4.109   7.550  0.4286 -0.0860  0.8025
 2973TIP3    H133114   1.955   4.129   7.588  0.6387  0.2721  1.0960
 2973TIP3    H233115   2.020   4.062   7.469 -0.1168  1.8257 -0.2370
 2974TIP3   OH233116   4.097   5.326   8.947  0.1847 -0.7866  0.3977
 2974TIP3    H133117   4.015   5.322   8.899 -1.2513 -1.0490  2.7390
 2974TIP3    H233118   4.139   5.242   8.930  0.1896 -0.5225 -1.0768
 2975TIP3   OH233119   3.456   3.573   8.068  0.2882 -0.3530 -0.4333
 2975TIP3    H133120   3.365   3.563   8.042  0.4134 -0.0587 -0.9883
 2975TIP3    H233121   3.489   3.484   8.073 -0.4259 -0.5570  1.2320
 2976TIP3   OH233122   7.299   5.066   8.246 -0.3547  0.0773  0.0005
 2976TIP3    H133123   7.380   5.030   8.209  0.7984  1.5249  1.0280
 2976TIP3    H233124   7.232   5.004   8.219  1.2994 -1.9865  0.3595
 2977TIP3   OH233125   1.082   7.610   9.287  0.1200 -0.3995  0.5941
 2977TIP3    H133126   1.059   7.679   9.349 -0.2002 -0.5628  0.6560
 2977TIP3    H233127   1.008   7.606   9.226  0.3057 -0.4324  0.3698
 2978TIP3   OH233128   6.358   7.187   8.331 -0.4779  0.2444 -0.8518
 2978TIP3    H133129   6.273   7.209   8.370 -1.8047 -2.0475 -2.2360
 2978TIP3    H233130   6.406   7.142   8.402 -1.4502 -0.7234 -0.7882
 2979TIP3   OH233131   5.365   3.180   7.813  0.2530  0.1636  0.0004
 2979TIP3    H133132   5.354   3.271   7.785 -1.0207 -0.2874 -1.0893
 2979TIP3    H233133   5.368   3.131   7.731  0.1958 -0.8543  0.5990
 2980TIP3   OH233134   7.619   6.336   7.859  0.4533 -0.5589  0.1142
 2980TIP3    H133135   7.654   6.286   7.785 -0.6375  1.0024 -1.5500
 2980TIP3    H233136   7.533   6.296   7.876 -0.3443  0.5888 -1.1025
 2981TIP3   OH233137   7.428   6.926   7.252 -0.4537 -0.0770 -0.7670
 2981TIP3    H133138   7.483   6.967   7.185 -0.7913 -1.9251 -2.2702
 2981TIP3    H233139   7.432   6.832   7.233 -0.8287 -0.6633  1.6505
 2982TIP3   OH233140   6.634   5.954   7.751 -0.0633  0.6268  0.4611
 2982TIP3    H133141   6.604   5.893   7.684 -0.0806  1.1276  0.0098
 2982TIP3    H233142   6.564   6.019   7.758 -0.0958  0.5338  1.0212
 2983TIP3   OH233143   6.388   7.540   9.021 -0.1199 -0.5299  0.4897
 2983TIP3    H133144   6.367   7.620   8.973 -1.0207 -1.0964 -0.0797
 2983TIP3    H233145   6.448   7.493   8.963  0.3478 -0.3086  0.7896
 2984TIP3   OH233146   1.542   3.349   6.275  0.2414  1.2376  0.2181
 2984TIP3    H133147   1.559   3.443   6.265 -0.4597  1.3886  0.3668
 2984TIP3    H233148   1.508   3.341   6.364  1.1021  0.7137  0.5114
 2985TIP3   OH233149   7.631   5.416   8.485  0.1292 -0.1205 -0.1295
 2985TIP3    H133150   7.571   5.355   8.527 -0.2478 -0.3988 -1.0503
 2985TIP3    H233151   7.615   5.499   8.529 -2.5352  0.3498 -1.7672
 2986TIP3   OH233152   6.271   3.975   8.226 -0.0096  0.2064 -0.4956
 2986TIP3    H133153   6.188   3.933   8.204  1.0508 -2.3103 -0.0518
 2986TIP3    H233154   6.289   3.948   8.316  1.3420  0.5898 -0.6205
 2987TIP3   OH233155   3.719   4.344   6.263  0.4331 -0.6672  0.2123
 2987TIP3    H133156   3.685   4.382   6.182 -0.0420  0.6981  1.0237
 2987TIP3    H233157   3.646   4.293   6.298  0.2620 -0.3243  0.3559
 2988TIP3   OH233158   1.476   5.774   8.298 -0.2080 -0.3696  0.9262
 2988TIP3    H133159   1.475   5.856   8.250  0.1132 -0.0799  1.3990
 2988TIP3    H233160   1.520   5.712   8.240 -2.5067 -0.8630 -0.4278
 2989TIP3   OH233161   2.384   0.536   8.727  0.2947 -0.2349 -1.0073
 2989TIP3    H133162   2.376   0.543   8.632  0.0515  1.3754 -0.8925
 2989TIP3    H233163   2.304   0.489   8.754 -0.3174  0.5044 -1.4864
 2990TIP3   OH233164   6.482   7.230   7.653 -0.1906 -0.1001 -0.0041
 2990TIP3    H133165   6.502   7.230   7.559 -0.3290 -1.3224 -0.0473
 2990TIP3    H233166   6.407   7.172   7.662  1.1353 -1.7444  1.1054
 2991TIP3   OH233167   4.914   4.500   8.020  0.4741  0.0709 -0.8466
 2991TIP3    H133168   5.006   4.524   8.029  0.8505 -1.4716 -0.2850
 2991TIP3    H233169   4.915   4.405   8.008 -1.1295 -0.2211  0.9323
 2992TIP3   OH233170   3.192   0.264   8.214 -0.3369 -0.3466 -0.0581
 2992TIP3    H133171   3.241   0.246   8.134 -0.4164  2.1791 -0.7625
 2992TIP3    H233172   3.167   0.178   8.247  1.5690 -1.5524 -1.5514
 2993TIP3   OH233173   2.416   3.362   7.610  0.1859  0.5619 -0.6628
 2993TIP3    H133174   2.341   3.422   7.617 -0.0882  0.2042 -0.4433
 2993TIP3    H233175   2.377   3.275   7.623  0.9395  0.5031  1.7725
 2994TIP3   OH233176   3.555   0.649   8.828  0.1769  0.2150 -0.3809
 2994TIP3    H133177   3.461   0.658   8.814  0.2330 -1.0511 -1.8544
 2994TIP3    H233178   3.574   0.703   8.905 -1.1895  3.2790 -2.0292
 2995TIP3   OH233179   6.959   4.470   9.055  0.0377  0.4150  0.0651
 2995TIP3    H133180   7.008   4.535   9.107  2.1926 -1.4169  0.4662
 2995TIP3    H233181   6.975   4.387   9.100 -0.5392 -0.7840 -1.8606
 2996TIP3   OH233182   6.355   3.961   7.110 -0.6888 -0.2619  0.3618
 2996TIP3    H133183   6.361   4.040   7.056 -2.0609  0.1326  0.7488
 2996TIP3    H233184   6.284   3.910   7.071 -0.3715 -0.9073  0.6172
 2997TIP3   OH233185   4.424   6.469   8.637  0.1944 -0.6224  0.6822
 2997TIP3    H133186   4.516   6.471   8.663  0.7191 -2.1166 -0.8640
 2997TIP3    H233187   4.408   6.378   8.613 -0.8337  0.1423 -1.8796
 2998TIP3   OH233188   4.152   2.560   8.441 -0.0094  0.2410 -0.3055
 2998TIP3    H133189   4.122   2.628   8.380 -1.6103 -1.8237 -2.0016
 2998TIP3    H233190   4.233   2.527   8.402 -0.1191  0.0862 -0.4081
 2999TIP3   OH233191   0.522   0.763   7.412  0.2135 -0.1694  0.5568
 2999TIP3    H133192   0.449   0.825   7.412  0.9139  0.8323  3.4763
 2999TIP3    H233193   0.540   0.748   7.319 -1.6450  2.0171 -0.2703
 3000TIP3   OH233194   1.028   1.270   8.950  0.1261 -0.7981 -0.0732
 3000TIP3    H133195   1.088   1.279   9.024  1.4860 -1.7697 -1.0218
 3000TIP3    H233196   1.056   1.336   8.887 -0.2634 -0.7779 -0.2301
 3001TIP3   OH233197   1.234   3.633   8.009  0.0491 -0.1454  0.3445
 3001TIP3    H133198   1.203   3.616   7.920 -0.6213  0.0237  0.5390
 3001TIP3    H233199   1.256   3.726   8.010 -1.0468  0.1261  0.6668
 3002TIP3   OH233200   7.363   5.681   8.960 -0.2521 -0.0509  0.7312
 3002TIP3    H133201   7.444   5.713   8.998  0.7518 -1.3476 -0.2303
 3002TIP3    H233202   7.333   5.752   8.903  1.9454 -0.6772 -1.3785
 3003TIP3   OH233203   4.547   1.857   9.079 -0.0384 -0.1510  0.5011
 3003TIP3    H133204   4.464   1.815   9.102  0.2503 -0.8894  0.2338
 3003TIP3    H233205   4.538   1.881   8.987 -0.0508  0.0066  0.5430
 3004TIP3   OH233206   1.485   3.326   8.132 -0.3048  0.5005  0.2315
 3004TIP3    H133207   1.547   3.330   8.059  0.2771 -1.0899  0.5863
 3004TIP3    H233208   1.535   3.362   8.206 -0.2831  0.4935  0.2206
 3005TIP3   OH233209   2.191   7.426   7.188 -0.6000  0.0558  0.4559
 3005TIP3    H133210   2.219   7.375   7.264 -0.3377  1.3353  1.2428
 3005TIP3    H233211   2.096   7.418   7.187 -0.5592 -0.4451  0.5664
 3006TIP3   OH233212   4.759   3.973   8.662  0.0513 -0.2825 -0.8667
 3006TIP3    H133213   4.775   3.933   8.748  0.4556  0.6437 -0.4942
 3006TIP3    H233214   4.845   4.008   8.636 -0.8031  3.0447  0.2433
 3007TIP3   OH233215   0.462   0.464   7.151 -0.0608  0.2271  0.0994
 3007TIP3    H133216   0.538   0.475   7.207 -0.2626 -1.0838  0.6803
 3007TIP3    H233217   0.398   0.528   7.183  0.8275  1.4396 -0.4951
 3008TIP3   OH233218   5.552   3.324   8.121  0.4562 -0.1436  0.0901
 3008TIP3    H133219   5.463   3.358   8.128  0.5225  0.1502 -0.4320
 3008TIP3    H233220   5.551   3.270   8.042  0.5964 -0.5942  0.3920
 3009TIP3   OH233221   5.333   1.470   8.754 -0.2326  0.1596  0.4704
 3009TIP3    H133222   5.351   1.509   8.840  1.1660  1.5334 -0.3985
 3009TIP3    H233223   5.418   1.440   8.723 -0.7475 -0.4638 -0.3653
 3010TIP3   OH233224   7.380   7.568   7.991 -0.4311 -0.6612  0.0483
 3010TIP3    H133225   7.313   7.632   8.017 -0.7997 -0.6030 -0.9669
 3010TIP3    H233226   7.452   7.621   7.958 -0.0086 -0.7354  0.8233
 3011TIP3   OH233227   0.706   5.744   8.887 -0.4105  0.8056  0.4073
 3011TIP3    H133228   0.771   5.784   8.829 -1.2219  1.4648 -0.0916
 3011TIP3    H233229   0.728   5.777   8.974  0.1060  0.7690  0.2951
 3012TIP3   OH233230   1.334   7.038   7.787 -0.2085  0.0372  0.2342
 3012TIP3    H133231   1.319   6.976   7.715  2.8322 -0.7364  0.1551
 3012TIP3    H233232   1.306   7.122   7.752 -2.1989 -0.8388 -0.4869
 3013TIP3   OH233233   1.499   3.942   8.201  0.2620 -0.0672  0.4119
 3013TIP3    H133234   1.456   3.904   8.277 -1.3366  0.3819 -0.2345
 3013TIP3    H233235   1.513   3.868   8.142 -0.3221 -0.1067  0.3170
 3014TIP3   OH233236   6.955   1.318   6.766  0.1742 -0.2325  0.3874
 3014TIP3    H133237   6.950   1.234   6.721  0.7079  0.7169 -1.5534
 3014TIP3    H233238   7.007   1.300   6.845 -0.8847 -1.9720  0.7408
 3015TIP3   OH233239   1.037   3.136   7.644 -0.0515  0.1858 -0.6059
 3015TIP3    H133240   1.053   3.073   7.715 -2.3621 -0.1738 -0.3304
 3015TIP3    H233241   1.049   3.085   7.564  1.5830  0.3441 -0.5005
 3016TIP3   OH233242   3.616   2.189   8.702 -0.1059  0.4695 -0.2521
 3016TIP3    H133243   3.610   2.282   8.724 -1.1543  0.4673 -0.4742
 3016TIP3    H233244   3.684   2.185   8.635 -0.5179  1.1749 -0.7320
 3017TIP3   OH233245   7.088   0.234   8.576 -0.1540 -0.1075  0.0717
 3017TIP3    H133246   7.134   0.267   8.499 -1.8969 -2.0487 -1.9136
 3017TIP3    H233247   7.145   0.165   8.610  0.3011  0.2947  0.1466
 3018TIP3   OH233248   5.109   2.969   7.765 -0.0352  0.3525 -0.2280
 3018TIP3    H133249   5.198   2.994   7.739  0.1753  0.3218  0.4250
 3018TIP3    H233250   5.065   2.946   7.684  0.1793  1.5400 -0.7008
 3019TIP3   OH233251   1.298   0.933   8.327 -0.1691  0.6083 -0.3979
 3019TIP3    H133252   1.215   0.885   8.325  0.6589 -1.1608  2.4036
 3019TIP3    H233253   1.274   1.021   8.355 -1.1402  0.2692 -0.1231
 3020TIP3   OH233254   5.396   6.748   9.408  0.5335  0.4706 -0.1697
 3020TIP3    H133255   5.435   6.834   9.390  2.7558 -0.5184 -0.4115
 3020TIP3    H233256   5.462   6.685   9.379 -0.4093 -1.3234  1.3518
 3021TIP3   OH233257   4.880   0.066   7.867  0.3401  0.0579  0.1074
 3021TIP3    H133258   4.883   0.153   7.906  1.0637  0.5959 -1.0666
 3021TIP3    H233259   4.857   0.082   7.775  2.2701 -0.7796 -0.5841
 3022TIP3   OH233260   6.370   4.558   8.147 -0.4629  0.4391 -0.2854
 3022TIP3    H133261   6.317   4.551   8.227 -1.5154 -0.3402 -1.0186
 3022TIP3    H233262   6.311   4.597   8.082  0.6975  2.0297 -0.4362
 3023TIP3   OH233263   0.493   7.557   9.007  0.3368 -0.2784 -0.1902
 3023TIP3    H133264   0.469   7.536   9.097  0.7171  0.6638  0.1395
 3023TIP3    H233265   0.555   7.629   9.014 -0.9065  0.9597 -1.2618
 3024TIP3   OH233266   5.736   2.953   8.192  0.8831  0.0900 -0.0721
 3024TIP3    H133267   5.711   3.015   8.124 -0.8759 -1.0325 -0.5134
 3024TIP3    H233268   5.653   2.932   8.237  1.7869 -0.2495  1.5018
 3025TIP3   OH233269   0.789   6.100   9.033 -0.2836 -0.8596 -0.1823
 3025TIP3    H133270   0.870   6.138   9.065 -0.3883  0.0933 -1.0132
 3025TIP3    H233271   0.792   6.009   9.062  0.1590 -0.3378  1.4885
 3026TIP3   OH233272   4.938   5.987   6.767 -0.0153 -0.0487  0.0835
 3026TIP3    H133273   4.939   6.075   6.729 -0.3620  0.4656  1.2158
 3026TIP3    H233274   4.936   5.928   6.692 -0.7336  0.9271 -0.6883
 3027TIP3   OH233275   6.716   1.768   8.103 -0.0849 -0.4479 -0.1221
 3027TIP3    H133276   6.739   1.861   8.098 -0.7669 -0.3286 -1.5250
 3027TIP3    H233277   6.621   1.766   8.087 -0.5420 -1.2007  2.2629
 3028TIP3   OH233278   0.327   6.338   9.566  0.2228  0.1549  0.6124
 3028TIP3    H133279   0.360   6.314   9.653 -1.3871 -1.4727  0.8264
 3028TIP3    H233280   0.404   6.366   9.518  0.9697  2.9184  3.0749
 3029TIP3   OH233281   2.230   4.706   8.224  0.1062  0.2308 -0.3772
 3029TIP3    H133282   2.182   4.759   8.160  2.0317 -1.0885 -3.1292
 3029TIP3    H233283   2.186   4.621   8.222  1.0072 -0.2405 -1.0789
 3030TIP3   OH233284   1.887   1.870   7.061 -0.0541 -0.1342 -0.0525
 3030TIP3    H133285   1.875   1.921   6.981  0.5964  0.7774  0.4122
 3030TIP3    H233286   1.821   1.801   7.056  0.0529 -0.1549 -1.4270
 3031TIP3   OH233287   6.162   3.311   9.241 -0.8613 -0.0898  0.1465
 3031TIP3    H133288   6.196   3.228   9.275  0.5400 -0.6302 -2.3395
 3031TIP3    H233289   6.211   3.378   9.288  0.8062 -0.7899 -0.5217
 3032TIP3   OH233290   0.171   2.064   9.029  0.2141 -0.0785  0.4867
 3032TIP3    H133291   0.105   2.103   9.087 -0.7238 -1.1558  0.1577
 3032TIP3    H233292   0.207   1.991   9.080  0.0455 -0.4551  0.0630
 3033TIP3   OH233293   7.129   5.433   8.895  0.3298 -0.0027 -0.4924
 3033TIP3    H133294   7.091   5.421   8.807 -0.6945  0.7408 -0.1697
 3033TIP3    H233295   7.091   5.515   8.927  1.0934  0.0003  0.4480
 3034TIP3   OH233296   2.222   5.066   8.297 -0.3097 -0.4210 -0.4791
 3034TIP3    H133297   2.156   5.097   8.236  0.7154  2.0545 -0.4291
 3034TIP3    H233298   2.203   5.112   8.379  1.9166  1.0933 -0.7062
 3035TIP3   OH233299   0.523   5.746   8.526 -0.4586 -0.2778  0.3770
 3035TIP3    H133300   0.545   5.694   8.603  0.8876 -2.0222 -1.0853
 3035TIP3    H233301   0.427   5.741   8.521 -0.9424  2.4073  3.5087
 3036TIP3   OH233302   3.219   4.462   6.985  0.3351  0.1801 -0.6071
 3036TIP3    H133303   3.271   4.457   7.065 -0.0418 -0.2982 -0.3932
 3036TIP3    H233304   3.185   4.374   6.972 -1.6894  0.7911  0.1016
 3037TIP3   OH233305   4.255   1.403   9.096  0.5853  0.1982 -0.0942
 3037TIP3    H133306   4.336   1.444   9.125  1.0998 -1.3620  0.7577
 3037TIP3    H233307   4.243   1.436   9.007  2.1187  0.5087 -0.2197
 3038TIP3   OH233308   0.960   0.021   8.413  0.0952 -0.1766  0.1852
 3038TIP3    H133309   0.916  -0.049   8.364 -0.9559 -0.7026  1.7900
 3038TIP3    H233310   0.893   0.089   8.422 -0.6870 -1.2113  3.1244
 3039TIP3   OH233311   4.234   3.347   8.956 -0.1257 -0.0912 -0.1023
 3039TIP3    H133312   4.218   3.441   8.965  1.1696 -0.0395  2.6351
 3039TIP3    H233313   4.189   3.307   9.030 -1.3282 -1.8069 -1.6519
 3040TIP3   OH233314   6.220   3.545   7.891  0.2556  0.5707  0.1653
 3040TIP3    H133315   6.253   3.628   7.926 -2.8407  1.7861  0.5123
 3040TIP3    H233316   6.147   3.523   7.949 -1.6325 -0.1879 -2.3500
 3041TIP3   OH233317   7.225   5.166   8.919  0.5518 -0.1686 -0.8128
 3041TIP3    H133318   7.207   5.156   9.012 -0.3906  2.1968 -0.6728
 3041TIP3    H233319   7.206   5.258   8.900  0.5052 -0.6221 -3.3902
 3042TIP3   OH233320   0.035   4.362   8.842  0.2938  0.0058 -0.1649
 3042TIP3    H133321  -0.012   4.417   8.905  1.1808  0.4322  0.1451
 3042TIP3    H233322   0.077   4.424   8.784 -1.4660 -0.3757 -1.9591
 3043TIP3   OH233323   4.346   6.521   7.328  0.6740  0.7289  0.0688
 3043TIP3    H133324   4.388   6.441   7.359  1.0110  0.9741  0.2530
 3043TIP3    H233325   4.375   6.589   7.389 -3.4848  0.1873  2.9923
 3044TIP3   OH233326   2.560   0.529   6.891 -0.3258  0.2419 -0.1327
 3044TIP3    H133327   2.530   0.598   6.949 -0.4794  0.6271 -0.6559
 3044TIP3    H233328   2.641   0.564   6.852  0.6763 -0.6596  1.0435
 3045TIP3   OH233329   4.630   5.326   8.929 -0.1962 -0.6713 -0.0250
 3045TIP3    H133330   4.702   5.269   8.954  0.5689  0.3960  0.2797
 3045TIP3    H233331   4.643   5.405   8.981 -0.5497  0.2413 -1.2774
 3046TIP3   OH233332   6.810   2.880   7.671  0.3543  0.3465 -0.1564
 3046TIP3    H133333   6.773   2.835   7.747 -1.4413  0.0996 -1.1145
 3046TIP3    H233334   6.767   2.839   7.595  0.6981  1.8198 -1.2058
 3047TIP3   OH233335   6.247   6.635   8.716  0.6889  0.2486 -0.8012
 3047TIP3    H133336   6.341   6.638   8.695  0.2804  1.1229 -2.7426
 3047TIP3    H233337   6.204   6.648   8.631 -1.2161 -1.4743 -0.1498
 3048TIP3   OH233338   7.189   5.761   9.309 -0.0173 -0.0598  0.3586
 3048TIP3    H133339   7.273   5.806   9.298 -0.4610  0.8443  0.5278
 3048TIP3    H233340   7.213   5.673   9.338  0.9273 -0.3798 -1.2499
 3049TIP3   OH233341   4.316   7.267   7.034  0.2453  0.2712 -0.3979
 3049TIP3    H133342   4.228   7.281   7.069  0.3225  1.5295 -0.6889
 3049TIP3    H233343   4.302   7.242   6.943  0.2035  0.5907 -0.4768
 3050TIP3   OH233344   5.063   6.332   7.908 -0.1519  0.4671  0.4470
 3050TIP3    H133345   5.028   6.376   7.985 -0.5295 -2.4809  2.1329
 3050TIP3    H233346   5.158   6.338   7.918 -0.1799  1.5928  0.1629
 3051TIP3   OH233347   5.146   1.579   8.571 -0.3941  0.3056 -0.5490
 3051TIP3    H133348   5.166   1.512   8.505  2.0379  1.1118 -0.7600
 3051TIP3    H233349   5.210   1.562   8.640 -0.3050  1.8592 -0.2268
 3052TIP3   OH233350   6.662   3.944   8.552  0.2055  0.7716  0.4960
 3052TIP3    H133351   6.638   4.025   8.595 -0.7359  0.8045 -0.0663
 3052TIP3    H233352   6.703   3.971   8.470 -1.1348  0.6982 -0.2310
 3053TIP3   OH233353   2.346   1.658   7.456 -0.0555  0.5633  0.0546
 3053TIP3    H133354   2.415   1.624   7.400 -0.4678  0.5436 -0.4553
 3053TIP3    H233355   2.391   1.704   7.526  0.4540  1.2835 -0.7414
 3054TIP3   OH233356   1.695   6.714   8.653 -0.2502  0.2960  0.0669
 3054TIP3    H133357   1.750   6.637   8.659 -0.1827  0.3264 -0.1737
 3054TIP3    H233358   1.754   6.785   8.629 -0.1708  0.5846  1.0692
 3055TIP3   OH233359   3.180   7.253   8.364 -0.0193  0.2932  0.1892
 3055TIP3    H133360   3.210   7.213   8.446 -0.5406  0.0213  0.2450
 3055TIP3    H233361   3.225   7.338   8.362  0.1819  0.2007  0.6388
 3056TIP3   OH233362   0.545   0.585   7.784 -0.1472 -0.0037 -0.1856
 3056TIP3    H133363   0.512   0.602   7.872  0.2873  1.5653 -0.3015
 3056TIP3    H233364   0.630   0.629   7.781  0.3851 -1.0451 -1.0113
 3057TIP3   OH233365   3.339   5.037   8.979 -0.0021 -0.1954 -0.3887
 3057TIP3    H133366   3.364   5.126   8.953  1.6592 -0.6549 -0.4627
 3057TIP3    H233367   3.294   5.002   8.902  1.4301 -0.2162 -1.2389
 3058TIP3   OH233368   1.344   5.845   7.882 -0.3982 -0.4178  0.0933
 3058TIP3    H133369   1.403   5.893   7.941 -1.1257  2.1505 -1.1357
 3058TIP3    H233370   1.393   5.765   7.861  1.8025  0.6736  0.6732
 3059TIP3   OH233371   5.149   2.817   8.605  0.0646 -0.2495  0.3901
 3059TIP3    H133372   5.212   2.838   8.674  0.0253 -0.9557  0.6479
 3059TIP3    H233373   5.190   2.746   8.556  0.1407  0.3208 -0.3931
 3060TIP3   OH233374   3.966   0.929   8.908 -0.2315 -0.4921  0.0463
 3060TIP3    H133375   3.886   0.978   8.889 -0.2583 -1.2577 -2.0180
 3060TIP3    H233376   3.941   0.837   8.897  0.7997 -0.7716 -0.0462
 3061TIP3   OH233377   3.149   4.534   8.134 -0.2229  0.4311  0.2849
 3061TIP3    H133378   3.176   4.605   8.191  2.3914  0.8256 -1.2764
 3061TIP3    H233379   3.148   4.573   8.046 -2.6172 -0.5255 -0.2010
 3062TIP3   OH233380   1.012   4.743   8.087 -0.1598 -0.8210  0.4813
 3062TIP3    H133381   1.003   4.760   7.993 -0.3648  0.9350  0.7809
 3062TIP3    H233382   0.924   4.719   8.115 -0.1131 -1.2802  0.2429
 3063TIP3   OH233383   5.762   3.965   7.581 -0.0380 -0.2164  0.7829
 3063TIP3    H133384   5.710   4.042   7.605 -1.1903 -0.6115 -0.3139
 3063TIP3    H233385   5.736   3.898   7.644  0.0463 -0.0639  0.9807
 3064TIP3   OH233386   0.242   6.705   9.497  0.3315 -0.2855  0.6481
 3064TIP3    H133387   0.188   6.626   9.503 -0.6305  0.4099  1.6188
 3064TIP3    H233388   0.234   6.734   9.406  1.4093 -1.7681  0.0532
 3065TIP3   OH233389   5.835   2.690   7.154 -0.5285 -0.2317 -0.3285
 3065TIP3    H133390   5.793   2.775   7.139 -0.2637 -0.0242  0.0821
 3065TIP3    H233391   5.763   2.627   7.151 -0.7566  0.0281 -0.4337
 3066TIP3   OH233392   3.256   4.062   8.765  0.0307 -0.4840  0.5804
 3066TIP3    H133393   3.230   3.981   8.810 -0.1956 -1.3931 -1.0896
 3066TIP3    H233394   3.327   4.035   8.707  1.0769  0.8825  1.1576
 3067TIP3   OH233395   1.477   4.301   8.112  0.4968 -0.1339  0.3666
 3067TIP3    H133396   1.572   4.305   8.101  0.5475 -1.2451  0.2444
 3067TIP3    H233397   1.442   4.327   8.027  0.7087 -0.1804  0.2634
 3068TIP3   OH233398   1.799   7.637   8.670  0.0400 -0.0527 -0.2262
 3068TIP3    H133399   1.864   7.684   8.617  0.9518  1.3971  2.0535
 3068TIP3    H233400   1.843   7.556   8.696 -0.2145 -0.5101 -1.1570
 3069TIP3   OH233401   6.625   4.002   9.221 -0.1304 -0.0133  0.0039
 3069TIP3    H133402   6.620   3.999   9.125  1.2309  0.0406 -0.0832
 3069TIP3    H233403   6.534   3.996   9.250 -0.5056 -0.8690 -1.2710
 3070TIP3   OH233404   3.891   7.623   9.735 -0.6381  0.3718 -0.0729
 3070TIP3    H133405   3.977   7.580   9.742 -1.0010 -0.6670 -1.4918
 3070TIP3    H233406   3.829   7.555   9.762 -1.1262  0.4470 -0.9684
 3071TIP3   OH233407   1.099   7.451   8.169 -0.4139  0.6887 -0.1170
 3071TIP3    H133408   1.069   7.444   8.078 -0.2006  1.6755 -0.2718
 3071TIP3    H233409   1.035   7.507   8.211  0.0795  1.1300  0.0606
 3072TIP3   OH233410   2.324   3.600   7.389 -1.3535 -0.0873 -1.2655
 3072TIP3    H133411   2.246   3.563   7.430 -1.3299  0.7075 -0.4663
 3072TIP3    H233412   2.351   3.670   7.449  0.8203 -1.2733 -0.7679
 3073TIP3   OH233413   4.977   1.688   7.652  0.5068  0.0589 -0.0426
 3073TIP3    H133414   4.902   1.706   7.710  0.4542  1.6419 -0.5470
 3073TIP3    H233415   5.033   1.764   7.662  0.7549  0.1178 -1.6648
 3074TIP3   OH233416   6.010   3.952   7.211 -0.4889 -0.0103 -0.0100
 3074TIP3    H133417   5.933   3.918   7.258 -1.3885  0.9066 -0.7913
 3074TIP3    H233418   6.031   3.883   7.148 -1.5870  0.3391 -0.7872
 3075TIP3   OH233419   1.019   2.240   7.511 -0.0598 -0.3370 -0.0667
 3075TIP3    H133420   1.091   2.222   7.451  0.3904 -2.1025  0.9161
 3075TIP3    H233421   0.974   2.156   7.520  0.0574 -0.2236  2.2388
 3076TIP3   OH233422   7.055   6.333   7.035 -0.2265 -0.3241  0.2326
 3076TIP3    H133423   7.077   6.273   7.107  0.1240 -1.6720 -0.9551
 3076TIP3    H233424   7.074   6.420   7.071  0.6220 -1.0011  1.5338
 3077TIP3   OH233425   1.616   1.159   8.710  0.5481  0.1225  0.5185
 3077TIP3    H133426   1.561   1.187   8.782 -1.5566 -0.9050 -0.6170
 3077TIP3    H233427   1.631   1.065   8.725  0.3334 -0.0370 -0.2087
 3078TIP3   OH233428   6.444   3.606   9.158  0.6562  0.2236  0.1228
 3078TIP3    H133429   6.526   3.586   9.113 -0.3597 -0.3803 -1.5928
 3078TIP3    H233430   6.469   3.663   9.230  2.5142  0.4734 -0.6614
 3079TIP3   OH233431   1.164   0.221   8.706  0.0664 -0.5130  0.0755
 3079TIP3    H133432   1.081   0.245   8.664  0.4956 -0.3632 -0.7018
 3079TIP3    H233433   1.195   0.301   8.747  0.5011 -0.2194 -0.8063
 3080TIP3   OH233434   0.801   2.932   6.834  0.0591 -0.0185  0.4081
 3080TIP3    H133435   0.871   2.885   6.789  0.8176  2.5603 -1.3244
 3080TIP3    H233436   0.738   2.953   6.765 -0.3963  1.1852  1.1551
 3081TIP3   OH233437   5.313   3.714   6.683 -0.2553 -0.7302  0.1162
 3081TIP3    H133438   5.375   3.655   6.641  1.6110  0.6482  0.7890
 3081TIP3    H233439   5.358   3.798   6.686 -1.8430  0.1357  1.4052
 3082TIP3   OH233440   2.052   1.015   8.158  0.5565  0.5978 -0.1627
 3082TIP3    H133441   1.958   1.013   8.138  0.3103 -0.3718  0.9669
 3082TIP3    H233442   2.086   0.934   8.119  0.3997 -0.4013  1.6789
 3083TIP3   OH233443   4.242   5.077   8.006 -0.1709  0.1884  0.2516
 3083TIP3    H133444   4.321   5.063   7.953 -0.9121  0.0078 -0.8301
 3083TIP3    H233445   4.211   4.989   8.025 -2.3080  0.1413 -2.7320
 3084TIP3   OH233446   2.724   1.912   9.080  0.0055  0.5713 -0.1195
 3084TIP3    H133447   2.794   1.847   9.090  0.6875  1.0218 -1.6693
 3084TIP3    H233448   2.769   1.996   9.074 -0.7901  1.0662  0.5658
 3085TIP3   OH233449   2.217   2.481   8.838  0.2035  0.3899  0.3652
 3085TIP3    H133450   2.233   2.405   8.782 -0.8167 -1.6310  2.6321
 3085TIP3    H233451   2.147   2.453   8.897  0.4493  2.7843  1.9329
 3086TIP3   OH233452   4.152   5.202   6.565  0.1005 -0.6098 -0.4797
 3086TIP3    H133453   4.152   5.111   6.593 -1.1720 -0.1904  1.1032
 3086TIP3    H233454   4.231   5.240   6.604  0.1605 -0.8422 -0.3755
 3087TIP3   OH233455   1.756   4.786   7.776 -0.6092 -0.1717  0.6794
 3087TIP3    H133456   1.720   4.874   7.785 -0.1279 -0.2016  3.6998
 3087TIP3    H233457   1.688   4.727   7.809 -0.1204 -0.7711  0.6478
 3088TIP3   OH233458   3.684   0.499   8.090 -1.1422 -0.0747 -0.2444
 3088TIP3    H133459   3.717   0.418   8.052  0.9433 -0.0079  1.2512
 3088TIP3    H233460   3.762   0.555   8.098 -2.0226  1.0005  1.3606
 3089TIP3   OH233461   6.126   3.435   8.420 -0.0402  0.3894 -0.8202
 3089TIP3    H133462   6.038   3.448   8.456 -0.5240 -0.6616 -1.5411
 3089TIP3    H233463   6.150   3.346   8.449  0.6385  0.5341 -0.9278
 3090TIP3   OH233464   2.867   0.519   8.740  0.2000 -0.3513  0.0317
 3090TIP3    H133465   2.888   0.610   8.719  1.0955 -1.0958 -2.5968
 3090TIP3    H233466   2.923   0.499   8.815  2.8288  0.2228 -1.6368
 3091TIP3   OH233467   3.596   3.242   8.884  0.0715  0.0755 -0.1332
 3091TIP3    H133468   3.514   3.193   8.888 -0.2820  0.7409  1.1674
 3091TIP3    H233469   3.574   3.321   8.834 -0.0138  0.1148 -0.0346
 3092TIP3   OH233470   5.950   1.257   9.200 -0.2161 -0.0017  0.0438
 3092TIP3    H133471   6.016   1.285   9.137  0.7258  0.5400  1.2202
 3092TIP3    H233472   5.999   1.205   9.264 -0.6353  1.4492  1.6375
 3093TIP3   OH233473   1.209   0.356   9.251 -0.0560 -0.1837  0.2025
 3093TIP3    H133474   1.165   0.413   9.314 -0.0809 -0.0227  0.0410
 3093TIP3    H233475   1.209   0.406   9.169 -0.1317 -0.4402  0.0442
 3094TIP3   OH233476   4.915   6.910   7.509 -0.4910 -0.3788 -0.4987
 3094TIP3    H133477   4.992   6.951   7.470 -0.7140 -1.4182 -2.0897
 3094TIP3    H233478   4.846   6.923   7.444 -0.5987 -3.1443 -1.0344
 3095TIP3   OH233479   3.468   6.779   8.666  0.2091  0.3763  0.3001
 3095TIP3    H133480   3.562   6.778   8.686  0.5235  1.4303 -0.9876
 3095TIP3    H233481   3.456   6.708   8.603  0.3458  0.8653 -0.2902
 3096TIP3   OH233482   3.788   2.699   8.704 -0.5385 -0.0780  0.0330
 3096TIP3    H133483   3.827   2.767   8.650 -0.6783  0.1013  0.1563
 3096TIP3    H233484   3.814   2.617   8.662 -1.0262  0.0673 -0.5631
 3097TIP3   OH233485   6.846   2.181   7.886 -0.0333 -0.1788  0.1181
 3097TIP3    H133486   6.826   2.200   7.794 -1.0911 -1.7582 -0.0229
 3097TIP3    H233487   6.926   2.128   7.883  0.4803  0.5870  0.1877
 3098TIP3   OH233488   2.724   7.087   8.826  0.1823  0.3102 -0.3503
 3098TIP3    H133489   2.650   7.046   8.871 -0.6143  1.8309 -0.2167
 3098TIP3    H233490   2.686   7.129   8.749  1.2176 -0.4817 -1.3358
 3099TIP3   OH233491   3.758   6.744   6.867  0.1558 -0.2015  0.0078
 3099TIP3    H133492   3.696   6.799   6.818  0.7054 -0.9802 -1.6385
 3099TIP3    H233493   3.788   6.680   6.803  3.2756  0.6304  0.4785
 3100TIP3   OH233494   4.038   5.259   7.436 -0.3945  0.4178  0.1562
 3100TIP3    H133495   4.119   5.208   7.433 -1.0683 -0.8529  2.1166
 3100TIP3    H233496   3.971   5.201   7.401 -0.7514  0.8789  0.0632
 3101TIP3   OH233497   7.072   1.554   6.625  0.2702 -0.4665 -0.4075
 3101TIP3    H133498   7.065   1.459   6.639 -1.7707 -0.0781  1.7945
 3101TIP3    H233499   7.155   1.577   6.668 -1.1957 -0.7767  2.9560
 3102TIP3   OH233500   1.939   2.123   7.866 -0.8714 -0.1962 -0.0571
 3102TIP3    H133501   2.011   2.124   7.929  0.3059 -0.5363 -1.3473
 3102TIP3    H233502   1.981   2.140   7.781 -2.5175  1.2009 -0.6609
 3103TIP3   OH233503   3.902   2.619   7.205  0.3260 -0.0080 -0.2293
 3103TIP3    H133504   3.932   2.578   7.124  0.3806 -0.2219 -0.0991
 3103TIP3    H233505   3.809   2.637   7.188  0.2153 -0.4976 -0.1588
 3104TIP3   OH233506   0.553   5.586   8.001  0.0901 -0.1257  0.1801
 3104TIP3    H133507   0.505   5.518   7.953 -0.4896 -2.2119  3.3889
 3104TIP3    H233508   0.629   5.606   7.946 -1.9096 -0.2079 -2.8347
 3105TIP3   OH233509   0.856   0.014   6.984 -0.0233  0.6908  0.5187
 3105TIP3    H133510   0.876   0.074   6.912  0.5003  0.2622  0.2985
 3105TIP3    H233511   0.840  -0.070   6.941  0.7333  0.3264  0.9336
 3106TIP3   OH233512   5.014   5.143   7.489 -0.1481  0.0619  0.3253
 3106TIP3    H133513   5.086   5.201   7.465  1.0712 -0.3244  2.6912
 3106TIP3    H233514   5.031   5.063   7.440 -1.8275  1.5246 -2.9359
 3107TIP3   OH233515   4.091   4.571   7.168  0.1624  0.4796  0.0881
 3107TIP3    H133516   4.131   4.640   7.222 -0.7742  0.9477  0.2039
 3107TIP3    H233517   4.158   4.503   7.163  0.6453  0.8612  1.0151
 3108TIP3   OH233518   3.809   2.302   7.204  0.4779  0.1245 -0.4946
 3108TIP3    H133519   3.887   2.327   7.155  0.5621 -0.3018 -0.5843
 3108TIP3    H233520   3.818   2.207   7.218  0.4921  0.2538  0.4164
 3109TIP3   OH233521   1.647   3.517   6.572  0.5551  0.0380 -0.5483
 3109TIP3    H133522   1.574   3.462   6.542  0.6931 -0.9978  0.8926
 3109TIP3    H233523   1.638   3.598   6.522 -2.1599  0.3333  0.2631
 3110TIP3   OH233524   1.706   6.651   7.625  0.4884  0.1823 -0.2827
 3110TIP3    H133525   1.794   6.638   7.660  0.4207  0.7759  0.1334
 3110TIP3    H233526   1.714   6.730   7.571  0.1242  0.4640  0.0750
 3111TIP3   OH233527   0.032   2.397   7.215 -0.2889 -0.0515  0.2296
 3111TIP3    H133528  -0.029   2.331   7.182  0.9534 -1.4599  0.6582
 3111TIP3    H233529   0.076   2.429   7.136  0.7174 -1.4271  0.1885
 3112TIP3   OH233530   4.524   6.256   9.655 -0.6218 -0.0366 -0.2144
 3112TIP3    H133531   4.581   6.216   9.721 -1.2440 -2.2565 -0.9406
 3112TIP3    H233532   4.504   6.185   9.594 -1.0734  1.6351 -2.1277
 3113TIP3   OH233533   0.041   6.738   9.221 -0.8581 -0.1716 -0.4668
 3113TIP3    H133534   0.073   6.676   9.156  2.8461  0.3901  0.6008
 3113TIP3    H233535  -0.026   6.690   9.269  0.0411 -2.4273 -1.3243
 3114TIP3   OH233536   1.419   2.151   8.976  0.5919  1.1255 -0.2551
 3114TIP3    H133537   1.382   2.166   9.063  1.1470  0.9947  0.0030
 3114TIP3    H233538   1.493   2.211   8.970  1.3292  0.2388 -0.1506
 3115TIP3   OH233539   1.262   5.703   9.218  0.0155 -0.0618 -0.2780
 3115TIP3    H133540   1.277   5.673   9.128  0.2483  0.2198 -0.3318
 3115TIP3    H233541   1.216   5.630   9.260  0.2428 -0.3466 -0.5186
 3116TIP3   OH233542   4.209   3.796   7.646  0.0433  0.2332  0.2508
 3116TIP3    H133543   4.224   3.705   7.620 -2.0901  0.1798 -1.0231
 3116TIP3    H233544   4.250   3.848   7.577 -1.9406  0.1242 -1.1189
 3117TIP3   OH233545   5.851   2.737   6.552  0.2841  0.9146  0.3702
 3117TIP3    H133546   5.890   2.768   6.470 -1.4200  0.2806 -0.7266
 3117TIP3    H233547   5.844   2.816   6.606  0.1567  1.6091 -0.6261
 3118TIP3   OH233548   6.103   5.763   8.349  0.0980  0.4427 -0.2319
 3118TIP3    H133549   6.178   5.796   8.298  1.2387 -1.9639 -0.2586
 3118TIP3    H233550   6.137   5.752   8.437 -0.5751  0.4202  0.0293
 3119TIP3   OH233551   5.037   3.451   9.401  0.4662 -0.1392 -0.7144
 3119TIP3    H133552   5.123   3.480   9.371  0.1083 -1.1458 -2.8923
 3119TIP3    H233553   5.049   3.358   9.422  0.1737  0.0130  0.1842
 3120TIP3   OH233554   3.242   1.112   8.279 -0.2560  0.0099  0.2178
 3120TIP3    H133555   3.243   1.203   8.309 -0.4696  0.4587 -1.0735
 3120TIP3    H233556   3.165   1.107   8.223  1.5972 -0.0127 -2.4979
 3121TIP3   OH233557   6.328   5.026   9.551 -0.3483  0.1773  0.2503
 3121TIP3    H133558   6.266   4.962   9.516  0.5651  0.2175 -1.5479
 3121TIP3    H233559   6.390   4.973   9.603  1.6102 -0.8347 -2.8605
 3122TIP3   OH233560   2.640   4.205   9.213  0.2160  0.6229 -0.4988
 3122TIP3    H133561   2.562   4.220   9.267  1.4041 -0.4948  1.7116
 3122TIP3    H233562   2.707   4.260   9.253  1.0983 -0.1063 -0.9585
 3123TIP3   OH233563   1.964   0.086   8.945  0.5666 -0.0774  0.2367
 3123TIP3    H133564   1.984   0.066   8.853  1.9473 -1.3716  0.7706
 3123TIP3    H233565   1.930   0.175   8.943  0.2477 -0.2011 -1.5709
 3124TIP3   OH233566   7.597   5.351   8.908 -0.1904  0.4328 -0.7606
 3124TIP3    H133567   7.652   5.279   8.938  1.0605  1.9956  0.9484
 3124TIP3    H233568   7.541   5.370   8.984 -1.7614  0.1397 -1.8086
 3125TIP3   OH233569   6.999   5.411   7.112  0.3497 -0.4427 -0.1271
 3125TIP3    H133570   7.087   5.440   7.087 -0.1059  1.0936 -0.0337
 3125TIP3    H233571   6.941   5.450   7.048 -0.4587  0.3390  1.0443
 3126TIP3   OH233572   2.511   5.746   9.367  0.2839 -0.0467 -0.9787
 3126TIP3    H133573   2.474   5.659   9.353 -0.3246  0.2823 -1.4811
 3126TIP3    H233574   2.435   5.803   9.381  0.7531  0.1184  1.1171
 3127TIP3   OH233575   0.089   0.111   9.473 -0.0489 -0.8462  0.2824
 3127TIP3    H133576   0.033   0.180   9.509 -0.1498 -0.0196 -1.3697
 3127TIP3    H233577   0.178   0.134   9.503  0.0749  0.6302 -1.0609
 3128TIP3   OH233578   1.543   4.526   8.862 -0.5869 -0.5425 -0.5736
 3128TIP3    H133579   1.630   4.518   8.902 -1.0084  0.1985  0.5145
 3128TIP3    H233580   1.546   4.609   8.816 -0.7711 -0.4470 -0.4121
 3129TIP3   OH233581   5.366   5.221   9.660 -0.3174  0.4711 -0.3529
 3129TIP3    H133582   5.322   5.193   9.580 -1.6218  3.2163 -0.6840
 3129TIP3    H233583   5.391   5.312   9.644 -0.1073  0.9297  2.1507
 3130TIP3   OH233584   0.606   1.286   8.405 -0.2406  0.7222 -0.4394
 3130TIP3    H133585   0.540   1.338   8.450 -1.0673  0.6002 -1.4497
 3130TIP3    H233586   0.672   1.266   8.471 -1.0537  1.1362  0.5090
 3131TIP3   OH233587   4.154   5.423   8.469  0.0392  0.2359  0.3485
 3131TIP3    H133588   4.179   5.450   8.380  1.4377  0.8115  0.8790
 3131TIP3    H233589   4.059   5.425   8.469  0.0255  2.0540 -0.6176
 3132TIP3   OH233590   2.782   3.260   7.512 -0.1798  0.1469  0.0247
 3132TIP3    H133591   2.727   3.290   7.440 -0.1146 -0.0895 -0.1280
 3132TIP3    H233592   2.871   3.282   7.484  0.0716 -1.8901 -0.9936
 3133TIP3   OH233593   7.186   1.005   8.354 -0.1255 -0.7231  0.0321
 3133TIP3    H133594   7.255   1.033   8.294  0.2422 -0.7353  0.4448
 3133TIP3    H233595   7.107   1.048   8.321  0.7439  2.6284  1.8576
 3134TIP3   OH233596   5.882   3.230   8.448 -0.3456  0.1523 -0.4257
 3134TIP3    H133597   5.891   3.141   8.481 -0.5855  0.4147  0.3612
 3134TIP3    H233598   5.788   3.240   8.431 -0.5331  0.7218  0.8582
 3135TIP3   OH233599   7.297   4.149   8.254 -0.4369 -0.7144  0.2394
 3135TIP3    H133600   7.391   4.129   8.250 -0.1230  0.3440  1.5152
 3135TIP3    H233601   7.256   4.082   8.199  0.9426 -1.9921  0.6749
 3136TIP3   OH233602   1.836   2.677   7.913  0.0244 -0.0035  0.4286
 3136TIP3    H133603   1.774   2.606   7.931  0.6308 -1.0223 -1.2534
 3136TIP3    H233604   1.906   2.636   7.862  2.1879  1.0958  2.3321
 3137TIP3   OH233605   3.881   7.429   7.941  0.1537  0.1568  0.1735
 3137TIP3    H133606   3.887   7.336   7.962  1.3302 -0.1300 -1.2522
 3137TIP3    H233607   3.915   7.436   7.852  0.4579  2.0021  0.3867
 3138TIP3   OH233608   1.980   3.211   9.192 -0.4609 -0.6859 -0.5740
 3138TIP3    H133609   2.019   3.286   9.148  0.2706 -1.6218 -1.5758
 3138TIP3    H233610   2.051   3.175   9.245 -1.1610  0.0573  0.9353
 3139TIP3   OH233611   5.888   7.266   7.942  0.7188  0.4938  0.2825
 3139TIP3    H133612   5.930   7.336   7.993  1.1318  1.0861 -0.8332
 3139TIP3    H233613   5.903   7.187   7.993 -0.9891  1.3799  2.3181
 3140TIP3   OH233614   3.297   5.759   8.015 -0.1376  0.1834 -0.2095
 3140TIP3    H133615   3.264   5.693   8.077 -0.2701  0.1021 -0.3654
 3140TIP3    H233616   3.357   5.710   7.959  1.2967  0.5995  0.9074
 3141TIP3   OH233617   1.883   6.247   9.269 -0.1414  0.2206  0.0838
 3141TIP3    H133618   1.799   6.288   9.247  0.5053  0.9795 -1.1091
 3141TIP3    H233619   1.947   6.317   9.257  0.6871 -0.4002  0.8025
 3142TIP3   OH233620   7.510   2.046   7.054 -0.5809  0.0782  0.1804
 3142TIP3    H133621   7.430   2.023   7.005 -1.1657  1.8398  0.2494
 3142TIP3    H233622   7.510   2.141   7.057  1.4692  0.1229  0.3296
 3143TIP3   OH233623   7.655   7.371   9.247 -0.1028  0.1753  0.0978
 3143TIP3    H133624   7.681   7.391   9.336  0.8822  0.1474 -0.1693
 3143TIP3    H233625   7.655   7.275   9.243 -2.7081  0.0891  0.7750
 3144TIP3   OH233626   0.865   2.226   7.207 -0.3218  0.4853 -0.2730
 3144TIP3    H133627   0.893   2.140   7.239 -1.8594 -0.8781 -2.3581
 3144TIP3    H233628   0.782   2.243   7.253 -1.9150 -0.9300 -2.4113
 3145TIP3   OH233629   1.493   2.791   8.233 -0.1611  0.1179  0.5219
 3145TIP3    H133630   1.433   2.865   8.223 -1.9402 -1.1837  1.0320
 3145TIP3    H233631   1.558   2.802   8.164 -1.4513  1.1687 -0.5609
 3146TIP3   OH233632   3.730   5.232   8.144  0.2984  0.2159 -0.2842
 3146TIP3    H133633   3.746   5.264   8.056  0.6317 -0.0562 -0.3236
 3146TIP3    H233634   3.725   5.136   8.135  2.4120 -0.0061  0.2826
 3147TIP3   OH233635   4.528   2.031   8.093  0.1876 -0.3190  0.2096
 3147TIP3    H133636   4.525   2.106   8.152 -0.9484 -0.4249  0.3171
 3147TIP3    H233637   4.454   1.976   8.120 -0.3663 -0.3808 -1.2872
 3148TIP3   OH233638   0.347   4.091   8.575  0.0266  0.3298 -0.0982
 3148TIP3    H133639   0.376   4.116   8.663 -0.3775 -0.4757  0.2725
 3148TIP3    H233640   0.269   4.144   8.560 -0.3369 -0.0749  0.3382
 3149TIP3   OH233641   5.973   5.990   7.540 -0.1746  0.4396  0.5470
 3149TIP3    H133642   5.918   6.030   7.607 -2.0037  1.9391 -1.6797
 3149TIP3    H233643   5.995   6.062   7.481 -0.6783 -1.1693 -1.7384
 3150TIP3   OH233644   0.056   1.776   9.254 -0.3224 -0.6267  0.1237
 3150TIP3    H133645  -0.015   1.840   9.248  0.3744  0.1836  0.2753
 3150TIP3    H233646   0.017   1.700   9.297 -0.9487  0.0322  0.7416
 3151TIP3   OH233647   1.017   3.840   9.074  0.3620  0.0075 -0.2606
 3151TIP3    H133648   1.074   3.837   8.997 -1.7111 -1.8392 -1.8490
 3151TIP3    H233649   1.041   3.762   9.124 -1.0449 -1.1012 -1.2315
 3152TIP3   OH233650   4.590   3.622   8.879  0.5535  0.3510  0.0250
 3152TIP3    H133651   4.635   3.705   8.892  1.1197  0.0458  0.0764
 3152TIP3    H233652   4.532   3.613   8.955  2.4859 -0.5587  1.4698
 3153TIP3   OH233653   5.139   0.959   7.346  0.7320  0.0206 -0.5763
 3153TIP3    H133654   5.205   1.001   7.291  1.3497 -0.9497 -0.6126
 3153TIP3    H233655   5.066   0.940   7.286 -0.2410  2.3552 -0.2585
 3154TIP3   OH233656   2.059   6.022   8.554  0.3536 -0.3842 -0.4112
 3154TIP3    H133657   2.015   6.096   8.512  2.7670 -0.1463 -2.7892
 3154TIP3    H233658   2.070   6.049   8.645  2.3908  2.9043 -1.4844
 3155TIP3   OH233659   4.658   6.464   9.004 -0.4947 -0.0396  0.2436
 3155TIP3    H133660   4.671   6.483   8.911  0.7911  1.6948  0.7193
 3155TIP3    H233661   4.564   6.468   9.017 -0.5686  2.8264 -0.4534
 3156TIP3   OH233662   2.913   5.932   7.348 -0.0130  0.4006  0.0452
 3156TIP3    H133663   2.974   5.955   7.279 -1.9839  0.9946 -1.6089
 3156TIP3    H233664   2.960   5.950   7.429  1.7416  1.4310 -1.1392
 3157TIP3   OH233665   2.861   6.895   6.923 -0.2059  0.0622  0.3978
 3157TIP3    H133666   2.946   6.931   6.949  0.2298  0.2501 -1.2090
 3157TIP3    H233667   2.838   6.835   6.994  0.0558  1.8830  2.1132
 3158TIP3   OH233668   7.528   1.757   8.562 -0.0958  0.7991  0.2875
 3158TIP3    H133669   7.614   1.742   8.523 -0.1294  1.8295 -0.2309
 3158TIP3    H233670   7.520   1.853   8.565 -1.6099  0.7363 -0.5756
 3159TIP3   OH233671   6.641   4.172   8.659 -0.1636  0.2266 -0.0308
 3159TIP3    H133672   6.678   4.242   8.605  0.4956 -0.6134 -0.6794
 3159TIP3    H233673   6.595   4.219   8.729  1.0159  1.3073  0.0542
 3160TIP3   OH233674   5.789   3.796   7.287  0.0106 -0.3454  0.2882
 3160TIP3    H133675   5.728   3.803   7.361 -1.3620  0.8029 -0.8954
 3160TIP3    H233676   5.808   3.703   7.281 -1.8511 -0.7881  0.5617
 3161TIP3   OH233677   7.000   2.124   9.184  0.3857  0.3311 -0.1080
 3161TIP3    H133678   6.929   2.141   9.246 -0.4379  1.9626 -1.4253
 3161TIP3    H233679   6.956   2.091   9.106  1.4497 -2.1497  0.2331
 3162TIP3   OH233680   0.384   3.674   9.268 -0.8605  0.3653 -0.2801
 3162TIP3    H133681   0.427   3.754   9.237  0.9091 -0.2773  0.3451
 3162TIP3    H233682   0.307   3.705   9.316 -0.2153  1.6988 -0.0384
 3163TIP3   OH233683   4.078   5.144   8.515  0.0058  0.0831 -0.9308
 3163TIP3    H133684   4.048   5.142   8.424  0.7879  0.5739 -1.2166
 3163TIP3    H233685   4.150   5.207   8.514  0.9308 -0.9292 -0.2540
 3164TIP3   OH233686   3.259   5.950   6.218  0.2943  0.2466  0.1402
 3164TIP3    H133687   3.326   5.885   6.241 -0.4025 -0.8270 -0.7753
 3164TIP3    H233688   3.221   5.917   6.136  1.3506  2.8941 -1.5547
 3165TIP3   OH233689   3.446   2.655   8.493  0.0376 -0.0174 -0.2425
 3165TIP3    H133690   3.521   2.685   8.443  0.1696  0.0784  0.0120
 3165TIP3    H233691   3.452   2.701   8.577 -0.4989  0.2604 -0.3538
 3166TIP3   OH233692   3.218   0.743   9.126  0.2656  0.8434  0.1207
 3166TIP3    H133693   3.289   0.682   9.147 -0.4600  0.0223  0.2449
 3166TIP3    H233694   3.199   0.788   9.208  0.8043  1.2431  0.0287
 3167TIP3   OH233695   5.437   6.998   8.494  0.1678 -0.9006  0.1059
 3167TIP3    H133696   5.512   6.944   8.470  0.1268 -0.7970 -0.2607
 3167TIP3    H233697   5.436   7.068   8.430 -0.7367 -1.3647 -0.4152
 3168TIP3   OH233698   0.454   4.061   7.461  0.1889  0.4470  0.4690
 3168TIP3    H133699   0.371   4.016   7.446 -0.9791  2.9316 -1.2662
 3168TIP3    H233700   0.513   4.025   7.396 -0.4294  0.6344 -0.2183
 3169TIP3   OH233701   1.803   0.677   9.103 -0.2387  0.8646 -0.1774
 3169TIP3    H133702   1.856   0.741   9.056  0.9643 -0.6659 -1.0309
 3169TIP3    H233703   1.728   0.661   9.046  0.2186  0.4568 -0.6803
 3170TIP3   OH233704   6.409   5.663   8.525 -0.0627 -0.3076  0.3544
 3170TIP3    H133705   6.339   5.719   8.560  0.0278 -0.1420  0.2749
 3170TIP3    H233706   6.410   5.586   8.582  0.0788 -0.0456  0.7089
 3171TIP3   OH233707   6.401   1.773   7.395  0.2950  0.2030  0.7240
 3171TIP3    H133708   6.397   1.811   7.482  1.6454 -0.9486  1.3220
 3171TIP3    H233709   6.494   1.766   7.376  0.0247  0.9602 -1.0594
 3172TIP3   OH233710   6.342   6.733   9.383  0.4695 -0.3716  0.0997
 3172TIP3    H133711   6.417   6.730   9.442  0.1160 -0.5398  0.5441
 3172TIP3    H233712   6.380   6.717   9.296  1.4887  3.0199 -0.2201
 3173TIP3   OH233713   5.875   2.422   8.827 -0.2198 -0.6752  0.3094
 3173TIP3    H133714   5.846   2.495   8.772 -1.4583 -0.0508  1.7266
 3173TIP3    H233715   5.971   2.428   8.826 -0.2736  0.3470 -0.3800
 3174TIP3   OH233716   5.491   6.269   8.844 -0.4786  0.0309 -0.1984
 3174TIP3    H133717   5.426   6.335   8.865 -1.1434 -1.0726  1.3627
 3174TIP3    H233718   5.450   6.186   8.869  1.7645 -0.6431  1.5097
 3175TIP3   OH233719   6.349   4.344   8.497  0.2437  0.0655  0.1881
 3175TIP3    H133720   6.341   4.430   8.456 -0.1167 -0.4963 -0.9571
 3175TIP3    H233721   6.438   4.315   8.475  0.5319  0.3351  0.9717
 3176TIP3   OH233722   5.249   2.326   7.593  0.3701  0.1966  0.3785
 3176TIP3    H133723   5.297   2.291   7.517 -0.3803 -0.0677  0.0161
 3176TIP3    H233724   5.271   2.267   7.665  1.1621  0.5013  0.3919
 3177TIP3   OH233725   1.222   0.340   8.318 -0.4228  0.3405  0.0225
 3177TIP3    H133726   1.194   0.375   8.234  2.0794 -0.6033 -1.3013
 3177TIP3    H233727   1.252   0.416   8.368 -1.6119  0.8580 -0.0014
 3178TIP3   OH233728   3.818   0.510   8.386 -0.1903 -0.6580  0.3406
 3178TIP3    H133729   3.891   0.509   8.325 -0.3400 -0.8760  0.1653
 3178TIP3    H233730   3.820   0.598   8.424  0.9196 -1.0425  1.2518
 3179TIP3   OH233731   3.893   0.697   8.069  0.6183 -0.1186  0.2347
 3179TIP3    H133732   3.939   0.746   8.001  1.6859 -1.1302  0.2103
 3179TIP3    H233733   3.825   0.757   8.099  0.2012  0.4057 -1.6215
 3180TIP3   OH233734   2.386   3.565   8.041  0.0437  0.0714  0.1654
 3180TIP3    H133735   2.366   3.549   8.133  2.3191 -1.6621  0.4380
 3180TIP3    H233736   2.468   3.614   8.042  0.8416 -1.1499 -0.8995
 3181TIP3   OH233737   2.794   6.212   8.697 -0.1042  0.2314 -0.0949
 3181TIP3    H133738   2.716   6.251   8.658 -0.2629 -0.3890 -0.4125
 3181TIP3    H233739   2.775   6.118   8.700  1.2914 -0.1504 -1.7287
 3182TIP3   OH233740   5.725   6.377   8.254 -0.0482  0.1186 -0.0532
 3182TIP3    H133741   5.819   6.396   8.250  0.1885 -0.5466  1.5368
 3182TIP3    H233742   5.692   6.438   8.320 -0.5783 -0.2534  0.0286
 3183TIP3   OH233743   2.752   5.555   8.519 -0.8559 -0.2712  0.2824
 3183TIP3    H133744   2.843   5.584   8.518 -0.3948 -1.6258  0.6984
 3183TIP3    H233745   2.701   5.635   8.507  0.3562  0.6580  1.0917
 3184TIP3   OH233746   5.964   0.535   9.678 -0.5113 -0.8032 -0.2368
 3184TIP3    H133747   6.022   0.499   9.611  0.0624 -0.9496  0.3292
 3184TIP3    H233748   6.014   0.528   9.759 -0.2969  1.3754 -0.1143
 3185TIP3   OH233749   3.528   0.732   9.481 -0.3984  0.2611 -0.2804
 3185TIP3    H133750   3.459   0.668   9.497 -1.2450  0.5451 -2.3694
 3185TIP3    H233751   3.603   0.680   9.451  0.2734 -0.0267  1.7620
 3186TIP3   OH233752   1.881   4.997   7.603  0.1008 -0.5713 -0.1404
 3186TIP3    H133753   1.934   4.921   7.577  0.0965 -0.2877 -1.0084
 3186TIP3    H233754   1.805   4.994   7.545  0.0469  0.0310 -0.1087
 3187TIP3   OH233755   3.536   1.773   9.023 -0.6503  0.6166  0.1056
 3187TIP3    H133756   3.565   1.698   8.972 -1.8973  1.0808 -1.3788
 3187TIP3    H233757   3.449   1.748   9.055 -0.3819  0.8057  1.0280
 3188TIP3   OH233758   2.307   6.915   7.604 -0.2570  0.2311 -0.1165
 3188TIP3    H133759   2.314   6.981   7.535  1.8371  0.6546  0.4316
 3188TIP3    H233760   2.240   6.854   7.572  0.8684  0.2249 -2.7307
 3189TIP3   OH233761   4.397   5.625   8.883  0.2427 -0.1318 -0.3927
 3189TIP3    H133762   4.364   5.581   8.961 -1.3892  0.0554 -0.9387
 3189TIP3    H233763   4.391   5.560   8.813  2.1586 -0.4603 -0.3252
 3190TIP3   OH233764   3.363   4.522   6.760 -0.3403 -0.5085 -0.1029
 3190TIP3    H133765   3.308   4.499   6.835 -0.6115 -1.8171 -0.6650
 3190TIP3    H233766   3.430   4.453   6.757  1.8682  1.4672  1.0195
 3191TIP3   OH233767   0.545   6.410   7.216 -0.0172 -0.5672  0.3285
 3191TIP3    H133768   0.597   6.427   7.138  1.0637 -0.2073  1.0954
 3191TIP3    H233769   0.570   6.480   7.277 -0.3065 -1.2497  1.2467
 3192TIP3   OH233770   3.169   3.493   8.045  0.2327 -0.1467 -0.6781
 3192TIP3    H133771   3.093   3.467   7.993  0.2200 -1.8072  0.0902
 3192TIP3    H233772   3.158   3.445   8.128  0.5882  1.8981  0.6103
 3193TIP3   OH233773   1.929   2.498   9.087 -0.1257 -0.0784  0.8659
 3193TIP3    H133774   1.907   2.406   9.078 -1.1993  0.2127  0.3784
 3193TIP3    H233775   1.932   2.513   9.182  0.9738 -0.8060  0.9644
 3194TIP3   OH233776   2.461   3.421   8.803 -0.0366 -0.2322 -0.0326
 3194TIP3    H133777   2.380   3.466   8.779  0.7531  0.9622 -0.5924
 3194TIP3    H233778   2.506   3.407   8.720  0.8593  0.1882  0.3692
 3195TIP3   OH233779   0.870   4.396   8.633  0.0031  0.1927  0.2733
 3195TIP3    H133780   0.777   4.410   8.651  0.2349  1.9539  0.2501
 3195TIP3    H233781   0.879   4.300   8.630 -2.0195 -0.0273 -0.8533
 3196TIP3   OH233782   5.133   3.634   8.166  0.1568  0.1326 -0.2875
 3196TIP3    H133783   5.089   3.590   8.093 -0.1624  0.8910 -0.5578
 3196TIP3    H233784   5.097   3.592   8.245 -1.1005  0.7771 -0.5014
 3197TIP3   OH233785   4.120   0.094   9.076 -0.8446 -0.0048  0.5875
 3197TIP3    H133786   4.181   0.027   9.108  1.3874  0.6198 -2.0165
 3197TIP3    H233787   4.142   0.172   9.128  0.4950  0.1547 -0.1692
 3198TIP3   OH233788   0.690   2.972   8.582 -0.3201 -1.1310  0.1941
 3198TIP3    H133789   0.783   2.977   8.602 -0.2362 -1.2929 -0.1396
 3198TIP3    H233790   0.673   2.878   8.575 -0.1142 -1.0689 -1.5028
 3199TIP3   OH233791   7.515   3.618   8.230  0.2798  0.0609  0.3353
 3199TIP3    H133792   7.471   3.602   8.314  1.1309  0.9310  0.9702
 3199TIP3    H233793   7.603   3.584   8.242  0.6217  0.8290  0.0419
 3200TIP3   OH233794   5.046   7.547   7.396 -0.1194  0.5471 -0.3445
 3200TIP3    H133795   4.962   7.526   7.437  0.2274 -2.3546 -0.8768
 3200TIP3    H233796   5.024   7.607   7.325 -1.4620  1.3287  0.6850
 3201TIP3   OH233797   6.175   4.300   7.955  0.0819 -0.6267 -0.1156
 3201TIP3    H133798   6.216   4.372   7.907 -0.6995  0.2459  0.4808
 3201TIP3    H233799   6.112   4.262   7.894 -0.9812  0.5439  0.1900
 3202TIP3   OH233800   1.752   5.949   9.420  0.5207  1.0081 -0.2229
 3202TIP3    H133801   1.753   5.967   9.514  1.3935  0.5577 -0.1368
 3202TIP3    H233802   1.660   5.930   9.401  0.6513 -1.0644  0.9719
 3203TIP3   OH233803   6.582   7.445   8.650  0.4885  0.1502 -0.7559
 3203TIP3    H133804   6.608   7.429   8.559  2.1844  1.2750 -0.5324
 3203TIP3    H233805   6.571   7.358   8.688 -1.1661 -0.3394 -2.2429
 3204TIP3   OH233806   7.471   2.024   8.536  0.5567  0.0866  0.3160
 3204TIP3    H133807   7.400   2.080   8.567 -1.2884 -0.5747 -2.2859
 3204TIP3    H233808   7.542   2.084   8.516 -0.4542  1.2131 -0.0467
 3205TIP3   OH233809   1.737   2.926   7.731  0.4868 -0.0754 -0.1681
 3205TIP3    H133810   1.698   2.863   7.669  0.9852  1.5181 -2.2006
 3205TIP3    H233811   1.816   2.883   7.762 -0.2387 -1.2773  0.0891
 3206TIP3   OH233812   0.462   5.326   8.710 -0.2032  0.4636 -0.3612
 3206TIP3    H133813   0.532   5.280   8.664 -0.7316 -0.7337  0.0054
 3206TIP3    H233814   0.381   5.286   8.679 -0.5686 -0.5817  1.7540
 3207TIP3   OH233815   1.717   0.673   8.669  0.3982 -0.2694  0.2182
 3207TIP3    H133816   1.791   0.700   8.615  2.5853 -1.6794  2.3097
 3207TIP3    H233817   1.703   0.581   8.646 -1.5507  0.2821 -0.9904
 3208TIP3   OH233818   6.410   6.721   9.103 -0.8236 -0.0847  0.0811
 3208TIP3    H133819   6.379   6.810   9.119 -2.0872 -0.5344  0.2359
 3208TIP3    H233820   6.347   6.684   9.041 -0.4869 -0.9762  0.2464
 3209TIP3   OH233821   3.624   3.646   9.377  0.3652 -0.2248  0.2599
 3209TIP3    H133822   3.679   3.571   9.401  0.8554 -0.4897 -1.4968
 3209TIP3    H233823   3.598   3.628   9.287 -1.4119  0.6363  0.5574
 3210TIP3   OH233824   0.945   4.875   9.194 -0.2279  0.2073  0.0602
 3210TIP3    H133825   1.038   4.857   9.182 -0.5774 -2.1861  0.3828
 3210TIP3    H233826   0.918   4.817   9.265 -1.5223  2.5517  1.6005
 3211TIP3   OH233827   6.068   3.855   7.952  0.1828  0.7912  0.0050
 3211TIP3    H133828   6.162   3.837   7.960 -0.3521 -1.5250  2.3293
 3211TIP3    H233829   6.036   3.786   7.893 -0.4606 -0.3730  1.6390
 3212TIP3   OH233830   2.686   4.887   9.143  0.2268  0.5868  0.2900
 3212TIP3    H133831   2.731   4.803   9.141 -0.5465  0.1651 -2.3850
 3212TIP3    H233832   2.594   4.865   9.133  0.0462  1.7523 -0.7946
 3213TIP3   OH233833   5.275   7.576   7.879 -0.9213  0.4482  0.1171
 3213TIP3    H133834   5.343   7.639   7.856  0.2947 -0.9615 -0.3341
 3213TIP3    H233835   5.318   7.490   7.870 -2.4302 -0.4380  0.9582
 3214TIP3   OH233836   2.508   6.456   9.236  0.7239 -0.0882  0.1999
 3214TIP3    H133837   2.521   6.435   9.144 -1.0374  0.6414 -0.2514
 3214TIP3    H233838   2.450   6.388   9.269  0.4507  0.2699  0.4708
 3215TIP3   OH233839   5.660   2.842   7.851  0.2438  0.6766 -0.0507
 3215TIP3    H133840   5.633   2.800   7.769  0.6503 -0.0376  0.1679
 3215TIP3    H233841   5.745   2.803   7.870  0.7750  1.8386  0.0157
 3216TIP3   OH233842   1.950   3.047   7.307  0.2264  0.7389 -0.1276
 3216TIP3    H133843   1.873   3.012   7.260 -0.5937  0.7926  1.1355
 3216TIP3    H233844   2.024   3.020   7.253 -0.3073 -3.0828  0.7289
 3217TIP3   OH233845   4.917   2.474   7.322 -0.1529  0.1686  0.0747
 3217TIP3    H133846   5.011   2.492   7.319 -0.3702  1.3310 -1.3417
 3217TIP3    H233847   4.900   2.424   7.242 -0.4869 -1.6110  1.2068
 3218TIP3   OH233848   1.085   0.487   7.689  0.1098 -0.3028 -0.5779
 3218TIP3    H133849   1.008   0.485   7.746  0.4398  1.0531 -0.0380
 3218TIP3    H233850   1.054   0.530   7.609  0.3089  0.3764 -0.3048
 3219TIP3   OH233851   5.481   5.101   8.957  0.6678 -0.4214 -0.1415
 3219TIP3    H133852   5.506   5.193   8.963 -2.8493  0.7171 -0.5857
 3219TIP3    H233853   5.479   5.071   9.048  2.2353 -0.2275 -0.0221
 3220TIP3   OH233854   2.287   6.538   6.925 -0.1385 -0.2731 -0.6011
 3220TIP3    H133855   2.210   6.544   6.981 -0.3466  0.3715 -0.9490
 3220TIP3    H233856   2.252   6.527   6.837  0.0973  1.5388 -0.9749
 3221TIP3   OH233857   1.040   4.590   7.551 -0.0865  0.7111  0.1185
 3221TIP3    H133858   1.123   4.619   7.515  0.2887  0.7806  1.0214
 3221TIP3    H233859   1.002   4.535   7.482  2.1915 -2.0041  0.8441
 3222TIP3   OH233860   0.396   1.104   8.244 -0.6509 -0.2395  0.4489
 3222TIP3    H133861   0.404   1.199   8.255  0.7206 -0.3632  0.6136
 3222TIP3    H233862   0.484   1.074   8.222 -1.2468 -1.3700 -0.5018
 3223TIP3   OH233863   1.370   2.594   8.450  0.2106  0.3021  0.5496
 3223TIP3    H133864   1.337   2.534   8.518  0.9102 -0.4390  0.2486
 3223TIP3    H233865   1.464   2.580   8.450  0.0807 -1.0775 -1.8121
 3224TIP3   OH233866   2.032   6.865   6.713  0.1420  0.0294 -0.1975
 3224TIP3    H133867   2.118   6.838   6.745  1.1744 -0.4574 -3.0890
 3224TIP3    H233868   1.972   6.802   6.752  1.1976 -0.2442  1.0841
 3225TIP3   OH233869   4.974   0.566   8.537  0.1567  0.7510  0.0387
 3225TIP3    H133870   4.939   0.641   8.585 -0.1620  0.7162 -0.1355
 3225TIP3    H233871   5.057   0.597   8.502 -0.0315  1.0688 -0.1369
 3226TIP3   OH233872   5.059   7.197   8.752 -0.3047  0.5095  0.0791
 3226TIP3    H133873   5.139   7.144   8.763 -1.3676 -0.8584  1.7601
 3226TIP3    H233874   5.072   7.244   8.670  1.9472 -0.1743 -0.0145
 3227TIP3   OH233875   4.710   0.597   9.462 -0.1787  0.3889 -0.1887
 3227TIP3    H133876   4.779   0.544   9.502 -1.5970  0.5919  2.7464
 3227TIP3    H233877   4.631   0.544   9.469 -0.8301  1.1919 -1.1205
 3228TIP3   OH233878   0.098   3.153   9.059  0.1493 -0.3788 -0.2555
 3228TIP3    H133879   0.143   3.201   8.990 -0.0577 -0.1401 -0.2258
 3228TIP3    H233880   0.168   3.118   9.113  0.3125 -0.5037 -0.5432
 3229TIP3   OH233881   7.288   5.036   8.687 -0.4581 -0.6649 -0.3065
 3229TIP3    H133882   7.250   5.091   8.619 -1.5338 -1.8516 -0.7004
 3229TIP3    H233883   7.274   5.084   8.768  0.5466  0.6186 -0.8527
 3230TIP3   OH233884   3.371   7.594   7.106 -0.4215  0.0219  0.3677
 3230TIP3    H133885   3.309   7.545   7.051 -1.2787 -0.7806  1.9705
 3230TIP3    H233886   3.382   7.677   7.061  0.8174 -1.4406 -2.3102
 3231TIP3   OH233887   5.701   5.513   9.427 -0.3566  0.4533  0.1316
 3231TIP3    H133888   5.783   5.555   9.401  0.0506  0.2565  1.0374
 3231TIP3    H233889   5.725   5.422   9.443 -0.7715  0.3754  0.3084
 3232TIP3   OH233890   6.025   0.208   7.173  0.0366  0.0291  0.0905
 3232TIP3    H133891   5.954   0.145   7.185  0.6065 -0.9171 -1.2006
 3232TIP3    H233892   6.018   0.234   7.081  1.8169 -0.6812 -0.2829
 3233TIP3   OH233893   4.125   5.993   9.019 -0.4267 -0.3131  0.6964
 3233TIP3    H133894   4.141   6.055   8.948  0.5689  0.1402  1.2934
 3233TIP3    H233895   4.034   5.964   9.006 -0.4329  0.1651 -0.4312
 3234TIP3   OH233896   3.714   3.126   7.378 -0.3542 -0.6394 -0.3147
 3234TIP3    H133897   3.683   3.151   7.291  1.1357 -0.8532 -0.9394
 3234TIP3    H233898   3.714   3.030   7.376 -1.0790 -0.6512  0.2089
 3235TIP3   OH233899   3.929   5.651   8.219 -0.2051  0.5104  0.2633
 3235TIP3    H133900   3.943   5.620   8.129 -2.2289  1.3512 -0.3951
 3235TIP3    H233901   3.940   5.746   8.213  0.0651  0.5247  0.9990
 3236TIP3   OH233902   5.700   1.376   6.702  0.3798  0.4901  0.2401
 3236TIP3    H133903   5.779   1.372   6.648 -0.0508  1.7003 -0.5358
 3236TIP3    H233904   5.712   1.454   6.757 -1.1688  2.0515 -1.4782
 3237TIP3   OH233905   1.489   5.617   7.815 -0.1792  0.2159  0.1173
 3237TIP3    H133906   1.578   5.587   7.830 -0.6416 -0.8358  0.8526
 3237TIP3    H233907   1.443   5.540   7.781 -0.8213  0.7388 -0.2239
 3238TIP3   OH233908   1.583   3.639   7.666  0.4414 -0.5954 -0.8931
 3238TIP3    H133909   1.576   3.666   7.575  2.4222  1.7948 -0.4285
 3238TIP3    H233910   1.662   3.586   7.670  0.4224 -0.6034 -0.5606
 3239TIP3   OH233911   5.262   2.135   8.766  0.3151 -0.1838  0.2983
 3239TIP3    H133912   5.237   2.044   8.746 -0.4240 -0.1236  0.9120
 3239TIP3    H233913   5.199   2.163   8.832  0.4797  0.8141  0.0467
 3240TIP3   OH233914   4.807   5.954   8.910 -0.3942  0.2145 -0.8599
 3240TIP3    H133915   4.881   5.916   8.862  0.6911  0.3733  0.6337
 3240TIP3    H233916   4.734   5.895   8.891  0.4542 -0.7518 -1.2243
 3241TIP3   OH233917   5.097   4.582   7.527  0.2684  0.9249  0.3270
 3241TIP3    H133918   5.021   4.607   7.473  0.4436 -0.0434 -0.3806
 3241TIP3    H233919   5.168   4.569   7.465  0.3567 -0.6747  0.7352
 3242TIP3   OH233920   1.681   3.349   7.927 -0.3863  0.4361  1.0814
 3242TIP3    H133921   1.748   3.416   7.912  0.8471 -1.0146 -0.1927
 3242TIP3    H233922   1.728   3.277   7.970 -1.2570 -0.3693  0.7196
 3243TIP3   OH233923   5.091   0.258   9.941  0.4522 -0.0749 -0.5262
 3243TIP3    H133924   5.023   0.227  10.002  1.2357 -2.1209 -0.6083
 3243TIP3    H233925   5.045   0.273   9.859 -0.1593  0.0998 -0.1589
 3244TIP3   OH233926   4.486   0.355   8.531 -0.3973  0.4250  0.8325
 3244TIP3    H133927   4.478   0.280   8.589  0.8431 -2.8664 -2.8176
 3244TIP3    H233928   4.580   0.366   8.517 -0.5988  2.0677  0.5455
 3245TIP3   OH233929   6.581   3.254   7.991 -0.1230  0.1947 -0.0398
 3245TIP3    H133930   6.584   3.346   7.966  1.1099  0.7331  1.8463
 3245TIP3    H233931   6.581   3.206   7.908 -0.6172  1.8808 -1.0517
 3246TIP3   OH233932   1.777   2.285   6.666 -0.4998  0.6261  0.3369
 3246TIP3    H133933   1.818   2.233   6.597 -1.5304  1.3622 -0.8735
 3246TIP3    H233934   1.846   2.345   6.695 -0.6351  1.8379 -1.6604
 3247TIP3   OH233935   3.051   6.031   7.119  0.5521  0.1819  0.0812
 3247TIP3    H133936   3.047   5.945   7.077  0.0756 -0.4506  1.3815
 3247TIP3    H233937   3.040   6.093   7.046 -0.1215 -0.8701 -0.7574
 3248TIP3   OH233938   5.917   7.127   9.675 -0.2474  0.2225 -0.0145
 3248TIP3    H133939   5.845   7.094   9.621  0.4755 -0.0147 -0.8725
 3248TIP3    H233940   5.986   7.061   9.665  0.9332  1.5486 -1.0897
 3249TIP3   OH233941   2.013   2.032   8.856  0.4838  0.3538  0.4990
 3249TIP3    H133942   2.029   2.110   8.909 -0.2801 -0.2115  1.6281
 3249TIP3    H233943   1.955   2.062   8.787  1.4201  1.0938  0.0128
 3250TIP3   OH233944   7.016   1.193   9.120  0.3583  0.6743  0.1088
 3250TIP3    H133945   6.991   1.279   9.088 -1.5294 -0.6563 -2.3096
 3250TIP3    H233946   7.069   1.155   9.050 -0.2119 -0.7222  0.3950
 3251TIP3   OH233947   2.356   1.741   8.438  0.1835 -0.5722 -0.6662
 3251TIP3    H133948   2.417   1.762   8.368  0.3673 -1.3113 -0.7390
 3251TIP3    H233949   2.316   1.824   8.461  0.8022 -0.1739 -1.0098
 3252TIP3   OH233950   4.891   3.104   7.850 -0.6575 -0.2257  0.6554
 3252TIP3    H133951   4.956   3.038   7.825 -1.6051 -1.2328  0.8177
 3252TIP3    H233952   4.899   3.172   7.782  2.5805  1.1720  2.1818
 3253TIP3   OH233953   3.422   0.964   9.695  0.2987 -0.1322  0.1209
 3253TIP3    H133954   3.372   0.935   9.771 -1.0948 -0.8435 -1.0137
 3253TIP3    H233955   3.435   0.884   9.644 -0.4241  0.6209 -1.2911
 3254TIP3   OH233956   5.252   5.962   8.467 -0.1802 -0.1109 -0.4938
 3254TIP3    H133957   5.253   5.903   8.392  0.0561 -0.8016  0.0424
 3254TIP3    H233958   5.267   6.049   8.429  1.0641 -0.5758 -1.1368
 3255TIP3   OH233959   3.383   3.091   7.737 -0.4324  0.1924  0.3315
 3255TIP3    H133960   3.297   3.051   7.722 -0.9248  1.1547  0.4649
 3255TIP3    H233961   3.365   3.163   7.798 -0.0858  2.3164 -1.8912
 3256TIP3   OH233962   7.208   3.007   8.608  0.4022 -0.5818 -0.4055
 3256TIP3    H133963   7.245   2.918   8.610 -0.2711 -0.8865 -1.1976
 3256TIP3    H233964   7.151   3.010   8.685  0.6143 -0.7585 -0.2397
 3257TIP3   OH233965   0.462   1.865   7.447 -0.0297 -0.0002  0.1156
 3257TIP3    H133966   0.499   1.951   7.465  0.5395 -0.1355 -0.4060
 3257TIP3    H233967   0.447   1.827   7.534 -1.3898  1.0756  0.3924
 3258TIP3   OH233968   0.701   5.630   9.210 -0.3201  0.4557 -0.9466
 3258TIP3    H133969   0.664   5.574   9.142 -1.3453 -0.1688  0.1108
 3258TIP3    H233970   0.767   5.575   9.253  1.2807  1.2652 -2.2202
 3259TIP3   OH233971   5.682   2.254   8.688 -0.4109 -0.0124  0.0314
 3259TIP3    H133972   5.763   2.266   8.737 -0.0600 -1.4768 -0.1253
 3259TIP3    H233973   5.700   2.290   8.601  0.1635 -0.5314 -0.0684
 3260TIP3   OH233974   0.748   6.291   9.699  0.4532  0.5869  0.3975
 3260TIP3    H133975   0.775   6.265   9.611  0.6422 -0.9722  0.8754
 3260TIP3    H233976   0.829   6.290   9.750  0.1570  0.2307  0.8660
 3261TIP3   OH233977   0.491   6.933   7.300  0.2036 -0.5427  0.2681
 3261TIP3    H133978   0.451   6.901   7.219 -1.9136  0.6860  0.7347
 3261TIP3    H233979   0.491   7.029   7.290 -2.9975 -0.1066  2.8450
 3262TIP3   OH233980   3.767   7.151   6.782 -0.6261  0.0305 -0.4874
 3262TIP3    H133981   3.778   7.101   6.863  2.0983 -0.1175 -0.8595
 3262TIP3    H233982   3.715   7.227   6.807 -0.4787 -0.3936  1.2309
 3263TIP3   OH233983   5.904   7.187   8.862 -0.3943  0.8155 -0.4200
 3263TIP3    H133984   5.955   7.130   8.918  1.1966  2.3693 -0.1753
 3263TIP3    H233985   5.816   7.189   8.901 -0.9856 -2.5459 -1.3063
 3264TIP3   OH233986   1.691   7.212   9.279  0.1364  0.6354  0.1611
 3264TIP3    H133987   1.757   7.265   9.324  0.3606 -1.0681  2.0343
 3264TIP3    H233988   1.608   7.240   9.317  0.2394 -0.1440  1.0210
 3265TIP3   OH233989   6.062   7.135   9.356 -0.7659  0.2041  0.4643
 3265TIP3    H133990   6.073   7.056   9.411 -0.5698 -0.3846 -0.4044
 3265TIP3    H233991   5.970   7.160   9.369 -0.8593 -0.2246  0.6645
 3266TIP3   OH233992   5.095   1.330   8.785  0.4818  0.3136 -0.4179
 3266TIP3    H133993   5.174   1.383   8.780  0.5014  0.3437  0.1569
 3266TIP3    H233994   5.036   1.378   8.842  0.6835 -0.5013  0.5022
 3267TIP3   OH233995   2.313   2.178   8.255  0.4061 -0.0575  0.0123
 3267TIP3    H133996   2.311   2.273   8.242  0.2855  0.0774  0.9680
 3267TIP3    H233997   2.391   2.163   8.308  1.0997 -0.6382 -1.1234
 3268TIP3   OH233998   0.284   7.024   8.460  0.2086 -0.3546  0.1613
 3268TIP3    H133999   0.354   7.055   8.402 -1.5644  0.1165 -1.8752
 3268TIP3    H234000   0.218   7.094   8.458  0.2323 -0.1433  3.1515
 3269TIP3   OH234001   6.702   2.378   8.054 -0.0451 -0.4778  0.9341
 3269TIP3    H134002   6.750   2.450   8.013 -2.2303  0.7898  0.4236
 3269TIP3    H234003   6.753   2.299   8.032  0.4064  0.4702 -1.8237
 3270TIP3   OH234004   0.489   0.336   8.707  0.4948  0.1196  0.2353
 3270TIP3    H134005   0.472   0.311   8.616 -2.0904 -1.5808  1.0691
 3270TIP3    H234006   0.477   0.255   8.756 -0.7508  1.5006  2.3452
 3271TIP3   OH234007   3.552   4.374   8.938  0.4615  0.2793 -0.6496
 3271TIP3    H134008   3.496   4.431   8.886 -3.5987 -0.7173  2.1447
 3271TIP3    H234009   3.556   4.416   9.024  0.6072 -1.6781  0.3634
 3272TIP3   OH234010   3.568   1.703   7.991  0.5002  0.5702 -0.3057
 3272TIP3    H134011   3.652   1.676   7.954 -0.2365 -0.2532 -1.4358
 3272TIP3    H234012   3.552   1.639   8.061 -1.1389 -2.0330 -2.8338
 3273TIP3   OH234013   3.584   7.393   7.829 -1.0416  0.0170  0.1899
 3273TIP3    H134014   3.648   7.322   7.833 -0.1761  0.6575 -1.1639
 3273TIP3    H234015   3.499   7.349   7.821 -0.7075 -0.8539  1.2396
 3274TIP3   OH234016   5.576   6.023   7.872 -0.2553 -0.6093 -0.2781
 3274TIP3    H134017   5.548   6.024   7.963 -0.4792 -1.2025 -0.3342
 3274TIP3    H234018   5.509   6.073   7.825 -0.5079 -0.8785 -0.2117
 3275TIP3   OH234019   3.024   0.217   9.431  0.0271  0.1653 -0.2785
 3275TIP3    H134020   3.108   0.202   9.474 -1.1173  0.6472  2.3176
 3275TIP3    H234021   2.974   0.137   9.447 -0.4575  0.3704 -0.7227
 3276TIP3   OH234022   5.615   5.387   8.475  0.0457  0.4551  0.4632
 3276TIP3    H134023   5.588   5.393   8.567 -2.4846  1.6396 -0.2694
 3276TIP3    H234024   5.590   5.299   8.448  0.2195  0.3183  0.7447
 3277TIP3   OH234025   5.460   0.853   8.113 -0.1573  0.2674 -0.4960
 3277TIP3    H134026   5.550   0.885   8.120 -0.4771  1.4706 -1.4790
 3277TIP3    H234027   5.435   0.871   8.022 -0.9747 -1.2127 -0.5925
 3278TIP3   OH234028   3.965   5.931   8.190  0.2597  0.1910  0.2397
 3278TIP3    H134029   3.974   5.957   8.098  0.3793  2.2074  0.7671
 3278TIP3    H234030   3.933   6.010   8.234  0.2849 -0.7100  1.9497
 3279TIP3   OH234031   3.190   6.492   8.607  0.0299 -0.1865 -0.6684
 3279TIP3    H134032   3.191   6.426   8.675 -1.0249  0.5518  0.1119
 3279TIP3    H234033   3.280   6.522   8.600  0.2395 -0.6308  0.0489
 3280TIP3   OH234034   1.358   2.835   8.736  0.2680 -0.3007  0.3057
 3280TIP3    H134035   1.421   2.839   8.665  0.9957 -0.3290  0.9360
 3280TIP3    H234036   1.364   2.920   8.779  1.7638 -1.1608  1.9260
 3281TIP3   OH234037   4.431   3.040   9.430 -0.0426 -0.4051 -0.3498
 3281TIP3    H134038   4.479   3.096   9.370 -0.5516 -0.3073 -0.6687
 3281TIP3    H234039   4.382   3.100   9.486 -0.0448 -0.5117 -0.2360
 3282TIP3   OH234040   7.391   1.042   8.800  0.8059  0.6280  0.8295
 3282TIP3    H134041   7.466   1.063   8.744 -0.2395  0.4326 -0.7148
 3282TIP3    H234042   7.397   1.104   8.872  1.1151  2.2781 -0.5429
 3283TIP3   OH234043   5.372   2.275   7.287 -0.2808 -0.2695  0.4486
 3283TIP3    H134044   5.366   2.179   7.286 -0.5403 -0.2730  1.3121
 3283TIP3    H234045   5.460   2.294   7.254 -0.4067 -0.7801 -0.1979
 3284TIP3   OH234046   0.056   3.724   8.725 -0.4461 -0.0878 -0.1609
 3284TIP3    H134047   0.025   3.730   8.815 -0.0245  0.0667 -0.0221
 3284TIP3    H234048   0.009   3.794   8.679  1.8997  2.2129  0.7047
 3285TIP3   OH234049   0.750   1.962   8.709 -0.3186  0.5139  0.2680
 3285TIP3    H134050   0.667   2.010   8.709 -1.4162 -1.2431 -1.2695
 3285TIP3    H234051   0.745   1.905   8.786 -1.0441 -0.3253 -0.3762
 3286TIP3   OH234052   1.963   7.364   8.116 -0.0626  0.7269 -0.8200
 3286TIP3    H134053   1.959   7.454   8.081  0.4540  1.3668  0.6881
 3286TIP3    H234054   2.053   7.336   8.101  0.6753  1.6662  1.4483
 3287TIP3   OH234055   1.646   5.570   8.655 -0.0819 -0.5570 -0.4024
 3287TIP3    H134056   1.558   5.539   8.633 -0.8577  0.6167  0.9571
 3287TIP3    H234057   1.637   5.664   8.669  1.9350  0.1292 -2.8760
 3288TIP3   OH234058   0.880   5.302   8.640 -0.6626  0.1029 -0.0499
 3288TIP3    H134059   0.914   5.366   8.703  1.4969  0.8353 -1.8313
 3288TIP3    H234060   0.909   5.217   8.673  1.9929  0.6129 -0.8758
 3289TIP3   OH234061   4.637   6.872   9.841 -0.2897  0.1493  0.0374
 3289TIP3    H134062   4.704   6.906   9.783 -1.4261 -0.0694 -1.4798
 3289TIP3    H234063   4.629   6.780   9.818 -0.5124 -0.0281  0.7899
 3290TIP3   OH234064   0.509   3.306   7.598 -0.0679  0.2022  0.3211
 3290TIP3    H134065   0.502   3.211   7.608  2.7404  0.0686  2.3286
 3290TIP3    H234066   0.522   3.338   7.687  1.2691  2.2175 -0.5378
 3291TIP3   OH234067   5.837   6.771   7.882 -0.4793 -0.0907  0.0238
 3291TIP3    H134068   5.839   6.763   7.786 -0.3580 -0.0729  0.0250
 3291TIP3    H234069   5.897   6.703   7.913 -0.2839  0.1027  0.0753
 3292TIP3   OH234070   2.787   3.982   8.815  0.1114  0.5249 -0.4738
 3292TIP3    H134071   2.801   4.054   8.877  1.1593  0.5052 -0.6712
 3292TIP3    H234072   2.872   3.970   8.773 -0.1173 -0.6784 -0.6124
 3293TIP3   OH234073   3.549   0.473   7.245  0.0534 -0.5078  0.8861
 3293TIP3    H134074   3.458   0.442   7.237  0.6212 -1.9831 -0.3248
 3293TIP3    H234075   3.566   0.516   7.162  0.8946 -1.5135  0.5173
 3294TIP3   OH234076   6.432   3.324   8.524  0.4545 -0.6197  0.5974
 3294TIP3    H134077   6.371   3.254   8.547  0.4326 -0.8819 -0.2110
 3294TIP3    H234078   6.519   3.285   8.537  0.4537 -1.1724 -0.8374
 3295TIP3   OH234079   0.964   5.468   9.271  0.2710 -0.4096  0.0021
 3295TIP3    H134080   0.997   5.480   9.182 -0.6385  0.0084 -0.2939
 3295TIP3    H234081   0.916   5.385   9.269  0.9185 -0.7976  0.3159
 3296TIP3   OH234082   3.144   4.602   7.869  0.1490  0.4240 -0.0236
 3296TIP3    H134083   3.072   4.666   7.861 -1.4265 -1.2818 -0.1767
 3296TIP3    H234084   3.216   4.642   7.820 -0.7985  2.0457 -0.1917
 3297TIP3   OH234085   3.820   7.074   8.120  0.1216 -0.3986 -0.2684
 3297TIP3    H134086   3.800   7.078   8.213 -0.7851  0.8517 -0.4844
 3297TIP3    H234087   3.903   7.027   8.115  1.3110  1.3805  1.3716
 3298TIP3   OH234088   7.434   2.354   8.810 -0.3502 -0.0219 -0.4096
 3298TIP3    H134089   7.508   2.387   8.861 -0.2906  2.0460 -1.7147
 3298TIP3    H234090   7.398   2.283   8.864  0.5587  1.0996  1.8127
 3299TIP3   OH234091   2.453   5.046   7.432 -0.3031 -0.2023 -0.4164
 3299TIP3    H134092   2.473   5.139   7.422 -0.0418 -0.3161 -1.0154
 3299TIP3    H234093   2.422   5.019   7.345 -0.9249 -0.5471 -0.0958
 3300TIP3   OH234094   0.019   4.354   7.162  0.2796  0.1326  0.2715
 3300TIP3    H134095  -0.021   4.351   7.075  3.3181  0.2922 -1.2565
 3300TIP3    H234096   0.040   4.263   7.182 -0.2678  0.1149  0.8334
 3301TIP3   OH234097   3.398   4.918   9.223 -0.0573  0.0601 -0.0837
 3301TIP3    H134098   3.375   4.977   9.151 -0.3433 -1.1582 -1.0185
 3301TIP3    H234099   3.481   4.953   9.256 -0.6263  1.4662 -0.0401
 3302TIP3   OH234100   5.618   3.614   7.506 -0.3996  0.3149 -0.9052
 3302TIP3    H134101   5.534   3.611   7.461 -1.2248 -1.3029  0.6059
 3302TIP3    H234102   5.609   3.686   7.568 -0.9645 -0.2678 -0.2866
 3303TIP3   OH234103   5.610   4.334   6.994 -0.3172  0.0606 -0.4896
 3303TIP3    H134104   5.606   4.265   6.927  0.6661 -1.7411  1.2087
 3303TIP3    H234105   5.679   4.393   6.963 -0.6251 -0.1100 -1.5741
 3304TIP3   OH234106   1.038   1.916   9.367  0.0642  0.4664 -0.6047
 3304TIP3    H134107   1.072   1.887   9.452  0.0796  0.5082 -0.5969
 3304TIP3    H234108   1.067   1.847   9.306 -0.6904 -0.0130 -0.4329
 3305TIP3   OH234109   3.388   3.747   7.392  0.2791  0.2825 -0.2637
 3305TIP3    H134110   3.414   3.746   7.484 -0.2265  0.9200 -0.1024
 3305TIP3    H234111   3.297   3.777   7.393 -0.1036 -0.7808 -0.8959
 3306TIP3   OH234112   1.219   5.379   9.337 -0.1895 -0.0978  0.1942
 3306TIP3    H134113   1.211   5.284   9.345 -0.5359 -0.0053  1.0059
 3306TIP3    H234114   1.130   5.410   9.326 -0.2272  0.2496  1.3795
 3307TIP3   OH234115   5.874   1.616   7.386  0.0444 -0.0750  0.7508
 3307TIP3    H134116   5.951   1.583   7.432  0.1221  0.1046  0.7496
 3307TIP3    H234117   5.909   1.659   7.308 -0.1422 -1.3314 -0.0719
 3308TIP3   OH234118   5.475   5.672   9.145  1.0078  0.0791 -0.2698
 3308TIP3    H134119   5.412   5.601   9.156  2.0429 -1.1686 -1.8650
 3308TIP3    H234120   5.429   5.736   9.090  0.7560 -0.3263 -0.5406
 3309TIP3   OH234121   3.215   7.409   8.010  0.2900  0.0457 -0.1994
 3309TIP3    H134122   3.300   7.450   8.029 -0.3216  1.6072 -0.6767
 3309TIP3    H234123   3.159   7.437   8.082  0.1179 -0.8457  0.0242
 3310TIP3   OH234124   5.918   7.389   9.222 -0.0849  0.5902 -0.3406
 3310TIP3    H134125   5.854   7.419   9.158  1.8059  0.4722 -2.4262
 3310TIP3    H234126   5.875   7.317   9.268 -1.5819  0.7959 -1.3601
 3311TIP3   OH234127   4.649   1.738   7.664  0.0394 -0.2433 -0.4323
 3311TIP3    H134128   4.687   1.689   7.737  0.6329 -0.3911 -0.8382
 3311TIP3    H234129   4.602   1.672   7.613 -1.6089  0.0906  0.5926
 3312TIP3   OH234130   2.578   3.313   8.272  0.1468 -0.3012 -0.3415
 3312TIP3    H134131   2.632   3.262   8.211  0.5773 -1.2345  0.7991
 3312TIP3    H234132   2.493   3.269   8.271  0.0073 -0.0319 -0.6128
 3313TIP3   OH234133   7.530   6.249   9.020  0.2722  0.1798 -0.0301
 3313TIP3    H134134   7.609   6.195   9.008 -0.7979 -1.3846 -0.3976
 3313TIP3    H234135   7.540   6.320   8.956  0.5328 -1.0386 -1.4166
 3314TIP3   OH234136   1.896   7.587   7.969  0.6625  0.0304  0.0816
 3314TIP3    H134137   1.889   7.681   7.986  0.7122  0.4075 -1.7814
 3314TIP3    H234138   1.806   7.555   7.972  0.5178  0.3749 -0.4932
 3315TIP3   OH234139   2.180   3.185   8.901 -0.9946 -0.0694  0.1485
 3315TIP3    H134140   2.183   3.249   8.973 -1.4014 -0.7506  0.7807
 3315TIP3    H234141   2.095   3.201   8.859 -1.3066 -0.5163  0.6069
 3316TIP3   OH234142   2.692   6.736   8.923  0.4247  0.1569 -0.8050
 3316TIP3    H134143   2.732   6.778   8.847 -1.9084 -0.3770 -2.4395
 3316TIP3    H234144   2.607   6.779   8.932 -0.1116 -1.0641  0.3477
 3317TIP3   OH234145   4.971   0.864   8.929  0.6413  0.2124  0.4851
 3317TIP3    H134146   4.984   0.949   8.972  0.7174  0.5158 -0.1170
 3317TIP3    H234147   5.043   0.810   8.961  0.7195  0.4458  0.7066
 3318TIP3   OH234148   2.315   6.711   6.685 -0.3820 -1.0302  0.2584
 3318TIP3    H134149   2.241   6.657   6.656 -0.4150 -0.3275 -1.0685
 3318TIP3    H234150   2.336   6.765   6.608 -0.0011  0.4474  1.3662
 3319TIP3   OH234151   5.541   4.349   8.847  0.3326 -0.0571  0.0300
 3319TIP3    H134152   5.613   4.388   8.797  1.5839 -2.4566 -0.1454
 3319TIP3    H234153   5.506   4.281   8.789 -0.3071 -0.7194  1.1714
 3320TIP3   OH234154   4.408   6.610   9.030 -0.4251 -0.2412 -0.7155
 3320TIP3    H134155   4.413   6.705   9.013  0.4532 -0.3743 -1.2267
 3320TIP3    H234156   4.329   6.600   9.083 -0.3637  0.8184 -0.3963
 3321TIP3   OH234157   6.306   5.049   7.535  0.6171  0.2435 -0.4203
 3321TIP3    H134158   6.322   5.100   7.456  1.4807  1.9021  0.7502
 3321TIP3    H234159   6.344   5.102   7.605 -1.1725 -0.5743  1.2681
 3322TIP3   OH234160   2.412   1.403   8.691 -0.2265 -0.4822 -0.4402
 3322TIP3    H134161   2.482   1.410   8.755 -1.1601  3.4376  0.3913
 3322TIP3    H234162   2.360   1.483   8.702 -3.8288 -2.3102 -2.2025
 3323TIP3   OH234163   0.887   3.871   6.670 -0.4334  0.0872 -0.1636
 3323TIP3    H134164   0.876   3.782   6.634 -0.5993 -0.1133  0.3806
 3323TIP3    H234165   0.981   3.889   6.661 -0.6386  0.5068 -1.7811
 3324TIP3   OH234166   3.864   5.934   7.050  0.5014 -0.0119 -0.4235
 3324TIP3    H134167   3.874   5.978   6.965  3.0935  0.9928  0.3262
 3324TIP3    H234168   3.865   6.005   7.114  0.6313 -0.9094  0.5937
 3325TIP3   OH234169   5.586   4.360   7.307  0.2615  0.3919  0.2108
 3325TIP3    H134170   5.607   4.362   7.213  0.2960  0.1804  0.2153
 3325TIP3    H234171   5.605   4.449   7.337  3.2291 -0.3067  0.6780
 3326TIP3   OH234172   4.827   3.509   9.074  0.1063 -0.2361 -0.4615
 3326TIP3    H134173   4.911   3.486   9.035  0.8525 -0.8917  1.4292
 3326TIP3    H234174   4.767   3.439   9.047  0.4780 -0.4326 -0.7824
 3327TIP3   OH234175   2.557   4.979   8.529  0.0832  0.1766  0.3472
 3327TIP3    H134176   2.616   4.934   8.589 -0.8778  0.6822  1.7447
 3327TIP3    H234177   2.492   4.913   8.505 -0.5760  0.4335  1.3552
 3328TIP3   OH234178   6.587   7.568   7.490  0.3030  0.5592  0.2876
 3328TIP3    H134179   6.510   7.587   7.544 -0.4359 -0.0405 -0.5309
 3328TIP3    H234180   6.551   7.533   7.408  1.4077  1.3519 -0.5644
 3329TIP3   OH234181   5.729   7.656   8.066 -0.0022 -0.6106  0.5226
 3329TIP3    H134182   5.687   7.576   8.033 -1.1690 -0.0991  0.7258
 3329TIP3    H234183   5.678   7.680   8.143 -0.2605  0.8492 -0.0672
 3330TIP3   OH234184   4.073   2.931   8.068  0.3652  0.2642 -0.1019
 3330TIP3    H134185   4.102   2.859   8.013 -1.0201 -1.7247  1.6403
 3330TIP3    H234186   4.020   2.986   8.009  0.2533 -0.9177 -1.1435
 3331TIP3   OH234187   2.028   3.606   9.380 -0.0734  0.7829  0.2528
 3331TIP3    H134188   1.941   3.644   9.396 -0.6332 -0.6273  0.7516
 3331TIP3    H234189   2.078   3.676   9.340 -1.3698  1.7139  0.2013
 3332TIP3   OH234190   0.350   5.577   8.318 -0.5590 -0.0775  0.3954
 3332TIP3    H134191   0.375   5.488   8.343 -1.6498 -0.5672 -0.1858
 3332TIP3    H234192   0.310   5.614   8.397  0.8218  0.2810  0.9536
 3333TIP3   OH234193   4.754   7.186   7.468 -0.2898 -0.2983 -0.2333
 3333TIP3    H134194   4.692   7.255   7.447 -0.5382 -0.6585 -0.7007
 3333TIP3    H234195   4.721   7.109   7.422  0.0756 -0.6885  0.1454
 3334TIP3   OH234196   4.863   5.155   9.393 -0.0795  0.1407 -0.5622
 3334TIP3    H134197   4.854   5.060   9.389  2.0674 -0.0488 -3.0368
 3334TIP3    H234198   4.891   5.173   9.483 -2.3974 -1.2807  0.5456
 3335TIP3   OH234199   6.900   7.317   9.098 -0.5583  0.5025 -0.5423
 3335TIP3    H134200   6.988   7.339   9.068 -0.2359 -1.0708 -0.8698
 3335TIP3    H234201   6.842   7.363   9.038  0.0689  0.1753 -1.4207
 3336TIP3   OH234202   5.207   2.791   7.425 -0.1967  0.2973  0.2215
 3336TIP3    H134203   5.210   2.696   7.437 -2.5664 -0.1167 -1.5542
 3336TIP3    H234204   5.253   2.806   7.343  0.3295  0.7115  0.5901
 3337TIP3   OH234205   2.523   3.177   6.815 -0.0481 -0.0765 -0.2513
 3337TIP3    H134206   2.482   3.091   6.810 -2.0150  0.7653  0.4036
 3337TIP3    H234207   2.527   3.206   6.724  0.5511 -0.8131 -0.4689
 3338TIP3   OH234208   4.466   0.411   7.266  0.2818 -0.2860 -0.3005
 3338TIP3    H134209   4.412   0.445   7.337  0.5533  0.5136 -0.4652
 3338TIP3    H234210   4.546   0.465   7.269  0.7411 -0.9437 -0.5395
 3339TIP3   OH234211   2.895   5.162   8.461  0.4140 -0.2027 -0.5118
 3339TIP3    H134212   2.824   5.208   8.507  0.2590 -0.8916 -0.0493
 3339TIP3    H234213   2.922   5.223   8.392  0.3931  0.6920  0.2550
 3340TIP3   OH234214   5.344   6.915   8.996 -0.0056  0.1591 -0.2628
 3340TIP3    H134215   5.255   6.892   9.021 -0.4320  0.5995 -1.3395
 3340TIP3    H234216   5.334   6.979   8.926  1.1543  1.1791  0.4640
 3341TIP3   OH234217   1.098   5.932   7.812  0.2904  0.4726  0.2903
 3341TIP3    H134218   1.101   6.011   7.866 -0.8977 -0.8948  2.4916
 3341TIP3    H234219   1.172   5.879   7.842 -0.9187 -0.7028  1.3459
 3342TIP3   OH234220   2.491   5.717   8.413  0.1602 -0.4292  0.0023
 3342TIP3    H134221   2.429   5.647   8.392  1.5374 -1.7003 -0.0719
 3342TIP3    H234222   2.542   5.728   8.333 -0.0869  0.7495 -0.0133
 3343TIP3   OH234223   2.932   1.658   8.724 -0.3835 -0.1890  0.0601
 3343TIP3    H134224   2.928   1.672   8.630  0.2903 -0.7936 -0.0610
 3343TIP3    H234225   2.857   1.707   8.758 -2.0647 -1.8789 -1.0048
 3344TIP3   OH234226   4.606   2.020   7.830 -0.2019 -0.0258 -0.1574
 3344TIP3    H134227   4.592   2.038   7.923 -2.4095 -0.6118 -0.3020
 3344TIP3    H234228   4.563   1.935   7.815 -0.2875  0.2639 -1.8015
 3345TIP3   OH234229   6.440   1.760   8.734  0.4288  0.2021  0.4782
 3345TIP3    H134230   6.416   1.844   8.773 -0.2050  0.4848 -0.4974
 3345TIP3    H234231   6.398   1.694   8.790  1.3741  0.4809  1.5713
 3346TIP3   OH234232   5.186   0.484   8.224  0.7231 -0.2181 -0.3271
 3346TIP3    H134233   5.223   0.396   8.213  0.7396 -0.1414 -0.9367
 3346TIP3    H234234   5.219   0.514   8.308  0.6542 -0.8277 -0.0778
 3347TIP3   OH234235   2.465   5.907   8.622 -0.1039  0.3123 -0.4475
 3347TIP3    H134236   2.449   5.859   8.703 -0.8903  0.0828 -0.7208
 3347TIP3    H234237   2.441   5.844   8.553 -0.0283  0.7071 -0.8363
 3348TIP3   OH234238   5.273   5.211   6.821  0.2675 -0.0063 -0.0303
 3348TIP3    H134239   5.258   5.154   6.896  2.6646 -0.3414  0.2757
 3348TIP3    H234240   5.278   5.152   6.746  1.4236 -0.0774  0.0915
 3349TIP3   OH234241   3.900   5.443   9.268  0.1116  0.0639 -0.0487
 3349TIP3    H134242   3.913   5.537   9.281  1.1216 -0.0744  0.0423
 3349TIP3    H234243   3.985   5.411   9.239  0.3535 -1.1554  1.8183
 3350TIP3   OH234244   4.031   1.611   7.121  0.4240  0.1565  0.3116
 3350TIP3    H134245   4.031   1.638   7.030 -0.5514 -2.6563 -0.6261
 3350TIP3    H234246   3.939   1.597   7.143  0.7639 -0.9612  1.1279
 3351TIP3   OH234247   2.546   4.358   7.852  0.1168 -0.0810 -0.2079
 3351TIP3    H134248   2.474   4.304   7.817  0.8914 -0.5954 -1.0484
 3351TIP3    H234249   2.600   4.297   7.901  0.5480  0.0886 -0.4649
 3352TIP3   OH234250   4.094   6.984   9.255  0.2396  0.5975 -0.4076
 3352TIP3    H134251   4.172   6.971   9.309 -1.4736 -0.7839  1.9227
 3352TIP3    H234252   4.042   6.905   9.268 -2.0024  1.8527 -1.0731
 3353TIP3   OH234253   3.105   2.286   8.919  0.2547  0.6799  0.0303
 3353TIP3    H134254   3.163   2.216   8.948 -0.0026 -0.0899 -1.2391
 3353TIP3    H234255   3.113   2.354   8.987  2.8281  0.7245 -0.2366
 3354TIP3   OH234256   5.036   2.034   8.461  0.0027 -0.1041  0.3432
 3354TIP3    H134257   4.958   1.995   8.501 -0.5210 -0.0311 -0.5734
 3354TIP3    H234258   5.109   1.986   8.500 -0.5411 -0.7888  0.5495
 3355TIP3   OH234259   1.130   0.716   7.961  0.0640 -0.0231 -0.3632
 3355TIP3    H134260   1.105   0.786   7.901  0.9149  1.5764  1.0521
 3355TIP3    H234261   1.068   0.724   8.034  1.1418  0.2844  0.5360
 3356TIP3   OH234262   0.589   6.857   8.800 -0.3933 -0.7423  0.3190
 3356TIP3    H134263   0.511   6.843   8.853  0.5381 -1.9935  1.4148
 3356TIP3    H234264   0.655   6.888   8.862  0.2916 -0.7513 -0.3963
 3357TIP3   OH234265   4.418   1.810   9.398  0.0080 -0.2661  0.6664
 3357TIP3    H134266   4.332   1.843   9.370 -1.0664 -2.3264  1.3126
 3357TIP3    H234267   4.468   1.889   9.419 -1.4403  1.0338 -0.5044
 3358TIP3   OH234268   5.270   7.473   9.354 -0.2788 -0.1881  0.2980
 3358TIP3    H134269   5.276   7.553   9.406  2.1001  0.3867 -0.7235
 3358TIP3    H234270   5.192   7.486   9.299  0.9516  2.2563 -1.0413
 3359TIP3   OH234271   1.735   0.771   7.956 -0.4046 -0.1839 -0.4018
 3359TIP3    H134272   1.668   0.839   7.942  0.6370  0.6662 -1.4329
 3359TIP3    H234273   1.805   0.815   8.004  0.2420 -0.5335 -1.0012
 3360TIP3   OH234274   5.342   7.012   8.021 -0.2416  0.2433  0.0850
 3360TIP3    H134275   5.419   6.988   8.072 -1.4298  1.5725  2.6798
 3360TIP3    H234276   5.330   7.106   8.038 -1.9661  0.2526 -0.9190
 3361TIP3   OH234277   6.311   7.578   9.303 -0.3263  0.6685 -0.3671
 3361TIP3    H134278   6.219   7.560   9.318 -0.1005 -1.8105 -1.3638
 3361TIP3    H234279   6.325   7.555   9.211  1.9487 -2.8661  0.6416
 3362TIP3   OH234280   4.712   1.203   7.937  0.6428 -0.0883  0.1674
 3362TIP3    H134281   4.716   1.265   8.010  0.5721 -0.1196  0.1972
 3362TIP3    H234282   4.783   1.230   7.879  0.5498  0.0824  0.1330
 3363TIP3   OH234283   1.662   0.462   7.238 -0.1644 -0.0554 -0.0645
 3363TIP3    H134284   1.622   0.508   7.164 -0.0263 -0.1038 -0.1709
 3363TIP3    H234285   1.654   0.369   7.214  2.5624 -0.0238 -1.4625
 3364TIP3   OH234286   3.415   6.578   8.001 -0.4566 -0.4494  0.3376
 3364TIP3    H134287   3.319   6.577   8.002 -0.4824 -2.2796  0.4441
 3364TIP3    H234288   3.439   6.551   7.912 -0.0058  0.7855  0.0624
 3365TIP3   OH234289   4.734   2.789   8.128  0.6942 -0.0810 -0.2952
 3365TIP3    H134290   4.827   2.773   8.148  0.8131  1.0516  0.1089
 3365TIP3    H234291   4.688   2.761   8.207  0.6983 -0.5277 -0.4490
 3366TIP3   OH234292   5.406   5.877   8.675 -0.5667 -0.0645  0.2851
 3366TIP3    H134293   5.411   5.966   8.710  0.5623  0.2443 -0.6083
 3366TIP3    H234294   5.340   5.882   8.606 -2.9430 -0.7178  2.3236
 3367TIP3   OH234295   4.743   4.348   8.440 -0.0479  0.2086  0.5513
 3367TIP3    H134296   4.672   4.401   8.404  1.8741  3.1627  0.7650
 3367TIP3    H234297   4.735   4.358   8.535  0.3355  0.1442  0.5921
 3368TIP3   OH234298   5.029   4.947   7.316  0.6890 -0.0321  0.2085
 3368TIP3    H134299   5.004   4.855   7.303 -1.9612  0.4999  0.9289
 3368TIP3    H234300   5.007   4.990   7.234 -0.0832  0.3058  0.5796
 3369TIP3   OH234301   3.892   6.170   8.301 -0.1980 -0.6400 -0.5116
 3369TIP3    H134302   3.821   6.193   8.362 -0.7657 -0.6857 -1.1511
 3369TIP3    H234303   3.865   6.209   8.218  0.7227 -0.3216 -0.6690
 3370TIP3   OH234304   4.350   0.208   8.867 -0.2551  0.1522 -0.7330
 3370TIP3    H134305   4.339   0.201   8.961 -1.2946  1.3820 -0.7368
 3370TIP3    H234306   4.279   0.155   8.830  0.3058 -0.5403 -0.8405
 3371TIP3   OH234307   1.293   5.670   8.946  0.0118  0.2550  0.2283
 3371TIP3    H134308   1.318   5.603   8.882  0.8062  0.3711  0.4014
 3371TIP3    H234309   1.216   5.712   8.908 -0.6226 -0.8829  0.2176
 3372TIP3   OH234310   7.177   1.893   9.149  0.3862 -0.9479  0.7779
 3372TIP3    H134311   7.106   1.957   9.157  0.0912 -1.1048 -0.4476
 3372TIP3    H234312   7.242   1.922   9.212  0.3109  0.6382  0.1658
 3373TIP3   OH234313   5.561   2.329   7.918  0.4965  0.0981  0.1465
 3373TIP3    H134314   5.531   2.417   7.941 -1.3716  0.0731 -1.8927
 3373TIP3    H234315   5.622   2.342   7.845 -0.0706 -0.3048 -0.4076
 3374TIP3   OH234316   4.071   4.867   8.058  0.7372  0.2851  0.2004
 3374TIP3    H134317   4.073   4.816   8.139 -0.1133 -0.5650 -0.2937
 3374TIP3    H234318   3.992   4.837   8.013  0.5785  1.5689 -0.4187
 3375TIP3   OH234319   2.394   0.878   7.232  0.0563  0.5650 -0.2037
 3375TIP3    H134320   2.319   0.931   7.259  0.5562  1.3565 -0.3301
 3375TIP3    H234321   2.443   0.935   7.172  0.7713  0.0719 -0.0991
 3376TIP3   OH234322   6.229   6.380   8.573  0.3146  0.2289  0.2246
 3376TIP3    H134323   6.210   6.301   8.521  1.5238  0.4436 -0.5875
 3376TIP3    H234324   6.196   6.359   8.660  1.2046 -1.4572  0.2064
 3377TIP3   OH234325   4.946   2.633   6.833  0.0383  0.1955 -0.0010
 3377TIP3    H134326   4.972   2.666   6.747 -1.4681 -0.6018 -0.7791
 3377TIP3    H234327   5.014   2.570   6.856  0.2604  0.1535 -0.7601
 3378TIP3   OH234328   2.429   6.115   7.112  0.0483 -0.0810  0.1654
 3378TIP3    H134329   2.477   6.106   7.195 -0.4253 -0.6682  0.3809
 3378TIP3    H234330   2.372   6.038   7.108  0.5302 -0.4011 -1.0176
 3379TIP3   OH234331   3.674   5.328   8.407 -0.4682  0.1880  0.3274
 3379TIP3    H134332   3.647   5.249   8.453 -0.3712 -0.4509 -0.6804
 3379TIP3    H234333   3.680   5.301   8.315 -0.3452  1.3416 -0.0173
 3380TIP3   OH234334   0.975   6.471   9.735 -0.0992 -0.5205  0.1518
 3380TIP3    H134335   0.936   6.544   9.782  1.2751  0.5068 -0.2354
 3380TIP3    H234336   0.958   6.490   9.643  1.2237 -0.0594 -0.0276
 3381TIP3   OH234337   7.253   3.625   7.399 -0.4238 -0.4116 -0.7002
 3381TIP3    H134338   7.199   3.704   7.398 -0.8201 -0.6702 -0.1478
 3381TIP3    H234339   7.256   3.598   7.307 -1.7310 -0.7212 -0.6785
 3382TIP3   OH234340   0.465   3.284   9.182  0.5591 -0.0466 -0.2484
 3382TIP3    H134341   0.508   3.312   9.102  0.4732  0.5911 -0.0736
 3382TIP3    H234342   0.503   3.339   9.250  0.8133 -0.7486  0.1940
 3383TIP3   OH234343   0.249   6.378   8.626  0.0126 -0.4132 -0.0316
 3383TIP3    H134344   0.271   6.397   8.718 -3.2655 -0.2660  0.8515
 3383TIP3    H234345   0.250   6.464   8.583 -2.4682  0.2231  0.9666
 3384TIP3   OH234346   1.307   2.088   8.501  0.1402 -0.7416 -0.1139
 3384TIP3    H134347   1.269   2.003   8.522 -2.4004  0.3651  0.0986
 3384TIP3    H234348   1.263   2.115   8.420  1.5578  0.0199 -0.6741
 3385TIP3   OH234349   2.385   5.004   8.825 -0.6241 -0.0880 -0.5387
 3385TIP3    H134350   2.333   5.022   8.746 -1.0104  0.0875 -0.2446
 3385TIP3    H234351   2.476   5.015   8.796 -0.8119  1.4080 -0.6113
 3386TIP3   OH234352   2.925   6.508   7.233 -0.5409  0.0152 -0.3459
 3386TIP3    H134353   2.883   6.494   7.149 -2.1873  0.9580  0.2837
 3386TIP3    H234354   3.018   6.519   7.212 -1.1289  1.9901 -2.2603
 3387TIP3   OH234355   5.204   5.125   8.923  0.0428 -0.2186  0.0382
 3387TIP3    H134356   5.171   5.110   9.012  0.4069 -2.8719 -0.2103
 3387TIP3    H234357   5.297   5.106   8.929 -0.3563 -3.1019 -1.3826
 3388TIP3   OH234358   7.412   1.076   7.384  0.0733 -0.1345  0.1760
 3388TIP3    H134359   7.487   1.018   7.398 -0.0293 -0.0123  1.2933
 3388TIP3    H234360   7.421   1.104   7.293 -0.3443 -2.5583 -0.6824
 3389TIP3   OH234361   1.496   6.797   8.269 -0.0995 -0.1952  0.1650
 3389TIP3    H134362   1.507   6.824   8.178 -0.7941  0.3608  0.2424
 3389TIP3    H234363   1.404   6.813   8.289  0.5130  1.8830  1.6448
 3390TIP3   OH234364   7.345   5.709   8.283 -1.4040 -1.0588 -0.1400
 3390TIP3    H134365   7.306   5.635   8.330 -1.3421 -0.2800  1.1716
 3390TIP3    H234366   7.439   5.694   8.288 -1.2737  0.2076  2.0571
 3391TIP3   OH234367   4.572   4.152   9.123 -0.3574  0.1832  0.0863
 3391TIP3    H134368   4.509   4.099   9.075  0.7078 -0.6691 -0.4025
 3391TIP3    H234369   4.550   4.137   9.215  0.7637 -2.2574  0.0316
 3392TIP3   OH234370   1.761   2.331   9.422 -0.0515 -0.3835  0.2634
 3392TIP3    H134371   1.730   2.412   9.463  1.6093  0.7347 -0.6073
 3392TIP3    H234372   1.827   2.297   9.483  1.9692  0.9537 -1.0761
 3393TIP3   OH234373   3.163   3.209   9.292  0.1873 -0.4014 -0.1473
 3393TIP3    H134374   3.072   3.184   9.307  0.3372 -0.5031  0.6442
 3393TIP3    H234375   3.165   3.304   9.305  0.1140 -0.3418 -0.5759
 3394TIP3   OH234376   0.501   6.090   9.079  0.0304  0.6102 -0.2978
 3394TIP3    H134377   0.496   6.027   9.151 -1.6369  0.2093 -0.7073
 3394TIP3    H234378   0.589   6.080   9.043  0.0861 -0.8652  0.2070
 3395TIP3   OH234379   0.799   6.241   7.975  0.2608  0.6399 -0.3321
 3395TIP3    H134380   0.894   6.249   7.975  0.2461  1.5053 -2.4610
 3395TIP3    H234381   0.782   6.148   7.983  1.3238  0.3963 -0.8194
 3396TIP3   OH234382   5.519   0.631   8.810  0.3601  0.7404 -0.3557
 3396TIP3    H134383   5.594   0.637   8.751  1.5750 -1.1573  0.8997
 3396TIP3    H234384   5.444   0.652   8.755  1.7220  2.0494 -1.8096
 3397TIP3   OH234385   1.454   6.873   8.017 -0.4519 -0.3138  0.0051
 3397TIP3    H134386   1.509   6.831   7.951  0.2857  0.1290  0.3193
 3397TIP3    H234387   1.374   6.895   7.971  0.4248  0.8621 -1.0230
 3398TIP3   OH234388   7.250   4.679   6.779  0.0369  0.1785 -0.0329
 3398TIP3    H134389   7.325   4.629   6.810  1.1355  3.0255  2.4084
 3398TIP3    H234390   7.174   4.627   6.807  1.0492 -1.6391 -0.5001
 3399TIP3   OH234391   3.081   6.253   6.950 -0.5445 -0.3276 -0.0279
 3399TIP3    H134392   3.123   6.293   6.874 -0.9406 -2.7833 -1.6370
 3399TIP3    H234393   2.990   6.283   6.945 -0.4510 -0.0621 -0.1853
 3400TIP3   OH234394   6.566   6.370   9.205 -0.3747 -0.1457  0.5021
 3400TIP3    H134395   6.540   6.442   9.263 -0.2389  0.2532  0.0785
 3400TIP3    H234396   6.652   6.397   9.172 -0.6912 -0.1071 -0.3101
 3401TIP3   OH234397   0.237   2.776   9.060  1.1234 -0.5289 -0.3789
 3401TIP3    H134398   0.181   2.798   8.986  1.9809 -2.0232 -1.5318
 3401TIP3    H234399   0.279   2.858   9.083 -0.0894  0.2184 -0.7244
 3402TIP3   OH234400   0.279   3.783   7.766  0.5694  0.4128 -0.3191
 3402TIP3    H134401   0.246   3.783   7.676  0.4385 -1.5952 -0.3153
 3402TIP3    H234402   0.374   3.791   7.756  0.6079 -0.3478 -0.6983
 3403TIP3   OH234403   0.551   4.331   6.562  0.0693  0.0105  0.2745
 3403TIP3    H134404   0.595   4.253   6.527 -0.1532  0.0898 -0.1841
 3403TIP3    H234405   0.476   4.345   6.504  1.0260  1.5409 -0.6577
 3404TIP3   OH234406   3.613   6.153   7.992 -0.3622  0.5633 -0.1644
 3404TIP3    H134407   3.673   6.218   8.029  0.0226  0.6457 -0.8998
 3404TIP3    H234408   3.612   6.082   8.056 -1.8167  1.8301  1.2844
 3405TIP3   OH234409   2.367   4.944   6.855 -0.2691  0.6855 -0.3867
 3405TIP3    H134410   2.370   5.035   6.825  1.5340  0.6809 -0.2865
 3405TIP3    H234411   2.458   4.916   6.857 -0.7087 -0.7579  0.7408
 3406TIP3   OH234412   2.327   6.838   8.044  0.3082 -0.7618  0.0196
 3406TIP3    H134413   2.264   6.902   8.010 -0.1053 -1.7173 -1.1088
 3406TIP3    H234414   2.401   6.890   8.075  0.2902  0.2313 -1.5284
 3407TIP3   OH234415   6.849   6.452   9.447  0.4093 -0.1400 -0.4575
 3407TIP3    H134416   6.832   6.428   9.356 -2.4159 -2.5446  0.5373
 3407TIP3    H234417   6.919   6.393   9.475  0.0867 -0.6017 -0.6168
 3408TIP3   OH234418   3.877   3.670   8.528  1.1103 -0.8171 -0.0793
 3408TIP3    H134419   3.950   3.618   8.560  0.8317 -2.6160 -2.0908
 3408TIP3    H234420   3.893   3.677   8.433 -1.2575 -1.2371 -0.5670
 3409TIP3   OH234421   5.891   4.970   7.968  0.3028 -0.0232 -0.2520
 3409TIP3    H134422   5.927   4.889   8.002 -1.8527  0.0158  2.4530
 3409TIP3    H234423   5.811   4.943   7.922 -0.5371  0.5114  0.8419
 3410TIP3   OH234424   2.571   7.063   7.227 -0.0688 -0.3028 -0.7035
 3410TIP3    H134425   2.481   7.032   7.237 -0.4154  0.6751 -0.6597
 3410TIP3    H234426   2.605   7.014   7.152 -0.7118 -0.5025 -0.8713
 3411TIP3   OH234427   3.558   5.349   8.980  0.0759  0.0151 -0.5021
 3411TIP3    H134428   3.567   5.306   8.894 -1.1344  0.5561 -0.9236
 3411TIP3    H234429   3.465   5.341   9.001 -0.0823  1.9080 -0.3278
 3412TIP3   OH234430   0.851   7.315   7.631 -0.0608  0.0230  0.5858
 3412TIP3    H134431   0.929   7.289   7.679  0.3739  0.8094  0.3146
 3412TIP3    H234432   0.879   7.318   7.540 -0.8611 -1.3982  0.2592
 3413TIP3   OH234433   6.676   4.808   6.939  0.7767  0.9881 -0.0988
 3413TIP3    H134434   6.634   4.723   6.925  0.6228  0.9901  0.3256
 3413TIP3    H234435   6.684   4.846   6.851  0.1242  0.8744 -0.2166
 3414TIP3   OH234436   1.104   1.676   8.084  0.5396  0.7987 -0.0973
 3414TIP3    H134437   1.074   1.586   8.072  0.2699  0.6908  1.1771
 3414TIP3    H234438   1.026   1.723   8.115  0.6023  1.5510 -1.0330
 3415TIP3   OH234439   5.451   2.064   7.567  0.4557 -0.2411  0.7158
 3415TIP3    H134440   5.430   2.037   7.478 -0.1688  2.1577  0.0660
 3415TIP3    H234441   5.545   2.050   7.575  0.7879  0.9074 -0.8608
 3416TIP3   OH234442   3.929   3.643   8.232  0.3260  0.2295  0.2563
 3416TIP3    H134443   3.912   3.628   8.139 -1.0967 -0.9293  0.6709
 3416TIP3    H234444   3.986   3.571   8.258  0.5243  0.4185  0.3554
 3417TIP3   OH234445   5.983   0.361   7.436  0.3331 -0.3566 -0.1272
 3417TIP3    H134446   5.925   0.421   7.391 -0.1206 -0.7356 -0.0498
 3417TIP3    H234447   6.003   0.293   7.372 -0.2021 -0.8222  0.1915
 3418TIP3   OH234448   1.384   3.833   8.563  0.1105  0.3508  0.1664
 3418TIP3    H134449   1.395   3.922   8.598 -0.7358  0.4097  0.3119
 3418TIP3    H234450   1.345   3.846   8.477 -0.1971  0.1108  0.2695
 3419TIP3   OH234451   4.348   5.554   6.225  0.2866 -0.0841  0.1771
 3419TIP3    H134452   4.319   5.599   6.146  0.7645 -1.5829 -0.9023
 3419TIP3    H234453   4.403   5.617   6.271 -1.4972  1.4561  0.2907
 3420TIP3   OH234454   3.770   1.560   8.286 -0.3093 -1.0231  0.5143
 3420TIP3    H134455   3.779   1.568   8.381 -0.1647  1.0487  0.3859
 3420TIP3    H234456   3.858   1.576   8.252 -0.7299  0.2915 -0.0201
 3421TIP3   OH234457   4.825   0.126   8.145 -0.0787 -0.6339  0.4012
 3421TIP3    H134458   4.782   0.206   8.113 -0.0425 -0.1650  1.5016
 3421TIP3    H234459   4.787   0.057   8.091 -1.6508 -0.1333  0.8105
 3422TIP3   OH234460   3.739   7.058   7.064 -0.1483  0.7830 -0.3454
 3422TIP3    H134461   3.774   7.145   7.079 -1.0468  0.9228  1.2242
 3422TIP3    H234462   3.644   7.069   7.069 -0.3080 -0.1662 -0.8815
 3423TIP3   OH234463   7.516   3.046   9.031  0.4000  0.7341 -0.1219
 3423TIP3    H134464   7.602   3.084   9.047  1.4547 -1.8882  1.0967
 3423TIP3    H234465   7.523   3.006   8.945  1.1686 -1.1953  0.7789
 3424TIP3   OH234466   2.539   7.021   8.084  0.5124 -0.1632  0.0146
 3424TIP3    H134467   2.506   7.111   8.084  1.6767  0.3428 -2.2192
 3424TIP3    H234468   2.633   7.030   8.100  0.4856 -1.1123  0.8242
 3425TIP3   OH234469   5.120   1.055   8.697  0.6347 -0.7021 -1.1384
 3425TIP3    H134470   5.126   1.150   8.699  0.0965 -0.6694 -0.7005
 3425TIP3    H234471   5.030   1.036   8.725  1.2089 -1.3866  0.3671
 3426TIP3   OH234472   5.733   1.061   7.104 -0.4163 -0.2422  0.2331
 3426TIP3    H134473   5.774   1.146   7.088 -2.0713  0.5445 -0.0656
 3426TIP3    H234474   5.715   1.061   7.198  0.3608 -0.6416  0.3873
 3427TIP3   OH234475   0.501   3.195   6.968  0.1605 -0.4078  0.0174
 3427TIP3    H134476   0.542   3.271   6.926 -0.6902  0.4650  0.7129
 3427TIP3    H234477   0.442   3.159   6.901 -0.0237  0.0302 -0.0605
 3428TIP3   OH234478   1.407   1.414   8.869 -0.2277  0.3679 -0.5995
 3428TIP3    H134479   1.451   1.497   8.852  0.9358 -0.0937  0.0885
 3428TIP3    H234480   1.387   1.415   8.962 -1.3863  0.4082 -0.8239
 3429TIP3   OH234481   4.998   0.151   8.361 -0.4616  0.3463 -0.6111
 3429TIP3    H134482   4.959   0.142   8.274 -0.9955  0.5224 -0.3900
 3429TIP3    H234483   4.930   0.121   8.421  0.4720 -1.3818 -0.3404
 3430TIP3   OH234484   0.394   1.182   7.138 -0.3314  0.1330  0.4069
 3430TIP3    H134485   0.487   1.191   7.161 -0.7195  0.9450  1.7629
 3430TIP3    H234486   0.389   1.099   7.091  1.3821  0.9310 -1.3179
 3431TIP3   OH234487   7.084   6.446   8.811  0.1234 -0.1021 -0.4075
 3431TIP3    H134488   7.037   6.425   8.730  0.1734 -2.9597  0.2023
 3431TIP3    H234489   7.059   6.536   8.831 -1.6582 -0.0929 -2.3964
 3432TIP3   OH234490   0.116   6.473   7.027 -0.1589 -0.3379 -0.5899
 3432TIP3    H134491   0.034   6.430   7.048 -1.6095  2.7469  0.6912
 3432TIP3    H234492   0.169   6.467   7.106  0.3354 -1.1271 -0.9623
 3433TIP3   OH234493   4.567   6.014   9.818  0.3097 -0.1184  0.5622
 3433TIP3    H134494   4.615   5.941   9.856  1.0288 -1.1714 -2.1465
 3433TIP3    H234495   4.475   5.992   9.830  0.5267 -1.0635  0.5278
 3434TIP3   OH234496   6.177   6.186   6.879  0.2966 -0.4353  0.3669
 3434TIP3    H134497   6.100   6.173   6.934  0.7272  0.4242  1.1872
 3434TIP3    H234498   6.146   6.239   6.806  0.5633  2.0028  1.9106
 3435TIP3   OH234499   4.072   0.982   9.151 -0.1225  0.3653  0.3538
 3435TIP3    H134500   4.044   0.945   9.067 -0.7651  0.6803  0.4176
 3435TIP3    H234501   4.132   0.918   9.187  0.0244  0.1435 -0.2702
 3436TIP3   OH234502   1.144   4.133   7.381 -0.0297 -0.1683  0.2576
 3436TIP3    H134503   1.126   4.062   7.320 -0.0712  0.0784 -0.0193
 3436TIP3    H234504   1.133   4.093   7.468  0.8154 -0.7263  0.1239
 3437TIP3   OH234505   0.221   5.238   7.932 -0.2450  0.4458  0.4562
 3437TIP3    H134506   0.140   5.190   7.915 -0.5602  1.1216 -0.0114
 3437TIP3    H234507   0.192   5.324   7.963  0.2634  1.0517 -0.6861
 3438TIP3   OH234508   4.297   6.818   7.984  0.1285 -0.0843  0.6619
 3438TIP3    H134509   4.369   6.880   7.973  1.0377 -1.0150  1.1821
 3438TIP3    H234510   4.334   6.747   8.038 -0.8343 -1.1397 -0.0103
 3439TIP3   OH234511   6.235   7.364   9.638  0.3822  0.2247 -0.2188
 3439TIP3    H134512   6.202   7.439   9.687 -0.6536  0.4636 -1.2142
 3439TIP3    H234513   6.166   7.346   9.574  1.5042 -0.3027 -1.3214
 3440TIP3   OH234514   1.198   2.746   8.292  0.1426  0.3221  0.0272
 3440TIP3    H134515   1.165   2.700   8.215  0.3647  0.1902  0.0096
 3440TIP3    H234516   1.274   2.694   8.321  0.5930  0.8567 -0.1840
 3441TIP3   OH234517   4.495   4.281   8.032  0.2578 -0.2179 -0.1311
 3441TIP3    H134518   4.528   4.369   8.015 -0.5340  0.1049 -0.0567
 3441TIP3    H234519   4.517   4.231   7.954  0.2887  0.1715 -0.3726
 3442TIP3   OH234520   0.075   2.841   7.976 -0.3605  0.3302  0.7593
 3442TIP3    H134521   0.102   2.750   7.969  0.1048  0.5315 -0.2299
 3442TIP3    H234522   0.148   2.885   8.019 -0.2795  0.3678  0.5833
 3443TIP3   OH234523   0.984   4.677   8.778  0.0005  0.0394 -0.0983
 3443TIP3    H134524   0.908   4.676   8.836  0.6121 -0.7788  0.7137
 3443TIP3    H234525   1.014   4.768   8.779  0.5427 -0.1399  1.6008
 3444TIP3   OH234526   2.429   6.951   6.543  0.2524 -0.1097 -0.3318
 3444TIP3    H134527   2.433   6.898   6.464  1.1791  0.9924 -1.0621
 3444TIP3    H234528   2.513   6.934   6.587  1.1241  1.6393 -1.2136
 3445TIP3   OH234529   0.875   6.357   8.265 -0.0268 -0.0254  0.2856
 3445TIP3    H134530   0.871   6.311   8.181 -0.5983  0.3825  0.0831
 3445TIP3    H234531   0.814   6.309   8.321  0.7703 -0.6429  0.6560
 3446TIP3   OH234532   3.291   2.458   9.213  0.3144  0.4134  0.1653
 3446TIP3    H134533   3.272   2.369   9.185  2.5353 -0.0629 -0.0156
 3446TIP3    H234534   3.369   2.450   9.268 -1.1062  1.9274  2.5574
 3447TIP3   OH234535   2.070   1.866   9.591  0.2935  0.3273  0.2096
 3447TIP3    H134536   1.992   1.875   9.646  1.1196 -1.7210  1.8748
 3447TIP3    H234537   2.036   1.868   9.501 -1.7195 -0.6356  0.8845
 3448TIP3   OH234538   3.262   0.580   9.514 -0.3513  0.3610  0.5185
 3448TIP3    H134539   3.336   0.525   9.541  0.1102 -0.0325 -1.3844
 3448TIP3    H234540   3.201   0.519   9.473 -0.4372  1.0693 -0.4244
 3449TIP3   OH234541   0.747   3.826   8.759  0.1321 -0.3373  0.3340
 3449TIP3    H134542   0.818   3.884   8.730 -0.8414  0.9806  0.5326
 3449TIP3    H234543   0.678   3.839   8.695 -0.0154 -1.4970  0.2359
 3450TIP3   OH234544   2.896   4.052   7.855  0.2585 -0.0202 -0.2835
 3450TIP3    H134545   2.986   4.081   7.866  0.3903 -0.6086  0.2588
 3450TIP3    H234546   2.898   3.958   7.876 -0.0351 -0.5996 -2.5502
 3451TIP3   OH234547   1.785   7.566   8.984 -0.6274 -0.0493  0.0507
 3451TIP3    H134548   1.837   7.503   8.934 -1.4022 -1.1898  0.6218
 3451TIP3    H234549   1.840   7.644   8.989  0.7387 -0.9657  0.0486
 3452TIP3   OH234550   0.570   0.777   7.086  0.0118 -0.0282  0.0667
 3452TIP3    H134551   0.574   0.686   7.055  1.3158 -0.4509  1.3425
 3452TIP3    H234552   0.614   0.827   7.017 -1.3730 -0.2246 -1.0041
 3453TIP3   OH234553   1.486   6.893   7.607 -0.2129 -0.1938 -0.1155
 3453TIP3    H134554   1.499   6.986   7.590 -1.8193  0.0644 -0.1243
 3453TIP3    H234555   1.542   6.848   7.544 -1.4951  0.7788 -2.0303
 3454TIP3   OH234556   1.223   1.317   7.348  0.1212 -0.6405 -0.1404
 3454TIP3    H134557   1.244   1.240   7.401  0.8067 -1.0757 -1.0185
 3454TIP3    H234558   1.137   1.297   7.310 -0.7691  0.0395  1.4389
 3455TIP3   OH234559   6.657   3.588   9.018 -0.1743  0.5709  0.7189
 3455TIP3    H134560   6.673   3.667   8.967 -0.4462 -0.3485 -0.8259
 3455TIP3    H234561   6.745   3.557   9.042  0.0472  0.0718 -0.6749
 3456TIP3   OH234562   3.051   5.994   9.299  0.4713  0.1164 -0.1060
 3456TIP3    H134563   3.117   6.054   9.264 -0.9419 -0.0176 -3.4680
 3456TIP3    H234564   3.082   5.907   9.273 -0.5903 -0.0060 -1.0646
 3457TIP3   OH234565   5.831   5.634   7.085  0.2978  0.2475  0.1826
 3457TIP3    H134566   5.911   5.684   7.069 -0.0358  0.0777 -2.4717
 3457TIP3    H234567   5.856   5.543   7.069 -0.2837  0.1262 -0.0481
 3458TIP3   OH234568   6.594   1.482   7.385 -0.6330 -0.1660 -0.2221
 3458TIP3    H134569   6.632   1.426   7.317 -1.0174 -1.6577  0.7531
 3458TIP3    H234570   6.624   1.570   7.362  2.2626 -1.0659 -0.2922
 3459TIP3   OH234571   5.494   5.200   9.291 -0.6017  0.1003  0.0788
 3459TIP3    H134572   5.441   5.148   9.351 -0.1497 -0.9864 -0.4134
 3459TIP3    H234573   5.443   5.279   9.275 -1.4590 -0.3261  0.6343
 3460TIP3   OH234574   6.543   7.178   8.734  0.2520  0.4721  0.0447
 3460TIP3    H134575   6.487   7.170   8.812 -1.2017  1.3101 -0.8577
 3460TIP3    H234576   6.522   7.100   8.682 -0.7623  1.2028 -0.6842
 3461TIP3   OH234577   1.927   1.550   7.814  0.3224  0.1504 -0.2650
 3461TIP3    H134578   1.977   1.625   7.782  0.0942  0.1899 -0.5330
 3461TIP3    H234579   1.957   1.537   7.904 -1.8891  2.5742  0.9710
 3462TIP3   OH234580   5.077   3.607   6.818  0.0735  0.3258  0.0806
 3462TIP3    H134581   5.149   3.637   6.762 -0.9008 -1.3851 -2.2735
 3462TIP3    H234582   5.036   3.536   6.768 -1.0276 -1.2181  2.9262
 3463TIP3   OH234583   0.506   5.832   9.144  0.2614 -0.1102  0.2409
 3463TIP3    H134584   0.445   5.839   9.216  0.4154  0.0850  0.3563
 3463TIP3    H234585   0.562   5.758   9.166  0.8543  0.4754  0.7471
 3464TIP3   OH234586   2.474   5.167   9.299 -0.0727  0.0779 -0.0531
 3464TIP3    H134587   2.564   5.135   9.309  0.4676  1.6221  0.2484
 3464TIP3    H234588   2.484   5.257   9.269 -1.5465  0.0749 -0.6251
 3465TIP3   OH234589   2.987   0.461   8.214 -0.1776 -0.2316  0.0021
 3465TIP3    H134590   3.070   0.413   8.212 -0.3000 -0.4488  0.2060
 3465TIP3    H234591   2.942   0.435   8.134  0.3725  0.6369 -0.6120
 3466TIP3   OH234592   6.340   0.694   8.841 -0.2676 -0.0586  0.2792
 3466TIP3    H134593   6.384   0.641   8.774 -1.6071 -0.6461 -0.1862
 3466TIP3    H234594   6.339   0.637   8.918  0.0631  0.0795  0.3863
 3467TIP3   OH234595   6.733   5.138   8.879 -0.7626  0.1353 -0.2944
 3467TIP3    H134596   6.694   5.224   8.864  1.5728  1.3690  0.0740
 3467TIP3    H234597   6.692   5.106   8.960 -0.6950  1.5503  0.3272
 3468TIP3   OH234598   4.236   5.422   7.689  0.0292 -0.1249  0.2875
 3468TIP3    H134599   4.237   5.326   7.685  2.1394 -0.1425  0.1069
 3468TIP3    H234600   4.228   5.442   7.782  1.2066 -0.5365  0.5019
 3469TIP3   OH234601   5.232   6.476   9.848 -0.3734  0.3507  0.3175
 3469TIP3    H134602   5.306   6.422   9.877  0.2461  1.1260  0.2090
 3469TIP3    H234603   5.241   6.481   9.753  0.7127  2.2230  0.4752
 3470TIP3   OH234604   1.223   4.144   8.244 -0.3780 -0.0098  0.1299
 3470TIP3    H134605   1.296   4.194   8.208 -0.5423 -1.1333 -1.9344
 3470TIP3    H234606   1.254   4.054   8.245 -1.0197 -0.2395  1.2345
 3471TIP3   OH234607   2.702   5.734   8.201 -0.3024  0.3057  0.0451
 3471TIP3    H134608   2.770   5.667   8.190  0.0986  0.7117  0.0193
 3471TIP3    H234609   2.741   5.799   8.259 -1.7974 -1.0076  2.7343
 3472TIP3   OH234610   0.639   3.340   8.636  0.3731  0.3277  0.5646
 3472TIP3    H134611   0.707   3.310   8.576  1.0163  1.6357  0.6089
 3472TIP3    H234612   0.602   3.418   8.594  0.9381  1.3657  1.8978
 3473TIP3   OH234613   6.794   0.244   8.018  0.0333 -0.7283  0.3409
 3473TIP3    H134614   6.829   0.170   7.969 -0.8343 -0.0939 -1.3413
 3473TIP3    H234615   6.839   0.320   7.981 -0.2989 -0.2736  0.8650
 3474TIP3   OH234616   2.980   2.828   7.912  0.2615  0.5910  0.2040
 3474TIP3    H134617   2.919   2.780   7.968 -1.0019 -0.3668 -1.8702
 3474TIP3    H234618   2.924   2.869   7.845  1.8593 -0.5140 -1.9361
 3475TIP3   OH234619   5.588   4.716   7.696  0.0209 -0.3176 -0.4976
 3475TIP3    H134620   5.622   4.696   7.609 -0.3754  0.2174 -0.7835
 3475TIP3    H234621   5.521   4.650   7.712  1.1697 -1.3916  0.0762
 3476TIP3   OH234622   3.563   5.069   8.858 -0.5804 -0.0898 -0.3455
 3476TIP3    H134623   3.495   5.017   8.902 -0.9471 -0.3954 -1.2419
 3476TIP3    H234624   3.645   5.033   8.890 -0.8359  0.2810  0.7521
 3477TIP3   OH234625   6.618   2.614   7.296  0.0060 -0.5501  0.5618
 3477TIP3    H134626   6.699   2.577   7.329  1.0605 -0.5653 -1.9006
 3477TIP3    H234627   6.564   2.625   7.374  2.1695 -0.9667  2.2085
 3478TIP3   OH234628   7.221   0.936   7.812  0.6291 -0.2386 -0.4557
 3478TIP3    H134629   7.159   0.977   7.871  1.5421 -0.9496  1.0450
 3478TIP3    H234630   7.270   1.008   7.774 -1.5308  0.4094 -2.2637
 3479TIP3   OH234631   0.506   5.188   7.463  0.4520 -0.0530  0.4336
 3479TIP3    H134632   0.461   5.175   7.547 -0.8929  1.2901 -0.0280
 3479TIP3    H234633   0.508   5.101   7.423  0.0045 -0.4907  1.3326
 3480TIP3   OH234634   2.509   2.218   7.389  0.3051  0.2678 -0.2875
 3480TIP3    H134635   2.596   2.211   7.351  1.0707 -0.6704  1.5052
 3480TIP3    H234636   2.514   2.167   7.470 -1.9571  0.0573 -0.2062
 3481TIP3   OH234637   5.777   0.536   6.677 -0.9077 -0.4110 -0.6472
 3481TIP3    H134638   5.681   0.532   6.677 -1.0117  1.0998  0.7368
 3481TIP3    H234639   5.799   0.599   6.746  1.1790 -2.7430  1.0376
 3482TIP3   OH234640   0.453   0.310   6.928  0.3379 -0.3854 -0.0893
 3482TIP3    H134641   0.531   0.254   6.924  1.0130  0.4410  1.0322
 3482TIP3    H234642   0.469   0.368   7.003 -0.3335  1.3249 -1.2211
 3483TIP3   OH234643   6.065   1.606   8.045 -0.6115  0.0062 -0.0793
 3483TIP3    H134644   6.080   1.655   8.126  1.3965  0.3104 -0.5845
 3483TIP3    H234645   6.021   1.526   8.073  0.3094 -0.0291  1.3522
 3484TIP3   OH234646   0.982   2.972   8.658 -0.0174  0.4984 -0.3202
 3484TIP3    H134647   1.038   2.939   8.588  0.5217 -0.0143  0.3454
 3484TIP3    H234648   1.042   3.012   8.721 -0.4429  0.4308  0.1371
 3485TIP3   OH234649   5.267   6.482   9.551 -0.0192  0.1496 -0.0111
 3485TIP3    H134650   5.260   6.575   9.527  1.5237  0.2502 -0.1798
 3485TIP3    H234651   5.234   6.435   9.474 -0.8627  0.5572  0.0977
 3486TIP3   OH234652   5.653   1.392   7.849 -0.8708 -0.9225  0.9629
 3486TIP3    H134653   5.719   1.462   7.856 -0.2862 -1.5526  2.1312
 3486TIP3    H234654   5.674   1.333   7.922 -1.2312 -2.4310 -0.1142
 3487TIP3   OH234655   6.223   1.857   7.910 -0.5824  0.6048 -0.1456
 3487TIP3    H134656   6.205   1.797   7.837  1.6693 -0.0834 -0.2137
 3487TIP3    H234657   6.145   1.911   7.916 -2.1020 -1.3303 -1.0818
 3488TIP3   OH234658   1.942   0.421   9.167 -0.0573  0.4964 -0.3611
 3488TIP3    H134659   1.894   0.503   9.159  0.3350  0.8211  0.4898
 3488TIP3    H234660   1.876   0.353   9.155 -0.2682  0.9055 -1.8139
 3489TIP3   OH234661   3.814   7.349   9.309 -0.1377  0.1713 -0.1882
 3489TIP3    H134662   3.869   7.369   9.384 -1.0080 -2.8074  1.4238
 3489TIP3    H234663   3.870   7.300   9.249 -0.2830 -0.3875  0.1261
 3490TIP3   OH234664   3.695   6.115   8.477  0.4201  0.0307  0.0152
 3490TIP3    H134665   3.758   6.044   8.484  0.0670 -0.8029 -3.2657
 3490TIP3    H234666   3.614   6.079   8.513  0.9490 -0.1447  1.0593
 3491TIP3   OH234667   7.341   2.123   7.687 -0.3293 -0.0192  0.3660
 3491TIP3    H134668   7.398   2.127   7.764  0.2421 -0.1600 -0.0348
 3491TIP3    H234669   7.345   2.032   7.659 -1.4171 -0.2121  0.8064
 3492TIP3   OH234670   6.125   2.725   7.159  0.3329 -0.0786  0.2455
 3492TIP3    H134671   6.169   2.652   7.202  0.5295  0.0908  0.3286
 3492TIP3    H234672   6.038   2.728   7.200 -0.3464 -1.4144 -1.0147
 3493TIP3   OH234673   6.177   1.688   8.831 -0.7276 -0.0676  0.5544
 3493TIP3    H134674   6.147   1.743   8.903 -2.4444  0.6042 -0.5910
 3493TIP3    H234675   6.145   1.600   8.852 -0.9495  0.0649  0.7644
 3494TIP3   OH234676   1.910   0.632   7.643  0.1854  0.2143 -0.0933
 3494TIP3    H134677   1.928   0.595   7.557  0.0062 -1.6346  0.6188
 3494TIP3    H234678   1.912   0.727   7.630  1.7109 -0.0073 -1.7984
 3495TIP3   OH234679   5.476   0.043   8.496 -0.5151 -0.4654  0.1938
 3495TIP3    H134680   5.427  -0.035   8.522 -2.0652  0.3557 -0.1643
 3495TIP3    H234681   5.458   0.107   8.565 -2.6504  0.9084 -1.5073
 3496TIP3   OH234682   5.742   6.930   9.291 -0.4522 -0.0247  0.0338
 3496TIP3    H134683   5.759   6.839   9.314 -1.0739 -0.0246  0.5095
 3496TIP3    H234684   5.648   6.941   9.303 -0.5525  0.3995 -1.0431
 3497TIP3   OH234685   2.342   6.192   6.834  0.5045  0.0607 -0.0782
 3497TIP3    H134686   2.317   6.100   6.825 -0.0921  0.2335 -0.2644
 3497TIP3    H234687   2.312   6.234   6.753 -3.5362  1.3216  1.7981
 3498TIP3   OH234688   7.081   3.288   8.124 -0.0486 -0.4850 -0.4496
 3498TIP3    H134689   6.999   3.327   8.094  0.6017  2.1683  0.8826
 3498TIP3    H234690   7.054   3.209   8.171 -1.6065 -0.8794 -1.8912
 3499TIP3   OH234691   7.448   1.338   7.158  0.4793  0.0386 -0.6776
 3499TIP3    H134692   7.451   1.390   7.077 -0.7016  0.2421 -0.6043
 3499TIP3    H234693   7.452   1.247   7.128 -2.6112 -0.0296 -1.2360
 3500TIP3   OH234694   5.685   0.054   9.791  0.8573 -0.0718 -0.2965
 3500TIP3    H134695   5.631  -0.021   9.766  0.5478 -0.3190  1.0317
 3500TIP3    H234696   5.773   0.017   9.802  1.2146  0.2218 -1.8869
 3501TIP3   OH234697   5.473   0.989   7.418 -0.4117 -0.0421  0.4801
 3501TIP3    H134698   5.525   1.064   7.388  0.2835 -0.4580  0.6459
 3501TIP3    H234699   5.393   0.994   7.366 -0.5026  0.9895  0.6900
 3502TIP3   OH234700   5.946   6.752   8.947 -0.3773 -0.3123 -0.1767
 3502TIP3    H134701   5.974   6.827   8.999 -0.8545  0.0258 -0.3940
 3502TIP3    H234702   5.953   6.782   8.856 -0.0910 -0.7018 -0.2817
 3503TIP3   OH234703   0.342   0.918   7.014 -0.0320 -0.3901 -0.1942
 3503TIP3    H134704   0.411   0.854   7.030 -0.5032 -0.6139  1.0148
 3503TIP3    H234705   0.297   0.885   6.935  0.6267 -0.7570 -0.4241
 3504TIP3   OH234706   1.479   2.045   8.751  0.2513 -0.4398  0.4737
 3504TIP3    H134707   1.435   2.073   8.831  1.8748  0.5664  1.0575
 3504TIP3    H234708   1.412   2.054   8.683 -0.2769  1.7035  1.2062
 3505TIP3   OH234709   6.539   3.413   7.618 -0.1185  0.6679  0.5227
 3505TIP3    H134710   6.566   3.322   7.602 -0.8332  0.3234  1.2140
 3505TIP3    H234711   6.609   3.449   7.672  0.5208  0.7612 -0.3302
 3506TIP3   OH234712   3.878   1.884   9.282  1.1125  0.1545  0.3360
 3506TIP3    H134713   3.794   1.926   9.269  0.9404 -0.4222 -0.4540
 3506TIP3    H234714   3.860   1.790   9.275  1.9365  0.0515 -0.5611
 3507TIP3   OH234715   6.249   2.480   8.504 -0.0214  1.0887  0.4815
 3507TIP3    H134716   6.289   2.460   8.420  0.5392  2.0714  0.4872
 3507TIP3    H234717   6.321   2.469   8.567 -0.4855  0.1624  0.8690
 3508TIP3   OH234718   3.724   0.955   8.495 -0.8784 -0.1685  0.1007
 3508TIP3    H134719   3.686   1.013   8.561 -0.8760  0.4507 -0.4355
 3508TIP3    H234720   3.691   0.868   8.518 -1.2595  0.1113  0.6332
 3509TIP3   OH234721   2.747   1.674   8.398  0.6265  0.3122 -0.4009
 3509TIP3    H134722   2.687   1.728   8.451 -0.6792 -0.2662 -1.2305
 3509TIP3    H234723   2.697   1.594   8.380  2.2201 -0.8609  0.1347
 3510TIP3   OH234724   6.572   5.552   7.662  0.3832  0.4795 -0.5229
 3510TIP3    H134725   6.524   5.576   7.741  3.0764  0.2738  1.3049
 3510TIP3    H234726   6.588   5.458   7.671  1.1332  0.5495 -1.0369
 3511TIP3   OH234727   7.522   3.119   8.295  0.8001 -0.3809 -0.3985
 3511TIP3    H134728   7.584   3.151   8.230 -0.0269  0.0691 -0.9806
 3511TIP3    H234729   7.519   3.024   8.281  0.5017 -0.2724 -1.1487
 3512TIP3   OH234730   0.689   1.333   8.958  0.1177 -0.0874  0.3128
 3512TIP3    H134731   0.750   1.274   8.913 -0.9659 -0.4147 -0.7754
 3512TIP3    H234732   0.740   1.412   8.975  1.1241 -0.7210  0.3271
 3513TIP3   OH234733   1.525   4.000   8.839  0.4877  0.2576  0.0940
 3513TIP3    H134734   1.479   4.042   8.912  2.2492  1.3686  0.6342
 3513TIP3    H234735   1.574   4.071   8.797  2.8717 -1.0585  0.4880
 3514TIP3   OH234736   3.198   2.625   6.747  0.3499  0.1146 -0.3327
 3514TIP3    H134737   3.149   2.544   6.760  1.8381 -0.8839 -0.6702
 3514TIP3    H234738   3.276   2.598   6.698 -0.1212  2.0833 -2.3355
 3515TIP3   OH234739   5.318   7.083   8.757  0.4298 -0.0334  0.1907
 3515TIP3    H134740   5.349   7.172   8.771  1.0025  0.0467 -1.3517
 3515TIP3    H234741   5.363   7.055   8.677  1.4032 -2.2441  1.4267
 3516TIP3   OH234742   4.635   5.743   8.825 -0.0924 -0.7042  0.0069
 3516TIP3    H134743   4.616   5.751   8.731  0.0436  0.2173  0.0479
 3516TIP3    H234744   4.565   5.688   8.859  0.2492 -1.6549 -0.7552
 3517TIP3   OH234745   6.749   7.045   7.818 -0.6382  0.1699  0.1763
 3517TIP3    H134746   6.689   7.053   7.892 -1.1467 -1.0736 -0.0768
 3517TIP3    H234747   6.695   7.011   7.746  0.1227  0.1037 -0.3785
 3518TIP3   OH234748   4.109   2.800   7.805  0.1239  0.0454  0.1813
 3518TIP3    H134749   4.104   2.869   7.739  1.9549 -1.2118 -1.3789
 3518TIP3    H234750   4.189   2.752   7.784  0.4729 -0.7904  2.9859
 3519TIP3   OH234751   3.661   7.121   7.915 -0.9517 -0.4023  0.1977
 3519TIP3    H134752   3.599   7.050   7.898 -0.7596 -0.3886 -0.6068
 3519TIP3    H234753   3.703   7.096   7.998 -2.4722 -0.0815  1.1064
 3520TIP3   OH234754   5.063   3.504   8.907 -0.1352  0.4408  0.1594
 3520TIP3    H134755   5.085   3.420   8.868 -1.0194 -1.2660  3.0291
 3520TIP3    H234756   5.139   3.527   8.960 -0.6482  0.4565  0.9003
 3521TIP3   OH234757   7.403   5.753   6.875 -0.3529 -0.1332 -0.1549
 3521TIP3    H134758   7.323   5.701   6.875 -0.0175 -0.6579 -0.8484
 3521TIP3    H234759   7.387   5.821   6.941 -0.1751 -2.0334  1.9432
 3522TIP3   OH234760   2.044   3.998   7.820 -0.2905  0.2358  0.4047
 3522TIP3    H134761   2.061   4.052   7.897 -0.9803  1.3425 -0.1948
 3522TIP3    H234762   2.030   4.060   7.749  0.3289 -0.7671 -0.6300
 3523TIP3   OH234763   4.281   3.250   6.717 -0.0494 -0.1683 -0.8062
 3523TIP3    H134764   4.368   3.209   6.711  0.5628  0.7137  1.1672
 3523TIP3    H234765   4.222   3.179   6.740  1.0493 -0.0794  2.8825
 3524TIP3   OH234766   1.385   1.972   7.800  0.0486  0.2401 -0.2467
 3524TIP3    H134767   1.314   1.909   7.816  1.8083 -1.8495 -0.1775
 3524TIP3    H234768   1.465   1.924   7.820  1.5729  2.2030 -1.2125
 3525TIP3   OH234769   5.701   1.082   9.100  0.7374  1.1231 -0.0710
 3525TIP3    H134770   5.795   1.066   9.108  0.8986  2.4743  1.2150
 3525TIP3    H234771   5.667   1.005   9.055  2.1071 -0.5274  1.5688
 3526TIP3   OH234772   5.979   5.545   8.917  0.2071  0.0080 -0.4260
 3526TIP3    H134773   6.038   5.523   8.989  0.3970  0.5583 -0.4117
 3526TIP3    H234774   5.923   5.615   8.952  0.5720  0.5657 -0.9474
 3527TIP3   OH234775   3.048   3.771   8.676  0.2199  0.1239 -0.6221
 3527TIP3    H134776   3.018   3.679   8.680  1.2450 -0.2434 -1.1003
 3527TIP3    H234777   3.041   3.794   8.583 -1.3560  1.0137 -0.3269
 3528TIP3   OH234778   0.802   4.381   8.021  0.0690  0.0408  0.4898
 3528TIP3    H134779   0.849   4.347   7.945 -0.5947 -0.5157  0.3159
 3528TIP3    H234780   0.793   4.475   8.004 -2.8089 -0.4840 -1.6867
 3529TIP3   OH234781   6.441   0.393   8.331 -0.7216  0.3683  0.1873
 3529TIP3    H134782   6.446   0.346   8.248 -1.9838  1.5018 -0.5644
 3529TIP3    H234783   6.449   0.324   8.397  3.6282 -0.2656 -0.7256
 3530TIP3   OH234784   0.452   0.230   9.099  0.0276 -0.1006  0.5834
 3530TIP3    H134785   0.441   0.285   9.021  1.1938 -0.0375  0.4401
 3530TIP3    H234786   0.363   0.212   9.129 -0.4294  0.0544 -0.6388
 3531TIP3   OH234787   0.784   3.677   9.442  0.2403 -0.1672 -0.0766
 3531TIP3    H134788   0.868   3.641   9.470  0.3408  0.1660  0.0541
 3531TIP3    H234789   0.792   3.771   9.456 -0.1173 -0.1216 -0.1618
 3532TIP3   OH234790   5.794   5.725   9.024  0.6092 -0.2006  0.0091
 3532TIP3    H134791   5.808   5.819   9.023 -0.3729 -0.0215  0.5930
 3532TIP3    H234792   5.700   5.715   9.008  1.1159 -1.2394 -2.9334
 3533TIP3   OH234793   6.157   2.429   8.966 -0.0971 -0.4688  0.0866
 3533TIP3    H134794   6.177   2.381   9.047 -0.3456  0.2175  0.5655
 3533TIP3    H234795   6.120   2.512   8.996 -1.7335 -0.8523 -0.7560
 3534TIP3   OH234796   7.180   4.251   7.639  0.0828 -0.7443  0.1574
 3534TIP3    H134797   7.142   4.315   7.579  0.2596  0.1844  1.0103
 3534TIP3    H234798   7.249   4.209   7.588  0.4161  0.2205 -0.2207
 3535TIP3   OH234799   5.600   2.238   8.368 -0.6020  0.2329  0.5390
 3535TIP3    H134800   5.540   2.264   8.298 -2.0409 -1.8502  0.8923
 3535TIP3    H234801   5.661   2.177   8.326 -0.3039  0.4167  0.7053
 3536TIP3   OH234802   1.786   4.205   7.639 -0.9039 -0.3679 -0.3926
 3536TIP3    H134803   1.700   4.165   7.653 -0.9817 -0.4560 -1.0794
 3536TIP3    H234804   1.775   4.296   7.667 -0.9916 -0.5847  0.2860
 3537TIP3   OH234805   7.119   5.695   6.891  0.0468  0.1059  0.8995
 3537TIP3    H134806   7.025   5.695   6.911 -0.3189  0.4762 -0.6914
 3537TIP3    H234807   7.124   5.707   6.797  1.7332  2.1386  1.1639
 3538TIP3   OH234808   1.201   1.786   7.848 -0.1729  0.1635  0.1093
 3538TIP3    H134809   1.190   1.766   7.941  0.3970  1.8449  0.5817
 3538TIP3    H234810   1.113   1.800   7.815 -0.3061  0.8011  0.7167
 3539TIP3   OH234811   0.994   5.641   7.110  0.3077  0.5267 -0.5747
 3539TIP3    H134812   0.962   5.616   7.023  0.3254 -0.8795 -0.2088
 3539TIP3    H234813   1.020   5.732   7.101  1.1201  0.1685 -2.2751
 3540TIP3   OH234814   0.049   1.765   8.911  0.4595 -0.2147  0.5117
 3540TIP3    H134815   0.036   1.672   8.889  0.7538 -0.0648 -0.3491
 3540TIP3    H234816   0.137   1.784   8.879  0.2677  0.4530  0.3757
 3541TIP3   OH234817   4.998   3.420   7.082  0.2780 -0.4869  0.2535
 3541TIP3    H134818   4.912   3.378   7.084 -0.0631  0.1900 -0.1139
 3541TIP3    H234819   5.055   3.356   7.041  0.1126 -1.2242  1.1285
 3542TIP3   OH234820   2.510   2.723   7.221 -0.3823 -0.2414 -0.1393
 3542TIP3    H134821   2.540   2.790   7.281 -1.4447 -0.2005  0.3760
 3542TIP3    H234822   2.453   2.769   7.159  0.2181 -0.3868 -0.8057
 3543TIP3   OH234823   1.659   7.530   9.234  0.2701  0.2297  0.0860
 3543TIP3    H134824   1.714   7.524   9.156 -0.2256  1.1534 -0.3476
 3543TIP3    H234825   1.719   7.555   9.304  0.4608  0.9756 -0.3315
 3544TIP3   OH234826   7.628   6.366   7.217  0.1141  0.0261  0.5222
 3544TIP3    H134827   7.582   6.285   7.194 -2.7546  1.2992  1.2709
 3544TIP3    H234828   7.602   6.383   7.307  0.2885  1.9897  0.2401
 3545TIP3   OH234829   5.349   6.595   8.724 -0.1310  0.0715  0.0811
 3545TIP3    H134830   5.336   6.568   8.815  0.9636  0.4297  0.3658
 3545TIP3    H234831   5.296   6.674   8.715 -1.3674 -0.7527 -0.0234
 3546TIP3   OH234832   4.270   2.275   8.197 -0.2570  0.1170  0.3392
 3546TIP3    H134833   4.181   2.305   8.177  0.1461  1.6407  0.6936
 3546TIP3    H234834   4.311   2.350   8.241  1.5013 -0.2160 -0.6567
 3547TIP3   OH234835   6.343   6.517   7.273 -0.0997 -0.2638  1.0819
 3547TIP3    H134836   6.399   6.538   7.348 -0.0438 -0.1917  1.0206
 3547TIP3    H234837   6.403   6.517   7.198 -0.2412  0.1669  0.9631
 3548TIP3   OH234838   1.134   0.199   7.685 -0.2114 -0.3518  0.3414
 3548TIP3    H134839   1.215   0.199   7.736 -0.7390 -0.3676  1.2001
 3548TIP3    H234840   1.109   0.291   7.681  0.7334 -0.1386 -1.3922
 3549TIP3   OH234841   0.355   4.605   7.135  0.1036  0.2053  0.9102
 3549TIP3    H134842   0.346   4.536   7.069 -0.5849  1.4609 -0.3682
 3549TIP3    H234843   0.264   4.623   7.162 -0.0400  2.4679 -0.8144
 3550TIP3   OH234844   0.137   5.999   8.129 -0.4403 -0.1984 -0.2590
 3550TIP3    H134845   0.069   5.933   8.118  0.8359 -1.4341 -1.0052
 3550TIP3    H234846   0.089   6.082   8.135 -2.0271 -1.0858 -0.1291
 3551TIP3   OH234847   4.754   3.405   8.184 -0.6293  0.3794  0.0625
 3551TIP3    H134848   4.713   3.415   8.098 -1.6549 -2.4380  0.0969
 3551TIP3    H234849   4.827   3.345   8.169  0.7376  1.7862  0.7949
 3552TIP3   OH234850   3.258   1.954   9.285 -0.3121  0.1213  0.3848
 3552TIP3    H134851   3.264   1.873   9.234 -0.7044  0.8591 -0.9001
 3552TIP3    H234852   3.249   1.926   9.376 -3.2369 -1.3575 -0.2712
 3553TIP3   OH234853   2.988   0.087   8.827 -0.3728 -0.6998  0.4041
 3553TIP3    H134854   3.072   0.084   8.873 -0.3227 -0.6378  0.3165
 3553TIP3    H234855   2.950   0.000   8.839 -0.5900 -0.5307  1.0052
 3554TIP3   OH234856   1.004   3.594   8.732 -0.1321  0.4894 -0.0064
 3554TIP3    H134857   0.990   3.534   8.659 -1.3944 -0.6449  1.1028
 3554TIP3    H234858   1.046   3.540   8.799 -1.9990  0.5499  1.3029
 3555TIP3   OH234859   7.457   6.859   9.517  0.2213  0.4784 -0.2453
 3555TIP3    H134860   7.473   6.766   9.500 -0.8838 -0.0752  1.4697
 3555TIP3    H234861   7.543   6.900   9.509  0.9816 -0.9346  0.3915
 3556TIP3   OH234862   3.462   1.506   7.024 -0.1343 -0.1420 -0.2231
 3556TIP3    H134863   3.543   1.456   7.030  0.2559  0.5599  0.5296
 3556TIP3    H234864   3.480   1.587   7.072 -1.1871  0.1456 -0.2899
 3557TIP3   OH234865   3.724   2.551   8.332  0.2291 -0.0368 -0.4371
 3557TIP3    H134866   3.755   2.478   8.386  0.2680  0.0975 -0.2786
 3557TIP3    H234867   3.655   2.513   8.278  0.3363 -0.2216 -0.4449
 3558TIP3   OH234868   6.199   7.060   7.723 -0.2801  0.0888  0.6166
 3558TIP3    H134869   6.167   7.035   7.810 -1.1540 -1.1581 -0.0258
 3558TIP3    H234870   6.166   6.991   7.665  1.0891  0.3788 -0.5625
 3559TIP3   OH234871   0.394   2.673   7.716  0.1006  0.6113  0.1290
 3559TIP3    H134872   0.370   2.748   7.661 -0.7367  0.3164  0.0795
 3559TIP3    H234873   0.449   2.709   7.785  0.2984  1.1537 -0.3112
 3560TIP3   OH234874   0.949   5.807   8.282  0.1384  0.4515 -1.1035
 3560TIP3    H134875   1.000   5.852   8.215  2.0426 -0.4623 -0.3258
 3560TIP3    H234876   0.975   5.715   8.275 -0.3646  0.1767  0.2361
 3561TIP3   OH234877   4.484   2.989   8.974  0.1942  0.0698  0.1538
 3561TIP3    H134878   4.530   2.913   8.939 -0.2477 -0.8309  1.4469
 3561TIP3    H234879   4.410   3.002   8.915  1.2783  0.6515 -1.1219
 3562TIP3   OH234880   4.957   1.945   9.024  0.0652  0.8729 -0.1715
 3562TIP3    H134881   4.996   2.029   9.047 -1.2839  1.7569 -1.0319
 3562TIP3    H234882   4.904   1.921   9.100 -0.3803  1.3297 -0.3312
 3563TIP3   OH234883   1.522   2.654   6.564  0.1792 -0.1729 -0.3453
 3563TIP3    H134884   1.605   2.614   6.538 -0.6179 -1.2356 -1.4307
 3563TIP3    H234885   1.479   2.586   6.616  0.1702  0.5333  0.5734
 3564TIP3   OH234886   0.848   0.772   8.130  0.5036 -0.1053 -0.4826
 3564TIP3    H134887   0.770   0.757   8.077 -1.1230  0.8159  1.4842
 3564TIP3    H234888   0.868   0.687   8.168  0.0699 -0.2262 -0.5169
 3565TIP3   OH234889   7.141   2.191   8.299 -0.4587 -0.5627  0.2322
 3565TIP3    H134890   7.076   2.259   8.284 -1.3940 -1.1425  1.4878
 3565TIP3    H234891   7.107   2.115   8.252  0.9964 -0.0211 -1.8818
 3566TIP3   OH234892   2.637   7.594   8.001 -0.5027 -0.3469 -0.0087
 3566TIP3    H134893   2.549   7.625   7.981 -0.6171 -0.7332 -0.1015
 3566TIP3    H234894   2.626   7.503   8.028 -0.0624 -0.6203 -0.6988
 3567TIP3   OH234895   1.618   4.617   7.551  0.0177  0.3356  0.2875
 3567TIP3    H134896   1.581   4.532   7.528 -1.2256  0.5273  1.4674
 3567TIP3    H234897   1.687   4.598   7.615  0.1101  0.1812  0.1421
 3568TIP3   OH234898   4.925   6.107   9.136  0.1383  0.0173 -0.0610
 3568TIP3    H134899   4.942   6.198   9.112  0.1065  0.0262 -0.0503
 3568TIP3    H234900   4.857   6.079   9.074 -0.6506  0.3349  0.6419
 3569TIP3   OH234901   7.581   2.458   8.547 -0.4875 -0.6330  0.3798
 3569TIP3    H134902   7.618   2.432   8.631  3.8779  1.4820 -0.6115
 3569TIP3    H234903   7.486   2.460   8.562  0.0173 -1.1588  4.9376
 3570TIP3   OH234904   2.554   0.712   7.384 -0.3329 -0.5735 -0.1179
 3570TIP3    H134905   2.621   0.701   7.317  0.4389 -1.0858  0.7225
 3570TIP3    H234906   2.480   0.752   7.338  0.5187 -0.0679 -1.0741
 3571TIP3   OH234907   3.862   2.491   6.855  0.6826  0.3022  0.3738
 3571TIP3    H134908   3.849   2.411   6.906  0.0107  0.4761  0.4878
 3571TIP3    H234909   3.944   2.527   6.887  0.4312  0.2374  1.1131
 3572TIP3   OH234910   4.663   6.307   6.611  0.1952  0.0308  0.1325
 3572TIP3    H134911   4.606   6.230   6.612 -0.1927  0.3108  1.1903
 3572TIP3    H234912   4.603   6.381   6.626  0.5097  0.5949 -1.2280
 3573TIP3   OH234913   7.101   1.282   7.002  0.2171  0.6070 -0.2290
 3573TIP3    H134914   7.105   1.209   7.063 -1.8337 -0.7550 -1.5976
 3573TIP3    H234915   7.038   1.343   7.041  0.8183  0.9611  0.2032
 3574TIP3   OH234916   1.084   5.173   9.007  0.1803 -0.9628  0.6436
 3574TIP3    H134917   1.056   5.116   8.935 -0.7826  0.0778  0.1600
 3574TIP3    H234918   1.005   5.185   9.060  0.6527 -0.9689  1.3632
 3575TIP3   OH234919   0.216   3.743   7.482  0.4428  0.5314 -0.4401
 3575TIP3    H134920   0.153   3.680   7.447  0.6769 -0.2612  0.5466
 3575TIP3    H234921   0.299   3.697   7.482  0.2415  0.0007  2.3726
 3576TIP3   OH234922   1.676   5.534   8.213 -0.3943 -0.9066 -0.5852
 3576TIP3    H134923   1.672   5.439   8.202  0.2007 -1.1481  1.0461
 3576TIP3    H234924   1.726   5.565   8.137 -1.4991 -1.7598 -1.6975
 3577TIP3   OH234925   0.953   1.966   7.256 -0.0881  0.4441 -0.3145
 3577TIP3    H134926   1.038   1.926   7.270 -0.5061 -0.3693 -0.0198
 3577TIP3    H234927   0.890   1.897   7.277 -0.8267  1.1574 -0.1270
 3578TIP3   OH234928   5.182   6.814   8.694 -0.0108 -0.4345 -0.1835
 3578TIP3    H134929   5.090   6.826   8.717 -0.4832  0.3362 -2.1915
 3578TIP3    H234930   5.221   6.900   8.708 -0.4247  0.2031 -2.4472
 3579TIP3   OH234931   2.796   5.728   8.789  0.2843 -0.3734  0.6483
 3579TIP3    H134932   2.754   5.731   8.875 -0.1697  1.6392  0.4058
 3579TIP3    H234933   2.822   5.636   8.778 -1.1435 -1.0153  2.1938
 3580TIP3   OH234934   5.730   2.716   8.597 -0.3219  0.3038 -0.3365
 3580TIP3    H134935   5.816   2.691   8.633 -0.9495  1.2639  1.9789
 3580TIP3    H234936   5.695   2.634   8.563  1.5266 -0.0952 -1.4525
 3581TIP3   OH234937   1.229   4.858   9.071 -0.0707 -0.2446 -0.1943
 3581TIP3    H134938   1.285   4.906   9.132 -1.0660  0.6503  0.0468
 3581TIP3    H234939   1.200   4.924   9.008 -0.9478 -0.6628 -0.2427
 3582TIP3   OH234940   1.394   5.598   8.496  0.1571 -0.2628 -0.4241
 3582TIP3    H134941   1.300   5.608   8.485  0.2868  0.1398 -1.3085
 3582TIP3    H234942   1.432   5.666   8.439  1.0214 -2.0505 -2.1256
 3583TIP3   OH234943   4.411   0.154   9.141 -0.2538 -0.4682 -0.1595
 3583TIP3    H134944   4.484   0.215   9.128 -1.1434  1.6745  3.4976
 3583TIP3    H234945   4.445   0.069   9.113  2.1159  1.1191 -2.5539
 3584TIP3   OH234946   2.591   1.312   8.873 -0.3050  0.1442 -0.5583
 3584TIP3    H134947   2.680   1.313   8.910  0.3377 -0.8802 -1.9994
 3584TIP3    H234948   2.571   1.220   8.861 -2.1712  0.2636  1.0152
 3585TIP3   OH234949   2.506   2.736   7.642  0.2912  0.4457  0.0625
 3585TIP3    H134950   2.432   2.795   7.657  0.4659  0.8274 -0.5783
 3585TIP3    H234951   2.475   2.651   7.673 -0.2113  0.7221  0.3317
 3586TIP3   OH234952   5.386   7.378   8.945  0.0096  0.3920 -0.2105
 3586TIP3    H134953   5.395   7.389   8.850 -1.0695  0.6718 -0.2965
 3586TIP3    H234954   5.292   7.370   8.959  0.0546  1.5003  0.9601
 3587TIP3   OH234955   0.354   4.038   7.055  0.2699 -0.0616  0.3592
 3587TIP3    H134956   0.314   4.020   6.970 -0.8730  0.2528  0.8185
 3587TIP3    H234957   0.405   3.959   7.075  0.3540 -0.2305 -0.4986
 3588TIP3   OH234958   0.386   6.239   8.150  0.0932  0.1700  0.6383
 3588TIP3    H134959   0.381   6.242   8.245 -0.2517 -2.4943  0.7795
 3588TIP3    H234960   0.378   6.146   8.128  0.8958  0.6227 -1.9621
 3589TIP3   OH234961   7.579   5.678   7.245  0.3296  0.1568 -0.5464
 3589TIP3    H134962   7.538   5.750   7.292  0.3243  0.5192 -1.0954
 3589TIP3    H234963   7.673   5.689   7.260  0.3563  0.5153 -0.9535
 3590TIP3   OH234964   3.422   1.371   9.338 -0.0525  0.8933  0.3390
 3590TIP3    H134965   3.348   1.358   9.280 -0.3548 -0.0365  0.8993
 3590TIP3    H234966   3.415   1.299   9.401  2.3058 -0.2884 -0.6245
 3591TIP3   OH234967   1.437   0.259   8.630 -0.8260  0.0446 -0.5239
 3591TIP3    H134968   1.343   0.242   8.628 -0.7353 -0.7713  1.1271
 3591TIP3    H234969   1.475   0.182   8.671  0.7002 -0.0772 -2.0633
 3592TIP3   OH234970   1.470   5.851   9.303 -0.5552 -0.1368  0.3926
 3592TIP3    H134971   1.391   5.798   9.297 -0.8503  0.2798  0.5538
 3592TIP3    H234972   1.542   5.788   9.297 -0.8784 -0.4114 -0.7758
 3593TIP3   OH234973   4.148   7.159   8.765 -0.3344  0.1675  0.4841
 3593TIP3    H134974   4.170   7.084   8.820 -0.2972  0.8789  1.4581
 3593TIP3    H234975   4.096   7.216   8.821  0.6143  1.4200  0.1367
 3594TIP3   OH234976   2.890   1.630   8.084  0.0659  0.1233 -0.1603
 3594TIP3    H134977   2.886   1.561   8.150 -0.6470 -0.2251 -0.5578
 3594TIP3    H234978   2.957   1.600   8.022 -0.0702 -0.0941 -0.2025
 3595TIP3   OH234979   1.441   0.347   7.446 -0.5339  0.9137  0.0993
 3595TIP3    H134980   1.413   0.284   7.512 -1.1689  0.2552 -0.7750
 3595TIP3    H234981   1.529   0.373   7.473  0.6370 -1.9461 -0.6214
 3596TIP3   OH234982   5.578   7.409   9.154  0.4312  0.4891 -0.4562
 3596TIP3    H134983   5.564   7.497   9.189 -0.7562  0.0169  0.3219
 3596TIP3    H234984   5.504   7.394   9.096  0.3074 -0.2179 -0.1264
 3597TIP3   OH234985   6.907   7.477   7.963  0.2352 -0.4451  0.2882
 3597TIP3    H134986   6.845   7.413   7.929 -0.4602  0.3983 -0.0790
 3597TIP3    H234987   6.963   7.497   7.888  0.5194 -0.6969  0.4315
 3598TIP3   OH234988   2.778   4.302   8.630  0.6251  0.1875  0.3314
 3598TIP3    H134989   2.839   4.240   8.589  0.1928  0.3257 -0.5276
 3598TIP3    H234990   2.691   4.264   8.615  0.2689  1.4518 -1.0441
 3599TIP3   OH234991   1.770   2.587   6.896  0.2850 -0.3364 -0.2958
 3599TIP3    H134992   1.745   2.662   6.949  1.0402 -1.0529  1.1061
 3599TIP3    H234993   1.862   2.601   6.875  0.0060 -0.0762 -1.4251
 3600TIP3   OH234994   5.177   1.650   9.079  0.3394  0.0984  1.0749
 3600TIP3    H134995   5.249   1.589   9.062 -0.0262 -0.4048  1.3268
 3600TIP3    H234996   5.126   1.609   9.149 -0.0340  0.5896  1.0985
 3601TIP3   OH234997   1.670   3.007   9.144  0.2621 -0.3515  0.6755
 3601TIP3    H134998   1.756   2.964   9.140 -0.0040 -0.9522  1.2868
 3601TIP3    H234999   1.670   3.066   9.068  1.5459  0.2931  1.1346
 3602TIP3   OH235000   0.923   2.815   8.898 -0.2468 -0.4224 -0.7513
 3602TIP3    H135001   0.876   2.897   8.891 -0.5466 -0.5763 -0.5684
 3602TIP3    H235002   0.981   2.813   8.822 -0.9549 -0.4986 -1.2973
 3603TIP3   OH235003   5.201   1.863   8.931  0.3557  0.3764  0.4857
 3603TIP3    H135004   5.118   1.910   8.933  0.5274  0.6695  1.1128
 3603TIP3    H235005   5.187   1.786   8.986  0.1036 -0.2685 -0.4681
 3604TIP3   OH235006   0.897   0.300   8.680  0.1519  0.2471 -0.1432
 3604TIP3    H135007   0.891   0.395   8.689 -0.2813  0.1427  0.8896
 3604TIP3    H235008   0.837   0.279   8.609 -0.0853  0.7071 -0.0854
 3605TIP3   OH235009   1.054   6.328   7.932  0.6475  0.1421  0.1535
 3605TIP3    H135010   1.140   6.307   7.969  0.4553  0.2791  0.6818
 3605TIP3    H235011   1.058   6.423   7.917  0.9492 -0.0012 -0.7747
 3606TIP3   OH235012   1.636   2.626   8.403  0.1278 -0.2887  0.2403
 3606TIP3    H135013   1.587   2.656   8.326  2.4057  1.6093 -0.5707
 3606TIP3    H235014   1.630   2.698   8.465  2.1609  0.1932 -0.0518
 3607TIP3   OH235015   4.972   5.617   9.236  0.5180  0.3060  0.5052
 3607TIP3    H135016   5.059   5.614   9.275  0.3947  2.8519  1.1134
 3607TIP3    H235017   4.953   5.710   9.223 -2.3786 -0.0961  1.0174
 3608TIP3   OH235018   1.617   3.769   9.498  0.1101  0.3123 -0.2691
 3608TIP3    H135019   1.523   3.789   9.499  0.1629  0.5831  0.6898
 3608TIP3    H235020   1.627   3.703   9.429 -0.9812 -0.5669  0.3685
 3609TIP3   OH235021   5.523   3.530   7.174  0.2320  0.4533 -0.7361
 3609TIP3    H135022   5.484   3.579   7.102 -0.2780 -1.7876 -2.0946
 3609TIP3    H235023   5.454   3.469   7.201  1.0514 -0.0016  0.3961
 3610TIP3   OH235024   5.865   3.583   8.448  0.0208 -0.3670 -0.0709
 3610TIP3    H135025   5.820   3.619   8.525 -0.9249 -0.9327 -0.3448
 3610TIP3    H235026   5.801   3.524   8.408  1.5244 -2.4774  0.4234
 3611TIP3   OH235027   2.263   5.856   7.520 -0.2935  0.2015  0.1834
 3611TIP3    H135028   2.272   5.936   7.572 -1.3451  1.0471 -0.8897
 3611TIP3    H235029   2.348   5.814   7.527  0.6935  2.0250 -0.2098
 3612TIP3   OH235030   2.362   2.990   7.631 -0.0854  0.5043  0.5327
 3612TIP3    H135031   2.406   2.974   7.547 -0.1318 -1.6009  0.8722
 3612TIP3    H235032   2.269   2.990   7.610 -0.0728  0.8119  0.4675
 3613TIP3   OH235033   2.666   5.188   6.332 -0.1642 -0.0849  0.4345
 3613TIP3    H135034   2.729   5.258   6.350 -1.4801  1.0739  0.6534
 3613TIP3    H235035   2.711   5.132   6.268  1.1198  0.6296  0.6664
 3614TIP3   OH235036   1.157   5.414   7.504 -0.7645  0.3903 -0.0492
 3614TIP3    H135037   1.253   5.414   7.497 -0.7353 -0.2218  0.2668
 3614TIP3    H235038   1.131   5.327   7.474 -1.2613  0.7290 -0.6085
 3615TIP3   OH235039   6.451   4.666   9.455  0.0509  0.3396  0.4196
 3615TIP3    H135040   6.477   4.674   9.364 -0.2960 -1.1255  0.1679
 3615TIP3    H235041   6.359   4.639   9.452  0.6269 -1.8602  1.1245
 3616TIP3   OH235042   5.613   0.094   8.798 -0.3480 -0.3324 -0.5362
 3616TIP3    H135043   5.615   0.001   8.774 -1.3697 -0.3753 -0.5128
 3616TIP3    H235044   5.680   0.135   8.744  0.2903 -1.1215 -0.3590
 3617TIP3   OH235045   6.652   4.942   6.701  0.5953  0.1821  0.6749
 3617TIP3    H135046   6.596   4.953   6.624 -1.0048 -0.3944  1.7090
 3617TIP3    H235047   6.740   4.936   6.665 -0.1699 -0.9601 -1.2030
 3618TIP3   OH235048   0.446   5.674   6.616 -0.1296  0.4257  0.1300
 3618TIP3    H135049   0.485   5.607   6.560  0.3301  0.9814 -0.2254
 3618TIP3    H235050   0.520   5.727   6.645 -0.3366  0.0233  1.4456
 3619TIP3   OH235051   3.268   4.479   8.953 -0.8637  0.3741 -0.0502
 3619TIP3    H135052   3.200   4.424   8.916 -0.3041 -1.2657  1.2305
 3619TIP3    H235053   3.247   4.567   8.923 -2.7814 -0.2726 -0.7401
 3620TIP3   OH235054   1.905   0.947   7.603 -0.3452 -0.6498  0.4487
 3620TIP3    H135055   1.882   0.943   7.510 -1.7952 -0.6054  0.7692
 3620TIP3    H235056   1.844   1.011   7.640 -0.0844 -0.9844  1.5011
 3621TIP3   OH235057   7.334   6.227   7.393 -0.0756  0.5247 -0.2258
 3621TIP3    H135058   7.358   6.314   7.361  0.1729  1.0438  1.3242
 3621TIP3    H235059   7.393   6.168   7.346  1.4935  1.4314  0.5336
 3622TIP3   OH235060   3.597   1.546   8.834 -0.1131 -0.3272 -0.0307
 3622TIP3    H135061   3.596   1.566   8.741  0.3485 -2.3500 -0.5283
 3622TIP3    H235062   3.537   1.471   8.843  0.9056 -1.0567  1.0359
 3623TIP3   OH235063   2.560   3.006   8.710  0.1863 -0.6716 -0.3709
 3623TIP3    H135064   2.515   3.043   8.785 -0.4686 -2.2335  0.0538
 3623TIP3    H235065   2.639   2.967   8.746  0.3628 -0.5654 -0.6437
 3624TIP3   OH235066   6.767   7.292   9.868 -0.3384  0.3248  0.5369
 3624TIP3    H135067   6.691   7.313   9.922 -0.7578  0.2382 -0.0030
 3624TIP3    H235068   6.764   7.355   9.796 -1.3159 -1.1739 -0.8244
 3625TIP3   OH235069   6.973   4.546   6.909 -0.2387  0.4532  0.2504
 3625TIP3    H135070   6.928   4.549   6.824  0.2946  0.0462 -0.0515
 3625TIP3    H235071   6.904   4.521   6.971 -0.5987  0.5967 -0.0870
 3626TIP3   OH235072   6.558   5.814   7.499  0.2142  0.3676 -0.2938
 3626TIP3    H135073   6.507   5.789   7.423  0.9215  1.3899 -1.1268
 3626TIP3    H235074   6.573   5.732   7.546 -2.4051  0.0644  0.1547
 3627TIP3   OH235075   1.001   1.305   8.520  0.6297 -0.4818  0.3612
 3627TIP3    H135076   1.087   1.290   8.559  1.2527  2.1338  0.2477
 3627TIP3    H235077   0.972   1.388   8.559 -1.3694 -0.7892 -0.3847
 3628TIP3   OH235078   2.649   0.657   8.163  0.1286 -0.0882  0.1339
 3628TIP3    H135079   2.653   0.699   8.249  0.5642  0.4326 -0.1332
 3628TIP3    H235080   2.577   0.594   8.170 -0.8421  1.0016  0.4289
 3629TIP3   OH235081   0.073   4.115   6.822  0.9618  0.1417  0.3695
 3629TIP3    H135082   0.155   4.082   6.784 -0.2962 -1.3616 -1.1708
 3629TIP3    H235083   0.031   4.163   6.751 -0.3176 -0.6469  0.5615
 3630TIP3   OH235084   0.935   1.354   7.408  0.2610  0.1010  1.0002
 3630TIP3    H135085   0.871   1.412   7.447 -0.1924 -0.4112  1.0237
 3630TIP3    H235086   0.889   1.271   7.395  0.3681  0.2626 -0.6643
 3631TIP3   OH235087   4.766   7.209   7.073 -0.4932  0.2630  0.2061
 3631TIP3    H135088   4.833   7.156   7.030  1.1609  0.9256  1.8292
 3631TIP3    H235089   4.704   7.145   7.110  0.4488 -0.4689  0.5497
 3632TIP3   OH235090   4.403   0.610   7.854  0.2736  0.2002  0.2566
 3632TIP3    H135091   4.378   0.702   7.859  1.4582  0.5852 -0.4772
 3632TIP3    H235092   4.431   0.598   7.763  0.9403 -0.6674  0.5646
 3633TIP3   OH235093   2.236   2.969   8.498  0.3589  0.1296 -0.4009
 3633TIP3    H135094   2.160   2.910   8.499 -0.8672  1.5251 -2.2959
 3633TIP3    H235095   2.203   3.050   8.537  1.9045 -0.2606  1.8265
 3634TIP3   OH235096   3.086   5.713   6.503  0.1783 -0.2058 -0.4445
 3634TIP3    H135097   3.055   5.644   6.562  0.7698  0.3003  0.4756
 3634TIP3    H235098   3.179   5.724   6.525  0.6790 -0.6657 -2.1317
 3635TIP3   OH235099   0.756   0.123   8.009  0.0877 -0.0326  0.3688
 3635TIP3    H135100   0.760   0.147   7.917  0.0725 -2.3824 -0.3104
 3635TIP3    H235101   0.814   0.185   8.053  1.4797  0.0523 -1.4870
 3636TIP3   OH235102   3.306   4.306   8.070  0.1226 -0.1803 -0.4577
 3636TIP3    H135103   3.249   4.378   8.097  0.3223 -0.3714  0.5088
 3636TIP3    H235104   3.365   4.293   8.144  0.1848 -1.2403 -0.6833
 3637TIP3   OH235105   3.530   1.642   9.365 -0.0651 -0.2178 -0.8351
 3637TIP3    H135106   3.451   1.690   9.339 -0.6824  1.5527  3.4790
 3637TIP3    H235107   3.501   1.552   9.377 -1.2316  0.2071 -0.3173
 3638TIP3   OH235108   5.943   5.633   8.607  0.4072  0.1231 -0.0593
 3638TIP3    H135109   5.970   5.629   8.698  1.2987 -1.8030 -0.3704
 3638TIP3    H235110   5.902   5.548   8.590  1.7173 -0.2018 -1.8767
 3639TIP3   OH235111   0.702   3.290   6.513  0.7702  0.0444 -0.1913
 3639TIP3    H135112   0.679   3.367   6.565  0.0497 -0.3476  0.0893
 3639TIP3    H235113   0.797   3.281   6.523  0.4533 -1.3232  2.9562
 3640TIP3   OH235114   2.496   1.744   7.688 -0.1168 -0.0629  0.2648
 3640TIP3    H135115   2.554   1.766   7.616  0.1585 -0.3849  0.3898
 3640TIP3    H235116   2.554   1.723   7.761 -0.3915  0.0179  0.5104
 3641TIP3   OH235117   7.354   0.327   7.967  0.5654  0.3776 -0.5683
 3641TIP3    H135118   7.348   0.368   7.880 -1.0179  1.0078 -0.1886
 3641TIP3    H235119   7.284   0.368   8.018 -0.2837 -1.8976  0.2180
 3642TIP3   OH235120   2.151   6.088   8.796  0.2461 -0.0266 -0.6093
 3642TIP3    H135121   2.222   6.047   8.845  0.8955  0.8698 -0.7756
 3642TIP3    H235122   2.077   6.087   8.856  0.9277  0.7219  0.2747
 3643TIP3   OH235123   4.282   7.266   9.703  0.3297  0.2647  0.5154
 3643TIP3    H135124   4.325   7.319   9.636  1.7759 -0.4938  0.7925
 3643TIP3    H235125   4.327   7.182   9.698 -1.7469 -0.8983  0.2405
 3644TIP3   OH235126   1.130   7.498   7.482  0.2183  0.2390 -0.2534
 3644TIP3    H135127   1.078   7.543   7.549 -3.3537  1.5103 -3.5475
 3644TIP3    H235128   1.076   7.423   7.457  1.7867 -0.5951 -1.2646
 3645TIP3   OH235129   4.030   5.936   6.601 -0.3291 -0.5231  0.3603
 3645TIP3    H135130   3.959   5.981   6.646 -0.5593 -0.3321 -0.2011
 3645TIP3    H235131   4.109   5.967   6.646 -0.3643  1.4164 -0.8013
 3646TIP3   OH235132   6.304   0.185   6.920  0.0125 -0.1773 -0.4208
 3646TIP3    H135133   6.252   0.184   6.840 -0.8155  0.7510  0.0806
 3646TIP3    H235134   6.393   0.164   6.891 -0.3841 -0.4527 -1.4901
 3647TIP3   OH235135   7.063   1.860   8.511  0.1308 -0.1018 -0.2503
 3647TIP3    H135136   7.141   1.820   8.472  0.8831  0.8028  0.2965
 3647TIP3    H235137   6.993   1.837   8.451  0.4389 -2.5761  0.2362
 3648TIP3   OH235138   1.554   6.696   7.841 -0.0185 -0.4495 -0.0842
 3648TIP3    H135139   1.579   6.695   7.748 -1.3174  1.2735 -0.4976
 3648TIP3    H235140   1.498   6.619   7.851  0.2907 -0.7616 -0.6943
 3649TIP3   OH235141   6.823   5.097   7.570  0.5255  0.4475  0.0163
 3649TIP3    H135142   6.746   5.146   7.542 -0.4113 -0.3282  1.1735
 3649TIP3    H235143   6.897   5.142   7.528 -0.3685  2.3174  0.3710
 3650TIP3   OH235144   5.451   6.979   9.309 -0.0286 -0.1228  0.6696
 3650TIP3    H135145   5.432   6.951   9.220 -0.2912  1.4130  0.2108
 3650TIP3    H235146   5.391   7.052   9.325  1.1122  0.6785  1.5121
 3651TIP3   OH235147   2.786   3.824   9.061 -0.3869 -0.1080 -0.0987
 3651TIP3    H135148   2.702   3.849   9.101 -0.1084  1.6377 -0.5106
 3651TIP3    H235149   2.780   3.858   8.972  1.3615  1.5141  0.3436
 3652TIP3   OH235150   0.372   1.416   8.118 -0.2438  0.5631 -0.5900
 3652TIP3    H135151   0.332   1.355   8.056 -0.3549  0.1324 -0.0996
 3652TIP3    H235152   0.301   1.441   8.177  0.4056 -1.0929  0.9976
 3653TIP3   OH235153   1.478   2.427   8.717  0.8129  0.0131  0.0317
 3653TIP3    H135154   1.413   2.488   8.750  1.1813 -0.6350  2.0938
 3653TIP3    H235155   1.428   2.363   8.666 -0.0334  0.0220  0.8483
 3654TIP3   OH235156   0.286   6.015   7.199  0.4030  0.0703 -0.2409
 3654TIP3    H135157   0.309   6.022   7.106 -0.7700 -1.1826 -0.6448
 3654TIP3    H235158   0.200   6.057   7.205  0.6477  0.4892  0.3618
 3655TIP3   OH235159   1.596   3.742   7.395  0.0261  0.0033  0.1987
 3655TIP3    H135160   1.652   3.754   7.318 -1.7023  1.8758 -0.8628
 3655TIP3    H235161   1.534   3.815   7.391  0.1247  0.4274  3.6223
 3656TIP3   OH235162   2.461   0.509   7.868  0.3527 -0.0391  0.2637
 3656TIP3    H135163   2.429   0.575   7.805 -0.0278 -0.0166  0.4754
 3656TIP3    H235164   2.522   0.456   7.817 -0.8583 -0.7775 -0.4864
 3657TIP3   OH235165   3.742   5.020   8.460  0.0290  0.0698  0.0333
 3657TIP3    H135166   3.818   5.061   8.418 -0.1877 -0.0218 -0.4445
 3657TIP3    H235167   3.768   4.928   8.470 -0.5492 -0.2745 -1.4038
 3658TIP3   OH235168   5.020   4.267   8.378  0.7713 -0.2084  0.0373
 3658TIP3    H135169   4.950   4.310   8.428 -0.9631 -1.7874 -0.9306
 3658TIP3    H235170   4.986   4.260   8.289  2.5391 -0.2748 -0.6824
 3659TIP3   OH235171   3.775   3.623   8.790  0.5852 -0.1832 -0.1024
 3659TIP3    H135172   3.845   3.567   8.822  1.8484  2.0219  1.2335
 3659TIP3    H235173   3.792   3.632   8.696  1.4328 -0.5529  0.0069
 3660TIP3   OH235174   5.196   2.490   7.254 -0.3729  0.0031  0.3637
 3660TIP3    H135175   5.225   2.531   7.172 -2.1578 -0.9244 -0.7966
 3660TIP3    H235176   5.231   2.401   7.250  1.7396  0.6846  1.9040
 3661TIP3   OH235177   2.777   3.439   8.805 -0.4804 -0.1355  0.2798
 3661TIP3    H135178   2.712   3.454   8.737 -0.1625 -2.7155 -0.7150
 3661TIP3    H235179   2.761   3.508   8.869 -2.0703  1.2141 -1.4452
 3662TIP3   OH235180   2.553   0.102   7.744 -0.3131 -0.3385  0.0034
 3662TIP3    H135181   2.600   0.144   7.816 -0.9900  1.8288 -0.7270
 3662TIP3    H235182   2.602   0.022   7.726  0.5678 -0.3246  2.0420
 3663TIP3   OH235183   3.508   7.600   9.128 -0.5532  0.8499 -0.1645
 3663TIP3    H135184   3.543   7.584   9.040  1.4565  0.1018  0.7068
 3663TIP3    H235185   3.524   7.693   9.144  2.9025  0.2306  0.8538
 3664TIP3   OH235186   5.740   3.381   8.967 -0.5144 -0.1346  0.1150
 3664TIP3    H135187   5.810   3.415   9.023  0.4924  0.0575 -1.2139
 3664TIP3    H235188   5.738   3.287   8.986 -1.0927  0.1297  1.4248
 3665TIP3   OH235189   0.188   7.096   9.451 -0.6593 -0.1916  0.0393
 3665TIP3    H135190   0.276   7.061   9.468 -0.8723 -0.3879  0.7434
 3665TIP3    H235191   0.198   7.191   9.461 -0.0439  0.0322 -2.0307
 3666TIP3   OH235192   5.458   1.747   8.659  0.5179 -0.6078 -0.1115
 3666TIP3    H135193   5.524   1.752   8.590 -1.0254 -0.5802 -1.6356
 3666TIP3    H235194   5.455   1.654   8.682  0.1031 -0.8228 -1.0248
 3667TIP3   OH235195   2.934   0.731   8.134 -0.1854 -0.2206 -0.3084
 3667TIP3    H135196   2.854   0.759   8.089 -0.1398 -0.8081 -0.7639
 3667TIP3    H235197   2.921   0.638   8.150 -0.1202 -0.0596  0.7431
 3668TIP3   OH235198   6.965   7.580   8.657 -0.1576  0.1425  0.0906
 3668TIP3    H135199   7.017   7.540   8.726  0.5460  1.7281  0.5350
 3668TIP3    H235200   7.029   7.627   8.603 -0.4979 -2.0701 -2.4635
 3669TIP3   OH235201   4.864   0.988   6.787  0.0250 -0.4882 -0.5407
 3669TIP3    H135202   4.773   0.962   6.779 -0.3922  0.4022  0.8924
 3669TIP3    H235203   4.905   0.915   6.835 -0.4779  0.1077  0.8536
 3670TIP3   OH235204   2.875   1.119   8.838  0.2892 -0.4319 -0.6398
 3670TIP3    H135205   2.860   1.176   8.762  1.5502 -0.3367 -0.8430
 3670TIP3    H235206   2.818   1.043   8.823  0.2939 -0.2736 -1.5235
 3671TIP3   OH235207   7.241   4.623   7.747 -0.3398 -0.2794 -0.0085
 3671TIP3    H135208   7.270   4.541   7.787  0.6221  0.0696  0.0312
 3671TIP3    H235209   7.225   4.601   7.655 -1.9184 -0.9321  0.3930
 3672TIP3   OH235210   6.801   3.502   7.674  0.8588 -0.3312  0.1889
 3672TIP3    H135211   6.816   3.410   7.653  0.1509 -0.7411  1.4273
 3672TIP3    H235212   6.874   3.526   7.731  0.7896 -0.2547  0.2459
 3673TIP3   OH235213   2.030   5.084   7.823  0.4816 -0.2184 -0.1725
 3673TIP3    H135214   1.983   5.066   7.741  0.8078  0.9677 -0.6400
 3673TIP3    H235215   2.121   5.096   7.796  0.5355  0.5336  0.3138
 3674TIP3   OH235216   5.093   1.922   8.224  0.1738  0.4641 -0.8344
 3674TIP3    H135217   5.188   1.935   8.231 -0.0052  2.5196 -1.5251
 3674TIP3    H235218   5.058   1.959   8.305 -0.1716  1.9916 -1.6411
 3675TIP3   OH235219   0.535   4.167   6.856  0.0203  0.0437 -0.0058
 3675TIP3    H135220   0.620   4.174   6.813 -1.0998 -0.0584 -2.3988
 3675TIP3    H235221   0.555   4.144   6.947  2.6163  2.4491  0.1588
 3676TIP3   OH235222   3.626   1.659   6.858  0.6584  0.0375  0.7257
 3676TIP3    H135223   3.630   1.751   6.832 -0.4523 -0.4202 -1.3357
 3676TIP3    H235224   3.538   1.648   6.893  0.9389 -0.1772  1.3915
 3677TIP3   OH235225   0.160   7.265   8.416 -0.0656  0.5239  0.7565
 3677TIP3    H135226   0.180   7.258   8.323  0.5669 -1.9405  1.0025
 3677TIP3    H235227   0.065   7.282   8.419 -0.2013  0.0659 -0.3434
 3678TIP3   OH235228   7.399   0.470   9.328 -0.1377  0.2288 -0.2895
 3678TIP3    H135229   7.474   0.411   9.333 -0.9565 -0.8347 -0.2371
 3678TIP3    H235230   7.402   0.505   9.240 -0.5222 -1.1184 -0.8646
 3679TIP3   OH235231   3.835   6.125   7.236 -0.2048 -0.1314  0.0861
 3679TIP3    H135232   3.799   6.192   7.178 -0.1839  0.6177  0.9108
 3679TIP3    H235233   3.864   6.173   7.314 -0.5305 -1.1351  0.8664
 3680TIP3   OH235234   4.989   5.869   7.530  0.1271 -0.0670 -0.2710
 3680TIP3    H135235   4.896   5.892   7.527 -0.3958 -1.9405 -0.2624
 3680TIP3    H235236   5.025   5.920   7.602 -1.0985  0.0772  0.2584
 3681TIP3   OH235237   3.573   4.423   9.208 -0.0791  0.2802  0.0338
 3681TIP3    H135238   3.666   4.405   9.222  0.3125  2.2634  0.3225
 3681TIP3    H235239   3.527   4.362   9.265  1.0677 -0.3511  0.3023
 3682TIP3   OH235240   1.635   4.697   7.027 -0.3803  0.1759 -0.2170
 3682TIP3    H135241   1.719   4.741   7.013  0.6585 -1.7478 -0.3781
 3682TIP3    H235242   1.616   4.652   6.945 -1.0015 -0.3131  0.1755
 3683TIP3   OH235243   7.551   4.284   6.653  0.2397  0.4200  0.1956
 3683TIP3    H135244   7.586   4.366   6.619  1.1919 -1.3051 -3.5467
 3683TIP3    H235245   7.460   4.283   6.624  0.1020  0.3622  0.6294
 3684TIP3   OH235246   4.924   4.649   9.359  0.2849 -0.6655 -0.2143
 3684TIP3    H135247   4.883   4.572   9.319 -0.9110 -0.1028 -0.1198
 3684TIP3    H235248   5.017   4.628   9.362  0.3246 -1.1213 -2.4689
 3685TIP3   OH235249   0.804   0.731   8.912 -0.1546 -0.5747 -0.4088
 3685TIP3    H135250   0.786   0.702   9.001  1.7331  0.8649  0.4992
 3685TIP3    H235251   0.725   0.781   8.887 -0.3204 -0.1857  0.8251
 3686TIP3   OH235252   5.248   1.078   8.143  0.5266  0.0554 -0.0352
 3686TIP3    H135253   5.236   1.066   8.238  0.2247 -1.2632 -0.2116
 3686TIP3    H235254   5.277   0.992   8.112 -2.0310 -0.3587 -1.5329
 3687TIP3   OH235255   4.294   0.121   7.447 -0.2814  0.2866 -0.3936
 3687TIP3    H135256   4.248   0.147   7.526  0.2217 -2.9895  1.1534
 3687TIP3    H235257   4.232   0.137   7.376 -2.2656 -0.2191  1.1562
 3688TIP3   OH235258   0.469   3.723   8.843  0.0299 -0.3729 -0.1581
 3688TIP3    H135259   0.558   3.700   8.815 -0.9590 -3.5871 -1.1610
 3688TIP3    H235260   0.413   3.692   8.772 -1.9213  1.9344  0.2561
 3689TIP3   OH235261   3.704   4.913   7.474  0.0473  0.1699  0.4993
 3689TIP3    H135262   3.650   4.977   7.428  0.8614  0.5094 -0.0030
 3689TIP3    H235263   3.736   4.960   7.551  3.8238  1.8419 -1.7492
 3690TIP3   OH235264   5.952   7.493   8.070  0.1742  0.8129  0.1879
 3690TIP3    H135265   5.897   7.570   8.054 -0.3603  0.1731 -1.3046
 3690TIP3    H235266   6.041   7.524   8.056 -0.1708  0.6206 -3.2761
 3691TIP3   OH235267   5.013   1.668   8.131  0.2137  0.2622 -0.3102
 3691TIP3    H135268   5.024   1.758   8.159 -0.0815  0.0082  0.6764
 3691TIP3    H235269   5.091   1.648   8.079  1.7057  0.2000  1.8363
 3692TIP3   OH235270   7.587   4.355   6.901  0.1769  0.1351 -0.0625
 3692TIP3    H135271   7.563   4.299   6.828  0.1094  0.5180 -0.3368
 3692TIP3    H235272   7.682   4.367   6.891  0.3502 -0.6709  0.5236
 3693TIP3   OH235273   6.189   7.642   8.248  1.2059 -0.3935 -0.0607
 3693TIP3    H135274   6.257   7.578   8.271  2.1895  0.5349 -0.2553
 3693TIP3    H235275   6.196   7.652   8.153 -1.4462 -2.6817 -0.6179
 3694TIP3   OH235276   4.278   3.898   9.443  0.2196 -0.3773  0.2259
 3694TIP3    H135277   4.199   3.869   9.489 -0.3995  0.4681 -0.2510
 3694TIP3    H235278   4.271   3.856   9.357 -0.0427  0.1853 -0.0330
 3695TIP3   OH235279   6.393   3.794   7.545 -0.5347 -0.3239 -0.1435
 3695TIP3    H135280   6.351   3.712   7.518  2.0538 -1.6504 -0.4535
 3695TIP3    H235281   6.485   3.770   7.558  0.3062  2.5546 -0.2465
 3696TIP3   OH235282   3.226   2.937   9.324 -0.0489 -0.0980  0.0084
 3696TIP3    H135283   3.142   2.982   9.318 -0.2760 -0.4856  0.3232
 3696TIP3    H235284   3.256   2.954   9.414 -0.0282 -0.3913  0.0555
 3697TIP3   OH235285   4.710   5.536   9.073 -0.1164 -0.4113  0.3630
 3697TIP3    H135286   4.754   5.501   9.151 -0.9370  0.4470  1.2324
 3697TIP3    H235287   4.678   5.622   9.100  1.2241  0.7433 -1.4943
 3698TIP3   OH235288   2.283   4.461   9.076 -0.2441 -0.0806 -0.2500
 3698TIP3    H135289   2.342   4.395   9.113 -1.0965 -0.0393  1.2473
 3698TIP3    H235290   2.274   4.437   8.984  1.5174 -0.5126 -0.3381
 3699TIP3   OH235291   5.209   0.773   7.775 -0.0687  0.0004 -0.2826
 3699TIP3    H135292   5.146   0.844   7.762 -0.0839 -0.2977 -2.1213
 3699TIP3    H235293   5.215   0.730   7.690 -0.4122 -2.5234  0.8647
 3700TIP3   OH235294   2.152   6.000   7.955 -0.0261 -0.5482  0.5747
 3700TIP3    H135295   2.130   6.036   7.869  3.5253  1.4784  0.3089
 3700TIP3    H235296   2.228   5.944   7.939  2.0740  1.4940  2.4847
 3701TIP3   OH235297   1.282   5.301   7.126 -0.1360 -0.6105  0.4112
 3701TIP3    H135298   1.270   5.208   7.147  1.2914 -0.9319 -0.1368
 3701TIP3    H235299   1.254   5.308   7.035 -1.7396 -0.1628  0.9035
 3702TIP3   OH235300   4.551   7.396   7.447  0.7143 -0.1484 -0.1485
 3702TIP3    H135301   4.468   7.434   7.474  0.8125 -0.6951  0.9887
 3702TIP3    H235302   4.543   7.385   7.352 -0.3375  0.1992 -0.1086
 3703TIP3   OH235303   7.657   1.973   7.268  0.0867  0.1112  0.5684
 3703TIP3    H135304   7.729   1.915   7.244 -0.2682 -0.4211  0.7578
 3703TIP3    H235305   7.608   1.985   7.187  0.3775  0.4649  0.4419
 3704TIP3   OH235306   7.619   4.809   7.748 -0.0598  0.3009 -0.0416
 3704TIP3    H135307   7.573   4.733   7.713 -3.2799  1.5092  1.1941
 3704TIP3    H235308   7.619   4.873   7.676  0.6213 -0.0197 -0.3421
 3705TIP3   OH235309   6.596   2.994   7.171  0.1752 -0.2018 -0.7152
 3705TIP3    H135310   6.548   3.072   7.197 -1.2546 -0.9540 -0.9647
 3705TIP3    H235311   6.603   3.001   7.075 -1.4642 -1.1236 -0.9621
 3706TIP3   OH235312   2.060   1.778   7.742  0.6162 -1.0045 -0.1680
 3706TIP3    H135313   2.065   1.749   7.651  1.1914 -1.3879 -0.0205
 3706TIP3    H235314   2.139   1.831   7.754 -0.6984  1.1351 -0.5923
 3707TIP3   OH235315   2.478   3.211   6.542 -0.1899 -0.1704 -0.4628
 3707TIP3    H135316   2.569   3.186   6.526 -0.3524 -1.6671  0.7536
 3707TIP3    H235317   2.443   3.230   6.455  1.1545 -0.0194 -0.9922
 3708TIP3   OH235318   2.647   7.175   7.547 -0.0848  0.6449 -0.0011
 3708TIP3    H135319   2.700   7.219   7.480  0.0084  3.2641  1.6599
 3708TIP3    H235320   2.587   7.242   7.578 -1.6396 -1.1291  1.0538
 3709TIP3   OH235321   4.695   1.851   8.739 -0.3564 -0.0366  0.4057
 3709TIP3    H135322   4.662   1.833   8.651  1.4825  1.2793 -0.6380
 3709TIP3    H235323   4.742   1.934   8.730  0.8999 -0.4729  2.3499
 3710TIP3   OH235324   3.755   4.251   7.956  0.7203 -0.7185  0.4010
 3710TIP3    H135325   3.726   4.160   7.966 -1.3855  0.0549  2.1269
 3710TIP3    H235326   3.772   4.261   7.863  0.5537 -2.7434  0.1032
 3711TIP3   OH235327   1.902   1.936   9.344 -0.1071  0.1087  0.4751
 3711TIP3    H135328   1.908   1.889   9.260  0.2938 -0.6170  0.8970
 3711TIP3    H235329   1.808   1.951   9.356 -0.1726  0.1919 -0.0845
 3712TIP3   OH235330   5.611   4.779   9.293 -0.0141  0.9429  0.5132
 3712TIP3    H135331   5.602   4.861   9.245 -0.7402  0.3626 -0.3699
 3712TIP3    H235332   5.648   4.805   9.378  0.4231  2.0876 -0.0092
 3713TIP3   OH235333   2.756   1.976   7.248  0.7380  0.1908  0.6813
 3713TIP3    H135334   2.748   2.058   7.199  0.8831  0.5453  1.2440
 3713TIP3    H235335   2.733   1.909   7.184  1.2338  0.6157  0.0324
 3714TIP3   OH235336   2.982   4.846   6.490 -0.6581  0.1161 -0.5395
 3714TIP3    H135337   2.893   4.825   6.518 -0.6712 -1.8638 -1.8490
 3714TIP3    H235338   3.029   4.864   6.572 -1.5142 -1.9963  0.4958
 3715TIP3   OH235339   7.474   6.816   6.846  0.0968 -0.3483  0.3972
 3715TIP3    H135340   7.539   6.769   6.897  0.7235 -0.4672 -0.4921
 3715TIP3    H235341   7.419   6.747   6.807  1.1342 -0.3824 -1.0622
 3716TIP3   OH235342   0.266   0.491   6.679 -0.7072  0.0814  0.5633
 3716TIP3    H135343   0.251   0.509   6.771 -1.2774 -1.0936  0.7252
 3716TIP3    H235344   0.198   0.428   6.655 -0.6921  0.5090 -0.7144
 3717TIP3   OH235345   5.811   1.012   7.658 -0.9466 -0.6927 -0.3241
 3717TIP3    H135346   5.795   0.939   7.717 -0.6672 -1.1189 -0.7715
 3717TIP3    H235347   5.907   1.020   7.655 -0.9851  0.5873  0.8139
 3718TIP3   OH235348   3.339   7.060   9.379 -0.0144  0.3614 -0.1978
 3718TIP3    H135349   3.319   7.072   9.286  0.7912 -1.5661 -0.6646
 3718TIP3    H235350   3.406   7.125   9.397 -0.3806  0.9445 -0.8845
 3719TIP3   OH235351   1.620   1.197   9.383  0.5256  0.1489  0.3422
 3719TIP3    H135352   1.624   1.134   9.311 -1.4195  0.1342  0.2023
 3719TIP3    H235353   1.682   1.164   9.448  0.0603 -1.5116 -0.0209
 3720TIP3   OH235354   1.824   0.188   7.779 -0.6980 -0.1270 -0.2969
 3720TIP3    H135355   1.815   0.102   7.739 -0.2173  0.0726 -0.8675
 3720TIP3    H235356   1.739   0.205   7.820 -0.8808 -0.7564 -0.4017
 3721TIP3   OH235357   2.911   3.096   9.328 -0.5463  0.3847  0.6192
 3721TIP3    H135358   2.849   3.117   9.397 -2.0327 -2.4351  0.2933
 3721TIP3    H235359   2.876   3.139   9.250 -1.8607 -0.7525  0.5531
 3722TIP3   OH235360   6.193   0.485   8.976  0.8667 -0.3319 -0.1025
 3722TIP3    H135361   6.241   0.503   9.057  1.5926 -3.2654  0.2566
 3722TIP3    H235362   6.107   0.456   9.006  0.1996  1.0823 -0.5629
 3723TIP3   OH235363   4.291   0.071   8.546  0.2364 -0.7332  0.2948
 3723TIP3    H135364   4.229   0.069   8.619 -0.0023  1.6263  0.2369
 3723TIP3    H235365   4.258   0.140   8.489  2.3528 -0.1072 -0.2684
 3724TIP3   OH235366   2.901   5.917   6.613  0.4686  0.4773 -0.5682
 3724TIP3    H135367   2.831   5.853   6.625  0.4771  0.8500  1.9333
 3724TIP3    H235368   2.963   5.873   6.554  0.8463 -2.1983  1.6149
 3725TIP3   OH235369   0.175   0.813   7.924  0.2565  0.1797 -0.1228
 3725TIP3    H135370   0.210   0.729   7.953 -1.9446 -0.9874 -0.5939
 3725TIP3    H235371   0.175   0.807   7.828  1.9250  1.5666 -0.2502
 3726TIP3   OH235372   5.946   0.698   6.821  0.0837  0.3480  0.8442
 3726TIP3    H135373   5.879   0.760   6.851  0.2692  1.1975 -0.4099
 3726TIP3    H235374   6.029   0.745   6.832  0.4590 -0.5456  2.0014
 3727TIP3   OH235375   4.408   1.004   8.722 -0.5744  0.5561  0.2744
 3727TIP3    H135376   4.337   0.944   8.698  0.8506 -1.1840  0.2515
 3727TIP3    H235377   4.404   1.073   8.656  0.2472 -1.6207 -2.1966
 3728TIP3   OH235378   4.856   3.723   8.334 -0.0393 -0.0533  0.0472
 3728TIP3    H135379   4.781   3.741   8.390 -0.9982  1.7680 -1.6943
 3728TIP3    H235380   4.895   3.643   8.370 -0.6390  0.9309  3.1811
 3729TIP3   OH235381   0.466   5.584   8.757  0.1250  0.0649  0.0471
 3729TIP3    H135382   0.470   5.489   8.748  1.7294  0.2001 -0.9937
 3729TIP3    H235383   0.515   5.603   8.837  1.2769  0.1286 -0.6664
 3730TIP3   OH235384   1.907   6.508   8.959  0.5205  0.1016  0.3523
 3730TIP3    H135385   1.873   6.481   8.873  1.0890 -0.3680  0.2667
 3730TIP3    H235386   1.830   6.512   9.015  0.0989  0.6841 -0.2420
 3731TIP3   OH235387   0.015   5.189   8.201  0.2578 -0.1161 -0.1817
 3731TIP3    H135388   0.100   5.229   8.181  1.2190 -1.5508  0.7696
 3731TIP3    H235389  -0.004   5.217   8.291 -1.1500  1.5517 -0.9351
 3732TIP3   OH235390   3.213   5.099   7.789 -0.6865  0.0781 -0.5099
 3732TIP3    H135391   3.254   5.085   7.704  1.4625  1.1484  0.2695
 3732TIP3    H235392   3.286   5.111   7.849 -2.1004 -1.9770  1.8001
 3733TIP3   OH235393   3.301   1.693   7.775 -0.2390 -0.4747 -0.3432
 3733TIP3    H135394   3.310   1.764   7.839 -2.1126 -1.5927  1.2510
 3733TIP3    H235395   3.363   1.627   7.804 -0.7824 -0.8023  0.0909
 3734TIP3   OH235396   0.543   6.767   6.938  0.1003 -0.0295  0.4708
 3734TIP3    H135397   0.514   6.844   6.889 -1.3538 -0.9401 -0.1782
 3734TIP3    H235398   0.614   6.799   6.994  1.7754  1.1032 -2.1140
 3735TIP3   OH235399   7.496   0.030   9.347 -0.2089  0.0233  0.0348
 3735TIP3    H135400   7.590   0.024   9.331 -0.3461 -1.6027 -0.3627
 3735TIP3    H235401   7.480  -0.028   9.421 -0.9075  0.2160  0.0435
 3736TIP3   OH235402   4.571   7.157   8.925 -0.3660  0.1349 -0.0231
 3736TIP3    H135403   4.655   7.134   8.884  0.1870 -0.3446  1.3252
 3736TIP3    H235404   4.551   7.244   8.890  0.8981  0.4331 -0.0813
 3737TIP3   OH235405   5.420   5.742   9.622  0.4943 -0.6522  0.1396
 3737TIP3    H135406   5.453   5.768   9.536 -0.7899 -2.0233 -0.8150
 3737TIP3    H235407   5.430   5.821   9.676 -2.6004  1.7812 -2.3944
 3738TIP3   OH235408   3.512   1.018   8.279 -0.2336  0.3709 -0.0239
 3738TIP3    H135409   3.418   1.030   8.293 -0.2050 -0.1086  0.6299
 3738TIP3    H235410   3.539   0.956   8.347  0.6781  0.9687  0.1827
 3739TIP3   OH235411   1.840   4.803   8.482 -0.1475  0.4394  0.4173
 3739TIP3    H135412   1.816   4.724   8.530  1.3475 -0.8497 -0.8403
 3739TIP3    H235413   1.933   4.815   8.500  0.0811  0.8030 -0.9124
 3740TIP3   OH235414   2.296   2.048   9.027 -0.0202  0.0366 -0.3050
 3740TIP3    H135415   2.275   1.994   9.103  2.1789 -0.6176 -0.0721
 3740TIP3    H235416   2.328   1.986   8.961  2.2205  0.9180 -0.1652
 3741TIP3   OH235417   5.006   5.621   6.746 -0.0757  0.2561  0.2662
 3741TIP3    H135418   4.943   5.592   6.679 -1.1662  1.2580  0.8156
 3741TIP3    H235419   4.953   5.670   6.809  1.2397  0.9473  0.8756
 3742TIP3   OH235420   0.447   4.800   7.950  0.3864 -0.2137  0.1024
 3742TIP3    H135421   0.436   4.797   8.045 -0.3608 -1.5256  0.0000
 3742TIP3    H235422   0.370   4.847   7.918 -0.0552 -0.9337  0.0723
 3743TIP3   OH235423   0.123   4.868   7.263  0.3234  0.1294  0.2274
 3743TIP3    H135424   0.071   4.884   7.185  1.0685  1.1061 -0.0930
 3743TIP3    H235425   0.131   4.773   7.267  0.0681  0.0531 -0.7491
 3744TIP3   OH235426   6.372   7.012   7.140 -0.4273 -0.3033  0.3851
 3744TIP3    H135427   6.288   7.000   7.095  1.4660 -0.0003 -3.6926
 3744TIP3    H235428   6.392   7.105   7.130 -0.5106  0.1312  3.3685
 3745TIP3   OH235429   2.455   7.184   9.145 -0.5232 -0.1600 -0.4981
 3745TIP3    H135430   2.392   7.120   9.113 -0.5796 -0.0535 -0.6036
 3745TIP3    H235431   2.439   7.262   9.091 -0.9416  0.1814  0.1013
 3746TIP3   OH235432   4.002   5.090   8.257 -0.5292  0.4651 -0.5777
 3746TIP3    H135433   3.947   5.047   8.192 -2.4681  0.8964  0.6566
 3746TIP3    H235434   4.079   5.120   8.209 -1.1813 -0.5444 -2.3219
 3747TIP3   OH235435   6.828   4.971   8.149 -0.6909 -0.0242  0.3580
 3747TIP3    H135436   6.741   4.933   8.150 -1.4520  1.5584 -0.7689
 3747TIP3    H235437   6.813   5.064   8.130  1.1605  0.5359  1.4113
 3748TIP3   OH235438   3.834   3.228   8.771  0.3898  0.5189 -0.6491
 3748TIP3    H135439   3.746   3.222   8.807  0.2544  1.7954 -0.7303
 3748TIP3    H235440   3.822   3.249   8.679  0.7343  2.7936 -0.2551
 3749TIP3   OH235441   2.915   4.588   7.568  0.3201 -0.6064 -0.0061
 3749TIP3    H135442   2.970   4.536   7.627  0.6780  0.5080  0.6596
 3749TIP3    H235443   2.826   4.560   7.588  0.5174 -1.0902  0.2200
 3750TIP3   OH235444   4.490   2.975   7.301  1.2281 -0.3874 -0.2195
 3750TIP3    H135445   4.554   2.988   7.371  1.2602 -0.9483 -0.1444
 3750TIP3    H235446   4.525   3.026   7.227  0.8900  0.6986  0.3453
 3751TIP3   OH235447   6.836   0.669   8.912 -0.1239 -0.2856  0.1387
 3751TIP3    H135448   6.774   0.608   8.953 -1.5035  0.5519 -0.6464
 3751TIP3    H235449   6.902   0.612   8.872 -0.2956 -1.1917  1.0967
 3752TIP3   OH235450   0.489   6.362   9.795  0.6499 -0.1326 -0.2859
 3752TIP3    H135451   0.575   6.332   9.765  0.8408  1.2968 -1.2894
 3752TIP3    H235452   0.509   6.425   9.864  0.4524  0.6645 -0.9430
 3753TIP3   OH235453   4.511   2.267   7.686  0.4686 -0.2386 -0.1420
 3753TIP3    H135454   4.433   2.232   7.641  0.2555  0.8391 -0.6316
 3753TIP3    H235455   4.556   2.189   7.718 -0.3416 -0.9363 -0.6369
 3754TIP3   OH235456   5.640   5.736   6.889 -0.2008 -0.4104  0.2207
 3754TIP3    H135457   5.678   5.695   6.811 -1.5403 -1.9653  0.3439
 3754TIP3    H235458   5.702   5.714   6.959 -0.0509 -0.7650 -0.0197
 3755TIP3   OH235459   5.430   0.916   7.849 -0.1872 -0.1307  0.2185
 3755TIP3    H135460   5.437   0.972   7.772 -0.4210  0.4649  0.6220
 3755TIP3    H235461   5.376   0.842   7.821 -2.0380  1.0866  0.3462
 3756TIP3   OH235462   2.662   5.222   8.589 -0.0399  0.0350 -0.6036
 3756TIP3    H135463   2.638   5.131   8.571  0.1295  0.0047 -0.6840
 3756TIP3    H235464   2.663   5.228   8.685  1.6332 -0.5173 -0.5544
 3757TIP3   OH235465   4.664   7.353   9.710 -0.3268  0.2129  0.0485
 3757TIP3    H135466   4.694   7.367   9.800 -0.3473 -2.7675  0.6244
 3757TIP3    H235467   4.606   7.427   9.693  1.2935  1.9933  1.6842
 3758TIP3   OH235468   5.540   7.162   8.143  0.0344 -0.1525  0.5726
 3758TIP3    H135469   5.472   7.205   8.195 -0.7040 -2.1130  1.3399
 3758TIP3    H235470   5.616   7.157   8.201 -0.3257 -1.0664  0.9806
 3759TIP3   OH235471   2.567   6.327   8.566  0.0516  0.4263  0.0057
 3759TIP3    H135472   2.490   6.271   8.578 -1.0780  2.0356  0.7381
 3759TIP3    H235473   2.580   6.330   8.472  1.3236 -2.5138 -0.0165
 3760TIP3   OH235474   3.876   3.344   7.328  0.4397 -1.1318 -0.0909
 3760TIP3    H135475   3.900   3.348   7.235  2.2784 -0.7839  0.3589
 3760TIP3    H235476   3.840   3.257   7.339 -2.2558 -0.3377 -1.6349
 3761TIP3   OH235477   4.019   6.373   7.748 -0.0232 -0.0519 -0.2980
 3761TIP3    H135478   4.022   6.414   7.835 -1.0938 -0.4369 -0.0612
 3761TIP3    H235479   3.943   6.314   7.752  1.8454 -2.6245 -0.3866
 3762TIP3   OH235480   6.240   1.881   8.549 -0.3793 -0.0519 -0.3297
 3762TIP3    H135481   6.171   1.896   8.614 -1.2738 -1.4410 -0.9149
 3762TIP3    H235482   6.316   1.855   8.601 -0.0042  2.2517  0.3804
 3763TIP3   OH235483   5.533   4.531   8.443 -0.0138  0.0376  0.2577
 3763TIP3    H135484   5.477   4.492   8.377 -0.0895  0.3272  0.1485
 3763TIP3    H235485   5.474   4.548   8.517 -0.5327  2.1796 -0.5782
 3764TIP3   OH235486   3.393   6.363   7.563 -0.3145 -0.0729  0.1818
 3764TIP3    H135487   3.431   6.324   7.642 -1.9328  0.2290  1.1670
 3764TIP3    H235488   3.467   6.375   7.504  0.8034 -1.1534  1.3001
 3765TIP3   OH235489   0.375   5.962   7.751  1.1646 -0.2959  0.4965
 3765TIP3    H135490   0.333   5.952   7.666 -1.0389 -1.8883  1.6768
 3765TIP3    H235491   0.462   5.923   7.740  0.7873 -0.7902 -0.9348
 3766TIP3   OH235492   7.571   1.097   8.511  0.1319  0.3529  0.4626
 3766TIP3    H135493   7.514   1.022   8.525  0.2980 -0.2382 -1.7464
 3766TIP3    H235494   7.526   1.170   8.553 -1.0929 -0.5436  0.7494
 3767TIP3   OH235495   1.253   1.959   9.783  0.2971  0.0822  0.1956
 3767TIP3    H135496   1.194   2.019   9.829  0.6739  0.7626 -0.2060
 3767TIP3    H235497   1.331   2.010   9.766  0.5771 -0.4862 -0.2677
 3768TIP3   OH235498   5.980   6.984   9.091  0.0634  0.5137 -0.2813
 3768TIP3    H135499   5.973   7.064   9.144  3.6506 -0.0063  1.2951
 3768TIP3    H235500   5.968   6.913   9.154  0.4125 -0.1643 -0.9688
 3769TIP3   OH235501   4.843   2.345   7.069  0.2533 -0.5254  0.0616
 3769TIP3    H135502   4.832   2.298   6.986  1.9415  1.4740 -1.3895
 3769TIP3    H235503   4.754   2.370   7.094 -0.2601 -0.8462 -1.3352
 3770TIP3   OH235504   6.549   5.161   9.399  0.0158  0.0754  0.1691
 3770TIP3    H135505   6.499   5.126   9.473  0.1904  0.9805  0.7398
 3770TIP3    H235506   6.569   5.085   9.345  0.0617 -0.6482  1.1694
 3771TIP3   OH235507   6.385   3.862   8.469  0.3156  0.7956  0.2173
 3771TIP3    H135508   6.398   3.779   8.423 -1.0879  1.1976 -0.9704
 3771TIP3    H235509   6.473   3.886   8.499  0.9955 -0.3622 -0.7286
 3772TIP3   OH235510   4.381   7.327   9.453  0.2182  0.1247  0.1397
 3772TIP3    H135511   4.474   7.308   9.438 -0.0601 -0.7572 -0.5759
 3772TIP3    H235512   4.344   7.332   9.365 -0.2474  1.4264  0.3870
 3773TIP3   OH235513   2.057   6.036   9.290  0.3188  0.0825 -0.0563
 3773TIP3    H135514   1.994   5.972   9.258 -0.3010  0.3079  0.6953
 3773TIP3    H235515   2.012   6.120   9.282  0.4409  0.2247  0.6742
 3774TIP3   OH235516   4.749   4.863   9.449 -0.3945  0.0600 -0.1568
 3774TIP3    H135517   4.672   4.838   9.501 -0.6793 -1.1333 -1.1308
 3774TIP3    H235518   4.797   4.782   9.436  0.8184  0.7186  0.0458
 3775TIP3   OH235519   5.107   4.752   9.016 -0.0591  0.2424  0.1174
 3775TIP3    H135520   5.096   4.785   8.927  0.0956  0.3141  0.1248
 3775TIP3    H235521   5.123   4.658   9.004  2.8740  0.6806 -0.1423
 3776TIP3   OH235522   0.191   0.715   8.536  0.3888  0.7475  0.3744
 3776TIP3    H135523   0.196   0.792   8.480  0.7494  0.9648  0.7051
 3776TIP3    H235524   0.238   0.647   8.489 -1.1292  0.3095 -0.5889
 3777TIP3   OH235525   3.988   0.097   8.264 -0.4897 -0.6677  0.4116
 3777TIP3    H135526   4.021   0.066   8.180  0.9203 -2.6350  1.6210
 3777TIP3    H235527   3.897   0.066   8.267 -1.1436  0.9165 -1.0372
 3778TIP3   OH235528   3.768   5.692   7.076 -0.3264 -0.1928 -0.5992
 3778TIP3    H135529   3.810   5.777   7.090  1.5252 -0.7303 -2.4742
 3778TIP3    H235530   3.824   5.629   7.122 -2.5747 -0.3668  2.2264
 3779TIP3   OH235531   4.907   3.007   9.438  0.4948 -0.1728 -0.1623
 3779TIP3    H135532   4.873   3.027   9.350 -0.2370  0.4350  0.2495
 3779TIP3    H235533   4.932   2.915   9.434  1.9058  0.2142 -1.4662
 3780TIP3   OH235534   2.823   3.453   8.363  0.5470 -0.3200  0.1387
 3780TIP3    H135535   2.765   3.387   8.325 -0.4637  0.5945  0.0298
 3780TIP3    H235536   2.883   3.476   8.293 -1.5710  1.6717 -1.1559
 3781TIP3   OH235537   7.573   1.805   7.935 -0.1845 -0.1786  0.5933
 3781TIP3    H135538   7.625   1.727   7.914  2.0243  0.9007  1.6847
 3781TIP3    H235539   7.528   1.826   7.853 -0.4471 -2.2809  0.1359
 3782TIP3   OH235540   1.681   3.606   8.743  0.4905  0.1299  0.3336
 3782TIP3    H135541   1.586   3.611   8.743  0.3275 -1.4959 -1.7348
 3782TIP3    H235542   1.710   3.697   8.735 -0.9550  0.5448 -0.5915
 3783TIP3   OH235543   0.499   7.047   6.963 -0.3961  0.6882  0.2765
 3783TIP3    H135544   0.549   7.127   6.977  0.7357  0.0243  0.1575
 3783TIP3    H235545   0.446   7.037   7.042  1.1676  0.3541  1.3321
 3784TIP3   OH235546   2.792   5.425   7.914 -0.4384  0.1255  0.3652
 3784TIP3    H135547   2.726   5.492   7.929 -1.4337 -0.4633 -1.1057
 3784TIP3    H235548   2.743   5.343   7.918  0.1555 -0.3128 -0.8663
 3785TIP3   OH235549   5.535   4.811   8.109 -0.5034 -0.7814  0.0639
 3785TIP3    H135550   5.581   4.890   8.138 -0.8172 -0.3593 -0.5625
 3785TIP3    H235551   5.464   4.800   8.172 -1.1696  0.1169 -0.5037
 3786TIP3   OH235552   7.235   4.284   9.175  0.1007 -0.3571 -0.4614
 3786TIP3    H135553   7.325   4.252   9.164  0.1281 -0.1884 -0.7527
 3786TIP3    H235554   7.181   4.216   9.135  0.2397  0.5529 -2.3315
 3787TIP3   OH235555   1.384   2.450   9.380 -0.0946  0.6420  0.6244
 3787TIP3    H135556   1.467   2.495   9.367  0.1057  0.2952  0.6935
 3787TIP3    H235557   1.318   2.519   9.374  0.1099  0.7474 -0.5822
 3788TIP3   OH235558   0.953   0.386   7.368 -0.2849 -0.0672 -0.5764
 3788TIP3    H135559   0.951   0.472   7.411  1.6959 -0.3314  0.1586
 3788TIP3    H235560   1.037   0.384   7.323 -0.2169 -1.7024 -0.4183
 3789TIP3   OH235561   6.486   7.629   7.977 -0.3618  0.1290  0.2415
 3789TIP3    H135562   6.486   7.696   7.908 -0.0646  0.0842  0.1981
 3789TIP3    H235563   6.394   7.624   8.005 -0.3159  0.8345  0.5189
 3790TIP3   OH235564   5.896   3.297   7.419 -0.3587  0.8727 -0.2712
 3790TIP3    H135565   5.924   3.264   7.505 -1.0294  1.5869  0.2407
 3790TIP3    H235566   5.977   3.328   7.379 -0.3108  2.8001  1.1434
 3791TIP3   OH235567   4.781   6.836   7.141 -0.1179 -0.1828  0.2454
 3791TIP3    H135568   4.870   6.847   7.176  0.1355 -0.5292 -0.2797
 3791TIP3    H235569   4.746   6.761   7.189 -0.2924  0.2267  0.7688
 3792TIP3   OH235570   1.083   4.145   8.894  0.4295 -0.1139 -1.0928
 3792TIP3    H135571   1.088   4.230   8.849  1.5494 -0.2072 -1.1721
 3792TIP3    H235572   1.042   4.165   8.978  1.3043  0.6434 -0.8230
 3793TIP3   OH235573   4.479   4.101   9.380  0.0711 -0.4934 -0.2186
 3793TIP3    H135574   4.405   4.134   9.329 -1.7518 -1.7356  1.4823
 3793TIP3    H235575   4.449   4.019   9.417  2.0942 -0.7374  1.0768
 3794TIP3   OH235576   2.531   3.862   6.579  0.1291  0.2090 -0.0982
 3794TIP3    H135577   2.445   3.851   6.619  0.6922  1.6565  1.6120
 3794TIP3    H235578   2.547   3.956   6.581  0.6836  0.2482 -2.7955
 3795TIP3   OH235579   1.282   2.687   7.571  0.4782  0.3387  0.6790
 3795TIP3    H135580   1.295   2.767   7.521 -1.1146 -0.5988 -1.4031
 3795TIP3    H235581   1.326   2.619   7.520  0.1825 -0.3967  1.3813
 3796TIP3   OH235582   2.006   3.866   9.066  0.0002 -0.5840  0.5218
 3796TIP3    H135583   1.967   3.946   9.101 -0.9323 -0.4587 -0.7395
 3796TIP3    H235584   1.937   3.800   9.074  0.0994 -0.7842 -0.1965
 3797TIP3   OH235585   3.485   4.985   8.600  0.1090  0.1998  0.4926
 3797TIP3    H135586   3.523   5.014   8.683  1.3635 -0.5267  0.1992
 3797TIP3    H235587   3.552   5.006   8.535 -0.8136  0.6638 -0.3400
 3798TIP3   OH235588   1.977   2.695   8.879 -0.2620 -0.1910  1.0040
 3798TIP3    H135589   1.964   2.619   8.936  0.2298 -0.9786  0.1003
 3798TIP3    H235590   1.936   2.768   8.926 -2.4914 -1.3745  1.0008
 3799TIP3   OH235591   4.003   6.733   9.218  0.4985  0.1377 -0.6430
 3799TIP3    H135592   4.009   6.714   9.125 -1.2599 -0.9065 -0.5702
 3799TIP3    H235593   3.915   6.705   9.244  1.6648 -1.6443  1.7885
 3800TIP3   OH235594   2.053   6.589   7.116  0.4642 -0.6447 -0.2558
 3800TIP3    H135595   2.139   6.599   7.157 -0.2228 -1.3788  1.4608
 3800TIP3    H235596   1.997   6.652   7.162 -0.1217 -0.8110 -0.7260
 3801TIP3   OH235597   3.678   2.603   9.166  0.7580 -0.1921  0.3356
 3801TIP3    H135598   3.753   2.616   9.108  1.2459 -2.6283  0.3094
 3801TIP3    H235599   3.683   2.677   9.228 -0.1360  2.8403 -2.8938
 3802TIP3   OH235600   4.911   1.380   8.985 -0.4841  0.2917 -0.0231
 3802TIP3    H135601   4.914   1.476   8.988  0.8033  0.3427 -1.7516
 3802TIP3    H235602   4.934   1.353   9.074  2.2322  1.5996 -0.2264
 3803TIP3   OH235603   2.855   1.438   8.913  0.3630 -0.1616 -0.1151
 3803TIP3    H135604   2.893   1.353   8.892  0.0644 -0.1764 -0.5916
 3803TIP3    H235605   2.872   1.492   8.836  0.8786  0.3276  0.3254
 3804TIP3   OH235606   2.711   7.207   9.180 -0.2107 -0.1500 -0.5807
 3804TIP3    H135607   2.758   7.242   9.104 -0.5338  1.4028 -0.1003
 3804TIP3    H235608   2.620   7.199   9.150 -0.2043 -0.2267 -0.5786
 3805TIP3   OH235609   2.915   5.463   8.812 -0.2998 -0.4862  0.1785
 3805TIP3    H135610   2.930   5.477   8.718  0.1937  1.4493  0.4966
 3805TIP3    H235611   3.002   5.444   8.847 -0.4883 -1.2308  0.2550
 3806TIP3   OH235612   5.175   1.877   7.660 -0.1620 -0.0287  1.2930
 3806TIP3    H135613   5.231   1.858   7.585 -0.0180 -0.5897  1.5353
 3806TIP3    H235614   5.224   1.942   7.710 -0.3465  0.4935  0.8074
 3807TIP3   OH235615   5.216   5.070   7.049 -0.3403  0.6491  0.0697
 3807TIP3    H135616   5.126   5.037   7.044 -0.4932  0.6769  1.8989
 3807TIP3    H235617   5.267   4.994   7.079  0.0329  0.9425  0.1829
 3808TIP3   OH235618   5.789   5.901   8.043  0.5726 -0.3300 -0.0218
 3808TIP3    H135619   5.769   5.891   8.136  0.9678 -0.4378  0.0556
 3808TIP3    H235620   5.738   5.977   8.016 -1.1578 -1.4865 -0.2130
 3809TIP3   OH235621   6.157   2.111   7.680  0.3346  0.5802 -0.0057
 3809TIP3    H135622   6.182   2.203   7.681 -0.2783  0.7552 -0.0600
 3809TIP3    H235623   6.135   2.090   7.771  0.9246  0.3579  0.0864
 3810TIP3   OH235624   2.024   3.227   8.255  0.7437 -0.3004 -0.0142
 3810TIP3    H135625   2.001   3.315   8.287 -0.9406 -0.9971  0.8074
 3810TIP3    H235626   1.968   3.168   8.305  2.2089 -1.9175 -0.1709
 3811TIP3   OH235627   0.960   3.778   8.345 -0.5660 -0.1239  0.1068
 3811TIP3    H135628   0.947   3.871   8.326  0.4912  0.4085  1.7754
 3811TIP3    H235629   0.872   3.744   8.360 -0.8429  1.0342  1.2263
 3812TIP3   OH235630   6.606   3.079   9.096 -0.4409 -0.1209  0.3777
 3812TIP3    H135631   6.634   3.135   9.168 -1.0810  0.2708  0.3268
 3812TIP3    H235632   6.675   3.087   9.030  0.7217 -1.3607  1.3898
 3813TIP3   OH235633   0.273   2.320   9.041  0.2795  0.2715  0.2762
 3813TIP3    H135634   0.242   2.231   9.055  0.1559  0.4527  1.2475
 3813TIP3    H235635   0.278   2.329   8.946  1.0106 -1.0108  0.1621
 3814TIP3   OH235636   0.024   5.422   9.178  0.1617  0.1885  0.3291
 3814TIP3    H135637   0.053   5.511   9.198  0.0879  0.2564  0.1344
 3814TIP3    H235638  -0.070   5.424   9.191 -0.0667  0.5543 -1.1683
 3815TIP3   OH235639   6.054   4.158   7.737 -0.0885  0.4046  0.3337
 3815TIP3    H135640   6.021   4.090   7.796 -0.6854 -1.0393 -1.5525
 3815TIP3    H235641   6.129   4.117   7.693 -0.3359  1.0281 -0.6984
 3816TIP3   OH235642   0.779   4.203   7.413  0.0280 -0.1848  0.7168
 3816TIP3    H135643   0.781   4.275   7.476  1.1732  0.9539 -0.5820
 3816TIP3    H235644   0.863   4.208   7.367 -1.2863 -0.1430 -1.8324
 3817TIP3   OH235645   3.887   6.719   8.487  0.2181  0.2648 -0.5775
 3817TIP3    H135646   3.981   6.721   8.473 -0.0993 -0.7357 -3.8813
 3817TIP3    H235647   3.867   6.626   8.500 -0.2916  0.5232  0.5870
 3818TIP3   OH235648   2.897   5.292   7.660 -0.4401  0.1110  0.1847
 3818TIP3    H135649   2.870   5.381   7.639 -1.2791 -0.3913 -0.9741
 3818TIP3    H235650   2.883   5.284   7.754  2.7262  2.1975  1.0058
 3819TIP3   OH235651   5.475   3.103   8.807  0.3692 -0.1811  0.1827
 3819TIP3    H135652   5.401   3.047   8.831  1.0101 -0.7575  0.8408
 3819TIP3    H235653   5.527   3.050   8.746  0.1434  0.3003 -0.4433
 3820TIP3   OH235654   7.395   4.520   8.190  0.1729 -0.2422  0.1301
 3820TIP3    H135655   7.462   4.576   8.150  0.8455 -1.2123 -0.1513
 3820TIP3    H235656   7.445   4.456   8.241 -0.6545  1.0295  2.7053
 3821TIP3   OH235657   6.346   1.999   8.906  0.2179 -0.4158  0.4605
 3821TIP3    H135658   6.350   2.084   8.949  2.1873  0.1171 -0.6180
 3821TIP3    H235659   6.394   1.940   8.964 -1.1753 -0.8421  1.2244
 3822TIP3   OH235660   5.306   0.344   9.808  0.5378 -0.1261 -0.3732
 3822TIP3    H135661   5.266   0.323   9.893 -0.0768  2.0175 -0.0722
 3822TIP3    H235662   5.243   0.314   9.743  0.1462 -0.1014 -0.0088
 3823TIP3   OH235663   1.861   0.239   8.436  0.2586  0.1704 -0.0986
 3823TIP3    H135664   1.925   0.300   8.399 -0.7788  0.9617 -0.6429
 3823TIP3    H235665   1.883   0.155   8.398  1.0058  0.4250 -0.2408
 3824TIP3   OH235666   1.439   1.363   9.204  0.1282 -0.0247 -0.0750
 3824TIP3    H135667   1.498   1.299   9.244 -0.2654 -0.2160  0.2019
 3824TIP3    H235668   1.474   1.448   9.232  0.0162 -0.1483  0.4597
 3825TIP3   OH235669   3.897   2.481   8.533  0.5708  0.0486  0.2776
 3825TIP3    H135670   3.976   2.520   8.495  0.8846  0.2294  1.1143
 3825TIP3    H235671   3.929   2.412   8.591  0.1523  0.6149  1.1946
 3826TIP3   OH235672   3.350   4.437   7.417  0.7358  0.0628 -0.0817
 3826TIP3    H135673   3.376   4.459   7.328  2.6317  1.3664  0.7196
 3826TIP3    H235674   3.291   4.508   7.443 -0.5404 -0.7877 -0.5535
 3827TIP3   OH235675   2.326   4.133   8.351 -0.2800 -0.8393  0.3198
 3827TIP3    H135676   2.381   4.105   8.278  0.7694 -0.2727  0.8766
 3827TIP3    H235677   2.289   4.217   8.323  2.4223  0.8696  1.5142
 3828TIP3   OH235678   4.227   6.254   7.467  0.4373  0.5942 -0.1528
 3828TIP3    H135679   4.205   6.337   7.509  3.2427  2.0638 -1.3967
 3828TIP3    H235680   4.181   6.256   7.383  0.2372  0.7304 -0.0401
 3829TIP3   OH235681   1.921   7.125   9.143 -0.1968 -0.1405 -0.0163
 3829TIP3    H135682   1.831   7.144   9.170  0.0075 -0.8344  1.2181
 3829TIP3    H235683   1.911   7.063   9.070 -0.7538  1.8064 -1.6875
 3830TIP3   OH235684   2.595   2.464   7.294  0.2854  0.0510 -0.2555
 3830TIP3    H135685   2.530   2.448   7.362  0.5053 -0.5509 -0.1769
 3830TIP3    H235686   2.574   2.551   7.260 -0.1033  0.1676  0.2705
 3831TIP3   OH235687   3.591   3.350   6.591 -0.1739  0.0131  0.2554
 3831TIP3    H135688   3.686   3.338   6.583 -0.2761 -0.0550 -1.0831
 3831TIP3    H235689   3.577   3.443   6.571 -0.6264 -0.5614 -2.5284
 3832TIP3   OH235690   6.496   1.019   9.302  0.2068  0.1344  0.0302
 3832TIP3    H135691   6.449   1.101   9.287  0.6706  0.6068  1.0816
 3832TIP3    H235692   6.427   0.953   9.309 -0.1190  0.2179 -1.9942
 3833TIP3   OH235693   6.999   4.582   7.936 -0.0911  0.2275  0.0980
 3833TIP3    H135694   7.055   4.628   7.999  0.3090  0.6458 -0.5547
 3833TIP3    H235695   7.039   4.495   7.929  0.9891  0.7699 -0.9585
 3834TIP3   OH235696   0.008   5.511   7.947  0.2379  0.2021  0.0146
 3834TIP3    H135697   0.080   5.541   7.892 -0.3259  2.3158  0.3608
 3834TIP3    H235698  -0.062   5.491   7.885  0.4448  0.0759 -0.1837
 3835TIP3   OH235699   2.651   0.161   7.277 -0.1608 -0.1341 -0.0496
 3835TIP3    H135700   2.699   0.078   7.279 -0.1894 -0.1721 -0.7755
 3835TIP3    H235701   2.647   0.184   7.185  0.7625  1.2111  0.2067
 3836TIP3   OH235702   4.590   3.883   7.578  0.2374  0.1499  0.4332
 3836TIP3    H135703   4.637   3.913   7.655 -0.4707 -0.9696  1.3474
 3836TIP3    H235704   4.638   3.805   7.549 -0.2847 -0.2307  0.5783
 3837TIP3   OH235705   0.133   1.107   7.347 -0.1281  0.1833  0.2298
 3837TIP3    H135706   0.051   1.059   7.354 -0.2478  0.3184 -0.1895
 3837TIP3    H235707   0.194   1.045   7.308  0.5969 -0.6393  2.5163
 3838TIP3   OH235708   5.297   1.123   8.955  0.2292 -0.2686 -0.2282
 3838TIP3    H135709   5.242   1.150   8.881  1.4166  1.8644 -0.4226
 3838TIP3    H235710   5.386   1.134   8.923  0.7760 -1.2886  0.8866
 3839TIP3   OH235711   2.564   4.123   8.531  0.3648 -0.3722 -0.0517
 3839TIP3    H135712   2.625   4.093   8.463  0.7538  0.5930 -0.1443
 3839TIP3    H235713   2.479   4.126   8.488  0.3770 -1.0144 -0.1281
 3840TIP3   OH235714   2.386   5.998   8.922  0.0993 -0.1626 -0.1661
 3840TIP3    H135715   2.427   5.914   8.901  0.8704  0.3286 -0.6438
 3840TIP3    H235716   2.459   6.058   8.937 -0.4445  0.5437 -0.2908
 3841TIP3   OH235717   6.044   0.581   9.365  0.1971 -0.0720 -0.0831
 3841TIP3    H135718   6.039   0.628   9.281  3.4024  0.1023 -0.2874
 3841TIP3    H235719   5.975   0.515   9.359 -1.4968  1.7187 -1.6537
 3842TIP3   OH235720   3.685   1.361   7.045  0.3770  0.4355 -0.3630
 3842TIP3    H135721   3.758   1.395   6.993  0.8367 -2.2668 -1.6450
 3842TIP3    H235722   3.662   1.278   7.004 -0.8896 -0.6901  2.3414
 3843TIP3   OH235723   1.102   3.032   7.395  0.5200 -0.0717  0.5127
 3843TIP3    H135724   1.018   2.987   7.390  0.0743  0.7472  0.5349
 3843TIP3    H235725   1.150   3.003   7.318 -0.8659  1.6026 -1.0613
 3844TIP3   OH235726   4.585   4.415   9.080  0.0490 -0.1260  0.1968
 3844TIP3    H135727   4.588   4.320   9.083  0.9025 -0.1106  0.0717
 3844TIP3    H235728   4.661   4.440   9.027 -1.2764  0.5493 -1.4879
 3845TIP3   OH235729   7.103   6.830   8.214  0.0686 -0.0813  0.3317
 3845TIP3    H135730   7.072   6.811   8.302  2.6113 -0.0386  1.3358
 3845TIP3    H235731   7.032   6.803   8.157 -1.2566 -1.0881  2.3386
 3846TIP3   OH235732   4.185   3.022   8.535 -0.1165  0.2607 -0.3282
 3846TIP3    H135733   4.178   3.090   8.602  0.5082 -0.9720  1.0491
 3846TIP3    H235734   4.173   3.069   8.452 -0.5133  1.9025  0.6074
 3847TIP3   OH235735   1.729   1.415   8.760 -0.2174  0.0958 -0.1156
 3847TIP3    H135736   1.693   1.336   8.721  2.5247 -0.9632 -0.7587
 3847TIP3    H235737   1.723   1.481   8.692 -2.8552  0.6298  0.5455
 3848TIP3   OH235738   6.633   6.864   9.648 -0.7462 -0.0402  0.1768
 3848TIP3    H135739   6.592   6.949   9.667  1.7832  1.5917 -1.0278
 3848TIP3    H235740   6.668   6.835   9.732 -0.3193  0.9042  0.3357
 3849TIP3   OH235741   1.941   4.138   8.703 -0.2273  0.0205 -0.1104
 3849TIP3    H135742   1.986   4.186   8.772 -0.3218 -0.4316  0.2707
 3849TIP3    H235743   1.849   4.161   8.714 -0.1119  0.9241 -0.8725
 3850TIP3   OH235744   1.537   4.850   8.948  0.5074 -0.2276  0.1006
 3850TIP3    H135745   1.599   4.828   9.017 -0.2388 -1.8633  0.3094
 3850TIP3    H235746   1.529   4.945   8.952  2.4045 -0.0470  0.5517
 3851TIP3   OH235747   3.492   7.102   8.764 -0.0311 -0.0404 -0.4234
 3851TIP3    H135748   3.500   7.064   8.676 -0.3664  0.4638 -0.6732
 3851TIP3    H235749   3.447   7.035   8.815  0.9919 -0.7302 -0.3818
 3852TIP3   OH235750   7.121   0.542   9.482  0.4043  0.2016 -0.1836
 3852TIP3    H135751   7.213   0.518   9.467 -0.0167 -1.0970 -0.8505
 3852TIP3    H235752   7.104   0.614   9.422  0.6595 -0.3951 -0.9997
 3853TIP3   OH235753   1.921   3.501   8.265 -0.2737 -0.6557  0.4302
 3853TIP3    H135754   1.952   3.565   8.201  0.5957 -1.2920  0.1925
 3853TIP3    H235755   1.828   3.519   8.274 -0.4369 -0.6096 -1.1056
 3854TIP3   OH235756   0.464   0.048   8.770  0.3657  0.1179 -0.0331
 3854TIP3    H135757   0.493  -0.013   8.839  1.9136  0.4614 -0.3412
 3854TIP3    H235758   0.470  -0.003   8.689  1.5488  0.6088 -0.2764
 3855TIP3   OH235759   4.123   7.224   8.153 -0.1771  0.3064 -0.7305
 3855TIP3    H135760   4.192   7.274   8.198  0.6928 -1.9631  0.6618
 3855TIP3    H235761   4.045   7.238   8.206 -0.4678  1.7590 -1.5082
 3856TIP3   OH235762   5.646   7.522   8.741  0.0636 -0.2307  0.2911
 3856TIP3    H135763   5.717   7.520   8.677 -1.1484  0.5823 -1.1558
 3856TIP3    H235764   5.572   7.482   8.695 -0.6957 -0.1048  1.3776
 3857TIP3   OH235765   6.013   0.367   6.921  0.1884 -0.3649 -0.6010
 3857TIP3    H135766   6.030   0.414   6.839 -2.4410  0.7482 -0.6251
 3857TIP3    H235767   5.919   0.346   6.917  0.4858 -2.3524  1.1182
 3858TIP3   OH235768   5.163   5.773   8.971 -0.4254 -0.9161  0.2640
 3858TIP3    H135769   5.106   5.698   8.988 -0.0300 -1.3240 -0.1701
 3858TIP3    H235770   5.239   5.736   8.928  0.1113 -0.3529  0.7140
 3859TIP3   OH235771   3.809   7.438   8.559  0.4001 -0.2049 -0.6112
 3859TIP3    H135772   3.847   7.486   8.632  1.0866 -1.5994  0.0035
 3859TIP3    H235773   3.738   7.493   8.527  1.6464  1.5701 -0.4817
 3860TIP3   OH235774   5.247   4.045   7.712 -0.4052 -0.5617 -0.4915
 3860TIP3    H135775   5.209   4.024   7.798  0.1087 -0.2139 -0.1730
 3860TIP3    H235776   5.265   3.959   7.673 -0.4435 -0.7228 -0.1612
 3861TIP3   OH235777   5.180   1.345   8.380  0.2072 -0.1456 -0.0169
 3861TIP3    H135778   5.085   1.332   8.377  0.3374 -1.0483 -1.9010
 3861TIP3    H235779   5.215   1.258   8.400  0.7311 -0.8893 -3.5192
 3862TIP3   OH235780   6.595   3.126   8.237  0.4837  0.1975  0.6118
 3862TIP3    H135781   6.617   3.033   8.245  0.6848  0.0496 -1.1997
 3862TIP3    H235782   6.590   3.141   8.142 -2.7634  1.2949  0.8412
 3863TIP3   OH235783   7.222   4.987   9.544 -0.0681 -0.2492 -0.2292
 3863TIP3    H135784   7.184   4.970   9.458 -0.7733 -1.7850  0.3575
 3863TIP3    H235785   7.149   5.018   9.598  0.0486 -0.7352  0.2177
 3864TIP3   OH235786   1.190   2.441   8.205 -0.5077 -0.3908 -0.2783
 3864TIP3    H135787   1.170   2.347   8.206  0.4477 -0.6085 -0.2247
 3864TIP3    H235788   1.283   2.446   8.229 -0.4859  0.5539 -0.5064
 3865TIP3   OH235789   7.212   3.537   9.008  0.0554  0.1223  0.1662
 3865TIP3    H135790   7.264   3.548   8.928  1.3995  1.8507  1.2306
 3865TIP3    H235791   7.227   3.617   9.058 -0.2602 -1.1935  2.4692
 3866TIP3   OH235792   1.384   7.558   8.405  0.9683  0.2007 -0.1860
 3866TIP3    H135793   1.458   7.617   8.416 -0.1169  1.2248  2.7071
 3866TIP3    H235794   1.310   7.615   8.386 -0.1842  0.0411  3.0991
 3867TIP3   OH235795   4.859   6.450   9.491  0.4241 -0.3587 -0.3298
 3867TIP3    H135796   4.802   6.524   9.468 -0.1699 -0.7440 -0.1301
 3867TIP3    H235797   4.822   6.376   9.443  1.9787 -0.2150 -1.8304
 3868TIP3   OH235798   2.088   7.191   8.689  0.2558 -0.6263 -0.6224
 3868TIP3    H135799   2.182   7.177   8.681  0.3761  0.7772 -2.0290
 3868TIP3    H235800   2.049   7.110   8.655  0.9564 -0.4498 -1.8996
 3869TIP3   OH235801   2.070   7.365   9.602 -0.0299 -0.6034 -0.0648
 3869TIP3    H135802   2.107   7.376   9.689  0.0399  0.4593 -0.2132
 3869TIP3    H235803   2.135   7.405   9.544  1.0832 -3.3719 -0.8777
 3870TIP3   OH235804   5.371   3.665   7.374  0.2732  0.5455 -0.6685
 3870TIP3    H135805   5.320   3.590   7.344 -1.5140  1.2055  0.5418
 3870TIP3    H235806   5.388   3.717   7.295 -0.1491 -0.1424 -1.2141
 3871TIP3   OH235807   4.084   4.730   8.957  0.3543 -0.2442 -0.5225
 3871TIP3    H135808   3.999   4.696   8.927  0.1243  0.6467 -0.9028
 3871TIP3    H235809   4.125   4.763   8.877  1.1905 -0.9218 -0.3848
 3872TIP3   OH235810   4.631   4.530   7.531 -0.2825  0.3188 -0.6085
 3872TIP3    H135811   4.567   4.464   7.558  0.3291 -1.1602 -2.4950
 3872TIP3    H235812   4.617   4.539   7.437 -0.0842  2.6653 -0.4706
 3873TIP3   OH235813   1.450   0.421   8.080 -0.3989 -0.3386 -0.5019
 3873TIP3    H135814   1.445   0.515   8.099 -1.3587 -0.7029  1.2644
 3873TIP3    H235815   1.358   0.394   8.072 -0.3160 -1.6860  2.2671
 3874TIP3   OH235816   0.143   4.286   9.097  0.2193  0.3141  0.5744
 3874TIP3    H135817   0.103   4.290   9.010  0.2928 -1.2191  0.4269
 3874TIP3    H235818   0.150   4.377   9.125 -1.3214  0.7579 -0.3297
 3875TIP3   OH235819   1.846   0.334   8.848  0.1428 -0.5799 -0.3459
 3875TIP3    H135820   1.889   0.416   8.873 -0.7948  0.1335 -1.0220
 3875TIP3    H235821   1.784   0.359   8.779 -1.5805 -1.5248  0.7897
 3876TIP3   OH235822   3.023   5.194   8.717 -0.5004  0.1743  0.2492
 3876TIP3    H135823   2.986   5.165   8.800  0.1862 -1.7617 -0.0797
 3876TIP3    H235824   2.976   5.145   8.650 -0.4252  1.0359 -0.4624
 3877TIP3   OH235825   5.199   5.508   8.382  0.0125  0.0415 -0.1739
 3877TIP3    H135826   5.197   5.536   8.473 -3.8567 -0.1943  0.0067
 3877TIP3    H235827   5.226   5.586   8.334  2.0562  0.1826  1.1138
 3878TIP3   OH235828   3.794   1.613   9.290  0.3656  0.0063  0.0080
 3878TIP3    H135829   3.813   1.533   9.337  0.1090 -1.2108 -1.8342
 3878TIP3    H235830   3.706   1.639   9.319  1.0203  0.4716  1.6719
 3879TIP3   OH235831   6.920   4.420   7.255 -0.1413 -0.2275 -0.0522
 3879TIP3    H135832   6.929   4.337   7.208  0.3202 -0.9240  1.2294
 3879TIP3    H235833   6.979   4.480   7.209 -1.5772 -0.1373 -1.9163
 3880TIP3   OH235834   0.314   3.914   8.969  0.6724 -0.1133  0.0343
 3880TIP3    H135835   0.353   3.850   8.908  1.7132  1.9015 -1.5393
 3880TIP3    H235836   0.387   3.971   8.993 -0.1997  0.4273  1.5204
 3881TIP3   OH235837   1.859   2.711   7.371  0.2641  0.3734 -0.0098
 3881TIP3    H135838   1.785   2.718   7.432  1.1819 -0.8587  1.3242
 3881TIP3    H235839   1.846   2.628   7.327  1.6301 -0.6684  1.4173
 3882TIP3   OH235840   3.151   5.218   6.930 -0.1907 -0.4373  0.5235
 3882TIP3    H135841   3.228   5.275   6.933 -1.0677  1.0910 -2.2233
 3882TIP3    H235842   3.179   5.144   6.875 -0.8971  0.7015 -1.4957
 3883TIP3   OH235843   2.344   5.220   6.712  0.1703 -0.3223  0.1456
 3883TIP3    H135844   2.263   5.270   6.704  0.9959  1.2242  0.9468
 3883TIP3    H235845   2.366   5.195   6.623 -1.3691 -1.0934 -0.0469
 3884TIP3   OH235846   2.358   5.305   8.545  0.2046  0.2731  0.3698
 3884TIP3    H135847   2.334   5.213   8.553  1.0333  0.0934  0.9662
 3884TIP3    H235848   2.362   5.336   8.636 -0.1137  0.9115  0.1701
 3885TIP3   OH235849   7.386   5.446   8.755 -0.2721  0.1970 -0.0230
 3885TIP3    H135850   7.335   5.484   8.826  1.6289  1.8076  0.5793
 3885TIP3    H235851   7.473   5.433   8.792  0.3567 -0.3894 -1.6223
 3886TIP3   OH235852   0.924   3.268   8.963 -0.0236 -0.1695 -0.3959
 3886TIP3    H135853   0.875   3.332   9.014 -0.2543 -0.2747 -0.4839
 3886TIP3    H235854   0.999   3.317   8.928 -0.4183  0.1537 -0.8018
 3887TIP3   OH235855   1.636   0.009   8.413  0.1417 -0.6628 -0.0050
 3887TIP3    H135856   1.619   0.097   8.379 -1.0253 -1.1121 -0.6384
 3887TIP3    H235857   1.692   0.023   8.490  1.3258  0.5101 -1.0194
 3888TIP3   OH235858   7.328   6.186   7.977  0.1492  0.2046  0.2548
 3888TIP3    H135859   7.386   6.146   7.913  1.2958  0.9947  0.7766
 3888TIP3    H235860   7.262   6.232   7.925  0.0554 -0.5799 -0.3352
 3889TIP3   OH235861   6.465   6.152   6.849 -0.1986 -0.0316  0.1880
 3889TIP3    H135862   6.370   6.161   6.858 -0.0910  1.0969  0.3632
 3889TIP3    H235863   6.499   6.176   6.936  0.2153 -1.1731  0.3529
 3890TIP3   OH235864   5.994   2.165   8.552 -0.0052  0.4390 -0.7197
 3890TIP3    H135865   6.002   2.122   8.637 -2.5205  2.0619  0.4736
 3890TIP3    H235866   6.010   2.258   8.570 -0.8989  0.8528 -1.9242
 3891TIP3   OH235867   3.231   6.374   9.137  0.6396 -0.0435 -0.2480
 3891TIP3    H135868   3.278   6.456   9.154 -0.5100  0.1848  2.1732
 3891TIP3    H235869   3.141   6.393   9.163  0.2142 -1.9166 -0.2371
 3892TIP3   OH235870   5.682   1.746   8.170  0.4748 -0.4196  0.3019
 3892TIP3    H135871   5.719   1.710   8.089  3.5750  0.8269  0.9870
 3892TIP3    H235872   5.653   1.670   8.220  0.2380 -1.3492 -1.1923
 3893TIP3   OH235873   1.133   7.423   8.944  0.7364 -0.3895  0.2241
 3893TIP3    H135874   1.047   7.386   8.926  0.1334  0.3926  1.4317
 3893TIP3    H235875   1.129   7.512   8.908  1.3188 -0.6101 -0.4104
 3894TIP3   OH235876   0.129   4.499   6.844 -0.0088  0.0041 -0.6075
 3894TIP3    H135877   0.115   4.553   6.922 -2.4061  0.3141 -1.1944
 3894TIP3    H235878   0.181   4.554   6.786  0.4697  0.3599  0.1376
 3895TIP3   OH235879   3.547   6.781   7.083 -0.1331 -0.0280 -0.5666
 3895TIP3    H135880   3.496   6.793   7.164 -0.5537 -0.8992 -0.6926
 3895TIP3    H235881   3.487   6.738   7.023 -0.0613  1.2729 -1.6192
 3896TIP3   OH235882   0.147   7.584   8.432 -0.0732  0.4499  0.4340
 3896TIP3    H135883   0.229   7.608   8.390  1.2464  1.0382  3.0820
 3896TIP3    H235884   0.160   7.494   8.461 -0.7740  0.2020  0.0095
 3897TIP3   OH235885   3.274   1.478   8.165 -0.3396  0.0208 -0.3990
 3897TIP3    H135886   3.353   1.524   8.191 -0.0115 -1.5451  1.6446
 3897TIP3    H235887   3.204   1.543   8.173  0.2107  0.4331  1.6350
 3898TIP3   OH235888   4.053   0.501   8.207 -0.3168  0.2636  0.3730
 3898TIP3    H135889   4.137   0.468   8.177 -0.5581  0.0189 -0.0438
 3898TIP3    H235890   4.014   0.541   8.130 -1.0706 -0.6415  0.2633
 3899TIP3   OH235891   3.119   3.414   8.312 -0.4498  0.3844 -0.0323
 3899TIP3    H135892   3.125   3.319   8.319 -1.5304  0.0917 -2.3573
 3899TIP3    H235893   3.169   3.446   8.388  0.4626 -1.9911  0.4724
 3900TIP3   OH235894   0.071   5.926   7.608 -0.0371 -0.3588  0.1896
 3900TIP3    H135895   0.131   5.858   7.577 -0.1353 -0.1485 -0.4832
 3900TIP3    H235896  -0.016   5.891   7.590 -0.1037 -0.4174  0.6290
 3901TIP3   OH235897   3.275   4.805   6.717 -0.1273 -0.0438  0.5192
 3901TIP3    H135898   3.301   4.716   6.740  0.0046 -0.3611 -0.8139
 3901TIP3    H235899   3.338   4.832   6.650 -1.6904  0.1028 -0.9561
 3902TIP3   OH235900   2.292   3.490   9.358  0.3566 -0.3647  0.1380
 3902TIP3    H135901   2.201   3.468   9.382  0.2123  0.1407  0.0649
 3902TIP3    H235902   2.303   3.580   9.389  0.1623  0.3401 -1.7015
 3903TIP3   OH235903   4.287   7.583   9.208  0.2992  0.6153 -0.1133
 3903TIP3    H135904   4.271   7.506   9.153  0.7886 -1.0294  1.9244
 3903TIP3    H235905   4.373   7.616   9.180 -0.5926  1.4516 -2.0648
 3904TIP3   OH235906   2.862   5.264   8.217  0.3419 -0.3026  0.1742
 3904TIP3    H135907   2.776   5.305   8.226  0.8759  0.9018 -0.0214
 3904TIP3    H235908   2.843   5.176   8.183 -0.8163 -0.1050  0.2658
 3905TIP3   OH235909   7.532   5.896   9.098  0.0423  0.3229  0.3881
 3905TIP3    H135910   7.511   5.948   9.020 -1.6586 -0.1056  0.5117
 3905TIP3    H235911   7.502   5.951   9.171  1.4663  0.6486  0.7515
 3906TIP3   OH235912   1.781   1.240   8.997  0.3687 -0.1159  0.1491
 3906TIP3    H135913   1.756   1.313   8.940  1.4023  1.1194  1.2163
 3906TIP3    H235914   1.872   1.221   8.974 -0.0375 -1.4566 -0.4767
 3907TIP3   OH235915   0.950   1.679   7.781  0.1492  0.4017 -0.2396
 3907TIP3    H135916   0.934   1.602   7.835 -0.2664  1.0699  0.6159
 3907TIP3    H235917   0.885   1.743   7.811  1.9846  1.8950  0.7161
 3908TIP3   OH235918   6.661   1.301   6.647 -0.2743 -0.8033 -0.1438
 3908TIP3    H135919   6.569   1.322   6.630 -0.9612 -0.6744  3.1789
 3908TIP3    H235920   6.703   1.386   6.658 -0.3343 -0.9030  0.8989
 3909TIP3   OH235921   1.203   3.899   8.864 -0.1758  0.3804 -0.2230
 3909TIP3    H135922   1.185   3.897   8.770 -0.8284 -0.8465 -0.0963
 3909TIP3    H235923   1.179   3.987   8.891 -1.0467  0.4101 -1.0236
 3910TIP3   OH235924   0.959   3.258   6.646  0.0925 -0.2395  0.3161
 3910TIP3    H135925   0.953   3.224   6.735  0.5712 -1.4922 -0.1007
 3910TIP3    H235926   1.051   3.280   6.634 -0.1883  1.1424  0.5326
 3911TIP3   OH235927   6.402   3.816   8.806  0.0344 -0.0087 -0.1019
 3911TIP3    H135928   6.491   3.799   8.775  1.2699  1.4441  2.3188
 3911TIP3    H235929   6.395   3.911   8.806 -0.6813 -0.0159  1.7510
 3912TIP3   OH235930   3.874   4.522   7.481  0.2179  0.7192 -0.6349
 3912TIP3    H135931   3.943   4.468   7.442 -1.0284 -0.1568 -1.7333
 3912TIP3    H235932   3.856   4.589   7.416 -0.0877  0.8350 -0.4344
 3913TIP3   OH235933   7.640   1.534   9.327 -0.3136 -0.0105 -0.2013
 3913TIP3    H135934   7.581   1.473   9.370 -0.2282 -0.3047 -0.4953
 3913TIP3    H235935   7.722   1.485   9.317  0.4274  0.8258  1.4014
 3914TIP3   OH235936   0.448   7.151   8.799 -0.1987 -0.0417 -0.1571
 3914TIP3    H135937   0.453   7.078   8.736  0.7410  0.1004 -0.2688
 3914TIP3    H235938   0.358   7.181   8.795 -0.6006 -1.2042 -0.1153
 3915TIP3   OH235939   7.043   5.684   7.341 -0.7804  0.4810  0.1929
 3915TIP3    H135940   6.948   5.669   7.339 -0.6587 -0.2497 -0.9493
 3915TIP3    H235941   7.070   5.681   7.250  0.2103  1.6933  0.4269
 3916TIP3   OH235942   3.260   3.944   8.292  0.3484  0.2137 -0.5538
 3916TIP3    H135943   3.207   3.877   8.336  0.3910 -0.2229 -1.1577
 3916TIP3    H235944   3.228   4.026   8.328  1.0999 -0.1665  1.0976
 3917TIP3   OH235945   0.595   3.505   9.288  0.2258 -0.5186 -0.7205
 3917TIP3    H135946   0.518   3.562   9.288 -0.4217 -1.2807  1.1764
 3917TIP3    H235947   0.656   3.546   9.349  0.1061 -1.3670 -0.0029
 3918TIP3   OH235948   1.558   3.024   7.894  0.8360  0.4507  0.0047
 3918TIP3    H135949   1.638   2.990   7.855  0.4342  0.1119 -0.5410
 3918TIP3    H235950   1.509   3.061   7.820  0.2570  0.1875  0.2493
 3919TIP3   OH235951   0.081   3.062   8.684  0.4814 -0.0396  0.0052
 3919TIP3    H135952   0.111   3.149   8.656  0.9351  0.0063  0.6137
 3919TIP3    H235953  -0.014   3.064   8.670  0.6342  0.1311 -1.1033
 3920TIP3   OH235954   7.308   6.530   9.023 -0.1293 -0.0586 -0.4727
 3920TIP3    H135955   7.216   6.510   9.040 -0.0229 -0.9340 -0.9097
 3920TIP3    H235956   7.344   6.547   9.110 -0.7404  0.4992 -0.3158
 3921TIP3   OH235957   7.108   5.967   7.118  0.0145 -0.5472 -0.0304
 3921TIP3    H135958   7.048   6.010   7.058  0.1416  1.4423  1.1980
 3921TIP3    H235959   7.192   5.966   7.072  0.1400  1.0743  0.1193
 3922TIP3   OH235960   3.841   4.372   9.244 -0.6347  0.4792  0.1567
 3922TIP3    H135961   3.871   4.304   9.305 -0.8947  0.6357  0.4603
 3922TIP3    H235962   3.906   4.442   9.252  0.1912 -0.1318 -0.8896
 3923TIP3   OH235963   2.932   5.555   8.200 -0.4655 -0.5903  0.8065
 3923TIP3    H135964   2.924   5.461   8.219 -0.0101 -0.9612 -0.7001
 3923TIP3    H235965   3.024   5.575   8.220 -0.3328 -0.6796  0.3088
 3924TIP3   OH235966   2.949   5.925   6.887 -0.4845  0.0790 -0.3721
 3924TIP3    H135967   2.934   5.952   6.797 -4.4852  1.0233  0.3861
 3924TIP3    H235968   2.963   5.830   6.883  0.8267  0.3086 -2.0225
 3925TIP3   OH235969   7.449   2.304   7.115  0.0133  0.0502 -0.2776
 3925TIP3    H135970   7.400   2.344   7.043 -1.9459 -2.0502 -0.2133
 3925TIP3    H235971   7.405   2.335   7.195  0.5249  0.2641 -0.0668
 3926TIP3   OH235972   4.035   6.520   7.399 -0.2646  0.1733  0.3143
 3926TIP3    H135973   3.957   6.475   7.432 -0.0902 -0.8857 -0.6772
 3926TIP3    H235974   4.047   6.487   7.310  0.5244  1.3639 -0.0522
 3927TIP3   OH235975   3.830   4.509   8.263  0.1091  0.0732 -0.3835
 3927TIP3    H135976   3.781   4.505   8.181 -1.8149 -2.4025  0.7390
 3927TIP3    H235977   3.763   4.508   8.331  1.6531  1.8377  1.2908
 3928TIP3   OH235978   4.489   7.046   7.092  0.2303  0.4407  0.1186
 3928TIP3    H135979   4.454   6.987   7.025  0.7038 -0.4416  0.6336
 3928TIP3    H235980   4.446   7.130   7.075 -0.5086 -0.0673 -0.5801
 3929TIP3   OH235981   5.815   6.030   8.991 -0.4227 -0.3996  0.3861
 3929TIP3    H135982   5.757   6.052   9.063  0.3267 -1.6931  1.4274
 3929TIP3    H235983   5.902   6.058   9.020 -0.3857  0.8212 -0.8309
 3930TIP3   OH235984   5.286   6.781   7.499 -0.6400 -0.3149  0.1352
 3930TIP3    H135985   5.244   6.860   7.463  0.3802 -0.3830 -1.3162
 3930TIP3    H235986   5.364   6.814   7.544 -0.3623 -0.4497 -0.2345
 3931TIP3   OH235987   6.471   3.513   7.228  0.3886 -0.5392  0.1431
 3931TIP3    H135988   6.409   3.576   7.263  1.8668  0.9602  0.2251
 3931TIP3    H235989   6.532   3.566   7.176  1.7614 -1.8732  0.3125
 3932TIP3   OH235990   1.503   4.164   9.414  0.1251 -0.2032 -0.0116
 3932TIP3    H135991   1.450   4.183   9.337 -0.3570 -0.1976  0.3104
 3932TIP3    H235992   1.502   4.069   9.421  0.4410 -0.2190 -0.1990
 3933TIP3   OH235993   0.984   4.046   8.288  0.5638 -0.1716  0.1918
 3933TIP3    H135994   1.073   4.081   8.291  0.9156 -1.0925  2.3869
 3933TIP3    H235995   0.928   4.121   8.309  0.9478  0.0704  0.3566
 3934TIP3   OH235996   3.182   6.592   7.190 -0.1054 -0.1208 -0.1602
 3934TIP3    H135997   3.274   6.605   7.165 -0.1618  0.5035 -0.0526
 3934TIP3    H235998   3.133   6.635   7.120 -0.3398 -1.2259 -0.6832
 3935TIP3   OH235999   3.624   1.283   9.168 -0.0992  0.2816 -0.2045
 3935TIP3    H136000   3.579   1.205   9.136  0.3952 -0.4513  0.8477
 3935TIP3    H236001   3.558   1.328   9.222  0.0881 -0.2309  0.4610
 3936TIP3   OH236002   1.494   1.773   7.237  0.2014 -0.0444  0.5068
 3936TIP3    H136003   1.525   1.699   7.185 -0.2270 -0.0256  0.2243
 3936TIP3    H236004   1.454   1.832   7.174  1.1864  0.7845  0.6214
 3937TIP3   OH236005   3.804   5.417   8.723 -0.3749 -0.0298 -0.0257
 3937TIP3    H136006   3.839   5.477   8.657  0.4601 -0.4756 -0.0073
 3937TIP3    H236007   3.710   5.434   8.724 -0.8381 -1.6765 -3.0879
 3938TIP3   OH236008   4.605   5.697   8.564  0.0722  0.0253  0.0761
 3938TIP3    H136009   4.536   5.641   8.528  0.4492 -1.7378  1.9159
 3938TIP3    H236010   4.605   5.774   8.507 -2.1587 -0.7240 -1.0731
 3939TIP3   OH236011   4.657   0.059   8.350 -0.2043  0.0798  0.3145
 3939TIP3    H136012   4.715   0.074   8.276  0.0917  2.9458  1.0301
 3939TIP3    H236013   4.705   0.092   8.426 -1.7517  0.1350  1.3298
 3940TIP3   OH236014   0.827   1.134   8.795 -0.0270  0.3887 -0.1666
 3940TIP3    H136015   0.826   1.119   8.700  0.3795 -3.2146  0.2431
 3940TIP3    H236016   0.919   1.146   8.817  0.0119 -0.0055 -0.1054
 3941TIP3   OH236017   4.243   3.021   9.155 -0.1885 -0.7429 -0.4265
 3941TIP3    H136018   4.291   3.020   9.237 -0.1595 -0.6554 -0.4427
 3941TIP3    H236019   4.305   3.054   9.091  0.8267 -3.7043 -1.1341
 3942TIP3   OH236020   5.642   5.055   8.171 -0.9375  0.0712  0.0526
 3942TIP3    H136021   5.731   5.047   8.207 -1.0711 -0.3487  0.2971
 3942TIP3    H236022   5.592   5.099   8.240 -0.4579  2.1711 -0.8693
 3943TIP3   OH236023   0.273   7.316   8.173  0.2593  0.1436 -0.4098
 3943TIP3    H136024   0.335   7.254   8.135  0.8284 -0.5261  1.4801
 3943TIP3    H236025   0.221   7.347   8.099 -0.4659 -3.0108 -1.3759
 3944TIP3   OH236026   7.251   7.663   7.380 -0.4119 -0.1024 -0.2009
 3944TIP3    H136027   7.325   7.721   7.400  1.0428 -2.1725  0.7056
 3944TIP3    H236028   7.261   7.590   7.441 -1.8511 -1.5963 -1.6739
 3945TIP3   OH236029   2.553   3.033   7.824  0.2292  0.2744  0.3367
 3945TIP3    H136030   2.508   3.092   7.884 -0.3938 -1.3794  1.5638
 3945TIP3    H236031   2.491   3.020   7.752 -0.1254  0.2060  0.6503
 3946TIP3   OH236032   0.552   2.483   8.397  0.3152  0.2222  0.0974
 3946TIP3    H136033   0.601   2.556   8.434  0.5889 -0.7481  1.7288
 3946TIP3    H236034   0.462   2.496   8.428  0.4323 -0.2984  0.6733
 3947TIP3   OH236035   2.863   0.468   7.703  0.2730 -0.3395  0.0357
 3947TIP3    H136036   2.787   0.417   7.674  0.8471 -1.1338 -0.0791
 3947TIP3    H236037   2.846   0.556   7.669 -0.1057 -0.7535 -0.8711
 3948TIP3   OH236038   4.465   3.326   8.808  0.0088  0.1681  0.0512
 3948TIP3    H136039   4.432   3.360   8.724  0.1454  2.2528  0.7779
 3948TIP3    H236040   4.386   3.298   8.855 -0.0896 -0.8115 -0.6764
 3949TIP3   OH236041   6.770   6.856   8.742  0.3523  0.2457  0.5824
 3949TIP3    H136042   6.855   6.812   8.739 -0.0742 -0.5750  0.1921
 3949TIP3    H236043   6.769   6.912   8.664  0.5667  0.3183  0.6321
 3950TIP3   OH236044   2.169   2.664   9.135 -0.0876  0.6904 -0.1374
 3950TIP3    H136045   2.113   2.676   9.212  2.2563 -0.4514  1.8740
 3950TIP3    H236046   2.129   2.591   9.087 -0.2640 -0.2158  1.3339
 3951TIP3   OH236047   7.496   0.847   8.989  0.5929 -0.1036  0.4507
 3951TIP3    H136048   7.445   0.876   8.913 -0.6518 -1.1486  0.8479
 3951TIP3    H236049   7.587   0.862   8.964  0.2184 -0.5391 -1.3160
 3952TIP3   OH236050   3.739   7.186   8.650 -0.4228 -0.2727  0.5779
 3952TIP3    H136051   3.752   7.265   8.597  0.4548 -0.4612  0.4922
 3952TIP3    H236052   3.660   7.204   8.701 -1.7874 -0.4284 -1.3838
 3953TIP3   OH236053   0.614   3.039   6.657  0.3846 -0.2563  0.3116
 3953TIP3    H136054   0.623   3.110   6.594 -0.5079 -0.1802  0.2598
 3953TIP3    H236055   0.532   3.058   6.704  0.3719 -0.9984  0.6083
 3954TIP3   OH236056   1.051   6.240   8.889 -0.0157 -0.5064  0.3016
 3954TIP3    H136057   0.999   6.204   8.817 -0.2385  0.8709 -0.2615
 3954TIP3    H236058   1.007   6.323   8.911  0.9933 -0.1247  0.9346
 3955TIP3   OH236059   2.368   4.977   9.535 -0.3543 -0.3147 -0.4813
 3955TIP3    H136060   2.443   4.978   9.596 -0.4262 -1.3436 -0.3701
 3955TIP3    H236061   2.386   5.049   9.474  0.0970  0.2511  0.2958
 3956TIP3   OH236062   6.273   1.259   9.566 -0.2144  0.3147  0.1831
 3956TIP3    H136063   6.250   1.195   9.633 -1.1531  1.7853  1.3261
 3956TIP3    H236064   6.191   1.304   9.547  0.4928  1.4114 -0.3355
 3957TIP3   OH236065   6.120   0.605   8.508  0.6788  0.3665 -0.2949
 3957TIP3    H136066   6.100   0.589   8.416  1.6557  0.5342 -0.5457
 3957TIP3    H236067   6.191   0.544   8.528 -0.4130 -0.6217  0.7290
 3958TIP3   OH236068   4.502   3.718   7.786  0.7033  0.2824 -0.2606
 3958TIP3    H136069   4.522   3.764   7.704  0.4806 -1.2226 -1.1883
 3958TIP3    H236070   4.485   3.628   7.759 -1.1684  0.1502  1.2312
 3959TIP3   OH236071   1.157   1.711   8.904  0.2484  0.0481 -0.3377
 3959TIP3    H136072   1.222   1.775   8.933 -0.6852  1.4400 -1.2086
 3959TIP3    H236073   1.077   1.736   8.950  0.0726 -1.0497 -0.0229
 3960TIP3   OH236074   6.527   0.185   8.523 -0.0992 -1.1301 -0.1077
 3960TIP3    H136075   6.590   0.147   8.585  0.7308 -0.0487 -0.2705
 3960TIP3    H236076   6.557   0.157   8.437  1.6860  1.3951 -0.4098
 3961TIP3   OH236077   1.365   2.308   7.572  0.4211 -0.2418 -0.6751
 3961TIP3    H136078   1.296   2.311   7.637 -0.8526 -1.7957 -1.8409
 3961TIP3    H236079   1.322   2.272   7.494  1.9037  1.3765 -2.3321
 3962TIP3   OH236080   5.292   4.668   6.352 -0.3250  0.0057 -0.2684
 3962TIP3    H136081   5.254   4.712   6.428 -0.0509 -0.3156  0.0585
 3962TIP3    H236082   5.233   4.689   6.280 -1.2321 -0.6478  0.2675
 3963TIP3   OH236083   4.380   4.041   8.611  0.8101 -0.1823  0.5480
 3963TIP3    H136084   4.456   3.999   8.572 -0.8805 -2.6272 -0.3751
 3963TIP3    H236085   4.409   4.068   8.698  2.1699 -2.9945  1.0659
 3964TIP3   OH236086   5.395   3.689   9.160  0.2927 -0.0468  0.0220
 3964TIP3    H136087   5.354   3.605   9.138  0.2406 -0.2306  0.7906
 3964TIP3    H236088   5.466   3.698   9.097  0.9038 -1.1314  0.5235
 3965TIP3   OH236089   1.944   0.585   7.918 -0.2471  0.3591  1.0002
 3965TIP3    H136090   1.963   0.564   7.826 -1.4225  1.6259  0.4275
 3965TIP3    H236091   1.856   0.623   7.915 -0.1730  0.6895  2.6258
 3966TIP3   OH236092   4.805   3.743   9.202 -0.2148  0.1663 -0.0908
 3966TIP3    H136093   4.839   3.736   9.291  0.5418  0.1471 -0.3756
 3966TIP3    H236094   4.824   3.658   9.161  0.3573  0.5151 -0.5757
 3967TIP3   OH236095   2.181   1.358   9.562  0.0706 -0.0456  0.3780
 3967TIP3    H136096   2.168   1.317   9.647  0.3610  0.5168  0.7002
 3967TIP3    H236097   2.275   1.350   9.545 -0.0752 -0.7098 -0.1856
 3968TIP3   OH236098   6.189   4.555   8.330  0.2375 -0.3059 -0.1200
 3968TIP3    H136099   6.151   4.642   8.315  1.0558  0.1491  0.3205
 3968TIP3    H236100   6.129   4.512   8.390  0.5882  0.5511  0.8882
 3969TIP3   OH236101   2.913   5.086   8.942 -0.9256  0.4529 -0.1471
 3969TIP3    H136102   2.919   4.992   8.929 -0.8212  0.4423 -0.0184
 3969TIP3    H236103   2.949   5.101   9.029 -0.0072  0.7206 -0.5560
 3970TIP3   OH236104   4.810   4.570   8.957 -0.4061  0.2965 -0.1780
 3970TIP3    H136105   4.805   4.665   8.947  0.1994  0.1885 -1.7592
 3970TIP3    H236106   4.897   4.553   8.994 -0.4429  0.3407 -0.0713
 3971TIP3   OH236107   7.202   0.123   9.351  0.1959  0.1908 -0.5688
 3971TIP3    H136108   7.206   0.054   9.417 -0.7001 -0.3273 -1.0405
 3971TIP3    H236109   7.292   0.152   9.341  0.1583  1.5324  2.1818
 3972TIP3   OH236110   4.208   4.575   8.441 -0.5898  1.1877 -0.4258
 3972TIP3    H136111   4.265   4.557   8.515 -1.7395  2.0761  0.7062
 3972TIP3    H236112   4.252   4.534   8.366  0.1671 -0.4635  0.8665
 3973TIP3   OH236113   6.822   4.568   7.502 -0.5888  0.0016  0.1880
 3973TIP3    H136114   6.829   4.522   7.418  2.7038 -0.8331  0.7756
 3973TIP3    H236115   6.817   4.660   7.478  2.0263 -0.0651 -1.0610
 3974TIP3   OH236116   7.335   4.792   8.538 -0.3860 -0.5649  0.2142
 3974TIP3    H136117   7.318   4.880   8.572  0.4272 -0.0295 -0.7113
 3974TIP3    H236118   7.290   4.790   8.453 -0.4309 -1.0510  0.2479
 3975TIP3   OH236119   4.885   0.742   8.236 -0.3688 -0.1808  0.0017
 3975TIP3    H136120   4.921   0.795   8.307  0.7140  0.1564 -0.7886
 3975TIP3    H236121   4.868   0.803   8.165 -3.1593 -0.2181  0.5464
 3976TIP3   OH236122   4.954   0.185   9.710  1.1609 -0.3026  0.6902
 3976TIP3    H136123   4.907   0.104   9.732 -0.9648  1.0163  1.3093
 3976TIP3    H236124   5.013   0.160   9.639  0.3467 -2.3239  0.6659
 3977TIP3   OH236125   2.952   2.172   7.824 -0.4221 -0.0845  0.2633
 3977TIP3    H136126   3.029   2.229   7.814 -0.5880  0.3960  1.6034
 3977TIP3    H236127   2.978   2.090   7.781  0.4905  0.3794 -0.1122
 3978TIP3   OH236128   1.940   6.308   7.566 -0.7442  0.0933 -0.0502
 3978TIP3    H136129   1.961   6.401   7.579  1.0858 -0.3819  0.7290
 3978TIP3    H236130   1.893   6.283   7.646 -0.2851  0.1160  0.2358
 3979TIP3   OH236131   7.365   4.121   7.495  0.7652  0.2396  0.6829
 3979TIP3    H136132   7.354   4.029   7.518 -1.3844  0.4842  0.8876
 3979TIP3    H236133   7.456   4.141   7.516  1.0949 -1.6645  1.2278
 3980TIP3   OH236134   0.779   2.127   8.250  0.1469 -0.1712 -0.0004
 3980TIP3    H136135   0.688   2.106   8.229  0.3707 -0.6074 -0.5682
 3980TIP3    H236136   0.815   2.158   8.167  0.3676  0.5249  0.3562
 3981TIP3   OH236137   2.476   4.386   7.454 -0.0925  0.4399  0.2581
 3981TIP3    H136138   2.552   4.406   7.509 -0.0236 -0.1597  0.3889
 3981TIP3    H236139   2.439   4.471   7.432  1.0677  0.7901 -0.4378
 3982TIP3   OH236140   5.544   0.340   9.153 -0.3676  0.4624 -0.1225
 3982TIP3    H136141   5.489   0.290   9.092  0.0751 -0.8627  0.5281
 3982TIP3    H236142   5.625   0.356   9.105  0.4671 -1.6525  0.4751
 3983TIP3   OH236143   7.295   5.150   7.380  0.3523  0.2213  0.0249
 3983TIP3    H136144   7.233   5.203   7.430  0.4982  1.1605 -0.7570
 3983TIP3    H236145   7.374   5.204   7.373  1.5357 -1.1949  1.5384
 3984TIP3   OH236146   1.635   3.747   6.450  0.2639  0.3473 -0.1671
 3984TIP3    H136147   1.627   3.833   6.490  0.1142 -0.1585  0.9248
 3984TIP3    H236148   1.633   3.764   6.356  3.0881  1.8555 -0.0820
 3985TIP3   OH236149   1.709   1.400   7.746  0.2488  0.0344 -0.2712
 3985TIP3    H136150   1.664   1.478   7.776 -1.3426 -0.7384 -0.5551
 3985TIP3    H236151   1.802   1.421   7.755 -0.1477  1.1658  1.6395
 3986TIP3   OH236152   1.671   7.335   8.079  0.0842  0.2763 -0.4487
 3986TIP3    H136153   1.614   7.277   8.131 -0.5508  2.1886  1.1028
 3986TIP3    H236154   1.760   7.307   8.102 -0.2118 -0.2470  0.0892
 3987TIP3   OH236155   1.213   2.783   6.907  0.1604  0.1335 -0.2456
 3987TIP3    H136156   1.211   2.772   6.812  0.2081  0.6443 -0.3072
 3987TIP3    H236157   1.190   2.696   6.941  1.0545 -0.2906 -0.7033
 3988TIP3   OH236158   2.740   5.961   8.661  0.9129  0.6539 -0.1697
 3988TIP3    H136159   2.779   5.878   8.687  0.3106  0.2320 -0.5790
 3988TIP3    H236160   2.646   5.944   8.660  0.8801  0.5682 -2.7691
 3989TIP3   OH236161   4.071   4.593   7.653  0.1541 -0.1373  0.5937
 3989TIP3    H136162   3.979   4.570   7.642 -0.2319  1.2142  0.7933
 3989TIP3    H236163   4.078   4.682   7.619  1.5514 -0.4687 -0.1001
 3990TIP3   OH236164   5.748   2.077   7.528 -0.3706  0.0455  0.0125
 3990TIP3    H136165   5.766   2.068   7.435 -0.5619  0.2520 -0.0448
 3990TIP3    H236166   5.749   2.171   7.544 -0.5117  0.0188  0.1836
 3991TIP3   OH236167   2.980   4.330   8.234 -0.0634  0.5229  0.1000
 3991TIP3    H136168   2.901   4.378   8.260 -1.2823 -0.5054 -1.5200
 3991TIP3    H236169   3.036   4.398   8.195 -1.2302  0.8998 -1.0138
 3992TIP3   OH236170   2.812   2.462   9.100  0.1493 -0.3514 -0.0291
 3992TIP3    H136171   2.902   2.478   9.072 -0.4974 -0.3405 -2.2935
 3992TIP3    H236172   2.792   2.375   9.067 -0.5781 -0.5164  0.7980
 3993TIP3   OH236173   0.594   4.591   8.392 -0.0961 -0.9442  0.0882
 3993TIP3    H136174   0.564   4.526   8.329  0.4587 -2.3012  1.1837
 3993TIP3    H236175   0.678   4.622   8.356  0.3550 -1.9135  0.2778
 3994TIP3   OH236176   6.013   0.679   9.105  0.1073  0.5770 -0.0211
 3994TIP3    H136177   6.048   0.700   9.019  3.4064 -2.4542  0.3668
 3994TIP3    H236178   5.926   0.643   9.088  0.7216 -0.0511 -2.1124
 3995TIP3   OH236179   2.953   5.998   8.860  0.1194  0.3793  0.3461
 3995TIP3    H136180   2.950   5.907   8.889  0.3639  0.4594  0.6210
 3995TIP3    H236181   2.877   6.007   8.802  0.2927 -0.0918  0.0440
 3996TIP3   OH236182   3.944   2.271   9.310 -0.4525  0.1083 -0.0134
 3996TIP3    H136183   3.979   2.357   9.335 -0.0404 -0.3225  0.9533
 3996TIP3    H236184   3.885   2.248   9.382 -2.2282  0.4993 -1.2707
 3997TIP3   OH236185   2.784   5.932   8.379 -0.2809  0.1779  0.4575
 3997TIP3    H136186   2.753   5.950   8.468 -0.4990 -2.7677  1.0750
 3997TIP3    H236187   2.878   5.921   8.389 -0.4886 -1.6926  0.6822
 3998TIP3   OH236188   3.971   5.705   9.207  0.5083 -1.3914 -0.1458
 3998TIP3    H136189   4.008   5.669   9.126  2.2523  0.7414 -0.3926
 3998TIP3    H236190   4.007   5.794   9.212 -2.9526  0.0910  0.7966
 3999TIP3   OH236191   2.762   7.299   9.434  0.6017  0.1621 -0.1789
 3999TIP3    H136192   2.745   7.259   9.349 -1.3777 -1.5329  0.9187
 3999TIP3    H236193   2.688   7.357   9.449 -0.9235 -2.0898  1.7305
 4000TIP3   OH236194   6.888   6.395   7.940 -0.0041  0.7620  0.2418
 4000TIP3    H136195   6.923   6.311   7.908  0.2017  0.6920  0.6523
 4000TIP3    H236196   6.925   6.405   8.027 -0.8692  0.7724  0.6145
 4001TIP3   OH236197   5.391   3.625   7.779 -0.4336 -0.2551  0.2727
 4001TIP3    H136198   5.382   3.716   7.751 -0.6297  1.0257  3.9574
 4001TIP3    H236199   5.478   3.621   7.818  0.0219 -2.0165 -0.8202
 4002TIP3   OH236200   2.650   0.270   7.021 -0.0609 -0.5290  0.1426
 4002TIP3    H136201   2.625   0.337   6.958 -2.0546 -0.1127  1.2718
 4002TIP3    H236202   2.663   0.191   6.969  0.4034  0.2794 -0.9908
 4003TIP3   OH236203   1.677   0.619   8.245  0.2214  0.3406 -0.0126
 4003TIP3    H136204   1.640   0.660   8.323 -1.3767 -1.1602  0.0779
 4003TIP3    H236205   1.645   0.673   8.172  0.2961  0.7513  0.2570
 4004TIP3   OH236206   2.439   7.419   9.324  0.1889  0.2487 -0.5253
 4004TIP3    H136207   2.358   7.469   9.334 -0.4254 -0.9194  0.7897
 4004TIP3    H236208   2.410   7.328   9.323  1.5184 -0.2388  0.7672
 4005TIP3   OH236209   0.880   5.497   8.845  0.3738  0.2879  0.6290
 4005TIP3    H136210   0.802   5.548   8.866 -0.0628 -0.1859  0.1973
 4005TIP3    H236211   0.947   5.562   8.827 -0.3990  0.7375 -0.7441
 4006TIP3   OH236212   1.585   5.142   9.030 -0.4818 -0.2344  0.6699
 4006TIP3    H136213   1.641   5.179   9.099 -0.4936 -0.6951  0.9271
 4006TIP3    H236214   1.545   5.218   8.989  1.6727  0.2792 -0.6849
 4007TIP3   OH236215   2.209   5.055   8.618  0.2884  0.0983 -0.0196
 4007TIP3    H136216   2.148   5.120   8.582  0.3485  0.0080 -0.2874
 4007TIP3    H236217   2.156   4.977   8.633  0.4819 -0.2227 -0.9484
 4008TIP3   OH236218   3.553   3.734   9.089  0.6669 -0.1896  0.1781
 4008TIP3    H136219   3.527   3.673   9.020 -0.0992  1.0149 -0.6367
 4008TIP3    H236220   3.471   3.765   9.127  1.0187  0.5924  0.3294
 4009TIP3   OH236221   3.705   5.362   6.909  0.7417 -0.2575 -0.3976
 4009TIP3    H136222   3.632   5.391   6.963  1.6090 -1.8890  1.8030
 4009TIP3    H236223   3.664   5.318   6.834 -0.5605 -0.9910  0.7132
 4010TIP3   OH236224   5.053   7.436   9.762  0.1390  0.3673 -0.2326
 4010TIP3    H136225   5.013   7.351   9.745  1.2512 -0.0114 -1.0600
 4010TIP3    H236226   5.146   7.423   9.745  0.0348  2.3762 -3.0796
 4011TIP3   OH236227   6.964   1.189   8.341 -0.2321 -0.6862  0.1468
 4011TIP3    H136228   6.883   1.217   8.298  0.4356  1.1371  0.0078
 4011TIP3    H236229   6.935   1.142   8.419 -1.4285  0.3616  0.3562
 4012TIP3   OH236230   5.219   0.727   7.496  0.5449  0.2268  0.4798
 4012TIP3    H136231   5.151   0.661   7.484  0.5129 -0.1039  2.1667
 4012TIP3    H236232   5.179   0.809   7.467 -1.0320  0.2336  2.4787
 4013TIP3   OH236233   6.613   4.004   8.952 -0.2249 -0.1972  0.6616
 4013TIP3    H136234   6.653   3.924   8.919 -2.0978 -0.5118 -1.0578
 4013TIP3    H236235   6.635   4.071   8.887 -1.1606 -0.0360  0.4941
 4014TIP3   OH236236   5.362   4.888   7.184 -0.1820  0.2304 -0.1301
 4014TIP3    H136237   5.328   4.882   7.273  0.9884  0.0415  0.3212
 4014TIP3    H236238   5.452   4.855   7.190  0.1533  0.8752 -1.2411
 4015TIP3   OH236239   2.147   6.718   8.604  0.0200  0.1209  0.2048
 4015TIP3    H136240   2.196   6.766   8.537 -0.7456  1.4413  0.5498
 4015TIP3    H236241   2.195   6.636   8.615  1.1368  0.6201 -0.7200
 4016TIP3   OH236242   2.170   4.535   7.246 -0.3224  0.1143  0.4979
 4016TIP3    H136243   2.260   4.565   7.249 -0.4860  1.0135 -1.7173
 4016TIP3    H236244   2.166   4.479   7.168 -1.9164  1.0496 -0.1370
 4017TIP3   OH236245   4.276   7.634   7.976 -0.1681 -0.5142  0.3765
 4017TIP3    H136246   4.302   7.661   8.064 -1.4779 -1.7964  1.1994
 4017TIP3    H236247   4.327   7.555   7.959 -0.6844 -0.8641  0.4275
 4018TIP3   OH236248   3.304   0.838   8.528  0.0541  0.3687 -0.3577
 4018TIP3    H136249   3.337   0.825   8.439  2.2643  1.5141  0.2191
 4018TIP3    H236250   3.227   0.894   8.518 -0.3463 -0.3548 -1.5881
 4019TIP3   OH236251   5.500   0.474   8.428  0.2738 -0.2448 -0.1325
 4019TIP3    H136252   5.484   0.567   8.446  1.6910 -0.2357  1.3483
 4019TIP3    H236253   5.560   0.474   8.354  0.8916  0.0737  0.3546
 4020TIP3   OH236254   3.257   6.793   8.308 -0.4908  0.1608  0.3719
 4020TIP3    H136255   3.203   6.762   8.381 -1.2295 -1.3240 -0.7572
 4020TIP3    H236256   3.333   6.735   8.308  0.6115  1.5509  1.2748
 4021TIP3   OH236257   4.940   6.444   7.671 -0.2594 -0.1003  0.5285
 4021TIP3    H136258   4.988   6.381   7.724  1.8547  1.0565  0.0997
 4021TIP3    H236259   4.850   6.437   7.702 -0.2076 -3.4716  0.3149
 4022TIP3   OH236260   3.939   2.857   8.549 -0.4807 -0.3363 -0.1108
 4022TIP3    H136261   4.005   2.898   8.605 -0.5276  1.3333 -1.2038
 4022TIP3    H236262   3.991   2.816   8.479 -0.4799 -1.5938  0.5861
 4023TIP3   OH236263   6.723   6.541   8.580 -0.0603  0.1220 -0.3210
 4023TIP3    H136264   6.651   6.495   8.538  0.7786  0.6823 -2.4975
 4023TIP3    H236265   6.739   6.617   8.525  0.3366  1.6111  1.7056
 4024TIP3   OH236266   6.499   5.857   8.908  1.1814 -0.1712 -0.0706
 4024TIP3    H136267   6.541   5.866   8.822  2.7490  1.5020  0.7899
 4024TIP3    H236268   6.570   5.836   8.968 -0.1701 -3.3942  0.6228
 4025TIP3   OH236269   3.938   5.947   8.506 -0.0312  0.2970  0.4342
 4025TIP3    H136270   4.002   5.960   8.436 -0.7018  0.6518 -0.1318
 4025TIP3    H236271   3.950   5.856   8.532 -0.6265 -0.2468 -1.0484
 4026TIP3   OH236272   7.548   2.767   7.429 -0.3147  0.7367  0.2204
 4026TIP3    H136273   7.544   2.671   7.430  0.3370  0.7045  0.1357
 4026TIP3    H236274   7.511   2.793   7.513  0.4446  0.3589  0.6849
 4027TIP3   OH236275   0.846   5.161   9.168  0.1969 -0.3708  0.4284
 4027TIP3    H136276   0.867   5.071   9.193  0.7249  0.0179  1.4599
 4027TIP3    H236277   0.767   5.153   9.115 -0.8255 -1.3087  2.0011
 4028TIP3   OH236278   2.553   6.234   7.489  0.2311 -0.1605  0.3338
 4028TIP3    H136279   2.593   6.174   7.552  1.9765 -1.2308 -1.6482
 4028TIP3    H236280   2.627   6.281   7.451 -0.8782  1.2616 -0.1316
 4029TIP3   OH236281   3.387   6.178   9.038  0.1416  0.3717  0.0074
 4029TIP3    H136282   3.378   6.166   8.943  1.1807  2.2626 -0.3839
 4029TIP3    H236283   3.339   6.258   9.057  1.2057  0.8357  0.8295
 4030TIP3   OH236284   5.274   2.578   7.012 -0.5312 -0.2323 -0.0067
 4030TIP3    H136285   5.350   2.613   6.965 -0.5343 -0.2439 -0.0204
 4030TIP3    H236286   5.235   2.515   6.951 -0.3111 -0.5320  0.1685
 4031TIP3   OH236287   6.445   6.491   8.923  0.2506  0.1307 -0.0491
 4031TIP3    H136288   6.495   6.541   8.858  1.0627 -1.5254 -0.7359
 4031TIP3    H236289   6.474   6.526   9.007  1.1474  0.5072 -0.5029
 4032TIP3   OH236290   0.735   6.373   8.657 -0.7843 -0.2175  0.2559
 4032TIP3    H136291   0.734   6.346   8.748 -0.5085  1.5955  0.8298
 4032TIP3    H236292   0.825   6.359   8.628 -0.8390 -0.6583  0.2877
 4033TIP3   OH236293   2.519   2.101   8.686 -0.0101  0.6044 -0.2863
 4033TIP3    H136294   2.447   2.087   8.748 -0.6416  0.3417 -1.0649
 4033TIP3    H236295   2.561   2.182   8.716 -0.7499  0.8728  0.0576
 4034TIP3   OH236296   2.346   6.188   8.583  0.0038 -0.2712 -0.0132
 4034TIP3    H136297   2.283   6.174   8.512 -1.6575 -1.4540  1.6129
 4034TIP3    H236298   2.388   6.102   8.595 -1.0663 -0.6113  1.6040
 4035TIP3   OH236299   1.644   2.770   9.305  0.2430  0.2552 -0.0164
 4035TIP3    H136300   1.653   2.862   9.278  0.2697 -0.1313 -1.4075
 4035TIP3    H236301   1.572   2.737   9.252  1.3125 -0.9625 -0.7622
 4036TIP3   OH236302   4.526   4.249   6.709 -0.1378 -0.4978  0.5177
 4036TIP3    H136303   4.609   4.201   6.714  0.6258  0.8232  1.2845
 4036TIP3    H236304   4.552   4.339   6.688 -1.6043 -0.6342 -2.3384
 4037TIP3   OH236305   1.430   4.354   9.046 -0.1154  0.3041  0.1131
 4037TIP3    H136306   1.475   4.397   9.118  0.4202 -0.2696  0.1235
 4037TIP3    H236307   1.463   4.397   8.967 -1.5476  1.7304  0.2343
 4038TIP3   OH236308   0.660   4.962   8.260 -0.0930 -0.5462 -0.0387
 4038TIP3    H136309   0.581   5.008   8.234  0.4558 -0.1124 -1.0176
 4038TIP3    H236310   0.731   5.012   8.219  0.7562 -0.4358  1.5037
 4039TIP3   OH236311   5.845   7.018   8.056  0.5668  0.4228 -0.5610
 4039TIP3    H136312   5.829   6.951   7.989  2.5570 -1.8952  1.0565
 4039TIP3    H236313   5.781   7.000   8.124  1.1597  0.0428 -0.0848
 4040TIP3   OH236314   2.156   2.674   7.550 -0.0925 -0.2435 -0.5539
 4040TIP3    H136315   2.181   2.661   7.459  0.5311 -1.3094 -0.2394
 4040TIP3    H236316   2.086   2.610   7.565  0.7851 -1.0765  0.1018
 4041TIP3   OH236317   7.166   4.685   8.125  0.2906  0.1125 -0.0348
 4041TIP3    H136318   7.126   4.752   8.180  1.7421  1.5698 -0.6597
 4041TIP3    H236319   7.235   4.647   8.180  0.5392  0.2995 -0.2102
 4042TIP3   OH236320   2.362   6.820   6.950 -0.1199 -0.3552 -0.3843
 4042TIP3    H136321   2.334   6.729   6.941  0.3679 -0.4471 -0.9712
 4042TIP3    H236322   2.412   6.839   6.871  3.5022 -0.8878  1.5540
 4043TIP3   OH236323   7.149   0.487   8.131  0.3645  0.1841 -0.1345
 4043TIP3    H136324   7.066   0.485   8.178  0.3620  1.9104  0.0078
 4043TIP3    H236325   7.168   0.580   8.120  2.5141 -0.1505  0.2382
 4044TIP3   OH236326   5.266   1.081   8.407  0.3835  0.1373 -0.0129
 4044TIP3    H136327   5.216   1.008   8.442  1.3324  0.1796  1.5320
 4044TIP3    H236328   5.357   1.058   8.424  0.7856  0.9579 -0.9678
 4045TIP3   OH236329   3.789   6.490   6.696 -0.6621  0.0007 -0.1706
 4045TIP3    H136330   3.785   6.404   6.654  0.0011  0.3681 -0.9998
 4045TIP3    H236331   3.865   6.485   6.755 -0.5732  0.0520 -0.2820
 4046TIP3   OH236332   5.414   6.455   7.641  0.0773 -0.2008 -0.1840
 4046TIP3    H136333   5.450   6.544   7.647 -1.0059  0.3661 -1.5558
 4046TIP3    H236334   5.348   6.461   7.572  0.6576 -2.3239 -0.9900
 4047TIP3   OH236335   1.662   2.284   8.256  0.1775  0.2381 -0.5507
 4047TIP3    H136336   1.687   2.234   8.178 -0.0361  0.6499 -0.8925
 4047TIP3    H236337   1.593   2.343   8.225 -0.8026 -0.4595  0.2328
 4048TIP3   OH236338   2.610   2.647   9.165 -0.3030 -0.4804  0.4108
 4048TIP3    H136339   2.532   2.612   9.208 -1.1153  0.2708 -0.4205
 4048TIP3    H236340   2.667   2.571   9.154 -2.4554 -1.8756 -2.3261
 4049TIP3   OH236341   7.533   6.158   9.342  0.4696  1.0641 -0.3365
 4049TIP3    H136342   7.578   6.225   9.393 -1.6939  3.1461 -0.9914
 4049TIP3    H236343   7.544   6.184   9.251 -0.0301  0.2703 -0.6416
 4050TIP3   OH236344   7.647   0.158   8.963  0.6748  0.8401  0.1765
 4050TIP3    H136345   7.738   0.179   8.987  1.5187 -1.0135 -1.1783
 4050TIP3    H236346   7.641   0.179   8.870  0.9815 -2.5764 -0.7578
 4051TIP3   OH236347   2.396   0.422   7.179 -0.4586  0.0083  0.4082
 4051TIP3    H136348   2.482   0.390   7.205 -0.5254  0.2551  0.9675
 4051TIP3    H236349   2.389   0.401   7.086  0.6277  0.8925  0.0987
 4052TIP3   OH236350   1.531   6.138   7.602  0.0450  0.3409 -0.4115
 4052TIP3    H136351   1.547   6.169   7.691  0.7776  1.0467 -0.7686
 4052TIP3    H236352   1.439   6.155   7.586 -0.5669 -1.4780  0.8360
 4053TIP3   OH236353   1.990   0.625   8.615 -0.2766  0.0131 -0.5625
 4053TIP3    H136354   1.996   0.596   8.706  2.1315  1.1651 -0.2858
 4053TIP3    H236355   1.972   0.545   8.566  0.1024 -0.9187  0.7568
 4054TIP3   OH236356   6.197   7.370   8.480 -1.1101 -0.1647 -0.3533
 4054TIP3    H136357   6.173   7.322   8.559  0.1259 -1.0145 -0.4719
 4054TIP3    H236358   6.117   7.414   8.453 -2.1977 -1.8544 -0.0245
 4055TIP3   OH236359   6.007   1.358   8.149  0.4918  0.1977 -0.0608
 4055TIP3    H136360   5.981   1.271   8.118  2.1022 -0.1858 -0.4149
 4055TIP3    H236361   6.011   1.348   8.245 -2.3843  0.7976  0.2098
 4056TIP3   OH236362   1.581   1.875   6.616  0.2304 -0.5796  0.0205
 4056TIP3    H136363   1.529   1.801   6.647 -0.0818  0.1893  1.4502
 4056TIP3    H236364   1.521   1.925   6.560  0.0538 -0.7660  0.0438
 4057TIP3   OH236365   1.257   1.601   7.039 -0.0533 -0.5850  0.1115
 4057TIP3    H136366   1.196   1.547   7.088  0.0954 -1.3193 -0.4886
 4057TIP3    H236367   1.252   1.687   7.080 -2.5613 -0.2106 -0.8201
 4058TIP3   OH236368   0.243   5.590   9.003 -0.2905 -1.0140 -0.0796
 4058TIP3    H136369   0.218   5.647   9.076 -0.4704 -0.9060 -0.2254
 4058TIP3    H236370   0.167   5.534   8.988 -0.1140 -1.2933  0.0621
 4059TIP3   OH236371   0.113   3.820   8.007 -0.5483 -0.4042 -0.0928
 4059TIP3    H136372   0.197   3.810   7.963 -0.7038  0.3741 -0.5958
 4059TIP3    H236373   0.047   3.807   7.939 -0.7839  1.5713 -0.3236
 4060TIP3   OH236374   7.394   3.264   8.758 -0.0792  0.0554 -0.0747
 4060TIP3    H136375   7.462   3.325   8.788 -0.6103  0.6155  0.0008
 4060TIP3    H236376   7.439   3.208   8.694  0.6114  0.0055  0.4381
 4061TIP3   OH236377   0.998   6.923   8.146 -0.1906  0.4407  0.2905
 4061TIP3    H136378   0.989   6.938   8.052 -2.1611  0.2457  0.3977
 4061TIP3    H236379   0.952   6.841   8.162 -1.0150  1.1138  1.5922
 4062TIP3   OH236380   3.447   6.791   7.343  0.6285 -0.3158  0.2251
 4062TIP3    H136381   3.434   6.745   7.425  1.3937  0.1602  0.6237
 4062TIP3    H236382   3.481   6.877   7.368  1.6263 -0.4404 -0.6081
 4063TIP3   OH236383   1.832   4.078   9.407 -0.2644  0.3696 -0.2009
 4063TIP3    H136384   1.823   4.169   9.435  1.4651 -0.0154  1.8403
 4063TIP3    H236385   1.920   4.073   9.369 -1.0857 -0.0546 -2.1799
 4064TIP3   OH236386   5.243   6.255   6.807  0.6293  0.1132  0.5302
 4064TIP3    H136387   5.200   6.198   6.744  0.7639 -0.1705  0.6934
 4064TIP3    H236388   5.337   6.246   6.787  0.7367 -0.6106  1.2900
 4065TIP3   OH236389   1.312   4.214   7.836 -0.2558 -0.2355 -0.1340
 4065TIP3    H136390   1.377   4.148   7.862 -0.9609 -0.3210  1.5275
 4065TIP3    H236391   1.233   4.191   7.885 -0.7243  1.4442 -0.0460
 4066TIP3   OH236392   7.555   4.579   8.999  0.0358 -0.1428 -0.1574
 4066TIP3    H136393   7.475   4.579   9.052 -0.4235 -0.3077 -0.8463
 4066TIP3    H236394   7.527   4.552   8.912  0.8210 -0.0596 -0.4466
 4067TIP3   OH236395   5.882   2.992   8.814  0.7069  0.5039 -0.0329
 4067TIP3    H136396   5.872   2.970   8.907  2.4233 -1.2674 -0.1877
 4067TIP3    H236397   5.796   3.023   8.787 -0.2060 -0.2312  1.8343
 4068TIP3   OH236398   6.550   4.892   8.467  0.3493  0.3704  0.4333
 4068TIP3    H136399   6.474   4.840   8.492  1.0463 -0.0521  1.8007
 4068TIP3    H236400   6.625   4.838   8.492  1.1023  1.0478 -0.2873
 4069TIP3   OH236401   5.906   2.192   8.983  0.3620  0.1578 -0.0884
 4069TIP3    H136402   5.819   2.171   9.017  0.3745  1.4553  0.7993
 4069TIP3    H236403   5.894   2.276   8.937  0.7255 -0.6857 -1.8087
 4070TIP3   OH236404   2.769   4.067   8.343  0.4749  0.7195  0.1145
 4070TIP3    H136405   2.796   3.997   8.283  0.5288  0.5909  0.2887
 4070TIP3    H236406   2.777   4.147   8.291 -0.2055  0.5319 -0.2882
 4071TIP3   OH236407   1.977   6.584   7.621 -0.5182  0.3180  0.6289
 4071TIP3    H136408   2.010   6.624   7.701  1.0369  0.0918  0.1414
 4071TIP3    H236409   2.008   6.641   7.551  3.5677 -2.5573 -0.2726
 4072TIP3   OH236410   0.952   6.626   8.350  0.3539 -0.1861  0.4473
 4072TIP3    H136411   0.910   6.540   8.342 -0.0909 -0.0460  1.1460
 4072TIP3    H236412   0.925   6.674   8.272  0.7404 -0.7338 -0.0311
 4073TIP3   OH236413   4.591   2.522   8.628 -0.6324  0.2833  0.1980
 4073TIP3    H136414   4.594   2.598   8.687  0.7678  0.0995  0.3952
 4073TIP3    H236415   4.523   2.466   8.665 -0.6321  0.7431  0.9212
 4074TIP3   OH236416   2.062   6.792   8.860  0.3545  0.2623  1.0214
 4074TIP3    H136417   2.091   6.751   8.778 -3.3729  0.0825 -0.3986
 4074TIP3    H236418   2.021   6.721   8.909 -2.2118  1.3178  0.5471
 4075TIP3   OH236419   6.543   3.400   8.846 -0.7575 -0.3660 -0.4217
 4075TIP3    H136420   6.589   3.437   8.922 -0.3515 -0.4562 -0.6177
 4075TIP3    H236421   6.451   3.398   8.871 -0.6462 -0.2205 -0.0019
 4076TIP3   OH236422   3.248   4.951   8.720 -1.0104  0.1109 -0.2959
 4076TIP3    H136423   3.182   5.018   8.705 -1.8358 -0.4748  0.5610
 4076TIP3    H236424   3.318   4.972   8.659 -2.4149  0.1684 -1.9638
 4077TIP3   OH236425   6.485   2.783   8.522 -0.3001 -0.0645  0.1688
 4077TIP3    H136426   6.428   2.842   8.473  0.5852 -0.0242 -0.8598
 4077TIP3    H236427   6.557   2.838   8.551 -0.9783 -0.0155  1.8635
 4078TIP3   OH236428   1.851   4.485   7.673  0.2070 -0.9894 -0.0197
 4078TIP3    H136429   1.898   4.498   7.754  0.8529  0.5627 -0.6197
 4078TIP3    H236430   1.918   4.459   7.609  0.0185 -0.3437 -0.4941
 4079TIP3   OH236431   6.697   4.159   8.100 -0.1312  0.3018  0.2794
 4079TIP3    H136432   6.763   4.185   8.036 -0.7263 -0.7178 -0.7922
 4079TIP3    H236433   6.630   4.227   8.095  1.2565  1.9355  2.1476
 4080TIP3   OH236434   6.061   2.090   7.931  0.1784  0.3045 -0.5479
 4080TIP3    H136435   5.966   2.080   7.943  0.2580 -0.6669 -0.6655
 4080TIP3    H236436   6.094   2.108   8.019  0.0467 -0.8220 -0.2470
 4081TIP3   OH236437   7.478   5.766   7.573  0.3660  0.5678  0.4887
 4081TIP3    H136438   7.428   5.791   7.496  1.2102  0.5869 -0.0646
 4081TIP3    H236439   7.448   5.677   7.593  1.1933 -0.0263 -0.7682
 4082TIP3   OH236440   1.557   1.575   7.430 -0.5387 -0.2790  0.6384
 4082TIP3    H136441   1.533   1.626   7.352  0.0957 -0.3887  0.3644
 4082TIP3    H236442   1.479   1.524   7.450 -0.6062 -0.4923 -0.1267
 4083TIP3   OH236443   1.931   0.533   7.158  0.3347  0.5888 -0.2919
 4083TIP3    H136444   1.887   0.451   7.180  2.6016 -0.1994  1.6412
 4083TIP3    H236445   1.995   0.508   7.090 -0.4361  1.2383 -1.2906
 4084TIP3   OH236446   3.110   7.414   7.441 -0.0169 -0.2686  1.1896
 4084TIP3    H136447   3.075   7.499   7.414  0.3631 -0.3279  0.4983
 4084TIP3    H236448   3.188   7.401   7.387 -1.0476 -1.8716 -0.0324
 4085TIP3   OH236449   1.772   0.663   7.404 -0.0810  0.2459 -0.0325
 4085TIP3    H136450   1.751   0.607   7.329  3.1191 -0.3197 -0.6239
 4085TIP3    H236451   1.758   0.752   7.372 -1.9996 -0.0479 -0.1435
 4086TIP3   OH236452   5.234   5.939   7.117 -0.5672 -0.2229  0.6025
 4086TIP3    H136453   5.245   5.920   7.024  1.0121  1.3025  0.4118
 4086TIP3    H236454   5.219   6.033   7.121  1.1881  0.0634  1.9485
 4087TIP3   OH236455   6.362   5.361   9.066 -0.0072  0.2448 -0.1146
 4087TIP3    H136456   6.439   5.400   9.108 -0.5549  1.6576 -0.3723
 4087TIP3    H236457   6.292   5.424   9.081 -0.9224 -0.6230 -0.6226
 4088TIP3   OH236458   7.001   1.665   8.244  0.3196  0.3151  0.3947
 4088TIP3    H136459   7.045   1.581   8.258 -0.0597  0.1014  0.3381
 4088TIP3    H236460   6.933   1.646   8.179 -2.2637 -0.2625  3.0471
 4089TIP3   OH236461   0.823   6.255   9.404  0.4142 -0.1387  0.2660
 4089TIP3    H136462   0.852   6.164   9.411  1.2833  0.2020  1.4654
 4089TIP3    H236463   0.861   6.286   9.322 -0.0237 -0.8921 -0.2319
 4090TIP3   OH236464   1.388   2.923   9.404 -0.4987 -0.6834 -0.5604
 4090TIP3    H136465   1.328   2.849   9.401 -2.4282  0.7153  0.9360
 4090TIP3    H236466   1.414   2.930   9.496 -0.2931  0.4316 -0.6793
 4091TIP3   OH236467   7.190   0.758   8.173  0.2213  0.1456 -0.1383
 4091TIP3    H136468   7.285   0.764   8.181  0.1979  0.9969 -0.3334
 4091TIP3    H236469   7.156   0.821   8.237 -0.1755  0.6014 -0.7792
 4092TIP3   OH236470   5.740   0.696   8.691 -0.2760  0.0391 -0.3901
 4092TIP3    H136471   5.791   0.621   8.660 -0.2082  0.0794 -0.3756
 4092TIP3    H236472   5.770   0.770   8.638  0.9715  0.4391  0.8096
 4093TIP3   OH236473   1.164   1.322   8.270  0.4141 -0.2846 -0.2591
 4093TIP3    H136474   1.168   1.275   8.354 -0.3352 -0.8135 -0.5146
 4093TIP3    H236475   1.072   1.318   8.244 -0.1044  2.9275  0.5929
 4094TIP3   OH236476   6.843   7.019   8.168 -0.3246  0.1076 -0.1617
 4094TIP3    H136477   6.862   7.089   8.230  0.4332 -0.5107  0.3261
 4094TIP3    H236478   6.767   7.050   8.119 -1.4415  0.2609  1.5995
 4095TIP3   OH236479   4.106   3.142   8.275  0.0677 -0.0112  0.2422
 4095TIP3    H136480   4.011   3.131   8.285  0.5176 -2.7766  2.7009
 4095TIP3    H236481   4.126   3.100   8.191 -0.7071 -0.9604  0.5189
 4096TIP3   OH236482   0.078   1.172   8.297  0.6617  0.3549 -0.2969
 4096TIP3    H136483   0.042   1.152   8.383  0.9399  1.5012  0.1171
 4096TIP3    H236484   0.049   1.101   8.240 -0.1572 -0.0190  0.5773
 4097TIP3   OH236485   5.453   3.916   9.303  0.0300 -0.0849  0.1431
 4097TIP3    H136486   5.399   3.858   9.250  0.2579 -0.2072  0.0431
 4097TIP3    H236487   5.442   3.883   9.393 -1.5325  1.0255  0.4039
 4098TIP3   OH236488   6.056   1.175   7.374  0.0545  0.3061  0.7512
 4098TIP3    H136489   6.052   1.233   7.450 -0.7381  0.2216  0.7827
 4098TIP3    H236490   6.040   1.233   7.299  0.0663  0.2659  0.7177
 4099TIP3   OH236491   4.934   4.755   8.100 -0.3988  0.3527  0.0737
 4099TIP3    H136492   4.914   4.667   8.068  0.2266  0.0695  0.4504
 4099TIP3    H236493   4.906   4.813   8.029 -1.4305 -0.0959  0.0854
 4100TIP3   OH236494   5.594   6.422   7.902 -0.8888  0.7919 -0.4182
 4100TIP3    H136495   5.651   6.474   7.846 -1.9502  0.5909 -1.7314
 4100TIP3    H236496   5.653   6.362   7.948 -0.0829  0.2985 -2.0504
 4101TIP3   OH236497   1.151   4.546   8.425 -0.4830  0.3195  0.1850
 4101TIP3    H136498   1.079   4.610   8.434  0.3837  1.3974 -0.3188
 4101TIP3    H236499   1.116   4.465   8.462 -2.3774  0.4947 -1.0760
 4102TIP3   OH236500   7.439   7.149   9.471 -0.0611 -0.1663 -0.2503
 4102TIP3    H136501   7.385   7.071   9.452  0.8271 -1.3605  1.7420
 4102TIP3    H236502   7.520   7.135   9.422  0.1715 -0.6078  0.2526
 4103TIP3   OH236503   6.210   7.054   8.643 -0.1491 -0.4900  0.5972
 4103TIP3    H136504   6.176   7.138   8.674  0.2191 -0.5260  1.0977
 4103TIP3    H236505   6.138   7.017   8.591 -0.2911  0.1584  0.3210
 4104TIP3   OH236506   5.655   1.687   8.951 -0.3517 -0.6877 -0.3045
 4104TIP3    H136507   5.622   1.772   8.980  0.4988 -0.2412 -0.5827
 4104TIP3    H236508   5.739   1.678   8.996 -0.0865 -1.0275 -0.8557
 4105TIP3   OH236509   0.849   1.782   8.440 -0.2439 -0.3861  0.3938
 4105TIP3    H136510   0.876   1.800   8.531 -0.0674  1.0721  0.0752
 4105TIP3    H236511   0.781   1.716   8.448  0.6130 -1.1839  1.5036
 4106TIP3   OH236512   2.099   6.758   7.823 -0.3052  0.0754 -0.4041
 4106TIP3    H136513   2.012   6.758   7.863  0.1228  0.8660  0.5814
 4106TIP3    H236514   2.125   6.850   7.823  0.8328 -0.2283  0.0044
 4107TIP3   OH236515   5.251   2.500   8.095  0.3070 -0.0712  0.1300
 4107TIP3    H136516   5.199   2.445   8.036 -1.3857  1.5172  0.0582
 4107TIP3    H236517   5.207   2.492   8.180 -0.9039  2.2648 -0.2107
 4108TIP3   OH236518   6.393   4.214   8.125 -0.1302 -0.1392  0.3529
 4108TIP3    H136519   6.341   4.146   8.167 -0.3614 -1.0708 -1.3576
 4108TIP3    H236520   6.334   4.251   8.059  0.7214  0.1771 -0.2419
 4109TIP3   OH236521   2.621   7.396   8.969  0.3341  0.2106  0.0959
 4109TIP3    H136522   2.542   7.359   8.929 -0.0808 -0.8640  1.8137
 4109TIP3    H236523   2.595   7.485   8.995 -0.6775 -0.4472  1.5050
 4110TIP3   OH236524   2.578   7.548   8.450 -0.0558 -0.3785 -0.3174
 4110TIP3    H136525   2.524   7.521   8.376 -0.7323  1.0577 -0.3661
 4110TIP3    H236526   2.620   7.629   8.421  0.1330 -0.1138  0.6649
 4111TIP3   OH236527   0.040   0.016   7.300  0.4108 -0.3152 -0.3146
 4111TIP3    H136528   0.021   0.039   7.208 -1.0465 -0.0835  0.0114
 4111TIP3    H236529   0.066  -0.076   7.297 -0.0648 -0.4390 -0.9141
 4112TIP3   OH236530   3.977   3.913   7.978  0.2014 -0.0922  0.3371
 4112TIP3    H136531   3.890   3.941   7.950 -0.5260 -1.1354  1.4744
 4112TIP3    H236532   4.037   3.974   7.935 -1.1280  1.1531  0.1884
 4113TIP3   OH236533   6.169   2.673   6.424 -0.1272 -0.2217  0.3957
 4113TIP3    H136534   6.094   2.731   6.409  0.7941  0.7202 -0.7251
 4113TIP3    H236535   6.242   2.732   6.442  1.2247 -0.8472 -2.4617
 4114TIP3   OH236536   0.670   1.826   8.955  0.3293  0.2973  0.3330
 4114TIP3    H136537   0.608   1.876   9.008  1.7725  1.5565  0.8932
 4114TIP3    H236538   0.660   1.736   8.984 -1.6294  0.3515 -0.0044
 4115TIP3   OH236539   4.455   5.868   9.223 -0.3050 -0.6167 -0.3934
 4115TIP3    H136540   4.404   5.790   9.244 -0.3082 -0.6272 -0.4398
 4115TIP3    H236541   4.434   5.887   9.132 -1.0647  0.0213 -0.0932
 4116TIP3   OH236542   7.219   3.339   8.540  0.1932 -0.3957  0.6446
 4116TIP3    H136543   7.127   3.356   8.560  0.7554  1.9670  1.5506
 4116TIP3    H236544   7.246   3.274   8.605 -0.3779  0.2638  1.5607
 4117TIP3   OH236545   7.070   2.720   8.874  0.2900 -0.5436  0.3172
 4117TIP3    H136546   6.994   2.697   8.820  0.7104  0.7659 -0.9090
 4117TIP3    H236547   7.038   2.785   8.936  0.0504 -1.2196  0.9049
 4118TIP3   OH236548   6.027   0.041   8.630 -0.1571  0.1030  0.1921
 4118TIP3    H136549   6.007   0.123   8.675 -0.4493  0.2629 -0.2233
 4118TIP3    H236550   6.096   0.063   8.568  0.3267 -0.1426  0.6379
 4119TIP3   OH236551   2.315   5.956   9.318  0.5057 -0.0149  0.5725
 4119TIP3    H136552   2.224   5.986   9.322  0.4192 -0.2090  0.0875
 4119TIP3    H236553   2.324   5.919   9.230  0.6712 -1.2291  1.0819
 4120TIP3   OH236554   6.207   0.927   7.367  0.5092  0.5199  0.2961
 4120TIP3    H136555   6.192   1.021   7.376  0.6464  0.7363 -1.4595
 4120TIP3    H236556   6.171   0.905   7.281 -3.8408 -1.9842  2.4384
 4121TIP3   OH236557   3.873   0.034   9.069  0.1118 -0.2966 -0.0180
 4121TIP3    H136558   3.838   0.123   9.068  0.3551 -0.0921 -3.6265
 4121TIP3    H236559   3.967   0.045   9.085  0.2799  0.2505 -1.2139
 4122TIP3   OH236560   1.028   2.605   8.068 -0.0759  0.0609 -0.4178
 4122TIP3    H136561   0.963   2.597   8.138  0.0477 -0.2614 -0.3385
 4122TIP3    H236562   1.104   2.557   8.101  0.5378  1.2014 -0.1180
 4123TIP3   OH236563   3.867   4.747   7.341  0.1263  0.0001 -0.0197
 4123TIP3    H136564   3.874   4.770   7.248 -0.2191 -0.9320 -0.2987
 4123TIP3    H236565   3.792   4.798   7.372  0.0163  0.0486 -0.3505
 4124TIP3   OH236566   6.243   3.758   9.387  0.2815  0.6749 -0.2994
 4124TIP3    H136567   6.211   3.743   9.298 -1.3518  0.6551  0.2579
 4124TIP3    H236568   6.272   3.849   9.388 -0.7411  1.0094 -0.5571
 4125TIP3   OH236569   4.171   1.146   7.635  0.4283 -0.1946 -0.0492
 4125TIP3    H136570   4.193   1.195   7.556 -0.7108  0.6436  0.1311
 4125TIP3    H236571   4.159   1.212   7.703 -2.1654 -0.5647 -0.0495
 4126TIP3   OH236572   3.111   1.058   8.575  0.2031  0.7261 -0.0929
 4126TIP3    H136573   3.064   1.040   8.493  1.1974  1.3262 -0.8280
 4126TIP3    H236574   3.044   1.093   8.634 -0.5887  0.0210 -0.5575
 4127TIP3   OH236575   6.715   7.419   8.392  0.0337  0.3820  0.1239
 4127TIP3    H136576   6.672   7.443   8.310  0.9312  0.0206 -0.4686
 4127TIP3    H236577   6.807   7.409   8.369  0.1934 -0.4148  1.0262
 4128TIP3   OH236578   2.871   4.231   7.618 -0.6508 -0.2573  0.0025
 4128TIP3    H136579   2.883   4.189   7.703  0.5601 -1.6917 -0.8209
 4128TIP3    H236580   2.957   4.267   7.596 -0.6833 -0.7626 -1.0328
 4129TIP3   OH236581   3.360   6.664   7.596 -0.1229  0.1387  0.2958
 4129TIP3    H136582   3.443   6.691   7.634 -0.8054  1.8084  0.7126
 4129TIP3    H236583   3.361   6.568   7.598  1.6177  0.1459  0.6174
 4130TIP3   OH236584   0.238   6.137   9.397 -0.0455  0.4520 -0.2359
 4130TIP3    H136585   0.207   6.184   9.319 -0.1270  0.1460 -0.3872
 4130TIP3    H236586   0.265   6.207   9.457  1.6813  0.6619 -1.2136
 4131TIP3   OH236587   2.853   6.669   8.381 -0.0818 -0.0164 -0.2258
 4131TIP3    H136588   2.842   6.728   8.306  1.3413  1.2852  0.5293
 4131TIP3    H236589   2.946   6.675   8.402 -0.2142 -1.3559  0.8634
 4132TIP3   OH236590   3.910   2.236   8.281 -0.3817  0.4182 -0.7333
 4132TIP3    H136591   3.964   2.237   8.360 -0.7945 -0.4583 -0.4296
 4132TIP3    H236592   3.955   2.295   8.221  0.0932  0.8704  0.0531
 4133TIP3   OH236593   4.387   7.092   7.818 -0.2690 -0.1293  0.8561
 4133TIP3    H136594   4.403   7.167   7.760 -1.2466  0.2101  1.0036
 4133TIP3    H236595   4.414   7.016   7.766  1.7491  0.3656  1.0920
 4134TIP3   OH236596   4.119   7.174   7.873  0.7797  0.4251  0.0076
 4134TIP3    H136597   4.125   7.207   7.963 -0.1823 -1.6307  0.9001
 4134TIP3    H236598   4.196   7.117   7.864 -0.3723 -1.2683  0.4286
 4135TIP3   OH236599   1.640   1.882   6.920  0.0516 -0.4058 -0.4097
 4135TIP3    H136600   1.687   1.918   6.845 -1.4555 -1.3539 -1.8834
 4135TIP3    H236601   1.569   1.943   6.936  0.3427 -0.2249  0.2651
 4136TIP3   OH236602   6.016   5.445   7.341 -0.2276 -0.0028 -0.1727
 4136TIP3    H136603   5.953   5.468   7.409 -0.3639 -0.4885 -0.1263
 4136TIP3    H236604   6.101   5.475   7.375 -0.5099  1.1866 -0.5003
 4137TIP3   OH236605   3.933   4.519   8.583 -0.7453 -0.2917  0.0454
 4137TIP3    H136606   4.002   4.458   8.557 -1.0127 -0.2876 -0.7251
 4137TIP3    H236607   3.867   4.463   8.624 -0.6219 -0.4032  0.0931
 4138TIP3   OH236608   0.974   0.618   7.102  0.4386 -0.7715 -0.1728
 4138TIP3    H136609   0.974   0.693   7.161  2.6447  0.7176 -1.9190
 4138TIP3    H236610   1.045   0.562   7.134  0.4382 -0.8669 -0.3362
 4139TIP3   OH236611   7.066   3.011   8.021 -0.5919  0.3121  0.4155
 4139TIP3    H136612   7.033   3.101   8.013 -0.2886  0.6097  2.1327
 4139TIP3    H236613   6.987   2.957   8.022 -0.8003  0.5937 -0.0623
 4140TIP3   OH236614   4.312   1.326   7.010  0.1995  0.2128 -0.8339
 4140TIP3    H136615   4.296   1.282   7.093 -0.2663 -0.9574 -1.5110
 4140TIP3    H236616   4.228   1.322   6.964  1.0062 -1.2624 -2.2960
 4141TIP3   OH236617   3.557   0.981   9.329  0.2643  0.3013  0.0041
 4141TIP3    H136618   3.499   1.008   9.258 -0.8265  1.6994  1.3468
 4141TIP3    H236619   3.511   0.909   9.372  1.0385 -0.7116 -0.8076
 4142TIP3   OH236620   5.591   1.212   7.345 -0.2729  0.6209 -0.2048
 4142TIP3    H136621   5.543   1.244   7.269  1.5279 -0.0352 -1.6860
 4142TIP3    H236622   5.639   1.288   7.377  0.1420  0.5475 -0.6539
 4143TIP3   OH236623   3.772   2.910   9.212 -0.1368  0.0684 -0.0713
 4143TIP3    H136624   3.785   2.950   9.298 -0.8232 -0.5134  0.3149
 4143TIP3    H236625   3.730   2.979   9.159  1.0459  0.7031 -0.2018
 4144TIP3   OH236626   4.496   0.745   7.486 -0.2359  0.1179  0.9877
 4144TIP3    H136627   4.545   0.773   7.564  1.2973 -2.7324  1.1641
 4144TIP3    H236628   4.521   0.809   7.419  1.3188  0.5392  1.9028
 4145TIP3   OH236629   2.942   6.656   9.495  0.3015  0.5088 -0.0787
 4145TIP3    H136630   2.875   6.723   9.509  0.8860  1.0282  0.2916
 4145TIP3    H236631   3.012   6.702   9.448  0.5292  0.0518 -0.1889
 4146TIP3   OH236632   5.583   0.158   8.275 -0.1241 -0.5081 -0.1001
 4146TIP3    H136633   5.548   0.117   8.354  1.2762 -0.2118  0.7062
 4146TIP3    H236634   5.675   0.176   8.295 -0.1791  1.2333 -1.1346
 4147TIP3   OH236635   7.673   1.747   7.024 -0.1542  0.3337  0.4453
 4147TIP3    H136636   7.697   1.834   6.991  0.8904  0.6009  1.8514
 4147TIP3    H236637   7.615   1.711   6.956  0.1519  1.7412 -0.6007
 4148TIP3   OH236638   7.071   6.378   9.166 -0.4693  0.3050 -0.0989
 4148TIP3    H136639   7.024   6.326   9.231  0.4352 -1.7464 -1.0082
 4148TIP3    H236640   7.140   6.320   9.134  0.2522  1.8903 -1.5884
 4149TIP3   OH236641   0.992   2.036   8.387 -0.4179 -0.0855 -1.1481
 4149TIP3    H136642   0.919   2.072   8.336 -1.2110 -2.0388 -1.4708
 4149TIP3    H236643   0.958   1.955   8.423  0.7883  0.2636  0.9088
 4150TIP3   OH236644   6.612   5.241   7.564 -0.0140  0.3569 -0.3198
 4150TIP3    H136645   6.524   5.250   7.602  0.1020  0.5412 -0.0917
 4150TIP3    H236646   6.608   5.288   7.481 -0.3798 -0.3639 -0.7219
 4151TIP3   OH236647   6.305   4.902   8.867 -0.1317  0.2368  0.4278
 4151TIP3    H136648   6.317   4.996   8.885  0.7918  0.5398 -1.4834
 4151TIP3    H236649   6.241   4.900   8.796 -0.6204 -0.6273  0.8902
 4152TIP3   OH236650   0.900   1.249   8.190 -0.0842  0.1057  0.0465
 4152TIP3    H136651   0.822   1.289   8.151  1.0744  1.5941 -0.8607
 4152TIP3    H236652   0.866   1.194   8.260 -1.8526  2.3652  1.1035
 4153TIP3   OH236653   0.025   5.096   8.571 -0.2549 -0.2995 -0.1332
 4153TIP3    H136654  -0.047   5.153   8.599  0.2071  0.2469 -0.0363
 4153TIP3    H236655   0.002   5.010   8.607 -0.4034  0.0729  0.6856
 4154TIP3   OH236656   0.482   0.457   8.131  0.5610 -0.0465 -0.2502
 4154TIP3    H136657   0.471   0.550   8.111 -0.3570 -0.1307 -0.1606
 4154TIP3    H236658   0.448   0.411   8.054 -0.4666 -0.3258  0.3566
 4155TIP3   OH236659   4.838   4.394   9.254  0.3627 -0.2770  0.3490
 4155TIP3    H136660   4.746   4.365   9.257  0.6456 -1.1466  1.0794
 4155TIP3    H236661   4.887   4.314   9.234  0.9834  0.1558  0.1188
 4156TIP3   OH236662   4.698   5.767   9.498 -0.0478 -0.1621 -0.0562
 4156TIP3    H136663   4.670   5.676   9.512  1.8951 -1.0307 -1.4050
 4156TIP3    H236664   4.713   5.773   9.404  2.5549  0.7092  0.3545
 4157TIP3   OH236665   0.208   5.829   6.611  0.0880 -0.5691 -0.5577
 4157TIP3    H136666   0.270   5.759   6.632  0.7988 -0.0920 -1.0229
 4157TIP3    H236667   0.260   5.892   6.561 -0.0551  1.2182  1.4517
 4158TIP3   OH236668   4.276   6.898   6.960 -0.1956  0.3916  0.2651
 4158TIP3    H136669   4.219   6.955   6.907 -1.2769 -1.4469 -0.6766
 4158TIP3    H236670   4.248   6.809   6.936  2.0118 -0.5541  1.0087
 4159TIP3   OH236671   6.122   6.920   9.549  0.5165 -0.7007  0.0307
 4159TIP3    H136672   6.195   6.863   9.573  1.3553 -0.8081 -2.5087
 4159TIP3    H236673   6.078   6.874   9.477  0.0515  0.9501 -0.7999
 4160TIP3   OH236674   1.010   2.078   8.738 -0.6512  0.1218 -0.3838
 4160TIP3    H136675   0.928   2.034   8.716 -1.2460  1.1445 -0.2604
 4160TIP3    H236676   1.011   2.157   8.683 -0.3903  0.7950  0.5525
 4161TIP3   OH236677   6.683   4.430   8.505 -0.6049  0.0742  1.0987
 4161TIP3    H136678   6.616   4.427   8.436  0.2105  0.7149  0.2587
 4161TIP3    H236679   6.684   4.522   8.532 -0.3080 -0.0060  1.3505
 4162TIP3   OH236680   4.077   1.585   7.540  0.4523  0.6391  0.2692
 4162TIP3    H136681   4.152   1.574   7.598  1.4326  0.0610 -1.0724
 4162TIP3    H236682   4.115   1.602   7.454 -0.9410 -0.1966 -0.5508
 4163TIP3   OH236683   6.980   7.516   9.580 -0.1148 -0.2312  0.3607
 4163TIP3    H136684   6.963   7.607   9.560  1.0222 -0.7654 -4.0313
 4163TIP3    H236685   6.921   7.495   9.653 -2.8377  3.0837 -0.6936
 4164TIP3   OH236686   1.051   3.589   9.172 -0.0308 -0.2868 -0.5124
 4164TIP3    H136687   1.068   3.604   9.264 -0.2057 -0.5947 -0.4279
 4164TIP3    H236688   0.960   3.557   9.169 -1.2200  2.7653 -1.0641
 4165TIP3   OH236689   2.556   4.781   7.530 -0.3998  0.0467 -0.1637
 4165TIP3    H136690   2.530   4.873   7.536  2.1907  0.8964 -0.5999
 4165TIP3    H236691   2.578   4.757   7.620 -3.6608 -1.0844  0.4436
 4166TIP3   OH236692   4.756   4.440   8.718  0.0500 -0.3691 -0.5824
 4166TIP3    H136693   4.723   4.363   8.764 -0.6524 -0.7098 -1.6252
 4166TIP3    H236694   4.772   4.505   8.787 -3.7462  0.1887 -0.0245
 4167TIP3   OH236695   4.376   6.611   8.162 -0.2214  0.0040  0.3076
 4167TIP3    H136696   4.299   6.585   8.211 -0.6915  0.4661 -0.1772
 4167TIP3    H236697   4.434   6.650   8.228 -0.2208 -0.7037  0.7386
 4168TIP3   OH236698   3.197   0.694   8.031 -0.1630 -0.2177 -0.3919
 4168TIP3    H136699   3.109   0.717   8.060 -0.3204  0.9184 -1.6655
 4168TIP3    H236700   3.210   0.743   7.950  1.2739 -1.1378 -0.7744
 4169TIP3   OH236701   6.025   1.360   9.506 -0.3986  0.3780  0.4144
 4169TIP3    H136702   5.932   1.380   9.513 -0.4122  0.1633  0.8842
 4169TIP3    H236703   6.063   1.435   9.459 -0.5226  1.2606  1.6930
 4170TIP3   OH236704   2.664   0.025   6.926 -0.0004 -0.1865  0.5466
 4170TIP3    H136705   2.708  -0.060   6.938 -0.2166 -0.1889  1.4089
 4170TIP3    H236706   2.573   0.009   6.952 -0.3451  0.0109 -0.4905
 4171TIP3   OH236707   1.270   3.547   9.365  0.1879 -0.0101 -0.0937
 4171TIP3    H136708   1.364   3.530   9.373 -0.0609 -2.6134 -1.6131
 4171TIP3    H236709   1.250   3.532   9.273 -1.8874 -0.5146  0.3832
 4172TIP3   OH236710   1.773   1.403   9.239 -0.4658  0.5561 -0.5024
 4172TIP3    H136711   1.765   1.330   9.177 -1.0115  0.7728 -0.6930
 4172TIP3    H236712   1.792   1.361   9.323 -1.6365  0.1339 -0.4359
 4173TIP3   OH236713   1.129   7.239   8.346  0.0627  0.0417 -0.1054
 4173TIP3    H136714   1.115   7.291   8.267 -0.4881  0.9926  0.5973
 4173TIP3    H236715   1.059   7.174   8.344 -2.6020  2.5839  1.5859
 4174TIP3   OH236716   5.651   2.162   9.093  0.2406  0.0327 -0.8932
 4174TIP3    H136717   5.601   2.105   9.035 -0.2434  0.9495 -1.3944
 4174TIP3    H236718   5.595   2.239   9.106  0.2271 -0.2542  1.0072
 4175TIP3   OH236719   3.513   0.197   9.116  0.3389  0.2354  0.0090
 4175TIP3    H136720   3.598   0.226   9.083  0.8763 -1.6389 -0.3836
 4175TIP3    H236721   3.454   0.206   9.041  0.8683 -1.1472 -0.6033
 4176TIP3   OH236722   6.476   1.473   6.573 -0.7798  0.1505  0.1847
 4176TIP3    H136723   6.381   1.467   6.564 -0.9077  2.0385 -0.2046
 4176TIP3    H236724   6.491   1.562   6.606  0.6878 -1.0913  3.3286
 4177TIP3   OH236725   2.133   6.278   8.388 -0.1405  0.0783 -0.2831
 4177TIP3    H136726   2.122   6.189   8.354 -2.6875 -0.0533  0.6557
 4177TIP3    H236727   2.078   6.332   8.331 -0.7265  0.5948  0.7424
 4178TIP3   OH236728   2.297   1.025   8.902  0.0380  0.4969  0.0879
 4178TIP3    H136729   2.390   1.045   8.892  0.9073 -1.2663  3.1922
 4178TIP3    H236730   2.255   1.068   8.828  3.4158  0.4941 -2.0498
 4179TIP3   OH236731   6.131   1.842   9.062 -0.0096  0.3371  0.2549
 4179TIP3    H136732   6.217   1.833   9.103  0.2277  0.0130 -0.3007
 4179TIP3    H236733   6.115   1.936   9.060  0.6076  0.4410 -0.1889
 4180TIP3   OH236734   3.409   2.064   8.154  0.1493  0.2793  0.2469
 4180TIP3    H136735   3.412   2.160   8.151  2.3969  0.2809  0.5849
 4180TIP3    H236736   3.474   2.040   8.220 -2.6397 -1.4466  2.6425
 4181TIP3   OH236737   6.247   0.225   8.061  0.0406  0.5260 -0.8664
 4181TIP3    H136738   6.340   0.226   8.039  0.1689 -1.6133 -0.6076
 4181TIP3    H236739   6.205   0.275   7.991  1.3564  1.4467 -1.0261
 4182TIP3   OH236740   2.393   4.005   7.876 -0.0975 -0.2954  0.1646
 4182TIP3    H136741   2.345   3.937   7.828  0.0383 -0.0862 -0.2713
 4182TIP3    H236742   2.345   4.086   7.856  0.2532 -0.1335 -0.0181
 4183TIP3   OH236743   5.858   0.442   8.028 -0.4765 -0.0893 -0.0218
 4183TIP3    H136744   5.784   0.476   8.079 -0.1201  0.5276  0.0940
 4183TIP3    H236745   5.902   0.382   8.088  0.4661  1.3133  0.7406
 4184TIP3   OH236746   2.367   4.649   6.599 -0.7786 -0.7229  0.4003
 4184TIP3    H136747   2.453   4.607   6.587 -1.3883 -1.1807 -3.8749
 4184TIP3    H236748   2.332   4.609   6.678  1.2561 -3.6635 -0.0221
 4185TIP3   OH236749   4.552   1.645   8.418 -0.0705 -0.1101 -0.5857
 4185TIP3    H136750   4.526   1.642   8.326  1.2918 -0.4455 -0.9851
 4185TIP3    H236751   4.502   1.575   8.459 -1.9535  1.0875 -0.6824
 4186TIP3   OH236752   7.342   2.405   8.220 -0.1727 -0.0220  0.3538
 4186TIP3    H136753   7.427   2.364   8.202  0.2923  1.4562 -1.1101
 4186TIP3    H236754   7.293   2.338   8.268  0.5430 -2.2775 -1.8251
 4187TIP3   OH236755   0.907   2.448   7.659 -0.1792  0.3764 -0.1772
 4187TIP3    H136756   0.948   2.531   7.636  1.6235 -0.4172  0.0240
 4187TIP3    H236757   0.939   2.386   7.593 -0.8345 -0.3420  0.1586
 4188TIP3   OH236758   2.643   1.182   9.171 -0.3873  0.2197  0.0702
 4188TIP3    H136759   2.695   1.261   9.190 -0.9619  0.7194 -0.3719
 4188TIP3    H236760   2.552   1.213   9.173 -0.6589 -0.5868  0.5803
 4189TIP3   OH236761   5.150   0.738   8.070  0.0710 -0.7973  0.2871
 4189TIP3    H136762   5.181   0.652   8.099  1.3038 -0.5124 -0.0949
 4189TIP3    H236763   5.173   0.741   7.977 -1.2314 -0.5890 -0.0413
 4190TIP3   OH236764   0.055   6.729   7.469  0.0532 -0.0007  0.7321
 4190TIP3    H136765  -0.005   6.803   7.464 -0.4589 -0.3829  1.0957
 4190TIP3    H236766   0.065   6.712   7.562 -0.8192 -1.1555  0.6472
 4191TIP3   OH236767   1.635   3.743   8.461 -0.0815 -0.6489 -0.0896
 4191TIP3    H136768   1.706   3.806   8.474 -1.0070  0.2534  0.8231
 4191TIP3    H236769   1.568   3.769   8.524 -2.1622 -0.0922 -2.3294
 4192TIP3   OH236770   4.435   4.825   8.995 -0.2525 -0.1368  0.3027
 4192TIP3    H136771   4.345   4.820   8.962 -0.4429 -0.7956  0.9038
 4192TIP3    H236772   4.440   4.911   9.037 -0.4431  0.1149 -0.1807
 4193TIP3   OH236773   2.414   2.982   7.347 -0.4002 -0.2453 -0.4441
 4193TIP3    H136774   2.440   3.070   7.320  2.0244 -0.2681  1.4801
 4193TIP3    H236775   2.319   2.980   7.335 -0.5063  2.5865 -0.6444
 4194TIP3   OH236776   6.298   3.513   7.581 -0.5378 -0.0209  0.0140
 4194TIP3    H136777   6.369   3.449   7.589 -0.0519  0.4559 -0.4127
 4194TIP3    H236778   6.277   3.537   7.671 -0.1095 -0.1121  0.1415
 4195TIP3   OH236779   4.295   1.842   7.483 -0.1095  0.6237  0.5943
 4195TIP3    H136780   4.375   1.814   7.528 -1.4938 -1.2019  2.0691
 4195TIP3    H236781   4.281   1.775   7.415 -0.6453  0.6302  0.6930
 4196TIP3   OH236782   0.760   6.124   8.380  0.3198  0.3015 -0.5576
 4196TIP3    H136783   0.748   6.034   8.412  0.0036  0.2110 -0.9215
 4196TIP3    H236784   0.685   6.172   8.415  1.0955  0.7124  0.6245
 4197TIP3   OH236785   0.879   0.450   7.877 -0.0623  0.2473  0.2966
 4197TIP3    H136786   0.876   0.426   7.970  0.2530 -0.6286  0.0885
 4197TIP3    H236787   0.830   0.381   7.833 -1.2491  1.2877 -0.0856
 4198TIP3   OH236788   6.839   2.013   8.110 -0.5231 -0.2692 -0.2825
 4198TIP3    H136789   6.861   2.065   8.033  0.6952  3.5410  2.3625
 4198TIP3    H236790   6.924   1.987   8.146 -0.9485  0.1244  1.0410
 4199TIP3   OH236791   1.182   1.719   9.233 -0.4229  0.5786 -0.1130
 4199TIP3    H136792   1.212   1.773   9.160  1.5788 -0.4365 -0.0953
 4199TIP3    H236793   1.246   1.734   9.302 -1.1496 -0.0495  0.7144
 4200TIP3   OH236794   6.633   0.542   9.144  1.0125  0.2976  0.4484
 4200TIP3    H136795   6.538   0.542   9.151  0.8486  1.1411 -1.2577
 4200TIP3    H236796   6.659   0.631   9.169  1.3039  0.2157  0.4427
 4201TIP3   OH236797   0.540   3.211   8.848  0.2035  0.6916 -0.5712
 4201TIP3    H136798   0.588   3.226   8.766  1.1507  1.8081  0.1684
 4201TIP3    H236799   0.559   3.287   8.902 -1.2911  0.4928  0.3000
 4202TIP3   OH236800   1.906   1.278   9.459  0.2620  0.1684 -0.1569
 4202TIP3    H136801   1.974   1.334   9.497  0.3843 -1.1821  1.7643
 4202TIP3    H236802   1.952   1.224   9.395  0.6997  0.2669  0.0745
 4203TIP3   OH236803   0.589   6.392   8.057 -0.4540  0.3195 -0.2108
 4203TIP3    H136804   0.535   6.326   8.100  0.5723 -0.6436 -0.3581
 4203TIP3    H236805   0.662   6.343   8.020 -0.5036  1.3256 -1.7367
 4204TIP3   OH236806   6.022   2.482   7.718 -0.9189  0.8484 -0.2523
 4204TIP3    H136807   6.043   2.544   7.647 -0.6375  1.0242 -0.0197
 4204TIP3    H236808   6.101   2.428   7.725 -0.7562  1.1508  0.2593
 4205TIP3   OH236809   5.213   5.823   7.369 -0.3756  0.0653  0.4162
 4205TIP3    H136810   5.121   5.836   7.393 -0.6699 -1.0574 -0.0791
 4205TIP3    H236811   5.220   5.861   7.281 -0.3387  0.2137  0.4820
 4206TIP3   OH236812   5.280   5.065   8.381 -0.5017  0.1281 -0.1553
 4206TIP3    H136813   5.192   5.100   8.383 -0.1297  1.0762  0.1721
 4206TIP3    H236814   5.271   4.975   8.414 -1.2476  0.4299  0.4930
 4207TIP3   OH236815   1.964   6.474   8.260  0.4586 -0.3701 -0.0914
 4207TIP3    H136816   2.043   6.512   8.221  0.8743  0.5448  1.5414
 4207TIP3    H236817   1.905   6.458   8.185  1.5630  0.4202 -1.1663
 4208TIP3   OH236818   6.727   4.650   7.959  0.2261 -0.0362  0.2096
 4208TIP3    H136819   6.806   4.604   7.932 -0.1647 -0.6403  0.0585
 4208TIP3    H236820   6.754   4.741   7.970  0.5746  0.0807 -1.4391
 4209TIP3   OH236821   6.784   2.564   8.812 -0.6787 -0.2394  0.1764
 4209TIP3    H136822   6.831   2.501   8.867  1.0547  0.7447 -0.1072
 4209TIP3    H236823   6.736   2.618   8.874  0.7144  0.4222  0.7372
 4210TIP3   OH236824   4.429   1.557   7.138  0.1452 -0.6629 -0.2693
 4210TIP3    H136825   4.498   1.507   7.181 -1.1262 -0.7914  1.7404
 4210TIP3    H236826   4.393   1.496   7.073 -0.2781 -1.7956  0.9894
 4211TIP3   OH236827   5.216   0.661   8.490 -0.0063  0.3487 -0.3327
 4211TIP3    H136828   5.289   0.693   8.437  0.7481  1.3862  1.2539
 4211TIP3    H236829   5.227   0.704   8.575 -2.5287  0.6259 -0.0545
 4212TIP3   OH236830   5.249   4.323   7.800  0.2235  0.4481  0.1555
 4212TIP3    H136831   5.246   4.248   7.740 -0.0910  0.7459 -0.2075
 4212TIP3    H236832   5.161   4.360   7.796  0.2057  0.4791  0.7931
 4213TIP3   OH236833   2.750   6.462   9.364 -0.4483  0.0151 -0.2286
 4213TIP3    H136834   2.763   6.527   9.433  0.1576  0.7014 -0.9691
 4213TIP3    H236835   2.664   6.482   9.328 -0.9677 -0.6335  0.6077
 4214TIP3   OH236836   3.727   6.811   8.753  0.3293  0.0158  0.2449
 4214TIP3    H136837   3.814   6.797   8.715  0.2469 -0.2099  0.1392
 4214TIP3    H236838   3.715   6.906   8.749 -0.0186 -0.0610 -1.0535
 4215TIP3   OH236839   1.087   0.560   9.372  0.3735  0.2188  0.0463
 4215TIP3    H136840   1.142   0.622   9.421  0.9785 -1.5007  1.6497
 4215TIP3    H236841   1.023   0.616   9.327  0.9570  2.0199  1.3231
 4216TIP3   OH236842   5.046   3.720   7.708 -0.3594 -0.1366  0.6358
 4216TIP3    H136843   5.053   3.795   7.768 -0.8407  0.8435 -0.4874
 4216TIP3    H236844   5.115   3.735   7.644 -1.1147 -0.0921 -0.1825
 4217TIP3   OH236845   7.526   3.761   9.234 -0.4464  0.5061  0.2865
 4217TIP3    H136846   7.456   3.729   9.178  0.4711 -0.6628 -0.2312
 4217TIP3    H236847   7.490   3.840   9.275 -1.4108  0.9369 -1.3180
 4218TIP3   OH236848   0.898   0.591   8.404  0.1101 -0.0862  0.4072
 4218TIP3    H136849   0.904   0.610   8.498 -0.8419  1.2378  0.2368
 4218TIP3    H236850   0.825   0.529   8.397 -0.9114  1.0822  0.4147
 4219TIP3   OH236851   4.818   1.767   7.900 -0.0360  0.8364  0.2619
 4219TIP3    H136852   4.869   1.698   7.943 -1.1929  0.4720  1.0747
 4219TIP3    H236853   4.807   1.834   7.967 -0.8218  0.8036  0.1719
 4220TIP3   OH236854   1.751   3.390   7.439  0.4590 -0.1309  0.2890
 4220TIP3    H136855   1.753   3.409   7.345  0.2423  1.2411  0.5364
 4220TIP3    H236856   1.658   3.397   7.463  0.5839  0.0938  0.7126
 4221TIP3   OH236857   6.406   4.225   6.967 -0.3836 -0.3337  0.4800
 4221TIP3    H136858   6.383   4.311   6.931 -1.2634 -1.9028 -3.0835
 4221TIP3    H236859   6.462   4.185   6.901  0.4353 -2.3774  2.2809
 4222TIP3   OH236860   2.520   5.841   7.015  0.6470  0.5881  0.1784
 4222TIP3    H136861   2.523   5.746   7.006  0.4852  0.6139 -0.1516
 4222TIP3    H236862   2.427   5.861   7.026  0.5797  0.7864 -0.6835
 4223TIP3   OH236863   2.937   6.254   7.706 -0.6563 -0.4252 -0.1002
 4223TIP3    H136864   2.945   6.346   7.731  1.1632 -0.8202  0.9603
 4223TIP3    H236865   2.900   6.256   7.618  0.4433  1.3757 -0.5794
 4224TIP3   OH236866   2.425   2.508   9.283  0.4455 -0.7190  0.0906
 4224TIP3    H136867   2.331   2.498   9.296  0.1898 -0.2973 -1.2545
 4224TIP3    H236868   2.458   2.419   9.273  0.2748 -0.8950  0.9562
 4225TIP3   OH236869   2.237   0.603   7.263 -0.2165  0.6033  0.2125
 4225TIP3    H136870   2.292   0.681   7.256  0.9093  0.3546  3.8855
 4225TIP3    H236871   2.294   0.532   7.234 -0.2573  0.8363 -0.4551
 4226TIP3   OH236872   4.049   1.991   7.429  0.7300  0.1861 -0.0194
 4226TIP3    H136873   4.110   1.918   7.418  0.9110  0.3424 -0.0558
 4226TIP3    H236874   3.963   1.954   7.409  0.8105 -0.0387  0.0486
 4227TIP3   OH236875   0.952   4.138   7.789  0.1083  0.0589 -0.3931
 4227TIP3    H136876   1.003   4.098   7.859  1.1537  0.6766 -0.7914
 4227TIP3    H236877   0.975   4.231   7.792 -0.8893  0.3339 -0.6769
 4228TIP3   OH236878   6.314   0.210   9.150 -0.0586  0.2648 -0.3900
 4228TIP3    H136879   6.227   0.248   9.139 -0.2806 -0.4113 -1.0775
 4228TIP3    H236880   6.300   0.134   9.206  0.3983  1.2061  1.0664
 4229TIP3   OH236881   6.148   4.196   8.906  0.4066  0.8550  0.8526
 4229TIP3    H136882   6.075   4.135   8.892  1.0004  0.4635 -0.5971
 4229TIP3    H236883   6.149   4.208   9.001 -1.2556  0.5115  0.9553
 4230TIP3   OH236884   2.214   4.136   9.090  0.0753  0.1220 -0.1828
 4230TIP3    H136885   2.141   4.179   9.046 -0.4491 -2.0440 -1.5745
 4230TIP3    H236886   2.264   4.095   9.019  2.2763  0.9346  0.8044
 4231TIP3   OH236887   6.682   7.015   7.433  0.2854  0.2261  0.6349
 4231TIP3    H136888   6.690   7.101   7.392  1.4019 -1.1073 -2.2101
 4231TIP3    H236889   6.625   6.965   7.375  0.7402 -1.3767  1.4967
 4232TIP3   OH236890   1.101   2.331   9.528  0.5617  1.2684 -0.1841
 4232TIP3    H136891   1.055   2.248   9.517  0.4829  1.4237 -1.1598
 4232TIP3    H236892   1.059   2.390   9.466  0.6895  2.0138  0.4216
 4233TIP3   OH236893   7.461   5.237   8.581  0.0373 -0.2578  0.3388
 4233TIP3    H136894   7.441   5.200   8.667 -0.9291  2.5242  1.4226
 4233TIP3    H236895   7.381   5.224   8.530 -0.3222  0.3747  0.7353
 4234TIP3   OH236896   3.398   4.148   9.001 -0.6661 -0.6393 -0.6612
 4234TIP3    H136897   3.340   4.133   8.926 -0.5411 -0.9343 -0.7012
 4234TIP3    H236898   3.482   4.172   8.961 -0.4006 -1.4914 -0.6402
 4235TIP3   OH236899   1.413   4.104   8.566  0.2197  0.3701  0.6086
 4235TIP3    H136900   1.392   4.165   8.638 -0.7779  0.6501  0.0976
 4235TIP3    H236901   1.472   4.154   8.510 -0.7258  0.9586  0.1019
 4236TIP3   OH236902   4.629   3.103   7.919 -0.1520  0.6410 -0.1216
 4236TIP3    H136903   4.625   3.009   7.902 -0.3353  0.6924 -0.3711
 4236TIP3    H236904   4.722   3.125   7.917 -0.0159  0.2537  1.1017
 4237TIP3   OH236905   4.230   1.289   7.410  0.2898  0.2752 -0.5972
 4237TIP3    H136906   4.308   1.261   7.362  1.0426  1.7093 -0.2625
 4237TIP3    H236907   4.171   1.323   7.342  0.4736  0.3505 -0.7170
 4238TIP3   OH236908   0.131   4.031   8.803 -0.0773  0.3702 -0.1088
 4238TIP3    H136909   0.199   4.098   8.801  0.4740 -0.2011 -1.0255
 4238TIP3    H236910   0.170   3.959   8.853 -0.7477  0.7874  1.0660
 4239TIP3   OH236911   0.414   7.547   8.265 -0.2390 -0.3856  0.6595
 4239TIP3    H136912   0.379   7.459   8.249 -2.3292  0.9749 -3.9077
 4239TIP3    H236913   0.486   7.555   8.203 -0.8710  1.4287  0.1009
 4240TIP3   OH236914   5.849   5.466   8.370 -0.0979 -0.2564  0.3555
 4240TIP3    H136915   5.902   5.408   8.424 -1.1741 -1.2842  0.3496
 4240TIP3    H236916   5.759   5.453   8.402 -0.5688  0.2051 -0.7151
 4241TIP3   OH236917   7.655   6.199   8.477  0.0052  0.5302 -0.4226
 4241TIP3    H136918   7.606   6.151   8.411  1.0082 -0.4583 -0.4877
 4241TIP3    H236919   7.742   6.158   8.477 -0.2786 -0.2751  2.2954
 4242TIP3   OH236920   5.404   3.665   6.973 -0.8902  0.1616 -0.6892
 4242TIP3    H136921   5.401   3.696   6.883 -1.3300  0.8609 -0.4426
 4242TIP3    H236922   5.404   3.745   7.026 -2.3022 -0.2333 -0.0333
 4243TIP3   OH236923   7.025   6.675   9.360  0.9505  0.2408  0.1941
 4243TIP3    H136924   7.002   6.736   9.431  1.5034  0.2263  0.3898
 4243TIP3    H236925   6.964   6.602   9.371  0.5160  0.5959  0.1735
 4244TIP3   OH236926   1.912   2.239   9.199 -0.1502 -0.1750  0.4565
 4244TIP3    H136927   1.845   2.262   9.263 -1.7390 -1.2993 -0.7197
 4244TIP3    H236928   1.966   2.173   9.242 -1.0749 -0.7737  0.7108
 4245TIP3   OH236929   6.347   2.337   6.891  0.0049 -0.0607 -0.3227
 4245TIP3    H136930   6.350   2.323   6.796 -1.7103 -0.7928 -0.3123
 4245TIP3    H236931   6.314   2.255   6.926 -0.0182  0.4316  0.8476
 4246TIP3   OH236932   1.988   0.190   8.656  0.4628 -0.3902  0.3463
 4246TIP3    H136933   1.958   0.227   8.740 -0.1296 -1.7891  0.7793
 4246TIP3    H236934   1.918   0.210   8.594 -0.5808 -2.0408  0.9307
 4247TIP3   OH236935   2.131   2.229   6.531  0.2638 -0.2543  0.4619
 4247TIP3    H136936   2.147   2.140   6.500  1.5659 -0.1288  0.6849
 4247TIP3    H236937   2.205   2.279   6.496 -1.7282  1.3086 -1.8070
 4248TIP3   OH236938   4.661   7.415   9.297  0.0101 -0.0346  0.8432
 4248TIP3    H136939   4.647   7.491   9.353 -1.4641  1.3343 -1.2321
 4248TIP3    H236940   4.617   7.437   9.215  1.3436 -2.2705 -0.5842
 4249TIP3   OH236941   6.885   6.753   8.049 -0.3482 -0.5972 -0.0679
 4249TIP3    H136942   6.819   6.817   8.076  1.0136  0.6695  0.3724
 4249TIP3    H236943   6.856   6.723   7.963 -0.1508  1.9106 -1.1018
 4250TIP3   OH236944   7.405   2.678   8.406 -0.2732 -0.2463 -0.0388
 4250TIP3    H136945   7.339   2.618   8.441 -0.6536  0.0994 -0.1581
 4250TIP3    H236946   7.489   2.637   8.429 -0.5111 -0.1548  1.0526
 4251TIP3   OH236947   3.489   0.040   9.604  0.1705  0.2552 -0.0062
 4251TIP3    H136948   3.535  -0.023   9.548  0.1094 -0.3667  0.6287
 4251TIP3    H236949   3.400   0.042   9.571 -0.2814 -1.3131  1.0343
 4252TIP3   OH236950   3.091   7.380   8.744  0.2038  0.1979  0.1320
 4252TIP3    H136951   3.158   7.431   8.791 -0.6856 -1.3331  3.3626
 4252TIP3    H236952   3.024   7.444   8.722  0.5042  0.9721  1.3348
 4253TIP3   OH236953   6.046   6.121   9.066 -0.2630 -0.0995  0.2689
 4253TIP3    H136954   6.030   6.208   9.103 -1.4830 -0.4058  0.5134
 4253TIP3    H236955   6.135   6.100   9.093  0.2464  1.2819 -0.2298
 4254TIP3   OH236956   3.344   7.037   8.221  0.2402  0.1362 -0.0302
 4254TIP3    H136957   3.277   7.047   8.153  0.1599 -1.5665 -0.2325
 4254TIP3    H236958   3.331   6.949   8.255  3.1766 -0.7583 -0.9674
 4255TIP3   OH236959   2.852   2.170   8.920 -0.6076 -0.0701  0.0952
 4255TIP3    H136960   2.858   2.094   8.862 -0.1503  0.7712 -0.9804
 4255TIP3    H236961   2.935   2.216   8.909  0.0843 -0.6299  2.5061
 4256TIP3   OH236962   5.179   0.142   8.777  0.7690  0.0809 -0.0081
 4256TIP3    H136963   5.122   0.185   8.713 -2.1636 -0.8538  1.8028
 4256TIP3    H236964   5.165   0.049   8.763  1.0264 -0.1497  1.2048
 4257TIP3   OH236965   4.150   0.631   8.424  0.2040 -0.5748 -0.1117
 4257TIP3    H136966   4.104   0.583   8.355  0.5734 -1.4701  0.2389
 4257TIP3    H236967   4.080   0.676   8.472 -0.1808 -0.9055 -0.3515
 4258TIP3   OH236968   4.254   0.773   9.153 -0.4182 -0.3047  0.4200
 4258TIP3    H136969   4.234   0.680   9.139  1.2847 -0.4598 -1.3587
 4258TIP3    H236970   4.321   0.773   9.222 -0.1569 -0.4373  0.1692
 4259TIP3   OH236971   7.476   7.622   8.389 -0.2598  0.7275  0.1384
 4259TIP3    H136972   7.539   7.604   8.319  0.8194 -1.2643  1.5394
 4259TIP3    H236973   7.415   7.548   8.385  1.1208 -0.6528  2.6499
 4260TIP3   OH236974   1.172   6.523   8.230  0.0645 -0.0635  0.0170
 4260TIP3    H136975   1.222   6.542   8.310  0.3799  0.3533 -0.2717
 4260TIP3    H236976   1.083   6.550   8.251  0.0071 -0.5987  0.4609
 4261TIP3   OH236977   1.379   3.826   7.686  0.3485 -0.1335 -0.2763
 4261TIP3    H136978   1.352   3.843   7.596 -0.3462 -1.1253 -0.2752
 4261TIP3    H236979   1.440   3.752   7.679  0.3105 -0.1979  0.0664
 4262TIP3   OH236980   3.282   2.803   7.231  0.1851 -0.0158  0.2136
 4262TIP3    H136981   3.229   2.735   7.190 -0.4274 -0.0288  1.0171
 4262TIP3    H236982   3.341   2.757   7.290 -0.5685  0.1668  1.1330
 4263TIP3   OH236983   4.905   1.227   7.751  0.1569 -0.2593  0.3200
 4263TIP3    H136984   4.895   1.299   7.690  1.0541 -0.8226 -0.5266
 4263TIP3    H236985   4.998   1.229   7.775 -0.0784 -0.3607  1.2697
 4264TIP3   OH236986   6.089   4.371   8.689  0.1624  0.2525 -0.4268
 4264TIP3    H136987   6.124   4.337   8.771  1.1135  0.5720 -0.6837
 4264TIP3    H236988   6.122   4.461   8.684  1.2279 -0.1715 -1.7695
 4265TIP3   OH236989   7.253   6.118   9.377 -0.2272  0.5204  0.1091
 4265TIP3    H136990   7.346   6.119   9.397 -0.2744 -1.6728  0.6941
 4265TIP3    H236991   7.249   6.139   9.284  0.7287  1.7868  0.3227
 4266TIP3   OH236992   6.674   3.121   8.805  0.5250 -0.1462 -0.0891
 4266TIP3    H136993   6.621   3.198   8.822 -0.6975 -0.6866 -1.2548
 4266TIP3    H236994   6.677   3.115   8.709  0.9140 -1.3257 -0.0196
 4267TIP3   OH236995   6.922   6.284   8.337 -0.3617 -0.3550  0.1884
 4267TIP3    H136996   6.954   6.362   8.293 -1.3143 -0.3882 -0.5951
 4267TIP3    H236997   6.975   6.212   8.300 -0.4174 -0.2465 -0.1052
 4268TIP3   OH236998   4.671   3.015   8.645  0.0116  0.2963  0.3071
 4268TIP3    H136999   4.655   3.046   8.556  0.6813  0.1382  0.1242
 4268TIP3    H237000   4.598   2.957   8.665  0.6236 -0.8456 -0.6984
 4269TIP3   OH237001   4.931   6.074   7.343  0.1099  0.2167 -0.0988
 4269TIP3    H137002   4.942   6.032   7.258  2.1839 -0.6033  0.5152
 4269TIP3    H237003   5.019   6.075   7.381 -0.2495  3.0398  0.9033
 4270TIP3   OH237004   1.918   3.494   8.896 -0.4003 -0.2116 -0.2721
 4270TIP3    H137005   1.848   3.551   8.865 -0.8849 -0.1731  0.8401
 4270TIP3    H237006   1.938   3.526   8.984 -0.2594 -1.3614  0.1358
 4271TIP3   OH237007   5.987   7.243   6.959 -0.0344 -0.1063 -0.7499
 4271TIP3    H137008   5.964   7.323   6.911 -1.6027  0.6831  1.1790
 4271TIP3    H237009   6.073   7.218   6.925  0.2375  2.0921 -1.8113
 4272TIP3   OH237010   4.255   3.689   7.898  0.3636  0.1717 -0.5637
 4272TIP3    H137011   4.211   3.710   7.816  0.9877 -0.5062 -1.0803
 4272TIP3    H237012   4.348   3.685   7.876  0.6849  1.2740  0.4423
 4273TIP3   OH237013   6.254   3.195   8.035  0.2844 -0.5986  0.3785
 4273TIP3    H137014   6.180   3.218   8.091 -0.8174 -0.1824 -1.1863
 4273TIP3    H237015   6.326   3.250   8.066 -0.8802  1.1682  0.0220
 4274TIP3   OH237016   2.395   4.284   9.367  0.2612  0.0671  0.4369
 4274TIP3    H137017   2.393   4.372   9.403  0.6572 -0.0776  0.8310
 4274TIP3    H237018   2.348   4.231   9.431 -1.8333  0.3259 -0.8119
 4275TIP3   OH237019   5.938   0.268   8.739  0.1059 -0.4625 -0.1137
 4275TIP3    H137020   5.943   0.327   8.815 -0.4304  1.2808 -1.3713
 4275TIP3    H237021   5.858   0.294   8.694  0.9234 -0.7905 -1.8157
 4276TIP3   OH237022   1.535   0.355   8.888  0.2293  0.4085 -0.4318
 4276TIP3    H137023   1.549   0.272   8.934  2.5838  1.4324  0.8971
 4276TIP3    H237024   1.497   0.330   8.804 -1.2934 -1.8056  0.8232
 4277TIP3   OH237025   2.867   3.679   6.599 -0.6148  0.2544  0.4262
 4277TIP3    H137026   2.784   3.635   6.578 -1.2375  1.5776  0.0231
 4277TIP3    H237027   2.853   3.718   6.685 -1.2508  2.3796 -0.5787
 4278TIP3   OH237028   5.634   5.335   6.667  0.3773  0.2065 -0.2955
 4278TIP3    H137029   5.571   5.305   6.602 -2.8267  1.1324  2.1537
 4278TIP3    H237030   5.626   5.431   6.666  0.3453  0.2541  1.2863
 4279TIP3   OH237031   0.947   5.386   7.218  0.0559 -0.1415 -0.4929
 4279TIP3    H137032   0.945   5.335   7.137 -1.3941 -0.1577 -0.4665
 4279TIP3    H237033   0.981   5.471   7.191 -1.5055  0.2472 -1.3801
 4280TIP3   OH237034   7.086   4.538   8.553  0.5642 -0.5454 -0.0351
 4280TIP3    H137035   7.119   4.627   8.537  0.7491 -0.6978 -0.5153
 4280TIP3    H237036   7.111   4.489   8.475  0.6036 -1.0609  0.2997
 4281TIP3   OH237037   0.076   6.083   8.972 -0.0926  0.1841 -0.5300
 4281TIP3    H137038   0.083   6.015   8.905  2.7269 -0.3195  0.1638
 4281TIP3    H237039   0.161   6.128   8.969 -0.5737  1.3357  1.4758
 4282TIP3   OH237040   6.490   5.900   6.685  0.0656 -0.0490 -0.0658
 4282TIP3    H137041   6.512   5.922   6.594 -0.3358  0.2759 -0.0857
 4282TIP3    H237042   6.480   5.985   6.728 -0.4495 -0.1985  0.1134
 4283TIP3   OH237043   1.751   6.464   8.049 -0.2078 -0.2738 -0.0325
 4283TIP3    H137044   1.786   6.443   7.962 -0.7629  0.0017 -0.3370
 4283TIP3    H237045   1.730   6.558   8.043 -0.7385 -0.3707  0.2150
 4284TIP3   OH237046   4.525   0.086   8.679  0.4492  0.0835 -0.0138
 4284TIP3    H137047   4.451   0.057   8.625  0.8374 -0.6294 -0.1854
 4284TIP3    H237048   4.491   0.082   8.768  0.3093 -0.3687 -0.0792
 4285TIP3   OH237049   5.109   3.880   7.319 -0.4800 -0.3060 -0.3961
 4285TIP3    H137050   5.159   3.956   7.289 -0.1009 -0.6477 -0.6484
 4285TIP3    H237051   5.093   3.829   7.239 -0.2991 -0.7402 -0.1575
 4286TIP3   OH237052   0.959   4.652   6.395 -0.4749 -0.1023  0.0108
 4286TIP3    H137053   1.031   4.636   6.456  0.1794  0.8791 -0.4638
 4286TIP3    H237054   0.922   4.735   6.424 -0.4348  0.1513 -0.6505
 4287TIP3   OH237055   0.230   4.887   7.790 -0.1451  1.1314  0.1878
 4287TIP3    H137056   0.268   4.905   7.703 -1.4328  1.0710 -0.4045
 4287TIP3    H237057   0.148   4.841   7.771 -2.0829  3.9156  1.2757
 4288TIP3   OH237058   4.238   4.458   9.200  0.3344  0.1277 -0.2871
 4288TIP3    H137059   4.332   4.447   9.185  0.5296  0.2898  0.7596
 4288TIP3    H237060   4.202   4.480   9.114  1.4628  1.4551 -0.4441
 4289TIP3   OH237061   5.304   3.425   6.879 -0.4547 -0.1260 -0.1936
 4289TIP3    H137062   5.307   3.504   6.933  2.9426 -0.9907  1.1678
 4289TIP3    H237063   5.244   3.367   6.926  0.3344  0.1413  1.2171
 4290TIP3   OH237064   6.304   1.742   9.261 -0.2130  0.0543  0.1658
 4290TIP3    H137065   6.386   1.752   9.212  0.3416 -1.3028  0.7667
 4290TIP3    H237066   6.320   1.790   9.343 -0.6721  1.2402 -0.4158
 4291TIP3   OH237067   0.523   3.662   7.881 -0.2610  0.4319 -0.3103
 4291TIP3    H137068   0.587   3.713   7.829  1.0957  0.9915  1.7943
 4291TIP3    H237069   0.571   3.583   7.907 -0.8480  0.2542  0.2464
 4292TIP3   OH237070   1.580   7.240   8.757 -0.1517  0.2181  0.2335
 4292TIP3    H137071   1.650   7.179   8.733  0.8338 -0.0612  3.4040
 4292TIP3    H237072   1.566   7.293   8.678  2.1753 -1.0798 -1.1487
 4293TIP3   OH237073   4.455   2.718   8.153 -0.0474 -0.5571  0.0212
 4293TIP3    H137074   4.519   2.753   8.090  0.4207 -0.2114  0.6805
 4293TIP3    H237075   4.416   2.795   8.193  0.9594 -0.7521  1.4552
 4294TIP3   OH237076   0.388   5.153   7.704 -0.1693 -0.0100 -0.8475
 4294TIP3    H137077   0.444   5.124   7.776 -0.8131  0.8194  0.0215
 4294TIP3    H237078   0.302   5.166   7.745 -0.6697 -0.0046 -1.8749
 4295TIP3   OH237079   4.940   2.323   8.760 -0.2095  0.0419  0.7344
 4295TIP3    H137080   5.015   2.355   8.809 -0.7482  2.6529  0.0283
 4295TIP3    H237081   4.870   2.315   8.825 -0.2819  1.1749  0.8093
 4296TIP3   OH237082   5.613   6.172   9.184 -0.2180  0.1210  0.2629
 4296TIP3    H137083   5.525   6.208   9.171  0.0681  0.7081 -0.0712
 4296TIP3    H237084   5.624   6.168   9.279 -1.6429 -2.5260  0.4066
 4297TIP3   OH237085   1.496   6.223   8.653 -0.1952 -0.1951  0.1871
 4297TIP3    H137086   1.441   6.155   8.614  0.1118 -0.4139  0.1272
 4297TIP3    H237087   1.564   6.239   8.588 -0.0632 -0.0821  0.3519
 4298TIP3   OH237088   6.415   1.407   8.779  0.0131 -0.1849  0.2525
 4298TIP3    H137089   6.498   1.363   8.761 -0.8003 -1.1400 -1.3940
 4298TIP3    H237090   6.399   1.392   8.872  0.9625 -1.2731  0.2568
 4299TIP3   OH237091   6.416   3.341   8.233 -0.4048  0.0870  0.7374
 4299TIP3    H137092   6.406   3.331   8.328 -1.1786 -0.8731  0.5670
 4299TIP3    H237093   6.479   3.273   8.209 -0.1852  0.3507  0.5603
 4300TIP3   OH237094   4.646   1.660   9.345 -0.2408  0.4183 -0.5213
 4300TIP3    H137095   4.553   1.677   9.364 -0.5277 -2.3000  1.0310
 4300TIP3    H237096   4.647   1.574   9.304  1.5146  1.1143 -2.0639
 4301TIP3   OH237097   0.715   0.520   7.221 -0.3158  0.5017 -0.1265
 4301TIP3    H137098   0.780   0.552   7.159  0.0305 -0.8731 -0.5044
 4301TIP3    H237099   0.766   0.472   7.287 -0.7913  0.9121  0.5546
 4302TIP3   OH237100   4.450   6.922   9.040  0.4289 -0.5151  0.1878
 4302TIP3    H137101   4.470   6.965   9.124  0.6259 -1.8399  0.8358
 4302TIP3    H237102   4.520   6.952   8.981 -1.1127  2.4749 -0.2977
 4303TIP3   OH237103   6.122   3.232   8.747  0.0288  0.0332  0.2554
 4303TIP3    H137104   6.051   3.289   8.715  0.4029 -0.3731 -1.3465
 4303TIP3    H237105   6.167   3.203   8.668 -0.0094 -2.3279  1.0376
 4304TIP3   OH237106   3.403   5.621   7.279  0.5668 -0.3052  0.1593
 4304TIP3    H137107   3.330   5.634   7.339 -0.5077  0.8534 -1.3175
 4304TIP3    H237108   3.477   5.663   7.322  0.0885 -0.4278  1.1319
 4305TIP3   OH237109   6.927   3.491   9.038 -0.5739  0.6035 -0.0542
 4305TIP3    H137110   7.015   3.529   9.040 -1.3476  2.5185  0.2027
 4305TIP3    H237111   6.927   3.434   8.962  2.1222 -2.8117  2.1821
 4306TIP3   OH237112   2.774   1.715   6.477  0.3874  0.1348 -0.1051
 4306TIP3    H137113   2.797   1.772   6.550 -0.1431 -1.5549  1.4568
 4306TIP3    H237114   2.772   1.627   6.515 -0.5600 -0.7211 -2.0115
 4307TIP3   OH237115   3.426   5.435   9.247 -0.2244  0.0524 -0.1945
 4307TIP3    H137116   3.507   5.407   9.204 -1.0780 -1.8816 -0.6895
 4307TIP3    H237117   3.437   5.529   9.261  2.7987 -0.4233  1.3570
 4308TIP3   OH237118   6.418   2.831   6.528 -0.4316  0.3477 -0.0113
 4308TIP3    H137119   6.370   2.911   6.548  0.0605  0.5876  0.2397
 4308TIP3    H237120   6.469   2.813   6.608 -1.7483 -1.1100  0.5563
 4309TIP3   OH237121   1.826   2.172   8.713  0.0706  0.1841 -0.0752
 4309TIP3    H137122   1.774   2.104   8.671  0.9729 -0.2851 -0.4570
 4309TIP3    H237123   1.798   2.253   8.670  0.1168 -0.1439 -0.7368
 4310TIP3   OH237124   4.074   3.534   8.659  0.0336  0.0112  0.3588
 4310TIP3    H137125   4.137   3.533   8.732  1.3350  0.2824 -0.7301
 4310TIP3    H237126   4.077   3.445   8.624 -0.8238 -0.2040  0.8076
 4311TIP3   OH237127   6.627   6.144   9.072  0.0696  0.7812 -0.3487
 4311TIP3    H137128   6.681   6.185   9.005  1.4876  1.7341  1.3106
 4311TIP3    H237129   6.595   6.217   9.126 -1.0876  0.0451  0.0069
 4312TIP3   OH237130   2.395   3.045   9.214  0.1019 -0.0365  0.6150
 4312TIP3    H137131   2.455   3.072   9.144  0.1279 -0.1709  0.5859
 4312TIP3    H237132   2.395   2.949   9.210  1.7219 -0.1314  2.1829
 4313TIP3   OH237133   5.802   3.522   7.308  0.1910  0.0918  0.2444
 4313TIP3    H137134   5.845   3.448   7.350  0.2306 -0.1497 -0.2176
 4313TIP3    H237135   5.713   3.521   7.342  0.1389 -0.2815  0.1001
 4314TIP3   OH237136   5.323   1.567   9.434  0.3502 -0.2146  0.2403
 4314TIP3    H137137   5.359   1.479   9.447 -0.4943 -0.8551 -1.4146
 4314TIP3    H237138   5.270   1.559   9.354 -0.7021  1.5117  0.7165
 4315TIP3   OH237139   0.286   3.589   8.705 -0.6085  0.3897  0.3703
 4315TIP3    H137140   0.294   3.578   8.610  1.1563  0.2899  0.4972
 4315TIP3    H237141   0.201   3.633   8.717 -1.5979 -0.9928 -1.1130
 4316TIP3   OH237142   2.056   2.639   6.894 -0.0420  0.1654 -0.4628
 4316TIP3    H137143   2.037   2.689   6.974  1.3141 -1.3607  0.8683
 4316TIP3    H237144   2.147   2.659   6.875  0.2288 -1.0206 -0.4676
 4317TIP3   OH237145   6.421   2.248   9.019  0.5071 -0.4724  0.7422
 4317TIP3    H137146   6.434   2.342   9.030 -0.8593  0.0758 -1.6783
 4317TIP3    H237147   6.505   2.217   8.984  1.1368 -0.3069  2.0236
 4318TIP3   OH237148   3.330   7.279   7.751 -0.9342  0.1342 -0.3230
 4318TIP3    H137149   3.268   7.297   7.823 -0.9864  0.5684 -0.4688
 4318TIP3    H237150   3.303   7.194   7.717 -1.0572  0.0318  0.0250
 4319TIP3   OH237151   5.295   7.652   9.551 -0.0404 -0.3450  0.6693
 4319TIP3    H137152   5.315   7.591   9.622  2.0493 -1.3578 -0.7290
 4319TIP3    H237153   5.368   7.714   9.551 -0.5644  0.2974  0.0379
 4320TIP3   OH237154   3.216   1.657   8.779  0.0785 -0.0986  0.3335
 4320TIP3    H137155   3.260   1.666   8.694  2.0750  2.6812  1.5357
 4320TIP3    H237156   3.125   1.676   8.760  0.5225  0.7756 -1.1533
 4321TIP3   OH237157   4.233   6.709   9.621  0.2960  0.3282 -0.2696
 4321TIP3    H137158   4.181   6.629   9.626 -0.5416  0.9079  0.7854
 4321TIP3    H237159   4.307   6.686   9.565 -0.9243 -0.6093 -1.5665
 4322TIP3   OH237160   4.235   1.943   8.014 -0.3075  0.9652  0.5253
 4322TIP3    H137161   4.194   1.903   8.090  0.6039 -0.9501  0.0591
 4322TIP3    H237162   4.171   1.935   7.944 -0.2277  0.5519  0.4997
 4323TIP3   OH237163   5.341   1.350   7.827  0.2850  0.3497 -0.3801
 4323TIP3    H137164   5.393   1.286   7.780  0.2488 -0.8275  1.1181
 4323TIP3    H237165   5.290   1.395   7.759  0.8892 -0.6611 -1.5247
 4324TIP3   OH237166   0.753   4.638   8.912 -0.2812 -0.2678  0.2210
 4324TIP3    H137167   0.722   4.620   9.001 -0.3474 -0.4258  0.1660
 4324TIP3    H237168   0.683   4.605   8.855 -1.4075  2.0707  0.1386
 4325TIP3   OH237169   4.266   6.800   7.237  0.0491 -0.2295 -0.3800
 4325TIP3    H137170   4.297   6.849   7.161  1.7839 -1.8482 -0.7976
 4325TIP3    H237171   4.182   6.763   7.208  0.1450  0.0966 -1.1103
 4326TIP3   OH237172   7.009   0.705   9.260 -0.0258 -0.0525 -0.2675
 4326TIP3    H137173   7.050   0.790   9.241  0.6012 -0.3324 -0.1745
 4326TIP3    H237174   6.920   0.727   9.287  0.5801  0.6904  1.2455
 4327TIP3   OH237175   6.611   3.577   8.643  0.1130 -0.1185 -0.1947
 4327TIP3    H137176   6.519   3.583   8.616  0.1773  0.8108 -0.2241
 4327TIP3    H237177   6.618   3.491   8.685 -0.3557 -0.9521 -1.7322
 4328TIP3   OH237178   3.102   5.390   7.528 -0.1976 -0.4357  0.6821
 4328TIP3    H137179   3.195   5.373   7.544 -0.1882  0.1956  1.3152
 4328TIP3    H237180   3.056   5.333   7.589 -0.3672 -3.5124 -2.0470
 4329TIP3   OH237181   5.669   2.631   9.105 -0.5957 -0.3588 -0.1915
 4329TIP3    H137182   5.580   2.655   9.078  0.1689 -0.3939 -3.0589
 4329TIP3    H237183   5.657   2.552   9.157 -2.2157 -1.1260 -1.5891
 4330TIP3   OH237184   6.983   3.533   8.594  0.3236 -0.0181 -0.0217
 4330TIP3    H137185   7.035   3.609   8.621  0.0283  0.0071  0.5016
 4330TIP3    H237186   6.936   3.562   8.516  2.5211 -0.6476 -1.6532
 4331TIP3   OH237187   4.384   5.155   8.596 -0.0423  0.1659 -0.3822
 4331TIP3    H137188   4.474   5.188   8.586 -0.5206  1.7364  0.1511
 4331TIP3    H237189   4.352   5.145   8.506  0.7346 -0.6569 -0.5811
 4332TIP3   OH237190   7.137   1.013   8.897  0.3460 -0.8167  0.5483
 4332TIP3    H137191   7.223   1.056   8.904 -0.6273  1.0211  2.4977
 4332TIP3    H237192   7.093   1.058   8.825 -0.0908  0.4906  1.5864
 4333TIP3   OH237193   0.813   7.303   9.273  0.4738  0.3513 -0.3640
 4333TIP3    H137194   0.725   7.308   9.311  0.5368 -1.7540  0.1957
 4333TIP3    H237195   0.826   7.389   9.232 -1.5900  0.9303  0.0468
 4334TIP3   OH237196   0.946   1.548   6.638  0.1946  0.3261  0.0813
 4334TIP3    H137197   0.904   1.525   6.555 -1.0512 -0.2467  0.8420
 4334TIP3    H237198   0.914   1.482   6.700  1.7901  0.2156  0.8262
 4335TIP3   OH237199   5.433   5.472   9.556 -0.3787  0.1975 -0.7152
 4335TIP3    H137200   5.515   5.498   9.514  1.3945  0.0183  2.2876
 4335TIP3    H237201   5.403   5.552   9.599  1.0416 -0.7335  2.3060
 4336TIP3   OH237202   4.694   3.822   7.299 -0.2728 -0.2041  0.3171
 4336TIP3    H137203   4.774   3.839   7.249 -0.5081  2.0204  0.5917
 4336TIP3    H237204   4.651   3.751   7.252  1.6983 -1.2737 -0.0057
 4337TIP3   OH237205   4.406   4.567   8.888  0.0483  0.1487  0.0891
 4337TIP3    H137206   4.392   4.658   8.914 -1.0284 -0.6617  2.7649
 4337TIP3    H237207   4.485   4.541   8.934 -0.0239 -0.4354 -0.1107
 4338TIP3   OH237208   2.128   0.005   7.849  0.3683 -0.1802 -0.0865
 4338TIP3    H137209   2.102   0.033   7.761  0.3802 -1.0399 -0.3684
 4338TIP3    H237210   2.056  -0.051   7.879 -0.7386  1.8648  1.3713
 4339TIP3   OH237211   3.293   4.555   9.202  0.5915 -0.2284 -0.3167
 4339TIP3    H137212   3.316   4.474   9.248 -1.0151 -0.8987 -0.6291
 4339TIP3    H237213   3.299   4.533   9.109 -0.9051 -0.3454 -0.4117
 4340TIP3   OH237214   1.173   1.809   7.319  0.6335 -0.5207  0.4623
 4340TIP3    H137215   1.225   1.816   7.239 -0.9287  3.1559 -0.4140
 4340TIP3    H237216   1.221   1.862   7.383 -0.4843  0.4399  0.5244
 4341TIP3   OH237217   2.886   2.848   9.102 -0.1008  0.2192  0.4830
 4341TIP3    H137218   2.829   2.913   9.144 -2.0479 -0.3385 -1.1481
 4341TIP3    H237219   2.844   2.764   9.119 -0.8901 -0.0540 -2.2697
 4342TIP3   OH237220   1.322   1.892   9.065  0.1132  0.1862  0.3367
 4342TIP3    H137221   1.376   1.883   9.144 -0.0065 -0.0772  0.3905
 4342TIP3    H237222   1.364   1.961   9.014  0.7423 -0.3048  0.1807
 4343TIP3   OH237223   5.109   2.809   7.981 -0.3501  0.3632 -0.2800
 4343TIP3    H137224   5.087   2.879   7.919 -1.8022  0.0124 -0.1949
 4343TIP3    H237225   5.142   2.738   7.926 -1.0535  0.2781 -0.5995
 4344TIP3   OH237226   7.543   0.356   7.214  0.1258  0.3222  0.8470
 4344TIP3    H137227   7.509   0.272   7.244 -0.1562 -0.0411 -0.4099
 4344TIP3    H237228   7.501   0.370   7.129 -0.2102  1.9770  1.2496
 4345TIP3   OH237229   7.467   2.813   7.721 -0.2049 -0.6180 -0.4817
 4345TIP3    H137230   7.527   2.883   7.744  0.9236 -1.5595 -0.4850
 4345TIP3    H237231   7.392   2.824   7.780  0.1493  0.3184 -0.2001
 4346TIP3   OH237232   6.442   4.615   7.510  0.7552 -0.5579 -0.4358
 4346TIP3    H137233   6.517   4.659   7.550  0.7179 -0.4194 -0.5175
 4346TIP3    H237234   6.375   4.617   7.578  1.2151 -1.7578  0.0765
 4347TIP3   OH237235   4.961   5.557   8.916  0.3229 -1.2438 -0.3910
 4347TIP3    H137236   4.891   5.590   8.971  0.6794  0.4828 -0.8974
 4347TIP3    H237237   4.944   5.463   8.907 -2.7571 -0.6600 -1.6879
 4348TIP3   OH237238   5.793   4.664   8.428  0.4355 -0.4512 -0.3161
 4348TIP3    H137239   5.704   4.629   8.420 -0.2086  0.8424  0.7658
 4348TIP3    H237240   5.846   4.588   8.452 -0.4552 -1.1610 -0.5364
 4349TIP3   OH237241   6.782   1.795   7.685  0.5538  0.4222 -0.1094
 4349TIP3    H137242   6.810   1.837   7.604  0.3988 -0.0470 -0.4113
 4349TIP3    H237243   6.783   1.865   7.750 -1.6513  1.4128 -1.0298
 4350TIP3   OH237244   3.804   0.633   7.479  0.1571 -0.1999 -0.2455
 4350TIP3    H137245   3.759   0.699   7.426 -1.0865 -0.7539  0.0903
 4350TIP3    H237246   3.745   0.558   7.480  1.1366 -0.9899  0.1425
 4351TIP3   OH237247   1.933   0.520   8.369 -0.5181  0.6062 -0.1608
 4351TIP3    H137248   1.847   0.517   8.326 -0.9458  0.4072  0.6698
 4351TIP3    H237249   1.971   0.603   8.341 -0.3186  0.0167 -1.7394
 4352TIP3   OH237250   6.706   1.794   9.260 -0.1423  0.5076  0.1264
 4352TIP3    H137251   6.708   1.861   9.328 -0.4585  0.5360  0.1092
 4352TIP3    H237252   6.657   1.721   9.299  1.9417 -0.5546  0.9086
 4353TIP3   OH237253   3.444   0.587   9.145  0.0056  0.0176 -0.0015
 4353TIP3    H137254   3.490   0.657   9.099  0.1738 -0.8982 -1.2703
 4353TIP3    H237255   3.508   0.551   9.206  0.2613  0.2491 -0.1364
 4354TIP3   OH237256   1.775   3.838   7.188 -0.5210  0.1285 -0.1257
 4354TIP3    H137257   1.749   3.760   7.139 -1.2479  1.1020 -1.3422
 4354TIP3    H237258   1.774   3.909   7.124  1.0869  0.9971  0.7249
 4355TIP3   OH237259   3.517   4.147   7.091  0.2563  0.1382 -0.3021
 4355TIP3    H137260   3.555   4.110   7.011  0.3490  2.7627 -1.5710
 4355TIP3    H237261   3.581   4.212   7.120  0.0748 -0.5445  1.8069
 4356TIP3   OH237262   2.842   4.178   9.018 -0.4062 -0.7191 -0.3196
 4356TIP3    H137263   2.772   4.175   9.084  0.2221  1.3430  0.5521
 4356TIP3    H237264   2.921   4.153   9.066 -0.0727  0.0419 -0.4446
 4357TIP3   OH237265   5.064   3.176   6.640 -0.5617 -0.0802  0.1110
 4357TIP3    H137266   5.135   3.240   6.633 -0.5585 -0.2188 -1.3345
 4357TIP3    H237267   5.105   3.098   6.678  0.3547 -0.5564 -1.7574
 4358TIP3   OH237268   7.585   0.510   8.853 -0.0445 -0.1867  0.5829
 4358TIP3    H137269   7.532   0.440   8.815  0.2682 -0.8352  1.3128
 4358TIP3    H237270   7.536   0.540   8.929 -0.0799  0.2616  0.3883
 4359TIP3   OH237271   4.837   7.610   9.782 -0.3643  0.1054 -0.0842
 4359TIP3    H137272   4.927   7.579   9.774  0.0866  0.5722  2.3130
 4359TIP3    H237273   4.798   7.553   9.848 -1.2523  1.0257  0.2159
 4360TIP3   OH237274   2.420   2.732   8.039 -0.0045  0.5578  0.6747
 4360TIP3    H137275   2.441   2.664   7.976  1.5933  1.3020  0.3506
 4360TIP3    H237276   2.325   2.737   8.039 -0.0806 -0.6096 -0.4268
 4361TIP3   OH237277   1.172   6.610   8.850 -0.5218  0.3106  0.0325
 4361TIP3    H137278   1.165   6.559   8.769 -0.8957  0.6340 -0.1405
 4361TIP3    H237279   1.260   6.647   8.848 -0.4975  0.2454 -0.1852
 4362TIP3   OH237280   0.960   5.698   9.430 -0.0362 -0.5083 -0.0917
 4362TIP3    H137281   0.969   5.605   9.410 -1.4202 -0.8363  0.6426
 4362TIP3    H237282   1.028   5.716   9.495  0.2227 -1.0117 -0.2210
 4363TIP3   OH237283   4.328   3.481   8.138 -0.1444  0.0781 -0.0405
 4363TIP3    H137284   4.313   3.559   8.085  2.6559 -0.0400 -1.1788
 4363TIP3    H237285   4.346   3.412   8.075  0.5811 -0.7209  1.0013
 4364TIP3   OH237286   4.805   6.319   7.378 -0.1349  0.7745  0.2184
 4364TIP3    H137287   4.849   6.387   7.429 -0.5376  1.0715  0.1703
 4364TIP3    H237288   4.846   6.238   7.407  0.5051  1.0530  0.1187
 4365TIP3   OH237289   7.216   4.075   8.993  0.0391  0.0412 -0.2436
 4365TIP3    H137290   7.275   4.075   8.918  1.6793 -1.9712  0.9318
 4365TIP3    H237291   7.146   4.015   8.968  0.6953 -0.7960 -0.1465
 4366TIP3   OH237292   0.271   1.253   8.493  0.3023 -0.6489 -0.1055
 4366TIP3    H137293   0.266   1.186   8.562 -2.0606  0.6722  1.1668
 4366TIP3    H237294   0.234   1.210   8.416  0.0043 -1.2175  0.3396
 4367TIP3   OH237295   1.848   5.615   8.411 -0.2096  0.2993  0.6564
 4367TIP3    H137296   1.795   5.638   8.488 -1.4995 -2.3186  0.6525
 4367TIP3    H237297   1.784   5.601   8.342  0.8700  1.4240 -0.6362
 4368TIP3   OH237298   5.628   2.477   8.497  0.1482 -0.3463 -0.0944
 4368TIP3    H137299   5.538   2.473   8.529  0.3633  0.8198  0.7309
 4368TIP3    H237300   5.634   2.406   8.433 -0.8308 -1.5738  1.1117
 4369TIP3   OH237301   2.753   6.421   8.139 -0.9801  0.1013  0.4374
 4369TIP3    H137302   2.747   6.488   8.071 -1.1839 -1.1170 -0.7768
 4369TIP3    H237303   2.845   6.396   8.141 -1.4636 -2.3825 -1.9876
 4370TIP3   OH237304   1.148   0.984   9.097 -0.4401  0.0122  0.2752
 4370TIP3    H137305   1.184   1.055   9.150  0.4275 -0.0583 -0.1960
 4370TIP3    H237306   1.135   1.022   9.011 -1.0822 -0.0911  0.3192
 4371TIP3   OH237307   5.789   5.955   9.277  0.2525  0.5819 -0.3689
 4371TIP3    H137308   5.698   5.936   9.300  0.4017 -1.3377 -1.1855
 4371TIP3    H237309   5.834   5.871   9.285  1.9882  1.5029  0.0686
 4372TIP3   OH237310   5.311   3.471   8.576 -0.0264  0.0093 -0.2595
 4372TIP3    H137311   5.238   3.429   8.622 -0.5736  0.6937 -0.4904
 4372TIP3    H237312   5.369   3.501   8.646 -0.8957  1.1241  0.0077
 4373TIP3   OH237313   3.020   5.584   8.552 -0.0029  0.5106  0.0801
 4373TIP3    H137314   3.060   5.657   8.598  1.0555  0.9691 -1.4768
 4373TIP3    H237315   3.062   5.584   8.466  0.3657 -2.2312  0.1804
 4374TIP3   OH237316   5.642   3.853   8.090 -0.6935  0.4278  0.0475
 4374TIP3    H137317   5.712   3.907   8.127 -0.5821 -0.3322  0.9774
 4374TIP3    H237318   5.642   3.774   8.143 -1.1904 -0.2796 -0.9782
 4375TIP3   OH237319   3.196   1.798   9.007 -0.1481 -0.9178 -0.3990
 4375TIP3    H137320   3.261   1.861   8.974 -1.2914  0.0674 -0.8272
 4375TIP3    H237321   3.195   1.728   8.942  1.0862 -1.3885  0.0477
 4376TIP3   OH237322   6.191   6.461   7.636  0.0209 -0.4396  0.2221
 4376TIP3    H137323   6.121   6.460   7.570  0.7656 -1.3806 -0.5882
 4376TIP3    H237324   6.233   6.546   7.624 -1.1828  0.2933  0.9646
 4377TIP3   OH237325   5.638   2.771   7.521 -0.0263  0.1225  0.0114
 4377TIP3    H137326   5.619   2.852   7.474  0.1858  0.2374  0.1235
 4377TIP3    H237327   5.570   2.709   7.491 -1.4348  0.9165  1.3985
 4378TIP3   OH237328   7.203   3.315   7.441  0.1376  0.0358 -0.5737
 4378TIP3    H137329   7.237   3.264   7.514  1.0347 -1.4246 -1.9472
 4378TIP3    H237330   7.225   3.406   7.463  2.1661 -0.5492  0.0672
 4379TIP3   OH237331   4.294   4.903   6.996 -0.0585  0.1310  0.0996
 4379TIP3    H137332   4.266   4.876   6.909 -1.2571 -0.3244  0.6108
 4379TIP3    H237333   4.323   4.994   6.985 -2.6212  0.9584 -0.3037
 4380TIP3   OH237334   1.696   4.234   8.832 -0.1357 -0.1146  0.1670
 4380TIP3    H137335   1.649   4.289   8.769  1.4828  0.5704 -0.4808
 4380TIP3    H237336   1.713   4.292   8.906  2.3360  0.5994 -0.8717
 4381TIP3   OH237337   7.623   7.182   8.217 -0.1345  0.2517  0.3740
 4381TIP3    H137338   7.593   7.226   8.296  1.5806  0.4110  0.9735
 4381TIP3    H237339   7.594   7.239   8.146  0.1750  1.2453  1.0160
 4382TIP3   OH237340   1.808   2.099   7.194 -0.6743  0.0504 -0.1002
 4382TIP3    H137341   1.834   2.018   7.149  0.1684  0.6155 -0.6483
 4382TIP3    H237342   1.890   2.139   7.222 -1.1482  0.1714  1.1587
 4383TIP3   OH237343   3.217   1.356   8.424 -0.0638 -0.3535 -0.1525
 4383TIP3    H137344   3.198   1.428   8.483 -0.2319  0.0319 -0.6664
 4383TIP3    H237345   3.237   1.398   8.340 -2.0417 -0.9407 -0.9794
 4384TIP3   OH237346   0.617   2.515   7.015 -0.0891 -0.1060 -0.0001
 4384TIP3    H137347   0.624   2.450   6.946 -1.0689  1.1747 -1.3746
 4384TIP3    H237348   0.531   2.556   7.001  0.9512  2.2655  0.0401
 4385TIP3   OH237349   4.685   4.207   8.831 -1.3182  0.1913  0.7933
 4385TIP3    H137350   4.646   4.151   8.899 -1.5625 -0.1565  0.3692
 4385TIP3    H237351   4.676   4.157   8.750  2.1810 -1.0545  0.9979
 4386TIP3   OH237352   6.461   5.095   7.211  0.3235 -0.1069 -0.8001
 4386TIP3    H137353   6.367   5.113   7.212  0.0766 -1.2940 -0.0915
 4386TIP3    H237354   6.501   5.168   7.257 -0.4046 -0.2510  0.0767
 4387TIP3   OH237355   5.640   5.213   7.830  0.8458  0.2399 -0.0942
 4387TIP3    H137356   5.578   5.211   7.903 -0.0874  1.3210 -0.8351
 4387TIP3    H237357   5.680   5.126   7.831 -0.7564 -0.5268  0.3437
 4388TIP3   OH237358   5.292   3.396   6.619  0.5499  0.1809  0.3558
 4388TIP3    H137359   5.283   3.394   6.714 -2.1288 -1.9720  0.1886
 4388TIP3    H237360   5.376   3.439   6.603  0.8477  1.0406  3.6481
 4389TIP3   OH237361   7.603   2.844   8.211 -0.3883  0.4121 -0.7296
 4389TIP3    H137362   7.574   2.885   8.130  0.2769  0.2492 -1.0515
 4389TIP3    H237363   7.617   2.752   8.189 -2.5267 -0.1911  0.1414
 4390TIP3   OH237364   7.384   5.895   7.316 -0.3397 -0.2762 -0.5125
 4390TIP3    H137365   7.357   5.898   7.224 -0.3158  0.5943 -0.4950
 4390TIP3    H237366   7.304   5.909   7.366 -0.3914 -0.9777 -0.3881
 4391TIP3   OH237367   5.490   7.438   7.613 -0.1977  0.3177 -0.1582
 4391TIP3    H137368   5.575   7.482   7.616 -0.6037  1.0664  0.5712
 4391TIP3    H237369   5.453   7.451   7.701  0.5184 -3.1631  0.8336
 4392TIP3   OH237370   0.667   1.101   7.995  0.4065  0.4800 -0.7056
 4392TIP3    H137371   0.641   1.186   8.032  2.6852  0.6531  0.7305
 4392TIP3    H237372   0.743   1.121   7.940  0.2773 -0.4924 -1.2634
 4393TIP3   OH237373   4.916   4.847   7.813  0.4023 -0.0260 -0.0975
 4393TIP3    H137374   4.868   4.919   7.773 -0.4308 -1.2366 -1.3182
 4393TIP3    H237375   5.001   4.847   7.769  0.4106  0.2124 -0.0820
 4394TIP3   OH237376   0.243   1.506   8.893 -0.4119  0.2527 -0.7931
 4394TIP3    H137377   0.309   1.451   8.936 -1.0783  1.5360  2.1431
 4394TIP3    H237378   0.288   1.590   8.878 -0.8159  0.5185 -0.5381
 4395TIP3   OH237379   4.086   6.931   8.128  0.0463 -0.0322 -0.2650
 4395TIP3    H137380   4.156   6.940   8.063 -0.1077  2.9027 -0.1866
 4395TIP3    H237381   4.121   6.973   8.207 -0.7040 -1.2647  0.7607
 4396TIP3   OH237382   4.655   0.851   8.414  0.4484 -0.5061  0.2885
 4396TIP3    H137383   4.743   0.889   8.413  0.4229 -0.4531  0.1162
 4396TIP3    H237384   4.657   0.791   8.488  0.6534 -0.5601  0.2417
 4397TIP3   OH237385   5.448   5.242   7.040 -0.1736 -0.2193 -0.1344
 4397TIP3    H137386   5.536   5.236   7.002  0.1054  1.4147  0.1547
 4397TIP3    H237387   5.390   5.207   6.972  0.5622  0.1863 -1.0037
 4398TIP3   OH237388   5.892   5.498   7.584  0.3727  0.0158  0.3908
 4398TIP3    H137389   5.837   5.470   7.657  0.6262 -2.0648 -0.1623
 4398TIP3    H237390   5.979   5.510   7.622 -0.0510  1.6672  0.9319
 4399TIP3   OH237391   6.864   0.914   8.160 -0.5869  0.4794 -0.0763
 4399TIP3    H137392   6.791   0.886   8.104 -0.7597  0.2635  0.2521
 4399TIP3    H237393   6.923   0.960   8.101  0.9661 -2.6904 -1.2100
 4400TIP3   OH237394   4.426   4.527   8.608  0.5701  0.1790 -0.1230
 4400TIP3    H137395   4.399   4.543   8.698  0.8576  0.3705 -0.0693
 4400TIP3    H237396   4.497   4.589   8.592 -1.4671  2.3362 -1.4701
 4401TIP3   OH237397   7.442   7.522   8.890 -0.0762 -0.4851  0.5092
 4401TIP3    H137398   7.510   7.459   8.913 -1.1632 -1.3573  1.4467
 4401TIP3    H237399   7.426   7.571   8.971 -0.0012  0.2715  0.0771
 4402TIP3   OH237400   3.105   4.199   6.935 -0.1555  0.4038  0.3769
 4402TIP3    H137401   3.143   4.176   6.850 -0.1270 -0.8061  0.7002
 4402TIP3    H237402   3.013   4.175   6.927 -0.0627 -0.0972  0.8311
 4403TIP3   OH237403   2.543   6.071   8.278 -0.1785 -0.4579 -0.0559
 4403TIP3    H137404   2.471   6.008   8.274  1.7705 -2.8062 -0.6936
 4403TIP3    H237405   2.616   6.021   8.314  1.2426  1.7610  0.3395
 4404TIP3   OH237406   1.409   1.288   8.109 -0.0088  0.6246  0.3382
 4404TIP3    H137407   1.336   1.329   8.155  0.7250  0.5631  1.6392
 4404TIP3    H237408   1.391   1.302   8.016 -1.0100  1.7336  0.6737
 4405TIP3   OH237409   3.656   4.510   8.004  0.3246  0.0559  0.1872
 4405TIP3    H137410   3.675   4.417   7.992  0.2374 -0.0301  0.6998
 4405TIP3    H237411   3.561   4.513   8.016  0.5049  0.0200  1.8289
 4406TIP3   OH237412   4.226   4.902   8.444 -0.9123 -0.3099  0.2116
 4406TIP3    H137413   4.285   4.956   8.391  0.7810 -2.4007 -0.2371
 4406TIP3    H237414   4.145   4.951   8.450 -0.7122  0.6491 -3.2093
 4407TIP3   OH237415   2.528   5.759   9.037 -0.2458 -0.8226  0.2244
 4407TIP3    H137416   2.490   5.714   8.961 -1.1590  0.7507 -0.3003
 4407TIP3    H237417   2.536   5.691   9.104 -1.9956 -1.6931 -0.3959
 4408TIP3   OH237418   4.099   4.179   7.182 -0.7149 -0.1544 -0.2386
 4408TIP3    H137419   4.176   4.154   7.233  1.1393 -0.7952 -3.0817
 4408TIP3    H237420   4.104   4.274   7.177 -0.5410 -0.1362  0.2058
 4409TIP3   OH237421   2.193   7.094   8.257  0.6543 -0.8676 -0.1052
 4409TIP3    H137422   2.241   7.159   8.308  0.5691  0.7737 -1.9944
 4409TIP3    H237423   2.206   7.120   8.166 -3.4131 -0.5398 -0.7673
 4410TIP3   OH237424   1.462   2.949   6.850  0.7385  0.2573  0.1659
 4410TIP3    H137425   1.393   2.891   6.882  2.8510 -1.9137  1.1707
 4410TIP3    H237426   1.418   3.009   6.791 -1.9862 -0.9795  0.7869
 4411TIP3   OH237427   5.970   5.752   7.758 -0.0917  0.2321 -0.3673
 4411TIP3    H137428   6.049   5.701   7.744 -0.6089 -0.8742  0.5418
 4411TIP3    H237429   5.979   5.827   7.700  0.3148 -1.3220 -2.4294
 4412TIP3   OH237430   5.569   3.332   6.849  0.5708 -0.2137  0.0887
 4412TIP3    H137431   5.610   3.359   6.767 -0.6865 -0.6408 -0.7041
 4412TIP3    H237432   5.478   3.358   6.840  0.3546 -0.4945  1.2602
 4413TIP3   OH237433   0.920   5.050   7.095  0.1326  0.1416  0.2869
 4413TIP3    H137434   0.938   5.136   7.055  0.3849  0.2132  0.5529
 4413TIP3    H237435   0.845   5.067   7.152 -0.1567  0.0641 -0.0650
 4414TIP3   OH237436   2.597   5.057   8.260 -0.2820 -0.3624 -0.0125
 4414TIP3    H137437   2.576   5.149   8.246 -2.6880 -0.8288  0.1119
 4414TIP3    H237438   2.605   5.048   8.355 -1.4754 -0.5101  0.0932
 4415TIP3   OH237439   7.314   4.805   9.117  0.0300 -0.5509 -0.1183
 4415TIP3    H137440   7.237   4.845   9.077 -2.2702 -0.4034  3.8843
 4415TIP3    H237441   7.304   4.711   9.102  0.1975 -0.3862 -1.3146
 4416TIP3   OH237442   2.271   4.519   9.506  0.0371  0.6061  0.0028
 4416TIP3    H137443   2.216   4.505   9.429  1.0501 -1.3569 -0.4310
 4416TIP3    H237444   2.219   4.484   9.579  0.8225 -1.7886 -0.4865
 4417TIP3   OH237445   5.762   0.168   9.034  0.0967 -0.0385 -0.1105
 4417TIP3    H137446   5.692   0.198   8.977 -0.8128 -0.4238  0.7674
 4417TIP3    H237447   5.802   0.094   8.988  0.6694  0.8689 -1.1121
 4418TIP3   OH237448   0.732   6.683   9.470  0.2279  0.3730 -0.0373
 4418TIP3    H137449   0.825   6.692   9.490  0.0977 -0.5729  1.0944
 4418TIP3    H237450   0.687   6.728   9.541 -0.2036 -0.4954  0.2523
 4419TIP3   OH237451   5.701   3.053   7.644  0.0663 -0.8735 -0.1106
 4419TIP3    H137452   5.673   3.006   7.565 -2.0371 -1.4312  0.8786
 4419TIP3    H237453   5.668   3.142   7.633  0.4339 -0.7402 -0.1682
 4420TIP3   OH237454   6.893   5.270   9.086  0.1316 -0.1210 -0.1252
 4420TIP3    H137455   6.865   5.325   9.013 -2.9051 -1.3408 -0.0338
 4420TIP3    H237456   6.860   5.314   9.164  1.9391  0.3328  0.4417
 4421TIP3   OH237457   6.308   6.414   9.448 -0.2066 -0.3070 -0.6313
 4421TIP3    H137458   6.397   6.418   9.482  0.4370  0.7273 -2.3271
 4421TIP3    H237459   6.282   6.505   9.437 -1.4376 -0.6000 -0.3060
 4422TIP3   OH237460   7.617   2.488   8.951 -0.0066  0.3482  0.1269
 4422TIP3    H137461   7.590   2.573   8.917 -0.1625  0.8132  1.3595
 4422TIP3    H237462   7.628   2.502   9.045  0.0284 -0.9834  0.3435
 4423TIP3   OH237463   6.599   1.532   8.242  0.3053  0.4379  0.2668
 4423TIP3    H137464   6.507   1.546   8.216 -0.1744 -1.0077  1.0946
 4423TIP3    H237465   6.649   1.587   8.181 -1.0602  0.6756 -0.6992
 4424TIP3   OH237466   2.368   0.011   7.995  0.0588  0.2338 -0.3518
 4424TIP3    H137467   2.280   0.025   7.959 -0.1256 -0.0742 -0.0189
 4424TIP3    H237468   2.399   0.100   8.017  0.2012  0.4334 -1.3208
 4425TIP3   OH237469   0.325   3.019   9.188  0.4571 -0.1292 -0.1618
 4425TIP3    H137470   0.379   3.098   9.193  0.2613 -0.0749  1.4517
 4425TIP3    H237471   0.277   3.017   9.270  0.4685 -1.9455 -0.1583
 4426TIP3   OH237472   2.460   6.827   8.681 -0.5005  0.0410  0.4345
 4426TIP3    H137473   2.388   6.833   8.619 -1.1406 -2.3311  0.8646
 4426TIP3    H237474   2.531   6.787   8.631  0.0823  1.0807  0.3962
 4427TIP3   OH237475   6.874   0.908   8.452  0.0162  0.4376 -0.3506
 4427TIP3    H137476   6.879   0.906   8.356 -2.9240 -2.1712 -0.6183
 4427TIP3    H237477   6.908   0.822   8.479  2.0331  1.6335  1.1129
 4428TIP3   OH237478   1.398   3.336   8.608 -0.2297  0.6460  0.5410
 4428TIP3    H137479   1.365   3.421   8.640 -0.5064  0.1897  1.5267
 4428TIP3    H237480   1.348   3.320   8.528 -0.5983  1.1355  0.6645
 4429TIP3   OH237481   7.250   3.803   9.114 -0.0030 -0.2858  0.1297
 4429TIP3    H137482   7.278   3.863   9.044 -0.7034 -0.5187 -0.3587
 4429TIP3    H237483   7.169   3.840   9.147 -0.3352 -0.8482 -0.0360
 4430TIP3   OH237484   2.727   2.829   7.501  0.9384 -0.2929  0.1017
 4430TIP3    H137485   2.651   2.790   7.544  0.2040  0.1552 -0.7543
 4430TIP3    H237486   2.778   2.867   7.572  0.7271 -1.1989  0.7636
 4431TIP3   OH237487   5.397   3.862   7.205 -0.3446 -0.1496  0.4624
 4431TIP3    H137488   5.338   3.915   7.151 -0.3049 -0.2062  0.3622
 4431TIP3    H237489   5.418   3.918   7.279 -0.5583 -0.1454  0.5204
 4432TIP3   OH237490   0.391   5.861   8.878  0.0419 -0.0805 -0.3793
 4432TIP3    H137491   0.396   5.916   8.955 -1.3048  0.3572 -0.5822
 4432TIP3    H237492   0.481   5.833   8.863  0.6321  1.4111  0.1946
 4433TIP3   OH237493   4.536   7.286   7.692  0.3323 -0.1192 -0.5934
 4433TIP3    H137494   4.621   7.241   7.693  0.5315  0.2461 -0.8405
 4433TIP3    H237495   4.535   7.335   7.610  1.2980  2.5347  0.8361
 4434TIP3   OH237496   6.332   1.269   9.313 -0.0037  0.0261 -0.0409
 4434TIP3    H137497   6.323   1.269   9.409  2.8043  2.0934  0.3497
 4434TIP3    H237498   6.324   1.361   9.288  0.8711 -0.2929 -1.5952
 4435TIP3   OH237499   0.446   4.508   8.937  0.6909  0.0480 -0.5602
 4435TIP3    H137500   0.440   4.590   8.985  0.1925  0.1390 -0.7774
 4435TIP3    H237501   0.397   4.523   8.856 -1.7943 -1.3267  0.5928
 4436TIP3   OH237502   3.645   5.582   8.127 -0.1862  1.4448 -0.0379
 4436TIP3    H137503   3.647   5.544   8.215 -0.3537  0.5890 -0.3902
 4436TIP3    H237504   3.564   5.549   8.089  1.9041 -1.9003 -2.0846
 4437TIP3   OH237505   1.326   5.103   9.156 -0.1565  0.0541 -0.7219
 4437TIP3    H137506   1.412   5.126   9.123 -0.0371 -0.7974 -1.0366
 4437TIP3    H237507   1.267   5.169   9.119  0.3892  0.7687 -0.3219
 4438TIP3   OH237508   0.726   6.877   7.648 -0.3603  0.0724 -0.3388
 4438TIP3    H137509   0.710   6.964   7.683 -0.1671 -0.1291  0.2568
 4438TIP3    H237510   0.801   6.887   7.590  0.0439  0.1807  0.2048
 4439TIP3   OH237511   2.316   1.702   8.094 -0.6938  0.2321 -0.1742
 4439TIP3    H137512   2.249   1.722   8.029 -0.6964  0.0613 -0.2236
 4439TIP3    H237513   2.268   1.665   8.168 -0.5707 -0.6485 -0.5291
 4440TIP3   OH237514   1.370   3.115   8.773 -0.2770 -0.4878  0.2152
 4440TIP3    H137515   1.393   3.182   8.708  0.3379 -0.4782  0.4362
 4440TIP3    H237516   1.286   3.143   8.808  1.3406  1.8967  2.5437
 4441TIP3   OH237517   6.176   6.406   9.134  0.1919  0.3220  0.2282
 4441TIP3    H137518   6.198   6.482   9.080  0.9854 -0.2931 -0.3371
 4441TIP3    H237519   6.223   6.420   9.216 -0.4768  0.9300  0.5151
 4442TIP3   OH237520   4.855   3.048   9.118 -0.5867 -0.3292  0.2890
 4442TIP3    H137521   4.830   3.076   9.030  1.1609 -1.7763 -0.7245
 4442TIP3    H237522   4.839   3.125   9.173 -4.7411 -0.3214 -0.5896
 4443TIP3   OH237523   7.358   7.423   8.655  0.7672 -0.0804  0.0072
 4443TIP3    H137524   7.289   7.378   8.703  1.1935  0.2256  0.9222
 4443TIP3    H237525   7.408   7.470   8.722  1.4796  0.2152 -0.7110
 4444TIP3   OH237526   5.952   4.875   9.126 -0.1010 -0.2309  0.0690
 4444TIP3    H137527   5.919   4.945   9.070 -0.5224 -0.3489  0.1656
 4444TIP3    H237528   5.883   4.808   9.124  0.5195 -0.8648 -0.4368
 4445TIP3   OH237529   5.476   6.798   8.283 -0.2894 -0.2403  0.1605
 4445TIP3    H137530   5.389   6.764   8.305  0.1144 -2.7086 -1.6481
 4445TIP3    H237531   5.482   6.789   8.188  1.9967 -0.3427  0.2551
 4446TIP3   OH237532   7.322   2.494   6.932  0.1215  0.2709  0.0855
 4446TIP3    H137533   7.288   2.503   6.843  0.4934 -0.5614 -0.1495
 4446TIP3    H237534   7.251   2.453   6.981  0.7798 -1.5748 -0.4324
 4447TIP3   OH237535   7.276   7.400   9.260  0.0564 -0.5483  0.0618
 4447TIP3    H137536   7.312   7.348   9.188 -2.6716 -0.0119 -1.8630
 4447TIP3    H237537   7.273   7.490   9.226  1.4242  0.3092  2.0096
 4448TIP3   OH237538   0.148   3.304   8.603 -0.0454  0.0634  0.1780
 4448TIP3    H137539   0.066   3.351   8.590 -2.1692 -2.6989  2.3850
 4448TIP3    H237540   0.200   3.363   8.659 -0.2711  1.9755 -1.5069
 4449TIP3   OH237541   7.528   3.602   7.475 -0.3962  0.1864  0.3494
 4449TIP3    H137542   7.536   3.590   7.570 -3.1543  1.0316  0.7625
 4449TIP3    H237543   7.434   3.610   7.459 -0.0331 -0.1813 -2.5197
 4450TIP3   OH237544   2.357   6.302   8.875 -0.7917  0.2302  0.5313
 4450TIP3    H137545   2.310   6.337   8.951 -0.1417 -0.3269  1.2118
 4450TIP3    H237546   2.294   6.245   8.831 -1.2771  0.8164  0.4544
 4451TIP3   OH237547   3.305   3.539   8.513 -0.1708  0.0500  0.3219
 4451TIP3    H137548   3.355   3.621   8.510  0.4537 -0.3576 -0.6704
 4451TIP3    H237549   3.222   3.564   8.555 -0.3516  1.4019 -0.7401
 4452TIP3   OH237550   3.355   5.280   7.543 -0.2611  0.0288 -0.0754
 4452TIP3    H137551   3.396   5.245   7.622 -1.5543 -1.5765 -0.0663
 4452TIP3    H237552   3.321   5.203   7.497  0.5593  0.9042 -2.2803
 4453TIP3   OH237553   1.771   6.002   8.591 -0.7790  0.1948 -0.1475
 4453TIP3    H137554   1.763   6.090   8.555 -0.0126 -0.7010 -2.7540
 4453TIP3    H237555   1.853   5.968   8.555 -2.1611 -2.3740 -1.2109
 4454TIP3   OH237556   2.091   4.481   7.506  0.2304  0.0182 -0.3616
 4454TIP3    H137557   2.124   4.484   7.416 -0.1777  1.6942 -0.5021
 4454TIP3    H237558   2.167   4.500   7.561  0.1880  0.4956 -0.4633
 4455TIP3   OH237559   3.020   0.483   9.325 -0.0317  0.4560  0.2961
 4455TIP3    H137560   2.958   0.553   9.347  0.0246 -0.0003  1.9799
 4455TIP3    H237561   2.985   0.406   9.370 -0.2645 -0.7159 -1.7687
 4456TIP3   OH237562   3.793   3.324   8.499 -0.1287  0.3754 -0.1067
 4456TIP3    H137563   3.705   3.361   8.497 -0.1431  0.3112 -0.9125
 4456TIP3    H237564   3.823   3.328   8.409  0.6823  0.3532  0.1532
 4457TIP3   OH237565   5.260   5.649   7.586  0.3866 -0.2571  0.5807
 4457TIP3    H137566   5.231   5.578   7.529 -2.6108  2.0486 -1.0448
 4457TIP3    H237567   5.273   5.723   7.526  1.5402  1.1053  2.4245
 4458TIP3   OH237568   4.406   0.478   8.890  0.0874 -0.0401 -0.3019
 4458TIP3    H137569   4.360   0.524   8.820  1.8853  0.8037 -0.9662
 4458TIP3    H237570   4.397   0.386   8.868  0.7560  0.2158 -1.7425
 4459TIP3   OH237571   2.317   3.436   8.373  0.4638  0.7385  0.4041
 4459TIP3    H137572   2.297   3.529   8.389 -0.3039  0.5081  0.8526
 4459TIP3    H237573   2.291   3.392   8.454  2.5979  0.3569  0.9361
 4460TIP3   OH237574   0.083   4.333   7.921  0.2132 -0.2929 -0.2214
 4460TIP3    H137575   0.148   4.271   7.888 -1.0179 -1.6921 -0.1254
 4460TIP3    H237576   0.085   4.322   8.016  0.3916  0.2298 -0.1658
 4461TIP3   OH237577   6.693   2.274   8.489  0.1064  0.2860 -0.3255
 4461TIP3    H137578   6.668   2.366   8.495  1.1703  0.5850 -0.2346
 4461TIP3    H237579   6.631   2.228   8.545  0.0671  1.0589  0.2728
 4462TIP3   OH237580   3.756   2.137   9.524  0.1589  0.4748  0.5133
 4462TIP3    H137581   3.730   2.119   9.614  0.2121 -0.7219  0.3140
 4462TIP3    H237582   3.725   2.060   9.475 -1.5588  1.9118 -0.8274
 4463TIP3   OH237583   0.118   2.960   6.900 -0.6708 -0.5578 -0.8315
 4463TIP3    H137584   0.117   2.864   6.903 -1.6036 -0.5420 -0.1815
 4463TIP3    H237585   0.028   2.984   6.876 -1.0256  0.1779  1.0064
 4464TIP3   OH237586   3.860   4.174   7.349  0.4201  0.4920 -0.0611
 4464TIP3    H137587   3.863   4.118   7.271  0.7817  1.1432 -0.5288
 4464TIP3    H237588   3.840   4.115   7.421 -1.3936  0.0674 -0.8471
 4465TIP3   OH237589   7.315   6.811   8.528  0.2601  0.0122  0.3109
 4465TIP3    H137590   7.252   6.739   8.528  0.8238 -0.5305 -1.6260
 4465TIP3    H237591   7.378   6.788   8.596  0.3183 -1.2468 -0.1396
 4466TIP3   OH237592   3.261   2.475   8.343  0.4195  0.3187  0.1116
 4466TIP3    H137593   3.314   2.533   8.398 -0.1016  0.7392  0.1752
 4466TIP3    H237594   3.179   2.465   8.391 -0.3268  1.2901 -0.9176
 4467TIP3   OH237595   5.445   2.314   8.844  0.2755 -0.4907  0.2099
 4467TIP3    H137596   5.524   2.280   8.801  0.2814  0.8816 -0.9398
 4467TIP3    H237597   5.374   2.262   8.806  0.4645 -0.5181 -0.1181
 4468TIP3   OH237598   4.440   3.050   8.102 -0.2026  0.2033  0.4958
 4468TIP3    H137599   4.377   3.095   8.045 -0.6614  0.5233  1.2497
 4468TIP3    H237600   4.521   3.049   8.051 -1.2061 -1.7085 -1.2115
 4469TIP3   OH237601   4.241   5.155   7.691  0.1892  0.3569 -0.5737
 4469TIP3    H137602   4.216   5.099   7.619  1.2065  1.9612 -2.2754
 4469TIP3    H237603   4.330   5.126   7.715  0.1587  0.3308 -0.4906
 4470TIP3   OH237604   3.884   5.168   9.369  0.4544 -0.0040  0.3524
 4470TIP3    H137605   3.851   5.248   9.327  0.7957  0.1296  0.3388
 4470TIP3    H237606   3.878   5.186   9.463 -1.1094 -0.6177  0.4113
 4471TIP3   OH237607   2.154   3.076   9.337  0.2571  0.7251 -0.0331
 4471TIP3    H137608   2.247   3.062   9.320  0.8960  1.1497  2.6627
 4471TIP3    H237609   2.147   3.079   9.433 -2.9803 -2.2049  0.0316
 4472TIP3   OH237610   0.791   7.230   8.573  0.1294  0.0843  0.3999
 4472TIP3    H137611   0.851   7.304   8.574  0.3027  0.0547 -2.2639
 4472TIP3    H237612   0.834   7.163   8.626  1.3545  0.8523  0.4044
 4473TIP3   OH237613   0.164   1.725   8.169  0.4075  0.0530  0.4090
 4473TIP3    H137614   0.180   1.633   8.190 -0.1176 -0.6394 -1.9364
 4473TIP3    H237615   0.096   1.752   8.230 -1.9060 -2.1624 -0.9632
 4474TIP3   OH237616   6.780   1.523   6.727 -0.1959  0.4760  0.2887
 4474TIP3    H137617   6.843   1.451   6.731 -0.5468  0.1645  0.2604
 4474TIP3    H237618   6.834   1.601   6.715  0.1399  0.1028 -0.7473
 4475TIP3   OH237619   3.411   3.377   8.723 -0.3378 -0.0765 -0.1005
 4475TIP3    H137620   3.392   3.294   8.680 -0.6270  0.7873 -1.7199
 4475TIP3    H237621   3.399   3.443   8.655  1.5742  1.1539  0.6541
 4476TIP3   OH237622   6.939   5.090   9.405 -0.0707 -0.6137 -0.1906
 4476TIP3    H137623   6.890   5.170   9.384 -0.0773 -0.8179 -0.9758
 4476TIP3    H237624   7.009   5.087   9.340  1.0883 -0.2603  1.0021
 4477TIP3   OH237625   5.169   4.154   8.788  0.2499 -0.0936  0.2873
 4477TIP3    H137626   5.170   4.231   8.845 -1.8196 -0.4484  0.9095
 4477TIP3    H237627   5.246   4.103   8.814  0.8190  1.0392  0.8958
 4478TIP3   OH237628   7.630   2.490   7.436  0.2077  0.5935 -0.0842
 4478TIP3    H137629   7.556   2.438   7.465 -0.7274  1.7691 -0.2925
 4478TIP3    H237630   7.642   2.466   7.344  1.1801 -0.8204  0.3739
 4479TIP3   OH237631   2.767   2.577   8.579 -0.1363  0.2308 -0.0747
 4479TIP3    H137632   2.764   2.575   8.675  0.7301  0.6720 -0.0310
 4479TIP3    H237633   2.682   2.541   8.552 -0.4308  0.1924  0.8545
 4480TIP3   OH237634   4.122   1.628   8.554 -0.0612 -0.1406  0.0448
 4480TIP3    H137635   4.141   1.718   8.580  0.0216 -0.4393  1.0310
 4480TIP3    H237636   4.027   1.623   8.551 -0.0707  0.3283 -1.2980
 4481TIP3   OH237637   3.067   5.938   7.581  0.0499 -0.2577  0.4553
 4481TIP3    H137638   3.136   5.878   7.608 -0.2627 -1.7213 -1.7808
 4481TIP3    H237639   3.106   6.025   7.592  2.1012 -1.0214 -0.2719
 4482TIP3   OH237640   4.448   2.541   8.375  0.0419 -0.2650  0.1290
 4482TIP3    H137641   4.531   2.513   8.412  0.1027  0.6159  0.6739
 4482TIP3    H237642   4.471   2.608   8.310 -0.3126  0.9359  1.2113
 4483TIP3   OH237643   1.216   4.579   8.967  0.0861  0.2341 -0.5168
 4483TIP3    H137644   1.298   4.554   8.925  1.0758  0.2140  1.3264
 4483TIP3    H237645   1.224   4.672   8.984  0.8789 -0.1991  1.9142
 4484TIP3   OH237646   2.712   0.363   8.307 -0.0905  0.0644 -0.7614
 4484TIP3    H137647   2.776   0.434   8.298 -0.3478  0.6912  1.6165
 4484TIP3    H237648   2.634   0.406   8.342 -0.6662 -1.2203 -0.4006
 4485TIP3   OH237649   4.257   0.209   9.650  0.0153  0.4734  0.0426
 4485TIP3    H137650   4.271   0.123   9.688  0.4172  0.7371  0.4949
 4485TIP3    H237651   4.329   0.263   9.683 -1.4592  1.5824  1.6076
 4486TIP3   OH237652   5.081   6.874   9.110 -0.0656 -0.1732 -0.1023
 4486TIP3    H137653   5.021   6.948   9.106 -1.2915 -0.8963  2.5034
 4486TIP3    H237654   5.040   6.806   9.057 -0.7882 -0.1415  0.4040
 4487TIP3   OH237655   3.824   3.977   7.513  0.2707  0.2928  0.1840
 4487TIP3    H137656   3.915   3.995   7.491  0.4710  0.1253  0.8353
 4487TIP3    H237657   3.823   3.883   7.532 -0.0983  0.2385 -0.0909
 4488TIP3   OH237658   3.451   6.172   8.321  0.0390 -0.2636  0.1536
 4488TIP3    H137659   3.525   6.200   8.375 -1.1171 -0.0660  1.6998
 4488TIP3    H237660   3.468   6.080   8.304  0.7022 -0.1915  0.3891
 4489TIP3   OH237661   3.209   0.145   9.216  0.3135  0.0114 -0.5723
 4489TIP3    H137662   3.125   0.191   9.224  0.7843  0.8385 -0.3221
 4489TIP3    H237663   3.216   0.126   9.122 -0.2150 -0.1901 -0.5765
 4490TIP3   OH237664   0.517   6.342   7.757  0.4847  0.3474  0.1484
 4490TIP3    H137665   0.441   6.283   7.760 -0.4091  1.4243 -0.4009
 4490TIP3    H237666   0.511   6.393   7.838 -0.4371  1.6476 -0.6902
 4491TIP3   OH237667   3.778   7.521   8.221  0.6284  0.2231  0.3454
 4491TIP3    H137668   3.809   7.510   8.131 -0.1898 -0.8877  0.1766
 4491TIP3    H237669   3.844   7.476   8.274 -0.3238 -1.6264  0.0358
 4492TIP3   OH237670   5.509   4.592   7.966 -1.0255  0.1452  0.1642
 4492TIP3    H137671   5.503   4.684   7.995 -1.2532 -0.3180  1.6973
 4492TIP3    H237672   5.601   4.582   7.941 -0.5329  0.3274  1.7785
 4493TIP3   OH237673   5.073   3.933   9.154 -0.0446  0.1941  0.0199
 4493TIP3    H137674   4.996   3.915   9.208  0.0110 -0.1364 -0.0136
 4493TIP3    H237675   5.067   4.027   9.135  0.3081  0.4621  1.1721
 4494TIP3   OH237676   4.845   3.249   7.447 -0.1569 -0.5356 -0.6247
 4494TIP3    H137677   4.909   3.194   7.402 -0.0415 -0.3841 -0.6476
 4494TIP3    H237678   4.810   3.306   7.379  1.0880  0.7057 -0.2608
 4495TIP3   OH237679   6.899   0.484   8.284 -0.3048  0.2919 -0.5733
 4495TIP3    H137680   6.821   0.529   8.250 -0.8197 -0.4187 -0.3677
 4495TIP3    H237681   6.864   0.420   8.346  0.4641  0.0961 -0.3383
 4496TIP3   OH237682   0.515   0.024   6.704  0.2431  0.2361 -0.3902
 4496TIP3    H137683   0.477   0.063   6.626  0.5059 -0.0062 -0.6396
 4496TIP3    H237684   0.509  -0.070   6.690 -0.3298  0.1813  0.1840
 4497TIP3   OH237685   1.711   5.053   7.391  0.5449 -0.2563  0.0385
 4497TIP3    H137686   1.655   5.053   7.314  0.1018  0.7885  0.3514
 4497TIP3    H237687   1.755   5.138   7.390  1.1314 -0.5359  0.5163
 4498TIP3   OH237688   6.268   6.961   9.158  0.7169 -0.5290 -0.1477
 4498TIP3    H137689   6.207   7.027   9.188 -0.0234 -1.2021 -0.1395
 4498TIP3    H237690   6.256   6.957   9.063  1.0814 -0.3398 -0.2050
 4499TIP3   OH237691   3.348   4.331   9.371 -0.2077 -0.0693 -0.1720
 4499TIP3    H137692   3.302   4.339   9.454  0.1391  1.3178 -0.0826
 4499TIP3    H237693   3.289   4.280   9.316 -2.0017  1.8079 -0.1281
 4500TIP3   OH237694   4.408   7.009   8.720  0.0685  0.2731 -0.3723
 4500TIP3    H137695   4.326   7.049   8.689  0.1398  0.7697  0.0626
 4500TIP3    H237696   4.428   7.055   8.801 -0.6056 -1.6212  0.9470
 4501TIP3   OH237697   0.764   3.150   7.429 -0.9050  0.0756  0.3818
 4501TIP3    H137698   0.804   3.064   7.441  0.9058  0.8776  0.3622
 4501TIP3    H237699   0.781   3.172   7.338 -2.5337 -0.0914  0.0149
 4502TIP3   OH237700   6.714   5.591   7.942 -0.1827  0.2493  0.4319
 4502TIP3    H137701   6.626   5.623   7.924 -0.2780 -0.7319 -0.9592
 4502TIP3    H237702   6.709   5.553   8.030 -1.1710  0.0999  0.3170
 4503TIP3   OH237703   7.194   6.032   7.499  0.0083 -0.5704 -0.6186
 4503TIP3    H137704   7.202   5.991   7.586  0.5942 -0.0540 -0.4186
 4503TIP3    H237705   7.250   6.109   7.505  0.3167 -0.7128 -1.5721
 4504TIP3   OH237706   0.864   0.074   8.868  0.4814  0.2240 -0.3620
 4504TIP3    H137707   0.937   0.013   8.865  0.9730  0.8358 -1.2526
 4504TIP3    H237708   0.875   0.129   8.791 -2.7384 -1.7094 -2.4334
 4505TIP3   OH237709   3.916   5.704   8.867 -0.0818 -0.4239 -0.0542
 4505TIP3    H137710   3.882   5.792   8.885 -1.0939 -1.1600  1.9199
 4505TIP3    H237711   3.845   5.645   8.892  0.6934 -1.8428 -1.0590
 4506TIP3   OH237712   1.863   2.318   6.980 -0.0626 -0.7497 -0.1051
 4506TIP3    H137713   1.852   2.223   6.982 -1.3999 -0.7323 -2.7543
 4506TIP3    H237714   1.932   2.334   6.916  0.3270  0.0544  0.4965
 4507TIP3   OH237715   6.944   3.271   7.600 -0.0434  0.3268  0.4978
 4507TIP3    H137716   6.916   3.205   7.537 -1.0927  1.8489 -0.6948
 4507TIP3    H237717   7.040   3.270   7.593 -0.1440  1.6809 -2.5286
 4508TIP3   OH237718   2.737   2.184   7.962 -0.6518  0.2831  0.1448
 4508TIP3    H137719   2.759   2.159   8.051  0.1522 -2.3891 -0.7098
 4508TIP3    H237720   2.818   2.171   7.913 -1.6495 -0.5296 -1.3698
 4509TIP3   OH237721   3.983   3.373   7.088  0.4095  0.2143 -0.0921
 4509TIP3    H137722   3.944   3.438   7.029  1.1832 -0.0994 -0.9611
 4509TIP3    H237723   3.995   3.295   7.035  0.9455 -0.1385  0.5255
 4510TIP3   OH237724   1.526   5.258   6.656  0.1354  0.2599  0.7172
 4510TIP3    H137725   1.469   5.220   6.723  0.0677  1.1426  1.1718
 4510TIP3    H237726   1.580   5.185   6.626  1.0086  0.0634  2.6026
 4511TIP3   OH237727   7.569   7.344   8.010  0.2471 -0.0756  0.4590
 4511TIP3    H137728   7.502   7.324   7.944  0.4805 -1.0687  0.5114
 4511TIP3    H237729   7.545   7.432   8.042 -0.6866 -0.1690  0.0675
 4512TIP3   OH237730   5.562   2.066   7.825  0.2335 -0.0575 -0.3746
 4512TIP3    H137731   5.562   2.151   7.868  1.2460 -0.5489  0.6338
 4512TIP3    H237732   5.492   2.073   7.759  0.2486  1.5085 -0.2660
 4513TIP3   OH237733   4.670   5.395   9.361 -0.4054 -0.0456  0.4999
 4513TIP3    H137734   4.738   5.346   9.407 -0.7230 -1.1352 -0.1654
 4513TIP3    H237735   4.593   5.338   9.362 -0.8459  0.5191 -0.1055
 4514TIP3   OH237736   6.244   7.551   8.733  0.2483  0.3623 -0.2307
 4514TIP3    H137737   6.315   7.597   8.778  1.4077  0.6755 -2.2362
 4514TIP3    H237738   6.262   7.564   8.640 -0.7038 -2.1740 -0.8642
 4515TIP3   OH237739   1.045   5.122   7.499 -0.4053 -0.2218  0.2766
 4515TIP3    H137740   1.024   5.035   7.466 -0.0828 -0.1659 -0.0792
 4515TIP3    H237741   0.961   5.168   7.502 -0.3971 -0.1248 -0.7693
 4516TIP3   OH237742   4.959   4.201   9.065 -0.1116  0.3539 -0.2735
 4516TIP3    H137743   4.996   4.287   9.046 -2.6205  1.5605 -0.0334
 4516TIP3    H237744   4.907   4.180   8.987 -1.8245  0.4166  0.8160
 4517TIP3   OH237745   6.918   5.304   7.346  0.4110 -0.6409  0.6195
 4517TIP3    H137746   6.829   5.280   7.323 -0.5117  2.2174  0.8280
 4517TIP3    H237747   6.949   5.356   7.271  0.4465  1.5843  2.0716
 4518TIP3   OH237748   6.834   3.201   9.205  0.4110  1.1689 -0.2634
 4518TIP3    H137749   6.821   3.283   9.252 -0.3893  0.1731  1.3222
 4518TIP3    H237750   6.929   3.190   9.202  0.4897  1.1311  1.4187
 4519TIP3   OH237751   6.328   1.643   8.268  0.1736  0.1096  0.2705
 4519TIP3    H137752   6.233   1.653   8.272  0.1362 -0.1271  0.0279
 4519TIP3    H237753   6.352   1.607   8.354 -0.2035 -1.6928 -0.3333
 4520TIP3   OH237754   7.038   7.176   9.687 -0.4938  0.0461 -0.3900
 4520TIP3    H137755   6.958   7.228   9.677 -0.7861 -0.3816 -0.3428
 4520TIP3    H237756   7.100   7.235   9.730 -0.6173  0.5393 -0.8766
 4521TIP3   OH237757   4.579   0.106   9.502 -0.5660  0.2049  0.5633
 4521TIP3    H137758   4.599   0.169   9.433 -2.3892  0.0867 -0.1459
 4521TIP3    H237759   4.636   0.032   9.484 -0.4839  0.4791 -0.3850
 4522TIP3   OH237760   4.678   2.766   8.812  0.1181 -0.7517  1.3147
 4522TIP3    H137761   4.682   2.767   8.907  0.8041  0.5212  1.3073
 4522TIP3    H237762   4.759   2.810   8.785 -0.5785 -0.1291  0.1780
 4523TIP3   OH237763   1.301   3.289   9.061 -0.3263 -0.0841  0.0051
 4523TIP3    H137764   1.351   3.209   9.079 -0.6293 -0.0156  1.1730
 4523TIP3    H237765   1.223   3.282   9.116 -1.3022  0.1274 -1.3059
 4524TIP3   OH237766   6.865   3.209   7.869  0.1300  0.2433  0.4339
 4524TIP3    H137767   6.797   3.142   7.865  0.9229 -0.6081  0.7325
 4524TIP3    H237768   6.887   3.227   7.778  0.3961 -0.4259  0.3589
 4525TIP3   OH237769   3.771   1.105   7.770 -0.1437 -0.2583  0.2400
 4525TIP3    H137770   3.731   1.188   7.796  0.3777  0.3694 -0.8974
 4525TIP3    H237771   3.818   1.076   7.848 -0.3082  0.5326  0.6418
 4526TIP3   OH237772   7.532   7.312   8.445 -0.0890  0.8148  0.3509
 4526TIP3    H137773   7.500   7.371   8.514  1.3169  0.9121  0.9721
 4526TIP3    H237774   7.476   7.235   8.452 -1.4340  1.7308  0.0702
 4527TIP3   OH237775   5.857   0.078   7.481 -0.0354  0.5520 -0.3155
 4527TIP3    H137776   5.836   0.064   7.388  1.6009 -0.2691 -0.6103
 4527TIP3    H237777   5.873   0.171   7.488 -2.7503  1.1077 -0.2307
 4528TIP3   OH237778   6.538   0.050   8.288 -0.4072  0.4673  0.0596
 4528TIP3    H137779   6.481  -0.024   8.308  1.0845 -1.1526 -1.4122
 4528TIP3    H237780   6.601   0.016   8.225 -0.3891  3.3018 -1.6532
 4529TIP3   OH237781   6.432   7.633   9.550  0.0041  0.4703 -0.3981
 4529TIP3    H137782   6.523   7.626   9.520 -0.0036 -0.0459 -0.3118
 4529TIP3    H237783   6.380   7.608   9.473 -0.1078  1.8191 -0.7832
 4530TIP3   OH237784   1.373   7.422   8.176 -0.8574 -0.7382  0.1604
 4530TIP3    H137785   1.381   7.480   8.252 -1.0683 -0.5173  0.0147
 4530TIP3    H237786   1.281   7.426   8.152 -0.4509  0.7567 -1.3218
 4531TIP3   OH237787   1.115   4.282   8.474  0.7562 -0.2201  0.4882
 4531TIP3    H137788   1.189   4.271   8.414  0.2892  0.1996 -0.1857
 4531TIP3    H237789   1.152   4.268   8.561  1.5152 -0.5423  0.1225
 4532TIP3   OH237790   5.286   2.886   8.841 -0.1720  0.6330 -0.0594
 4532TIP3    H137791   5.215   2.892   8.906 -0.0529  1.0655  0.0388
 4532TIP3    H237792   5.352   2.832   8.884  0.8644  2.7031  1.1198
 4533TIP3   OH237793   7.198   0.247   7.314 -0.0045 -0.3918 -0.7646
 4533TIP3    H137794   7.228   0.248   7.223 -1.2356 -0.2007 -1.1810
 4533TIP3    H237795   7.216   0.158   7.345  0.6101 -0.3959 -1.1252
 4534TIP3   OH237796   5.196   2.653   7.794 -0.1835 -0.1117  0.4529
 4534TIP3    H137797   5.291   2.657   7.786 -0.1818 -0.2529  0.4104
 4534TIP3    H237798   5.164   2.659   7.703 -0.2315  0.4387  0.5043
 4535TIP3   OH237799   5.376   6.460   8.254  0.3074 -0.0899  0.9385
 4535TIP3    H137800   5.469   6.480   8.260 -0.1759  2.1705  2.1580
 4535TIP3    H237801   5.337   6.508   8.327 -1.8289 -0.8644  0.3732
 4536TIP3   OH237802   1.620   4.961   8.685  0.1713  0.4277  0.1601
 4536TIP3    H137803   1.609   4.912   8.767  2.1379 -0.4715 -0.0465
 4536TIP3    H237804   1.698   5.016   8.700  0.2423  0.6430 -0.9157
 4537TIP3   OH237805   3.925   7.310   8.354 -0.4405  0.4596 -0.5257
 4537TIP3    H137806   3.952   7.233   8.404  1.8230  0.7039 -1.2590
 4537TIP3    H237807   3.891   7.370   8.419  1.4384  0.3482  0.6218
 4538TIP3   OH237808   4.934   5.667   8.666  0.0134  0.1487  0.3942
 4538TIP3    H137809   4.934   5.616   8.748  1.2911 -0.0654  0.2823
 4538TIP3    H237810   4.842   5.677   8.644 -0.3455 -3.5425 -0.4366
 4539TIP3   OH237811   2.680   5.983   9.147  0.7602 -0.0201  0.0175
 4539TIP3    H137812   2.658   6.065   9.103  0.5887 -0.5511 -0.9113
 4539TIP3    H237813   2.634   5.916   9.097  1.5944 -0.7742  0.2329
 4540TIP3   OH237814   7.512   4.210   9.179  0.2109  0.5526 -0.5425
 4540TIP3    H137815   7.591   4.158   9.169  0.0170  0.1336  0.0934
 4540TIP3    H237816   7.543   4.298   9.201  0.4847  0.2242  0.4111
 4541TIP3   OH237817   7.220   3.187   6.829  0.3480  0.2932 -0.0208
 4541TIP3    H137818   7.251   3.247   6.761 -1.1694 -0.2503 -1.2597
 4541TIP3    H237819   7.220   3.239   6.909  3.6603  0.5064 -0.0511
 4542TIP3   OH237820   4.514   4.891   8.441  0.1946  0.1261 -0.1859
 4542TIP3    H137821   4.422   4.870   8.458  0.0564  0.5114 -0.4571
 4542TIP3    H237822   4.562   4.837   8.504 -0.2273  0.0955  0.1165
 4543TIP3   OH237823   6.991   1.372   8.627  0.4254  0.3612 -0.0393
 4543TIP3    H137824   6.905   1.389   8.588  0.8252  1.7819 -0.3672
 4543TIP3    H237825   6.994   1.277   8.638 -1.0075  0.2456 -0.4287
 4544TIP3   OH237826   2.422   2.474   7.953 -0.0687 -0.5066  0.3320
 4544TIP3    H137827   2.486   2.410   7.923  1.0158  1.3190 -1.5569
 4544TIP3    H237828   2.372   2.497   7.874 -0.8103  0.5348  1.0740
 4545TIP3   OH237829   0.791   7.534   8.300 -0.0320 -0.0350  0.3592
 4545TIP3    H137830   0.730   7.535   8.227 -0.3813  1.7743  0.6408
 4545TIP3    H237831   0.783   7.446   8.336  0.6254 -1.1982 -2.1335
 4546TIP3   OH237832   6.863   5.862   6.755  0.0190 -0.5103 -0.4855
 4546TIP3    H137833   6.776   5.878   6.718  0.2263  0.9582 -0.3963
 4546TIP3    H237834   6.916   5.834   6.681  0.1820  1.4405 -1.1561
 4547TIP3   OH237835   3.030   1.499   9.229 -0.0880  0.1657  0.4784
 4547TIP3    H137836   3.038   1.417   9.278 -1.4491 -0.3447 -0.1114
 4547TIP3    H237837   3.089   1.488   9.154  0.5727  0.1945  0.9793
 4548TIP3   OH237838   0.656   3.103   8.149 -0.2325 -0.7586 -0.2738
 4548TIP3    H137839   0.726   3.160   8.183  0.0269 -0.6575 -0.9706
 4548TIP3    H237840   0.668   3.020   8.197 -0.6918 -0.2063  0.8386
 4549TIP3   OH237841   6.220   4.982   7.886  0.8142  0.2384  0.2565
 4549TIP3    H137842   6.184   4.918   7.824  2.5412 -2.2222  1.6030
 4549TIP3    H237843   6.156   5.053   7.887 -0.9313 -1.1579 -1.7944
 4550TIP3   OH237844   7.396   3.978   9.348 -0.0219 -0.1159  0.2176
 4550TIP3    H137845   7.310   3.995   9.386 -0.9489 -0.1877 -1.7345
 4550TIP3    H237846   7.431   4.066   9.328 -1.1486 -0.1113 -2.0614
 4551TIP3   OH237847   1.164   1.453   8.795 -0.1838 -0.3347  0.1019
 4551TIP3    H137848   1.185   1.536   8.838  0.6620 -0.1236 -0.7047
 4551TIP3    H237849   1.237   1.395   8.818 -0.1855 -0.4972 -0.3050
 4552TIP3   OH237850   6.678   5.392   8.884  0.1337 -0.0282  0.2110
 4552TIP3    H137851   6.751   5.439   8.924  0.7050 -0.8788  0.2031
 4552TIP3    H237852   6.602   5.448   8.899  0.5477  0.2451  1.3998
 4553TIP3   OH237853   7.525   6.018   8.290  0.0833  0.1292  0.3248
 4553TIP3    H137854   7.587   5.949   8.312 -0.5796 -0.1074  1.4853
 4553TIP3    H237855   7.514   6.011   8.195  0.3367 -1.0961  0.3750
 4554TIP3   OH237856   6.468   1.676   9.496 -0.0501  0.6949 -0.1433
 4554TIP3    H137857   6.517   1.608   9.449  2.6312  2.9770 -0.9465
 4554TIP3    H237858   6.446   1.635   9.580  1.4257 -1.1735 -0.5845
 4555TIP3   OH237859   7.648   0.900   8.302 -0.3114  0.0381 -0.2565
 4555TIP3    H137860   7.598   0.940   8.373 -0.7111  0.6558 -0.8682
 4555TIP3    H237861   7.585   0.843   8.258 -1.0769  2.1525 -2.1268
 4556TIP3   OH237862   7.277   6.781   8.872 -0.3390 -0.7249 -0.1807
 4556TIP3    H137863   7.302   6.688   8.869  1.4981 -0.2351 -1.7942
 4556TIP3    H237864   7.258   6.797   8.965 -1.1662 -2.8000  0.0700
 4557TIP3   OH237865   4.523   6.123   8.859 -1.0664  0.5644  0.1430
 4557TIP3    H137866   4.483   6.181   8.924 -0.9215  1.3927 -0.4936
 4557TIP3    H237867   4.512   6.035   8.896  0.0556  1.0898  1.8510
 4558TIP3   OH237868   3.825   5.413   7.499  0.3159  0.1207 -0.7085
 4558TIP3    H137869   3.860   5.467   7.570 -0.8189  1.5474 -1.1917
 4558TIP3    H237870   3.898   5.356   7.474  0.9700  0.1213  1.0679
 4559TIP3   OH237871   7.658   7.045   7.096 -0.1315 -0.7417 -0.1612
 4559TIP3    H137872   7.666   6.998   7.014 -2.1456  1.4913 -1.7714
 4559TIP3    H237873   7.688   7.134   7.076 -3.0962  0.5694  0.6957
 4560TIP3   OH237874   2.840   0.780   7.227 -0.3983  0.5630 -0.0342
 4560TIP3    H137875   2.909   0.846   7.219 -0.7063  0.7301 -1.5379
 4560TIP3    H237876   2.878   0.713   7.284  0.6343  1.1186 -0.0357
 4561TIP3   OH237877   4.584   5.285   6.845  0.1332  0.1521 -0.2642
 4561TIP3    H137878   4.675   5.256   6.847  0.0064 -0.2501  1.7754
 4561TIP3    H237879   4.588   5.378   6.867 -0.0063 -0.0994  0.8620
 4562TIP3   OH237880   6.221   3.661   7.218  0.2682 -0.3965 -0.5640
 4562TIP3    H137881   6.194   3.707   7.298 -1.2980 -3.1167  0.6296
 4562TIP3    H237882   6.145   3.667   7.160  0.3048 -0.8435 -0.6625
 4563TIP3   OH237883   3.263   4.021   6.735  0.0771  0.1542  0.2249
 4563TIP3    H137884   3.264   3.933   6.697  0.6818  0.4060 -0.3665
 4563TIP3    H237885   3.327   4.070   6.683 -1.4433  1.4094 -0.5737
 4564TIP3   OH237886   4.035   7.046   6.889 -0.2654 -0.4967  0.7505
 4564TIP3    H137887   4.047   7.023   6.797  4.3516  1.9355  0.4466
 4564TIP3    H237888   4.018   7.140   6.889  2.6280  0.1519  2.2821
 4565TIP3   OH237889   0.157   3.307   7.723 -0.2434  1.1077  0.0506
 4565TIP3    H137890   0.213   3.233   7.743  0.8353  1.4765 -1.4209
 4565TIP3    H237891   0.190   3.378   7.778  0.6050  1.2607 -0.6404
 4566TIP3   OH237892   2.852   7.083   9.575  0.3523 -0.1724  0.2129
 4566TIP3    H137893   2.840   7.088   9.669  2.4955  1.4925  0.4856
 4566TIP3    H237894   2.836   7.173   9.544  0.4997 -0.5094 -0.8914
 4567TIP3   OH237895   5.456   0.756   8.371  0.6819  0.1427  0.5651
 4567TIP3    H137896   5.439   0.763   8.277  0.9437 -1.4444  0.3694
 4567TIP3    H237897   5.469   0.846   8.400 -3.2202  1.1518 -0.1517
 4568TIP3   OH237898   3.989   2.943   7.587  0.3909  0.1060 -0.1355
 4568TIP3    H137899   4.045   2.946   7.509  2.1162  1.5736  1.0979
 4568TIP3    H237900   3.908   2.904   7.555  1.4243 -0.4007 -2.4179
 4569TIP3   OH237901   2.139   1.905   6.460  0.1578  0.4750  0.4279
 4569TIP3    H137902   2.221   1.886   6.413  0.0249  0.1966  0.3095
 4569TIP3    H237903   2.108   1.820   6.489 -0.6597  0.4554 -0.4695
 4570TIP3   OH237904   2.840   3.363   6.548  0.1153 -0.3360  0.0203
 4570TIP3    H137905   2.786   3.290   6.516  0.4883 -0.4433 -0.3771
 4570TIP3    H237906   2.806   3.440   6.502  0.2407 -0.3903 -0.1659
 4571TIP3   OH237907   4.745   3.307   8.498 -0.1902  0.1427 -0.4094
 4571TIP3    H137908   4.656   3.291   8.468 -0.3072  0.7915 -0.4398
 4571TIP3    H237909   4.736   3.382   8.558  0.0314 -1.0956  1.2381
 4572TIP3   OH237910   4.831   7.022   9.078 -0.8510  0.6340  1.2311
 4572TIP3    H137911   4.777   7.100   9.090 -1.3338  0.2072  1.9249
 4572TIP3    H237912   4.771   6.949   9.090 -0.2137  0.1472  1.5489
 4573TIP3   OH237913   3.335   3.926   6.965  0.3571  0.3955 -0.1912
 4573TIP3    H137914   3.429   3.938   6.948  0.3261  0.7844 -0.0876
 4573TIP3    H237915   3.292   3.970   6.892  0.2553  0.0756 -0.3250
 4574TIP3   OH237916   2.055   2.147   7.630  0.5775  0.0092  0.0445
 4574TIP3    H137917   2.031   2.079   7.567 -0.4299  1.6596 -1.4221
 4574TIP3    H237918   2.086   2.220   7.577  0.1246  1.3038  1.4812
 4575TIP3   OH237919   3.655   3.151   9.169  0.2879  0.4892  0.5940
 4575TIP3    H137920   3.562   3.139   9.188  0.2544 -1.1001 -0.4034
 4575TIP3    H237921   3.657   3.215   9.097 -0.2116 -1.0329 -0.8411
 4576TIP3   OH237922   6.235   2.770   8.697 -0.3685 -0.1556  0.0045
 4576TIP3    H137923   6.274   2.705   8.756  0.9308  1.0640  0.5560
 4576TIP3    H237924   6.281   2.758   8.614 -1.4173 -1.1309 -0.4570
 4577TIP3   OH237925   4.637   1.507   7.845  0.3797  0.1008 -0.1176
 4577TIP3    H137926   4.604   1.580   7.896 -0.1751  0.0873 -0.4526
 4577TIP3    H237927   4.707   1.470   7.899  0.7970  0.9899 -0.0285
 4578TIP3   OH237928   2.622   0.086   8.756  0.5738  0.0955  0.2414
 4578TIP3    H137929   2.702   0.088   8.703  1.4871  0.1666  1.5802
 4578TIP3    H237930   2.606   0.178   8.779 -0.5678  0.2317 -0.9467
 4579TIP3   OH237931   3.942   3.619   7.963 -0.0191  0.2609  0.1764
 4579TIP3    H137932   3.963   3.712   7.968  0.1384  0.3363 -1.5055
 4579TIP3    H237933   3.856   3.616   7.920 -0.6577 -0.3342  1.4246
 4580TIP3   OH237934   4.091   0.845   7.951  0.0790  0.1884 -0.2657
 4580TIP3    H137935   4.101   0.857   8.045  0.3647  2.3965 -0.5293
 4580TIP3    H237936   4.180   0.848   7.916 -0.0504 -0.2889 -0.6525
 4581TIP3   OH237937   7.155   5.694   7.656 -0.0090  0.5078  0.3705
 4581TIP3    H137938   7.189   5.606   7.672 -0.7784  0.1873  0.3012
 4581TIP3    H237939   7.103   5.685   7.576 -1.0622  0.7460  1.0065
 4582TIP3   OH237940   7.174   4.393   8.327  0.3950 -0.3413  0.0491
 4582TIP3    H137941   7.195   4.300   8.313 -0.6621 -0.6121  0.1685
 4582TIP3    H237942   7.251   4.440   8.297  0.4985 -1.2099 -1.1040
 4583TIP3   OH237943   1.722   2.850   8.086  0.4084  0.7660  0.3043
 4583TIP3    H137944   1.738   2.925   8.028  0.3537  0.4683 -0.0988
 4583TIP3    H237945   1.767   2.777   8.043 -2.8560 -0.4021 -1.5039
 4584TIP3   OH237946   1.330   7.457   7.842  0.0433  0.3930 -0.0396
 4584TIP3    H137947   1.237   7.432   7.838  0.3113 -0.7405  0.4857
 4584TIP3    H237948   1.362   7.439   7.753  0.2608 -1.3614  0.3544
 4585TIP3   OH237949   5.580   5.354   9.023  0.2102 -0.7030  0.6995
 4585TIP3    H137950   5.656   5.386   9.072 -0.3510 -0.4430  1.4181
 4585TIP3    H237951   5.506   5.404   9.057  0.0618  0.9424 -1.8271
 4586TIP3   OH237952   2.526   1.498   8.462 -0.0061 -0.5998  0.1601
 4586TIP3    H137953   2.504   1.457   8.545 -2.0688 -0.3356 -0.2079
 4586TIP3    H237954   2.459   1.566   8.450  0.4122 -0.4415 -1.5685
 4587TIP3   OH237955   3.762   4.047   6.623  0.1372 -0.2740  0.3516
 4587TIP3    H137956   3.841   4.013   6.581 -0.4042 -0.7510 -0.3020
 4587TIP3    H237957   3.722   3.971   6.664  0.5443  0.1484  1.5795
 4588TIP3   OH237958   7.198   6.955   9.459 -0.2662  0.0781  0.2830
 4588TIP3    H137959   7.267   6.934   9.521 -0.3115  1.4667  0.8444
 4588TIP3    H237960   7.235   6.934   9.373  0.4372 -0.2407  0.6590
 4589TIP3   OH237961   0.514   4.834   8.516 -0.0239  0.0686  0.0395
 4589TIP3    H137962   0.497   4.740   8.527  1.0296 -0.2802 -1.1644
 4589TIP3    H237963   0.435   4.867   8.473 -1.0590  0.0697  1.8180
 4590TIP3   OH237964   1.876   4.606   8.667  0.3209 -0.0738  0.1705
 4590TIP3    H137965   1.924   4.535   8.625 -0.9132 -0.5644 -0.4505
 4590TIP3    H237966   1.913   4.610   8.756  2.1736  0.2427 -0.5626
 4591TIP3   OH237967   6.150   2.190   7.397  0.8953 -0.5387 -0.3331
 4591TIP3    H137968   6.077   2.167   7.340 -0.7754 -0.4895  1.6617
 4591TIP3    H237969   6.138   2.135   7.474  0.8959  1.8725  1.5317
 4592TIP3   OH237970   5.155   5.651   9.610 -0.0557  0.2354  0.2490
 4592TIP3    H137971   5.147   5.737   9.570 -0.7950  0.1351  0.1650
 4592TIP3    H237972   5.201   5.666   9.692 -0.0673  0.6849  0.1734
 4593TIP3   OH237973   2.088   2.580   8.572 -0.8313  0.8253  0.3676
 4593TIP3    H137974   2.055   2.491   8.577 -0.3114  0.6602  1.1239
 4593TIP3    H237975   2.088   2.602   8.479 -1.0694  0.0759  0.1923
 4594TIP3   OH237976   6.236   5.893   9.805 -0.4190 -0.0859 -0.0363
 4594TIP3    H137977   6.262   5.904   9.896  1.3775 -0.0049 -0.5276
 4594TIP3    H237978   6.246   5.981   9.767  0.9793 -0.5637 -0.8158
 4595TIP3   OH237979   3.552   7.296   8.452 -0.3118 -0.2252  0.1601
 4595TIP3    H137980   3.492   7.369   8.461 -3.4507 -2.4857 -0.8833
 4595TIP3    H237981   3.542   7.267   8.361  0.5040 -2.1774  0.6404
 4596TIP3   OH237982   4.805   1.931   8.111  0.5172  0.0279 -0.4987
 4596TIP3    H137983   4.850   1.907   8.191  2.2421  1.5403 -0.9471
 4596TIP3    H237984   4.731   1.984   8.139 -1.2333 -2.6407  0.2597
 4597TIP3   OH237985   1.189   5.817   8.559  0.3116  0.1926  0.1457
 4597TIP3    H137986   1.142   5.761   8.498  0.1633  2.0207 -1.4931
 4597TIP3    H237987   1.141   5.899   8.559  1.9255  1.1845  0.5659
 4598TIP3   OH237988   1.504   5.996   8.987 -0.2730 -0.4048  0.2728
 4598TIP3    H137989   1.482   5.977   9.078  1.2767  0.0346  0.7838
 4598TIP3    H237990   1.435   6.055   8.957 -0.9081 -0.7133  1.1076
 4599TIP3   OH237991   6.112   0.943   7.635  0.0331 -0.3734  0.0165
 4599TIP3    H137992   6.180   1.011   7.636 -0.4314  0.1042  1.1020
 4599TIP3    H237993   6.124   0.898   7.552  1.6011 -0.2146  0.1248
 4600TIP3   OH237994   3.342   6.312   7.213 -0.4972  0.0290  0.1491
 4600TIP3    H137995   3.287   6.312   7.135  0.9892 -3.8749 -1.1478
 4600TIP3    H237996   3.292   6.261   7.277 -1.2256  2.2950  1.5151
 4601TIP3   OH237997   2.173   5.606   8.680 -0.0258  0.4200  0.6935
 4601TIP3    H137998   2.083   5.575   8.676  0.7946 -2.2486  1.2650
 4601TIP3    H237999   2.184   5.659   8.601 -0.9195 -2.6435 -1.6448
 4602TIP3   OH238000   2.226   3.780   9.216 -0.5189  0.8491  0.1365
 4602TIP3    H138001   2.292   3.742   9.158  0.8490  1.8076  1.0139
 4602TIP3    H238002   2.165   3.825   9.156 -2.5181 -2.9444 -1.0011
 4603TIP3   OH238003   1.656   2.130   8.029 -0.3705  0.3248  0.2710
 4603TIP3    H138004   1.676   2.041   8.000  1.9333  1.6434 -2.6727
 4603TIP3    H238005   1.563   2.142   8.007 -0.1634 -0.6814 -1.2976
 4604TIP3   OH238006   2.230   3.895   7.238 -0.6033 -0.4641 -0.5403
 4604TIP3    H138007   2.270   3.891   7.325 -1.7291  1.5621  0.1339
 4604TIP3    H238008   2.304   3.904   7.178  0.1616 -1.4133  0.2294
 4605TIP3   OH238009   0.156   0.293   7.834 -0.1931  0.7347  0.5760
 4605TIP3    H138010   0.079   0.260   7.881  0.2605 -1.0963  0.0961
 4605TIP3    H238011   0.137   0.275   7.742  0.6945  0.4885  0.4332
 4606TIP3   OH238012   4.283   1.697   7.807 -0.2575  0.4603  0.4191
 4606TIP3    H138013   4.309   1.664   7.721 -1.3661 -1.6547  0.8501
 4606TIP3    H238014   4.361   1.687   7.861  0.2847  1.3065 -0.1754
 4607TIP3   OH238015   4.742   6.776   9.078 -0.0560  0.2146 -0.0560
 4607TIP3    H138016   4.818   6.724   9.051 -0.4266 -0.3779  0.0256
 4607TIP3    H238017   4.667   6.721   9.057 -0.5712  1.4802 -1.7177
 4608TIP3   OH238018   4.640   6.204   8.417 -0.2079  0.1767 -0.4003
 4608TIP3    H138019   4.574   6.200   8.487  0.8757 -0.0935  0.6258
 4608TIP3    H238020   4.588   6.201   8.336 -1.4971  0.5825  0.3671
 4609TIP3   OH238021   0.739   2.335   9.342  0.0069  0.2019  0.0377
 4609TIP3    H138022   0.818   2.320   9.290  0.6161 -1.1872  1.2952
 4609TIP3    H238023   0.676   2.371   9.279  2.3867  4.0878 -0.4608
 4610TIP3   OH238024   6.244   5.724   8.921  0.2369 -0.6958  0.0986
 4610TIP3    H138025   6.323   5.778   8.929  0.4026 -0.5386 -1.9704
 4610TIP3    H238026   6.177   5.785   8.890 -0.2195 -1.2006  0.0832
 4611TIP3   OH238027   6.056   7.579   7.224  0.2763  0.1209 -0.0135
 4611TIP3    H138028   6.032   7.487   7.230  0.8227 -0.1076 -1.0780
 4611TIP3    H238029   5.972   7.626   7.231  0.0114 -0.4386  0.6665
 4612TIP3   OH238030   5.813   6.076   7.735  0.0215 -0.3764  0.3792
 4612TIP3    H138031   5.776   6.164   7.725 -0.0584 -0.4488  0.0415
 4612TIP3    H238032   5.761   6.037   7.805  1.2258  0.4728  1.8115
 4613TIP3   OH238033   3.197   3.662   9.351  0.4491 -0.6295  0.0819
 4613TIP3    H138034   3.224   3.699   9.435  0.7504 -1.4769  0.3664
 4613TIP3    H238035   3.228   3.725   9.286  1.3175 -0.5791  0.5323
 4614TIP3   OH238036   0.789   3.587   8.886 -0.5862  0.0117 -0.1947
 4614TIP3    H138037   0.784   3.678   8.858 -1.9009  0.3198  0.9398
 4614TIP3    H238038   0.841   3.544   8.818  0.1664  1.6162 -0.6898
 4615TIP3   OH238039   6.947   2.382   8.985  0.0582 -0.0735 -0.0532
 4615TIP3    H138040   6.946   2.340   8.899  0.7553 -1.0521  0.3863
 4615TIP3    H238041   7.038   2.371   9.016 -0.2478  0.0035  0.9169
 4616TIP3   OH238042   4.238   0.797   8.195 -0.3200 -0.0745  0.2267
 4616TIP3    H138043   4.196   0.761   8.273 -1.8603 -0.2704 -0.6518
 4616TIP3    H238044   4.323   0.754   8.191 -0.9902 -1.5041  0.7472
 4617TIP3   OH238045   1.359   1.271   7.831 -0.3729  0.1674 -0.1500
 4617TIP3    H138046   1.454   1.283   7.822 -0.3197  0.8718  1.0851
 4617TIP3    H238047   1.321   1.351   7.795 -0.5346 -0.3310 -1.1067
 4618TIP3   OH238048   6.515   0.248   8.096 -0.0127  0.5471  0.3851
 4618TIP3    H138049   6.505   0.169   8.150 -0.7798 -0.5185 -1.2182
 4618TIP3    H238050   6.607   0.250   8.073  0.0278  0.1426  0.5021
 4619TIP3   OH238051   2.993   0.775   8.703  0.2774  0.4788  0.8823
 4619TIP3    H138052   3.071   0.783   8.648 -0.9453 -1.1560 -1.2512
 4619TIP3    H238053   2.938   0.849   8.677  0.6349  1.0238  1.6263
 4620TIP3   OH238054   1.200   4.783   6.548  0.1190  0.4330 -0.3737
 4620TIP3    H138055   1.253   4.850   6.591 -1.0393  1.1766 -0.0539
 4620TIP3    H238056   1.181   4.820   6.461  0.4648 -0.0125 -0.6434
 4621TIP3   OH238057   5.144   5.087   9.196 -0.2988  0.4315 -0.3723
 4621TIP3    H138058   5.089   5.166   9.196 -0.0400  0.6220  0.9089
 4621TIP3    H238059   5.085   5.016   9.219  0.2323  0.8561  2.6157
 4622TIP3   OH238060   2.081   2.630   8.303  0.3336 -0.3201  0.2265
 4622TIP3    H138061   1.995   2.598   8.278  0.5638  0.2248 -1.3866
 4622TIP3    H238062   2.142   2.583   8.245  0.8316  1.5687 -0.8626
 4623TIP3   OH238063   0.884   3.591   6.674 -0.1816  0.9887  0.0442
 4623TIP3    H138064   0.963   3.617   6.723 -0.0241  2.9630 -1.1402
 4623TIP3    H238065   0.914   3.583   6.583 -1.2528  1.3620 -0.3519
 4624TIP3   OH238066   1.052   6.276   7.653 -0.1302 -0.5112  0.0980
 4624TIP3    H138067   1.000   6.353   7.630 -1.2694 -1.6129 -1.1947
 4624TIP3    H238068   1.055   6.278   7.749 -0.9531  0.6202  0.1244
 4625TIP3   OH238069   2.803   1.890   8.779 -0.6088 -0.8527 -0.4140
 4625TIP3    H138070   2.749   1.883   8.701 -0.3960 -0.2872 -0.6193
 4625TIP3    H238071   2.746   1.931   8.844  0.6331  3.7264 -1.8104
 4626TIP3   OH238072   5.622   3.100   7.961 -0.7878 -0.4034 -0.2133
 4626TIP3    H138073   5.535   3.107   7.922 -1.2498  0.0671  0.8677
 4626TIP3    H238074   5.667   3.034   7.907 -1.6815 -0.3947 -0.9977
 4627TIP3   OH238075   4.733   3.500   8.690 -0.9429 -0.3502  0.1273
 4627TIP3    H138076   4.654   3.533   8.732 -0.3981  0.4269  0.5616
 4627TIP3    H238077   4.761   3.427   8.745 -0.3868  0.4880  0.9753
 4628TIP3   OH238078   6.126   1.565   9.357  0.3021 -0.1521 -0.0615
 4628TIP3    H138079   6.050   1.622   9.371 -0.1750 -0.4940 -1.1729
 4628TIP3    H238080   6.197   1.625   9.334 -0.0079  0.0595 -0.4770
 4629TIP3   OH238081   3.285   5.415   7.135  0.7861 -0.2718 -0.7406
 4629TIP3    H138082   3.317   5.472   7.205  0.8767  0.2525 -1.2120
 4629TIP3    H238083   3.361   5.363   7.110  0.8812 -0.0998 -0.8065
 4630TIP3   OH238084   4.046   2.737   8.267  0.1158 -0.8002 -0.5970
 4630TIP3    H138085   4.034   2.805   8.201 -0.8901 -2.4776 -2.2514
 4630TIP3    H238086   4.010   2.658   8.227 -0.4487 -1.9394  1.9465
 4631TIP3   OH238087   3.785   0.289   7.235  0.4499  0.3591 -0.5895
 4631TIP3    H138088   3.706   0.340   7.253  0.3808 -0.5021  2.0460
 4631TIP3    H238089   3.853   0.331   7.287  1.1981 -0.2168 -1.0781
 4632TIP3   OH238090   3.786   5.213   7.242 -0.1051 -0.3427 -0.2438
 4632TIP3    H138091   3.727   5.271   7.290 -0.1039  0.1578 -0.8476
 4632TIP3    H238092   3.727   5.153   7.195 -0.1765  0.7952 -1.6531
 4633TIP3   OH238093   0.479   5.715   7.042 -0.3156  0.1705 -0.1739
 4633TIP3    H138094   0.546   5.689   6.979 -0.5453  1.0423 -0.7977
 4633TIP3    H238095   0.396   5.705   6.995 -0.5656 -0.0117  0.2889
 4634TIP3   OH238096   2.674   6.131   7.755 -0.0893  0.0777 -0.4952
 4634TIP3    H138097   2.622   6.108   7.832  0.9894 -1.1912 -0.0996
 4634TIP3    H238098   2.754   6.170   7.792  1.5962 -2.8806 -0.7679
 4635TIP3   OH238099   3.681   0.391   7.509 -0.3981  0.2349 -0.6261
 4635TIP3    H138100   3.635   0.418   7.588 -0.6428 -0.1344 -0.6406
 4635TIP3    H238101   3.617   0.339   7.460  0.0794 -0.4347 -0.5580
 4636TIP3   OH238102   0.625   5.516   7.547 -0.4666 -0.4156 -0.4641
 4636TIP3    H138103   0.667   5.434   7.520  0.9933  0.3275 -0.5371
 4636TIP3    H238104   0.594   5.555   7.466  1.6442  0.5841 -0.8545
 4637TIP3   OH238105   5.061   0.321   7.204 -0.4009 -0.5843  0.5635
 4637TIP3    H138106   4.969   0.343   7.198 -0.6738 -1.6127  0.7433
 4637TIP3    H238107   5.082   0.329   7.297  0.0584  1.0009  0.3432
 4638TIP3   OH238108   2.518   5.379   9.085  0.0294  0.1686 -0.2346
 4638TIP3    H138109   2.532   5.361   8.992  1.5141  0.3190 -0.0734
 4638TIP3    H238110   2.604   5.406   9.117 -0.3692 -0.2418  1.2733
 4639TIP3   OH238111   3.524   0.930   7.815  0.3600 -0.1231 -0.5966
 4639TIP3    H138112   3.598   0.975   7.775 -0.2298 -0.2140 -1.8302
 4639TIP3    H238113   3.556   0.842   7.832  0.4458 -0.2709 -1.4657
 4640TIP3   OH238114   6.849   0.113   7.167 -0.1697  0.3380 -0.0945
 4640TIP3    H138115   6.763   0.146   7.194 -0.1129 -0.8932  1.8315
 4640TIP3    H238116   6.897   0.191   7.139 -2.1189  0.9582 -1.9842
 4641TIP3   OH238117   4.869   2.426   8.039 -0.3009 -0.5114  0.1741
 4641TIP3    H138118   4.959   2.451   8.020 -0.4652 -0.7365 -0.9771
 4641TIP3    H238119   4.858   2.445   8.132  0.4198  1.1183 -0.0378
 4642TIP3   OH238120   1.375   3.773   6.534 -0.2682  0.3002 -0.2742
 4642TIP3    H138121   1.448   3.747   6.477 -1.7484 -2.0987 -1.2206
 4642TIP3    H238122   1.415   3.784   6.620  1.1116 -1.8366 -0.5633
 4643TIP3   OH238123   1.792   0.893   9.281  0.1000 -0.4722 -0.0830
 4643TIP3    H138124   1.812   0.804   9.250  1.3814  0.1747 -1.2185
 4643TIP3    H238125   1.725   0.925   9.221  0.0650 -0.4674 -0.0414
 4644TIP3   OH238126   0.314   3.930   8.362 -0.2073  0.2458  0.5563
 4644TIP3    H138127   0.321   3.972   8.448 -0.1008 -0.3510  0.8444
 4644TIP3    H238128   0.338   3.998   8.300  1.9866  0.0421  1.1223
 4645TIP3   OH238129   6.526   3.611   6.598  0.1236 -0.0984 -0.0183
 4645TIP3    H138130   6.468   3.641   6.529  1.5028 -1.2913 -1.7769
 4645TIP3    H238131   6.579   3.543   6.557 -0.3439 -2.3303  2.7330
 4646TIP3   OH238132   4.288   2.434   9.363  0.4447  0.2249  0.0042
 4646TIP3    H138133   4.276   2.357   9.419 -2.5096 -0.0190 -0.7759
 4646TIP3    H238134   4.266   2.403   9.275  0.5608  1.6531 -0.5547
 4647TIP3   OH238135   2.506   7.427   7.556 -0.1674 -0.3038 -0.1132
 4647TIP3    H138136   2.572   7.483   7.597 -0.3125 -1.3262  1.5910
 4647TIP3    H238137   2.424   7.451   7.597 -0.6616  0.0055 -1.2417
 4648TIP3   OH238138   4.109   1.815   8.212  0.0034  0.1485 -0.3400
 4648TIP3    H138139   4.083   1.723   8.203 -0.4328 -0.0083  2.0159
 4648TIP3    H238140   4.036   1.856   8.259  1.0569  1.2415  0.3911
 4649TIP3   OH238141   4.583   7.585   9.074  0.9353 -0.8886  0.4671
 4649TIP3    H138142   4.676   7.595   9.054  0.7971 -0.9338 -0.2101
 4649TIP3    H238143   4.552   7.520   9.011  0.2968 -0.3742  0.2400
 4650TIP3   OH238144   0.020   5.475   7.571 -0.4728 -0.6743  0.5749
 4650TIP3    H138145   0.063   5.525   7.641  0.7994  0.6495 -1.0822
 4650TIP3    H238146   0.074   5.489   7.494 -1.9918 -1.8495 -0.7811
 4651TIP3   OH238147   1.381   1.940   7.487  0.7999 -0.1358  0.5366
 4651TIP3    H138148   1.454   1.879   7.488  1.7519  0.9665  0.5164
 4651TIP3    H238149   1.402   2.003   7.556  0.0796  0.4324  0.2508
 4652TIP3   OH238150   5.946   2.068   7.246 -0.4143  0.3183  0.1233
 4652TIP3    H138151   5.857   2.053   7.214  0.2190 -0.6988 -1.2757
 4652TIP3    H238152   6.002   2.041   7.173  1.0200  3.5294 -0.1369
 4653TIP3   OH238153   5.326   7.389   9.675 -0.3842 -0.2907 -0.3075
 4653TIP3    H138154   5.312   7.294   9.669 -2.0355 -0.0583 -0.6976
 4653TIP3    H238155   5.415   7.398   9.709 -0.4797 -1.9961  0.5083
 4654TIP3   OH238156   0.758   2.799   9.273  0.0582  0.1457 -0.2254
 4654TIP3    H138157   0.678   2.806   9.220 -1.1022 -0.9529  1.2751
 4654TIP3    H238158   0.801   2.884   9.263 -1.4501  0.8722 -0.8684
 4655TIP3   OH238159   4.822   3.113   8.856  0.2054 -0.6191  0.1196
 4655TIP3    H138160   4.768   3.100   8.779  1.7798  0.2552 -1.2095
 4655TIP3    H238161   4.912   3.100   8.825  0.8094 -2.3118  2.2843
 4656TIP3   OH238162   7.567   4.684   8.055  0.2332 -0.1789 -0.2471
 4656TIP3    H138163   7.633   4.681   7.986  0.5110 -0.8858  0.0501
 4656TIP3    H238164   7.524   4.769   8.043  0.4401 -0.1963 -1.1363
 4657TIP3   OH238165   2.371   6.312   8.059  0.2049 -0.3019 -0.9529
 4657TIP3    H138166   2.277   6.328   8.070 -0.3161 -2.4164 -1.7937
 4657TIP3    H238167   2.410   6.335   8.143 -1.2654 -0.6243 -0.1568
 4658TIP3   OH238168   3.872   1.251   9.027  0.5903 -0.4513  0.2145
 4658TIP3    H138169   3.803   1.288   9.082 -0.5817  0.3176 -1.6885
 4658TIP3    H238170   3.825   1.200   8.961  1.9371 -1.0703 -0.3069
 4659TIP3   OH238171   0.356   4.105   8.156 -0.1759  0.2343 -0.0128
 4659TIP3    H138172   0.332   4.135   8.069 -0.8790 -1.4555 -0.4341
 4659TIP3    H238173   0.452   4.101   8.155 -0.1537  0.7949 -0.4906
 4660TIP3   OH238174   1.541   0.080   7.639 -0.4746  0.3329 -0.2994
 4660TIP3    H138175   1.630   0.044   7.631 -0.3522  0.0278  1.8430
 4660TIP3    H238176   1.493   0.040   7.567  0.4981 -1.5546  0.0248
 4661TIP3   OH238177   7.000   0.337   7.039  0.2931 -0.0094  0.0921
 4661TIP3    H138178   7.000   0.429   7.066  0.7454  0.5029 -1.5356
 4661TIP3    H238179   7.085   0.304   7.067  0.6202  0.4188 -0.3648
 4662TIP3   OH238180   4.100   0.852   7.656  0.7896  0.0873  0.6560
 4662TIP3    H138181   4.131   0.941   7.641 -0.7111  0.3522 -1.3271
 4662TIP3    H238182   4.036   0.859   7.727 -0.5618  0.9316 -0.5978
 4663TIP3   OH238183   6.291   1.274   8.146 -0.0462 -0.0163 -0.4446
 4663TIP3    H138184   6.316   1.348   8.091  0.1958 -0.7276 -1.3178
 4663TIP3    H238185   6.195   1.272   8.141 -0.1972  1.3252  1.0650
 4664TIP3   OH238186   2.633   6.900   7.581 -0.2601  0.2539  0.0519
 4664TIP3    H138187   2.677   6.887   7.665 -2.1699  0.7772  1.1964
 4664TIP3    H238188   2.631   6.995   7.571  1.8701  0.1854 -1.7149
 4665TIP3   OH238189   6.924   1.487   7.539  0.0692 -0.4395 -0.0807
 4665TIP3    H138190   6.961   1.557   7.592  1.1272 -0.9299 -0.1478
 4665TIP3    H238191   6.839   1.468   7.580 -0.9457  1.8740 -0.9497
 4666TIP3   OH238192   0.910   2.580   9.321 -0.9365 -0.0249  0.5334
 4666TIP3    H138193   0.841   2.530   9.362 -0.6162 -0.4590  0.5443
 4666TIP3    H238194   0.872   2.667   9.309 -2.3001 -0.8241 -1.5106
 4667TIP3   OH238195   1.876   3.838   9.528 -0.1872 -0.4123  1.0970
 4667TIP3    H138196   1.868   3.932   9.519 -0.0990 -0.3660  1.4725
 4667TIP3    H238197   1.786   3.806   9.536 -0.2623 -0.4487  0.1780
 4668TIP3   OH238198   5.964   0.773   8.154 -0.1137  0.1138  0.2181
 4668TIP3    H138199   5.970   0.818   8.238  1.7346 -0.5755  0.4862
 4668TIP3    H238200   5.974   0.681   8.175  0.1615 -0.0845 -0.7501
 4669TIP3   OH238201   0.177   5.516   7.359  0.1244 -0.4032 -0.1028
 4669TIP3    H138202   0.160   5.599   7.313  1.0261 -0.3428 -0.3512
 4669TIP3    H238203   0.270   5.498   7.342  0.3403 -0.6646  1.2515
 4670TIP3   OH238204   3.398   1.139   7.694 -0.2855 -0.0384  0.2442
 4670TIP3    H138205   3.436   1.079   7.759 -0.8317 -1.8444 -1.0421
 4670TIP3    H238206   3.474   1.189   7.661  0.2742 -0.4278  0.9095
 4671TIP3   OH238207   0.771   4.113   6.706  0.2260 -0.7131 -0.4565
 4671TIP3    H138208   0.835   4.173   6.667 -1.3794  0.6830 -1.0966
 4671TIP3    H238209   0.823   4.039   6.738  2.0776  0.1258 -1.3776
 4672TIP3   OH238210   0.348   4.295   9.271 -0.4957 -0.4340  0.1234
 4672TIP3    H138211   0.370   4.214   9.318  0.2098 -0.0089  0.5444
 4672TIP3    H238212   0.296   4.266   9.196  0.0419 -1.3188  0.0745
 4673TIP3   OH238213   3.353   6.595   8.933  0.9997  0.3038 -0.0926
 4673TIP3    H138214   3.262   6.605   8.906  1.4875  2.4667 -1.2454
 4673TIP3    H238215   3.358   6.640   9.018  1.0001  0.3246 -0.1033
 4674TIP3   OH238216   2.905   5.716   7.941  0.1116  0.3892 -0.3934
 4674TIP3    H138217   2.965   5.652   7.980  0.1966  0.1789 -0.8716
 4674TIP3    H238218   2.907   5.791   8.002  1.6426  0.8033 -0.9269
 4675TIP3   OH238219   4.848   1.542   8.705 -0.0223  0.0185 -0.2782
 4675TIP3    H138220   4.901   1.596   8.646  1.4658 -1.3759 -0.2550
 4675TIP3    H238221   4.863   1.580   8.791  0.5986 -0.1131 -0.3286
 4676TIP3   OH238222   1.941   2.905   9.258  0.4367 -0.2031 -0.2240
 4676TIP3    H138223   2.013   2.951   9.300  0.1126  0.6710 -0.5888
 4676TIP3    H238224   1.936   2.944   9.170  1.1311 -2.0124 -1.1133
 4677TIP3   OH238225   3.320   4.718   8.842 -0.3671 -0.0532 -0.8552
 4677TIP3    H138226   3.385   4.730   8.911 -1.6476 -0.9451  0.5648
 4677TIP3    H238227   3.319   4.801   8.794  2.1230 -0.1663 -1.2427
 4678TIP3   OH238228   4.487   0.628   9.093 -0.1933  0.1563  0.3093
 4678TIP3    H138229   4.406   0.627   9.144  0.1446 -0.9199  0.8560
 4678TIP3    H238230   4.470   0.569   9.020 -0.3590  0.9834 -0.3285
 4679TIP3   OH238231   1.580   0.618   8.920 -0.1209 -0.2913  0.0950
 4679TIP3    H138232   1.565   0.523   8.922  1.5058 -0.5805 -0.1353
 4679TIP3    H238233   1.628   0.632   8.839 -1.6231  0.9717 -0.6311
 4680TIP3   OH238234   3.328   2.317   8.632  0.2148 -0.1086  0.2839
 4680TIP3    H138235   3.304   2.230   8.603 -0.3092  0.4155 -0.9351
 4680TIP3    H238236   3.244   2.361   8.649  0.2768  1.1073 -2.1096
 4681TIP3   OH238237   3.453   3.336   7.579  0.2028  0.3669  0.1113
 4681TIP3    H138238   3.402   3.339   7.660  1.2154  1.9294  0.7274
 4681TIP3    H238239   3.387   3.328   7.510 -0.6355 -2.4411  1.0734
 4682TIP3   OH238240   3.728   2.614   6.643  0.5372 -0.4319 -0.6662
 4682TIP3    H138241   3.740   2.554   6.717 -0.0490  0.6247  0.3096
 4682TIP3    H238242   3.815   2.623   6.605  1.8287  2.1604  2.4167
 4683TIP3   OH238243   5.892   1.713   9.120  0.4129  0.7335 -0.1034
 4683TIP3    H138244   5.843   1.795   9.129 -0.0180  0.5010 -0.2644
 4683TIP3    H238245   5.980   1.740   9.093 -0.0490  1.0862 -1.3419
 4684TIP3   OH238246   3.023   6.640   6.978  0.5214 -0.3837 -0.2461
 4684TIP3    H138247   3.030   6.680   6.891 -2.2605 -0.6678 -0.7062
 4684TIP3    H238248   2.945   6.584   6.972  2.1584 -3.0996  1.4590
 4685TIP3   OH238249   6.601   1.257   6.915 -0.4195  0.3337 -0.3421
 4685TIP3    H138250   6.651   1.240   6.835  2.2906  1.8138  0.8924
 4685TIP3    H238251   6.510   1.267   6.885  0.5945  1.6526 -3.3699
 4686TIP3   OH238252   3.049   2.340   7.559  0.0011  0.1682  0.2661
 4686TIP3    H138253   3.119   2.329   7.624  0.9401 -0.1450 -0.7549
 4686TIP3    H238254   3.084   2.403   7.497 -0.5453 -0.1482 -0.3760
 4687TIP3   OH238255   1.591   0.989   7.881  0.0434 -0.0636  0.4033
 4687TIP3    H138256   1.496   0.987   7.894  0.1935  0.6929  1.7125
 4687TIP3    H238257   1.603   1.035   7.798 -0.7660 -1.3723 -0.4849
 4688TIP3   OH238258   1.533   7.116   9.025  0.3794 -0.4220  0.1521
 4688TIP3    H138259   1.486   7.183   9.075  0.0337 -0.5048 -0.0585
 4688TIP3    H238260   1.549   7.157   8.940 -0.3029 -0.7829 -0.1664
 4689TIP3   OH238261   1.244   6.755   9.209 -0.1376  0.2429 -0.0780
 4689TIP3    H138262   1.335   6.757   9.240 -0.2411  3.9469  0.5388
 4689TIP3    H238263   1.244   6.815   9.134 -1.9036 -0.3923 -0.6183
 4690TIP3   OH238264   7.597   0.637   7.939 -0.6131  0.0729 -0.5465
 4690TIP3    H138265   7.636   0.665   7.856  0.4548  0.5287  0.0851
 4690TIP3    H238266   7.666   0.587   7.982 -0.7894  0.7197  0.5148
 4691TIP3   OH238267   0.718   7.125   7.784 -0.8079  0.2285  0.6315
 4691TIP3    H138268   0.706   7.183   7.860 -0.0406 -0.1240  1.0327
 4691TIP3    H238269   0.763   7.180   7.720 -0.0652  0.0793  1.0181
 4692TIP3   OH238270   6.211   0.852   8.029 -0.6243  0.9268 -0.0279
 4692TIP3    H138271   6.269   0.779   8.050  0.7243  2.0168  0.1627
 4692TIP3    H238272   6.123   0.816   8.041 -0.0014 -0.1065  2.1171
 4693TIP3   OH238273   6.346   4.277   7.243  0.2670  0.0092 -0.1655
 4693TIP3    H138274   6.377   4.255   7.155  0.9360  1.9420 -0.4686
 4693TIP3    H238275   6.264   4.227   7.253  0.4157 -0.5983 -1.6933
 4694TIP3   OH238276   2.529   6.747   7.388 -0.0252  0.0754 -0.1701
 4694TIP3    H138277   2.545   6.790   7.472  0.7777  0.9476 -0.7463
 4694TIP3    H238278   2.484   6.814   7.335  1.1337  0.1973 -1.0395
 4695TIP3   OH238279   3.856   4.988   7.712  0.2481 -0.2399  0.0521
 4695TIP3    H138280   3.820   4.920   7.769 -0.7507  1.2438  1.2895
 4695TIP3    H238281   3.866   5.064   7.770  1.6197  0.5739 -1.2064
 4696TIP3   OH238282   3.943   2.639   7.952 -0.5700  0.3190 -0.2749
 4696TIP3    H138283   3.847   2.638   7.947 -0.5949 -0.6979  0.2596
 4696TIP3    H238284   3.969   2.705   7.887 -1.5711 -0.5058 -1.5580
 4697TIP3   OH238285   4.388   6.463   9.523  0.2512  0.7059  1.0245
 4697TIP3    H138286   4.434   6.403   9.582 -1.7249 -2.0473 -0.0048
 4697TIP3    H238287   4.448   6.475   9.449  0.0990 -1.4531  0.4769
 4698TIP3   OH238288   3.844   6.192   9.211 -0.1130 -0.0320  0.1554
 4698TIP3    H138289   3.928   6.146   9.217 -0.8430 -1.3521  0.6615
 4698TIP3    H238290   3.856   6.270   9.266  0.0870 -1.3708  2.1236
 4699TIP3   OH238291   4.171   1.473   8.840 -0.1112 -0.0364  0.3768
 4699TIP3    H138292   4.093   1.452   8.788 -0.1703 -1.0051  0.8326
 4699TIP3    H238293   4.245   1.452   8.782 -0.1391  2.5681 -0.7206
 4700TIP3   OH238294   2.839   2.231   8.584  0.2092  0.2886 -0.2127
 4700TIP3    H138295   2.762   2.250   8.638 -0.0290 -0.7801 -0.1493
 4700TIP3    H238296   2.913   2.256   8.639 -0.0736  0.9647 -0.1263
 4701TIP3   OH238297   1.924   1.834   8.594 -1.0113 -0.3170 -0.1694
 4701TIP3    H138298   1.952   1.743   8.585  1.4516  0.3604  0.0297
 4701TIP3    H238299   1.897   1.842   8.685 -0.5851 -0.6870 -0.0067
 4702TIP3   OH238300   1.583   2.465   7.648 -0.5264  0.0732 -0.2114
 4702TIP3    H138301   1.506   2.415   7.620 -1.0541 -0.1075  1.4382
 4702TIP3    H238302   1.646   2.398   7.676 -0.8736  0.2598  1.1047
 4703TIP3   OH238303   7.111   5.882   7.983  0.0874 -0.1185 -0.1858
 4703TIP3    H138304   7.119   5.840   8.069 -1.8558 -0.5047 -0.1492
 4703TIP3    H238305   7.067   5.817   7.929  0.5834  0.4233 -1.2558
 4704TIP3   OH238306   7.202   2.312   9.079  0.2856 -0.2158 -0.3559
 4704TIP3    H138307   7.266   2.257   9.032  1.4142  0.6377  0.1234
 4704TIP3    H238308   7.156   2.251   9.136  1.8011 -0.6264  0.4700
 4705TIP3   OH238309   6.662   3.175   7.515  0.9400  0.0412  0.1547
 4705TIP3    H138310   6.573   3.140   7.520  1.2289 -0.6837  0.3490
 4705TIP3    H238311   6.718   3.097   7.512  1.4726  0.4170 -2.2944
 4706TIP3   OH238312   1.208   0.067   8.301 -0.1919  0.2067 -0.3734
 4706TIP3    H138313   1.234   0.158   8.320 -0.5702  0.0785  0.8727
 4706TIP3    H238314   1.130   0.053   8.354 -0.6896 -0.5620 -1.2913
 4707TIP3   OH238315   0.995   1.418   7.937  0.1644 -0.4851  0.8034
 4707TIP3    H138316   0.943   1.458   8.006 -0.5503  1.0045 -0.5379
 4707TIP3    H238317   0.939   1.349   7.901 -0.5073  0.4281  0.0533
 4708TIP3   OH238318   4.472   6.145   8.184  0.0823 -0.3397  1.2102
 4708TIP3    H138319   4.464   6.085   8.110 -1.3901  2.1993 -0.8246
 4708TIP3    H238320   4.393   6.128   8.236  0.4582 -1.2013  1.5287
 4709TIP3   OH238321   1.815   5.799   7.352  0.4696 -0.1595 -0.5369
 4709TIP3    H138322   1.899   5.792   7.398  1.4189  1.0431 -1.9701
 4709TIP3    H238323   1.751   5.811   7.421  1.4375 -1.3672  0.6152
 4710TIP3   OH238324   5.783   2.961   7.085  0.1487 -0.3426 -0.4086
 4710TIP3    H138325   5.705   3.004   7.051  0.2279  0.3238  0.2345
 4710TIP3    H238326   5.845   2.963   7.013 -0.0785  0.0234 -0.5962
 4711TIP3   OH238327   5.783   1.921   9.280 -0.0680 -0.6120 -0.0614
 4711TIP3    H138328   5.691   1.907   9.302  0.0415  0.3162  1.1107
 4711TIP3    H238329   5.831   1.866   9.342  0.1816 -1.6810 -1.1603
 4712TIP3   OH238330   4.012   7.350   8.891 -0.0905  0.4574  0.3348
 4712TIP3    H138331   3.962   7.303   8.958  0.4882 -0.6871 -0.0150
 4712TIP3    H238332   3.955   7.424   8.867 -0.5426  0.5895  1.6841
 4713TIP3   OH238333   3.308   0.511   7.852 -0.0117  0.4637  0.1344
 4713TIP3    H138334   3.237   0.454   7.822  0.7134 -0.9519  0.9989
 4713TIP3    H238335   3.267   0.569   7.916 -0.7637  0.9702 -0.7690
 4714TIP3   OH238336   5.420   4.589   9.199 -0.4951  0.0180  0.2356
 4714TIP3    H138337   5.455   4.670   9.235  0.5156 -0.7972  1.1737
 4714TIP3    H238338   5.497   4.537   9.176 -1.1079 -0.7807 -0.0892
 4715TIP3   OH238339   2.463   6.734   7.811 -0.0964  0.0986 -0.6428
 4715TIP3    H138340   2.455   6.805   7.748  0.5765  0.3664 -0.4429
 4715TIP3    H238341   2.408   6.760   7.885 -0.5401 -0.0079 -0.9336
 4716TIP3   OH238342   2.344   1.921   9.564 -0.3196  0.9544  0.2009
 4716TIP3    H138343   2.378   1.848   9.615  0.9502  2.7875  2.1691
 4716TIP3    H238344   2.250   1.924   9.586 -0.3680  0.0157  0.1594
 4717TIP3   OH238345   0.110   4.601   7.251  0.6035  0.5972  0.6981
 4717TIP3    H138346   0.109   4.608   7.347 -0.7254  0.2254  0.7310
 4717TIP3    H238347   0.081   4.512   7.233 -2.6273  1.6704 -0.0708
 4718TIP3   OH238348   7.550   6.756   8.676 -0.0195  0.5102 -0.1833
 4718TIP3    H138349   7.560   6.782   8.584  0.1501  2.0938  0.2419
 4718TIP3    H238350   7.640   6.749   8.709 -0.0456 -1.2309 -0.4169
 4719TIP3   OH238351   2.080   4.848   6.516 -0.0236  0.0792  0.1654
 4719TIP3    H138352   2.129   4.810   6.589  0.0410 -0.9825 -0.4124
 4719TIP3    H238353   2.146   4.873   6.452 -0.1313  0.1745  0.0903
 4720TIP3   OH238354   5.249   1.630   7.977 -0.1286  0.1865  0.1612
 4720TIP3    H138355   5.253   1.571   7.902  0.6805 -0.2806  0.5596
 4720TIP3    H238356   5.317   1.696   7.960 -0.5195  0.5813  0.0847
 4721TIP3   OH238357   5.358   5.633   8.807  0.3467 -0.2717  0.1370
 4721TIP3    H138358   5.381   5.716   8.766 -1.4465 -0.1992 -0.7897
 4721TIP3    H238359   5.429   5.574   8.782  1.5350  0.8923  0.6343
 4722TIP3   OH238360   4.283   5.150   7.371  0.9543  0.6383  0.0615
 4722TIP3    H138361   4.288   5.067   7.325  1.4668  0.6881  0.0239
 4722TIP3    H238362   4.374   5.173   7.390  0.7294  0.1799  1.8698
 4723TIP3   OH238363   3.247   3.326   9.002 -0.6979  0.7367  0.2937
 4723TIP3    H138364   3.314   3.260   9.017  0.1562  1.6072  0.3892
 4723TIP3    H238365   3.204   3.336   9.087 -1.0416  0.0965  0.2043
 4724TIP3   OH238366   0.262   2.074   8.191  0.5653  0.4732  0.2223
 4724TIP3    H138367   0.292   2.117   8.271  0.6078  0.2049  0.3521
 4724TIP3    H238368   0.323   2.102   8.124  1.0095  0.0657  0.4509
 4725TIP3   OH238369   1.980   2.771   7.110  0.3592  0.1434 -0.2649
 4725TIP3    H138370   1.934   2.846   7.073  0.5039 -0.2191 -1.1939
 4725TIP3    H238371   1.939   2.757   7.196 -1.0263  0.0437 -0.9239
 4726TIP3   OH238372   2.516   7.364   7.850 -0.2152 -0.2006 -0.7234
 4726TIP3    H138373   2.482   7.392   7.766 -0.7783  2.0664  0.1904
 4726TIP3    H238374   2.439   7.351   7.905  0.1647  2.8325  0.7189
 4727TIP3   OH238375   3.978   5.024   7.207 -0.6002 -0.5592  0.0985
 4727TIP3    H138376   3.909   5.081   7.241 -0.8213 -0.6559 -0.1794
 4727TIP3    H238377   3.962   5.022   7.113  1.3874  1.5681 -0.3702
 4728TIP3   OH238378   0.936   7.458   8.586  0.2306 -0.1003  0.5758
 4728TIP3    H138379   1.029   7.442   8.572 -0.3121 -1.6418 -2.0801
 4728TIP3    H238380   0.920   7.544   8.548  0.5221  0.1183  0.9376
 4729TIP3   OH238381   7.270   7.180   7.221  0.0931 -0.4253  0.4302
 4729TIP3    H138382   7.227   7.199   7.304  0.3229 -1.2202  0.7403
 4729TIP3    H238383   7.305   7.091   7.232  1.5216  0.0570  0.0827
 4730TIP3   OH238384   3.860   1.846   6.976  0.0976  0.0238 -0.0528
 4730TIP3    H138385   3.800   1.875   6.906 -0.3151  1.7106  0.9252
 4730TIP3    H238386   3.928   1.796   6.930 -1.2138 -0.6154 -1.3926
 4731TIP3   OH238387   1.006   4.750   7.780  0.0322  0.6088 -0.1883
 4731TIP3    H138388   1.006   4.694   7.702 -2.9875 -0.9105  0.7516
 4731TIP3    H238389   1.082   4.808   7.768  1.2684 -1.3534 -2.8986
 4732TIP3   OH238390   5.758   2.544   6.718 -0.0464 -0.0427  0.2480
 4732TIP3    H138391   5.668   2.542   6.684 -0.3499  2.6419  0.6957
 4732TIP3    H238392   5.807   2.593   6.653  0.8571 -0.4669  0.5909
 4733TIP3   OH238393   4.591   5.871   8.350  0.1740 -0.6813  0.1668
 4733TIP3    H138394   4.563   5.962   8.357  0.5424 -0.6342  1.1896
 4733TIP3    H238395   4.666   5.874   8.291  0.0737 -0.3503  0.0531
 4734TIP3   OH238396   4.940   7.065   8.404  0.0488  0.0004 -0.4636
 4734TIP3    H138397   4.912   7.088   8.315  0.4849  0.5474 -0.4667
 4734TIP3    H238398   4.869   7.094   8.461  0.3849  0.9314 -0.5115
 4735TIP3   OH238399   4.990   1.493   7.221 -0.3608  0.5152 -0.4805
 4735TIP3    H138400   5.050   1.441   7.167 -2.0232 -1.5253 -0.4981
 4735TIP3    H238401   5.031   1.495   7.307 -2.1299 -5.0188  0.9332
 4736TIP3   OH238402   7.263   0.499   8.614 -0.0814  0.2172  0.1057
 4736TIP3    H138403   7.183   0.462   8.652  0.1577 -0.0621  0.3390
 4736TIP3    H238404   7.235   0.537   8.531 -0.5500  0.5475  0.4130
 4737TIP3   OH238405   3.364   2.623   7.430  0.7827  0.6548 -0.3203
 4737TIP3    H138406   3.411   2.625   7.514  0.4838  0.2327 -0.1372
 4737TIP3    H238407   3.335   2.532   7.421 -0.2134  0.9491 -0.3010
 4738TIP3   OH238408   5.618   0.360   7.704 -0.2364 -0.4083  0.2025
 4738TIP3    H138409   5.600   0.422   7.774  2.1789  1.5335 -0.7718
 4738TIP3    H238410   5.661   0.286   7.748 -0.3467 -0.0180  0.9837
 4739TIP3   OH238411   4.240   7.348   9.070  0.3684  0.2805  0.7457
 4739TIP3    H138412   4.167   7.341   9.009  1.3581  0.1915 -0.4589
 4739TIP3    H238413   4.202   7.325   9.155 -1.1720  0.9857  0.2839
 4740TIP3   OH238414   3.137   2.736   7.530 -0.2999 -0.1392  0.4077
 4740TIP3    H138415   3.074   2.701   7.467  0.6953  0.5027 -0.9988
 4740TIP3    H238416   3.222   2.718   7.490  0.3405  0.6779  1.3706
 4741TIP3   OH238417   0.869   4.034   9.204 -0.0147  0.2197  0.6795
 4741TIP3    H138418   0.864   4.111   9.148 -1.3227 -0.4191 -0.1100
 4741TIP3    H238419   0.904   3.965   9.148 -1.2049 -0.3908  0.6580
 4742TIP3   OH238420   0.211   6.554   7.736 -0.3752 -0.1025  0.2428
 4742TIP3    H138421   0.217   6.603   7.818  0.3423  0.4979 -0.1608
 4742TIP3    H238422   0.158   6.477   7.759 -0.1969  0.0568  1.2682
 4743TIP3   OH238423   6.353   4.087   8.746 -0.1330 -0.2261  0.3606
 4743TIP3    H138424   6.283   4.070   8.683 -2.4650 -0.7923  2.8959
 4743TIP3    H238425   6.309   4.134   8.818  2.1671 -0.3672  1.9544
 4744TIP3   OH238426   3.308   0.077   8.055 -0.1934 -0.0636  0.6496
 4744TIP3    H138427   3.312   0.013   8.126  0.2437 -2.0842 -1.1097
 4744TIP3    H238428   3.388   0.062   8.004 -0.2268  1.6940 -0.0232
 4745TIP3   OH238429   0.290   1.207   7.940 -0.1391 -0.8107 -0.4849
 4745TIP3    H138430   0.227   1.147   7.980  1.4984 -4.2070 -2.5050
 4745TIP3    H238431   0.239   1.256   7.875 -1.5507  0.2155  1.3080
 4746TIP3   OH238432   1.845   6.630   9.338 -0.1641  0.2473 -0.8842
 4746TIP3    H138433   1.939   6.610   9.346 -0.1775  0.4374 -0.2194
 4746TIP3    H238434   1.830   6.636   9.243  0.7499  1.4315 -0.9756
 4747TIP3   OH238435   6.916   4.399   9.444  0.4917 -0.0805  0.5105
 4747TIP3    H138436   6.973   4.476   9.443  1.1371 -0.5470  0.2688
 4747TIP3    H238437   6.828   4.434   9.430  0.7581  0.6245  0.5522
 4748TIP3   OH238438   1.426   2.525   7.367 -0.4446  0.2245  0.0978
 4748TIP3    H138439   1.504   2.497   7.319 -2.1909 -1.2304 -2.1028
 4748TIP3    H238440   1.416   2.460   7.436  0.8619  1.0716  1.1414
 4749TIP3   OH238441   1.235   7.218   8.797  0.0988 -0.0765  0.1537
 4749TIP3    H138442   1.241   7.289   8.733 -3.1143  2.1012  1.9821
 4749TIP3    H238443   1.223   7.263   8.881  0.2081 -2.8275  1.7439
 4750TIP3   OH238444   6.749   5.587   9.483 -0.1860 -0.0960  0.7162
 4750TIP3    H138445   6.792   5.671   9.496 -2.0167  1.1659 -0.7744
 4750TIP3    H238446   6.656   5.609   9.476 -0.5112 -1.8573 -2.2681
 4751TIP3   OH238447   7.318   1.291   6.574 -0.3443 -0.2744  0.5383
 4751TIP3    H138448   7.313   1.225   6.643  0.9140 -0.9064  0.0628
 4751TIP3    H238449   7.273   1.368   6.610 -4.0273 -2.0558  0.1950
 4752TIP3   OH238450   5.660   1.467   7.433  0.7843  0.2322 -0.0921
 4752TIP3    H138451   5.735   1.518   7.403 -1.4837  2.3387 -2.7613
 4752TIP3    H238452   5.600   1.532   7.470 -0.1012 -1.2722  1.2380
 4753TIP3   OH238453   1.080   1.115   8.023 -0.3947  0.2626 -0.5232
 4753TIP3    H138454   1.096   1.188   8.083  0.7128  0.0803 -0.5752
 4753TIP3    H238455   1.011   1.146   7.965 -0.0972  1.1869 -0.4001
 4754TIP3   OH238456   6.912   2.269   8.735 -0.6115 -0.1703  0.0489
 4754TIP3    H138457   6.849   2.308   8.675  0.1565  0.2063 -0.5336
 4754TIP3    H238458   6.991   2.257   8.682 -0.3706 -1.1476  0.6167
 4755TIP3   OH238459   5.052   0.053   7.169 -0.1048  0.3375  0.5211
 4755TIP3    H138460   4.994   0.013   7.105  0.9806 -1.1218  0.4094
 4755TIP3    H238461   5.031   0.147   7.164 -0.5255  0.1929 -1.4811
 4756TIP3   OH238462   0.035   6.418   6.683 -0.1494  0.1735  0.2532
 4756TIP3    H138463   0.054   6.512   6.676 -0.2951  0.3233  1.6536
 4756TIP3    H238464  -0.055   6.414   6.714  0.2295 -0.4045  1.3147
 4757TIP3   OH238465   2.343   1.136   8.108 -0.0490  0.1975  0.4569
 4757TIP3    H138466   2.304   1.204   8.163  0.4917  0.0362  1.0574
 4757TIP3    H238467   2.327   1.165   8.019 -0.3177  0.8329  0.7056
 4758TIP3   OH238468   6.745   1.359   8.500  0.0671 -0.1053 -0.0396
 4758TIP3    H138469   6.684   1.291   8.527 -1.3434  1.5327  1.1345
 4758TIP3    H238470   6.740   1.359   8.404 -1.0199 -0.6806  0.0009
 4759TIP3   OH238471   7.494   1.941   7.478 -0.2277  0.0157 -0.0623
 4759TIP3    H138472   7.432   1.989   7.422 -0.5002  0.0196  0.2349
 4759TIP3    H238473   7.572   1.930   7.424 -0.1813  0.7454 -0.1585
 4760TIP3   OH238474   6.471   1.725   6.638  0.1592  0.0093  0.3436
 4760TIP3    H138475   6.561   1.751   6.653  1.3078 -2.7216 -1.0791
 4760TIP3    H238476   6.427   1.804   6.607  1.8337  1.5494  1.6798
 4761TIP3   OH238477   2.056   0.325   7.818 -0.1356 -0.5856 -0.2168
 4761TIP3    H138478   1.975   0.278   7.797 -1.3467  2.2875 -2.7527
 4761TIP3    H238479   2.029   0.390   7.883  0.2437 -0.0290 -0.6048
 4762TIP3   OH238480   2.566   6.937   9.302 -0.6533  0.4270 -0.2499
 4762TIP3    H138481   2.532   7.011   9.251  0.1441  1.1860  0.2954
 4762TIP3    H238482   2.504   6.866   9.285 -0.8301  0.8805 -1.6728
 4763TIP3   OH238483   0.877   0.154   7.512  0.8106  0.1082  0.2093
 4763TIP3    H138484   0.928   0.087   7.466 -0.5132  0.1047 -1.3307
 4763TIP3    H238485   0.886   0.233   7.459 -0.5342  0.1788  0.0463
 4764TIP3   OH238486   5.209   5.442   7.384 -0.0478  0.2067 -0.3758
 4764TIP3    H138487   5.269   5.369   7.368 -0.7520 -0.3043 -0.7778
 4764TIP3    H238488   5.203   5.488   7.300 -0.1397  0.3074 -0.3144
 4765TIP3   OH238489   0.349   4.489   8.680  0.6616 -0.7000 -0.2267
 4765TIP3    H138490   0.437   4.457   8.664  1.2883  0.8761 -0.0736
 4765TIP3    H238491   0.302   4.475   8.597  1.1052 -1.3314 -0.3756
 4766TIP3   OH238492   2.988   4.427   9.040 -0.1081 -0.6376  0.0954
 4766TIP3    H138493   3.027   4.456   9.123  1.3633 -2.2763  0.0386
 4766TIP3    H238494   2.959   4.338   9.057 -2.1458 -0.1355 -0.4764
 4767TIP3   OH238495   5.141   6.965   9.451 -0.1822 -0.3265  0.3059
 4767TIP3    H138496   5.125   6.871   9.452  1.2983 -0.6049  0.6264
 4767TIP3    H238497   5.107   6.995   9.367 -2.2921 -0.8167  0.9442
 4768TIP3   OH238498   3.931   3.056   7.867 -0.1280  0.0057  0.3944
 4768TIP3    H138499   3.841   3.065   7.836 -0.6175 -0.2227  1.6649
 4768TIP3    H238500   3.982   3.037   7.789 -1.1649  0.2854 -0.3683
 4769TIP3   OH238501   4.115   0.281   8.429 -0.8985 -0.3364  0.0275
 4769TIP3    H138502   4.070   0.228   8.363  0.0980  0.4695 -1.3674
 4769TIP3    H238503   4.167   0.343   8.378 -0.6662  0.8163  1.6029
 4770TIP3   OH238504   4.644   0.225   9.025 -0.0401  0.1660  0.1709
 4770TIP3    H138505   4.706   0.298   9.035  0.6740  0.1269 -2.9113
 4770TIP3    H238506   4.699   0.147   9.028 -0.1783  0.0263 -0.6264
 4771TIP3   OH238507   2.565   3.606   8.351  0.5059  0.1624 -0.4647
 4771TIP3    H138508   2.590   3.516   8.329  0.3204  0.4262 -1.8425
 4771TIP3    H238509   2.585   3.614   8.445  1.7555 -0.8947 -0.6083
 4772TIP3   OH238510   1.631   1.763   7.724 -0.3170  0.0436  0.1137
 4772TIP3    H138511   1.570   1.690   7.715  2.0918 -2.3130  1.3195
 4772TIP3    H238512   1.689   1.756   7.649 -0.3064  1.0125  0.0155
 4773TIP3   OH238513   1.368   4.982   6.641  0.4981  0.2491  0.3768
 4773TIP3    H138514   1.443   5.018   6.594 -0.2437  1.2614 -0.0747
 4773TIP3    H238515   1.377   5.016   6.730  1.2243 -0.6373  0.6509
 4774TIP3   OH238516   2.665   1.333   7.041 -0.2726 -0.5862 -0.2595
 4774TIP3    H138517   2.697   1.244   7.052 -0.1536 -0.5740 -0.5066
 4774TIP3    H238518   2.723   1.387   7.095  0.0397 -0.5813 -0.5963
 4775TIP3   OH238519   3.824   7.317   9.713  0.3060 -0.2449  0.2053
 4775TIP3    H138520   3.736   7.354   9.711 -0.0480 -1.0801 -0.2516
 4775TIP3    H238521   3.818   7.239   9.657  1.6134  0.3158 -0.7501
 4776TIP3   OH238522   7.431   1.812   7.700 -0.9161  0.2755  0.2873
 4776TIP3    H138523   7.465   1.860   7.625  1.3949  1.7779  2.1514
 4776TIP3    H238524   7.448   1.720   7.680  0.8834  0.7385 -0.5117
 4777TIP3   OH238525   4.212   5.518   9.297 -0.2483 -0.0543  0.2280
 4777TIP3    H138526   4.272   5.459   9.252 -0.9321 -0.5897  0.0077
 4777TIP3    H238527   4.161   5.559   9.227 -0.8156 -0.3485  0.4599
 4778TIP3   OH238528   7.593   5.531   8.239  0.0814 -0.3410 -0.4234
 4778TIP3    H138529   7.518   5.484   8.202 -0.0761 -0.8670  0.5244
 4778TIP3    H238530   7.618   5.480   8.316  1.0510  0.1540 -0.3918
 4779TIP3   OH238531   2.182   6.264   7.082 -0.1529 -0.0593 -0.0408
 4779TIP3    H138532   2.133   6.243   7.162  0.2793  0.0862  0.2669
 4779TIP3    H238533   2.158   6.196   7.020  0.1945 -0.6804  0.5026
 4780TIP3   OH238534   7.173   0.082   8.263 -0.3673 -0.5300 -0.5037
 4780TIP3    H138535   7.093   0.033   8.246 -1.8441  2.1856 -2.1381
 4780TIP3    H238536   7.202   0.111   8.177  1.1383  0.3441  0.2594
 4781TIP3   OH238537   2.590   1.062   8.532  0.2712 -1.1049  0.4630
 4781TIP3    H138538   2.607   1.107   8.449  0.4660  1.2125  1.6980
 4781TIP3    H238539   2.522   0.998   8.510  1.4157 -1.6633 -1.7928
 4782TIP3   OH238540   7.549   1.472   8.834 -0.3761 -0.8812  0.0944
 4782TIP3    H138541   7.584   1.510   8.753 -1.4254 -0.5106 -0.2023
 4782TIP3    H238542   7.602   1.394   8.849  1.6042  0.4540  0.5047
 4783TIP3   OH238543   6.341   1.510   9.051 -0.3628  0.4655  0.0756
 4783TIP3    H138544   6.254   1.501   9.011 -0.3878 -1.8916  0.4955
 4783TIP3    H238545   6.326   1.564   9.128 -1.7363 -0.7811  0.7484
 4784TIP3   OH238546   4.316   2.171   8.637  0.2352  0.7342 -0.3381
 4784TIP3    H138547   4.376   2.156   8.564  0.4654  1.6126 -0.3305
 4784TIP3    H238548   4.334   2.099   8.698 -0.4581 -0.4268 -1.4474
 4785TIP3   OH238549   1.407   2.883   7.412  1.0310  0.1762 -0.0566
 4785TIP3    H138550   1.383   2.914   7.325  2.8456  0.5006 -0.4901
 4785TIP3    H238551   1.477   2.942   7.440  1.3052 -0.6527  1.1045
 4786TIP3   OH238552   5.181   6.081   9.224  0.3986  0.5120 -1.0044
 4786TIP3    H138553   5.233   6.052   9.148 -0.5321 -0.2810 -1.3606
 4786TIP3    H238554   5.096   6.104   9.187 -0.0197  0.2578 -0.2190
 4787TIP3   OH238555   4.488   3.931   8.013 -0.4287 -0.1094  0.1559
 4787TIP3    H138556   4.411   3.970   7.972 -0.0845 -0.5456 -0.9430
 4787TIP3    H238557   4.506   3.853   7.961  0.8060  0.0243  0.3509
 4788TIP3   OH238558   0.124   4.556   9.101  0.4335 -0.1272  0.4485
 4788TIP3    H138559   0.032   4.575   9.083  0.3656 -1.1683 -0.4008
 4788TIP3    H238560   0.173   4.598   9.031  0.5855  0.1395  0.7106
 4789TIP3   OH238561   2.897   3.413   6.801 -0.6329 -0.0567 -0.0581
 4789TIP3    H138562   2.878   3.406   6.707  0.2054  0.2557 -0.2551
 4789TIP3    H238563   2.945   3.334   6.822  2.1294  1.3484 -0.6445
 4790TIP3   OH238564   2.982   2.667   8.145  0.1318 -0.4800 -0.0561
 4790TIP3    H138565   2.959   2.683   8.236 -0.4540 -0.2625 -0.2426
 4790TIP3    H238566   2.916   2.606   8.113  0.7980 -1.1957 -0.1178
 4791TIP3   OH238567   1.687   3.770   8.107  0.3137 -0.5402 -0.5860
 4791TIP3    H138568   1.671   3.695   8.164 -0.0258 -0.0224  0.0063
 4791TIP3    H238569   1.781   3.765   8.088  0.0891 -1.8032 -1.5561
 4792TIP3   OH238570   4.205   3.546   7.549 -0.1659  0.4802  0.3517
 4792TIP3    H138571   4.140   3.510   7.610 -0.7305 -0.6468 -0.8756
 4792TIP3    H238572   4.285   3.495   7.567 -0.9333 -1.4338 -1.3078
 4793TIP3   OH238573   4.737   0.689   8.978 -0.4170 -0.5847 -0.3351
 4793TIP3    H138574   4.647   0.720   8.980 -0.2589 -0.0382  2.8614
 4793TIP3    H238575   4.790   0.769   8.972 -0.1132 -0.8175 -0.8428
 4794TIP3   OH238576   5.996   4.542   7.747 -0.0676  0.6314  0.1169
 4794TIP3    H138577   6.091   4.554   7.749 -0.0238  0.2733  0.2647
 4794TIP3    H238578   5.964   4.613   7.691  0.3993  0.0567 -0.9149
 4795TIP3   OH238579   3.194   2.091   8.521  0.3765 -0.0270 -0.0020
 4795TIP3    H138580   3.132   2.084   8.448  0.8982 -1.0981 -0.3618
 4795TIP3    H238581   3.152   2.046   8.594  0.1234  0.5060  0.1900
 4796TIP3   OH238582   4.016   4.149   9.039  0.4633 -0.2787 -0.2671
 4796TIP3    H138583   4.071   4.212   8.992  0.1571  0.6791  0.6167
 4796TIP3    H238584   3.930   4.157   8.997  0.1445  0.7047  0.5347
 4797TIP3   OH238585   1.113   4.080   7.026  0.1553 -0.2233  0.3101
 4797TIP3    H138586   1.058   4.002   7.021  0.5210 -0.4557 -0.1805
 4797TIP3    H238587   1.098   4.126   6.944  1.0156 -0.5123 -0.0169
 4798TIP3   OH238588   5.001   2.720   8.215 -0.6500 -0.0239 -0.2000
 4798TIP3    H138589   5.041   2.731   8.128 -0.9281 -1.1474 -0.4775
 4798TIP3    H238590   5.020   2.803   8.260 -0.2431  0.4583 -1.2227
 4799TIP3   OH238591   5.347   3.392   7.629 -0.4686 -0.0293  0.0812
 4799TIP3    H138592   5.358   3.469   7.685 -1.9862  0.8803 -0.8083
 4799TIP3    H238593   5.271   3.412   7.575 -0.1156 -1.6283 -1.0861
 4800TIP3   OH238594   5.636   7.059   8.973 -0.4276  0.3839 -0.4825
 4800TIP3    H138595   5.565   6.995   8.970 -0.0596  0.0083 -1.5659
 4800TIP3    H238596   5.610   7.120   9.042 -1.5735 -0.0080 -0.5426
 4801TIP3   OH238597   5.003   6.802   8.320  0.3557  0.0409  0.0936
 4801TIP3    H138598   5.017   6.829   8.229  3.4425 -1.2754  0.0382
 4801TIP3    H238599   5.011   6.884   8.370  0.3483  0.5381 -0.6995
 4802TIP3   OH238600   1.099   2.147   7.941 -0.1452 -0.3630 -0.4270
 4802TIP3    H138601   1.102   2.213   7.872 -1.3283  0.4155  0.2311
 4802TIP3    H238602   1.019   2.097   7.924 -0.7469  0.1885  0.6539
 4803TIP3   OH238603   6.710   0.834   9.207 -0.5334 -0.1123  0.1849
 4803TIP3    H138604   6.782   0.891   9.180 -1.0135  0.7845  0.7642
 4803TIP3    H238605   6.656   0.889   9.265  0.9891 -2.1548  3.9016
 4804TIP3   OH238606   1.744   3.992   8.531  0.0645  0.5514  0.8318
 4804TIP3    H138607   1.776   3.987   8.441 -2.0250 -1.5237  0.0826
 4804TIP3    H238608   1.720   4.084   8.543  1.1964  1.0376 -0.4058
 4805TIP3   OH238609   3.249   4.110   7.182 -0.4026  0.1887  0.5241
 4805TIP3    H138610   3.342   4.124   7.166  0.3846 -0.9824  3.4980
 4805TIP3    H238611   3.206   4.145   7.104  2.5135  0.4439 -1.1002
 4806TIP3   OH238612   5.214   6.655   8.418 -0.0898  0.7132  0.0001
 4806TIP3    H138613   5.126   6.678   8.389 -0.6226 -2.0481 -0.8432
 4806TIP3    H238614   5.211   6.664   8.513 -0.5129  2.8995 -0.1721
 4807TIP3   OH238615   1.435   5.315   8.357 -0.1785  0.1566 -0.1710
 4807TIP3    H138616   1.497   5.382   8.387 -0.8846  0.4114  0.7689
 4807TIP3    H238617   1.385   5.293   8.435  0.1598 -1.6100 -0.4218
 4808TIP3   OH238618   1.278   2.657   7.883 -0.4312 -0.9890 -0.3001
 4808TIP3    H138619   1.270   2.658   7.788  0.7123  0.6427 -0.4201
 4808TIP3    H238620   1.356   2.604   7.899 -1.0854 -1.9459 -0.1993
 4809TIP3   OH238621   5.792   4.165   7.329  0.2230  0.5211  0.0910
 4809TIP3    H138622   5.765   4.105   7.399  3.8292 -0.6271  0.6708
 4809TIP3    H238623   5.733   4.241   7.339 -1.4248 -0.9140  2.3103
 4810TIP3   OH238624   6.678   1.726   7.295 -0.6436  0.4236  0.1608
 4810TIP3    H138625   6.691   1.772   7.211  2.5173 -0.1287  0.2297
 4810TIP3    H238626   6.730   1.776   7.358  0.8256 -1.7166  0.7675
 4811TIP3   OH238627   6.316   3.774   7.968  0.2408  0.6159 -0.0768
 4811TIP3    H138628   6.302   3.748   8.059  0.6969 -1.4580 -0.5488
 4811TIP3    H238629   6.408   3.798   7.963  0.8292 -1.5264 -0.4369
 4812TIP3   OH238630   2.584   3.261   8.585  0.3099 -0.0238 -0.1362
 4812TIP3    H138631   2.608   3.264   8.493 -0.0376  1.4016 -0.1954
 4812TIP3    H238632   2.580   3.167   8.605  2.8234 -0.3815 -0.9079
 4813TIP3   OH238633   6.040   1.998   8.787  0.0279  0.2620 -0.5039
 4813TIP3    H138634   6.108   1.951   8.835  1.1306  1.6931 -0.5650
 4813TIP3    H238635   5.979   2.029   8.854  1.3101  1.8542  0.0073
 4814TIP3   OH238636   0.417   4.994   9.137 -0.5118 -0.0600  0.3292
 4814TIP3    H138637   0.327   4.987   9.106 -0.3190  0.8977 -0.4863
 4814TIP3    H238638   0.409   4.993   9.233 -1.2389 -1.4785  0.2739
 4815TIP3   OH238639   4.001   7.497   9.469 -0.1937  0.1401 -0.2777
 4815TIP3    H138640   4.071   7.561   9.454 -0.5297  0.7809  0.7993
 4815TIP3    H238641   3.958   7.526   9.549 -1.2665 -0.6401 -0.5418
 4816TIP3   OH238642   2.822   4.977   8.131 -0.0294  0.3005  0.0173
 4816TIP3    H138643   2.741   4.967   8.182 -0.3393  0.8078 -0.3736
 4816TIP3    H238644   2.823   4.901   8.073 -0.3620  0.4316 -0.1622
 4817TIP3   OH238645   3.858   4.769   8.500  0.3204 -0.1508 -0.1214
 4817TIP3    H138646   3.916   4.803   8.432  1.5084 -0.6497  0.6198
 4817TIP3    H238647   3.884   4.678   8.511 -0.3807 -0.2889  0.4627
 4818TIP3   OH238648   4.046   0.086   7.087  0.2854 -0.6617  0.2982
 4818TIP3    H138649   3.981   0.019   7.110 -1.3034  0.8420  0.4130
 4818TIP3    H238650   4.009   0.128   7.010  0.7795  0.7055  0.7909
 4819TIP3   OH238651   0.407   4.532   7.903 -0.0909  0.4947 -0.2036
 4819TIP3    H138652   0.431   4.625   7.910  2.1054 -0.0754  0.7534
 4819TIP3    H238653   0.475   4.494   7.846 -1.0396 -0.5210 -0.6973
 4820TIP3   OH238654   5.724   0.332   8.587  0.1717 -0.6249  0.3977
 4820TIP3    H138655   5.735   0.421   8.554  1.2461 -1.1483 -0.7485
 4820TIP3    H238656   5.632   0.327   8.614  0.3458  1.1321  1.5038
 4821TIP3   OH238657   0.666   0.072   9.081 -0.5119 -0.3620  0.1949
 4821TIP3    H138658   0.708   0.105   9.002 -0.4242  0.8129  0.7127
 4821TIP3    H238659   0.596   0.134   9.099 -0.9853 -1.0149  0.6442
 4822TIP3   OH238660   5.366   3.893   8.559 -0.2571 -0.3204  0.2948
 4822TIP3    H138661   5.270   3.897   8.549 -0.1334 -0.0944 -0.9374
 4822TIP3    H238662   5.395   3.837   8.487  0.6696  0.8524 -0.2759
 4823TIP3   OH238663   6.389   4.717   8.636 -0.6507 -0.1401 -0.0111
 4823TIP3    H138664   6.422   4.742   8.722  0.6547 -1.6128 -0.0477
 4823TIP3    H238665   6.297   4.695   8.652 -0.5326 -0.0043  0.9202
 4824TIP3   OH238666   0.314   6.217   8.938 -0.3077 -0.1760  0.2156
 4824TIP3    H138667   0.396   6.206   8.986 -0.2160 -0.1505  0.0675
 4824TIP3    H238668   0.309   6.311   8.920 -1.9462  0.3824  2.9965
 4825TIP3   OH238669   5.216   2.957   8.187 -0.1990 -0.4640 -0.0497
 4825TIP3    H138670   5.234   3.043   8.149  1.1108 -1.3046 -1.4595
 4825TIP3    H238671   5.189   2.903   8.113  1.1012 -1.8155  0.4082
 4826TIP3   OH238672   1.388   5.362   9.012 -0.2774  0.1199  1.0029
 4826TIP3    H138673   1.390   5.447   9.056  2.2667  0.0305  1.1783
 4826TIP3    H238674   1.369   5.383   8.920  1.7629  1.0938  0.7455
 4827TIP3   OH238675   5.875   6.718   8.308 -0.1179 -0.0444 -0.2113
 4827TIP3    H138676   5.890   6.625   8.320 -0.2565 -0.5335 -3.1297
 4827TIP3    H238677   5.916   6.739   8.224  1.5028  2.9465  1.1490
 4828TIP3   OH238678   5.493   2.836   8.274  0.7782 -0.2069  0.1801
 4828TIP3    H138679   5.525   2.774   8.209 -0.2011 -0.6888  0.1387
 4828TIP3    H238680   5.403   2.854   8.248  0.0836 -1.0428  1.8432
 4829TIP3   OH238681   3.123   5.629   7.404 -0.1828  0.2882  0.7802
 4829TIP3    H138682   3.128   5.538   7.432  3.5807 -0.0292 -0.4222
 4829TIP3    H238683   3.157   5.680   7.478 -1.2328  0.6492  1.0340
 4830TIP3   OH238684   1.690   5.300   8.595 -0.6216 -0.2984 -0.6370
 4830TIP3    H138685   1.737   5.245   8.658 -1.9967  0.3145  1.0217
 4830TIP3    H238686   1.670   5.380   8.645 -0.8214  0.6686 -2.2177
 4831TIP3   OH238687   7.237   5.857   8.784  0.6250 -0.3497  0.2441
 4831TIP3    H138688   7.280   5.857   8.698 -1.0586  1.1852 -0.6656
 4831TIP3    H238689   7.168   5.923   8.776 -0.8272 -1.5356  2.1704
 4832TIP3   OH238690   4.720   0.114   7.095 -0.5491  0.3550  0.2698
 4832TIP3    H138691   4.727   0.110   6.999 -0.0107 -1.4635  0.3445
 4832TIP3    H238692   4.765   0.196   7.119 -1.8953  1.5551 -1.0956
 4833TIP3   OH238693   5.962   6.941   8.517 -0.1139  0.0346  0.4373
 4833TIP3    H138694   5.867   6.934   8.507  0.0539 -0.6739 -0.8536
 4833TIP3    H238695   5.997   6.865   8.471  1.0337 -0.5874  2.2413
 4834TIP3   OH238696   3.159   1.020   9.282 -0.5345  0.6644 -0.1520
 4834TIP3    H138697   3.076   0.990   9.246  0.1387 -0.4176 -0.8714
 4834TIP3    H238698   3.219   1.019   9.207  0.2299  1.0310  0.4420
 4835TIP3   OH238699   2.558   2.215   8.401 -0.4251  0.2238 -0.3636
 4835TIP3    H138700   2.557   2.183   8.492  2.3962  1.6399  0.2909
 4835TIP3    H238701   2.558   2.310   8.409  0.5217  0.3778 -1.7859
 4836TIP3   OH238702   3.771   0.940   9.163 -0.0814  0.4116  0.0219
 4836TIP3    H138703   3.832   1.014   9.168 -0.8237  1.1443 -1.2235
 4836TIP3    H238704   3.701   0.963   9.224  0.3418  0.0900  0.6356
 4837TIP3   OH238705   0.554   5.325   7.033 -0.5070 -0.6120 -0.5024
 4837TIP3    H138706   0.598   5.409   7.016  1.6861 -1.3775  0.9614
 4837TIP3    H238707   0.590   5.266   6.967  1.8544 -1.5740  1.5058
 4838TIP3   OH238708   6.415   1.110   7.180 -0.6735 -0.5359 -0.9597
 4838TIP3    H138709   6.362   1.065   7.114 -2.0721 -1.3864  0.6696
 4838TIP3    H238710   6.369   1.192   7.196  0.8270  0.6970 -2.5086
 4839TIP3   OH238711   3.045   3.443   7.435  0.3289 -0.5553 -0.0342
 4839TIP3    H138712   3.062   3.505   7.364  0.0413 -0.6970 -0.2257
 4839TIP3    H238713   3.115   3.378   7.428 -0.2349 -1.1033 -0.7830
 4840TIP3   OH238714   7.146   2.507   6.727 -0.4728 -0.3166  0.4587
 4840TIP3    H138715   7.051   2.502   6.728 -0.5444  0.4535 -0.6780
 4840TIP3    H238716   7.166   2.572   6.659  0.7541  2.1666  3.0099
 4841TIP3   OH238717   4.280   6.755   9.319 -0.1792 -0.0545  0.1076
 4841TIP3    H138718   4.318   6.667   9.321 -1.4450 -0.6342 -0.5595
 4841TIP3    H238719   4.219   6.754   9.245 -0.8376  1.1191  0.6048
 4842TIP3   OH238720   6.319   3.352   6.530  0.0303  0.0161 -0.2073
 4842TIP3    H138721   6.388   3.374   6.467  0.3588 -0.1904  0.0755
 4842TIP3    H238722   6.239   3.347   6.477  0.4927 -1.3792 -0.8406
 4843TIP3   OH238723   3.629   0.725   8.565  0.0530  0.0210 -0.3751
 4843TIP3    H138724   3.581   0.676   8.498 -0.9247  1.1753 -0.5636
 4843TIP3    H238725   3.601   0.685   8.648 -1.2595  0.6552 -0.4841
 4844TIP3   OH238726   3.620   7.136   7.612  0.1049 -0.0807  0.3805
 4844TIP3    H138727   3.549   7.160   7.671 -0.0028  1.4439 -0.3535
 4844TIP3    H238728   3.697   7.129   7.669 -0.3049 -0.1808  0.9269
 4845TIP3   OH238729   7.527   4.376   7.387  0.2406 -0.2374 -0.1513
 4845TIP3    H138730   7.433   4.375   7.367  0.2695 -3.6062 -0.5959
 4845TIP3    H238731   7.569   4.354   7.304  1.3997  0.2185  0.2963
 4846TIP3   OH238732   4.110   4.299   8.439  0.3286  0.1178 -0.5543
 4846TIP3    H138733   4.067   4.278   8.356  0.8071 -0.8017 -0.5820
 4846TIP3    H238734   4.145   4.387   8.426 -1.5750  0.9365 -0.5004
 4847TIP3   OH238735   3.883   4.463   8.957 -0.6437 -0.5926  0.4270
 4847TIP3    H138736   3.849   4.430   9.041 -1.6453  0.4223  0.4387
 4847TIP3    H238737   3.823   4.534   8.933  0.6478  0.2877 -0.2889
 4848TIP3   OH238738   5.015   4.439   7.749 -0.3312 -0.4251  0.7868
 4848TIP3    H138739   4.946   4.471   7.807  0.9382  1.5830  1.2675
 4848TIP3    H238740   5.022   4.507   7.681  0.4871 -1.1117  0.1660
 4849TIP3   OH238741   2.496   0.794   7.968 -0.2013  0.0520 -0.4763
 4849TIP3    H138742   2.486   0.701   7.947 -3.2152 -0.7929  3.4487
 4849TIP3    H238743   2.561   0.795   8.039 -0.7240  0.8019  0.0095
 4850TIP3   OH238744   7.612   4.100   8.507 -0.0162  0.2351  0.0625
 4850TIP3    H138745   7.578   4.066   8.590  1.8995  1.5483  1.4692
 4850TIP3    H238746   7.635   4.021   8.457 -1.1699 -0.5850  0.7695
 4851TIP3   OH238747   6.227   3.650   8.187 -0.4200 -0.1074  0.1466
 4851TIP3    H138748   6.132   3.651   8.199 -0.3987  0.7116  0.3311
 4851TIP3    H238749   6.257   3.573   8.234 -1.1056 -1.0411 -0.8951
 4852TIP3   OH238750   4.987   5.754   8.417 -0.1675 -0.0343  0.1451
 4852TIP3    H138751   5.005   5.758   8.511  2.3040  0.8785 -0.2927
 4852TIP3    H238752   5.066   5.714   8.379 -2.0637 -2.6301 -1.3606
 4853TIP3   OH238753   7.213   5.432   7.641 -0.2720 -0.1435 -0.1256
 4853TIP3    H138754   7.150   5.362   7.623 -0.9614 -0.0082  1.5618
 4853TIP3    H238755   7.251   5.453   7.555  0.5903 -3.1443 -0.6164
 4854TIP3   OH238756   3.395   5.142   8.002  0.0123  0.3641 -0.3074
 4854TIP3    H138757   3.419   5.093   8.080  0.2655  0.1445 -0.5215
 4854TIP3    H238758   3.375   5.230   8.034 -1.2897 -0.0921  0.2016
 4855TIP3   OH238759   4.541   4.135   7.819  0.4905  0.3255  0.3916
 4855TIP3    H138760   4.464   4.078   7.820 -0.2435  1.2240 -1.0816
 4855TIP3    H238761   4.531   4.186   7.739  3.6002 -0.8838 -0.9294
 4856TIP3   OH238762   5.425   3.758   8.342 -0.6181  0.1847 -0.3734
 4856TIP3    H138763   5.346   3.793   8.302 -0.2654  0.3635 -0.9243
 4856TIP3    H238764   5.426   3.666   8.317  0.0047  0.4672 -1.4593
 4857TIP3   OH238765   0.836   3.818   7.048  0.6420  0.0301 -0.1117
 4857TIP3    H138766   0.904   3.761   7.083 -0.8044 -1.2089  0.8085
 4857TIP3    H238767   0.754   3.774   7.070 -0.5924  2.6662  1.0416
 4858TIP3   OH238768   1.385   6.013   8.508  0.1182  0.3594  0.3638
 4858TIP3    H138769   1.329   5.938   8.531 -1.7098  1.3127 -0.7445
 4858TIP3    H238770   1.454   5.976   8.453 -0.1808 -0.6590  0.6482
 4859TIP3   OH238771   6.015   7.467   9.457 -0.5576 -0.3282 -0.1806
 4859TIP3    H138772   5.988   7.443   9.368 -0.6347 -1.6159  0.1642
 4859TIP3    H238773   6.002   7.562   9.462  1.1632  0.0819 -2.1281
 4860TIP3   OH238774   3.759   3.352   8.184  0.0069 -0.2564  0.6695
 4860TIP3    H138775   3.849   3.380   8.170 -0.0530 -0.1462  0.5049
 4860TIP3    H238776   3.710   3.434   8.195  0.5022 -0.2953  4.4601
 4861TIP3   OH238777   5.039   6.694   9.470  0.3650  0.5412 -0.4437
 4861TIP3    H138778   4.968   6.692   9.405  0.5176  0.7940 -0.6185
 4861TIP3    H238779   5.019   6.621   9.529  1.2265 -0.8835 -1.8408
 4862TIP3   OH238780   0.795   4.921   6.868  0.4252  0.6522  0.1481
 4862TIP3    H138781   0.836   4.955   6.947  1.5291  1.3920 -0.7231
 4862TIP3    H238782   0.715   4.972   6.858 -1.0146 -1.0315  2.0466
 4863TIP3   OH238783   5.898   7.138   7.545  0.1895 -0.0338  0.2627
 4863TIP3    H138784   5.954   7.149   7.468 -0.7195  1.0917 -0.2656
 4863TIP3    H238785   5.958   7.115   7.615  0.7992 -4.0657 -1.3100
 4864TIP3   OH238786   2.787   1.034   8.133 -0.2921 -0.6059 -1.2759
 4864TIP3    H138787   2.749   1.040   8.045  0.2243  1.0649 -1.4171
 4864TIP3    H238788   2.878   1.060   8.122 -0.0787 -0.8990 -0.3125
 4865TIP3   OH238789   4.222   0.451   7.436  0.0844 -0.3205  0.6483
 4865TIP3    H138790   4.151   0.466   7.499  0.2631 -0.4567  0.8805
 4865TIP3    H238791   4.178   0.414   7.359 -0.0067 -1.0194  1.0370
 4866TIP3   OH238792   6.521   4.455   7.900 -0.3347  0.5397 -0.1295
 4866TIP3    H138793   6.455   4.448   7.970 -0.5420  0.6420 -0.3114
 4866TIP3    H238794   6.569   4.536   7.922 -2.8298  2.7444 -2.1081
 4867TIP3   OH238795   4.553   5.256   7.441 -0.0027  0.4877 -0.3547
 4867TIP3    H138796   4.537   5.321   7.510  1.1210  3.0125 -2.3173
 4867TIP3    H238797   4.641   5.223   7.460 -0.8369 -1.0913  1.0397
 4868TIP3   OH238798   1.294   4.440   7.673  0.2653 -0.0718  0.3361
 4868TIP3    H138799   1.276   4.347   7.690 -4.2115  0.4426 -0.4232
 4868TIP3    H238800   1.317   4.444   7.581 -0.5655 -0.3548  0.1095
 4869TIP3   OH238801   7.587   4.843   8.663  0.1180 -0.1049 -0.5678
 4869TIP3    H138802   7.523   4.820   8.595  1.8090 -0.3647 -2.1587
 4869TIP3    H238803   7.652   4.773   8.659  1.4936  1.1302 -0.3332
 4870TIP3   OH238804   3.128   7.553   8.242  0.0707  0.1692  0.0558
 4870TIP3    H138805   3.033   7.561   8.239 -0.1442 -1.8368 -3.1635
 4870TIP3    H238806   3.154   7.602   8.320 -3.3386  2.9677 -0.3336
 4871TIP3   OH238807   7.165   1.415   8.345 -0.7084  0.4175  0.3272
 4871TIP3    H138808   7.086   1.364   8.363 -1.0826  1.1283  0.7234
 4871TIP3    H238809   7.176   1.409   8.250 -1.3158  0.4182  0.2523
 4872TIP3   OH238810   2.951   3.740   7.857 -0.6302 -0.1101  0.4828
 4872TIP3    H138811   2.917   3.669   7.911 -1.5287 -0.8660 -1.0170
 4872TIP3    H238812   2.903   3.733   7.775  0.8998  0.8025 -0.5444
 4873TIP3   OH238813   4.914   5.452   7.810 -0.9090  0.2046 -0.2107
 4873TIP3    H138814   4.904   5.500   7.728  1.6420  1.6538  0.2008
 4873TIP3    H238815   5.000   5.479   7.843 -1.2913 -1.3070  2.3098
 4874TIP3   OH238816   0.739   3.173   7.122  0.1230  0.0342 -0.3913
 4874TIP3    H138817   0.814   3.168   7.063 -0.1199 -0.6653 -0.6514
 4874TIP3    H238818   0.663   3.168   7.065 -0.1367  1.0305 -0.1518
 4875TIP3   OH238819   2.727   6.822   9.514 -0.1288  0.3139  0.2947
 4875TIP3    H138820   2.655   6.840   9.454  0.3817  0.1545 -0.3766
 4875TIP3    H238821   2.782   6.900   9.510  0.8301 -0.3871 -0.8024
 4876TIP3   OH238822   5.359   2.728   9.295 -0.5814  0.0904  0.3661
 4876TIP3    H138823   5.350   2.633   9.303 -0.0413  0.1399  1.8756
 4876TIP3    H238824   5.447   2.746   9.328 -0.5754  1.0997 -0.1736
 4877TIP3   OH238825   2.725   4.739   7.996 -0.5197  0.5438 -0.0402
 4877TIP3    H138826   2.634   4.709   8.005 -0.1756 -0.5125  0.0573
 4877TIP3    H238827   2.767   4.711   8.078 -0.6193  2.9906  0.9156
 4878TIP3   OH238828   2.071   2.127   7.271 -0.3458  0.0192  0.0395
 4878TIP3    H138829   2.157   2.089   7.254 -1.1415 -0.9296 -2.1421
 4878TIP3    H238830   2.029   2.065   7.331  0.0557 -0.1026  0.2022
 4879TIP3   OH238831   0.023   2.155   9.233  0.1237  0.1084 -0.1454
 4879TIP3    H138832   0.024   2.249   9.253 -0.5691  0.5244 -1.8479
 4879TIP3    H238833  -0.067   2.127   9.251  0.0506  0.0257 -0.6026
 4880TIP3   OH238834   4.630   7.626   7.279  0.2046  0.0593  0.1772
 4880TIP3    H138835   4.615   7.556   7.215 -2.1204  0.5518  0.1125
 4880TIP3    H238836   4.651   7.703   7.226 -1.3301  0.3713 -0.0087
 4881TIP3   OH238837   0.637   4.173   8.402  0.0323  0.9002  0.3205
 4881TIP3    H138838   0.645   4.096   8.346 -1.7134  1.9590 -1.5606
 4881TIP3    H238839   0.705   4.232   8.371 -0.3638  1.1323 -0.1408
 4882TIP3   OH238840   3.189   4.716   8.382  0.2358 -0.8659 -0.2551
 4882TIP3    H138841   3.156   4.799   8.417  0.0604 -0.4606 -1.3480
 4882TIP3    H238842   3.155   4.649   8.442  0.6907 -0.1291  0.8558
 4883TIP3   OH238843   4.053   0.446   8.692  0.3074 -0.3480 -0.2373
 4883TIP3    H138844   4.135   0.495   8.689  0.5719 -0.8208 -0.8358
 4883TIP3    H238845   4.065   0.374   8.630 -1.0043  0.2785 -1.2861
 4884TIP3   OH238846   3.308   5.374   8.079 -0.3575 -0.9752 -0.0856
 4884TIP3    H138847   3.220   5.367   8.040 -0.2030  0.1118 -0.6831
 4884TIP3    H238848   3.298   5.442   8.146 -0.1811 -1.5077  0.4836
 4885TIP3   OH238849   6.263   3.067   6.590  0.8802 -0.1248 -0.2011
 4885TIP3    H138850   6.291   3.157   6.574  1.6542 -0.1129  1.0963
 4885TIP3    H238851   6.196   3.074   6.657 -1.0548 -0.3239 -1.9942
 4886TIP3   OH238852   4.136   3.834   8.623  0.1771  0.2109 -0.4244
 4886TIP3    H138853   4.055   3.791   8.652  0.4949 -0.4349 -0.4751
 4886TIP3    H238854   4.171   3.776   8.556  0.2913  0.8802 -0.9514
 4887TIP3   OH238855   1.103   4.477   8.130 -0.4539 -0.4547  0.7347
 4887TIP3    H138856   1.076   4.556   8.085  2.5080  0.8189  0.9561
 4887TIP3    H238857   1.139   4.507   8.213  0.7477 -1.9875  0.8383
 4888TIP3   OH238858   3.514   0.997   8.709 -0.5602  0.2510 -0.0703
 4888TIP3    H138859   3.465   1.059   8.656 -0.6911  1.0708  0.9824
 4888TIP3    H238860   3.462   0.916   8.706 -0.8073  0.4296 -0.7779
 4889TIP3   OH238861   6.393   4.431   8.762  0.0155  0.3431  0.1036
 4889TIP3    H138862   6.365   4.365   8.700 -0.1422 -0.5541  1.1058
 4889TIP3    H238863   6.461   4.481   8.716 -0.6666  0.2300 -1.0581
 4890TIP3   OH238864   0.849   4.303   8.290  0.1472 -0.6236  0.4083
 4890TIP3    H138865   0.841   4.349   8.207 -3.1419 -0.0688  0.8898
 4890TIP3    H238866   0.887   4.367   8.350 -0.1288 -0.0625 -0.0071
 4891TIP3   OH238867   7.422   3.618   8.492  0.6397  0.4458 -0.4383
 4891TIP3    H138868   7.375   3.696   8.520 -1.2401  0.1023 -2.3742
 4891TIP3    H238869   7.362   3.545   8.511  0.5797 -0.0723 -2.3802
 4892TIP3   OH238870   0.356   4.944   9.388  0.5209  0.8582 -0.2555
 4892TIP3    H138871   0.305   4.867   9.363  0.6119  1.2027 -1.5737
 4892TIP3    H238872   0.291   5.010   9.411  0.2285  1.6848 -3.0638
 4893TIP3   OH238873   1.425   5.233   8.072 -0.2983  0.1908  0.1742
 4893TIP3    H138874   1.442   5.140   8.085  1.1219  0.2208 -1.2230
 4893TIP3    H238875   1.409   5.267   8.161  2.8310 -0.7211  1.2400
 4894TIP3   OH238876   6.870   2.636   8.573  0.3503  0.3084 -0.1316
 4894TIP3    H138877   6.811   2.639   8.498 -0.5172  0.6615  0.5509
 4894TIP3    H238878   6.820   2.592   8.641  1.1483 -0.0552  0.2344
 4895TIP3   OH238879   3.618   2.072   8.349 -0.6025  0.5999 -0.3667
 4895TIP3    H138880   3.558   2.142   8.375 -0.0062  0.6504  0.9609
 4895TIP3    H238881   3.705   2.103   8.376 -0.2974 -0.5436  0.0274
 4896TIP3   OH238882   7.568   1.403   7.999  0.1085 -0.1027  0.1828
 4896TIP3    H138883   7.550   1.391   8.092 -0.7114 -2.8021 -0.2471
 4896TIP3    H238884   7.658   1.434   7.996 -0.5348  2.2219  1.9139
 4897TIP3   OH238885   3.276   0.369   9.031 -0.5354  0.4048  0.4861
 4897TIP3    H138886   3.326   0.427   9.089 -1.7629  1.0798  0.9207
 4897TIP3    H238887   3.185   0.399   9.040 -1.2317 -1.6409  0.7712
 4898TIP3   OH238888   3.364   4.711   7.739  0.7201  0.0388 -0.3893
 4898TIP3    H138889   3.421   4.634   7.737  1.6184  0.6980 -1.1229
 4898TIP3    H238890   3.365   4.743   7.649  0.6589  1.1198 -0.0182
 4899TIP3   OH238891   0.469   1.584   8.430  0.7338  0.1184  0.3677
 4899TIP3    H138892   0.534   1.602   8.498 -0.9777  0.3405  2.0102
 4899TIP3    H238893   0.421   1.508   8.461 -0.7728  0.8571 -0.0574
 4900TIP3   OH238894   2.052   1.182   8.919  0.2679 -0.2648  0.6275
 4900TIP3    H138895   2.104   1.101   8.926 -0.1875 -0.4509  2.0366
 4900TIP3    H238896   2.110   1.243   8.873  0.3772 -1.5716 -1.0675
 4901TIP3   OH238897   4.277   1.439   8.413  0.2916  0.1876 -0.2583
 4901TIP3    H138898   4.217   1.502   8.453 -0.1407 -0.6836  0.5089
 4901TIP3    H238899   4.219   1.379   8.366  0.5283 -0.7987  0.6754
 4902TIP3   OH238900   6.834   1.072   9.322 -0.0118 -0.6244  1.1241
 4902TIP3    H138901   6.903   1.103   9.264  0.4783 -1.2696  1.3575
 4902TIP3    H238902   6.756   1.121   9.294  0.6290  0.4668  1.1743
 4903TIP3   OH238903   2.305   3.216   8.221  0.2308  0.2402 -0.0507
 4903TIP3    H138904   2.209   3.214   8.215  0.1647  2.5777 -0.5257
 4903TIP3    H238905   2.324   3.292   8.275  1.8394 -0.0777 -0.1284
 4904TIP3   OH238906   3.632   4.480   8.424  0.0114  0.1498  0.4975
 4904TIP3    H138907   3.584   4.563   8.413 -2.0058 -1.0481 -0.3657
 4904TIP3    H238908   3.596   4.443   8.504  0.7857  0.0293  0.7892
 4905TIP3   OH238909   1.302   0.721   9.472 -0.1648  0.0880  0.7822
 4905TIP3    H138910   1.364   0.674   9.415 -1.6535 -0.1380 -0.7339
 4905TIP3    H238911   1.343   0.718   9.559  2.3975  0.7948 -0.2983
 4906TIP3   OH238912   1.790   4.060   9.116  0.0784 -0.7769 -0.3020
 4906TIP3    H138913   1.702   4.032   9.093 -1.3519  1.5144  1.8630
 4906TIP3    H238914   1.795   4.051   9.211  1.5874  0.5892 -0.1916
 4907TIP3   OH238915   4.562   3.989   8.265 -0.0176 -0.0482  0.6242
 4907TIP3    H138916   4.552   3.987   8.170 -0.0919  1.1438  0.5914
 4907TIP3    H238917   4.480   4.025   8.297 -0.2580 -1.0683  1.2104
 4908TIP3   OH238918   5.942   6.089   7.000  0.9344  0.9566 -0.0744
 4908TIP3    H138919   5.904   6.102   7.087  0.8050 -0.7901  0.1473
 4908TIP3    H238920   5.871   6.112   6.940 -0.7630 -2.6435  0.3229
 4909TIP3   OH238921   0.579   6.332   8.442  0.3771  0.1132 -0.0222
 4909TIP3    H138922   0.492   6.320   8.481  0.1572  0.6889 -0.3231
 4909TIP3    H238923   0.636   6.351   8.517  0.1141  0.3881  0.1128
 4910TIP3   OH238924   0.176   0.257   8.482 -0.4468 -0.0024 -0.0216
 4910TIP3    H138925   0.140   0.185   8.533  0.7018 -0.4740  0.1482
 4910TIP3    H238926   0.119   0.331   8.501 -3.0398 -1.3382 -1.9212
 4911TIP3   OH238927   7.297   1.808   8.383 -0.4113  0.5393 -0.2463
 4911TIP3    H138928   7.338   1.794   8.297 -0.4301 -0.3761 -0.1192
 4911TIP3    H238929   7.370   1.829   8.441  0.1404 -2.3457  0.2624
 4912TIP3   OH238930   3.126   5.022   6.729  0.7789 -0.1380 -0.1338
 4912TIP3    H138931   3.193   4.955   6.737  1.0374  0.1500  0.1753
 4912TIP3    H238932   3.044   4.977   6.751  0.7364 -0.7088 -1.4017
 4913TIP3   OH238933   4.291   0.609   8.670  0.0774 -0.7171  0.4175
 4913TIP3    H138934   4.250   0.597   8.585 -0.7323 -2.6207  1.0074
 4913TIP3    H238935   4.258   0.692   8.703  0.6928  0.2181 -1.2492
 4914TIP3   OH238936   3.056   1.231   6.811 -0.4114  0.1478  0.2159
 4914TIP3    H138937   3.137   1.271   6.842 -0.0544 -0.8419  0.5988
 4914TIP3    H238938   2.987   1.294   6.835  0.2428  1.0600 -0.2407
 4915TIP3   OH238939   1.582   4.961   7.127 -0.2367  0.2169 -0.0141
 4915TIP3    H138940   1.593   4.889   7.065  0.7847  0.3148  0.0513
 4915TIP3    H238941   1.592   5.040   7.075 -1.9252  0.3555 -0.1982
 4916TIP3   OH238942   2.632   3.690   8.022  0.1966  0.6780 -0.3893
 4916TIP3    H138943   2.616   3.725   7.934  0.5248 -0.4033 -0.9006
 4916TIP3    H238944   2.674   3.606   8.006  0.5098  0.5952  0.8211
 4917TIP3   OH238945   7.129   3.070   8.324 -0.2627  0.4593  0.3932
 4917TIP3    H138946   7.129   3.036   8.414 -1.2148  1.9036  0.9791
 4917TIP3    H238947   7.214   3.045   8.288  0.8051  1.2356  2.2437
 4918TIP3   OH238948   0.285   6.923   8.719  0.0928 -0.1000  0.0764
 4918TIP3    H138949   0.327   6.921   8.632  0.4944  0.3477  0.2539
 4918TIP3    H238950   0.203   6.970   8.704  1.3846  2.4048  0.4283
 4919TIP3   OH238951   4.468   4.806   7.400 -0.1744 -0.1576 -0.0343
 4919TIP3    H138952   4.383   4.839   7.370  0.3942  0.5085 -0.9880
 4919TIP3    H238953   4.484   4.729   7.346 -0.0287 -0.0924 -0.0849
 4920TIP3   OH238954   6.871   2.538   7.378 -0.0360 -0.1891  0.0750
 4920TIP3    H138955   6.944   2.595   7.403 -0.2270  0.7640 -1.4243
 4920TIP3    H238956   6.908   2.450   7.381  1.1609  0.2664 -0.5680
 4921TIP3   OH238957   4.656   3.439   7.327 -0.1689  0.2083  0.0700
 4921TIP3    H138958   4.565   3.412   7.342  0.5304 -2.2816  0.3827
 4921TIP3    H238959   4.673   3.414   7.236  0.7911 -1.4416  0.6490
 4922TIP3   OH238960   5.198   4.536   8.099  0.0179 -0.2022 -0.4462
 4922TIP3    H138961   5.183   4.498   8.186 -0.9424 -3.3350 -1.8643
 4922TIP3    H238962   5.293   4.542   8.092  0.1521 -1.3069  0.2701
 4923TIP3   OH238963   2.888   7.640   9.135  0.3237 -0.3711  0.0128
 4923TIP3    H138964   2.943   7.562   9.146  0.4137 -0.2410  0.5018
 4923TIP3    H238965   2.814   7.625   9.194  0.7324  0.2631  0.7079
 4924TIP3   OH238966   2.370   5.526   9.273  0.2532 -0.4345  0.0426
 4924TIP3    H138967   2.393   5.469   9.200  1.6776  0.8373 -0.5728
 4924TIP3    H238968   2.286   5.564   9.248  0.3601 -0.5899 -0.5779
 4925TIP3   OH238969   6.600   6.334   8.206  0.4003  0.2469 -0.5521
 4925TIP3    H138970   6.594   6.424   8.239  1.2422  0.2646 -0.4236
 4925TIP3    H238971   6.636   6.284   8.279 -0.4042 -0.2789 -0.4992
 4926TIP3   OH238972   5.936   6.118   9.454 -0.2643  0.3526  0.0333
 4926TIP3    H138973   6.032   6.109   9.455 -0.2298  0.7012  0.5634
 4926TIP3    H238974   5.908   6.071   9.376  0.4323  1.1655 -0.7382
 4927TIP3   OH238975   3.138   3.791   8.074 -0.4924 -0.4246  0.1661
 4927TIP3    H138976   3.109   3.826   7.990 -1.0600  1.0151  0.9249
 4927TIP3    H238977   3.137   3.696   8.063  0.3470 -0.2445 -1.7370
 4928TIP3   OH238978   1.131   2.394   7.799  0.1810 -0.5218  0.3831
 4928TIP3    H138979   1.043   2.399   7.761  0.5251  0.4032 -0.3254
 4928TIP3    H238980   1.139   2.474   7.850  1.7075  0.9673 -2.0266
 4929TIP3   OH238981   5.852   5.291   9.444  0.1112  0.0574 -0.2043
 4929TIP3    H138982   5.940   5.260   9.423 -0.3819 -1.1190 -0.5950
 4929TIP3    H238983   5.826   5.241   9.521  0.2143  1.2210  0.6011
 4930TIP3   OH238984   7.292   4.866   7.624  0.3993 -0.3962 -0.0746
 4930TIP3    H138985   7.326   4.809   7.693 -0.9414  0.1753  1.1011
 4930TIP3    H238986   7.197   4.862   7.635  0.2350  1.0047 -0.8285
 4931TIP3   OH238987   6.736   3.986   7.728 -0.0488  0.5501  0.0951
 4931TIP3    H138988   6.708   4.060   7.782 -1.2084 -0.3735  0.8175
 4931TIP3    H238989   6.758   3.917   7.792  1.1024  0.2923 -0.5525
 4932TIP3   OH238990   2.422   2.718   8.666 -0.1906 -0.1635  0.0941
 4932TIP3    H138991   2.483   2.686   8.732 -0.7233 -1.3367  0.0283
 4932TIP3    H238992   2.432   2.814   8.668  0.3355 -0.2382  1.3356
 4933TIP3   OH238993   5.516   3.859   7.638 -0.4555  1.1661 -0.0788
 4933TIP3    H138994   5.528   3.931   7.699  0.0788  0.2160  0.9780
 4933TIP3    H238995   5.478   3.899   7.560  1.1606  2.8302 -0.0894
 4934TIP3   OH238996   3.645   5.756   9.214 -0.0550  0.0130  0.2837
 4934TIP3    H138997   3.699   5.699   9.159 -0.8987  0.7301 -1.3458
 4934TIP3    H238998   3.644   5.840   9.168 -2.0287  0.2062  0.6002
 4935TIP3   OH238999   0.813   1.537   8.084 -0.0922  0.5714 -1.0456
 4935TIP3    H139000   0.772   1.623   8.098  0.8191  0.7662  0.6946
 4935TIP3    H239001   0.745   1.474   8.104 -0.4297  0.8809 -1.2009
 4936TIP3   OH239002   6.123   6.398   7.162 -0.4771  0.7212  0.1809
 4936TIP3    H139003   6.204   6.426   7.206  0.0092  1.5005 -1.1398
 4936TIP3    H239004   6.073   6.479   7.151 -0.7664  0.4819 -0.3189
 4937TIP3   OH239005   3.284   7.023   7.682 -0.0092 -0.2277 -0.5175
 4937TIP3    H139006   3.243   6.970   7.750  0.4133 -0.1363 -0.1876
 4937TIP3    H239007   3.354   6.968   7.648  1.8367  0.8482  1.2823
 4938TIP3   OH239008   4.962   6.859   8.038 -0.0675 -0.0121 -0.3768
 4938TIP3    H139009   4.891   6.797   8.052 -0.6700  0.5491 -0.8822
 4938TIP3    H239010   4.919   6.945   8.033  0.6580  0.3518 -0.5158
 4939TIP3   OH239011   6.334   2.559   8.826  0.1460  0.3128 -0.1417
 4939TIP3    H139012   6.264   2.507   8.864  0.4572  0.0082  0.0161
 4939TIP3    H239013   6.406   2.553   8.888  0.4920  0.2037 -0.5447
 4940TIP3   OH239014   0.228   1.837   7.269 -0.0370 -0.2951  0.7840
 4940TIP3    H139015   0.289   1.808   7.337  1.9390  1.9703  0.1028
 4940TIP3    H239016   0.283   1.858   7.195 -1.7695  0.9593 -0.2224
 4941TIP3   OH239017   3.241   2.719   9.159  0.2991 -0.1503 -0.6232
 4941TIP3    H139018   3.258   2.633   9.197  0.8275  0.1062 -0.2590
 4941TIP3    H239019   3.230   2.777   9.234 -3.0894 -0.4230 -0.7953
 4942TIP3   OH239020   7.339   5.504   8.476 -0.0258  0.1102  0.1492
 4942TIP3    H139021   7.366   5.480   8.565 -0.4080  1.0285  0.5326
 4942TIP3    H239022   7.362   5.429   8.422  2.1437  0.3296  0.6749
 4943TIP3   OH239023   6.554   7.284   9.135 -0.2085  0.1745  0.0166
 4943TIP3    H139024   6.599   7.361   9.100 -0.1044  0.3443  0.5070
 4943TIP3    H239025   6.463   7.294   9.107  0.0935 -0.2824 -1.1649
 4944TIP3   OH239026   1.106   5.907   9.095 -0.3169  0.2620  0.3590
 4944TIP3    H139027   1.130   5.839   9.157 -1.0611  1.3420  1.9291
 4944TIP3    H239028   1.103   5.987   9.148 -2.9771  0.9031 -0.5852
 4945TIP3   OH239029   0.405   7.110   8.078  0.1370  0.0195  0.5353
 4945TIP3    H139030   0.344   7.044   8.047 -0.8703  0.9389  0.4845
 4945TIP3    H239031   0.462   7.064   8.140 -0.1917 -0.9996  0.0943
 4946TIP3   OH239032   2.960   6.414   6.668  0.0254 -0.1429 -0.1961
 4946TIP3    H139033   2.872   6.440   6.695 -0.0920  0.1996 -0.8973
 4946TIP3    H239034   2.951   6.323   6.642  0.3377 -0.7920  1.8035
 4947TIP3   OH239035   6.400   2.904   9.001  0.2244  0.2203  0.2787
 4947TIP3    H139036   6.328   2.942   8.950  1.2500  1.3061 -0.3983
 4947TIP3    H239037   6.448   2.979   9.035 -0.3044 -0.4581  2.7748
 4948TIP3   OH239038   1.850   3.202   7.666 -0.2824 -0.0918 -0.4747
 4948TIP3    H139039   1.836   3.113   7.698  0.3695  0.4290  1.3835
 4948TIP3    H239040   1.764   3.244   7.676 -0.3705 -0.2596 -0.5141
 4949TIP3   OH239041   3.355   1.600   7.529  0.3411  0.5569 -0.3776
 4949TIP3    H139042   3.278   1.606   7.585  0.2728  0.5401 -0.4705
 4949TIP3    H239043   3.341   1.522   7.476  1.2134 -0.4484  0.7926
 4950TIP3   OH239044   5.158   0.375   9.562  0.0684 -0.3576  0.0082
 4950TIP3    H139045   5.220   0.447   9.548 -0.2251  0.0157  0.5903
 4950TIP3    H239046   5.080   0.417   9.597  1.4854 -1.3523  5.1583
 4951TIP3   OH239047   2.875   0.570   8.461 -0.2476  0.0099  0.7260
 4951TIP3    H139048   2.921   0.517   8.396 -0.1999 -0.3067  1.0124
 4951TIP3    H239049   2.895   0.528   8.544  0.0496  0.6641  0.9940
 4952TIP3   OH239050   3.750   4.160   8.913  0.3741 -1.0220  0.5940
 4952TIP3    H139051   3.714   4.083   8.955 -0.3303 -0.2197  1.4965
 4952TIP3    H239052   3.711   4.234   8.959  2.7427 -0.0906  1.2608
 4953TIP3   OH239053   4.850   5.042   8.390  0.4844  0.3744 -0.8193
 4953TIP3    H139054   4.760   5.030   8.359  0.8560 -0.6303 -1.5249
 4953TIP3    H239055   4.859   5.137   8.398 -0.2817  0.5518 -1.8079
 4954TIP3   OH239056   4.792   3.693   7.043  0.3244  0.2388 -0.0320
 4954TIP3    H139057   4.869   3.641   7.065  0.4987  0.1049 -0.9169
 4954TIP3    H239058   4.825   3.760   6.983 -0.7544 -1.7975 -3.1161
 4955TIP3   OH239059   6.751   6.765   9.114  0.2419 -0.5347 -0.0235
 4955TIP3    H139060   6.718   6.834   9.057 -1.0526 -2.1189 -1.3023
 4955TIP3    H239061   6.689   6.762   9.187 -1.8970 -2.6234 -1.7630
 4956TIP3   OH239062   6.175   1.171   8.732 -0.3169  0.6453  0.4160
 4956TIP3    H139063   6.218   1.087   8.742 -1.8378 -0.1507  0.5278
 4956TIP3    H239064   6.222   1.215   8.661 -0.0321 -0.6544 -0.2145
 4957TIP3   OH239065   5.987   4.903   8.714 -0.0237 -0.6463  0.1176
 4957TIP3    H139066   5.954   4.965   8.649 -0.3187  0.0639  0.9235
 4957TIP3    H239067   5.909   4.857   8.744  0.1576 -1.2197 -0.2686
 4958TIP3   OH239068   2.332   6.931   7.204  0.2089  0.5434 -0.4840
 4958TIP3    H139069   2.241   6.960   7.212 -0.2889 -1.3131  1.2551
 4958TIP3    H239070   2.337   6.894   7.115 -0.9511  0.0529 -0.3709
 4959TIP3   OH239071   3.287   2.834   6.911  0.2396 -0.2901 -0.6092
 4959TIP3    H139072   3.296   2.924   6.941 -0.5705 -1.3313  3.3958
 4959TIP3    H239073   3.208   2.835   6.856 -0.5534  1.2479  0.4719
 4960TIP3   OH239074   0.737   4.603   9.201  0.0459 -0.5619 -0.3419
 4960TIP3    H139075   0.696   4.517   9.196 -0.4668 -0.2626 -2.5560
 4960TIP3    H239076   0.663   4.664   9.209  0.2405 -0.2133 -1.0931
 4961TIP3   OH239077   6.260   2.852   6.947  0.2487  0.0235  0.1333
 4961TIP3    H139078   6.334   2.793   6.961 -1.6150 -2.4351  0.3237
 4961TIP3    H239079   6.209   2.845   7.028  0.9163  3.5440  1.0163
 4962TIP3   OH239080   6.732   1.371   8.822  0.3333 -0.0658 -0.8074
 4962TIP3    H139081   6.740   1.355   8.728 -1.7249  1.1801 -1.2716
 4962TIP3    H239082   6.770   1.293   8.863  1.7496 -0.4084 -2.6267
 4963TIP3   OH239083   6.277   3.118   6.940 -0.4916 -0.6568  0.8399
 4963TIP3    H139084   6.283   3.027   6.970 -1.5295 -1.3961 -0.9940
 4963TIP3    H239085   6.215   3.114   6.867  0.3729  1.3338 -0.0629
 4964TIP3   OH239086   0.932   3.136   6.947  0.0792 -0.0510  0.6197
 4964TIP3    H139087   1.010   3.101   6.903  0.3573  1.1760  0.0884
 4964TIP3    H239088   0.858   3.093   6.905  0.3260  1.2506 -1.2521
 4965TIP3   OH239089   7.278   3.976   8.722 -0.4089  0.4250  0.3763
 4965TIP3    H139090   7.371   3.983   8.740 -0.6984  0.2383  2.1087
 4965TIP3    H239091   7.265   4.029   8.643  1.2793 -0.3109 -0.4601
 4966TIP3   OH239092   2.480   4.759   7.041  0.5347  0.1584 -0.4300
 4966TIP3    H139093   2.547   4.791   6.980  1.2496 -2.5805 -1.2171
 4966TIP3    H239094   2.406   4.737   6.985  0.7039 -1.1317 -0.1702
 4967TIP3   OH239095   3.770   4.239   6.913 -0.2520 -0.3037  0.1674
 4967TIP3    H139096   3.783   4.161   6.966  0.3057 -0.5379 -0.3022
 4967TIP3    H239097   3.815   4.309   6.962  1.5980 -0.8112 -0.6944
 4968TIP3   OH239098   5.901   4.419   8.991 -0.2851 -0.1368  0.2117
 4968TIP3    H139099   5.864   4.380   8.911  0.6645  0.7670 -0.7061
 4968TIP3    H239100   5.889   4.352   9.058 -1.5352 -0.7379 -0.5741
 4969TIP3   OH239101   7.436   3.777   8.007  0.3312 -0.0311  0.1789
 4969TIP3    H139102   7.341   3.789   8.005  0.2777 -0.0031  1.7695
 4969TIP3    H239103   7.452   3.724   8.085  1.7050  0.9219  0.5907
 4970TIP3   OH239104   0.557   7.367   8.670 -0.2235  1.0422 -0.1663
 4970TIP3    H139105   0.489   7.321   8.719 -1.3799 -0.4342 -2.9013
 4970TIP3    H239106   0.629   7.304   8.664  0.2341  1.5121  0.2606
 4971TIP3   OH239107   6.242   5.225   7.349 -0.0433  0.2149 -0.1817
 4971TIP3    H139108   6.150   5.206   7.330  0.5406 -3.1097 -0.3294
 4971TIP3    H239109   6.252   5.318   7.329 -2.8822  0.2276 -2.1162
 4972TIP3   OH239110   7.614   3.833   8.513  0.3627 -0.3710 -0.3049
 4972TIP3    H139111   7.529   3.874   8.498  0.5155 -0.6965 -2.5411
 4972TIP3    H239112   7.605   3.746   8.473  2.2974  0.3277 -2.4711
 4973TIP3   OH239113   6.604   6.420   7.950 -0.4215 -0.8296 -0.2785
 4973TIP3    H139114   6.696   6.416   7.925 -0.4100  0.4936 -0.5221
 4973TIP3    H239115   6.601   6.385   8.039  0.6607  0.9339  0.5059
 4974TIP3   OH239116   4.464   5.201   9.330  0.6155 -0.0365 -0.2560
 4974TIP3    H139117   4.499   5.122   9.288  0.8602 -0.2752  0.3884
 4974TIP3    H239118   4.378   5.175   9.362  0.3917  0.1711 -0.6813
 4975TIP3   OH239119   2.607   7.345   7.154  0.2390 -0.3765  0.5609
 4975TIP3    H139120   2.669   7.354   7.226  1.2529  0.0112 -0.3299
 4975TIP3    H239121   2.576   7.255   7.160  1.2302 -0.7159  0.7638
 4976TIP3   OH239122   2.423   4.539   8.180 -0.4532  0.1539  0.4248
 4976TIP3    H139123   2.345   4.484   8.170 -1.9893  2.0899  1.0787
 4976TIP3    H239124   2.389   4.626   8.200  1.8997  1.1326  0.5530
 4977TIP3   OH239125   0.619   6.777   9.219 -0.0051 -0.2889  0.2534
 4977TIP3    H139126   0.632   6.707   9.284 -1.3468  0.5042  1.4307
 4977TIP3    H239127   0.708   6.798   9.189  0.4404 -2.4609 -0.1315
 4978TIP3   OH239128   4.644   0.690   8.662 -0.3753 -0.2538  0.4273
 4978TIP3    H139129   4.645   0.717   8.754  1.0673  0.0437  0.3478
 4978TIP3    H239130   4.568   0.634   8.654 -0.3453 -0.5283  1.8885
 4979TIP3   OH239131   1.619   6.233   6.901 -0.0747 -0.4396 -0.1123
 4979TIP3    H139132   1.525   6.229   6.886 -0.2768 -2.3872  1.2291
 4979TIP3    H239133   1.643   6.143   6.925  1.7978  0.4004  1.3932
 4980TIP3   OH239134   5.774   0.549   9.153 -0.1933 -0.0236  0.4190
 4980TIP3    H139135   5.806   0.474   9.202  1.9261  0.2307 -0.4323
 4980TIP3    H239136   5.725   0.601   9.216  1.3831 -0.3333  1.9658
 4981TIP3   OH239137   0.701   4.558   6.435 -0.5215 -0.2789 -0.3904
 4981TIP3    H139138   0.796   4.568   6.430 -0.4223 -0.5729  0.6394
 4981TIP3    H239139   0.679   4.506   6.357  0.5391 -2.6316  0.7828
 4982TIP3   OH239140   3.643   4.103   7.665  0.2477 -0.0273 -0.0486
 4982TIP3    H139141   3.720   4.158   7.685  0.7201  0.2790 -2.4027
 4982TIP3    H239142   3.676   4.040   7.601 -1.3104 -0.3087 -0.5953
 4983TIP3   OH239143   0.504   2.782   8.167  0.3132  0.0265 -0.3632
 4983TIP3    H139144   0.446   2.762   8.240  1.1035  0.2897  0.3528
 4983TIP3    H239145   0.571   2.839   8.204  1.2653 -0.6021 -1.0670
 4984TIP3   OH239146   3.528   1.324   8.395  0.5839  0.3600 -0.1608
 4984TIP3    H139147   3.567   1.276   8.322  0.2165 -0.1052 -0.0583
 4984TIP3    H239148   3.486   1.400   8.354 -0.7103 -0.5616 -0.6088
 4985TIP3   OH239149   0.444   1.100   9.188 -0.2139  0.0051 -0.0103
 4985TIP3    H139150   0.485   1.165   9.245 -1.0283  0.8536 -0.3538
 4985TIP3    H239151   0.480   1.016   9.216 -1.4566  0.2406  2.5488
 4986TIP3   OH239152   5.309   5.166   7.343 -0.0617  0.0545  0.0186
 4986TIP3    H139153   5.302   5.150   7.249  1.4152  1.0473 -0.2811
 4986TIP3    H239154   5.318   5.078   7.381  1.3190 -0.2644 -0.9631
 4987TIP3   OH239155   2.590   0.714   7.093  0.0853  0.0446  0.7907
 4987TIP3    H139156   2.556   0.803   7.081 -3.0827 -0.4663  4.1764
 4987TIP3    H239157   2.673   0.727   7.138  0.3378  1.2696  0.0442
 4988TIP3   OH239158   4.529   1.361   7.597  0.2462  0.0715 -0.4860
 4988TIP3    H139159   4.467   1.290   7.576  0.8141 -0.4560 -0.4079
 4988TIP3    H239160   4.552   1.346   7.688  0.9801 -0.1180 -0.6996
 4989TIP3   OH239161   2.281   6.555   7.698 -0.1480 -0.0406 -0.0311
 4989TIP3    H139162   2.349   6.609   7.737 -2.5394  0.7551  3.4678
 4989TIP3    H239163   2.207   6.614   7.685 -1.8920 -1.8161  1.2310
 4990TIP3   OH239164   1.877   7.467   9.417  0.1428 -0.7659 -0.2870
 4990TIP3    H139165   1.948   7.525   9.388 -0.0982 -0.2219  0.1805
 4990TIP3    H239166   1.918   7.412   9.484  0.3718 -1.1363 -0.7285
 4991TIP3   OH239167   0.413   5.320   8.392  0.6420 -0.4708  0.3739
 4991TIP3    H139168   0.493   5.268   8.404  1.8974  1.6765  2.1134
 4991TIP3    H239169   0.360   5.301   8.469  0.8234  0.2667  0.6957
 4992TIP3   OH239170   5.972   5.261   8.584  0.0923 -0.3752  0.0006
 4992TIP3    H139171   5.920   5.198   8.533  0.3208  0.0858 -0.8226
 4992TIP3    H239172   5.925   5.270   8.667 -1.4831  0.4784 -0.9385
 4993TIP3   OH239173   3.836   6.646   7.884 -0.1453  0.1234  0.7556
 4993TIP3    H139174   3.871   6.649   7.973  0.2733  0.6402  0.5803
 4993TIP3    H239175   3.881   6.717   7.838 -0.6006  0.0763  0.2198
 4994TIP3   OH239176   1.172   6.492   8.615 -0.2710 -0.3277  0.2110
 4994TIP3    H139177   1.106   6.446   8.563  0.3411 -1.8731  0.7266
 4994TIP3    H239178   1.255   6.468   8.575  0.1297 -0.5517  1.1537
 4995TIP3   OH239179   2.569   3.580   9.313 -0.0753  0.4674  0.6837
 4995TIP3    H139180   2.553   3.486   9.308  1.8852  0.1459 -0.8496
 4995TIP3    H239181   2.502   3.619   9.256  0.0178 -0.1421  0.1485
 4996TIP3   OH239182   5.331   5.975   7.611  0.0294 -0.3645  0.6921
 4996TIP3    H139183   5.280   5.988   7.531 -0.7809 -2.3861  0.8172
 4996TIP3    H239184   5.293   5.897   7.651  2.0943 -0.9262  1.7116
 4997TIP3   OH239185   4.098   4.856   9.185 -0.4641 -0.0943  0.0672
 4997TIP3    H139186   4.086   4.805   9.105  2.2535 -0.9435  0.1023
 4997TIP3    H239187   4.067   4.944   9.163  0.1424 -0.3420 -1.8961
 4998TIP3   OH239188   7.437   4.502   8.713 -0.0425 -0.3126  0.1589
 4998TIP3    H139189   7.506   4.499   8.647 -0.1752 -1.8861  0.0454
 4998TIP3    H239190   7.384   4.424   8.696 -0.1168 -0.7365  2.0742
 4999TIP3   OH239191   7.652   2.441   9.217 -0.6571 -0.0227 -0.5063
 4999TIP3    H139192   7.744   2.467   9.224 -0.3748 -0.5628 -1.8355
 4999TIP3    H239193   7.605   2.504   9.270  0.7469 -1.4674  2.7318
 5000TIP3   OH239194   2.931   4.610   6.886 -0.2614  0.3912 -0.3194
 5000TIP3    H139195   2.920   4.702   6.865 -0.7893  0.0907 -1.4575
 5000TIP3    H239196   3.009   4.606   6.941 -1.6344  1.7860  1.8594
 5001TIP3   OH239197   7.053   1.091   8.614  0.5010 -0.0805 -0.1852
 5001TIP3    H139198   7.128   1.083   8.555 -1.0498  0.6016 -2.3642
 5001TIP3    H239199   6.989   1.030   8.579  0.3510 -1.4522  2.2857
 5002TIP3   OH239200   4.894   2.942   8.354  0.0827 -0.4824 -0.3220
 5002TIP3    H139201   4.847   3.016   8.315 -1.9671 -0.8800  1.2291
 5002TIP3    H239202   4.827   2.876   8.370  1.8752 -2.8069 -1.7719
 5003TIP3   OH239203   2.540   1.582   9.392 -0.6262 -0.4031 -0.0596
 5003TIP3    H139204   2.481   1.515   9.424 -1.1595 -0.2410 -0.6746
 5003TIP3    H239205   2.618   1.534   9.364 -0.4553 -0.6141  0.7611
 5004TIP3   OH239206   3.664   3.240   7.050  0.1720 -0.6889  0.1930
 5004TIP3    H139207   3.588   3.297   7.034  1.1451  1.0548  1.5062
 5004TIP3    H239208   3.713   3.243   6.968 -0.8631 -1.3772 -0.4735
 5005TIP3   OH239209   7.204   1.614   9.104 -0.0414  0.4731  0.0636
 5005TIP3    H139210   7.211   1.708   9.118 -1.0197  0.3945  1.2983
 5005TIP3    H239211   7.294   1.584   9.091  0.3865  1.4204  0.7447
 5006TIP3   OH239212   5.960   6.530   9.331  0.1567 -0.0990 -0.0980
 5006TIP3    H139213   5.919   6.493   9.410 -0.1361 -1.2848 -0.7846
 5006TIP3    H239214   5.985   6.453   9.279  0.7466  0.6654 -0.9680
 5007TIP3   OH239215   2.741   0.856   8.345  0.1623  0.1161 -0.3041
 5007TIP3    H139216   2.718   0.930   8.289  1.8560  0.5649 -0.4763
 5007TIP3    H239217   2.836   0.861   8.353  0.1256 -0.9566  1.2192
 5008TIP3   OH239218   6.677   7.506   8.144 -0.3067 -0.4920  0.3255
 5008TIP3    H139219   6.756   7.489   8.093  0.9383  1.7876  1.3180
 5008TIP3    H239220   6.614   7.541   8.080  0.1243 -0.6070 -0.1670
 5009TIP3   OH239221   0.136   4.586   7.962  0.2099  0.7298  0.1290
 5009TIP3    H139222   0.227   4.576   7.933 -0.1604  0.5135 -0.9987
 5009TIP3    H239223   0.099   4.498   7.952  0.7110 -0.0522  3.7183
 5010TIP3   OH239224   0.004   7.641   7.784 -0.4444  0.5468  0.1405
 5010TIP3    H139225   0.077   7.686   7.741  0.8607 -1.1037  0.5222
 5010TIP3    H239226   0.005   7.553   7.747 -1.0006 -0.0983  1.5766
 5011TIP3   OH239227   0.095   5.732   9.180  0.1409 -0.3502 -0.0691
 5011TIP3    H139228   0.161   5.784   9.225 -0.5202 -0.0400  0.5557
 5011TIP3    H239229   0.035   5.796   9.143  0.6506 -0.6006 -1.3787
 5012TIP3   OH239230   0.289   7.387   8.885  0.2121 -0.8583 -0.1435
 5012TIP3    H139231   0.355   7.450   8.916  0.7316 -1.5798  0.2595
 5012TIP3    H239232   0.273   7.331   8.961  0.0399 -1.4399 -0.6057
 5013TIP3   OH239233   5.355   4.644   6.998  0.1034 -0.6319  0.1582
 5013TIP3    H139234   5.341   4.702   7.073  2.1851  0.0634  0.0597
 5013TIP3    H239235   5.282   4.665   6.938  1.7213  3.3715 -0.7218
 5014TIP3   OH239236   6.798   2.263   7.628 -0.6844 -0.2984 -0.5471
 5014TIP3    H139237   6.872   2.278   7.569  0.7242 -0.4226  1.0912
 5014TIP3    H239238   6.766   2.351   7.649 -1.7173 -0.2768 -2.0563
 5015TIP3   OH239239   6.752   2.443   9.161 -0.1380 -0.2130  0.2672
 5015TIP3    H139240   6.784   2.506   9.226  0.1850  0.1091 -0.2029
 5015TIP3    H239241   6.819   2.441   9.093 -0.7605 -0.0919 -0.3638
 5016TIP3   OH239242   3.030   1.578   7.840  0.2684  0.2934  0.1617
 5016TIP3    H139243   3.102   1.639   7.825  1.1320 -0.1714  2.1133
 5016TIP3    H239244   3.039   1.513   7.770 -0.8573  2.4706 -2.1442
 5017TIP3   OH239245   7.286   1.423   8.849 -0.1396  0.1762 -0.5837
 5017TIP3    H139246   7.353   1.490   8.858 -0.3138  0.4228 -1.1352
 5017TIP3    H239247   7.321   1.348   8.899 -0.4383  1.0222  0.9654
 5018TIP3   OH239248   0.722   1.818   7.310  0.3718  0.0625  0.2141
 5018TIP3    H139249   0.725   1.723   7.320  1.0747 -0.3178 -2.7480
 5018TIP3    H239250   0.635   1.836   7.274  0.2161  0.5581  0.8227
 5019TIP3   OH239251   5.072   2.544   7.564 -0.5911  0.2592  0.1986
 5019TIP3    H139252   4.990   2.501   7.540 -0.1142 -0.8837  0.5074
 5019TIP3    H239253   5.139   2.476   7.552  0.1379  0.7772  1.1392
 5020TIP3   OH239254   3.675   4.341   7.199 -0.1589 -0.5365  0.0160
 5020TIP3    H139255   3.709   4.278   7.263 -1.0809 -2.2394 -1.0773
 5020TIP3    H239256   3.752   4.384   7.163  0.3758  0.8490  2.5569
 5021TIP3   OH239257   3.340   5.421   8.518  0.5483 -0.2501  0.2095
 5021TIP3    H139258   3.286   5.464   8.452  2.0342  0.2840 -0.7052
 5021TIP3    H239259   3.335   5.328   8.498 -0.8343 -0.3140  0.7751
 5022TIP3   OH239260   1.399   5.360   7.737 -0.8804  0.7670  0.6152
 5022TIP3    H139261   1.390   5.348   7.642  0.2628  1.1954  0.4401
 5022TIP3    H239262   1.367   5.278   7.774  0.4704 -0.2018 -0.2508
 5023TIP3   OH239263   0.921   2.747   6.680 -0.1696  0.2729 -0.2199
 5023TIP3    H139264   1.009   2.711   6.682  0.1935  1.1837  0.7409
 5023TIP3    H239265   0.912   2.784   6.592  1.2938  2.2603  0.3947
 5024TIP3   OH239266   1.225   0.151   9.061  0.4371  0.4039  0.0812
 5024TIP3    H139267   1.202   0.214   9.129 -0.4580 -0.2798  0.4449
 5024TIP3    H239268   1.157   0.162   8.995  0.1209 -0.3485  0.2721
 5025TIP3   OH239269   3.992   7.679   7.989  1.0717 -0.2629 -0.2716
 5025TIP3    H139270   4.077   7.637   7.980  1.1996  0.3250 -2.0619
 5025TIP3    H239271   3.929   7.611   7.966  1.1398 -0.2073 -0.6191
 5026TIP3   OH239272   2.753   2.921   6.740  0.3116 -0.3017 -0.7697
 5026TIP3    H139273   2.836   2.886   6.774 -0.2393 -0.7554  0.1275
 5026TIP3    H239274   2.686   2.880   6.793 -0.3720  2.5570  0.7600
 5027TIP3   OH239275   2.307   3.277   8.616 -0.3056 -0.4120  0.4393
 5027TIP3    H139276   2.278   3.265   8.706 -1.5141  1.2091  0.3155
 5027TIP3    H239277   2.399   3.252   8.617 -0.6186 -1.6646  1.8114
 5028TIP3   OH239278   0.043   5.880   8.789  0.4158  0.0156 -0.3960
 5028TIP3    H139279   0.074   5.859   8.700 -0.6786 -0.9044 -0.5730
 5028TIP3    H239280  -0.045   5.915   8.776  0.1273 -0.4188  0.3531
 5029TIP3   OH239281   7.327   0.391   7.515 -0.6400 -0.0482 -0.2279
 5029TIP3    H139282   7.292   0.358   7.433 -0.4245  1.0389 -0.7804
 5029TIP3    H239283   7.422   0.386   7.504 -0.6044  0.7316 -0.3244
 5030TIP3   OH239284   0.357   1.260   7.494 -0.5269  0.0779  0.1010
 5030TIP3    H139285   0.290   1.208   7.449  0.5656 -0.6249 -0.7841
 5030TIP3    H239286   0.399   1.198   7.553 -0.4228  0.4267  0.3916
 5031TIP3   OH239287   0.970   6.542   7.635 -1.0566  0.1905  0.3503
 5031TIP3    H139288   0.980   6.596   7.713  1.4084 -0.5885  0.6858
 5031TIP3    H239289   1.022   6.588   7.568  1.3584 -1.7509  0.7273
 5032TIP3   OH239290   6.586   5.909   9.520 -0.2354  0.4056 -0.9221
 5032TIP3    H139291   6.511   5.943   9.570  0.4881 -0.4385  0.8317
 5032TIP3    H239292   6.546   5.865   9.445 -1.4961  0.1657 -0.1412
 5033TIP3   OH239293   3.626   4.759   8.216 -0.1031  0.3426  0.0900
 5033TIP3    H139294   3.562   4.751   8.145  0.2275 -0.9769 -0.0873
 5033TIP3    H239295   3.573   4.770   8.295 -0.5129  0.4484 -0.1952
 5034TIP3   OH239296   0.038   5.547   6.910  0.4322  0.2441 -0.3111
 5034TIP3    H139297  -0.017   5.468   6.912  1.2445 -0.3462  2.1266
 5034TIP3    H239298   0.116   5.523   6.962  1.0174  2.4297 -0.0962
 5035TIP3   OH239299   3.807   3.129   9.390  0.5676  0.6085  0.3808
 5035TIP3    H139300   3.795   3.212   9.435 -1.1104  0.8084 -0.3590
 5035TIP3    H239301   3.758   3.139   9.308  1.7974 -0.4873 -0.5324
 5036TIP3   OH239302   4.120   5.492   6.734  0.0432 -0.3781 -0.2601
 5036TIP3    H139303   4.151   5.405   6.761 -2.6387 -1.0286  0.9756
 5036TIP3    H239304   4.027   5.492   6.753  0.0283  3.0092  0.2981
 5037TIP3   OH239305   1.265   1.684   9.683  0.0579 -0.2085  0.4017
 5037TIP3    H139306   1.251   1.615   9.747 -1.9578  1.6312  2.0973
 5037TIP3    H239307   1.254   1.766   9.732  0.5856  1.3272 -1.8587
 5038TIP3   OH239308   3.272   3.088   7.183 -0.5522 -0.0554 -1.7691
 5038TIP3    H139309   3.283   3.093   7.088  4.5906 -1.7258 -1.5958
 5038TIP3    H239310   3.285   2.996   7.204  2.0716  0.7040  0.6395
 5039TIP3   OH239311   2.514   6.957   8.921 -0.4152  0.1019 -0.5552
 5039TIP3    H139312   2.471   6.943   8.836 -1.9500  2.3518 -0.2348
 5039TIP3    H239313   2.446   6.937   8.985 -0.0355  0.7366  0.0604
 5040TIP3   OH239314   2.083   1.468   9.205 -0.4546 -0.2658 -0.2392
 5040TIP3    H139315   1.991   1.453   9.186 -1.3064  1.7436  1.7298
 5040TIP3    H239316   2.083   1.507   9.293  2.3896 -1.3805  0.3719
 5041TIP3   OH239317   5.933   4.407   8.474 -0.0851 -0.2755  1.1224
 5041TIP3    H139318   5.950   4.353   8.397 -0.3351  1.0561  0.0824
 5041TIP3    H239319   5.996   4.377   8.539  1.1432 -0.4610 -0.1024
 5042TIP3   OH239320   0.809   1.115   7.466  0.2853  0.0352  0.1820
 5042TIP3    H139321   0.876   1.063   7.510 -0.1213 -0.8369 -0.1908
 5042TIP3    H239322   0.755   1.149   7.537  0.9492  0.5085  0.4670
 5043TIP3   OH239323   3.671   0.837   8.098  0.1529 -0.4126  0.3264
 5043TIP3    H139324   3.616   0.906   8.136 -0.2143  1.5646 -3.3483
 5043TIP3    H239325   3.609   0.780   8.051  0.9011  0.1170 -1.3681
 5044TIP3   OH239326   1.298   5.441   8.736 -0.2970  0.7023  0.2071
 5044TIP3    H139327   1.237   5.379   8.696 -0.4527  0.1887  1.2242
 5044TIP3    H239328   1.352   5.471   8.662 -1.0808  0.3696 -0.5215
 5045TIP3   OH239329   5.003   0.970   8.094 -0.4769  0.2573  0.2103
 5045TIP3    H139330   5.051   0.887   8.092  0.4408  0.7721  0.3687
 5045TIP3    H239331   5.057   1.028   8.147  0.6284  1.9923 -2.5666
 5046TIP3   OH239332   6.149   5.296   8.276  0.2587  0.4429  0.6303
 5046TIP3    H139333   6.234   5.255   8.262  0.3825  0.6361  0.8134
 5046TIP3    H239334   6.165   5.364   8.341 -0.3114 -0.5038  1.8304
 5047TIP3   OH239335   3.539   3.023   8.230  0.1185  0.3080 -0.2506
 5047TIP3    H139336   3.525   3.028   8.324 -0.3225 -2.3485 -0.1173
 5047TIP3    H239337   3.623   2.978   8.220  1.1357  2.2718 -1.1686
 5048TIP3   OH239338   4.333   3.274   9.567 -0.0246  0.2166 -0.0066
 5048TIP3    H139339   4.387   3.347   9.539  0.2847  0.2776  0.7199
 5048TIP3    H239340   4.316   3.290   9.660 -0.6698 -0.1914 -0.0420
 5049TIP3   OH239341   1.403   0.725   8.084  0.1571 -0.4696  0.2093
 5049TIP3    H139342   1.324   0.730   8.030  0.3037  1.0595  0.0900
 5049TIP3    H239343   1.390   0.792   8.151  1.1852 -0.4620  0.4192
 5050TIP3   OH239344   2.973   2.127   7.338 -0.3324  0.0090  0.1026
 5050TIP3    H139345   2.985   2.136   7.432  0.5242 -0.3447  0.0311
 5050TIP3    H239346   2.914   2.052   7.328  1.7770 -1.7642  0.2792
 5051TIP3   OH239347   3.151   0.042   8.447 -0.0900 -1.1362  0.8559
 5051TIP3    H139348   3.235   0.075   8.477  0.9665 -1.9361 -1.0673
 5051TIP3    H239349   3.087   0.105   8.481  1.4780  0.6181  0.6881
 5052TIP3   OH239350   6.246   4.977   8.290 -0.5467  0.0277  0.3309
 5052TIP3    H139351   6.255   4.892   8.334  1.9805  0.3134  0.5148
 5052TIP3    H239352   6.280   5.040   8.353  2.5304  0.5260 -1.5895
 5053TIP3   OH239353   0.678   1.546   9.248  0.3954  0.3451  0.2033
 5053TIP3    H139354   0.682   1.629   9.294 -0.0687  0.2575  0.4113
 5053TIP3    H239355   0.745   1.552   9.180 -0.1087  1.1594 -0.2293
 5054TIP3   OH239356   4.131   1.274   8.263 -0.2097  0.3288 -0.0921
 5054TIP3    H139357   4.185   1.201   8.232 -0.4903 -0.1757  0.5741
 5054TIP3    H239358   4.043   1.237   8.270 -0.1653  0.4276  1.2381
 5055TIP3   OH239359   2.817   3.788   8.239 -0.1894  0.0459 -0.4095
 5055TIP3    H139360   2.754   3.735   8.190  1.6141 -1.7664 -0.9154
 5055TIP3    H239361   2.846   3.854   8.176  0.4653 -0.8681 -1.0870
 5056TIP3   OH239362   6.302   4.487   9.031  0.5209  0.2702  0.0897
 5056TIP3    H139363   6.336   4.452   8.948 -2.0077  0.5513 -1.1517
 5056TIP3    H239364   6.239   4.554   9.005 -1.1587 -0.3780  2.2050
 5057TIP3   OH239365   5.796   3.858   8.617 -0.4322 -0.1401 -0.0891
 5057TIP3    H139366   5.879   3.819   8.646 -0.4961 -0.6808 -0.6106
 5057TIP3    H239367   5.754   3.888   8.697  0.8131  1.2627  0.0971
 5058TIP3   OH239368   6.412   2.323   7.451  0.3275  0.0493 -0.4340
 5058TIP3    H139369   6.329   2.281   7.429 -0.1123  1.2566 -1.2506
 5058TIP3    H239370   6.456   2.262   7.509 -1.8069  0.0445  1.3035
 5059TIP3   OH239371   5.772   1.506   9.556  0.6625  0.5085 -0.2679
 5059TIP3    H139372   5.732   1.458   9.483 -0.6649  1.9591 -0.5506
 5059TIP3    H239373   5.714   1.488   9.630  2.4759 -1.6666  0.7306
 5060TIP3   OH239374   5.351   4.728   8.325 -0.3202 -0.2782  0.1631
 5060TIP3    H139375   5.410   4.748   8.398 -0.9827  1.7206  0.2256
 5060TIP3    H239376   5.292   4.661   8.359 -0.5620  0.5531  1.4797
 5061TIP3   OH239377   4.697   1.035   9.396 -0.4829  0.0246  0.2292
 5061TIP3    H139378   4.606   1.036   9.427 -0.3537  0.5671  0.6094
 5061TIP3    H239379   4.703   0.956   9.342 -1.1130 -0.1495  0.4008
 5062TIP3   OH239380   3.640   4.806   6.969  0.0313 -0.6874 -0.5755
 5062TIP3    H139381   3.614   4.827   6.879  0.9921 -0.8301 -0.9068
 5062TIP3    H239382   3.732   4.780   6.961  0.4415  0.3075  0.5906
 5063TIP3   OH239383   3.790   5.303   7.829  0.0336  0.6364 -0.3856
 5063TIP3    H139384   3.784   5.396   7.851  0.4451  0.4963  0.3723
 5063TIP3    H239385   3.881   5.280   7.849 -1.0530 -0.9920  3.9428
 5064TIP3   OH239386   3.097   1.590   7.045  0.4310  0.2278  0.2686
 5064TIP3    H139387   3.134   1.669   7.005  0.1312 -0.3282 -1.2023
 5064TIP3    H239388   3.164   1.523   7.032 -0.7401 -0.6627 -1.9631
 5065TIP3   OH239389   1.536   4.685   7.886 -0.1312 -0.1448 -0.7421
 5065TIP3    H139390   1.474   4.758   7.891  0.2747  0.2207 -0.9590
 5065TIP3    H239391   1.483   4.607   7.901 -0.2254  0.3199  1.8640
 5066TIP3   OH239392   4.777   7.604   9.485  0.1239 -0.0353 -0.0944
 5066TIP3    H139393   4.854   7.661   9.480 -0.2405  0.4826  0.0989
 5066TIP3    H239394   4.795   7.546   9.559  1.0238 -0.9831 -1.0229
 5067TIP3   OH239395   3.258   2.703   8.203 -0.3105  0.0473  0.9296
 5067TIP3    H139396   3.275   2.610   8.218  0.8089 -0.1686 -1.2775
 5067TIP3    H239397   3.170   2.705   8.165  0.7423 -0.5139 -1.7737
 5068TIP3   OH239398   0.652   2.080   9.339  0.1408 -0.1303  0.5020
 5068TIP3    H139399   0.649   2.173   9.360 -1.9800  0.0226 -0.1802
 5068TIP3    H239400   0.648   2.036   9.424  0.2197  0.4059  0.7885
 5069TIP3   OH239401   5.848   1.029   7.390 -0.8942  0.2779  0.0933
 5069TIP3    H139402   5.933   1.069   7.378 -0.4528 -1.0900 -1.6809
 5069TIP3    H239403   5.827   1.046   7.482  0.9428  1.2502  0.3826
 5070TIP3   OH239404   0.070   2.809   8.538  0.3462  0.5774 -0.1684
 5070TIP3    H139405   0.104   2.892   8.570 -1.7508  1.7974 -0.8717
 5070TIP3    H239406  -0.010   2.833   8.491 -0.8382 -1.9408  0.4082
 5071TIP3   OH239407   5.988   3.814   8.308  0.0322  0.6173 -0.6156
 5071TIP3    H139408   6.018   3.806   8.399 -0.7129  0.3020 -0.3901
 5071TIP3    H239409   5.931   3.738   8.295 -2.4558  2.3300 -0.3218
 5072TIP3   OH239410   3.450   3.784   8.469 -0.3021 -0.1007 -0.2712
 5072TIP3    H139411   3.538   3.795   8.505 -0.7154 -0.8420  1.0393
 5072TIP3    H239412   3.415   3.873   8.465  0.0738  0.0897  0.3787
 5073TIP3   OH239413   2.443   4.714   9.435  0.3376  0.0713 -1.0158
 5073TIP3    H139414   2.426   4.793   9.486  3.8797  0.0582  0.4940
 5073TIP3    H239415   2.388   4.647   9.476 -1.0146  1.2369 -0.8547
 5074TIP3   OH239416   2.472   2.247   9.157 -0.1040 -0.5702  0.1118
 5074TIP3    H139417   2.496   2.213   9.243  2.2884 -2.0627 -1.0388
 5074TIP3    H239418   2.415   2.179   9.120  0.3730 -0.8162 -0.1750
 5075TIP3   OH239419   1.478   3.395   7.484 -0.8801 -0.4321  0.0655
 5075TIP3    H139420   1.476   3.429   7.394 -0.5114  3.3074  1.3042
 5075TIP3    H239421   1.387   3.371   7.503 -1.4196  1.0362 -0.5555
 5076TIP3   OH239422   2.264   4.600   8.771 -0.1750 -0.5952  0.1037
 5076TIP3    H139423   2.343   4.621   8.821 -0.0393 -1.3802  0.2242
 5076TIP3    H239424   2.293   4.598   8.680 -0.4805  1.1274 -0.0739
 5077TIP3   OH239425   0.768   3.040   8.916 -0.2639 -0.1194  0.2758
 5077TIP3    H139426   0.678   3.069   8.901 -0.0228  0.0043 -1.0533
 5077TIP3    H239427   0.817   3.122   8.930 -0.4991 -0.2338  2.0236
 5078TIP3   OH239428   0.564   7.344   7.949 -0.4925  0.1813 -0.0262
 5078TIP3    H139429   0.629   7.304   8.007 -0.9129 -0.0000  0.3184
 5078TIP3    H239430   0.503   7.273   7.929  0.4367 -0.1721 -1.8670
 5079TIP3   OH239431   7.275   3.807   7.122 -0.0329  0.1127  0.5041
 5079TIP3    H139432   7.189   3.848   7.125 -0.2904 -0.4512  0.9689
 5079TIP3    H239433   7.257   3.713   7.121  0.5331 -0.0134 -0.8903
 5080TIP3   OH239434   7.474   4.064   7.226 -0.1651  0.3401  0.3389
 5080TIP3    H139435   7.422   4.003   7.174 -0.6118  0.5175  0.5715
 5080TIP3    H239436   7.413   4.098   7.291  0.4570 -0.0855  1.1571
 5081TIP3   OH239437   0.441   2.978   8.938  0.2037 -0.0598 -0.1569
 5081TIP3    H139438   0.473   3.053   8.888  0.7942  0.2212  0.6066
 5081TIP3    H239439   0.386   3.017   9.006  0.4860 -0.3153  0.2236
 5082TIP3   OH239440   5.391   7.331   7.918 -0.3374  0.3875  0.4558
 5082TIP3    H139441   5.326   7.338   7.987 -0.0849  0.6677  0.6651
 5082TIP3    H239442   5.475   7.348   7.961  0.0386 -1.3793  0.4740
 5083TIP3   OH239443   4.740   6.262   8.093  0.5343  0.0018  0.2950
 5083TIP3    H139444   4.744   6.174   8.057  0.2918  0.4775 -0.9361
 5083TIP3    H239445   4.662   6.261   8.149 -0.2701 -0.1944 -0.7929
 5084TIP3   OH239446   0.513   1.562   7.252 -0.3385 -0.1919 -0.1148
 5084TIP3    H139447   0.500   1.656   7.243 -1.1330 -0.2795  0.1111
 5084TIP3    H239448   0.496   1.527   7.164  0.9751 -0.0277 -0.4649
 5085TIP3   OH239449   2.421   1.382   7.649  0.0965 -0.0041  0.2098
 5085TIP3    H139450   2.350   1.352   7.705  0.3351  1.4493  1.3612
 5085TIP3    H239451   2.379   1.436   7.582  0.0563  0.4571  0.6026
 5086TIP3   OH239452   4.385   5.336   6.624  0.6675 -0.2981  1.1275
 5086TIP3    H139453   4.455   5.312   6.685  3.6657  3.1428 -0.5695
 5086TIP3    H239454   4.422   5.319   6.538 -0.8616  0.9883  0.1659
 5087TIP3   OH239455   3.459   6.006   8.585 -0.7332 -0.4237  0.0057
 5087TIP3    H139456   3.487   5.922   8.546 -0.4972  0.6194 -2.2212
 5087TIP3    H239457   3.375   5.987   8.625 -0.1881 -1.9709  0.5067
 5088TIP3   OH239458   4.813   2.072   6.960  0.0810  0.0948  0.0472
 5088TIP3    H139459   4.822   1.980   6.985  1.8218 -0.1234 -1.1853
 5088TIP3    H239460   4.718   2.086   6.952 -0.2432 -1.3636  1.0096
 5089TIP3   OH239461   3.732   1.090   8.846 -0.3523 -0.0931  0.3075
 5089TIP3    H139462   3.730   1.166   8.788 -2.3862  1.9932  2.8871
 5089TIP3    H239463   3.651   1.042   8.825 -0.4955  0.0177  0.6046
 5090TIP3   OH239464   1.038   5.479   8.068  0.4327 -0.0873  0.5354
 5090TIP3    H139465   1.079   5.565   8.080  0.5895 -0.1228  0.2531
 5090TIP3    H239466   0.985   5.467   8.147 -0.1886  0.5907  0.2355
 5091TIP3   OH239467   6.799   4.241   9.215  0.2683  0.1060 -0.4004
 5091TIP3    H139468   6.810   4.302   9.287  1.3222 -1.9179  1.2630
 5091TIP3    H239469   6.730   4.181   9.244  1.0735 -1.0548 -0.7945
 5092TIP3   OH239470   4.279   5.732   9.428 -0.3082 -0.3279 -0.1381
 5092TIP3    H139471   4.366   5.705   9.458 -0.9568 -0.4578  1.7246
 5092TIP3    H239472   4.242   5.653   9.389  0.9239  0.0963 -2.3416
 5093TIP3   OH239473   7.546   1.748   8.206  0.0406 -0.1762  0.4555
 5093TIP3    H139474   7.568   1.756   8.113 -1.4007 -0.4926  0.0645
 5093TIP3    H239475   7.581   1.827   8.246  0.5723  0.0167 -0.3753
 5094TIP3   OH239476   0.409   7.572   6.938 -0.5152 -0.0526 -0.3194
 5094TIP3    H139477   0.464   7.626   6.881  0.3351 -1.1869 -0.5998
 5094TIP3    H239478   0.468   7.507   6.975 -1.6258 -1.2204 -0.5213
 5095TIP3   OH239479   5.566   0.206   9.384 -0.0063  0.8392  0.2526
 5095TIP3    H139480   5.523   0.212   9.469  2.2441  2.6872  1.3683
 5095TIP3    H239481   5.518   0.266   9.328 -1.1233  0.0764  0.3602
 5096TIP3   OH239482   6.626   1.258   9.530 -0.1505  0.0005  0.0640
 5096TIP3    H139483   6.671   1.214   9.602 -0.9581  1.3125  1.4439
 5096TIP3    H239484   6.544   1.209   9.519  1.0120 -1.6957 -1.6852
 5097TIP3   OH239485   6.371   5.479   8.286  0.7260 -0.2369 -0.0722
 5097TIP3    H139486   6.360   5.549   8.351  0.4246  0.3315 -0.7229
 5097TIP3    H239487   6.449   5.432   8.315  0.6808  0.0985  0.6234
 5098TIP3   OH239488   7.377   7.334   7.786  0.3581  0.3836  0.0997
 5098TIP3    H139489   7.428   7.284   7.723  0.9656  2.5397 -1.2153
 5098TIP3    H239490   7.331   7.400   7.734 -0.7736  0.9209  1.6785
 5099TIP3   OH239491   7.208   5.596   7.115 -0.4192  0.0769 -0.2920
 5099TIP3    H139492   7.193   5.642   7.033  1.9833  3.8890  1.1214
 5099TIP3    H239493   7.299   5.565   7.108 -0.5630 -0.5447  0.5097
 5100TIP3   OH239494   4.288   6.256   7.805 -0.2112  0.2093  0.0176
 5100TIP3    H139495   4.313   6.307   7.882  0.3574 -0.6560  0.4215
 5100TIP3    H239496   4.208   6.298   7.773 -0.9456  0.0468  1.5886
 5101TIP3   OH239497   3.176   5.855   8.667  0.2986 -0.3579 -0.6876
 5101TIP3    H139498   3.141   5.889   8.584  1.3467 -0.5760 -1.2338
 5101TIP3    H239499   3.160   5.926   8.730  2.0619  1.0474 -1.7210
 5102TIP3   OH239500   4.494   5.059   7.722 -0.0136 -0.1822  0.2034
 5102TIP3    H139501   4.589   5.072   7.727 -0.0242  1.0639 -1.8764
 5102TIP3    H239502   4.482   4.966   7.739  1.6486 -0.4928 -0.1432
 5103TIP3   OH239503   3.279   5.244   8.798  0.0694 -0.5736 -0.1560
 5103TIP3    H139504   3.309   5.295   8.723 -0.5337  1.2992  0.8229
 5103TIP3    H239505   3.190   5.217   8.775  0.7540 -2.1655 -1.1139
 5104TIP3   OH239506   5.526   1.221   7.676  0.2716 -0.2474  0.0142
 5104TIP3    H139507   5.579   1.265   7.742  0.5181 -0.7288  0.1430
 5104TIP3    H239508   5.587   1.165   7.629  0.2991  0.8646 -1.3147
 5105TIP3   OH239509   2.836   1.145   7.141 -0.0670  0.2651  0.0246
 5105TIP3    H139510   2.927   1.142   7.168  0.0832 -0.8939 -0.5143
 5105TIP3    H239511   2.806   1.054   7.150 -0.5060  0.1727 -1.9323
 5106TIP3   OH239512   0.568   6.030   6.767  0.2323 -0.4781  0.0270
 5106TIP3    H139513   0.579   5.978   6.688  2.0018  0.3340 -0.3105
 5106TIP3    H239514   0.620   5.985   6.834  0.3172 -0.1121  0.2111
 5107TIP3   OH239515   0.329   3.105   6.781 -0.0076 -0.1386  0.5021
 5107TIP3    H139516   0.296   3.179   6.731  0.4072 -0.1748  0.1692
 5107TIP3    H239517   0.254   3.074   6.831 -0.4313 -0.1113 -0.1095
 5108TIP3   OH239518   1.418   1.577   7.723 -0.2058  0.0692 -0.4332
 5108TIP3    H139519   1.367   1.621   7.790  0.7873  0.2850  0.1947
 5108TIP3    H239520   1.359   1.571   7.648 -0.4190  2.3832 -0.5279
 5109TIP3   OH239521   1.979   2.546   7.712 -0.6281  0.2307  0.6557
 5109TIP3    H139522   2.038   2.500   7.772 -0.3824  0.7396  0.8087
 5109TIP3    H239523   1.900   2.492   7.711 -0.2683 -0.3066  0.6696
 5110TIP3   OH239524   7.157   1.639   7.722 -0.4012 -0.0915 -0.2213
 5110TIP3    H139525   7.158   1.544   7.724  0.0438 -0.0813  0.5843
 5110TIP3    H239526   7.162   1.665   7.814 -3.5813  0.7039 -0.1688
 5111TIP3   OH239527   4.969   3.233   8.117 -0.6362 -0.3414  0.1185
 5111TIP3    H139528   5.060   3.252   8.096 -1.0662  3.1456  0.9097
 5111TIP3    H239529   4.932   3.202   8.034  0.4703  1.6082 -1.2033
 5112TIP3   OH239530   6.984   2.309   7.398  0.3433  0.3082  0.2263
 5112TIP3    H139531   7.066   2.323   7.444  0.2410 -0.8362  0.7856
 5112TIP3    H239532   7.009   2.276   7.312  0.4948 -1.8000  1.0034
 5113TIP3   OH239533   2.238   2.914   8.843 -0.3087  0.0429  0.2542
 5113TIP3    H139534   2.218   3.008   8.838 -2.9423 -0.3738  1.0879
 5113TIP3    H239535   2.284   2.904   8.926  0.8685  0.7023 -0.3022
 5114TIP3   OH239536   4.382   5.368   9.122  0.0607 -0.3678 -0.0267
 5114TIP3    H139537   4.403   5.322   9.041 -1.8572 -1.0491 -0.1973
 5114TIP3    H239538   4.444   5.334   9.186  0.4208 -1.1850 -0.7901
 5115TIP3   OH239539   4.316   4.661   7.968  0.6574  0.2251 -0.2758
 5115TIP3    H139540   4.244   4.720   7.992 -0.4064 -1.2546  0.3308
 5115TIP3    H239541   4.395   4.710   7.990 -0.1711  1.6297 -0.3028
 5116TIP3   OH239542   5.223   4.929   8.089 -0.3178  0.2491 -0.1904
 5116TIP3    H139543   5.219   4.844   8.046  0.8576 -0.3481  0.7947
 5116TIP3    H239544   5.236   4.908   8.182  0.6639  1.4982 -0.0138
 5117TIP3   OH239545   3.287   3.709   7.140  0.6794  0.2987 -0.5281
 5117TIP3    H139546   3.328   3.780   7.091 -0.2567  0.8128 -0.5800
 5117TIP3    H239547   3.319   3.720   7.230  0.9193  0.4903 -0.6375
 5118TIP3   OH239548   7.156   1.996   8.748 -0.5903 -0.2309  0.4413
 5118TIP3    H139549   7.112   1.941   8.682 -0.4571 -0.9945  0.9778
 5118TIP3    H239550   7.119   1.967   8.831 -2.2367  2.0868  0.6053
 5119TIP3   OH239551   1.175   0.115   7.281  0.2977 -0.6204  0.2351
 5119TIP3    H139552   1.178   0.210   7.270 -1.2772 -0.5723 -0.0445
 5119TIP3    H239553   1.265   0.091   7.303  0.8028  0.8859 -0.0156
 5120TIP3   OH239554   4.144   7.276   9.298 -0.0726  0.1751  0.0114
 5120TIP3    H139555   4.113   7.335   9.367  1.1291 -0.7087  1.3630
 5120TIP3    H239556   4.136   7.188   9.337  1.7490 -0.2571 -0.4951
 5121TIP3   OH239557   0.622   4.159   8.020  0.0818  0.2088  0.1505
 5121TIP3    H139558   0.614   4.158   7.925  0.6165 -0.0400  0.1068
 5121TIP3    H239559   0.673   4.238   8.038 -0.7105  0.7063  0.2948
 5122TIP3   OH239560   1.633   2.338   8.941  0.4395  0.3912 -0.2570
 5122TIP3    H139561   1.591   2.370   8.861  2.7667  1.6696 -1.0485
 5122TIP3    H239562   1.708   2.288   8.910  0.1723 -0.9582  1.1285
 5123TIP3   OH239563   4.677   7.595   8.049 -0.2377 -0.3024  0.1315
 5123TIP3    H139564   4.761   7.557   8.076 -1.0980 -1.1800  1.6777
 5123TIP3    H239565   4.619   7.521   8.036 -0.6829  0.2725 -1.3980
 5124TIP3   OH239566   4.431   6.199   8.601 -0.5429 -0.0765  0.3561
 5124TIP3    H139567   4.364   6.139   8.634  0.7507 -2.3121 -0.7645
 5124TIP3    H239568   4.503   6.191   8.663  0.3925 -1.2793 -0.8250
 5125TIP3   OH239569   6.142   1.647   7.451  0.5395  0.1819  0.0512
 5125TIP3    H139570   6.237   1.661   7.458  0.3788  2.3171 -1.2056
 5125TIP3    H239571   6.125   1.646   7.357 -0.5551 -1.4997  0.2300
 5126TIP3   OH239572   0.134   4.582   7.526  0.2470 -0.3773 -0.0675
 5126TIP3    H139573   0.172   4.494   7.525  1.9583  0.2724  1.1712
 5126TIP3    H239574   0.059   4.576   7.585  0.1217 -1.0729 -0.2940
 5127TIP3   OH239575   5.263   4.157   8.412 -0.0493  0.2267  0.7258
 5127TIP3    H139576   5.238   4.075   8.369 -0.2189  0.9358 -0.5816
 5127TIP3    H239577   5.186   4.213   8.405  0.1643  0.6102  1.3313
 5128TIP3   OH239578   7.144   4.353   7.901 -0.0707  0.1835  0.3573
 5128TIP3    H139579   7.131   4.310   7.817 -1.6038  2.2433 -0.5493
 5128TIP3    H239580   7.238   4.373   7.904  0.5459 -2.4464  0.4993
 5129TIP3   OH239581   5.044   7.150   9.236 -0.2990 -0.3908 -0.3944
 5129TIP3    H139582   5.025   7.235   9.275  0.6721 -1.3542  2.5232
 5129TIP3    H239583   4.960   7.104   9.237 -0.3516 -0.2950  0.3920
 5130TIP3   OH239584   5.720   1.246   9.375 -0.1261 -0.1122  0.2181
 5130TIP3    H139585   5.685   1.160   9.395 -1.0312 -0.1118 -1.2705
 5130TIP3    H239586   5.792   1.230   9.313 -0.7095  0.2282 -0.5653
 5131TIP3   OH239587   7.675   2.857   9.315 -0.0654 -0.3603  0.7775
 5131TIP3    H139588   7.737   2.784   9.312  0.6043  0.2086  0.7963
 5131TIP3    H239589   7.644   2.865   9.225  0.2965 -0.2968  0.6564
 5132TIP3   OH239590   4.227   2.466   9.106  0.6245 -0.3290 -0.1042
 5132TIP3    H139591   4.274   2.540   9.068  1.1303 -0.1858  0.7781
 5132TIP3    H239592   4.155   2.450   9.045 -0.9303  2.4177  0.8191
 5133TIP3   OH239593   7.281   6.169   9.123 -0.8066 -0.0059  0.3537
 5133TIP3    H139594   7.349   6.216   9.075 -2.4598  2.3640  0.1227
 5133TIP3    H239595   7.222   6.137   9.055 -0.7444 -0.6936  0.6170
 5134TIP3   OH239596   4.807   3.716   7.550  0.0534 -0.6312  0.9017
 5134TIP3    H139597   4.822   3.733   7.457 -0.2571  0.0412  0.9703
 5134TIP3    H239598   4.894   3.723   7.590  0.1236 -0.5039  0.7277
 5135TIP3   OH239599   1.841   4.973   9.320  0.7731  0.0564  0.3996
 5135TIP3    H139600   1.888   4.931   9.392  1.0875  1.6634  1.1822
 5135TIP3    H239601   1.812   5.057   9.357 -1.8127 -0.4095 -0.3658
 5136TIP3   OH239602   5.244   3.809   7.564 -0.3651  0.2388 -0.2929
 5136TIP3    H139603   5.294   3.735   7.527 -1.2529 -0.5656  0.0828
 5136TIP3    H239604   5.215   3.858   7.487 -0.3062 -0.1690 -0.5841
 5137TIP3   OH239605   6.917   0.908   9.055  0.5987  0.7185  0.1805
 5137TIP3    H139606   6.992   0.959   9.025  0.1789  1.1303 -0.1916
 5137TIP3    H239607   6.921   0.827   9.004  0.5412  0.9304 -0.1680
 5138TIP3   OH239608   6.812   3.303   8.274 -0.2550  0.3907 -1.0411
 5138TIP3    H139609   6.737   3.269   8.225  0.7344 -0.4760 -2.0178
 5138TIP3    H239610   6.846   3.374   8.218 -1.2544  1.8540  0.1463
 5139TIP3   OH239611   3.819   1.588   9.012 -0.3346 -0.2061  0.0176
 5139TIP3    H139612   3.782   1.601   9.100 -0.3112 -1.1044  0.1682
 5139TIP3    H239613   3.743   1.593   8.954 -0.4580 -0.3692  0.1627
 5140TIP3   OH239614   5.779   0.859   9.355  0.4370 -0.1518  0.7263
 5140TIP3    H139615   5.782   0.834   9.447  0.8979  2.2662  1.4498
 5140TIP3    H239616   5.853   0.920   9.344 -2.1724  3.2095  0.0027
 5141TIP3   OH239617   6.300   5.521   8.030 -0.4898  0.3962  0.0203
 5141TIP3    H139618   6.214   5.484   8.049  0.0122 -1.0965 -0.5348
 5141TIP3    H239619   6.336   5.544   8.116 -1.3834  0.9180  0.2599
 5142TIP3   OH239620   6.674   7.012   9.020  0.1508  0.6879  0.3148
 5142TIP3    H139621   6.633   7.098   9.022 -0.3992  0.4372  0.1473
 5142TIP3    H239622   6.709   7.004   8.931 -0.3942  0.4701  0.1171
 5143TIP3   OH239623   0.553   5.608   7.310 -0.1365  0.1767 -0.3262
 5143TIP3    H139624   0.554   5.678   7.246  0.9853 -0.5755 -1.1732
 5143TIP3    H239625   0.485   5.547   7.279 -0.7383  0.6153  0.1162
 5144TIP3   OH239626   3.741   3.922   9.034 -0.5576 -0.3636 -0.1668
 5144TIP3    H139627   3.666   3.864   9.045  1.0530 -2.3871  0.8972
 5144TIP3    H239628   3.781   3.927   9.121 -0.1511  1.7186 -0.4137
 5145TIP3   OH239629   4.535   3.732   9.126 -0.1794 -0.5845 -0.1348
 5145TIP3    H139630   4.480   3.779   9.188 -0.9347  1.0959 -1.9825
 5145TIP3    H239631   4.621   3.771   9.136 -0.6916  0.9084 -1.3083
 5146TIP3   OH239632   1.984   3.970   7.310 -0.3123 -0.2854 -0.4958
 5146TIP3    H139633   1.918   3.944   7.245 -1.4220  0.2718  0.3583
 5146TIP3    H239634   2.067   3.938   7.275 -0.5320  1.7563 -3.2166
 5147TIP3   OH239635   5.414   0.263   6.974 -0.0943  0.5703  0.1669
 5147TIP3    H139636   5.470   0.230   6.903 -2.3693 -0.7788 -1.1515
 5147TIP3    H239637   5.447   0.220   7.053  0.6073 -0.3429 -0.5959
 5148TIP3   OH239638   0.172   2.265   6.908  0.4021  0.1546  0.3107
 5148TIP3    H139639   0.181   2.344   6.962  3.5327  1.0808 -1.3359
 5148TIP3    H239640   0.091   2.278   6.859  1.0265  2.5642 -0.1887
 5149TIP3   OH239641   4.239   5.055   8.811 -0.5860 -0.3484 -0.0939
 5149TIP3    H139642   4.310   5.078   8.752  0.6092 -1.1656  0.9544
 5149TIP3    H239643   4.181   4.999   8.759  0.6265 -1.3567 -0.4240
 5150TIP3   OH239644   3.073   3.466   9.210  0.2050 -0.2155  0.5399
 5150TIP3    H139645   3.097   3.521   9.285 -0.8289  1.9165 -0.5976
 5150TIP3    H239646   2.980   3.484   9.197  0.1520 -1.2724 -0.6880
 5151TIP3   OH239647   0.631   6.493   6.963  0.2490  0.0265  0.1533
 5151TIP3    H139648   0.604   6.430   6.896 -0.5735  0.5995 -0.0776
 5151TIP3    H239649   0.580   6.572   6.943  0.8741  0.5963  0.7451
 5152TIP3   OH239650   0.317   6.201   8.429 -0.4723 -0.3672  0.0778
 5152TIP3    H139651   0.264   6.269   8.470  0.5729  0.2071  0.5193
 5152TIP3    H239652   0.354   6.152   8.503  0.9721  0.3187 -0.1670
 5153TIP3   OH239653   5.032   6.794   7.236  0.3705 -0.5507  0.5511
 5153TIP3    H139654   5.075   6.866   7.281 -0.3938 -0.0903  0.5701
 5153TIP3    H239655   5.102   6.750   7.188  0.8466  0.2052  0.5362
 5154TIP3   OH239656   0.095   1.675   7.783  0.4989  0.7822  0.0564
 5154TIP3    H139657   0.162   1.736   7.814  1.2531  0.9464 -1.7855
 5154TIP3    H239658   0.144   1.603   7.744 -0.3757  0.9546 -1.4248
 5155TIP3   OH239659   3.201   5.990   8.166 -0.2796  0.1365  0.3159
 5155TIP3    H139660   3.173   5.928   8.099 -0.5332 -0.6827  1.1631
 5155TIP3    H239661   3.237   6.064   8.117  0.8340 -1.0418 -0.7000
 5156TIP3   OH239662   0.051   0.072   8.632  0.1527 -0.7201  0.4667
 5156TIP3    H139663  -0.040   0.073   8.659  0.0838  1.4976  0.3290
 5156TIP3    H239664   0.060  -0.008   8.580 -1.6734 -1.0133  0.5430
 5157TIP3   OH239665   1.767   6.774   8.164 -0.1696  0.2878 -0.2915
 5157TIP3    H139666   1.854   6.806   8.190  0.1687 -0.6829 -0.1734
 5157TIP3    H239667   1.717   6.774   8.245 -0.2306  0.6664 -0.3239
 5158TIP3   OH239668   1.510   5.419   9.354  0.2143  0.2884  0.7489
 5158TIP3    H139669   1.511   5.484   9.425  1.2526 -0.9116  1.9019
 5158TIP3    H239670   1.418   5.398   9.342  0.0153  0.4508  1.8313
 5159TIP3   OH239671   2.872   5.952   8.075 -0.4192  0.0883 -0.2273
 5159TIP3    H139672   2.820   6.015   8.125 -0.2089 -0.7254  1.0625
 5159TIP3    H239673   2.933   6.006   8.024  0.0446  0.9252  1.1721
 5160TIP3   OH239674   0.245   2.494   7.387 -0.1286 -0.3209  0.5274
 5160TIP3    H139675   0.298   2.415   7.380 -1.2195 -1.1735  1.4196
 5160TIP3    H239676   0.194   2.497   7.306  1.4417  0.6740 -0.4747
 5161TIP3   OH239677   3.241   0.074   8.942  0.0604  0.2706  0.1387
 5161TIP3    H139678   3.249   0.121   8.859  1.6756  0.1876  0.2183
 5161TIP3    H239679   3.273  -0.014   8.922  0.2574  0.1898  0.7961
 5162TIP3   OH239680   1.820   5.014   9.047 -0.1871  0.0499  0.3875
 5162TIP3    H139681   1.739   5.066   9.043 -0.4165 -0.1682  1.8066
 5162TIP3    H239682   1.838   5.004   9.140 -0.0644 -2.3053  0.1631
 5163TIP3   OH239683   5.146   3.031   8.435  0.2419 -0.4708  0.0580
 5163TIP3    H139684   5.110   2.967   8.497 -1.7964  0.9296  0.4237
 5163TIP3    H239685   5.147   2.986   8.351  0.4864 -1.5303  0.6193
 5164TIP3   OH239686   1.234   5.599   7.313  0.0102  0.0614 -0.5340
 5164TIP3    H139687   1.189   5.518   7.338 -0.3343  0.4359  0.0710
 5164TIP3    H239688   1.163   5.660   7.292  0.2403  0.5810  0.1888
 5165TIP3   OH239689   7.566   4.558   7.629  0.0095 -0.1472 -0.4692
 5165TIP3    H139690   7.516   4.520   7.702  0.3760 -0.3042 -0.2956
 5165TIP3    H239691   7.557   4.495   7.558  0.4391 -0.4614 -0.2502
 5166TIP3   OH239692   2.187   5.132   9.002 -0.1723 -0.6418  0.0374
 5166TIP3    H139693   2.194   5.227   8.997 -3.3299 -0.2566  0.7825
 5166TIP3    H239694   2.277   5.100   8.993  1.3807  2.5080  2.4498
 5167TIP3   OH239695   2.266   0.130   8.701  0.0777 -0.4617 -0.5537
 5167TIP3    H139696   2.340   0.070   8.701  0.4399 -0.0150 -0.6305
 5167TIP3    H239697   2.195   0.080   8.660  0.2444 -0.9946 -0.2071
 5168TIP3   OH239698   5.422   0.161   8.977 -0.3422  0.3305  0.2155
 5168TIP3    H139699   5.500   0.137   8.926  0.4561  0.5267  1.3015
 5168TIP3    H239700   5.349   0.141   8.919  0.5602  1.7294 -1.5055
 5169TIP3   OH239701   4.537   3.134   9.199  0.1458  0.3730  0.4322
 5169TIP3    H139702   4.602   3.197   9.170  0.8246  0.8484  2.7747
 5169TIP3    H239703   4.534   3.068   9.129  1.7751  1.3031 -0.5654
 5170TIP3   OH239704   2.532   6.080   7.979 -0.0379 -0.2431  0.5420
 5170TIP3    H139705   2.459   6.139   7.999 -0.5826 -0.4174 -0.7842
 5170TIP3    H239706   2.571   6.060   8.064 -0.8244  0.7649  1.1701
 5171TIP3   OH239707   6.487   0.906   7.428  0.1748 -0.0321  0.6246
 5171TIP3    H139708   6.508   0.993   7.394 -0.2514  0.5343  1.7728
 5171TIP3    H239709   6.392   0.899   7.420  0.1405 -0.1483  1.0742
 5172TIP3   OH239710   6.270   1.354   7.249 -0.2848 -0.6149 -1.0489
 5172TIP3    H139711   6.177   1.351   7.227 -0.5448 -0.2478 -0.0417
 5172TIP3    H239712   6.276   1.312   7.334  0.1846  0.9766 -0.2549
 5173TIP3   OH239713   2.586   3.520   7.443 -0.7744 -0.3161  0.6959
 5173TIP3    H139714   2.522   3.563   7.386 -1.6634 -1.0351  1.1365
 5173TIP3    H239715   2.535   3.460   7.497  0.4959 -2.5083 -0.3961
 5174TIP3   OH239716   3.911   5.439   7.082  0.3709 -0.0161  0.1105
 5174TIP3    H139717   3.909   5.373   7.150 -0.7373 -1.4703 -1.2605
 5174TIP3    H239718   3.837   5.417   7.025  2.6050 -0.3577 -2.9149
 5175TIP3   OH239719   5.945   5.636   8.164  0.7663 -0.6153  0.2947
 5175TIP3    H139720   5.876   5.579   8.197 -0.4131  1.3353  1.4340
 5175TIP3    H239721   5.998   5.657   8.241 -0.9840  2.6157  0.8021
 5176TIP3   OH239722   1.783   1.019   8.087 -0.1608 -0.0107 -0.3491
 5176TIP3    H139723   1.760   1.083   8.154 -1.8187  0.5685 -1.3926
 5176TIP3    H239724   1.714   1.028   8.021  0.3330 -1.9052 -1.2050
 5177TIP3   OH239725   1.661   7.629   8.146 -0.2310 -0.2368 -0.1385
 5177TIP3    H139726   1.729   7.696   8.138 -0.8314  0.4857  0.6492
 5177TIP3    H239727   1.629   7.638   8.235 -1.1505 -0.7767 -0.4002
 5178TIP3   OH239728   0.905   6.495   8.947  0.1729  0.4149 -0.0115
 5178TIP3    H139729   0.980   6.525   8.998  1.7607 -1.1462 -1.3091
 5178TIP3    H239730   0.891   6.565   8.883 -0.0879  1.1236  0.7949
 5179TIP3   OH239731   5.568   7.488   8.257  1.2595  0.2532 -0.0447
 5179TIP3    H139732   5.552   7.553   8.325  2.4151 -0.8024  1.2665
 5179TIP3    H239733   5.629   7.426   8.295  0.3406 -1.5405 -1.3202
 5180TIP3   OH239734   6.488   0.599   7.724 -0.6205  0.1332  0.0364
 5180TIP3    H139735   6.405   0.642   7.706 -0.9338 -0.4416  0.1005
 5180TIP3    H239736   6.478   0.563   7.812 -1.0091 -1.5583 -0.6611
 5181TIP3   OH239737   4.931   6.585   7.395 -0.6234 -0.1855  0.1787
 5181TIP3    H139738   4.943   6.671   7.355  2.3772 -0.5549  0.0610
 5181TIP3    H239739   4.928   6.601   7.489 -2.4487  0.1870  0.1042
 5182TIP3   OH239740   0.660   6.593   7.376 -0.0332  0.6573 -0.1187
 5182TIP3    H139741   0.611   6.644   7.441  0.4200 -0.6420  1.3018
 5182TIP3    H239742   0.706   6.527   7.427  0.7091 -0.1395 -1.7416
 5183TIP3   OH239743   7.032   6.531   8.204 -0.1506 -0.0969 -0.0909
 5183TIP3    H139744   7.118   6.572   8.191  0.8758 -1.1516  2.5888
 5183TIP3    H239745   6.969   6.596   8.174  1.5319  1.6591  0.0127
 5184TIP3   OH239746   0.853   3.867   7.601 -0.3630 -0.3405 -0.1453
 5184TIP3    H139747   0.884   3.778   7.616  0.4621 -0.1293 -0.5670
 5184TIP3    H239748   0.817   3.895   7.686  1.2597 -0.3320  0.5681
 5185TIP3   OH239749   0.487   4.735   9.155  0.0673  0.3431  0.3461
 5185TIP3    H139750   0.402   4.703   9.184 -0.0751  0.0390 -0.3929
 5185TIP3    H239751   0.470   4.822   9.120 -0.0700  0.0259 -0.4126
 5186TIP3   OH239752   0.008   2.171   8.512 -0.1224  0.1881  0.4945
 5186TIP3    H139753   0.078   2.232   8.488 -1.1884  0.5828 -1.9141
 5186TIP3    H239754   0.044   2.121   8.586  1.6660  2.1313  1.0339
 5187TIP3   OH239755   3.691   6.630   7.427  0.1406 -0.4791  0.1083
 5187TIP3    H139756   3.780   6.635   7.395 -0.2703  0.7656 -0.9264
 5187TIP3    H239757   3.636   6.629   7.348 -0.8826  2.4909  0.6352
 5188TIP3   OH239758   1.225   0.381   7.287  0.2347 -0.2315  0.5403
 5188TIP3    H139759   1.251   0.421   7.204 -0.7043  1.2985  0.9317
 5188TIP3    H239760   1.300   0.398   7.345  0.6185 -0.7157  0.1905
 5189TIP3   OH239761   6.653   6.137   7.061  1.0233 -0.0901 -0.0109
 5189TIP3    H139762   6.741   6.135   7.023  0.5540  0.7655 -1.2165
 5189TIP3    H239763   6.659   6.198   7.134  1.3585  0.2506 -0.3166
 5190TIP3   OH239764   6.388   1.016   7.926  0.4118 -0.1680 -0.4277
 5190TIP3    H139765   6.308   0.977   7.961 -0.3019 -0.4401 -2.2823
 5190TIP3    H239766   6.359   1.092   7.875  1.2146 -0.7919 -1.8866
 5191TIP3   OH239767   5.081   2.863   9.009 -0.4086 -0.2470 -0.2606
 5191TIP3    H139768   5.051   2.779   8.975 -1.4269 -0.2618  0.6319
 5191TIP3    H239769   5.010   2.893   9.066  0.4055  0.7065  0.2895
 5192TIP3   OH239770   1.693   6.371   9.100  0.3126  0.0747 -0.3340
 5192TIP3    H139771   1.676   6.310   9.028 -0.4674  0.2017 -0.2570
 5192TIP3    H239772   1.615   6.425   9.105  0.6067  0.4509  0.2309
 5193TIP3   OH239773   1.278   6.199   7.523 -0.4423  0.5044 -0.3297
 5193TIP3    H139774   1.246   6.224   7.436 -2.3543 -0.7408 -0.0423
 5193TIP3    H239775   1.200   6.202   7.579  0.7538  1.3361  1.3846
 5194TIP3   OH239776   7.596   7.094   8.851  0.7979  0.2717 -0.5138
 5194TIP3    H139777   7.588   7.014   8.902  0.1265  0.0795 -0.9037
 5194TIP3    H239778   7.534   7.082   8.778  0.3166  1.3515 -0.2934
 5195TIP3   OH239779   0.121   1.302   7.729 -0.1670  0.0925 -0.2074
 5195TIP3    H139780   0.149   1.327   7.641 -2.2902  1.1547 -0.6309
 5195TIP3    H239781   0.028   1.281   7.720 -0.3480 -0.1082  1.7156
 5196TIP3   OH239782   2.119   4.144   9.567  1.0275 -0.0814 -0.2221
 5196TIP3    H139783   2.094   4.130   9.476  0.3833  0.8439 -0.1958
 5196TIP3    H239784   2.137   4.056   9.600  0.8736 -0.4650 -1.1195
 5197TIP3   OH239785   5.783   1.846   7.701 -0.1647  0.0038 -0.4532
 5197TIP3    H139786   5.799   1.924   7.648  1.3263  0.6985  0.9604
 5197TIP3    H239787   5.688   1.835   7.700 -0.2985  1.0997 -1.6738
 5198TIP3   OH239788   5.450   3.025   8.464  0.1128 -0.4227  0.1982
 5198TIP3    H139789   5.473   2.950   8.409 -1.0187  1.2906 -2.8412
 5198TIP3    H239790   5.355   3.032   8.457  0.1809  1.1889  0.5023
 5199TIP3   OH239791   2.448   1.662   9.657 -0.4175 -0.3653 -0.3003
 5199TIP3    H139792   2.497   1.680   9.577 -3.2463  0.4782 -1.9700
 5199TIP3    H239793   2.511   1.617   9.713  1.7033 -0.9919 -2.9485
 5200TIP3   OH239794   3.702   0.539   9.344 -0.3089 -0.7036  0.1958
 5200TIP3    H139795   3.727   0.450   9.319 -1.0825 -0.6354 -0.8744
 5200TIP3    H239796   3.738   0.595   9.276  0.0205 -0.1987  0.7714
 5201TIP3   OH239797   3.636   6.529   8.142  0.0571 -0.2148  0.2037
 5201TIP3    H139798   3.662   6.614   8.176  1.1617 -0.4819  0.0626
 5201TIP3    H239799   3.554   6.546   8.096 -0.5453  0.4653  1.4837
 5202TIP3   OH239800   0.525   3.947   7.731 -0.0239  1.0483  0.5745
 5202TIP3    H139801   0.512   3.961   7.637 -0.1070  0.6012  0.5179
 5202TIP3    H239802   0.579   4.021   7.759  0.8567  0.6452 -0.0244
 5203TIP3   OH239803   5.047   4.858   8.351  0.2566  0.3377  0.5954
 5203TIP3    H139804   4.976   4.917   8.375  0.8049  1.4494 -0.4045
 5203TIP3    H239805   5.014   4.812   8.274  0.1383 -0.0731  0.8905
 5204TIP3   OH239806   2.381   2.444   8.245  0.0506  0.0489  0.6420
 5204TIP3    H139807   2.403   2.491   8.165  0.5615  0.4443  1.0106
 5204TIP3    H239808   2.433   2.486   8.313 -1.3986  0.6224  1.4395
 5205TIP3   OH239809   2.411   0.647   7.629  0.0769 -0.0543  0.1685
 5205TIP3    H139810   2.373   0.560   7.615  1.9876 -0.9342  0.1387
 5205TIP3    H239811   2.467   0.661   7.552 -0.8970  1.6318 -0.2886
 5206TIP3   OH239812   5.163   0.999   9.500 -0.1363 -0.6027  0.0850
 5206TIP3    H139813   5.128   1.010   9.589  0.0081 -1.0479  0.1950
 5206TIP3    H239814   5.115   1.064   9.449 -0.7958 -0.8817  0.3286
 5207TIP3   OH239815   3.043   6.851   8.961  0.2442  0.2458 -0.2837
 5207TIP3    H139816   2.967   6.874   9.015 -0.9517 -1.8011 -1.0058
 5207TIP3    H239817   3.044   6.756   8.960  2.3497  0.2302 -1.0020
 5208TIP3   OH239818   7.295   2.614   7.574  0.2285 -0.2148  0.5046
 5208TIP3    H139819   7.228   2.581   7.633  0.3299  1.2775  1.5008
 5208TIP3    H239820   7.355   2.662   7.630  1.2307 -0.1211 -0.5998
 5209TIP3   OH239821   5.967   4.346   7.519 -0.4503  0.4586 -0.2767
 5209TIP3    H139822   5.999   4.416   7.575  0.3863  1.5352 -2.0151
 5209TIP3    H239823   5.953   4.272   7.578 -0.6589  1.8537  1.4911
 5210TIP3   OH239824   5.626   2.980   7.327  0.1855  0.6709  0.3217
 5210TIP3    H139825   5.683   2.960   7.253 -1.8635  0.9242 -1.4593
 5210TIP3    H239826   5.631   3.076   7.335 -1.5968  0.9741 -1.3575
 5211TIP3   OH239827   0.597   2.170   7.722 -0.0390  0.6182  0.2393
 5211TIP3    H139828   0.561   2.164   7.633  0.3276  1.6851  0.0079
 5211TIP3    H239829   0.595   2.263   7.743  1.0626  0.5206  0.8565
 5212TIP3   OH239830   0.090   1.420   8.198  0.3798  0.7381 -0.5799
 5212TIP3    H139831   0.089   1.325   8.209  0.3904  0.5514 -1.9914
 5212TIP3    H239832   0.034   1.452   8.268  0.5115 -0.2893  0.0257
 5213TIP3   OH239833   1.997   7.656   8.397 -0.1791 -0.2545 -0.3251
 5213TIP3    H139834   2.084   7.684   8.369  0.2394  0.1439  1.2784
 5213TIP3    H239835   2.008   7.563   8.418 -0.2217 -0.2707 -0.3723
 5214TIP3   OH239836   3.557   5.859   8.854 -0.2456  0.7360  0.2205
 5214TIP3    H139837   3.626   5.838   8.792 -0.3656  1.3062 -0.1177
 5214TIP3    H239838   3.559   5.955   8.861  0.6716  0.6275  2.1482
 5215TIP3   OH239839   4.496   6.855   7.695 -0.0562  0.8489  0.4055
 5215TIP3    H139840   4.588   6.881   7.687  0.9260 -1.6260  2.2329
 5215TIP3    H239841   4.500   6.760   7.705 -2.9784  0.4892 -1.0363
 5216TIP3   OH239842   3.590   3.380   7.837  0.4472 -0.3918 -0.0577
 5216TIP3    H139843   3.642   3.302   7.857  1.0601 -0.1256 -0.5993
 5216TIP3    H239844   3.552   3.362   7.751  0.3111 -0.2349 -0.0303
 5217TIP3   OH239845   0.058   5.954   9.499 -0.8292 -0.2861  0.3665
 5217TIP3    H139846   0.109   6.032   9.477 -0.3228 -0.4079  1.0471
 5217TIP3    H239847  -0.033   5.981   9.487 -0.7391  0.8599  1.8761
 5218TIP3   OH239848   3.135   1.208   8.941 -0.1901 -0.0639 -0.7477
 5218TIP3    H139849   3.058   1.153   8.950 -1.8575  2.3742  1.5220
 5218TIP3    H239850   3.208   1.154   8.971 -1.5577 -1.3507  0.3779
 5219TIP3   OH239851   1.260   2.604   7.185  0.5963 -0.6493 -0.0622
 5219TIP3    H139852   1.304   2.568   7.262  1.8290  0.6139 -0.1351
 5219TIP3    H239853   1.167   2.590   7.201  0.9045 -1.3986  1.1387
 5220TIP3   OH239854   3.647   5.865   8.048  0.0644 -0.4920  0.0624
 5220TIP3    H139855   3.585   5.849   7.977  0.4898 -0.1998 -0.3762
 5220TIP3    H239856   3.659   5.779   8.089 -0.8820 -0.4902  0.3634
 5221TIP3   OH239857   7.543   6.850   9.002 -0.1901 -0.2175  0.2735
 5221TIP3    H139858   7.514   6.792   8.931 -0.6774 -0.5607  0.7426
 5221TIP3    H239859   7.577   6.790   9.069  2.0722  0.1806 -0.4271
 5222TIP3   OH239860   0.137   2.841   7.350  0.0753 -0.4284  0.9302
 5222TIP3    H139861   0.147   2.777   7.279  0.0764 -0.4839  0.9801
 5222TIP3    H239862   0.046   2.833   7.378 -1.1238  2.3241 -1.6621
 5223TIP3   OH239863   1.812   4.892   8.226  0.6603 -0.2134  0.4954
 5223TIP3    H139864   1.822   4.825   8.293 -0.5829  0.0670  0.9865
 5223TIP3    H239865   1.794   4.972   8.275  3.0989  0.7287 -0.0285
 5224TIP3   OH239866   0.731   0.283   7.726  0.0079  0.3566  0.6687
 5224TIP3    H139867   0.639   0.265   7.711  0.0333  0.7928 -0.0122
 5224TIP3    H239868   0.775   0.256   7.645  0.6980 -1.3866  1.5553
 5225TIP3   OH239869   6.499   1.819   9.093  0.2032  0.0884 -0.4270
 5225TIP3    H139870   6.521   1.760   9.021  0.8579  1.3564 -1.3040
 5225TIP3    H239871   6.581   1.827   9.143  0.2723  0.6604 -0.6238
 5226TIP3   OH239872   7.560   4.331   8.328  0.6723 -0.6716 -0.3166
 5226TIP3    H139873   7.625   4.320   8.259  0.4507 -0.2209 -0.6022
 5226TIP3    H239874   7.583   4.265   8.394  0.2005 -1.8827 -1.3287
 5227TIP3   OH239875   5.833   7.588   8.522  0.0509  0.4316  0.2796
 5227TIP3    H139876   5.877   7.523   8.466  0.7760  1.5271 -0.4704
 5227TIP3    H239877   5.899   7.610   8.588  0.5805  1.8966 -0.6990
 5228TIP3   OH239878   4.321   0.007   6.909 -0.0792 -0.0832  0.0636
 5228TIP3    H139879   4.226   0.007   6.924 -0.0054  0.9548  0.6415
 5228TIP3    H239880   4.350   0.092   6.941  0.8959  0.0764 -1.1619
 5229TIP3   OH239881   5.336   7.284   8.344 -0.5842  0.3959 -0.6212
 5229TIP3    H139882   5.361   7.362   8.294 -1.4068  1.1785  0.1430
 5229TIP3    H239883   5.361   7.304   8.434 -2.2575  0.4861 -0.1351
 5230TIP3   OH239884   5.319   3.474   9.032  0.5618 -0.1103  0.5188
 5230TIP3    H139885   5.374   3.398   9.052  1.6674  0.0705 -1.6308
 5230TIP3    H239886   5.362   3.517   8.958 -1.9232  0.6396 -0.5965
 5231TIP3   OH239887   0.242   0.179   8.857 -0.3107  0.3115 -0.5437
 5231TIP3    H139888   0.323   0.136   8.829 -0.1335 -0.0051  0.4212
 5231TIP3    H239889   0.175   0.142   8.800 -0.0487 -0.7315 -0.2096
 5232TIP3   OH239890   3.676   1.860   7.200 -0.3433 -0.6146 -0.8269
 5232TIP3    H139891   3.604   1.809   7.162 -2.4426  3.4898 -3.0919
 5232TIP3    H239892   3.747   1.851   7.136 -0.6209 -0.7930 -1.1155
 5233TIP3   OH239893   3.263   2.202   9.129  0.3759 -0.0836  0.3185
 5233TIP3    H139894   3.351   2.208   9.165  0.9114 -1.5189 -0.6829
 5233TIP3    H239895   3.220   2.134   9.181 -0.0513  0.3852  0.5913
 5234TIP3   OH239896   3.174   6.806   7.826 -0.0373  0.0607 -0.1922
 5234TIP3    H139897   3.168   6.816   7.921  0.9348  1.0546 -0.2154
 5234TIP3    H239898   3.131   6.722   7.808  0.3744 -0.4769  1.1931
 5235TIP3   OH239899   1.428   5.323   7.456 -0.3848  0.2442 -0.2710
 5235TIP3    H139900   1.509   5.350   7.413  0.5574  0.2660  1.4254
 5235TIP3    H239901   1.406   5.240   7.413  0.6514  0.1263 -0.6253
 5236TIP3   OH239902   4.119   5.244   6.255 -0.3329 -0.0919 -0.3518
 5236TIP3    H139903   4.089   5.179   6.319  0.1355 -0.6408 -0.6829
 5236TIP3    H239904   4.213   5.230   6.249 -0.1736  0.8550 -0.1715
 5237TIP3   OH239905   0.396   0.726   8.195 -0.4497 -0.3261 -0.6639
 5237TIP3    H139906   0.430   0.788   8.131 -0.2300 -0.1678 -0.3991
 5237TIP3    H239907   0.349   0.780   8.258 -0.6425 -0.4781 -0.6778
 5238TIP3   OH239908   7.084   6.887   7.871  0.3267 -0.2633  0.4843
 5238TIP3    H139909   7.019   6.830   7.912  1.3113 -0.7466  1.4517
 5238TIP3    H239910   7.049   6.976   7.881 -0.9866 -0.6417 -0.5910
 5239TIP3   OH239911   2.644   6.955   6.731  0.0407  0.3266  0.1549
 5239TIP3    H139912   2.703   6.905   6.788  0.1768 -0.0247 -0.2850
 5239TIP3    H239913   2.631   7.038   6.777 -0.0257 -0.0352  0.7981
 5240TIP3   OH239914   0.247   7.327   9.127 -0.5582  0.1056  0.6083
 5240TIP3    H139915   0.167   7.335   9.179 -1.6112  3.4893 -1.2583
 5240TIP3    H239916   0.312   7.380   9.174 -1.5023  3.1424 -1.1937
 5241TIP3   OH239917   7.487   0.127   7.403  0.3523 -0.8666 -0.4442
 5241TIP3    H139918   7.510   0.145   7.494 -0.5139 -0.5066 -0.2881
 5241TIP3    H239919   7.566   0.087   7.366  0.7162 -1.0167  0.4606
 5242TIP3   OH239920   2.071   2.929   7.580  0.2240 -0.1656  0.5326
 5242TIP3    H139921   2.101   2.838   7.577  0.9518  0.0820 -0.0429
 5242TIP3    H239922   2.002   2.934   7.515 -0.3885 -0.4919  1.1386
 5243TIP3   OH239923   2.139   3.474   7.564 -0.5026 -0.2163  0.2666
 5243TIP3    H139924   2.052   3.500   7.596 -1.7965 -0.8007 -2.4569
 5243TIP3    H239925   2.124   3.392   7.517  0.9249  0.9848 -2.5450
 5244TIP3   OH239926   0.295   7.634   7.857  0.3020 -0.5081  0.0099
 5244TIP3    H139927   0.277   7.540   7.857  0.1594 -0.5031 -1.2013
 5244TIP3    H239928   0.279   7.663   7.947  1.3430 -1.8208  0.6436
 5245TIP3   OH239929   2.877   0.166   8.594  0.0790  0.0980  0.3585
 5245TIP3    H139930   2.923   0.135   8.672  1.0922  0.3854 -0.1097
 5245TIP3    H239931   2.918   0.249   8.573 -2.3392  1.6654  1.3661
 5246TIP3   OH239932   3.167   4.613   6.500 -0.2611  0.2128  0.7393
 5246TIP3    H139933   3.126   4.679   6.445 -1.6369  0.9559  2.5239
 5246TIP3    H239934   3.220   4.664   6.562 -0.2002 -0.4574  1.2427
 5247TIP3   OH239935   6.807   7.303   7.531  0.4882  0.0250  0.0884
 5247TIP3    H139936   6.773   7.381   7.576  0.6611 -1.1884  2.4617
 5247TIP3    H239937   6.750   7.293   7.455 -0.6619  1.4704  0.7071
 5248TIP3   OH239938   6.738   0.918   9.533  0.1652  0.0348 -0.5445
 5248TIP3    H139939   6.733   0.828   9.501  2.2482  0.0242 -1.0129
 5248TIP3    H239940   6.771   0.968   9.458 -0.3387  1.0749 -0.0920
 5249TIP3   OH239941   5.584   4.118   9.187  0.6015  0.2848  0.2109
 5249TIP3    H139942   5.622   4.046   9.137 -0.8635  0.0688 -0.6338
 5249TIP3    H239943   5.547   4.076   9.265  0.5756  0.2627  0.1859
 5250TIP3   OH239944   1.184   6.489   9.114 -0.3098 -0.5025  0.2021
 5250TIP3    H139945   1.183   6.517   9.023  1.7030 -0.9823 -0.0281
 5250TIP3    H239946   1.174   6.570   9.164 -0.7042 -0.1457 -0.4444
 5251TIP3   OH239947   5.908   1.907   8.425  0.1898  0.1351 -0.4367
 5251TIP3    H139948   5.925   1.977   8.487 -1.9490  1.0362 -0.7691
 5251TIP3    H239949   5.841   1.942   8.367 -0.6729 -2.0404 -0.8653
 5252TIP3   OH239950   1.694   1.607   8.521 -0.0349  0.1366 -0.9844
 5252TIP3    H139951   1.682   1.696   8.553  0.4950  0.7604 -2.4211
 5252TIP3    H239952   1.613   1.586   8.475 -0.4478 -0.4228 -0.0374
 5253TIP3   OH239953   0.142   5.212   7.302  0.1425 -0.4271 -0.0133
 5253TIP3    H139954   0.174   5.298   7.275 -1.6342  0.3504  0.2402
 5253TIP3    H239955   0.200   5.187   7.375 -0.5705  1.5082  1.2835
 5254TIP3   OH239956   5.299   7.207   9.327  0.4353  0.4983  0.1784
 5254TIP3    H139957   5.280   7.298   9.349  0.3511  0.8062 -1.0445
 5254TIP3    H239958   5.236   7.185   9.258  0.6106 -0.4078  0.2846
 5255TIP3   OH239959   2.430   5.037   7.155  0.5094  0.8127 -0.2890
 5255TIP3    H139960   2.431   5.115   7.100 -0.1870  0.1330 -1.3067
 5255TIP3    H239961   2.470   4.969   7.101 -3.2069 -0.7316 -1.3804
 5256TIP3   OH239962   0.517   6.757   7.515 -0.4291  0.4830  0.4054
 5256TIP3    H139963   0.574   6.810   7.571 -1.0783  0.3229  1.2458
 5256TIP3    H239964   0.497   6.814   7.440 -0.0217  0.9257  0.6280
 5257TIP3   OH239965   7.265   3.159   7.660  0.1004  0.2283  0.3944
 5257TIP3    H139966   7.282   3.168   7.754 -0.6039  0.1408  0.5357
 5257TIP3    H239967   7.224   3.073   7.652  0.8739 -0.1069 -0.1011
 5258TIP3   OH239968   4.317   5.103   9.057 -0.3913 -0.4862 -0.3884
 5258TIP3    H139969   4.234   5.146   9.078  0.4738  0.8791  0.3771
 5258TIP3    H239970   4.308   5.078   8.965 -1.3326  0.4218 -0.5645
 5259TIP3   OH239971   4.119   5.296   6.930 -0.8501 -0.3714 -0.0401
 5259TIP3    H139972   4.059   5.349   6.982 -0.9554 -1.6068  1.1446
 5259TIP3    H239973   4.089   5.206   6.942  0.3250 -0.8729 -0.6536
 5260TIP3   OH239974   6.178   1.737   6.670  0.3594 -0.3035 -0.1337
 5260TIP3    H139975   6.185   1.710   6.762  1.6148 -1.9012 -0.6606
 5260TIP3    H239976   6.220   1.823   6.667 -2.0584  1.0492  1.2314
 5261TIP3   OH239977   6.638   5.304   7.282  0.2354 -0.0496  0.1538
 5261TIP3    H139978   6.598   5.391   7.275 -0.8614 -0.4756  0.7630
 5261TIP3    H239979   6.667   5.283   7.194 -1.7784 -0.1006 -0.5456
 5262TIP3   OH239980   0.853   7.540   9.141 -0.3562  0.3733  0.2089
 5262TIP3    H139981   0.789   7.608   9.120 -3.1709 -1.9231  0.6531
 5262TIP3    H239982   0.845   7.476   9.070 -0.6113 -1.2715  1.6323
 5263TIP3   OH239983   6.396   3.126   7.517  0.1581 -0.3877  0.3634
 5263TIP3    H139984   6.374   3.038   7.487  0.4280 -0.0571 -0.8425
 5263TIP3    H239985   6.363   3.129   7.607 -1.4663 -1.1194 -0.1690
 5264TIP3   OH239986   4.731   7.212   8.524 -0.3598 -0.1054 -0.5757
 5264TIP3    H139987   4.639   7.206   8.546  0.0494  1.6760  2.0372
 5264TIP3    H239988   4.749   7.306   8.521  1.2476 -0.4023 -1.7503
 5265TIP3   OH239989   4.111   2.054   8.502  0.0445 -0.3388  0.4247
 5265TIP3    H139990   4.140   2.004   8.578  1.2202 -0.3229  0.0191
 5265TIP3    H239991   4.184   2.047   8.440  0.0756  1.5446  0.1923
 5266TIP3   OH239992   0.456   3.153   8.517  0.2944  0.1768 -0.6375
 5266TIP3    H139993   0.482   3.229   8.570  0.7215  0.9193 -1.8574
 5266TIP3    H239994   0.528   3.091   8.528 -0.6102 -0.5867  1.3174
 5267TIP3   OH239995   1.804   3.854   8.786  0.5729  0.0890  0.3512
 5267TIP3    H139996   1.829   3.902   8.707  2.1361 -1.4568 -0.1577
 5267TIP3    H239997   1.744   3.913   8.832 -0.5150  0.9590 -2.0408
 5268TIP3   OH239998   1.202   3.126   6.862  0.0323  0.2380  0.7133
 5268TIP3    H139999   1.244   3.137   6.947  0.7480  0.6168  0.3134
 5268TIP3    H240000   1.265   3.160   6.799 -1.0311  1.1801  0.1297
 5269TIP3   OH240001   6.785   4.554   6.698  0.1547  0.5551 -0.2429
 5269TIP3    H140002   6.700   4.547   6.742  0.7846  2.4088  1.3920
 5269TIP3    H240003   6.765   4.595   6.614 -0.9764 -2.4378 -1.5748
 5270TIP3   OH240004   5.649   2.963   8.628  0.1672  1.0349 -0.7218
 5270TIP3    H140005   5.594   2.998   8.558 -0.7451  0.3292 -0.3858
 5270TIP3    H240006   5.671   2.874   8.598  1.0539  1.2808 -0.8103
 5271TIP3   OH240007   0.212   0.629   7.248 -0.0922  0.3670  0.1406
 5271TIP3    H140008   0.139   0.641   7.188 -1.7281 -0.4347  1.8516
 5271TIP3    H240009   0.214   0.535   7.264 -1.0694  0.7205  2.8479
 5272TIP3   OH240010   7.342   2.994   9.327  0.2598 -0.0849  0.0335
 5272TIP3    H140011   7.340   2.997   9.231  1.4159 -0.0305  0.0015
 5272TIP3    H240012   7.354   3.086   9.353 -1.9968  0.1903  0.3263
 5273TIP3   OH240013   3.309   7.094   9.100  0.5868 -0.4117  0.3312
 5273TIP3    H140014   3.221   7.058   9.113 -0.0553  0.8382 -0.3014
 5273TIP3    H240015   3.343   7.046   9.025 -0.2230  0.1783 -0.4435
 5274TIP3   OH240016   7.668   6.407   7.511  0.1319  0.3513  0.0904
 5274TIP3    H140017   7.679   6.497   7.479  0.1963  0.9069  1.5953
 5274TIP3    H240018   7.599   6.413   7.576 -0.0904 -0.7702 -0.0197
 5275TIP3   OH240019   5.406   5.652   7.012 -0.3150 -0.2174 -0.2387
 5275TIP3    H140020   5.349   5.721   6.980  0.1953  0.9202  1.2169
 5275TIP3    H240021   5.492   5.672   6.975 -0.5323 -1.1696 -1.3329
 5276TIP3   OH240022   3.373   4.114   7.688 -0.2155  0.4597 -0.0973
 5276TIP3    H140023   3.467   4.097   7.677  0.2926  0.7556  2.8878
 5276TIP3    H240024   3.340   4.127   7.599  2.3932 -0.5048 -1.2927
 5277TIP3   OH240025   3.979   4.283   8.196  0.1652  0.1335 -0.4735
 5277TIP3    H140026   3.886   4.259   8.189  0.4430 -0.5429 -2.1749
 5277TIP3    H240027   3.978   4.379   8.202 -0.6038  0.3260 -2.6365
 5278TIP3   OH240028   6.767   5.881   7.993  0.4389 -0.0637 -0.2667
 5278TIP3    H140029   6.778   5.789   7.969  3.3915  0.1781 -0.2176
 5278TIP3    H240030   6.698   5.913   7.935 -0.4720 -2.2089 -0.4600
 5279TIP3   OH240031   5.788   7.189   9.342  0.1049 -0.5294 -0.5504
 5279TIP3    H140032   5.742   7.200   9.425  0.8025 -0.3753 -0.1752
 5279TIP3    H240033   5.778   7.096   9.322 -2.1238 -0.1349 -1.5421
 5280TIP3   OH240034   2.615   2.831   8.217  0.4165 -0.5033  0.0722
 5280TIP3    H140035   2.539   2.807   8.162  0.4732 -0.0305 -0.2251
 5280TIP3    H240036   2.583   2.903   8.271  1.1231  0.8881 -1.2767
 5281TIP3   OH240037   5.952   1.114   8.049  0.2857 -0.5942 -0.0433
 5281TIP3    H140038   5.874   1.059   8.043 -0.4789  0.3177  1.0359
 5281TIP3    H240039   5.979   1.129   7.958 -0.9139 -0.7644 -0.4367
 5282TIP3   OH240040   0.979   7.049   7.120  0.2305  0.4717  0.2712
 5282TIP3    H140041   0.915   7.038   7.190  0.4892  1.5401  0.7037
 5282TIP3    H240042   1.062   7.024   7.160  0.4668  1.6282  0.5526
 5283TIP3   OH240043   4.235   3.728   9.231 -0.6505  0.0032  0.3372
 5283TIP3    H140044   4.142   3.738   9.210 -0.6916 -1.8428 -0.6176
 5283TIP3    H240045   4.266   3.662   9.169  1.6494  1.5494 -0.2644
 5284TIP3   OH240046   0.488   6.672   9.632  0.5528  0.5132 -0.5479
 5284TIP3    H140047   0.404   6.708   9.605  0.7739  0.2536 -1.6029
 5284TIP3    H240048   0.471   6.579   9.646  0.8592  0.2690 -1.6921
 5285TIP3   OH240049   3.540   0.660   7.887  0.2467  0.5248  0.1490
 5285TIP3    H140050   3.469   0.607   7.852  0.1250  0.0168  1.1313
 5285TIP3    H240051   3.588   0.600   7.945  1.7132  0.7431 -0.8013
 5286TIP3   OH240052   4.763   6.256   8.755 -0.1167  0.4134 -0.3602
 5286TIP3    H140053   4.786   6.187   8.692 -2.9805  1.1904 -2.5014
 5286TIP3    H240054   4.696   6.215   8.811 -0.0361  0.7260 -0.0351
 5287TIP3   OH240055   3.808   6.912   7.344  0.2932 -0.3592 -0.3601
 5287TIP3    H140056   3.832   6.855   7.416  0.7350  0.2840  0.0091
 5287TIP3    H240057   3.732   6.961   7.376 -1.1596 -1.8778 -1.2665
 5288TIP3   OH240058   0.416   6.444   8.872  0.4294 -0.4816 -0.0960
 5288TIP3    H140059   0.511   6.453   8.883  0.1796 -0.6324  3.4576
 5288TIP3    H240060   0.379   6.511   8.928 -1.5075 -2.4308  1.1295
 5289TIP3   OH240061   5.353   4.390   7.091  0.0650 -0.4607 -0.4930
 5289TIP3    H140062   5.358   4.477   7.052 -1.7690 -1.0812 -2.3193
 5289TIP3    H240063   5.432   4.345   7.058  1.7511  0.8266  1.5589
 5290TIP3   OH240064   3.540   7.067   7.355  0.4424 -0.1289  0.7603
 5290TIP3    H140065   3.574   7.104   7.437 -1.0213 -0.2833  1.4600
 5290TIP3    H240066   3.558   7.135   7.290  1.1053  0.2388  1.3076
 5291TIP3   OH240067   6.887   5.527   7.606 -0.1268  0.3477  0.2056
 5291TIP3    H140068   6.923   5.486   7.527 -0.5894 -0.9706  0.6523
 5291TIP3    H240069   6.792   5.522   7.594 -0.1952  0.2638  0.7862
 5292TIP3   OH240070   7.560   1.201   7.637 -0.2613  0.4264 -0.2369
 5292TIP3    H140071   7.540   1.108   7.622 -0.1775  0.0987  1.5115
 5292TIP3    H240072   7.590   1.233   7.552 -0.0434 -1.2119 -0.8071
 5293TIP3   OH240073   3.484   2.253   9.283 -0.0895 -0.7899  0.4349
 5293TIP3    H140074   3.555   2.220   9.229 -1.0350 -3.0217  0.4674
 5293TIP3    H240075   3.478   2.193   9.357 -1.3276 -0.0368  0.9940
 5294TIP3   OH240076   5.696   5.031   9.202 -0.1922 -0.8813  0.2801
 5294TIP3    H140077   5.751   5.087   9.149 -1.2375  0.1102  0.2034
 5294TIP3    H240078   5.628   5.089   9.237 -1.8392 -2.2194 -0.5130
 5295TIP3   OH240079   5.560   2.035   8.824 -0.2651 -0.2947 -0.3260
 5295TIP3    H140080   5.498   1.976   8.781  0.3124 -1.5794  0.5460
 5295TIP3    H240081   5.605   2.078   8.751  0.2220 -1.9296 -1.0342
 5296TIP3   OH240082   3.696   7.118   9.531 -0.0806  0.1877 -0.3979
 5296TIP3    H140083   3.673   7.162   9.450  2.3603  1.5790 -0.4353
 5296TIP3    H240084   3.616   7.121   9.584 -0.4239  3.7330 -0.8451
 5297TIP3   OH240085   5.591   1.079   8.701 -0.3026  0.1183  0.6299
 5297TIP3    H140086   5.687   1.081   8.702 -0.1854 -1.3201 -0.8851
 5297TIP3    H240087   5.568   1.016   8.769 -0.0707 -0.4318  0.2172
 5298TIP3   OH240088   1.681   1.888   8.807 -0.1831  0.2672 -0.3751
 5298TIP3    H140089   1.718   1.926   8.887 -1.3074 -0.8561  0.7180
 5298TIP3    H240090   1.610   1.948   8.783 -0.2641  0.2608 -0.1560
 5299TIP3   OH240091   7.471   1.598   9.085 -0.1851 -0.3202 -0.5441
 5299TIP3    H140092   7.505   1.578   9.172 -0.3681  0.0927 -0.3738
 5299TIP3    H240093   7.539   1.568   9.025  0.2817  0.0946 -0.2274
 5300TIP3   OH240094   6.109   3.386   7.285  0.1104 -0.4015 -0.1622
 5300TIP3    H140095   6.150   3.472   7.295 -1.0013  0.1885 -0.5232
 5300TIP3    H240096   6.172   3.325   7.323  0.4760  0.6812  1.0391
 5301TIP3   OH240097   1.808   2.010   9.697 -0.0101  0.4820  0.1305
 5301TIP3    H140098   1.849   2.065   9.631  0.1537  0.0816 -0.1066
 5301TIP3    H240099   1.800   2.066   9.775  1.7741  0.3009  0.4673
 5302TIP3   OH240100   0.295   0.521   8.355  0.0546  0.1021 -0.1291
 5302TIP3    H140101   0.354   0.452   8.385 -2.1789 -1.4970  0.8780
 5302TIP3    H240102   0.348   0.574   8.295  2.5689 -0.9744  1.0163
 5303TIP3   OH240103   4.211   6.220   8.317  0.0127  0.6774 -0.4151
 5303TIP3    H140104   4.119   6.215   8.290  0.5557  1.9193 -2.7704
 5303TIP3    H240105   4.223   6.147   8.378 -1.8261 -1.2685 -2.2516
 5304TIP3   OH240106   4.262   4.153   9.244  0.1297 -0.1774  0.1357
 5304TIP3    H140107   4.252   4.243   9.213  1.8919 -0.1480 -0.4941
 5304TIP3    H240108   4.206   4.101   9.187 -1.2579  0.5359  0.7888
 5305TIP3   OH240109   2.368   4.143   7.512  0.2956  0.3430 -0.1534
 5305TIP3    H140110   2.403   4.229   7.488  3.4475  0.1504  2.8572
 5305TIP3    H240111   2.303   4.163   7.580 -0.0397  0.3861 -0.4838
 5306TIP3   OH240112   4.520   5.945   6.319  0.1568  0.5215 -0.3692
 5306TIP3    H140113   4.457   5.907   6.380 -0.1658  0.1808 -0.9052
 5306TIP3    H240114   4.484   6.031   6.298  0.1655  0.5592 -0.2296
 5307TIP3   OH240115   4.826   6.014   7.925 -0.0433 -0.3337  0.4620
 5307TIP3    H140116   4.886   6.002   7.998  1.9418  1.4136 -0.7788
 5307TIP3    H240117   4.780   5.930   7.918  2.8699 -2.1291  0.9693
 5308TIP3   OH240118   1.162   6.493   6.960  0.0428  0.2133  0.1019
 5308TIP3    H140119   1.127   6.512   6.873  0.3273  0.4181  0.0307
 5308TIP3    H240120   1.088   6.506   7.019 -0.4814 -1.1041 -0.2306
 5309TIP3   OH240121   3.527   4.746   7.220 -0.3522  0.1021  0.0507
 5309TIP3    H140122   3.520   4.839   7.241  2.6594  0.7566 -1.2663
 5309TIP3    H240123   3.573   4.744   7.136 -0.9525 -2.5913 -0.3051
 5310TIP3   OH240124   6.123   7.124   7.358  0.2929 -0.1309 -0.1928
 5310TIP3    H140125   6.214   7.155   7.363  0.4173 -0.6294  1.2035
 5310TIP3    H240126   6.130   7.037   7.319  0.6363 -0.8377  1.3371
 5311TIP3   OH240127   4.589   1.619   8.866 -0.3334  0.1137 -0.2933
 5311TIP3    H140128   4.627   1.554   8.806 -0.8079  0.0639 -0.5441
 5311TIP3    H240129   4.601   1.703   8.822 -0.6321  0.0835 -0.4316
 5312TIP3   OH240130   4.784   6.660   7.864 -0.5720 -0.0164  0.2194
 5312TIP3    H140131   4.754   6.673   7.954  0.0271 -0.8668  0.5535
 5312TIP3    H240132   4.759   6.570   7.843  1.4887 -0.6947  0.4347
 5313TIP3   OH240133   6.556   5.621   9.138 -0.0969 -0.4123 -0.5503
 5313TIP3    H140134   6.564   5.660   9.225 -0.9423 -2.5209  0.5358
 5313TIP3    H240135   6.629   5.659   9.089  0.5079  0.7126  1.1072
 5314TIP3   OH240136   1.425   3.849   7.130 -0.0319 -0.1242  0.0038
 5314TIP3    H140137   1.470   3.903   7.064  1.6957 -3.4497 -1.8057
 5314TIP3    H240138   1.468   3.764   7.124 -1.4169 -1.2806  3.9045
 5315TIP3   OH240139   0.327   5.033   8.104  0.1197  0.4892 -0.2888
 5315TIP3    H140140   0.257   5.035   8.039 -0.5112  0.8589  0.3904
 5315TIP3    H240141   0.400   5.079   8.062  0.1159 -0.2669 -1.1646
 5316TIP3   OH240142   5.530   5.396   8.753 -0.0855 -0.0084 -0.7761
 5316TIP3    H140143   5.476   5.318   8.737 -0.0076  0.0227 -1.2097
 5316TIP3    H240144   5.565   5.384   8.841 -1.5612  0.4242 -0.0998
 5317TIP3   OH240145   6.742   1.298   8.236 -0.1200  0.2331  0.4999
 5317TIP3    H140146   6.686   1.376   8.233  1.0307  1.0720  0.0905
 5317TIP3    H240147   6.785   1.296   8.151  0.3975 -0.4646  0.7658
 5318TIP3   OH240148   3.458   2.663   6.372  0.2213 -0.3185 -0.6807
 5318TIP3    H140149   3.420   2.641   6.287 -1.1206 -1.7067  0.2328
 5318TIP3    H240150   3.471   2.758   6.368 -0.1381 -0.3004 -2.2933
 5319TIP3   OH240151   7.048   5.695   8.909 -0.0807  0.0908 -0.0941
 5319TIP3    H140152   7.028   5.759   8.976 -1.0356 -0.0646 -0.2144
 5319TIP3    H240153   7.127   5.728   8.866  0.8603 -0.0836  1.4354
 5320TIP3   OH240154   0.968   5.974   9.405  0.3504 -0.3887  0.3685
 5320TIP3    H140155   1.061   5.984   9.426  0.0715 -0.5786  1.7721
 5320TIP3    H240156   0.947   5.885   9.430  0.0064 -0.6931 -0.9147
 5321TIP3   OH240157   5.482   2.605   8.038 -0.7808 -0.3707  0.1017
 5321TIP3    H140158   5.389   2.601   8.058 -1.3580 -0.5037 -2.3527
 5321TIP3    H240159   5.487   2.649   7.953  1.4810  0.5035  0.6094
 5322TIP3   OH240160   5.446   1.331   9.421  0.2635 -0.1803 -0.3017
 5322TIP3    H140161   5.539   1.351   9.431  0.4651 -0.0137 -2.1339
 5322TIP3    H240162   5.444   1.257   9.360 -0.7899 -0.6285  0.2531
 5323TIP3   OH240163   2.233   3.989   6.874  0.0229  0.2038  0.3544
 5323TIP3    H140164   2.194   4.042   6.943 -0.2696 -0.0779  0.4051
 5323TIP3    H240165   2.326   4.013   6.875  0.0133  0.2320  0.8140
 5324TIP3   OH240166   0.317   2.502   8.534  0.3780  0.1520  0.0681
 5324TIP3    H140167   0.233   2.537   8.503 -0.5376 -1.0634  1.0780
 5324TIP3    H240168   0.332   2.546   8.618  0.2403 -0.3724  0.3693
 5325TIP3   OH240169   5.047   0.311   7.475 -0.1332  0.0823 -0.1351
 5325TIP3    H140170   5.073   0.331   7.565  0.9330  1.6269 -0.7434
 5325TIP3    H240171   4.955   0.334   7.470 -0.2831 -0.3208  0.6317
 5326TIP3   OH240172   0.026   4.904   7.005  0.8849 -0.0424 -0.2260
 5326TIP3    H140173   0.096   4.862   6.956  0.1442 -0.3395 -1.0566
 5326TIP3    H240174  -0.006   4.974   6.947 -0.3465 -0.7307 -0.4264
 5327TIP3   OH240175   4.081   3.431   7.770  0.2401  0.6435 -0.2467
 5327TIP3    H140176   4.046   3.490   7.837 -0.8425 -0.5727  0.2958
 5327TIP3    H240177   4.005   3.384   7.737  1.0848 -0.5617 -0.5518
 5328TIP3   OH240178   3.489   0.475   8.272  0.7387  0.0589 -0.2560
 5328TIP3    H140179   3.555   0.517   8.217  1.6961 -0.7063  0.2779
 5328TIP3    H240180   3.450   0.408   8.216  2.3310 -1.3323  0.1860
 5329TIP3   OH240181   7.005   3.948   7.612 -0.0126 -0.0045 -0.3928
 5329TIP3    H140182   6.920   3.969   7.653 -0.5568  2.1396 -2.3825
 5329TIP3    H240183   7.069   3.968   7.680 -1.0113  0.4828  0.4448
 5330TIP3   OH240184   3.802   5.570   7.908 -0.1062 -0.0256  0.3485
 5330TIP3    H140185   3.781   5.592   7.999  0.1575  2.9347 -0.2110
 5330TIP3    H240186   3.896   5.555   7.908 -0.1497 -0.3148  0.5966
 5331TIP3   OH240187   1.829   4.330   9.515 -0.0689 -0.9385 -0.0272
 5331TIP3    H140188   1.899   4.385   9.549 -0.1780 -0.0853 -1.1188
 5331TIP3    H240189   1.765   4.326   9.586  0.2676 -0.2329  0.3237
 5332TIP3   OH240190   4.172   7.351   7.678  0.3744  0.2264 -0.2924
 5332TIP3    H140191   4.164   7.297   7.757  1.8883 -0.2628 -0.4356
 5332TIP3    H240192   4.105   7.418   7.688  2.0425  1.6844  2.6501
 5333TIP3   OH240193   7.119   6.562   7.603  0.1217 -0.1262 -0.1282
 5333TIP3    H140194   7.150   6.533   7.517  0.0153 -0.8894  0.0778
 5333TIP3    H240195   7.071   6.487   7.637  1.3084 -0.3407  1.1729
 5334TIP3   OH240196   0.880   7.375   7.338 -0.2687 -0.0107  0.3006
 5334TIP3    H140197   0.789   7.402   7.325 -0.3471  1.0894  2.6643
 5334TIP3    H240198   0.932   7.443   7.296 -0.5054 -0.4669 -0.7611
 5335TIP3   OH240199   0.950   6.794   9.582 -0.3716  0.5632  0.1095
 5335TIP3    H140200   0.954   6.883   9.548 -1.7556  0.2189 -1.0018
 5335TIP3    H240201   1.042   6.770   9.594  0.2400  0.7824 -3.2238
 5336TIP3   OH240202   3.501   5.881   8.288  0.1834 -0.0802  0.3488
 5336TIP3    H140203   3.463   5.796   8.313  2.1193 -1.1738 -0.1899
 5336TIP3    H240204   3.523   5.871   8.196 -1.1057  1.6700 -0.2058
 5337TIP3   OH240205   7.118   7.108   8.476 -0.0575  0.4974 -0.1678
 5337TIP3    H140206   7.210   7.084   8.464 -0.1154  0.8030 -1.3286
 5337TIP3    H240207   7.087   7.128   8.388 -1.5724 -0.7715  0.0348
 5338TIP3   OH240208   2.758   3.101   8.064  0.6059 -0.0547 -0.0065
 5338TIP3    H140209   2.748   3.021   8.115  2.7397 -0.4578 -0.1419
 5338TIP3    H240210   2.717   3.081   7.979 -1.3251  0.0000  0.8538
 5339TIP3   OH240211   3.294   2.311   8.139 -0.9184 -0.9883 -0.3822
 5339TIP3    H140212   3.255   2.365   8.069 -0.0507 -0.1555 -0.2420
 5339TIP3    H240213   3.249   2.341   8.218 -1.0443 -1.0762 -0.4202
 5340TIP3   OH240214   4.577   3.852   8.506  0.8151  0.2887 -0.2095
 5340TIP3    H140215   4.654   3.891   8.546  0.2777  1.7019 -0.4973
 5340TIP3    H240216   4.581   3.878   8.414  0.0624  0.2758 -0.2555
 5341TIP3   OH240217   5.007   5.096   8.138  0.2034 -0.1378  0.0795
 5341TIP3    H140218   4.978   5.028   8.199 -1.0928  0.4223  0.1201
 5341TIP3    H240219   5.067   5.051   8.079  0.1735 -1.0775  0.7371
 5342TIP3   OH240220   4.060   2.293   8.648  0.5218 -0.7053  0.1776
 5342TIP3    H140221   4.151   2.293   8.680  0.6891 -0.6307 -0.2876
 5342TIP3    H240222   4.049   2.208   8.606 -0.2946 -1.5736  2.0604
 5343TIP3   OH240223   6.672   3.756   7.576  0.4361  0.4228 -0.2865
 5343TIP3    H140224   6.733   3.683   7.583  0.4443  0.4797  0.2480
 5343TIP3    H240225   6.711   3.826   7.628 -0.2370  0.3523  0.3277
 5344TIP3   OH240226   4.723   0.771   9.267  0.7117 -0.4667  0.3248
 5344TIP3    H140227   4.705   0.730   9.183  0.4163 -0.3949  0.3506
 5344TIP3    H240228   4.723   0.699   9.330 -1.7345 -0.2450  0.6713
 5345TIP3   OH240229   0.735   6.758   7.165  0.3885 -0.3606  0.7259
 5345TIP3    H140230   0.740   6.845   7.205 -1.2029  0.6400 -1.0922
 5345TIP3    H240231   0.699   6.703   7.234  0.4312  0.6445  1.5893
 5346TIP3   OH240232   6.509   7.113   9.562 -0.2535  0.4995  0.1478
 5346TIP3    H140233   6.431   7.163   9.539 -1.1124 -0.8643 -0.0142
 5346TIP3    H240234   6.540   7.077   9.479  0.8642  1.4534  0.1372
 5347TIP3   OH240235   0.870   6.877   8.523 -0.4018 -0.0967 -0.0106
 5347TIP3    H140236   0.931   6.804   8.511  0.8242  0.8267  0.3992
 5347TIP3    H240237   0.909   6.929   8.594 -3.1133 -0.9490  2.2651
 5348TIP3   OH240238   6.218   1.148   9.060  0.3400  0.7718 -0.5508
 5348TIP3    H140239   6.267   1.161   8.979 -1.6600  0.8832 -1.7879
 5348TIP3    H240240   6.264   1.202   9.124  1.2370  1.6821 -1.9004
 5349TIP3   OH240241   3.070   5.359   7.966 -0.0303 -0.0248 -0.5198
 5349TIP3    H140242   2.989   5.406   7.946  0.7309  0.5866 -2.3824
 5349TIP3    H240243   3.053   5.269   7.938 -0.9608 -0.5688  1.6263
 5350TIP3   OH240244   0.851   0.557   8.678 -0.3913  0.4439 -0.2879
 5350TIP3    H140245   0.790   0.587   8.610  0.3174  2.1321 -0.2163
 5350TIP3    H240246   0.855   0.629   8.741 -0.5978 -0.8711  1.2769
 5351TIP3   OH240247   5.424   2.291   8.149 -0.0078 -0.1746  0.6475
 5351TIP3    H140248   5.484   2.266   8.078  0.0505  0.5875  0.4178
 5351TIP3    H240249   5.368   2.359   8.110  0.3252  0.5865  1.4559
 5352TIP3   OH240250   4.798   7.391   9.972  0.7447  0.1393 -0.1757
 5352TIP3    H140251   4.894   7.398   9.973  0.7788  0.4567  2.6432
 5352TIP3    H240252   4.777   7.340  10.051 -1.4764  1.3854  0.1135
 5353TIP3   OH240253   3.701   4.333   8.665  0.2759 -0.0332 -0.0029
 5353TIP3    H140254   3.650   4.402   8.707  0.1900 -0.7135  1.0544
 5353TIP3    H240255   3.690   4.257   8.722  0.1001 -1.0280 -1.3178
 5354TIP3   OH240256   6.926   2.610   7.955  0.7399 -0.3906 -0.8176
 5354TIP3    H140257   6.992   2.610   8.024  0.1732 -0.4987 -0.2702
 5354TIP3    H240258   6.880   2.693   7.966 -0.0383 -0.8681 -0.3947
 5355TIP3   OH240259   4.534   1.463   9.117  0.7656  0.0404  0.1424
 5355TIP3    H140260   4.515   1.410   9.040 -0.5265  0.2615  0.2851
 5355TIP3    H240261   4.547   1.552   9.083 -2.5669  0.7389  0.3362
 5356TIP3   OH240262   5.463   0.166   9.652 -0.3018  0.0799 -0.3222
 5356TIP3    H140263   5.415   0.236   9.697  0.4771  0.3141  0.1649
 5356TIP3    H240264   5.536   0.145   9.711  0.3975 -0.0159 -1.2008
 5357TIP3   OH240265   3.990   2.981   8.807 -0.6329  0.8430  0.2090
 5357TIP3    H140266   3.917   2.932   8.844 -1.8266  1.3982 -1.2773
 5357TIP3    H240267   3.962   3.072   8.812 -0.1608  1.0415 -0.6277
 5358TIP3   OH240268   0.351   5.935   7.453 -0.5128 -0.2199 -0.7362
 5358TIP3    H140269   0.323   5.891   7.373  2.3673  1.6016 -2.9514
 5358TIP3    H240270   0.328   6.027   7.438  1.5280  0.4097 -0.2369
 5359TIP3   OH240271   2.552   1.475   7.902 -0.0294  0.2582 -0.2324
 5359TIP3    H140272   2.512   1.541   7.958  1.2305  0.2873  0.6760
 5359TIP3    H240273   2.486   1.457   7.835 -0.8459  1.5707  0.1844
 5360TIP3   OH240274   1.858   5.273   7.322  0.0570 -0.6468  0.8485
 5360TIP3    H140275   1.863   5.276   7.227 -0.3981 -2.2842  0.7433
 5360TIP3    H240276   1.904   5.352   7.351  0.8438 -0.4963 -0.7011
 5361TIP3   OH240277   3.423   0.088   8.512  0.0423  0.2258  0.0417
 5361TIP3    H140278   3.497   0.094   8.453 -0.7386  2.8179 -0.8251
 5361TIP3    H240279   3.460   0.104   8.599  0.6262  0.6163 -0.2723
 5362TIP3   OH240280   3.544   2.330   8.454  0.3313 -0.0162 -0.5898
 5362TIP3    H140281   3.549   2.423   8.433 -0.4970  0.0110 -0.7026
 5362TIP3    H240282   3.461   2.320   8.500  0.2408 -0.7585 -0.8909
 5363TIP3   OH240283   5.886   4.194   8.723  0.3453  0.3458  0.5424
 5363TIP3    H140284   5.946   4.269   8.724 -0.5820  1.0983  0.5316
 5363TIP3    H240285   5.881   4.169   8.631  1.3370 -0.3142  0.6426
 5364TIP3   OH240286   0.437   2.038   7.902  0.0466  0.7005  0.3326
 5364TIP3    H140287   0.391   2.120   7.920 -2.1148 -0.6045  1.2015
 5364TIP3    H240288   0.499   2.060   7.833 -2.4334  2.4776 -1.5248
 5365TIP3   OH240289   6.167   6.752   8.196  0.6897  0.2879  0.5730
 5365TIP3    H140290   6.187   6.727   8.286  0.3228 -2.4087 -0.0280
 5365TIP3    H240291   6.193   6.677   8.143  0.8144  1.7649 -1.6103
 5366TIP3   OH240292   1.861   4.753   7.511 -0.1985 -0.2265 -0.2784
 5366TIP3    H140293   1.798   4.759   7.582 -1.1947 -1.2814 -1.0402
 5366TIP3    H240294   1.943   4.728   7.553 -0.7501 -0.7235  0.5231
 5367TIP3   OH240295   4.301   2.891   8.289 -0.1957  0.3518 -0.3536
 5367TIP3    H140296   4.220   2.853   8.255  0.8125 -0.9387 -1.4143
 5367TIP3    H240297   4.315   2.969   8.236 -0.8078  0.6781 -0.0529
 5368TIP3   OH240298   5.239   3.446   7.940 -0.3354 -0.0693 -0.0114
 5368TIP3    H140299   5.288   3.510   7.890 -1.6977  0.7740 -0.3086
 5368TIP3    H240300   5.152   3.485   7.953 -0.3660 -0.6750  2.1354
 5369TIP3   OH240301   3.090   5.078   8.226  0.3196 -0.3662  0.6269
 5369TIP3    H140302   3.009   5.034   8.200  0.2225 -0.6397  1.3619
 5369TIP3    H240303   3.071   5.171   8.213 -0.0562 -0.4377  0.6268
 5370TIP3   OH240304   5.127   1.408   7.664 -0.2251 -0.3473  0.7012
 5370TIP3    H140305   5.166   1.404   7.576  1.6371  0.7056  1.4342
 5370TIP3    H240306   5.065   1.480   7.659  0.2597  0.0613  0.3672
 5371TIP3   OH240307   7.567   1.339   7.400  0.3995 -0.0752  0.2087
 5371TIP3    H140308   7.521   1.340   7.316 -1.8951 -0.0379  1.3816
 5371TIP3    H240309   7.634   1.407   7.391 -0.4443  0.6129 -1.2611
 5372TIP3   OH240310   2.652   0.689   8.580 -0.3841  0.0938 -0.3299
 5372TIP3    H140311   2.719   0.652   8.522 -0.7490  0.5336 -1.0386
 5372TIP3    H240312   2.580   0.713   8.522 -2.2685 -2.6543  0.6417
 5373TIP3   OH240313   4.100   5.869   7.312 -0.0518 -0.2391 -0.4360
 5373TIP3    H140314   4.117   5.903   7.400 -1.2144  0.6215 -0.5285
 5373TIP3    H240315   4.064   5.943   7.264 -0.1680 -0.9141 -1.4184
 5374TIP3   OH240316   4.450   2.928   7.594 -0.4260  0.4855 -0.0541
 5374TIP3    H140317   4.460   2.884   7.509 -1.4778  0.8270 -0.3701
 5374TIP3    H240318   4.540   2.950   7.620  0.1183 -1.6031  0.0028
 5375TIP3   OH240319   1.955   4.429   7.973 -0.0998  0.3811  0.1250
 5375TIP3    H140320   1.875   4.470   8.003 -0.8970 -1.5831  0.8483
 5375TIP3    H240321   2.018   4.443   8.043 -0.8040 -0.8345  1.0335
 5376TIP3   OH240322   3.720   2.829   8.374 -0.3050 -0.1320 -0.3140
 5376TIP3    H140323   3.740   2.735   8.377  0.2820  0.0128  0.8668
 5376TIP3    H240324   3.805   2.872   8.378 -0.6497  0.4720  2.5344
 5377TIP3   OH240325   6.752   2.881   8.534  0.4678 -0.4733  0.4098
 5377TIP3    H140326   6.824   2.827   8.566  0.5434 -0.7185 -0.1626
 5377TIP3    H240327   6.772   2.896   8.441 -0.1466 -0.4406  0.2733
 5378TIP3   OH240328   6.690   0.006   8.690 -0.2832 -0.1863 -0.1921
 5378TIP3    H140329   6.655  -0.079   8.662 -0.3454 -0.9094  1.9224
 5378TIP3    H240330   6.784  -0.001   8.673 -0.6479  0.6039 -3.0212
 5379TIP3   OH240331   6.719   5.585   8.219  0.5390 -0.2499  0.4506
 5379TIP3    H140332   6.810   5.596   8.245  1.2867 -4.0939 -0.0439
 5379TIP3    H240333   6.685   5.516   8.276 -2.4628  1.7016  1.2983
 5380TIP3   OH240334   4.037   6.469   8.007 -0.3296  0.1137  0.7892
 5380TIP3    H140335   4.023   6.552   8.052 -1.3754  0.5395 -0.2757
 5380TIP3    H240336   4.132   6.456   8.008 -0.2075  0.9736  1.5469
 5381TIP3   OH240337   1.995   2.143   8.337 -0.1549 -0.2014 -0.7508
 5381TIP3    H140338   2.014   2.162   8.246 -2.1681  4.5988 -0.4447
 5381TIP3    H240339   1.911   2.096   8.335  0.9687 -2.2884 -1.3314
 5382TIP3   OH240340   0.247   4.094   7.847 -0.2731  0.5264  0.0648
 5382TIP3    H140341   0.174   4.036   7.825 -0.3242  0.5878  0.0752
 5382TIP3    H240342   0.324   4.048   7.814 -0.3097  0.4322  0.1076
 5383TIP3   OH240343   5.005   6.403   8.766  0.6580  0.1447  0.0232
 5383TIP3    H140344   5.077   6.403   8.702  1.0903 -0.5413  0.4947
 5383TIP3    H240345   4.931   6.364   8.720  0.4733  1.1439 -0.5705
 5384TIP3   OH240346   4.037   4.846   7.548  0.0503 -0.5414  0.3847
 5384TIP3    H140347   3.964   4.884   7.598  0.5192 -0.9393  1.3850
 5384TIP3    H240348   3.996   4.814   7.468 -1.1960 -2.1877  1.6071
 5385TIP3   OH240349   7.503   6.397   8.589  0.0895  0.0123  0.8735
 5385TIP3    H140350   7.450   6.392   8.510  1.8141  0.8610 -0.4027
 5385TIP3    H240351   7.580   6.344   8.570 -0.3643 -1.4356  2.7954
 5386TIP3   OH240352   2.308   6.583   7.245  0.4847  0.3248 -0.6030
 5386TIP3    H140353   2.368   6.653   7.270 -0.3788  0.8789 -0.0271
 5386TIP3    H240354   2.359   6.502   7.254  0.4353  0.5179  2.4200
 5387TIP3   OH240355   4.796   5.091   9.018 -0.3067  0.2610  0.1787
 5387TIP3    H140356   4.716   5.048   9.048  1.2697 -1.8279  1.7057
 5387TIP3    H240357   4.866   5.049   9.069  1.8571  1.4277 -1.6648
 5388TIP3   OH240358   7.656   3.505   8.568 -0.3558 -0.2320 -0.1482
 5388TIP3    H140359   7.661   3.576   8.633  1.1495 -2.0109  1.8272
 5388TIP3    H240360   7.580   3.527   8.514 -0.8315  2.0859  1.3284
 5389TIP3   OH240361   2.665   1.837   7.496  0.3617 -0.0439 -0.0315
 5389TIP3    H140362   2.738   1.777   7.508  0.1364 -0.2644  0.2590
 5389TIP3    H240363   2.702   1.910   7.447  0.4371 -0.8143 -1.1645
 5390TIP3   OH240364   3.493   3.854   8.128  0.3929  0.4809 -0.1104
 5390TIP3    H140365   3.400   3.865   8.149  0.1854  0.6658 -1.0664
 5390TIP3    H240366   3.505   3.760   8.119 -0.0161  0.5322 -1.3020
 5391TIP3   OH240367   6.434   4.153   2.262 -0.0010  0.1214 -0.0697
 5391TIP3    H140368   6.521   4.145   2.302 -1.4623 -0.3653  3.3743
 5391TIP3    H240369   6.402   4.063   2.257 -0.4227  0.3151 -1.0697
 5392TIP3   OH240370   2.207   0.592   2.536  0.3156 -0.0222 -0.3415
 5392TIP3    H140371   2.134   0.649   2.511  1.0207  0.0795 -2.3795
 5392TIP3    H240372   2.171   0.536   2.604 -1.7933 -0.1746 -1.4913
 5393TIP3   OH240373   7.632   6.313   1.566 -0.4636  0.3045 -0.2470
 5393TIP3    H140374   7.635   6.235   1.621 -0.0923 -0.3205 -1.1292
 5393TIP3    H240375   7.704   6.368   1.598  0.9206 -0.8567 -1.2344
 5394TIP3   OH240376   3.702   5.800   2.392 -0.1889 -0.5013 -0.3349
 5394TIP3    H140377   3.658   5.885   2.402 -0.9697 -0.9217 -0.0500
 5394TIP3    H240378   3.715   5.791   2.298  0.4556  0.2031 -0.3207
 5395TIP3   OH240379   6.606   1.466   0.771 -0.2363  0.4553 -0.0124
 5395TIP3    H140380   6.628   1.550   0.731 -0.8891  1.4666  1.6310
 5395TIP3    H240381   6.531   1.434   0.721  1.0924 -0.0819 -1.7898
 5396TIP3   OH240382   4.232   5.476   0.879 -0.8332 -0.1537  0.1423
 5396TIP3    H140383   4.151   5.523   0.899 -0.1732  0.3917  1.7392
 5396TIP3    H240384   4.255   5.504   0.791 -1.2465  1.4267  0.5031
 5397TIP3   OH240385   6.486   5.337   2.619  0.0872 -0.1916  0.3889
 5397TIP3    H140386   6.394   5.322   2.598  0.2641  0.6118 -1.0952
 5397TIP3    H240387   6.485   5.369   2.709 -0.9931 -1.0645  0.7135
 5398TIP3   OH240388   5.409   7.303   2.011 -0.3555 -0.0436  0.2809
 5398TIP3    H140389   5.503   7.322   2.018 -0.1935 -0.0467 -1.4522
 5398TIP3    H240390   5.401   7.254   1.929 -1.9845  0.8164 -0.1071
 5399TIP3   OH240391   5.301   5.022   3.269 -0.3876  0.0594 -0.1471
 5399TIP3    H140392   5.303   5.107   3.312 -2.4220 -0.8928  2.0677
 5399TIP3    H240393   5.208   5.006   3.250  0.1746 -0.7429 -2.5855
 5400TIP3   OH240394   2.330   7.371   0.560  0.1571 -0.1090  0.1094
 5400TIP3    H140395   2.284   7.362   0.476  0.5547 -2.2048  0.0706
 5400TIP3    H240396   2.290   7.448   0.601 -0.5395  0.5318 -1.6821
 5401TIP3   OH240397   7.001   2.910   1.352  0.0476  0.7428  0.0288
 5401TIP3    H140398   7.075   2.968   1.368  0.2384  0.6417 -0.4745
 5401TIP3    H240399   6.984   2.919   1.258  0.2321 -0.2011 -0.0976
 5402TIP3   OH240400   4.375   5.456   3.044 -0.4771 -0.7337  0.1349
 5402TIP3    H140401   4.376   5.371   3.087  0.5346  0.3000  2.3237
 5402TIP3    H240402   4.282   5.477   3.036 -0.7231 -0.9068  2.0647
 5403TIP3   OH240403   7.422   6.878   1.086 -0.0990  0.3891 -0.4888
 5403TIP3    H140404   7.367   6.841   1.017 -0.4064 -2.1829  1.0069
 5403TIP3    H240405   7.363   6.890   1.160  0.5671  1.5119 -0.1180
 5404TIP3   OH240406   1.113   0.513   2.792 -0.0278 -0.7076 -0.0083
 5404TIP3    H140407   1.062   0.469   2.860  1.4307  0.4349  1.9492
 5404TIP3    H240408   1.204   0.496   2.817  0.5595  1.6008 -0.3742
 5405TIP3   OH240409   5.065   5.274   1.802  0.4225  0.5634  0.5438
 5405TIP3    H140410   5.130   5.340   1.777  0.5529  0.1927 -0.1233
 5405TIP3    H240411   5.101   5.233   1.880 -0.0639  1.8489  1.5007
 5406TIP3   OH240412   4.864   3.951   1.230  0.3159 -0.4068 -0.0794
 5406TIP3    H140413   4.809   3.948   1.308 -0.0681 -1.1546 -0.3720
 5406TIP3    H240414   4.947   3.987   1.260 -0.0915  0.0588  0.5116
 5407TIP3   OH240415   4.847   2.535   3.214  0.5937 -0.1901 -0.2181
 5407TIP3    H140416   4.789   2.611   3.212 -1.4975 -1.7081 -1.5170
 5407TIP3    H240417   4.894   2.538   3.130  0.5084 -0.3290 -0.2709
 5408TIP3   OH240418   7.429   5.162   2.146  0.2040 -0.4805  0.2486
 5408TIP3    H140419   7.509   5.135   2.191 -0.7901  0.0398  2.4516
 5408TIP3    H240420   7.410   5.249   2.181 -0.7062 -0.0846 -1.1321
 5409TIP3   OH240421   3.145   1.064   1.599 -0.1984 -0.2983 -0.4178
 5409TIP3    H140422   3.236   1.096   1.602  0.1754 -1.3802  0.5016
 5409TIP3    H240423   3.153   0.970   1.614 -1.5040 -0.3555 -0.0161
 5410TIP3   OH240424   2.849   2.046   1.732 -0.2635 -0.2895  0.4562
 5410TIP3    H140425   2.761   2.009   1.723 -1.1432  1.9298 -0.8237
 5410TIP3    H240426   2.908   1.973   1.712 -1.8772 -1.3411 -0.6768
 5411TIP3   OH240427   1.298   4.881   2.784 -0.7377  0.1180  0.4611
 5411TIP3    H140428   1.357   4.954   2.767  0.7138 -1.0731  0.1684
 5411TIP3    H240429   1.279   4.844   2.698 -0.2200 -0.7815  0.7295
 5412TIP3   OH240430   5.139   7.323   1.139 -0.1136  0.2170  0.1440
 5412TIP3    H140431   5.227   7.343   1.172  0.6090 -2.1179 -0.2114
 5412TIP3    H240432   5.125   7.231   1.161 -1.4888 -0.1355 -1.9423
 5413TIP3   OH240433   1.717   2.624   1.838 -0.1300  0.4838  0.4134
 5413TIP3    H140434   1.687   2.708   1.803 -3.8916 -1.0075 -0.5036
 5413TIP3    H240435   1.735   2.641   1.930 -0.5523  2.3374  0.1946
 5414TIP3   OH240436   1.660   6.526   3.432  0.1934  0.9317 -0.2869
 5414TIP3    H140437   1.650   6.621   3.427  0.5360  1.0106  0.4404
 5414TIP3    H240438   1.610   6.493   3.357  1.2384  1.7499 -1.3811
 5415TIP3   OH240439   5.507   4.167   1.965  0.0671  0.1985 -0.1143
 5415TIP3    H140440   5.473   4.245   2.010 -1.7685 -0.5275 -0.1287
 5415TIP3    H240441   5.498   4.188   1.872  1.5447  0.7461 -0.1560
 5416TIP3   OH240442   1.508   0.189   1.609  0.0932  0.3017  0.1608
 5416TIP3    H140443   1.443   0.259   1.599  0.2627  0.1791 -2.7398
 5416TIP3    H240444   1.457   0.109   1.605  0.1381  0.2354  0.9265
 5417TIP3   OH240445   2.657   6.448   2.358  0.4466 -0.4387 -0.1933
 5417TIP3    H140446   2.641   6.363   2.398 -0.6759 -0.7747 -1.2823
 5417TIP3    H240447   2.737   6.436   2.308  0.5151 -0.7359 -0.0163
 5418TIP3   OH240448   4.649   3.461   0.524 -0.1625  0.7926 -0.6537
 5418TIP3    H140449   4.579   3.524   0.510 -1.2994  0.1109  1.5463
 5418TIP3    H240450   4.627   3.417   0.606  1.2699 -1.5616 -1.4015
 5419TIP3   OH240451   6.002   0.344   2.738  0.8786 -0.1549  0.4409
 5419TIP3    H140452   6.071   0.278   2.731 -0.9616 -2.1410  0.1019
 5419TIP3    H240453   5.970   0.356   2.649 -0.0268 -0.1532  0.7594
 5420TIP3   OH240454   6.915   5.350   2.072 -0.0705 -0.4040 -0.3610
 5420TIP3    H140455   6.921   5.419   2.138  2.8813 -0.3533 -0.5509
 5420TIP3    H240456   6.863   5.281   2.114  1.1363 -0.0904  1.7722
 5421TIP3   OH240457   5.292   4.590   2.774 -0.1435  0.1723  0.8949
 5421TIP3    H140458   5.387   4.594   2.771 -0.1535  0.3427  0.7828
 5421TIP3    H240459   5.271   4.497   2.769 -0.0492  0.2200 -1.0985
 5422TIP3   OH240460   4.601   0.191   0.843 -0.2767  0.0145 -0.1225
 5422TIP3    H140461   4.689   0.158   0.824 -1.4723 -3.0188 -0.8967
 5422TIP3    H240462   4.588   0.171   0.936 -1.1345 -2.2812 -0.6732
 5423TIP3   OH240463   4.863   1.849   1.162  0.7529  0.1910  0.2387
 5423TIP3    H140464   4.938   1.825   1.216  1.3187 -1.3260 -1.1269
 5423TIP3    H240465   4.826   1.765   1.134 -0.2948  0.9255 -0.6605
 5424TIP3   OH240466   6.905   0.126   1.419  0.1310  0.4473 -0.3161
 5424TIP3    H140467   6.842   0.197   1.430 -0.1552  0.3732 -1.3735
 5424TIP3    H240468   6.971   0.161   1.360  0.0285 -0.1235 -0.7891
 5425TIP3   OH240469   5.948   5.153   0.942  0.2390 -0.5503 -0.2003
 5425TIP3    H140470   5.932   5.118   1.030  2.8598 -0.2563  0.4788
 5425TIP3    H240471   5.890   5.102   0.885 -1.0695 -1.1826  1.5974
 5426TIP3   OH240472   5.951   7.565   1.851 -0.0713 -0.6336 -0.0130
 5426TIP3    H140473   5.987   7.492   1.901  0.1433 -0.7925 -0.3976
 5426TIP3    H240474   5.925   7.527   1.767 -1.5328 -0.6055  0.4105
 5427TIP3   OH240475   5.931   2.591   2.318 -0.1754 -0.5728 -0.1532
 5427TIP3    H140476   6.010   2.598   2.264 -0.4119 -0.5652 -0.5048
 5427TIP3    H240477   5.928   2.499   2.344  0.6867 -0.2939  1.0092
 5428TIP3   OH240478   6.978   3.037   1.107  0.7351  0.1414 -0.0790
 5428TIP3    H140479   6.926   3.060   1.030 -0.9686 -0.2129  0.9180
 5428TIP3    H240480   7.041   3.109   1.115  0.6264  0.4412 -1.4874
 5429TIP3   OH240481   5.344   7.204   1.730 -0.2390 -0.9110  0.0315
 5429TIP3    H140482   5.303   7.279   1.687 -1.3880 -1.6167 -0.1438
 5429TIP3    H240483   5.352   7.138   1.661  0.3674 -1.1175  0.2884
 5430TIP3   OH240484   3.637   2.574   1.821  0.1436  0.1307 -1.4664
 5430TIP3    H140485   3.685   2.534   1.748  0.5141 -1.4322 -0.4142
 5430TIP3    H240486   3.706   2.597   1.884 -0.3468 -0.7261 -0.5985
 5431TIP3   OH240487   2.191   5.880   1.137  0.1730  0.3783 -0.2037
 5431TIP3    H140488   2.132   5.934   1.084  0.5538 -0.5857 -1.6825
 5431TIP3    H240489   2.202   5.800   1.086  0.7414 -0.5210  1.2639
 5432TIP3   OH240490   1.255   4.950   3.091  0.2592 -0.4107  0.1599
 5432TIP3    H140491   1.190   4.924   3.026 -1.7348 -1.0055  2.2792
 5432TIP3    H240492   1.218   5.030   3.130  1.1810 -0.3374  0.8988
 5433TIP3   OH240493   1.878   2.244   1.705 -0.4116  0.4879  0.0326
 5433TIP3    H140494   1.901   2.151   1.698 -0.3522  0.4744  0.3807
 5433TIP3    H240495   1.794   2.244   1.751  0.1745  0.6625  1.1206
 5434TIP3   OH240496   5.274   5.231   0.667 -0.0680  0.3441 -0.1715
 5434TIP3    H140497   5.323   5.218   0.748 -0.1854  0.9582  0.0046
 5434TIP3    H240498   5.183   5.210   0.690 -0.0585  0.2593 -0.2122
 5435TIP3   OH240499   6.401   1.953   1.208 -0.8776  0.4949 -0.2017
 5435TIP3    H140500   6.414   1.859   1.224  0.4149  0.6344 -0.3322
 5435TIP3    H240501   6.383   1.989   1.295 -0.3398  0.2746  0.0081
 5436TIP3   OH240502   6.248   1.051   0.832  0.2168 -0.2726 -0.1398
 5436TIP3    H140503   6.155   1.073   0.839 -0.3907 -2.7290  0.5515
 5436TIP3    H240504   6.274   1.082   0.746 -1.1708  0.7043 -0.2279
 5437TIP3   OH240505   4.588   0.696   1.726 -0.7219  0.0299 -0.0723
 5437TIP3    H140506   4.513   0.756   1.728 -0.4825  0.3324 -0.1060
 5437TIP3    H240507   4.560   0.622   1.780 -0.5235  0.7758  1.1094
 5438TIP3   OH240508   0.381   1.065   3.091 -0.0916  0.3323  0.0004
 5438TIP3    H140509   0.342   1.078   3.177  0.5711 -1.2915  0.5809
 5438TIP3    H240510   0.456   1.007   3.107  0.2867  0.3331 -1.6126
 5439TIP3   OH240511   1.110   1.745   1.879 -0.0409  0.3239  0.4631
 5439TIP3    H140512   1.090   1.653   1.892 -2.3295  0.9552  1.9634
 5439TIP3    H240513   1.172   1.766   1.949 -2.0381  0.6094  2.2394
 5440TIP3   OH240514   0.621   2.698   1.754 -0.5943  0.3917 -0.1352
 5440TIP3    H140515   0.572   2.700   1.836  0.9828 -0.5927  0.8645
 5440TIP3    H240516   0.682   2.771   1.761  0.5902 -0.6095  0.2675
 5441TIP3   OH240517   0.723   6.940   1.262 -0.6875  0.3692 -0.1501
 5441TIP3    H140518   0.789   6.947   1.192 -1.2353 -1.2279 -0.8686
 5441TIP3    H240519   0.773   6.917   1.340 -0.1572  1.4379 -0.1452
 5442TIP3   OH240520   6.246   0.170   1.027 -0.0809  0.1399  0.3334
 5442TIP3    H140521   6.198   0.247   1.058 -0.8849  0.0542 -0.6480
 5442TIP3    H240522   6.243   0.177   0.932  3.8206  1.3583  0.0995
 5443TIP3   OH240523   2.220   5.665   1.757  0.8521 -0.4813 -0.2486
 5443TIP3    H140524   2.231   5.573   1.733  0.6210 -0.7231  0.5516
 5443TIP3    H240525   2.131   5.670   1.793  0.4355  0.2857 -1.3335
 5444TIP3   OH240526   1.472   6.109   2.183 -0.3988  0.8312  0.0479
 5444TIP3    H140527   1.413   6.040   2.154 -1.8137  1.5878  1.0129
 5444TIP3    H240528   1.486   6.163   2.105 -1.8463  1.2307  0.0438
 5445TIP3   OH240529   5.050   0.666   1.390 -0.0766  0.9587  0.1416
 5445TIP3    H140530   5.015   0.618   1.315  2.4387  0.7463 -0.9939
 5445TIP3    H240531   4.987   0.648   1.461 -1.2452 -0.8305 -1.2427
 5446TIP3   OH240532   2.095   3.613   2.123 -0.4356 -0.6545 -0.2386
 5446TIP3    H140533   2.107   3.683   2.060 -1.8002  0.3144  0.5174
 5446TIP3    H240534   2.101   3.532   2.071  2.2409 -0.1060 -0.9537
 5447TIP3   OH240535   3.603   6.721   2.863  0.4048 -0.1385  0.3239
 5447TIP3    H140536   3.654   6.654   2.908  1.1861 -0.7606 -1.4091
 5447TIP3    H240537   3.652   6.802   2.878 -0.1636 -0.0350  1.8259
 5448TIP3   OH240538   5.312   2.378   1.059  0.2561  0.8678  0.1590
 5448TIP3    H140539   5.361   2.324   1.121 -0.7519 -0.6147 -0.2800
 5448TIP3    H240540   5.220   2.356   1.074 -0.1733  2.3621 -0.1542
 5449TIP3   OH240541   4.999   1.355   0.780 -1.1182  0.1489  0.2968
 5449TIP3    H140542   4.912   1.331   0.746 -0.7495  0.9995 -1.3414
 5449TIP3    H240543   4.981   1.424   0.844 -1.7275 -0.4470  0.7829
 5450TIP3   OH240544   0.671   2.199   0.357  0.6219  0.0286 -0.2127
 5450TIP3    H140545   0.594   2.192   0.412 -1.0660 -0.9237 -2.5381
 5450TIP3    H240546   0.704   2.110   0.350 -1.5136 -0.6867 -3.6759
 5451TIP3   OH240547   0.160   1.651   1.089  0.1049 -0.0283 -0.0392
 5451TIP3    H140548   0.075   1.643   1.046  0.6089 -0.1208 -1.0631
 5451TIP3    H240549   0.208   1.713   1.035  0.9789 -0.6268  0.0239
 5452TIP3   OH240550   3.744   6.341   2.059  0.1447  0.0436  0.3086
 5452TIP3    H140551   3.717   6.432   2.068  0.5510  0.1840  0.0897
 5452TIP3    H240552   3.839   6.344   2.049  0.2382 -0.4452  0.9400
 5453TIP3   OH240553   5.342   4.299   1.481 -0.0148  0.0107  0.0893
 5453TIP3    H140554   5.251   4.272   1.471  0.0524 -0.5831  1.0135
 5453TIP3    H240555   5.362   4.345   1.399 -0.7372 -0.9897 -0.6718
 5454TIP3   OH240556   7.224   5.061   2.939 -0.6852 -0.0338 -0.3779
 5454TIP3    H140557   7.201   5.087   2.850  2.6071 -0.1002 -1.3627
 5454TIP3    H240558   7.275   5.134   2.973  1.0494 -1.3980  0.1157
 5455TIP3   OH240559   4.642   2.027   1.121 -1.0279  0.4318 -0.1423
 5455TIP3    H140560   4.571   1.975   1.084 -0.9117  0.6076 -0.6102
 5455TIP3    H240561   4.704   1.962   1.154 -0.3657  0.2462 -1.6831
 5456TIP3   OH240562   2.770   2.466   2.442  0.3524  0.5196  0.6618
 5456TIP3    H140563   2.803   2.417   2.366 -0.6905  0.7338  0.0482
 5456TIP3    H240564   2.785   2.408   2.516  0.9707  0.1120  0.2276
 5457TIP3   OH240565   6.347   5.998   1.793 -0.2819  0.0627 -0.1578
 5457TIP3    H140566   6.418   6.055   1.823  0.1069 -0.4560 -0.0772
 5457TIP3    H240567   6.376   5.910   1.816 -1.0172 -0.1415 -0.0099
 5458TIP3   OH240568   6.656   2.307   0.849 -0.1807 -0.2713 -0.3089
 5458TIP3    H140569   6.667   2.214   0.829 -0.2418 -0.3837  0.1815
 5458TIP3    H240570   6.572   2.331   0.809  0.6144 -0.0079 -1.9124
 5459TIP3   OH240571   4.818   4.457   0.878 -0.3555  0.1207 -0.2944
 5459TIP3    H140572   4.804   4.535   0.931  2.8545  0.3277  0.4582
 5459TIP3    H240573   4.874   4.487   0.806  0.1632 -1.3070 -0.5125
 5460TIP3   OH240574   6.241   5.027   1.291  0.5201 -0.0175  0.1770
 5460TIP3    H140575   6.174   5.031   1.359  1.3278 -0.3406  1.0243
 5460TIP3    H240576   6.225   4.944   1.246  0.5278 -0.2277  0.5611
 5461TIP3   OH240577   0.021   1.546   2.154 -0.0270  0.1047 -0.4834
 5461TIP3    H140578   0.062   1.537   2.068  1.3554 -0.3467  0.1943
 5461TIP3    H240579   0.094   1.542   2.216 -1.1767 -1.9607  0.8448
 5462TIP3   OH240580   0.698   2.145   0.981 -0.5681 -0.0509 -0.2061
 5462TIP3    H140581   0.610   2.183   0.989 -0.8405 -0.7745  0.2715
 5462TIP3    H240582   0.698   2.070   1.040  0.2951 -0.2108 -0.3919
 5463TIP3   OH240583   4.221   4.577   0.373 -0.1172 -0.1024  0.1617
 5463TIP3    H140584   4.272   4.497   0.365  2.1222  1.3714 -1.5430
 5463TIP3    H240585   4.130   4.548   0.373  0.6344 -2.6905  0.8931
 5464TIP3   OH240586   0.371   1.167   2.845  0.2523  0.3044 -0.2120
 5464TIP3    H140587   0.291   1.217   2.829 -3.4986 -5.1416 -1.3283
 5464TIP3    H240588   0.363   1.136   2.935  0.1771 -1.5359 -0.8107
 5465TIP3   OH240589   6.583   3.564   2.512  0.5304 -0.0783  0.4132
 5465TIP3    H140590   6.534   3.522   2.583  0.2871 -2.2201 -0.9388
 5465TIP3    H240591   6.606   3.493   2.453 -1.7898  1.8781 -3.2299
 5466TIP3   OH240592   3.444   2.623   2.516  0.0614 -0.7492  0.4554
 5466TIP3    H140593   3.422   2.672   2.437 -0.0217 -0.2238  0.7990
 5466TIP3    H240594   3.526   2.662   2.546 -0.5316 -0.1044  1.3043
 5467TIP3   OH240595   3.816   6.845   2.468  0.1438 -0.2377 -0.3165
 5467TIP3    H140596   3.740   6.787   2.470 -0.3775  0.4556  0.4325
 5467TIP3    H240597   3.880   6.802   2.525 -0.9019  0.7540  1.7532
 5468TIP3   OH240598   5.855   1.955   2.509 -0.1241  0.6775 -0.5274
 5468TIP3    H140599   5.904   1.909   2.441 -1.1452  0.1061 -0.9032
 5468TIP3    H240600   5.849   2.045   2.478  1.0505  0.8574 -0.2612
 5469TIP3   OH240601   3.339   5.935   1.276  0.2467  0.4696 -0.5954
 5469TIP3    H140602   3.287   5.993   1.331 -0.2939 -0.4797 -0.0669
 5469TIP3    H240603   3.409   5.990   1.241  1.4805  0.8126  2.1600
 5470TIP3   OH240604   7.177   0.562   0.662 -0.6667  0.4936  0.5455
 5470TIP3    H140605   7.201   0.651   0.688  0.1608  0.2674  0.5780
 5470TIP3    H240606   7.252   0.531   0.612 -1.3714  0.1723 -0.3319
 5471TIP3   OH240607   3.565   3.980   2.967 -0.2352  0.0632 -0.2843
 5471TIP3    H140608   3.507   3.904   2.968  0.3285 -0.4386 -1.8958
 5471TIP3    H240609   3.547   4.022   2.882  3.4815 -1.5779 -2.0877
 5472TIP3   OH240610   1.454   3.501   0.809 -0.3485  0.3420  0.1308
 5472TIP3    H140611   1.495   3.416   0.789 -1.7703 -0.2616 -0.3627
 5472TIP3    H240612   1.425   3.493   0.900 -2.4250 -0.5843 -0.5462
 5473TIP3   OH240613   6.802   5.490   0.491 -0.1389  0.1106 -0.1041
 5473TIP3    H140614   6.775   5.399   0.485 -0.2449 -0.1399  2.6286
 5473TIP3    H240615   6.771   5.518   0.577  1.6765  2.1185 -0.0126
 5474TIP3   OH240616   7.115   6.485   1.556  0.1907  0.3431 -0.0838
 5474TIP3    H140617   7.140   6.393   1.567 -1.0807 -0.0246 -0.1366
 5474TIP3    H240618   7.061   6.505   1.633  1.5571  1.4738  0.6461
 5475TIP3   OH240619   1.554   0.342   0.597 -0.6125 -0.2045 -0.8632
 5475TIP3    H140620   1.473   0.392   0.598 -0.0395  0.7435 -0.0327
 5475TIP3    H240621   1.624   0.408   0.594  0.1632 -0.9247  0.4249
 5476TIP3   OH240622   0.241   5.740   2.855 -0.0138  0.0893 -0.1662
 5476TIP3    H140623   0.191   5.661   2.872  0.0031  0.1892  0.3661
 5476TIP3    H240624   0.211   5.770   2.770  1.0399 -1.3112 -1.0788
 5477TIP3   OH240625   2.010   7.626   2.147  0.2526  0.2626  0.1542
 5477TIP3    H140626   1.954   7.583   2.212  0.8618 -0.0675  0.4626
 5477TIP3    H240627   1.962   7.615   2.065 -1.1095  1.7084  0.6990
 5478TIP3   OH240628   2.600   3.343   0.748  0.0205 -0.6050  0.2560
 5478TIP3    H140629   2.631   3.271   0.692  0.6195 -1.4559  1.6331
 5478TIP3    H240630   2.581   3.302   0.832 -2.0460  0.4434  0.3608
 5479TIP3   OH240631   0.400   2.603   1.590  0.1475 -0.7137  0.0540
 5479TIP3    H140632   0.426   2.533   1.529  0.7064  1.0797 -1.8707
 5479TIP3    H240633   0.481   2.624   1.637  0.3076 -0.4707 -0.3233
 5480TIP3   OH240634   5.045   2.098   2.555  0.1016  0.3634 -0.3417
 5480TIP3    H140635   5.065   2.120   2.646  0.1706  1.5520 -0.6398
 5480TIP3    H240636   5.061   2.004   2.550 -0.7986  0.0866  1.1161
 5481TIP3   OH240637   3.951   4.717   2.338 -0.3313 -0.2080  0.3076
 5481TIP3    H140638   4.020   4.670   2.383  1.2800  1.2092 -0.5460
 5481TIP3    H240639   3.923   4.659   2.267  1.6441  0.0439 -0.7516
 5482TIP3   OH240640   5.966   0.914   2.150  0.3567  0.4932 -0.3744
 5482TIP3    H140641   5.871   0.917   2.165  0.6909  2.1763  2.0086
 5482TIP3    H240642   5.993   0.830   2.185 -0.1180  0.5133  0.0542
 5483TIP3   OH240643   1.843   5.067   3.064 -0.0450 -0.5212 -0.2279
 5483TIP3    H140644   1.754   5.080   3.030  0.0633  1.7645  0.2154
 5483TIP3    H240645   1.895   5.046   2.986 -1.0957 -3.1409 -0.3488
 5484TIP3   OH240646   7.408   4.698   2.696 -0.2827 -0.5421 -0.3509
 5484TIP3    H140647   7.501   4.700   2.716 -0.4729 -0.4638  0.5874
 5484TIP3    H240648   7.402   4.649   2.614  0.5839 -0.4927 -0.4546
 5485TIP3   OH240649   6.671   7.368   0.442 -0.0790  0.2940 -0.2061
 5485TIP3    H140650   6.620   7.289   0.424 -0.1017  0.4392 -0.7858
 5485TIP3    H240651   6.761   7.337   0.449 -0.1055  0.1971 -0.2944
 5486TIP3   OH240652   3.971   3.866   2.247  0.3515  0.7096  0.0567
 5486TIP3    H140653   3.980   3.892   2.155  1.1888 -0.1970 -0.1324
 5486TIP3    H240654   4.057   3.831   2.270  0.0160  0.5269  1.0598
 5487TIP3   OH240655   2.662   7.559   1.953 -0.2430  0.0575 -0.5882
 5487TIP3    H140656   2.754   7.563   1.928 -0.2292  0.4317 -0.4919
 5487TIP3    H240657   2.659   7.598   2.040 -0.2905 -1.2171  0.0006
 5488TIP3   OH240658   2.655   2.210   0.645 -0.4781 -0.1347 -0.0153
 5488TIP3    H140659   2.610   2.280   0.692  0.3197  0.3822  0.0100
 5488TIP3    H240660   2.604   2.197   0.565 -0.2827  0.9181 -0.3200
 5489TIP3   OH240661   4.637   1.704   1.934 -0.1595  0.3202  0.0203
 5489TIP3    H140662   4.592   1.781   1.899  0.8787  0.8502 -0.1874
 5489TIP3    H240663   4.567   1.642   1.955 -1.0246  1.3940  0.3736
 5490TIP3   OH240664   5.335   0.075   2.306  0.0688 -0.2055  0.6698
 5490TIP3    H140665   5.287   0.124   2.239 -0.5665 -2.6736 -0.7898
 5490TIP3    H240666   5.424   0.111   2.301  0.6743 -1.7127 -3.1943
 5491TIP3   OH240667   0.521   2.829   1.985 -0.2282  0.0772 -0.5524
 5491TIP3    H140668   0.575   2.883   2.043 -0.0245 -0.7024  0.0002
 5491TIP3    H240669   0.478   2.766   2.044  0.2759 -0.9738 -1.2727
 5492TIP3   OH240670   6.403   1.839   0.868 -0.0102  0.4557 -0.1639
 5492TIP3    H140671   6.350   1.761   0.887 -0.5159  0.8761  0.1714
 5492TIP3    H240672   6.488   1.804   0.840 -0.4919 -0.2300 -0.7965
 5493TIP3   OH240673   2.366   1.259   2.346  0.7492 -0.7686  0.0727
 5493TIP3    H140674   2.410   1.270   2.430 -0.5459 -0.1900  0.6974
 5493TIP3    H240675   2.371   1.345   2.305 -0.3869 -0.4986  0.4631
 5494TIP3   OH240676   0.360   6.280   2.511 -0.3313 -0.3328  0.6852
 5494TIP3    H140677   0.364   6.269   2.606 -0.0059  0.7039  0.7993
 5494TIP3    H240678   0.292   6.218   2.483 -1.0721 -0.0007  1.6896
 5495TIP3   OH240679   6.184   3.994   0.678  0.3506  0.0642  0.0065
 5495TIP3    H140680   6.250   3.962   0.739 -0.6306 -1.8977  0.1307
 5495TIP3    H240681   6.122   3.921   0.670 -1.7419  1.7828 -0.1828
 5496TIP3   OH240682   1.258   2.028   0.958  0.3153  0.2852  0.0989
 5496TIP3    H140683   1.305   2.111   0.960 -1.1148  1.1397  0.1089
 5496TIP3    H240684   1.169   2.052   0.930 -0.9563 -0.7990  2.7968
 5497TIP3   OH240685   2.378   7.342   1.226 -0.5225 -0.1220  0.4565
 5497TIP3    H140686   2.440   7.278   1.261  0.3466  0.3064 -0.2763
 5497TIP3    H240687   2.332   7.376   1.303  0.1487 -0.4504  1.0056
 5498TIP3   OH240688   7.680   4.798   3.006  0.5912 -0.3180 -0.0501
 5498TIP3    H140689   7.682   4.737   2.932  0.1314 -0.8735  0.3865
 5498TIP3    H240690   7.631   4.874   2.972  1.9381  0.2185 -0.8787
 5499TIP3   OH240691   2.629   0.217   0.860  0.0079 -0.1211  0.4053
 5499TIP3    H140692   2.719   0.208   0.889  0.0131  0.3862  0.5631
 5499TIP3    H240693   2.619   0.310   0.840 -0.6781 -0.0456  1.0504
 5500TIP3   OH240694   0.524   6.565   2.716  0.2231  0.0085  0.5585
 5500TIP3    H140695   0.519   6.649   2.761  3.2239  0.7171 -0.2262
 5500TIP3    H240696   0.532   6.501   2.787 -0.4324  0.5174  1.1146
 5501TIP3   OH240697   1.384   6.686   0.901 -0.2617 -0.4464 -0.0811
 5501TIP3    H140698   1.370   6.713   0.992  0.5991 -0.3550  0.0292
 5501TIP3    H240699   1.479   6.688   0.889 -0.4112  0.4573 -1.2679
 5502TIP3   OH240700   0.606   5.651   1.550 -1.0373  0.9471 -0.1712
 5502TIP3    H140701   0.531   5.592   1.553  0.5352 -1.2955 -1.4610
 5502TIP3    H240702   0.655   5.631   1.630  1.4987 -2.6584 -2.2621
 5503TIP3   OH240703   3.850   5.462   2.585 -0.3579  0.1279 -0.5794
 5503TIP3    H140704   3.805   5.380   2.566  2.3476 -1.3843 -0.8759
 5503TIP3    H240705   3.850   5.468   2.680 -0.9087  0.0219 -0.5677
 5504TIP3   OH240706   2.809   5.646   2.808 -0.7465  0.9956  0.2515
 5504TIP3    H140707   2.863   5.725   2.813 -0.3667  0.6672  2.2090
 5504TIP3    H240708   2.759   5.646   2.890 -1.3490 -0.3832 -0.0810
 5505TIP3   OH240709   3.875   1.944   1.062 -0.5110  0.4661  0.1455
 5505TIP3    H140710   3.954   1.912   1.107  0.3814 -0.0926 -1.6958
 5505TIP3    H240711   3.874   2.037   1.081  0.4251  0.4269  0.4823
 5506TIP3   OH240712   3.138   2.420   2.507  0.4357 -0.0652 -0.5080
 5506TIP3    H140713   3.061   2.388   2.460  0.2976 -1.2749  0.4816
 5506TIP3    H240714   3.121   2.398   2.599  3.3261 -3.4837 -0.5671
 5507TIP3   OH240715   1.232   0.693   2.028  0.1574  0.4924  0.0222
 5507TIP3    H140716   1.293   0.671   1.958 -0.4500 -1.3289  0.0202
 5507TIP3    H240717   1.274   0.659   2.107  0.1174  1.1521  0.3326
 5508TIP3   OH240718   5.819   3.170   2.637 -0.0459 -0.3030  0.2659
 5508TIP3    H140719   5.730   3.141   2.621  0.1405 -1.3481  0.9790
 5508TIP3    H240720   5.820   3.196   2.729  0.7042 -1.6833  0.6865
 5509TIP3   OH240721   5.389   0.357   1.300 -0.2499 -0.1377 -0.3558
 5509TIP3    H140722   5.442   0.329   1.226  0.8453 -0.5568  0.5443
 5509TIP3    H240723   5.380   0.451   1.290  1.1726  0.0368 -0.2525
 5510TIP3   OH240724   3.323   2.746   1.914  0.0939  0.2375  0.1209
 5510TIP3    H140725   3.255   2.789   1.966 -0.4396 -0.5599  0.0943
 5510TIP3    H240726   3.364   2.817   1.865 -0.9281  0.7012 -0.0941
 5511TIP3   OH240727   1.090   2.571   0.714 -0.1279 -0.5660 -0.7082
 5511TIP3    H140728   1.109   2.516   0.638 -0.1897  1.2965 -2.1364
 5511TIP3    H240729   0.995   2.587   0.709 -0.9222 -3.4520  1.9682
 5512TIP3   OH240730   4.225   6.701   0.610 -0.2505 -0.4849 -0.9381
 5512TIP3    H140731   4.159   6.632   0.613 -1.3985  0.3837 -3.4323
 5512TIP3    H240732   4.307   6.656   0.630 -1.4171 -1.7279  1.5139
 5513TIP3   OH240733   1.059   5.414   1.225 -0.2641  0.0762 -0.0030
 5513TIP3    H140734   0.984   5.472   1.242 -0.8518 -1.1822  2.0082
 5513TIP3    H240735   1.129   5.474   1.199 -1.5956  1.3983 -0.7484
 5514TIP3   OH240736   6.080   7.152   0.882 -0.6751  0.0402  0.2157
 5514TIP3    H140737   6.159   7.100   0.867 -2.9155 -3.0808 -1.7198
 5514TIP3    H240738   6.095   7.193   0.968  2.4052 -1.5062  0.5602
 5515TIP3   OH240739   4.883   1.927   2.814  0.0464  0.1069  0.4328
 5515TIP3    H140740   4.872   1.885   2.729 -0.4918  1.9792 -0.4886
 5515TIP3    H240741   4.978   1.928   2.828  0.1939  0.4499 -0.5200
 5516TIP3   OH240742   5.011   2.999   1.266 -0.5151  0.3054 -0.5730
 5516TIP3    H140743   4.955   2.931   1.303 -0.6127  0.4014 -0.5425
 5516TIP3    H240744   5.069   2.953   1.206 -0.1655  0.1124 -0.0880
 5517TIP3   OH240745   3.334   2.030   8.895 -0.3941  0.0347  0.1682
 5517TIP3    H140746   3.387   2.090   8.948 -0.9930  1.3245 -0.6608
 5517TIP3    H240747   3.389   2.011   8.818  0.0978 -1.1053  0.7737
 5518TIP3   OH240748   3.002   5.125   2.248 -0.1048  0.0242 -0.0765
 5518TIP3    H140749   2.944   5.146   2.321 -0.3730  1.1763 -0.6094
 5518TIP3    H240750   2.943   5.108   2.174  0.1252 -1.9891  0.1467
 5519TIP3   OH240751   5.893   1.792   1.661 -0.0976  0.4505  0.2373
 5519TIP3    H140752   5.870   1.749   1.578  0.1872 -0.6438  0.7148
 5519TIP3    H240753   5.986   1.777   1.671 -0.2115  0.2101  0.9643
 5520TIP3   OH240754   4.257   4.163   2.862 -0.0159  1.1361  0.6898
 5520TIP3    H140755   4.216   4.205   2.786  0.0953 -0.0931 -0.0845
 5520TIP3    H240756   4.189   4.165   2.930 -1.9329 -1.8528 -0.8951
 5521TIP3   OH240757   6.122   5.651   1.312 -0.0658 -0.0593  0.3602
 5521TIP3    H140758   6.083   5.591   1.376 -2.0404  1.1280  0.3344
 5521TIP3    H240759   6.097   5.738   1.343 -1.9407  0.5430 -2.4763
 5522TIP3   OH240760   4.117   3.642   1.054 -0.5089  0.2248  0.3820
 5522TIP3    H140761   4.061   3.695   1.110 -0.0359  0.5994  0.5016
 5522TIP3    H240762   4.113   3.685   0.969  0.5311  0.9418  0.6832
 5523TIP3   OH240763   4.541   2.658   1.076 -0.2363  0.1995  0.0740
 5523TIP3    H140764   4.537   2.655   0.980 -1.2798  0.7292  0.0808
 5523TIP3    H240765   4.534   2.567   1.104 -2.9847  0.2105 -0.3104
 5524TIP3   OH240766   6.979   2.770   1.584  0.5805 -0.4705 -0.6714
 5524TIP3    H140767   6.994   2.822   1.506 -1.5195 -0.5761 -1.2047
 5524TIP3    H240768   6.891   2.795   1.613  1.1062 -0.7999  1.3856
 5525TIP3   OH240769   6.805   7.181   2.333  0.2134 -0.1758 -0.2832
 5525TIP3    H140770   6.778   7.164   2.423  0.4770  1.0631  0.0604
 5525TIP3    H240771   6.884   7.234   2.342 -1.2559  2.3493 -1.1654
 5526TIP3   OH240772   6.709   2.927   1.228 -0.2831 -0.2176  0.1301
 5526TIP3    H140773   6.782   2.986   1.247 -0.5529 -0.3079  1.5393
 5526TIP3    H240774   6.631   2.979   1.249 -0.5368 -0.9200  0.9599
 5527TIP3   OH240775   6.437   5.476   0.776  0.5147 -0.7813  0.0486
 5527TIP3    H140776   6.362   5.536   0.773  2.3503  1.6287 -0.7150
 5527TIP3    H240777   6.457   5.468   0.870  0.4288  0.0832  0.1490
 5528TIP3   OH240778   2.351   3.620   2.204  0.0956  0.3351  0.0620
 5528TIP3    H140779   2.388   3.571   2.130  0.7699  0.2662  0.4350
 5528TIP3    H240780   2.257   3.621   2.187  0.1316 -0.5531 -0.2777
 5529TIP3   OH240781   0.769   2.512   7.911  0.2987 -0.8359  0.1407
 5529TIP3    H140782   0.703   2.577   7.888 -1.1279 -1.5498  1.9569
 5529TIP3    H240783   0.793   2.472   7.827 -1.3479 -0.3390 -0.6118
 5530TIP3   OH240784   2.533   6.678   2.235 -0.4630  0.1323 -0.6181
 5530TIP3    H140785   2.554   6.595   2.278 -0.8106  0.2544 -0.2071
 5530TIP3    H240786   2.441   6.692   2.255 -0.5365  0.3657 -1.1194
 5531TIP3   OH240787   0.235   6.201   2.186  0.5210  0.4080  0.0045
 5531TIP3    H140788   0.173   6.141   2.228 -2.6991  1.8208 -2.2893
 5531TIP3    H240789   0.227   6.282   2.236  2.3062  0.0188  1.0202
 5532TIP3   OH240790   0.201   1.415   0.796 -0.0119  0.1375 -0.5349
 5532TIP3    H140791   0.131   1.369   0.749 -1.4062  2.9449 -1.3981
 5532TIP3    H240792   0.175   1.412   0.888  0.7944 -2.1019 -0.3022
 5533TIP3   OH240793   0.874   2.522   2.889 -0.3093  0.0703 -0.5432
 5533TIP3    H140794   0.880   2.439   2.937  1.0599 -1.1251 -2.6623
 5533TIP3    H240795   0.780   2.535   2.875 -0.4863 -2.4064 -2.2190
 5534TIP3   OH240796   1.802   3.930   2.521  0.4855 -1.0638  0.3496
 5534TIP3    H140797   1.757   4.014   2.513  0.3649 -1.2135 -0.7771
 5534TIP3    H240798   1.751   3.882   2.586  0.8490 -0.1010  1.3733
 5535TIP3   OH240799   6.096   3.041   1.078  0.0314  0.1745  0.5492
 5535TIP3    H140800   6.035   3.108   1.109  1.4064  0.9929  1.5769
 5535TIP3    H240801   6.115   2.988   1.156  0.5907 -0.0988  0.2356
 5536TIP3   OH240802   4.167   1.638   3.236 -0.5485 -0.5778  0.1393
 5536TIP3    H140803   4.248   1.615   3.189  0.2739  0.4051  1.0325
 5536TIP3    H240804   4.105   1.661   3.166  0.1764 -0.6254 -0.5366
 5537TIP3   OH240805   2.306   6.739   2.017 -0.0663  0.7377  0.0940
 5537TIP3    H140806   2.278   6.711   2.104 -0.2826  1.8874  0.4091
 5537TIP3    H240807   2.225   6.758   1.970 -0.0263 -1.0441 -0.8118
 5538TIP3   OH240808   6.750   0.367   2.882 -0.2992  0.5019 -0.0985
 5538TIP3    H140809   6.738   0.455   2.846 -2.9065  0.0989 -0.4176
 5538TIP3    H240810   6.758   0.311   2.805  0.8917  0.3907  0.0965
 5539TIP3   OH240811   7.662   4.475   1.950  0.5411 -0.2906 -0.1432
 5539TIP3    H140812   7.742   4.471   1.899  0.4947 -1.5506 -0.1480
 5539TIP3    H240813   7.591   4.470   1.886  0.4722 -2.9364  0.0018
 5540TIP3   OH240814   6.230   6.060   1.519  0.6949  0.0169  0.3170
 5540TIP3    H140815   6.218   6.047   1.614 -0.2992 -0.0037  0.1940
 5540TIP3    H240816   6.246   5.972   1.485 -0.1074 -0.1362  0.3133
 5541TIP3   OH240817   4.687   6.951   0.869 -0.4379  0.3295 -0.4538
 5541TIP3    H140818   4.633   6.963   0.947 -1.2080 -0.7526 -0.8028
 5541TIP3    H240819   4.758   7.015   0.879  0.0203 -0.4181  1.6023
 5542TIP3   OH240820   1.623   1.940   1.207  0.1096 -0.2726 -0.0811
 5542TIP3    H140821   1.661   2.005   1.148  0.7609  0.8268  1.4706
 5542TIP3    H240822   1.682   1.864   1.200  0.0394 -0.2502 -1.0036
 5543TIP3   OH240823   5.195   7.459   2.004  0.0302 -0.4369  0.3023
 5543TIP3    H140824   5.118   7.406   1.984 -0.5365  0.4950 -0.0376
 5543TIP3    H240825   5.262   7.396   2.029 -0.7818 -1.2736  0.3916
 5544TIP3   OH240826   3.766   2.628   0.967  0.3644 -0.4013 -0.1106
 5544TIP3    H140827   3.824   2.618   1.042  1.2701  2.8323 -0.2387
 5544TIP3    H240828   3.709   2.702   0.990  1.6688  1.7410 -3.0650
 5545TIP3   OH240829   7.229   1.588   2.872 -0.3622 -0.9991  0.2020
 5545TIP3    H140830   7.140   1.622   2.858  0.3960  0.2405 -2.3904
 5545TIP3    H240831   7.253   1.618   2.960 -2.0300 -0.1658  0.4124
 5546TIP3   OH240832   5.333   4.464   1.249  0.7660 -0.1272 -0.3919
 5546TIP3    H140833   5.391   4.513   1.191  0.2396 -0.4663 -1.2180
 5546TIP3    H240834   5.293   4.397   1.193  1.9743 -1.9601  0.8349
 5547TIP3   OH240835   3.018   3.184   2.625  0.1313  0.4634  0.7564
 5547TIP3    H140836   2.950   3.230   2.675  0.2938  1.2326  0.2846
 5547TIP3    H240837   3.051   3.249   2.563  0.7673 -0.1288  0.4550
 5548TIP3   OH240838   2.252   3.371   2.394  0.4817 -0.0902  0.4397
 5548TIP3    H140839   2.347   3.362   2.390  0.5522  0.4487  0.7623
 5548TIP3    H240840   2.219   3.319   2.320  0.9569 -1.2301  1.0005
 5549TIP3   OH240841   2.287   4.894   0.936  0.5581  0.9475  0.0318
 5549TIP3    H140842   2.268   4.800   0.934 -0.2716  1.1064  0.1511
 5549TIP3    H240843   2.364   4.904   0.879 -0.3674  0.4183 -1.3855
 5550TIP3   OH240844   2.696   5.885   1.417  0.0783 -0.0006 -0.0378
 5550TIP3    H140845   2.762   5.899   1.485  0.4133  0.8771 -0.5274
 5550TIP3    H240846   2.742   5.903   1.335 -0.4419 -0.6026 -0.4696
 5551TIP3   OH240847   4.271   4.385   1.208 -0.1749  0.1093 -0.1697
 5551TIP3    H140848   4.257   4.479   1.193 -1.1079  0.1060  0.5857
 5551TIP3    H240849   4.251   4.373   1.301 -2.3750 -1.2468 -0.7584
 5552TIP3   OH240850   5.749   0.797   0.747  0.2394 -0.5450  0.2365
 5552TIP3    H140851   5.820   0.843   0.702 -0.3648  1.3317  1.1142
 5552TIP3    H240852   5.724   0.727   0.686  1.8064 -0.2875 -0.7560
 5553TIP3   OH240853   2.665   3.103   2.239 -0.0916  0.5557  0.3271
 5553TIP3    H140854   2.590   3.060   2.281 -0.2104 -1.0585 -1.4114
 5553TIP3    H240855   2.626   3.180   2.196 -0.7684 -0.1807 -0.4281
 5554TIP3   OH240856   3.178   2.515   2.245 -0.1283 -0.5104 -0.3121
 5554TIP3    H140857   3.109   2.580   2.233  0.1392  0.3910  2.2917
 5554TIP3    H240858   3.142   2.454   2.310  1.1990 -0.4995  0.4706
 5555TIP3   OH240859   1.741   7.347   2.278 -0.3762 -0.1536 -0.4294
 5555TIP3    H140860   1.782   7.389   2.354 -0.5860 -0.6988 -0.0019
 5555TIP3    H240861   1.654   7.321   2.310  0.0713 -1.7006 -0.4034
 5556TIP3   OH240862   4.563   5.274   2.014  0.0751 -0.0238  0.7581
 5556TIP3    H140863   4.499   5.258   2.083 -3.9526  2.2848 -2.0349
 5556TIP3    H240864   4.582   5.367   2.020  0.0593  0.1055 -0.8223
 5557TIP3   OH240865   4.075   7.626   1.875  0.6071 -0.4492 -0.3389
 5557TIP3    H140866   4.026   7.569   1.934  2.2177 -1.4723  0.0551
 5557TIP3    H240867   4.050   7.597   1.787 -0.6463  0.0803 -0.1775
 5558TIP3   OH240868   5.570   1.597   1.339  0.4644  0.4031 -0.1250
 5558TIP3    H140869   5.580   1.650   1.260 -0.0481  0.7714  0.0447
 5558TIP3    H240870   5.549   1.661   1.407  0.0672  0.0051  0.1335
 5559TIP3   OH240871   5.611   6.138   0.745 -0.6872 -0.6187  0.4414
 5559TIP3    H140872   5.525   6.098   0.729 -0.4237 -2.4448  2.9125
 5559TIP3    H240873   5.638   6.102   0.830  2.1586  0.5633  0.1370
 5560TIP3   OH240874   6.064   0.023   1.218 -0.0191 -0.3661 -0.4831
 5560TIP3    H140875   6.112   0.042   1.137  1.2788 -0.1954  0.2948
 5560TIP3    H240876   6.058   0.108   1.263  3.3014 -1.0711  1.6764
 5561TIP3   OH240877   5.298   3.953   1.368  0.1260  0.2482 -0.2842
 5561TIP3    H140878   5.329   3.923   1.453 -0.4860  2.0069  0.6202
 5561TIP3    H240879   5.351   3.905   1.304  0.8319 -0.8497  1.0893
 5562TIP3   OH240880   1.245   3.410   2.441 -0.3649  0.3056  0.1701
 5562TIP3    H140881   1.221   3.419   2.349 -0.8315  1.3314  0.3662
 5562TIP3    H240882   1.296   3.489   2.460 -0.8510  0.4462  0.9516
 5563TIP3   OH240883   7.267   3.080   2.510 -0.2115 -1.0376 -0.5203
 5563TIP3    H140884   7.335   3.143   2.536 -0.5001 -0.3721 -1.3457
 5563TIP3    H240885   7.289   3.001   2.559  0.0684 -0.2624  0.6759
 5564TIP3   OH240886   5.629   2.058   0.579 -0.0826 -0.2523 -0.3031
 5564TIP3    H140887   5.584   2.067   0.495 -1.0356 -0.1349  0.2008
 5564TIP3    H240888   5.569   2.097   0.642  1.0960  0.6585  0.2971
 5565TIP3   OH240889   7.430   0.758   2.614 -0.1579 -0.2717 -0.0429
 5565TIP3    H140890   7.338   0.762   2.588 -0.7414 -0.7080  1.8005
 5565TIP3    H240891   7.435   0.686   2.676  1.8404 -1.4767 -1.4686
 5566TIP3   OH240892   5.645   0.362   2.682 -0.0297 -0.4722 -0.5147
 5566TIP3    H140893   5.681   0.277   2.659 -1.0414 -0.7467 -1.1025
 5566TIP3    H240894   5.551   0.350   2.683 -0.1420  0.1609  1.3263
 5567TIP3   OH240895   0.789   0.400   2.791  0.2769  0.0333 -0.5292
 5567TIP3    H140896   0.844   0.397   2.869 -3.2743  0.8712  2.2636
 5567TIP3    H240897   0.763   0.492   2.784 -1.0737 -0.3905 -1.4928
 5568TIP3   OH240898   5.621   1.594   1.694 -0.0171 -0.2077 -0.2720
 5568TIP3    H140899   5.656   1.659   1.633 -1.0177  0.4824 -0.1276
 5568TIP3    H240900   5.636   1.633   1.781  2.5483 -1.7227  0.0755
 5569TIP3   OH240901   3.481   7.304   3.285 -0.0763 -0.0138 -0.7106
 5569TIP3    H140902   3.449   7.390   3.311  1.4368 -0.0306  1.4322
 5569TIP3    H240903   3.552   7.321   3.224  1.8816  0.4583  1.5653
 5570TIP3   OH240904   0.230   7.657   1.606  0.2107 -1.0887  0.0057
 5570TIP3    H140905   0.310   7.708   1.609  0.7391 -1.4958 -3.2570
 5570TIP3    H240906   0.167   7.707   1.657  2.4920 -0.8704  2.8855
 5571TIP3   OH240907   4.526   2.488   2.532  0.0727  0.0664 -0.3176
 5571TIP3    H140908   4.487   2.549   2.594  0.7223  1.5492 -1.3319
 5571TIP3    H240909   4.608   2.460   2.573 -1.3608 -2.1846  1.3023
 5572TIP3   OH240910   0.401   4.355   3.140  0.4586  0.3697 -0.0101
 5572TIP3    H140911   0.316   4.385   3.110  0.3673  0.5917  0.4585
 5572TIP3    H240912   0.389   4.261   3.158  0.2036  0.4862  0.4390
 5573TIP3   OH240913   2.918   6.163   3.279  0.1141  0.2827 -0.0076
 5573TIP3    H140914   2.844   6.210   3.241  0.4571 -0.0968 -1.2098
 5573TIP3    H240915   2.990   6.181   3.220  0.6879 -0.3138  0.4987
 5574TIP3   OH240916   3.134   1.260   1.232 -0.3899  0.6666  0.0179
 5574TIP3    H140917   3.077   1.270   1.156 -0.9377 -0.1779  0.2922
 5574TIP3    H240918   3.093   1.313   1.300 -1.0125 -0.1459  0.2908
 5575TIP3   OH240919   0.790   1.136   0.595 -0.1431  0.3138 -0.5161
 5575TIP3    H140920   0.786   1.058   0.541  1.2968 -0.0881 -0.0793
 5575TIP3    H240921   0.871   1.127   0.645 -1.1434  0.9330  1.3136
 5576TIP3   OH240922   1.299   0.027   1.433  0.0543  0.0170 -0.4864
 5576TIP3    H140923   1.353   0.039   1.355  0.8145  0.8027  0.1389
 5576TIP3    H240924   1.215  -0.005   1.400  0.7811 -0.9216 -1.5131
 5577TIP3   OH240925   6.115   5.651   0.521  0.1806 -0.5363 -0.1493
 5577TIP3    H140926   6.108   5.558   0.498 -2.2299 -0.8613  1.5327
 5577TIP3    H240927   6.024   5.679   0.533  0.9587  1.2454  2.3460
 5578TIP3   OH240928   3.241   5.544   2.306  0.5564 -0.4792  0.0032
 5578TIP3    H140929   3.249   5.640   2.313  2.3069 -0.6413  0.9516
 5578TIP3    H240930   3.331   5.513   2.309  0.0398 -2.1534 -0.8651
 5579TIP3   OH240931   6.517   5.876   1.293 -0.0643  0.8586  0.0877
 5579TIP3    H140932   6.496   5.969   1.288 -0.8680  0.6233 -1.3383
 5579TIP3    H240933   6.506   5.843   1.204  3.5108  0.0609 -0.2190
 5580TIP3   OH240934   7.070   5.677   1.935 -0.2763  0.1175  0.1317
 5580TIP3    H140935   6.981   5.679   1.898 -0.6870 -1.1516  0.9761
 5580TIP3    H240936   7.061   5.717   2.021 -0.9349 -3.3475  1.8603
 5581TIP3   OH240937   7.407   4.922   0.712  0.2804  0.2739 -0.0413
 5581TIP3    H140938   7.402   4.933   0.806  0.9658 -1.2650  0.2153
 5581TIP3    H240939   7.450   5.001   0.681  1.0935  0.3022  1.0908
 5582TIP3   OH240940   2.546   3.808   2.260  0.7629  0.1114  0.0144
 5582TIP3    H140941   2.611   3.756   2.309  1.0649 -0.6879 -1.1972
 5582TIP3    H240942   2.466   3.755   2.264  0.7901  0.0415 -0.3516
 5583TIP3   OH240943   1.076   0.890   2.149  0.4223 -0.0526  1.0598
 5583TIP3    H140944   1.121   0.813   2.115  0.2638  0.9138 -1.6281
 5583TIP3    H240945   0.990   0.857   2.177  0.2532 -0.8501 -0.2959
 5584TIP3   OH240946   5.732   1.581   2.977  0.1677  0.5692 -0.5659
 5584TIP3    H140947   5.678   1.610   3.050 -1.0105 -1.4093 -0.5845
 5584TIP3    H240948   5.814   1.630   2.986  0.6006 -0.5372  2.8864
 5585TIP3   OH240949   2.251   5.690   0.941 -0.2136 -0.2125 -0.2391
 5585TIP3    H140950   2.269   5.693   0.847 -0.4809 -1.0930 -0.3256
 5585TIP3    H240951   2.191   5.616   0.952  1.8423 -1.8372  0.9191
 5586TIP3   OH240952   4.049   1.371   1.582  0.0887 -0.0181 -0.0654
 5586TIP3    H140953   4.104   1.295   1.560  0.4858 -0.3013  1.7807
 5586TIP3    H240954   4.070   1.390   1.673 -2.1261  0.5475  0.3744
 5587TIP3   OH240955   1.186   6.225   1.013 -0.1103 -0.1324 -0.2599
 5587TIP3    H140956   1.230   6.237   0.929 -2.6971 -2.7581 -2.1617
 5587TIP3    H240957   1.148   6.311   1.033  0.2747  0.4522 -1.8960
 5588TIP3   OH240958   6.990   7.630   2.028 -0.8758 -1.4020 -0.0567
 5588TIP3    H140959   6.999   7.540   2.058 -1.2777 -1.5284 -0.3086
 5588TIP3    H240960   7.014   7.627   1.935  1.7387 -0.7735  0.5042
 5589TIP3   OH240961   4.211   2.570   1.971 -0.2642 -0.2960 -0.4029
 5589TIP3    H140962   4.304   2.553   1.959 -0.1807 -0.4355  0.3654
 5589TIP3    H240963   4.192   2.538   2.059 -0.7684  0.8341 -0.0733
 5590TIP3   OH240964   3.043   0.006   1.635 -0.0527  0.3457  0.3223
 5590TIP3    H140965   2.964  -0.028   1.677  0.3450 -0.9059  0.1049
 5590TIP3    H240966   3.080   0.067   1.699 -0.2695 -0.3751  1.1535
 5591TIP3   OH240967   4.553   1.424   2.954 -0.7020  0.4364  0.6453
 5591TIP3    H140968   4.637   1.418   2.999 -0.3860  1.0854  0.1480
 5591TIP3    H240969   4.538   1.336   2.919 -0.3164  0.2760  0.8829
 5592TIP3   OH240970   5.846   7.149   2.376 -0.3429  0.0173 -0.0223
 5592TIP3    H140971   5.805   7.098   2.447 -0.9250 -1.0499 -1.0881
 5592TIP3    H240972   5.778   7.208   2.346  0.2151  1.2018  0.9520
 5593TIP3   OH240973   4.775   2.423   2.643  0.0483 -0.9040  0.2383
 5593TIP3    H140974   4.841   2.361   2.673  3.0648  0.5268 -2.7964
 5593TIP3    H240975   4.787   2.500   2.698 -0.4854 -1.3404  0.9759
 5594TIP3   OH240976   2.548   4.498   1.938 -0.1150  0.2189 -0.3581
 5594TIP3    H140977   2.457   4.473   1.919  0.0021  0.1612 -0.8681
 5594TIP3    H240978   2.556   4.491   2.033 -0.7073  0.4366 -0.2892
 5595TIP3   OH240979   7.221   3.917   0.718  0.3402  1.0182  0.7280
 5595TIP3    H140980   7.229   4.011   0.727 -0.2480  0.9890  1.7655
 5595TIP3    H240981   7.139   3.905   0.668  1.1895  1.0683 -0.7429
 5596TIP3   OH240982   2.947   3.311   2.403  0.4058 -0.1180  0.1019
 5596TIP3    H140983   2.861   3.313   2.445 -1.4876  0.5096 -3.3758
 5596TIP3    H240984   2.957   3.398   2.364  2.6958 -0.1544  0.4732
 5597TIP3   OH240985   7.569   1.258   1.654 -0.1323  0.1727 -0.5516
 5597TIP3    H140986   7.589   1.199   1.581 -4.2111  0.9189 -2.5345
 5597TIP3    H240987   7.554   1.200   1.728 -0.5589 -1.0278 -1.5439
 5598TIP3   OH240988   6.250   0.471   1.689  0.2859 -0.4607  0.1082
 5598TIP3    H140989   6.169   0.457   1.640  0.8855 -0.9214 -0.7701
 5598TIP3    H240990   6.222   0.468   1.781 -0.8516  0.4371 -0.1734
 5599TIP3   OH240991   2.337   4.034   1.336 -0.4151  0.1232  0.3799
 5599TIP3    H140992   2.366   3.949   1.301 -0.1624  0.5444 -0.4559
 5599TIP3    H240993   2.248   4.017   1.368 -1.1409 -0.0116 -1.5699
 5600TIP3   OH240994   5.011   5.335   2.163  0.3364  0.1017 -0.5949
 5600TIP3    H140995   5.061   5.278   2.105 -1.2438  0.6479 -2.6163
 5600TIP3    H240996   4.924   5.295   2.167  0.2962  0.2645  1.1908
 5601TIP3   OH240997   4.921   0.689   2.174 -0.2866 -0.0684  0.6373
 5601TIP3    H140998   4.932   0.724   2.263  1.5809  1.9246 -0.2627
 5601TIP3    H240999   4.891   0.765   2.123 -0.1648 -0.8620 -0.6481
 5602TIP3   OH241000   7.244   3.011   1.322 -0.0282  0.4331  0.0924
 5602TIP3    H141001   7.231   2.924   1.283  1.7551 -0.0871  0.5468
 5602TIP3    H241002   7.333   3.035   1.296 -0.2846  1.8739  0.4845
 5603TIP3   OH241003   2.049   5.391   1.147  0.1478  0.4860  0.0778
 5603TIP3    H141004   2.046   5.309   1.098 -1.1800  1.2276 -1.1852
 5603TIP3    H241005   1.967   5.391   1.197 -0.4133  1.4877 -0.7813
 5604TIP3   OH241006   4.573   6.552   1.449  0.1299 -0.2056  0.1578
 5604TIP3    H141007   4.653   6.500   1.457  1.0045  0.6547 -2.0739
 5604TIP3    H241008   4.505   6.488   1.427  0.3498 -0.8485  1.2926
 5605TIP3   OH241009   2.937   7.529   1.964 -0.2071 -0.0638  0.1050
 5605TIP3    H141010   2.994   7.499   2.035  1.5620  0.2317 -1.1039
 5605TIP3    H241011   2.978   7.611   1.934 -0.4674 -0.5367 -1.6841
 5606TIP3   OH241012   4.907   2.967   2.586  0.0595  0.1786  0.2334
 5606TIP3    H141013   4.884   3.060   2.588  0.5679  0.3091  0.3786
 5606TIP3    H241014   4.865   2.933   2.507  0.1470  0.6142 -0.0048
 5607TIP3   OH241015   2.670   4.459   1.072 -0.2460 -0.2533 -0.0194
 5607TIP3    H141016   2.618   4.437   1.150  0.2022  0.1222  0.3857
 5607TIP3    H241017   2.708   4.376   1.045  1.0903 -0.0880  1.2534
 5608TIP3   OH241018   1.546   1.493   2.227 -0.2500 -0.6875  0.2531
 5608TIP3    H141019   1.455   1.481   2.256  0.3852 -0.7523  2.3748
 5608TIP3    H241020   1.571   1.579   2.260  0.1739 -0.1974 -1.2365
 5609TIP3   OH241021   7.077   7.070   0.868  0.3530 -0.1994  0.2001
 5609TIP3    H141022   7.088   7.158   0.832  0.0004  0.7042  2.1786
 5609TIP3    H241023   7.051   7.084   0.959  0.9593 -2.3629  0.7655
 5610TIP3   OH241024   0.303   1.018   1.840  0.0428 -0.2983 -0.3521
 5610TIP3    H141025   0.290   1.049   1.930  0.1845 -0.4281 -0.2852
 5610TIP3    H241026   0.286   1.094   1.785  2.1229  0.4173 -0.1099
 5611TIP3   OH241027   3.355   2.772   2.301  0.2512 -0.2972  0.3172
 5611TIP3    H141028   3.412   2.762   2.225  0.3217 -1.9167  0.5531
 5611TIP3    H241029   3.267   2.750   2.269 -0.6088  3.4215 -0.3729
 5612TIP3   OH241030   6.700   1.356   0.988  0.3796  0.0815 -0.3602
 5612TIP3    H141031   6.657   1.393   0.911 -2.0007 -0.5075  0.6158
 5612TIP3    H241032   6.688   1.262   0.980  0.2746 -0.0009  0.6429
 5613TIP3   OH241033   2.109   3.376   2.807 -0.3418 -0.3872  0.2112
 5613TIP3    H141034   2.068   3.376   2.893  1.6603  1.8498  1.2769
 5613TIP3    H241035   2.182   3.314   2.815  1.3181  1.5647  1.0003
 5614TIP3   OH241036   4.086   3.699   1.402  0.1273  0.2517 -0.0333
 5614TIP3    H141037   4.044   3.744   1.474  0.9106  0.1541  0.4930
 5614TIP3    H241038   4.079   3.759   1.328  1.0132  1.1737  0.6154
 5615TIP3   OH241039   2.859   6.115   1.372  0.0328  0.1139  0.1904
 5615TIP3    H141040   2.778   6.070   1.398  1.1959 -1.3031  1.5436
 5615TIP3    H241041   2.919   6.044   1.350  1.1204  1.1179 -0.1569
 5616TIP3   OH241042   1.181   2.067   1.601  0.0294  0.1390 -0.4639
 5616TIP3    H141043   1.229   2.030   1.675 -0.3924 -0.5003 -0.5007
 5616TIP3    H241044   1.247   2.115   1.551  1.2244 -2.6434 -1.8058
 5617TIP3   OH241045   7.601   3.053   2.167 -0.0574  0.2618  0.5300
 5617TIP3    H141046   7.545   3.041   2.091  1.3234  0.3802 -0.5347
 5617TIP3    H241047   7.555   3.118   2.221 -0.4272  1.1583 -0.8262
 5618TIP3   OH241048   0.816   6.915   2.265 -0.0492 -0.6141  0.0164
 5618TIP3    H141049   0.737   6.967   2.253  0.2160 -0.1272  0.3786
 5618TIP3    H241050   0.888   6.976   2.250  0.2796 -0.5288  1.7164
 5619TIP3   OH241051   0.786   6.484   3.300  0.4069  0.0060 -0.3832
 5619TIP3    H141052   0.838   6.556   3.336 -0.5731 -0.3419  1.8800
 5619TIP3    H241053   0.842   6.407   3.308  0.4792  0.0607 -0.3645
 5620TIP3   OH241054   3.183   2.817   3.013 -0.1724 -1.4141  0.2488
 5620TIP3    H141055   3.115   2.762   2.976 -0.2990 -1.4582  0.5409
 5620TIP3    H241056   3.203   2.881   2.945 -1.5434 -0.4798  0.6700
 5621TIP3   OH241057   2.796   5.177   1.456 -0.2554  0.6131  0.5772
 5621TIP3    H141058   2.842   5.147   1.378 -0.5325  1.4170  0.0917
 5621TIP3    H241059   2.703   5.163   1.436 -0.3191  0.6237  0.8559
 5622TIP3   OH241060   4.697   1.589   1.164 -0.5587  0.2602 -0.3707
 5622TIP3    H141061   4.754   1.528   1.117  1.3328  2.6393 -1.3912
 5622TIP3    H241062   4.617   1.593   1.111 -0.0487 -0.1125 -1.1791
 5623TIP3   OH241063   1.107   3.034   0.918 -0.2163  0.2845 -0.2352
 5623TIP3    H141064   1.071   3.115   0.883  1.1589  1.9743  1.9832
 5623TIP3    H241065   1.030   2.982   0.942 -1.1270  1.2383 -1.0128
 5624TIP3   OH241066   3.344   6.785   1.541 -0.2810 -0.5500  0.0999
 5624TIP3    H141067   3.382   6.873   1.546 -0.4386 -0.4647 -0.2062
 5624TIP3    H241068   3.250   6.799   1.551 -0.3105 -0.6781 -0.0020
 5625TIP3   OH241069   7.028   2.224   2.291 -0.1177 -0.1115  0.3778
 5625TIP3    H141070   7.094   2.287   2.320 -0.5811  0.0844  1.0267
 5625TIP3    H241071   6.967   2.275   2.238  0.5392 -0.4030 -0.7056
 5626TIP3   OH241072   3.479   5.748   1.600  0.0813  0.0986  0.1442
 5626TIP3    H141073   3.557   5.696   1.613  0.3984  0.8413  1.3883
 5626TIP3    H241074   3.511   5.838   1.590 -0.5755  0.3411  0.1524
 5627TIP3   OH241075   0.075   2.275   2.529  0.1547  0.3414 -0.0525
 5627TIP3    H141076   0.123   2.256   2.609 -1.7258 -0.9171  0.8509
 5627TIP3    H241077   0.108   2.212   2.465 -0.7648 -1.0448  0.7867
 5628TIP3   OH241078   5.719   3.039   1.992  0.6373 -0.1892 -0.5883
 5628TIP3    H141079   5.770   3.085   2.058  2.7545 -0.5597 -1.8647
 5628TIP3    H241080   5.784   3.012   1.926 -1.4009  0.5252 -3.0435
 5629TIP3   OH241081   2.092   7.262   3.182 -0.3436  0.3130  0.1423
 5629TIP3    H141082   2.093   7.188   3.121 -0.9648 -0.4009  0.9534
 5629TIP3    H241083   2.179   7.302   3.174  0.7842 -1.7657  1.1366
 5630TIP3   OH241084   2.427   0.318   2.877 -0.0227  0.4003  0.1722
 5630TIP3    H141085   2.335   0.293   2.877  0.0070  0.2327 -1.1415
 5630TIP3    H241086   2.430   0.399   2.825  0.3132  1.5078  1.8367
 5631TIP3   OH241087   4.037   1.934   1.801 -0.4722  0.0325 -0.2000
 5631TIP3    H141088   4.032   1.894   1.715 -1.0694 -0.0917 -0.1158
 5631TIP3    H241089   3.946   1.939   1.830 -0.2207 -0.5981  0.7317
 5632TIP3   OH241090   2.592   5.253   0.529 -0.5482 -0.4653 -0.0603
 5632TIP3    H141091   2.645   5.319   0.484 -0.0971  0.6284  1.9589
 5632TIP3    H241092   2.656   5.197   0.573 -0.9964 -0.6746  0.3337
 5633TIP3   OH241093   1.866   3.604   1.896 -0.2141  0.2102 -0.1730
 5633TIP3    H141094   1.945   3.550   1.892 -0.3191  0.0453 -0.0088
 5633TIP3    H241095   1.809   3.561   1.959  0.5604  1.6773  1.6147
 5634TIP3   OH241096   4.244   4.953   1.308  0.0388 -0.1972 -0.3758
 5634TIP3    H141097   4.297   4.902   1.369 -1.3837  1.0826  2.1082
 5634TIP3    H241098   4.210   4.888   1.246  0.6624 -1.7625  0.8502
 5635TIP3   OH241099   6.271   1.674   2.344  0.1719  0.3659 -0.3045
 5635TIP3    H141100   6.252   1.663   2.437  0.2725  1.5760 -0.1148
 5635TIP3    H241101   6.365   1.695   2.341  0.1483  0.4236 -0.6652
 5636TIP3   OH241102   4.433   0.691   1.474  0.8519  0.1512  0.0007
 5636TIP3    H141103   4.427   0.782   1.504  0.1051  0.9696 -2.4376
 5636TIP3    H241104   4.346   0.654   1.489  0.8764  0.1362  0.1055
 5637TIP3   OH241105   1.313   1.702   0.639  0.5023  0.2679 -0.3146
 5637TIP3    H141106   1.218   1.695   0.626  0.1605  1.3925  1.2406
 5637TIP3    H241107   1.343   1.761   0.571  0.3528 -1.1773 -1.6950
 5638TIP3   OH241108   0.150   0.204   1.900  0.0523  0.6443 -0.3484
 5638TIP3    H141109   0.204   0.125   1.906  0.3688  0.9157  0.5278
 5638TIP3    H241110   0.129   0.211   1.807 -2.0669 -1.8472 -0.1740
 5639TIP3   OH241111   2.637   7.166   1.010  0.3780 -0.6287 -0.7683
 5639TIP3    H141112   2.699   7.101   1.043  0.8817 -0.1275 -0.7216
 5639TIP3    H241113   2.643   7.239   1.072 -0.3885 -0.6452 -0.6642
 5640TIP3   OH241114   5.468   7.019   0.757  0.1939 -0.3157  0.4775
 5640TIP3    H141115   5.425   7.105   0.764  1.0436  0.0436  1.4722
 5640TIP3    H241116   5.542   7.034   0.698  1.1176 -0.0258  1.6742
 5641TIP3   OH241117   6.241   5.272   1.186 -0.3821  0.1913 -0.5804
 5641TIP3    H141118   6.286   5.306   1.263  0.3697 -2.3714  0.2325
 5641TIP3    H241119   6.227   5.179   1.206 -4.8709  0.4831 -1.3384
 5642TIP3   OH241120   6.211   6.618   1.193  0.5423  0.2575 -0.2330
 5642TIP3    H141121   6.253   6.609   1.278  0.2909 -0.3555 -0.1633
 5642TIP3    H241122   6.161   6.699   1.199  0.2400  0.0351  0.3372
 5643TIP3   OH241123   0.673   2.983   0.619 -0.7391  0.8587 -0.1703
 5643TIP3    H141124   0.690   2.900   0.575 -0.8870 -0.8128  2.6355
 5643TIP3    H241125   0.581   2.978   0.647 -0.1905  0.9716  1.8361
 5644TIP3   OH241126   1.737   4.551   1.751 -0.0954 -0.3518  0.0941
 5644TIP3    H141127   1.727   4.466   1.708 -1.9003  0.8033 -2.0337
 5644TIP3    H241128   1.654   4.564   1.797 -0.1017  0.4813 -0.1340
 5645TIP3   OH241129   7.123   1.830   3.147 -0.0759  0.8776  0.0332
 5645TIP3    H141130   7.176   1.751   3.144  1.2632  1.7021  0.6702
 5645TIP3    H241131   7.036   1.803   3.117  0.5918 -0.6118 -0.6378
 5646TIP3   OH241132   7.534   2.802   0.902  0.4263  0.5165 -1.1627
 5646TIP3    H141133   7.588   2.854   0.843  0.4402 -0.2437 -1.8435
 5646TIP3    H241134   7.595   2.765   0.965  0.6826 -0.1090 -1.7583
 5647TIP3   OH241135   6.195   7.674   0.762 -0.4810  0.3628 -0.9717
 5647TIP3    H141136   6.279   7.646   0.798 -1.4207 -0.0145  1.0520
 5647TIP3    H241137   6.218   7.721   0.681  1.6921  0.8130 -0.1604
 5648TIP3   OH241138   4.343   3.205   0.898  0.1990 -0.1475  0.2214
 5648TIP3    H141139   4.326   3.119   0.935  0.5993  0.1687  1.1578
 5648TIP3    H241140   4.293   3.266   0.951 -0.3385  0.1809 -0.6331
 5649TIP3   OH241141   2.814   2.473   2.098  0.1722  0.1879  0.0233
 5649TIP3    H141142   2.733   2.427   2.117 -0.2631  0.4004 -1.2296
 5649TIP3    H241143   2.872   2.407   2.059 -0.0318  0.4104 -0.6795
 5650TIP3   OH241144   6.329   1.679   1.313  0.1059  0.3706 -0.5892
 5650TIP3    H141145   6.346   1.591   1.279 -0.3190 -0.2729  0.7578
 5650TIP3    H241146   6.411   1.705   1.355  0.2030  0.5817 -0.9073
 5651TIP3   OH241147   5.025   3.029   2.257 -0.2568 -0.0531 -0.2357
 5651TIP3    H141148   5.058   3.053   2.343  0.9533 -0.2083 -0.6362
 5651TIP3    H241149   5.082   3.075   2.195 -0.5691 -0.6089 -0.9619
 5652TIP3   OH241150   2.217   0.218   0.609  0.3634  0.5172 -0.2269
 5652TIP3    H141151   2.211   0.283   0.679  0.1098 -0.7121  0.9348
 5652TIP3    H241152   2.303   0.179   0.620 -0.7179 -1.6432  1.2583
 5653TIP3   OH241153   0.743   5.126   2.368 -0.2585  0.1493 -0.5264
 5653TIP3    H141154   0.675   5.061   2.388  0.3371 -0.6469 -1.0483
 5653TIP3    H241155   0.802   5.081   2.307  1.9413  0.0284  1.5325
 5654TIP3   OH241156   6.440   3.345   2.600 -0.1771  0.1710  0.4279
 5654TIP3    H141157   6.435   3.255   2.567  1.8066 -0.3314  1.2980
 5654TIP3    H241158   6.349   3.373   2.608 -0.8604 -1.8636  0.3890
 5655TIP3   OH241159   2.574   1.114   2.207 -0.3397 -0.1960  0.3512
 5655TIP3    H141160   2.531   1.171   2.271  0.2552  2.1121 -1.1946
 5655TIP3    H241161   2.515   1.116   2.131  0.5000 -0.3206 -0.3094
 5656TIP3   OH241162   6.206   5.951   2.612 -0.2894  0.0633  0.3337
 5656TIP3    H141163   6.278   6.007   2.583 -1.3689  1.5380  0.3458
 5656TIP3    H241164   6.133   6.011   2.624 -1.5113 -1.3710  0.3934
 5657TIP3   OH241165   2.160   3.259   0.645 -0.6407 -0.1345  0.4207
 5657TIP3    H141166   2.170   3.165   0.635 -2.1182 -0.1873 -0.8063
 5657TIP3    H241167   2.208   3.297   0.571  0.9565  0.1814  1.5516
 5658TIP3   OH241168   1.077   5.882   1.879  0.1711  0.2783 -0.8129
 5658TIP3    H141169   1.169   5.883   1.906 -0.2643 -0.0331  0.7934
 5658TIP3    H241170   1.080   5.889   1.784  1.8488  0.4713 -0.7789
 5659TIP3   OH241171   6.489   4.224   1.342  0.3199  0.5826 -0.0686
 5659TIP3    H141172   6.519   4.182   1.422 -0.7515  1.7510  0.9906
 5659TIP3    H241173   6.418   4.282   1.370 -0.4662  0.6063 -1.9481
 5660TIP3   OH241174   1.566   6.246   0.726 -0.0072 -0.3775 -0.0932
 5660TIP3    H141175   1.637   6.290   0.679 -0.7609 -0.1437 -1.0254
 5660TIP3    H241176   1.539   6.175   0.668  0.2308 -1.1900  0.7695
 5661TIP3   OH241177   6.051   7.109   1.916 -0.1313  0.3947  0.0937
 5661TIP3    H141178   6.079   7.198   1.940 -0.7629  0.6846 -0.2204
 5661TIP3    H241179   6.115   7.052   1.958  0.5664  1.0158 -0.0997
 5662TIP3   OH241180   0.461   6.673   2.248 -0.3295  0.0253  0.0772
 5662TIP3    H141181   0.457   6.767   2.265  1.2659  0.1858 -0.2179
 5662TIP3    H241182   0.480   6.634   2.333 -1.1440 -0.0488  0.2273
 5663TIP3   OH241183   2.233   7.417   2.869 -0.3877 -0.5213  0.3418
 5663TIP3    H141184   2.249   7.401   2.963  4.1337  0.4363 -0.0379
 5663TIP3    H241185   2.270   7.341   2.825 -0.3918  0.0905 -0.7555
 5664TIP3   OH241186   3.588   1.115   2.914 -0.1767 -0.9856 -0.3589
 5664TIP3    H141187   3.529   1.056   2.961 -0.3507 -2.0529 -1.8589
 5664TIP3    H241188   3.661   1.059   2.888  0.3804 -0.1932 -0.5196
 5665TIP3   OH241189   0.286   3.726   2.081  0.4466 -0.2455  0.1929
 5665TIP3    H141190   0.290   3.637   2.117  1.0535 -1.3842 -2.4233
 5665TIP3    H241191   0.195   3.738   2.056  0.4588 -0.3526  0.0929
 5666TIP3   OH241192   0.522   3.440   3.025  0.5811  0.0779 -0.2081
 5666TIP3    H141193   0.456   3.502   2.993  3.2742  1.6087 -3.3761
 5666TIP3    H241194   0.512   3.363   2.969  0.1952 -0.5103  0.6609
 5667TIP3   OH241195   2.156   5.945   1.778 -0.2726  0.0577  0.2008
 5667TIP3    H141196   2.097   6.018   1.798 -0.0153  0.0646  0.9880
 5667TIP3    H241197   2.098   5.877   1.743 -0.8957 -0.2077  1.6496
 5668TIP3   OH241198   2.483   0.672   0.994  0.0674  0.0893 -0.3709
 5668TIP3    H141199   2.571   0.655   0.959  0.3660  1.5037 -0.3504
 5668TIP3    H241200   2.469   0.601   1.058  0.6259 -0.9335 -1.3465
 5669TIP3   OH241201   7.504   1.743   1.149  0.5689 -0.1430  1.0046
 5669TIP3    H141202   7.419   1.707   1.122 -0.0372  2.0915 -0.3688
 5669TIP3    H241203   7.566   1.709   1.085  0.4303 -0.5333  1.0737
 5670TIP3   OH241204   3.657   4.860   2.394  0.0659 -0.2131  0.1334
 5670TIP3    H141205   3.657   4.817   2.480 -1.9056  0.6311  0.6077
 5670TIP3    H241206   3.570   4.899   2.387  0.7733  1.1754 -1.5498
 5671TIP3   OH241207   7.167   5.306   1.951 -1.0501  0.2999  0.1647
 5671TIP3    H141208   7.160   5.343   1.863 -1.6696  0.9392  0.4743
 5671TIP3    H241209   7.089   5.337   1.996 -0.6161  0.1852  1.0168
 5672TIP3   OH241210   7.409   3.894   1.944  0.1698 -0.2722 -0.0075
 5672TIP3    H141211   7.443   3.975   1.981  0.3514 -1.0179  1.5229
 5672TIP3    H241212   7.321   3.917   1.914  0.9855  1.0078 -1.5957
 5673TIP3   OH241213   4.311   6.650   1.226  0.5311  0.1388 -0.1502
 5673TIP3    H141214   4.274   6.663   1.138 -0.7539  0.6956  0.4402
 5673TIP3    H241215   4.382   6.714   1.231 -1.7224  2.8147  0.4615
 5674TIP3   OH241216   5.123   3.342   2.314 -0.6646 -0.3427 -0.2560
 5674TIP3    H141217   5.109   3.280   2.386  0.3300  2.7456  2.8412
 5674TIP3    H241218   5.210   3.321   2.281 -0.6298 -1.0312  0.2503
 5675TIP3   OH241219   7.529   7.393   1.397 -0.0181  0.3038  0.0883
 5675TIP3    H141220   7.501   7.443   1.321  0.0573 -0.7396 -0.6437
 5675TIP3    H241221   7.584   7.453   1.446 -0.9176  1.3309 -0.1226
 5676TIP3   OH241222   4.882   7.133   0.991 -0.3661  0.6226 -0.3387
 5676TIP3    H141223   4.967   7.128   1.037 -0.9155  0.4269  0.6987
 5676TIP3    H241224   4.830   7.191   1.046 -1.6896 -1.1456  0.3752
 5677TIP3   OH241225   0.815   6.411   0.995  0.0942  0.0808 -0.1585
 5677TIP3    H141226   0.767   6.458   1.063  0.9159 -0.8903  1.1154
 5677TIP3    H241227   0.769   6.328   0.986  1.7066 -1.0409  1.3798
 5678TIP3   OH241228   1.863   6.663   1.324  0.1127 -0.2469  0.1702
 5678TIP3    H141229   1.928   6.710   1.272 -0.2118 -0.2722 -0.2572
 5678TIP3    H241230   1.779   6.702   1.299 -0.2267 -1.4636 -0.6305
 5679TIP3   OH241231   3.488   1.182   0.808 -0.2401 -0.3548  0.3950
 5679TIP3    H141232   3.524   1.125   0.876 -0.1674 -1.7863 -0.7938
 5679TIP3    H241233   3.393   1.171   0.815 -0.4590  1.9365  2.2652
 5680TIP3   OH241234   1.100   3.415   1.363 -0.2657 -0.5041  0.0778
 5680TIP3    H141235   1.054   3.377   1.288 -0.5368 -1.1243  0.5541
 5680TIP3    H241236   1.084   3.354   1.435 -0.0055  0.0883  0.6457
 5681TIP3   OH241237   0.488   1.410   0.543 -0.5388 -0.2801 -0.1759
 5681TIP3    H141238   0.575   1.440   0.567 -0.0971  0.3145 -2.3392
 5681TIP3    H241239   0.446   1.485   0.502 -2.0764 -0.5748  0.7569
 5682TIP3   OH241240   6.931   6.342   1.266  0.1168  0.0284 -0.0279
 5682TIP3    H141241   6.880   6.288   1.326 -0.2147  0.4570  0.0884
 5682TIP3    H241242   7.012   6.294   1.252 -0.2160 -0.5414 -0.0095
 5683TIP3   OH241243   7.474   4.498   0.415 -0.3251 -0.1288  0.7031
 5683TIP3    H141244   7.447   4.507   0.324 -1.5902 -0.7102  0.9963
 5683TIP3    H241245   7.503   4.585   0.441 -0.1600  0.0880 -0.1783
 5684TIP3   OH241246   2.466   5.362   2.187 -0.1868 -0.1670  0.2013
 5684TIP3    H141247   2.402   5.311   2.238 -0.6756 -0.3538 -0.5827
 5684TIP3    H241248   2.518   5.408   2.253 -0.2314 -1.0943  0.9019
 5685TIP3   OH241249   2.768   0.596   1.486  0.0699 -0.3015 -0.5104
 5685TIP3    H141250   2.727   0.662   1.431 -0.4444 -1.1761 -1.2146
 5685TIP3    H241251   2.698   0.566   1.544  0.4716  0.2371  0.2719
 5686TIP3   OH241252   6.735   2.930   0.626  0.2919  0.0140 -0.1182
 5686TIP3    H141253   6.645   2.952   0.602  0.5940  0.4845 -0.8990
 5686TIP3    H241254   6.752   2.846   0.583  1.3253  1.5583 -3.0691
 5687TIP3   OH241255   5.012   4.952   2.491 -0.5929  0.1148  0.1922
 5687TIP3    H141256   5.059   4.919   2.568 -0.5037  0.5291  0.3164
 5687TIP3    H241257   5.062   5.028   2.463 -0.2737 -0.3881 -0.6573
 5688TIP3   OH241258   3.355   4.867   1.327  0.3285  0.0214  0.3222
 5688TIP3    H141259   3.361   4.807   1.401 -0.6427 -0.3443  0.1201
 5688TIP3    H241260   3.442   4.865   1.287  0.2101 -1.5635  0.0817
 5689TIP3   OH241261   6.364   1.973   1.531  0.6292  0.1207  0.3462
 5689TIP3    H141262   6.364   2.065   1.502 -0.0800  0.8149  2.3895
 5689TIP3    H241263   6.405   1.976   1.618  0.5699 -1.5087  0.4514
 5690TIP3   OH241264   5.454   6.577   3.042 -0.1529 -0.4949 -0.6922
 5690TIP3    H141265   5.546   6.568   3.065 -0.7551 -1.3757  1.6638
 5690TIP3    H241266   5.425   6.487   3.025 -0.7640 -0.3280 -0.5633
 5691TIP3   OH241267   5.933   5.296   3.370 -0.0523 -0.0709 -0.4593
 5691TIP3    H141268   5.961   5.371   3.422 -2.0926  0.8730 -0.6410
 5691TIP3    H241269   5.907   5.230   3.434  2.0235 -0.8027 -0.2945
 5692TIP3   OH241270   4.024   4.672   1.382  0.1584 -0.4438 -0.5205
 5692TIP3    H141271   3.951   4.614   1.362 -1.6517  1.3397  0.4653
 5692TIP3    H241272   4.072   4.680   1.300 -0.2064 -2.3638 -0.9614
 5693TIP3   OH241273   7.502   4.423   1.705 -0.7681  0.1105 -0.2680
 5693TIP3    H141274   7.426   4.471   1.673 -0.6848 -0.6115 -1.6114
 5693TIP3    H241275   7.470   4.375   1.782 -0.3657  3.8161  2.5109
 5694TIP3   OH241276   4.827   6.646   1.082 -0.2007 -0.4993 -0.3886
 5694TIP3    H141277   4.795   6.567   1.037  0.7842 -1.0214 -0.2148
 5694TIP3    H241278   4.912   6.663   1.042 -0.2049  0.2132 -0.1035
 5695TIP3   OH241279   2.285   5.532   1.184 -0.9417  0.8205  0.2660
 5695TIP3    H141280   2.207   5.481   1.161 -0.9504  1.5055 -1.3180
 5695TIP3    H241281   2.262   5.575   1.267 -1.9945  0.5036  0.1506
 5696TIP3   OH241282   7.037   3.953   1.422  0.1282  0.2674 -0.3045
 5696TIP3    H141283   6.964   3.973   1.481 -0.3337 -1.7362 -0.1383
 5696TIP3    H241284   7.098   3.902   1.476  1.0814  0.8440 -0.7998
 5697TIP3   OH241285   6.798   1.307   2.647 -0.8591  0.6738 -0.3445
 5697TIP3    H141286   6.789   1.335   2.556 -0.6152  1.0298 -0.2603
 5697TIP3    H241287   6.886   1.270   2.653  0.5153  3.7128  0.5191
 5698TIP3   OH241288   0.114   0.283   1.305  0.0356  0.8444 -0.1640
 5698TIP3    H141289   0.026   0.293   1.268 -0.5763 -0.3730  0.8852
 5698TIP3    H241290   0.147   0.373   1.313 -1.4872  1.3958  0.2950
 5699TIP3   OH241291   0.707   6.156   1.026  0.0185  0.1926 -0.2452
 5699TIP3    H141292   0.659   6.115   1.098  0.2638  0.7629  0.2461
 5699TIP3    H241293   0.643   6.159   0.954 -0.9762  1.6529  0.6384
 5700TIP3   OH241294   0.643   6.532   1.588 -0.6632 -0.3654  0.1708
 5700TIP3    H141295   0.678   6.621   1.588 -0.3059 -0.4959  0.7531
 5700TIP3    H241296   0.554   6.541   1.555 -0.4812  0.1426 -0.1926
 5701TIP3   OH241297   1.937   1.006   2.218 -0.3356  0.0052  0.1060
 5701TIP3    H141298   1.935   1.084   2.273 -1.5703 -1.6160  2.5103
 5701TIP3    H241299   1.911   1.038   2.131 -0.7317  2.2555  0.9787
 5702TIP3   OH241300   7.069   6.584   2.595  0.1216  0.7517  0.1914
 5702TIP3    H141301   7.011   6.526   2.545 -0.0504  1.9115 -0.9961
 5702TIP3    H241302   7.046   6.567   2.686 -0.4699 -0.4768 -0.1588
 5703TIP3   OH241303   6.780   4.357   1.340  0.9599  0.0873  0.3518
 5703TIP3    H141304   6.788   4.280   1.284  1.8032 -0.8900  1.7223
 5703TIP3    H241305   6.768   4.321   1.428 -0.9608  1.5648  0.7607
 5704TIP3   OH241306   3.453   3.635   2.574  0.1574 -0.0501  0.6318
 5704TIP3    H141307   3.535   3.586   2.579  0.3234  0.2535  0.8923
 5704TIP3    H241308   3.384   3.568   2.578  0.3964 -0.4995 -1.4645
 5705TIP3   OH241309   1.378   6.625   2.610  0.0916 -0.2771 -0.5666
 5705TIP3    H141310   1.354   6.707   2.566  2.3635 -0.2241 -1.8405
 5705TIP3    H241311   1.394   6.563   2.539 -1.1225 -1.7470  0.3682
 5706TIP3   OH241312   3.795   7.106   2.587  0.0020 -0.2466  0.0668
 5706TIP3    H141313   3.829   7.104   2.676  0.0598  3.1600  0.2381
 5706TIP3    H241314   3.812   7.018   2.553  0.9988 -1.3125  2.9939
 5707TIP3   OH241315   6.144   1.841   1.452 -0.0939 -0.2501 -0.6503
 5707TIP3    H141316   6.190   1.768   1.412  0.8822  0.1642 -0.3092
 5707TIP3    H241317   6.211   1.888   1.502 -0.6432  1.0132 -1.0488
 5708TIP3   OH241318   3.723   7.541   1.431 -0.2348  0.0613  0.6038
 5708TIP3    H141319   3.686   7.578   1.511  0.5236  1.2797  0.4170
 5708TIP3    H241320   3.762   7.616   1.386 -0.0529 -0.7190 -0.5818
 5709TIP3   OH241321   3.310   5.414   2.813 -0.2503 -0.2079  0.0987
 5709TIP3    H141322   3.281   5.481   2.875  0.0360 -0.4268  0.4700
 5709TIP3    H241323   3.325   5.336   2.866  2.0524  0.1827  0.1103
 5710TIP3   OH241324   2.791   4.176   0.634 -0.5552 -0.1253 -0.1860
 5710TIP3    H141325   2.856   4.246   0.624 -0.5710 -0.1710 -0.6452
 5710TIP3    H241326   2.717   4.205   0.581 -0.8108 -0.1965  0.1273
 5711TIP3   OH241327   6.557   1.835   2.987 -0.5771 -0.2784  0.1624
 5711TIP3    H141328   6.568   1.804   3.076  0.2228 -1.0888 -0.1921
 5711TIP3    H241329   6.494   1.776   2.948  0.9120 -1.5082 -0.5005
 5712TIP3   OH241330   0.367   6.234   2.786  0.2004  0.0678  0.3949
 5712TIP3    H141331   0.414   6.277   2.857  0.1204 -1.1813  1.2487
 5712TIP3    H241332   0.390   6.141   2.796  0.3224 -0.1048 -1.3342
 5713TIP3   OH241333   5.463   6.071   2.289 -0.4801  1.3787  0.4297
 5713TIP3    H141334   5.468   6.099   2.198  1.7486 -0.5544 -0.1456
 5713TIP3    H241335   5.372   6.085   2.314 -1.0375  2.3855 -1.9353
 5714TIP3   OH241336   4.761   7.114   2.224  0.9444  0.7661  0.0761
 5714TIP3    H141337   4.676   7.157   2.224  0.2756 -0.3895 -1.8198
 5714TIP3    H241338   4.745   7.030   2.268  0.7069 -0.0316 -1.4507
 5715TIP3   OH241339   0.850   1.786   1.770 -0.1638  0.3837 -0.0552
 5715TIP3    H141340   0.864   1.801   1.677 -0.4182 -0.6439 -0.2674
 5715TIP3    H241341   0.938   1.780   1.807 -0.0536 -0.3245 -0.4206
 5716TIP3   OH241342   5.013   2.415   1.360 -0.3967 -0.2173  0.2016
 5716TIP3    H141343   5.060   2.452   1.285 -1.0516  0.3633  0.0649
 5716TIP3    H241344   5.063   2.338   1.384  0.7723  0.5176  0.2080
 5717TIP3   OH241345   4.606   7.385   1.187 -0.6227  0.1188  0.0091
 5717TIP3    H141346   4.667   7.318   1.219  0.5253  0.9063 -0.4742
 5717TIP3    H241347   4.620   7.459   1.245 -0.4476  0.6195 -0.6591
 5718TIP3   OH241348   6.606   5.179   0.816  0.2911  0.1728 -0.1755
 5718TIP3    H141349   6.603   5.148   0.906 -0.2148 -0.0137 -0.2555
 5718TIP3    H241350   6.569   5.268   0.820 -0.3156 -0.0734 -0.2983
 5719TIP3   OH241351   2.262   0.083   2.625  0.5122  0.6766 -0.1436
 5719TIP3    H141352   2.217   0.114   2.704 -0.1758  0.0121 -0.2744
 5719TIP3    H241353   2.231  -0.006   2.613  2.9966 -0.3935  0.6375
 5720TIP3   OH241354   4.390   2.272   0.805  0.2253  0.7102 -0.2773
 5720TIP3    H141355   4.392   2.247   0.713  0.5110  1.6031 -0.5256
 5720TIP3    H241356   4.300   2.254   0.832 -0.1139  1.2744 -0.9854
 5721TIP3   OH241357   3.189   5.644   2.668  0.3321  0.1118 -0.4350
 5721TIP3    H141358   3.265   5.585   2.673 -0.2854 -0.6179  1.0333
 5721TIP3    H241359   3.217   5.722   2.716  1.8194  1.9204 -3.9185
 5722TIP3   OH241360   0.874   3.154   3.177  0.3838 -0.0658 -0.4034
 5722TIP3    H141361   0.883   3.133   3.084 -1.1276 -1.3559 -0.3013
 5722TIP3    H241362   0.808   3.223   3.181 -1.0347 -1.4027 -0.1848
 5723TIP3   OH241363   2.026   5.061   1.705  0.0220 -0.0214 -0.0898
 5723TIP3    H141364   2.099   5.022   1.754 -0.1848  1.8256  1.8969
 5723TIP3    H241365   2.068   5.112   1.636  0.5791  0.3126  0.4851
 5724TIP3   OH241366   3.231   7.295   0.524  1.0196 -0.0397  0.2406
 5724TIP3    H141367   3.151   7.296   0.471  0.4649  0.8210  1.0626
 5724TIP3    H241368   3.285   7.365   0.486  0.1425  1.3657  1.4741
 5725TIP3   OH241369   2.512   4.141   2.570 -0.2171 -0.6268  0.0765
 5725TIP3    H141370   2.464   4.083   2.630  1.6818 -0.6881  1.6035
 5725TIP3    H241371   2.582   4.178   2.623  0.2685  0.9656 -1.5969
 5726TIP3   OH241372   1.234   3.928   0.622  0.1371  0.3672 -0.0164
 5726TIP3    H141373   1.290   3.886   0.687 -0.3637 -0.1920  0.0657
 5726TIP3    H241374   1.211   3.858   0.562 -0.3684  0.6166 -0.1178
 5727TIP3   OH241375   5.749   3.419   2.536 -0.0541  0.5911 -0.4379
 5727TIP3    H141376   5.690   3.393   2.606 -1.0778  0.3195 -1.3624
 5727TIP3    H241377   5.803   3.341   2.520 -0.3586  0.3832 -0.4694
 5728TIP3   OH241378   5.559   0.049   0.620 -0.3286  0.1845  1.1077
 5728TIP3    H141379   5.476   0.010   0.594 -0.3946  1.7204 -1.2769
 5728TIP3    H241380   5.535   0.135   0.655  0.2085  0.5965  0.4994
 5729TIP3   OH241381   7.357   3.615   1.043 -0.4438  0.2239 -0.2594
 5729TIP3    H141382   7.426   3.673   1.074 -1.3964  0.5584  1.3453
 5729TIP3    H241383   7.281   3.637   1.097 -0.6747 -2.9650  0.9186
 5730TIP3   OH241384   7.129   0.626   2.081 -0.0189  0.1612 -0.1573
 5730TIP3    H141385   7.057   0.597   2.137  0.6201 -2.7962 -0.7206
 5730TIP3    H241386   7.203   0.637   2.140  0.1875 -1.1792 -0.1506
 5731TIP3   OH241387   0.116   2.058   2.361 -0.1167  0.0462  0.4623
 5731TIP3    H141388   0.044   2.070   2.300 -0.3971  1.3806  1.0130
 5731TIP3    H241389   0.170   1.989   2.323 -1.1275 -0.2437 -0.4737
 5732TIP3   OH241390   2.038   1.476   1.538  0.1975 -0.8089 -0.0714
 5732TIP3    H141391   2.076   1.391   1.559 -0.0531 -1.1577 -0.9598
 5732TIP3    H241392   1.961   1.455   1.485 -1.2258 -0.1095  1.6367
 5733TIP3   OH241393   2.084   0.177   2.279  0.4017  0.1703 -0.2040
 5733TIP3    H141394   2.175   0.160   2.302  0.0615  0.7299  1.6597
 5733TIP3    H241395   2.052   0.094   2.243  1.4374 -0.2309 -0.2180
 5734TIP3   OH241396   6.649   5.732   0.427 -0.4576 -0.1416  0.6155
 5734TIP3    H141397   6.564   5.731   0.472 -0.8409 -0.4315 -0.0877
 5734TIP3    H241398   6.676   5.640   0.424 -1.9747 -0.6317 -2.4817
 5735TIP3   OH241399   7.678   4.852   2.491  0.2285  0.1777  1.0471
 5735TIP3    H141400   7.743   4.795   2.532  0.1458 -0.3485  0.4621
 5735TIP3    H241401   7.671   4.819   2.401  1.3906  2.1603  0.1767
 5736TIP3   OH241402   6.884   5.784   3.220 -0.2758  0.9264  0.3212
 5736TIP3    H141403   6.978   5.802   3.220 -0.1498  0.3260 -0.4332
 5736TIP3    H241404   6.872   5.717   3.287 -0.1038  0.6907  0.1155
 5737TIP3   OH241405   3.007   5.696   1.805 -0.6162 -0.3726  0.7020
 5737TIP3    H141406   3.014   5.667   1.896 -0.6761  0.6946  1.0517
 5737TIP3    H241407   2.984   5.788   1.810 -1.0786 -0.4062 -0.4040
 5738TIP3   OH241408   4.077   7.577   1.174  0.4529  0.1868 -0.1940
 5738TIP3    H141409   4.171   7.560   1.165  0.5652 -0.0888  1.3083
 5738TIP3    H241410   4.052   7.614   1.089  2.1984  1.6085 -0.1505
 5739TIP3   OH241411   6.078   1.311   2.006 -0.0147  0.3897 -0.2229
 5739TIP3    H141412   5.995   1.359   2.013 -0.6491 -0.4546 -1.6715
 5739TIP3    H241413   6.053   1.222   1.982  1.3247  0.2232 -1.1139
 5740TIP3   OH241414   1.016   5.509   1.560 -0.5117  0.2786 -0.0742
 5740TIP3    H141415   1.011   5.427   1.510 -0.8453  0.0501  0.3201
 5740TIP3    H241416   1.087   5.558   1.519  1.4467 -1.2862  1.2318
 5741TIP3   OH241417   6.223   2.758   1.760 -0.1078  0.2634  0.5501
 5741TIP3    H141418   6.191   2.789   1.675  0.2503  0.2992  0.4255
 5741TIP3    H241419   6.317   2.748   1.748  0.2302  1.9504  1.4364
 5742TIP3   OH241420   5.653   7.007   2.118 -0.1696 -0.5656 -0.7521
 5742TIP3    H141421   5.572   6.985   2.164  0.2092 -0.9004 -0.2232
 5742TIP3    H241422   5.657   6.944   2.046  0.3661 -1.5698  0.1189
 5743TIP3   OH241423   5.224   4.723   7.894  0.2535  0.0612  0.1865
 5743TIP3    H141424   5.246   4.673   7.816 -4.0158  0.8478 -1.7904
 5743TIP3    H241425   5.213   4.656   7.962 -1.2212 -1.3091 -1.3124
 5744TIP3   OH241426   0.474   1.563   1.778  0.8233  0.4392 -0.0386
 5744TIP3    H141427   0.479   1.635   1.841 -0.2944 -0.9876  1.7711
 5744TIP3    H241428   0.400   1.587   1.722 -0.9408 -0.2147  1.8824
 5745TIP3   OH241429   6.546   2.120   0.651  0.8006 -0.3696 -0.2039
 5745TIP3    H141430   6.479   2.071   0.699  0.6001 -0.7416 -0.8451
 5745TIP3    H241431   6.501   2.153   0.574  1.1793  0.0108 -0.2656
 5746TIP3   OH241432   3.470   4.388   0.656  0.5875 -0.1974 -0.0188
 5746TIP3    H141433   3.447   4.299   0.683  1.2736 -0.4996 -0.3814
 5746TIP3    H241434   3.561   4.399   0.684  0.4131  0.5026  0.2882
 5747TIP3   OH241435   0.035   4.631   2.754  0.0160  0.0663 -0.3069
 5747TIP3    H141436   0.034   4.553   2.699  0.9716  0.0698 -0.3489
 5747TIP3    H241437   0.122   4.630   2.795 -0.5429  0.2364  0.9485
 5748TIP3   OH241438   7.038   3.260   1.985 -0.5490 -0.3276  0.0697
 5748TIP3    H141439   7.032   3.194   1.916  0.1035 -0.1557 -0.1573
 5748TIP3    H241440   7.124   3.299   1.974 -0.3250 -0.4708  1.1390
 5749TIP3   OH241441   0.797   7.336   2.194 -0.5518  0.2401 -0.7269
 5749TIP3    H141442   0.818   7.373   2.108 -0.5450  0.6076 -0.5696
 5749TIP3    H241443   0.882   7.325   2.237 -0.6035  0.7612 -0.4834
 5750TIP3   OH241444   7.305   5.322   1.408  0.2027 -0.8886  0.1261
 5750TIP3    H141445   7.378   5.383   1.414 -0.8702  0.2943  1.7805
 5750TIP3    H241446   7.253   5.353   1.333  1.3521 -1.7637 -1.0873
 5751TIP3   OH241447   7.052   5.962   1.500  0.0202  0.2298  0.5034
 5751TIP3    H141448   7.104   5.895   1.544  0.6402  0.6426  0.4145
 5751TIP3    H241449   6.996   5.997   1.569 -1.7782 -1.7316  0.1409
 5752TIP3   OH241450   4.820   4.313   3.063  0.0826 -0.6467  0.2247
 5752TIP3    H141451   4.736   4.348   3.093  0.6827  1.7602 -0.6538
 5752TIP3    H241452   4.883   4.384   3.079  1.5705 -1.6207 -0.9630
 5753TIP3   OH241453   3.230   3.881   1.410 -0.2750 -0.1305  0.2608
 5753TIP3    H141454   3.303   3.820   1.401  0.2731  0.4556  0.6714
 5753TIP3    H241455   3.240   3.941   1.336  0.0716  0.3630  0.6956
 5754TIP3   OH241456   0.085   3.903   1.995 -0.7991 -0.5115 -0.3648
 5754TIP3    H141457   0.008   3.950   2.028  1.1030  1.4344  1.6089
 5754TIP3    H241458   0.081   3.915   1.900 -1.3415  2.2400 -0.0872
 5755TIP3   OH241459   3.294   3.948   3.279 -0.4490 -0.8314 -0.3601
 5755TIP3    H141460   3.351   4.011   3.234 -0.3632 -0.3387  0.4219
 5755TIP3    H241461   3.352   3.876   3.302 -0.6732 -1.5273 -1.8280
 5756TIP3   OH241462   6.255   2.656   2.057  0.4263  0.6163 -0.6330
 5756TIP3    H141463   6.214   2.580   2.015 -1.2557  0.5351  1.0167
 5756TIP3    H241464   6.326   2.618   2.109  0.0777  0.2460 -0.4163
 5757TIP3   OH241465   1.560   3.480   2.612 -0.1279  0.6454  0.0474
 5757TIP3    H141466   1.502   3.546   2.573  0.2291  0.5379 -0.6920
 5757TIP3    H241467   1.518   3.458   2.695 -0.3935  1.6055  0.1860
 5758TIP3   OH241468   3.276   0.772   2.215 -0.7113 -0.4192  0.0506
 5758TIP3    H141469   3.319   0.757   2.131 -1.1626  0.7133 -0.4105
 5758TIP3    H241470   3.279   0.688   2.260 -2.1070 -1.5792 -1.8581
 5759TIP3   OH241471   4.819   6.081   2.677  0.0098  0.4639  0.1098
 5759TIP3    H141472   4.770   6.151   2.720 -0.5364 -0.2434  0.6620
 5759TIP3    H241473   4.878   6.049   2.745 -0.6915 -0.5042  0.2740
 5760TIP3   OH241474   1.612   3.780   1.691 -0.2763 -0.1356 -0.6302
 5760TIP3    H141475   1.637   3.832   1.767  0.4130 -0.1061 -0.8702
 5760TIP3    H241476   1.573   3.701   1.728  0.7021 -0.4499 -0.2153
 5761TIP3   OH241477   1.049   4.101   1.762 -0.4224  0.0978 -0.2826
 5761TIP3    H141478   1.036   4.191   1.792  1.1386 -0.3191  1.8611
 5761TIP3    H241479   1.125   4.106   1.705  0.2449  0.0160  0.5869
 5762TIP3   OH241480   6.291   3.914   2.313 -0.5686 -0.2535 -0.2094
 5762TIP3    H141481   6.210   3.964   2.321 -0.6880 -0.4131 -0.4204
 5762TIP3    H241482   6.289   3.854   2.387 -0.9716 -0.7280 -0.6068
 5763TIP3   OH241483   1.559   7.024   2.524  0.2567 -0.4103 -0.1607
 5763TIP3    H141484   1.622   7.081   2.568  1.3914 -1.3205 -0.5770
 5763TIP3    H241485   1.612   6.955   2.484 -1.1662 -2.9147  1.9259
 5764TIP3   OH241486   2.345   6.469   2.787 -0.7106 -0.0791 -0.2615
 5764TIP3    H141487   2.336   6.485   2.693 -0.2008  2.0500  0.0030
 5764TIP3    H241488   2.262   6.497   2.825 -1.5530 -2.4518 -0.1740
 5765TIP3   OH241489   6.294   0.747   1.642  0.2070  0.1312  0.3658
 5765TIP3    H141490   6.297   0.652   1.650 -1.4843 -0.2274 -2.0554
 5765TIP3    H241491   6.368   0.769   1.585  0.4871  0.2538  0.7736
 5766TIP3   OH241492   4.497   4.032   2.310 -0.0180  0.4096  0.0263
 5766TIP3    H141493   4.409   4.016   2.274  0.5595 -2.1061 -0.4956
 5766TIP3    H241494   4.485   4.025   2.404 -0.4547  0.4877 -0.0179
 5767TIP3   OH241495   3.021   0.673   1.547 -0.3306 -0.5289 -0.1379
 5767TIP3    H141496   3.010   0.742   1.612  0.6258  1.1778 -1.6576
 5767TIP3    H241497   2.934   0.664   1.507 -1.0067 -1.8234  1.5061
 5768TIP3   OH241498   7.162   0.777   2.506 -0.3260 -0.1007 -0.3478
 5768TIP3    H141499   7.123   0.728   2.578  0.2637 -1.7658 -1.1342
 5768TIP3    H241500   7.107   0.856   2.499 -1.3953 -0.7066  0.8195
 5769TIP3   OH241501   7.276   0.360   1.061  0.0494 -0.3463 -0.0114
 5769TIP3    H141502   7.214   0.416   1.015  0.8987  0.5865 -0.0572
 5769TIP3    H241503   7.289   0.403   1.145  2.1675  0.6523 -0.7606
 5770TIP3   OH241504   1.192   6.094   2.373 -0.2473 -0.0086 -0.5272
 5770TIP3    H141505   1.267   6.151   2.389 -0.2939  0.5119 -1.9980
 5770TIP3    H241506   1.231   6.008   2.355  0.0125  0.2231 -1.1273
 5771TIP3   OH241507   1.122   3.338   1.904 -1.0032 -1.0243  0.0818
 5771TIP3    H141508   1.092   3.323   1.814 -1.5590 -1.4929  0.3435
 5771TIP3    H241509   1.043   3.328   1.957 -0.7136 -0.5539  0.6056
 5772TIP3   OH241510   7.544   5.600   0.463 -0.1817 -0.1857 -0.2516
 5772TIP3    H141511   7.575   5.677   0.511 -1.8204  1.2611 -1.3670
 5772TIP3    H241512   7.602   5.594   0.387  0.9195 -1.0332  0.6300
 5773TIP3   OH241513   1.922   4.290   2.001 -0.3775  0.1024  0.0118
 5773TIP3    H141514   1.882   4.214   1.958  1.3341 -0.9363  0.1571
 5773TIP3    H241515   1.913   4.273   2.094 -1.1076  0.7274  0.0693
 5774TIP3   OH241516   0.682   0.077   2.232  0.1795  0.2298 -0.2639
 5774TIP3    H141517   0.630   0.000   2.210  1.1377 -0.5210 -0.0204
 5774TIP3    H241518   0.769   0.057   2.197  0.6478  0.8543  0.5103
 5775TIP3   OH241519   2.322   5.629   0.682  0.3236  0.3606 -0.7161
 5775TIP3    H141520   2.266   5.602   0.610 -1.1048  0.2125  0.4187
 5775TIP3    H241521   2.335   5.723   0.668  0.0955  0.3274 -1.1792
 5776TIP3   OH241522   1.504   3.267   1.734  0.4675  0.1522 -0.0663
 5776TIP3    H141523   1.579   3.296   1.682 -0.3545  0.1356 -1.3117
 5776TIP3    H241524   1.479   3.184   1.694 -0.3773  0.2930  0.1617
 5777TIP3   OH241525   2.422   5.840   3.141 -0.0055 -0.2146  0.6427
 5777TIP3    H141526   2.491   5.906   3.137  0.8953 -1.1408  0.5523
 5777TIP3    H241527   2.342   5.890   3.159  0.4424  1.0225 -0.6480
 5778TIP3   OH241528   6.230   7.127   2.626 -0.4409  0.9314  0.3164
 5778TIP3    H141529   6.268   7.160   2.707  1.1271  1.9455 -0.7669
 5778TIP3    H241530   6.151   7.081   2.653 -0.5209  2.1444  2.3029
 5779TIP3   OH241531   1.479   0.914   1.057 -0.2686 -0.5431  0.1889
 5779TIP3    H141532   1.472   0.831   1.010  1.0589 -0.1604 -0.7380
 5779TIP3    H241533   1.561   0.953   1.026 -1.0942  1.3588  0.2072
 5780TIP3   OH241534   6.354   2.341   0.831  0.7682 -0.2645 -0.2231
 5780TIP3    H141535   6.288   2.410   0.841  0.9761 -0.2616  1.4687
 5780TIP3    H241536   6.310   2.272   0.781 -1.3021 -1.1404  2.5450
 5781TIP3   OH241537   5.231   0.899   2.687 -0.3369  0.1804 -0.1013
 5781TIP3    H141538   5.137   0.880   2.682 -0.5068  1.0461 -0.4586
 5781TIP3    H241539   5.236   0.995   2.680  0.6264  0.0823 -0.9019
 5782TIP3   OH241540   1.727   2.370   3.093 -0.3331 -0.1689 -0.1769
 5782TIP3    H141541   1.700   2.357   3.002 -0.4369 -1.7875  0.0383
 5782TIP3    H241542   1.822   2.380   3.089 -0.2277 -1.1017 -0.4257
 5783TIP3   OH241543   1.928   2.979   2.802 -0.1158  0.3205  0.5054
 5783TIP3    H141544   1.938   2.936   2.888 -0.3026  0.5416  0.6393
 5783TIP3    H241545   1.864   3.048   2.818 -1.7104 -0.9162 -0.2608
 5784TIP3   OH241546   6.681   5.245   0.549 -0.1267  0.5760  0.3286
 5784TIP3    H141547   6.667   5.205   0.635 -1.9108 -0.9386 -0.5742
 5784TIP3    H241548   6.594   5.273   0.522  0.2398  0.2020 -1.3389
 5785TIP3   OH241549   3.225   6.907   1.822  0.4489 -0.3375  0.1661
 5785TIP3    H141550   3.160   6.856   1.775 -0.6527  1.8165 -0.7454
 5785TIP3    H241551   3.282   6.942   1.754 -1.1172  2.7529  0.2709
 5786TIP3   OH241552   5.289   2.095   1.463 -0.5804 -0.3719 -0.6277
 5786TIP3    H141553   5.277   2.017   1.516  1.6357  0.4110  1.1663
 5786TIP3    H241554   5.236   2.162   1.506  0.1091 -0.0838 -0.2195
 5787TIP3   OH241555   4.537   7.236   1.887 -0.0461 -0.1310  0.6540
 5787TIP3    H141556   4.621   7.235   1.841 -1.4803  0.1429 -2.2228
 5787TIP3    H241557   4.545   7.169   1.954  2.6500  0.3085  0.8886
 5788TIP3   OH241558   4.326   3.409   2.892 -0.0119  0.2217  0.4996
 5788TIP3    H141559   4.236   3.391   2.917 -0.0238 -0.1796  0.1900
 5788TIP3    H241560   4.338   3.502   2.909 -0.2189  0.0998  1.3535
 5789TIP3   OH241561   0.600   4.264   0.902 -0.6295 -0.4396 -0.0902
 5789TIP3    H141562   0.691   4.295   0.901 -0.8985  0.4232  0.6108
 5789TIP3    H241563   0.607   4.171   0.923  0.0486 -0.0591  1.5712
 5790TIP3   OH241564   1.632   3.307   2.329  0.3772 -0.3588 -0.7430
 5790TIP3    H141565   1.581   3.259   2.393 -0.9340  0.7196 -0.9276
 5790TIP3    H241566   1.722   3.303   2.362  0.1421 -1.9959 -0.2234
 5791TIP3   OH241567   0.902   0.451   1.256  0.4645  0.8299 -0.0658
 5791TIP3    H141568   0.971   0.493   1.308 -1.6632  2.7119  1.3819
 5791TIP3    H241569   0.892   0.507   1.179  0.1829  0.8274 -0.0297
 5792TIP3   OH241570   4.494   4.818   2.407  0.1091  0.2449 -0.2030
 5792TIP3    H141571   4.521   4.788   2.494  2.4652  2.2534 -0.1305
 5792TIP3    H241572   4.447   4.900   2.425  2.1543  1.6286 -0.8259
 5793TIP3   OH241573   6.704   5.170   1.416  0.5354  0.7179 -0.1588
 5793TIP3    H141574   6.759   5.092   1.422 -0.7996 -0.1649  1.7640
 5793TIP3    H241575   6.679   5.189   1.507 -2.7580  0.6831 -0.9192
 5794TIP3   OH241576   0.949   1.276   2.456 -0.1796 -0.0568 -0.2181
 5794TIP3    H141577   0.979   1.236   2.375 -0.7087  1.5108 -1.2413
 5794TIP3    H241578   0.929   1.202   2.513 -2.8104 -1.4040 -2.6174
 5795TIP3   OH241579   6.380   5.631   2.048  0.3468 -0.6786  0.0851
 5795TIP3    H141580   6.466   5.613   2.011  0.3367  0.1902 -0.3937
 5795TIP3    H241581   6.391   5.712   2.097 -0.4722  0.2000 -1.0949
 5796TIP3   OH241582   3.594   2.844   1.047  0.3804 -0.4006  0.4427
 5796TIP3    H141583   3.512   2.884   1.075  0.5133 -0.9883  1.7795
 5796TIP3    H241584   3.629   2.903   0.981 -1.5331 -0.5774 -0.7851
 5797TIP3   OH241585   3.066   6.375   2.664  0.0462 -0.6962  0.3450
 5797TIP3    H141586   3.119   6.397   2.587  0.8385 -3.8933 -0.1351
 5797TIP3    H241587   2.987   6.335   2.629 -0.8114  0.1688  1.1957
 5798TIP3   OH241588   6.899   2.462   3.079 -0.0054  0.2311 -0.4025
 5798TIP3    H141589   6.876   2.512   3.158  0.0578  0.3169 -0.4388
 5798TIP3    H241590   6.940   2.382   3.113  0.0925  0.3028 -0.3483
 5799TIP3   OH241591   3.426   6.801   2.043 -1.0184 -0.1498 -0.4056
 5799TIP3    H141592   3.395   6.865   1.979  0.7688  0.8851 -0.3099
 5799TIP3    H241593   3.392   6.717   2.011 -2.0347  0.6143 -1.4491
 5800TIP3   OH241594   1.047   6.423   1.141 -0.1123  0.5862  0.5107
 5800TIP3    H141595   1.027   6.399   1.231 -0.0633 -3.3192 -0.3555
 5800TIP3    H241596   0.962   6.423   1.096 -0.0007  1.3007  0.2811
 5801TIP3   OH241597   1.353   2.330   1.297  0.1938 -0.1701 -0.4176
 5801TIP3    H141598   1.316   2.276   1.226 -0.4896  0.0537 -0.2386
 5801TIP3    H241599   1.364   2.269   1.370 -0.5035 -0.0940 -0.2407
 5802TIP3   OH241600   2.820   5.180   0.666  0.1733  0.3753  0.0750
 5802TIP3    H141601   2.896   5.123   0.675 -0.2429 -0.1275  0.4650
 5802TIP3    H241602   2.840   5.255   0.722  0.2294  0.0673  0.4770
 5803TIP3   OH241603   7.032   5.448   0.631 -0.1815 -0.1272 -0.2819
 5803TIP3    H141604   7.099   5.425   0.566 -0.6161  1.7914 -1.5077
 5803TIP3    H241605   6.957   5.477   0.579 -0.7305  1.0103  1.0693
 5804TIP3   OH241606   6.395   1.589   1.783  0.3764  0.2158  0.8565
 5804TIP3    H141607   6.422   1.529   1.853 -0.9075 -0.4990  0.7791
 5804TIP3    H241608   6.304   1.609   1.803  0.2376  0.6548 -0.1659
 5805TIP3   OH241609   2.865   3.369   2.008 -1.0878  0.6614  0.2477
 5805TIP3    H141610   2.957   3.355   2.031 -0.1986  2.2532 -1.9890
 5805TIP3    H241611   2.832   3.282   1.988  0.5566  0.2563 -0.9518
 5806TIP3   OH241612   1.925   6.401   1.974  0.0220  0.1711  0.1721
 5806TIP3    H141613   1.853   6.443   1.927 -0.9241  0.1714  1.5394
 5806TIP3    H241614   1.931   6.313   1.936  0.9272  0.9595 -1.5878
 5807TIP3   OH241615   1.415   6.206   1.400 -0.2006  0.2768  0.3060
 5807TIP3    H141616   1.475   6.210   1.325  0.6760 -1.5065  0.8380
 5807TIP3    H241617   1.391   6.297   1.417  0.6667  0.8420 -1.2694
 5808TIP3   OH241618   6.755   5.141   2.031  0.1914 -0.0932 -0.1366
 5808TIP3    H141619   6.804   5.123   1.951  0.2617 -0.7817  0.0554
 5808TIP3    H241620   6.665   5.155   2.001  0.6302  2.1482 -0.6006
 5809TIP3   OH241621   7.135   6.259   2.922 -0.0851  0.2440  0.0208
 5809TIP3    H141622   7.157   6.183   2.975 -0.5395  0.4965  0.5898
 5809TIP3    H241623   7.205   6.322   2.939  1.0954 -0.5543 -1.5830
 5810TIP3   OH241624   5.004   4.259   0.928 -0.0882  0.0700  0.4353
 5810TIP3    H141625   5.061   4.304   0.865 -0.5422  1.6707  1.1117
 5810TIP3    H241626   4.923   4.309   0.926 -0.7840 -1.0100  0.9144
 5811TIP3   OH241627   6.265   6.909   2.466 -0.2104 -0.7839 -0.4028
 5811TIP3    H141628   6.257   6.989   2.519 -0.1889 -0.3396 -1.0521
 5811TIP3    H241629   6.179   6.869   2.470 -0.1830 -0.8135  0.0452
 5812TIP3   OH241630   5.857   7.674   1.609  0.0964  0.2919  0.1022
 5812TIP3    H141631   5.949   7.695   1.592  0.5195  0.2995  2.1326
 5812TIP3    H241632   5.815   7.759   1.620  0.4221  0.2795  1.7177
 5813TIP3   OH241633   6.383   0.720   2.338  0.0954 -0.5438  0.1219
 5813TIP3    H141634   6.475   0.727   2.365 -0.0241  2.2655  0.1682
 5813TIP3    H241635   6.382   0.751   2.248 -0.8116 -0.2888  0.2046
 5814TIP3   OH241636   0.154   7.528   1.267 -0.2272 -0.1572 -0.0679
 5814TIP3    H141637   0.180   7.441   1.297  0.9261 -0.0369 -0.6632
 5814TIP3    H241638   0.102   7.563   1.339  0.1704 -0.9332  0.6184
 5815TIP3   OH241639   2.468   0.132   3.082 -0.2920  0.0588  0.2454
 5815TIP3    H141640   2.379   0.132   3.117 -0.2973  0.9442  0.2461
 5815TIP3    H241641   2.463   0.183   3.001  0.2063  0.0839  0.2237
 5816TIP3   OH241642   4.661   1.038   1.474 -0.6404  0.3822 -0.3494
 5816TIP3    H141643   4.680   1.074   1.387 -1.0002 -2.2184 -1.5762
 5816TIP3    H241644   4.746   1.013   1.509 -0.7515 -2.0039 -1.6044
 5817TIP3   OH241645   0.196   3.776   0.869 -0.6270  0.3072  0.5818
 5817TIP3    H141646   0.107   3.786   0.835 -0.8463 -1.1881  0.6424
 5817TIP3    H241647   0.196   3.689   0.910  0.5462  0.7456  1.5693
 5818TIP3   OH241648   2.134   6.688   0.797  0.5171 -0.0702 -0.3430
 5818TIP3    H141649   2.220   6.709   0.759  0.0189 -1.0453 -2.1278
 5818TIP3    H241650   2.072   6.741   0.748 -0.0988 -0.9089 -0.4897
 5819TIP3   OH241651   5.778   3.940   0.805 -0.0172  0.6661  0.0082
 5819TIP3    H141652   5.795   3.860   0.854 -1.3696  0.8039  0.7356
 5819TIP3    H241653   5.798   3.917   0.714  0.0005 -0.3745  0.2686
 5820TIP3   OH241654   2.374   2.232   0.708  0.0816  0.0837 -0.2925
 5820TIP3    H141655   2.310   2.208   0.775  0.6898  0.4714  0.4427
 5820TIP3    H241656   2.425   2.302   0.747  1.3599 -0.6226 -0.6257
 5821TIP3   OH241657   5.184   3.270   1.378  0.2621 -0.1891  0.2160
 5821TIP3    H141658   5.214   3.355   1.412 -1.2290  0.3756  0.1886
 5821TIP3    H241659   5.125   3.237   1.445 -1.6040  0.2719 -1.1083
 5822TIP3   OH241660   0.355   7.311   1.367 -0.1079  0.7936 -0.0352
 5822TIP3    H141661   0.404   7.391   1.385  1.7965 -0.1134 -0.8784
 5822TIP3    H241662   0.423   7.244   1.355 -1.6508 -1.1005  1.2807
 5823TIP3   OH241663   0.167   6.648   1.424 -0.2062  0.3804 -0.0797
 5823TIP3    H141664   0.202   6.663   1.336 -0.8413  0.9609 -0.2464
 5823TIP3    H241665   0.119   6.729   1.445 -1.9250 -0.5768 -0.1146
 5824TIP3   OH241666   0.860   0.696   0.784 -0.1817 -0.8084  0.0377
 5824TIP3    H141667   0.942   0.652   0.759 -0.7929 -1.9357 -0.0376
 5824TIP3    H241668   0.876   0.788   0.766  2.2309 -0.4954  2.9713
 5825TIP3   OH241669   1.901   0.589   0.935  0.3003  0.0124 -0.2834
 5825TIP3    H141670   1.812   0.602   0.968  0.3232  1.7620 -0.8425
 5825TIP3    H241671   1.930   0.676   0.908  2.2774 -0.4905  0.0900
 5826TIP3   OH241672   4.531   0.392   2.284 -0.2400 -0.0389 -0.5173
 5826TIP3    H141673   4.450   0.379   2.234  0.3693 -0.0505 -1.5290
 5826TIP3    H241674   4.571   0.470   2.244 -1.1749  1.8342  1.9073
 5827TIP3   OH241675   4.323   0.741   1.971 -0.0007 -0.4747  0.1996
 5827TIP3    H141676   4.284   0.700   2.048 -2.0354  0.7668 -0.0807
 5827TIP3    H241677   4.331   0.671   1.907  0.3198 -1.2121  1.0294
 5828TIP3   OH241678   6.617   6.419   1.650  0.1971  0.5886 -0.1856
 5828TIP3    H141679   6.692   6.396   1.706  0.9508  1.1400 -0.9361
 5828TIP3    H241680   6.615   6.515   1.652 -1.0853  0.5713  0.5624
 5829TIP3   OH241681   6.243   0.844   2.953  0.5509  0.2354 -0.6538
 5829TIP3    H141682   6.303   0.793   2.899 -0.0847  0.2144 -1.3667
 5829TIP3    H241683   6.176   0.874   2.891  0.3458  1.0431 -0.0473
 5830TIP3   OH241684   6.582   6.101   2.691 -0.1876 -0.9112 -0.2116
 5830TIP3    H141685   6.594   6.182   2.741 -0.9784 -1.1165  0.3311
 5830TIP3    H241686   6.514   6.122   2.627  0.0340 -0.9742 -0.4702
 5831TIP3   OH241687   0.561   4.114   1.738 -0.1433 -0.1709  0.3556
 5831TIP3    H141688   0.647   4.073   1.728 -0.0074  0.3263 -0.6777
 5831TIP3    H241689   0.549   4.124   1.832  1.0289 -0.0431  0.4976
 5832TIP3   OH241690   3.304   3.532   1.896 -0.1066 -0.1197  0.0104
 5832TIP3    H141691   3.283   3.617   1.856  1.2053 -0.1728 -0.8558
 5832TIP3    H241692   3.373   3.552   1.960  0.4134 -0.5627 -0.4045
 5833TIP3   OH241693   6.426   6.816   1.446  0.2304  0.2958 -0.0750
 5833TIP3    H141694   6.510   6.791   1.408  0.2703 -0.9478  0.7610
 5833TIP3    H241695   6.386   6.733   1.471 -0.9515  0.9171  0.1656
 5834TIP3   OH241696   4.021   6.006   1.352  0.3504 -0.0047 -0.1337
 5834TIP3    H141697   4.028   6.100   1.369 -0.4751 -0.0236  0.3574
 5834TIP3    H241698   3.987   6.000   1.263  0.3317  0.1638 -0.1379
 5835TIP3   OH241699   3.075   5.268   1.649 -0.4860 -0.3063  0.1614
 5835TIP3    H141700   3.120   5.276   1.564 -1.6149 -1.3468 -0.5716
 5835TIP3    H241701   3.134   5.215   1.702 -1.6060 -3.4448 -1.4696
 5836TIP3   OH241702   7.629   5.826   0.591  0.1032 -0.6213  0.3641
 5836TIP3    H141703   7.615   5.888   0.520 -2.0082 -1.0508  0.3556
 5836TIP3    H241704   7.617   5.878   0.671  3.1041  0.0114  0.5128
 5837TIP3   OH241705   5.305   0.635   1.293 -0.3641  0.2552  0.2596
 5837TIP3    H141706   5.210   0.641   1.306 -0.1508  0.4833  1.9221
 5837TIP3    H241707   5.333   0.725   1.282 -0.2875  0.2237  0.1974
 5838TIP3   OH241708   6.476   3.316   1.394 -0.1232 -0.4858 -0.3078
 5838TIP3    H141709   6.569   3.315   1.372 -0.4434 -1.7457 -1.7620
 5838TIP3    H241710   6.449   3.225   1.388 -1.9393  0.0992 -2.1742
 5839TIP3   OH241711   1.301   0.462   0.656 -0.4730  0.0750 -0.0419
 5839TIP3    H141712   1.254   0.511   0.724  0.1647 -0.7755  1.0332
 5839TIP3    H241713   1.275   0.371   0.669 -0.0206 -0.1589 -0.6900
 5840TIP3   OH241714   4.112   2.951   2.017 -0.2911  0.3991  0.0160
 5840TIP3    H141715   4.045   2.886   1.994 -0.1626  0.3546 -0.2320
 5840TIP3    H241716   4.179   2.901   2.064 -0.1856  0.3503 -0.1869
 5841TIP3   OH241717   3.048   4.964   0.751 -0.1037 -0.5521  0.1700
 5841TIP3    H141718   3.091   4.927   0.828 -2.2113 -0.2870  1.5670
 5841TIP3    H241719   3.026   4.888   0.697  2.7918 -0.6326 -1.0329
 5842TIP3   OH241720   0.377   3.552   2.602 -0.0462 -0.2408  0.8741
 5842TIP3    H141721   0.441   3.607   2.555 -0.0785  0.5048  1.6793
 5842TIP3    H241722   0.354   3.484   2.539 -0.6247  1.1272 -0.4680
 5843TIP3   OH241723   4.553   1.390   0.779  0.3667  0.2962  0.0416
 5843TIP3    H141724   4.605   1.451   0.832 -0.2607 -0.2592  1.3603
 5843TIP3    H241725   4.617   1.330   0.741  0.7204 -0.4414  1.7168
 5844TIP3   OH241726   0.441   7.112   3.408  0.6847  0.6117 -0.1676
 5844TIP3    H141727   0.404   7.023   3.413  0.1305  0.8891  0.9011
 5844TIP3    H241728   0.483   7.115   3.322  1.4996 -1.0001  0.1243
 5845TIP3   OH241729   5.947   1.331   2.998 -0.1913 -0.0846  0.1627
 5845TIP3    H141730   6.015   1.369   2.942 -1.6071  1.5217 -0.5763
 5845TIP3    H241731   5.985   1.334   3.086  0.5127  1.3433 -0.1483
 5846TIP3   OH241732   0.583   0.840   2.395 -0.1219 -0.0350  0.1083
 5846TIP3    H141733   0.523   0.766   2.387  0.9927 -0.7824 -2.5043
 5846TIP3    H241734   0.641   0.816   2.467 -0.1343 -1.4863 -0.3257
 5847TIP3   OH241735   4.360   6.976   1.079 -0.0176  0.8124 -0.3367
 5847TIP3    H141736   4.344   6.920   1.003 -1.7634 -0.1467  0.6730
 5847TIP3    H241737   4.422   7.042   1.048  0.8375 -0.7144 -2.0218
 5848TIP3   OH241738   6.992   3.696   1.835 -0.0915 -0.5890 -0.2338
 5848TIP3    H141739   6.946   3.736   1.761 -0.9682 -1.3576 -0.1335
 5848TIP3    H241740   6.922   3.655   1.887  0.5163 -0.1453  0.9673
 5849TIP3   OH241741   2.916   6.686   2.884 -0.1938  0.2258 -0.3943
 5849TIP3    H141742   2.871   6.672   2.800 -0.6381 -1.2496  0.0758
 5849TIP3    H241743   3.000   6.726   2.859 -0.0243 -0.8169 -1.6071
 5850TIP3   OH241744   6.139   3.389   1.088 -0.3118  0.9401  0.0242
 5850TIP3    H141745   6.146   3.335   1.010 -0.3360  0.7234  0.1704
 5850TIP3    H241746   6.073   3.345   1.142 -0.7310  1.4128 -0.0971
 5851TIP3   OH241747   0.126   2.580   0.579 -0.2998 -0.6710 -0.3039
 5851TIP3    H141748   0.073   2.575   0.659  0.1027 -1.9894 -0.0966
 5851TIP3    H241749   0.063   2.597   0.510 -0.5615  1.3760  0.3683
 5852TIP3   OH241750   6.193   6.576   0.929 -0.3760 -0.3779  0.4756
 5852TIP3    H141751   6.201   6.560   1.023  1.6096 -1.3866  0.1932
 5852TIP3    H241752   6.257   6.517   0.889 -1.0319  0.1688 -1.5020
 5853TIP3   OH241753   2.288   0.613   1.348  0.3686 -0.0452 -0.1756
 5853TIP3    H141754   2.224   0.597   1.279  0.1617 -0.6330  0.1370
 5853TIP3    H241755   2.332   0.529   1.360  0.0478 -0.0999  0.7435
 5854TIP3   OH241756   7.650   2.289   1.540 -0.2542 -0.1120 -0.0311
 5854TIP3    H141757   7.735   2.255   1.566 -0.0196  0.0224 -0.6108
 5854TIP3    H241758   7.590   2.258   1.608  0.2266 -0.3363  0.2970
 5855TIP3   OH241759   4.442   3.196   2.770  0.4578 -0.0853 -0.1618
 5855TIP3    H141760   4.433   3.274   2.825  1.5046 -0.7280  0.9566
 5855TIP3    H241761   4.363   3.145   2.788 -1.4449  1.7501 -2.7027
 5856TIP3   OH241762   6.468   6.456   2.586  0.2136 -0.1129 -0.2436
 5856TIP3    H141763   6.502   6.463   2.496  0.3467  0.1949 -0.1709
 5856TIP3    H241764   6.440   6.545   2.608  1.1252  0.0325  0.3881
 5857TIP3   OH241765   3.227   7.418   1.065  0.0673 -0.7448 -0.0002
 5857TIP3    H141766   3.205   7.382   0.979  2.8164  0.1399 -1.1753
 5857TIP3    H241767   3.281   7.351   1.106  0.5504 -0.2777  0.1327
 5858TIP3   OH241768   6.350   1.380   1.581 -0.0781 -0.1452  0.0298
 5858TIP3    H141769   6.395   1.440   1.642 -0.2455  0.1694 -0.1558
 5858TIP3    H241770   6.420   1.347   1.525 -0.2836  1.6115 -1.3372
 5859TIP3   OH241771   6.164   0.434   1.094 -0.3822 -0.0062  0.7704
 5859TIP3    H141772   6.157   0.447   1.189 -1.0916  1.0165  0.5982
 5859TIP3    H241773   6.073   0.433   1.064 -0.1867 -1.0796  0.1817
 5860TIP3   OH241774   3.055   3.277   2.925 -0.4220 -0.4765 -0.4727
 5860TIP3    H141775   2.968   3.293   2.891 -0.7321 -0.0777  0.4609
 5860TIP3    H241776   3.063   3.336   3.000  0.4183 -0.9417 -0.1745
 5861TIP3   OH241777   3.006   0.510   0.907  0.1109 -0.1810  0.0223
 5861TIP3    H141778   3.023   0.517   1.001 -0.1190  0.5453  0.0177
 5861TIP3    H241779   3.080   0.460   0.872  0.6207  0.2545  0.4669
 5862TIP3   OH241780   6.568   6.445   1.116  0.1128 -0.4067  0.5036
 5862TIP3    H141781   6.582   6.425   1.209  2.5517  1.6031  0.6828
 5862TIP3    H241782   6.557   6.540   1.113 -0.8870 -0.5351 -1.1920
 5863TIP3   OH241783   0.741   3.530   1.495 -0.5600 -0.1020  0.4852
 5863TIP3    H141784   0.781   3.588   1.559 -1.1806 -0.9247  1.6642
 5863TIP3    H241785   0.738   3.581   1.414  4.1967 -0.4667 -0.1837
 5864TIP3   OH241786   1.393   3.213   3.122 -0.6179  0.0851  0.2924
 5864TIP3    H141787   1.471   3.159   3.133  0.4874  1.0986 -1.9925
 5864TIP3    H241788   1.326   3.168   3.173  0.6897 -2.4716 -0.0741
 5865TIP3   OH241789   6.061   3.827   1.890  0.6645 -0.1884  0.0014
 5865TIP3    H141790   6.072   3.756   1.826  0.3188 -0.2136 -0.0321
 5865TIP3    H241791   6.066   3.784   1.975 -0.3003 -0.3749 -0.0231
 5866TIP3   OH241792   6.205   4.234   0.545  0.3179  0.1922  0.0892
 5866TIP3    H141793   6.292   4.268   0.565 -0.3207  1.1548  1.4388
 5866TIP3    H241794   6.198   4.154   0.598  0.3873  0.1078 -0.0292
 5867TIP3   OH241795   0.419   6.300   1.175 -0.4568 -0.3718 -0.0075
 5867TIP3    H141796   0.410   6.205   1.167 -1.6899 -0.2856  0.2551
 5867TIP3    H241797   0.337   6.335   1.142  0.0618  0.6308 -0.2813
 5868TIP3   OH241798   2.324   2.977   0.842 -0.6506  0.0192  0.3736
 5868TIP3    H141799   2.239   2.979   0.799  0.4135  0.7574 -1.8697
 5868TIP3    H241800   2.341   3.067   0.867  0.2536  0.2638 -0.9756
 5869TIP3   OH241801   1.608   0.532   2.421  0.9190 -0.7850  0.0227
 5869TIP3    H141802   1.620   0.627   2.415 -0.1546 -0.6037  0.4083
 5869TIP3    H241803   1.684   0.495   2.376  1.7417  0.2466  0.5102
 5870TIP3   OH241804   4.225   5.940   2.243 -0.3174 -0.2053 -0.4827
 5870TIP3    H141805   4.252   5.959   2.153 -2.0688 -0.8164 -1.1777
 5870TIP3    H241806   4.239   6.023   2.290  1.0175 -0.0009 -1.1849
 5871TIP3   OH241807   7.671   1.907   2.130  0.0406 -0.2929  0.2370
 5871TIP3    H141808   7.595   1.912   2.189  0.6179 -1.9138  1.1832
 5871TIP3    H241809   7.726   1.839   2.168  1.4963  0.1379 -1.0035
 5872TIP3   OH241810   7.367   6.165   0.496 -0.2655  0.0714  0.1960
 5872TIP3    H141811   7.315   6.120   0.430  1.0123 -0.1196 -0.7349
 5872TIP3    H241812   7.315   6.160   0.576 -0.1758 -3.2732  0.2187
 5873TIP3   OH241813   0.645   6.445   2.227 -0.2576 -0.2191  0.2063
 5873TIP3    H141814   0.616   6.476   2.312 -0.0557  0.0710  0.1728
 5873TIP3    H241815   0.655   6.525   2.174 -0.9529 -0.4370 -0.2745
 5874TIP3   OH241816   2.192   1.350   3.271  0.1634 -0.2647 -0.3549
 5874TIP3    H141817   2.245   1.401   3.333  0.4295  0.8014 -1.4147
 5874TIP3    H241818   2.255   1.292   3.229  0.2384 -0.0203 -0.5853
 5875TIP3   OH241819   0.943   4.492   0.715 -0.0263  0.2214 -0.5883
 5875TIP3    H141820   0.933   4.408   0.671 -1.5072 -0.0084  0.1019
 5875TIP3    H241821   0.965   4.469   0.806  0.4242  0.6114 -0.5930
 5876TIP3   OH241822   6.258   1.682   3.221 -0.4785  0.0259  0.3897
 5876TIP3    H141823   6.241   1.740   3.147  0.0970  0.1117  0.3221
 5876TIP3    H241824   6.196   1.710   3.289 -0.3145  0.6161  0.2998
 5877TIP3   OH241825   5.390   2.206   0.770  0.6011  0.2710 -0.3323
 5877TIP3    H141826   5.380   2.142   0.840  2.2537  2.0501  1.6657
 5877TIP3    H241827   5.301   2.235   0.751  0.0612 -0.7546  0.5441
 5878TIP3   OH241828   3.014   6.727   1.125  0.5954  0.4379 -0.2662
 5878TIP3    H141829   3.101   6.767   1.134 -0.1692  2.0707  0.1588
 5878TIP3    H241830   3.024   6.667   1.051  1.8157  1.3830 -0.9162
 5879TIP3   OH241831   1.813   4.624   0.820  0.4581  0.1445  0.1214
 5879TIP3    H141832   1.908   4.620   0.835  0.1817  2.1895  3.1775
 5879TIP3    H241833   1.795   4.717   0.803 -0.9963 -0.2462 -0.6285
 5880TIP3   OH241834   0.807   5.772   1.915  0.0752  0.5369 -0.2491
 5880TIP3    H141835   0.795   5.697   1.857 -0.5024 -0.8000  1.5256
 5880TIP3    H241836   0.891   5.809   1.889 -1.1042  1.3815 -3.3827
 5881TIP3   OH241837   0.367   7.500   0.584  0.0432 -0.1899 -0.3556
 5881TIP3    H141838   0.289   7.490   0.529 -0.3534 -0.2658  0.2074
 5881TIP3    H241839   0.414   7.418   0.574  1.0018  0.5428 -2.1259
 5882TIP3   OH241840   3.457   3.586   1.055  0.1893  0.0822 -0.1649
 5882TIP3    H141841   3.373   3.600   1.011 -0.3913 -0.8681  0.6104
 5882TIP3    H241842   3.517   3.563   0.983 -0.4455 -0.2042 -0.6154
 5883TIP3   OH241843   3.991   6.866   1.929  0.1279 -0.1885 -0.8633
 5883TIP3    H141844   3.903   6.827   1.930  0.6650 -1.4539 -1.2003
 5883TIP3    H241845   4.004   6.896   2.019  0.2733 -2.1924 -0.1635
 5884TIP3   OH241846   6.805   7.380   3.446 -0.6083  0.4061 -0.0114
 5884TIP3    H141847   6.872   7.355   3.510 -1.2991  0.4797  0.7534
 5884TIP3    H241848   6.855   7.416   3.373  0.3670 -1.8147 -0.5500
 5885TIP3   OH241849   4.971   5.728   0.985  0.6008 -0.2437 -0.0873
 5885TIP3    H141850   4.977   5.671   0.908 -2.6186 -0.9529  0.0688
 5885TIP3    H241851   5.026   5.803   0.962  2.0020 -1.7032 -1.8521
 5886TIP3   OH241852   0.116   3.343   2.642 -0.0583  0.7079  0.4270
 5886TIP3    H141853   0.104   3.429   2.682 -2.5259  0.6292  0.0121
 5886TIP3    H241854   0.108   3.360   2.548  1.1282  0.2386  0.2244
 5887TIP3   OH241855   6.482   7.356   1.615  0.7024 -0.3591 -0.0500
 5887TIP3    H141856   6.411   7.414   1.643  1.6369  1.7564 -1.7888
 5887TIP3    H241857   6.505   7.306   1.694 -1.2010  0.4650  1.1034
 5888TIP3   OH241858   0.657   0.487   1.480 -0.4066  0.0454 -0.0071
 5888TIP3    H141859   0.578   0.539   1.495 -0.5012 -0.0074 -0.3084
 5888TIP3    H241860   0.728   0.552   1.475 -0.4424  0.0995  0.1728
 5889TIP3   OH241861   2.858   5.262   1.806  0.1207 -0.2228  0.1926
 5889TIP3    H141862   2.938   5.258   1.754  0.4352  0.6015  0.5881
 5889TIP3    H241863   2.834   5.355   1.806 -1.9145 -0.6564 -1.4984
 5890TIP3   OH241864   1.721   4.369   0.546  0.4580 -0.1643  0.0021
 5890TIP3    H141865   1.754   4.391   0.633 -1.3475 -0.3934  0.7900
 5890TIP3    H241866   1.665   4.442   0.522 -1.0667 -1.2280  0.1720
 5891TIP3   OH241867   6.435   3.666   1.585  0.1292  0.3746 -0.6720
 5891TIP3    H141868   6.468   3.693   1.670  3.5014  0.6151 -1.9055
 5891TIP3    H241869   6.404   3.576   1.598  1.9571 -0.1249  0.5116
 5892TIP3   OH241870   0.513   5.116   1.430  0.1160  0.3888  0.6386
 5892TIP3    H141871   0.490   5.053   1.361  0.9062  0.8715 -0.0763
 5892TIP3    H241872   0.432   5.126   1.480 -0.3017 -0.4413  0.1571
 5893TIP3   OH241873   4.673   6.188   1.722  0.1706  0.3597 -0.4067
 5893TIP3    H141874   4.630   6.138   1.792  0.6373  0.6687  0.1152
 5893TIP3    H241875   4.608   6.253   1.696 -0.0810  0.1136 -0.3975
 5894TIP3   OH241876   1.609   5.709   2.858  0.2025 -0.7243 -0.1412
 5894TIP3    H141877   1.619   5.789   2.909 -0.9011 -1.3593  1.1270
 5894TIP3    H241878   1.581   5.643   2.921 -0.8107 -1.6508 -1.4985
 5895TIP3   OH241879   2.400   2.912   2.002  0.1800  0.1129  0.0332
 5895TIP3    H141880   2.426   2.823   2.023 -1.1527 -0.3139 -0.0229
 5895TIP3    H241881   2.367   2.907   1.913  0.9529  0.8616 -0.3085
 5896TIP3   OH241882   2.704   3.004   1.363 -0.8565  0.2852 -0.8096
 5896TIP3    H141883   2.786   2.997   1.412 -1.3512  0.7298  0.1072
 5896TIP3    H241884   2.731   3.015   1.272  0.1302  1.1971 -0.4286
 5897TIP3   OH241885   0.228   1.009   1.018 -0.0368 -0.0729 -0.4189
 5897TIP3    H141886   0.266   1.055   0.943  0.1718 -0.0621 -0.3065
 5897TIP3    H241887   0.149   1.058   1.040 -1.3559 -1.3318 -2.0534
 5898TIP3   OH241888   0.479   3.968   2.415  0.3031  0.0037  0.8287
 5898TIP3    H141889   0.481   4.055   2.455  0.9975  0.4673 -0.1728
 5898TIP3    H241890   0.418   3.978   2.341  3.6766  0.9979 -2.1248
 5899TIP3   OH241891   7.016   4.344   0.870 -0.0861 -0.2575  0.0426
 5899TIP3    H141892   6.926   4.362   0.841 -0.0286  1.5618  0.8599
 5899TIP3    H241893   7.020   4.379   0.959  0.7930 -2.4252  0.8983
 5900TIP3   OH241894   7.098   5.399   2.423 -0.2749 -0.0553  0.6070
 5900TIP3    H141895   7.147   5.327   2.383  0.5363  1.1292 -0.6672
 5900TIP3    H241896   7.088   5.462   2.352 -0.8519  1.1425  1.7152
 5901TIP3   OH241897   6.492   4.843   0.840 -0.2969  0.0183 -0.0443
 5901TIP3    H141898   6.512   4.937   0.837 -0.3482  0.0004 -1.6443
 5901TIP3    H241899   6.563   4.805   0.892 -0.0673  0.8848  0.2909
 5902TIP3   OH241900   5.002   6.073   2.248  0.1190 -0.4625 -0.2122
 5902TIP3    H141901   5.080   6.121   2.277 -0.0628  0.8129 -1.6935
 5902TIP3    H241902   5.019   5.982   2.272  3.4068 -0.7794 -2.9933
 5903TIP3   OH241903   2.769   2.197   1.075  0.7004 -0.1319  0.6183
 5903TIP3    H141904   2.819   2.279   1.073  0.3669  0.0513 -0.9744
 5903TIP3    H241905   2.804   2.145   1.003  0.2158 -0.9762  0.9787
 5904TIP3   OH241906   3.634   0.424   0.786  0.3352  0.2751 -0.7437
 5904TIP3    H141907   3.574   0.379   0.727  1.9711 -1.7462 -0.9956
 5904TIP3    H241908   3.580   0.486   0.834 -2.3782 -2.7736  0.4669
 5905TIP3   OH241909   5.745   0.140   2.592  0.5386  0.1551 -0.3021
 5905TIP3    H141910   5.838   0.147   2.570  0.2456  0.6109 -1.4760
 5905TIP3    H241911   5.729   0.046   2.599  1.4074  0.0977  1.4758
 5906TIP3   OH241912   0.091   6.864   1.643  0.1169 -0.0732 -0.1340
 5906TIP3    H141913   0.141   6.822   1.713  0.4856  0.2535 -0.1975
 5906TIP3    H241914   0.006   6.819   1.643 -0.1833  0.4370  1.0466
 5907TIP3   OH241915   0.810   3.351   1.256 -0.0497 -0.4666 -0.3207
 5907TIP3    H141916   0.749   3.391   1.318 -1.8146 -2.6310 -0.5237
 5907TIP3    H241917   0.852   3.425   1.212 -0.6769  1.1049  1.6081
 5908TIP3   OH241918   1.679   1.295   1.539  0.3191  0.2929  0.5547
 5908TIP3    H141919   1.736   1.331   1.471  0.2750  1.7586  1.2549
 5908TIP3    H241920   1.593   1.288   1.497  0.0176  2.2722  0.7302
 5909TIP3   OH241921   2.872   0.285   0.687 -0.2512 -0.5263  0.0675
 5909TIP3    H141922   2.895   0.258   0.776  1.1101 -0.3555 -0.2157
 5909TIP3    H241923   2.889   0.379   0.685 -0.9407 -0.4035 -0.1804
 5910TIP3   OH241924   4.116   0.161   1.663  0.3796 -0.3623  0.4382
 5910TIP3    H141925   4.089   0.109   1.738  1.6944 -0.9362  0.5374
 5910TIP3    H241926   4.091   0.108   1.587 -0.0729 -0.2269  0.4920
 5911TIP3   OH241927   2.499   3.169   0.999  0.5181 -0.0485  0.8331
 5911TIP3    H141928   2.547   3.088   0.980 -0.5482 -0.7438  1.0438
 5911TIP3    H241929   2.427   3.142   1.056 -1.0152  0.7050 -0.6718
 5912TIP3   OH241930   7.083   7.273   0.566  0.3872 -0.2276 -0.5863
 5912TIP3    H141931   7.151   7.212   0.539 -0.4939 -1.0958 -0.8885
 5912TIP3    H241932   7.002   7.224   0.556 -0.1519  0.1122  1.6808
 5913TIP3   OH241933   0.949   3.794   2.152 -0.5720  0.3018 -0.4173
 5913TIP3    H141934   0.984   3.838   2.075  0.2174  1.2782  0.4559
 5913TIP3    H241935   0.934   3.865   2.215  1.9325 -0.6755  1.5053
 5914TIP3   OH241936   0.539   3.285   2.633 -0.2927  0.3880  0.0489
 5914TIP3    H141937   0.504   3.321   2.715 -2.7109  1.3645 -1.2998
 5914TIP3    H241938   0.629   3.317   2.630  1.0694 -2.3531  3.7764
 5915TIP3   OH241939   5.947   4.800   2.095  0.0706  0.3922  0.1992
 5915TIP3    H141940   5.994   4.820   2.176 -0.6053  0.0655  0.6847
 5915TIP3    H241941   6.015   4.791   2.029  0.6098  1.0761  0.6404
 5916TIP3   OH241942   5.707   4.500   2.945  0.4380  0.0951  0.2049
 5916TIP3    H141943   5.670   4.572   2.894 -0.4092  0.3124  1.0868
 5916TIP3    H241944   5.647   4.489   3.019  1.4579 -0.3891  1.0061
 5917TIP3   OH241945   3.742   5.874   0.775  0.6131  0.6243  0.2301
 5917TIP3    H141946   3.707   5.846   0.690  2.4039  0.7919 -0.6087
 5917TIP3    H241947   3.672   5.854   0.838 -0.3724 -0.3949 -1.1394
 5918TIP3   OH241948   0.709   7.649   2.641 -0.0284 -0.5983  0.5623
 5918TIP3    H141949   0.711   7.599   2.560  1.0845 -0.8062  0.6964
 5918TIP3    H241950   0.726   7.584   2.710 -0.5295 -0.3523  0.9302
 5919TIP3   OH241951   5.728   5.979   0.555  0.1476 -0.0319 -0.1914
 5919TIP3    H141952   5.687   6.060   0.586 -0.1975  0.7312 -2.4612
 5919TIP3    H241953   5.655   5.921   0.534  0.3850 -1.6790  2.9870
 5920TIP3   OH241954   4.984   4.316   2.224  0.1340 -0.2934  0.7837
 5920TIP3    H141955   4.894   4.289   2.243 -0.6404  1.8815  0.5773
 5920TIP3    H241956   4.978   4.358   2.138  1.1547  0.6640  1.1540
 5921TIP3   OH241957   2.772   4.144   2.388  0.1060 -0.4831  0.6631
 5921TIP3    H141958   2.681   4.171   2.374 -0.1068 -0.5530  1.8381
 5921TIP3    H241959   2.805   4.204   2.455  1.4375  0.5701 -0.8240
 5922TIP3   OH241960   6.578   0.899   1.078  0.1268  0.4742 -0.4412
 5922TIP3    H141961   6.500   0.845   1.078  1.0422 -0.9014 -0.5026
 5922TIP3    H241962   6.625   0.874   0.998  0.5585  1.3931 -0.4905
 5923TIP3   OH241963   4.655   2.780   2.084  0.2436  0.0139  0.4884
 5923TIP3    H141964   4.656   2.751   1.993  0.1028 -1.4427  0.9192
 5923TIP3    H241965   4.709   2.859   2.085  1.5267 -0.8025 -0.5769
 5924TIP3   OH241966   6.072   2.996   1.911  0.5505 -0.5241 -0.7675
 5924TIP3    H141967   6.050   3.084   1.878 -0.6981 -0.1784  0.8534
 5924TIP3    H241968   6.014   2.937   1.862 -0.7167 -0.1062  0.1866
 5925TIP3   OH241969   4.225   4.270   1.457  0.0269 -0.5757 -1.0289
 5925TIP3    H141970   4.320   4.259   1.460  0.0850  0.0642  1.1477
 5925TIP3    H241971   4.191   4.203   1.517 -0.8817 -0.6073 -1.5663
 5926TIP3   OH241972   1.367   2.959   1.227  0.1312 -0.3415 -0.0051
 5926TIP3    H141973   1.376   3.021   1.155 -0.7606  0.8081  0.8389
 5926TIP3    H241974   1.302   2.896   1.196  2.0077 -1.6779 -1.3834
 5927TIP3   OH241975   3.511   5.451   1.227 -1.0530  0.2934  0.0368
 5927TIP3    H141976   3.435   5.406   1.191 -0.8783  0.4963 -0.6006
 5927TIP3    H241977   3.474   5.519   1.284 -1.3776  0.7684 -0.7150
 5928TIP3   OH241978   1.147   2.279   2.384 -0.2412 -0.4599  0.1413
 5928TIP3    H141979   1.169   2.372   2.390  0.6606 -0.6822  0.4650
 5928TIP3    H241980   1.184   2.241   2.464 -1.9539 -0.8464  0.7841
 5929TIP3   OH241981   0.984   7.479   1.158  0.3205  0.5629 -0.1132
 5929TIP3    H141982   0.895   7.466   1.191 -0.5149  2.4083 -1.4855
 5929TIP3    H241983   1.021   7.391   1.154 -1.6897 -0.3349 -0.1989
 5930TIP3   OH241984   6.364   6.105   1.216 -0.3643  0.6589  0.3927
 5930TIP3    H141985   6.274   6.084   1.241 -0.2537  1.8114  1.9433
 5930TIP3    H241986   6.364   6.200   1.204  0.6760  0.6893  0.5171
 5931TIP3   OH241987   5.345   1.802   0.734 -0.2111 -0.2230 -0.5926
 5931TIP3    H141988   5.304   1.715   0.729 -0.0719 -0.4972  1.6214
 5931TIP3    H241989   5.316   1.836   0.819 -0.3861  2.0013 -1.4812
 5932TIP3   OH241990   5.241   3.956   0.757  0.6111 -0.8209  0.1962
 5932TIP3    H141991   5.311   4.005   0.801  0.1721  2.0993 -2.0892
 5932TIP3    H241992   5.170   3.953   0.821  0.3681  2.3777  0.2411
 5933TIP3   OH241993   6.940   6.552   1.049  0.9692  0.2359  0.4038
 5933TIP3    H141994   6.916   6.486   1.114  0.5760  1.5199  1.6061
 5933TIP3    H241995   6.894   6.526   0.969 -0.5550  0.0087  1.3369
 5934TIP3   OH241996   1.448   1.959   3.054  0.5409 -0.3385 -0.5131
 5934TIP3    H141997   1.522   2.011   3.086 -0.1500  1.1048 -1.2246
 5934TIP3    H241998   1.406   1.927   3.133 -0.7630  2.6500  0.1187
 5935TIP3   OH241999   0.375   1.516   2.491 -0.3236 -0.1121  0.0809
 5935TIP3    H142000   0.399   1.460   2.565 -1.1500 -1.7850 -0.8366
 5935TIP3    H242001   0.366   1.604   2.529 -0.1011 -0.7947  1.8292
 5936TIP3   OH242002   7.237   7.016   1.654 -0.2211  0.1548 -0.2158
 5936TIP3    H142003   7.269   7.066   1.729 -0.1855 -0.6014  0.2885
 5936TIP3    H242004   7.313   6.966   1.625 -0.6233 -0.7692  0.2612
 5937TIP3   OH242005   0.548   4.735   2.118  0.0598  0.8210 -0.0586
 5937TIP3    H142006   0.531   4.697   2.032  0.2950 -0.2868  0.3558
 5937TIP3    H242007   0.467   4.781   2.141 -0.0863  0.9245 -0.7691
 5938TIP3   OH242008   4.234   2.380   1.353  0.0564 -0.5649 -0.1515
 5938TIP3    H142009   4.323   2.381   1.388  0.7156 -2.2435 -1.5980
 5938TIP3    H242010   4.183   2.332   1.417  0.1850  0.3589  0.6632
 5939TIP3   OH242011   5.817   1.622   1.468 -0.4768 -0.6477  0.2123
 5939TIP3    H142012   5.863   1.539   1.456  2.0014  0.8076 -1.0629
 5939TIP3    H242013   5.747   1.620   1.403  0.7535 -0.9766 -1.1497
 5940TIP3   OH242014   4.733   3.120   2.332  0.4543  0.2356 -0.4327
 5940TIP3    H142015   4.743   3.025   2.338  1.6058  0.3370 -0.5345
 5940TIP3    H242016   4.669   3.142   2.400  0.4947 -0.5619 -0.1296
 5941TIP3   OH242017   6.043   1.853   2.316 -0.2737 -0.2746  0.1526
 5941TIP3    H142018   6.008   1.839   2.228  0.6630  3.3652 -0.9841
 5941TIP3    H242019   6.124   1.802   2.317 -0.5613 -0.7860 -0.9043
 5942TIP3   OH242020   0.232   0.118   0.572 -0.6153  0.3451  0.1655
 5942TIP3    H142021   0.149   0.084   0.606 -0.4317  1.7767  2.2465
 5942TIP3    H242022   0.282   0.040   0.549 -1.4306 -0.6837  1.6796
 5943TIP3   OH242023   1.200   2.922   2.382  0.1635 -0.3672 -0.3631
 5943TIP3    H142024   1.249   2.978   2.322 -0.8312 -1.2387 -2.0811
 5943TIP3    H242025   1.265   2.866   2.423  0.8226 -0.1097 -1.0463
 5944TIP3   OH242026   6.669   3.753   1.089 -0.0376  0.3727  0.8687
 5944TIP3    H142027   6.742   3.807   1.118  1.5730 -2.6504  2.9388
 5944TIP3    H242028   6.657   3.689   1.159 -1.9082 -1.8594 -1.3296
 5945TIP3   OH242029   7.154   5.604   2.244 -0.3287  0.5074  0.1130
 5945TIP3    H142030   7.219   5.581   2.178  0.1834 -0.3451  0.8919
 5945TIP3    H242031   7.175   5.694   2.269  1.0805 -0.0148  0.9287
 5946TIP3   OH242032   1.625   6.477   1.099 -0.3306 -0.3006 -0.4093
 5946TIP3    H142033   1.573   6.537   1.152  1.1698 -0.0567  0.8749
 5946TIP3    H242034   1.642   6.402   1.157 -1.1243 -1.4178 -1.5677
 5947TIP3   OH242035   6.987   6.806   2.397 -0.7393  0.6283 -0.7556
 5947TIP3    H142036   7.040   6.795   2.476  0.1866  2.1199 -1.1309
 5947TIP3    H242037   6.959   6.717   2.375 -1.6160  0.2442  1.6075
 5948TIP3   OH242038   2.439   3.993   1.652 -0.2499 -0.3737  0.0563
 5948TIP3    H142039   2.503   3.937   1.696  0.3351  0.4145  0.2326
 5948TIP3    H242040   2.398   4.042   1.724 -0.5615 -0.3757 -0.1202
 5949TIP3   OH242041   7.057   0.493   3.707 -0.3281 -0.1887 -0.2142
 5949TIP3    H142042   6.993   0.427   3.682  1.0943 -0.9985 -1.9623
 5949TIP3    H242043   7.053   0.559   3.637  1.9479 -1.1898 -1.4081
 5950TIP3   OH242044   0.946   7.043   1.115 -0.2237 -0.2251  0.1664
 5950TIP3    H142045   0.928   7.058   1.023  1.3908  1.3740  0.0578
 5950TIP3    H242046   1.019   6.980   1.115  0.8422  0.9719  0.2649
 5951TIP3   OH242047   6.742   1.471   1.518 -0.0778  0.5903  0.1310
 5951TIP3    H142048   6.744   1.416   1.439  1.5000  0.2836  0.3445
 5951TIP3    H242049   6.703   1.553   1.489  0.6711  0.5625 -1.0445
 5952TIP3   OH242050   0.071   2.023   2.970 -0.6980 -0.1625  0.5938
 5952TIP3    H142051   0.039   2.048   2.883 -1.0281  0.2963  0.8456
 5952TIP3    H242052   0.164   2.005   2.957 -0.5420  0.7941  0.3278
 5953TIP3   OH242053   1.911   7.413   0.937  0.3106 -0.3445  0.3720
 5953TIP3    H142054   1.970   7.408   1.013 -0.2571  1.9224  1.0212
 5953TIP3    H242055   1.823   7.421   0.976 -0.1034 -0.2770 -0.5605
 5954TIP3   OH242056   3.885   3.217   1.606  0.2969 -0.5536  0.2243
 5954TIP3    H142057   3.953   3.248   1.667  0.9181  0.8020 -1.0777
 5954TIP3    H242058   3.910   3.255   1.521 -2.6553  0.8910 -0.1308
 5955TIP3   OH242059   5.896   6.741   1.577  0.4187 -0.2466  0.2307
 5955TIP3    H142060   5.816   6.757   1.526  0.3896 -0.8258  0.0883
 5955TIP3    H242061   5.938   6.827   1.582  0.8136 -0.3031 -1.4369
 5956TIP3   OH242062   0.053   6.996   7.740  0.2935  0.2947 -0.2825
 5956TIP3    H142063   0.132   6.944   7.724  0.4976  1.0062 -1.7349
 5956TIP3    H242064  -0.019   6.939   7.714  0.1696 -0.9056  2.4228
 5957TIP3   OH242065   4.175   4.484   0.911 -0.2918 -0.6399  0.6575
 5957TIP3    H142066   4.230   4.559   0.888 -1.7786  0.5184  0.6911
 5957TIP3    H242067   4.154   4.497   1.003 -2.4243  0.2333  0.1156
 5958TIP3   OH242068   7.320   4.298   1.410  0.0898  0.1598  0.3954
 5958TIP3    H142069   7.331   4.213   1.453  2.1577  0.1585 -0.0350
 5958TIP3    H242070   7.376   4.294   1.333 -0.8242  1.4445 -0.3767
 5959TIP3   OH242071   2.868   2.940   2.180 -0.3558 -0.0116  0.7167
 5959TIP3    H142072   2.785   2.985   2.165 -0.0137  0.4374  0.1158
 5959TIP3    H242073   2.932   3.011   2.188  0.0666 -0.3745  0.5595
 5960TIP3   OH242074   5.478   6.557   1.514 -0.1547  0.2443  0.0907
 5960TIP3    H142075   5.519   6.511   1.588  1.0266  0.8878 -0.1412
 5960TIP3    H242076   5.552   6.592   1.464 -1.0021  2.5615  0.3743
 5961TIP3   OH242077   5.009   3.850   1.510 -0.1059 -0.3982  0.4719
 5961TIP3    H142078   5.029   3.888   1.596  0.7326 -1.2449  0.6756
 5961TIP3    H242079   4.914   3.858   1.502  0.0024  1.5123  0.5834
 5962TIP3   OH242080   4.925   1.491   1.676 -0.3455  0.3028 -0.0706
 5962TIP3    H142081   4.970   1.489   1.591 -1.0465 -1.9636 -0.4718
 5962TIP3    H242082   4.832   1.500   1.654 -0.4407  0.7717  0.5125
 5963TIP3   OH242083   1.237   7.047   0.910 -0.2158  0.2965 -0.2004
 5963TIP3    H142084   1.215   6.980   0.974  2.6066 -1.2211 -0.6288
 5963TIP3    H242085   1.186   7.024   0.832 -1.0413  0.0754  0.3973
 5964TIP3   OH242086   1.127   1.269   1.660  0.1183 -0.3167 -0.6470
 5964TIP3    H142087   1.099   1.230   1.577 -0.8492 -0.0154 -0.4774
 5964TIP3    H242088   1.047   1.278   1.711  0.4088  1.2159 -0.4061
 5965TIP3   OH242089   3.158   0.244   1.494  0.3236 -0.1333  0.7102
 5965TIP3    H142090   3.132   0.218   1.583 -1.4905  0.2931  0.3398
 5965TIP3    H242091   3.084   0.296   1.462  1.6226  1.0621 -0.4845
 5966TIP3   OH242092   0.334   1.588   2.233  0.2963  0.2572 -0.0698
 5966TIP3    H142093   0.407   1.558   2.178 -0.9515 -1.8103 -0.7200
 5966TIP3    H242094   0.343   1.536   2.313 -0.3175  0.1297 -0.0780
 5967TIP3   OH242095   3.812   7.208   0.768  0.2257 -0.1508  0.5623
 5967TIP3    H142096   3.758   7.151   0.822  1.9311 -0.7626  1.6922
 5967TIP3    H242097   3.871   7.251   0.829  0.7416  0.8153 -0.5752
 5968TIP3   OH242098   3.399   2.124   2.264  0.5890  0.5665 -0.5105
 5968TIP3    H142099   3.349   2.182   2.206  0.2499  1.0157  0.2166
 5968TIP3    H242100   3.476   2.100   2.214 -0.0162  0.4251 -1.3963
 5969TIP3   OH242101   5.359   7.456   0.809  0.6280  0.4936 -0.2732
 5969TIP3    H142102   5.454   7.442   0.813  0.6232  0.7569  0.9840
 5969TIP3    H242103   5.322   7.371   0.834  0.5411  0.6952  0.2837
 5970TIP3   OH242104   1.065   0.953   1.276  0.3793 -0.4968 -0.0418
 5970TIP3    H142105   1.081   1.043   1.303 -2.0310 -0.1819  0.4986
 5970TIP3    H242106   1.134   0.902   1.319 -0.8370  0.5114  3.4139
 5971TIP3   OH242107   1.748   1.522   1.139 -0.2266  0.2651 -0.4781
 5971TIP3    H142108   1.673   1.574   1.111 -0.2974  0.5302  0.1630
 5971TIP3    H242109   1.802   1.513   1.061 -0.3437  1.0917 -0.6667
 5972TIP3   OH242110   6.345   1.063   0.567 -0.1588  0.5943 -0.2378
 5972TIP3    H142111   6.341   0.969   0.556 -1.2437  0.4691  0.9453
 5972TIP3    H242112   6.270   1.097   0.517  1.0707  0.9981 -1.8893
 5973TIP3   OH242113   1.226   4.445   1.503 -0.2059 -0.3518 -0.3891
 5973TIP3    H142114   1.291   4.480   1.564 -2.0671  0.2363  1.3626
 5973TIP3    H242115   1.256   4.475   1.417  2.5123 -1.2256  0.1440
 5974TIP3   OH242116   7.093   0.640   2.992  0.5931 -0.4340  0.1243
 5974TIP3    H142117   7.033   0.576   3.032 -0.6727  1.4156  1.4234
 5974TIP3    H242118   7.111   0.702   3.063  0.9048  1.2223 -1.3422
 5975TIP3   OH242119   0.307   1.132   0.780 -0.1433  0.2837  0.1448
 5975TIP3    H142120   0.278   1.223   0.791  1.2052  0.5733  1.7085
 5975TIP3    H242121   0.393   1.139   0.737 -0.6662 -0.3567 -1.0579
 5976TIP3   OH242122   1.709   7.479   2.817 -0.0014  0.3468  0.1386
 5976TIP3    H142123   1.791   7.465   2.864  0.2455  0.8750 -0.1262
 5976TIP3    H242124   1.697   7.574   2.817 -0.7191  0.2598  0.3542
 5977TIP3   OH242125   3.524   1.067   1.055  0.1437  0.4253 -0.1717
 5977TIP3    H142126   3.502   1.146   1.104  1.0193 -0.5837  1.9284
 5977TIP3    H242127   3.599   1.030   1.100 -1.4741 -2.7497  0.2067
 5978TIP3   OH242128   6.084   4.864   2.330  0.0260  0.3148 -0.1639
 5978TIP3    H142129   6.151   4.928   2.355  1.2154 -1.0527  0.2466
 5978TIP3    H242130   6.127   4.779   2.338 -2.6458 -0.9575  3.3649
 5979TIP3   OH242131   1.634   6.901   1.553 -0.2497 -0.3051 -0.5091
 5979TIP3    H142132   1.701   6.953   1.508  0.9302  0.4073  1.8486
 5979TIP3    H242133   1.564   6.964   1.571  0.0510 -0.1368  0.1138
 5980TIP3   OH242134   2.797   5.026   2.410 -0.1621  0.1199 -0.6678
 5980TIP3    H142135   2.739   5.030   2.486  0.9254 -1.0462  0.2821
 5980TIP3    H242136   2.870   4.970   2.439 -0.6351 -1.9654 -3.1804
 5981TIP3   OH242137   3.329   7.232   2.720  0.1488  0.4619  0.0019
 5981TIP3    H142138   3.402   7.194   2.671  0.7630 -0.9958  1.9113
 5981TIP3    H242139   3.255   7.174   2.702  0.1514  0.4231  0.1138
 5982TIP3   OH242140   5.546   3.896   1.225 -0.3346 -0.5672  0.4479
 5982TIP3    H142141   5.641   3.885   1.214 -0.4548 -0.2534 -1.0725
 5982TIP3    H242142   5.531   3.989   1.210 -0.8123 -0.4772  1.4196
 5983TIP3   OH242143   0.123   2.236   1.906 -0.2797  0.0906  0.2135
 5983TIP3    H142144   0.073   2.155   1.911  1.3017 -0.9745 -0.3442
 5983TIP3    H242145   0.182   2.233   1.981 -0.9595  1.3055  0.8396
 5984TIP3   OH242146   6.118   5.486   1.075 -0.3487  0.2839  0.0152
 5984TIP3    H142147   6.183   5.438   1.127 -0.0759 -0.8703 -1.3019
 5984TIP3    H242148   6.092   5.559   1.130 -2.5855 -2.5908  3.2183
 5985TIP3   OH242149   6.026   7.291   2.533 -0.0754  1.0356 -0.1662
 5985TIP3    H142150   6.103   7.239   2.552 -0.9032  0.6313  2.4489
 5985TIP3    H242151   5.993   7.257   2.450  2.0594  0.6796 -0.9133
 5986TIP3   OH242152   6.628   7.578   2.508 -0.0477 -0.0923 -0.2362
 5986TIP3    H142153   6.551   7.536   2.548 -0.4170  0.9687  0.1974
 5986TIP3    H242154   6.657   7.516   2.442 -1.3422 -0.4802 -0.4651
 5987TIP3   OH242155   1.672   1.536   1.749 -0.1532 -0.0021 -0.0642
 5987TIP3    H142156   1.668   1.458   1.693  1.2669 -0.2964  0.2073
 5987TIP3    H242157   1.686   1.609   1.689  0.4180 -0.2032 -0.1830
 5988TIP3   OH242158   0.061   3.280   1.953 -0.0551 -0.3012  0.6937
 5988TIP3    H142159   0.150   3.255   1.928 -0.4085 -0.4752 -0.4641
 5988TIP3    H242160   0.052   3.248   2.043  0.4741 -1.8336  0.2326
 5989TIP3   OH242161   6.422   2.252   1.095  0.2648  0.1943  0.0042
 5989TIP3    H142162   6.415   2.157   1.087  2.3063 -0.0407  0.5558
 5989TIP3    H242163   6.398   2.286   1.008  1.7980 -0.9909 -0.9267
 5990TIP3   OH242164   5.997   7.325   2.948 -0.0930 -0.5386  0.2265
 5990TIP3    H142165   5.962   7.273   3.021  0.0652  0.9842  1.4398
 5990TIP3    H242166   5.932   7.315   2.878 -2.0278  0.6157  1.7356
 5991TIP3   OH242167   2.219   5.986   1.388  0.2295  0.0696 -0.8515
 5991TIP3    H142168   2.203   5.927   1.314  0.0438 -1.8764  0.6697
 5991TIP3    H242169   2.281   5.939   1.443 -1.2786  0.4931  1.3006
 5992TIP3   OH242170   7.008   2.547   2.696  0.2841  0.5227 -0.0393
 5992TIP3    H142171   7.097   2.580   2.680  0.5110 -0.1132 -0.1273
 5992TIP3    H242172   6.962   2.561   2.613  0.1622  1.2789  0.1518
 5993TIP3   OH242173   4.790   4.750   1.001  0.0432  0.0342  0.4952
 5993TIP3    H142174   4.776   4.811   1.073 -1.2235 -1.0424  1.2082
 5993TIP3    H242175   4.705   4.709   0.987  0.9048 -1.7760  0.2457
 5994TIP3   OH242176   7.229   3.645   2.111  0.2627  0.2999  0.3027
 5994TIP3    H142177   7.248   3.634   2.018 -1.8970 -1.1339 -0.0603
 5994TIP3    H242178   7.188   3.732   2.117  0.3171  0.3555 -0.1017
 5995TIP3   OH242179   7.239   2.622   0.483 -0.2480  0.7029 -0.2955
 5995TIP3    H142180   7.221   2.688   0.550  0.2414  0.2179  0.3264
 5995TIP3    H242181   7.236   2.670   0.401  0.2603  1.5314  0.1596
 5996TIP3   OH242182   3.094   4.370   2.392  0.0369 -0.0174 -0.7344
 5996TIP3    H142183   3.071   4.373   2.299 -1.7467 -2.9896 -0.5432
 5996TIP3    H242184   3.018   4.407   2.437 -0.2122 -0.8995 -0.4062
 5997TIP3   OH242185   6.698   5.795   2.040 -0.1669 -0.4403  0.1541
 5997TIP3    H142186   6.632   5.838   2.095  0.2960 -0.3540  0.6506
 5997TIP3    H242187   6.761   5.864   2.019 -0.9855 -0.1452 -1.5665
 5998TIP3   OH242188   0.213   7.587   2.919  0.3518  0.0328  0.2886
 5998TIP3    H142189   0.185   7.648   2.851 -0.3814 -0.2734  0.2995
 5998TIP3    H242190   0.270   7.525   2.873 -0.1566 -0.1853 -0.0718
 5999TIP3   OH242191   3.870   5.133   1.825  0.2617  0.0219 -0.3523
 5999TIP3    H142192   3.930   5.058   1.827 -1.4905 -1.4846 -1.3885
 5999TIP3    H242193   3.827   5.132   1.910  1.0274  0.5719  0.0584
 6000TIP3   OH242194   4.015   3.149   2.158  0.5894 -0.1620  0.4026
 6000TIP3    H142195   3.960   3.196   2.095  0.8587  0.0852  0.3531
 6000TIP3    H242196   4.068   3.090   2.105 -0.0815 -0.8776  0.4984
 6001TIP3   OH242197   2.290   5.270   1.319  0.1057 -0.4638 -0.1007
 6001TIP3    H142198   2.349   5.344   1.324  0.8496 -1.0038 -0.7193
 6001TIP3    H242199   2.298   5.238   1.229 -1.6165 -0.1537 -0.3952
 6002TIP3   OH242200   5.706   7.083   0.650  0.2161 -0.3113 -0.1754
 6002TIP3    H142201   5.760   7.158   0.672 -0.4538  0.8440 -2.1750
 6002TIP3    H242202   5.768   7.016   0.621  0.7601 -0.2589  0.8295
 6003TIP3   OH242203   7.167   6.345   0.391  0.5851 -0.1130  0.8030
 6003TIP3    H142204   7.262   6.348   0.388  0.6330  0.6838  2.3334
 6003TIP3    H242205   7.145   6.252   0.385  1.4165 -0.2572 -0.1718
 6004TIP3   OH242206   5.692   5.519   0.420 -0.6290  0.4476 -0.0926
 6004TIP3    H142207   5.742   5.536   0.339 -1.6455  0.1506 -0.8040
 6004TIP3    H242208   5.673   5.425   0.416 -1.6335  0.6398 -0.0712
 6005TIP3   OH242209   7.371   2.235   1.633 -0.1497 -0.0881 -0.0631
 6005TIP3    H142210   7.369   2.295   1.708  0.7205 -0.4377  0.2444
 6005TIP3    H242211   7.366   2.293   1.556  0.4971  0.3667  0.2373
 6006TIP3   OH242212   2.868   7.228   1.517  0.7094 -0.1023 -0.5751
 6006TIP3    H142213   2.838   7.140   1.541  1.0581 -0.3889 -1.1618
 6006TIP3    H242214   2.859   7.279   1.597 -0.5705 -0.3770 -0.5169
 6007TIP3   OH242215   5.050   5.635   2.669  0.2564 -0.1986  0.0214
 6007TIP3    H142216   4.985   5.585   2.719 -0.9864 -0.3053 -1.6076
 6007TIP3    H242217   5.096   5.569   2.616  0.6869  0.0437  0.0906
 6008TIP3   OH242218   5.013   6.929   3.046  0.1427  0.0824  0.1684
 6008TIP3    H142219   5.045   7.012   3.082 -0.5606 -0.4431  2.1342
 6008TIP3    H242220   5.017   6.941   2.951  0.8642  2.0412  0.4003
 6009TIP3   OH242221   6.778   7.605   1.110 -0.2194  0.0393 -0.0346
 6009TIP3    H142222   6.715   7.625   1.179 -0.2114 -2.4331  0.7973
 6009TIP3    H242223   6.748   7.523   1.072  0.4563  0.7244 -2.2207
 6010TIP3   OH242224   1.264   7.488   2.434 -0.0037  0.3244  0.3144
 6010TIP3    H142225   1.261   7.394   2.451 -0.1879 -0.1928 -2.2526
 6010TIP3    H242226   1.347   7.516   2.474  1.2338 -1.4110 -0.8574
 6011TIP3   OH242227   6.343   4.884   2.041  0.1194  0.0252 -0.1046
 6011TIP3    H142228   6.276   4.821   2.016  0.3521 -0.0949 -0.4306
 6011TIP3    H242229   6.396   4.839   2.107  0.2726 -0.1109 -0.3215
 6012TIP3   OH242230   1.991   1.110   3.268  0.2476 -0.0897  0.1718
 6012TIP3    H142231   2.010   1.033   3.322 -1.3285 -0.2961  0.4946
 6012TIP3    H242232   2.068   1.166   3.277  1.1454 -1.3267  0.4572
 6013TIP3   OH242233   6.196   0.478   1.968 -0.3870  0.3232 -0.2420
 6013TIP3    H142234   6.275   0.527   1.992  0.8655 -0.7424 -1.9760
 6013TIP3    H242235   6.187   0.413   2.037  1.2641 -0.6167 -0.8603
 6014TIP3   OH242236   4.990   7.098   3.347 -0.1308 -0.0165  0.0521
 6014TIP3    H142237   5.047   7.168   3.378 -1.4856  0.8583  0.6782
 6014TIP3    H242238   4.941   7.137   3.275  1.0673 -1.2152 -1.4787
 6015TIP3   OH242239   1.084   1.191   0.918 -0.2126 -0.0698 -0.6755
 6015TIP3    H142240   1.110   1.278   0.888  0.3653 -0.2337 -0.6665
 6015TIP3    H242241   1.026   1.208   0.992 -2.3747  0.3623 -2.3633
 6016TIP3   OH242242   0.556   5.829   0.919  0.3188  0.1495  0.1650
 6016TIP3    H142243   0.648   5.828   0.896  0.1682 -2.2764 -0.6024
 6016TIP3    H242244   0.510   5.829   0.835 -0.3891  0.7629  0.5358
 6017TIP3   OH242245   4.479   1.952   2.237  0.0290  0.1677 -0.0275
 6017TIP3    H142246   4.513   1.981   2.152 -0.4884  1.9797  0.3555
 6017TIP3    H242247   4.467   2.032   2.288 -0.1357 -0.8385  1.6065
 6018TIP3   OH242248   1.423   4.240   2.788  0.3001 -0.3529  0.0668
 6018TIP3    H142249   1.426   4.295   2.710  1.1254 -1.6416 -0.8489
 6018TIP3    H242250   1.442   4.152   2.756 -2.3551 -1.4643  1.2563
 6019TIP3   OH242251   1.281   5.554   1.125  0.8016  0.8169 -0.1997
 6019TIP3    H142252   1.318   5.491   1.063 -0.6420  0.9493 -1.2425
 6019TIP3    H242253   1.317   5.638   1.097 -1.6381  1.2567 -2.4886
 6020TIP3   OH242254   3.051   6.554   1.585 -0.7906  0.0981  0.0152
 6020TIP3    H142255   3.084   6.565   1.495 -0.0738 -2.0946 -0.0454
 6020TIP3    H242256   3.046   6.459   1.597 -0.3030  0.3287  2.5087
 6021TIP3   OH242257   3.901   5.408   2.877 -0.5714  0.0251 -0.0778
 6021TIP3    H142258   3.942   5.323   2.892 -0.5353 -0.0031 -0.3345
 6021TIP3    H242259   3.969   5.471   2.901 -0.5365 -0.0193 -0.0577
 6022TIP3   OH242260   1.620   6.226   2.788 -0.1947 -0.2033 -0.5641
 6022TIP3    H142261   1.704   6.272   2.786 -2.1347  3.6936 -2.0127
 6022TIP3    H242262   1.642   6.135   2.766  3.6044  0.6291 -0.8326
 6023TIP3   OH242263   5.911   2.772   1.804 -0.8689  0.5687 -0.1767
 6023TIP3    H142264   5.942   2.700   1.860  1.5845 -0.1709 -2.2559
 6023TIP3    H242265   5.829   2.740   1.768 -2.0495  0.6988  2.1890
 6024TIP3   OH242266   2.524   5.252   3.045  0.0760 -0.0257 -0.2055
 6024TIP3    H142267   2.584   5.185   3.078  1.2904  0.6796 -0.9645
 6024TIP3    H242268   2.544   5.260   2.952  1.2305  2.6696  0.2075
 6025TIP3   OH242269   3.408   1.292   2.177  0.1112  0.0399 -0.3717
 6025TIP3    H142270   3.460   1.318   2.253  1.2374 -0.4499 -0.9321
 6025TIP3    H242271   3.363   1.212   2.205  2.5751 -1.6789 -0.9626
 6026TIP3   OH242272   1.363   3.067   0.947 -0.3641 -0.0567  0.1455
 6026TIP3    H142273   1.417   2.990   0.930 -1.1155 -0.9426  1.5993
 6026TIP3    H242274   1.274   3.039   0.927 -0.3965  1.2603 -1.8118
 6027TIP3   OH242275   3.696   5.410   1.445 -0.5772 -0.1248  0.3384
 6027TIP3    H142276   3.667   5.408   1.354 -0.4606  1.9294  0.2102
 6027TIP3    H242277   3.686   5.320   1.476 -1.5961 -0.6388 -1.3904
 6028TIP3   OH242278   1.719   0.390   1.062  0.2632  0.0270 -0.1307
 6028TIP3    H142279   1.718   0.376   1.156  0.7773 -1.0712 -0.2704
 6028TIP3    H242280   1.810   0.373   1.036 -0.3983 -2.4415 -1.1677
 6029TIP3   OH242281   3.603   0.666   1.822 -0.1155 -0.0903 -0.2377
 6029TIP3    H142282   3.624   0.755   1.794 -0.2186 -0.2716 -0.9094
 6029TIP3    H242283   3.598   0.616   1.741  0.3709 -0.8055  0.1687
 6030TIP3   OH242284   6.737   3.335   1.464  0.5309 -0.4377 -0.0677
 6030TIP3    H142285   6.794   3.299   1.395 -1.0500 -0.0732 -1.6457
 6030TIP3    H242286   6.747   3.274   1.537  1.3930 -1.5092 -1.0298
 6031TIP3   OH242287   5.717   3.300   1.522  0.7533  0.0404  0.7278
 6031TIP3    H142288   5.633   3.267   1.490  0.2241  1.9289  0.0448
 6031TIP3    H242289   5.760   3.335   1.444  0.9432  1.5875  1.4928
 6032TIP3   OH242290   7.447   4.408   2.257 -0.6866 -0.0618  0.1343
 6032TIP3    H142291   7.464   4.317   2.281  0.0184 -0.1139 -0.5246
 6032TIP3    H242292   7.416   4.403   2.166  0.6133  0.4399 -0.3641
 6033TIP3   OH242293   1.395   0.659   1.794  0.3539  0.3912  0.8651
 6033TIP3    H142294   1.417   0.735   1.740 -0.2420  0.3860  0.6075
 6033TIP3    H242295   1.480   0.625   1.824  0.9010 -0.9977 -1.9327
 6034TIP3   OH242296   5.534   6.681   3.327 -0.1617 -0.9976  0.2374
 6034TIP3    H142297   5.542   6.637   3.242  0.8560 -2.6809  1.1455
 6034TIP3    H242298   5.442   6.708   3.331  0.3107  1.3852 -2.4019
 6035TIP3   OH242299   2.922   0.181   0.938 -0.3385  0.2608  0.2835
 6035TIP3    H142300   2.961   0.213   1.020  0.5889 -0.0120 -0.0442
 6035TIP3    H242301   2.911   0.087   0.953 -2.9699  0.6143  1.2097
 6036TIP3   OH242302   4.140   1.412   1.080  0.2598 -0.3451  0.2481
 6036TIP3    H142303   4.077   1.365   1.026  0.0483  0.5112 -0.2629
 6036TIP3    H242304   4.225   1.381   1.050  0.1434  0.0948 -0.5595
 6037TIP3   OH242305   5.969   2.072   1.656 -0.2922 -0.3851  0.1382
 6037TIP3    H142306   6.042   2.061   1.596  0.0351 -2.2519  0.8086
 6037TIP3    H242307   5.921   1.989   1.651 -1.4100  0.1823  0.9412
 6038TIP3   OH242308   2.066   5.791   0.458 -0.4136 -0.2596 -0.1699
 6038TIP3    H142309   2.052   5.698   0.440 -0.4449 -0.3626  0.3681
 6038TIP3    H242310   2.026   5.836   0.384 -0.6574 -0.6621 -0.2881
 6039TIP3   OH242311   2.463   5.411   0.884  0.0305  0.0865  0.2433
 6039TIP3    H142312   2.464   5.324   0.924 -1.1116  0.3176  0.8183
 6039TIP3    H242313   2.433   5.396   0.794 -0.3873 -0.0952  0.4112
 6040TIP3   OH242314   0.888   3.727   1.652  0.0993 -0.2126 -0.0030
 6040TIP3    H142315   0.956   3.739   1.586 -0.2557  2.7924  0.0175
 6040TIP3    H242316   0.932   3.686   1.726  1.6869  0.7326 -0.3783
 6041TIP3   OH242317   0.609   4.437   2.196  0.2042  0.5322 -0.0475
 6041TIP3    H142318   0.554   4.387   2.256 -0.3119  0.1792 -0.7904
 6041TIP3    H242319   0.618   4.523   2.236 -0.8726  0.5843  0.1102
 6042TIP3   OH242320   5.579   4.913   1.016  0.1942 -0.0012 -0.2074
 6042TIP3    H142321   5.571   4.819   1.006 -0.7438 -0.0339  0.6954
 6042TIP3    H242322   5.660   4.926   1.064  0.0198 -0.3834  0.1873
 6043TIP3   OH242323   1.900   1.800   1.376  0.5236 -0.1441 -0.0518
 6043TIP3    H142324   1.936   1.889   1.372  2.9326 -1.0671  0.0876
 6043TIP3    H242325   1.900   1.770   1.285  1.2810 -0.5701  0.0788
 6044TIP3   OH242326   3.463   2.100   0.717  0.3705  0.0249 -0.0702
 6044TIP3    H142327   3.540   2.140   0.676  0.5950 -0.4907 -0.1632
 6044TIP3    H242328   3.388   2.143   0.676  0.6123  0.7508  0.2474
 6045TIP3   OH242329   0.641   6.835   2.982  0.0026  0.2461  0.5786
 6045TIP3    H142330   0.720   6.808   2.935  0.8272  0.7133  1.6531
 6045TIP3    H242331   0.626   6.764   3.045 -2.3003 -1.4403 -1.6324
 6046TIP3   OH242332   6.589   0.881   0.431  0.2757 -0.0141  0.7332
 6046TIP3    H142333   6.595   0.976   0.421 -0.9859 -0.1502 -2.3586
 6046TIP3    H242334   6.677   0.849   0.410  0.2429  0.3758  0.0039
 6047TIP3   OH242335   5.627   5.853   1.805  0.3214  0.4112  0.1230
 6047TIP3    H142336   5.589   5.796   1.738  0.3540  1.8744 -1.1875
 6047TIP3    H242337   5.552   5.904   1.838  0.4155  0.1548  0.7480
 6048TIP3   OH242338   3.442   2.035   1.275  0.3867  0.6156  0.0936
 6048TIP3    H142339   3.468   1.958   1.226 -2.6540  0.2949 -1.2656
 6048TIP3    H242340   3.479   2.109   1.227  0.7996  0.1239 -0.3479
 6049TIP3   OH242341   3.798   5.098   2.429  1.2410  0.1895  0.4958
 6049TIP3    H142342   3.751   5.019   2.403 -1.1132  1.5625  0.3402
 6049TIP3    H242343   3.878   5.096   2.376  0.1008 -0.8738 -1.2918
 6050TIP3   OH242344   5.511   1.178   1.578 -0.3150 -0.0319 -0.1772
 6050TIP3    H142345   5.445   1.130   1.628 -0.6141  0.8982  0.3647
 6050TIP3    H242346   5.467   1.200   1.496 -0.4203 -0.0670 -0.1303
 6051TIP3   OH242347   2.924   6.404   2.226  0.3954 -0.3587 -0.3798
 6051TIP3    H142348   2.970   6.326   2.259  0.0035  0.1056  1.3520
 6051TIP3    H242349   2.988   6.474   2.233  1.2980 -0.7280 -3.4460
 6052TIP3   OH242350   2.972   6.665   0.458 -0.4586 -0.5996 -0.6827
 6052TIP3    H142351   2.912   6.669   0.383 -0.0776 -0.7101 -0.9934
 6052TIP3    H242352   2.942   6.588   0.507 -0.0212 -1.1806 -1.3122
 6053TIP3   OH242353   3.704   1.832   1.428  0.0210  0.1296  0.7761
 6053TIP3    H142354   3.789   1.870   1.451 -0.0758  0.5565  0.4440
 6053TIP3    H242355   3.706   1.824   1.333  0.2465 -1.2198  0.8744
 6054TIP3   OH242356   4.714   6.596   2.506 -0.1967 -0.3065  0.9669
 6054TIP3    H142357   4.637   6.651   2.522  0.1629  0.8263 -0.8806
 6054TIP3    H242358   4.678   6.515   2.471 -0.5954 -0.2242  1.1777
 6055TIP3   OH242359   7.443   6.072   2.412 -0.1627 -0.4093  0.0468
 6055TIP3    H142360   7.446   6.068   2.508  1.9291 -0.0672  0.0380
 6055TIP3    H242361   7.412   6.160   2.392 -1.1174 -0.6535  0.3772
 6056TIP3   OH242362   0.981   0.832   1.857  0.3087  0.1781  0.5006
 6056TIP3    H142363   1.056   0.773   1.867  0.3046  0.0813 -0.0203
 6056TIP3    H242364   0.905   0.775   1.858  0.3783 -0.0659 -1.7633
 6057TIP3   OH242365   1.206   4.540   1.231 -0.4962 -0.3936 -0.3611
 6057TIP3    H142366   1.120   4.499   1.224  0.8063 -4.1551  2.4590
 6057TIP3    H242367   1.251   4.515   1.150 -1.3578 -0.1416 -0.9340
 6058TIP3   OH242368   0.657   2.156   1.928  0.7383  0.3820 -0.0030
 6058TIP3    H142369   0.721   2.131   1.861  1.6249  1.4919  0.3822
 6058TIP3    H242370   0.690   2.240   1.961 -0.8407  0.8930  0.3376
 6059TIP3   OH242371   6.954   0.512   2.594  0.4016  0.0547  0.3976
 6059TIP3    H142372   6.925   0.592   2.638  1.5560  0.7547 -0.0724
 6059TIP3    H242373   7.032   0.485   2.642  0.0798 -0.7623  0.4904
 6060TIP3   OH242374   3.032   0.209   1.178  0.1364  0.1236  0.3292
 6060TIP3    H142375   3.054   0.139   1.241  2.0911  2.3563  2.3529
 6060TIP3    H242376   3.003   0.282   1.233 -1.4107  1.1192 -1.6770
 6061TIP3   OH242377   7.186   6.169   0.699  0.3045  0.3998 -0.3530
 6061TIP3    H142378   7.151   6.223   0.769 -2.5465 -2.2758  0.5492
 6061TIP3    H242379   7.125   6.094   0.694  3.4038 -2.2668 -2.0495
 6062TIP3   OH242380   0.613   0.593   2.116 -0.0245  0.2961  0.2718
 6062TIP3    H142381   0.520   0.591   2.139 -0.4052  0.3133 -1.2172
 6062TIP3    H242382   0.645   0.506   2.140 -0.5228  0.1387  0.3809
 6063TIP3   OH242383   1.936   0.237   2.504  0.4308 -0.3337  0.1146
 6063TIP3    H142384   1.892   0.161   2.542  1.6490  0.1860  2.7647
 6063TIP3    H242385   1.999   0.200   2.442 -0.0063 -1.3762  0.2794
 6064TIP3   OH242386   1.686   3.049   2.135 -0.2870  0.6016 -0.4523
 6064TIP3    H142387   1.714   3.117   2.073  1.0930 -0.7652 -1.4071
 6064TIP3    H242388   1.756   3.045   2.200 -0.0926 -0.2209 -0.6935
 6065TIP3   OH242389   6.074   7.179   0.435  0.4645 -0.0582 -0.2722
 6065TIP3    H142390   6.094   7.269   0.413  1.3148 -0.6058 -1.9328
 6065TIP3    H242391   5.980   7.171   0.418  0.6633  0.1566 -1.6331
 6066TIP3   OH242392   5.018   7.275   2.374  0.3330 -0.2349 -0.1288
 6066TIP3    H142393   5.098   7.291   2.425  0.3832  0.0944 -0.3081
 6066TIP3    H242394   4.953   7.334   2.413  0.4875  0.3433 -0.7199
 6067TIP3   OH242395   1.813   5.663   1.234 -0.1833  0.3186 -0.1234
 6067TIP3    H142396   1.904   5.678   1.259  1.0765 -0.3169 -3.7993
 6067TIP3    H242397   1.801   5.568   1.241  0.3129  0.0771 -1.9873
 6068TIP3   OH242398   1.273   4.305   2.555 -0.0095  0.0687  0.1740
 6068TIP3    H142399   1.278   4.267   2.467 -1.5548  0.2600 -0.0267
 6068TIP3    H242400   1.248   4.396   2.540 -0.2936  0.0990  0.8067
 6069TIP3   OH242401   6.513   4.989   1.842 -0.4410 -0.0101 -0.8967
 6069TIP3    H142402   6.435   4.967   1.895  0.2010 -1.0208 -0.3326
 6069TIP3    H242403   6.504   4.935   1.764 -0.2958 -0.1521 -0.8160
 6070TIP3   OH242404   4.746   1.109   1.794 -0.3069  0.6448 -0.2524
 6070TIP3    H142405   4.790   1.080   1.713 -2.7542  1.2682 -1.9128
 6070TIP3    H242406   4.784   1.196   1.811  2.0627 -0.4942  0.8263
 6071TIP3   OH242407   1.541   1.470   2.711  0.2695  0.0271  0.4109
 6071TIP3    H142408   1.603   1.417   2.661 -1.0145 -0.4259 -0.7706
 6071TIP3    H242409   1.494   1.406   2.766  0.3210  0.2585  0.7284
 6072TIP3   OH242410   1.223   3.754   1.735  0.4783  0.1482  0.2288
 6072TIP3    H142411   1.223   3.719   1.646  0.6516 -1.4728  0.8257
 6072TIP3    H242412   1.312   3.789   1.747  0.6446 -0.1827 -0.0233
 6073TIP3   OH242413   7.589   6.889   2.054 -0.3042  0.4407  0.3605
 6073TIP3    H142414   7.675   6.927   2.069 -0.2466  0.8906 -0.9736
 6073TIP3    H242415   7.606   6.803   2.014 -0.4651  0.4396  0.2912
 6074TIP3   OH242416   2.355   0.324   1.347 -0.6025 -0.5380 -0.0103
 6074TIP3    H142417   2.423   0.257   1.345  1.3188  1.1113  2.8127
 6074TIP3    H242418   2.278   0.280   1.384  0.8949 -1.1275  2.6760
 6075TIP3   OH242419   3.495   2.121   1.569  0.2790  0.7518 -0.4174
 6075TIP3    H142420   3.421   2.066   1.593 -0.5294  1.2242 -1.7031
 6075TIP3    H242421   3.512   2.100   1.477  0.6131  1.8847 -0.6334
 6076TIP3   OH242422   0.147   7.010   2.047  0.1566 -0.7549 -0.4518
 6076TIP3    H142423   0.234   6.972   2.036  0.6150  0.2041 -0.1881
 6076TIP3    H242424   0.161   7.089   2.097 -1.1449 -1.7464  1.6094
 6077TIP3   OH242425   7.578   7.419   2.753  0.6180 -0.3916  0.2281
 6077TIP3    H142426   7.515   7.408   2.681  2.4999  2.8465 -2.1756
 6077TIP3    H242427   7.639   7.345   2.742  0.5654 -0.2564 -1.2658
 6078TIP3   OH242428   7.263   2.763   1.179  0.3675  0.5828 -0.1312
 6078TIP3    H142429   7.213   2.687   1.209 -0.1711  0.8253 -0.4024
 6078TIP3    H242430   7.354   2.741   1.198  0.3591 -0.6923 -1.3799
 6079TIP3   OH242431   2.699   0.334   2.506  0.6208 -0.1073 -0.0571
 6079TIP3    H142432   2.786   0.313   2.539  0.8357 -0.2044 -0.6799
 6079TIP3    H242433   2.644   0.261   2.535  0.1760  1.1139  2.4965
 6080TIP3   OH242434   3.025   3.838   1.053  0.2505  0.2652  0.1275
 6080TIP3    H142435   3.057   3.882   0.974  2.0329  0.8781  1.1358
 6080TIP3    H242436   3.094   3.774   1.073 -0.2298  0.0548  1.1229
 6081TIP3   OH242437   6.413   7.072   2.015  0.2931 -0.1312 -0.1327
 6081TIP3    H142438   6.442   7.096   2.103  1.3896  0.8533 -0.7334
 6081TIP3    H242439   6.342   7.010   2.029  0.1674  0.3308  1.4562
 6082TIP3   OH242440   0.979   1.429   1.256  0.0546  0.1380 -0.0071
 6082TIP3    H142441   0.971   1.520   1.229 -0.1713  0.4614  1.0951
 6082TIP3    H242442   0.933   1.379   1.188 -1.9183  1.0562  0.5913
 6083TIP3   OH242443   3.643   7.414   0.918 -0.0557 -0.8468  0.2981
 6083TIP3    H142444   3.733   7.390   0.941 -0.0775 -0.7947  0.4402
 6083TIP3    H242445   3.644   7.427   0.823  0.1598 -0.5187  0.3472
 6084TIP3   OH242446   1.697   5.986   1.283  0.0978  0.1804  0.1405
 6084TIP3    H142447   1.712   5.955   1.193  0.6302 -1.3220  0.7291
 6084TIP3    H242448   1.784   5.988   1.323 -0.2091  0.2106  0.8168
 6085TIP3   OH242449   4.230   7.051   2.875 -0.6698 -0.3467  0.0283
 6085TIP3    H142450   4.139   7.065   2.848 -0.4757 -0.9845 -0.9986
 6085TIP3    H242451   4.272   7.010   2.800  0.5523  0.1917  0.3832
 6086TIP3   OH242452   3.938   7.429   2.031 -0.4182 -0.3190 -0.3093
 6086TIP3    H142453   3.953   7.339   2.000 -0.3416 -0.5844  0.4684
 6086TIP3    H242454   4.015   7.449   2.084 -0.4525  0.1967 -0.4539
 6087TIP3   OH242455   0.950   0.108   3.229 -0.3426  0.0585 -0.2003
 6087TIP3    H142456   0.960   0.184   3.286 -0.1622 -0.2365  0.1690
 6087TIP3    H242457   1.039   0.074   3.220 -0.1088  1.0406 -1.9746
 6088TIP3   OH242458   0.514   7.129   1.036 -0.6464 -0.2599  0.1903
 6088TIP3    H142459   0.545   7.038   1.035 -1.8886 -0.6891 -0.1832
 6088TIP3    H242460   0.419   7.122   1.048 -0.8952  0.9529 -0.8802
 6089TIP3   OH242461   6.603   3.285   2.291 -0.3362 -0.1196 -0.1187
 6089TIP3    H142462   6.628   3.226   2.361 -0.1086 -1.3960 -1.2336
 6089TIP3    H242463   6.511   3.265   2.274 -0.5217  0.5078  0.1152
 6090TIP3   OH242464   6.318   4.609   0.679  0.4585 -0.7861  0.0373
 6090TIP3    H142465   6.369   4.674   0.727 -1.5105 -0.6217  2.0824
 6090TIP3    H242466   6.269   4.659   0.615  0.1062 -0.4283  0.5768
 6091TIP3   OH242467   3.491   0.231   2.892  0.5923  0.0619 -0.1470
 6091TIP3    H142468   3.413   0.247   2.945  1.6245  1.6062  1.0034
 6091TIP3    H242469   3.489   0.300   2.826  0.4930 -0.4944 -0.7379
 6092TIP3   OH242470   7.360   3.959   1.100 -0.0546  0.7952  0.1997
 6092TIP3    H142471   7.367   4.040   1.048  0.0136 -0.6753 -2.2537
 6092TIP3    H242472   7.285   3.914   1.062 -0.7551  0.1417  2.2478
 6093TIP3   OH242473   0.479   7.679   3.574  0.8796 -0.0750 -0.0565
 6093TIP3    H142474   0.569   7.675   3.608  0.6658  1.0990  0.6760
 6093TIP3    H242475   0.445   7.590   3.588  1.8710 -0.4943 -0.2050
 6094TIP3   OH242476   1.979   6.813   0.548  0.1982  0.4640 -0.1101
 6094TIP3    H142477   1.990   6.908   0.547 -0.7178  0.5871 -2.0463
 6094TIP3    H242478   1.984   6.787   0.456 -1.6097 -1.1141  0.1860
 6095TIP3   OH242479   7.364   6.672   3.195  0.3193 -0.3359  0.2615
 6095TIP3    H142480   7.334   6.586   3.224  0.3405 -0.0485  1.1758
 6095TIP3    H242481   7.456   6.660   3.172  0.2163 -0.6403  0.0062
 6096TIP3   OH242482   1.663   0.640   1.754  0.1904 -0.6081 -0.1064
 6096TIP3    H142483   1.623   0.720   1.718 -0.3679 -1.5246 -1.6405
 6096TIP3    H242484   1.747   0.633   1.708  1.1575  0.1182  1.4787
 6097TIP3   OH242485   5.099   7.606   1.792 -0.1644 -0.1446  0.2151
 6097TIP3    H142486   5.149   7.596   1.873  0.8069 -0.6701 -0.4337
 6097TIP3    H242487   5.165   7.622   1.725 -0.7863 -1.6126 -0.7970
 6098TIP3   OH242488   3.952   2.075   1.463  0.2296  0.3452  0.6843
 6098TIP3    H142489   3.991   1.988   1.451 -0.4921  0.1391 -0.3588
 6098TIP3    H242490   3.903   2.090   1.382 -0.3444  1.3678  1.2040
 6099TIP3   OH242491   1.145   7.278   1.025 -0.8062  0.3370  0.3725
 6099TIP3    H142492   1.149   7.355   0.969 -0.2825  0.6132  0.7725
 6099TIP3    H242493   1.174   7.206   0.969  0.2776  0.7071  0.4328
 6100TIP3   OH242494   1.601   2.438   0.902 -0.0107  0.5022  0.3564
 6100TIP3    H142495   1.581   2.472   0.815 -0.0566  0.2882  0.2823
 6100TIP3    H242496   1.590   2.513   0.961 -1.6262  0.2530  0.4098
 6101TIP3   OH242497   5.165   0.020   2.498  0.3215 -0.1039 -0.6493
 6101TIP3    H142498   5.226   0.037   2.426  1.6162 -0.6497  0.2841
 6101TIP3    H242499   5.103  -0.044   2.462 -0.1310  0.9378 -1.8187
 6102TIP3   OH242500   0.935   4.257   1.984 -0.5133  0.2588 -0.0827
 6102TIP3    H142501   0.874   4.330   1.975  0.0693  0.6889 -0.6414
 6102TIP3    H242502   1.021   4.298   1.992 -0.3648 -0.3121  1.5468
 6103TIP3   OH242503   1.548   1.445   0.685 -0.0021 -0.0034 -0.0262
 6103TIP3    H142504   1.501   1.522   0.652  1.2266  1.2736  1.0817
 6103TIP3    H242505   1.481   1.377   0.691 -1.0996  0.9256 -1.1674
 6104TIP3   OH242506   0.471   5.708   1.878 -0.1872  0.4406  0.0330
 6104TIP3    H142507   0.390   5.707   1.828  0.2013  2.7315 -0.7455
 6104TIP3    H242508   0.493   5.801   1.888  1.2893 -0.0467  1.9670
 6105TIP3   OH242509   5.867   5.208   0.511 -0.5651 -0.5077  0.0922
 6105TIP3    H142510   5.790   5.211   0.454  0.6032 -1.0743 -1.6116
 6105TIP3    H242511   5.852   5.134   0.569 -2.5863  1.1225  1.8444
 6106TIP3   OH242512   1.697   5.439   1.574  0.0499 -0.2730  0.2616
 6106TIP3    H142513   1.641   5.434   1.652  0.6703 -0.2421  0.7173
 6106TIP3    H242514   1.638   5.466   1.504 -0.2488  1.0661  1.0004
 6107TIP3   OH242515   7.346   7.610   2.787 -0.6599 -0.7387 -0.3717
 6107TIP3    H142516   7.410   7.555   2.832 -1.1563 -0.7988  0.2749
 6107TIP3    H242517   7.283   7.634   2.855  0.8105  2.6182 -0.0070
 6108TIP3   OH242518   0.953   3.817   0.964  0.0018  0.0773  1.1571
 6108TIP3    H142519   0.900   3.889   0.999 -0.8293 -0.6643  1.4538
 6108TIP3    H242520   1.043   3.845   0.979 -0.0280  3.0858 -2.6533
 6109TIP3   OH242521   0.693   1.590   2.371  0.2506  0.3436 -0.0803
 6109TIP3    H142522   0.759   1.544   2.318  0.3146 -1.6459  1.6229
 6109TIP3    H242523   0.609   1.557   2.339 -0.0368  2.8710 -2.2421
 6110TIP3   OH242524   1.643   2.228   1.822  0.0481 -0.3844  0.3252
 6110TIP3    H142525   1.623   2.322   1.827  1.1046 -0.0834 -0.8205
 6110TIP3    H242526   1.605   2.192   1.902 -0.5847  0.9783  0.6734
 6111TIP3   OH242527   2.286   2.306   2.050  0.0958  0.2557  0.5181
 6111TIP3    H142528   2.230   2.280   1.977 -1.0244 -0.6006  1.6498
 6111TIP3    H242529   2.226   2.334   2.119  1.1070  0.6005  1.2988
 6112TIP3   OH242530   2.564   7.389   0.652  0.0509  0.1216 -0.0195
 6112TIP3    H142531   2.480   7.372   0.611  0.7349 -2.4235 -0.5207
 6112TIP3    H242532   2.559   7.347   0.738  0.5002  0.7883  0.3532
 6113TIP3   OH242533   3.555   4.140   2.755 -0.5046  0.0216  0.2832
 6113TIP3    H142534   3.473   4.126   2.708  0.2702 -0.5537 -0.9390
 6113TIP3    H242535   3.600   4.208   2.705  1.3675 -2.2103 -1.2764
 6114TIP3   OH242536   3.508   5.066   1.646  0.0615  0.4306  0.5259
 6114TIP3    H142537   3.585   5.092   1.698  1.1403  0.0059 -0.8038
 6114TIP3    H242538   3.499   4.972   1.663  0.2866  0.3340  0.1205
 6115TIP3   OH242539   6.090   6.058   1.233 -0.1788  0.0104 -0.5392
 6115TIP3    H142540   6.019   6.118   1.211 -0.1865  0.2125  0.0287
 6115TIP3    H242541   6.088   6.051   1.329  0.5875  0.0508 -0.5116
 6116TIP3   OH242542   2.943   5.809   1.498  0.2540  0.3797  0.1084
 6116TIP3    H142543   2.908   5.721   1.507  1.9652 -0.5415 -1.5096
 6116TIP3    H242544   3.036   5.800   1.518  0.2547  2.0890  1.0912
 6117TIP3   OH242545   0.669   2.467   1.241  0.1836 -0.2225  0.2275
 6117TIP3    H142546   0.691   2.487   1.150 -0.9576 -5.5603 -1.5854
 6117TIP3    H242547   0.754   2.450   1.283  0.6319  0.9683 -0.1572
 6118TIP3   OH242548   3.595   1.643   2.010  0.0838 -0.4696 -0.2961
 6118TIP3    H142549   3.541   1.602   2.077 -0.0205 -0.1313 -0.1743
 6118TIP3    H242550   3.683   1.646   2.050 -0.3686  1.6210  0.6750
 6119TIP3   OH242551   7.216   6.536   0.643 -0.1819  0.4385  0.4265
 6119TIP3    H142552   7.135   6.562   0.599 -0.7444  0.4873  1.4609
 6119TIP3    H242553   7.209   6.441   0.652  0.7695  0.1699 -1.1768
 6120TIP3   OH242554   0.827   0.443   2.358  0.1444  0.1292 -0.4858
 6120TIP3    H142555   0.839   0.371   2.420  1.1097  0.3311 -0.4273
 6120TIP3    H242556   0.734   0.463   2.362  0.0218 -0.5375  0.1430
 6121TIP3   OH242557   5.189   2.703   2.063 -0.1121 -0.1236 -0.0198
 6121TIP3    H142558   5.203   2.616   2.101  0.5641  0.2355  0.5794
 6121TIP3    H242559   5.263   2.755   2.094 -0.5582  0.6926 -0.2883
 6122TIP3   OH242560   5.100   3.210   0.858 -0.1061 -0.0709  0.5432
 6122TIP3    H142561   5.111   3.152   0.934 -2.1860 -0.4824  0.5942
 6122TIP3    H242562   5.037   3.164   0.802  0.1371  0.9900 -0.6457
 6123TIP3   OH242563   6.922   5.511   1.029 -0.4926 -0.5127 -0.3075
 6123TIP3    H142564   6.962   5.575   1.088 -1.2803 -0.4916  0.2182
 6123TIP3    H242565   6.878   5.565   0.963  2.2003 -0.5128 -2.2465
 6124TIP3   OH242566   2.717   0.268   1.594  0.1916 -0.3151  0.5471
 6124TIP3    H142567   2.645   0.233   1.542  1.4991  0.4967 -1.9900
 6124TIP3    H242568   2.676   0.329   1.655 -1.2555  0.5193 -1.1767
 6125TIP3   OH242569   4.359   1.397   2.737  0.6784  0.6252  0.7826
 6125TIP3    H142570   4.429   1.341   2.772 -0.7312 -0.9173  1.2649
 6125TIP3    H242571   4.329   1.351   2.659 -0.5158  0.6810  1.1910
 6126TIP3   OH242572   7.061   1.076   0.568  0.3979  0.1507  0.3087
 6126TIP3    H142573   7.049   1.169   0.586  0.1836 -0.0693  1.3922
 6126TIP3    H242574   7.148   1.070   0.528  1.1697  0.6418  1.8348
 6127TIP3   OH242575   3.797   3.457   1.661 -0.3581  1.0353 -0.3613
 6127TIP3    H142576   3.817   3.364   1.650  0.8839  1.3838 -1.2916
 6127TIP3    H242577   3.784   3.489   1.572  0.2085  1.9476 -0.1227
 6128TIP3   OH242578   0.180   4.424   2.998 -0.0836  0.1251 -0.7885
 6128TIP3    H142579   0.132   4.391   2.923  2.1127  0.3212 -2.3830
 6128TIP3    H242580   0.210   4.511   2.972  0.1440  0.4954  0.5910
 6129TIP3   OH242581   2.448   2.643   2.079 -0.5613 -0.0692 -0.4896
 6129TIP3    H142582   2.444   2.645   2.175 -1.5519  0.4487 -0.5331
 6129TIP3    H242583   2.525   2.589   2.060 -1.9586 -2.6654  0.5897
 6130TIP3   OH242584   1.058   7.166   1.364 -0.7143 -0.5683  0.1005
 6130TIP3    H142585   1.128   7.141   1.304  0.0534 -1.3625  1.2767
 6130TIP3    H242586   0.980   7.123   1.329  0.0105 -2.2660  0.4331
 6131TIP3   OH242587   6.916   0.685   1.855 -0.2065 -0.3435 -0.4612
 6131TIP3    H142588   7.010   0.678   1.874 -0.2972  0.8946  0.5522
 6131TIP3    H242589   6.902   0.623   1.784  1.9706  1.5144 -2.6990
 6132TIP3   OH242590   6.349   1.812   2.004  0.3212 -0.1027  0.1286
 6132TIP3    H142591   6.266   1.771   2.029  0.5488  0.3952  1.8174
 6132TIP3    H242592   6.414   1.770   2.060  1.4381 -1.3475 -2.0097
 6133TIP3   OH242593   4.046   2.068   2.183  0.8958 -0.1586 -0.4869
 6133TIP3    H142594   4.081   1.979   2.177 -0.8239 -0.8456 -0.8738
 6133TIP3    H242595   4.045   2.088   2.276  0.0200 -1.0907 -0.2908
 6134TIP3   OH242596   6.105   3.978   1.026 -0.3174 -0.3899  0.1117
 6134TIP3    H142597   6.151   4.027   1.094  0.2677 -0.0209 -0.5276
 6134TIP3    H242598   6.175   3.944   0.970 -0.6726 -2.6288  0.9692
 6135TIP3   OH242599   1.499   0.682   0.911 -0.1201 -0.3679 -0.2934
 6135TIP3    H142600   1.549   0.683   0.993 -2.0837  3.7024  1.1154
 6135TIP3    H242601   1.552   0.732   0.850 -0.7766  0.8108  0.0739
 6136TIP3   OH242602   4.516   7.203   1.018 -0.5521 -0.0611 -0.3320
 6136TIP3    H142603   4.481   7.244   0.939  2.6024  1.1794 -1.2153
 6136TIP3    H242604   4.554   7.274   1.068 -1.8071 -0.9386  2.0360
 6137TIP3   OH242605   4.676   3.309   0.828  0.3815  0.0594  0.1165
 6137TIP3    H142606   4.727   3.272   0.900  0.4263  0.3435  0.2350
 6137TIP3    H242607   4.626   3.380   0.869  0.0353 -0.0942 -0.0361
 6138TIP3   OH242608   5.681   0.126   0.871  0.2684  1.0119  0.3056
 6138TIP3    H142609   5.776   0.113   0.872  0.3327  1.4143  1.4656
 6138TIP3    H242610   5.646   0.044   0.837  1.0423  1.0280 -0.5756
 6139TIP3   OH242611   6.226   1.493   0.633  0.4091 -0.6519 -0.3362
 6139TIP3    H142612   6.159   1.425   0.631  0.8856 -1.1398  0.0933
 6139TIP3    H242613   6.308   1.447   0.616  0.4714  0.1765 -2.6941
 6140TIP3   OH242614   3.166   3.543   1.378 -0.5496 -0.0802  0.3961
 6140TIP3    H142615   3.242   3.600   1.367 -1.3898  1.2230  1.0704
 6140TIP3    H242616   3.123   3.576   1.456 -1.1501 -1.5883  0.7374
 6141TIP3   OH242617   6.184   1.362   2.862  0.2118 -0.4431 -0.3377
 6141TIP3    H142618   6.227   1.440   2.827 -2.0271  0.5666 -1.0167
 6141TIP3    H242619   6.164   1.309   2.785 -4.0171  1.4129 -0.7526
 6142TIP3   OH242620   7.492   1.569   1.915 -0.3128 -0.3409  0.3927
 6142TIP3    H142621   7.525   1.615   1.992 -0.6021  0.3035  0.1416
 6142TIP3    H242622   7.570   1.547   1.864 -0.1591 -0.3018  0.6118
 6143TIP3   OH242623   5.410   4.991   2.464 -0.1877  0.9865 -0.0439
 6143TIP3    H142624   5.428   5.072   2.417 -0.5178  0.4909 -1.0566
 6143TIP3    H242625   5.383   4.929   2.396 -0.7569  0.2675  0.8095
 6144TIP3   OH242626   2.839   4.183   1.227  0.4719 -0.0528  0.3292
 6144TIP3    H142627   2.890   4.190   1.146 -0.5530 -1.7791 -0.5224
 6144TIP3    H242628   2.755   4.222   1.205 -0.7545 -2.8334 -0.3797
 6145TIP3   OH242629   5.671   5.255   1.195  0.4125 -0.3577 -0.3123
 6145TIP3    H142630   5.634   5.340   1.217  0.2128 -1.1066  2.6206
 6145TIP3    H242631   5.765   5.272   1.187  0.2735  0.2845 -0.6712
 6146TIP3   OH242632   5.604   1.860   2.342 -0.8634 -0.3530  0.1526
 6146TIP3    H142633   5.695   1.844   2.368 -0.9710 -2.1432 -0.4261
 6146TIP3    H242634   5.586   1.950   2.371  0.9227 -0.1368  0.7133
 6147TIP3   OH242635   5.816   3.489   1.306  0.4634  0.0362  0.0802
 6147TIP3    H142636   5.880   3.552   1.273 -0.3060 -0.2094 -2.0277
 6147TIP3    H242637   5.731   3.528   1.286 -0.0301 -1.6517 -1.2996
 6148TIP3   OH242638   7.326   6.460   2.956 -0.4184 -0.1607 -0.4248
 6148TIP3    H142639   7.291   6.449   3.044 -1.8375  1.2933 -0.7556
 6148TIP3    H242640   7.421   6.448   2.966 -0.2517  2.0362  1.7384
 6149TIP3   OH242641   1.039   4.702   1.487  0.5395  0.6764 -0.8944
 6149TIP3    H142642   1.123   4.743   1.506  0.3009  1.0522 -0.6407
 6149TIP3    H242643   1.060   4.631   1.427  1.4669 -1.1939  1.4813
 6150TIP3   OH242644   2.584   2.340   3.133  0.6280 -0.1672 -0.1313
 6150TIP3    H142645   2.506   2.340   3.077  0.6236  0.6911 -0.1325
 6150TIP3    H242646   2.624   2.425   3.119  1.8131 -0.7667 -0.4446
 6151TIP3   OH242647   6.989   0.856   3.159 -0.1464 -0.3581 -0.5418
 6151TIP3    H142648   6.908   0.882   3.114  0.3119  2.1393 -0.0877
 6151TIP3    H242649   6.960   0.822   3.243 -0.7919 -0.8960 -0.9719
 6152TIP3   OH242650   2.200   5.536   2.452  0.2619  0.4684  0.1821
 6152TIP3    H142651   2.140   5.463   2.441  1.4327 -0.5534  0.3783
 6152TIP3    H242652   2.287   5.496   2.452  0.8635  1.6635  1.7863
 6153TIP3   OH242653   2.056   2.036   1.313  0.0579  0.2877  0.1919
 6153TIP3    H142654   2.122   2.019   1.246 -0.0353  1.1189 -0.1248
 6153TIP3    H242655   2.107   2.059   1.391  0.1692 -0.8138  0.4598
 6154TIP3   OH242656   3.947   7.256   1.589  0.1150 -0.2146  0.0174
 6154TIP3    H142657   3.863   7.252   1.543 -0.5021  0.1743  1.0471
 6154TIP3    H242658   4.000   7.317   1.539 -0.1205 -0.6605 -0.7919
 6155TIP3   OH242659   1.837   2.574   2.472 -0.6527  0.1237 -0.0831
 6155TIP3    H142660   1.874   2.541   2.554 -2.3201 -1.4761  0.0822
 6155TIP3    H242661   1.801   2.660   2.495  0.0637  0.2723  0.5218
 6156TIP3   OH242662   3.947   4.568   2.076 -0.2636 -0.1952 -0.1430
 6156TIP3    H142663   4.037   4.549   2.103 -0.3004 -0.9848 -0.5473
 6156TIP3    H242664   3.952   4.579   1.981 -0.4261  0.8038 -0.0413
 6157TIP3   OH242665   3.677   5.593   1.643  0.0204  0.4266 -0.5003
 6157TIP3    H142666   3.707   5.529   1.579  0.1412 -1.3198  1.1984
 6157TIP3    H242667   3.755   5.614   1.694 -0.6378 -0.6476  1.0405
 6158TIP3   OH242668   3.718   1.441   0.976  0.0585  0.3142 -0.2142
 6158TIP3    H142669   3.626   1.462   0.994 -0.1987 -1.8269  1.4394
 6158TIP3    H242670   3.767   1.498   1.035 -0.3088  0.4902 -0.0738
 6159TIP3   OH242671   3.683   2.573   1.354 -0.0211 -0.0949  0.0642
 6159TIP3    H142672   3.667   2.524   1.434 -0.8668  1.5968  0.9886
 6159TIP3    H242673   3.596   2.581   1.313  0.4575 -1.2842 -1.2617
 6160TIP3   OH242674   7.138   7.449   1.501 -0.0478  0.3840  0.3280
 6160TIP3    H142675   7.061   7.391   1.493 -1.3592  1.7475  2.2991
 6160TIP3    H242676   7.155   7.478   1.411 -2.1848  0.4444 -0.1112
 6161TIP3   OH242677   6.297   3.564   2.814 -0.5219  0.7521  0.6589
 6161TIP3    H142678   6.267   3.610   2.736 -0.6607 -0.6746 -0.1765
 6161TIP3    H242679   6.251   3.480   2.811  2.1439 -0.8175  0.2885
 6162TIP3   OH242680   6.345   6.934   1.691  0.2740  0.4122  0.0746
 6162TIP3    H142681   6.392   6.936   1.607  1.0039  1.6536  0.4773
 6162TIP3    H242682   6.371   6.851   1.731  0.9227  0.3813 -0.3881
 6163TIP3   OH242683   5.685   1.030   2.086 -0.3045  0.1455  0.3906
 6163TIP3    H142684   5.690   1.074   2.001 -1.4943  0.3565  0.4028
 6163TIP3    H242685   5.594   1.042   2.113 -0.1791 -0.7391  1.2603
 6164TIP3   OH242686   0.297   7.078   1.703  0.7295 -0.2064 -0.0507
 6164TIP3    H142687   0.204   7.067   1.723  0.6815 -0.6152 -0.4627
 6164TIP3    H242688   0.298   7.105   1.611  1.1190 -4.8559 -1.7104
 6165TIP3   OH242689   5.163   3.187   2.541 -0.7939  0.5111  0.2310
 6165TIP3    H142690   5.075   3.203   2.574 -0.7051 -1.0592  1.3414
 6165TIP3    H242691   5.211   3.150   2.616  0.6995  0.9608 -0.4558
 6166TIP3   OH242692   3.297   7.577   1.637  0.2263  0.5716 -0.3845
 6166TIP3    H142693   3.260   7.665   1.647  0.2336  0.4318  1.0823
 6166TIP3    H242694   3.261   7.528   1.711 -0.5687 -0.9472 -1.7353
 6167TIP3   OH242695   5.652   5.851   1.517  0.4180  0.1365  0.0832
 6167TIP3    H142696   5.575   5.809   1.553  0.3773  0.4857  0.4066
 6167TIP3    H242697   5.639   5.848   1.422 -0.6114  1.3500  0.1671
 6168TIP3   OH242698   0.024   6.745   2.348  0.4843 -0.5824  0.3173
 6168TIP3    H142699   0.057   6.764   2.436  1.1229 -2.6348  0.5713
 6168TIP3    H242700   0.068   6.810   2.292  0.9035  0.0601  1.3524
 6169TIP3   OH242701   7.450   5.009   6.611  0.0599 -0.0170 -0.0409
 6169TIP3    H142702   7.436   5.095   6.650 -1.3450 -0.8780  1.4808
 6169TIP3    H242703   7.519   4.969   6.664  1.0925  0.3410 -1.0782
 6170TIP3   OH242704   3.201   5.824   2.073  0.6085  0.3762  0.3055
 6170TIP3    H142705   3.284   5.872   2.066  2.2587 -2.4509 -1.5206
 6170TIP3    H242706   3.142   5.870   2.013  1.1088  1.8848  0.9121
 6171TIP3   OH242707   3.153   1.667   1.776  0.0931  0.1353  0.3107
 6171TIP3    H142708   3.161   1.643   1.869 -3.2091  0.0245  0.6838
 6171TIP3    H242709   3.088   1.606   1.742  1.4496 -0.0172 -2.2243
 6172TIP3   OH242710   7.462   4.712   1.930 -0.4469  0.1514  0.4671
 6172TIP3    H142711   7.524   4.778   1.897 -1.8226  1.4603  0.3471
 6172TIP3    H242712   7.442   4.741   2.019 -1.6380  0.3597  0.1495
 6173TIP3   OH242713   6.678   3.039   2.403  0.3352 -0.0736  0.5802
 6173TIP3    H142714   6.732   2.967   2.436 -0.8529 -1.3625 -0.1771
 6173TIP3    H242715   6.605   3.043   2.465  1.6345  2.2070  2.0823
 6174TIP3   OH242716   5.031   7.627   2.142  0.4091  0.0485 -0.5430
 6174TIP3    H142717   5.108   7.584   2.105  0.8046 -1.2617  1.6370
 6174TIP3    H242718   4.961   7.563   2.136  0.0415  0.4479 -0.5852
 6175TIP3   OH242719   4.162   3.709   1.744 -0.1798 -0.2247  0.1437
 6175TIP3    H142720   4.127   3.620   1.751  0.3210 -0.3000  2.0198
 6175TIP3    H242721   4.098   3.755   1.689 -0.7071 -1.5935 -0.4371
 6176TIP3   OH242722   2.737   3.743   0.495 -0.7728 -0.4807 -0.1567
 6176TIP3    H142723   2.655   3.782   0.527 -0.7128 -0.0491 -0.5365
 6176TIP3    H242724   2.710   3.658   0.459 -1.0239 -0.4270 -0.0976
 6177TIP3   OH242725   6.076   5.994   2.239  0.1295  0.2242 -0.6013
 6177TIP3    H142726   6.101   6.034   2.155  0.5807 -0.5192 -0.8371
 6177TIP3    H242727   6.023   5.919   2.214 -0.2779  0.3739 -0.1878
 6178TIP3   OH242728   7.147   3.453   1.293  0.4994 -0.4356 -0.0151
 6178TIP3    H142729   7.206   3.496   1.354  1.2816 -0.6405 -0.6125
 6178TIP3    H242730   7.084   3.522   1.269  0.9326 -0.0013  0.0690
 6179TIP3   OH242731   3.304   4.608   0.768  0.6065 -0.4399  0.0937
 6179TIP3    H142732   3.370   4.546   0.738  0.1800 -0.6068 -0.5243
 6179TIP3    H242733   3.354   4.685   0.796  1.0644 -0.6092 -0.2505
 6180TIP3   OH242734   5.422   7.552   2.723  0.2183 -0.5893 -0.1717
 6180TIP3    H142735   5.403   7.544   2.816  2.1221  1.1196  0.4506
 6180TIP3    H242736   5.375   7.631   2.696  1.6673  0.3675 -0.0006
 6181TIP3   OH242737   2.591   6.307   1.202  0.1814  0.2664 -0.3938
 6181TIP3    H142738   2.629   6.349   1.280 -0.0288 -2.1870  1.1489
 6181TIP3    H242739   2.509   6.270   1.234 -0.0808 -0.4928 -1.9047
 6182TIP3   OH242740   4.051   2.667   2.906 -0.2812 -0.2321 -0.6416
 6182TIP3    H142741   4.028   2.726   2.977  1.3623 -0.9431  0.5533
 6182TIP3    H242742   4.085   2.724   2.837  1.6298  0.2812  0.6321
 6183TIP3   OH242743   7.284   1.692   1.460  0.3873  0.0532  0.2070
 6183TIP3    H142744   7.195   1.669   1.433  0.8005 -0.2188 -0.9764
 6183TIP3    H242745   7.332   1.609   1.458  0.9986  0.4125 -0.5219
 6184TIP3   OH242746   4.307   5.938   1.236 -0.2414  0.4494  0.2245
 6184TIP3    H142747   4.231   5.885   1.261 -0.4999 -0.1863 -1.7345
 6184TIP3    H242748   4.305   5.939   1.140  0.5590  2.8608  0.1575
 6185TIP3   OH242749   4.557   4.268   1.850  0.0216 -0.6422 -0.0682
 6185TIP3    H142750   4.590   4.181   1.831  0.6834 -0.2011 -1.0265
 6185TIP3    H242751   4.573   4.281   1.944  0.4039 -1.3430 -0.0363
 6186TIP3   OH242752   5.744   2.046   1.427 -0.0548 -0.2009  0.4079
 6186TIP3    H142753   5.839   2.043   1.414  0.2855  0.7838  2.2898
 6186TIP3    H242754   5.711   2.093   1.350  1.2336  1.1637  0.6391
 6187TIP3   OH242755   0.823   7.041   3.030  0.0385  0.3318  0.6052
 6187TIP3    H142756   0.895   7.058   2.970 -0.9120  0.4088 -0.5501
 6187TIP3    H242757   0.791   6.954   3.005  0.2105 -0.0522  1.6345
 6188TIP3   OH242758   4.676   0.465   0.831  0.1589 -0.5320  0.1196
 6188TIP3    H142759   4.649   0.379   0.797  0.3253 -0.3618 -0.4407
 6188TIP3    H242760   4.658   0.459   0.925 -0.4846 -0.9384 -0.0195
 6189TIP3   OH242761   1.959   6.009   1.012 -0.1130 -0.3118  0.2568
 6189TIP3    H142762   2.009   6.058   0.947  0.1392 -0.3349  0.4319
 6189TIP3    H242763   1.874   6.052   1.014 -0.0391 -0.1552  0.0936
 6190TIP3   OH242764   1.604   5.137   0.964 -0.0465 -0.3315 -0.0341
 6190TIP3    H142765   1.567   5.105   0.881  0.3072  1.2783 -0.8593
 6190TIP3    H242766   1.619   5.231   0.949  0.6663 -0.1424  1.6311
 6191TIP3   OH242767   1.744   0.425   3.271 -0.3492  0.0737 -0.2479
 6191TIP3    H142768   1.806   0.382   3.330 -2.7291 -2.8804  0.3379
 6191TIP3    H242769   1.738   0.365   3.195 -2.4816  0.1880 -0.2301
 6192TIP3   OH242770   2.182   5.234   1.563  0.2701  0.1414  0.0862
 6192TIP3    H142771   2.243   5.297   1.600 -0.2082  0.7751 -0.1881
 6192TIP3    H242772   2.207   5.227   1.471  0.0061  0.3104  0.0013
 6193TIP3   OH242773   6.224   4.312   2.307 -0.2053 -0.4245 -0.0921
 6193TIP3    H142774   6.303   4.260   2.292 -0.3764 -0.9772  0.8144
 6193TIP3    H242775   6.243   4.360   2.388 -0.5487 -0.0601 -0.2259
 6194TIP3   OH242776   3.826   4.914   0.927 -0.1178  0.1909  0.1351
 6194TIP3    H142777   3.806   4.821   0.942 -0.5503  0.1648 -0.5912
 6194TIP3    H242778   3.850   4.947   1.014 -0.7451 -0.4088  0.5510
 6195TIP3   OH242779   1.329   2.019   1.234 -0.0957 -0.4020 -0.2531
 6195TIP3    H142780   1.327   2.024   1.138  0.3550  1.0781 -0.2147
 6195TIP3    H242781   1.422   2.029   1.256 -0.0629 -1.7812  0.3139
 6196TIP3   OH242782   3.537   3.025   1.440  0.4931  0.2560  0.4610
 6196TIP3    H142783   3.561   3.117   1.443 -1.2437  0.8781 -1.7846
 6196TIP3    H242784   3.601   2.986   1.379  0.6281  0.1838  0.6477
 6197TIP3   OH242785   3.618   5.043   2.793  0.0251 -0.2969 -0.3473
 6197TIP3    H142786   3.604   5.016   2.884  2.1715  0.0241  0.1280
 6197TIP3    H242787   3.616   4.961   2.744  1.0654 -0.7486  0.3268
 6198TIP3   OH242788   4.951   0.059   1.372 -0.2057  0.1130 -0.1495
 6198TIP3    H142789   4.948  -0.004   1.300  0.5690  0.2666 -0.3190
 6198TIP3    H242790   5.044   0.079   1.383 -0.0288 -1.6142  2.3834
 6199TIP3   OH242791   2.043   1.045   2.979 -0.1035  0.0872  0.1157
 6199TIP3    H142792   1.992   1.053   3.059  1.0627  0.0607  0.8837
 6199TIP3    H242793   2.128   1.084   3.001  0.3501 -0.2490 -0.9972
 6200TIP3   OH242794   1.499   2.932   2.385  0.3451  0.0196  0.0317
 6200TIP3    H142795   1.480   2.906   2.475 -2.4286  1.5265 -0.0127
 6200TIP3    H242796   1.584   2.976   2.391  1.0249 -1.3593  1.5604
 6201TIP3   OH242797   1.342   5.806   2.321 -0.1928  0.4075 -0.2038
 6201TIP3    H142798   1.254   5.773   2.308 -0.8405  2.0159 -0.1166
 6201TIP3    H242799   1.377   5.816   2.232  0.3350 -1.2458 -0.2171
 6202TIP3   OH242800   3.164   7.668   1.002 -0.0535  0.5309  0.0565
 6202TIP3    H142801   3.105   7.692   1.074 -1.3602 -1.0377 -0.4256
 6202TIP3    H242802   3.189   7.578   1.021 -0.6668 -0.0258 -1.5738
 6203TIP3   OH242803   3.069   4.876   1.736  0.2843  0.1707  0.2655
 6203TIP3    H142804   3.125   4.859   1.660 -0.5666 -0.7538 -0.1681
 6203TIP3    H242805   2.983   4.894   1.700  0.4010  2.2811  0.8990
 6204TIP3   OH242806   6.090   0.327   0.750  0.2235  0.2210  0.0412
 6204TIP3    H142807   6.123   0.327   0.660  0.3922  2.0057  0.0730
 6204TIP3    H242808   6.143   0.392   0.795 -2.2410  2.0305  0.5069
 6205TIP3   OH242809   2.743   2.437   1.800  0.3211  0.4832 -0.0188
 6205TIP3    H142810   2.719   2.355   1.843  0.1768  0.2197 -0.5879
 6205TIP3    H242811   2.718   2.505   1.863 -0.4118  0.1355  0.0783
 6206TIP3   OH242812   2.921   0.828   2.644 -1.1947 -0.0965  0.3547
 6206TIP3    H142813   2.928   0.896   2.712  0.6032  0.1585 -0.0389
 6206TIP3    H242814   2.849   0.857   2.589 -0.8981  1.1578  0.5901
 6207TIP3   OH242815   1.434   3.521   3.073  0.0394  0.1326 -0.4054
 6207TIP3    H142816   1.445   3.431   3.105  2.6302  0.6240  0.2973
 6207TIP3    H242817   1.448   3.575   3.150  0.0765  1.2034 -1.1500
 6208TIP3   OH242818   3.397   2.642   1.330  0.2462 -0.2230 -0.3990
 6208TIP3    H142819   3.429   2.712   1.274 -1.2021  0.4784 -0.3715
 6208TIP3    H242820   3.308   2.625   1.300  0.3017 -1.5441  0.0946
 6209TIP3   OH242821   4.563   4.600   0.958 -0.1220  0.5317 -0.0259
 6209TIP3    H142822   4.583   4.506   0.958  1.1063  0.7596 -1.1079
 6209TIP3    H242823   4.483   4.607   0.905 -1.1319 -0.0375  1.3670
 6210TIP3   OH242824   5.827   1.522   2.119  0.5870  0.5342 -0.5079
 6210TIP3    H142825   5.887   1.567   2.178 -0.1846  1.4698 -0.4178
 6210TIP3    H242826   5.827   1.574   2.039 -0.5823  0.9242 -0.2775
 6211TIP3   OH242827   2.468   6.398   2.108  0.1579  0.1268  0.5006
 6211TIP3    H142828   2.551   6.419   2.152 -0.0520 -0.6822  1.3064
 6211TIP3    H242829   2.453   6.471   2.048  0.3338  1.3747  1.9399
 6212TIP3   OH242830   5.246   7.194   2.210 -0.1074  0.2113 -0.0580
 6212TIP3    H142831   5.160   7.236   2.217 -0.9560 -1.0116 -2.4035
 6212TIP3    H242832   5.295   7.250   2.150 -0.2503 -0.5775 -0.9239
 6213TIP3   OH242833   6.970   1.041   1.337  0.0606  0.1969  0.2112
 6213TIP3    H142834   6.939   0.952   1.317 -1.0170  0.9494 -1.7098
 6213TIP3    H242835   6.901   1.077   1.393  0.9255 -0.4164  1.7455
 6214TIP3   OH242836   4.748   1.052   0.917  0.1304 -0.3816  0.0047
 6214TIP3    H142837   4.781   1.091   0.998  1.2500 -0.3160 -0.4677
 6214TIP3    H242838   4.725   0.962   0.942  1.6950 -0.7783  0.1332
 6215TIP3   OH242839   1.410   7.471   2.978 -0.1087  0.0445 -1.0040
 6215TIP3    H142840   1.351   7.409   2.936  1.3344 -1.5909 -0.7300
 6215TIP3    H242841   1.421   7.437   3.067 -0.1653  1.3399 -0.4787
 6216TIP3   OH242842   0.346   2.624   2.089  0.0923 -0.0952 -0.7088
 6216TIP3    H142843   0.371   2.552   2.031  0.8585  0.6209 -1.2818
 6216TIP3    H242844   0.251   2.622   2.090  0.0462 -2.9941  1.6480
 6217TIP3   OH242845   4.347   5.783   1.598 -0.3086  0.2432  0.1668
 6217TIP3    H142846   4.383   5.862   1.558 -0.7383  0.4804  0.2448
 6217TIP3    H242847   4.423   5.726   1.610 -0.1444  0.2177 -0.8537
 6218TIP3   OH242848   5.631   6.579   0.970 -0.0418  0.0632  0.5021
 6218TIP3    H142849   5.604   6.667   0.945  1.8381  0.7559  0.7470
 6218TIP3    H242850   5.645   6.533   0.887 -0.0149  0.3304  0.3580
 6219TIP3   OH242851   6.704   4.007   2.303 -0.3949 -0.1598  0.0499
 6219TIP3    H142852   6.731   4.072   2.368 -2.2486 -0.6577  1.4127
 6219TIP3    H242853   6.762   3.932   2.319  0.5208  0.4533 -0.2873
 6220TIP3   OH242854   2.764   1.184   2.483  0.0403  0.3014  0.4752
 6220TIP3    H142855   2.761   1.244   2.558 -0.7957 -1.0216  1.5399
 6220TIP3    H242856   2.753   1.097   2.521  1.1852 -0.5562 -1.0388
 6221TIP3   OH242857   0.910   2.855   3.030 -0.5601  0.1503  0.1415
 6221TIP3    H142858   0.997   2.864   2.991  0.0540  0.8421  1.5771
 6221TIP3    H242859   0.870   2.941   3.019 -0.4129  0.3268  0.9277
 6222TIP3   OH242860   2.716   0.486   0.919  0.4247  0.1397 -0.2035
 6222TIP3    H142861   2.737   0.442   1.001  0.4859 -0.7158 -0.6773
 6222TIP3    H242862   2.801   0.514   0.884  0.6435 -1.5326 -1.1078
 6223TIP3   OH242863   1.155   5.006   1.731 -0.2517 -0.1532  0.2368
 6223TIP3    H142864   1.096   5.082   1.732  1.4131  1.1966  0.5181
 6223TIP3    H242865   1.112   4.942   1.787 -1.9850  0.3357 -0.4526
 6224TIP3   OH242866   0.372   6.110   3.138  0.0289  0.0983  0.0993
 6224TIP3    H142867   0.454   6.142   3.174  0.0065  0.1812  0.0776
 6224TIP3    H242868   0.395   6.072   3.054 -0.0534  0.7194 -0.2081
 6225TIP3   OH242869   3.369   4.139   0.688 -0.4923 -0.0203 -0.3802
 6225TIP3    H142870   3.405   4.097   0.610 -0.5379 -0.3108 -0.2491
 6225TIP3    H242871   3.274   4.141   0.673 -0.6135 -1.0213  0.1025
 6226TIP3   OH242872   4.384   1.365   2.384  0.2223  1.0760 -1.0740
 6226TIP3    H142873   4.352   1.321   2.305  0.9232 -0.8037 -0.3587
 6226TIP3    H242874   4.335   1.326   2.456  1.1704  1.1401 -0.3688
 6227TIP3   OH242875   2.336   1.269   1.426 -0.0739 -0.4236  0.0473
 6227TIP3    H142876   2.303   1.179   1.431  1.1741 -0.8402  1.8574
 6227TIP3    H242877   2.422   1.261   1.383 -0.6858  0.1677 -1.3490
 6228TIP3   OH242878   6.671   4.037   0.437  0.8442 -0.0911  0.6366
 6228TIP3    H142879   6.620   3.976   0.491  0.7460 -0.4574  0.1307
 6228TIP3    H242880   6.635   4.123   0.459  1.0699 -0.1954  1.4453
 6229TIP3   OH242881   2.732   4.784   2.706  0.1449 -0.2907 -0.1843
 6229TIP3    H142882   2.728   4.879   2.701  0.1321 -0.2933 -0.2228
 6229TIP3    H242883   2.813   4.761   2.661  0.1493 -0.2977 -0.1728
 6230TIP3   OH242884   7.110   5.670   0.361 -0.2563  0.2036 -0.2354
 6230TIP3    H142885   7.073   5.582   0.371  0.2233  0.0300  0.0243
 6230TIP3    H242886   7.174   5.661   0.291 -0.5385  0.4551 -0.5295
 6231TIP3   OH242887   5.628   6.504   3.502 -0.1701  0.3635  0.5861
 6231TIP3    H142888   5.590   6.569   3.443 -0.9602 -1.3789 -0.9394
 6231TIP3    H242889   5.717   6.491   3.469 -0.4079 -0.1610  0.1261
 6232TIP3   OH242890   7.059   0.435   0.892  0.1352 -0.0744 -0.5481
 6232TIP3    H142891   6.990   0.384   0.850  0.6682  0.0363 -1.5978
 6232TIP3    H242892   7.090   0.495   0.824 -1.0632  2.3169  0.9171
 6233TIP3   OH242893   1.977   4.339   1.157  0.1338  0.4530 -0.5243
 6233TIP3    H142894   2.064   4.300   1.151 -0.0728  0.1362 -1.5858
 6233TIP3    H242895   1.991   4.432   1.139  0.1033  0.2012 -1.9541
 6234TIP3   OH242896   7.262   2.792   1.597  0.4061 -0.1191 -0.2814
 6234TIP3    H142897   7.251   2.880   1.560 -0.4797 -0.9003 -1.9923
 6234TIP3    H242898   7.172   2.763   1.614  0.7601  0.2716  2.8361
 6235TIP3   OH242899   2.704   0.388   2.044 -0.1670  0.3263 -0.5533
 6235TIP3    H142900   2.749   0.427   2.118 -0.3131 -0.0120 -0.2835
 6235TIP3    H242901   2.736   0.298   2.041  0.1575  0.4570 -1.1608
 6236TIP3   OH242902   4.048   6.639   2.191  0.2069  0.0651 -0.1915
 6236TIP3    H142903   4.074   6.629   2.282 -0.0204  0.3856 -0.0884
 6236TIP3    H242904   3.953   6.646   2.194  0.1348 -0.6865 -0.5285
 6237TIP3   OH242905   2.912   3.910   1.902  0.0118  0.2796 -0.0824
 6237TIP3    H142906   2.962   3.991   1.885 -1.0348  1.3683  1.7224
 6237TIP3    H242907   2.824   3.929   1.872 -0.3193 -0.0534  0.6416
 6238TIP3   OH242908   2.106   5.235   0.901 -0.1271  0.0544 -0.2860
 6238TIP3    H142909   2.036   5.174   0.921 -0.4728 -0.2328 -2.1701
 6238TIP3    H242910   2.064   5.307   0.855  0.8790 -0.7241 -2.6235
 6239TIP3   OH242911   4.544   4.649   1.238  0.1289  0.0845 -0.2686
 6239TIP3    H142912   4.615   4.615   1.184  1.5035  0.4138  1.2506
 6239TIP3    H242913   4.472   4.666   1.176  0.8238 -1.6392 -1.6408
 6240TIP3   OH242914   4.625   4.388   0.651 -0.3979 -0.2875  0.0752
 6240TIP3    H142915   4.692   4.397   0.718  0.9044 -0.4822 -1.1562
 6240TIP3    H242916   4.641   4.461   0.591 -1.7290  0.0568  0.1136
 6241TIP3   OH242917   7.308   0.090   0.981 -0.0824  0.3066  0.1639
 6241TIP3    H142918   7.311   0.183   1.000 -1.6299  0.2214  1.0005
 6241TIP3    H242919   7.214   0.069   0.979  0.1843 -0.9391 -1.5456
 6242TIP3   OH242920   4.357   0.279   1.319 -0.0649 -0.0297  0.1959
 6242TIP3    H142921   4.405   0.346   1.271  0.3617 -0.2499  0.3079
 6242TIP3    H242922   4.386   0.196   1.281 -1.5777 -0.1165 -0.8486
 6243TIP3   OH242923   7.137   3.851   0.984 -0.3751 -0.5203  0.4395
 6243TIP3    H142924   7.086   3.815   0.912  1.2583  0.0599 -1.0852
 6243TIP3    H242925   7.140   3.945   0.966  2.4425 -0.6883 -0.4258
 6244TIP3   OH242926   3.755   4.484   1.603  0.2714  0.4928  0.5059
 6244TIP3    H142927   3.732   4.525   1.519 -0.0513  0.8293  0.7504
 6244TIP3    H242928   3.804   4.406   1.580 -0.2411  0.3209 -0.0100
 6245TIP3   OH242929   2.445   4.259   1.508  0.0827  0.1399 -0.0987
 6245TIP3    H142930   2.390   4.313   1.564 -0.2936  0.4456 -0.7504
 6245TIP3    H242931   2.385   4.193   1.472  0.4906 -0.5831  0.5069
 6246TIP3   OH242932   6.132   0.625   2.604  0.1939 -0.0599  0.0378
 6246TIP3    H142933   6.085   0.702   2.636  0.8417  0.2500  0.2600
 6246TIP3    H242934   6.069   0.553   2.611 -0.3039  0.3824  0.1477
 6247TIP3   OH242935   2.984   0.358   1.818 -0.4432 -0.5339 -0.6937
 6247TIP3    H142936   2.953   0.443   1.848 -0.9603 -0.7095 -0.7241
 6247TIP3    H242937   3.065   0.343   1.866 -0.5588 -0.1994 -0.3962
 6248TIP3   OH242938   6.281   2.804   0.395  0.7976 -0.3396  1.1244
 6248TIP3    H142939   6.210   2.863   0.420 -1.7526 -2.9846  0.7574
 6248TIP3    H242940   6.256   2.720   0.434  2.4598 -1.9542 -1.0482
 6249TIP3   OH242941   6.958   1.997   1.654  0.6196 -0.0473 -0.1991
 6249TIP3    H142942   6.975   2.069   1.715 -1.3743  1.5518 -1.3926
 6249TIP3    H242943   7.017   2.014   1.581  1.9677 -1.1395  0.5853
 6250TIP3   OH242944   6.675   1.766   0.818  0.4358 -0.1821 -0.1269
 6250TIP3    H142945   6.724   1.846   0.797  0.6279 -0.9083 -2.8794
 6250TIP3    H242946   6.712   1.736   0.901  1.6627  1.5799  0.0179
 6251TIP3   OH242947   5.690   2.651   1.669 -0.3328  0.5346 -0.2102
 6251TIP3    H142948   5.717   2.566   1.632  0.6897  0.6835  0.1700
 6251TIP3    H242949   5.641   2.692   1.599 -1.3543 -0.6153 -0.2053
 6252TIP3   OH242950   1.777   4.068   1.926 -0.2432  0.5107  0.2242
 6252TIP3    H142951   1.815   3.994   1.879 -0.7851 -0.9582  1.9535
 6252TIP3    H242952   1.694   4.085   1.882  0.8423  1.5774 -1.5279
 6253TIP3   OH242953   6.166   6.439   1.808  0.6885  0.3833 -0.6547
 6253TIP3    H142954   6.107   6.384   1.860  0.3833  0.4067 -0.9709
 6253TIP3    H242955   6.194   6.508   1.868  0.5636  0.2478 -0.4399
 6254TIP3   OH242956   4.923   2.086   2.237  0.0533 -0.0676  0.4311
 6254TIP3    H142957   4.869   2.099   2.315 -0.0698 -0.5807  0.4375
 6254TIP3    H242958   4.933   1.991   2.230 -0.5765 -0.0745 -0.6149
 6255TIP3   OH242959   1.234   4.216   1.202 -0.0774  0.4550  0.1661
 6255TIP3    H142960   1.164   4.281   1.194 -2.0572 -0.7903  4.3233
 6255TIP3    H242961   1.309   4.264   1.236 -0.8176  0.9677  1.1143
 6256TIP3   OH242962   4.782   4.139   2.029  0.7852  0.0388  0.5999
 6256TIP3    H142963   4.759   4.076   2.098 -1.1669 -0.0748 -0.0689
 6256TIP3    H242964   4.734   4.107   1.952  1.8548  0.9091 -0.4446
 6257TIP3   OH242965   6.690   0.628   2.770  0.5549 -0.1864  0.3889
 6257TIP3    H142966   6.673   0.616   2.677  0.3804  0.9644  0.2650
 6257TIP3    H242967   6.653   0.714   2.791  0.5881 -0.4295  1.5197
 6258TIP3   OH242968   0.490   0.930   1.494  0.0252  0.3130  0.0337
 6258TIP3    H142969   0.429   0.893   1.431  2.0110  0.2134 -1.9753
 6258TIP3    H242970   0.575   0.896   1.468  1.4192  3.0790  0.5582
 6259TIP3   OH242971   2.120   2.877   1.797  0.1259  0.1154 -0.2703
 6259TIP3    H142972   2.173   2.830   1.733  0.7333  1.1995 -0.5956
 6259TIP3    H242973   2.126   2.825   1.877 -1.2064 -1.6448 -1.2200
 6260TIP3   OH242974   0.887   2.508   2.557  0.0256  0.0685  0.8127
 6260TIP3    H142975   0.901   2.436   2.619  0.4532 -0.9700 -0.4667
 6260TIP3    H242976   0.975   2.539   2.536 -0.1650  1.1566  1.5434
 6261TIP3   OH242977   4.747   2.853   1.082 -0.4700 -0.6803 -0.9096
 6261TIP3    H142978   4.812   2.861   1.152 -1.4321  0.7862 -0.1361
 6261TIP3    H242979   4.687   2.785   1.113 -0.2846 -0.7996 -0.8092
 6262TIP3   OH242980   3.903   2.566   1.198 -0.0341  0.3766 -0.1817
 6262TIP3    H142981   3.972   2.552   1.263 -1.2121 -1.1036  0.8159
 6262TIP3    H242982   3.824   2.583   1.249 -0.6840  0.7795 -1.2708
 6263TIP3   OH242983   1.264   2.264   2.117  0.4200 -0.7828  0.7667
 6263TIP3    H142984   1.199   2.333   2.126  0.0415 -1.2317  1.7234
 6263TIP3    H242985   1.312   2.265   2.200  2.6109  0.4574 -0.4270
 6264TIP3   OH242986   6.574   4.475   1.160 -0.1525 -0.3831 -0.1169
 6264TIP3    H142987   6.627   4.412   1.209  1.5507  1.4461  0.5211
 6264TIP3    H242988   6.491   4.429   1.144  1.5386 -3.3265 -1.0838
 6265TIP3   OH242989   2.383   5.361   2.626 -0.1455  0.0572 -0.1767
 6265TIP3    H142990   2.458   5.421   2.633 -1.6387  2.0055 -0.2249
 6265TIP3    H242991   2.415   5.279   2.664  2.2089  0.6269 -0.7639
 6266TIP3   OH242992   4.756   1.185   0.686  0.1698 -0.0257  0.0276
 6266TIP3    H142993   4.837   1.155   0.645  1.9986  1.4007  2.3794
 6266TIP3    H242994   4.747   1.130   0.764 -1.7390 -0.8357 -0.6982
 6267TIP3   OH242995   4.264   2.085   1.069 -0.1316  0.2739  0.7533
 6267TIP3    H142996   4.332   2.026   1.036  0.5908  1.2799  0.3908
 6267TIP3    H242997   4.287   2.097   1.161  0.7379  1.3224  0.4194
 6268TIP3   OH242998   2.443   6.968   1.952 -0.3272  0.3820  0.0329
 6268TIP3    H142999   2.461   7.012   2.035 -1.1189  0.2148  0.3061
 6268TIP3    H243000   2.398   6.887   1.976 -0.8479  0.4795 -0.5630
 6269TIP3   OH243001   7.192   6.089   2.232  0.0130  0.4317  0.3664
 6269TIP3    H143002   7.172   6.065   2.323 -1.1561 -0.8420 -0.1888
 6269TIP3    H243003   7.277   6.049   2.215  0.0247  0.2797  0.7662
 6270TIP3   OH243004   5.972   0.798   1.439 -0.2010 -0.4457  0.2230
 6270TIP3    H143005   6.017   0.839   1.513 -1.0907 -1.1274  1.1902
 6270TIP3    H243006   5.921   0.727   1.479 -1.8120  0.0340 -0.8510
 6271TIP3   OH243007   3.999   3.885   1.224 -0.4867  0.5563  0.1219
 6271TIP3    H143008   4.056   3.953   1.187  0.8691  0.0052  1.1313
 6271TIP3    H243009   3.922   3.933   1.253  0.8504  1.8962  1.7137
 6272TIP3   OH243010   1.367   6.760   1.980  0.1072 -0.1061  0.2319
 6272TIP3    H143011   1.394   6.784   2.069 -1.1879 -0.1320  0.6646
 6272TIP3    H243012   1.431   6.803   1.923  2.1993 -1.7814  1.1974
 6273TIP3   OH243013   5.277   3.778   1.915  0.5352 -0.0921 -0.0438
 6273TIP3    H143014   5.314   3.836   1.982  0.6795 -0.5406  0.2701
 6273TIP3    H243015   5.268   3.694   1.959  0.2791 -0.2952 -0.4825
 6274TIP3   OH243016   2.373   0.559   2.779  0.1916  0.6261 -0.0833
 6274TIP3    H143017   2.452   0.604   2.810 -0.4984  1.4906  0.4644
 6274TIP3    H243018   2.349   0.605   2.699  0.0232  0.6227 -0.0347
 6275TIP3   OH243019   7.546   2.561   3.160 -0.5711  0.2755  0.0698
 6275TIP3    H143020   7.524   2.618   3.233 -0.7097  1.9295 -1.2213
 6275TIP3    H243021   7.624   2.600   3.120 -0.1053 -0.9681 -0.2986
 6276TIP3   OH243022   2.273   0.936   0.754  0.2100  0.1090 -0.1142
 6276TIP3    H143023   2.275   1.011   0.694  0.7176  1.5014  1.5550
 6276TIP3    H243024   2.330   0.962   0.826  1.2380 -2.3411  0.0510
 6277TIP3   OH243025   6.320   6.560   1.545  0.5247  0.4368 -0.3225
 6277TIP3    H143026   6.335   6.541   1.638 -0.5089  0.4660 -0.1396
 6277TIP3    H243027   6.302   6.475   1.506 -2.7098  0.7635  0.2313
 6278TIP3   OH243028   4.946   6.607   1.593  0.3793  0.4346  0.2255
 6278TIP3    H143029   4.915   6.680   1.540 -1.4749 -0.2348  0.3369
 6278TIP3    H243030   4.918   6.529   1.545  1.6763 -0.2257  0.4886
 6279TIP3   OH243031   4.678   6.700   0.668  0.5869 -0.0885  0.1086
 6279TIP3    H143032   4.741   6.632   0.641  0.9993  0.3192  0.0316
 6279TIP3    H243033   4.730   6.780   0.672  0.1097  0.2158  0.2438
 6280TIP3   OH243034   2.855   4.040   1.450  0.0002 -0.8260  0.0799
 6280TIP3    H143035   2.798   4.057   1.524 -0.1433  1.0343 -0.3958
 6280TIP3    H243036   2.813   4.084   1.376  1.2708 -0.7080 -0.6136
 6281TIP3   OH243037   5.554   3.302   1.257 -0.0562  0.4393 -0.7382
 6281TIP3    H143038   5.471   3.270   1.221  0.4546  0.4050 -1.9282
 6281TIP3    H243039   5.558   3.394   1.232  1.0952  0.0023 -2.3570
 6282TIP3   OH243040   3.842   3.373   2.318  0.3757 -0.4259 -0.1451
 6282TIP3    H143041   3.863   3.387   2.410 -1.2803 -2.4155  0.6279
 6282TIP3    H243042   3.886   3.290   2.296 -1.2851 -1.2873 -0.3533
 6283TIP3   OH243043   4.295   6.655   0.948  0.0927  0.2256  0.4462
 6283TIP3    H143044   4.325   6.733   0.901  0.1141 -0.5299 -0.8330
 6283TIP3    H243045   4.338   6.582   0.905 -1.4511 -0.6635  0.3288
 6284TIP3   OH243046   4.292   0.199   2.509 -0.3721 -0.2618  0.3483
 6284TIP3    H143047   4.201   0.170   2.502 -0.5973  0.1519  1.3055
 6284TIP3    H243048   4.313   0.186   2.602  0.2609  0.4639  0.3098
 6285TIP3   OH243049   0.370   3.050   0.859 -0.2076  0.1188  0.1685
 6285TIP3    H143050   0.326   2.993   0.795  1.3566 -0.7049 -0.2277
 6285TIP3    H243051   0.370   3.136   0.817  0.2816 -0.2907 -0.7163
 6286TIP3   OH243052   7.653   6.617   2.013  0.6756 -0.3900 -0.2346
 6286TIP3    H143053   7.710   6.545   1.986  0.1131 -0.8287 -0.2657
 6286TIP3    H243054   7.594   6.578   2.077  0.3204  0.0304 -0.3050
 6287TIP3   OH243055   5.550   3.465   1.662  0.6079  0.6510  0.0214
 6287TIP3    H143056   5.519   3.434   1.747  0.8438  0.2773 -0.0293
 6287TIP3    H243057   5.606   3.395   1.629 -0.6546  0.1137 -1.1120
 6288TIP3   OH243058   5.780   1.280   2.248  0.8778  0.2817  0.1994
 6288TIP3    H143059   5.784   1.369   2.214 -0.8982  0.5727  0.6440
 6288TIP3    H243060   5.762   1.226   2.171 -0.5805  0.6324  0.2727
 6289TIP3   OH243061   3.081   6.969   0.828  0.9696  0.1487  0.3582
 6289TIP3    H143062   3.005   7.012   0.787 -0.9986 -2.5558  0.8755
 6289TIP3    H243063   3.156   7.016   0.793 -0.8465  1.7834 -1.7001
 6290TIP3   OH243064   0.646   6.139   1.448 -0.1598  0.2302 -0.3186
 6290TIP3    H143065   0.676   6.110   1.362 -0.6625 -0.6607 -0.2097
 6290TIP3    H243066   0.662   6.064   1.505 -0.3954  0.5934  0.2327
 6291TIP3   OH243067   1.447   3.853   1.067  0.2813 -0.2612  0.1857
 6291TIP3    H143068   1.456   3.806   0.984  2.5297 -0.0330  0.2570
 6291TIP3    H243069   1.530   3.838   1.112 -0.7909 -0.1404  2.2892
 6292TIP3   OH243070   1.861   6.663   1.616  0.4260 -0.0532  0.4391
 6292TIP3    H143071   1.838   6.651   1.524  1.2631 -2.8027  0.5013
 6292TIP3    H243072   1.955   6.645   1.620  0.3185 -0.4351  1.8656
 6293TIP3   OH243073   4.405   5.349   1.666 -0.2839 -0.8480 -0.0320
 6293TIP3    H143074   4.332   5.332   1.606  0.5328 -0.9811 -1.0031
 6293TIP3    H243075   4.409   5.445   1.672 -1.3738 -0.8440  1.0961
 6294TIP3   OH243076   4.624   4.149   0.870  0.4530 -0.4623 -0.1690
 6294TIP3    H143077   4.683   4.145   0.945  0.5919 -1.9404 -0.3225
 6294TIP3    H243078   4.555   4.211   0.896  2.2644  1.6849 -0.1668
 6295TIP3   OH243079   4.811   6.647   2.110 -0.3895  0.3966  0.0771
 6295TIP3    H143080   4.855   6.595   2.177  0.0928 -0.8896 -1.1873
 6295TIP3    H243081   4.719   6.647   2.136 -0.4096 -1.1944  0.0715
 6296TIP3   OH243082   6.776   4.080   2.055 -0.1110  0.1792  0.0556
 6296TIP3    H143083   6.703   4.041   2.006  1.6474 -4.7628  0.7585
 6296TIP3    H243084   6.743   4.089   2.144  0.0626 -2.3466  0.4487
 6297TIP3   OH243085   2.871   4.599   2.101 -0.2695  0.0306 -0.5511
 6297TIP3    H143086   2.901   4.670   2.045  0.3864  1.9193  2.0067
 6297TIP3    H243087   2.822   4.642   2.171 -2.3642 -2.3273 -0.3901
 6298TIP3   OH243088   4.138   4.432   0.643 -1.1884 -0.3554 -0.1191
 6298TIP3    H143089   4.153   4.469   0.730 -2.0695  1.4362 -0.6744
 6298TIP3    H243090   4.222   4.394   0.618  0.2914  2.5647 -0.0430
 6299TIP3   OH243091   1.225   5.450   0.707 -0.1221 -0.0595  0.0367
 6299TIP3    H143092   1.285   5.398   0.653 -0.7341 -0.1053 -0.6155
 6299TIP3    H243093   1.159   5.387   0.738 -0.9782  0.3437 -0.9141
 6300TIP3   OH243094   2.517   6.064   1.981  0.3156  0.4985 -0.1352
 6300TIP3    H143095   2.459   5.991   1.960 -1.1240  1.8708 -1.2241
 6300TIP3    H243096   2.462   6.142   1.969  1.3322  1.7278  2.4926
 6301TIP3   OH243097   5.746   2.332   1.127  0.0232  0.2351 -0.1829
 6301TIP3    H143098   5.748   2.241   1.156 -0.9824  0.2706  0.0118
 6301TIP3    H243099   5.744   2.327   1.032  1.1688  0.0844 -0.2151
 6302TIP3   OH243100   4.259   5.294   1.229 -0.4711  0.1405 -0.4842
 6302TIP3    H143101   4.198   5.289   1.302  0.6475 -0.0111  0.4621
 6302TIP3    H243102   4.222   5.235   1.163 -1.1138 -0.2907  0.2486
 6303TIP3   OH243103   5.527   3.044   2.340  0.2800  0.6092 -0.1430
 6303TIP3    H143104   5.512   3.083   2.426  0.3937  0.0019  0.1579
 6303TIP3    H243105   5.614   3.076   2.314  0.4622  0.3965  0.1952
 6304TIP3   OH243106   6.892   0.282   3.721  0.1438  0.5250  0.1178
 6304TIP3    H143107   6.814   0.231   3.696  0.9138 -0.7809  0.3000
 6304TIP3    H243108   6.868   0.322   3.805 -0.2471 -0.0848  0.3071
 6305TIP3   OH243109   6.398   3.987   1.540  0.2494  0.2637  0.4891
 6305TIP3    H143110   6.358   3.912   1.584 -0.0432  0.5728  0.7550
 6305TIP3    H243111   6.351   4.063   1.574 -0.5827  0.4497 -0.9807
 6306TIP3   OH243112   7.087   3.490   0.447  0.2195  0.4584  0.3375
 6306TIP3    H143113   7.005   3.526   0.412  0.8120  0.7947 -0.7564
 6306TIP3    H243114   7.150   3.562   0.440  0.8801 -0.1254  0.1324
 6307TIP3   OH243115   6.012   6.977   2.664 -0.1288 -0.4015  0.5582
 6307TIP3    H143116   5.924   7.015   2.658  1.0408  2.2483 -2.1279
 6307TIP3    H243117   6.005   6.893   2.618 -1.4330 -0.7486  1.3169
 6308TIP3   OH243118   0.442   7.318   2.000  0.2403  0.4983  0.3232
 6308TIP3    H143119   0.370   7.294   1.941  0.8203 -2.2542  0.6050
 6308TIP3    H243120   0.400   7.328   2.086  0.0456 -0.0020  0.2855
 6309TIP3   OH243121   1.454   6.714   1.196 -0.0745  0.2206 -0.0621
 6309TIP3    H143122   1.531   6.770   1.204 -0.0829  0.1337  0.7703
 6309TIP3    H243123   1.423   6.703   1.287  0.0860 -1.3593 -0.1730
 6310TIP3   OH243124   5.141   4.415   0.752 -0.5017  0.2240 -0.3919
 6310TIP3    H143125   5.220   4.397   0.701  0.4645 -0.2177  1.1581
 6310TIP3    H243126   5.079   4.452   0.690  1.0346  0.8605 -1.5997
 6311TIP3   OH243127   2.002   7.067   1.665  0.0573  0.9819  0.1837
 6311TIP3    H143128   2.073   7.071   1.729  0.7175  2.0190 -0.5789
 6311TIP3    H243129   2.045   7.043   1.583 -0.7211  0.0335  0.0300
 6312TIP3   OH243130   6.660   0.992   1.328 -0.2532 -0.2559 -0.1585
 6312TIP3    H143131   6.724   0.923   1.314  0.8680  0.8964 -0.9113
 6312TIP3    H243132   6.609   0.995   1.247 -0.6374 -0.5371  0.0710
 6313TIP3   OH243133   6.528   6.806   1.914 -0.9905 -0.0140  0.1157
 6313TIP3    H143134   6.494   6.895   1.903  1.4989  0.9783 -0.2741
 6313TIP3    H243135   6.518   6.788   2.008 -0.9741  0.9070  0.3008
 6314TIP3   OH243136   2.867   3.599   1.557  0.2313  0.3786 -0.3829
 6314TIP3    H143137   2.882   3.505   1.547  1.3568  0.2938  1.5262
 6314TIP3    H243138   2.950   3.633   1.591 -0.3954  1.9380 -0.3277
 6315TIP3   OH243139   3.969   4.004   2.009 -0.3171  0.4308  0.1635
 6315TIP3    H143140   4.027   4.066   1.965 -0.6031  1.7256  1.4994
 6315TIP3    H243141   3.881   4.030   1.982 -0.3660 -1.2326 -1.4887
 6316TIP3   OH243142   2.748   1.401   1.430  0.2684  0.1705 -0.6084
 6316TIP3    H143143   2.699   1.387   1.511  0.8713 -0.6837 -0.3682
 6316TIP3    H243144   2.828   1.349   1.442  0.6333  0.5077 -1.5105
 6317TIP3   OH243145   6.729   4.872   3.032  0.7146 -0.5578  0.4489
 6317TIP3    H143146   6.768   4.790   3.062  2.4821  0.0310 -0.1300
 6317TIP3    H243147   6.756   4.880   2.941  0.8650  0.8055  0.5877
 6318TIP3   OH243148   4.668   7.261   2.682 -0.3491  0.0488 -0.0362
 6318TIP3    H143149   4.658   7.166   2.694  1.0097  0.0689  1.6218
 6318TIP3    H243150   4.763   7.275   2.683 -0.5139  1.7203  2.9107
 6319TIP3   OH243151   3.915   7.320   0.987  0.0973 -0.1435  0.1514
 6319TIP3    H143152   3.873   7.255   1.044 -1.9007  0.5394 -0.4709
 6319TIP3    H243153   4.009   7.304   0.998 -0.3029 -2.2571  1.0259
 6320TIP3   OH243154   4.519   6.269   0.932  0.0798  0.6194  0.0483
 6320TIP3    H143155   4.426   6.272   0.956 -0.7186 -1.2033 -2.4432
 6320TIP3    H243156   4.560   6.218   1.002 -0.8966  0.9315  0.8749
 6321TIP3   OH243157   4.572   7.070   1.537  0.1553 -0.3854 -0.1233
 6321TIP3    H143158   4.547   7.054   1.446 -2.3910  0.3072  0.3934
 6321TIP3    H243159   4.573   6.983   1.577  2.4972 -0.8425 -1.0241
 6322TIP3   OH243160   0.166   5.630   1.072  0.4550 -0.0800  0.0546
 6322TIP3    H143161   0.236   5.582   1.028  0.5579 -0.8826  1.0452
 6322TIP3    H243162   0.092   5.569   1.072 -0.2772  0.7840 -1.0432
 6323TIP3   OH243163   2.756   1.618   1.836  0.3695 -0.3852 -0.1373
 6323TIP3    H143164   2.664   1.593   1.834  0.5820 -1.2069  0.1544
 6323TIP3    H243165   2.759   1.694   1.894 -0.1995 -0.0112 -0.5849
 6324TIP3   OH243166   6.395   2.651   0.752  0.1090  0.5194 -0.0931
 6324TIP3    H143167   6.388   2.622   0.843  0.3287  0.9870  0.0727
 6324TIP3    H243168   6.448   2.730   0.756  0.2207  0.4750 -0.6429
 6325TIP3   OH243169   2.006   1.014   2.714  1.0416  0.4159  0.6487
 6325TIP3    H143170   2.005   1.014   2.809 -0.0806 -0.1216  0.6642
 6325TIP3    H243171   2.037   1.101   2.689 -0.8904  1.4228  1.5339
 6326TIP3   OH243172   7.417   3.529   1.465  0.2783 -0.0874 -0.0342
 6326TIP3    H143173   7.410   3.437   1.490 -0.5726  0.1578  0.6810
 6326TIP3    H243174   7.497   3.534   1.413 -0.0619 -1.3697 -0.7241
 6327TIP3   OH243175   0.377   5.509   1.521 -0.0945 -0.1488 -0.0595
 6327TIP3    H143176   0.376   5.468   1.435 -0.2167 -1.1993  0.4186
 6327TIP3    H243177   0.323   5.587   1.512  0.3507  0.0590 -1.0661
 6328TIP3   OH243178   3.237   6.104   0.940  0.1653  0.3707  0.1335
 6328TIP3    H143179   3.233   6.182   0.995  0.1730  1.0863 -0.8513
 6328TIP3    H243180   3.330   6.093   0.921  0.2107 -0.1570  0.6490
 6329TIP3   OH243181   7.327   1.101   0.840  0.4632 -0.5623 -0.4031
 6329TIP3    H143182   7.342   1.124   0.749  1.0807 -0.1706 -0.2090
 6329TIP3    H243183   7.266   1.167   0.873 -1.0862 -1.6570 -0.9617
 6330TIP3   OH243184   1.512   6.497   2.020  0.0334 -0.0818  0.3765
 6330TIP3    H143185   1.477   6.549   1.948 -0.4091 -0.9918 -0.0788
 6330TIP3    H243186   1.434   6.462   2.064  0.3328 -0.9789  0.2125
 6331TIP3   OH243187   6.219   3.463   1.453 -0.0973 -0.3514  0.0689
 6331TIP3    H143188   6.292   3.416   1.413 -0.3787 -1.0931  0.3875
 6331TIP3    H243189   6.197   3.532   1.391 -2.3209 -3.1196 -2.5264
 6332TIP3   OH243190   7.356   7.348   1.648 -0.2237 -0.8017 -0.9632
 6332TIP3    H143191   7.414   7.381   1.580 -0.8157 -0.7001 -1.4247
 6332TIP3    H243192   7.276   7.322   1.602 -0.0816 -2.1084 -0.5070
 6333TIP3   OH243193   5.290   5.398   1.655 -0.4074  0.1591 -0.5190
 6333TIP3    H143194   5.328   5.429   1.737 -1.5254  1.6636 -0.5414
 6333TIP3    H243195   5.364   5.357   1.609  0.6272  0.8786  0.4557
 6334TIP3   OH243196   2.581   3.600   1.605 -0.2879 -0.1359  0.5223
 6334TIP3    H143197   2.569   3.522   1.551 -1.1251  0.1273  0.3014
 6334TIP3    H243198   2.674   3.619   1.600 -0.0390 -1.2332  0.7441
 6335TIP3   OH243199   4.695   1.621   0.882 -0.4977  0.1796  0.3897
 6335TIP3    H143200   4.692   1.716   0.889 -0.0412  0.1195  2.1856
 6335TIP3    H243201   4.789   1.601   0.879 -0.5285 -0.2607  1.7258
 6336TIP3   OH243202   2.769   6.084   1.915  0.8349  0.0867  0.2970
 6336TIP3    H143203   2.778   6.180   1.923  0.0612  0.0774  1.6903
 6336TIP3    H243204   2.678   6.067   1.940  0.1339 -0.8015 -2.5526
 6337TIP3   OH243205   0.775   2.328   0.698 -0.0761 -0.4568 -0.2992
 6337TIP3    H143206   0.772   2.270   0.622  0.5278 -0.2750 -0.4674
 6337TIP3    H243207   0.867   2.330   0.724 -0.0360  0.6395 -0.4655
 6338TIP3   OH243208   1.318   2.291   1.795  0.6786  0.7366  0.0745
 6338TIP3    H143209   1.317   2.250   1.882  1.1225  0.0700 -0.2243
 6338TIP3    H243210   1.386   2.357   1.801  0.8963  0.5076  0.1587
 6339TIP3   OH243211   2.893   6.093   2.329  0.9120 -0.0108  0.1685
 6339TIP3    H143212   2.853   6.017   2.286 -1.2255 -0.0107  2.0060
 6339TIP3    H243213   2.962   6.120   2.269 -0.0532 -1.7342 -1.8571
 6340TIP3   OH243214   7.168   5.401   1.187  0.3470 -0.3719  0.3263
 6340TIP3    H143215   7.194   5.491   1.166 -1.1675 -0.1504 -0.7650
 6340TIP3    H243216   7.172   5.356   1.103  1.4259 -1.4358  0.9242
 6341TIP3   OH243217   1.221   4.027   3.258  0.3376 -0.3010 -0.4677
 6341TIP3    H143218   1.126   4.017   3.256  0.4142 -1.2253 -0.2692
 6341TIP3    H243219   1.239   4.096   3.194 -0.4271 -0.4698 -0.8828
 6342TIP3   OH243220   3.251   7.524   1.932  0.0585 -0.5011  0.2578
 6342TIP3    H143221   3.243   7.619   1.922 -1.6179 -0.5464  0.8862
 6342TIP3    H243222   3.330   7.513   1.985 -0.0326  0.5789  0.6570
 6343TIP3   OH243223   1.590   2.890   1.785 -0.2211 -0.1863  0.5823
 6343TIP3    H143224   1.524   2.947   1.745  1.0474  0.6266 -0.4188
 6343TIP3    H243225   1.670   2.941   1.783  0.5005 -1.2162  1.6413
 6344TIP3   OH243226   0.500   1.457   0.903  0.3484 -0.1686 -0.0169
 6344TIP3    H143227   0.540   1.374   0.874 -1.8717 -1.2124 -0.2462
 6344TIP3    H243228   0.435   1.477   0.836  0.2199  1.3256  0.5108
 6345TIP3   OH243229   3.892   1.374   2.912 -0.1229 -0.7677 -0.6588
 6345TIP3    H143230   3.877   1.329   2.995 -0.1578 -0.8973 -0.7351
 6345TIP3    H243231   3.981   1.409   2.919 -0.1957 -0.6148 -0.4913
 6346TIP3   OH243232   5.382   5.047   2.743  0.3295 -0.1553  0.9320
 6346TIP3    H143233   5.350   4.984   2.808 -1.1221  0.8993  1.3012
 6346TIP3    H243234   5.356   5.009   2.659 -0.0516 -0.3153  1.1166
 6347TIP3   OH243235   3.597   3.420   2.196 -0.3921  0.5859  0.5085
 6347TIP3    H143236   3.574   3.354   2.130 -1.6279  0.7366  0.7648
 6347TIP3    H243237   3.682   3.391   2.230 -0.4976 -0.3817 -0.0194
 6348TIP3   OH243238   0.405   1.837   0.552 -0.2472  0.2262 -0.2151
 6348TIP3    H143239   0.365   1.790   0.625 -0.0723  0.1904 -0.1403
 6348TIP3    H243240   0.339   1.901   0.524 -0.5282 -0.1363 -0.3883
 6349TIP3   OH243241   4.772   4.331   1.358 -0.6438  0.1038  0.6024
 6349TIP3    H143242   4.832   4.329   1.432  0.5745  3.1741 -0.1472
 6349TIP3    H243243   4.699   4.386   1.387 -1.6632 -1.1220  0.4719
 6350TIP3   OH243244   1.957   7.528   2.916 -0.3243  1.1048 -0.4224
 6350TIP3    H143245   1.972   7.623   2.919 -0.9026  1.1809  0.2719
 6350TIP3    H243246   2.034   7.493   2.872  0.7489  1.7205  0.8996
 6351TIP3   OH243247   3.611   1.796   1.087 -0.1951  0.3687 -0.1022
 6351TIP3    H143248   3.699   1.815   1.055 -0.4661  0.3363 -0.8832
 6351TIP3    H243249   3.559   1.872   1.061 -0.5479  0.0739 -0.2751
 6352TIP3   OH243250   3.328   1.186   2.810 -0.2368 -0.1328  0.2194
 6352TIP3    H143251   3.370   1.169   2.894  0.9491 -0.9465 -0.5157
 6352TIP3    H243252   3.381   1.254   2.769 -0.3212 -0.3261 -0.2204
 6353TIP3   OH243253   4.818   7.629   3.078 -0.5713  0.3893 -0.1931
 6353TIP3    H143254   4.773   7.566   3.022 -0.7096 -0.1971  0.5662
 6353TIP3    H243255   4.766   7.633   3.158  1.2553 -1.1263  1.1682
 6354TIP3   OH243256   5.939   0.510   1.539  0.1427  0.3112 -0.1541
 6354TIP3    H143257   5.918   0.480   1.628 -1.0134 -1.1121 -0.8649
 6354TIP3    H243258   5.855   0.535   1.502  0.5405  0.3732 -1.0365
 6355TIP3   OH243259   0.218   1.742   1.363  0.3436 -0.6642 -0.0466
 6355TIP3    H143260   0.168   1.817   1.395  2.6654  0.3483  1.4238
 6355TIP3    H243261   0.168   1.711   1.287 -1.5378  1.3300  0.2727
 6356TIP3   OH243262   1.403   0.200   2.996 -0.2072 -0.1116 -0.2687
 6356TIP3    H143263   1.381   0.288   3.028 -0.5026 -0.6517  1.0851
 6356TIP3    H243264   1.459   0.163   3.064 -2.8932 -2.2397  0.9885
 6357TIP3   OH243265   2.322   3.002   1.157 -0.5672 -0.2352 -0.1583
 6357TIP3    H143266   2.247   2.952   1.123 -3.3223  3.3440  0.0972
 6357TIP3    H243267   2.310   3.001   1.252  2.1486 -2.9220  0.2892
 6358TIP3   OH243268   0.875   4.991   2.177  0.3723 -0.3359  0.1624
 6358TIP3    H143269   0.858   5.020   2.087  2.7059 -0.0220 -0.2523
 6358TIP3    H243270   0.851   4.899   2.178 -0.7146 -0.0801 -0.4389
 6359TIP3   OH243271   1.518   6.629   1.634 -0.3044  0.0026 -0.2103
 6359TIP3    H143272   1.460   6.599   1.564  0.7066 -1.1948 -0.5863
 6359TIP3    H243273   1.563   6.705   1.597 -0.4107 -0.0920 -0.5390
 6360TIP3   OH243274   5.910   3.695   0.928  0.6197 -0.0537 -0.3815
 6360TIP3    H143275   5.869   3.608   0.929 -1.3166  0.8089  0.3122
 6360TIP3    H243276   5.935   3.710   1.019 -1.6655  1.2163  0.1128
 6361TIP3   OH243277   1.261   4.796   1.594  0.5615 -0.0431 -0.0118
 6361TIP3    H143278   1.298   4.775   1.680 -2.3712 -2.1020  0.8736
 6361TIP3    H243279   1.225   4.884   1.605  0.6069 -0.1072  0.7433
 6362TIP3   OH243280   5.499   2.419   2.123 -0.0979  0.5485  0.5544
 6362TIP3    H143281   5.524   2.439   2.032  1.6426 -1.2028  0.5932
 6362TIP3    H243282   5.403   2.417   2.121 -0.1178  1.4587 -1.0304
 6363TIP3   OH243283   7.322   2.796   2.971 -0.6158 -0.1519 -0.1657
 6363TIP3    H143284   7.371   2.812   3.051  1.2440 -2.1661 -0.7909
 6363TIP3    H243285   7.231   2.788   2.999 -0.3056  1.2393  1.4016
 6364TIP3   OH243286   4.196   0.598   1.534  0.1470  0.5274  0.5721
 6364TIP3    H143287   4.173   0.553   1.453 -1.5341  3.0073 -0.4454
 6364TIP3    H243288   4.162   0.542   1.603 -2.8277  0.6273 -0.6693
 6365TIP3   OH243289   6.296   4.324   2.778  0.3344 -0.5253 -0.0491
 6365TIP3    H143290   6.238   4.333   2.854  0.2687 -1.1071 -0.0276
 6365TIP3    H243291   6.382   4.306   2.815  0.9180  1.9244 -0.0033
 6366TIP3   OH243292   7.625   1.528   1.597 -0.5544  0.2008  0.4721
 6366TIP3    H143293   7.632   1.435   1.617 -0.7268 -0.1180 -0.8736
 6366TIP3    H243294   7.559   1.534   1.528 -2.2921  1.5781  2.1203
 6367TIP3   OH243295   5.846   7.594   1.339  0.5522 -0.4050 -0.4566
 6367TIP3    H143296   5.924   7.639   1.309  1.0784 -0.7047  0.4327
 6367TIP3    H243297   5.841   7.613   1.432 -1.4474  1.1168 -0.7990
 6368TIP3   OH243298   2.188   3.788   1.946  0.2377 -0.2448  0.1597
 6368TIP3    H143299   2.145   3.810   1.863  1.6332  0.2824 -0.4389
 6368TIP3    H243300   2.262   3.734   1.921 -0.3028 -1.5150  1.2264
 6369TIP3   OH243301   3.743   6.515   3.015  0.7494  0.2910 -0.1875
 6369TIP3    H143302   3.671   6.537   3.074 -1.3162 -1.5785 -1.8064
 6369TIP3    H243303   3.819   6.504   3.072 -0.9191 -0.5674  2.0331
 6370TIP3   OH243304   1.864   4.226   1.373  0.5360 -0.0848 -0.9665
 6370TIP3    H143305   1.793   4.175   1.335 -0.4755 -0.3314  1.1588
 6370TIP3    H243306   1.912   4.260   1.297 -1.2541 -0.7169 -2.4457
 6371TIP3   OH243307   7.089   0.296   1.908 -0.1799  0.1233 -0.5615
 6371TIP3    H143308   7.021   0.270   1.845 -0.5665 -0.1240 -0.0445
 6371TIP3    H243309   7.074   0.389   1.923 -3.0642 -0.6662  2.6686
 6372TIP3   OH243310   7.614   3.861   0.765 -0.2100 -0.4625  0.1247
 6372TIP3    H143311   7.529   3.821   0.745 -0.1277  0.0137 -1.3766
 6372TIP3    H243312   7.615   3.941   0.712  0.7501  0.0777  0.9303
 6373TIP3   OH243313   5.534   4.625   0.842 -0.1908  0.1290 -0.1039
 6373TIP3    H143314   5.585   4.544   0.843 -0.5856 -0.1478 -1.0059
 6373TIP3    H243315   5.443   4.596   0.846 -0.3504  0.4970 -0.7627
 6374TIP3   OH243316   3.095   6.541   0.932 -0.0124 -0.6731  0.2518
 6374TIP3    H143317   3.149   6.564   0.857 -1.5751  0.9686 -0.4472
 6374TIP3    H243318   3.055   6.456   0.908 -1.0909  0.1843 -1.1725
 6375TIP3   OH243319   7.013   1.349   0.628 -0.5707  0.4471 -0.4682
 6375TIP3    H143320   7.078   1.384   0.567 -0.2539 -0.7572 -0.8416
 6375TIP3    H243321   6.952   1.421   0.642  1.0248  1.7526  0.1839
 6376TIP3   OH243322   5.855   0.497   2.560 -0.5880  0.3974 -0.0154
 6376TIP3    H143323   5.864   0.582   2.601 -0.7135  1.4336 -2.0196
 6376TIP3    H243324   5.774   0.461   2.596  0.1411  0.5301  1.8165
 6377TIP3   OH243325   3.644   0.195   1.021 -0.0261  0.6417 -0.1299
 6377TIP3    H143326   3.549   0.202   1.031 -0.0171  1.3670 -0.4667
 6377TIP3    H243327   3.666   0.261   0.956  0.8591  1.3136  0.8175
 6378TIP3   OH243328   7.032   2.048   2.083  0.0551  1.0154 -0.7020
 6378TIP3    H143329   7.030   2.114   2.152 -1.5365  0.7155 -0.4350
 6378TIP3    H243330   7.069   2.094   2.008  0.9886  1.5936  0.0857
 6379TIP3   OH243331   0.133   7.301   1.516 -0.3444 -1.1107  0.6020
 6379TIP3    H143332   0.064   7.270   1.458 -0.9898  1.8682 -0.3663
 6379TIP3    H243333   0.210   7.307   1.460 -0.5339  0.1223  0.4591
 6380TIP3   OH243334   0.247   2.134   3.226 -0.4029  0.5999 -0.8182
 6380TIP3    H143335   0.178   2.068   3.216 -1.1051  0.7559  2.0550
 6380TIP3    H243336   0.211   2.212   3.184 -0.7208 -0.0897 -1.8744
 6381TIP3   OH243337   0.645   0.423   1.105  0.1643 -0.1767 -0.0830
 6381TIP3    H143338   0.557   0.460   1.097  0.3809  0.2602 -0.4764
 6381TIP3    H243339   0.672   0.404   1.015  0.4663 -0.3226  0.0361
 6382TIP3   OH243340   1.936   0.698   2.453 -0.1386  1.0149 -0.3294
 6382TIP3    H143341   1.975   0.741   2.377 -2.2610  1.6227 -1.1621
 6382TIP3    H243342   1.915   0.610   2.423  1.3539  0.3843  0.3972
 6383TIP3   OH243343   5.345   6.614   1.082 -0.3000 -0.1430 -0.0215
 6383TIP3    H143344   5.380   6.605   0.993 -3.6761 -1.3645 -1.3751
 6383TIP3    H243345   5.407   6.567   1.137  2.4773  1.5396 -1.4460
 6384TIP3   OH243346   5.740   0.631   3.346 -0.2199 -0.1977 -0.0386
 6384TIP3    H143347   5.671   0.576   3.383 -0.6754  0.4511  0.0992
 6384TIP3    H243348   5.696   0.686   3.282  0.2649 -0.1228 -0.3171
 6385TIP3   OH243349   1.386   2.272   0.992  0.4252 -0.1648 -0.4081
 6385TIP3    H143350   1.474   2.290   0.959 -0.0635  0.8648 -1.1961
 6385TIP3    H243351   1.340   2.355   0.985 -0.3060 -0.4190  1.0286
 6386TIP3   OH243352   5.120   0.353   1.137  0.2433 -0.8752  0.1611
 6386TIP3    H143353   5.096   0.291   1.068 -1.3267  0.0226 -0.1474
 6386TIP3    H243354   5.215   0.357   1.133  0.4274 -3.4104  0.3448
 6387TIP3   OH243355   2.699   3.501   0.423  0.2081  0.1343 -0.3890
 6387TIP3    H143356   2.753   3.488   0.344  0.2413 -2.1000 -0.0386
 6387TIP3    H243357   2.740   3.446   0.490 -0.8489  0.6342  0.7081
 6388TIP3   OH243358   3.821   6.508   1.417 -0.1908  0.1607  0.1381
 6388TIP3    H143359   3.782   6.553   1.342  0.5745  3.2581  1.4293
 6388TIP3    H243360   3.915   6.526   1.409 -0.0328  0.0671  1.5148
 6389TIP3   OH243361   1.673   5.547   2.326 -0.1396 -0.2153 -0.2122
 6389TIP3    H143362   1.673   5.603   2.404 -1.1381  3.1169 -2.3726
 6389TIP3    H243363   1.758   5.503   2.328 -0.1638 -0.3181  2.7209
 6390TIP3   OH243364   2.610   0.430   1.782 -0.2359 -0.4477 -0.3239
 6390TIP3    H143365   2.534   0.372   1.788 -1.9930  1.6501 -0.8940
 6390TIP3    H243366   2.665   0.405   1.856 -0.1162 -3.7833 -1.3908
 6391TIP3   OH243367   6.711   0.175   0.653  0.3662 -0.3262 -0.2044
 6391TIP3    H143368   6.631   0.213   0.692 -0.7491 -1.7494 -1.0145
 6391TIP3    H243369   6.731   0.100   0.709  1.7224  0.5539  0.5404
 6392TIP3   OH243370   6.452   4.288   1.647 -0.1123 -0.3433 -0.1295
 6392TIP3    H143371   6.386   4.357   1.652 -0.2751 -0.5150  0.1187
 6392TIP3    H243372   6.519   4.314   1.710 -0.3470 -0.5920  0.2265
 6393TIP3   OH243373   0.446   6.562   1.983  0.2901  0.1293 -0.6872
 6393TIP3    H143374   0.447   6.599   2.071 -0.2710  0.5422 -0.8524
 6393TIP3    H243375   0.440   6.638   1.925 -1.2896 -0.2201 -1.0207
 6394TIP3   OH243376   4.992   0.968   2.137  0.2917 -0.1904  0.2963
 6394TIP3    H143377   5.052   0.936   2.204  0.3094  2.1474  1.5273
 6394TIP3    H243378   5.029   1.053   2.111 -1.9581  0.9092  0.4533
 6395TIP3   OH243379   6.793   1.661   3.047  0.0065  0.5122 -0.1023
 6395TIP3    H143380   6.786   1.600   2.974  2.0380  0.9027 -0.6969
 6395TIP3    H243381   6.767   1.746   3.011  1.0913  0.7212 -0.4368
 6396TIP3   OH243382   0.986   4.414   7.783  0.0323 -0.5998  0.2274
 6396TIP3    H143383   1.056   4.476   7.761 -1.4476  1.6271  1.3466
 6396TIP3    H243384   0.937   4.404   7.701  0.9609 -1.2356 -0.2607
 6397TIP3   OH243385   0.428   1.355   1.434  0.1872  0.4480  0.8959
 6397TIP3    H143386   0.391   1.433   1.474  0.9550  1.6054 -0.5500
 6397TIP3    H243387   0.428   1.373   1.340  0.3774 -1.3005  0.5129
 6398TIP3   OH243388   4.177   6.071   0.755  0.0970  0.4915  0.1656
 6398TIP3    H143389   4.181   6.022   0.673 -1.8938  0.5544 -0.0248
 6398TIP3    H243390   4.199   6.161   0.730  1.0055  0.2272 -0.0027
 6399TIP3   OH243391   2.894   3.130   1.874 -0.0504 -0.3785 -0.0586
 6399TIP3    H143392   2.957   3.081   1.821 -0.5925 -0.7919 -0.3306
 6399TIP3    H243393   2.843   3.180   1.810 -0.8429 -1.0362  0.0388
 6400TIP3   OH243394   6.682   4.706   1.528 -0.2701  0.5935 -0.0644
 6400TIP3    H143395   6.610   4.658   1.486  0.7442 -1.4240  0.3628
 6400TIP3    H243396   6.667   4.797   1.504 -2.9729  0.2680  0.0137
 6401TIP3   OH243397   4.418   4.334   0.963  0.5724  0.0520  0.0207
 6401TIP3    H143398   4.331   4.364   0.939  0.0191 -1.4062  0.1342
 6401TIP3    H243399   4.417   4.331   1.059  1.0579  0.8838  0.0633
 6402TIP3   OH243400   4.498   6.757   2.532  0.1096 -0.2298 -0.3119
 6402TIP3    H143401   4.474   6.726   2.620  2.3082 -2.7451 -0.4615
 6402TIP3    H243402   4.437   6.713   2.474 -0.0018 -0.2438 -0.1851
 6403TIP3   OH243403   5.842   3.491   1.946  0.5738 -0.0010 -0.2626
 6403TIP3    H143404   5.835   3.585   1.961  2.0439  0.2848 -1.1446
 6403TIP3    H243405   5.755   3.465   1.914 -0.6946  0.4994  2.4966
 6404TIP3   OH243406   7.555   4.098   2.049  0.1923 -0.1682  0.2902
 6404TIP3    H143407   7.537   4.164   1.982  1.6982  1.7541  1.6421
 6404TIP3    H243408   7.511   4.130   2.127  2.5665  0.4256  1.5051
 6405TIP3   OH243409   7.067   0.848   0.973  0.4414 -0.5337  0.3363
 6405TIP3    H143410   7.129   0.832   0.902  2.0483  0.9862  1.3028
 6405TIP3    H243411   7.069   0.768   1.026  0.0063 -1.2742 -0.7315
 6406TIP3   OH243412   4.284   6.255   1.113  0.4125 -0.1475  0.2912
 6406TIP3    H143413   4.296   6.163   1.138  0.7670  0.4311  2.4770
 6406TIP3    H243414   4.194   6.274   1.140  0.3952  0.1991 -0.0130
 6407TIP3   OH243415   3.734   2.817   2.002 -0.5039 -0.4618  0.1099
 6407TIP3    H143416   3.692   2.853   1.924  1.3819  0.2922 -0.6055
 6407TIP3    H243417   3.815   2.777   1.970 -0.1797 -1.0238  1.5574
 6408TIP3   OH243418   1.487   4.364   2.154  0.3598  0.3207  0.1406
 6408TIP3    H143419   1.449   4.393   2.237  2.6337 -0.9590  1.7406
 6408TIP3    H243420   1.511   4.273   2.169  1.7266  0.3513 -1.5961
 6409TIP3   OH243421   2.498   3.380   1.197  0.8367 -0.1364 -0.0971
 6409TIP3    H143422   2.529   3.457   1.150  1.7846 -1.0318 -0.9783
 6409TIP3    H243423   2.499   3.309   1.133  0.4810 -1.0106  0.8193
 6410TIP3   OH243424   2.092   4.985   0.707  0.4110 -0.1610  0.8873
 6410TIP3    H143425   2.136   4.923   0.765 -1.2945  1.3629  4.0962
 6410TIP3    H243426   2.141   5.067   0.717 -0.7657  0.5061  1.4197
 6411TIP3   OH243427   4.901   7.062   1.489 -0.3825  0.0320  0.1851
 6411TIP3    H143428   4.836   6.994   1.472 -0.0009 -0.2536 -0.1439
 6411TIP3    H243429   4.965   7.021   1.546  0.2524 -0.1312 -0.6305
 6412TIP3   OH243430   6.231   7.172   2.934 -0.2550 -0.4690  0.4872
 6412TIP3    H143431   6.214   7.176   3.028 -1.5791 -0.7383  0.2822
 6412TIP3    H243432   6.168   7.233   2.895  1.5043  1.0647 -0.1167
 6413TIP3   OH243433   1.959   6.143   1.822 -0.0646  0.2376  0.0989
 6413TIP3    H143434   1.913   6.188   1.751 -0.0136 -1.1691 -0.8663
 6413TIP3    H243435   1.894   6.084   1.859  0.0156  0.7121  1.0044
 6414TIP3   OH243436   4.635   0.192   2.100  0.0306  0.2984 -0.1030
 6414TIP3    H143437   4.596   0.114   2.060 -1.4081  0.6373  0.5634
 6414TIP3    H243438   4.590   0.201   2.184 -0.2085  2.1225 -0.3782
 6415TIP3   OH243439   1.011   1.503   1.943  0.0021 -0.6816 -0.3470
 6415TIP3    H143440   1.086   1.455   1.976 -0.5944 -1.2383  0.2412
 6415TIP3    H243441   0.985   1.456   1.864  0.6081 -0.1578 -0.8586
 6416TIP3   OH243442   7.614   5.809   2.634  0.3675 -0.6415  0.1585
 6416TIP3    H143443   7.531   5.763   2.623 -0.7257  0.7477  2.1331
 6416TIP3    H243444   7.590   5.895   2.666  2.5942 -0.1943  0.7818
 6417TIP3   OH243445   3.886   6.028   1.932 -0.6009  0.5147  0.5543
 6417TIP3    H143446   3.926   5.969   1.995  0.2696  0.3250 -0.1487
 6417TIP3    H243447   3.959   6.077   1.895 -0.9527 -0.1100 -1.0473
 6418TIP3   OH243448   7.624   2.509   0.342  0.0677  0.2440 -0.4668
 6418TIP3    H143449   7.557   2.566   0.304  0.2071 -0.4267 -1.7745
 6418TIP3    H243450   7.583   2.423   0.346  0.8117 -0.1513 -1.1868
 6419TIP3   OH243451   7.579   6.348   0.528 -0.3632  0.0238 -0.4201
 6419TIP3    H143452   7.515   6.286   0.493 -0.4854 -0.1922  0.1657
 6419TIP3    H243453   7.535   6.385   0.605  0.4037 -0.4992  0.2860
 6420TIP3   OH243454   2.581   2.983   0.785  0.2555 -0.2501  0.0949
 6420TIP3    H143455   2.490   2.991   0.811  1.0005  0.0232  2.8868
 6420TIP3    H243456   2.617   2.913   0.839  2.5499  2.1204  1.9041
 6421TIP3   OH243457   3.001   5.949   1.914  0.4728  0.4083  0.2058
 6421TIP3    H143458   3.037   6.000   1.841  0.3497  0.1451 -0.0402
 6421TIP3    H243459   2.913   5.984   1.926 -0.2228 -0.8010 -1.0189
 6422TIP3   OH243460   5.052   6.668   0.650  0.0624 -0.0002  0.2558
 6422TIP3    H143461   5.100   6.613   0.588 -0.6905 -0.2602 -0.1077
 6422TIP3    H243462   5.119   6.725   0.688  0.8648 -1.1332  0.6104
 6423TIP3   OH243463   2.763   2.199   1.943  0.6651 -0.2178 -0.2448
 6423TIP3    H143464   2.786   2.149   2.021 -0.5618 -1.1882 -0.4730
 6423TIP3    H243465   2.806   2.153   1.871 -0.2286 -0.7992 -0.4208
 6424TIP3   OH243466   3.096   1.739   2.881 -0.2692  0.0323  0.3980
 6424TIP3    H143467   3.134   1.658   2.847 -0.8359  0.0052 -0.1989
 6424TIP3    H243468   3.159   1.770   2.945  1.3156  0.5626 -1.3305
 6425TIP3   OH243469   3.905   4.899   1.203  0.3307  0.4033  0.0602
 6425TIP3    H143470   3.885   4.810   1.233 -0.3203 -0.2780 -2.1820
 6425TIP3    H243471   3.844   4.955   1.252 -0.9061 -0.6695 -0.1820
 6426TIP3   OH243472   1.817   5.871   2.375 -0.0094  0.3215  0.0068
 6426TIP3    H143473   1.845   5.859   2.466  2.5990 -0.4213 -0.7998
 6426TIP3    H243474   1.730   5.830   2.372  0.7552 -1.6732  1.6983
 6427TIP3   OH243475   4.981   2.812   0.916 -0.4057 -0.3508  0.0038
 6427TIP3    H143476   4.947   2.838   0.830 -1.3471  1.3741  0.8285
 6427TIP3    H243477   4.902   2.798   0.969  0.0591  2.4702  1.6200
 6428TIP3   OH243478   6.511   6.166   1.559 -0.9126 -0.0923  0.2168
 6428TIP3    H143479   6.516   6.240   1.619 -3.0446  0.5695 -0.3187
 6428TIP3    H243480   6.450   6.104   1.601  0.8453 -1.5998  0.6623
 6429TIP3   OH243481   2.979   7.172   1.088  0.3431  0.0234 -0.1441
 6429TIP3    H143482   3.020   7.197   1.006 -0.5107 -0.9599 -0.8962
 6429TIP3    H243483   2.904   7.117   1.062 -1.0366  1.1761  1.1857
 6430TIP3   OH243484   6.369   3.046   2.056 -0.2334 -0.2852  0.1508
 6430TIP3    H143485   6.375   3.129   2.008 -0.7632  0.3103  1.0729
 6430TIP3    H243486   6.354   3.072   2.147  2.7895 -1.3095  1.0811
 6431TIP3   OH243487   0.011   2.942   0.723  0.0649 -0.2770  0.1543
 6431TIP3    H143488   0.040   3.031   0.742  0.9562 -0.8219  1.4903
 6431TIP3    H243489   0.090   2.897   0.693 -0.4136 -0.5878 -0.6708
 6432TIP3   OH243490   1.436   5.885   2.570  0.3318 -0.4998 -1.0262
 6432TIP3    H143491   1.373   5.841   2.628 -0.7715  0.1648 -1.6835
 6432TIP3    H243492   1.396   5.881   2.483  1.2690 -0.1702 -1.4913
 6433TIP3   OH243493   2.809   3.615   1.142 -0.3028  0.0395 -0.2421
 6433TIP3    H143494   2.863   3.543   1.174 -1.8545 -1.1734 -0.2466
 6433TIP3    H243495   2.862   3.693   1.159  0.0201 -0.7264  3.1153
 6434TIP3   OH243496   1.930   1.162   1.973  0.8434  0.8289  0.2100
 6434TIP3    H143497   1.981   1.088   1.941  1.1523  0.5045  1.3856
 6434TIP3    H243498   1.842   1.147   1.938  0.5020 -0.9542  1.6389
 6435TIP3   OH243499   5.676   1.240   1.212  0.0192 -0.4092 -0.0950
 6435TIP3    H143500   5.584   1.226   1.233 -0.3270  0.6156 -0.8724
 6435TIP3    H243501   5.722   1.171   1.260 -1.0998 -0.6198  0.7150
 6436TIP3   OH243502   0.255   4.872   1.736 -0.2057  0.2636 -0.0536
 6436TIP3    H143503   0.269   4.780   1.713  2.3092  0.1508  1.4394
 6436TIP3    H243504   0.268   4.919   1.654 -1.6620 -0.6886 -0.8715
 6437TIP3   OH243505   6.465   0.395   2.711  0.0386  0.3638  0.2558
 6437TIP3    H143506   6.514   0.320   2.743  2.8321  2.2289  0.7157
 6437TIP3    H243507   6.373   0.374   2.729  0.8823 -2.0155  2.2320
 6438TIP3   OH243508   2.296   6.006   2.842 -0.6493  0.4066 -0.5813
 6438TIP3    H143509   2.343   5.924   2.856 -2.5824 -0.7740 -0.5875
 6438TIP3    H243510   2.276   6.007   2.748  1.8006  2.3494 -1.1883
 6439TIP3   OH243511   5.048   3.905   1.795  0.1843  0.0778  0.4291
 6439TIP3    H143512   5.038   3.997   1.821 -0.6203  0.0287  0.3266
 6439TIP3    H243513   5.129   3.877   1.838  0.5150  0.8681  0.3499
 6440TIP3   OH243514   6.686   5.931   1.704 -0.3510  0.0892  0.4225
 6440TIP3    H143515   6.759   5.870   1.712  0.4305  1.0305  0.7245
 6440TIP3    H243516   6.698   5.972   1.618  0.3183  1.2635  1.0513
 6441TIP3   OH243517   3.520   7.213   2.299 -0.2977  0.3629  0.1625
 6441TIP3    H143518   3.588   7.243   2.239  1.2198 -1.9785  0.6143
 6441TIP3    H243519   3.441   7.207   2.245  0.5079  0.4060 -1.0626
 6442TIP3   OH243520   4.027   1.697   3.005  0.1645 -0.0106  0.0285
 6442TIP3    H143521   4.081   1.728   2.932  0.7637 -1.7955 -0.3338
 6442TIP3    H243522   3.954   1.759   3.009  0.5128  0.5468 -1.6199
 6443TIP3   OH243523   6.730   6.863   2.339  0.2608 -0.0587  0.5341
 6443TIP3    H143524   6.824   6.848   2.343  0.6030  1.1296 -1.5987
 6443TIP3    H243525   6.721   6.957   2.325 -1.3419  0.0927  2.0971
 6444TIP3   OH243526   1.923   2.137   3.016 -0.4440 -0.3794  0.4571
 6444TIP3    H143527   1.987   2.094   2.960 -1.6398 -0.5599 -0.8194
 6444TIP3    H243528   1.855   2.168   2.956 -0.8051  1.1790  1.5990
 6445TIP3   OH243529   4.414   5.466   1.079  0.0230  0.5709 -0.6771
 6445TIP3    H143530   4.357   5.415   1.137  0.0979  1.6138  0.3537
 6445TIP3    H243531   4.365   5.472   0.997  0.4414 -1.9797 -1.2020
 6446TIP3   OH243532   5.790   7.165   1.939  0.0788  0.3565 -0.3130
 6446TIP3    H143533   5.883   7.144   1.942 -0.1476 -0.9521 -1.4028
 6446TIP3    H243534   5.753   7.120   2.015  0.1641 -0.1339 -0.5570
 6447TIP3   OH243535   2.118   2.971   0.662 -0.6981  0.1469 -0.1948
 6447TIP3    H143536   2.075   2.896   0.702 -0.9152 -0.0034 -0.7046
 6447TIP3    H243537   2.120   2.951   0.569  0.3022  0.2360 -0.2048
 6448TIP3   OH243538   0.005   2.787   1.615 -0.2810  0.4210  0.4254
 6448TIP3    H143539   0.084   2.813   1.662 -1.0279  2.0943  0.8291
 6448TIP3    H243540   0.031   2.707   1.568  1.6770  0.9786  0.4460
 6449TIP3   OH243541   2.669   2.196   1.444 -0.5419 -0.3726  0.1588
 6449TIP3    H143542   2.600   2.150   1.397  0.6033 -2.6876  0.5843
 6449TIP3    H243543   2.749   2.147   1.424  0.9674  2.0518 -0.0966
 6450TIP3   OH243544   5.114   1.153   1.170  0.2111  0.1154 -0.4413
 6450TIP3    H143545   5.076   1.076   1.213 -1.1121  1.7239  1.4986
 6450TIP3    H243546   5.192   1.173   1.223  0.0847  0.5669 -0.4218
 6451TIP3   OH243547   4.954   2.714   2.192 -0.0645  0.2504 -0.8107
 6451TIP3    H143548   4.951   2.807   2.215  0.4853  0.1197 -0.1744
 6451TIP3    H243549   5.020   2.709   2.123 -0.1246  0.3405 -0.8745
 6452TIP3   OH243550   6.428   0.123   2.540 -0.5448  0.0449  0.4117
 6452TIP3    H143551   6.493   0.190   2.520  0.0141 -0.3984  0.7408
 6452TIP3    H243552   6.478   0.042   2.550 -1.1979 -0.3974  0.1700
 6453TIP3   OH243553   3.936   6.513   2.776  0.2824  0.0765  0.3095
 6453TIP3    H143554   3.909   6.506   2.867  0.6129  1.0025  0.4924
 6453TIP3    H243555   3.860   6.482   2.726  0.1669 -0.6039  0.8950
 6454TIP3   OH243556   6.902   6.154   0.801  0.8816 -0.5936  0.3129
 6454TIP3    H143557   6.881   6.065   0.774  1.3054 -0.7249  0.3952
 6454TIP3    H243558   6.821   6.203   0.789  0.4171 -1.1629  1.0191
 6455TIP3   OH243559   4.395   4.502   2.596  0.1566  0.1959 -0.2632
 6455TIP3    H143560   4.327   4.523   2.660  1.1420  3.0016  0.0273
 6455TIP3    H243561   4.443   4.585   2.584  0.7204 -0.4711 -3.7933
 6456TIP3   OH243562   7.153   0.041   1.548 -0.3211 -0.0025 -0.4109
 6456TIP3    H143563   7.060   0.062   1.558 -0.8152 -1.5188 -1.4608
 6456TIP3    H243564   7.155  -0.053   1.535  1.4408 -0.0820  0.1716
 6457TIP3   OH243565   4.419   3.659   2.242 -0.0897 -0.0140 -0.2340
 6457TIP3    H143566   4.424   3.730   2.178 -3.8076  0.5519 -0.1293
 6457TIP3    H243567   4.383   3.585   2.192 -0.1890 -0.5087  0.5509
 6458TIP3   OH243568   1.015   4.603   3.244  0.2862  0.1237  0.3558
 6458TIP3    H143569   1.058   4.542   3.184 -0.0127  0.1724  0.0887
 6458TIP3    H243570   1.014   4.687   3.197 -1.0243 -0.1087 -0.0869
 6459TIP3   OH243571   4.962   2.706   1.903  0.0620  0.3884  0.2282
 6459TIP3    H143572   4.913   2.765   1.961  0.0343 -0.5143  1.1407
 6459TIP3    H243573   5.053   2.732   1.914  0.0168  0.4962  0.3523
 6460TIP3   OH243574   1.058   1.797   1.583  0.6229  0.5520  0.5460
 6460TIP3    H143575   1.103   1.867   1.631  3.8942  0.8985 -2.5694
 6460TIP3    H243576   1.126   1.732   1.568 -0.1638  0.4137 -3.3323
 6461TIP3   OH243577   6.430   7.046   2.301 -0.3308  0.0811 -0.1080
 6461TIP3    H143578   6.481   7.099   2.363 -0.4409  1.2073 -0.9343
 6461TIP3    H243579   6.362   7.005   2.354  0.4657 -0.1641  0.7522
 6462TIP3   OH243580   1.953   0.868   1.923  0.3209  0.0546  0.1343
 6462TIP3    H143581   1.949   0.775   1.943 -1.3113 -0.3900 -1.9493
 6462TIP3    H243582   1.862   0.895   1.914  0.7126  2.1147  1.6180
 6463TIP3   OH243583   6.477   2.558   2.203  0.2389 -0.3022 -0.0122
 6463TIP3    H143584   6.549   2.537   2.144 -0.2559  0.2474 -0.8329
 6463TIP3    H243585   6.430   2.475   2.215  0.5838 -0.5047 -0.0477
 6464TIP3   OH243586   7.543   0.698   1.887 -0.1652  0.2137  0.3473
 6464TIP3    H143587   7.597   0.685   1.809  0.7636  2.5145  0.5255
 6464TIP3    H243588   7.598   0.750   1.946 -1.5127  0.0868  1.7788
 6465TIP3   OH243589   1.890   4.119   3.252  0.4743  0.4140 -0.2620
 6465TIP3    H143590   1.974   4.153   3.284  1.3693 -0.4591 -1.5982
 6465TIP3    H243591   1.845   4.196   3.216  0.4200  0.9968  1.0113
 6466TIP3   OH243592   2.985   0.787   2.268 -0.0941 -0.4080  0.1540
 6466TIP3    H143593   3.076   0.762   2.256 -0.3034 -0.6966 -0.9947
 6466TIP3    H243594   2.959   0.745   2.350  0.7136 -0.5563  0.3466
 6467TIP3   OH243595   3.449   5.479   2.109  0.2837  0.1955  0.6507
 6467TIP3    H143596   3.368   5.482   2.059  0.7859 -1.6366 -0.3492
 6467TIP3    H243597   3.515   5.448   2.047  1.6173  0.9814  1.6240
 6468TIP3   OH243598   1.830   3.598   2.867 -0.1233  0.0670 -0.0937
 6468TIP3    H143599   1.854   3.506   2.874 -2.1845 -0.5693 -0.7866
 6468TIP3    H243600   1.789   3.619   2.951  0.3700  0.3947  0.0764
 6469TIP3   OH243601   7.225   6.254   1.634 -0.1293 -0.0898 -0.4240
 6469TIP3    H143602   7.290   6.203   1.586  1.2150 -0.6522  1.8505
 6469TIP3    H243603   7.276   6.304   1.697 -1.7934  0.7666  0.3050
 6470TIP3   OH243604   5.273   3.424   2.821  0.0432 -0.0524 -0.2549
 6470TIP3    H143605   5.276   3.462   2.909 -1.4877 -0.0978 -0.1600
 6470TIP3    H243606   5.181   3.423   2.798  0.4621  0.4447 -2.1005
 6471TIP3   OH243607   0.125   4.684   2.067  0.4590 -0.0183  0.0311
 6471TIP3    H143608   0.054   4.663   2.006  1.3246  0.9953 -1.3889
 6471TIP3    H243609   0.183   4.608   2.063  1.5118  0.8058 -1.9862
 6472TIP3   OH243610   7.557   4.747   0.487  0.4773 -0.1013 -0.1572
 6472TIP3    H143611   7.589   4.811   0.424 -1.5275  0.2125 -0.9345
 6472TIP3    H243612   7.488   4.792   0.535  1.6707 -0.4631  2.0657
 6473TIP3   OH243613   6.070   7.377   2.049 -0.5465  0.4150 -0.1318
 6473TIP3    H143614   6.133   7.445   2.074 -1.3253  0.6084  1.4383
 6473TIP3    H243615   6.002   7.381   2.117 -0.0296 -2.7300  0.7051
 6474TIP3   OH243616   7.507   1.080   2.380 -0.1301  0.1454 -0.1394
 6474TIP3    H143617   7.467   1.026   2.312  0.4999 -0.1728 -0.2668
 6474TIP3    H243618   7.433   1.112   2.432 -0.4632 -2.0390  0.8391
 6475TIP3   OH243619   2.732   7.523   2.296 -0.2095 -0.1443 -0.0683
 6475TIP3    H143620   2.705   7.434   2.318  1.4602 -0.4383  0.9330
 6475TIP3    H243621   2.824   7.528   2.321  0.0362  1.5506 -1.0906
 6476TIP3   OH243622   0.996   1.013   0.755 -0.1841 -0.3646  0.5316
 6476TIP3    H143623   0.926   1.023   0.820 -0.4183 -0.6237  0.3221
 6476TIP3    H243624   1.059   1.082   0.776  0.1188 -0.9249  1.5131
 6477TIP3   OH243625   4.479   5.070   1.199 -0.1579  0.1530 -0.4554
 6477TIP3    H143626   4.405   5.030   1.244  0.3409 -1.3574 -0.9137
 6477TIP3    H243627   4.473   5.037   1.109  0.6082  0.6645 -0.7026
 6478TIP3   OH243628   0.266   7.034   1.007  0.0829  0.1183  0.3451
 6478TIP3    H143629   0.184   6.984   1.003  1.2851 -1.8953 -1.1212
 6478TIP3    H243630   0.301   7.031   0.918  1.0520  2.2421  0.5893
 6479TIP3   OH243631   5.756   7.066   2.625  0.1976  0.1286  0.0429
 6479TIP3    H143632   5.767   7.145   2.677 -1.9485  1.0889 -0.8516
 6479TIP3    H243633   5.671   7.030   2.653  1.3815 -2.2443  0.8703
 6480TIP3   OH243634   3.494   5.289   0.863 -0.1126 -0.6424  0.2737
 6480TIP3    H143635   3.468   5.250   0.947 -0.2076  1.5198  1.3151
 6480TIP3    H243636   3.582   5.255   0.848  0.0365 -0.8203  1.4293
 6481TIP3   OH243637   5.985   1.855   0.957 -0.4031 -0.4318 -0.1913
 6481TIP3    H143638   5.975   1.788   0.890  1.1489 -0.6372 -0.2423
 6481TIP3    H243639   6.004   1.806   1.037  0.6899 -0.0722 -0.2177
 6482TIP3   OH243640   2.387   5.813   1.930 -0.5888  0.2490  0.2715
 6482TIP3    H143641   2.319   5.779   1.872  1.5924  0.0289 -2.3501
 6482TIP3    H243642   2.445   5.738   1.945  1.1009  1.2725 -0.7656
 6483TIP3   OH243643   5.906   6.850   0.594 -0.1273 -0.0269 -0.5587
 6483TIP3    H143644   5.847   6.775   0.586  0.1174 -0.3955  0.8584
 6483TIP3    H243645   5.953   6.835   0.676 -0.6419  2.0752  0.1818
 6484TIP3   OH243646   0.212   3.887   1.562  0.4897 -0.3519  0.4171
 6484TIP3    H143647   0.135   3.865   1.509  0.0946 -0.0264  0.8400
 6484TIP3    H243648   0.247   3.802   1.589  0.1995 -0.5015  0.3306
 6485TIP3   OH243649   2.240   7.480   2.191 -0.0528 -0.3940  0.1679
 6485TIP3    H143650   2.153   7.513   2.216  0.1315 -1.2155  2.0073
 6485TIP3    H243651   2.283   7.556   2.150 -0.4030  1.0984  2.3814
 6486TIP3   OH243652   7.269   3.623   1.843  0.2166 -0.1204 -0.7542
 6486TIP3    H143653   7.178   3.651   1.852 -0.1424 -1.8073  1.5311
 6486TIP3    H243654   7.295   3.656   1.757 -2.0420  1.7353 -0.8280
 6487TIP3   OH243655   0.583   0.904   3.213 -0.2462 -0.4699  0.2833
 6487TIP3    H143656   0.570   0.908   3.308 -1.6590 -1.8923  0.1958
 6487TIP3    H243657   0.604   0.812   3.196 -1.6903 -0.6134 -0.9397
 6488TIP3   OH243658   4.070   4.647   3.334 -0.0903 -0.0119 -0.1225
 6488TIP3    H143659   4.115   4.673   3.415  0.4405 -0.9569 -0.1081
 6488TIP3    H243660   3.978   4.668   3.351 -0.3806 -2.3623  1.6764
 6489TIP3   OH243661   5.348   0.863   0.916  0.0961  0.2993  0.2509
 6489TIP3    H143662   5.343   0.899   0.828 -0.1413  1.8722  0.8640
 6489TIP3    H243663   5.257   0.842   0.938  0.2954 -1.2368 -0.3005
 6490TIP3   OH243664   6.671   7.322   0.750  0.5928  0.1483  0.2685
 6490TIP3    H143665   6.701   7.231   0.741 -0.3200 -0.4257  2.3630
 6490TIP3    H243666   6.728   7.372   0.692  1.3979 -1.6979 -0.6200
 6491TIP3   OH243667   1.754   4.945   1.734 -0.3971 -0.6426  0.3087
 6491TIP3    H143668   1.848   4.962   1.743 -0.3329 -0.6894 -0.2029
 6491TIP3    H243669   1.747   4.850   1.733 -0.6021 -0.6529  1.7274
 6492TIP3   OH243670   0.399   5.993   1.598  0.0417  0.2249  0.8650
 6492TIP3    H143671   0.386   6.059   1.665 -1.8242 -0.4315  1.1929
 6492TIP3    H243672   0.494   5.983   1.592  0.2682  1.1580  2.5342
 6493TIP3   OH243673   7.618   1.498   2.497  0.1464 -0.2888  0.5260
 6493TIP3    H143674   7.691   1.555   2.475  0.3115 -0.8883 -0.5502
 6493TIP3    H243675   7.599   1.450   2.416 -1.0921 -0.5266  0.9319
 6494TIP3   OH243676   4.862   4.053   2.995 -0.0440 -0.1500  0.0610
 6494TIP3    H143677   4.924   4.018   3.059 -1.1150 -0.0109  1.2146
 6494TIP3    H243678   4.852   4.145   3.020 -2.2512 -0.6442  1.2215
 6495TIP3   OH243679   4.970   0.935   1.322 -0.0035  0.0354  0.1674
 6495TIP3    H143680   4.984   0.847   1.358  2.5649 -0.0706 -0.8501
 6495TIP3    H243681   4.989   0.994   1.395 -0.4787 -0.2205  0.5051
 6496TIP3   OH243682   4.931   1.803   2.313  0.3487  0.3979 -0.0432
 6496TIP3    H143683   4.883   1.732   2.269 -0.0215  0.6383 -0.0257
 6496TIP3    H243684   4.899   1.802   2.403  0.3280  0.6043 -0.0486
 6497TIP3   OH243685   2.826   2.837   3.145 -0.4260  0.3100 -0.6730
 6497TIP3    H143686   2.799   2.862   3.234  0.0150 -1.8162  0.1140
 6497TIP3    H243687   2.892   2.769   3.159 -2.0602 -1.8143 -2.6220
 6498TIP3   OH243688   3.186   4.997   1.176 -0.1886  0.6396  0.1430
 6498TIP3    H143689   3.261   4.954   1.218 -0.6864  0.4752  0.8862
 6498TIP3    H243690   3.171   4.947   1.096 -0.7263 -0.5663  0.9703
 6499TIP3   OH243691   6.762   6.581   2.620 -0.8210  0.3028  0.0959
 6499TIP3    H143692   6.699   6.653   2.608 -1.1662 -0.1935 -1.2369
 6499TIP3    H243693   6.755   6.530   2.540  2.2529  0.9516 -0.7270
 6500TIP3   OH243694   2.554   5.732   1.240  0.0656 -0.2754 -0.2541
 6500TIP3    H143695   2.594   5.770   1.162  1.0439  0.3474  0.5278
 6500TIP3    H243696   2.589   5.783   1.313 -1.1828 -0.5503  0.5677
 6501TIP3   OH243697   5.255   0.088   2.746  0.7666 -0.2692  0.5274
 6501TIP3    H143698   5.223   0.113   2.659  2.7728 -2.1034 -0.8587
 6501TIP3    H243699   5.313   0.160   2.772 -1.9527  1.6313  1.7170
 6502TIP3   OH243700   0.158   1.765   3.075 -0.6970  0.4147 -0.8244
 6502TIP3    H143701   0.063   1.763   3.076 -0.7646  0.9370 -2.6044
 6502TIP3    H243702   0.182   1.744   2.984  0.9484 -1.2928 -0.0649
 6503TIP3   OH243703   0.150   6.248   0.696  0.6267 -0.1292 -0.5388
 6503TIP3    H143704   0.113   6.294   0.621 -0.1996  2.2270  1.1946
 6503TIP3    H243705   0.082   6.254   0.763  1.6689 -1.4331  0.6884
 6504TIP3   OH243706   1.402   0.621   1.407  0.2888  0.5486 -0.4191
 6504TIP3    H143707   1.388   0.527   1.404  2.0920  0.2182  0.1104
 6504TIP3    H243708   1.485   0.634   1.361  0.0671  1.8915 -0.4906
 6505TIP3   OH243709   3.682   0.949   1.541 -0.0035 -0.0121 -0.3777
 6505TIP3    H143710   3.671   0.942   1.636  1.2951  0.4451 -0.1800
 6505TIP3    H243711   3.741   1.022   1.528  0.2517 -0.3878 -1.5263
 6506TIP3   OH243712   0.400   4.440   0.970  0.2011 -0.2987 -0.2602
 6506TIP3    H143713   0.406   4.479   1.057 -0.3830 -0.0018 -0.3495
 6506TIP3    H243714   0.441   4.354   0.979  1.3240  0.2374 -0.0099
 6507TIP3   OH243715   7.401   6.351   2.386  0.6017 -0.7077 -0.0574
 6507TIP3    H143716   7.426   6.438   2.358  1.1926 -0.6075  0.7640
 6507TIP3    H243717   7.340   6.365   2.459  2.1032 -0.9615  1.2957
 6508TIP3   OH243718   6.042   4.255   2.566 -0.5515  0.0049  0.2222
 6508TIP3    H143719   6.034   4.326   2.503 -0.5321  0.2171  0.4558
 6508TIP3    H243720   6.006   4.291   2.647  0.7110  0.2075  0.7034
 6509TIP3   OH243721   2.564   2.355   2.124  0.2855  0.3977  0.1228
 6509TIP3    H143722   2.470   2.343   2.108 -0.4217  2.3653  2.1420
 6509TIP3    H243723   2.603   2.271   2.101 -1.5537  0.2541 -3.2157
 6510TIP3   OH243724   7.139   7.456   1.203  0.0843  0.3820  0.1949
 6510TIP3    H143725   7.147   7.367   1.168  2.1751 -0.0673  1.6138
 6510TIP3    H243726   7.226   7.495   1.188 -0.6892  2.0713 -0.0693
 6511TIP3   OH243727   0.498   1.159   2.089 -0.8604  0.0850 -0.3411
 6511TIP3    H143728   0.514   1.065   2.078 -1.4394  0.0661 -1.0804
 6511TIP3    H243729   0.584   1.199   2.078 -0.6893 -0.3202 -0.5146
 6512TIP3   OH243730   6.475   3.867   2.676 -0.4732 -0.2776  0.3191
 6512TIP3    H143731   6.470   3.841   2.768 -3.3133  0.7354  0.5491
 6512TIP3    H243732   6.546   3.931   2.674 -0.9884  0.4147  2.0200
 6513TIP3   OH243733   1.406   0.126   2.277  0.0683  0.1896  0.3128
 6513TIP3    H143734   1.325   0.093   2.240 -1.1495 -0.2831  3.1713
 6513TIP3    H243735   1.474   0.071   2.238 -1.1750 -0.7765 -0.5711
 6514TIP3   OH243736   6.853   7.370   3.078  0.0140 -0.3687 -0.2263
 6514TIP3    H143737   6.943   7.391   3.051 -0.0263  0.3879  0.1739
 6514TIP3    H243738   6.857   7.279   3.106  0.5499 -0.4871 -0.6638
 6515TIP3   OH243739   2.659   7.664   2.940 -0.0332  0.4373 -0.3849
 6515TIP3    H143740   2.597   7.702   3.003 -0.4917  0.1297 -0.6437
 6515TIP3    H243741   2.744   7.670   2.984 -0.0683  1.8756 -0.4688
 6516TIP3   OH243742   5.242   2.793   0.622  0.6300 -0.0245 -0.3486
 6516TIP3    H143743   5.147   2.786   0.619  0.5729  0.4875  0.0730
 6516TIP3    H243744   5.273   2.729   0.558 -0.0104  0.1398 -0.8394
 6517TIP3   OH243745   2.965   3.639   1.924  0.5503  0.0929  0.2532
 6517TIP3    H143746   2.880   3.595   1.921  0.4473 -0.3119  4.0595
 6517TIP3    H243747   2.949   3.726   1.889 -0.6488 -0.9129 -1.8970
 6518TIP3   OH243748   5.242   5.460   2.567  0.2096 -0.6445  0.3570
 6518TIP3    H143749   5.305   5.495   2.503 -0.2362 -1.1964 -0.4093
 6518TIP3    H243750   5.296   5.425   2.637  0.7679 -1.1319 -0.3014
 6519TIP3   OH243751   5.282   6.422   2.494  0.0953  0.0652 -0.5003
 6519TIP3    H143752   5.368   6.380   2.487  0.1892  0.5189 -3.1321
 6519TIP3    H243753   5.301   6.514   2.511 -0.0511 -0.3647  2.5805
 6520TIP3   OH243754   3.676   2.154   1.869  0.2525 -0.3669 -0.1012
 6520TIP3    H143755   3.736   2.178   1.798  1.3464 -0.9146  0.6103
 6520TIP3    H243756   3.591   2.142   1.826  1.2092 -2.2694 -1.6183
 6521TIP3   OH243757   2.550   5.952   2.605  0.2537  0.3408  0.3318
 6521TIP3    H143758   2.513   5.894   2.672  0.8470  0.0304  0.3959
 6521TIP3    H243759   2.486   5.949   2.533  0.5274 -0.8238  0.1146
 6522TIP3   OH243760   2.196   7.115   2.787  0.2902  0.0403  0.2207
 6522TIP3    H143761   2.285   7.139   2.813  0.1364 -0.0695  0.8719
 6522TIP3    H243762   2.156   7.081   2.867 -0.3867  0.2197 -0.0308
 6523TIP3   OH243763   4.676   0.394   1.581 -0.0549 -0.1884 -0.1065
 6523TIP3    H143764   4.613   0.466   1.571 -0.5903 -0.8808 -2.1351
 6523TIP3    H243765   4.693   0.391   1.675 -0.6035  2.0799  0.1436
 6524TIP3   OH243766   7.633   5.309   2.512  0.1513  0.2411 -0.0715
 6524TIP3    H143767   7.645   5.225   2.469 -1.7850 -0.4641  0.6497
 6524TIP3    H243768   7.607   5.287   2.602  0.9369  1.6258  0.5310
 6525TIP3   OH243769   7.292   3.358   1.864 -0.4038  0.6120  0.2308
 6525TIP3    H143770   7.279   3.452   1.865 -1.4365  0.5208 -1.5090
 6525TIP3    H243771   7.341   3.340   1.784 -1.3522 -0.4337 -0.1555
 6526TIP3   OH243772   6.941   2.344   1.412  0.8368 -0.2133  0.1972
 6526TIP3    H143773   6.926   2.263   1.364 -1.5025  0.1731  0.1508
 6526TIP3    H243774   6.963   2.408   1.344 -1.9251  0.2056 -0.4064
 6527TIP3   OH243775   5.617   6.209   1.462 -0.1656  0.2686  0.2532
 6527TIP3    H143776   5.583   6.287   1.420 -2.4973  0.2697  1.9347
 6527TIP3    H243777   5.541   6.152   1.473  1.1269 -1.4951  0.6911
 6528TIP3   OH243778   4.355   5.145   0.812 -0.6679 -0.2202 -0.0088
 6528TIP3    H143779   4.416   5.096   0.867  0.8349  2.3300  0.7663
 6528TIP3    H243780   4.278   5.158   0.867 -1.1597 -1.7134 -0.2791
 6529TIP3   OH243781   4.795   3.791   1.752 -0.1884 -0.2673 -0.3814
 6529TIP3    H143782   4.870   3.809   1.808 -0.4607 -1.8751  0.5634
 6529TIP3    H243783   4.816   3.708   1.710 -1.7659 -1.2061  0.5723
 6530TIP3   OH243784   6.581   0.542   0.899 -0.4789 -0.5431  0.8635
 6530TIP3    H143785   6.486   0.532   0.896 -0.5229  0.0462 -0.9275
 6530TIP3    H243786   6.600   0.610   0.834  1.0846  0.0808  1.9218
 6531TIP3   OH243787   2.186   0.258   1.570 -0.4698  0.3126 -0.1292
 6531TIP3    H143788   2.102   0.242   1.527 -0.2693 -0.2923 -0.3093
 6531TIP3    H243789   2.182   0.349   1.598 -0.2469  1.0153 -2.2358
 6532TIP3   OH243790   6.447   1.323   0.587 -0.0262 -0.3478 -0.4675
 6532TIP3    H143791   6.422   1.235   0.617 -3.4436  0.0038 -1.8179
 6532TIP3    H243792   6.437   1.319   0.492 -0.2991  1.5138 -0.5410
 6533TIP3   OH243793   7.138   1.813   2.421 -0.3574 -0.8215 -0.0867
 6533TIP3    H143794   7.139   1.907   2.441 -0.9941 -0.6243 -0.9374
 6533TIP3    H243795   7.224   1.782   2.448 -1.4970 -0.8520  4.1664
 6534TIP3   OH243796   0.890   6.448   2.391 -0.0484  0.2544 -0.0157
 6534TIP3    H143797   0.830   6.431   2.319 -0.2664  1.7807 -0.2236
 6534TIP3    H243798   0.975   6.416   2.360  0.0907  1.8058 -1.4147
 6535TIP3   OH243799   0.117   5.546   2.468  0.3338  0.0490 -0.1830
 6535TIP3    H143800   0.069   5.473   2.506  0.0797  0.1076 -0.3881
 6535TIP3    H243801   0.104   5.537   2.374  3.4083 -1.8492 -0.5888
 6536TIP3   OH243802   7.574   0.207   2.961  0.0162 -0.6895  0.4383
 6536TIP3    H143803   7.537   0.189   2.874 -0.0299 -0.9479  0.5120
 6536TIP3    H243804   7.560   0.300   2.974 -1.5123 -0.9623  0.8949
 6537TIP3   OH243805   7.225   6.859   0.330 -0.5861  0.3311 -0.3184
 6537TIP3    H143806   7.281   6.787   0.301 -0.2930  0.0574  0.8842
 6537TIP3    H243807   7.136   6.827   0.312 -0.4193  1.1829 -3.1931
 6538TIP3   OH243808   3.828   0.873   0.903  0.0985 -0.3279  0.1629
 6538TIP3    H143809   3.910   0.826   0.917 -0.9253 -2.2827 -0.0163
 6538TIP3    H243810   3.839   0.917   0.819  1.4424  0.5878  0.7914
 6539TIP3   OH243811   4.921   5.937   1.211 -0.2839 -0.0283  0.3963
 6539TIP3    H143812   4.980   5.942   1.135  0.6033  1.8755  1.1433
 6539TIP3    H243813   4.940   5.851   1.250  1.5686  0.2737  0.2569
 6540TIP3   OH243814   4.965   3.568   2.002 -0.0265 -0.1127  0.3948
 6540TIP3    H143815   4.959   3.648   2.055 -0.7736  0.0449  0.0940
 6540TIP3    H243816   4.897   3.511   2.038  0.3029 -0.4946  0.4119
 6541TIP3   OH243817   3.101   3.768   2.142 -0.8162 -0.0289 -0.0178
 6541TIP3    H143818   3.095   3.723   2.058 -0.4841 -2.0832  0.9914
 6541TIP3    H243819   3.038   3.840   2.135 -1.2272 -0.5031 -1.7881
 6542TIP3   OH243820   5.157   2.919   2.706  0.1436 -0.2630  0.4606
 6542TIP3    H143821   5.069   2.939   2.672  0.8870  1.0025 -0.8176
 6542TIP3    H243822   5.143   2.847   2.768 -1.9617  0.6276  1.1252
 6543TIP3   OH243823   0.347   7.420   1.699  0.2476 -0.1437  0.0895
 6543TIP3    H143824   0.269   7.365   1.701  0.2949 -0.1760  1.3632
 6543TIP3    H243825   0.316   7.505   1.667 -0.2274 -0.2670  0.2242
 6544TIP3   OH243826   3.790   7.664   2.001  0.5222 -0.1797 -1.1563
 6544TIP3    H143827   3.850   7.595   2.030  0.5126  0.0335 -0.6276
 6544TIP3    H243828   3.772   7.715   2.079  0.5633  0.4594 -1.5620
 6545TIP3   OH243829   1.299   1.764   0.937 -0.1990 -0.5685  0.4352
 6545TIP3    H143830   1.295   1.736   0.845  0.4909  0.8215 -0.0420
 6545TIP3    H243831   1.267   1.854   0.937  0.2193 -0.3987  1.4903
 6546TIP3   OH243832   0.838   7.243   1.550  0.4579 -0.4605 -0.0276
 6546TIP3    H143833   0.837   7.303   1.475 -1.0988 -1.2085 -0.6444
 6546TIP3    H243834   0.749   7.248   1.585  0.4256 -2.0788  0.1647
 6547TIP3   OH243835   2.137   0.802   3.369  0.1072  0.3969  0.5284
 6547TIP3    H143836   2.188   0.883   3.356  0.2402  0.0289 -1.6465
 6547TIP3    H243837   2.194   0.733   3.335 -0.8774 -0.3282  0.3195
 6548TIP3   OH243838   0.995   0.098   0.751 -0.7881  0.4813  0.1346
 6548TIP3    H143839   0.989   0.080   0.658 -0.0223 -2.3212  0.5194
 6548TIP3    H243840   1.071   0.156   0.759 -0.2857  0.0025 -0.9293
 6549TIP3   OH243841   7.265   0.466   1.315  0.1173  0.7393  0.4364
 6549TIP3    H143842   7.297   0.551   1.345  1.5360  0.1714  0.6524
 6549TIP3    H243843   7.216   0.431   1.389  0.7412  0.7772  0.8793
 6550TIP3   OH243844   0.336   3.580   2.868 -0.7574 -0.0072 -0.1380
 6550TIP3    H143845   0.376   3.573   2.782  0.1659 -1.1957  0.3547
 6550TIP3    H243846   0.243   3.564   2.853 -0.6603  0.1627 -0.9583
 6551TIP3   OH243847   0.120   3.733   0.519  0.0279  0.2989 -0.2376
 6551TIP3    H143848   0.053   3.738   0.451 -0.2541 -1.0844 -0.0941
 6551TIP3    H243849   0.121   3.820   0.559  0.2767  1.1887 -2.0661
 6552TIP3   OH243850   4.773   4.523   1.182  0.0470  0.6586 -0.0213
 6552TIP3    H143851   4.778   4.447   1.240 -0.8494  1.6886  1.5184
 6552TIP3    H243852   4.863   4.540   1.156  0.1073 -1.7966 -1.6531
 6553TIP3   OH243853   1.593   0.855   2.874 -0.0138 -0.7531 -0.0124
 6553TIP3    H143854   1.504   0.883   2.851  0.9369  2.0826 -0.7336
 6553TIP3    H243855   1.644   0.871   2.794  1.9869  2.3687  1.6716
 6554TIP3   OH243856   6.037   7.447   0.888 -0.8341 -0.4673 -0.0502
 6554TIP3    H143857   6.108   7.508   0.869 -1.4381 -0.2028 -1.6156
 6554TIP3    H243858   6.073   7.361   0.866 -0.8403 -0.3774 -0.4328
 6555TIP3   OH243859   7.005   1.879   2.678 -0.2628  0.1872 -0.3586
 6555TIP3    H143860   7.023   1.947   2.613  0.9201 -1.2750 -1.6157
 6555TIP3    H243861   6.910   1.883   2.691 -0.2786  1.7672 -0.7011
 6556TIP3   OH243862   3.432   6.826   1.269  0.4871 -0.2832  0.6067
 6556TIP3    H143863   3.407   6.786   1.353 -0.3005 -0.2011  0.4232
 6556TIP3    H243864   3.348   6.853   1.230  0.7903 -0.8705 -0.4828
 6557TIP3   OH243865   5.599   4.693   2.791 -0.6265 -0.3205  0.1310
 6557TIP3    H143866   5.579   4.711   2.699  3.2495 -1.5374 -1.1461
 6557TIP3    H243867   5.625   4.778   2.827 -0.4651 -0.1404 -0.4035
 6558TIP3   OH243868   2.933   7.629   0.615  0.7713  0.1547  0.2467
 6558TIP3    H143869   2.878   7.658   0.687  2.2675 -1.0989  2.0049
 6558TIP3    H243870   3.023   7.648   0.644  1.3674  1.3468 -2.1324
 6559TIP3   OH243871   6.291   5.108   0.678 -0.2419 -0.1398  0.3795
 6559TIP3    H143872   6.325   5.190   0.641  0.9936 -0.6232  0.3928
 6559TIP3    H243873   6.310   5.115   0.772 -1.1139  0.0125  0.5504
 6560TIP3   OH243874   0.015   4.293   0.501 -0.1734  0.3705  0.1780
 6560TIP3    H143875  -0.035   4.359   0.454  1.0503  0.3929 -1.1587
 6560TIP3    H243876   0.083   4.343   0.547  1.1035  0.0483 -1.2850
 6561TIP3   OH243877   5.704   0.631   1.496  0.2331  0.2548 -0.3838
 6561TIP3    H143878   5.672   0.721   1.494  1.2062  0.6126 -0.6818
 6561TIP3    H243879   5.640   0.581   1.445  0.1567  0.9422 -0.9771
 6562TIP3   OH243880   0.286   0.188   0.916  0.0726 -0.0204  0.4255
 6562TIP3    H143881   0.252   0.143   0.839 -0.1964 -0.3358  0.7260
 6562TIP3    H243882   0.217   0.180   0.982 -0.1774  1.2310  0.3517
 6563TIP3   OH243883   7.027   6.525   2.251 -0.4895  0.4367 -0.4731
 6563TIP3    H143884   7.037   6.445   2.303 -0.2347 -0.1208 -1.3517
 6563TIP3    H243885   6.938   6.519   2.215 -0.2753  0.2608 -0.9887
 6564TIP3   OH243886   1.394   7.078   1.631  0.3488 -0.1429  0.3873
 6564TIP3    H143887   1.445   7.151   1.595 -0.2737 -0.1401 -0.5168
 6564TIP3    H243888   1.319   7.121   1.673  0.9525 -0.1605  1.5213
 6565TIP3   OH243889   3.133   0.238   3.231 -0.1766 -0.1464  0.5098
 6565TIP3    H143890   3.229   0.247   3.231 -0.2873  1.3311  0.9277
 6565TIP3    H243891   3.118   0.144   3.222  1.3033 -0.3384 -0.3793
 6566TIP3   OH243892   4.850   7.267   1.229  0.5617  0.6284  0.3104
 6566TIP3    H143893   4.848   7.340   1.292  2.4185 -0.8944  2.3146
 6566TIP3    H243894   4.854   7.188   1.284  2.8195 -0.7775 -1.6622
 6567TIP3   OH243895   4.114   1.879   1.157 -0.0000 -0.0266 -0.2264
 6567TIP3    H143896   4.206   1.853   1.165 -0.2792 -1.9246 -2.3315
 6567TIP3    H243897   4.118   1.966   1.115  0.8516 -0.6478 -1.4954
 6568TIP3   OH243898   4.509   5.792   0.796  0.2893 -0.1467  0.2281
 6568TIP3    H143899   4.511   5.790   0.892  1.1978 -1.1657  0.2014
 6568TIP3    H243900   4.549   5.876   0.773  1.3613 -0.5137  0.7225
 6569TIP3   OH243901   5.601   3.354   1.914 -0.4035 -0.0541 -0.2160
 6569TIP3    H143902   5.601   3.270   1.869  0.9426 -0.0123 -0.3266
 6569TIP3    H243903   5.566   3.334   2.001 -0.1352 -0.7134 -0.2550
 6570TIP3   OH243904   6.942   0.316   0.683 -0.3046 -0.3291  0.6985
 6570TIP3    H143905   7.016   0.260   0.659 -0.2176  0.4686 -1.0909
 6570TIP3    H243906   6.864   0.263   0.666 -0.2066 -0.1235 -0.4741
 6571TIP3   OH243907   4.914   7.393   2.680 -0.5312  0.5302  0.0819
 6571TIP3    H143908   4.953   7.446   2.750  0.9239 -0.9991  0.4780
 6571TIP3    H243909   4.941   7.438   2.599  1.8673 -0.2848  0.3538
 6572TIP3   OH243910   6.419   0.664   1.377 -0.3571 -0.1459  0.5315
 6572TIP3    H143911   6.434   0.752   1.411 -1.8565  0.2054  0.3399
 6572TIP3    H243912   6.469   0.662   1.295 -0.5721  0.6454  0.3694
 6573TIP3   OH243913   5.589   0.514   1.143 -0.1808 -0.3264  0.2469
 6573TIP3    H143914   5.593   0.581   1.075 -0.6529 -1.4544 -0.9544
 6573TIP3    H243915   5.660   0.454   1.120  1.3140  0.5631  2.2473
 6574TIP3   OH243916   4.790   0.750   1.544 -0.1825 -0.1560 -0.6158
 6574TIP3    H143917   4.830   0.669   1.576 -0.0834 -0.7270 -2.1225
 6574TIP3    H243918   4.701   0.748   1.577 -0.1890 -0.8925 -0.6670
 6575TIP3   OH243919   4.266   5.298   2.233 -0.0919 -0.2582 -0.1052
 6575TIP3    H143920   4.186   5.334   2.271 -0.3658 -0.2924 -0.6472
 6575TIP3    H243921   4.241   5.272   2.145 -0.0755 -2.3695  0.4568
 6576TIP3   OH243922   1.057   5.906   1.609  0.2881 -0.2528 -0.5004
 6576TIP3    H143923   1.063   6.001   1.593  4.9243 -0.0738  0.7124
 6576TIP3    H243924   1.069   5.867   1.523 -1.6553  0.1660 -1.0120
 6577TIP3   OH243925   2.594   6.650   1.042  0.0906  0.1536 -0.0387
 6577TIP3    H143926   2.636   6.643   1.128  0.6615  0.8693 -0.2439
 6577TIP3    H243927   2.667   6.644   0.979 -0.2503  0.2331 -0.4471
 6578TIP3   OH243928   1.931   3.168   0.907 -0.8447  0.0139  0.4242
 6578TIP3    H143929   1.891   3.082   0.918  0.4316 -0.9686 -1.9622
 6578TIP3    H243930   1.867   3.219   0.858 -0.4518 -0.5599 -0.7142
 6579TIP3   OH243931   7.465   1.909   2.301 -0.8127  0.4838  0.1837
 6579TIP3    H143932   7.476   1.991   2.349  1.1812  1.1660 -1.2919
 6579TIP3    H243933   7.473   1.841   2.368 -0.8928  1.4546  1.2102
 6580TIP3   OH243934   4.598   7.573   1.379 -0.7236  0.1302 -0.0073
 6580TIP3    H143935   4.550   7.525   1.447 -0.4645 -1.3423 -0.8121
 6580TIP3    H243936   4.630   7.652   1.423 -1.4801 -0.2516  1.2801
 6581TIP3   OH243937   1.028   2.424   2.166 -0.7245 -0.0213  0.2734
 6581TIP3    H143938   1.058   2.376   2.243 -3.0080 -0.5268  0.9456
 6581TIP3    H243939   1.066   2.511   2.176 -0.1687 -0.3761  1.4619
 6582TIP3   OH243940   5.010   7.048   0.641 -0.1469  0.3426  0.7247
 6582TIP3    H143941   5.076   6.981   0.656 -0.4179  0.1268  0.9724
 6582TIP3    H243942   5.027   7.080   0.552 -0.3137 -0.3902  0.4226
 6583TIP3   OH243943   2.208   6.459   1.300  0.0630  0.1469  0.4113
 6583TIP3    H143944   2.215   6.491   1.211 -0.9724 -1.8881 -0.4799
 6583TIP3    H243945   2.190   6.537   1.353  0.9892  1.4199 -1.0927
 6584TIP3   OH243946   1.172   6.184   1.507 -0.2528 -0.0919  0.0032
 6584TIP3    H143947   1.109   6.207   1.439  0.6389 -0.2801 -0.9138
 6584TIP3    H243948   1.257   6.187   1.463  0.3113 -0.6189  1.0129
 6585TIP3   OH243949   5.727   2.330   1.938  0.2338  0.2063 -0.3595
 6585TIP3    H143950   5.657   2.364   1.881 -0.0595 -0.5426 -0.4550
 6585TIP3    H243951   5.685   2.259   1.988  0.7661  0.1629  0.0284
 6586TIP3   OH243952   7.019   1.168   2.747  0.3160 -0.3303 -0.1090
 6586TIP3    H143953   7.054   1.103   2.808  1.0724  0.7247  0.6063
 6586TIP3    H243954   7.094   1.221   2.721  0.1573 -1.1770 -2.5572
 6587TIP3   OH243955   1.727   5.246   0.552  0.1930  0.3107  0.3938
 6587TIP3    H143956   1.783   5.202   0.488  1.9892 -0.1217  2.1179
 6587TIP3    H243957   1.758   5.213   0.637 -1.6010  1.3576  1.5411
 6588TIP3   OH243958   4.510   0.002   1.700  0.1006 -0.1307 -0.0735
 6588TIP3    H143959   4.470   0.075   1.653  1.0645  0.9985  0.7755
 6588TIP3    H243960   4.599  -0.003   1.665  0.4445 -0.0444  0.7589
 6589TIP3   OH243961   3.326   4.938   3.309 -0.1161 -0.2817 -0.7885
 6589TIP3    H143962   3.313   5.010   3.247 -0.4809  0.6763  0.3783
 6589TIP3    H243963   3.240   4.896   3.315 -0.2159 -0.0380 -0.5180
 6590TIP3   OH243964   6.789   6.588   2.160  0.0515  0.3517  0.9157
 6590TIP3    H143965   6.759   6.569   2.071 -1.4569  0.3423  1.3843
 6590TIP3    H243966   6.749   6.672   2.181  2.1937  1.4572  0.8259
 6591TIP3   OH243967   1.411   3.840   2.047 -0.3563  0.0205  0.7384
 6591TIP3    H143968   1.373   3.752   2.051  0.9093 -0.4977  3.0246
 6591TIP3    H243969   1.505   3.825   2.033 -0.3138  1.0851 -0.2759
 6592TIP3   OH243970   1.977   6.511   2.464 -0.1360 -0.4472  0.6713
 6592TIP3    H143971   1.986   6.556   2.547  0.6757 -0.1325  0.4207
 6592TIP3    H243972   2.031   6.561   2.403  0.3303 -1.4306  0.2554
 6593TIP3   OH243973   7.588   3.428   1.029 -0.0593 -0.7263 -0.0384
 6593TIP3    H143974   7.515   3.486   1.007  0.1906 -0.0381  0.9056
 6593TIP3    H243975   7.546   3.347   1.058 -0.4557 -0.2235  0.7972
 6594TIP3   OH243976   6.859   6.444   0.818 -0.1657 -0.0445  0.1677
 6594TIP3    H143977   6.895   6.466   0.733  2.2577 -3.4721  0.1050
 6594TIP3    H243978   6.764   6.448   0.806  0.1121  1.7577 -1.9756
 6595TIP3   OH243979   2.420   6.814   2.665  0.0549 -0.0091  0.1985
 6595TIP3    H143980   2.472   6.781   2.739  2.4068  0.0202 -1.3318
 6595TIP3    H243981   2.387   6.736   2.622 -0.4512 -0.0655  0.6835
 6596TIP3   OH243982   6.546   2.567   1.698 -0.4022  0.4120 -0.1653
 6596TIP3    H143983   6.561   2.475   1.719 -1.2402  0.9114  3.2861
 6596TIP3    H243984   6.536   2.569   1.603  0.1336 -2.9596 -0.4075
 6597TIP3   OH243985   2.850   6.607   3.592 -0.1491 -0.9740  0.1387
 6597TIP3    H143986   2.837   6.514   3.574  0.0217 -0.9098 -0.3233
 6597TIP3    H243987   2.929   6.610   3.647 -0.7056 -1.1721  0.9625
 6598TIP3   OH243988   6.923   6.360   3.136  0.3746  0.1910  0.0256
 6598TIP3    H143989   6.957   6.324   3.054 -2.3136 -1.2938 -0.5287
 6598TIP3    H243990   6.904   6.452   3.115 -1.5146 -0.4782 -1.5151
 6599TIP3   OH243991   2.060   6.673   2.676 -0.4573  0.0915  0.0531
 6599TIP3    H143992   2.020   6.760   2.674 -0.9737 -0.1158  0.8353
 6599TIP3    H243993   2.105   6.669   2.761  1.6583  0.4975 -1.0117
 6600TIP3   OH243994   7.256   4.759   1.730 -0.2484  0.3840  0.3253
 6600TIP3    H143995   7.237   4.688   1.669 -0.3820  0.6160  0.0977
 6600TIP3    H243996   7.348   4.747   1.752  0.3339  1.4418 -1.4020
 6601TIP3   OH243997   7.581   5.544   1.185  0.4806  0.4200  0.2300
 6601TIP3    H143998   7.504   5.568   1.236 -1.1159  0.7226 -2.1618
 6601TIP3    H243999   7.558   5.461   1.143  0.3117  1.7967 -2.5925
 6602TIP3   OH244000   3.937   3.960   0.520 -0.5095  0.4591  0.3130
 6602TIP3    H144001   3.908   4.043   0.482 -1.5579  0.9590  2.0732
 6602TIP3    H244002   4.028   3.975   0.545 -1.2729  1.8647  2.5286
 6603TIP3   OH244003   3.578   5.994   1.160 -0.2246 -0.1249 -0.1281
 6603TIP3    H144004   3.645   6.063   1.163  0.3731 -0.6888 -0.2769
 6603TIP3    H244005   3.537   6.005   1.075  2.1141 -1.9882 -1.6367
 6604TIP3   OH244006   7.233   6.582   1.027 -0.4406 -0.4176  0.0540
 6604TIP3    H144007   7.313   6.541   1.059 -0.8466 -0.9694  0.3761
 6604TIP3    H244008   7.172   6.578   1.101 -0.8075 -0.1085 -0.2214
 6605TIP3   OH244009   0.663   5.924   1.605  0.2086 -0.0326 -0.0263
 6605TIP3    H144010   0.630   5.837   1.581 -1.5354  0.3271  0.9174
 6605TIP3    H244011   0.733   5.906   1.668  1.1411 -0.7778 -1.2107
 6606TIP3   OH244012   3.736   5.173   0.895 -0.3026  0.4366  0.2271
 6606TIP3    H144013   3.800   5.244   0.892  0.6711 -0.3781  1.1163
 6606TIP3    H244014   3.787   5.093   0.884 -1.5319 -0.1297 -2.2915
 6607TIP3   OH244015   6.329   7.305   0.636 -0.1376 -0.7595  0.4178
 6607TIP3    H144016   6.372   7.228   0.674 -0.7816 -1.0114  0.6589
 6607TIP3    H244017   6.395   7.374   0.641  0.4335 -1.2834  0.2410
 6608TIP3   OH244018   0.166   3.225   1.189  0.1086  0.0446  0.3177
 6608TIP3    H144019   0.163   3.273   1.271  2.3447 -0.2461  0.6250
 6608TIP3    H244020   0.209   3.142   1.210  0.1015 -0.3242 -1.0043
 6609TIP3   OH244021   7.072   1.742   1.810  0.1344 -0.5679  0.1446
 6609TIP3    H144022   7.055   1.829   1.774  2.7354  0.0083  0.0870
 6609TIP3    H244023   7.025   1.741   1.893 -0.3743  0.6847 -0.1019
 6610TIP3   OH244024   6.431   3.266   7.289 -0.1641 -0.0327  0.7027
 6610TIP3    H144025   6.449   3.359   7.279 -2.7753  0.7635  2.5255
 6610TIP3    H244026   6.448   3.247   7.381  0.0262 -1.3266  0.4334
 6611TIP3   OH244027   0.823   0.132   1.273  0.0363 -0.0107  0.1198
 6611TIP3    H144028   0.785   0.065   1.216 -0.3854 -0.2518  0.6639
 6611TIP3    H244029   0.883   0.083   1.330 -0.7293 -0.0527  0.9316
 6612TIP3   OH244030   2.560   6.897   1.267 -0.0244  0.0724 -0.0440
 6612TIP3    H144031   2.500   6.856   1.203  0.0964 -0.6930  0.3148
 6612TIP3    H244032   2.644   6.855   1.250 -0.4379 -1.7979  2.0222
 6613TIP3   OH244033   4.251   1.136   1.640  0.1786 -0.2071 -0.2130
 6613TIP3    H144034   4.173   1.080   1.635 -1.6214  2.1909 -0.9213
 6613TIP3    H244035   4.234   1.194   1.715  2.2254 -0.8590  0.8304
 6614TIP3   OH244036   2.619   5.227   1.997 -0.0226 -0.3613  0.2090
 6614TIP3    H144037   2.672   5.296   1.958  0.0773 -0.3128  0.4282
 6614TIP3    H244038   2.562   5.273   2.059  0.9780 -0.6161  1.3555
 6615TIP3   OH244039   4.717   2.178   3.264 -0.3758 -0.0960  0.0488
 6615TIP3    H144040   4.633   2.137   3.285 -2.0467  1.6787 -2.5386
 6615TIP3    H244041   4.724   2.170   3.169  2.4417 -0.1440  0.1725
 6616TIP3   OH244042   7.316   4.968   1.472 -0.5181  0.1009 -0.6200
 6616TIP3    H144043   7.405   4.994   1.451 -0.4268  0.0279 -0.3260
 6616TIP3    H244044   7.286   5.033   1.536 -0.7952  0.3241 -0.9687
 6617TIP3   OH244045   5.077   2.515   1.602  0.4214  0.0287 -0.2046
 6617TIP3    H144046   5.106   2.605   1.588  0.8140 -0.1121 -0.3057
 6617TIP3    H244047   5.049   2.485   1.516 -0.6317  0.3741  0.0121
 6618TIP3   OH244048   4.707   2.121   2.935 -0.6515  0.2605 -0.0462
 6618TIP3    H144049   4.762   2.045   2.916  0.0007  0.7908 -0.3180
 6618TIP3    H244050   4.624   2.102   2.892 -0.5835 -0.4100  0.1031
 6619TIP3   OH244051   1.614   7.385   3.189 -0.0257  0.4524 -0.2970
 6619TIP3    H144052   1.702   7.354   3.165  0.4886  1.0196  0.7729
 6619TIP3    H244053   1.558   7.308   3.178  0.8548 -0.2990  0.2791
 6620TIP3   OH244054   7.602   7.143   1.359  0.2637  0.4097  0.0401
 6620TIP3    H144055   7.568   7.222   1.400  0.1581 -0.1642  1.1093
 6620TIP3    H244056   7.559   7.139   1.274 -0.4333  1.0015  0.3568
 6621TIP3   OH244057   1.945   3.251   2.290 -0.4502 -0.1972  0.3343
 6621TIP3    H144058   1.979   3.286   2.372 -0.5358 -0.8508  0.6630
 6621TIP3    H244059   2.023   3.232   2.238 -0.3914  0.1600  0.2948
 6622TIP3   OH244060   6.362   6.203   2.564  0.3801 -0.0447  0.1921
 6622TIP3    H144061   6.282   6.202   2.512 -1.4663  0.4891  2.8309
 6622TIP3    H244062   6.383   6.296   2.574 -0.5123  0.0078  2.0224
 6623TIP3   OH244063   3.563   5.726   1.854 -0.2244 -0.6308  0.5066
 6623TIP3    H144064   3.566   5.656   1.788 -3.2422 -0.3546 -0.0457
 6623TIP3    H244065   3.614   5.797   1.815  0.4559 -1.4906 -0.2247
 6624TIP3   OH244066   0.054   7.142   0.730 -0.0583  0.7763  0.0154
 6624TIP3    H144067   0.125   7.152   0.666 -1.5972 -1.1199 -2.1561
 6624TIP3    H244068   0.031   7.232   0.753  3.4294  1.4781  1.4178
 6625TIP3   OH244069   5.024   4.672   1.739  0.0252  0.4862 -0.3148
 6625TIP3    H144070   5.110   4.682   1.781  0.6829 -1.1789 -1.1971
 6625TIP3    H244071   4.962   4.703   1.805  1.1652 -0.0305  1.0594
 6626TIP3   OH244072   5.337   0.396   1.724 -0.0038  0.0709  1.3627
 6626TIP3    H144073   5.309   0.483   1.696  0.4923  0.6031  2.4593
 6626TIP3    H244074   5.256   0.351   1.748 -0.3244 -0.0209  0.1289
 6627TIP3   OH244075   0.784   2.642   0.731  0.1999  0.5984  0.1005
 6627TIP3    H144076   0.741   2.694   0.664 -0.4410  1.4140  1.1122
 6627TIP3    H244077   0.750   2.553   0.718 -0.0226  0.7777 -0.5530
 6628TIP3   OH244078   7.294   5.535   1.789 -0.0445  0.0002 -0.1551
 6628TIP3    H144079   7.251   5.470   1.733  2.8044 -2.2423  0.0618
 6628TIP3    H244080   7.227   5.559   1.853 -1.4243 -2.3176 -0.6040
 6629TIP3   OH244081   4.912   1.555   1.947 -0.1600 -0.3052 -0.3300
 6629TIP3    H144082   4.957   1.631   1.910  1.6741 -0.7484  0.8509
 6629TIP3    H244083   4.934   1.483   1.887 -0.7784 -0.1867 -0.7081
 6630TIP3   OH244084   2.602   5.332   1.624 -0.0610  0.2451  0.2075
 6630TIP3    H144085   2.637   5.367   1.707  2.2090  2.6179 -1.5861
 6630TIP3    H244086   2.679   5.296   1.580 -0.6447  1.5186 -1.9740
 6631TIP3   OH244087   4.012   6.330   1.130 -0.0802 -0.1100 -0.2495
 6631TIP3    H144088   4.026   6.369   1.044 -1.4958  0.0003 -0.4595
 6631TIP3    H244089   4.038   6.398   1.192 -1.3580  0.7576 -0.6137
 6632TIP3   OH244090   2.841   5.082   2.021  0.2152  0.0875  0.4942
 6632TIP3    H144091   2.762   5.128   2.049  0.8443  1.1139  0.6275
 6632TIP3    H244092   2.868   5.127   1.940  0.7612 -0.1305  0.5488
 6633TIP3   OH244093   2.359   6.786   1.092  0.3682  0.0040 -0.9582
 6633TIP3    H144094   2.429   6.737   1.049  0.8890  0.1382 -0.2907
 6633TIP3    H244095   2.308   6.719   1.139  1.3753  0.1069  0.3670
 6634TIP3   OH244096   7.220   2.347   0.765 -0.6850  0.1838 -0.5639
 6634TIP3    H144097   7.192   2.418   0.823 -1.1286  0.3369 -0.9621
 6634TIP3    H244098   7.139   2.301   0.743 -0.4759 -0.0679 -0.8048
 6635TIP3   OH244099   6.240   0.227   2.802  0.2445  0.4437  0.1460
 6635TIP3    H144100   6.213   0.290   2.868  0.5517 -0.2426  0.9477
 6635TIP3    H244101   6.263   0.148   2.852  1.1026  0.1192 -0.7212
 6636TIP3   OH244102   5.326   1.979   0.968 -0.6788  0.3544 -0.7051
 6636TIP3    H144103   5.371   1.937   1.041 -0.5174 -0.4724 -1.2660
 6636TIP3    H244104   5.234   1.980   0.993 -0.5503  0.6114 -0.2359
 6637TIP3   OH244105   5.241   3.641   0.708  0.2577 -0.7689 -0.5846
 6637TIP3    H144106   5.168   3.684   0.664 -0.2901 -0.4843  0.5721
 6637TIP3    H244107   5.299   3.713   0.733  0.4506 -0.9102 -0.6250
 6638TIP3   OH244108   7.129   5.407   0.376  0.1444  0.1781  0.1243
 6638TIP3    H144109   7.213   5.389   0.417 -0.4667 -0.0652  1.3046
 6638TIP3    H244110   7.092   5.321   0.357 -0.0251  0.2777 -0.0013
 6639TIP3   OH244111   4.783   1.670   1.418 -0.3408  0.0908 -0.0254
 6639TIP3    H144112   4.725   1.720   1.476 -0.4282  0.8435 -0.7330
 6639TIP3    H244113   4.738   1.671   1.333  1.9703  3.2339 -1.4063
 6640TIP3   OH244114   6.869   0.466   1.646  0.5915 -0.0998 -0.1270
 6640TIP3    H144115   6.835   0.423   1.568  1.3767  0.6020 -0.8811
 6640TIP3    H244116   6.822   0.425   1.718  0.4123 -1.3364 -0.9005
 6641TIP3   OH244117   7.408   6.059   3.116 -0.0095 -0.5835  1.0401
 6641TIP3    H144118   7.413   6.093   3.027 -1.2660 -0.0448  1.1548
 6641TIP3    H244119   7.367   5.973   3.107  1.4581 -1.3124  0.9466
 6642TIP3   OH244120   6.415   3.694   2.044 -0.1062  0.6126  0.2734
 6642TIP3    H144121   6.387   3.603   2.054  0.1350  0.2854 -1.5377
 6642TIP3    H244122   6.478   3.708   2.114  2.3109 -1.6863 -1.2339
 6643TIP3   OH244123   1.469   6.513   2.383 -0.0357  0.3162 -0.1034
 6643TIP3    H144124   1.559   6.506   2.414 -0.1822 -0.4617  0.1815
 6643TIP3    H244125   1.476   6.549   2.295  0.4777  1.2523  0.3067
 6644TIP3   OH244126   1.598   5.238   2.200  0.3075 -0.0284  0.2975
 6644TIP3    H144127   1.642   5.240   2.115 -0.9126  0.7153 -0.3536
 6644TIP3    H244128   1.543   5.160   2.198 -0.2920  0.3926  0.0903
 6645TIP3   OH244129   0.917   2.854   1.054  0.0141  0.6980 -0.8325
 6645TIP3    H144130   0.884   2.775   1.097  1.3865  0.1033 -0.8248
 6645TIP3    H244131   0.890   2.925   1.112 -0.3443  0.1377 -0.2981
 6646TIP3   OH244132   3.007   4.684   0.731 -0.2999 -0.1853 -0.2707
 6646TIP3    H144133   2.935   4.649   0.782 -0.0430  0.5792  0.6483
 6646TIP3    H244134   3.066   4.609   0.718  0.5390 -0.0463  2.1798
 6647TIP3   OH244135   6.329   3.843   0.910  0.4884 -0.0318 -0.3397
 6647TIP3    H144136   6.305   3.767   0.963 -0.5052  0.4030 -0.1418
 6647TIP3    H244137   6.414   3.820   0.872  0.9302 -0.6100  0.9396
 6648TIP3   OH244138   0.652   1.260   0.825  0.2497 -0.8986 -0.0336
 6648TIP3    H144139   0.734   1.299   0.795 -0.2950  0.7158  0.4331
 6648TIP3    H244140   0.674   1.169   0.843  1.8569 -0.5895 -0.2248
 6649TIP3   OH244141   3.433   4.551   1.902 -0.4196 -0.0838  0.8289
 6649TIP3    H144142   3.357   4.588   1.857 -0.9496 -0.7495  1.1484
 6649TIP3    H244143   3.502   4.616   1.891 -1.1745  0.7611  0.9316
 6650TIP3   OH244144   1.558   2.617   2.664  0.0243 -0.2131  0.2347
 6650TIP3    H144145   1.601   2.678   2.606 -0.5134 -0.4503 -0.4301
 6650TIP3    H244146   1.607   2.623   2.746  0.0457  1.0114  0.1499
 6651TIP3   OH244147   3.411   6.046   1.793  0.0300 -0.1187  0.6627
 6651TIP3    H144148   3.468   6.033   1.869  0.3873 -1.7511  0.1624
 6651TIP3    H244149   3.463   6.016   1.718 -0.8554  0.0220 -0.0257
 6652TIP3   OH244150   5.975   0.658   1.915 -0.0585  0.4086 -0.1562
 6652TIP3    H144151   6.032   0.685   1.986 -0.9860 -1.5130  1.4197
 6652TIP3    H244152   5.991   0.564   1.906 -0.9213  0.3746 -1.5982
 6653TIP3   OH244153   3.856   7.494   0.318 -0.3994  0.3016 -0.9107
 6653TIP3    H144154   3.787   7.531   0.262 -0.9564  0.9990  0.1870
 6653TIP3    H244155   3.865   7.557   0.389 -0.4643 -1.0538  0.3470
 6654TIP3   OH244156   2.143   1.247   2.575 -0.2999  0.6816 -0.1725
 6654TIP3    H144157   2.203   1.242   2.500 -2.1458 -0.8265 -1.6698
 6654TIP3    H244158   2.199   1.234   2.651  1.2590 -1.0939 -1.5168
 6655TIP3   OH244159   3.101   2.592   1.823  0.4603  0.0109  0.3167
 6655TIP3    H144160   3.085   2.513   1.875  0.6015 -2.3637 -2.9402
 6655TIP3    H244161   3.186   2.624   1.853  1.0882 -1.9366  0.7681
 6656TIP3   OH244162   5.139   0.227   1.760  0.1158  0.4794  0.1771
 6656TIP3    H144163   5.172   0.157   1.704  0.6481  0.4519  0.5279
 6656TIP3    H244164   5.054   0.194   1.791  1.1600 -0.8576  1.8433
 6657TIP3   OH244165   1.270   6.435   2.135 -0.3530 -0.1953  0.0422
 6657TIP3    H144166   1.227   6.455   2.052 -0.0896  0.9077  0.1570
 6657TIP3    H244167   1.202   6.391   2.187 -1.2745  1.1824  0.0815
 6658TIP3   OH244168   6.477   4.634   1.368  0.1958 -0.5131 -0.1016
 6658TIP3    H144169   6.539   4.579   1.321 -0.6679 -0.9532 -0.7683
 6658TIP3    H244170   6.393   4.587   1.360 -0.3946  0.4939  0.0106
 6659TIP3   OH244171   1.783   0.855   2.632  0.4332 -0.0468 -0.3446
 6659TIP3    H144172   1.845   0.925   2.655  0.2984 -0.3788  1.1168
 6659TIP3    H244173   1.836   0.791   2.585  0.5682  0.9923 -1.6690
 6660TIP3   OH244174   5.265   4.622   1.985  0.5666  0.0952  0.2553
 6660TIP3    H144175   5.315   4.643   1.906 -2.2495  0.4381 -1.5927
 6660TIP3    H244176   5.270   4.701   2.038 -0.2264  1.1452 -1.1690
 6661TIP3   OH244177   3.438   3.819   0.839  0.2777 -0.1326  0.4100
 6661TIP3    H144178   3.385   3.775   0.773  0.6027  1.4080 -0.9261
 6661TIP3    H244179   3.520   3.769   0.841  0.0534 -0.5221  0.0430
 6662TIP3   OH244180   1.640   1.121   0.983  0.0827  0.0202 -0.3654
 6662TIP3    H144181   1.693   1.181   0.932  0.6300  1.7951  2.0896
 6662TIP3    H244182   1.555   1.165   0.990 -0.1510 -0.4499 -0.2170
 6663TIP3   OH244183   7.283   2.499   1.489 -0.1808  0.4085  0.0446
 6663TIP3    H144184   7.215   2.518   1.425 -1.1765 -0.4885  0.8070
 6663TIP3    H244185   7.316   2.585   1.516 -1.0238  0.8486 -0.3106
 6664TIP3   OH244186   7.520   7.265   2.113 -0.0588  0.2145  0.3258
 6664TIP3    H144187   7.492   7.203   2.181 -0.1557  1.6397  1.6346
 6664TIP3    H244188   7.444   7.323   2.102  0.9354  1.7324  1.0989
 6665TIP3   OH244189   4.694   6.588   1.873 -0.7346 -0.1906 -0.3682
 6665TIP3    H144190   4.745   6.641   1.811 -0.6340  0.1293 -0.0172
 6665TIP3    H244191   4.733   6.608   1.958 -0.8780 -0.6247 -0.2016
 6666TIP3   OH244192   7.115   5.991   2.477 -0.4601  1.3481  0.4448
 6666TIP3    H144193   7.086   5.905   2.445  0.4780  0.8027  0.9935
 6666TIP3    H244194   7.066   6.004   2.558  0.6784  0.4636  1.3300
 6667TIP3   OH244195   5.294   6.072   1.272  0.3320  0.3824 -0.0148
 6667TIP3    H144196   5.246   5.995   1.302 -0.3601  1.4255  1.6888
 6667TIP3    H244197   5.340   6.104   1.350 -1.7597  3.3849  0.1415
 6668TIP3   OH244198   7.202   0.239   3.076 -0.9059 -0.5969  0.8809
 6668TIP3    H144199   7.120   0.283   3.100 -1.5659 -0.8190 -0.8068
 6668TIP3    H244200   7.261   0.310   3.052 -0.3818 -0.4009  2.6504
 6669TIP3   OH244201   5.567   4.511   2.070  0.1854 -0.1021  0.0016
 6669TIP3    H144202   5.660   4.525   2.052  0.2064  0.6145  0.6126
 6669TIP3    H244203   5.522   4.575   2.015  0.1412  0.5789  0.8031
 6670TIP3   OH244204   5.426   3.774   2.775 -0.4996 -0.7040  0.1476
 6670TIP3    H144205   5.495   3.829   2.738 -0.4541 -0.3427  0.7436
 6670TIP3    H244206   5.423   3.696   2.719  0.2210 -0.6082 -0.0267
 6671TIP3   OH244207   4.661   2.201   1.331  0.1716  0.2264 -0.0783
 6671TIP3    H144208   4.646   2.134   1.264 -0.0453 -1.0103  1.1638
 6671TIP3    H244209   4.577   2.207   1.378  0.5671  0.4669  0.6088
 6672TIP3   OH244210   5.375   4.859   3.014  0.2247  0.0162 -0.0685
 6672TIP3    H144211   5.428   4.792   3.056 -0.3887 -0.2127  0.3577
 6672TIP3    H244212   5.365   4.927   3.081 -0.6132 -0.2705  0.1120
 6673TIP3   OH244213   5.447   2.293   2.890  0.2576 -0.5006  0.0832
 6673TIP3    H144214   5.413   2.204   2.902 -2.4468  0.0662 -2.2750
 6673TIP3    H244215   5.508   2.285   2.817 -0.0833 -0.4426 -0.2145
 6674TIP3   OH244216   4.801   5.716   0.670  0.4813 -0.2616 -0.7297
 6674TIP3    H144217   4.828   5.633   0.709 -0.1231 -0.2884 -0.3470
 6674TIP3    H244218   4.754   5.690   0.590  0.3702 -0.2909 -0.6564
 6675TIP3   OH244219   6.108   1.305   0.817 -0.0330  0.6090  0.0881
 6675TIP3    H144220   6.054   1.228   0.834 -0.9478  0.9963 -0.9293
 6675TIP3    H244221   6.127   1.341   0.903  0.0701 -0.5211  0.5489
 6676TIP3   OH244222   6.079   5.472   1.503  0.4890 -0.9255  0.4834
 6676TIP3    H144223   5.994   5.429   1.516  2.0767 -3.8042  2.1562
 6676TIP3    H244224   6.109   5.493   1.592  2.3117 -1.6099  0.0599
 6677TIP3   OH244225   4.780   0.101   1.594  0.5189  0.2242  0.2107
 6677TIP3    H144226   4.845   0.088   1.525 -1.6773  0.7428 -2.1204
 6677TIP3    H244227   4.760   0.194   1.591 -0.1413  0.1249  1.0841
 6678TIP3   OH244228   5.417   5.471   1.909  0.2948  0.5042 -0.4342
 6678TIP3    H144229   5.395   5.387   1.950 -1.0059  0.5297 -1.0512
 6678TIP3    H244230   5.498   5.498   1.953  0.3749 -0.7456  0.2387
 6679TIP3   OH244231   3.607   1.933   2.044  0.4661 -0.7632 -0.3354
 6679TIP3    H144232   3.620   2.026   2.025  0.9725 -0.5251  1.0568
 6679TIP3    H244233   3.634   1.888   1.964  1.1019  0.2361 -0.7024
 6680TIP3   OH244234   1.937   3.678   2.514 -0.1327  0.4797 -0.3561
 6680TIP3    H144235   1.896   3.763   2.531 -1.3436  0.1735 -1.5862
 6680TIP3    H244236   1.897   3.648   2.433 -0.5663 -1.8044  0.6400
 6681TIP3   OH244237   1.816   7.089   2.927 -0.0862 -0.1098  0.0258
 6681TIP3    H144238   1.786   7.026   2.991  0.7926 -0.2371  0.3312
 6681TIP3    H244239   1.845   7.165   2.979  1.5446 -0.5885 -0.1123
 6682TIP3   OH244240   0.739   1.513   1.803 -0.1280 -0.1054 -0.3148
 6682TIP3    H144241   0.758   1.601   1.773  0.4795 -0.3634 -0.6975
 6682TIP3    H244242   0.645   1.502   1.787 -0.2481  0.5321 -0.0782
 6683TIP3   OH244243   0.739   4.727   2.411 -0.4273 -0.6177  0.0321
 6683TIP3    H144244   0.725   4.705   2.503 -0.9313 -0.7156 -0.0674
 6683TIP3    H244245   0.661   4.775   2.385  0.0155  0.0160 -0.1580
 6684TIP3   OH244246   5.284   6.770   3.273 -0.6715 -0.0873 -0.0166
 6684TIP3    H144247   5.265   6.861   3.250  0.1406  0.3391  0.9034
 6684TIP3    H244248   5.208   6.721   3.244 -1.4593  0.9989  0.1444
 6685TIP3   OH244249   7.367   5.384   0.542  0.2400  0.1902  0.0678
 6685TIP3    H144250   7.428   5.457   0.546 -1.8714  2.0184  2.6985
 6685TIP3    H244251   7.394   5.325   0.611  0.1415  0.0241 -0.0337
 6686TIP3   OH244252   0.080   5.282   1.969  0.1653  0.0678  0.1358
 6686TIP3    H144253  -0.004   5.275   1.924 -0.6316  1.4427  1.3207
 6686TIP3    H244254   0.146   5.281   1.899 -0.9126  0.2465 -0.8991
 6687TIP3   OH244255   0.453   6.886   2.443 -0.5276 -0.3255 -0.2344
 6687TIP3    H144256   0.402   6.930   2.511 -0.0299 -2.4314  1.6089
 6687TIP3    H244257   0.539   6.871   2.482 -0.5309 -2.4855 -0.8756
 6688TIP3   OH244258   6.171   6.837   0.423  0.1401 -0.1978 -0.4430
 6688TIP3    H144259   6.087   6.863   0.460  0.2910 -2.6275  1.8961
 6688TIP3    H244260   6.233   6.902   0.455 -0.4054 -0.0313  0.3004
 6689TIP3   OH244261   6.998   1.544   1.636  0.2523 -0.1745 -0.5443
 6689TIP3    H144262   7.009   1.619   1.695 -1.3378  0.2149 -0.6845
 6689TIP3    H244263   6.908   1.552   1.604  0.8663 -0.7331 -2.5397
 6690TIP3   OH244264   3.788   7.633   1.036  0.3775  0.7767  0.3381
 6690TIP3    H144265   3.741   7.552   1.018  1.5909  0.2721 -0.7813
 6690TIP3    H244266   3.720   7.699   1.048 -0.6280  0.0530 -1.0942
 6691TIP3   OH244267   2.965   5.479   2.395  0.0898 -0.1828  0.3643
 6691TIP3    H144268   2.887   5.506   2.347 -0.9990 -1.5136  1.3345
 6691TIP3    H244269   3.038   5.504   2.338 -1.0735  0.0711 -1.0646
 6692TIP3   OH244270   6.592   7.286   1.372 -0.5981 -0.4435 -0.2915
 6692TIP3    H144271   6.569   7.313   1.460  0.9219 -0.0463  0.0162
 6692TIP3    H244272   6.536   7.210   1.354 -0.9170 -0.5288  1.0069
 6693TIP3   OH244273   5.967   6.240   1.919  0.0853  0.7730 -0.3270
 6693TIP3    H144274   6.030   6.195   1.975 -0.3676  2.1779  1.3930
 6693TIP3    H244275   5.936   6.172   1.859 -0.0299 -1.0417  1.6827
 6694TIP3   OH244276   6.361   1.377   2.018 -0.1730 -0.2142 -0.2530
 6694TIP3    H144277   6.269   1.366   2.043  0.4350 -2.3874  1.3542
 6694TIP3    H244278   6.409   1.367   2.100  1.6034 -0.9758 -1.3417
 6695TIP3   OH244279   6.219   2.674   2.442  0.0414  0.5861  0.1133
 6695TIP3    H144280   6.202   2.596   2.495  0.1380  0.4973  0.0144
 6695TIP3    H244281   6.284   2.724   2.493  0.0212  0.5749  0.1497
 6696TIP3   OH244282   2.341   4.627   2.666 -0.4641 -0.9411  0.2531
 6696TIP3    H144283   2.279   4.613   2.738  0.7615 -2.1818  1.1197
 6696TIP3    H244284   2.304   4.579   2.592 -0.8770 -1.0894  0.5537
 6697TIP3   OH244285   3.426   6.396   2.785  0.1520 -0.0054 -0.2667
 6697TIP3    H144286   3.336   6.409   2.754  0.0463 -0.6656 -0.2623
 6697TIP3    H244287   3.446   6.475   2.835  0.2617  0.9794 -1.8344
 6698TIP3   OH244288   4.479   5.746   0.327 -0.9631  0.3095 -0.7257
 6698TIP3    H144289   4.502   5.839   0.328  0.7006 -0.0249 -2.3463
 6698TIP3    H244290   4.543   5.705   0.385 -1.6705  0.1504 -0.0454
 6699TIP3   OH244291   4.300   7.483   1.712  0.0817  0.0775 -0.0864
 6699TIP3    H144292   4.350   7.544   1.657  0.3304 -0.9573 -1.0304
 6699TIP3    H244293   4.224   7.533   1.740  1.1483  1.3954  0.6201
 6700TIP3   OH244294   3.714   7.622   2.308 -0.0323  0.4132  0.5263
 6700TIP3    H144295   3.700   7.716   2.303 -1.4167  0.2548  1.0667
 6700TIP3    H244296   3.794   7.612   2.358  1.0690  1.3329 -0.9687
 6701TIP3   OH244297   6.035   3.669   1.182 -0.3713 -0.0528 -0.1580
 6701TIP3    H144298   6.113   3.636   1.138  0.1397  2.4983 -1.3482
 6701TIP3    H244299   6.062   3.753   1.219 -2.0313 -0.0623  1.1946
 6702TIP3   OH244300   3.422   2.629   3.008 -0.9368 -0.1805 -0.3343
 6702TIP3    H144301   3.352   2.584   2.960 -2.0402 -1.3897  2.2317
 6702TIP3    H244302   3.407   2.607   3.100  0.3527  2.9384  0.7880
 6703TIP3   OH244303   5.188   3.730   2.951 -0.2987 -0.3326  0.4120
 6703TIP3    H144304   5.253   3.764   2.890 -0.0648 -0.2440  0.7070
 6703TIP3    H244305   5.223   3.645   2.977 -0.6395 -0.5875  0.0503
 6704TIP3   OH244306   5.916   1.293   2.490 -0.8663  0.1539 -0.0807
 6704TIP3    H144307   5.868   1.271   2.411  2.0410 -0.2182 -1.9080
 6704TIP3    H244308   5.994   1.338   2.459  1.0983 -1.2308  2.4106
 6705TIP3   OH244309   6.302   4.803   3.267 -0.4186 -0.4128  0.6906
 6705TIP3    H144310   6.242   4.735   3.299  0.7964 -1.9194 -0.1180
 6705TIP3    H244311   6.382   4.756   3.243  0.5353  1.3355  0.2470
 6706TIP3   OH244312   7.523   3.476   0.409  0.0049  0.4824 -0.6375
 6706TIP3    H144313   7.512   3.418   0.334 -0.3244 -0.1203 -0.1323
 6706TIP3    H244314   7.555   3.419   0.479  0.7017  1.1154 -0.4241
 6707TIP3   OH244315   3.624   0.193   1.359  0.2069 -0.7317  0.7540
 6707TIP3    H144316   3.591   0.184   1.449  0.7239 -1.3904  0.8821
 6707TIP3    H244317   3.550   0.166   1.304 -0.0065 -0.6285  0.9870
 6708TIP3   OH244318   1.389   2.590   0.681 -0.3325  0.1055 -0.0845
 6708TIP3    H144319   1.326   2.639   0.628 -2.2056  0.4188  2.2538
 6708TIP3    H244320   1.337   2.519   0.720  1.3516 -1.1298  0.0120
 6709TIP3   OH244321   7.310   5.185   2.464  0.2092  0.1596 -0.2439
 6709TIP3    H144322   7.345   5.257   2.412  0.0826 -0.5922 -1.4368
 6709TIP3    H244323   7.386   5.131   2.484 -0.0231 -0.7936 -1.7295
 6710TIP3   OH244324   2.762   4.934   1.150 -0.7347  0.6423  0.6176
 6710TIP3    H144325   2.743   4.857   1.202 -0.3684  2.3044  3.3999
 6710TIP3    H244326   2.677   4.959   1.112 -0.6652 -1.6554 -1.3393
 6711TIP3   OH244327   0.840   6.522   1.894 -0.4822  0.4916 -0.1600
 6711TIP3    H144328   0.777   6.452   1.914 -0.9295  0.5440 -1.3005
 6711TIP3    H244329   0.830   6.584   1.966  1.1093 -1.3606  1.7962
 6712TIP3   OH244330   6.633   4.341   1.843  0.5891 -0.1464 -0.2651
 6712TIP3    H144331   6.657   4.434   1.842  0.8823 -0.2121  0.4878
 6712TIP3    H244332   6.562   4.335   1.908  0.2363 -0.3725 -0.6652
 6713TIP3   OH244333   3.906   7.661   0.549 -0.6461  0.7647  0.5061
 6713TIP3    H144334   3.985   7.611   0.563 -0.9457 -0.2215 -1.1056
 6713TIP3    H244335   3.914   7.736   0.608  1.8342  1.1051 -0.1607
 6714TIP3   OH244336   1.131   7.314   1.629 -0.1219  0.3271 -0.3679
 6714TIP3    H144337   1.108   7.326   1.721  0.0088  0.6213 -0.3712
 6714TIP3    H244338   1.056   7.268   1.591 -0.3638  0.5837 -0.2076
 6715TIP3   OH244339   0.695   6.866   0.439  0.0610  0.2730 -0.0029
 6715TIP3    H144340   0.715   6.960   0.439 -0.4766  0.3907 -0.1518
 6715TIP3    H244341   0.780   6.823   0.442  0.3026  0.7739  3.0237
 6716TIP3   OH244342   5.465   3.155   1.465  0.1581  0.1553  0.1918
 6716TIP3    H144343   5.397   3.210   1.426 -1.2758 -1.9439 -0.4487
 6716TIP3    H244344   5.513   3.119   1.391  2.1661  1.7288  0.6369
 6717TIP3   OH244345   2.627   3.662   1.927  0.6406 -0.9276  0.6297
 6717TIP3    H144346   2.595   3.619   1.848 -0.1485  0.8679 -0.0866
 6717TIP3    H244347   2.654   3.749   1.898  0.4423 -0.2578  2.3036
 6718TIP3   OH244348   0.067   2.734   3.045 -0.0915 -0.4397  0.0798
 6718TIP3    H144349   0.062   2.819   3.089 -1.6376 -1.0409  1.1600
 6718TIP3    H244350   0.133   2.685   3.094 -1.2065 -0.8092  1.2914
 6719TIP3   OH244351   1.741   0.294   2.098 -0.3883 -0.7052 -0.3095
 6719TIP3    H144352   1.833   0.313   2.117  0.1172 -0.8392 -2.3414
 6719TIP3    H244353   1.745   0.224   2.032 -1.9225 -0.2566 -0.9077
 6720TIP3   OH244354   4.016   1.260   0.863  0.2723 -0.4089  0.0892
 6720TIP3    H144355   4.090   1.228   0.810  1.0793 -0.8740  1.4271
 6720TIP3    H244356   3.945   1.271   0.800  1.4116 -0.1411 -1.2197
 6721TIP3   OH244357   6.744   3.426   2.999  0.0479 -0.3247  0.0895
 6721TIP3    H144358   6.675   3.489   3.021 -0.3549 -0.8360  0.3015
 6721TIP3    H244359   6.749   3.429   2.903  1.7507  1.8470  0.1412
 6722TIP3   OH244360   4.615   2.265   2.229  0.5017 -0.1689 -0.1551
 6722TIP3    H144361   4.657   2.249   2.314 -1.0509 -2.7476  0.2385
 6722TIP3    H244362   4.632   2.357   2.211  1.8650  0.1826  2.3916
 6723TIP3   OH244363   4.810   7.180   1.779 -0.5918 -0.1615  0.8294
 6723TIP3    H144364   4.834   7.135   1.698 -0.2196 -0.7627  1.2705
 6723TIP3    H244365   4.818   7.273   1.757 -0.9330 -0.3056  0.0479
 6724TIP3   OH244366   6.621   5.839   2.813 -0.6444  0.3175  0.1342
 6724TIP3    H144367   6.556   5.782   2.852  0.8676 -1.2600  0.4887
 6724TIP3    H244368   6.575   5.885   2.742 -2.6585  0.9690  1.7712
 6725TIP3   OH244369   4.912   5.704   1.411  0.1239  0.2519  0.1701
 6725TIP3    H144370   4.844   5.668   1.467  0.3771  0.0241  0.3374
 6725TIP3    H244371   4.991   5.655   1.436  0.8236  1.9366  1.5007
 6726TIP3   OH244372   4.756   0.322   1.851  0.0824 -0.0731 -0.6328
 6726TIP3    H144373   4.694   0.268   1.901  0.3657  0.0343 -0.1549
 6726TIP3    H244374   4.833   0.328   1.907 -0.0405  1.0397 -0.5527
 6727TIP3   OH244375   0.936   6.269   3.277  0.0205  0.3614 -0.0997
 6727TIP3    H144376   1.013   6.317   3.307  1.6778 -1.2446 -1.5302
 6727TIP3    H244377   0.972   6.195   3.228 -2.4534 -0.6441 -0.5273
 6728TIP3   OH244378   6.833   0.334   3.388 -0.2317  0.6279 -0.1609
 6728TIP3    H144379   6.781   0.344   3.468 -0.4459 -0.4342 -0.1410
 6728TIP3    H244380   6.842   0.239   3.378 -0.7196  0.7182 -1.7178
 6729TIP3   OH244381   7.046   7.669   1.062  0.4148  0.2520 -0.2465
 6729TIP3    H144382   7.037   7.596   1.123  0.0733 -0.1522 -0.7734
 6729TIP3    H244383   6.960   7.679   1.023  0.9127 -0.2433 -1.5042
 6730TIP3   OH244384   6.360   0.718   1.090  0.5093 -0.6450  0.1163
 6730TIP3    H144385   6.322   0.752   1.009 -0.0719  0.3524  0.7838
 6730TIP3    H244386   6.285   0.708   1.149  0.9153 -1.4468  0.5172
 6731TIP3   OH244387   5.345   0.443   1.030 -0.4534  0.6991  0.3227
 6731TIP3    H144388   5.417   0.503   1.050  0.6634 -0.2872 -0.5591
 6731TIP3    H244389   5.282   0.496   0.981 -0.3266  1.5814  1.0978
 6732TIP3   OH244390   0.968   6.984   1.619  0.1651 -0.6147 -0.3679
 6732TIP3    H144391   0.988   7.038   1.542 -1.7311  0.0423 -0.4423
 6732TIP3    H244392   0.946   7.048   1.687  0.1354 -1.2514  0.2248
 6733TIP3   OH244393   0.381   5.976   2.884 -0.3071 -0.4278  0.1795
 6733TIP3    H144394   0.458   5.949   2.834  1.3763  0.2651  2.2408
 6733TIP3    H244395   0.335   5.894   2.903 -1.5701 -0.6670 -3.1320
 6734TIP3   OH244396   5.126   6.777   1.325 -0.5495 -0.3701 -0.2156
 6734TIP3    H144397   5.150   6.744   1.411 -1.9951  1.8178  1.1082
 6734TIP3    H244398   5.210   6.793   1.281  0.1976 -2.3923  0.3485
 6735TIP3   OH244399   0.257   4.699   2.448 -0.5104 -0.2646 -0.2721
 6735TIP3    H144400   0.340   4.651   2.442 -0.9277 -1.0787  0.2491
 6735TIP3    H244401   0.278   4.776   2.500 -0.3523 -1.1289  0.9883
 6736TIP3   OH244402   1.929   0.146   1.040  1.0135 -0.2657  0.2155
 6736TIP3    H144403   1.937   0.160   0.946 -0.7567 -1.5216 -0.1730
 6736TIP3    H244404   2.018   0.127   1.069  1.6641  0.5902 -1.1087
 6737TIP3   OH244405   1.341   3.150   2.227  0.1528  0.9483  0.5973
 6737TIP3    H144406   1.338   3.208   2.150 -0.7817 -0.1132 -0.1859
 6737TIP3    H244407   1.435   3.134   2.240  0.4797  2.8761  1.0625
 6738TIP3   OH244408   0.266   0.397   2.884  0.1159 -0.2773 -0.0213
 6738TIP3    H144409   0.262   0.330   2.816  1.3149 -0.0373 -0.3531
 6738TIP3    H244410   0.174   0.415   2.905 -0.3092 -0.0044 -1.9238
 6739TIP3   OH244411   3.734   6.505   0.896  0.0848 -0.1596 -0.1401
 6739TIP3    H144412   3.830   6.508   0.888  0.1451  0.5437  0.7276
 6739TIP3    H244413   3.707   6.596   0.895 -0.3443 -0.2109  2.0781
 6740TIP3   OH244414   3.144   6.577   2.227 -0.1386 -0.5655  0.2024
 6740TIP3    H144415   3.202   6.572   2.151  0.3865  0.0912  0.5537
 6740TIP3    H244416   3.094   6.657   2.214 -1.5368 -1.5148 -0.4797
 6741TIP3   OH244417   0.014   6.896   0.980 -0.1769  0.2144  0.2144
 6741TIP3    H144418   0.040   6.928   0.893 -1.2203  0.5605  0.0153
 6741TIP3    H244419  -0.080   6.915   0.985 -0.6094 -1.7990  0.5319
 6742TIP3   OH244420   1.480   3.703   2.839 -0.4079 -0.2559  0.3349
 6742TIP3    H144421   1.491   3.694   2.933 -1.0812  1.3934  0.5997
 6742TIP3    H244422   1.418   3.634   2.815 -0.4583 -0.4950  1.1358
 6743TIP3   OH244423   3.851   1.504   1.852 -0.3108  0.2325  0.2201
 6743TIP3    H144424   3.932   1.456   1.831 -0.4089 -0.0997  0.6004
 6743TIP3    H244425   3.786   1.467   1.792 -0.9495 -1.7520  2.0397
 6744TIP3   OH244426   0.947   2.198   2.618  0.2537 -0.5504  0.5107
 6744TIP3    H144427   0.960   2.130   2.684  1.0422 -1.2549 -0.3335
 6744TIP3    H244428   0.947   2.150   2.535 -0.3736  0.3567 -0.0313
 6745TIP3   OH244429   7.407   3.674   3.068  0.0636  0.1136  0.3483
 6745TIP3    H144430   7.471   3.670   3.139  0.6523  0.9412 -0.1195
 6745TIP3    H244431   7.427   3.598   3.013  0.7261  0.4238  0.1500
 6746TIP3   OH244432   7.016   6.550   0.471 -0.4269 -0.3112 -0.6553
 6746TIP3    H144433   7.005   6.620   0.407 -0.3953 -0.0790 -0.4100
 6746TIP3    H244434   7.058   6.480   0.422 -0.4286 -0.1473 -0.8972
 6747TIP3   OH244435   2.349   5.429   1.590 -0.2099  0.1020 -0.2587
 6747TIP3    H144436   2.330   5.516   1.555 -1.6898  0.1530  0.6248
 6747TIP3    H244437   2.444   5.421   1.581 -0.2347  1.1520 -1.8371
 6748TIP3   OH244438   6.083   3.137   2.462  0.4895  0.2505  0.7332
 6748TIP3    H144439   5.992   3.125   2.490  1.0550 -3.3619  1.6021
 6748TIP3    H244440   6.124   3.188   2.533 -0.7108  1.5308  0.5407
 6749TIP3   OH244441   4.122   4.870   2.194  0.8968  0.3262 -0.2279
 6749TIP3    H144442   4.063   4.809   2.239  0.5409  0.3940 -0.5937
 6749TIP3    H244443   4.199   4.875   2.250 -0.0943  1.4907  1.1090
 6750TIP3   OH244444   3.107   3.490   3.122  0.1510 -0.2686  0.5082
 6750TIP3    H144445   3.092   3.421   3.187  1.8906 -0.9430  0.2627
 6750TIP3    H244446   3.190   3.529   3.148 -0.5629  1.4281  0.3406
 6751TIP3   OH244447   1.704   1.742   2.576  0.5178 -0.5209  0.2447
 6751TIP3    H144448   1.736   1.824   2.539 -0.9855  0.6429  1.3925
 6751TIP3    H244449   1.668   1.767   2.661 -0.6537 -2.2469  0.2987
 6752TIP3   OH244450   7.548   5.563   1.924  0.1210 -0.0300 -0.3733
 6752TIP3    H144451   7.635   5.541   1.890  0.2045  0.0671 -0.2246
 6752TIP3    H244452   7.488   5.504   1.878 -0.0562  1.6254 -2.4473
 6753TIP3   OH244453   2.207   3.206   1.740  0.1509  0.1009 -0.2856
 6753TIP3    H144454   2.203   3.301   1.725 -1.3941  0.2927  1.0182
 6753TIP3    H244455   2.139   3.170   1.683  0.4463 -0.1796 -0.4633
 6754TIP3   OH244456   2.440   0.833   3.037  0.3534 -0.2005  0.4552
 6754TIP3    H144457   2.379   0.906   3.043 -2.3558 -2.2986  0.6758
 6754TIP3    H244458   2.516   0.868   2.991 -0.5543  2.8348  1.0401
 6755TIP3   OH244459   6.522   4.645   3.222 -0.2289 -0.1993  0.1956
 6755TIP3    H144460   6.577   4.611   3.293  0.2679 -0.1641 -0.1677
 6755TIP3    H244461   6.577   4.639   3.144 -1.3239 -1.7906 -0.5044
 6756TIP3   OH244462   5.350   4.271   0.650  0.0371  0.4144  0.1268
 6756TIP3    H144463   5.423   4.220   0.684 -0.5573  0.9055  2.3337
 6756TIP3    H244464   5.281   4.208   0.634 -0.1454  0.3221  1.2450
 6757TIP3   OH244465   5.112   3.911   2.323  0.0582  0.8119  0.7622
 6757TIP3    H144466   5.154   3.990   2.289 -0.9241  1.4790  1.0714
 6757TIP3    H244467   5.178   3.842   2.311  1.1679  1.7848  1.0645
 6758TIP3   OH244468   4.036   6.524   0.627 -0.6433  0.0143  0.3535
 6758TIP3    H144469   4.036   6.428   0.625 -0.1374  0.0179 -0.2506
 6758TIP3    H244470   3.954   6.549   0.585  0.4515 -0.1551 -2.0865
 6759TIP3   OH244471   1.634   5.197   2.465 -0.0590  0.2979 -0.0389
 6759TIP3    H144472   1.686   5.117   2.460 -0.6399 -0.0058 -2.3350
 6759TIP3    H244473   1.640   5.235   2.378  0.3034  2.8827  1.0276
 6760TIP3   OH244474   6.329   4.115   1.155  0.1620  0.5100  0.1510
 6760TIP3    H144475   6.376   4.161   1.224 -2.5678  3.0764  0.4991
 6760TIP3    H244476   6.276   4.183   1.112 -1.7467 -1.7992 -1.4293
 6761TIP3   OH244477   7.474   6.461   0.750  0.3262 -0.1167  0.6003
 6761TIP3    H144478   7.537   6.532   0.756 -0.7615  1.0925 -1.0623
 6761TIP3    H244479   7.390   6.505   0.737 -0.3638 -1.6918 -0.6359
 6762TIP3   OH244480   3.371   5.793   2.324 -0.1299 -0.2367 -0.2179
 6762TIP3    H144481   3.439   5.795   2.257  0.4240  1.1396  0.3588
 6762TIP3    H244482   3.296   5.835   2.282 -0.3944 -1.0195 -0.5686
 6763TIP3   OH244483   6.214   6.607   2.658 -0.2483  0.1142  0.1841
 6763TIP3    H144484   6.232   6.544   2.589  0.8433 -0.6256  1.1033
 6763TIP3    H244485   6.172   6.555   2.727  1.2942  0.1954  1.2378
 6764TIP3   OH244486   3.667   3.616   0.823  0.2482  0.9064  0.2435
 6764TIP3    H144487   3.625   3.548   0.770 -3.8193  2.5794  0.9118
 6764TIP3    H244488   3.696   3.682   0.759 -0.6538  0.9307 -0.1594
 6765TIP3   OH244489   0.817   3.208   0.615  0.4439  0.9213 -0.3129
 6765TIP3    H144490   0.874   3.151   0.563  0.6071 -0.1166  0.9598
 6765TIP3    H244491   0.742   3.153   0.638  0.7023  1.1173  1.1126
 6766TIP3   OH244492   7.609   6.789   1.262  0.2879 -0.2340 -0.1972
 6766TIP3    H144493   7.536   6.812   1.205 -0.3371  1.6390  1.2700
 6766TIP3    H244494   7.687   6.815   1.212 -0.3159  3.6131  0.5433
 6767TIP3   OH244495   3.555   3.586   1.548  0.2338  0.2945  0.2418
 6767TIP3    H144496   3.521   3.598   1.459 -1.6079  1.0866  0.9930
 6767TIP3    H244497   3.649   3.603   1.541  0.1885 -0.0127 -1.6017
 6768TIP3   OH244498   6.015   3.343   1.614  0.0418  0.5530 -0.4360
 6768TIP3    H144499   5.942   3.404   1.608 -0.9703 -0.4876  0.6558
 6768TIP3    H244500   6.088   3.388   1.572 -1.1612  1.7197 -1.3583
 6769TIP3   OH244501   6.066   6.821   0.861  0.0829 -0.2684 -0.0772
 6769TIP3    H144502   6.092   6.861   0.944  1.5641 -0.3837 -0.4445
 6769TIP3    H244503   6.099   6.732   0.867  1.4491  0.1099 -1.2942
 6770TIP3   OH244504   2.732   7.664   3.296 -0.3793 -0.2902 -0.2962
 6770TIP3    H144505   2.778   7.625   3.370  0.3894 -0.1500 -0.6918
 6770TIP3    H244506   2.794   7.659   3.224 -0.7305  0.5166 -0.6691
 6771TIP3   OH244507   0.277   6.662   1.194  0.4597 -0.1432  0.4258
 6771TIP3    H144508   0.357   6.708   1.219  1.3236  0.2891 -2.6733
 6771TIP3    H244509   0.278   6.663   1.098 -2.3150 -1.8206  0.2690
 6772TIP3   OH244510   2.802   1.442   2.665  0.3290  0.0292 -0.1731
 6772TIP3    H144511   2.729   1.485   2.621  0.2576 -1.6110 -1.7979
 6772TIP3    H244512   2.808   1.484   2.751 -1.3333  1.4394 -0.7134
 6773TIP3   OH244513   0.974   4.396   1.179  0.2815  0.6559  0.2137
 6773TIP3    H144514   0.933   4.396   1.266  1.9873 -0.2613  1.0666
 6773TIP3    H244515   0.910   4.353   1.122  0.3417 -1.5399  1.6811
 6774TIP3   OH244516   2.304   3.027   1.418 -0.3157  0.4179 -0.3951
 6774TIP3    H144517   2.378   3.082   1.443 -0.4220  0.3676  0.0353
 6774TIP3    H244518   2.319   2.944   1.464 -0.9764  0.6305  0.2190
 6775TIP3   OH244519   2.774   5.924   0.783 -0.3045  0.0954  0.4356
 6775TIP3    H144520   2.822   5.963   0.856  0.9012  1.3014 -0.9330
 6775TIP3    H244521   2.813   5.838   0.771 -1.2213 -0.5535  1.8310
 6776TIP3   OH244522   5.013   5.110   1.357 -0.0934 -0.1957 -0.0779
 6776TIP3    H144523   4.959   5.187   1.373  0.2309  0.5152 -2.0966
 6776TIP3    H244524   5.062   5.131   1.277 -0.7913 -2.9065 -1.3306
 6777TIP3   OH244525   3.084   3.022   0.785 -0.6724  0.4406 -0.1968
 6777TIP3    H144526   3.057   3.071   0.863  1.4640  0.3068  0.6976
 6777TIP3    H244527   3.107   2.935   0.818  0.1052  0.3307 -0.9730
 6778TIP3   OH244528   7.063   6.210   2.028  0.2627 -0.6053  0.3029
 6778TIP3    H144529   7.093   6.170   2.109  0.6372  0.4692  0.7172
 6778TIP3    H244530   7.140   6.210   1.971  0.1794 -0.7650  0.1909
 6779TIP3   OH244531   7.450   1.261   2.789  0.0564 -0.2055  0.3391
 6779TIP3    H144532   7.494   1.344   2.769  1.9855 -1.0458  0.9266
 6779TIP3    H244533   7.366   1.268   2.743  0.7944  1.4501 -0.8919
 6780TIP3   OH244534   5.518   5.265   2.069 -0.2335  0.0640  0.3028
 6780TIP3    H144535   5.613   5.259   2.082 -0.0888  2.2188  0.5189
 6780TIP3    H244536   5.505   5.236   1.978  0.8634  1.3296 -0.2961
 6781TIP3   OH244537   2.413   2.395   1.792 -0.2743 -0.3955 -0.3011
 6781TIP3    H144538   2.392   2.394   1.885 -0.3901 -0.9736 -0.3294
 6781TIP3    H244539   2.364   2.469   1.757 -0.0435 -0.0334  0.1383
 6782TIP3   OH244540   1.210   1.998   2.333  0.1712  0.5214 -0.3691
 6782TIP3    H144541   1.229   2.092   2.328  3.0486  0.0851  0.6810
 6782TIP3    H244542   1.286   1.960   2.377 -0.1499 -2.5570 -2.1859
 6783TIP3   OH244543   4.351   5.060   1.849 -0.0475 -0.4369  0.7114
 6783TIP3    H144544   4.351   4.972   1.887 -1.1657 -0.3758  0.8773
 6783TIP3    H244545   4.304   5.051   1.767 -1.2525  0.2195  1.2938
 6784TIP3   OH244546   2.402   4.362   0.932  0.0561 -0.7181  0.2259
 6784TIP3    H144547   2.361   4.297   0.876 -0.6842 -0.9066  0.9640
 6784TIP3    H244548   2.431   4.313   1.009 -0.8398 -0.1375  0.9578
 6785TIP3   OH244549   3.360   1.508   1.404  0.0969  0.1506  0.0588
 6785TIP3    H144550   3.286   1.449   1.418  0.3933 -0.6028 -1.3488
 6785TIP3    H244551   3.341   1.584   1.459 -0.4619 -1.0945  1.6593
 6786TIP3   OH244552   3.023   5.617   2.072  0.0102 -1.1503 -0.5987
 6786TIP3    H144553   3.077   5.538   2.074  0.9575 -0.5253  2.1693
 6786TIP3    H244554   3.083   5.687   2.095 -1.5897 -0.1833  0.8358
 6787TIP3   OH244555   7.536   2.602   2.136 -0.1802 -0.1262 -0.0357
 6787TIP3    H144556   7.517   2.623   2.227  0.2175 -1.9069  0.4838
 6787TIP3    H244557   7.541   2.506   2.133  0.8286 -0.0718 -1.7152
 6788TIP3   OH244558   4.757   2.264   1.718 -0.0395  0.2258 -0.1551
 6788TIP3    H144559   4.802   2.333   1.768 -0.1836  1.0364 -1.1068
 6788TIP3    H244560   4.664   2.286   1.727 -0.1045 -0.0460 -0.1752
 6789TIP3   OH244561   5.924   6.808   2.445 -0.2373  0.5118 -0.2764
 6789TIP3    H144562   5.918   6.863   2.367 -0.5317 -0.7304 -1.1589
 6789TIP3    H244563   5.833   6.797   2.473 -0.1085  1.2096  0.4375
 6790TIP3   OH244564   7.327   1.783   1.728  0.1306 -0.3465  0.1596
 6790TIP3    H144565   7.309   1.752   1.640  1.0250 -1.4577  0.3439
 6790TIP3    H244566   7.248   1.762   1.778  0.6103 -2.1405  0.2097
 6791TIP3   OH244567   7.113   5.181   2.692 -0.4341  0.1890 -0.1174
 6791TIP3    H144568   7.054   5.254   2.671 -1.4128  0.6941  3.5947
 6791TIP3    H244569   7.197   5.206   2.653 -1.3075  2.1666 -0.8984
 6792TIP3   OH244570   2.408   4.794   2.064  0.1898  0.7870 -0.1473
 6792TIP3    H144571   2.318   4.777   2.037  0.4473  0.2772 -0.7008
 6792TIP3    H244572   2.459   4.783   1.985  1.0868 -1.6014  0.6912
 6793TIP3   OH244573   4.903   0.469   1.264 -0.0019 -0.1151  0.0739
 6793TIP3    H144574   4.978   0.420   1.231 -0.9602 -0.9657 -0.9365
 6793TIP3    H244575   4.838   0.463   1.194 -1.2005  0.1632  1.1292
 6794TIP3   OH244576   1.226   4.629   3.037  0.0650 -0.4283  0.3001
 6794TIP3    H144577   1.148   4.681   3.013  2.6915  3.8654 -0.0313
 6794TIP3    H244578   1.227   4.557   2.974 -1.5563  1.6939 -2.3991
 6795TIP3   OH244579   4.890   3.952   2.722 -0.0294  0.1221 -0.3576
 6795TIP3    H144580   4.877   4.001   2.803  0.0700  0.5976 -0.6286
 6795TIP3    H244581   4.916   3.865   2.752  0.5744  0.4534  0.1241
 6796TIP3   OH244582   1.673   3.804   1.972 -0.4747 -0.0750  0.0841
 6796TIP3    H144583   1.716   3.865   2.031  0.1354  1.0177 -1.4113
 6796TIP3    H244584   1.743   3.747   1.940 -0.9546 -1.2629  1.0800
 6797TIP3   OH244585   2.911   7.146   0.721  0.1837  0.2567  0.1270
 6797TIP3    H144586   2.898   7.230   0.677 -0.4209  0.4029  0.5671
 6797TIP3    H244587   2.823   7.108   0.724 -0.4402  1.6266  3.9831
 6798TIP3   OH244588   1.005   6.160   1.273  0.0209  0.0158  0.0267
 6798TIP3    H144589   0.921   6.117   1.261 -0.4200  0.1231  2.3537
 6798TIP3    H244590   1.065   6.112   1.215 -1.2284 -1.3381 -0.1976
 6799TIP3   OH244591   5.910   5.564   1.997  0.4734 -0.4255  0.2080
 6799TIP3    H144592   5.815   5.565   2.005  0.4490 -0.5161 -0.0638
 6799TIP3    H244593   5.926   5.538   1.906  0.7499  0.5184 -0.0176
 6800TIP3   OH244594   1.142   2.255   3.289  0.0908  0.1330  0.4560
 6800TIP3    H144595   1.102   2.180   3.245  1.1729 -1.0871  1.4512
 6800TIP3    H244596   1.069   2.298   3.334 -0.6667  0.1396 -0.7446
 6801TIP3   OH244597   3.247   7.264   1.775  0.5092  0.7619  0.1925
 6801TIP3    H144598   3.195   7.275   1.855  0.4638  1.5524  0.0672
 6801TIP3    H244599   3.330   7.308   1.794  0.6402  0.6232 -0.0614
 6802TIP3   OH244600   0.969   2.800   3.294 -0.4764 -0.0820 -0.1973
 6802TIP3    H144601   1.062   2.818   3.305 -0.1036 -2.1030  0.5283
 6802TIP3    H244602   0.952   2.816   3.201  0.5386  0.4957 -0.2923
 6803TIP3   OH244603   4.337   4.654   0.760  0.7635 -0.2733  0.0890
 6803TIP3    H144604   4.284   4.732   0.777 -0.2385 -0.5131 -1.6396
 6803TIP3    H244605   4.376   4.669   0.674 -1.6712 -2.7215 -1.6468
 6804TIP3   OH244606   3.676   5.258   2.616  0.2306  0.3677  0.2771
 6804TIP3    H144607   3.722   5.217   2.542 -0.3675  0.5785 -0.2191
 6804TIP3    H244608   3.668   5.188   2.681  1.1125  0.2855  0.3189
 6805TIP3   OH244609   2.272   1.022   1.469 -0.1408  0.0354  0.2712
 6805TIP3    H144610   2.268   1.003   1.563 -0.7917  1.0711  0.4711
 6805TIP3    H244611   2.342   0.967   1.436  0.0674 -0.3713  1.3666
 6806TIP3   OH244612   1.653   0.067   2.709 -0.0719  0.0107  0.1975
 6806TIP3    H144613   1.623   0.136   2.769  1.8679  0.5567  0.6178
 6806TIP3    H244614   1.614   0.091   2.624 -1.1443  0.4118  0.7826
 6807TIP3   OH244615   6.740   5.935   1.118  0.0778 -0.5017 -0.4477
 6807TIP3    H144616   6.814   5.895   1.164 -0.2441 -0.2709  0.2915
 6807TIP3    H244617   6.767   6.025   1.102  0.1944 -0.5853 -0.7296
 6808TIP3   OH244618   0.591   7.540   3.116 -0.2206  0.4169  0.4280
 6808TIP3    H144619   0.640   7.458   3.125 -1.1462 -0.1413  0.5566
 6808TIP3    H244620   0.650   7.598   3.069  1.3483  0.4501  2.3020
 6809TIP3   OH244621   4.362   3.384   1.094  0.1605  0.3955  0.2046
 6809TIP3    H144622   4.299   3.422   1.155 -1.4278 -3.2637  1.1230
 6809TIP3    H244623   4.416   3.327   1.149  1.9965  0.7399 -1.1477
 6810TIP3   OH244624   7.202   5.047   1.989  0.5081  0.0356  0.4648
 6810TIP3    H144625   7.267   5.041   2.059  1.4172 -0.1212 -0.3756
 6810TIP3    H244626   7.197   5.140   1.968  1.0841 -0.0497 -0.0469
 6811TIP3   OH244627   5.456   4.891   0.705 -0.4568  0.0016 -0.6826
 6811TIP3    H144628   5.473   4.863   0.795 -1.5616 -0.6638 -0.6759
 6811TIP3    H244629   5.533   4.861   0.657  0.2743  0.5939  0.0698
 6812TIP3   OH244630   1.854   7.319   1.650  0.2367 -0.1146  0.0205
 6812TIP3    H144631   1.862   7.364   1.566  0.3589 -0.2131 -0.0209
 6812TIP3    H244632   1.892   7.233   1.634  2.0856  0.5327  0.7080
 6813TIP3   OH244633   4.058   4.100   1.615 -0.5455  0.3611  0.5637
 6813TIP3    H144634   4.020   4.013   1.607  1.4738 -0.3492 -2.6904
 6813TIP3    H244635   4.132   4.089   1.674  0.5376 -0.5065 -0.9059
 6814TIP3   OH244636   3.247   1.051   2.180 -0.3201 -0.2683 -0.0528
 6814TIP3    H144637   3.287   1.045   2.094  0.8538 -0.1161  0.4662
 6814TIP3    H244638   3.229   0.960   2.204  0.3351 -0.3888 -0.0105
 6815TIP3   OH244639   3.921   4.279   1.478 -0.4895 -0.1155 -0.1002
 6815TIP3    H144640   3.971   4.217   1.531 -0.7119 -0.4382 -0.2648
 6815TIP3    H244641   3.988   4.334   1.437 -0.2520 -0.6672 -0.4685
 6816TIP3   OH244642   4.423   6.324   1.359  0.6983  0.0456 -0.1484
 6816TIP3    H144643   4.365   6.335   1.284  0.1674  0.7450  0.3479
 6816TIP3    H244644   4.486   6.258   1.331  1.4982  1.4303 -1.7728
 6817TIP3   OH244645   1.113   2.644   2.759 -0.4226  0.5155  0.0464
 6817TIP3    H144646   1.164   2.655   2.839 -0.7314 -0.2624  0.3561
 6817TIP3    H244647   1.023   2.630   2.789 -0.2267 -1.8894 -0.3144
 6818TIP3   OH244648   6.827   6.349   1.852  0.0225 -0.5007  0.9525
 6818TIP3    H144649   6.817   6.352   1.947 -0.3658  0.0020  0.9034
 6818TIP3    H244650   6.880   6.426   1.830  2.6542 -2.1987  1.0231
 6819TIP3   OH244651   6.505   0.227   1.207  0.1218  0.1571  0.2120
 6819TIP3    H144652   6.551   0.311   1.207 -0.7242  0.6464 -1.1602
 6819TIP3    H244653   6.447   0.231   1.132 -0.1589 -1.5525  0.2909
 6820TIP3   OH244654   2.506   2.100   2.122 -0.2955 -0.0491 -0.0734
 6820TIP3    H144655   2.498   2.013   2.085 -0.6868  0.3024 -0.8440
 6820TIP3    H244656   2.434   2.150   2.082  1.7449  1.4868 -2.1058
 6821TIP3   OH244657   1.887   1.103   1.695 -0.0892 -0.6952  0.4870
 6821TIP3    H144658   1.844   1.018   1.684 -0.7016 -0.2777 -0.5898
 6821TIP3    H244659   1.817   1.167   1.677  1.0400  0.0074 -1.7631
 6822TIP3   OH244660   3.933   0.124   0.891  0.0865 -0.6115 -0.4683
 6822TIP3    H144661   3.874   0.064   0.938  2.0107 -3.3230 -1.2225
 6822TIP3    H244662   4.014   0.073   0.881  1.4548  1.7599 -2.2452
 6823TIP3   OH244663   3.249   7.618   2.859  0.0567  0.3238 -0.3976
 6823TIP3    H144664   3.180   7.556   2.880  1.0437 -2.1228 -3.5692
 6823TIP3    H244665   3.317   7.602   2.924 -0.1336 -1.2566 -0.5491
 6824TIP3   OH244666   0.570   0.494   8.955  0.4924  0.7516 -0.0108
 6824TIP3    H144667   0.601   0.571   8.908  0.0501 -0.1304 -1.8255
 6824TIP3    H244668   0.570   0.424   8.890 -2.0606 -0.0740  0.7605
 6825TIP3   OH244669   5.603   6.849   0.896  0.3213  0.2860 -0.5725
 6825TIP3    H144670   5.681   6.891   0.933  0.7765 -0.2790 -0.8690
 6825TIP3    H244671   5.554   6.920   0.855  0.3420  0.7518  0.2042
 6826TIP3   OH244672   2.579   5.772   0.954 -0.7531  0.2624  0.1373
 6826TIP3    H144673   2.625   5.853   0.978  0.8951 -0.9955  1.4832
 6826TIP3    H244674   2.612   5.750   0.867 -0.2795  0.4114  0.2741
 6827TIP3   OH244675   4.859   6.441   0.698 -0.0140 -0.2372  0.7215
 6827TIP3    H144676   4.840   6.427   0.791  1.3147  1.5083  1.3095
 6827TIP3    H244677   4.929   6.507   0.697 -1.5021  1.4629 -1.5611
 6828TIP3   OH244678   6.984   1.634   0.412  0.5302 -0.4877  0.2272
 6828TIP3    H144679   6.956   1.647   0.502  1.1430  0.0497  0.3514
 6828TIP3    H244680   6.923   1.569   0.376 -0.0218 -0.3297  0.8727
 6829TIP3   OH244681   6.669   5.119   2.597  0.0950  0.1530 -0.0890
 6829TIP3    H144682   6.627   5.204   2.608 -0.2048  0.4780 -2.9447
 6829TIP3    H244683   6.743   5.137   2.538 -0.7843 -1.7291 -1.8701
 6830TIP3   OH244684   2.152   3.899   0.776 -0.3370 -0.6755 -0.4659
 6830TIP3    H144685   2.196   3.916   0.693  0.4414  0.9135  0.2290
 6830TIP3    H244686   2.168   3.806   0.793 -1.5967 -1.3838 -2.6766
 6831TIP3   OH244687   2.468   0.650   1.651  0.0372  0.3838 -0.2815
 6831TIP3    H144688   2.472   0.567   1.699 -1.3277  0.3313 -0.2076
 6831TIP3    H244689   2.455   0.716   1.719  1.6900  0.7561 -0.2858
 6832TIP3   OH244690   3.359   4.414   1.509 -0.2918  0.4926  0.3879
 6832TIP3    H144691   3.318   4.386   1.591 -0.2602  1.0710  0.6064
 6832TIP3    H244692   3.299   4.385   1.441 -0.2054 -0.1994  0.6006
 6833TIP3   OH244693   1.874   0.447   2.350 -0.5961 -0.1699  0.1011
 6833TIP3    H144694   1.917   0.432   2.266  1.5061  0.7934  0.9320
 6833TIP3    H244695   1.895   0.370   2.402  0.3157  0.3769  0.5636
 6834TIP3   OH244696   6.378   5.725   0.427  0.2155  0.0005 -0.1233
 6834TIP3    H144697   6.391   5.710   0.333  1.7577 -2.9367  0.4155
 6834TIP3    H244698   6.285   5.709   0.441 -0.1472  1.0166 -1.1886
 6835TIP3   OH244699   6.887   2.962   2.586  0.2061  0.1838  0.2924
 6835TIP3    H144700   6.915   3.029   2.523  1.5639 -0.6917 -0.0719
 6835TIP3    H244701   6.962   2.951   2.644 -0.2430 -0.5610  0.7391
 6836TIP3   OH244702   1.581   2.675   1.069 -0.5493  0.1663  0.0450
 6836TIP3    H144703   1.550   2.654   1.157 -3.7481  3.5581 -0.0348
 6836TIP3    H244704   1.637   2.751   1.081  2.1004 -1.5397 -0.6307
 6837TIP3   OH244705   1.704   1.005   1.906  0.3904 -0.1813 -0.7261
 6837TIP3    H144706   1.649   1.082   1.911  1.2015  0.3745  3.7823
 6837TIP3    H244707   1.650   0.934   1.939  1.2566 -0.3682  0.3437
 6838TIP3   OH244708   5.547   6.940   2.728  0.0952 -0.4029 -0.3057
 6838TIP3    H144709   5.480   6.901   2.785  0.4079 -1.6749 -0.7681
 6838TIP3    H244710   5.568   6.871   2.665  2.7254 -0.5143  0.5593
 6839TIP3   OH244711   5.825   2.539   1.306 -0.1027 -0.1102 -0.5331
 6839TIP3    H144712   5.784   2.496   1.231 -1.5713  0.4276 -0.0676
 6839TIP3    H244713   5.796   2.488   1.382 -0.6130  0.7665 -0.1216
 6840TIP3   OH244714   3.314   5.109   3.102 -0.0223 -0.3290  0.4994
 6840TIP3    H144715   3.376   5.181   3.111 -1.4322  1.2346 -1.2589
 6840TIP3    H244716   3.330   5.074   3.014 -2.6178  1.2739 -0.7579
 6841TIP3   OH244717   5.939   2.955   2.148 -0.0395 -0.0467 -0.0789
 6841TIP3    H144718   5.988   2.937   2.067  1.9417  0.1048  1.0329
 6841TIP3    H244719   5.994   2.918   2.217  0.2007  3.1065  1.5523
 6842TIP3   OH244720   5.639   5.651   2.019 -0.1055  0.2178  1.0089
 6842TIP3    H144721   5.646   5.718   1.951 -1.8421 -0.6385 -0.0846
 6842TIP3    H244722   5.604   5.698   2.095 -0.6198  0.6990  0.4846
 6843TIP3   OH244723   2.972   0.588   1.966 -0.4347 -0.1741  0.1181
 6843TIP3    H144724   2.888   0.634   1.968 -0.2955  0.0748  0.8795
 6843TIP3    H244725   3.036   0.656   1.943 -0.3124 -0.1082  0.6198
 6844TIP3   OH244726   5.915   0.406   1.794 -0.0392 -0.3091  0.0071
 6844TIP3    H144727   5.941   0.324   1.836 -1.4351 -1.2764 -0.9434
 6844TIP3    H244728   5.822   0.413   1.811  0.0220  0.9736 -0.1316
 6845TIP3   OH244729   0.685   7.402   1.899  0.1398 -0.1159  0.6077
 6845TIP3    H144730   0.666   7.359   1.816  1.0535 -0.5859  0.6325
 6845TIP3    H244731   0.610   7.382   1.954 -0.6738  0.5457 -0.2224
 6846TIP3   OH244732   5.113   5.837   3.251  0.1282  0.1922 -0.1340
 6846TIP3    H144733   5.117   5.847   3.156  0.1215 -0.4028 -0.2031
 6846TIP3    H244734   5.177   5.899   3.285 -1.2217  1.8056 -0.4193
 6847TIP3   OH244735   3.499   1.266   2.431 -0.5039 -0.2808  0.2567
 6847TIP3    H144736   3.594   1.271   2.438 -0.4561 -0.0525 -0.4841
 6847TIP3    H244737   3.466   1.314   2.507 -0.0225  1.3814 -0.5507
 6848TIP3   OH244738   0.182   5.115   0.540 -0.0534  0.0543  0.6191
 6848TIP3    H144739   0.238   5.184   0.575 -1.5314  0.9573  1.3190
 6848TIP3    H244740   0.204   5.038   0.593 -0.7195  0.8584  2.1211
 6849TIP3   OH244741   2.421   0.800   1.970  0.1584  0.2386 -0.0884
 6849TIP3    H144742   2.418   0.796   2.066  2.3052  0.0848  0.0380
 6849TIP3    H244743   2.438   0.892   1.951  1.5612 -0.0040 -0.1704
 6850TIP3   OH244744   3.517   6.033   1.522 -0.6299 -0.3887 -0.1523
 6850TIP3    H144745   3.504   6.005   1.431 -0.0570  0.8476 -0.6301
 6850TIP3    H244746   3.592   6.092   1.519 -1.6457  1.0237  0.8342
 6851TIP3   OH244747   0.107   1.230   2.045 -0.2631  0.3721 -0.2498
 6851TIP3    H144748   0.024   1.200   2.007 -0.6699  1.3577 -0.1672
 6851TIP3    H244749   0.082   1.268   2.129  0.3120  0.4457 -0.1095
 6852TIP3   OH244750   6.894   7.299   1.510 -0.1584 -0.3643  0.2936
 6852TIP3    H144751   6.860   7.367   1.568  0.5196  1.1241 -0.9503
 6852TIP3    H244752   6.827   7.288   1.443 -0.4932 -1.3244  0.7745
 6853TIP3   OH244753   0.142   6.502   0.426  0.1550  0.1117 -0.0961
 6853TIP3    H144754   0.071   6.439   0.410 -0.0313  0.3941 -0.3923
 6853TIP3    H244755   0.102   6.587   0.409 -0.1453  0.4717  2.0824
 6854TIP3   OH244756   0.600   7.149   2.258  0.1938  0.5849  0.5929
 6854TIP3    H144757   0.592   7.160   2.352 -1.5034  1.7598  0.3676
 6854TIP3    H244758   0.647   7.227   2.228  1.5178 -0.2098  0.5324
 6855TIP3   OH244759   2.106   2.978   0.398 -0.4195  0.5510  0.1631
 6855TIP3    H144760   2.117   3.045   0.330 -0.8702 -0.1823 -0.6465
 6855TIP3    H244761   2.099   2.896   0.350 -0.1361 -0.0579  1.1330
 6856TIP3   OH244762   7.066   6.848   0.685  0.3967 -0.0246  0.4701
 6856TIP3    H144763   7.082   6.889   0.600  1.9075 -1.3500  0.0507
 6856TIP3    H244764   7.084   6.916   0.749  4.3729 -0.2236 -0.1267
 6857TIP3   OH244765   4.948   1.705   3.326 -0.1599  0.6795 -0.4021
 6857TIP3    H144766   5.003   1.768   3.373 -1.7235  1.3099  0.6496
 6857TIP3    H244767   4.924   1.750   3.245  1.0462  0.2941 -1.0002
 6858TIP3   OH244768   4.379   3.698   0.831  0.8117  0.4014 -0.2564
 6858TIP3    H144769   4.448   3.699   0.898  1.5639 -1.1726 -0.9521
 6858TIP3    H244770   4.322   3.626   0.857  1.8627 -1.1450 -1.9647
 6859TIP3   OH244771   6.825   2.466   0.993  0.2648  0.2175 -0.0525
 6859TIP3    H144772   6.799   2.423   0.912 -1.3896 -1.4124  1.2475
 6859TIP3    H244773   6.920   2.472   0.987  0.2426 -0.4732 -1.8051
 6860TIP3   OH244774   6.475   0.420   1.532 -0.2181  0.1408  0.5512
 6860TIP3    H144775   6.459   0.489   1.467 -3.1373 -1.0077 -0.1025
 6860TIP3    H244776   6.401   0.427   1.593  0.5323 -1.1171  1.6518
 6861TIP3   OH244777   4.619   7.635   1.956 -0.1215 -0.1402  0.2540
 6861TIP3    H144778   4.575   7.670   1.878 -1.4641  1.3809  1.6161
 6861TIP3    H244779   4.563   7.562   1.984  0.4299 -0.7688 -0.2442
 6862TIP3   OH244780   0.492   1.192   3.434  0.1085 -0.0593 -0.7721
 6862TIP3    H144781   0.558   1.126   3.410  0.4203 -0.7181  1.6673
 6862TIP3    H244782   0.409   1.148   3.418  0.3149 -0.8685  0.2784
 6863TIP3   OH244783   6.349   4.408   2.525 -0.5056 -0.3909  0.3497
 6863TIP3    H144784   6.312   4.388   2.611 -2.5879 -1.1642 -0.6666
 6863TIP3    H244785   6.436   4.367   2.526 -0.0103  0.5904  2.4506
 6864TIP3   OH244786   0.169   5.642   1.369 -0.1843  0.2930  0.3512
 6864TIP3    H144787   0.174   5.624   1.275  2.5112  2.8960 -0.1580
 6864TIP3    H244788   0.077   5.665   1.383 -0.4331  1.0700 -1.9651
 6865TIP3   OH244789   1.975   0.847   0.841 -0.1152  0.5939  0.1883
 6865TIP3    H144790   2.069   0.848   0.822 -0.4262  0.0337 -1.5821
 6865TIP3    H244791   1.942   0.929   0.804 -0.3856  0.6299  0.5021
 6866TIP3   OH244792   4.868   7.474   1.716  0.5682 -0.1782 -0.1224
 6866TIP3    H144793   4.948   7.523   1.735 -0.3620  0.4116  3.0143
 6866TIP3    H244794   4.802   7.513   1.775 -1.3629 -2.3192 -0.7063
 6867TIP3   OH244795   0.382   3.876   2.886 -0.3891 -0.0451  0.2148
 6867TIP3    H144796   0.351   3.786   2.875 -0.9181  0.0776  0.6265
 6867TIP3    H244797   0.332   3.909   2.961 -3.8321  2.1587 -2.7332
 6868TIP3   OH244798   3.266   4.184   2.659 -0.3033  0.4233  0.0797
 6868TIP3    H144799   3.210   4.258   2.681 -3.4530 -2.0423  1.0338
 6868TIP3    H244800   3.214   4.132   2.598  1.5565 -1.3545 -0.0880
 6869TIP3   OH244801   7.226   1.304   2.131  0.1843  0.0172 -0.6226
 6869TIP3    H144802   7.319   1.315   2.113  0.2867  0.1083 -0.0446
 6869TIP3    H244803   7.210   1.210   2.117  0.5540 -0.1661  0.1479
 6870TIP3   OH244804   6.791   1.133   1.567  0.5851 -0.1055 -0.4826
 6870TIP3    H144805   6.720   1.154   1.627  1.5092  1.6491  0.0852
 6870TIP3    H244806   6.829   1.052   1.601 -1.4911 -1.4672 -1.1917
 6871TIP3   OH244807   0.163   5.429   1.746 -0.0944  0.5028 -0.0946
 6871TIP3    H144808   0.068   5.423   1.740 -0.3069  2.6127  0.3938
 6871TIP3    H244809   0.186   5.504   1.691  1.3730 -0.3683 -0.7334
 6872TIP3   OH244810   6.135   3.727   1.631 -0.1680 -0.2820 -0.5886
 6872TIP3    H144811   6.073   3.719   1.558  0.1755 -1.3711 -0.7775
 6872TIP3    H244812   6.193   3.652   1.621 -0.9931 -1.2805  1.6436
 6873TIP3   OH244813   3.503   0.046   3.292 -0.5338 -0.4863  0.1103
 6873TIP3    H144814   3.491  -0.015   3.365 -0.9094 -0.8852 -0.2770
 6873TIP3    H244815   3.555  -0.003   3.228  0.7088  0.2324  0.5485
 6874TIP3   OH244816   7.071   7.304   2.395 -0.3171 -0.5051  0.3578
 6874TIP3    H144817   7.141   7.240   2.410  2.6821  2.6662  1.4379
 6874TIP3    H244818   7.103   7.357   2.322 -1.8741  0.7156  0.5107
 6875TIP3   OH244819   6.728   4.424   2.571 -0.4126 -0.0904  0.2547
 6875TIP3    H144820   6.713   4.511   2.609 -0.8823 -0.5685  1.2047
 6875TIP3    H244821   6.818   4.402   2.596 -0.8616 -0.5838  1.5060
 6876TIP3   OH244822   4.315   2.778   2.539  0.0856  0.1244 -0.0145
 6876TIP3    H144823   4.410   2.794   2.547  0.0949 -0.6811  2.3088
 6876TIP3    H244824   4.298   2.779   2.445  2.4671 -0.0722 -0.5065
 6877TIP3   OH244825   6.851   7.114   0.549 -0.0235 -0.0547 -0.2252
 6877TIP3    H144826   6.790   7.056   0.503 -1.2879 -0.1598  1.4804
 6877TIP3    H244827   6.827   7.106   0.641  2.2457  0.3398  0.4640
 6878TIP3   OH244828   5.216   2.591   1.264  0.6037 -0.5061  0.5302
 6878TIP3    H144829   5.211   2.657   1.196  2.8796  0.6636  1.4057
 6878TIP3    H244830   5.184   2.635   1.343 -2.5180 -1.9976  0.2791
 6879TIP3   OH244831   0.417   1.997   2.026  0.3088 -0.3340  0.6976
 6879TIP3    H144832   0.509   2.022   2.017  0.3176 -0.7784 -0.6311
 6879TIP3    H244833   0.373   2.078   2.054  1.0308 -0.0211  0.9630
 6880TIP3   OH244834   1.963   6.230   2.255 -0.2494 -0.2708  0.0019
 6880TIP3    H144835   1.918   6.312   2.232 -1.0946 -0.3935  1.1627
 6880TIP3    H244836   2.018   6.253   2.330  1.9083 -0.0635 -1.5274
 6881TIP3   OH244837   5.061   6.905   0.966 -0.1495 -0.5377 -0.2969
 6881TIP3    H144838   5.080   6.936   1.055 -1.4638  0.9574 -0.4874
 6881TIP3    H244839   4.981   6.952   0.941  0.6854 -0.2139 -2.6297
 6882TIP3   OH244840   2.500   6.046   0.777 -0.1472  0.6128 -0.2785
 6882TIP3    H144841   2.577   5.989   0.764 -0.7266 -0.3453  0.3528
 6882TIP3    H244842   2.486   6.045   0.871 -1.7159 -0.2960 -0.4932
 6883TIP3   OH244843   3.950   4.621   0.810 -0.3163  0.2262 -0.0302
 6883TIP3    H144844   4.017   4.570   0.854  0.3566 -0.3738 -1.6662
 6883TIP3    H244845   3.913   4.561   0.745 -0.7549  1.2716 -0.7705
 6884TIP3   OH244846   0.463   3.088   1.597  0.5446 -0.5324  0.5107
 6884TIP3    H144847   0.441   3.070   1.506  1.0379 -2.9388  0.8127
 6884TIP3    H244848   0.433   3.178   1.612 -3.1604 -1.3924 -0.8921
 6885TIP3   OH244849   3.825   4.166   2.255  0.0027  0.6716 -0.3889
 6885TIP3    H144850   3.774   4.229   2.204  1.1351  0.8360 -1.3818
 6885TIP3    H244851   3.808   4.081   2.214 -1.2491  0.3446  0.7304
 6886TIP3   OH244852   4.192   0.293   0.820 -0.2808 -0.0292 -0.6886
 6886TIP3    H144853   4.256   0.363   0.828  0.4696 -0.7763  0.1791
 6886TIP3    H244854   4.107   0.335   0.836  0.3659  0.2128  3.0408
 6887TIP3   OH244855   0.765   7.252   1.190 -0.1460  0.0212  0.1729
 6887TIP3    H144856   0.834   7.197   1.156  0.3455  1.5306 -1.4176
 6887TIP3    H244857   0.684   7.207   1.167  0.2489 -0.2617 -0.6770
 6888TIP3   OH244858   0.807   1.034   1.957 -0.0208 -0.2463  0.0074
 6888TIP3    H144859   0.861   0.963   1.923  0.7533 -0.1638  1.0206
 6888TIP3    H244860   0.736   0.989   2.004 -1.6124 -0.3877 -2.3139
 6889TIP3   OH244861   4.794   7.671   1.033  0.3188 -0.2838 -0.1135
 6889TIP3    H144862   4.883   7.650   1.063  0.7572  0.3816 -0.9134
 6889TIP3    H244863   4.774   7.603   0.969 -0.4666 -1.4791  1.3470
 6890TIP3   OH244864   6.667   1.766   2.092 -0.3647 -0.0783 -0.7566
 6890TIP3    H144865   6.660   1.862   2.088  0.1718 -0.0537 -1.3548
 6890TIP3    H244866   6.695   1.741   2.004  0.8169 -0.6630 -0.2438
 6891TIP3   OH244867   6.813   7.221   1.184 -0.0321  0.0954  0.1736
 6891TIP3    H144868   6.769   7.271   1.115 -0.3967 -0.2727  0.1334
 6891TIP3    H244869   6.757   7.232   1.261 -0.9574 -1.4940 -0.2297
 6892TIP3   OH244870   5.148   0.154   0.941  0.0249  0.4047 -0.3903
 6892TIP3    H144871   5.209   0.084   0.966  0.9461  1.6970  1.1335
 6892TIP3    H244872   5.139   0.144   0.846  0.0323 -1.8371 -0.2193
 6893TIP3   OH244873   5.938   3.102   1.461 -0.1148 -0.1588  0.4990
 6893TIP3    H144874   5.870   3.041   1.490  0.6910 -1.2527  0.1829
 6893TIP3    H244875   5.944   3.166   1.531  0.0544 -1.3179  1.5854
 6894TIP3   OH244876   5.600   3.655   0.696  0.7224  0.1310  0.3536
 6894TIP3    H144877   5.648   3.596   0.754 -0.9337 -0.2825  1.3948
 6894TIP3    H244878   5.557   3.717   0.756 -1.5329 -0.6795 -0.3323
 6895TIP3   OH244879   0.719   0.160   3.052  0.1786  0.0575 -0.1981
 6895TIP3    H144880   0.788   0.123   3.107 -0.6363 -0.5740  0.4235
 6895TIP3    H244881   0.715   0.253   3.076 -1.1938 -0.4979  1.9664
 6896TIP3   OH244882   1.714   3.430   1.577  0.0648 -0.6271 -0.2272
 6896TIP3    H144883   1.692   3.523   1.576  2.0087 -0.1159  0.1382
 6896TIP3    H244884   1.756   3.414   1.493 -0.3920 -1.2245 -0.3518
 6897TIP3   OH244885   4.474   5.386   2.395 -0.0620 -0.2314  0.2637
 6897TIP3    H144886   4.435   5.454   2.452  0.2537 -0.3620  0.6411
 6897TIP3    H244887   4.404   5.364   2.334 -1.4508 -2.1287  2.3529
 6898TIP3   OH244888   6.456   4.808   2.274  0.0201  0.3886 -1.0023
 6898TIP3    H144889   6.468   4.837   2.364  0.4609  0.2672 -1.0199
 6898TIP3    H244890   6.542   4.777   2.247  0.1063  1.2223 -1.7470
 6899TIP3   OH244891   0.917   1.763   0.453 -0.2767 -0.4443  0.8553
 6899TIP3    H144892   0.843   1.823   0.458  0.8845  1.0001  1.2714
 6899TIP3    H244893   0.889   1.696   0.390 -1.7794  0.2507  0.7435
 6900TIP3   OH244894   7.304   4.747   1.281  0.2946  0.7354 -0.3304
 6900TIP3    H144895   7.396   4.732   1.301  0.3540  0.0958 -1.0345
 6900TIP3    H244896   7.275   4.810   1.347  1.2973  1.1478 -0.2612
 6901TIP3   OH244897   1.170   7.025   2.694  0.1061  0.7626  0.2436
 6901TIP3    H144898   1.192   6.955   2.755  1.4236  1.4366  0.5763
 6901TIP3    H244899   1.095   7.070   2.735 -0.7454 -0.4039  0.0293
 6902TIP3   OH244900   3.388   4.992   1.942 -0.2028 -0.1557  0.7472
 6902TIP3    H144901   3.337   4.950   2.010 -2.0757 -0.7231 -0.9084
 6902TIP3    H244902   3.393   4.927   1.872  3.1913 -0.2832  0.9269
 6903TIP3   OH244903   4.617   5.546   0.474 -0.2487  0.1066 -0.0152
 6903TIP3    H144904   4.574   5.463   0.454 -0.4761  0.4636 -1.0506
 6903TIP3    H244905   4.615   5.552   0.570 -0.2707 -1.0509  0.0648
 6904TIP3   OH244906   2.385   7.067   0.627  0.8661  0.7016 -0.3749
 6904TIP3    H144907   2.339   7.053   0.710 -0.4017 -1.2330 -1.3377
 6904TIP3    H244908   2.361   7.156   0.601  0.1288  0.8125  0.6223
 6905TIP3   OH244909   6.870   4.906   1.222 -0.5107 -0.0054  0.1765
 6905TIP3    H144910   6.952   4.891   1.174  0.1570 -0.0870  1.2973
 6905TIP3    H244911   6.810   4.839   1.189  0.1347 -0.4667 -0.0806
 6906TIP3   OH244912   6.989   5.164   1.284 -0.0512  0.3646  0.1286
 6906TIP3    H144913   6.931   5.150   1.209 -1.1075 -0.1270  1.0085
 6906TIP3    H244914   7.076   5.141   1.252 -0.5398 -0.1780 -0.8409
 6907TIP3   OH244915   2.833   1.777   2.057 -0.0263 -0.0547  0.2490
 6907TIP3    H144916   2.841   1.872   2.061  1.1671 -0.1384  0.1709
 6907TIP3    H244917   2.749   1.759   2.100 -0.1657  1.0139  0.4650
 6908TIP3   OH244918   7.430   0.394   0.628  0.1261  0.5519 -0.3254
 6908TIP3    H144919   7.442   0.478   0.672 -0.9494  2.2163 -2.9555
 6908TIP3    H244920   7.502   0.389   0.566 -0.6155  0.2827 -1.1913
 6909TIP3   OH244921   2.538   3.096   1.554  0.2377 -0.0960  0.1567
 6909TIP3    H144922   2.587   3.059   1.480 -0.2373  0.2719 -0.3491
 6909TIP3    H244923   2.541   3.028   1.621 -1.0765 -1.2983 -0.9500
 6910TIP3   OH244924   4.462   6.254   1.955  0.2808 -0.2589  0.0518
 6910TIP3    H144925   4.467   6.285   1.865  1.5149  0.4618  0.3325
 6910TIP3    H244926   4.554   6.253   1.985 -0.2151  0.9500  1.7516
 6911TIP3   OH244927   5.589   6.315   1.148  0.4418  0.2552  0.5441
 6911TIP3    H144928   5.671   6.300   1.197 -0.4869 -0.1538  2.0308
 6911TIP3    H244929   5.592   6.408   1.125  0.2508  0.8523  2.7141
 6912TIP3   OH244930   2.781   4.031   3.051  0.1938 -0.6198  0.0263
 6912TIP3    H144931   2.703   4.087   3.042  1.0946  0.5303 -0.9714
 6912TIP3    H244932   2.814   4.050   3.139  1.0906  1.3029 -0.6700
 6913TIP3   OH244933   4.696   3.686   2.778 -0.2754 -0.0748  0.3409
 6913TIP3    H144934   4.723   3.606   2.733 -0.1131  1.0390 -1.6908
 6913TIP3    H244935   4.761   3.751   2.753 -0.6920  0.8365  1.5165
 6914TIP3   OH244936   6.561   2.537   0.501 -0.2416 -0.5516 -0.4866
 6914TIP3    H144937   6.531   2.551   0.591  1.4216 -0.2449  0.0448
 6914TIP3    H244938   6.503   2.468   0.467  0.2845 -2.0260  1.4326
 6915TIP3   OH244939   2.441   1.620   1.861 -0.4739 -0.3193 -0.7576
 6915TIP3    H144940   2.437   1.571   1.779  1.3399 -2.3496  0.2594
 6915TIP3    H244941   2.363   1.592   1.909 -1.4914  0.8042 -1.7011
 6916TIP3   OH244942   3.535   6.337   0.791 -0.1634 -0.0743  0.1131
 6916TIP3    H144943   3.606   6.390   0.826 -0.2347  0.3591 -0.3886
 6916TIP3    H244944   3.456   6.388   0.808 -0.6596 -1.5207  2.6645
 6917TIP3   OH244945   7.378   0.881   2.194  0.3957 -0.1933  0.2581
 6917TIP3    H144946   7.304   0.902   2.136  1.6165 -0.1422 -1.3776
 6917TIP3    H244947   7.356   0.796   2.232  0.1068 -0.8589 -1.3139
 6918TIP3   OH244948   3.805   6.139   1.107  0.4392 -0.1332  0.0062
 6918TIP3    H144949   3.838   6.097   1.027  0.8250  0.6514 -0.2576
 6918TIP3    H244950   3.874   6.200   1.132 -0.9851  1.9519 -0.8724
 6919TIP3   OH244951   5.876   3.102   1.751  0.2814 -0.1438 -0.4816
 6919TIP3    H144952   5.854   3.029   1.692  0.1764 -1.8958  1.6121
 6919TIP3    H244953   5.795   3.152   1.758 -0.9598 -2.2135  1.1991
 6920TIP3   OH244954   6.717   0.495   2.275 -0.4096  0.2952  0.4282
 6920TIP3    H144955   6.703   0.509   2.182 -1.5401  0.4556  0.6033
 6920TIP3    H244956   6.809   0.518   2.290  0.5278 -2.1536 -1.0784
 6921TIP3   OH244957   3.930   1.586   1.450 -0.0658 -0.5432 -0.4210
 6921TIP3    H144958   3.998   1.540   1.500  0.9668  0.1810 -1.1196
 6921TIP3    H244959   3.849   1.539   1.471  0.9235 -2.6639 -1.0723
 6922TIP3   OH244960   7.596   3.815   1.061  0.1401  0.2909 -0.2505
 6922TIP3    H144961   7.538   3.885   1.090  0.8560  0.6419  0.3576
 6922TIP3    H244962   7.618   3.839   0.971 -0.7109  0.1125 -0.5145
 6923TIP3   OH244963   6.451   1.277   2.251 -0.3606  0.2787 -0.2043
 6923TIP3    H144964   6.465   1.315   2.338  1.4398  0.9630 -0.7610
 6923TIP3    H244965   6.409   1.193   2.269  0.5614  0.1110  1.3950
 6924TIP3   OH244966   5.715   1.475   2.609  0.8627  0.2908  0.4827
 6924TIP3    H144967   5.657   1.484   2.534 -1.1351 -2.5617  1.5041
 6924TIP3    H244968   5.800   1.454   2.572  0.0959 -0.2928 -1.0206
 6925TIP3   OH244969   4.614   6.738   1.215  0.0737 -0.2352 -0.2606
 6925TIP3    H144970   4.606   6.686   1.295 -0.1753  0.1782 -0.0120
 6925TIP3    H244971   4.689   6.701   1.169  0.7277  0.0518  0.5625
 6926TIP3   OH244972   0.423   6.705   1.524  0.1405  0.2542 -0.3967
 6926TIP3    H144973   0.329   6.706   1.504  0.1344 -1.8032 -0.6870
 6926TIP3    H244974   0.465   6.725   1.441 -0.0350 -0.9639 -0.8073
 6927TIP3   OH244975   1.136   3.095   3.207 -0.5485 -0.6393  0.4275
 6927TIP3    H144976   1.152   3.001   3.201  0.8430 -0.3624 -0.6963
 6927TIP3    H244977   1.040   3.103   3.209 -0.9642 -1.9141 -4.0979
 6928TIP3   OH244978   3.361   3.713   2.881  0.3198 -0.3104 -0.0658
 6928TIP3    H144979   3.403   3.711   2.795 -1.7853 -0.1193 -1.1742
 6928TIP3    H244980   3.320   3.627   2.889  0.0468 -0.1334  0.5123
 6929TIP3   OH244981   6.912   4.184   2.392 -0.1394  0.3624  0.0564
 6929TIP3    H144982   6.911   4.231   2.476 -0.3367  0.2238  0.1317
 6929TIP3    H244983   7.003   4.191   2.363 -0.5968  2.7922 -1.0723
 6930TIP3   OH244984   1.780   4.292   1.646  0.4361  0.2411 -0.2190
 6930TIP3    H144985   1.805   4.263   1.559 -0.7313  0.7572 -0.7608
 6930TIP3    H244986   1.722   4.222   1.679  1.8311 -0.5475  0.6765
 6931TIP3   OH244987   2.120   6.560   1.637  0.3038 -0.0044 -0.6175
 6931TIP3    H144988   2.191   6.572   1.700  1.8660 -0.3480 -2.2123
 6931TIP3    H244989   2.131   6.632   1.575 -3.9729  3.1507  1.7647
 6932TIP3   OH244990   4.247   1.817   1.959 -0.0660 -0.5050 -0.0882
 6932TIP3    H144991   4.176   1.864   1.916  0.2547 -1.2339 -1.4510
 6932TIP3    H244992   4.234   1.835   2.052 -2.8826 -1.7655 -0.1389
 6933TIP3   OH244993   7.211   3.458   2.314  0.1981  0.4753 -1.1881
 6933TIP3    H144994   7.119   3.442   2.293  0.6239 -0.9551 -2.1404
 6933TIP3    H244995   7.244   3.509   2.240  0.3982  0.0959 -1.3680
 6934TIP3   OH244996   4.616   2.342   0.535  0.0222 -0.3649 -0.0918
 6934TIP3    H144997   4.581   2.427   0.564 -0.6991 -0.5281 -0.4751
 6934TIP3    H244998   4.540   2.294   0.503  0.3998 -1.2255  0.2626
 6935TIP3   OH244999   5.444   5.057   1.532  0.1020 -0.0254  0.3797
 6935TIP3    H145000   5.382   4.989   1.555  0.1949  0.1038  1.0379
 6935TIP3    H245001   5.428   5.075   1.439 -0.8166 -0.0097  0.5406
 6936TIP3   OH245002   1.206   4.830   2.496  0.5644  0.7769  0.0231
 6936TIP3    H145003   1.118   4.823   2.533  0.7218  0.5787  0.3596
 6936TIP3    H245004   1.192   4.828   2.401  0.3479 -1.2354  0.0493
 6937TIP3   OH245005   0.184   5.773   2.571 -0.8172  0.9348  0.1286
 6937TIP3    H145006   0.161   5.689   2.530 -0.3994  0.9889 -0.2202
 6937TIP3    H245007   0.102   5.804   2.608 -0.7494 -0.2280  1.3650
 6938TIP3   OH245008   6.879   5.569   2.242  0.5585  0.2037 -0.2809
 6938TIP3    H145009   6.971   5.592   2.255  0.2223  1.7826 -0.5232
 6938TIP3    H245010   6.834   5.653   2.234 -1.1670 -0.4947  1.4725
 6939TIP3   OH245011   5.691   2.792   2.198 -0.7166 -0.4484 -0.0497
 6939TIP3    H145012   5.749   2.868   2.190  0.5267 -1.1099  1.9030
 6939TIP3    H245013   5.749   2.716   2.185 -1.3132 -1.1054  0.9857
 6940TIP3   OH245014   3.953   2.851   2.455  0.1278 -0.4389  0.0356
 6940TIP3    H145015   3.967   2.793   2.530 -2.0781 -0.8038  0.2294
 6940TIP3    H245016   4.026   2.832   2.396  1.2849 -0.9696  1.5504
 6941TIP3   OH245017   6.273   4.511   1.723  0.4373 -0.0094  0.1781
 6941TIP3    H145018   6.192   4.551   1.693 -0.0101 -0.9875  0.0396
 6941TIP3    H245019   6.309   4.572   1.787  0.1976  0.9922 -0.6120
 6942TIP3   OH245020   6.570   0.964   3.203  0.1016  0.2392 -0.2196
 6942TIP3    H145021   6.629   0.940   3.131  0.4843  0.4115  0.0388
 6942TIP3    H245022   6.600   0.912   3.277 -0.4355 -0.1080 -0.2371
 6943TIP3   OH245023   4.725   5.122   0.817  0.7505  0.5371 -0.2229
 6943TIP3    H145024   4.632   5.100   0.809  0.7884  0.1318  0.3945
 6943TIP3    H245025   4.726   5.202   0.868  0.6527  1.6083 -1.8365
 6944TIP3   OH245026   3.537   3.875   1.802 -0.4224 -0.1670  0.0618
 6944TIP3    H145027   3.578   3.895   1.718 -0.4877  0.8593  0.2527
 6944TIP3    H245028   3.607   3.841   1.857  0.2269  1.6415  0.4108
 6945TIP3   OH245029   0.505   1.618   3.351 -0.6863  0.0289  0.2864
 6945TIP3    H145030   0.569   1.601   3.421 -1.1648  1.2244  1.0393
 6945TIP3    H245031   0.524   1.551   3.285 -0.6090 -1.5380  1.8172
 6946TIP3   OH245032   5.526   4.475   3.136  0.1567 -0.2697  0.2767
 6946TIP3    H145033   5.430   4.475   3.141  0.0310  2.0641 -0.7177
 6946TIP3    H245034   5.551   4.559   3.175  1.7819 -0.6607  0.1189
 6947TIP3   OH245035   0.081   0.762   2.312 -0.8143 -0.1512 -0.2923
 6947TIP3    H145036   0.058   0.816   2.236 -0.4719 -0.0471 -0.3271
 6947TIP3    H245037   0.065   0.819   2.387 -1.0745 -0.2258 -0.2907
 6948TIP3   OH245038   4.914   5.294   2.651  0.2907 -0.3445  0.3781
 6948TIP3    H145039   4.838   5.335   2.610  0.8660  1.3680  0.9345
 6948TIP3    H245040   4.971   5.269   2.578 -0.6319 -1.3418 -0.0254
 6949TIP3   OH245041   4.932   1.044   1.593 -0.0069 -0.4247  0.5440
 6949TIP3    H145042   4.992   1.118   1.581 -0.2022 -0.2946  0.3489
 6949TIP3    H245043   4.986   0.975   1.632  0.4860 -0.6084 -0.4292
 6950TIP3   OH245044   3.150   6.804   0.603  0.0699  0.0586 -0.1788
 6950TIP3    H145045   3.089   6.856   0.656  1.6988  1.6226  0.2600
 6950TIP3    H245046   3.097   6.770   0.532 -1.1243  2.2870 -0.4420
 6951TIP3   OH245047   2.504   2.448   0.818 -0.0102 -0.9920 -0.5594
 6951TIP3    H145048   2.470   2.529   0.779 -0.2046 -0.8763 -0.1535
 6951TIP3    H245049   2.552   2.477   0.895 -0.0856 -1.2644 -0.4088
 6952TIP3   OH245050   2.728   6.790   3.088  0.2045 -0.2405  0.0216
 6952TIP3    H145051   2.722   6.875   3.044 -0.8554 -0.0519  0.4966
 6952TIP3    H245052   2.801   6.745   3.044  0.3022  0.6212 -0.7259
 6953TIP3   OH245053   0.600   6.310   2.975 -0.7625 -0.1294 -0.2722
 6953TIP3    H145054   0.654   6.265   2.910 -1.7276 -0.1161 -1.0925
 6953TIP3    H245055   0.615   6.261   3.056 -0.5929 -0.9776 -0.8004
 6954TIP3   OH245056   4.468   1.683   2.467 -0.3795 -0.1908  0.1040
 6954TIP3    H145057   4.409   1.610   2.450 -0.1003 -0.1287 -1.2002
 6954TIP3    H245058   4.545   1.642   2.506 -1.3873 -0.2277  2.2178
 6955TIP3   OH245059   2.374   4.703   2.315  0.2860  0.9631 -0.4557
 6955TIP3    H145060   2.389   4.774   2.378  2.5236 -0.0879  0.3366
 6955TIP3    H245061   2.386   4.744   2.229 -1.1797  2.0754 -0.1677
 6956TIP3   OH245062   0.925   5.231   2.606 -0.2809 -0.0711  0.1427
 6956TIP3    H145063   0.989   5.166   2.635 -0.9267 -0.2683  1.1569
 6956TIP3    H245064   0.872   5.184   2.541  0.0161 -0.1768 -0.0280
 6957TIP3   OH245065   6.164   5.461   2.123 -0.1117  0.0211 -0.1526
 6957TIP3    H145066   6.079   5.493   2.093  0.1599  2.1088  1.0822
 6957TIP3    H245067   6.227   5.523   2.088  0.8156 -0.8765 -0.1381
 6958TIP3   OH245068   0.835   0.924   1.147  0.0843  0.6620 -0.1234
 6958TIP3    H145069   0.919   0.945   1.187 -0.3307  0.3432  0.9620
 6958TIP3    H245070   0.836   0.829   1.137 -0.2399  0.6256  0.1427
 6959TIP3   OH245071   6.153   3.403   2.584  0.5504  0.0312  0.0118
 6959TIP3    H145072   6.161   3.446   2.499 -2.2192 -0.0641 -0.3770
 6959TIP3    H245073   6.092   3.458   2.633 -0.2982 -1.5331  0.7981
 6960TIP3   OH245074   1.488   2.815   0.846  0.0561 -0.3970 -0.1347
 6960TIP3    H145075   1.452   2.740   0.798 -1.0475  0.3349 -0.4864
 6960TIP3    H245076   1.532   2.775   0.922  1.4589 -1.5362 -1.4879
 6961TIP3   OH245077   1.710   4.791   2.206 -0.0286 -0.0663 -0.1605
 6961TIP3    H145078   1.711   4.713   2.150  0.3360 -0.1252 -0.0756
 6961TIP3    H245079   1.627   4.835   2.185  0.4002  0.2566 -1.2227
 6962TIP3   OH245080   2.417   7.247   0.855 -0.4930  0.1710 -0.2074
 6962TIP3    H145081   2.490   7.245   0.916  1.3146 -0.5846 -2.2783
 6962TIP3    H245082   2.362   7.173   0.882  1.0270 -1.0599 -0.3395
 6963TIP3   OH245083   0.420   6.340   1.459 -0.0359  0.3121  0.0341
 6963TIP3    H145084   0.425   6.359   1.365  1.9777  1.1944  0.2826
 6963TIP3    H245085   0.492   6.279   1.475 -0.8410 -0.4388  0.8965
 6964TIP3   OH245086   2.664   6.020   1.049 -0.1634 -0.2656 -0.1333
 6964TIP3    H145087   2.578   6.062   1.058  0.3781  0.9566 -0.3903
 6964TIP3    H245088   2.722   6.074   1.102  0.5460 -0.7737 -0.3818
 6965TIP3   OH245089   3.520   4.293   1.314 -0.1572  0.1966  0.1498
 6965TIP3    H145090   3.605   4.337   1.309 -0.4188  0.8322  1.0473
 6965TIP3    H245091   3.480   4.328   1.394 -0.6788 -1.1361  0.4882
 6966TIP3   OH245092   5.386   3.326   0.767  0.9272 -0.3886  0.0951
 6966TIP3    H145093   5.435   3.389   0.820  0.7259  0.4218 -0.6547
 6966TIP3    H245094   5.442   3.310   0.691  1.4922 -2.0162  0.8243
 6967TIP3   OH245095   5.104   7.229   3.025  0.3225 -0.0058  0.0060
 6967TIP3    H145096   5.153   7.311   3.031 -1.3000  1.0771 -0.7473
 6967TIP3    H245097   5.013   7.254   3.037 -0.3575 -1.5093 -1.5130
 6968TIP3   OH245098   0.092   6.150   1.281 -0.0185  0.3727  0.3202
 6968TIP3    H145099   0.039   6.072   1.269 -0.6479  0.5967  1.5156
 6968TIP3    H245100   0.103   6.158   1.376 -1.3257  2.6121  0.3534
 6969TIP3   OH245101   2.413   0.438   2.401 -0.2615  0.2488 -0.5314
 6969TIP3    H145102   2.404   0.347   2.430 -1.2381  0.5161  0.0582
 6969TIP3    H245103   2.339   0.484   2.442  0.7176  1.4973 -0.1137
 6970TIP3   OH245104   5.767   5.699   0.888  0.7175 -0.3805 -0.0256
 6970TIP3    H145105   5.854   5.720   0.921  0.5355 -0.8951  0.7899
 6970TIP3    H245106   5.736   5.782   0.850  1.2251  0.0235  0.4251
 6971TIP3   OH245107   3.799   1.872   3.020  0.0217  0.3047  0.3260
 6971TIP3    H145108   3.858   1.925   3.074  0.2237  0.7320 -0.3132
 6971TIP3    H245109   3.760   1.810   3.082  0.4423  0.6236  0.9200
 6972TIP3   OH245110   7.220   3.429   3.583 -0.0283  0.6499 -0.4571
 6972TIP3    H145111   7.160   3.494   3.621 -0.4115 -0.1389  0.3259
 6972TIP3    H245112   7.170   3.388   3.513 -0.4991 -0.1417  0.3209
 6973TIP3   OH245113   3.957   5.298   1.112 -0.1782 -0.1120  0.2229
 6973TIP3    H145114   3.914   5.327   1.032  0.7473  0.9854  0.0928
 6973TIP3    H245115   3.975   5.378   1.160  0.2159 -0.6775  1.0397
 6974TIP3   OH245116   2.447   4.362   2.901  0.0154  0.1561  0.1091
 6974TIP3    H145117   2.380   4.412   2.854 -0.6981 -1.5259 -0.7307
 6974TIP3    H245118   2.523   4.421   2.903 -0.5194  0.9699 -1.5476
 6975TIP3   OH245119   1.065   6.281   2.231  0.4819  0.3633  0.0644
 6975TIP3    H145120   1.025   6.251   2.150 -1.2849  2.0727  0.1996
 6975TIP3    H245121   1.098   6.202   2.273  1.1178 -0.5944 -2.1187
 6976TIP3   OH245122   4.398   1.332   1.042  0.0280 -0.6198  0.4099
 6976TIP3    H145123   4.445   1.326   0.958  0.0921 -1.3004  0.4943
 6976TIP3    H245124   4.435   1.262   1.095 -0.8002 -0.8985  0.6226
 6977TIP3   OH245125   1.053   2.706   2.288 -0.1269 -0.5730  0.5559
 6977TIP3    H145126   1.126   2.663   2.243 -0.8536 -2.6551  1.2640
 6977TIP3    H245127   1.092   2.784   2.328  0.9843  0.1920 -1.7953
 6978TIP3   OH245128   5.138   5.564   1.491  0.5090 -0.0254  0.1774
 6978TIP3    H145129   5.185   5.569   1.408  0.9354 -1.8989  0.2660
 6978TIP3    H245130   5.191   5.505   1.545 -1.9835 -2.4769  0.1901
 6979TIP3   OH245131   2.103   0.524   1.143 -0.2422  0.3266  0.3288
 6979TIP3    H145132   2.122   0.430   1.137  1.2025  0.6331 -0.1321
 6979TIP3    H245133   2.041   0.540   1.071 -0.1034 -0.1749  0.0957
 6980TIP3   OH245134   2.949   0.597   2.514 -0.2947  0.2886 -0.5925
 6980TIP3    H145135   2.968   0.678   2.561 -0.1346  0.4889 -0.9977
 6980TIP3    H245136   3.007   0.532   2.555 -1.0162  0.1804  0.2876
 6981TIP3   OH245137   7.286   7.124   2.377 -0.2441  0.0988 -0.2237
 6981TIP3    H145138   7.271   7.055   2.441  1.4433 -0.7710 -0.7085
 6981TIP3    H245139   7.356   7.177   2.414 -0.6713  0.8137 -0.4236
 6982TIP3   OH245140   2.043   5.533   2.135 -0.0975  0.0933 -0.3327
 6982TIP3    H145141   1.990   5.573   2.066  0.6275  0.2212 -0.8363
 6982TIP3    H245142   2.108   5.481   2.088  1.3787  1.3909  0.1737
 6983TIP3   OH245143   0.958   7.396   1.882 -0.1678 -0.2319  0.3785
 6983TIP3    H145144   0.863   7.407   1.881 -0.1653 -0.2428  0.0190
 6983TIP3    H245145   0.972   7.303   1.866 -0.0431  0.1064 -1.7476
 6984TIP3   OH245146   7.059   0.163   2.702  0.4187 -0.5670 -0.1850
 6984TIP3    H145147   7.052   0.097   2.633  0.4362 -0.6380 -0.1185
 6984TIP3    H245148   7.090   0.242   2.657 -0.4927 -0.3349 -0.4351
 6985TIP3   OH245149   0.441   0.595   1.621  0.6009  0.3893  1.0147
 6985TIP3    H145150   0.435   0.515   1.674  0.3814 -0.2048  0.1204
 6985TIP3    H245151   0.423   0.666   1.682  0.7323 -0.2485  1.8163
 6986TIP3   OH245152   3.109   5.634   1.355  0.7429  0.4912  0.2024
 6986TIP3    H145153   3.089   5.580   1.432  0.7258  0.6463  0.3091
 6986TIP3    H245154   3.203   5.626   1.344  0.8869  1.2215  0.8176
 6987TIP3   OH245155   2.006   4.622   1.220  0.1314 -0.2792  1.0387
 6987TIP3    H145156   1.972   4.605   1.308 -0.5225  2.1136  1.3162
 6987TIP3    H245157   2.013   4.717   1.214  1.2762 -0.4180 -1.1116
 6988TIP3   OH245158   5.575   4.419   1.744 -0.3231  0.4758 -0.3049
 6988TIP3    H145159   5.628   4.492   1.714  0.1100  0.8655  1.2861
 6988TIP3    H245160   5.630   4.373   1.808 -0.8125 -0.8835 -0.8190
 6989TIP3   OH245161   1.400   0.562   2.193 -0.3572  0.5070  0.0024
 6989TIP3    H145162   1.474   0.547   2.134 -1.1388  0.3139 -0.9417
 6989TIP3    H245163   1.439   0.560   2.281  0.4897 -1.5368 -0.3517
 6990TIP3   OH245164   6.125   2.942   0.821 -0.2059 -0.2223  0.5598
 6990TIP3    H145165   6.112   2.974   0.910 -2.0169 -0.4067  0.4012
 6990TIP3    H245166   6.177   2.862   0.832 -1.0331 -0.6519  1.5286
 6991TIP3   OH245167   3.200   4.681   1.939 -0.6316 -0.3193 -0.1622
 6991TIP3    H145168   3.189   4.744   2.010 -0.0646 -0.5551  0.1452
 6991TIP3    H245169   3.145   4.714   1.868 -1.6389 -0.3743  0.5790
 6992TIP3   OH245170   0.863   7.105   0.866  0.3666  0.6598 -0.1643
 6992TIP3    H145171   0.791   7.045   0.843  1.7662 -1.2656  0.2142
 6992TIP3    H245172   0.933   7.081   0.806  0.6094  2.7874 -0.7958
 6993TIP3   OH245173   1.537   2.641   2.203  0.7809  0.4044 -0.5260
 6993TIP3    H145174   1.469   2.677   2.147  2.0903  2.8523 -0.6684
 6993TIP3    H245175   1.618   2.679   2.170  2.0342 -1.0634  0.7026
 6994TIP3   OH245176   2.315   1.839   2.170  0.3957  0.3104  0.1927
 6994TIP3    H145177   2.252   1.868   2.104  0.4351 -1.5052 -0.6825
 6994TIP3    H245178   2.399   1.838   2.124  0.7032  0.6160  0.7426
 6995TIP3   OH245179   5.698   0.598   1.767 -0.2951  0.3720 -0.6969
 6995TIP3    H145180   5.682   0.604   1.673 -2.4497  3.2312 -0.3072
 6995TIP3    H245181   5.683   0.687   1.800 -1.0292 -0.7791  2.5297
 6996TIP3   OH245182   7.579   7.173   3.106 -0.3124 -0.1941 -0.1291
 6996TIP3    H145183   7.592   7.084   3.074 -0.2730  0.6835 -2.9075
 6996TIP3    H245184   7.503   7.168   3.163  0.0726 -2.0840  0.2767
 6997TIP3   OH245185   7.189   2.488   3.341  0.0660  0.3752 -0.8042
 6997TIP3    H145186   7.138   2.428   3.286  1.3052 -0.6841 -0.8495
 6997TIP3    H245187   7.235   2.430   3.403  0.2542  1.3906  0.0266
 6998TIP3   OH245188   5.407   6.633   2.087  0.0172  0.3540  0.5755
 6998TIP3    H145189   5.467   6.597   2.022  0.8700  0.5592  1.2277
 6998TIP3    H245190   5.390   6.723   2.058 -0.1729  0.2211  0.2662
 6999TIP3   OH245191   7.446   1.175   1.338  0.3475 -0.1840  0.0639
 6999TIP3    H145192   7.428   1.148   1.428  0.3827 -1.2023 -0.2240
 6999TIP3    H245193   7.387   1.122   1.284 -0.8394  1.5615 -0.4229
 7000TIP3   OH245194   2.330   2.686   1.162 -0.2412  0.0523 -0.8688
 7000TIP3    H145195   2.414   2.678   1.207 -0.3647 -0.6005 -0.7359
 7000TIP3    H245196   2.270   2.716   1.231 -0.2323 -0.0309 -0.8240
 7001TIP3   OH245197   6.047   2.295   1.422  0.3882  0.2373  0.3031
 7001TIP3    H145198   6.032   2.208   1.386 -2.4774  0.4648  0.6722
 7001TIP3    H245199   6.096   2.341   1.354 -1.6854 -0.4523 -1.7734
 7002TIP3   OH245200   3.447   5.944   3.477 -0.3404 -0.1495 -0.5718
 7002TIP3    H145201   3.503   5.880   3.432 -0.5826  1.1647 -2.8717
 7002TIP3    H245202   3.439   6.016   3.416 -1.6977  1.2538  1.1583
 7003TIP3   OH245203   2.343   0.668   3.251  0.3262  0.4879 -0.2469
 7003TIP3    H145204   2.376   0.578   3.254 -0.2743  0.2842  2.5635
 7003TIP3    H245205   2.355   0.694   3.160 -0.7574 -2.8924 -1.5021
 7004TIP3   OH245206   0.506   2.306   2.316 -0.8719  0.2595 -0.0195
 7004TIP3    H145207   0.490   2.400   2.325  0.4432  0.3041  2.9825
 7004TIP3    H245208   0.595   2.300   2.280 -0.3610  0.2116  1.2163
 7005TIP3   OH245209   5.374   2.647   0.950 -0.3481  0.0477  0.4191
 7005TIP3    H145210   5.443   2.659   1.015 -0.1312  0.1541  0.1722
 7005TIP3    H245211   5.362   2.552   0.945  0.7364 -0.0676 -0.5098
 7006TIP3   OH245212   4.350   6.016   1.995 -0.1193  0.5435 -0.2127
 7006TIP3    H145213   4.368   6.107   1.971  1.1215  0.4078  0.1386
 7006TIP3    H245214   4.428   5.968   1.969 -0.8748 -0.4915 -0.6579
 7007TIP3   OH245215   0.745   4.853   0.602 -0.3244 -0.1124  0.6505
 7007TIP3    H145216   0.684   4.922   0.626  0.0592  0.1351  0.9309
 7007TIP3    H245217   0.831   4.888   0.627 -0.2279 -1.1159  1.7508
 7008TIP3   OH245218   3.564   2.288   1.245 -0.1328 -0.2665 -0.1741
 7008TIP3    H145219   3.540   2.331   1.163 -0.9747  1.1431  0.7463
 7008TIP3    H245220   3.543   2.353   1.312  0.9465 -1.2093  1.1313
 7009TIP3   OH245221   6.688   1.645   2.598  0.2970  0.1147  0.2909
 7009TIP3    H145222   6.748   1.640   2.524  0.9372 -2.0159  0.8793
 7009TIP3    H245223   6.734   1.695   2.664  0.6139  0.1571  0.0388
 7010TIP3   OH245224   5.702   4.005   2.077 -0.0006  0.1084 -0.2778
 7010TIP3    H145225   5.640   4.067   2.040 -0.0893  0.3064  0.1985
 7010TIP3    H245226   5.788   4.047   2.064 -0.1301  0.7495  0.8400
 7011TIP3   OH245227   0.490   3.713   1.698  0.0517  0.1784  0.3253
 7011TIP3    H145228   0.480   3.723   1.792 -0.3194 -0.8199  0.3990
 7011TIP3    H245229   0.566   3.768   1.676  0.9539 -0.5811  1.4099
 7012TIP3   OH245230   3.449   6.374   1.422  0.0787  0.0999  0.2465
 7012TIP3    H145231   3.542   6.353   1.429  0.1347 -0.0067 -0.6420
 7012TIP3    H245232   3.406   6.317   1.485  0.5913 -0.0611  0.4521
 7013TIP3   OH245233   5.247   1.694   2.803 -0.1232 -0.0902  0.3161
 7013TIP3    H145234   5.216   1.774   2.846  1.0711 -0.3972  1.8622
 7013TIP3    H245235   5.169   1.657   2.762 -0.5294  2.2990 -1.2143
 7014TIP3   OH245236   7.450   3.101   1.948  0.2708  0.3957  0.7561
 7014TIP3    H145237   7.413   3.101   1.860  1.2957  1.5270  0.3016
 7014TIP3    H245238   7.473   3.193   1.965 -1.3229  0.4977  2.8322
 7015TIP3   OH245239   4.987   7.575   0.683  0.0528 -0.0853 -0.1081
 7015TIP3    H145240   4.980   7.572   0.588  3.0613 -1.7324 -0.3927
 7015TIP3    H245241   4.957   7.488   0.711  1.9820 -0.7175  0.1177
 7016TIP3   OH245242   7.437   0.113   1.908 -0.1011  0.2160  0.1032
 7016TIP3    H145243   7.491   0.177   1.955 -0.7461  0.7213  0.1658
 7016TIP3    H245244   7.394   0.163   1.839 -0.3935 -0.2024 -0.0236
 7017TIP3   OH245245   3.011   7.027   3.151  0.1635 -0.1754 -0.8545
 7017TIP3    H145246   2.959   7.034   3.231  0.6574  1.0302 -0.6098
 7017TIP3    H245247   2.947   7.013   3.082 -0.6787  2.5848 -0.7430
 7018TIP3   OH245248   1.648   0.363   2.892  0.1968  0.2885  0.4193
 7018TIP3    H145249   1.560   0.377   2.926 -0.0701  0.6704 -0.4006
 7018TIP3    H245250   1.692   0.311   2.959 -1.4015 -2.0701 -0.2652
 7019TIP3   OH245251   2.019   2.497   2.161 -0.7095  0.2073 -0.3608
 7019TIP3    H145252   1.928   2.470   2.157 -0.5522 -0.5240  0.5511
 7019TIP3    H245253   2.030   2.535   2.248  0.3311 -1.6506  0.3844
 7020TIP3   OH245254   6.644   0.916   2.399  0.5801  0.5306  0.2149
 7020TIP3    H145255   6.682   0.963   2.474  2.3757  0.0788 -0.3611
 7020TIP3    H245256   6.702   0.938   2.326  0.2388 -0.9366 -0.5194
 7021TIP3   OH245257   4.087   5.818   1.577 -0.4062  0.1947  0.4483
 7021TIP3    H145258   4.061   5.881   1.510  0.3085  0.5570  0.4994
 7021TIP3    H245259   4.182   5.827   1.583 -0.2643 -0.9863  0.3600
 7022TIP3   OH245260   6.224   4.767   1.198 -0.7365 -0.1548  0.2065
 7022TIP3    H145261   6.246   4.678   1.171 -1.8940 -0.5300  0.4527
 7022TIP3    H245262   6.165   4.799   1.130  1.0193  1.1000 -0.8284
 7023TIP3   OH245263   7.442   4.947   2.568  0.0365 -0.0795  0.4733
 7023TIP3    H145264   7.529   4.921   2.537 -0.3864 -0.6127 -0.3060
 7023TIP3    H245265   7.435   4.909   2.656  0.0020 -1.3608 -0.0688
 7024TIP3   OH245266   1.710   5.153   1.934  0.0546 -0.4232  0.2712
 7024TIP3    H145267   1.669   5.227   1.890  0.2692 -0.9151 -0.7859
 7024TIP3    H245268   1.714   5.085   1.867 -0.8419 -1.6672  1.4129
 7025TIP3   OH245269   4.344   7.212   0.562 -0.2783 -0.4252  0.1314
 7025TIP3    H145270   4.318   7.133   0.609  0.1037  0.0381  1.1612
 7025TIP3    H245271   4.264   7.241   0.519 -0.4344 -1.3363 -0.2140
 7026TIP3   OH245272   6.949   0.404   1.149 -0.5021 -0.7526 -0.4162
 7026TIP3    H145273   7.004   0.353   1.208 -0.9270 -1.8553 -0.9540
 7026TIP3    H245274   6.981   0.381   1.061 -0.5854  0.0451 -0.6599
 7027TIP3   OH245275   6.783   1.340   2.362 -0.1647  0.2664 -0.2206
 7027TIP3    H145276   6.689   1.347   2.344 -0.4755 -0.6329  0.9495
 7027TIP3    H245277   6.824   1.392   2.293 -1.3676 -1.4238 -2.3294
 7028TIP3   OH245278   2.679   4.254   1.923 -0.5556 -0.0791  0.2344
 7028TIP3    H145279   2.623   4.326   1.953 -1.2474 -0.5235  0.0121
 7028TIP3    H245280   2.686   4.195   1.998  0.5330  0.5154  0.6298
 7029TIP3   OH245281   6.945   2.061   3.308 -0.5631  0.2489 -0.1833
 7029TIP3    H145282   7.001   1.993   3.269  0.4150  0.8315  0.1779
 7029TIP3    H245283   6.859   2.047   3.268 -0.8672 -2.3263  1.1619
 7030TIP3   OH245284   1.621   2.320   2.832  0.0701  0.2186 -0.1215
 7030TIP3    H145285   1.710   2.352   2.814 -0.4006  1.7878  0.1470
 7030TIP3    H245286   1.620   2.230   2.799  1.3148  0.6698 -1.4764
 7031TIP3   OH245287   2.137   4.748   1.956 -0.2856  0.1136  0.3132
 7031TIP3    H145288   2.159   4.671   1.904 -0.9732  0.3105 -0.2965
 7031TIP3    H245289   2.043   4.759   1.943 -0.3215  0.6343  0.9751
 7032TIP3   OH245290   4.669   7.435   2.298 -0.4999 -0.1994 -0.2404
 7032TIP3    H145291   4.626   7.355   2.268  0.3498 -1.1284  0.9098
 7032TIP3    H245292   4.641   7.445   2.389  1.4400 -0.7196  0.4865
 7033TIP3   OH245293   3.362   1.822   2.093 -0.1981  0.2593  0.5737
 7033TIP3    H145294   3.446   1.866   2.084  0.0724 -0.4363 -0.5526
 7033TIP3    H245295   3.352   1.772   2.011 -1.1508 -0.6127  1.1936
 7034TIP3   OH245296   1.767   2.874   3.309  0.1228 -0.6734  0.5008
 7034TIP3    H145297   1.849   2.918   3.331 -0.6348  0.7646  0.5568
 7034TIP3    H245298   1.794   2.787   3.281  1.9486  0.6130 -2.1588
 7035TIP3   OH245299   1.566   6.954   0.973  0.4369 -0.1847  0.1992
 7035TIP3    H145300   1.603   6.939   0.885  2.3432 -1.4412  1.1341
 7035TIP3    H245301   1.521   7.038   0.966  0.3893 -0.3244 -2.0201
 7036TIP3   OH245302   7.328   4.484   1.992 -0.2735  0.2909  0.1285
 7036TIP3    H145303   7.245   4.517   1.958  0.1999  0.2432 -1.1097
 7036TIP3    H245304   7.391   4.553   1.973  0.2017 -0.1841 -0.0319
 7037TIP3   OH245305   1.826   2.811   2.996 -0.1705  0.7042  0.4521
 7037TIP3    H145306   1.787   2.739   2.946  1.4283  0.0172  0.1381
 7037TIP3    H245307   1.854   2.770   3.078 -0.1652  1.2055  0.7055
 7038TIP3   OH245308   2.455   3.313   9.225 -0.0980  0.5638  0.1788
 7038TIP3    H145309   2.438   3.219   9.228 -0.0887  0.3469 -2.8444
 7038TIP3    H245310   2.389   3.352   9.282  0.1096 -1.2505  1.7396
 7039TIP3   OH245311   4.135   6.095   2.762  0.4151  0.7481  0.3663
 7039TIP3    H145312   4.221   6.057   2.746 -0.1304 -1.5293  2.1539
 7039TIP3    H245313   4.152   6.169   2.821  1.1497 -0.1045  1.2707
 7040TIP3   OH245314   7.014   2.129   0.637  0.2793  0.7925  0.2118
 7040TIP3    H145315   7.059   2.064   0.583 -0.0868  1.2908 -0.7118
 7040TIP3    H245316   7.013   2.208   0.584  0.2087  1.3984  1.0935
 7041TIP3   OH245317   2.496   2.571   2.418  0.4623 -0.1265  0.0597
 7041TIP3    H145318   2.582   2.546   2.386  0.6472 -0.3719  0.7430
 7041TIP3    H245319   2.502   2.565   2.513 -0.8455 -2.0068  0.0773
 7042TIP3   OH245320   4.296   1.196   0.745  0.2173  0.2806  0.1785
 7042TIP3    H145321   4.327   1.110   0.772 -0.8888  0.2983  1.6796
 7042TIP3    H245322   4.373   1.252   0.749  0.6969 -0.3823  0.3693
 7043TIP3   OH245323   5.289   4.304   2.844 -0.0335  0.1988  0.4813
 7043TIP3    H145324   5.326   4.293   2.932  0.7945 -1.8004 -0.0721
 7043TIP3    H245325   5.270   4.215   2.814 -3.0380  0.9689 -0.2872
 7044TIP3   OH245326   2.860   5.699   0.892 -0.1090  0.1010 -0.3032
 7044TIP3    H145327   2.930   5.762   0.912 -0.3584 -0.2318  1.8454
 7044TIP3    H245328   2.829   5.670   0.978 -1.7996 -0.9782 -1.2338
 7045TIP3   OH245329   7.153   3.942   1.804 -0.4997 -0.7826 -0.4307
 7045TIP3    H145330   7.096   3.872   1.773  1.4351 -2.2842 -0.7638
 7045TIP3    H245331   7.137   4.014   1.743 -0.9524 -1.6934 -1.4243
 7046TIP3   OH245332   6.509   2.911   0.468 -0.7382 -0.1875  0.3974
 7046TIP3    H145333   6.424   2.866   0.461 -0.0754 -1.5404  0.7451
 7046TIP3    H245334   6.570   2.852   0.424 -0.0870  1.1448 -0.5391
 7047TIP3   OH245335   6.202   0.503   0.487 -0.2471  0.3584  0.6201
 7047TIP3    H145336   6.168   0.425   0.444 -0.6300 -0.3388  2.1253
 7047TIP3    H245337   6.147   0.574   0.453 -1.0134 -0.2709  0.5067
 7048TIP3   OH245338   0.840   1.420   3.494  0.5578  0.2092 -0.2520
 7048TIP3    H145339   0.844   1.384   3.405 -0.8069 -0.9702  0.1257
 7048TIP3    H245340   0.903   1.367   3.543 -0.8547 -1.1972  0.1177
 7049TIP3   OH245341   5.306   2.142   2.026  0.6173 -0.3420  0.0983
 7049TIP3    H145342   5.225   2.173   2.068  2.2188  1.8288  1.8324
 7049TIP3    H245343   5.290   2.154   1.933 -0.9889  0.2708  0.4071
 7050TIP3   OH245344   4.162   3.034   1.760 -0.4445 -0.3377 -0.7512
 7050TIP3    H145345   4.149   3.129   1.750 -0.5334 -0.2390  0.1912
 7050TIP3    H245346   4.136   3.016   1.850  1.5326 -0.9183 -0.2465
 7051TIP3   OH245347   7.552   3.744   2.125  0.8699  0.6765  0.4614
 7051TIP3    H145348   7.611   3.699   2.065  2.3092  2.7311  0.2432
 7051TIP3    H245349   7.486   3.784   2.069 -0.8457 -1.6044  0.7040
 7052TIP3   OH245350   2.451   7.580   2.764  0.2779  0.6802  0.5174
 7052TIP3    H145351   2.530   7.595   2.815  1.6773 -0.4405 -1.2035
 7052TIP3    H245352   2.388   7.543   2.826  2.0583 -1.0518  1.3891
 7053TIP3   OH245353   0.280   4.447   0.542  0.0225  0.3994  0.6406
 7053TIP3    H145354   0.347   4.393   0.585 -0.2936 -0.3920  0.1567
 7053TIP3    H245355   0.296   4.435   0.449 -1.9278 -1.3153  0.4565
 7054TIP3   OH245356   5.731   5.345   2.768 -0.0223 -0.1949 -0.4489
 7054TIP3    H145357   5.722   5.298   2.851  2.0071  0.0472 -0.0286
 7054TIP3    H245358   5.783   5.286   2.714  1.3981  0.9676 -0.3921
 7055TIP3   OH245359   7.428   3.200   0.480 -0.2230 -0.0830 -0.3577
 7055TIP3    H145360   7.419   3.106   0.469 -0.7517  0.1293 -1.9289
 7055TIP3    H245361   7.342   3.229   0.513  0.1215 -0.1974  0.6985
 7056TIP3   OH245362   2.762   5.531   1.446 -0.1426 -0.5829  0.1226
 7056TIP3    H145363   2.714   5.448   1.450 -1.1544 -0.0216  0.1074
 7056TIP3    H245364   2.827   5.525   1.515 -1.4894 -0.6282  1.4477
 7057TIP3   OH245365   6.481   7.147   2.820  0.0201 -0.0386  0.7494
 7057TIP3    H145366   6.557   7.119   2.871 -0.7032 -4.7118 -0.3246
 7057TIP3    H245367   6.408   7.144   2.882  0.1040  0.6359  0.8862
 7058TIP3   OH245368   2.971   2.290   0.685  0.5977 -0.1778  0.1631
 7058TIP3    H145369   2.898   2.296   0.623  1.2687 -1.0126 -0.7471
 7058TIP3    H245370   2.932   2.253   0.764  0.2549 -2.0230 -0.7949
 7059TIP3   OH245371   7.494   2.147   2.439 -0.4514 -0.0043  0.3709
 7059TIP3    H145372   7.546   2.183   2.511  0.3586 -0.1256 -0.1497
 7059TIP3    H245373   7.412   2.197   2.442 -0.2546  0.2868  1.1042
 7060TIP3   OH245374   6.121   1.335   1.462  0.4035  0.2250 -0.2651
 7060TIP3    H145375   6.099   1.271   1.530  0.1001  0.2512 -0.3407
 7060TIP3    H245376   6.210   1.363   1.484 -0.0801  1.0305  0.7333
 7061TIP3   OH245377   2.553   4.212   1.128 -0.9225  0.1539 -0.4092
 7061TIP3    H145378   2.519   4.131   1.166 -0.6660  0.1784 -0.1255
 7061TIP3    H245379   2.617   4.182   1.062  0.1144  0.1336  0.5738
 7062TIP3   OH245380   4.599   5.486   0.762  0.6256 -0.3022  0.1849
 7062TIP3    H145381   4.653   5.448   0.831  2.1082  0.4862 -0.5123
 7062TIP3    H245382   4.587   5.577   0.789  1.3715  0.0617 -0.6610
 7063TIP3   OH245383   2.708   4.764   0.706  0.0720 -0.1915  0.0185
 7063TIP3    H145384   2.771   4.828   0.674 -1.3754 -0.0863 -2.9257
 7063TIP3    H245385   2.761   4.700   0.753  1.8949  1.6659  0.6608
 7064TIP3   OH245386   6.927   0.120   1.738  0.0868  0.2915 -0.1736
 7064TIP3    H145387   6.930   0.025   1.723  0.3722  0.5295 -1.8646
 7064TIP3    H245388   6.840   0.146   1.709  0.0604  0.5648  0.1520
 7065TIP3   OH245389   2.119   4.550   0.798 -0.8048  1.1328  0.3112
 7065TIP3    H145390   2.126   4.456   0.811 -0.6197  1.0212 -0.4970
 7065TIP3    H245391   2.185   4.588   0.856  0.3344  0.6494 -0.6283
 7066TIP3   OH245392   2.628   5.739   3.003  0.0042  0.1374  0.7919
 7066TIP3    H145393   2.685   5.809   3.033 -0.4983  0.2866  1.4184
 7066TIP3    H245394   2.546   5.753   3.050 -0.5894 -0.0051 -0.1743
 7067TIP3   OH245395   2.928   1.820   0.801 -0.6221 -0.0338  0.0534
 7067TIP3    H145396   2.997   1.755   0.816 -0.3219 -0.4461 -2.5138
 7067TIP3    H245397   2.890   1.794   0.717 -3.0587  0.9544  0.7673
 7068TIP3   OH245398   2.703   2.337   2.816  0.2566 -0.2062  0.1440
 7068TIP3    H145399   2.728   2.298   2.900 -0.5709 -2.3827 -0.5570
 7068TIP3    H245400   2.755   2.290   2.751  0.4541  1.0433 -0.6208
 7069TIP3   OH245401   4.251   5.678   1.322 -0.0219 -0.3129  0.4139
 7069TIP3    H145402   4.190   5.685   1.394  1.4090  0.2643  1.6199
 7069TIP3    H245403   4.320   5.620   1.354  2.1444  2.2411  0.6943
 7070TIP3   OH245404   5.534   6.358   2.098  0.2860  0.2119  0.3738
 7070TIP3    H145405   5.571   6.380   2.012  0.8274 -1.0442  0.2675
 7070TIP3    H245406   5.609   6.347   2.155 -0.0498  0.4939  0.8752
 7071TIP3   OH245407   0.615   1.782   1.884 -0.2725 -0.1992  0.0295
 7071TIP3    H145408   0.648   1.773   1.973 -0.5926 -1.3901  0.0396
 7071TIP3    H245409   0.694   1.785   1.829 -0.0816  0.3693  0.3277
 7072TIP3   OH245410   4.546   0.042   0.601 -0.5117 -0.1417  0.1864
 7072TIP3    H145411   4.524   0.092   0.680 -1.5749 -0.1867 -0.0699
 7072TIP3    H245412   4.641   0.047   0.596 -0.2580 -1.3957  2.3283
 7073TIP3   OH245413   5.130   1.682   1.143 -0.3076  0.2063  0.0449
 7073TIP3    H145414   5.201   1.618   1.151 -0.7470 -0.1653  1.1563
 7073TIP3    H245415   5.175   1.767   1.147  0.0902 -0.0258  0.7498
 7074TIP3   OH245416   4.885   5.822   2.540  0.0563 -0.1765 -0.2444
 7074TIP3    H145417   4.950   5.766   2.582  0.3867  0.1988 -0.2551
 7074TIP3    H245418   4.896   5.907   2.582  2.5324  1.1302 -3.1593
 7075TIP3   OH245419   5.534   2.544   0.655 -0.1249  0.4423 -0.4405
 7075TIP3    H145420   5.480   2.586   0.723  1.5379  1.8030  0.1051
 7075TIP3    H245421   5.591   2.614   0.624 -0.0237 -0.4575 -2.4320
 7076TIP3   OH245422   1.998   2.655   2.693 -0.7630 -0.2330 -0.4020
 7076TIP3    H145423   1.949   2.735   2.673  2.0421  1.7644  0.1791
 7076TIP3    H245424   2.074   2.685   2.742  0.4251 -3.2955 -0.1726
 7077TIP3   OH245425   5.585   2.720   1.423 -0.0360  0.5457  0.2746
 7077TIP3    H145426   5.555   2.646   1.370 -0.6735  0.8224  0.2452
 7077TIP3    H245427   5.551   2.797   1.378 -0.7631  0.7754  1.1894
 7078TIP3   OH245428   5.820   3.879   1.216 -0.0235  0.0054 -0.3257
 7078TIP3    H145429   5.897   3.876   1.160 -0.3456 -0.3235 -0.7553
 7078TIP3    H245430   5.848   3.836   1.297  0.9951  2.0396  0.4899
 7079TIP3   OH245431   2.902   1.240   3.007  0.0288  0.0054 -0.6873
 7079TIP3    H145432   2.837   1.280   3.065  1.1152  0.0164  0.5651
 7079TIP3    H245433   2.934   1.313   2.953  1.3723  0.7119  0.9884
 7080TIP3   OH245434   4.374   4.782   0.511 -0.5306 -0.3245  0.3104
 7080TIP3    H145435   4.320   4.724   0.457 -0.9918  0.4596 -0.0935
 7080TIP3    H245436   4.371   4.866   0.465  1.2877 -0.3315  0.1163
 7081TIP3   OH245437   6.224   4.311   1.468  0.3191 -0.5166 -0.1650
 7081TIP3    H145438   6.166   4.235   1.465  1.9077 -1.9654  2.2984
 7081TIP3    H245439   6.175   4.376   1.520 -1.2672  0.4913 -2.7344
 7082TIP3   OH245440   7.190   4.935   2.353  0.6753 -0.3991  0.4646
 7082TIP3    H145441   7.220   5.026   2.359 -0.6501  0.1419 -0.4334
 7082TIP3    H245442   7.221   4.893   2.433 -0.6931  1.4662  2.0626
 7083TIP3   OH245443   7.633   4.621   2.278 -0.3803  0.6418  0.2818
 7083TIP3    H145444   7.571   4.557   2.242 -0.5645  1.5606 -1.0777
 7083TIP3    H245445   7.694   4.639   2.207  0.8327  0.5728  1.2683
 7084TIP3   OH245446   6.465   5.898   2.181 -0.3574  0.0811 -0.4541
 7084TIP3    H145447   6.467   5.898   2.276  0.8896  1.3145 -0.4465
 7084TIP3    H245448   6.439   5.988   2.158  0.9605  0.2859 -1.2558
 7085TIP3   OH245449   5.288   4.342   2.052  0.0779  0.0486  0.4715
 7085TIP3    H145450   5.315   4.427   2.016 -0.8685  0.4632  0.7112
 7085TIP3    H245451   5.210   4.319   2.002  0.4890 -0.8252  0.2187
 7086TIP3   OH245452   1.953   1.109   0.821 -0.2085  0.5703 -0.8982
 7086TIP3    H145453   1.895   1.178   0.790  0.5114  1.1695 -0.9476
 7086TIP3    H245454   2.021   1.155   0.870  0.0186 -0.1508 -0.5203
 7087TIP3   OH245455   7.303   6.785   0.842  0.5708  0.6543 -0.1278
 7087TIP3    H145456   7.256   6.721   0.895 -0.3130  2.7372  1.7866
 7087TIP3    H245457   7.241   6.809   0.773  0.5465  0.1386 -0.2867
 7088TIP3   OH245458   6.256   5.066   2.452 -0.3884 -0.4156 -0.2087
 7088TIP3    H145459   6.334   5.082   2.399  0.0912 -2.2313 -0.0874
 7088TIP3    H245460   6.289   5.038   2.537 -1.1761  1.3182  0.7213
 7089TIP3   OH245461   3.392   7.045   1.664  0.0131 -0.2580 -0.3649
 7089TIP3    H145462   3.356   7.127   1.697 -0.2463  0.2951 -1.9624
 7089TIP3    H245463   3.482   7.043   1.698 -0.4523 -0.0855  0.9419
 7090TIP3   OH245464   3.813   6.046   1.533  0.3132  0.0827  0.8067
 7090TIP3    H145465   3.790   5.991   1.458 -1.3100  0.1329  1.2304
 7090TIP3    H245466   3.901   6.078   1.513 -0.1703  0.3059 -1.2256
 7091TIP3   OH245467   5.521   3.032   0.493  0.2560  0.5076 -0.4862
 7091TIP3    H145468   5.506   3.003   0.403  1.4227  0.8278 -0.8066
 7091TIP3    H245469   5.517   3.127   0.488  1.2643  0.5642 -0.3942
 7092TIP3   OH245470   5.391   5.360   1.054  0.0563 -0.0181  0.2474
 7092TIP3    H145471   5.477   5.402   1.063  0.3803  0.1566 -2.5225
 7092TIP3    H245472   5.399   5.307   0.975 -2.6120  0.6375 -0.5807
 7093TIP3   OH245473   6.803   2.322   1.733 -0.0842  0.3131 -0.5728
 7093TIP3    H145474   6.814   2.307   1.639 -0.3278 -2.5933 -0.2288
 7093TIP3    H245475   6.883   2.368   1.759  0.3028  0.5499 -2.0650
 7094TIP3   OH245476   5.935   6.703   1.883  0.0681  0.5419  0.7686
 7094TIP3    H145477   6.020   6.688   1.923  0.4186 -1.8395 -0.6489
 7094TIP3    H245478   5.955   6.739   1.797 -0.2346 -1.1334 -0.0378
 7095TIP3   OH245479   2.312   1.796   1.371 -0.0535 -0.0255 -0.8912
 7095TIP3    H145480   2.380   1.737   1.405 -0.2288 -0.8900 -1.9672
 7095TIP3    H245481   2.359   1.876   1.347  0.5509 -0.5086 -1.3511
 7096TIP3   OH245482   1.682   1.333   2.507 -0.2483  0.2257 -0.3196
 7096TIP3    H145483   1.687   1.305   2.415  2.7864 -0.4797 -0.0539
 7096TIP3    H245484   1.761   1.296   2.547 -0.8813  1.5117  2.3139
 7097TIP3   OH245485   1.936   5.965   1.386  0.3718 -0.6983 -0.5579
 7097TIP3    H145486   1.968   5.879   1.410 -0.1312 -0.4393  1.2058
 7097TIP3    H245487   2.011   6.008   1.345  0.3372 -2.2753 -2.4210
 7098TIP3   OH245488   3.498   5.155   1.377 -0.3415 -0.6224  0.3869
 7098TIP3    H145489   3.592   5.157   1.359 -0.6234 -1.0912 -1.3360
 7098TIP3    H245490   3.490   5.108   1.460  0.9074 -1.2021  0.1981
 7099TIP3   OH245491   1.854   7.034   2.004  0.2081  0.0935 -0.3625
 7099TIP3    H145492   1.770   7.033   2.051  0.1052  3.8821 -0.1075
 7099TIP3    H245493   1.832   7.005   1.915 -0.9315 -0.9298  0.2313
 7100TIP3   OH245494   5.578   5.833   1.257 -0.0238  0.1283 -0.3111
 7100TIP3    H145495   5.665   5.848   1.220 -0.5472  2.2796 -0.8026
 7100TIP3    H245496   5.521   5.822   1.181 -0.6916  2.1076 -0.1594
 7101TIP3   OH245497   0.344   0.777   2.160 -0.6118  0.4816  0.3291
 7101TIP3    H145498   0.302   0.862   2.178 -2.2605 -0.2434  0.0824
 7101TIP3    H245499   0.277   0.726   2.115  0.2129 -1.0979  0.8029
 7102TIP3   OH245500   4.643   3.881   2.105  0.1634  0.4202 -0.1456
 7102TIP3    H145501   4.601   3.936   2.171  0.4313  1.7839 -1.0768
 7102TIP3    H245502   4.578   3.871   2.036 -0.3473 -1.5369  0.5596
 7103TIP3   OH245503   7.217   2.250   2.799 -0.3257  0.6635 -0.8546
 7103TIP3    H145504   7.223   2.324   2.859  1.5426 -0.1713  0.0836
 7103TIP3    H245505   7.237   2.287   2.713 -2.1065  1.6985 -0.8794
 7104TIP3   OH245506   2.244   6.664   2.294 -0.3440 -0.0113 -0.1634
 7104TIP3    H145507   2.203   6.588   2.252  1.7054 -0.3735 -1.6778
 7104TIP3    H245508   2.171   6.713   2.331 -1.9421 -1.5429 -1.1182
 7105TIP3   OH245509   5.399   0.877   1.380 -0.0864  0.5320 -0.4308
 7105TIP3    H145510   5.392   0.963   1.340  0.6420  1.1721  0.7643
 7105TIP3    H245511   5.484   0.878   1.424 -1.1911  0.1963  1.8483
 7106TIP3   OH245512   1.511   4.014   2.681  0.0268 -0.0634 -0.2796
 7106TIP3    H145513   1.568   3.939   2.663  0.4018 -0.1383  1.0943
 7106TIP3    H245514   1.423   3.981   2.664  0.3365  0.0282 -2.3551
 7107TIP3   OH245515   0.713   4.379   1.286 -0.2802 -0.5732 -0.6629
 7107TIP3    H145516   0.739   4.450   1.226 -2.6943  1.1087  0.1409
 7107TIP3    H245517   0.618   4.380   1.284 -0.3893 -2.8145  0.5957
 7108TIP3   OH245518   5.616   7.181   1.450 -0.0859 -0.1886  0.1849
 7108TIP3    H145519   5.662   7.148   1.528  1.1953 -0.0077 -0.4745
 7108TIP3    H245520   5.581   7.265   1.477  0.8370  0.1362  0.4129
 7109TIP3   OH245521   5.665   5.490   0.999  0.3331  0.1468 -0.1876
 7109TIP3    H145522   5.698   5.578   0.985 -0.3396  0.1568 -2.0061
 7109TIP3    H245523   5.716   5.435   0.939 -0.3365 -0.4396 -0.2345
 7110TIP3   OH245524   1.486   4.012   1.333  0.0397  0.2281  0.0642
 7110TIP3    H145525   1.501   3.919   1.354 -0.8344 -0.2289 -1.2042
 7110TIP3    H245526   1.447   4.010   1.246 -0.6589  1.7572  0.3201
 7111TIP3   OH245527   5.822   3.419   0.983  0.2148 -0.0389 -0.0002
 7111TIP3    H145528   5.824   3.382   1.071  2.0765  0.5389  0.2582
 7111TIP3    H245529   5.901   3.385   0.941 -0.4351  0.0188 -1.3195
 7112TIP3   OH245530   4.958   3.265   1.215 -0.2982 -0.1854 -0.1154
 7112TIP3    H145531   5.033   3.266   1.274 -0.4226 -1.3102  0.0819
 7112TIP3    H245532   4.928   3.174   1.215 -2.2227  0.4025  0.5216
 7113TIP3   OH245533   5.371   5.598   2.383  0.1301 -0.4264  0.3199
 7113TIP3    H145534   5.431   5.646   2.440  0.4209  0.0760 -0.4022
 7113TIP3    H245535   5.353   5.658   2.311 -0.2076 -1.0698 -0.1392
 7114TIP3   OH245536   7.255   1.650   1.102 -0.5988  0.7162 -0.7188
 7114TIP3    H145537   7.240   1.566   1.145  0.9093  0.1720 -1.2226
 7114TIP3    H245538   7.191   1.652   1.030  0.2091 -0.6165 -1.5236
 7115TIP3   OH245539   3.715   7.378   2.162  0.0951 -0.0991  0.3174
 7115TIP3    H145540   3.798   7.397   2.120  1.2888 -2.9926  1.1233
 7115TIP3    H245541   3.713   7.434   2.240  0.2481  1.5079 -0.7911
 7116TIP3   OH245542   4.995   5.902   0.758 -0.0124 -0.6289  0.2271
 7116TIP3    H145543   4.925   5.842   0.730 -0.2706 -0.2648  0.0931
 7116TIP3    H245544   4.950   5.981   0.786  0.2847 -0.7827  1.1637
 7117TIP3   OH245545   4.747   0.720   1.250 -0.4906  0.0111  0.0649
 7117TIP3    H145546   4.784   0.633   1.263 -0.1316  0.4056  1.9862
 7117TIP3    H245547   4.730   0.753   1.339 -0.3911  1.9939 -0.5961
 7118TIP3   OH245548   4.713   0.265   1.342 -0.0752  0.2118 -0.0627
 7118TIP3    H145549   4.701   0.299   1.430 -0.4420  1.5747 -0.6178
 7118TIP3    H245550   4.803   0.231   1.342  0.3138  1.2032  0.5185
 7119TIP3   OH245551   3.704   6.419   2.657 -0.0135  0.2210  0.1830
 7119TIP3    H145552   3.611   6.403   2.667 -0.0195 -0.4731 -0.9483
 7119TIP3    H245553   3.716   6.438   2.564  0.9491  0.5158  0.3524
 7120TIP3   OH245554   5.908   6.952   2.208 -0.1845  0.0653  0.1634
 7120TIP3    H145555   5.912   7.029   2.265 -0.3256  2.7651 -3.1565
 7120TIP3    H245556   5.819   6.953   2.172  0.3272 -0.6127 -1.2173
 7121TIP3   OH245557   3.510   2.985   2.398  0.1027  0.5717  0.0664
 7121TIP3    H145558   3.594   2.944   2.378 -0.3986 -1.0821  1.1118
 7121TIP3    H245559   3.445   2.920   2.372 -0.7660  0.9799  1.1379
 7122TIP3   OH245560   5.490   2.148   3.286  0.3080 -0.3055 -0.0403
 7122TIP3    H145561   5.540   2.209   3.232  2.2747 -0.7278  1.2254
 7122TIP3    H245562   5.401   2.182   3.284  1.4413  3.1496  1.2574
 7123TIP3   OH245563   3.769   2.985   1.729 -0.3803  0.0745 -0.5694
 7123TIP3    H145564   3.810   2.912   1.682 -0.3735  0.0644 -0.5475
 7123TIP3    H245565   3.788   3.062   1.675 -0.9075 -0.0269 -0.9101
 7124TIP3   OH245566   0.448   5.139   0.796  0.9219 -0.4871  0.1876
 7124TIP3    H145567   0.433   5.128   0.890 -0.7484 -0.9708 -0.0939
 7124TIP3    H245568   0.428   5.053   0.759  1.3227 -0.2296 -0.6424
 7125TIP3   OH245569   4.719   5.684   2.348 -0.3624 -0.3923 -0.0533
 7125TIP3    H145570   4.667   5.753   2.307 -2.0178 -0.1912  2.1666
 7125TIP3    H245571   4.781   5.732   2.404 -0.4392 -0.6879  0.2840
 7126TIP3   OH245572   6.543   6.061   0.739  0.2824  0.0938  0.3633
 7126TIP3    H145573   6.458   6.038   0.777  0.0026  2.1141  1.0929
 7126TIP3    H245574   6.579   6.126   0.800  3.3751 -2.2500  1.2919
 7127TIP3   OH245575   5.022   7.572   1.151  0.7377  0.0659  1.2488
 7127TIP3    H145576   5.110   7.604   1.131 -0.1732  1.8653 -0.1592
 7127TIP3    H245577   5.032   7.477   1.160  2.5893  0.0676 -0.2772
 7128TIP3   OH245578   3.230   6.163   1.369  0.2120  0.0034  1.1068
 7128TIP3    H145579   3.199   6.208   1.447 -2.0776 -0.1958  0.3793
 7128TIP3    H245580   3.217   6.226   1.298  1.0464 -0.2898  0.6763
 7129TIP3   OH245581   6.623   6.546   0.724 -0.2551 -0.1426 -0.4020
 7129TIP3    H145582   6.675   6.586   0.655 -1.1069  0.1643 -0.8760
 7129TIP3    H245583   6.540   6.523   0.682 -0.1835 -1.4690  0.1079
 7130TIP3   OH245584   6.644   2.034   2.173  0.3138  0.5594  0.1961
 7130TIP3    H145585   6.700   2.111   2.183  0.1700  0.7488 -0.3842
 7130TIP3    H245586   6.645   1.992   2.259 -2.2028  2.9487  1.5724
 7131TIP3   OH245587   4.792   0.723   0.867  0.0955  0.1400  0.2313
 7131TIP3    H145588   4.732   0.783   0.912  0.5026  1.1824 -0.5783
 7131TIP3    H245589   4.736   0.649   0.841 -0.7467  0.8498 -0.0396
 7132TIP3   OH245590   1.179   4.547   2.463 -0.2946  0.0693 -0.0439
 7132TIP3    H145591   1.182   4.629   2.512  0.3162  2.1410 -3.2965
 7132TIP3    H245592   1.087   4.520   2.467 -0.4973  0.8654  1.1023
 7133TIP3   OH245593   6.720   4.667   2.697 -0.2662  0.0236  0.0709
 7133TIP3    H145594   6.635   4.643   2.734 -1.1386  2.3605 -0.2378
 7133TIP3    H245595   6.747   4.744   2.746  2.7775 -1.8260  1.5892
 7134TIP3   OH245596   3.908   2.589   2.688  0.4828  0.4298  0.2007
 7134TIP3    H145597   3.880   2.498   2.687  1.6283  0.0576  0.5018
 7134TIP3    H245598   3.945   2.602   2.775  0.3403  1.1759  0.1536
 7135TIP3   OH245599   3.093   0.937   1.277 -0.0200  0.8398 -0.5356
 7135TIP3    H145600   3.127   0.975   1.358 -0.0547 -0.3995  0.0753
 7135TIP3    H245601   3.171   0.919   1.224  0.1142  0.2372 -0.1388
 7136TIP3   OH245602   0.091   0.783   1.127  0.0004 -0.0411  0.2017
 7136TIP3    H145603   0.073   0.714   1.063  0.0848 -0.2851  0.4396
 7136TIP3    H245604   0.113   0.860   1.074  0.6589 -0.3996 -0.0641
 7137TIP3   OH245605   2.134   1.612   1.315  0.7772 -0.3726  0.1225
 7137TIP3    H145606   2.202   1.678   1.327  1.3378 -0.8788 -0.1916
 7137TIP3    H245607   2.112   1.584   1.404  0.0761  0.6698  0.2986
 7138TIP3   OH245608   7.303   5.935   1.294 -0.0303  0.2603 -0.0788
 7138TIP3    H145609   7.278   5.949   1.203 -1.7213  2.1376  0.5862
 7138TIP3    H245610   7.239   5.986   1.344 -1.2237 -3.2874  2.3701
 7139TIP3   OH245611   2.773   2.638   0.845  0.8315  0.0811  0.4430
 7139TIP3    H145612   2.841   2.600   0.899  2.0361 -0.7945 -1.5732
 7139TIP3    H245613   2.763   2.577   0.772 -0.4311  1.3948 -0.5509
 7140TIP3   OH245614   5.539   1.507   0.624  0.4283  0.5403 -0.4108
 7140TIP3    H145615   5.570   1.595   0.642  1.7569  0.5228 -2.3762
 7140TIP3    H245616   5.453   1.503   0.667  1.0433  2.2005  1.0943
 7141TIP3   OH245617   0.133   5.602   0.334 -0.2213 -0.1331 -0.2019
 7141TIP3    H145618   0.172   5.616   0.247 -0.4719 -0.6654 -0.4031
 7141TIP3    H245619   0.206   5.613   0.395  0.6023 -2.5349 -0.6582
 7142TIP3   OH245620   1.719   0.854   3.109 -0.3809  0.1210  0.7275
 7142TIP3    H145621   1.671   0.859   3.026  0.0693  0.5526  0.4859
 7142TIP3    H245622   1.678   0.781   3.156 -1.2029  0.4161  0.4900
 7143TIP3   OH245623   3.993   0.094   2.420 -0.1267  0.6327 -0.0710
 7143TIP3    H145624   4.041   0.056   2.494 -1.3229 -0.2199  0.3041
 7143TIP3    H245625   3.959   0.177   2.454 -1.1779 -0.0361  0.5563
 7144TIP3   OH245626   5.111   0.596   0.865 -0.9749 -0.4459 -0.1217
 7144TIP3    H145627   5.118   0.597   0.960 -0.1446 -1.4883 -0.1458
 7144TIP3    H245628   5.067   0.514   0.845  0.2684 -1.0038 -0.6849
 7145TIP3   OH245629   5.214   1.806   2.342  0.3535 -0.1692 -0.3164
 7145TIP3    H145630   5.242   1.891   2.308  2.0047 -0.0865  1.1125
 7145TIP3    H245631   5.122   1.798   2.316  0.4962  1.5301 -1.4524
 7146TIP3   OH245632   4.349   4.573   1.616 -0.5202 -0.0947 -0.1042
 7146TIP3    H145633   4.299   4.642   1.659 -2.4121 -0.2842 -1.8619
 7146TIP3    H245634   4.318   4.492   1.657 -0.2662 -0.1002  0.0842
 7147TIP3   OH245635   0.393   5.362   2.279  0.2601 -0.4388 -0.4236
 7147TIP3    H145636   0.482   5.327   2.270  0.1493 -0.8256 -0.0440
 7147TIP3    H245637   0.406   5.451   2.309  0.5208 -0.5088 -0.3222
 7148TIP3   OH245638   3.316   5.211   1.810 -0.0583  0.2046 -0.2953
 7148TIP3    H145639   3.330   5.140   1.873 -3.4688 -2.0684 -1.8107
 7148TIP3    H245640   3.383   5.199   1.744  0.6608 -0.3090  0.5105
 7149TIP3   OH245641   1.920   7.579   1.850 -0.1360  0.4397 -0.6511
 7149TIP3    H145642   1.899   7.561   1.758  0.7268  0.1027 -0.7971
 7149TIP3    H245643   2.003   7.534   1.864 -0.8510 -0.5220  0.6429
 7150TIP3   OH245644   5.584   2.120   2.478 -0.3694 -0.4535 -0.5732
 7150TIP3    H145645   5.576   2.175   2.556  0.3476  0.1118 -0.8855
 7150TIP3    H245646   5.609   2.181   2.408  0.6137 -1.1932 -0.8876
 7151TIP3   OH245647   0.903   5.409   1.958 -0.5423  0.0706  0.1194
 7151TIP3    H145648   0.812   5.439   1.966 -0.3904  0.2502  1.3967
 7151TIP3    H245649   0.934   5.404   2.048  0.8762  0.4966 -0.3252
 7152TIP3   OH245650   7.304   0.485   2.974 -0.7981  0.2818 -0.0285
 7152TIP3    H145651   7.220   0.527   2.990  0.1623  1.5487  2.2582
 7152TIP3    H245652   7.369   0.549   3.004  0.9148 -1.3214 -0.1139
 7153TIP3   OH245653   0.414   2.202   1.017 -0.0469 -0.3728 -0.2218
 7153TIP3    H145654   0.386   2.293   1.011  0.9019 -0.0694 -0.2747
 7153TIP3    H245655   0.363   2.156   0.950 -0.3215  0.1821 -0.3964
 7154TIP3   OH245656   6.563   2.122   3.007  0.1406 -0.6675  0.5810
 7154TIP3    H145657   6.516   2.140   3.088 -1.8683 -1.3162 -0.3767
 7154TIP3    H245658   6.549   2.029   2.991  0.1688 -0.4647 -0.7048
 7155TIP3   OH245659   3.939   5.361   0.832 -0.2355  0.2326  0.7585
 7155TIP3    H145660   3.976   5.306   0.763 -1.8067  1.0270 -0.7880
 7155TIP3    H245661   3.951   5.451   0.800 -1.0344  0.6159  1.5106
 7156TIP3   OH245662   6.471   3.092   1.264 -0.2863  0.7577 -0.1126
 7156TIP3    H145663   6.415   3.024   1.227 -1.0190  1.4836 -0.3707
 7156TIP3    H245664   6.468   3.164   1.201  0.1883  1.1743  0.3243
 7157TIP3   OH245665   4.409   1.541   1.922 -0.2628 -0.3869  0.3731
 7157TIP3    H145666   4.343   1.576   1.982  0.0196  0.2383  0.3287
 7157TIP3    H245667   4.394   1.446   1.922 -0.9350 -0.2841  0.6236
 7158TIP3   OH245668   6.103   6.948   1.401 -0.0933 -0.1350 -0.3863
 7158TIP3    H145669   6.039   6.934   1.470 -0.8579  2.3180 -0.5200
 7158TIP3    H245670   6.157   7.021   1.432  1.4787 -0.9395 -1.1038
 7159TIP3   OH245671   7.356   3.630   2.445 -0.4506 -0.7928 -0.5753
 7159TIP3    H145672   7.282   3.582   2.406 -3.0646  0.2840  2.5961
 7159TIP3    H245673   7.374   3.583   2.527  1.7986 -0.4581 -0.8295
 7160TIP3   OH245674   4.167   6.573   1.947 -0.2612  0.1384  0.1461
 7160TIP3    H145675   4.252   6.613   1.932 -0.8370  2.1984  1.7915
 7160TIP3    H245676   4.119   6.637   2.000 -1.9547 -2.0011  1.4227
 7161TIP3   OH245677   7.346   4.534   2.475  0.3700  0.2807  0.7890
 7161TIP3    H145678   7.263   4.486   2.484  1.0968 -1.0379  0.6113
 7161TIP3    H245679   7.383   4.501   2.393  1.5942  0.0616  1.4239
 7162TIP3   OH245680   1.874   3.797   0.866  0.3589  0.2258  0.5271
 7162TIP3    H145681   1.954   3.848   0.877  0.9834 -0.1733 -1.6181
 7162TIP3    H245682   1.904   3.709   0.843 -0.7191 -0.6236  2.1642
 7163TIP3   OH245683   0.673   7.615   1.133  0.0078 -0.0328  0.1610
 7163TIP3    H145684   0.588   7.650   1.106 -1.7207 -2.3159  2.2033
 7163TIP3    H245685   0.684   7.537   1.078  0.8572  0.3114 -0.1646
 7164TIP3   OH245686   5.235   2.424   2.154  0.7390  0.0433 -0.0689
 7164TIP3    H145687   5.169   2.359   2.132  1.2054 -0.8025  0.9620
 7164TIP3    H245688   5.230   2.434   2.249  2.8945 -0.9794  0.2188
 7165TIP3   OH245689   0.540   4.182   2.580 -0.2019  0.2170  0.1402
 7165TIP3    H145690   0.619   4.210   2.627  0.6760 -0.2753 -1.0038
 7165TIP3    H245691   0.473   4.175   2.649  1.0015 -0.3247  1.3066
 7166TIP3   OH245692   3.523   7.369   0.646  0.1724 -0.5197  0.5368
 7166TIP3    H145693   3.587   7.330   0.586  3.1956  1.7124  1.9897
 7166TIP3    H245694   3.491   7.295   0.698  0.8151 -1.8731 -0.9047
 7167TIP3   OH245695   6.405   4.584   1.955 -0.0131  0.3930  0.0014
 7167TIP3    H145696   6.479   4.628   1.912 -0.2074  0.2863 -0.4493
 7167TIP3    H245697   6.446   4.528   2.021  0.3581 -0.1574 -0.6809
 7168TIP3   OH245698   2.693   7.626   0.762  0.0142  0.0992  0.2971
 7168TIP3    H145699   2.617   7.573   0.739  0.9276 -1.6186  1.0390
 7168TIP3    H245700   2.657   7.713   0.781 -1.9594 -0.9933  1.9468
 7169TIP3   OH245701   5.431   2.511   3.035 -0.3239 -0.2661  0.0329
 7169TIP3    H145702   5.454   2.436   2.981 -0.4306  0.5485 -1.1935
 7169TIP3    H245703   5.377   2.475   3.105  1.2642 -1.5989  0.6310
 7170TIP3   OH245704   7.425   1.708   2.484  0.2768  0.4457  0.0970
 7170TIP3    H145705   7.443   1.615   2.471  0.6800  0.4608  0.5371
 7170TIP3    H245706   7.475   1.731   2.561 -0.2956  0.8898  0.3415
 7171TIP3   OH245707   0.388   5.084   1.063 -0.1000  0.2618  0.0557
 7171TIP3    H145708   0.464   5.091   1.121  1.3230 -0.8521 -1.5768
 7171TIP3    H245709   0.377   4.990   1.048 -0.6861  0.5047 -1.1543
 7172TIP3   OH245710   5.187   0.603   2.058 -0.2398  0.3112  0.2104
 7172TIP3    H145711   5.272   0.639   2.084 -0.9229  1.7271  0.5656
 7172TIP3    H245712   5.141   0.588   2.140  0.2922 -2.1660  0.1196
 7173TIP3   OH245713   5.343   3.834   0.430  0.1060  0.3758 -0.3806
 7173TIP3    H145714   5.310   3.921   0.409 -0.4372  1.2057  3.2405
 7173TIP3    H245715   5.268   3.789   0.470  0.4639 -1.7364 -1.8906
 7174TIP3   OH245716   4.457   6.561   0.722 -0.3446  0.8528  0.2624
 7174TIP3    H145717   4.498   6.475   0.724 -1.4937  0.2328 -0.8588
 7174TIP3    H245718   4.527   6.621   0.699  0.1336 -0.0641 -0.7956
 7175TIP3   OH245719   4.001   2.786   1.012  0.2101  0.1864 -1.0141
 7175TIP3    H145720   4.055   2.708   0.997 -1.4845 -1.2045 -0.2061
 7175TIP3    H245721   3.913   2.760   0.984 -0.2989  2.0226 -1.2724
 7176TIP3   OH245722   2.205   4.889   1.244 -0.2819  0.2936  0.4116
 7176TIP3    H145723   2.168   4.863   1.160  1.2362 -0.1427 -0.1387
 7176TIP3    H245724   2.155   4.967   1.269 -0.8411  0.3501 -0.8182
 7177TIP3   OH245725   0.664   0.246   1.565  0.3179 -0.2600 -0.1825
 7177TIP3    H145726   0.659   0.341   1.568 -1.9057 -0.3358  2.5114
 7177TIP3    H245727   0.741   0.224   1.617  3.4349 -0.0257 -4.2094
 7178TIP3   OH245728   1.783   6.762   0.715 -0.0700 -0.0185  0.2372
 7178TIP3    H145729   1.860   6.746   0.660 -1.1183 -1.4583 -0.8786
 7178TIP3    H245730   1.754   6.850   0.691  1.5823  0.8340  1.1655
 7179TIP3   OH245731   4.276   7.070   1.488  0.3295 -0.2537  0.5687
 7179TIP3    H145732   4.181   7.067   1.505  0.0267 -2.0476 -1.0079
 7179TIP3    H245733   4.315   7.020   1.560 -0.1509 -1.2012  0.1927
 7180TIP3   OH245734   4.407   2.144   0.553  0.2397  0.6218  0.1970
 7180TIP3    H145735   4.450   2.058   0.551  0.3643  0.6526 -2.5164
 7180TIP3    H245736   4.314   2.124   0.539  0.3460  0.9008 -1.0883
 7181TIP3   OH245737   6.791   1.083   0.885 -0.3775 -0.1556  0.0608
 7181TIP3    H145738   6.698   1.062   0.874 -0.5968  0.4735  0.6120
 7181TIP3    H245739   6.837   1.018   0.833 -1.1602  0.0073 -0.8547
 7182TIP3   OH245740   4.440   0.942   1.616  0.2062  0.0470  0.2641
 7182TIP3    H145741   4.380   1.017   1.612  0.3869  0.1870  0.1789
 7182TIP3    H245742   4.519   0.972   1.572 -0.2623 -0.6968 -1.1602
 7183TIP3   OH245743   0.465   3.591   1.007 -1.0209  0.3721 -0.3507
 7183TIP3    H145744   0.543   3.537   1.019 -2.2260 -1.0695  1.5727
 7183TIP3    H245745   0.446   3.586   0.913 -0.2982 -1.4482 -0.4377
 7184TIP3   OH245746   3.015   5.924   0.959  0.8506 -0.2892  0.2123
 7184TIP3    H145747   3.003   5.901   1.051  0.1321  0.4522  0.3179
 7184TIP3    H245748   3.088   5.985   0.958 -0.1159  0.9011  0.4970
 7185TIP3   OH245749   1.928   3.275   1.700 -0.3231  0.4723  0.3426
 7185TIP3    H145750   1.886   3.356   1.671 -0.9133  0.3241  0.7853
 7185TIP3    H245751   1.953   3.230   1.619 -0.1062  1.0322  0.0939
 7186TIP3   OH245752   0.883   1.944   2.074  0.2025 -0.9518  0.1115
 7186TIP3    H145753   0.832   1.975   1.999  0.7129  0.1964  0.2154
 7186TIP3    H245754   0.882   1.848   2.066 -2.1002 -0.9802  0.2287
 7187TIP3   OH245755   4.360   7.536   1.120  0.3093 -0.0022 -0.3577
 7187TIP3    H145756   4.403   7.618   1.094  1.2340  0.0975  1.3251
 7187TIP3    H245757   4.432   7.478   1.143 -0.4017 -0.1304  1.7070
 7188TIP3   OH245758   3.404   2.331   0.973 -0.1090  0.2860 -0.0339
 7188TIP3    H145759   3.329   2.277   0.999 -0.8347  0.7905 -1.0057
 7188TIP3    H245760   3.430   2.295   0.888  0.2697  0.5976 -0.0524
 7189TIP3   OH245761   6.140   1.424   3.216  0.3813 -0.0569  0.6597
 7189TIP3    H145762   6.072   1.443   3.281  2.0739 -0.1331  2.5592
 7189TIP3    H245763   6.177   1.510   3.193 -0.2158 -0.0285 -0.2496
 7190TIP3   OH245764   4.253   6.180   2.306 -0.1182 -0.6805  0.1241
 7190TIP3    H145765   4.346   6.166   2.324  0.0656  0.6032  0.2411
 7190TIP3    H245766   4.251   6.251   2.242 -1.0621 -0.0252  0.8576
 7191TIP3   OH245767   6.745   3.824   2.848  0.1052  0.0604  0.2995
 7191TIP3    H145768   6.763   3.917   2.832 -1.8354  0.5432  0.7033
 7191TIP3    H245769   6.665   3.824   2.900 -0.4701 -1.8833 -0.5192
 7192TIP3   OH245770   7.567   4.732   1.404 -0.1684  0.0726 -0.1731
 7192TIP3    H145771   7.656   4.739   1.369 -0.3277 -0.1971 -0.6444
 7192TIP3    H245772   7.554   4.813   1.453  1.2293 -0.9449  2.0320
 7193TIP3   OH245773   2.407   0.080   1.500 -0.4437 -0.1706  0.1535
 7193TIP3    H145774   2.362   0.159   1.531 -0.7231 -0.1404 -0.3232
 7193TIP3    H245775   2.386   0.014   1.566 -1.3665 -0.2126 -0.1707
 7194TIP3   OH245776   5.851   3.490   0.380  0.5705  0.0804  0.0298
 7194TIP3    H145777   5.757   3.504   0.374  0.6929  1.1480  0.3399
 7194TIP3    H245778   5.861   3.397   0.400 -0.4708  0.1930  1.1784
 7195TIP3   OH245779   1.398   2.226   1.537  0.8480  0.1073 -0.1035
 7195TIP3    H145780   1.487   2.258   1.523  1.1735  0.7075  2.6980
 7195TIP3    H245781   1.390   2.218   1.632 -2.1008  0.0664 -0.2564
 7196TIP3   OH245782   3.965   5.973   2.598 -0.6880 -0.3055  0.6670
 7196TIP3    H145783   4.020   6.019   2.661  1.2890 -0.9323 -0.5217
 7196TIP3    H245784   4.027   5.923   2.544 -2.4476 -1.1744 -0.6387
 7197TIP3   OH245785   1.916   5.764   1.714  0.6012 -0.0695 -0.2871
 7197TIP3    H145786   1.839   5.811   1.683  1.3804  0.3519 -1.6331
 7197TIP3    H245787   1.937   5.702   1.645  2.1234  0.5995 -0.4822
 7198TIP3   OH245788   1.642   7.645   2.178 -0.2561 -0.2067 -0.2276
 7198TIP3    H145789   1.664   7.552   2.169 -0.3885 -0.4053  1.2499
 7198TIP3    H245790   1.656   7.682   2.091 -1.8899 -1.9541 -1.3091
 7199TIP3   OH245791   5.453   4.139   1.156 -0.6637 -0.0297  0.0390
 7199TIP3    H145792   5.514   4.204   1.121 -1.2856  0.9488  0.7171
 7199TIP3    H245793   5.366   4.172   1.133 -1.0259 -0.1251  1.1738
 7200TIP3   OH245794   3.437   5.138   1.093  0.2373 -0.2875 -0.1836
 7200TIP3    H145795   3.470   5.166   1.178  0.7089  0.4420 -0.5961
 7200TIP3    H245796   3.342   5.134   1.104  0.3097 -0.3592  0.4235
 7201TIP3   OH245797   3.872   2.796   3.077  0.4220 -0.6204  0.2359
 7201TIP3    H145798   3.867   2.747   3.160  2.5547 -2.2455 -0.4952
 7201TIP3    H245799   3.795   2.768   3.028  0.3868 -1.4936  0.7638
 7202TIP3   OH245800   2.543   5.616   2.040  0.3407 -0.1477 -0.5864
 7202TIP3    H145801   2.590   5.645   2.117 -0.8146 -0.2186  0.1675
 7202TIP3    H245802   2.466   5.570   2.074  0.0973 -0.6599 -1.7689
 7203TIP3   OH245803   6.141   5.519   3.030  0.4148 -0.2569  0.2353
 7203TIP3    H145804   6.186   5.599   3.058  0.9133 -0.3967 -0.1474
 7203TIP3    H245805   6.190   5.448   3.072  0.9832 -0.4495 -0.7209
 7204TIP3   OH245806   3.812   4.772   3.383  0.3122  0.5491 -0.4430
 7204TIP3    H145807   3.770   4.713   3.321 -0.5354  0.5252  0.1432
 7204TIP3    H245808   3.756   4.849   3.385  0.7172  0.8448 -0.2293
 7205TIP3   OH245809   0.163   0.916   1.587  0.0598  0.0822 -0.2205
 7205TIP3    H145810   0.136   0.993   1.537 -0.3929 -0.6598 -1.1468
 7205TIP3    H245811   0.259   0.918   1.584  0.0588 -0.5658 -2.1363
 7206TIP3   OH245812   0.123   7.569   0.977  0.2531 -0.2140 -0.1143
 7206TIP3    H145813   0.143   7.539   1.066 -1.1610  1.5916  0.9040
 7206TIP3    H245814   0.097   7.661   0.989  2.8179  1.0299 -2.7832
 7207TIP3   OH245815   4.259   6.740   1.500  0.3012 -0.0862 -0.5620
 7207TIP3    H145816   4.309   6.709   1.425  2.7232  2.3762 -0.1723
 7207TIP3    H245817   4.177   6.772   1.463 -0.0764 -2.0956 -1.5956
 7208TIP3   OH245818   4.166   2.737   2.299 -0.1252 -0.3511  0.2502
 7208TIP3    H145819   4.134   2.654   2.262  0.6426 -0.0436 -1.1833
 7208TIP3    H245820   4.216   2.777   2.228  0.2453  0.9477  1.2057
 7209TIP3   OH245821   4.348   6.095   0.479 -0.1652  0.2162  0.3794
 7209TIP3    H145822   4.419   6.053   0.431  0.4992  1.0503  0.6040
 7209TIP3    H245823   4.281   6.027   0.488  0.5712 -0.5604  0.0990
 7210TIP3   OH245824   5.456   0.687   2.103 -0.9195 -0.4600  0.7941
 7210TIP3    H145825   5.453   0.671   2.198  1.8142 -0.0061  1.0358
 7210TIP3    H245826   5.542   0.654   2.076 -2.2326 -1.9730 -1.8653
 7211TIP3   OH245827   6.086   0.636   3.076  0.0879 -0.1558  0.1158
 7211TIP3    H145828   6.024   0.651   3.148 -1.0405  0.0374 -0.8576
 7211TIP3    H245829   6.111   0.724   3.048 -0.6855 -0.1841 -0.7151
 7212TIP3   OH245830   6.588   4.247   2.848 -0.0872 -0.3120  0.0871
 7212TIP3    H145831   6.638   4.193   2.787  1.2581 -0.1452  0.9876
 7212TIP3    H245832   6.573   4.190   2.924 -2.0280 -0.6261 -0.4926
 7213TIP3   OH245833   3.371   2.340   1.894 -0.2992 -0.4667  0.3629
 7213TIP3    H145834   3.289   2.374   1.931 -0.1777 -0.9537  1.1027
 7213TIP3    H245835   3.436   2.409   1.911 -0.0539 -1.0291  1.8478
 7214TIP3   OH245836   0.276   2.868   0.694 -0.1775  0.8825 -0.2889
 7214TIP3    H145837   0.282   2.813   0.772 -0.4749 -0.4648 -1.1806
 7214TIP3    H245838   0.314   2.815   0.624 -0.6100  1.7539 -1.2112
 7215TIP3   OH245839   5.224   5.842   1.574 -0.2042  0.2653  0.0590
 7215TIP3    H145840   5.200   5.827   1.666 -0.0681 -0.7220 -0.0665
 7215TIP3    H245841   5.188   5.767   1.527  0.8906  0.0860 -0.5036
 7216TIP3   OH245842   4.557   7.351   0.445  0.0177  0.8041  0.5580
 7216TIP3    H145843   4.619   7.281   0.424  0.1870  1.4795 -1.4210
 7216TIP3    H245844   4.483   7.307   0.485  0.9187 -0.2662  1.0914
 7217TIP3   OH245845   1.414   4.957   1.809 -0.2442 -0.3912 -0.2814
 7217TIP3    H145846   1.364   4.995   1.737 -2.4349  1.1429  1.8476
 7217TIP3    H245847   1.502   4.992   1.798 -1.1265  1.8454 -0.8855
 7218TIP3   OH245848   2.565   1.191   1.313 -0.0418 -0.1802 -0.2164
 7218TIP3    H145849   2.550   1.182   1.219 -0.6794  1.0814 -0.2575
 7218TIP3    H245850   2.624   1.266   1.320 -0.7625  0.3406  0.4289
 7219TIP3   OH245851   0.169   2.432   2.288  0.4378  0.2363 -0.5261
 7219TIP3    H145852   0.159   2.426   2.383  0.9159  1.5466 -0.3737
 7219TIP3    H245853   0.096   2.380   2.253  0.5514 -0.6683  0.5466
 7220TIP3   OH245854   6.593   6.707   1.212 -0.0703 -0.4093  0.2136
 7220TIP3    H145855   6.518   6.741   1.163  0.2406 -0.3723 -0.2435
 7220TIP3    H245856   6.667   6.759   1.180  0.1327 -0.3805  0.7328
 7221TIP3   OH245857   7.222   0.205   0.703  0.2944 -0.5299 -0.6928
 7221TIP3    H145858   7.228   0.220   0.798  0.6424 -0.5681 -0.7075
 7221TIP3    H245859   7.288   0.263   0.666 -0.1806 -0.1515 -0.9523
 7222TIP3   OH245860   4.439   6.710   2.785  0.5136  0.2679  0.2245
 7222TIP3    H145861   4.425   6.756   2.868  1.2499  0.3621  0.2959
 7222TIP3    H245862   4.458   6.620   2.811  1.5669  0.4747  0.2056
 7223TIP3   OH245863   5.360   5.812   2.189  0.3464 -0.1304 -0.6107
 7223TIP3    H145864   5.277   5.824   2.234  0.6703 -0.5992  0.1335
 7223TIP3    H245865   5.363   5.882   2.125  0.0543  0.8047  0.3724
 7224TIP3   OH245866   2.049   6.687   1.900  0.4254  0.4499 -0.0693
 7224TIP3    H145867   1.957   6.705   1.880  0.5365  0.3583 -0.6892
 7224TIP3    H245868   2.047   6.603   1.946  0.2323  0.2507 -0.4369
 7225TIP3   OH245869   0.397   7.138   2.943 -0.3302 -0.1035  0.5853
 7225TIP3    H145870   0.311   7.132   2.985 -0.5830 -1.0930 -0.0406
 7225TIP3    H245871   0.382   7.110   2.853  0.6605 -0.3792  0.4874
 7226TIP3   OH245872   3.672   2.276   2.116  0.0956  0.0288  0.3074
 7226TIP3    H145873   3.675   2.230   2.032 -0.5038 -2.6862  1.6655
 7226TIP3    H245874   3.603   2.341   2.106  0.0615 -0.2160 -1.2811
 7227TIP3   OH245875   2.687   0.572   2.622  0.0795  0.6283 -0.1178
 7227TIP3    H145876   2.775   0.607   2.608 -0.0194  1.3746  0.9975
 7227TIP3    H245877   2.684   0.493   2.568  1.6511  0.2554  0.2835
 7228TIP3   OH245878   0.164   7.243   3.058  0.0549 -0.0365 -0.4239
 7228TIP3    H145879   0.083   7.261   3.105  0.6657  0.0256  0.6318
 7228TIP3    H245880   0.233   7.278   3.115  0.9045 -1.1905 -0.7244
 7229TIP3   OH245881   6.498   2.772   1.860  0.0025 -0.2663  0.1606
 7229TIP3    H145882   6.582   2.788   1.903 -0.1207 -1.3091  0.8251
 7229TIP3    H245883   6.515   2.698   1.802 -0.4995 -0.6096  0.4454
 7230TIP3   OH245884   0.495   1.148   0.594  0.1393  0.4175 -0.1208
 7230TIP3    H145885   0.590   1.137   0.603  0.2571  1.9389  0.8878
 7230TIP3    H245886   0.484   1.241   0.575 -1.1215  0.0973 -1.0662
 7231TIP3   OH245887   0.635   0.612   2.844  0.1385 -0.2353 -0.0069
 7231TIP3    H145888   0.649   0.683   2.782  0.8951 -0.0760  0.3342
 7231TIP3    H245889   0.640   0.653   2.930  0.1270 -0.6211  0.1824
 7232TIP3   OH245890   0.826   4.871   1.432  0.3252  0.4080  0.0520
 7232TIP3    H145891   0.897   4.807   1.436 -0.9146 -0.9645  1.9814
 7232TIP3    H245892   0.754   4.825   1.390  0.6892  2.0059 -2.5355
 7233TIP3   OH245893   0.369   0.443   1.065 -0.5416  0.5189  0.4127
 7233TIP3    H145894   0.338   0.361   1.026 -0.4167 -0.0840  1.5350
 7233TIP3    H245895   0.319   0.511   1.020 -2.1982 -0.3137  0.9163
 7234TIP3   OH245896   5.475   5.175   1.814 -0.7751 -0.2736  0.2319
 7234TIP3    H145897   5.446   5.206   1.728 -0.0429 -0.1311  0.0332
 7234TIP3    H245898   5.489   5.081   1.803 -1.6833 -0.4476  0.4770
 7235TIP3   OH245899   1.677   7.318   1.081 -0.0635  0.3928 -0.3836
 7235TIP3    H145900   1.612   7.279   1.022  0.4717  0.8304 -1.2761
 7235TIP3    H245901   1.632   7.392   1.121  0.0911  1.1203 -1.5254
 7236TIP3   OH245902   1.860   1.770   1.911 -0.3019 -0.1440  0.1758
 7236TIP3    H145903   1.837   1.698   1.969  3.4149 -0.1493  1.9694
 7236TIP3    H245904   1.928   1.734   1.854  1.6499  1.8212  1.1216
 7237TIP3   OH245905   6.471   3.377   1.719  0.1249 -0.0946  0.0490
 7237TIP3    H145906   6.494   3.357   1.628 -1.2027 -0.2822 -0.2660
 7237TIP3    H245907   6.555   3.396   1.761  0.7276  0.3803 -1.3043
 7238TIP3   OH245908   6.016   7.543   2.331 -0.1792 -0.5489 -0.0336
 7238TIP3    H145909   6.063   7.482   2.389  0.5939 -0.0097 -0.0772
 7238TIP3    H245910   6.012   7.624   2.382  1.5030  0.2839 -1.1266
 7239TIP3   OH245911   6.925   1.051   1.923  0.3579 -0.5506  0.3860
 7239TIP3    H145912   6.866   1.017   1.856  0.2881 -1.4606  0.8806
 7239TIP3    H245913   6.951   1.137   1.891  0.1955 -0.8925 -0.7149
 7240TIP3   OH245914   6.618   2.433   1.185  0.3874  0.2867  0.1473
 7240TIP3    H145915   6.688   2.468   1.129  1.1165 -1.2333  0.0699
 7240TIP3    H245916   6.597   2.348   1.148 -0.7380  0.2385  0.8465
 7241TIP3   OH245917   0.863   5.897   1.005  0.0292  0.1187 -0.1600
 7241TIP3    H145918   0.924   5.881   0.934  0.7873  1.4999  0.1430
 7241TIP3    H245919   0.832   5.987   0.990  0.5167  0.5850  1.4479
 7242TIP3   OH245920   4.014   3.357   2.897  0.7520 -0.0561  0.0569
 7242TIP3    H145921   3.947   3.416   2.931  0.0974  0.1874 -1.6052
 7242TIP3    H245922   4.024   3.381   2.805  2.1903 -0.9644 -0.0541
 7243TIP3   OH245923   6.462   2.223   1.943 -0.4484  0.2844  0.2272
 7243TIP3    H145924   6.509   2.155   1.990  1.2711  1.3219  0.1087
 7243TIP3    H245925   6.372   2.191   1.936 -0.1579 -1.0080  1.9732
 7244TIP3   OH245926   0.196   3.291   3.080  0.3004 -0.4147  0.4676
 7244TIP3    H145927   0.285   3.270   3.111  0.4501 -0.2909  0.1290
 7244TIP3    H245928   0.168   3.364   3.135  0.8282  0.2492 -0.1218
 7245TIP3   OH245929   7.106   0.244   3.504  0.1179 -0.1134 -0.1885
 7245TIP3    H145930   7.092   0.316   3.565  0.4525  0.1782 -0.4489
 7245TIP3    H245931   7.029   0.246   3.446  0.0615 -0.0511 -0.1116
 7246TIP3   OH245932   6.150   3.901   1.312 -0.1979  0.4132 -1.1671
 7246TIP3    H145933   6.152   3.906   1.408 -0.2224 -1.4207 -1.0332
 7246TIP3    H245934   6.230   3.944   1.284  1.0943 -1.1975 -0.1540
 7247TIP3   OH245935   0.324   5.486   0.885  0.2839  0.8699  0.1421
 7247TIP3    H145936   0.419   5.485   0.895  0.2439 -0.2949  0.5015
 7247TIP3    H245937   0.310   5.501   0.792  0.8330  0.3957 -0.0252
 7248TIP3   OH245938   4.734   4.158   1.113 -0.0896  0.2938 -0.1518
 7248TIP3    H145939   4.746   4.234   1.170 -1.7173  0.0245  0.6095
 7248TIP3    H245940   4.807   4.100   1.135 -0.4657  0.3692  1.3818
 7249TIP3   OH245941   5.463   3.944   2.536  0.4662 -0.1856 -0.5790
 7249TIP3    H145942   5.540   3.964   2.589 -0.9397 -1.2684  2.0557
 7249TIP3    H245943   5.463   3.849   2.529 -1.7439 -0.4253  1.4382
 7250TIP3   OH245944   6.704   0.324   1.849 -0.0491  0.3993  0.3262
 7250TIP3    H145945   6.670   0.389   1.910 -2.1343 -0.9705  0.7199
 7250TIP3    H245946   6.691   0.240   1.893  1.5945 -0.3993 -0.6021
 7251TIP3   OH245947   6.643   0.260   2.390 -0.1587 -0.0924  0.0791
 7251TIP3    H145948   6.634   0.347   2.353  0.0681 -0.3688 -0.6444
 7251TIP3    H245949   6.682   0.208   2.320 -0.4709 -0.8194  0.4331
 7252TIP3   OH245950   0.910   4.218   0.885  0.4475 -0.2896  0.1841
 7252TIP3    H145951   0.906   4.134   0.929 -1.2266 -0.5740 -0.4288
 7252TIP3    H245952   0.976   4.207   0.817  0.5896 -0.9455  0.4319
 7253TIP3   OH245953   0.925   0.656   1.501  0.6683  0.1527 -0.2916
 7253TIP3    H145954   0.966   0.588   1.554 -0.2657 -0.3739 -0.2295
 7253TIP3    H245955   0.997   0.693   1.449  1.6808  0.9293  1.5739
 7254TIP3   OH245956   5.239   0.411   2.723  0.5301 -0.1892 -0.0885
 7254TIP3    H145957   5.280   0.377   2.644  1.4195 -1.6432  0.9397
 7254TIP3    H245958   5.290   0.373   2.795  0.2880  1.7663  1.1914
 7255TIP3   OH245959   6.762   1.871   2.400 -0.4504 -0.8935  0.0734
 7255TIP3    H145960   6.801   1.861   2.313  0.1719 -0.7046  0.3241
 7255TIP3    H245961   6.814   1.814   2.457 -0.1612 -0.2029  0.5218
 7256TIP3   OH245962   2.808   6.703   0.877  0.3554 -0.5783 -0.3741
 7256TIP3    H145963   2.796   6.699   0.782  0.8872 -1.8541 -0.4042
 7256TIP3    H245964   2.900   6.729   0.888  1.5445 -4.1542 -0.3212
 7257TIP3   OH245965   1.908   4.767   1.485  0.1920  0.0755 -0.0637
 7257TIP3    H145966   1.992   4.785   1.527  0.0448 -0.2707  0.3876
 7257TIP3    H245967   1.903   4.672   1.480  0.2483  0.1083 -0.9623
 7258TIP3   OH245968   2.725   0.103   0.501  0.3148 -0.5698 -0.1551
 7258TIP3    H145969   2.783   0.032   0.528 -1.2322 -1.3347  1.4419
 7258TIP3    H245970   2.759   0.180   0.546  1.0469 -0.6446 -0.5713
 7259TIP3   OH245971   1.537   1.058   2.378  0.3405  0.4784  0.1440
 7259TIP3    H145972   1.607   1.115   2.348  0.3353 -0.0885 -1.0028
 7259TIP3    H245973   1.482   1.044   2.301  1.0580 -2.1141 -0.0094
 7260TIP3   OH245974   6.789   1.991   0.704  0.2110  0.5572  0.3194
 7260TIP3    H145975   6.706   2.033   0.685  0.2525  0.0569 -1.0463
 7260TIP3    H245976   6.853   2.063   0.705  0.3166  0.5764 -2.1818
 7261TIP3   OH245977   0.150   6.094   1.532 -0.0567 -0.3499 -0.7774
 7261TIP3    H145978   0.246   6.100   1.532 -0.0556  0.3465 -2.4950
 7261TIP3    H245979   0.126   6.096   1.624  1.4690  2.2064 -0.3347
 7262TIP3   OH245980   6.242   5.767   3.023 -0.1717  0.6184  0.1562
 7262TIP3    H145981   6.281   5.828   3.086  1.3402 -0.4724  0.3403
 7262TIP3    H245982   6.315   5.746   2.964 -1.2964  0.8393 -1.3654
 7263TIP3   OH245983   2.729   1.816   1.223  0.2955  0.0259  0.2115
 7263TIP3    H145984   2.659   1.882   1.221  1.1007  0.9326  1.0263
 7263TIP3    H245985   2.750   1.806   1.316  0.5629 -0.9840  0.0531
 7264TIP3   OH245986   2.124   5.380   2.710 -0.4997  0.1565 -0.4894
 7264TIP3    H145987   2.137   5.315   2.779  0.7609  0.9904  0.0942
 7264TIP3    H245988   2.209   5.386   2.666  0.1156  2.8686  0.8207
 7265TIP3   OH245989   7.481   1.156   7.912  0.0215 -0.1786 -0.1896
 7265TIP3    H145990   7.482   1.170   7.818  3.4267  0.8759 -0.1426
 7265TIP3    H245991   7.540   1.223   7.947 -2.0044  0.2004  2.8574
 7266TIP3   OH245992   3.269   0.550   2.416 -0.0144  0.2689  0.5759
 7266TIP3    H145993   3.245   0.467   2.374  0.0570  1.0145 -0.9995
 7266TIP3    H245994   3.243   0.538   2.508  0.6748 -1.7560  0.5637
 7267TIP3   OH245995   3.396   5.667   1.362  0.5378 -0.4449  0.0558
 7267TIP3    H145996   3.391   5.750   1.315  1.0514  0.2045  1.0844
 7267TIP3    H245997   3.448   5.688   1.440 -0.6578 -1.3637  1.1275
 7268TIP3   OH245998   7.575   7.006   2.297  0.0243 -0.1049 -0.1063
 7268TIP3    H145999   7.667   7.015   2.322  0.0033  0.1187 -0.1014
 7268TIP3    H246000   7.578   6.967   2.209  0.2093  1.7002 -0.9639
 7269TIP3   OH246001   1.409   3.180   1.420  0.4245  0.5065 -0.0847
 7269TIP3    H146002   1.345   3.164   1.489  0.5947  0.1885  0.0007
 7269TIP3    H246003   1.380   3.124   1.348  0.5128  0.4879 -0.1054
 7270TIP3   OH246004   0.354   3.920   0.716  0.3260 -0.0838 -0.4262
 7270TIP3    H146005   0.285   3.974   0.675  0.8017 -0.4333 -1.7111
 7270TIP3    H246006   0.306   3.861   0.774 -0.2194  1.7021  1.0730
 7271TIP3   OH246007   1.106   7.074   2.194  0.2076 -0.0138  0.4524
 7271TIP3    H146008   1.099   7.154   2.246  2.3506  0.2302  0.4642
 7271TIP3    H246009   1.183   7.088   2.139  0.4763 -1.9501  0.2651
 7272TIP3   OH246010   6.141   2.858   1.284 -0.8459 -0.4260 -0.0273
 7272TIP3    H146011   6.234   2.862   1.305 -1.2496  0.2619  1.8501
 7272TIP3    H246012   6.105   2.795   1.347 -1.8300  0.1432 -0.0050
 7273TIP3   OH246013   5.354   0.344   2.482  0.0183 -0.1309 -0.1952
 7273TIP3    H146014   5.436   0.305   2.451 -0.0782 -0.5814  0.1092
 7273TIP3    H246015   5.293   0.331   2.409  0.0596 -0.3223 -0.1983
 7274TIP3   OH246016   0.739   1.107   3.386  0.1732  0.2970  0.4742
 7274TIP3    H146017   0.797   1.042   3.424 -0.3758 -0.1674  0.5393
 7274TIP3    H246018   0.797   1.178   3.357  1.3679 -1.9658 -3.4188
 7275TIP3   OH246019   1.244   7.082   1.193 -0.0560 -0.1004 -0.0373
 7275TIP3    H146020   1.231   7.149   1.125  1.7922  0.2411 -0.0932
 7275TIP3    H246021   1.330   7.045   1.174 -0.3416 -1.3497  0.9985
 7276TIP3   OH246022   0.899   0.647   1.083 -0.0309  0.0377  0.2733
 7276TIP3    H146023   0.873   0.655   0.991 -0.1269 -0.9277  0.2114
 7276TIP3    H246024   0.994   0.652   1.082 -0.0184 -0.2340  0.0911
 7277TIP3   OH246025   0.676   3.427   0.994  0.2931  0.1452 -0.1726
 7277TIP3    H146026   0.722   3.345   1.012  1.0904  0.5805 -0.1750
 7277TIP3    H246027   0.644   3.417   0.905  2.5299  0.7734 -1.1192
 7278TIP3   OH246028   2.783   7.155   1.974 -0.4500  0.2245  0.9281
 7278TIP3    H146029   2.708   7.200   1.934 -1.7487 -1.2390  1.5946
 7278TIP3    H246030   2.835   7.126   1.899 -0.1217  1.9002  0.4708
 7279TIP3   OH246031   6.679   1.971   1.241 -0.1362  0.1447 -0.4010
 7279TIP3    H146032   6.725   2.054   1.252  0.1039 -0.2313  1.9762
 7279TIP3    H246033   6.595   1.995   1.202 -0.0610  1.5191  0.2283
 7280TIP3   OH246034   5.299   1.001   1.654 -0.1388  0.0820 -0.6262
 7280TIP3    H146035   5.332   0.932   1.597  0.3180 -0.0046 -0.2578
 7280TIP3    H246036   5.287   0.959   1.739 -3.1205 -0.4361 -1.1955
 7281TIP3   OH246037   1.141   6.784   1.615  0.3244 -0.9586  0.4210
 7281TIP3    H146038   1.099   6.733   1.684  1.4405  0.0034  1.8748
 7281TIP3    H246039   1.088   6.864   1.608 -0.0896 -1.2835 -0.2210
 7282TIP3   OH246040   5.233   5.159   1.189 -0.9296 -0.0567 -0.2115
 7282TIP3    H146041   5.214   5.174   1.096 -0.5808 -0.3296 -0.3282
 7282TIP3    H246042   5.321   5.123   1.190 -0.5597  0.8537  0.3085
 7283TIP3   OH246043   4.026   4.150   2.427  0.4404 -0.0059  0.4956
 7283TIP3    H146044   4.055   4.059   2.421 -0.4653 -0.2242 -1.2723
 7283TIP3    H246045   3.978   4.165   2.346  0.4465  2.0187  0.8182
 7284TIP3   OH246046   6.497   5.621   2.553 -0.2145  0.3486 -0.3436
 7284TIP3    H146047   6.581   5.580   2.530 -0.1805  0.4936 -0.4774
 7284TIP3    H246048   6.440   5.547   2.576  0.4297  0.3406  1.3535
 7285TIP3   OH246049   3.173   0.050   0.706 -0.3334  0.1126  0.2861
 7285TIP3    H146050   3.241  -0.010   0.675 -1.7450 -0.8705 -1.0902
 7285TIP3    H246051   3.179   0.046   0.802 -0.4542 -2.3841  0.2573
 7286TIP3   OH246052   4.902   4.527   1.553  0.2127  0.1343 -0.3689
 7286TIP3    H146053   4.947   4.583   1.615  1.7079 -0.0669 -1.2208
 7286TIP3    H246054   4.861   4.587   1.491  2.2044  0.3592 -1.5553
 7287TIP3   OH246055   7.631   2.827   0.475 -0.0730 -0.2101 -0.5265
 7287TIP3    H146056   7.642   2.886   0.550  1.2612 -1.9826  0.7626
 7287TIP3    H246057   7.546   2.852   0.438 -0.6704  0.9053  1.4238
 7288TIP3   OH246058   0.168   1.656   2.829  0.4749 -0.2620 -0.5887
 7288TIP3    H146059   0.220   1.703   2.764  1.6081 -2.2178 -1.1782
 7288TIP3    H246060   0.091   1.626   2.781  1.1023 -1.3397 -0.9386
 7289TIP3   OH246061   3.152   3.030   1.758  0.8158 -0.6802 -0.2035
 7289TIP3    H146062   3.191   3.072   1.835 -0.3544 -0.9566  0.5756
 7289TIP3    H246063   3.159   3.095   1.689 -0.1865  0.5111  0.7559
 7290TIP3   OH246064   6.961   1.350   2.146  0.5894 -0.1612  0.1157
 7290TIP3    H146065   7.056   1.362   2.140  0.7917 -1.2054  0.9789
 7290TIP3    H246066   6.930   1.356   2.056  1.4717  0.2012 -0.1742
 7291TIP3   OH246067   0.383   0.317   1.748 -0.1678 -0.2748  0.4454
 7291TIP3    H146068   0.380   0.362   1.832  0.0042 -1.3186  1.0240
 7291TIP3    H246069   0.476   0.310   1.727 -0.2334  1.7604 -0.8476
 7292TIP3   OH246070   0.299   4.846   2.203 -0.5471  0.2192  0.0796
 7292TIP3    H146071   0.262   4.786   2.139  1.4517 -0.9426 -0.0457
 7292TIP3    H246072   0.233   4.851   2.272 -1.0825 -1.5545 -0.2620
 7293TIP3   OH246073   6.694   3.187   1.935 -0.2490 -0.0661  0.2476
 7293TIP3    H146074   6.626   3.126   1.908  0.7971 -1.0560 -0.2707
 7293TIP3    H246075   6.750   3.137   1.995  0.7018  0.3191 -0.2809
 7294TIP3   OH246076   1.594   5.579   3.095  0.2728  0.1124 -0.2170
 7294TIP3    H146077   1.523   5.568   3.158 -0.0408  3.4795  0.1787
 7294TIP3    H246078   1.674   5.562   3.145 -0.1015 -1.8019 -0.1856
 7295TIP3   OH246079   6.073   5.252   2.848  0.2158 -0.1288 -0.0050
 7295TIP3    H146080   6.165   5.226   2.856  0.4969  0.7488 -0.3155
 7295TIP3    H246081   6.031   5.216   2.926  0.8164 -0.5482  0.1315
 7296TIP3   OH246082   3.558   7.639   1.635 -0.5077 -0.2827  0.5645
 7296TIP3    H146083   3.539   7.733   1.630  0.4669 -0.0594  0.7768
 7296TIP3    H246084   3.472   7.597   1.636 -1.0335  0.7256  2.7913
 7297TIP3   OH246085   7.564   2.120   2.730  0.0916  0.5827  0.1067
 7297TIP3    H146086   7.609   2.203   2.746 -0.5896  1.1205 -0.6482
 7297TIP3    H246087   7.499   2.115   2.801  1.6791 -0.4820  1.5402
 7298TIP3   OH246088   7.304   2.341   1.197 -0.1576  0.3719 -0.5205
 7298TIP3    H146089   7.277   2.269   1.254  1.0320  0.5002  0.2501
 7298TIP3    H246090   7.399   2.335   1.194 -0.0245  1.9425 -0.3653
 7299TIP3   OH246091   1.496   3.549   1.808 -0.3865 -0.0225  0.2511
 7299TIP3    H146092   1.560   3.479   1.792  0.5836  0.5643  1.3370
 7299TIP3    H246093   1.412   3.511   1.784  0.2885 -1.0436 -0.6138
 7300TIP3   OH246094   4.089   4.145   1.091 -0.1644  0.0295 -0.6631
 7300TIP3    H146095   4.017   4.206   1.080  0.5597  1.1829  0.6720
 7300TIP3    H246096   4.148   4.188   1.152  0.6812 -1.7388 -0.1514
 7301TIP3   OH246097   6.879   1.383   3.493 -0.6457  0.0193 -0.2437
 7301TIP3    H146098   6.916   1.464   3.457  1.9643 -0.6916  0.6584
 7301TIP3    H246099   6.784   1.396   3.486 -0.3165  2.2832 -1.9961
 7302TIP3   OH246100   5.282   5.503   1.273  0.2605 -0.1925  0.2029
 7302TIP3    H146101   5.315   5.416   1.250  0.8654  0.0633  0.0852
 7302TIP3    H246102   5.347   5.564   1.236  0.3632  0.2820  1.1449
 7303TIP3   OH246103   5.607   7.473   1.222  0.7963 -0.5719 -0.0328
 7303TIP3    H146104   5.629   7.524   1.300  0.6962 -2.1070  1.0514
 7303TIP3    H246105   5.685   7.479   1.167  1.2146 -0.1918  0.5851
 7304TIP3   OH246106   6.265   5.063   3.384 -0.0882  0.1242 -0.0804
 7304TIP3    H146107   6.242   4.975   3.356 -1.3111  0.9332 -1.7744
 7304TIP3    H246108   6.220   5.121   3.323  0.0594  1.9574  1.4287
 7305TIP3   OH246109   1.421   1.071   1.883  0.3837  0.2020 -0.1525
 7305TIP3    H146110   1.326   1.085   1.881  0.3056 -0.1802  0.5374
 7305TIP3    H246111   1.440   1.025   1.801 -0.2277 -0.8563  0.2782
 7306TIP3   OH246112   6.715   6.414   2.365 -0.0754 -0.3676  0.0627
 7306TIP3    H146113   6.726   6.449   2.277 -0.6119  1.0678  0.5269
 7306TIP3    H246114   6.693   6.322   2.352 -2.5082  0.3219 -1.4619
 7307TIP3   OH246115   6.042   3.268   0.836  0.5321  0.1248  0.2969
 7307TIP3    H146116   5.983   3.193   0.829  0.7983 -0.1327  0.8384
 7307TIP3    H246117   6.054   3.297   0.745  0.6140 -0.6265  0.0672
 7308TIP3   OH246118   1.336   6.782   1.431  0.7157 -0.1331  0.6468
 7308TIP3    H146119   1.270   6.797   1.499  0.9100 -1.1313  1.0716
 7308TIP3    H246120   1.355   6.869   1.396 -1.5376  0.0940 -0.1659
 7309TIP3   OH246121   7.033   7.313   3.578  0.4143  0.1494 -0.3647
 7309TIP3    H146122   7.104   7.298   3.640  0.5708  1.5790 -0.1520
 7309TIP3    H246123   7.059   7.266   3.499  1.0102 -0.3172  0.0995
 7310TIP3   OH246124   7.209   6.399   3.187  1.0245  0.1985  0.1378
 7310TIP3    H146125   7.118   6.425   3.174  0.3984 -2.4325 -1.3943
 7310TIP3    H246126   7.204   6.332   3.255  1.7477 -0.3009 -0.2985
 7311TIP3   OH246127   6.474   4.910   1.146 -0.6139 -0.4136 -0.5873
 7311TIP3    H146128   6.533   4.834   1.149 -2.0135 -1.5120  1.1719
 7311TIP3    H246129   6.390   4.876   1.174 -1.4684  1.6667 -0.4404
 7312TIP3   OH246130   6.154   5.315   2.480 -0.4839  0.6058 -0.7828
 7312TIP3    H146131   6.061   5.311   2.455 -0.4369  0.7779 -0.9834
 7312TIP3    H246132   6.181   5.223   2.483 -0.9022  0.5002  0.1920
 7313TIP3   OH246133   6.250   7.593   2.094  0.6337 -0.0654 -0.1916
 7313TIP3    H146134   6.285   7.662   2.151  2.1576 -0.2754 -0.8156
 7313TIP3    H246135   6.272   7.622   2.006  1.2732 -1.3266 -0.4632
 7314TIP3   OH246136   0.339   0.824   1.307 -0.2571 -0.5209  0.4934
 7314TIP3    H146137   0.416   0.834   1.251 -0.5514 -0.2373  0.1350
 7314TIP3    H246138   0.266   0.848   1.251 -0.4700  0.8342  1.3105
 7315TIP3   OH246139   7.302   2.600   2.709 -0.3135  0.4394  0.4709
 7315TIP3    H146140   7.334   2.559   2.790 -1.1881  0.3607  0.7890
 7315TIP3    H246141   7.347   2.684   2.706  1.0329 -0.2699  0.1312
 7316TIP3   OH246142   3.966   2.046   2.447 -0.5399  0.1393  0.4209
 7316TIP3    H146143   3.970   2.066   2.541  0.1985 -1.2142  0.7064
 7316TIP3    H246144   3.898   2.104   2.413  1.3908  3.0553  1.1580
 7317TIP3   OH246145   0.189   3.524   0.980 -0.1605  0.3039 -0.0620
 7317TIP3    H146146   0.104   3.497   1.012 -0.6679  2.5159  0.6570
 7317TIP3    H246147   0.250   3.502   1.051  0.3403 -3.2239 -1.4023
 7318TIP3   OH246148   4.969   0.591   1.891 -0.8583 -0.2205  0.0720
 7318TIP3    H146149   5.033   0.589   1.962 -0.2189  1.1584 -0.4408
 7318TIP3    H246150   4.896   0.643   1.926 -0.7580  0.0432 -0.1159
 7319TIP3   OH246151   0.729   5.405   2.323 -0.2136 -0.3568  0.0331
 7319TIP3    H146152   0.751   5.424   2.414  0.5033 -1.7783  0.1859
 7319TIP3    H246153   0.712   5.311   2.321 -1.1535 -0.1897 -1.1352
 7320TIP3   OH246154   6.041   5.852   1.480  0.0509  0.2627  0.0027
 7320TIP3    H146155   5.989   5.929   1.455 -0.5294  0.0573  0.5540
 7320TIP3    H246156   6.005   5.826   1.565  0.3179 -0.5535 -0.1317
 7321TIP3   OH246157   0.308   1.838   0.914  0.2992 -0.3264  0.0713
 7321TIP3    H146158   0.261   1.898   0.856 -2.9381 -1.9034  0.8266
 7321TIP3    H246159   0.378   1.890   0.952 -1.5324  2.5905 -0.2936
 7322TIP3   OH246160   3.977   6.806   1.375 -0.1753 -0.3145 -0.3916
 7322TIP3    H146161   4.027   6.864   1.317 -0.9682  0.3575 -0.4133
 7322TIP3    H246162   3.949   6.862   1.447  0.9374 -1.1713  0.7584
 7323TIP3   OH246163   1.196   0.793   1.456 -0.4771  0.1277 -0.1713
 7323TIP3    H146164   1.278   0.744   1.460  0.4937  1.4242 -2.3848
 7323TIP3    H246165   1.198   0.852   1.531  0.9439  0.5847 -0.5447
 7324TIP3   OH246166   3.415   5.426   1.587 -0.2365  0.0654 -0.2261
 7324TIP3    H146167   3.348   5.391   1.527 -2.4338  1.4381  1.2704
 7324TIP3    H246168   3.483   5.460   1.529 -2.7022  2.2214 -2.1379
 7325TIP3   OH246169   1.149   0.677   0.819  0.5909  0.4261 -0.5868
 7325TIP3    H146170   1.171   0.684   0.911  0.2845  0.1117 -0.4857
 7325TIP3    H246171   1.184   0.756   0.779  2.4473 -0.3307 -0.5452
 7326TIP3   OH246172   2.081   3.068   1.988  0.0332 -0.1523  0.5227
 7326TIP3    H146173   1.988   3.080   1.967  0.6395  0.1944 -2.3749
 7326TIP3    H246174   2.116   3.019   1.914  2.5728  1.5985  0.4410
 7327TIP3   OH246175   2.739   6.074   2.765 -0.7234 -0.3154  0.0156
 7327TIP3    H146176   2.815   6.020   2.785 -0.9034  0.0015  1.7424
 7327TIP3    H246177   2.673   6.013   2.734  0.2833 -0.5631 -1.7814
 7328TIP3   OH246178   2.356   3.162   2.848 -0.7708 -0.2518  0.1871
 7328TIP3    H146179   2.439   3.207   2.830 -0.8784 -0.5870 -1.3255
 7328TIP3    H246180   2.374   3.070   2.827 -0.7112 -0.8790  2.7033
 7329TIP3   OH246181   4.742   4.461   1.867  0.2028  0.9210 -0.6727
 7329TIP3    H146182   4.681   4.389   1.854 -0.5289  1.1415  1.2440
 7329TIP3    H246183   4.737   4.512   1.786 -2.0231  0.8050 -0.6523
 7330TIP3   OH246184   2.772   1.017   1.960 -0.0039 -0.7310 -0.5756
 7330TIP3    H146185   2.748   0.957   2.030  0.3820  0.3939  0.5645
 7330TIP3    H246186   2.692   1.025   1.907 -0.8010 -0.4536  0.6193
 7331TIP3   OH246187   4.046   5.636   3.293  0.0828 -0.3237 -0.0584
 7331TIP3    H146188   4.077   5.651   3.383 -0.3459 -2.7551  0.5729
 7331TIP3    H246189   4.092   5.702   3.241  0.6018  0.9457  1.8806
 7332TIP3   OH246190   0.277   0.667   0.915 -0.1659 -0.7823 -0.2542
 7332TIP3    H146191   0.258   0.659   0.821 -1.6960 -1.4771  0.0889
 7332TIP3    H246192   0.323   0.751   0.923 -0.9817 -0.1937 -1.4758
 7333TIP3   OH246193   6.702   1.400   2.887 -0.4920  0.0686  0.3790
 7333TIP3    H146194   6.725   1.362   2.803 -3.9837 -0.4164 -0.4949
 7333TIP3    H246195   6.751   1.348   2.951  1.7214  0.0223 -1.2098
 7334TIP3   OH246196   3.113   2.703   2.520 -0.1840 -0.8905  0.4760
 7334TIP3    H146197   3.171   2.628   2.538 -0.2099 -0.6769  1.5292
 7334TIP3    H246198   3.065   2.678   2.441  0.8349 -1.3745 -0.0071
 7335TIP3   OH246199   5.521   0.381   1.532 -0.2997 -0.4342  0.3066
 7335TIP3    H146200   5.462   0.374   1.608  1.0232 -1.5007  1.2814
 7335TIP3    H246201   5.466   0.357   1.457 -1.7067  0.8777  0.8535
 7336TIP3   OH246202   4.820   5.130   2.133  0.2473  0.0653 -0.1079
 7336TIP3    H146203   4.754   5.152   2.199 -0.8230 -1.6862 -0.5467
 7336TIP3    H246204   4.769   5.104   2.056  1.4770  1.2780 -1.3937
 7337TIP3   OH246205   7.532   0.638   0.651  0.0756  0.4373  0.2291
 7337TIP3    H146206   7.541   0.732   0.667  0.0056  0.6523 -0.8807
 7337TIP3    H246207   7.616   0.612   0.614  0.1142  0.0433  0.5805
 7338TIP3   OH246208   6.428   6.675   3.393 -0.5971 -0.8288 -0.7203
 7338TIP3    H146209   6.502   6.735   3.398 -1.3820  0.3261 -2.0883
 7338TIP3    H246210   6.454   6.610   3.327 -0.3525 -1.1270 -0.3375
 7339TIP3   OH246211   4.778   3.119   1.017 -0.0654  0.1625 -0.3269
 7339TIP3    H146212   4.698   3.108   1.068 -0.0188  1.5239  0.0739
 7339TIP3    H246213   4.806   3.030   0.997 -2.5486 -0.3615 -1.8777
 7340TIP3   OH246214   2.991   3.173   1.030  0.0706  0.5469 -0.1368
 7340TIP3    H146215   2.914   3.115   1.035 -0.1965  0.9012 -0.1055
 7340TIP3    H246216   3.014   3.189   1.121 -1.6795  2.8821 -0.0154
 7341TIP3   OH246217   2.541   5.024   1.834 -0.1714 -0.1559 -0.1009
 7341TIP3    H146218   2.555   5.074   1.914 -1.2989 -0.8860  0.5916
 7341TIP3    H246219   2.621   5.036   1.783  0.1107  1.2372  0.6262
 7342TIP3   OH246220   1.925   1.979   1.661  0.6374 -0.4294 -0.0221
 7342TIP3    H146221   2.017   1.957   1.650  0.5841  0.2680 -2.4795
 7342TIP3    H246222   1.885   1.899   1.696  2.1055 -0.8387  0.7654
 7343TIP3   OH246223   0.707   2.775   2.866 -0.2790 -0.6588  0.1923
 7343TIP3    H146224   0.696   2.870   2.863  1.1655 -0.4969 -1.9971
 7343TIP3    H246225   0.782   2.762   2.924 -0.9457 -0.5488  1.1036
 7344TIP3   OH246226   1.540   4.604   2.919 -0.0738 -0.5416 -0.0764
 7344TIP3    H146227   1.625   4.588   2.960  1.5382  1.1724 -2.4892
 7344TIP3    H246228   1.548   4.566   2.831 -1.3628  0.6951 -0.7676
 7345TIP3   OH246229   0.133   4.957   2.778 -0.1936 -0.5736  0.6734
 7345TIP3    H146230   0.138   5.023   2.847  0.4642  0.3442 -0.2282
 7345TIP3    H246231   0.039   4.948   2.761 -0.2967  3.2311 -2.0109
 7346TIP3   OH246232   3.194   0.650   1.128  0.4216 -0.1422  0.2848
 7346TIP3    H146233   3.221   0.740   1.145  0.5605 -0.3467  1.1809
 7346TIP3    H246234   3.105   0.644   1.163  0.1543 -0.1766 -0.3750
 7347TIP3   OH246235   2.459   7.624   3.292  0.0230  0.4007  0.1477
 7347TIP3    H146236   2.549   7.610   3.322 -0.3856  0.5608  1.5067
 7347TIP3    H246237   2.458   7.713   3.258  0.1559  0.7436  1.0227
 7348TIP3   OH246238   1.652   4.745   2.490  0.7627  0.5068 -0.4337
 7348TIP3    H146239   1.698   4.758   2.407  0.4564  1.4367 -0.4716
 7348TIP3    H246240   1.585   4.813   2.491 -0.2159 -0.4307 -0.0871
 7349TIP3   OH246241   6.046   5.211   1.730  0.4422  0.7715 -0.1117
 7349TIP3    H146242   6.033   5.152   1.804  0.1081  0.9896  0.0097
 7349TIP3    H246243   6.058   5.153   1.654 -1.3688  0.5159 -0.2594
 7350TIP3   OH246244   0.238   7.680   2.190  0.5923 -0.3336 -0.0747
 7350TIP3    H146245   0.294   7.608   2.218 -0.4023 -1.1035 -0.0433
 7350TIP3    H246246   0.257   7.691   2.097 -0.1484 -1.4683 -0.3716
 7351TIP3   OH246247   3.099   0.089   2.166 -0.5212 -0.0638  0.4766
 7351TIP3    H146248   3.153   0.073   2.089  1.8171  1.7138  1.6215
 7351TIP3    H246249   3.111   0.011   2.221  0.5288  0.1006  0.4988
 7352TIP3   OH246250   1.475   3.777   1.447  0.1365 -0.3073 -0.6945
 7352TIP3    H146251   1.443   3.687   1.455 -1.7728  0.2738 -1.1707
 7352TIP3    H246252   1.549   3.782   1.507 -0.0333 -2.0588 -0.2953
 7353TIP3   OH246253   0.534   1.910   2.969 -0.1211 -0.0301 -0.1382
 7353TIP3    H146254   0.581   1.957   2.900 -1.1597  0.5891 -0.4472
 7353TIP3    H246255   0.558   1.818   2.956  0.8312  0.2461 -0.4107
 7354TIP3   OH246256   0.789   0.425   0.861 -0.2912  0.2299 -0.6251
 7354TIP3    H146257   0.794   0.362   0.790  3.3921 -0.1887 -0.1992
 7354TIP3    H246258   0.823   0.506   0.824 -2.3788  1.2707 -0.4104
 7355TIP3   OH246259   3.220   3.619   0.918 -0.2834 -0.3431 -0.6738
 7355TIP3    H146260   3.157   3.550   0.940  0.7112 -1.4577 -1.2254
 7355TIP3    H246261   3.252   3.596   0.831  1.1094  0.0268 -0.2879
 7356TIP3   OH246262   2.245   2.203   1.440  0.3500 -0.9879 -0.1789
 7356TIP3    H146263   2.280   2.262   1.507 -2.0329  1.6989 -1.1054
 7356TIP3    H246264   2.230   2.260   1.364 -0.5727 -3.1490 -1.6938
 7357TIP3   OH246265   5.843   1.895   2.077 -0.6221  0.7448 -0.2529
 7357TIP3    H146266   5.750   1.905   2.062 -0.5610  0.4621 -0.8187
 7357TIP3    H246267   5.884   1.959   2.019 -0.4299  0.2901 -0.6252
 7358TIP3   OH246268   3.730   3.784   0.616  0.5469 -0.6173 -0.2291
 7358TIP3    H146269   3.656   3.833   0.580  0.8465  1.2896  1.5817
 7358TIP3    H246270   3.807   3.834   0.590  1.1501 -1.8772 -0.9847
 7359TIP3   OH246271   2.565   7.194   2.135  0.0351  0.2955  0.0601
 7359TIP3    H146272   2.595   7.237   2.215 -2.1615  2.3387 -0.0773
 7359TIP3    H246273   2.645   7.175   2.087  1.4014 -0.6416  2.5158
 7360TIP3   OH246274   1.116   5.666   2.265 -0.4165 -0.1269 -0.4447
 7360TIP3    H146275   1.130   5.583   2.218 -3.1040  0.5059 -2.6081
 7360TIP3    H246276   1.022   5.669   2.280 -0.6865  3.2133 -1.9517
 7361TIP3   OH246277   3.186   5.413   1.985 -0.1576 -0.1838  0.2851
 7361TIP3    H146278   3.206   5.483   1.922 -0.7583 -0.1116  0.1602
 7361TIP3    H246279   3.185   5.333   1.932  0.1831 -0.2351  0.3607
 7362TIP3   OH246280   4.542   0.807   3.130 -0.0970 -0.3550 -0.4302
 7362TIP3    H146281   4.578   0.894   3.114  2.6762 -1.5101 -1.0544
 7362TIP3    H246282   4.447   0.820   3.130  0.2118  2.6890 -0.1401
 7363TIP3   OH246283   6.398   4.775   2.854  0.1145 -0.0348  0.3685
 7363TIP3    H146284   6.465   4.710   2.875 -0.4659 -1.6246 -2.2684
 7363TIP3    H246285   6.318   4.742   2.894  0.2394  0.1532  0.7747
 7364TIP3   OH246286   4.045   4.268   2.714 -0.2949 -0.5239  0.0755
 7364TIP3    H146287   3.998   4.188   2.736 -0.9261 -0.7013 -1.7855
 7364TIP3    H246288   4.040   4.274   2.619 -0.1467  1.6511  0.1517
 7365TIP3   OH246289   3.123   3.163   0.548 -0.6806 -0.4386 -0.0021
 7365TIP3    H146290   3.086   3.102   0.485 -1.3362  1.1035 -1.1827
 7365TIP3    H246291   3.140   3.110   0.626 -0.9302 -2.1608 -1.0668
 7366TIP3   OH246292   3.031   2.894   2.763 -0.3908 -0.0355  0.0142
 7366TIP3    H146293   3.002   2.808   2.733  0.2219 -0.8362  1.6031
 7366TIP3    H246294   2.964   2.921   2.827  0.5458 -0.3748  1.1790
 7367TIP3   OH246295   7.189   0.387   2.624 -0.0719 -0.3168  0.0627
 7367TIP3    H146296   7.178   0.370   2.531  0.0423 -0.2557  0.0379
 7367TIP3    H246297   7.272   0.434   2.630  1.3910 -2.7651  0.4536
 7368TIP3   OH246298   6.701   4.004   1.763 -0.1894  0.0323  0.3489
 7368TIP3    H146299   6.652   3.929   1.797 -0.6628  0.2273  0.1112
 7368TIP3    H246300   6.636   4.074   1.758  0.7685  1.2661  3.0519
 7369TIP3   OH246301   3.565   6.715   2.398  0.3149 -0.6294  0.3073
 7369TIP3    H146302   3.519   6.664   2.465 -1.2778  0.2849 -0.0200
 7369TIP3    H246303   3.497   6.774   2.363  1.7396  0.7388 -0.2638
 7370TIP3   OH246304   1.201   0.425   1.144 -0.5343 -0.0552  0.2869
 7370TIP3    H146305   1.215   0.381   1.228  0.0695  1.4643  1.0086
 7370TIP3    H246306   1.119   0.387   1.111 -0.3115 -1.3289  1.1104
 7371TIP3   OH246307   2.564   7.092   1.729  0.2541  0.6087  0.1480
 7371TIP3    H146308   2.533   7.039   1.802 -0.4847 -0.9370 -1.2355
 7371TIP3    H246309   2.544   7.182   1.755  0.3757  0.1372  1.9970
 7372TIP3   OH246310   7.107   7.106   1.430 -0.0265  0.8418 -0.3555
 7372TIP3    H146311   7.137   7.064   1.510 -1.1467 -0.0288 -0.3783
 7372TIP3    H246312   7.017   7.132   1.449 -0.4863  0.1330 -1.5158
 7373TIP3   OH246313   7.458   0.993   3.634 -0.3466  0.1503  0.0857
 7373TIP3    H146314   7.523   1.042   3.684  0.6366 -0.4461 -0.5870
 7373TIP3    H246315   7.508   0.924   3.591 -1.4358 -0.3450 -0.4162
 7374TIP3   OH246316   1.480   4.456   1.704  0.3053  0.2677 -0.1790
 7374TIP3    H146317   1.453   4.389   1.765 -1.6831 -0.4617 -1.7627
 7374TIP3    H246318   1.473   4.538   1.753 -0.8397 -0.3293  0.6922
 7375TIP3   OH246319   2.632   0.649   2.862  0.7241  0.2832  0.4194
 7375TIP3    H146320   2.655   0.628   2.771 -1.2985 -0.5067  0.0365
 7375TIP3    H246321   2.672   0.735   2.878  0.7101  0.6642 -1.3814
 7376TIP3   OH246322   1.038   7.600   1.711 -0.1376  0.2806 -0.2566
 7376TIP3    H146323   1.005   7.527   1.763  1.3717  0.2128  0.6765
 7376TIP3    H246324   1.123   7.621   1.751 -1.1666  3.5303  0.5450
 7377TIP3   OH246325   5.586   0.237   2.381 -0.0833 -0.1006 -0.2946
 7377TIP3    H146326   5.610   0.246   2.289 -0.6856 -1.2348 -0.5787
 7377TIP3    H246327   5.668   0.218   2.426  0.0353 -0.7314 -0.7734
 7378TIP3   OH246328   3.374   1.209   1.607  0.0174 -0.5345  0.0260
 7378TIP3    H146329   3.454   1.208   1.659  0.1671 -0.8824 -0.2068
 7378TIP3    H246330   3.336   1.296   1.621 -0.9153 -1.2278  2.1952
 7379TIP3   OH246331   6.710   5.550   0.743 -0.0874  0.2328 -0.3780
 7379TIP3    H146332   6.682   5.622   0.800  0.8023 -1.2139  2.0146
 7379TIP3    H246333   6.650   5.478   0.764  1.7885 -1.1074  0.6610
 7380TIP3   OH246334   0.998   4.793   1.850 -0.0283  0.2705  0.5259
 7380TIP3    H146335   0.929   4.774   1.786 -0.0829 -0.8866  0.9118
 7380TIP3    H246336   0.966   4.757   1.932 -0.6496  3.0923  1.6251
 7381TIP3   OH246337   6.911   5.146   1.788  0.6154 -0.3867  0.5805
 7381TIP3    H146338   6.985   5.091   1.764  0.1459 -0.2443 -1.3422
 7381TIP3    H246339   6.941   5.235   1.772  0.8122 -0.1632  2.0944
 7382TIP3   OH246340   0.923   1.490   2.293 -0.1435  0.3751  0.1345
 7382TIP3    H146341   1.011   1.526   2.302 -0.3085  0.3647  2.2766
 7382TIP3    H246342   0.924   1.410   2.345 -1.0625 -0.3095 -0.8709
 7383TIP3   OH246343   6.588   2.452   1.973  0.3194 -0.8540  0.2438
 7383TIP3    H146344   6.590   2.491   1.885  3.5130  1.0803  1.0224
 7383TIP3    H246345   6.545   2.367   1.960 -0.7887  0.0346 -2.8458
 7384TIP3   OH246346   2.817   5.325   1.083 -0.4092 -0.4585 -0.4183
 7384TIP3    H146347   2.882   5.333   1.014  1.6895  2.1318  1.6168
 7384TIP3    H246348   2.862   5.279   1.154 -1.7179 -1.0469  0.0609
 7385TIP3   OH246349   3.202   2.802   1.632  0.5008  0.0066  0.4007
 7385TIP3    H146350   3.155   2.870   1.680 -1.0045 -0.3050 -0.5600
 7385TIP3    H246351   3.261   2.763   1.696  0.6308  1.4955  1.2311
 7386TIP3   OH246352   2.907   2.033   2.106  0.1018 -0.1289 -0.8689
 7386TIP3    H146353   2.915   2.099   2.175 -2.5508 -1.4503  0.9301
 7386TIP3    H246354   2.996   2.004   2.089  1.0171  1.6182  0.6210
 7387TIP3   OH246355   6.907   2.282   2.724 -0.2623 -0.6444 -0.2694
 7387TIP3    H146356   6.948   2.365   2.702 -0.2951 -0.2072  1.2067
 7387TIP3    H246357   6.973   2.234   2.774 -1.5238  0.1681  2.3477
 7388TIP3   OH246358   4.202   0.654   2.353 -0.0163 -0.5021  0.3349
 7388TIP3    H146359   4.224   0.588   2.419 -0.9730 -1.5746 -0.3683
 7388TIP3    H246360   4.117   0.689   2.382  0.6263  0.6624  0.8642
 7389TIP3   OH246361   1.599   5.736   1.413  0.1521  0.0844  0.3322
 7389TIP3    H146362   1.610   5.657   1.359  0.3578  0.3669 -0.0453
 7389TIP3    H246363   1.630   5.807   1.357 -1.2153  0.5943  0.2030
 7390TIP3   OH246364   5.850   6.996   0.931  0.0571 -0.3841  0.2757
 7390TIP3    H146365   5.898   6.915   0.915  0.5882 -0.0183 -0.0151
 7390TIP3    H246366   5.904   7.064   0.891 -0.7377  0.0269 -0.1084
 7391TIP3   OH246367   1.382   1.945   1.799 -0.1258 -0.2062  0.7542
 7391TIP3    H146368   1.330   1.983   1.870 -2.3383 -0.5595 -0.5952
 7391TIP3    H246369   1.452   1.898   1.844 -0.3695  1.0980  2.6295
 7392TIP3   OH246370   2.087   7.028   3.032 -0.5156 -0.1526 -0.1025
 7392TIP3    H146371   2.070   6.965   3.103  0.3713 -0.1948  0.0824
 7392TIP3    H246372   2.003   7.035   2.986 -0.8623 -0.8037  0.4092
 7393TIP3   OH246373   6.126   2.386   1.940 -0.6065 -0.4533  0.1190
 7393TIP3    H146374   6.141   2.370   1.847  2.2350  1.1242  0.1838
 7393TIP3    H246375   6.155   2.306   1.983  0.0104 -0.4566 -0.2807
 7394TIP3   OH246376   6.281   7.188   1.446 -0.0877 -0.3783  0.1992
 7394TIP3    H146377   6.318   7.181   1.534 -0.7041 -1.0882  0.4119
 7394TIP3    H246378   6.230   7.269   1.448  1.0049  0.3275  0.0642
 7395TIP3   OH246379   0.056   7.418   1.760 -0.5673 -0.0880  0.5350
 7395TIP3    H146380   0.064   7.398   1.667 -2.4904 -0.2530  0.3732
 7395TIP3    H246381   0.034   7.335   1.801  0.5627 -0.0782  1.2056
 7396TIP3   OH246382   0.602   2.065   0.736 -0.1348  0.5147 -0.2753
 7396TIP3    H146383   0.513   2.098   0.740  0.5634  3.1490 -2.8581
 7396TIP3    H246384   0.645   2.101   0.814 -1.0265  0.1906  0.3715
 7397TIP3   OH246385   0.244   7.190   0.467  0.1131  0.1560 -0.4206
 7397TIP3    H146386   0.325   7.199   0.519 -0.2223 -0.4274  0.2195
 7397TIP3    H246387   0.242   7.098   0.442 -1.5881 -0.4799  1.6996
 7398TIP3   OH246388   0.762   6.152   1.855 -0.2713  0.3184 -0.0839
 7398TIP3    H146389   0.708   6.076   1.878  0.1484 -0.5819 -1.8714
 7398TIP3    H246390   0.700   6.222   1.837 -0.7121  0.1060  0.5748
 7399TIP3   OH246391   7.661   2.361   2.894 -0.1181  0.3072  0.1464
 7399TIP3    H146392   7.728   2.402   2.840  0.3600  0.3906  0.7811
 7399TIP3    H246393   7.705   2.345   2.978 -0.4927 -0.8894  0.1326
 7400TIP3   OH246394   3.323   0.458   1.284 -0.1625 -0.6269 -0.0613
 7400TIP3    H146395   3.267   0.471   1.207 -0.4390 -1.5260 -0.0202
 7400TIP3    H246396   3.314   0.365   1.305  1.5985 -0.8770 -0.2368
 7401TIP3   OH246397   7.604   2.299   2.220  0.9300 -0.5669 -0.0641
 7401TIP3    H146398   7.544   2.238   2.176 -0.6706  1.7257 -1.3313
 7401TIP3    H246399   7.582   2.292   2.312 -2.0075  0.7199 -0.5434
 7402TIP3   OH246400   0.182   2.398   1.276 -0.1908  0.4658  0.0735
 7402TIP3    H146401   0.184   2.422   1.183 -0.9068 -1.5790 -0.5223
 7402TIP3    H246402   0.126   2.320   1.279 -2.1246  1.7903  2.5450
 7403TIP3   OH246403   2.337   4.112   0.854  0.4521  0.0937 -0.4612
 7403TIP3    H146404   2.263   4.055   0.833  0.9851  0.1721 -2.9007
 7403TIP3    H246405   2.411   4.073   0.807  1.7960  0.5050  1.2123
 7404TIP3   OH246406   1.092   7.402   2.230  0.5144  0.2793 -0.0055
 7404TIP3    H146407   1.139   7.365   2.155 -0.0861  0.2076 -0.3545
 7404TIP3    H246408   1.159   7.448   2.280  1.0545 -0.2917 -0.1989
 7405TIP3   OH246409   3.263   4.024   2.907 -0.4233  0.3944 -0.4735
 7405TIP3    H146410   3.255   4.107   2.954  3.0488  0.5835  0.0870
 7405TIP3    H246411   3.290   4.049   2.819  0.3488 -0.0896 -0.3845
 7406TIP3   OH246412   6.466   7.063   1.288 -0.0945 -0.1380  0.1238
 7406TIP3    H146413   6.506   6.979   1.309  0.0594 -0.0658  0.1200
 7406TIP3    H246414   6.390   7.069   1.345  1.0536  0.6539  1.6453
 7407TIP3   OH246415   6.258   4.338   0.953  0.4351 -0.0496 -0.3522
 7407TIP3    H146416   6.343   4.315   0.915  1.7674  0.6506  1.9871
 7407TIP3    H246417   6.207   4.373   0.880  1.3354 -2.4394 -2.2728
 7408TIP3   OH246418   1.601   3.725   2.363  0.0953 -0.1054  0.2070
 7408TIP3    H146419   1.656   3.655   2.328  0.2983 -0.1696  0.6548
 7408TIP3    H246420   1.641   3.805   2.330  0.1263 -0.1766  0.0680
 7409TIP3   OH246421   5.398   4.714   1.785 -0.1790 -0.0413  0.1846
 7409TIP3    H146422   5.354   4.769   1.720 -2.3771 -1.0853  0.7191
 7409TIP3    H246423   5.490   4.743   1.782 -0.6706  1.5442 -1.6775
 7410TIP3   OH246424   0.624   0.463   1.812  0.3422 -0.4335  0.4643
 7410TIP3    H146425   0.652   0.554   1.815 -2.3078  0.4198  1.9970
 7410TIP3    H246426   0.631   0.432   1.902 -1.0901 -0.9668  0.4225
 7411TIP3   OH246427   5.421   1.569   1.013 -0.4905 -0.3983 -0.0090
 7411TIP3    H146428   5.447   1.496   1.068 -1.6912 -0.1572  0.9329
 7411TIP3    H246429   5.503   1.607   0.981  0.1717 -1.4277  0.4438
 7412TIP3   OH246430   4.194   3.936   2.441 -0.3649 -0.3471 -0.7036
 7412TIP3    H146431   4.249   4.002   2.483  0.1709 -0.4392 -1.2460
 7412TIP3    H246432   4.241   3.854   2.455 -1.3988 -0.7481  0.6255
 7413TIP3   OH246433   1.641   1.804   2.855  0.5177  0.2943  0.4078
 7413TIP3    H146434   1.732   1.773   2.864 -0.0337 -1.2304  1.1357
 7413TIP3    H246435   1.610   1.812   2.945  0.4067  2.4269  0.2196
 7414TIP3   OH246436   2.625   5.528   2.625 -0.2639 -0.3511  0.1187
 7414TIP3    H146437   2.679   5.591   2.673 -1.6957  0.1155  1.1733
 7414TIP3    H246438   2.669   5.444   2.639  0.2955  0.0466  0.8148
 7415TIP3   OH246439   5.487   0.398   2.131  0.5128  0.2733  0.6498
 7415TIP3    H146440   5.397   0.375   2.154 -0.5157  1.1897 -2.1120
 7415TIP3    H246441   5.510   0.467   2.193 -0.5652 -0.1228  1.5443
 7416TIP3   OH246442   2.679   3.300   1.722  0.0441 -0.2638 -0.4802
 7416TIP3    H146443   2.628   3.376   1.693 -0.1464  0.0477  0.6250
 7416TIP3    H246444   2.614   3.234   1.746  0.1168  0.1566  0.9902
 7417TIP3   OH246445   6.589   6.393   1.391 -0.1216  0.2176 -0.1426
 7417TIP3    H146446   6.503   6.357   1.374  0.2949 -1.2005  0.5705
 7417TIP3    H246447   6.600   6.385   1.486  0.2184  1.7509 -0.0234
 7418TIP3   OH246448   3.719   4.729   2.135  0.3929 -0.1712 -0.0999
 7418TIP3    H146449   3.812   4.714   2.115  0.0752 -1.5253 -0.6853
 7418TIP3    H246450   3.716   4.734   2.231  1.3685  2.2963 -0.1178
 7419TIP3   OH246451   3.398   3.504   0.467  0.8297  0.2716 -0.1218
 7419TIP3    H146452   3.455   3.543   0.402 -0.7528  0.1519 -1.6341
 7419TIP3    H246453   3.327   3.464   0.417  0.3803 -1.2204  1.5765
 7420TIP3   OH246454   7.370   1.902   1.332  0.4158 -0.0964 -0.0964
 7420TIP3    H146455   7.420   1.864   1.260 -0.0719 -0.8450 -0.0495
 7420TIP3    H246456   7.329   1.827   1.375 -0.1324  0.4364  0.3307
 7421TIP3   OH246457   5.486   7.119   1.119 -0.7941  0.3394  0.2672
 7421TIP3    H146458   5.488   7.174   1.198  0.1841  1.6636 -0.6443
 7421TIP3    H246459   5.468   7.180   1.048  2.9260  0.0109 -1.1349
 7422TIP3   OH246460   0.363   3.304   0.720 -0.0395  0.2014  0.1441
 7422TIP3    H146461   0.300   3.368   0.685 -0.4930 -0.6531 -0.6395
 7422TIP3    H246462   0.449   3.341   0.699 -0.2025  1.7824  1.9193
 7423TIP3   OH246463   7.031   7.510   3.288  0.3994  0.1125  0.4323
 7423TIP3    H146464   7.110   7.459   3.305  2.1223  2.1465 -0.9228
 7423TIP3    H246465   7.039   7.537   3.196 -0.1780  3.0394  1.1371
 7424TIP3   OH246466   3.915   0.628   1.236  0.1109 -0.3250 -0.1509
 7424TIP3    H146467   3.960   0.552   1.272 -1.7960 -1.4132  0.0617
 7424TIP3    H246468   3.890   0.680   1.313  0.6174  0.0657 -0.2439
 7425TIP3   OH246469   1.425   2.282   3.351 -0.2610 -0.4590 -0.2520
 7425TIP3    H146470   1.438   2.356   3.410  0.0368 -0.4338 -0.3457
 7425TIP3    H246471   1.332   2.262   3.357 -0.1260 -0.8827  0.7351
 7426TIP3   OH246472   5.563   4.618   1.206 -0.8191 -0.1322  0.3939
 7426TIP3    H146473   5.632   4.552   1.215 -1.5365 -1.0028 -0.2957
 7426TIP3    H246474   5.556   4.657   1.293 -0.0779 -0.6599  0.7027
 7427TIP3   OH246475   2.281   6.235   2.201  0.3844  0.7780  0.0035
 7427TIP3    H146476   2.242   6.176   2.136 -2.0776  1.5606  0.6862
 7427TIP3    H246477   2.357   6.272   2.156  1.4642 -2.0910 -0.8006
 7428TIP3   OH246478   6.079   2.108   2.354 -0.2482  0.8983  0.0424
 7428TIP3    H146479   6.162   2.133   2.313 -0.5820  1.6712 -0.1778
 7428TIP3    H246480   6.074   2.013   2.340  1.6821  0.4083  2.0879
 7429TIP3   OH246481   0.202   4.263   1.654  0.1055  0.1621 -0.2089
 7429TIP3    H146482   0.111   4.239   1.639 -0.5343  1.7114  1.0039
 7429TIP3    H246483   0.234   4.197   1.715 -0.0714 -0.6029 -0.9218
 7430TIP3   OH246484   7.539   6.189   2.912 -0.2781 -0.5071 -0.4547
 7430TIP3    H146485   7.534   6.276   2.952  0.5541  0.2843 -2.0035
 7430TIP3    H246486   7.628   6.159   2.933  1.3951  1.2462 -4.1409
 7431TIP3   OH246487   1.332   1.098   1.212  0.1914 -0.1220  0.7634
 7431TIP3    H146488   1.339   1.168   1.148 -0.2070 -2.0219 -1.4737
 7431TIP3    H246489   1.370   1.021   1.169  1.6230 -1.0862  3.5087
 7432TIP3   OH246490   3.592   6.129   1.992  0.0900 -0.0760 -0.4593
 7432TIP3    H146491   3.624   6.219   1.995 -0.1634  0.1038 -2.0585
 7432TIP3    H246492   3.667   6.076   2.018  0.6885  0.5291 -0.9080
 7433TIP3   OH246493   4.185   2.315   2.568  0.1453 -0.0410  0.0042
 7433TIP3    H146494   4.194   2.405   2.597 -0.3899  0.6198 -1.7364
 7433TIP3    H246495   4.208   2.262   2.645  2.1398  1.5377  0.5824
 7434TIP3   OH246496   6.962   4.424   1.123  0.3156  0.0027 -0.0149
 7434TIP3    H146497   7.000   4.484   1.188  0.1870  1.2609 -1.0699
 7434TIP3    H246498   6.890   4.382   1.170  2.0826 -1.4330  1.6071
 7435TIP3   OH246499   2.615   7.163   1.289 -0.0785 -0.5460  0.2114
 7435TIP3    H146500   2.698   7.144   1.332 -0.0554  0.1976  0.5161
 7435TIP3    H246501   2.580   7.077   1.264  1.0143 -0.8439 -0.3797
 7436TIP3   OH246502   7.579   4.584   0.799 -0.3243  0.5745  0.1224
 7436TIP3    H146503   7.667   4.547   0.797 -0.9454 -1.0794  0.8811
 7436TIP3    H246504   7.565   4.618   0.711  0.7609  0.0901 -0.2638
 7437TIP3   OH246505   1.456   7.226   0.919  0.3656 -0.3876 -0.1851
 7437TIP3    H146506   1.387   7.164   0.897 -0.4270  0.1466  0.7093
 7437TIP3    H246507   1.423   7.310   0.887  1.5134 -0.4150 -1.5665
 7438TIP3   OH246508   6.557   7.223   1.835  0.5644 -0.0321 -0.7392
 7438TIP3    H146509   6.486   7.182   1.883 -0.9898  0.1322 -2.7612
 7438TIP3    H246510   6.634   7.212   1.891 -0.9477 -0.5664  1.3356
 7439TIP3   OH246511   4.592   1.233   2.108 -0.0049 -0.6433 -0.4297
 7439TIP3    H146512   4.514   1.285   2.123  0.4954 -0.0544  0.1910
 7439TIP3    H246513   4.649   1.289   2.054  1.3319  0.2782  1.7988
 7440TIP3   OH246514   6.309   0.782   0.827  0.1775 -0.4756 -0.4543
 7440TIP3    H146515   6.261   0.865   0.829 -0.8439 -0.8961 -3.0554
 7440TIP3    H246516   6.336   0.773   0.735  0.9364 -2.6540 -0.0648
 7441TIP3   OH246517   2.733   4.803   1.465  0.3418 -0.0214  0.4779
 7441TIP3    H146518   2.768   4.782   1.379 -0.7190 -0.8840  0.2362
 7441TIP3    H246519   2.719   4.717   1.507 -2.0491  0.2275  0.3032
 7442TIP3   OH246520   3.683   6.275   1.473  0.7444 -0.1830 -0.2744
 7442TIP3    H146521   3.739   6.216   1.522  1.6593 -0.5356 -1.6790
 7442TIP3    H246522   3.735   6.355   1.463  0.0898  0.3378  0.3513
 7443TIP3   OH246523   5.684   4.773   0.659  0.8358  0.5485 -0.2626
 7443TIP3    H146524   5.708   4.695   0.610  0.1915 -0.0665  0.3828
 7443TIP3    H246525   5.642   4.740   0.739 -0.8429  1.5345 -0.6796
 7444TIP3   OH246526   6.934   3.236   1.322 -0.3050 -0.4989 -0.3734
 7444TIP3    H146527   7.010   3.294   1.315 -0.6540 -0.1595 -1.6056
 7444TIP3    H246528   6.913   3.212   1.231 -2.6871  0.7818 -0.2459
 7445TIP3   OH246529   5.763   0.045   3.774  0.1804 -0.0006  0.0365
 7445TIP3    H146530   5.723  -0.040   3.795  0.1492 -0.2787 -1.0495
 7445TIP3    H246531   5.733   0.064   3.685 -0.3830  1.5082  0.5193
 7446TIP3   OH246532   6.854   1.130   2.964  0.6077 -0.3091 -0.1328
 7446TIP3    H146533   6.917   1.159   2.898 -0.5632  3.6371  0.2572
 7446TIP3    H246534   6.878   1.178   3.043 -1.0349 -1.1264  0.9235
 7447TIP3   OH246535   0.928   4.579   2.270  0.1016 -0.1335 -0.3655
 7447TIP3    H146536   0.918   4.631   2.190 -0.9279  1.4004  0.7240
 7447TIP3    H246537   0.888   4.632   2.339  1.6620 -1.0704  1.3366
 7448TIP3   OH246538   6.712   6.695   1.663 -0.1135  0.3091  0.3362
 7448TIP3    H146539   6.727   6.740   1.580  0.3576  0.0745  0.2937
 7448TIP3    H246540   6.682   6.764   1.723  0.4754  0.6598  0.2363
 7449TIP3   OH246541   3.599   6.356   0.534  0.6903  0.5496  0.5901
 7449TIP3    H146542   3.641   6.439   0.558  1.0104  0.5872 -0.0858
 7449TIP3    H246543   3.575   6.317   0.618  0.0537  1.5713  0.9072
 7450TIP3   OH246544   3.772   4.485   2.392  0.0658 -0.8885 -0.2232
 7450TIP3    H146545   3.729   4.437   2.322  1.3387 -3.1406  0.4405
 7450TIP3    H246546   3.865   4.471   2.378  0.3766 -0.8706  1.5359
 7451TIP3   OH246547   3.657   0.636   2.163  0.2451 -0.2754  0.1846
 7451TIP3    H146548   3.646   0.587   2.081 -2.5452 -0.6348  0.6729
 7451TIP3    H246549   3.687   0.570   2.225  0.0737 -0.5463 -0.0137
 7452TIP3   OH246550   4.468   3.535   1.776 -0.1176  0.6115  0.2283
 7452TIP3    H146551   4.382   3.493   1.778 -1.2994  2.7925 -0.4787
 7452TIP3    H246552   4.521   3.480   1.719 -0.7976 -1.1529  1.2349
 7453TIP3   OH246553   3.088   4.134   1.905  0.3642 -0.2199 -0.4184
 7453TIP3    H146554   3.178   4.119   1.877  0.3969  0.4399 -0.6634
 7453TIP3    H246555   3.065   4.220   1.870  0.0668  0.1717  0.7016
 7454TIP3   OH246556   4.348   2.396   1.079 -0.0235  0.1244 -0.9010
 7454TIP3    H146557   4.315   2.309   1.059  0.0376  0.1267 -1.0155
 7454TIP3    H246558   4.333   2.407   1.173  0.0496 -0.0448 -0.8693
 7455TIP3   OH246559   1.557   4.596   0.524 -0.5775  0.7213  0.0230
 7455TIP3    H146560   1.491   4.604   0.455  0.0474  0.1208 -0.6633
 7455TIP3    H246561   1.511   4.619   0.605 -2.3284 -2.0669 -0.0458
 7456TIP3   OH246562   5.630   5.835   2.235 -0.3749  0.5579 -0.2795
 7456TIP3    H146563   5.535   5.841   2.245 -0.3975 -0.0090 -0.0945
 7456TIP3    H246564   5.664   5.918   2.268 -0.5918 -0.3879  2.5867
 7457TIP3   OH246565   0.464   6.031   1.163 -0.0914  0.1000 -0.4603
 7457TIP3    H146566   0.407   6.001   1.234  3.3311 -0.8860  2.1522
 7457TIP3    H246567   0.500   5.951   1.125 -0.2142  0.6877 -1.8972
 7458TIP3   OH246568   5.877   6.271   1.195 -0.2536  0.1408  0.4970
 7458TIP3    H146569   5.955   6.299   1.242  0.1946  0.2189 -0.2896
 7458TIP3    H246570   5.885   6.310   1.108 -1.5021  0.7275  0.6113
 7459TIP3   OH246571   2.511   0.504   3.087  0.4163  0.4568  0.1055
 7459TIP3    H146572   2.528   0.577   3.028  0.3007 -0.5786 -1.2424
 7459TIP3    H246573   2.476   0.435   3.031  0.0339 -0.4709  1.4315
 7460TIP3   OH246574   1.465   4.355   1.222 -0.1475 -0.6814 -0.1100
 7460TIP3    H146575   1.515   4.387   1.297  2.2364 -2.1712 -0.9810
 7460TIP3    H246576   1.472   4.425   1.157 -1.5569  0.2702  0.7012
 7461TIP3   OH246577   0.479   4.254   2.339  0.2741 -0.0861  0.2887
 7461TIP3    H146578   0.393   4.212   2.336 -1.1512  2.6028 -0.4011
 7461TIP3    H246579   0.506   4.248   2.430 -0.6349 -0.9771  0.5144
 7462TIP3   OH246580   1.549   2.529   1.314 -0.1581 -0.2635 -0.4179
 7462TIP3    H146581   1.457   2.504   1.302 -1.1339  2.1461  1.3514
 7462TIP3    H246582   1.591   2.447   1.342 -1.7259 -1.4397 -1.2743
 7463TIP3   OH246583   7.117   2.531   1.254  0.6421  0.1871  0.0751
 7463TIP3    H146584   7.175   2.472   1.207  1.7836  1.6302 -0.3738
 7463TIP3    H246585   7.036   2.531   1.202  0.8470 -0.5007 -0.2552
 7464TIP3   OH246586   7.304   0.091   3.270  0.1927 -0.1484  0.1531
 7464TIP3    H146587   7.265   0.147   3.204 -0.6072 -1.8422 -0.8750
 7464TIP3    H246588   7.268   0.122   3.353 -2.0625 -0.5597 -0.6107
 7465TIP3   OH246589   5.009   6.270   1.325 -0.3136 -0.2492 -0.2235
 7465TIP3    H146590   5.075   6.335   1.300 -1.2770  1.0866  0.5494
 7465TIP3    H246591   5.051   6.220   1.395  0.2752 -0.1517 -0.5009
 7466TIP3   OH246592   0.569   5.455   1.917  0.2136  0.2459  0.1141
 7466TIP3    H146593   0.539   5.543   1.895  1.3869  1.1317  1.8416
 7466TIP3    H246594   0.565   5.407   1.834 -1.2728  1.6538 -0.6920
 7467TIP3   OH246595   5.943   0.265   1.318  0.2311  0.0008 -0.6396
 7467TIP3    H146596   5.907   0.302   1.399 -0.5825 -1.3011 -0.3806
 7467TIP3    H246597   5.877   0.286   1.252  1.1792  1.5994 -1.1267
 7468TIP3   OH246598   5.850   2.413   1.561  0.1112  0.3613 -0.8194
 7468TIP3    H146599   5.925   2.370   1.521  0.7806  1.4579 -0.7919
 7468TIP3    H246600   5.787   2.342   1.577  2.1626 -1.0733  1.6267
 7469TIP3   OH246601   6.491   1.371   2.530 -0.0456 -0.6365  0.4004
 7469TIP3    H146602   6.458   1.458   2.549  0.4375 -0.1936 -0.7055
 7469TIP3    H246603   6.579   1.370   2.567  0.7099  0.0605 -1.2537
 7470TIP3   OH246604   4.125   0.425   1.318  0.3713  0.7852 -0.0320
 7470TIP3    H146605   4.203   0.370   1.314 -0.6520 -0.7621  0.3284
 7470TIP3    H246606   4.054   0.365   1.340 -0.9818  2.1019 -0.5857
 7471TIP3   OH246607   4.735   4.910   1.219  0.0520  0.0075 -0.6717
 7471TIP3    H146608   4.790   4.976   1.262  1.2056 -2.8766  2.7638
 7471TIP3    H246609   4.647   4.947   1.223  0.7976  1.8792 -0.0943
 7472TIP3   OH246610   6.988   4.415   1.569 -0.0950  0.1880 -0.3816
 7472TIP3    H146611   6.899   4.424   1.601 -0.0662 -0.4657 -0.0941
 7472TIP3    H246612   6.988   4.457   1.483 -0.9909 -0.8588 -0.9173
 7473TIP3   OH246613   4.289   1.526   0.752 -0.3596  0.1733  0.1789
 7473TIP3    H146614   4.248   1.445   0.725 -0.9583  0.5028  0.0938
 7473TIP3    H246615   4.381   1.517   0.725 -0.3141 -0.6523  0.5777
 7474TIP3   OH246616   4.598   6.184   2.253  0.5343 -0.5323  0.7088
 7474TIP3    H146617   4.582   6.231   2.171 -0.5968 -2.3919 -0.2014
 7474TIP3    H246618   4.690   6.203   2.273  0.5028  0.9295 -0.3199
 7475TIP3   OH246619   1.162   3.909   1.135 -0.7742 -0.0896 -0.3093
 7475TIP3    H146620   1.245   3.861   1.129 -0.1668  1.0396 -1.0731
 7475TIP3    H246621   1.175   3.968   1.209 -1.4029 -0.8291  0.4137
 7476TIP3   OH246622   3.934   6.040   0.892  0.2715 -0.1568  0.2533
 7476TIP3    H146623   3.865   5.985   0.854  0.4818 -0.7759  0.7582
 7476TIP3    H246624   4.003   6.041   0.825 -1.4270  3.0622 -1.7163
 7477TIP3   OH246625   1.198   2.748   1.122  0.6197  1.0924 -0.2104
 7477TIP3    H146626   1.248   2.748   1.040  0.6045  4.0709 -0.3259
 7477TIP3    H246627   1.109   2.771   1.096 -0.6844 -2.8213  0.1689
 7478TIP3   OH246628   4.746   4.742   1.906  0.7528 -0.9440  0.0684
 7478TIP3    H146629   4.723   4.755   1.814 -0.2152  0.2384  0.4407
 7478TIP3    H246630   4.742   4.647   1.919  0.1186 -1.0657 -0.9193
 7479TIP3   OH246631   4.707   5.292   8.443 -0.1959 -0.1570 -0.4580
 7479TIP3    H146632   4.667   5.307   8.529  2.5086  0.2745  0.8426
 7479TIP3    H246633   4.765   5.367   8.430 -0.5573 -0.2001 -2.7148
 7480TIP3   OH246634   1.261   5.015   2.053 -0.3606 -0.4746 -0.0592
 7480TIP3    H146635   1.228   5.101   2.029 -1.1844 -0.5781  0.6511
 7480TIP3    H246636   1.315   4.988   1.978  0.2855  0.8385 -0.0909
 7481TIP3   OH246637   0.844   1.832   1.096 -0.1263  0.1583 -0.6185
 7481TIP3    H146638   0.829   1.903   1.159  0.7519  0.1714 -0.4128
 7481TIP3    H246639   0.756   1.799   1.077 -0.4378  0.3507  0.3891
 7482TIP3   OH246640   7.116   6.661   1.331 -0.8177 -0.0466 -0.3413
 7482TIP3    H146641   7.131   6.587   1.390 -0.3882 -0.8801 -1.4460
 7482TIP3    H246642   7.022   6.659   1.314 -1.9375  3.0703  3.8781
 7483TIP3   OH246643   0.006   0.141   1.007  0.3913  0.1129 -0.5249
 7483TIP3    H146644  -0.033   0.157   1.093  0.2912 -0.1271 -0.5229
 7483TIP3    H246645  -0.032   0.207   0.949  0.9545  0.6946 -0.2448
 7484TIP3   OH246646   2.394   6.060   1.056 -0.1461  0.2005  0.1355
 7484TIP3    H146647   2.342   5.980   1.059  1.2716 -0.7553  2.4925
 7484TIP3    H246648   2.351   6.118   1.119  0.8809 -0.1569  1.2114
 7485TIP3   OH246649   7.002   3.290   2.247  0.0957 -0.2945  0.1762
 7485TIP3    H146650   7.008   3.280   2.152  0.8513 -0.0502  0.1910
 7485TIP3    H246651   7.043   3.212   2.283 -0.1449 -0.3634  0.3034
 7486TIP3   OH246652   6.666   0.163   1.643 -0.2622  0.3923 -0.1661
 7486TIP3    H146653   6.625   0.201   1.721 -0.8173 -1.7683  0.6811
 7486TIP3    H246654   6.614   0.196   1.570  1.5368  4.1967  0.0131
 7487TIP3   OH246655   3.025   1.868   1.648 -0.0599 -0.3024  0.4958
 7487TIP3    H146656   3.080   1.921   1.591 -0.4954  0.0461  0.3973
 7487TIP3    H246657   3.084   1.839   1.718  0.1102  0.5962  0.7395
 7488TIP3   OH246658   4.440   1.607   1.020  0.0930  0.2968  0.1363
 7488TIP3    H146659   4.421   1.531   1.075 -0.2420  0.5164  0.3234
 7488TIP3    H246660   4.375   1.604   0.951  1.1326 -0.5494 -0.8355
 7489TIP3   OH246661   6.778   6.918   2.815 -0.0548 -0.6678  0.6668
 7489TIP3    H146662   6.744   7.007   2.827  0.7621 -0.5324  2.4336
 7489TIP3    H246663   6.768   6.877   2.902  1.5430 -1.5667  0.4615
 7490TIP3   OH246664   1.026   4.383   3.066  0.0522 -0.4615  0.5576
 7490TIP3    H146665   1.095   4.397   3.001 -0.6805  1.8049  0.1801
 7490TIP3    H246666   1.048   4.299   3.106  2.2447 -0.4674 -0.4935
 7491TIP3   OH246667   0.985   2.760   1.602  0.2551 -0.4998  0.0343
 7491TIP3    H146668   0.927   2.794   1.670 -1.0586 -0.4795 -1.0424
 7491TIP3    H246669   1.029   2.838   1.567  1.5447 -0.5904  1.3374
 7492TIP3   OH246670   3.143   1.376   2.351 -0.1156  0.7799  0.2796
 7492TIP3    H146671   3.053   1.389   2.382 -0.6202  0.6109 -1.0773
 7492TIP3    H246672   3.178   1.309   2.409 -1.4729 -0.4949 -0.3061
 7493TIP3   OH246673   3.996   5.102   2.182  0.1332 -0.1616  0.5415
 7493TIP3    H146674   4.039   5.016   2.181  0.1559 -0.1470 -0.4522
 7493TIP3    H246675   4.035   5.149   2.108  0.7205  1.0106  1.5723
 7494TIP3   OH246676   5.360   6.811   2.936  0.3193 -0.0552 -0.5479
 7494TIP3    H146677   5.315   6.853   3.010  1.4843  1.3396 -0.5733
 7494TIP3    H246678   5.406   6.737   2.975  0.0620  0.0295 -0.0691
 7495TIP3   OH246679   5.328   3.248   1.115  0.4889  0.2238  0.2473
 7495TIP3    H146680   5.254   3.256   1.176  0.9636 -0.6965  0.9833
 7495TIP3    H246681   5.316   3.320   1.053 -0.3495  0.8260  1.0692
 7496TIP3   OH246682   2.733   5.504   1.850 -0.4019  0.6525  0.3559
 7496TIP3    H146683   2.694   5.559   1.782  0.3652  1.1643  0.3097
 7496TIP3    H246684   2.713   5.550   1.932 -0.2985  0.6726  0.3702
 7497TIP3   OH246685   5.650   4.868   1.541 -0.2174 -0.2639  0.1999
 7497TIP3    H146686   5.731   4.912   1.513  0.8120 -1.7738  0.6696
 7497TIP3    H246687   5.582   4.935   1.532  0.5550  0.2723 -2.9120
 7498TIP3   OH246688   4.969   1.855   1.449  0.2543 -0.6037 -0.5404
 7498TIP3    H146689   4.923   1.939   1.449  0.8071 -0.2027  2.2567
 7498TIP3    H246690   4.903   1.791   1.421 -0.6391  0.5515 -1.1306
 7499TIP3   OH246691   4.425   6.795   3.045 -0.3810 -0.3587  0.3770
 7499TIP3    H146692   4.515   6.768   3.064 -0.3417 -0.2750  0.3103
 7499TIP3    H246693   4.412   6.876   3.095 -1.2571 -1.6939  2.4328
 7500TIP3   OH246694   3.897   0.396   0.877 -0.0247  0.0078  0.4878
 7500TIP3    H146695   3.900   0.302   0.892  2.5030 -0.1823 -0.7657
 7500TIP3    H246696   3.815   0.410   0.828  0.1456 -1.7191 -0.3490
 7501TIP3   OH246697   6.269   4.467   1.217 -0.7885 -0.6697 -0.1556
 7501TIP3    H146698   6.215   4.443   1.142 -0.0339  1.8945 -1.6771
 7501TIP3    H246699   6.232   4.419   1.291 -1.6887 -3.1603 -2.1111
 7502TIP3   OH246700   2.929   4.031   0.830 -0.2489  0.8115 -0.3229
 7502TIP3    H146701   2.915   3.936   0.824  0.0524  0.8001 -0.9399
 7502TIP3    H246702   2.920   4.062   0.739 -0.5604  1.4064 -0.0938
 7503TIP3   OH246703   3.170   5.556   0.844  0.4851  0.0791 -0.2663
 7503TIP3    H146704   3.202   5.600   0.766 -1.0465  1.8699  0.0247
 7503TIP3    H246705   3.200   5.612   0.916  0.3532 -0.5640  0.2922
 7504TIP3   OH246706   6.693   4.014   1.445 -0.0099  0.0684  0.0010
 7504TIP3    H146707   6.598   4.005   1.446 -0.0130  0.0891  0.7859
 7504TIP3    H246708   6.712   4.078   1.514  0.5939 -0.2395  0.1319
 7505TIP3   OH246709   3.697   0.921   2.092  0.0939 -0.3056 -0.0177
 7505TIP3    H146710   3.685   0.828   2.111  0.2327 -0.1497  0.8861
 7505TIP3    H246711   3.695   0.964   2.178  2.6000  0.2241 -0.1392
 7506TIP3   OH246712   1.521   6.224   1.935  0.0955 -0.4799  0.1115
 7506TIP3    H146713   1.570   6.306   1.926 -0.4852  0.1551  2.2025
 7506TIP3    H246714   1.451   6.231   1.869 -0.3903  1.0791  0.7369
 7507TIP3   OH246715   3.027   4.717   3.008  0.1847 -0.6093  0.3536
 7507TIP3    H146716   3.034   4.712   3.104 -1.1170 -3.1876  0.3822
 7507TIP3    H246717   3.110   4.682   2.976  0.5027 -0.0229  0.5223
 7508TIP3   OH246718   2.149   1.259   0.958 -0.3358 -0.4728 -0.3062
 7508TIP3    H146719   2.230   1.306   0.940 -0.0520 -0.0846  1.8316
 7508TIP3    H246720   2.145   1.251   1.053 -2.2883 -1.4154 -0.4068
 7509TIP3   OH246721   4.295   3.457   0.686 -0.0710 -0.0113 -0.3921
 7509TIP3    H146722   4.290   3.411   0.770 -2.5452 -1.0552 -1.0139
 7509TIP3    H246723   4.246   3.401   0.625 -0.5939  1.9856 -1.9110
 7510TIP3   OH246724   5.479   7.595   2.097  0.3999  0.3097 -0.3146
 7510TIP3    H146725   5.420   7.585   2.023  1.3863 -0.3334 -1.0255
 7510TIP3    H246726   5.422   7.619   2.170 -0.8076 -0.8986 -0.8422
 7511TIP3   OH246727   1.126   1.212   1.385 -0.2759  0.0383  0.0157
 7511TIP3    H146728   1.197   1.177   1.331 -0.5533  0.8901 -0.9367
 7511TIP3    H246729   1.094   1.288   1.336  0.0479  1.3855  1.8072
 7512TIP3   OH246730   4.655   2.329   0.973  0.5612  0.3486  0.1176
 7512TIP3    H146731   4.669   2.247   1.020  1.6316 -0.9156 -2.2700
 7512TIP3    H246732   4.560   2.334   0.962  0.5530 -1.2910 -0.8547
 7513TIP3   OH246733   0.153   7.033   2.363 -0.0791  0.0223  0.1361
 7513TIP3    H146734   0.220   7.075   2.308 -0.2387  0.9726  0.6538
 7513TIP3    H246735   0.182   7.051   2.453 -0.8703  0.1769  0.3612
 7514TIP3   OH246736   3.689   2.244   3.068 -0.5846  0.2353  0.0061
 7514TIP3    H146737   3.679   2.317   3.129  0.2273 -0.9021  1.5897
 7514TIP3    H246738   3.747   2.183   3.114 -3.1342 -2.5386 -0.1515
 7515TIP3   OH246739   6.820   1.735   1.110  0.1255 -0.6468  0.0997
 7515TIP3    H146740   6.802   1.811   1.164 -0.7677 -1.6380  1.2532
 7515TIP3    H246741   6.739   1.684   1.113  0.0571 -0.7723 -2.1512
 7516TIP3   OH246742   3.055   4.097   2.170 -0.4443  0.1883  0.1953
 7516TIP3    H146743   3.045   4.192   2.174  1.0051  0.3596  0.1682
 7516TIP3    H246744   3.073   4.078   2.078 -0.7610 -0.1267  0.1938
 7517TIP3   OH246745   1.873   2.288   0.889  0.2035 -0.3948  0.0133
 7517TIP3    H146746   1.861   2.318   0.979  2.1382 -0.7436  0.4192
 7517TIP3    H246747   1.794   2.317   0.844 -0.3868  0.5992  1.6053
 7518TIP3   OH246748   6.745   6.833   1.431 -0.2501  0.4261  0.1058
 7518TIP3    H146749   6.747   6.871   1.343  1.2543  0.5713  0.1761
 7518TIP3    H246750   6.803   6.757   1.426  0.0457  0.5794  1.0308
 7519TIP3   OH246751   5.463   1.357   2.216  0.0408 -0.1093 -0.1506
 7519TIP3    H146752   5.410   1.433   2.238  0.8308  0.2398  0.5798
 7519TIP3    H246753   5.513   1.338   2.295 -0.9896 -2.1244  0.0972
 7520TIP3   OH246754   0.941   7.139   2.461 -0.4073  0.4983  0.2347
 7520TIP3    H146755   0.934   7.047   2.435 -1.3027  0.5276  0.3317
 7520TIP3    H246756   0.873   7.150   2.528 -1.9812  1.8032 -1.4735
 7521TIP3   OH246757   6.926   6.016   3.526  0.2841  0.2506 -0.3103
 7521TIP3    H146758   6.932   6.028   3.431 -1.4720  1.4067 -0.3223
 7521TIP3    H246759   6.935   6.104   3.562  0.8193 -0.1686  0.5999
 7522TIP3   OH246760   0.751   0.236   2.561  0.1352  0.2884 -0.2538
 7522TIP3    H146761   0.734   0.295   2.635  0.3756  0.7183 -0.5389
 7522TIP3    H246762   0.727   0.150   2.594  0.0618  0.5020  0.2687
 7523TIP3   OH246763   5.976   1.614   0.862  0.2534  0.3322 -0.0499
 7523TIP3    H146764   5.983   1.536   0.806 -2.0318 -1.0023  1.3660
 7523TIP3    H246765   6.014   1.586   0.946 -1.4665  0.3221  0.7787
 7524TIP3   OH246766   7.318   6.432   2.662  0.1270  0.3749  0.1000
 7524TIP3    H146767   7.228   6.466   2.656  0.7672  2.1950  0.0958
 7524TIP3    H246768   7.331   6.416   2.755 -1.4211 -3.6481 -0.1932
 7525TIP3   OH246769   6.463   0.908   2.038  0.2676  0.4200 -0.0917
 7525TIP3    H146770   6.442   0.954   1.956  0.5042 -0.7497 -0.8271
 7525TIP3    H246771   6.419   0.960   2.106  1.2312  2.2210 -0.7689
 7526TIP3   OH246772   0.004   6.447   1.309 -0.1181 -0.5095  0.0604
 7526TIP3    H146773   0.065   6.520   1.318 -0.7172 -0.1379  1.2973
 7526TIP3    H246774   0.057   6.370   1.332  0.7144 -0.6041 -1.9555
 7527TIP3   OH246775   4.352   7.583   0.457  0.6778 -0.4703  0.0570
 7527TIP3    H146776   4.409   7.563   0.383  0.2322  0.2682 -0.4961
 7527TIP3    H246777   4.412   7.619   0.523  0.7975  0.8639 -0.7417
 7528TIP3   OH246778   2.831   3.869   2.774 -0.1444 -0.0490 -0.4531
 7528TIP3    H146779   2.925   3.851   2.777 -0.3360 -0.9696  0.1417
 7528TIP3    H246780   2.820   3.944   2.832  0.3252  0.5942 -1.1633
 7529TIP3   OH246781   2.321   4.022   2.347  0.0913 -0.4897 -0.5455
 7529TIP3    H146782   2.398   3.974   2.318  0.9546  0.1555  0.6379
 7529TIP3    H246783   2.355   4.099   2.392 -1.2607  0.4727 -1.0975
 7530TIP3   OH246784   5.025   4.667   1.123  0.4425  0.0733  0.4052
 7530TIP3    H146785   5.091   4.664   1.054  0.5962  0.0930  0.5509
 7530TIP3    H246786   4.949   4.708   1.081 -0.0310 -1.3767 -0.2256
 7531TIP3   OH246787   0.484   6.772   0.601  0.0662  0.2020 -0.2599
 7531TIP3    H146788   0.477   6.678   0.615 -2.6095  0.4328  0.4806
 7531TIP3    H246789   0.553   6.782   0.535 -1.2214 -2.4477 -2.1681
 7532TIP3   OH246790   1.048   0.373   1.627  0.3116  0.3823 -0.0397
 7532TIP3    H146791   1.126   0.380   1.681 -1.7597  4.6543  2.9427
 7532TIP3    H246792   0.991   0.313   1.674  0.8585 -1.0135 -1.0767
 7533TIP3   OH246793   7.550   4.910   1.672  0.3544 -0.3814 -0.3400
 7533TIP3    H146794   7.582   4.918   1.761  0.0167  1.0003 -0.3143
 7533TIP3    H246795   7.601   4.974   1.622  0.2349 -0.8233 -1.0515
 7534TIP3   OH246796   7.383   4.394   0.886 -0.1821 -0.6516 -0.3461
 7534TIP3    H146797   7.346   4.429   0.967 -0.5155  0.3045 -0.8987
 7534TIP3    H246798   7.455   4.454   0.866 -0.0049 -0.9770 -0.6753
 7535TIP3   OH246799   0.119   6.857   0.698 -0.2485 -0.6602  0.1385
 7535TIP3    H146800   0.140   6.852   0.605  0.3332 -1.5068  0.3062
 7535TIP3    H246801   0.033   6.816   0.706 -1.2118  1.1810 -0.2906
 7536TIP3   OH246802   0.273   2.794   1.451  0.9284 -0.2568 -0.0872
 7536TIP3    H146803   0.215   2.730   1.408 -1.4799  0.5450  1.7210
 7536TIP3    H246804   0.338   2.740   1.496 -0.0848 -1.3819  0.0908
 7537TIP3   OH246805   3.844   7.085   1.130  0.0581 -0.0608  0.2406
 7537TIP3    H146806   3.919   7.076   1.190  0.5865 -1.8243 -0.6010
 7537TIP3    H246807   3.767   7.085   1.188  0.6543  0.5510  1.0487
 7538TIP3   OH246808   4.201   0.598   2.697  0.3231  0.2108 -0.4561
 7538TIP3    H146809   4.182   0.568   2.786  2.2952  1.2497  0.3732
 7538TIP3    H246810   4.124   0.573   2.646 -1.4219  0.7054  1.8048
 7539TIP3   OH246811   0.491   4.603   1.874  0.0713 -0.0127 -0.0713
 7539TIP3    H146812   0.402   4.571   1.887 -0.2334  0.2992 -1.3116
 7539TIP3    H246813   0.520   4.560   1.794 -0.4472  2.9504 -1.9906
 7540TIP3   OH246814   6.079   3.352   2.847  0.4022 -0.3706 -0.3048
 7540TIP3    H146815   5.991   3.384   2.830  0.9798  0.6626 -1.5206
 7540TIP3    H246816   6.092   3.281   2.784  0.2266 -0.9713  0.3166
 7541TIP3   OH246817   6.912   1.640   0.668 -0.4459 -0.4267 -0.0594
 7541TIP3    H146818   6.947   1.602   0.749  0.1389 -0.9932 -0.5613
 7541TIP3    H246819   6.839   1.695   0.697 -0.3376 -0.7301  0.8382
 7542TIP3   OH246820   6.917   1.656   2.474  0.1696  0.2830  0.0801
 7542TIP3    H146821   7.005   1.691   2.483  0.7655 -1.3474  1.0551
 7542TIP3    H246822   6.908   1.635   2.381  0.6917  0.7734 -0.0803
 7543TIP3   OH246823   0.130   4.634   1.068  0.0422  0.6158 -0.1681
 7543TIP3    H146824   0.126   4.587   0.984 -1.7064 -0.2638  0.3423
 7543TIP3    H246825   0.072   4.709   1.055  1.1911  1.5013 -0.3006
 7544TIP3   OH246826   3.908   4.263   0.624  0.1343  0.4732 -0.1868
 7544TIP3    H146827   3.963   4.185   0.636 -0.2142  0.4450  1.5103
 7544TIP3    H246828   3.970   4.335   0.616  0.4483  0.2349  0.0369
 7545TIP3   OH246829   5.500   7.468   1.574  0.3009  0.2417  0.6442
 7545TIP3    H146830   5.469   7.479   1.664 -3.9806  3.3430 -0.8740
 7545TIP3    H246831   5.515   7.557   1.542 -0.4038 -0.5809 -2.3252
 7546TIP3   OH246832   7.592   3.446   0.739  0.1475  0.2090  0.0036
 7546TIP3    H146833   7.570   3.390   0.814 -1.4563 -0.4747 -0.9200
 7546TIP3    H246834   7.539   3.525   0.752  1.3758  0.9610  0.5926
 7547TIP3   OH246835   6.608   3.736   1.812 -0.2233  0.4128  0.4299
 7547TIP3    H146836   6.554   3.741   1.891 -0.9716  2.3415 -0.1276
 7547TIP3    H246837   6.643   3.647   1.812 -0.6197  0.1966  2.6418
 7548TIP3   OH246838   0.316   3.429   2.169  0.1544 -0.1929 -0.0645
 7548TIP3    H146839   0.338   3.386   2.087  0.1885 -0.6203  0.1643
 7548TIP3    H246840   0.348   3.369   2.237  0.4829  0.3375  0.2608
 7549TIP3   OH246841   1.762   0.034   2.415 -0.0018 -0.3274  0.6153
 7549TIP3    H146842   1.706  -0.008   2.349  2.5990 -0.5574 -1.6077
 7549TIP3    H246843   1.713   0.112   2.441 -1.1636 -0.1979 -1.6296
 7550TIP3   OH246844   0.725   2.779   1.288 -0.0474  0.3571 -0.4711
 7550TIP3    H146845   0.713   2.845   1.356  2.3161  1.1999 -0.7853
 7550TIP3    H246846   0.767   2.705   1.332 -0.0189  0.2362 -0.6963
 7551TIP3   OH246847   1.742   1.108   3.140 -0.1968  0.2544  0.1537
 7551TIP3    H146848   1.822   1.132   3.186 -0.2503 -0.4542  0.6426
 7551TIP3    H246849   1.729   1.015   3.162 -0.1101 -0.1808 -1.4517
 7552TIP3   OH246850   0.117   6.841   2.878  0.2024 -0.3501 -0.7261
 7552TIP3    H146851   0.201   6.850   2.834 -0.4386 -0.2216 -1.9628
 7552TIP3    H246852   0.113   6.750   2.905  0.6693 -0.3936 -0.7979
 7553TIP3   OH246853   5.201   6.221   2.367 -0.2034 -0.1037  0.4280
 7553TIP3    H146854   5.217   6.263   2.451  2.1152 -2.2510  1.1893
 7553TIP3    H246855   5.204   6.292   2.303  0.0536  1.3156  1.9651
 7554TIP3   OH246856   1.501   0.297   0.876 -0.4558 -0.0436 -0.2504
 7554TIP3    H146857   1.527   0.308   0.785 -1.3092  0.1451 -0.4744
 7554TIP3    H246858   1.572   0.338   0.926  0.3942 -0.8220 -0.7872
 7555TIP3   OH246859   5.645   2.644   1.052  0.5486 -0.3163  0.4555
 7555TIP3    H146860   5.733   2.626   1.019  0.9129  0.6803  0.8460
 7555TIP3    H246861   5.627   2.572   1.113  0.2199 -1.6946 -1.1932
 7556TIP3   OH246862   5.326   2.660   1.677 -0.2874  0.2797  0.0726
 7556TIP3    H146863   5.271   2.735   1.653 -0.1960  1.0614  2.1068
 7556TIP3    H246864   5.370   2.635   1.596  1.0662  3.6031 -0.3792
 7557TIP3   OH246865   7.073   4.781   1.931  0.1680  0.4526  0.3277
 7557TIP3    H146866   7.100   4.838   2.002  3.4657 -1.6697  0.9786
 7557TIP3    H246867   7.141   4.791   1.865 -1.5550  0.5290 -1.5422
 7558TIP3   OH246868   1.302   7.100   1.985  0.2567  0.0557  0.0803
 7558TIP3    H146869   1.315   7.020   1.934  0.4829  0.9562 -1.3352
 7558TIP3    H246870   1.347   7.168   1.935 -0.0071  1.0923  1.1993
 7559TIP3   OH246871   5.621   3.083   3.004  0.3295 -0.5620 -0.3756
 7559TIP3    H146872   5.537   3.111   3.040 -0.3016 -1.0295 -1.4391
 7559TIP3    H246873   5.603   2.997   2.965  1.3707 -0.7937 -0.3698
 7560TIP3   OH246874   1.878   1.912   1.091  0.3699 -0.2165  0.2061
 7560TIP3    H146875   1.928   1.993   1.099 -1.0048  0.8419 -1.1401
 7560TIP3    H246876   1.941   1.847   1.060  1.1654  0.7678 -0.3053
 7561TIP3   OH246877   0.543   6.730   1.296 -0.2791  0.1929 -0.7387
 7561TIP3    H146878   0.604   6.801   1.310 -0.4260  0.1770  0.0378
 7561TIP3    H246879   0.589   6.668   1.240  0.1929  0.4631 -0.6465
 7562TIP3   OH246880   2.469   2.215   1.108 -0.0281 -0.2379 -0.1245
 7562TIP3    H146881   2.446   2.305   1.083 -1.0494 -0.4334  0.0708
 7562TIP3    H246882   2.559   2.222   1.142  0.1073  0.6081 -0.6213
 7563TIP3   OH246883   4.973   5.712   2.059  0.3400  0.6944  0.6204
 7563TIP3    H146884   4.998   5.773   2.129  3.1040  0.9367 -0.4428
 7563TIP3    H246885   4.981   5.625   2.099  0.0376  0.8874  1.1159
 7564TIP3   OH246886   2.113   4.013   2.146  0.2505  0.2373 -0.6339
 7564TIP3    H146887   2.169   3.964   2.085 -0.0600  0.8768 -1.4446
 7564TIP3    H246888   2.172   4.043   2.214  0.4507 -1.2773 -0.1064
 7565TIP3   OH246889   3.199   5.272   2.360 -0.1976  0.0392  0.1320
 7565TIP3    H146890   3.195   5.364   2.334 -0.7455 -0.1240 -0.3997
 7565TIP3    H246891   3.148   5.226   2.293 -0.6876 -0.5416  0.8856
 7566TIP3   OH246892   0.164   5.281   1.026 -0.6536  0.2899  0.7212
 7566TIP3    H146893   0.219   5.348   0.984  0.0226  0.4214  1.7756
 7566TIP3    H246894   0.221   5.204   1.031 -0.8819  0.1370  0.9691
 7567TIP3   OH246895   2.814   6.700   1.549  0.0628 -0.0312  0.5059
 7567TIP3    H146896   2.907   6.678   1.541 -0.2662 -0.7506 -2.5252
 7567TIP3    H246897   2.775   6.624   1.591  0.3843 -1.2620 -1.3138
 7568TIP3   OH246898   1.246   0.768   2.806 -0.5596 -0.0533  0.4921
 7568TIP3    H146899   1.236   0.700   2.873 -0.1964  0.6627  1.2946
 7568TIP3    H246900   1.321   0.738   2.754  1.7196  1.1938  2.7770
 7569TIP3   OH246901   2.994   1.220   0.991  0.2448 -0.1429 -0.1825
 7569TIP3    H146902   2.954   1.134   0.997 -1.3232  0.5832  0.3285
 7569TIP3    H246903   3.088   1.203   0.983 -0.0889 -1.8903 -0.6879
 7570TIP3   OH246904   2.165   0.902   1.743  0.2211  0.3107  0.2503
 7570TIP3    H146905   2.151   0.880   1.651 -0.2632 -0.6470  0.5372
 7570TIP3    H246906   2.080   0.887   1.785  0.6862 -0.2087  1.0307
 7571TIP3   OH246907   3.662   3.962   1.576  0.1643  0.3360 -0.1491
 7571TIP3    H146908   3.624   4.048   1.592  0.9450  0.4352  1.3693
 7571TIP3    H246909   3.630   3.937   1.489 -0.0624  2.1474 -0.6169
 7572TIP3   OH246910   3.125   3.614   1.638 -0.0815 -0.1023 -0.0677
 7572TIP3    H146911   3.175   3.541   1.673  0.9175  0.6071  0.0208
 7572TIP3    H246912   3.169   3.692   1.672  0.2129  0.5871 -1.9295
 7573TIP3   OH246913   4.768   1.086   1.203  0.2462 -0.2212  0.0987
 7573TIP3    H146914   4.819   1.164   1.220 -1.5229  0.8336  0.8871
 7573TIP3    H246915   4.810   1.017   1.255  2.5198 -0.1538 -1.5196
 7574TIP3   OH246916   5.512   3.402   2.160 -0.3583 -0.6349 -1.0290
 7574TIP3    H146917   5.501   3.373   2.251  0.1626 -2.3186 -1.4653
 7574TIP3    H246918   5.584   3.464   2.163 -1.9411  1.2449  0.0503
 7575TIP3   OH246919   0.456   0.072   2.635  0.1398 -0.2352  0.0613
 7575TIP3    H146920   0.540   0.027   2.649  0.7171  1.2791  2.0105
 7575TIP3    H246921   0.467   0.156   2.679 -2.3589  0.0643  0.2437
 7576TIP3   OH246922   7.068   1.915   0.395 -0.1148 -0.4542 -0.0765
 7576TIP3    H146923   7.017   1.923   0.314 -1.9462 -0.0877  1.0617
 7576TIP3    H246924   7.068   1.821   0.413 -1.3099 -0.3715  0.4468
 7577TIP3   OH246925   0.813   2.904   1.830 -0.3021  0.8378  0.0330
 7577TIP3    H146926   0.782   2.991   1.804 -0.7645  0.1050 -2.1000
 7577TIP3    H246927   0.782   2.894   1.920 -1.8438  2.1816 -0.2831
 7578TIP3   OH246928   5.851   1.623   1.871 -0.6065  0.3545  0.4756
 7578TIP3    H146929   5.812   1.547   1.827 -5.1048  1.7192  1.6088
 7578TIP3    H246930   5.823   1.698   1.820  2.3522  1.4842  0.3303
 7579TIP3   OH246931   3.709   5.578   1.090  0.4309 -0.0862  0.6324
 7579TIP3    H146932   3.644   5.575   1.020  0.2020  0.5456  0.8143
 7579TIP3    H246933   3.666   5.534   1.163  0.0688  0.6232  0.8577
 7580TIP3   OH246934   1.035   3.332   2.607  0.3107  0.6352 -0.4302
 7580TIP3    H146935   1.071   3.244   2.602  0.5430  0.3908  3.2602
 7580TIP3    H246936   1.101   3.388   2.565  2.9558 -0.3328  2.1482
 7581TIP3   OH246937   2.098   0.220   1.911  0.0587 -0.4851 -0.3944
 7581TIP3    H146938   2.058   0.150   1.962  0.8545 -0.3119  0.4881
 7581TIP3    H246939   2.054   0.215   1.826  0.0204 -1.9908 -0.3236
 7582TIP3   OH246940   3.917   7.319   2.457  0.6644 -0.2509  0.5267
 7582TIP3    H146941   3.991   7.309   2.518 -0.1002 -2.0724  1.2296
 7582TIP3    H246942   3.852   7.256   2.488 -1.1579  1.2057 -0.1484
 7583TIP3   OH246943   0.967   5.357   2.210 -0.2549  0.4263 -0.3510
 7583TIP3    H146944   0.897   5.386   2.270  1.5750  1.8753  1.2036
 7583TIP3    H246945   1.008   5.284   2.256 -1.2656 -1.0753 -1.7061
 7584TIP3   OH246946   1.158   6.567   2.379 -0.0358  0.1950 -0.6895
 7584TIP3    H146947   1.138   6.660   2.388 -0.6737  0.2058 -2.0450
 7584TIP3    H246948   1.226   6.563   2.313  0.1320 -0.2943 -0.4903
 7585TIP3   OH246949   4.874   4.803   0.679 -0.6399 -0.2501 -0.2135
 7585TIP3    H146950   4.873   4.843   0.592 -1.3258 -0.7188 -0.4276
 7585TIP3    H246951   4.824   4.863   0.733  0.1053  0.2322 -0.0495
 7586TIP3   OH246952   2.478   3.795   0.583  0.2639  0.0244 -0.9017
 7586TIP3    H146953   2.398   3.836   0.550  0.7651  0.5792 -1.4458
 7586TIP3    H246954   2.447   3.721   0.635 -0.5689 -1.1026 -2.8645
 7587TIP3   OH246955   6.542   4.362   3.169  0.0841  0.2141 -0.3887
 7587TIP3    H146956   6.467   4.416   3.144 -0.1248  0.1689  0.1339
 7587TIP3    H246957   6.517   4.273   3.144  0.0870  0.2430 -0.4937
 7588TIP3   OH246958   0.661   5.705   2.124  0.5398  0.5870  0.2575
 7588TIP3    H146959   0.701   5.753   2.053  0.1137  1.0576  0.3247
 7588TIP3    H246960   0.658   5.614   2.094 -1.7817  1.0944 -1.3653
 7589TIP3   OH246961   0.532   4.320   0.629 -0.0289  0.0728  0.5681
 7589TIP3    H146962   0.583   4.395   0.598  0.8524 -0.6894  0.1577
 7589TIP3    H246963   0.565   4.304   0.718 -0.0176 -0.0238  0.5457
 7590TIP3   OH246964   2.519   3.385   2.363 -0.2120 -0.5489 -0.0548
 7590TIP3    H146965   2.535   3.437   2.284 -1.1520  0.9190  0.6669
 7590TIP3    H246966   2.599   3.394   2.414  0.0564 -0.7524 -0.4327
 7591TIP3   OH246967   3.747   5.844   3.078 -0.1940 -0.5022 -0.1205
 7591TIP3    H146968   3.702   5.780   3.024 -0.2555  0.1692 -0.8830
 7591TIP3    H246969   3.828   5.863   3.031 -0.3123  0.1959 -0.0567
 7592TIP3   OH246970   5.762   4.049   2.462  0.3898 -0.5909  0.8333
 7592TIP3    H146971   5.731   3.962   2.437 -0.4144  0.0401 -0.4970
 7592TIP3    H246972   5.830   4.070   2.398 -0.0010  0.0863  0.6281
 7593TIP3   OH246973   5.248   0.008   0.714  0.0155  0.0569  0.6379
 7593TIP3    H146974   5.158  -0.006   0.683  0.5700 -0.0765 -1.0468
 7593TIP3    H246975   5.283  -0.080   0.726  0.4346  0.0695 -0.3828
 7594TIP3   OH246976   5.371   5.335   2.764  0.0285  0.1355 -0.1004
 7594TIP3    H146977   5.343   5.362   2.851  1.5223 -1.1633  0.8347
 7594TIP3    H246978   5.375   5.239   2.768  1.6873  0.1150 -1.0452
 7595TIP3   OH246979   5.078   4.826   0.863 -0.1569  0.1761 -0.4485
 7595TIP3    H146980   4.990   4.798   0.836 -0.0831 -0.6569  0.1286
 7595TIP3    H246981   5.078   4.920   0.850 -1.2510  0.2296 -0.1705
 7596TIP3   OH246982   1.226   5.047   1.408  0.5322 -0.0817  0.4213
 7596TIP3    H146983   1.153   5.104   1.431  1.6275  0.4296  2.9135
 7596TIP3    H246984   1.195   4.998   1.332 -2.4311  0.0247  1.4475
 7597TIP3   OH246985   3.021   1.078   2.362 -0.3111  0.3992  0.0840
 7597TIP3    H146986   3.106   1.073   2.319 -0.1241 -0.0039  0.4931
 7597TIP3    H246987   3.041   1.083   2.456 -0.7542 -1.4515  0.3179
 7598TIP3   OH246988   5.210   3.470   1.008 -0.0367  0.0693 -0.0441
 7598TIP3    H146989   5.124   3.477   1.050 -0.2211 -0.9581 -0.2255
 7598TIP3    H246990   5.256   3.549   1.035 -0.5130 -0.0688  1.2640
 7599TIP3   OH246991   0.976   2.050   0.904  0.1245  0.3547  0.0822
 7599TIP3    H146992   0.900   2.107   0.913  0.2118  0.6550 -0.9712
 7599TIP3    H246993   0.957   1.976   0.962 -0.9240  0.4708 -0.0953
 7600TIP3   OH246994   3.238   6.547   1.372  0.3417 -0.3633  0.1638
 7600TIP3    H146995   3.293   6.624   1.386  0.3694 -0.4798  0.7378
 7600TIP3    H246996   3.298   6.481   1.339  0.0736  0.2439 -1.6636
 7601TIP3   OH246997   1.072   4.023   1.385  1.0753 -0.2434  0.0486
 7601TIP3    H146998   1.117   4.095   1.341  1.5716  0.9162  2.2927
 7601TIP3    H246999   1.112   4.019   1.472 -0.5688 -1.6917  0.8044
 7602TIP3   OH247000   4.010   2.200   1.034  0.7203 -0.0338 -0.5430
 7602TIP3    H147001   4.003   2.237   0.946 -0.3433 -0.6615 -0.7338
 7602TIP3    H247002   4.099   2.166   1.039 -0.0580 -2.6230 -2.4511
 7603TIP3   OH247003   1.769   0.544   1.318  0.0675 -0.0402 -0.1896
 7603TIP3    H147004   1.805   0.487   1.386  0.5435  1.0186  0.4727
 7603TIP3    H247005   1.822   0.624   1.323 -0.4213  0.3717 -1.2625
 7604TIP3   OH247006   4.029   7.224   1.882 -0.3307 -0.2505  0.1645
 7604TIP3    H147007   4.117   7.188   1.870 -0.1141  0.2276  0.2922
 7604TIP3    H247008   4.003   7.252   1.795  0.1478  0.7372  0.3242
 7605TIP3   OH247009   5.538   5.793   0.534 -0.2697 -0.1373  0.3302
 7605TIP3    H147010   5.444   5.785   0.548 -0.2769  1.1659  1.3284
 7605TIP3    H247011   5.565   5.710   0.496 -1.7258 -0.7543  0.5954
 7606TIP3   OH247012   0.410   6.513   0.538 -0.3799  0.0360 -0.0579
 7606TIP3    H147013   0.362   6.501   0.620 -1.1583  2.0031 -0.1643
 7606TIP3    H247014   0.349   6.484   0.470  0.8158 -3.0647  0.0406
 7607TIP3   OH247015   3.719   6.211   0.333  0.6891 -0.4157 -0.3141
 7607TIP3    H147016   3.690   6.252   0.414 -1.4482 -0.9290 -0.7637
 7607TIP3    H247017   3.703   6.278   0.266  1.9336 -0.1953 -0.4243
 7608TIP3   OH247018   4.132   7.501   0.603 -0.3558  0.7653 -0.4088
 7608TIP3    H147019   4.121   7.430   0.539 -1.5944  1.0028 -0.4872
 7608TIP3    H247020   4.181   7.568   0.556  1.0137 -0.0936 -0.2698
 7609TIP3   OH247021   2.367   3.743   1.722 -0.0027 -0.0715  0.2481
 7609TIP3    H147022   2.432   3.712   1.659  1.3344  1.5906  0.6971
 7609TIP3    H247023   2.311   3.802   1.672 -0.9319 -1.1705 -0.0420
 7610TIP3   OH247024   0.718   0.743   1.862 -0.1595 -0.0198  0.1087
 7610TIP3    H147025   0.643   0.783   1.817 -0.0502  0.3792  0.2743
 7610TIP3    H247026   0.685   0.724   1.950 -0.4011 -0.8853 -0.1628
 7611TIP3   OH247027   4.207   5.016   1.614  0.2046  0.3650  0.1329
 7611TIP3    H147028   4.223   5.004   1.521  1.2681 -0.0049  0.3531
 7611TIP3    H247029   4.189   5.110   1.624  0.5145  0.4824 -0.3871
 7612TIP3   OH247030   5.725   1.366   1.567 -0.2222  0.3642  0.3309
 7612TIP3    H147031   5.663   1.307   1.524 -0.5104  0.5738  0.4596
 7612TIP3    H247032   5.673   1.443   1.590 -0.3264 -0.1620  1.9822
 7613TIP3   OH247033   3.952   5.646   1.744  0.0384  0.5418  0.4401
 7613TIP3    H147034   3.988   5.654   1.833  1.0601  1.2103 -0.0134
 7613TIP3    H247035   4.012   5.697   1.690 -0.2943 -0.2756 -0.7227
 7614TIP3   OH247036   6.529   1.713   3.226  0.4649  0.0194 -0.4994
 7614TIP3    H147037   6.437   1.699   3.247  0.8312 -1.9029  0.0297
 7614TIP3    H247038   6.576   1.692   3.307  1.5012 -1.6223 -1.4514
 7615TIP3   OH247039   7.375   2.845   2.716 -0.9504 -0.6642  0.1516
 7615TIP3    H147040   7.469   2.864   2.711 -0.0556 -4.3335 -0.2037
 7615TIP3    H247041   7.362   2.812   2.805 -1.7378 -0.8161 -0.0128
 7616TIP3   OH247042   2.941   0.409   1.385  0.0948  0.6146 -0.0581
 7616TIP3    H147043   2.922   0.494   1.345  0.4034  0.5740 -0.2958
 7616TIP3    H247044   2.870   0.396   1.447 -1.6755 -0.3319 -2.1500
 7617TIP3   OH247045   0.911   3.556   1.089  0.2916 -0.0737 -0.1666
 7617TIP3    H147046   0.945   3.645   1.104 -0.1390 -0.0113  0.4664
 7617TIP3    H247047   0.852   3.565   1.014 -1.3507  0.5937  1.1614
 7618TIP3   OH247048   0.701   2.510   2.162 -0.1315 -0.0650 -0.3826
 7618TIP3    H147049   0.694   2.458   2.082  1.8264 -0.4413 -0.3754
 7618TIP3    H247050   0.723   2.445   2.230  0.2461  0.4986  0.0433
 7619TIP3   OH247051   1.918   4.499   1.458 -0.2695 -0.2887  0.2149
 7619TIP3    H147052   1.923   4.424   1.399 -0.7240 -0.7219  0.7230
 7619TIP3    H247053   1.899   4.461   1.544  1.8834  0.1793  0.9713
 7620TIP3   OH247054   2.643   6.933   2.505  0.3072  0.1853 -0.1072
 7620TIP3    H147055   2.574   6.898   2.561  2.3378 -1.6411  1.4354
 7620TIP3    H247056   2.628   6.892   2.420 -2.3885  2.4279 -0.8371
 7621TIP3   OH247057   0.958   7.648   1.439 -0.1008 -0.0394  0.1227
 7621TIP3    H147058   0.986   7.633   1.529  0.6455 -1.0514 -0.2571
 7621TIP3    H247059   0.892   7.580   1.423  0.1942 -0.2404 -0.2679
 7622TIP3   OH247060   1.579   0.037   0.848  0.2387 -0.7376  0.1817
 7622TIP3    H147061   1.674   0.022   0.846  0.2088 -1.0292  0.7179
 7622TIP3    H247062   1.569   0.129   0.871  0.3847 -0.9023  0.9124
 7623TIP3   OH247063   2.935   4.622   2.445  0.2761  0.2760  0.1543
 7623TIP3    H147064   3.014   4.614   2.499  1.3787  0.6668 -1.3437
 7623TIP3    H247065   2.934   4.714   2.418 -1.1184  0.4534  0.7576
 7624TIP3   OH247066   2.349   6.801   1.647  0.1120 -0.9792  0.1739
 7624TIP3    H147067   2.352   6.896   1.644 -1.9029 -0.8989 -1.1104
 7624TIP3    H247068   2.439   6.775   1.666  1.3981  1.0913 -2.3921
 7625TIP3   OH247069   6.287   0.003   2.963 -0.0866  0.0538  0.3366
 7625TIP3    H147070   6.271  -0.004   3.057  0.7633  0.3867  0.5082
 7625TIP3    H247071   6.329  -0.079   2.939  1.2558  0.6453  0.5803
 7626TIP3   OH247072   7.420   6.615   0.405  0.0707  0.3326  0.2189
 7626TIP3    H147073   7.461   6.534   0.434 -2.7630 -0.5807  2.0870
 7626TIP3    H247074   7.363   6.641   0.478  0.0647  3.4607 -0.7259
 7627TIP3   OH247075   7.302   5.165   0.911 -0.0414 -0.0402 -0.0303
 7627TIP3    H147076   7.301   5.135   1.002 -0.0360 -0.5384 -0.1956
 7627TIP3    H247077   7.210   5.172   0.887 -0.1340  2.3856  0.7595
 7628TIP3   OH247078   6.381   0.672   2.766 -0.2329  0.3499 -0.0480
 7628TIP3    H147079   6.448   0.612   2.733  0.5920  0.8567  0.6633
 7628TIP3    H247080   6.299   0.639   2.730  0.5485  0.5835 -2.1944
 7629TIP3   OH247081   2.765   3.925   1.093  0.4792  0.3574 -0.4717
 7629TIP3    H147082   2.841   3.874   1.065  0.5426  0.9232 -1.3588
 7629TIP3    H247083   2.803   3.999   1.140  0.4831  0.6471 -0.9266
 7630TIP3   OH247084   7.007   3.491   0.923 -0.2038 -0.1228 -0.0554
 7630TIP3    H147085   6.996   3.549   0.848  0.8297  0.8656  0.5355
 7630TIP3    H247086   7.050   3.413   0.888 -0.4157  0.0124 -0.6159
 7631TIP3   OH247087   5.426   5.202   2.308 -0.2786 -0.0673 -0.0670
 7631TIP3    H147088   5.466   5.224   2.224 -0.0793  0.4012  0.1472
 7631TIP3    H247089   5.463   5.265   2.370 -1.6992  0.6965  0.0454
 7632TIP3   OH247090   1.622   2.134   3.220  0.2521  0.5681 -0.1781
 7632TIP3    H147091   1.562   2.163   3.288  1.7875  1.5769  0.8020
 7632TIP3    H247092   1.650   2.214   3.176  0.3403  0.0482 -1.1077
 7633TIP3   OH247093   4.470   3.210   1.643  0.3184  0.1888  0.3174
 7633TIP3    H147094   4.485   3.138   1.704  2.5950  3.2292  3.7963
 7633TIP3    H247095   4.381   3.239   1.661  1.1249  1.4050  2.9239
 7634TIP3   OH247096   4.988   6.510   2.330 -0.3712  0.1853  0.2827
 7634TIP3    H147097   5.064   6.559   2.297 -0.1027 -0.3389  0.1034
 7634TIP3    H247098   4.969   6.550   2.414  1.5427 -1.1129  1.4219
 7635TIP3   OH247099   6.551   0.908   2.765  0.1664 -0.7691  0.2394
 7635TIP3    H147100   6.473   0.855   2.779 -1.5846  1.8942  1.3342
 7635TIP3    H247101   6.519   0.990   2.727  2.5759  0.0009 -0.3598
 7636TIP3   OH247102   0.304   2.699   0.893  0.5043  0.2950  0.1244
 7636TIP3    H147103   0.309   2.604   0.904 -1.4931  0.0758 -0.5576
 7636TIP3    H247104   0.298   2.733   0.982  1.4458 -0.1794  0.3828
 7637TIP3   OH247105   5.096   4.082   2.526  0.0371  0.3708  0.0729
 7637TIP3    H147106   5.031   4.049   2.588  1.0559 -0.1801  0.8613
 7637TIP3    H247107   5.106   4.011   2.462  0.3542  0.1751  0.3359
 7638TIP3   OH247108   2.877   5.664   1.173 -0.1659 -0.0082 -0.2056
 7638TIP3    H147109   2.890   5.605   1.248  0.1345 -0.8651 -0.9097
 7638TIP3    H247110   2.961   5.708   1.163  0.7187 -1.8736 -1.6649
 7639TIP3   OH247111   1.096   1.702   1.135  0.5903  0.1664  0.0712
 7639TIP3    H147112   1.039   1.779   1.133  0.8964  0.3982  0.3540
 7639TIP3    H247113   1.164   1.720   1.071  1.0240  0.4114  0.5962
 7640TIP3   OH247114   2.932   4.382   1.860 -0.0315  0.0980  0.0650
 7640TIP3    H147115   2.848   4.337   1.872 -0.2787  0.7431  0.8239
 7640TIP3    H247116   2.911   4.475   1.866  0.7350  0.2676  0.2539
 7641TIP3   OH247117   5.833   7.302   2.718  0.0286  0.0816 -0.0999
 7641TIP3    H147118   5.907   7.315   2.659 -0.5503 -1.0207 -1.1156
 7641TIP3    H247119   5.788   7.386   2.720  0.7881  0.4957 -0.2018
 7642TIP3   OH247120   3.275   6.109   3.640 -0.0948  0.4569  0.2151
 7642TIP3    H147121   3.343   6.045   3.620  0.3787  0.9352  0.2388
 7642TIP3    H247122   3.193   6.059   3.642  0.1495  0.0103 -0.6238
 7643TIP3   OH247123   0.525   3.064   1.088 -0.3188 -0.0979 -0.2466
 7643TIP3    H147124   0.512   2.976   1.054 -0.5760 -0.0398 -0.2944
 7643TIP3    H247125   0.457   3.117   1.047 -0.2868  0.0837 -0.0685
 7644TIP3   OH247126   0.785   7.331   0.734 -0.2133 -0.6791  0.0027
 7644TIP3    H147127   0.716   7.376   0.784  1.2202 -0.8758  2.3296
 7644TIP3    H247128   0.826   7.273   0.799  1.3564 -1.4650 -1.6294
 7645TIP3   OH247129   0.407   2.196   0.494 -0.6458  0.4637  0.0114
 7645TIP3    H147130   0.326   2.242   0.473 -2.5812 -2.7091 -0.1779
 7645TIP3    H247131   0.385   2.141   0.569  0.8007 -1.5855 -0.9501
 7646TIP3   OH247132   7.142   2.769   0.705 -0.0456 -0.1821 -0.3878
 7646TIP3    H147133   7.061   2.720   0.699 -0.0501 -0.0607 -1.3849
 7646TIP3    H247134   7.153   2.786   0.799 -0.4894 -1.3197 -0.1160
 7647TIP3   OH247135   0.991   7.493   0.616 -0.3534 -0.0005  0.6591
 7647TIP3    H147136   0.911   7.445   0.636 -0.1139 -0.5861  0.2492
 7647TIP3    H247137   1.024   7.520   0.702 -0.4229 -0.6934  0.9162
 7648TIP3   OH247138   0.127   7.009   3.312 -0.5496 -0.1930  0.1232
 7648TIP3    H147139   0.206   6.957   3.325  0.4097  1.3737  0.7943
 7648TIP3    H247140   0.072   6.955   3.255  1.1626 -1.1518 -0.6887
 7649TIP3   OH247141   4.848   3.588   1.592  0.0075 -0.1904  0.0279
 7649TIP3    H147142   4.844   3.549   1.504  0.2486 -1.4004  0.5348
 7649TIP3    H247143   4.934   3.562   1.626 -0.3211 -0.2411  0.8446
 7650TIP3   OH247144   0.750   3.434   2.626 -0.2797  0.3289 -0.3233
 7650TIP3    H147145   0.741   3.501   2.559  0.6532  0.0547 -0.7409
 7650TIP3    H247146   0.839   3.400   2.614 -0.4248 -0.3580  0.4586
 7651TIP3   OH247147   6.359   3.691   0.547  0.1974 -0.1123  0.2874
 7651TIP3    H147148   6.301   3.739   0.606  0.0951 -1.4637  1.3106
 7651TIP3    H247149   6.310   3.612   0.523  1.3990 -1.0240  0.7582
 7652TIP3   OH247150   2.646   1.312   1.687 -0.0600  0.3265  0.2935
 7652TIP3    H147151   2.615   1.223   1.675 -3.0677  1.1878  0.7091
 7652TIP3    H247152   2.710   1.307   1.757  0.0391 -1.5337  0.1092
 7653TIP3   OH247153   0.018   1.131   1.219 -0.2627  0.5053  0.4720
 7653TIP3    H147154   0.070   1.123   1.299 -0.2960  0.5155  0.4946
 7653TIP3    H247155  -0.070   1.151   1.250 -0.8239 -1.7923  0.5441
 7654TIP3   OH247156   3.708   0.973   1.232  0.0435 -0.1066  0.2780
 7654TIP3    H147157   3.763   1.031   1.180  1.2796 -1.5450 -0.0755
 7654TIP3    H247158   3.711   1.010   1.321  0.2734  0.7191 -0.0711
 7655TIP3   OH247159   6.184   4.281   1.966  0.2588 -0.2141 -0.2661
 7655TIP3    H147160   6.171   4.254   1.876  0.7663  0.4765 -0.5568
 7655TIP3    H247161   6.119   4.232   2.016  0.5575 -1.2658 -0.8864
 7656TIP3   OH247162   4.910   1.785   3.075 -0.5755 -0.0819 -0.4853
 7656TIP3    H147163   4.858   1.802   2.997 -0.7607  3.7863  0.2674
 7656TIP3    H247164   4.995   1.826   3.057  0.7072 -2.3311  0.0392
 7657TIP3   OH247165   6.354   3.435   2.134 -0.1321 -0.4961  0.3214
 7657TIP3    H147166   6.260   3.421   2.121 -0.3948  1.6569 -0.5890
 7657TIP3    H247167   6.396   3.363   2.087 -1.3288 -0.4582 -0.8612
 7658TIP3   OH247168   4.625   0.976   2.094 -0.1181  0.1899  0.1389
 7658TIP3    H147169   4.689   0.957   2.026 -0.3384  1.3484 -0.4284
 7658TIP3    H247170   4.602   1.068   2.080 -0.8352  0.1970  1.2264
 7659TIP3   OH247171   6.799   3.685   2.623 -0.0761 -0.1630 -0.7910
 7659TIP3    H147172   6.778   3.746   2.694 -0.0656  2.1383 -2.6383
 7659TIP3    H247173   6.718   3.676   2.574  0.4742  0.0882 -1.7680
 7660TIP3   OH247174   0.362   6.960   0.755 -0.0399  0.4163 -0.4260
 7660TIP3    H147175   0.415   6.884   0.733  0.1398  0.4228 -0.0224
 7660TIP3    H247176   0.275   6.941   0.719  0.2181  0.3846 -1.0462
 7661TIP3   OH247177   1.082   3.906   1.955  0.0332 -1.0337 -0.4391
 7661TIP3    H147178   1.121   3.842   1.896 -0.4033  0.2151 -2.1596
 7661TIP3    H247179   1.052   3.977   1.897  0.7518  0.8595  1.4003
 7662TIP3   OH247180   7.555   0.367   1.497 -0.0120 -0.0539 -0.3585
 7662TIP3    H147181   7.636   0.318   1.508 -0.2197 -0.2441  0.3884
 7662TIP3    H247182   7.577   0.437   1.435  0.4590 -0.6797 -0.9111
 7663TIP3   OH247183   1.422   6.237   2.406 -0.0814 -0.5726  0.0562
 7663TIP3    H147184   1.435   6.191   2.324  0.0841 -1.7689  0.7297
 7663TIP3    H247185   1.441   6.329   2.386  1.1605 -1.0288 -0.9491
 7664TIP3   OH247186   2.678   0.959   2.921 -0.4094  0.3822  0.4358
 7664TIP3    H147187   2.639   1.043   2.897 -1.4434 -0.4413 -0.9377
 7664TIP3    H247188   2.745   0.981   2.987 -0.3454  2.3097 -0.2080
 7665TIP3   OH247189   0.542   3.251   1.341  0.2311 -0.5605 -0.0698
 7665TIP3    H147190   0.462   3.204   1.365 -0.1885  0.4608  0.5892
 7665TIP3    H247191   0.537   3.258   1.245 -1.2732  0.8308  0.0632
 7666TIP3   OH247192   5.541   3.593   1.217  0.5517 -0.2676 -0.1345
 7666TIP3    H147193   5.470   3.571   1.277 -2.0233  0.9718 -2.5027
 7666TIP3    H247194   5.548   3.688   1.222  0.7729 -0.2077 -1.2311
 7667TIP3   OH247195   2.398   5.930   2.340  0.0004 -0.3356  0.1374
 7667TIP3    H147196   2.325   5.988   2.358 -0.0178 -0.3799  0.2109
 7667TIP3    H247197   2.364   5.866   2.278 -0.3319 -0.9639  0.9386
 7668TIP3   OH247198   0.371   2.771   2.510  0.3656  0.0293  0.1926
 7668TIP3    H147199   0.377   2.867   2.509 -0.3572  0.0961 -2.1455
 7668TIP3    H247200   0.278   2.753   2.522  0.7136 -0.4768  2.7008
 7669TIP3   OH247201   5.892   1.799   0.612  0.9223  0.2612  0.4872
 7669TIP3    H147202   5.802   1.797   0.643  0.8075  1.1976  0.2360
 7669TIP3    H247203   5.931   1.719   0.647 -0.0755 -0.2925  0.3682
 7670TIP3   OH247204   0.410   1.766   2.613  0.6894  0.3153 -0.4649
 7670TIP3    H147205   0.447   1.823   2.546  2.1141 -0.2345 -0.1857
 7670TIP3    H247206   0.483   1.709   2.639 -0.8538 -2.2407 -1.3639
 7671TIP3   OH247207   6.786   5.927   0.705  0.0026  0.3106  0.0644
 7671TIP3    H147208   6.803   5.896   0.617 -0.2749 -0.8915  0.4205
 7671TIP3    H247209   6.696   5.960   0.702 -0.2326 -0.3307  0.0585
 7672TIP3   OH247210   5.501   5.547   0.759  0.0524  0.3040 -0.4458
 7672TIP3    H147211   5.589   5.546   0.722 -0.1113 -0.5506 -0.8308
 7672TIP3    H247212   5.512   5.523   0.850  0.3244  1.2331 -0.2206
 7673TIP3   OH247213   7.430   0.484   2.746  0.5350 -0.4765  0.2590
 7673TIP3    H147214   7.379   0.467   2.825  0.4792  0.1696  0.3685
 7673TIP3    H247215   7.521   0.477   2.775  0.5275  0.3907  0.5454
 7674TIP3   OH247216   5.296   5.532   0.594 -0.2908 -0.4624  0.3715
 7674TIP3    H147217   5.376   5.570   0.630  0.2014 -1.0765 -0.0607
 7674TIP3    H247218   5.303   5.439   0.613 -1.5749 -0.3585  1.5942
 7675TIP3   OH247219   1.735   6.290   1.255 -0.0417 -0.8883  0.1832
 7675TIP3    H147220   1.723   6.200   1.288 -1.7986 -0.1815  1.6335
 7675TIP3    H247221   1.819   6.317   1.291  0.6654 -2.0176 -0.5249
 7676TIP3   OH247222   7.163   3.234   0.488  0.5946  0.5016 -0.0188
 7676TIP3    H147223   7.085   3.202   0.531  1.1529  0.7991  1.2539
 7676TIP3    H247224   7.142   3.324   0.462  0.2139  0.2767 -0.5022
 7677TIP3   OH247225   1.684   0.345   1.725 -0.3643  0.1494 -0.4990
 7677TIP3    H147226   1.644   0.430   1.741  1.1492  1.0295 -1.1305
 7677TIP3    H247227   1.616   0.294   1.681 -1.4852  0.8233  0.4169
 7678TIP3   OH247228   5.544   1.009   1.067 -0.4392 -0.4466  0.0784
 7678TIP3    H147229   5.498   1.052   1.138 -0.2256 -0.5007  0.2494
 7678TIP3    H247230   5.474   0.971   1.013 -0.7882  1.9707 -1.3172
 7679TIP3   OH247231   2.660   5.915   2.219 -0.7935 -0.3246  0.1645
 7679TIP3    H147232   2.581   5.918   2.272 -1.3467 -1.7165 -0.5341
 7679TIP3    H247233   2.638   5.963   2.139  0.2507  2.3558  1.3451
 7680TIP3   OH247234   4.459   3.326   2.297  0.2058 -0.0234  0.1461
 7680TIP3    H147235   4.392   3.339   2.230  0.9024 -1.3137 -0.8527
 7680TIP3    H247236   4.428   3.376   2.373 -1.7103 -0.3360 -0.3900
 7681TIP3   OH247237   7.156   0.966   2.898 -0.0294 -0.1876 -0.2419
 7681TIP3    H147238   7.111   0.926   2.972 -0.1017  1.0211  0.3861
 7681TIP3    H247239   7.249   0.949   2.915  0.0559  1.1445  0.8121
 7682TIP3   OH247240   6.102   2.303   1.053 -0.4599  0.0545 -0.0382
 7682TIP3    H147241   6.047   2.303   0.975  0.7727  0.0389 -0.9400
 7682TIP3    H247242   6.140   2.215   1.056  1.1345  0.6893 -0.6493
 7683TIP3   OH247243   6.889   3.951   0.590  0.1004  0.3368  0.5543
 7683TIP3    H147244   6.955   4.006   0.547 -0.4689 -0.4882 -1.4587
 7683TIP3    H247245   6.809   3.965   0.539 -0.7739 -0.2269  1.7281
 7684TIP3   OH247246   4.035   6.977   1.625  0.4502  0.5841 -0.3929
 7684TIP3    H147247   4.035   6.943   1.714  1.1343 -0.8394 -0.9080
 7684TIP3    H247248   3.977   7.053   1.628  0.2996  0.4251  1.2090
 7685TIP3   OH247249   0.939   0.127   2.372 -0.0439  0.3000  0.4499
 7685TIP3    H147250   0.864   0.158   2.422 -0.1879  3.0010 -1.2184
 7685TIP3    H247251   1.013   0.176   2.406  0.0685  1.2305 -1.0124
 7686TIP3   OH247252   6.482   7.066   0.750  0.1152  0.8975  0.2569
 7686TIP3    H147253   6.455   7.081   0.841 -1.0744 -0.3156  0.1276
 7686TIP3    H247254   6.540   6.991   0.754 -0.0053  0.7915 -0.0020
 7687TIP3   OH247255   6.818   4.741   0.882  0.1935  0.1049  0.5160
 7687TIP3    H147256   6.831   4.666   0.823 -1.3867  0.0333  0.2034
 7687TIP3    H247257   6.789   4.812   0.824 -2.0577 -0.1542  1.2283
 7688TIP3   OH247258   5.768   6.080   2.736 -0.2091  0.4392  0.1525
 7688TIP3    H147259   5.765   6.055   2.829 -1.0650 -1.1487 -0.2882
 7688TIP3    H247260   5.680   6.112   2.717  1.1505  5.7424  1.1090
 7689TIP3   OH247261   0.622   7.427   3.406  0.3134  0.4066 -0.1026
 7689TIP3    H147262   0.656   7.514   3.383  0.0390  0.7541  0.7785
 7689TIP3    H247263   0.685   7.366   3.367  0.0060  0.9669 -1.5364
 7690TIP3   OH247264   5.745   0.252   1.606 -0.1711 -0.2342  0.3076
 7690TIP3    H147265   5.809   0.316   1.635 -0.5701 -0.1960  1.1124
 7690TIP3    H247266   5.665   0.302   1.591 -0.9468 -0.7310  2.4488
 7691TIP3   OH247267   2.073   5.127   2.098  0.0898  0.3700 -0.0637
 7691TIP3    H147268   2.010   5.145   2.028 -1.6563  0.3911  1.4589
 7691TIP3    H247269   2.037   5.051   2.144  1.5417 -0.0390  0.4587
 7692TIP3   OH247270   1.339   4.199   2.318 -0.3792 -0.5375  0.2431
 7692TIP3    H147271   1.321   4.105   2.311 -0.9261 -0.5134  1.1267
 7692TIP3    H247272   1.269   4.240   2.268 -0.4061 -0.5852  0.2409
 7693TIP3   OH247273   3.545   6.400   8.829 -0.6172  0.2423 -0.1188
 7693TIP3    H147274   3.628   6.427   8.867  0.0657  1.1255 -2.1041
 7693TIP3    H247275   3.485   6.472   8.848 -0.7749 -0.1236  0.7953
 7694TIP3   OH247276   0.213   4.211   2.397  0.6345 -0.3925  0.0255
 7694TIP3    H147277   0.151   4.247   2.333  0.6998 -1.0146 -0.3943
 7694TIP3    H247278   0.223   4.280   2.462  0.4512  0.1955 -0.5598
 7695TIP3   OH247279   6.496   6.448   3.261  0.4046  0.4223 -0.6994
 7695TIP3    H147280   6.523   6.440   3.170  2.1061 -1.2224 -0.1250
 7695TIP3    H247281   6.548   6.383   3.307  0.1641  1.7356  1.5907
 7696TIP3   OH247282   2.908   0.635   1.178 -0.0576  0.1973 -0.3774
 7696TIP3    H147283   2.854   0.698   1.226  2.0819  1.2699  0.7648
 7696TIP3    H247284   2.883   0.648   1.087  1.3793  4.0253 -0.4332
 7697TIP3   OH247285   6.479   3.320   1.083 -0.4575 -0.6017  0.0706
 7697TIP3    H147286   6.574   3.310   1.085 -0.5681 -1.8789 -0.0972
 7697TIP3    H247287   6.462   3.399   1.134  0.7251 -0.0552 -0.3538
 7698TIP3   OH247288   2.127   5.498   0.497  0.6060  0.1251 -0.6715
 7698TIP3    H147289   2.139   5.408   0.467  2.4070 -0.0681  0.4424
 7698TIP3    H247290   2.042   5.498   0.540  1.4549 -1.6435  1.1717
 7699TIP3   OH247291   2.600   1.926   1.710  0.1144  0.1899  0.0158
 7699TIP3    H147292   2.616   1.875   1.630  1.5542  2.1561 -1.0643
 7699TIP3    H247293   2.543   1.997   1.682  2.2464  2.0832  0.1342
 7700TIP3   OH247294   3.545   5.746   2.130 -0.5142 -0.3127 -0.0340
 7700TIP3    H147295   3.575   5.741   2.039 -0.2450 -0.0835  0.0387
 7700TIP3    H247296   3.494   5.666   2.144  0.3056 -0.8593 -0.0839
 7701TIP3   OH247297   0.248   5.744   1.703  1.0623  0.0581 -0.2176
 7701TIP3    H147298   0.158   5.754   1.672  0.1312 -0.1775  2.2297
 7701TIP3    H247299   0.291   5.825   1.677  0.2557  0.0556 -1.6798
 7702TIP3   OH247300   3.984   5.147   1.349 -0.7537 -0.2782 -0.1691
 7702TIP3    H147301   4.020   5.063   1.320 -3.2519 -1.9074  1.0177
 7702TIP3    H247302   3.951   5.188   1.269 -1.2510 -1.3940 -0.5640
 7703TIP3   OH247303   0.996   0.292   1.014  0.1475 -0.0834  0.1470
 7703TIP3    H147304   0.959   0.253   1.093 -0.8124 -2.2620 -1.2901
 7703TIP3    H247305   0.919   0.321   0.964  0.3588 -2.8425 -1.9710
 7704TIP3   OH247306   2.430   0.967   2.591 -0.1539 -0.0120 -0.3312
 7704TIP3    H147307   2.415   1.025   2.666 -0.5979 -0.1407 -0.3138
 7704TIP3    H247308   2.352   0.911   2.589 -0.0605 -0.1286 -0.7793
 7705TIP3   OH247309   4.335   6.876   1.723 -0.5218 -0.3405 -0.2780
 7705TIP3    H147310   4.265   6.825   1.683 -0.1000 -0.0158 -1.4908
 7705TIP3    H247311   4.412   6.856   1.670 -0.6542  2.7096 -1.8388
 7706TIP3   OH247312   2.223   6.015   3.162 -0.2369 -0.0532  0.2193
 7706TIP3    H147313   2.222   6.104   3.127 -0.5996 -1.0697 -2.6594
 7706TIP3    H247314   2.134   6.002   3.197 -0.2918  0.5890  0.3295
 7707TIP3   OH247315   6.001   0.125   3.315  0.1350  0.3255  0.0075
 7707TIP3    H147316   5.958   0.056   3.265  1.4150 -0.5896  0.1197
 7707TIP3    H247317   6.086   0.137   3.272  0.3102  1.1595  0.5589
 7708TIP3   OH247318   5.839   4.553   2.032 -0.1196 -0.2030 -0.3467
 7708TIP3    H147319   5.913   4.508   2.072  0.0399 -0.2548 -0.6961
 7708TIP3    H247320   5.863   4.645   2.033 -0.1352 -0.2004 -0.2755
 7709TIP3   OH247321   4.729   1.889   0.870  0.1477 -0.0901 -0.1375
 7709TIP3    H147322   4.798   1.947   0.837  0.9588  0.6490  2.6287
 7709TIP3    H247323   4.659   1.948   0.898  0.5947 -0.4479  1.8502
 7710TIP3   OH247324   4.877   7.441   1.453 -0.6745  0.2123  0.4765
 7710TIP3    H147325   4.872   7.431   1.548  2.3718  1.5608  0.8967
 7710TIP3    H247326   4.853   7.533   1.437 -0.4538  0.1938  0.0224
 7711TIP3   OH247327   7.012   7.412   2.698  0.2940 -0.9242 -0.5657
 7711TIP3    H147328   6.924   7.444   2.677  1.5624  1.6677 -2.4696
 7711TIP3    H247329   7.048   7.384   2.615  1.2245 -2.1859  0.2270
 7712TIP3   OH247330   6.015   0.289   2.193 -0.2803 -0.7217  0.1820
 7712TIP3    H147331   6.015   0.258   2.102  0.5141  0.9689 -0.4265
 7712TIP3    H247332   6.107   0.284   2.219 -0.4727 -0.9568  0.8294
 7713TIP3   OH247333   3.147   1.220   2.577  0.0643 -0.2515  0.2529
 7713TIP3    H147334   3.237   1.229   2.607 -0.2163  0.1762  1.0021
 7713TIP3    H247335   3.094   1.248   2.652 -0.6681  0.6050 -0.5640
 7714TIP3   OH247336   0.014   2.356   0.763 -0.3620 -0.1448 -0.0246
 7714TIP3    H147337   0.082   2.297   0.731 -0.3142 -0.2012  0.1817
 7714TIP3    H247338  -0.067   2.323   0.723  0.0097  1.2251 -2.0614
 7715TIP3   OH247339   3.453   3.691   1.306  0.1256  0.3071 -0.3539
 7715TIP3    H147340   3.485   3.670   1.218 -0.8570  0.9027 -0.8665
 7715TIP3    H247341   3.503   3.769   1.331  0.6869 -0.0917 -0.2184
 7716TIP3   OH247342   7.412   1.457   0.784  0.2494 -0.0203  0.2258
 7716TIP3    H147343   7.323   1.444   0.817  0.0996  0.5957  0.0721
 7716TIP3    H247344   7.401   1.512   0.707  0.3541 -2.9929 -2.1310
 7717TIP3   OH247345   4.513   6.081   0.710  0.3973  0.0786  0.6077
 7717TIP3    H147346   4.566   6.160   0.700  2.2674 -1.1332  0.4961
 7717TIP3    H247347   4.430   6.102   0.668  1.4028  1.4609 -0.7980
 7718TIP3   OH247348   7.009   4.686   2.283 -0.0532 -0.5072 -0.0729
 7718TIP3    H147349   6.927   4.718   2.319 -0.9989 -1.0918 -1.6126
 7718TIP3    H247350   7.069   4.760   2.293 -0.6374 -0.1906  1.3856
 7719TIP3   OH247351   1.844   6.988   2.300 -0.0642  0.3012 -0.1558
 7719TIP3    H147352   1.876   7.073   2.329  0.4263  0.2942 -0.6578
 7719TIP3    H247353   1.838   6.997   2.204 -1.0920  0.1430 -0.1252
 7720TIP3   OH247354   2.341   2.672   0.852 -0.1145  0.3413 -0.2071
 7720TIP3    H147355   2.347   2.767   0.843  0.7698  0.2727 -0.3804
 7720TIP3    H247356   2.362   2.655   0.944 -0.7792  0.3482 -0.0482
 7721TIP3   OH247357   2.576   6.656   2.847 -0.8145  0.0135  0.0572
 7721TIP3    H147358   2.555   6.564   2.867  0.3252  0.0007  1.2526
 7721TIP3    H247359   2.624   6.652   2.764 -1.5183 -0.3649 -0.3492
 7722TIP3   OH247360   1.822   3.413   1.329  0.0074 -0.2541 -0.2548
 7722TIP3    H147361   1.813   3.334   1.275  1.0319  0.1289 -1.0079
 7722TIP3    H247362   1.742   3.463   1.312 -0.0331 -0.5028 -0.8138
 7723TIP3   OH247363   1.229   3.955   2.227 -0.6685 -0.2944  0.3179
 7723TIP3    H147364   1.302   3.955   2.165 -0.7819  0.5771  0.1752
 7723TIP3    H247365   1.159   3.909   2.180 -0.5911 -0.0822 -0.0096
 7724TIP3   OH247366   0.264   4.868   3.045 -0.3347  0.2778 -0.6052
 7724TIP3    H147367   0.177   4.830   3.040 -0.4297  0.5180 -0.8172
 7724TIP3    H247368   0.253   4.957   3.012 -0.1073  0.4743 -0.1700
 7725TIP3   OH247369   3.929   2.354   2.427 -0.7283 -1.0526 -0.1373
 7725TIP3    H147370   3.842   2.387   2.451 -1.1758 -2.9617  1.0661
 7725TIP3    H247371   3.971   2.336   2.511  1.2800  0.7684 -0.6489
 7726TIP3   OH247372   6.164   2.996   0.549  0.4808  0.2501  0.0183
 7726TIP3    H147373   6.150   2.963   0.638  0.4469 -1.9532 -0.7425
 7726TIP3    H247374   6.199   3.085   0.561  1.4179 -0.3573  2.2473
 7727TIP3   OH247375   5.815   6.056   1.759 -0.1418 -0.1080 -1.1059
 7727TIP3    H147376   5.843   6.064   1.668  0.4422  0.9854 -0.8561
 7727TIP3    H247377   5.739   5.999   1.756  0.2469 -0.5966 -2.1978
 7728TIP3   OH247378   6.844   1.614   2.221  0.5779  0.6101  0.6779
 7728TIP3    H147379   6.917   1.589   2.165  0.0155 -0.1550  0.2721
 7728TIP3    H247380   6.784   1.662   2.164  0.5794  0.9060  0.9192
 7729TIP3   OH247381   1.932   6.451   3.054 -0.3382  0.4593 -0.0169
 7729TIP3    H147382   1.896   6.513   3.117 -1.8919 -0.9419  0.5370
 7729TIP3    H247383   1.955   6.374   3.106 -0.5602 -0.2800 -0.9810
 7730TIP3   OH247384   2.489   6.422   1.495 -0.0040  0.0213 -0.4024
 7730TIP3    H147385   2.532   6.494   1.449 -0.2627 -0.2119 -1.0123
 7730TIP3    H247386   2.405   6.411   1.451 -0.6528  0.3817  0.7013
 7731TIP3   OH247387   2.000   3.097   1.206  0.2989  0.1608 -0.4927
 7731TIP3    H147388   1.972   3.125   1.119 -0.6211 -0.2990 -0.3564
 7731TIP3    H247389   2.059   3.166   1.235  0.1423  0.6249 -1.2319
 7732TIP3   OH247390   1.718   3.808   1.147  0.1403  0.1759 -0.4177
 7732TIP3    H147391   1.783   3.777   1.085 -0.2744 -1.0075 -0.2839
 7732TIP3    H247392   1.730   3.903   1.150  0.5243  0.1875 -1.8815
 7733TIP3   OH247393   6.746   1.111   0.486  0.1542  0.3212 -0.6211
 7733TIP3    H147394   6.827   1.069   0.460 -0.3705 -2.2361  1.5644
 7733TIP3    H247395   6.757   1.132   0.578 -1.6918 -0.1767 -0.2473
 7734TIP3   OH247396   3.650   7.030   1.331 -0.5889  0.1559  0.2572
 7734TIP3    H147397   3.666   6.971   1.405 -0.3852  2.0570  1.7909
 7734TIP3    H247398   3.578   6.988   1.283 -0.9810 -0.9454  1.7255
 7735TIP3   OH247399   1.019   3.856   2.537  0.0590 -0.1281  0.0047
 7735TIP3    H147400   0.927   3.878   2.522 -0.0901  0.0028  1.0148
 7735TIP3    H247401   1.054   3.931   2.584  0.0048 -1.2100  1.8887
 7736TIP3   OH247402   2.085   3.461   1.902  0.2146 -0.2737 -0.5445
 7736TIP3    H147403   2.095   3.371   1.933  0.8819 -0.1645 -0.4366
 7736TIP3    H247404   2.132   3.463   1.818  0.6680  0.1102 -0.2870
 7737TIP3   OH247405   7.046   2.732   2.980  0.1175 -0.2079  0.9349
 7737TIP3    H147406   7.043   2.750   3.074 -2.0588  0.8700  0.7210
 7737TIP3    H247407   7.020   2.640   2.972  1.5370 -0.6765  1.4284
 7738TIP3   OH247408   5.274   4.059   2.749 -0.3058 -0.5659  0.4919
 7738TIP3    H147409   5.220   4.064   2.670 -1.3830 -2.4398  1.0674
 7738TIP3    H247410   5.319   3.975   2.742 -0.9118 -1.0530  2.1873
 7739TIP3   OH247411   1.156   5.579   1.807  0.4719 -0.0909 -0.0675
 7739TIP3    H147412   1.075   5.626   1.828  0.1451 -0.5720 -0.2400
 7739TIP3    H247413   1.209   5.643   1.760  0.1202  0.1781 -0.1036
 7740TIP3   OH247414   6.988   7.334   0.837 -0.2259  0.0215 -0.5877
 7740TIP3    H147415   7.024   7.343   0.749  1.9512  1.2695  0.3322
 7740TIP3    H247416   6.913   7.394   0.839 -0.0045  0.3445 -1.4434
 7741TIP3   OH247417   3.455   4.847   0.999  0.4653 -0.1978  0.3389
 7741TIP3    H147418   3.501   4.839   0.916  1.7064  0.3572  0.9599
 7741TIP3    H247419   3.463   4.939   1.023 -1.8516  0.1578 -0.0185
 7742TIP3   OH247420   0.072   5.058   1.535  0.4809  0.3838 -0.8234
 7742TIP3    H147421   0.135   5.078   1.605 -0.2872  0.9037 -0.2733
 7742TIP3    H247422   0.071   5.136   1.480 -1.0834  1.1650  0.2461
 7743TIP3   OH247423   4.008   6.760   2.672  0.3317  0.4056  0.0740
 7743TIP3    H147424   3.974   6.677   2.706 -0.9102  0.6895 -0.4190
 7743TIP3    H247425   4.021   6.814   2.750  0.2701  0.0683  0.3202
 7744TIP3   OH247426   1.803   6.225   1.587  0.0025 -0.6053  0.5326
 7744TIP3    H147427   1.865   6.265   1.527 -0.2203 -1.1606 -0.0755
 7744TIP3    H247428   1.751   6.299   1.620 -1.4190 -0.4862 -1.7241
 7745TIP3   OH247429   1.378   3.334   1.040 -0.4251  0.4008 -0.1357
 7745TIP3    H147430   1.386   3.255   0.986  0.1076  0.4457 -0.1226
 7745TIP3    H247431   1.291   3.327   1.079 -0.5512  0.0328 -0.4724
 7746TIP3   OH247432   5.680   6.411   0.739 -0.3281 -0.1406  0.0953
 7746TIP3    H147433   5.770   6.407   0.708 -0.5376 -1.1564 -0.4170
 7746TIP3    H247434   5.647   6.322   0.728 -1.5040  0.3007 -0.0681
 7747TIP3   OH247435   6.125   2.937   1.560  0.3104  0.2057  0.4094
 7747TIP3    H147436   6.061   2.870   1.538  1.1513  0.0734 -1.8817
 7747TIP3    H247437   6.083   3.019   1.536  0.3913  0.2467  0.4068
 7748TIP3   OH247438   1.430   6.105   0.485  0.1119 -1.0762  0.5181
 7748TIP3    H147439   1.514   6.092   0.441  0.4750 -0.3603  0.9918
 7748TIP3    H247440   1.396   6.187   0.450  0.2505 -0.6674  1.3084
 7749TIP3   OH247441   4.699   6.945   3.039 -0.3695  0.4271  0.1630
 7749TIP3    H147442   4.679   6.866   3.091 -0.3951 -0.8500 -1.6855
 7749TIP3    H247443   4.784   6.927   3.000 -0.6324  1.0584 -0.7409
 7750TIP3   OH247444   7.155   1.082   1.111  0.1564  0.3345  0.1670
 7750TIP3    H147445   7.126   1.008   1.059 -1.3616  1.3147 -0.4569
 7750TIP3    H247446   7.096   1.083   1.187  1.1577  0.0224  0.9817
 7751TIP3   OH247447   5.070   3.515   1.728 -0.8559 -0.4080 -0.6161
 7751TIP3    H147448   5.022   3.545   1.805 -1.3783 -0.7913 -0.7866
 7751TIP3    H247449   5.117   3.436   1.757  0.5841  0.5747 -0.1452
 7752TIP3   OH247450   2.831   2.965   1.107  0.4282 -0.1078 -0.5109
 7752TIP3    H147451   2.755   2.915   1.075 -0.3905 -0.0280  1.1393
 7752TIP3    H247452   2.887   2.899   1.147  0.4770  0.0049 -0.3923
 7753TIP3   OH247453   4.290   7.157   1.836 -0.1021  0.0389 -0.3514
 7753TIP3    H147454   4.321   7.075   1.797  0.5454  0.7295 -1.3141
 7753TIP3    H247455   4.369   7.211   1.846 -0.2378 -0.0615  1.8777
 7754TIP3   OH247456   4.487   0.703   0.783  0.2420  0.3118 -0.5156
 7754TIP3    H147457   4.549   0.649   0.735 -1.8601 -0.2672 -2.8055
 7754TIP3    H247458   4.416   0.644   0.806 -0.7631  1.4849 -0.4827
 7755TIP3   OH247459   3.000   6.737   2.546 -0.0350 -0.1991 -0.4447
 7755TIP3    H147460   3.052   6.657   2.554  0.1556  0.0723  1.5747
 7755TIP3    H247461   3.012   6.765   2.455 -0.8044 -2.9077 -1.4633
 7756TIP3   OH247462   5.735   6.305   2.337  0.1049  0.6060 -0.5551
 7756TIP3    H147463   5.790   6.324   2.413 -1.1882  0.3489  0.4663
 7756TIP3    H247464   5.723   6.210   2.339 -1.3043  0.7719 -0.0927
 7757TIP3   OH247465   6.805   0.635   3.833 -0.0477  0.4887  0.4030
 7757TIP3    H147466   6.897   0.631   3.809 -0.1882  0.2793 -0.1065
 7757TIP3    H247467   6.767   0.699   3.773  0.0282  1.5978  1.4908
 7758TIP3   OH247468   0.317   5.152   1.942  0.2980  0.2756 -0.4105
 7758TIP3    H147469   0.272   5.119   2.020 -0.2268  1.0986 -0.3481
 7758TIP3    H247470   0.409   5.160   1.968 -0.1234  2.1561  0.7070
 7759TIP3   OH247471   7.455   2.657   1.733  0.4110  0.4880  0.2164
 7759TIP3    H147472   7.539   2.679   1.692  0.0924 -0.9169 -1.2641
 7759TIP3    H247473   7.392   2.717   1.693  0.5093  0.8562  0.5922
 7760TIP3   OH247474   6.934   0.575   0.520  0.0892  0.0853  0.3190
 7760TIP3    H147475   7.018   0.596   0.561 -0.0002 -0.4750  0.7957
 7760TIP3    H247476   6.907   0.493   0.560 -0.1795 -0.2941 -0.6010
 7761TIP3   OH247477   1.199   1.331   2.016  0.1769 -0.1491  0.7409
 7761TIP3    H147478   1.173   1.239   2.009  1.1691 -0.3979  0.1912
 7761TIP3    H247479   1.288   1.334   1.982  0.1855  1.0112  0.8153
 7762TIP3   OH247480   3.063   1.356   2.787 -0.5521  0.3162 -0.3009
 7762TIP3    H147481   3.138   1.413   2.802 -1.3248  0.8747  1.8844
 7762TIP3    H247482   2.989   1.416   2.774 -0.9431 -0.1918 -0.4658
 7763TIP3   OH247483   0.054   1.372   1.025 -0.1758 -0.5325  0.3116
 7763TIP3    H147484  -0.026   1.425   1.028  0.1468 -0.0776  2.7360
 7763TIP3    H247485   0.059   1.331   1.111  1.9253 -1.0018  0.0211
 7764TIP3   OH247486   2.442   3.571   0.732  0.1296  0.0608 -0.0702
 7764TIP3    H147487   2.374   3.555   0.797 -0.8069  0.5643 -0.8992
 7764TIP3    H247488   2.500   3.495   0.738  0.1221  0.1434  1.4040
 7765TIP3   OH247489   5.203   4.060   0.519  0.2835  0.0155 -0.2138
 7765TIP3    H147490   5.197   4.013   0.602 -1.3442  0.7039  0.0825
 7765TIP3    H247491   5.129   4.028   0.467 -0.0360  1.2120 -0.5353
 7766TIP3   OH247492   6.079   0.713   2.327 -0.4041  0.6747  0.4624
 7766TIP3    H147493   6.170   0.691   2.309 -1.0737 -0.8073 -1.4297
 7766TIP3    H247494   6.063   0.678   2.415  0.6253  0.2818  0.5129
 7767TIP3   OH247495   4.910   4.511   0.607  0.0714  0.0379 -0.6184
 7767TIP3    H147496   4.904   4.604   0.628  3.5140  0.4082 -0.6779
 7767TIP3    H247497   4.890   4.506   0.514 -0.9397  0.5578 -0.4464
 7768TIP3   OH247498   6.598   6.264   0.913  0.1937  0.3224  0.4567
 7768TIP3    H147499   6.565   6.348   0.946 -1.0355  0.0736 -0.0870
 7768TIP3    H247500   6.658   6.234   0.981  0.1002  1.2941  0.9940
 7769TIP3   OH247501   1.111   4.712   0.659  0.2346 -0.4165  0.1130
 7769TIP3    H147502   1.048   4.648   0.691 -0.7921 -0.3284 -1.6101
 7769TIP3    H247503   1.084   4.794   0.700 -0.3759 -0.5075 -0.0957
 7770TIP3   OH247504   6.414   2.203   1.397  0.1097  0.6683 -0.0073
 7770TIP3    H147505   6.482   2.251   1.445  0.4022 -0.4373  0.7202
 7770TIP3    H247506   6.413   2.244   1.311  1.7063  0.7313 -0.0360
 7771TIP3   OH247507   2.486   4.863   2.503  1.2697  0.3227  0.5413
 7771TIP3    H147508   2.533   4.914   2.569  0.2669 -0.5712  1.9925
 7771TIP3    H247509   2.477   4.776   2.541 -3.1037  0.8199  1.2794
 7772TIP3   OH247510   1.658   3.074   1.353  0.2963 -0.0816  0.0479
 7772TIP3    H147511   1.582   3.114   1.395 -0.4239  1.7701 -2.7347
 7772TIP3    H247512   1.670   3.124   1.273  2.8336 -2.0477 -0.9365
 7773TIP3   OH247513   4.975   5.509   0.793 -0.1514 -0.8249  0.3329
 7773TIP3    H147514   5.032   5.515   0.717  0.2436 -1.0925  0.6015
 7773TIP3    H247515   5.019   5.447   0.851 -0.9429 -1.3936  0.3483
 7774TIP3   OH247516   1.434   1.602   2.490 -0.3820  0.2379  0.1733
 7774TIP3    H147517   1.495   1.580   2.560 -2.0294  0.0834  1.6089
 7774TIP3    H247518   1.409   1.517   2.454  0.0880  0.2945 -0.3096
 7775TIP3   OH247519   1.317   6.477   1.759 -0.0870 -0.4696  0.0481
 7775TIP3    H147520   1.393   6.531   1.736 -0.7148 -0.1404 -1.3492
 7775TIP3    H247521   1.266   6.532   1.818 -1.0380  0.8167 -1.8446
 7776TIP3   OH247522   4.479   0.992   0.801  0.0467  0.5171 -0.4904
 7776TIP3    H147523   4.470   0.899   0.822  1.0130  0.9187  2.0049
 7776TIP3    H247524   4.572   1.012   0.814 -0.4299  2.1820  0.7513
 7777TIP3   OH247525   7.267   2.079   0.957 -0.7219 -0.0287 -0.0391
 7777TIP3    H147526   7.243   2.149   1.017 -0.3378  0.3006 -0.2668
 7777TIP3    H247527   7.360   2.064   0.972 -0.9495 -0.9943  0.5201
 7778TIP3   OH247528   4.615   5.658   2.738  0.4318 -0.0852 -0.1896
 7778TIP3    H147529   4.702   5.693   2.760  1.4271 -2.6755  0.3958
 7778TIP3    H247530   4.566   5.665   2.820  0.4058  0.4188 -0.2404
 7779TIP3   OH247531   4.276   4.356   2.373  0.6517  0.7130  1.0077
 7779TIP3    H147532   4.338   4.423   2.402  1.0994  0.6175  0.2965
 7779TIP3    H247533   4.278   4.289   2.441  0.7920  1.0490  1.3358
 7780TIP3   OH247534   2.732   0.852   2.181 -0.1866  0.3662 -0.5090
 7780TIP3    H147535   2.819   0.819   2.200 -0.0599  0.7429 -0.4178
 7780TIP3    H247536   2.673   0.803   2.238  0.1076  0.9849  0.3485
 7781TIP3   OH247537   2.836   1.772   2.547  0.6373 -0.3069 -0.1951
 7781TIP3    H147538   2.764   1.748   2.605 -1.1279  1.6694 -1.4431
 7781TIP3    H247539   2.899   1.815   2.605  1.2484 -2.6436  1.0294
 7782TIP3   OH247540   7.093   7.167   1.157 -0.1431  0.3385  0.2663
 7782TIP3    H147541   6.999   7.187   1.151 -0.9703 -3.2184 -1.1436
 7782TIP3    H247542   7.104   7.134   1.246 -0.6489 -0.7530 -0.0546
 7783TIP3   OH247543   7.015   1.292   1.535  0.3770 -0.2410  0.6175
 7783TIP3    H147544   7.011   1.384   1.562  0.9236 -0.3866  1.2280
 7783TIP3    H247545   6.925   1.261   1.545  0.1792  0.2329  0.3720
 7784TIP3   OH247546   5.458   1.928   1.738 -0.5406 -0.1995 -0.0071
 7784TIP3    H147547   5.424   2.017   1.727 -0.7053 -0.2294  0.2740
 7784TIP3    H247548   5.381   1.872   1.733 -0.4369 -0.3270 -0.1755
 7785TIP3   OH247549   5.857   7.563   3.179 -0.2356 -0.0493  0.2589
 7785TIP3    H147550   5.931   7.504   3.192 -0.2924 -0.2605 -0.3666
 7785TIP3    H247551   5.883   7.618   3.105 -0.6985 -0.1077  0.0562
 7786TIP3   OH247552   4.512   4.200   1.490  0.5928  0.1322  0.2773
 7786TIP3    H147553   4.581   4.164   1.433  0.5262 -1.4044  1.1123
 7786TIP3    H247554   4.522   4.295   1.481  1.5065 -0.0472 -1.1799
 7787TIP3   OH247555   0.363   7.418   3.133 -0.4518  0.3219  0.4221
 7787TIP3    H147556   0.317   7.480   3.076  0.5687  0.3450 -0.4225
 7787TIP3    H247557   0.454   7.448   3.131  0.3184 -1.8491 -0.9784
 7788TIP3   OH247558   2.514   4.646   0.982 -0.1188 -0.4934 -0.7729
 7788TIP3    H147559   2.553   4.561   1.001 -0.7730 -0.4307  1.1043
 7788TIP3    H247560   2.536   4.700   1.058  0.1742  0.9950 -1.8635
 7789TIP3   OH247561   1.901   4.889   1.192  0.0461  0.0948 -0.4018
 7789TIP3    H147562   1.856   4.949   1.133  0.0376 -1.3057 -1.9033
 7789TIP3    H247563   1.872   4.915   1.280 -1.1279  1.2961 -1.1091
 7790TIP3   OH247564   4.541   4.996   1.622 -0.1187 -0.1024  0.6330
 7790TIP3    H147565   4.515   4.928   1.560  1.4887 -0.5655  0.4203
 7790TIP3    H247566   4.631   4.973   1.647  0.4299  1.8571  0.6598
 7791TIP3   OH247567   0.048   2.049   1.222  0.2528  0.0116  0.0894
 7791TIP3    H147568   0.129   2.013   1.186  0.3856  1.4690 -1.1429
 7791TIP3    H247569   0.031   1.996   1.300  1.1980 -1.7519 -0.8438
 7792TIP3   OH247570   1.225   0.351   1.408 -0.2995 -0.1546 -0.4088
 7792TIP3    H147571   1.166   0.370   1.481 -0.7986 -1.4942 -0.4313
 7792TIP3    H247572   1.229   0.255   1.406  0.4381 -0.1079 -1.5627
 7793TIP3   OH247573   0.599   4.057   0.552 -0.1016 -0.2731  0.2754
 7793TIP3    H147574   0.589   4.153   0.553 -1.1093 -0.3533  2.2846
 7793TIP3    H247575   0.511   4.024   0.570  0.2851 -1.5982 -0.1761
 7794TIP3   OH247576   6.660   7.083   3.019 -0.0142 -0.3827 -0.2553
 7794TIP3    H147577   6.683   7.120   3.105  1.9990  1.3138 -1.4266
 7794TIP3    H247578   6.659   6.988   3.034  1.5628 -0.2050  1.3974
 7795TIP3   OH247579   0.083   2.073   0.492 -0.3344  0.3517  0.5250
 7795TIP3    H147580   0.128   2.094   0.573  1.8343 -1.8992  0.0505
 7795TIP3    H247581   0.104   2.146   0.433 -0.0525  0.9246  1.3237
 7796TIP3   OH247582   7.208   1.933   0.747 -0.7883 -0.8489  0.6701
 7796TIP3    H147583   7.224   1.994   0.819  0.5687  1.0636 -1.1285
 7796TIP3    H247584   7.115   1.945   0.726 -0.3968  1.2595 -0.1245
 7797TIP3   OH247585   1.373   4.112   0.957 -0.5176 -0.2899  0.5597
 7797TIP3    H147586   1.398   4.020   0.966 -0.6920 -0.3495  0.4179
 7797TIP3    H247587   1.339   4.136   1.043  0.6092 -0.0348  0.9501
 7798TIP3   OH247588   6.010   0.340   3.517  0.0126  0.2980  0.5017
 7798TIP3    H147589   5.979   0.287   3.443  0.6967 -1.1213  1.1959
 7798TIP3    H247590   6.100   0.310   3.531 -0.1947  0.3547  2.0717
 7799TIP3   OH247591   5.993   4.320   1.122 -0.4477 -0.3429  0.0137
 7799TIP3    H147592   5.948   4.280   1.048  0.1810 -1.5540  0.2610
 7799TIP3    H247593   6.018   4.246   1.178  1.4943  0.2885  0.0773
 7800TIP3   OH247594   4.126   0.067   2.957  0.1346  0.0950  0.1599
 7800TIP3    H147595   4.182   0.061   2.879  0.9135 -0.4522  0.7478
 7800TIP3    H247596   4.084   0.153   2.950  2.3051  1.2523  0.5188
 7801TIP3   OH247597   5.594   4.833   2.131  0.1812  0.5833  0.0157
 7801TIP3    H147598   5.658   4.886   2.178  0.5368  0.3779 -0.2316
 7801TIP3    H247599   5.613   4.851   2.039 -1.3081  1.9567 -0.0733
 7802TIP3   OH247600   4.438   6.503   2.390  0.4604  0.6969  0.0220
 7802TIP3    H147601   4.377   6.498   2.316  1.6130  1.2551 -0.9843
 7802TIP3    H247602   4.402   6.442   2.455  0.6088 -1.5041 -1.8526
 7803TIP3   OH247603   1.158   2.384   0.516  0.1156  0.2598 -0.3433
 7803TIP3    H147604   1.155   2.327   0.592  1.8925  0.1025 -0.3497
 7803TIP3    H247605   1.136   2.327   0.442  0.2022 -0.0082 -0.1623
 7804TIP3   OH247606   5.126   5.306   0.970  0.0519  0.7690  0.0025
 7804TIP3    H147607   5.218   5.296   0.996 -0.3396 -0.7287  0.9121
 7804TIP3    H247608   5.085   5.351   1.044 -0.3530 -0.4324  0.5353
 7805TIP3   OH247609   2.553   5.129   1.339 -0.3691 -0.4277 -0.0487
 7805TIP3    H147610   2.504   5.047   1.346 -0.2991 -0.3838  1.0975
 7805TIP3    H247611   2.495   5.187   1.289 -2.9415  0.5936  3.6593
 7806TIP3   OH247612   2.626   5.127   0.941  0.0162 -0.1633  0.7207
 7806TIP3    H147613   2.689   5.173   0.996 -1.1953  3.6728 -0.7833
 7806TIP3    H247614   2.670   5.115   0.857  0.1688 -1.5197  0.9641
 7807TIP3   OH247615   4.024   3.184   0.734 -0.0860 -0.2045  0.1457
 7807TIP3    H147616   4.042   3.250   0.801  0.4395 -1.2231  1.0632
 7807TIP3    H247617   3.939   3.207   0.699  0.6859  1.7525 -0.5568
 7808TIP3   OH247618   3.436   6.978   0.923 -0.0608  0.8791 -0.3587
 7808TIP3    H147619   3.395   7.009   0.843 -0.9134  1.1917  0.1796
 7808TIP3    H247620   3.465   7.057   0.968  0.1655  0.7236 -0.2292
 7809TIP3   OH247621   2.647   6.176   2.447  0.4128  0.2273 -0.5167
 7809TIP3    H147622   2.719   6.147   2.392  2.5710  0.2184  2.0634
 7809TIP3    H247623   2.612   6.096   2.486  0.2146  0.3729 -0.3885
 7810TIP3   OH247624   6.634   6.122   2.282  0.5005  0.6739  0.2885
 7810TIP3    H147625   6.616   6.045   2.336  1.1320  0.2670 -0.0726
 7810TIP3    H247626   6.554   6.133   2.230  0.4991  0.1016  0.1570
 7811TIP3   OH247627   5.338   1.459   1.786 -0.0651  0.3271 -0.3756
 7811TIP3    H147628   5.396   1.470   1.710  0.6029 -3.3238 -0.5855
 7811TIP3    H247629   5.398   1.454   1.860 -0.4445  0.3855 -0.0621
 7812TIP3   OH247630   7.560   0.205   2.496 -1.2140 -0.2513 -0.2419
 7812TIP3    H147631   7.619   0.134   2.520 -0.3429  0.7559  0.7457
 7812TIP3    H247632   7.510   0.223   2.575 -0.6349  0.9420 -0.1123
 7813TIP3   OH247633   0.219   7.277   3.341  0.4102  0.1175  0.2380
 7813TIP3    H147634   0.205   7.184   3.359  0.5217 -0.1762 -1.0423
 7813TIP3    H247635   0.304   7.281   3.297 -1.0878  0.2829 -3.0058
 7814TIP3   OH247636   7.628   1.697   0.922  0.0722 -0.0216 -0.2289
 7814TIP3    H147637   7.552   1.680   0.866  0.8654  0.3443 -1.4363
 7814TIP3    H247638   7.653   1.787   0.902 -0.6209  0.7230  1.9548
 7815TIP3   OH247639   2.223   0.291   1.069  0.3219 -0.5234  0.3284
 7815TIP3    H147640   2.224   0.314   0.976  0.1510  1.5747  0.7998
 7815TIP3    H247641   2.313   0.305   1.098  0.0765  0.1790  0.7669
 7816TIP3   OH247642   4.876   0.801   2.419 -0.4699  0.1556 -0.3168
 7816TIP3    H147643   4.843   0.715   2.446  0.7015 -0.4409 -0.6925
 7816TIP3    H247644   4.884   0.850   2.500 -1.6794  0.1272 -0.1543
 7817TIP3   OH247645   0.145   4.057   1.091  0.3852  0.1787  0.4330
 7817TIP3    H147646   0.112   4.105   1.167  0.5355 -0.8618  1.1697
 7817TIP3    H247647   0.140   3.965   1.116  2.0374 -0.1086 -0.1601
 7818TIP3   OH247648   0.650   3.692   1.270  0.2255 -0.5102  0.0812
 7818TIP3    H147649   0.696   3.679   1.187 -0.2982 -0.9744 -0.1446
 7818TIP3    H247650   0.677   3.780   1.298 -0.5229  0.1708 -1.1930
 7819TIP3   OH247651   1.054   1.655   0.659 -0.6470  0.4241 -0.0613
 7819TIP3    H147652   1.001   1.683   0.733 -0.0573 -1.9672  1.3735
 7819TIP3    H247653   1.004   1.682   0.582 -2.7225  0.4241  1.2121
 7820TIP3   OH247654   4.317   7.220   2.488  0.4077  0.1741  0.0473
 7820TIP3    H147655   4.250   7.249   2.550 -0.1047 -0.4428 -0.2071
 7820TIP3    H247656   4.334   7.129   2.513  0.1049 -0.1184 -0.7921
 7821TIP3   OH247657   0.289   4.660   0.757 -0.0731  0.3070 -0.1669
 7821TIP3    H147658   0.338   4.602   0.816 -1.1494  0.6700  1.1332
 7821TIP3    H247659   0.255   4.602   0.690  3.6198  0.2600 -2.2718
 7822TIP3   OH247660   6.186   7.452   2.815  0.3449 -0.4363  0.4392
 7822TIP3    H147661   6.109   7.420   2.861  1.2478 -0.4376  2.0323
 7822TIP3    H247662   6.158   7.534   2.774 -0.6815 -0.8020  0.3826
 7823TIP3   OH247663   5.261   3.756   1.075 -0.0320  0.6586 -0.1278
 7823TIP3    H147664   5.220   3.836   1.042 -0.3650 -0.1889 -1.9586
 7823TIP3    H247665   5.194   3.715   1.130 -2.0869 -0.9865 -3.5177
 7824TIP3   OH247666   6.828   3.636   2.066  0.1107  0.0898 -0.7188
 7824TIP3    H147667   6.913   3.678   2.081  0.2275 -0.4803  0.3218
 7824TIP3    H247668   6.798   3.611   2.153 -1.7220  1.3672 -0.9317
 7825TIP3   OH247669   3.455   4.585   1.101  0.2000  0.3734 -0.1648
 7825TIP3    H147670   3.543   4.556   1.124  0.2627 -0.7620 -1.6566
 7825TIP3    H247671   3.463   4.679   1.087  0.9329  0.4601  0.7669
 7826TIP3   OH247672   5.713   6.875   1.406  0.2607 -0.4240 -0.3004
 7826TIP3    H147673   5.665   6.930   1.468  1.5456  0.0650  0.2842
 7826TIP3    H247674   5.718   6.928   1.326 -1.6678 -1.1770 -0.9929
 7827TIP3   OH247675   5.014   5.098   0.822 -0.4570  0.4933  0.2203
 7827TIP3    H147676   4.921   5.110   0.806 -0.1494 -0.1305 -2.6095
 7827TIP3    H247677   5.042   5.178   0.866 -2.0966  1.2039  0.0363
 7828TIP3   OH247678   1.861   7.223   1.257  0.0021 -0.2473 -0.5329
 7828TIP3    H147679   1.806   7.240   1.180 -0.4086 -0.4559 -0.2900
 7828TIP3    H247680   1.870   7.308   1.299 -0.2991 -0.2458 -0.4677
 7829TIP3   OH247681   4.508   1.176   1.217 -0.2023  0.2365  0.3880
 7829TIP3    H147682   4.600   1.152   1.211 -0.2655  0.1673 -0.4508
 7829TIP3    H247683   4.474   1.124   1.290  0.5078  0.5678  0.9658
 7830TIP3   OH247684   3.976   2.716   1.890 -0.0052  0.3454 -0.2494
 7830TIP3    H147685   3.976   2.703   1.795  0.3521  1.4821 -0.4287
 7830TIP3    H247686   4.053   2.668   1.921  1.9001  2.6676 -1.0138
 7831TIP3   OH247687   3.110   6.573   3.683 -0.6390  0.2916 -0.3525
 7831TIP3    H147688   3.141   6.633   3.750  0.0249 -0.0097 -0.3788
 7831TIP3    H247689   3.182   6.511   3.670 -1.1069 -0.2037 -0.6897
 7832TIP3   OH247690   6.043   4.569   0.952 -0.2800  0.4018  0.1919
 7832TIP3    H147691   6.034   4.508   1.025  0.1462  0.5524  0.3773
 7832TIP3    H247692   6.053   4.514   0.875  1.3454  0.1999  0.5040
 7833TIP3   OH247693   3.643   0.759   1.086 -0.3845  0.2012  0.0203
 7833TIP3    H147694   3.680   0.818   1.153 -1.2360  2.1433 -1.1428
 7833TIP3    H247695   3.704   0.765   1.013 -0.5328 -0.2891 -0.1434
 7834TIP3   OH247696   1.652   1.685   3.142  0.0433 -0.1036 -0.3868
 7834TIP3    H147697   1.667   1.769   3.185  2.2414 -0.4607 -0.3747
 7834TIP3    H247698   1.647   1.622   3.214 -0.2615 -0.1812 -0.4721
 7835TIP3   OH247699   7.139   3.245   1.115  0.0175  0.2259 -0.2639
 7835TIP3    H147700   7.134   3.337   1.142 -1.8708  0.8094 -2.2785
 7835TIP3    H247701   7.207   3.244   1.047 -1.6663  0.7477 -2.0616
 7836TIP3   OH247702   3.777   1.259   2.435 -0.3384 -0.1909 -0.5380
 7836TIP3    H147703   3.820   1.310   2.367 -1.9499  1.6871 -0.2506
 7836TIP3    H247704   3.821   1.286   2.516 -0.2087 -0.3965 -0.5388
 7837TIP3   OH247705   5.242   6.988   2.722 -0.0426  0.3660 -0.2829
 7837TIP3    H147706   5.294   7.068   2.726  0.7552 -0.0516 -1.5444
 7837TIP3    H247707   5.160   7.014   2.681 -0.1523  0.6881  0.1243
 7838TIP3   OH247708   2.305   4.374   1.745  0.3246 -0.5816  0.0526
 7838TIP3    H147709   2.287   4.288   1.784 -0.8517 -1.7903 -2.8869
 7838TIP3    H247710   2.224   4.423   1.755 -0.9775 -1.8744 -3.0046
 7839TIP3   OH247711   5.757   3.569   2.887 -0.0457  0.0963  0.0967
 7839TIP3    H147712   5.726   3.652   2.925  0.4418  0.1392  0.4196
 7839TIP3    H247713   5.803   3.595   2.808 -1.8292 -0.0648 -1.0597
 7840TIP3   OH247714   5.221   6.863   0.743 -0.8129 -0.2807 -0.8159
 7840TIP3    H147715   5.305   6.908   0.756 -0.3149 -1.1076 -1.1508
 7840TIP3    H247716   5.169   6.888   0.820 -0.0505 -0.2429 -0.3038
 7841TIP3   OH247717   5.317   0.508   0.655 -0.2901  0.2720  0.1911
 7841TIP3    H147718   5.244   0.550   0.699 -0.5055  0.6810 -0.5481
 7841TIP3    H247719   5.385   0.575   0.651  0.2313 -0.1813  1.0962
 7842TIP3   OH247720   4.241   4.756   2.654  0.0317  0.1263 -0.0886
 7842TIP3    H147721   4.337   4.760   2.661 -0.0630  1.3034  0.7671
 7842TIP3    H247722   4.218   4.671   2.692  0.7272 -0.1914 -0.3482
 7843TIP3   OH247723   2.674   0.779   1.289 -0.9435 -0.1838  0.3957
 7843TIP3    H147724   2.663   0.850   1.225  0.5338  0.1459  0.4545
 7843TIP3    H247725   2.598   0.786   1.346 -0.8056  1.4358  0.4453
 7844TIP3   OH247726   5.462   1.270   0.848  0.2708  0.3681  0.3897
 7844TIP3    H147727   5.516   1.272   0.927  1.6038 -0.3463 -0.4665
 7844TIP3    H247728   5.393   1.207   0.867  1.0912 -0.4637  0.6810
 7845TIP3   OH247729   5.508   4.091   0.848  0.1390  0.4048  0.4126
 7845TIP3    H147730   5.592   4.050   0.831  0.2411 -0.5244  2.7890
 7845TIP3    H247731   5.526   4.156   0.916 -1.1782 -0.6384  1.8525
 7846TIP3   OH247732   3.374   4.058   1.211 -0.1492 -0.2612 -0.0135
 7846TIP3    H147733   3.353   4.072   1.118  0.6856  0.2498 -0.1321
 7846TIP3    H247734   3.394   4.145   1.245  0.4718 -0.5615  0.4163
 7847TIP3   OH247735   0.905   6.492   0.532 -0.1543  0.0464 -0.6076
 7847TIP3    H147736   0.840   6.422   0.537 -0.3107  0.1772 -0.8003
 7847TIP3    H247737   0.893   6.541   0.613  0.2441 -0.3988 -0.2724
 7848TIP3   OH247738   1.854   3.909   2.201 -0.1383  0.1236  0.2298
 7848TIP3    H147739   1.866   3.893   2.295 -0.0561 -0.3693  0.1412
 7848TIP3    H247740   1.938   3.943   2.172 -0.2482  0.5285  0.3859
 7849TIP3   OH247741   1.843   3.719   1.468  0.0094  0.0365 -0.4974
 7849TIP3    H147742   1.935   3.692   1.458 -0.8069 -2.8377 -1.0665
 7849TIP3    H247743   1.813   3.735   1.378 -1.0779 -3.1602 -0.8316
 7850TIP3   OH247744   5.157   7.339   1.551  0.1777 -0.1947  0.4402
 7850TIP3    H147745   5.120   7.419   1.512  1.0653  0.3511  0.6729
 7850TIP3    H247746   5.090   7.273   1.539  0.2894  0.0275 -1.7424
 7851TIP3   OH247747   5.639   5.249   0.363  0.3183  0.4133 -0.0430
 7851TIP3    H147748   5.576   5.202   0.417 -1.6356  1.9637 -0.8680
 7851TIP3    H247749   5.627   5.214   0.275  3.1823 -1.7890  0.2894
 7852TIP3   OH247750   0.178   6.248   1.039  0.2744 -0.1015 -0.1256
 7852TIP3    H147751   0.142   6.222   1.124 -1.7237  2.0057 -0.2413
 7852TIP3    H247752   0.112   6.221   0.975  0.8733  0.0451 -0.8215
 7853TIP3   OH247753   0.195   1.173   1.455  0.3189  0.1769  0.0808
 7853TIP3    H147754   0.271   1.213   1.413 -1.0133  3.8081  0.7381
 7853TIP3    H247755   0.193   1.212   1.542 -2.4176  0.4666 -0.0266
 7854TIP3   OH247756   2.937   5.895   2.861  0.8206 -1.1558 -0.2966
 7854TIP3    H147757   2.946   5.929   2.949 -0.4708  0.9214 -0.9077
 7854TIP3    H247758   3.018   5.921   2.817 -0.4804  2.2264 -1.0108
 7855TIP3   OH247759   7.131   0.142   2.138 -0.4334 -0.2816  0.3228
 7855TIP3    H147760   7.095   0.067   2.091 -0.8593 -0.7707  1.3943
 7855TIP3    H247761   7.112   0.217   2.081  0.6923 -1.0486 -1.1294
 7856TIP3   OH247762   0.021   4.636   1.661  0.7499 -0.1847 -0.2452
 7856TIP3    H147763  -0.028   4.554   1.667 -1.2841  0.8699 -1.2470
 7856TIP3    H247764  -0.033   4.692   1.605  2.6607  1.4337 -0.5842
 7857TIP3   OH247765   0.977   6.108   2.018 -0.1890 -0.3600 -0.3586
 7857TIP3    H147766   1.005   6.035   1.963  0.1251  0.3866 -1.2184
 7857TIP3    H247767   0.921   6.161   1.961  1.1441  1.0969 -0.3925
 7858TIP3   OH247768   1.283   7.562   1.197  0.3248  0.1396 -0.3298
 7858TIP3    H147769   1.202   7.571   1.147  0.4310  0.9278 -0.3670
 7858TIP3    H247770   1.278   7.474   1.235 -0.3648  0.0352 -0.6491
 7859TIP3   OH247771   1.775   4.710   3.196 -0.8826 -0.9136  0.5484
 7859TIP3    H147772   1.766   4.665   3.280  0.9189 -3.0990 -0.3161
 7859TIP3    H247773   1.774   4.639   3.131 -0.2206  0.5269 -1.1036
 7860TIP3   OH247774   1.279   0.401   1.790 -0.2211 -0.0093  0.0735
 7860TIP3    H147775   1.280   0.376   1.883  1.3641 -0.6534 -0.0930
 7860TIP3    H247776   1.303   0.494   1.790  1.3079 -0.3878  0.2297
 7861TIP3   OH247777   0.545   7.675   1.654  0.3243 -0.0716  0.0287
 7861TIP3    H147778   0.601   7.733   1.603  2.4737 -1.7326  0.3894
 7861TIP3    H247779   0.575   7.687   1.744 -0.2092 -0.6762  0.2946
 7862TIP3   OH247780   0.137   4.033   0.556  0.2845  0.4789  0.6001
 7862TIP3    H147781   0.147   4.036   0.461  2.7325  1.6681  0.8295
 7862TIP3    H247782   0.080   4.107   0.576 -1.4073 -0.6031 -0.0009
 7863TIP3   OH247783   2.767   6.192   0.633 -0.4425  0.1407  0.0940
 7863TIP3    H147784   2.715   6.118   0.666 -1.1658  0.0346 -1.2322
 7863TIP3    H247785   2.836   6.203   0.698  0.2790 -2.3366 -0.1526
 7864TIP3   OH247786   3.357   3.404   1.635 -0.0154  0.1335 -0.5417
 7864TIP3    H147787   3.391   3.493   1.633 -1.0926  0.5657 -0.3528
 7864TIP3    H247788   3.419   3.356   1.691 -0.9723  1.4701  1.8119
 7865TIP3   OH247789   1.419   1.506   1.848  0.0358 -0.1404 -0.3723
 7865TIP3    H147790   1.511   1.524   1.826 -0.0374 -0.4011 -0.9111
 7865TIP3    H247791   1.400   1.565   1.921  0.1007  1.2888 -1.4582
 7866TIP3   OH247792   2.777   6.024   1.659  0.1833  0.3939 -0.5969
 7866TIP3    H147793   2.871   6.018   1.639  0.2645 -0.2126 -0.0772
 7866TIP3    H247794   2.774   6.049   1.751 -0.1760  1.1519 -0.8116
 7867TIP3   OH247795   4.613   6.006   2.919  0.0176 -0.0285 -0.3196
 7867TIP3    H147796   4.655   5.975   3.000  0.6834 -0.7596 -0.9273
 7867TIP3    H247797   4.653   6.092   2.903 -0.9169  0.6249  0.6967
 7868TIP3   OH247798   6.982   5.843   1.253  0.4249  0.0777  0.3409
 7868TIP3    H147799   7.023   5.908   1.311 -0.6364  1.0265  0.0575
 7868TIP3    H247800   6.980   5.763   1.305  2.2112  0.0964  0.5267
 7869TIP3   OH247801   0.227   2.681   1.797  0.3997  0.2819  0.1014
 7869TIP3    H147802   0.173   2.606   1.821  0.2838  0.9635  2.2092
 7869TIP3    H247803   0.277   2.651   1.721 -0.5619 -1.4799  0.1042
 7870TIP3   OH247804   4.447   3.663   2.881 -0.3735 -0.5846 -0.7046
 7870TIP3    H147805   4.538   3.651   2.856 -0.0429 -0.5342  0.4353
 7870TIP3    H247806   4.438   3.758   2.894  0.4018 -0.8407  2.6289
 7871TIP3   OH247807   7.256   5.421   2.662 -0.3423 -0.2858 -0.2646
 7871TIP3    H147808   7.234   5.431   2.570 -0.7662  0.3050 -0.1027
 7871TIP3    H247809   7.199   5.482   2.708 -0.5601 -0.9992  0.4450
 7872TIP3   OH247810   2.178   3.461   1.633 -0.0849  0.2357  0.0107
 7872TIP3    H147811   2.109   3.503   1.581  0.2982  2.9585  1.4781
 7872TIP3    H247812   2.259   3.485   1.589  0.0934 -3.7734 -2.2766
 7873TIP3   OH247813   5.277   4.621   0.892 -0.0389 -0.1147  0.5400
 7873TIP3    H147814   5.218   4.695   0.880  2.8261  1.9440 -2.7554
 7873TIP3    H247815   5.238   4.550   0.842  0.4321  1.4127 -2.1725
 7874TIP3   OH247816   0.776   2.742   2.420 -0.0219  0.6116  0.3063
 7874TIP3    H147817   0.856   2.696   2.394 -0.2875  1.3165 -1.9539
 7874TIP3    H247818   0.804   2.832   2.438  0.1985  0.0920  2.9452
 7875TIP3   OH247819   2.559   3.599   1.049 -0.2403  0.8046  0.6610
 7875TIP3    H147820   2.652   3.605   1.070  0.1204 -0.0973 -0.6109
 7875TIP3    H247821   2.523   3.683   1.078  1.1919  1.6683  0.0390
 7876TIP3   OH247822   5.626   1.801   0.697 -0.1005  0.1460 -0.3934
 7876TIP3    H147823   5.536   1.771   0.693  0.1257 -1.2578  2.4263
 7876TIP3    H247824   5.622   1.893   0.671 -2.2347 -0.0407 -0.8662
 7877TIP3   OH247825   7.402   0.948   1.057  0.3994  0.7934 -0.0829
 7877TIP3    H147826   7.346   0.957   1.133  0.3320  0.2303 -0.0589
 7877TIP3    H247827   7.373   1.016   0.997  1.1814  1.9630  0.8236
 7878TIP3   OH247828   4.343   2.749   0.782  0.7396 -0.0801  0.8124
 7878TIP3    H147829   4.412   2.815   0.777  0.7939 -0.1938 -0.2163
 7878TIP3    H247830   4.262   2.798   0.767  0.6030  0.0235  1.8294
 7879TIP3   OH247831   3.818   5.745   2.680 -0.0262 -0.3236  0.4014
 7879TIP3    H147832   3.913   5.728   2.679 -0.2153 -1.4398 -0.3175
 7879TIP3    H247833   3.809   5.832   2.642  0.4830 -1.7268 -3.3539
 7880TIP3   OH247834   6.842   7.554   0.731 -0.1535  0.2329  0.2651
 7880TIP3    H147835   6.801   7.611   0.796 -1.9137  2.4092 -2.5528
 7880TIP3    H247836   6.899   7.612   0.680  2.2750 -1.6769  0.6098
 7881TIP3   OH247837   4.301   3.021   1.105 -0.2078 -0.1263 -0.4848
 7881TIP3    H147838   4.220   3.056   1.141  0.1584  0.5129 -0.2662
 7881TIP3    H247839   4.308   2.933   1.141 -1.0328 -0.3515 -0.8674
 7882TIP3   OH247840   5.544   6.323   2.714 -0.4503 -0.1988  0.8003
 7882TIP3    H147841   5.504   6.317   2.801  0.2261 -1.5353  1.0470
 7882TIP3    H247842   5.514   6.244   2.669 -1.6005  0.9608 -0.5560
 7883TIP3   OH247843   0.680   1.448   1.360 -0.4652  0.1030 -0.4584
 7883TIP3    H147844   0.596   1.424   1.398 -0.9044  1.4103 -0.5285
 7883TIP3    H247845   0.722   1.503   1.426  0.8208 -1.3559  0.0086
 7884TIP3   OH247846   1.603   7.090   2.075 -0.2686  0.1538  0.4169
 7884TIP3    H147847   1.522   7.042   2.054 -0.8226  0.8332  0.9592
 7884TIP3    H247848   1.581   7.140   2.153  1.1098 -0.6873  1.3683
 7885TIP3   OH247849   3.928   7.043   0.596  0.4866  0.1494  0.3905
 7885TIP3    H147850   3.869   6.968   0.607 -1.5711  1.0595 -2.9572
 7885TIP3    H247851   3.894   7.109   0.657 -1.1914  0.1835 -0.5299
 7886TIP3   OH247852   4.654   1.488   1.602 -0.2865  0.0283  0.1387
 7886TIP3    H147853   4.659   1.507   1.508  0.0911 -0.4421  0.0587
 7886TIP3    H247854   4.567   1.449   1.614  0.0734 -0.9093 -0.2101
 7887TIP3   OH247855   3.869   3.586   2.132  0.0505  0.0462 -0.1048
 7887TIP3    H147856   3.921   3.549   2.060  0.0726  0.8434 -0.5032
 7887TIP3    H247857   3.855   3.512   2.191  1.5905 -0.2057 -0.0134
 7888TIP3   OH247858   1.610   6.990   0.694  0.0828 -0.0071 -0.0019
 7888TIP3    H147859   1.544   6.986   0.625  2.2026 -2.1127 -2.0858
 7888TIP3    H247860   1.652   7.075   0.682 -0.0303 -0.0689 -0.8805
 7889TIP3   OH247861   1.839   6.990   1.417 -0.0838 -0.2273  0.0061
 7889TIP3    H147862   1.873   7.066   1.369 -1.2051 -0.0530 -0.5490
 7889TIP3    H247863   1.916   6.936   1.434  0.5594  0.4586 -0.6370
 7890TIP3   OH247864   5.843   5.002   0.688  0.3563 -0.4796 -0.2191
 7890TIP3    H147865   5.804   4.921   0.653  0.6322 -0.7058 -0.0049
 7890TIP3    H247866   5.927   4.974   0.724  1.5187  0.2712 -2.1919
 7891TIP3   OH247867   4.096   5.457   3.065 -0.6243 -0.1781  0.0034
 7891TIP3    H147868   4.110   5.377   3.116  1.3474  0.7747  1.0980
 7891TIP3    H247869   4.050   5.516   3.124 -1.7921 -0.3493 -0.6951
 7892TIP3   OH247870   4.437   3.962   2.930 -0.1940 -0.2913  0.5003
 7892TIP3    H147871   4.500   4.034   2.936 -1.0117  0.4556  0.3389
 7892TIP3    H247872   4.351   4.004   2.936 -0.6901 -1.4478  2.5038
 7893TIP3   OH247873   6.170   6.915   2.087  0.4429  0.2544 -0.5307
 7893TIP3    H147874   6.209   6.828   2.098 -1.4007 -0.7248 -1.2788
 7893TIP3    H247875   6.087   6.910   2.134  0.0475  1.4290 -1.0690
 7894TIP3   OH247876   5.060   4.466   3.090 -0.1321  0.6966 -0.5921
 7894TIP3    H147877   5.123   4.462   3.163  0.4017 -0.7917 -1.0927
 7894TIP3    H247878   5.095   4.534   3.032  0.5031  0.5416 -0.3999
 7895TIP3   OH247879   2.022   5.513   0.896  0.5150 -0.4969 -0.0497
 7895TIP3    H147880   2.026   5.471   0.982 -0.3702 -2.2946 -0.8297
 7895TIP3    H247881   1.963   5.587   0.908  0.3873 -0.7417  0.8938
 7896TIP3   OH247882   4.453   0.900   2.279  0.3054 -0.4370 -0.0146
 7896TIP3    H147883   4.494   0.909   2.193  0.7453  0.1141  0.2432
 7896TIP3    H247884   4.508   0.837   2.325  0.3894 -0.3168  0.0500
 7897TIP3   OH247885   2.993   1.970   1.046 -0.0546 -0.1585 -0.0079
 7897TIP3    H147886   2.925   1.932   1.101 -1.4331 -0.1235 -1.6082
 7897TIP3    H247887   2.964   1.953   0.956  1.6736  0.5389 -0.7441
 7898TIP3   OH247888   6.674   0.129   2.038 -0.2507  0.0953 -0.2748
 7898TIP3    H147889   6.688   0.052   1.983  1.1284  1.0906 -1.3833
 7898TIP3    H247890   6.726   0.112   2.117  0.9753  0.3612 -1.0066
 7899TIP3   OH247891   5.238   6.712   1.578  0.4363 -0.3903 -0.0319
 7899TIP3    H147892   5.309   6.685   1.521  1.0048  0.6676  0.1558
 7899TIP3    H247893   5.246   6.656   1.655 -0.7675 -2.3409 -1.2013
 7900TIP3   OH247894   0.349   4.465   2.713 -0.4213 -0.1276 -0.3327
 7900TIP3    H147895   0.357   4.374   2.740 -0.7905 -0.4255 -1.1959
 7900TIP3    H247896   0.346   4.514   2.795 -0.1385 -0.8792  0.1380
 7901TIP3   OH247897   5.725   7.024   1.673 -0.0627 -0.7615  0.1456
 7901TIP3    H147898   5.684   6.975   1.744 -0.3909 -1.1501 -0.3008
 7901TIP3    H247899   5.807   7.057   1.710 -0.1926 -1.0280  0.6761
 7902TIP3   OH247900   2.267   7.628   1.235 -0.8951  0.0511  0.7658
 7902TIP3    H147901   2.345   7.658   1.187 -0.5115  2.5190  2.7055
 7902TIP3    H247902   2.300   7.600   1.320 -1.9720 -0.2373  1.1013
 7903TIP3   OH247903   4.046   1.248   1.303  0.4300  0.4699  0.7122
 7903TIP3    H147904   4.097   1.172   1.273  1.0376 -0.4935  3.8217
 7903TIP3    H247905   4.084   1.322   1.256 -0.5066 -1.0729 -2.8257
 7904TIP3   OH247906   0.703   5.345   2.830 -0.0204 -0.1723  0.4459
 7904TIP3    H147907   0.661   5.403   2.893 -0.3686  0.2821 -0.1879
 7904TIP3    H247908   0.782   5.393   2.803 -0.2074 -0.0734  0.0647
 7905TIP3   OH247909   4.176   2.579   2.667  0.4160  0.4477  0.2264
 7905TIP3    H147910   4.225   2.654   2.631  0.4488 -0.7030 -2.2908
 7905TIP3    H247911   4.088   2.613   2.682  0.4601  1.0342 -0.7832
 7906TIP3   OH247912   6.844   0.802   0.428  0.0087 -0.5614 -0.4625
 7906TIP3    H147913   6.909   0.858   0.471 -0.3977  0.5161 -1.2047
 7906TIP3    H247914   6.866   0.713   0.458 -0.1460  0.0914  1.8153
 7907TIP3   OH247915   4.623   4.526   8.025 -0.0518  0.1699  0.1596
 7907TIP3    H147916   4.596   4.615   8.048  0.4048  0.1290  0.8802
 7907TIP3    H247917   4.703   4.537   7.975 -0.9544  0.2502 -1.3084
 7908TIP3   OH247918   0.646   2.032   2.755  0.0036 -0.3585  0.0482
 7908TIP3    H147919   0.585   2.057   2.686 -0.0553 -0.7412 -0.0381
 7908TIP3    H247920   0.732   2.048   2.717 -0.0287 -0.5722 -0.1138
 7909TIP3   OH247921   4.185   6.488   1.615 -0.1341  0.2261 -0.1858
 7909TIP3    H147922   4.229   6.569   1.589  2.7027 -1.2687 -0.3590
 7909TIP3    H247923   4.162   6.501   1.707 -0.0744  1.3554 -0.3179
 7910TIP3   OH247924   7.111   2.875   2.751 -0.5012  0.3260 -0.1935
 7910TIP3    H147925   7.103   2.815   2.826  0.8209  1.4702  0.9319
 7910TIP3    H247926   7.205   2.876   2.731 -0.7115  0.8221 -1.2195
 7911TIP3   OH247927   5.242   4.458   1.694 -0.0757  0.3550  0.1437
 7911TIP3    H147928   5.302   4.506   1.751  0.5660  0.1775 -0.3583
 7911TIP3    H247929   5.299   4.420   1.627 -0.7249 -0.0486 -0.1905
 7912TIP3   OH247930   2.100   7.427   1.128  0.2177  0.0626 -0.2921
 7912TIP3    H147931   2.080   7.493   1.193 -1.9853 -0.5337 -0.2921
 7912TIP3    H247932   2.192   7.406   1.142  0.1244  0.8581  1.7791
 7913TIP3   OH247933   3.793   1.820   1.812 -0.2367  0.2323  0.3873
 7913TIP3    H147934   3.713   1.788   1.770  0.7554  0.2754 -1.6786
 7913TIP3    H247935   3.835   1.741   1.846 -0.0235 -0.1298 -0.6594
 7914TIP3   OH247936   2.104   7.104   1.135 -0.2030 -0.2886  0.9096
 7914TIP3    H147937   2.050   7.153   1.198 -1.4032  0.2420 -0.4825
 7914TIP3    H247938   2.155   7.170   1.090 -0.5081 -0.4927  0.2535
 7915TIP3   OH247939   5.720   3.756   2.442  0.0673  0.3653 -0.5748
 7915TIP3    H147940   5.816   3.747   2.443 -0.0723 -1.8808 -0.7059
 7915TIP3    H247941   5.699   3.806   2.520  1.3463  0.8999 -0.5511
 7916TIP3   OH247942   4.148   5.809   3.094  0.0241 -0.1784  0.1015
 7916TIP3    H147943   4.073   5.834   3.041 -0.5901  0.2838  1.1517
 7916TIP3    H247944   4.221   5.803   3.032 -0.5634  0.8025 -0.7112
 7917TIP3   OH247945   2.703   6.809   0.623  0.3595  0.2631  0.2804
 7917TIP3    H147946   2.671   6.829   0.535 -2.5616 -0.5659  1.0609
 7917TIP3    H247947   2.720   6.895   0.662  0.6977  0.6687 -0.7130
 7918TIP3   OH247948   2.165   0.377   0.822 -0.6493 -0.4392  0.4680
 7918TIP3    H147949   2.209   0.461   0.808  0.2251 -0.7998  0.9828
 7918TIP3    H247950   2.074   0.400   0.839 -0.3967  0.4154  0.6946
 7919TIP3   OH247951   0.282   0.091   1.219 -0.2813 -0.2293  0.3607
 7919TIP3    H147952   0.237   0.169   1.252  0.5849  0.7389 -0.6444
 7919TIP3    H247953   0.227   0.018   1.247 -1.3925  0.7708  0.9024
 7920TIP3   OH247954   7.194   2.913   0.956  0.4202 -0.8387  0.6525
 7920TIP3    H147955   7.223   2.850   1.023  0.8343 -0.2126  1.0668
 7920TIP3    H247956   7.137   2.973   1.003  3.0832  1.4472  1.1987
 7921TIP3   OH247957   0.735   2.466   0.370 -0.4518 -0.1208 -0.3996
 7921TIP3    H147958   0.700   2.377   0.375  0.5074 -0.4469  1.0430
 7921TIP3    H247959   0.799   2.463   0.299  1.3238 -1.2750  1.1471
 7922TIP3   OH247960   0.605   1.186   1.536 -0.0195 -0.0439 -0.1865
 7922TIP3    H147961   0.550   1.243   1.482 -0.8672  0.2252  0.9331
 7922TIP3    H247962   0.561   1.101   1.535 -0.2416  0.0580  0.3608
 7923TIP3   OH247963   6.796   4.828   1.883 -0.0792  0.1120 -0.1336
 7923TIP3    H147964   6.818   4.914   1.848 -0.6151 -0.2171 -1.3215
 7923TIP3    H247965   6.880   4.787   1.903  0.2957 -0.0047 -1.8334
 7924TIP3   OH247966   6.532   7.134   0.331 -0.4892 -0.1911  0.5214
 7924TIP3    H147967   6.486   7.081   0.396 -1.1985 -1.0926 -0.6737
 7924TIP3    H247968   6.465   7.157   0.267  0.6219 -1.3137 -1.1256
 7925TIP3   OH247969   7.058   4.633   0.666 -0.1818  0.7209  0.0296
 7925TIP3    H147970   7.151   4.626   0.645 -0.5712  0.3280 -1.7038
 7925TIP3    H247971   7.044   4.727   0.679  0.5417  0.7346  0.8137
 7926TIP3   OH247972   4.993   4.433   1.965 -0.1273 -1.0366 -0.0197
 7926TIP3    H147973   5.035   4.515   1.937  0.3386 -0.3166  2.5180
 7926TIP3    H247974   4.905   4.437   1.928  0.8187 -0.8860 -2.4598
 7927TIP3   OH247975   3.150   0.459   2.129 -0.5127 -0.1641 -0.4205
 7927TIP3    H147976   3.071   0.501   2.096  0.3759  2.6463  0.7360
 7927TIP3    H247977   3.196   0.430   2.051 -1.7624 -0.0849 -1.2101
 7928TIP3   OH247978   3.915   5.945   0.345  0.2677 -1.1284  0.2122
 7928TIP3    H147979   3.943   5.987   0.264 -0.6009 -2.2412 -0.7022
 7928TIP3    H247980   3.822   5.968   0.353  0.0951 -1.8425  0.3457
 7929TIP3   OH247981   1.389   5.066   0.763  0.4833  0.2745  0.1335
 7929TIP3    H147982   1.360   5.018   0.685  2.4702 -1.3492  0.3014
 7929TIP3    H247983   1.371   5.006   0.836  0.2104  1.0735  0.7408
 7930TIP3   OH247984   1.751   2.813   2.575  0.0247  0.2393 -0.0669
 7930TIP3    H147985   1.708   2.860   2.647 -1.9789 -0.5083 -0.7264
 7930TIP3    H247986   1.765   2.880   2.508 -0.2160  0.4761  0.1150
 7931TIP3   OH247987   2.537   4.126   3.002 -0.7119  0.0184 -0.1588
 7931TIP3    H147988   2.505   4.057   2.944 -2.3720 -0.6488  1.4877
 7931TIP3    H247989   2.503   4.207   2.963 -0.3602 -0.2448 -1.0400
 7932TIP3   OH247990   5.912   5.780   2.168  0.6678 -0.3567  0.7283
 7932TIP3    H147991   5.827   5.786   2.212  0.3736  0.5317  0.0709
 7932TIP3    H247992   5.911   5.695   2.124  0.2786 -0.5138  1.0403
 7933TIP3   OH247993   3.030   4.890   2.532  0.1642  0.0720  0.8025
 7933TIP3    H147994   3.098   4.955   2.545 -0.8276  0.9539  1.7943
 7933TIP3    H247995   3.053   4.818   2.592  0.7871 -0.1247  0.3391
 7934TIP3   OH247996   3.591   2.293   2.801  0.2564 -0.5020  0.5733
 7934TIP3    H147997   3.496   2.305   2.795  0.2221 -0.9385  0.1976
 7934TIP3    H247998   3.604   2.254   2.888  0.3512  1.8922  1.7093
 7935TIP3   OH247999   4.557   0.701   2.450 -1.0492 -0.1313 -0.5512
 7935TIP3    H148000   4.639   0.653   2.450 -0.8827  0.1402 -1.0615
 7935TIP3    H248001   4.499   0.651   2.393 -0.9147  0.2008 -0.9856
 7936TIP3   OH248002   4.954   6.095   1.962  0.1046 -0.0779  0.3189
 7936TIP3    H148003   4.942   6.092   2.057  1.1815 -1.3751  0.4483
 7936TIP3    H248004   4.955   6.188   1.941  1.9702  0.3297  1.8934
 7937TIP3   OH248005   2.032   7.627   1.579  0.0781  0.3420 -0.4627
 7937TIP3    H148006   2.000   7.716   1.597 -0.6200 -0.3650  2.2615
 7937TIP3    H248007   2.112   7.620   1.632 -0.7622 -1.1235  0.6966
 7938TIP3   OH248008   6.181   2.887   2.269 -0.8353 -0.2994  0.1175
 7938TIP3    H148009   6.206   2.808   2.318  0.4906  0.3909  0.6179
 7938TIP3    H248010   6.146   2.946   2.336 -1.3535 -0.2604 -0.1796
 7939TIP3   OH248011   7.385   6.210   1.110 -0.2031  0.4657  0.6196
 7939TIP3    H148012   7.411   6.128   1.069 -1.4939  0.7245 -0.8326
 7939TIP3    H248013   7.323   6.183   1.178 -0.0758  0.1743  0.6216
 7940TIP3   OH248014   0.872   1.205   1.128  0.6830  0.1837  0.1682
 7940TIP3    H148015   0.793   1.247   1.094  0.6536  0.4192  0.5311
 7940TIP3    H248016   0.839   1.130   1.178  0.6396  0.8079  1.0867
 7941TIP3   OH248017   5.514   1.107   3.112 -0.0601 -0.1615 -0.0707
 7941TIP3    H148018   5.572   1.037   3.141  1.5491  0.7041 -1.0411
 7941TIP3    H248019   5.454   1.065   3.051  0.7138 -0.7570 -0.4373
 7942TIP3   OH248020   6.346   5.260   1.769  0.2765  0.0977  0.0001
 7942TIP3    H148021   6.371   5.191   1.708 -1.5526 -0.8997  0.3078
 7942TIP3    H248022   6.259   5.287   1.740  0.5428  1.6035  0.4948
 7943TIP3   OH248023   4.574   7.347   3.183 -0.0529  0.3580 -0.3824
 7943TIP3    H148024   4.495   7.354   3.129 -0.9249  0.9619  0.9000
 7943TIP3    H248025   4.598   7.438   3.202  1.2901  0.2015 -1.1763
 7944TIP3   OH248026   2.309   6.212   1.263 -0.3139 -0.1240 -0.4227
 7944TIP3    H148027   2.260   6.294   1.271 -0.2452  0.0029 -1.2505
 7944TIP3    H248028   2.264   6.152   1.323  0.5914  0.9492  1.4028
 7945TIP3   OH248029   0.264   1.003   2.448 -0.2061 -0.0240  0.5197
 7945TIP3    H148030   0.257   1.039   2.359 -0.1919 -0.3893  0.3678
 7945TIP3    H248031   0.174   1.002   2.481 -0.2550 -0.1885  0.3851
 7946TIP3   OH248032   6.850   6.578   1.371  0.6565 -0.6366 -0.2836
 7946TIP3    H148033   6.886   6.504   1.321 -0.0281 -1.9870  1.1628
 7946TIP3    H248034   6.762   6.551   1.396  1.0711 -0.1579  1.9228
 7947TIP3   OH248035   0.271   6.470   2.245 -0.1894  0.4482 -0.0926
 7947TIP3    H148036   0.350   6.523   2.232 -0.5211  0.8436 -0.5313
 7947TIP3    H248037   0.230   6.466   2.159 -1.0133  0.8350  0.2705
 7948TIP3   OH248038   0.051   2.531   1.950  0.2492  0.5267 -1.0120
 7948TIP3    H148039   0.056   2.435   1.944 -1.4555  0.4121 -1.2874
 7948TIP3    H248040   0.005   2.547   2.032  1.9729  1.2000 -0.1412
 7949TIP3   OH248041   2.051   3.119   1.510  0.1984  0.3542  0.2934
 7949TIP3    H148042   1.988   3.074   1.453  0.3155 -0.8762  1.0884
 7949TIP3    H248043   2.137   3.097   1.474  0.2807 -0.5886  1.0297
 7950TIP3   OH248044   2.496   7.353   2.620 -0.0694 -0.1960 -0.0346
 7950TIP3    H148045   2.464   7.443   2.618 -0.3883 -0.2843  0.6803
 7950TIP3    H248046   2.472   7.321   2.707  1.1873 -0.5594  0.2015
 7951TIP3   OH248047   2.292   6.544   0.540 -0.2684 -0.3683 -0.4874
 7951TIP3    H148048   2.378   6.503   0.539 -0.7066 -1.3394  0.3009
 7951TIP3    H248049   2.311   6.636   0.561  0.5719 -0.5671 -0.3187
 7952TIP3   OH248050   5.983   5.999   0.735 -0.0169 -0.6354 -0.2462
 7952TIP3    H148051   6.057   5.995   0.675  0.4294  1.8634  0.0132
 7952TIP3    H248052   5.906   5.995   0.678  0.3971  1.2978 -1.0457
 7953TIP3   OH248053   2.949   0.288   2.625 -0.2803  0.9660 -0.0485
 7953TIP3    H148054   2.995   0.335   2.555  0.3022  0.1445 -0.2270
 7953TIP3    H248055   3.014   0.230   2.663 -1.0418  0.1095 -0.0019
 7954TIP3   OH248056   3.138   1.373   1.527  0.0621 -0.2727 -0.3249
 7954TIP3    H148057   3.115   1.280   1.533  0.0452 -0.2001  1.3694
 7954TIP3    H248058   3.079   1.416   1.590  1.8745  0.5003  0.9453
 7955TIP3   OH248059   3.923   6.262   0.681  0.0542 -0.4512 -0.4760
 7955TIP3    H148060   3.916   6.250   0.776 -1.4769  0.9093 -0.3794
 7955TIP3    H248061   3.833   6.251   0.650  0.6610 -1.6699 -1.8951
 7956TIP3   OH248062   5.553   3.459   0.957 -0.0981 -0.0644  0.7694
 7956TIP3    H148063   5.559   3.552   0.978  0.8462  0.3385 -0.9916
 7956TIP3    H248064   5.643   3.427   0.966  0.0335 -0.2394 -0.7726
 7957TIP3   OH248065   2.997   6.272   0.810 -0.1138 -0.1145  0.0889
 7957TIP3    H148066   3.074   6.215   0.809 -0.2333 -0.3259  1.2435
 7957TIP3    H248067   2.951   6.249   0.891  0.1450  2.0052  0.9026
 7958TIP3   OH248068   0.370   3.046   1.344 -0.0440  0.0272  0.2308
 7958TIP3    H148069   0.411   3.015   1.263 -0.4132 -0.3421  0.1794
 7958TIP3    H248070   0.329   2.968   1.381 -1.5929  0.5769 -0.2584
 7959TIP3   OH248071   7.005   3.670   3.032 -0.0278  0.2848  0.5939
 7959TIP3    H148072   6.987   3.643   3.122  0.3625 -2.2574 -0.0005
 7959TIP3    H248073   6.927   3.719   3.005 -1.2170 -1.0034  1.5544
 7960TIP3   OH248074   5.106   6.951   2.310  0.2025  0.1804 -0.5755
 7960TIP3    H148075   5.183   7.005   2.297 -1.1852  1.7205 -3.1821
 7960TIP3    H248076   5.032   7.011   2.302 -1.3710 -1.1636  2.1511
 7961TIP3   OH248077   6.210   5.632   0.814 -0.3696 -0.1201  0.5659
 7961TIP3    H148078   6.171   5.673   0.737 -0.0894 -0.1111  0.4281
 7961TIP3    H248079   6.138   5.584   0.855 -0.7963  0.8176  0.9445
 7962TIP3   OH248080   7.433   0.902   2.986 -0.3622 -0.6697  0.3067
 7962TIP3    H148081   7.518   0.939   2.963  1.0358 -2.1321  2.6503
 7962TIP3    H248082   7.450   0.809   3.001 -2.7289 -1.3371 -0.6581
 7963TIP3   OH248083   2.149   3.902   1.670 -0.1275 -0.6442 -0.0742
 7963TIP3    H148084   2.159   3.985   1.624 -0.1375  0.4457  1.7821
 7963TIP3    H248085   2.055   3.897   1.691  0.0709 -0.4931  0.8986
 7964TIP3   OH248086   5.603   6.567   2.350  0.1798 -0.0737 -0.5557
 7964TIP3    H148087   5.648   6.483   2.347 -0.7081 -0.7100  1.6497
 7964TIP3    H248088   5.534   6.561   2.284  0.5697 -0.7850 -0.9011
 7965TIP3   OH248089   0.476   0.194   2.373  0.4602  0.1422  0.2008
 7965TIP3    H148090   0.486   0.155   2.460 -1.9269  0.6949  0.8043
 7965TIP3    H248091   0.548   0.158   2.322  1.9491 -0.1755  2.4097
 7966TIP3   OH248092   5.903   2.053   0.660  0.0523  0.5171 -0.3928
 7966TIP3    H148093   5.906   1.959   0.642  1.2885  0.8104 -1.9312
 7966TIP3    H248094   5.823   2.084   0.618 -0.9387  0.0070  1.0560
 7967TIP3   OH248095   7.211   5.990   1.833 -0.0169 -0.1732 -0.2054
 7967TIP3    H148096   7.227   5.903   1.799 -0.7205 -0.8529  1.0976
 7967TIP3    H248097   7.296   6.021   1.863 -0.0842 -1.3364  1.3135
 7968TIP3   OH248098   6.972   3.065   0.657  0.7211 -0.8109 -0.2439
 7968TIP3    H148099   7.030   2.989   0.650  0.0996 -1.4846  1.3930
 7968TIP3    H248100   6.888   3.035   0.622  0.3286 -1.0847  0.8762
 7969TIP3   OH248101   3.795   7.122   2.010  0.1991 -0.1750  0.3945
 7969TIP3    H148102   3.836   7.051   2.059 -1.2250 -0.2558  1.5297
 7969TIP3    H248103   3.867   7.159   1.958  1.5238 -0.7936  1.6950
 7970TIP3   OH248104   3.622   0.445   2.365 -0.4137 -0.3162 -0.2010
 7970TIP3    H148105   3.549   0.384   2.371 -1.4357  0.8855 -0.2249
 7970TIP3    H248106   3.615   0.499   2.443  0.6945 -0.4157 -0.0028
 7971TIP3   OH248107   5.562   3.173   1.724  0.1310 -0.1464 -1.1347
 7971TIP3    H148108   5.553   3.082   1.754 -0.5565  0.3350  0.2035
 7971TIP3    H248109   5.492   3.185   1.661 -0.9532 -0.0211  0.0667
 7972TIP3   OH248110   7.209   5.041   1.714  0.2480  0.0285 -0.1945
 7972TIP3    H148111   7.250   4.955   1.706  1.1357  0.3957  0.2863
 7972TIP3    H248112   7.186   5.049   1.806 -0.0844  0.1958 -0.2896
 7973TIP3   OH248113   6.563   4.160   2.538  0.6488 -0.0967  0.2799
 7973TIP3    H148114   6.608   4.243   2.521 -0.2362  0.2714 -0.3774
 7973TIP3    H248115   6.617   4.115   2.602  1.0588  1.0672  0.7647
 7974TIP3   OH248116   0.551   3.685   0.687  0.0058 -0.1190  0.8425
 7974TIP3    H148117   0.485   3.754   0.673  0.6530  0.1146 -1.4536
 7974TIP3    H248118   0.507   3.604   0.661  0.0814 -0.2071  0.9869
 7975TIP3   OH248119   0.960   6.609   1.381 -0.4550  0.2518 -0.1436
 7975TIP3    H148120   1.005   6.639   1.460 -0.1267  0.5039 -0.4213
 7975TIP3    H248121   0.927   6.522   1.403  1.2606 -0.4861 -0.3437
 7976TIP3   OH248122   0.480   7.217   0.608 -0.1030 -0.8637  0.3511
 7976TIP3    H148123   0.450   7.152   0.671 -0.7328 -0.5517  0.3856
 7976TIP3    H248124   0.538   7.169   0.548 -1.3033 -1.6740 -0.1978
 7977TIP3   OH248125   4.658   2.538   1.548  0.5047  0.0676  0.3756
 7977TIP3    H148126   4.696   2.614   1.593  0.1306  0.3049  0.2960
 7977TIP3    H248127   4.714   2.525   1.471  0.5110  0.3255  0.3354
 7978TIP3   OH248128   1.111   6.511   3.373  0.5198 -0.0712 -0.2737
 7978TIP3    H148129   1.192   6.551   3.404  0.3249  0.2902 -0.2215
 7978TIP3    H248130   1.047   6.583   3.372  0.2299 -0.3255 -0.4237
 7979TIP3   OH248131   6.203   5.950   0.561  0.0696 -0.2804  0.1989
 7979TIP3    H148132   6.293   5.981   0.549  0.2491 -0.5036  0.8848
 7979TIP3    H248133   6.203   5.861   0.524  0.1980 -0.3667  0.4013
 7980TIP3   OH248134   0.406   0.889   0.492  0.2128  0.2318  0.3743
 7980TIP3    H148135   0.417   0.978   0.525  0.0659 -0.1474  1.4908
 7980TIP3    H248136   0.354   0.899   0.412  0.0489  1.1351  0.5829
 7981TIP3   OH248137   5.618   2.331   0.830  0.0606 -0.4793 -0.5083
 7981TIP3    H148138   5.619   2.407   0.772  1.5709 -1.1643 -1.4201
 7981TIP3    H248139   5.542   2.281   0.803 -0.6270  0.4014 -0.2663
 7982TIP3   OH248140   7.369   3.105   0.907  0.5682 -0.2059 -0.5009
 7982TIP3    H148141   7.457   3.088   0.942  0.0213 -0.8657  0.6297
 7982TIP3    H248142   7.325   3.020   0.911 -0.0462  0.0588 -1.3206
 7983TIP3   OH248143   3.800   6.932   0.913  0.6201  0.2714 -0.2448
 7983TIP3    H148144   3.889   6.944   0.882  0.1587  0.9813 -1.3544
 7983TIP3    H248145   3.803   6.955   1.006  1.5228  0.5985 -0.3508
 7984TIP3   OH248146   2.774   5.977   3.141 -0.0604 -0.6219 -0.6809
 7984TIP3    H148147   2.829   6.043   3.183 -0.1049 -1.3516  0.5753
 7984TIP3    H248148   2.685   6.010   3.147 -0.2884 -1.4431  1.3655
 7985TIP3   OH248149   4.233   6.968   0.660  0.1908  0.3788  0.3919
 7985TIP3    H148150   4.149   7.001   0.628 -0.5868 -1.4140  0.4739
 7985TIP3    H248151   4.229   6.873   0.647  1.8238  0.1379  1.2768
 7986TIP3   OH248152   2.736   3.401   2.566  0.0424 -0.0566 -0.1832
 7986TIP3    H148153   2.749   3.360   2.652 -1.0230  0.2573  0.1415
 7986TIP3    H248154   2.717   3.493   2.586  2.7067  0.7329 -0.9187
 7987TIP3   OH248155   1.515   2.908   2.721 -0.5334  0.7281  0.4181
 7987TIP3    H148156   1.469   2.861   2.790 -1.4265  0.6760 -0.1899
 7987TIP3    H248157   1.507   3.000   2.745  0.5698  0.6322  1.2188
 7988TIP3   OH248158   3.152   6.810   2.867  0.0419 -0.0269 -0.2843
 7988TIP3    H148159   3.220   6.760   2.822 -0.4096 -1.3111  0.3970
 7988TIP3    H248160   3.199   6.873   2.921  0.6272  0.3775 -1.2505
 7989TIP3   OH248161   6.266   0.209   1.377 -0.1023  0.1736 -0.4086
 7989TIP3    H148162   6.255   0.295   1.415  2.5742  0.0185  0.8804
 7989TIP3    H248163   6.341   0.217   1.319 -1.1252 -0.8142 -1.9659
 7990TIP3   OH248164   2.264   1.693   2.486 -0.4628 -0.1147 -0.1502
 7990TIP3    H148165   2.172   1.716   2.476 -0.1939  0.4353 -1.6155
 7990TIP3    H248166   2.301   1.704   2.398  1.4035  1.4436  0.7729
 7991TIP3   OH248167   7.025   0.697   1.520 -0.8294 -0.2241 -0.3891
 7991TIP3    H148168   7.033   0.623   1.581 -0.0029  1.3301  1.5163
 7991TIP3    H248169   7.113   0.706   1.482 -0.3616  0.8661  0.8347
 7992TIP3   OH248170   6.730   0.901   2.979 -0.7695  0.4056  0.4747
 7992TIP3    H148171   6.762   0.990   2.968 -1.0972  0.4930  0.2244
 7992TIP3    H248172   6.685   0.880   2.897  0.5522 -0.5173 -0.0442
 7993TIP3   OH248173   7.448   2.863   3.203 -0.3686 -0.0074 -0.2295
 7993TIP3    H148174   7.422   2.794   3.264 -0.2636 -1.0231 -1.2764
 7993TIP3    H248175   7.479   2.934   3.258 -0.9278 -0.6158  0.9066
 7994TIP3   OH248176   4.758   4.720   1.411 -0.1889 -0.0429 -0.3294
 7994TIP3    H148177   4.833   4.764   1.371 -0.1549 -1.0109 -1.3809
 7994TIP3    H248178   4.704   4.692   1.337 -1.5526  0.5603  0.4165
 7995TIP3   OH248179   6.395   0.451   2.454 -0.0633 -0.0844 -0.1938
 7995TIP3    H148180   6.453   0.440   2.529  1.1574 -0.6510 -1.1830
 7995TIP3    H248181   6.406   0.543   2.428 -0.2098  0.0155  0.1009
 7996TIP3   OH248182   1.942   2.648   0.984  0.0153 -0.5312 -0.1558
 7996TIP3    H148183   1.942   2.712   1.056  0.6830  0.6638 -1.1579
 7996TIP3    H248184   1.879   2.582   1.010 -3.8598  2.5556 -0.8082
 7997TIP3   OH248185   2.059   3.986   1.403 -0.1115  0.4201  0.1315
 7997TIP3    H148186   1.997   4.053   1.433  0.0748  2.0391 -2.7682
 7997TIP3    H248187   2.025   3.958   1.318  1.6900 -0.6471 -0.2929
 7998TIP3   OH248188   1.762   0.211   3.075  0.1748  0.0067 -0.0168
 7998TIP3    H148189   1.734   0.120   3.074  1.5340 -0.4613 -2.6033
 7998TIP3    H248190   1.852   0.209   3.045 -0.3447  2.3364 -2.0847
 7999TIP3   OH248191   6.323   7.603   1.016  0.0586 -0.1756 -0.4438
 7999TIP3    H148192   6.333   7.581   1.109 -0.7036 -0.0382 -0.3231
 7999TIP3    H248193   6.301   7.696   1.015  2.1840  0.3746 -0.9006
 8000TIP3   OH248194   6.260   3.729   2.573  0.2547  0.4818  0.5328
 8000TIP3    H148195   6.291   3.669   2.506  0.8782  0.1876  1.0632
 8000TIP3    H248196   6.339   3.774   2.603  0.2373 -0.4492  2.0822
 8001TIP3   OH248197   7.634   2.981   3.031  0.3578 -0.0096 -0.1377
 8001TIP3    H148198   7.566   2.933   3.078 -1.0810  1.8304 -0.1868
 8001TIP3    H248199   7.596   3.068   3.018  2.4719  0.8679 -0.8169
 8002TIP3   OH248200   5.464   5.842   3.138  0.5418  0.9765 -0.1541
 8002TIP3    H148201   5.528   5.827   3.069  1.1798  0.3221  0.5749
 8002TIP3    H248202   5.426   5.927   3.116  1.1646  1.0597 -0.9688
 8003TIP3   OH248203   5.216   4.926   1.933  0.2341 -0.1017  0.1346
 8003TIP3    H148204   5.238   4.905   1.842 -0.0076  0.1887  0.0056
 8003TIP3    H248205   5.125   4.896   1.942  0.1340  0.2134  0.1690
 8004TIP3   OH248206   3.436   6.191   3.291 -0.4075  0.7378  0.6619
 8004TIP3    H148207   3.454   6.276   3.329  0.2304  1.6458 -1.5209
 8004TIP3    H248208   3.341   6.180   3.301 -0.4108  1.4264  1.4710
 8005TIP3   OH248209   1.920   7.312   2.062 -0.0533  0.3569  0.5066
 8005TIP3    H148210   1.885   7.316   2.151  0.3051 -0.5539  0.7071
 8005TIP3    H248211   1.908   7.220   2.036  1.2391  0.2617  0.1901
 8006TIP3   OH248212   6.834   0.760   1.306 -0.2610 -0.6473  0.0347
 8006TIP3    H148213   6.907   0.747   1.246  0.8525  1.3646  0.8322
 8006TIP3    H248214   6.864   0.722   1.389 -1.5930 -2.9746 -0.4782
 8007TIP3   OH248215   0.621   5.682   2.710 -0.3095 -0.3253 -0.6796
 8007TIP3    H148216   0.557   5.721   2.651 -0.9014 -0.9958 -0.4842
 8007TIP3    H248217   0.632   5.748   2.779  1.4885  1.1333 -2.2212
 8008TIP3   OH248218   6.580   3.711   2.248 -0.3659  0.0993  0.0480
 8008TIP3    H148219   6.630   3.669   2.318  1.4002 -0.4823 -1.4743
 8008TIP3    H248220   6.590   3.805   2.264  2.1894  0.0581 -0.7203
 8009TIP3   OH248221   5.555   5.415   1.518  0.0521  0.1121 -0.0243
 8009TIP3    H148222   5.551   5.459   1.433  0.2481 -0.2022 -0.2013
 8009TIP3    H248223   5.638   5.367   1.516  0.1646  0.2796  0.4349
 8010TIP3   OH248224   0.027   4.883   1.883 -0.3737 -0.3829  0.6693
 8010TIP3    H148225   0.105   4.882   1.828 -0.9334 -0.0654 -0.1457
 8010TIP3    H248226   0.059   4.860   1.970  0.1429 -3.6258 -0.2337
 8011TIP3   OH248227   1.659   5.708   2.563  0.0172  0.0628 -0.0189
 8011TIP3    H148228   1.713   5.729   2.639 -2.0819 -1.7529  2.1337
 8011TIP3    H248229   1.576   5.754   2.579 -0.6596 -0.7857 -0.9366
 8012TIP3   OH248230   5.397   6.072   1.553  0.3031 -0.2926 -0.0151
 8012TIP3    H148231   5.347   6.122   1.617 -0.0860  0.9476 -1.2232
 8012TIP3    H248232   5.379   5.980   1.574  0.2650  0.0759  1.6696
 8013TIP3   OH248233   5.090   5.567   0.413 -0.3587 -0.0658 -0.1115
 8013TIP3    H148234   5.163   5.581   0.474 -0.8692 -1.6723  0.9302
 8013TIP3    H248235   5.072   5.473   0.417 -0.9745 -0.0941 -2.1352
 8014TIP3   OH248236   4.987   4.938   3.045  0.5012  0.3491 -0.4886
 8014TIP3    H148237   5.005   4.977   2.960 -0.5203  1.0536 -0.3994
 8014TIP3    H248238   4.891   4.940   3.053  0.5957  0.8774  0.9382
 8015TIP3   OH248239   2.387   4.358   2.462 -0.2428 -0.4254 -0.2597
 8015TIP3    H148240   2.450   4.287   2.475  1.3253  0.9205 -0.1304
 8015TIP3    H248241   2.423   4.409   2.389 -2.7190 -1.1818 -2.1532
 8016TIP3   OH248242   3.975   5.623   0.848  0.4993 -0.4189 -0.5121
 8016TIP3    H148243   3.946   5.610   0.939  2.5814  0.0614  0.2903
 8016TIP3    H248244   3.959   5.715   0.830  0.3340 -0.4543 -0.5512
 8017TIP3   OH248245   4.077   0.136   2.136  0.0920 -0.2118  0.2909
 8017TIP3    H148246   4.153   0.079   2.131  0.0623 -0.1603 -1.1427
 8017TIP3    H248247   4.039   0.118   2.222  0.9934 -1.1541  0.5124
 8018TIP3   OH248248   0.726   3.376   3.201  0.2134  0.2331  0.7114
 8018TIP3    H148249   0.643   3.401   3.161 -0.7482  0.5239  2.8154
 8018TIP3    H248250   0.762   3.458   3.235  1.6093  0.1832 -0.5481
 8019TIP3   OH248251   4.750   0.631   3.182 -0.0958 -0.2670 -0.8940
 8019TIP3    H148252   4.784   0.690   3.249  0.9950 -0.2246 -1.4561
 8019TIP3    H248253   4.683   0.682   3.137  1.2799  0.8422 -1.8028
 8020TIP3   OH248254   1.481   5.542   2.142  0.7363 -0.0944  0.1254
 8020TIP3    H148255   1.526   5.511   2.063  1.1177  0.8119 -0.0192
 8020TIP3    H248256   1.548   5.539   2.210  0.4140 -0.8538  0.4263
 8021TIP3   OH248257   5.614   0.884   1.790 -0.2728  0.2039 -0.2855
 8021TIP3    H148258   5.634   0.977   1.803  0.7304 -0.3861  3.5969
 8021TIP3    H248259   5.537   0.868   1.844  0.2514 -1.4295  0.0410
 8022TIP3   OH248260   0.411   3.607   1.447  0.4180  0.4945 -0.1512
 8022TIP3    H148261   0.438   3.643   1.531 -1.0491  1.1544  0.0552
 8022TIP3    H248262   0.483   3.630   1.387  2.2393 -1.3323  1.1767
 8023TIP3   OH248263   1.910   0.203   1.696  0.3856  0.1078  0.2666
 8023TIP3    H148264   1.878   0.265   1.629  1.0564  0.0881 -0.0802
 8023TIP3    H248265   1.844   0.206   1.765 -1.3178 -1.2381 -1.1977
 8024TIP3   OH248266   2.273   7.297   2.463 -0.0418 -0.6953 -0.1303
 8024TIP3    H148267   2.350   7.334   2.420 -0.4887 -0.0854 -0.4247
 8024TIP3    H248268   2.306   7.220   2.510  0.4656 -1.3369 -1.4908
 8025TIP3   OH248269   2.380   0.047   0.891 -0.4382 -0.5038  0.4989
 8025TIP3    H148270   2.408   0.076   0.804 -1.8682 -1.0793 -0.1853
 8025TIP3    H248271   2.349  -0.042   0.877  0.3358 -1.0034  1.8334
 8026TIP3   OH248272   1.401   5.286   1.444  0.3157  0.0102  0.2370
 8026TIP3    H148273   1.402   5.305   1.538  2.6853 -1.7956  0.6804
 8026TIP3    H248274   1.341   5.212   1.435 -0.4227  0.6014  0.1946
 8027TIP3   OH248275   3.030   6.292   1.548  0.4283  0.2669 -0.2264
 8027TIP3    H148276   3.062   6.231   1.615  0.6802  0.7108  0.0585
 8027TIP3    H248277   2.961   6.243   1.503 -2.4011  1.1147  2.7178
 8028TIP3   OH248278   6.452   1.202   3.242 -0.0297  0.7295 -0.0413
 8028TIP3    H148279   6.531   1.256   3.252 -0.1308  0.6610  1.2641
 8028TIP3    H248280   6.485   1.113   3.230  0.0910  0.7141  0.4054
 8029TIP3   OH248281   3.515   3.664   2.088 -0.1819 -0.4619 -0.0673
 8029TIP3    H148282   3.580   3.623   2.030 -1.3622 -3.1414  0.3466
 8029TIP3    H248283   3.513   3.606   2.165 -0.9309  1.2514  1.2622
 8030TIP3   OH248284   5.407   4.190   3.078 -0.0325  0.0580  0.2436
 8030TIP3    H148285   5.480   4.208   3.137  0.0477 -1.5417  0.6606
 8030TIP3    H248286   5.379   4.101   3.099 -0.2210 -0.4582 -1.8945
 8031TIP3   OH248287   6.043   4.650   1.693 -0.0996  0.1544 -0.3858
 8031TIP3    H148288   5.976   4.661   1.625  0.6491 -0.8190 -1.3248
 8031TIP3    H248289   6.073   4.739   1.711 -0.2397  0.4275 -1.4158
 8032TIP3   OH248290   5.945   3.268   1.236  0.3199  0.0993  0.3618
 8032TIP3    H148291   5.917   3.352   1.271 -3.2040 -0.5678 -0.4637
 8032TIP3    H248292   5.944   3.209   1.311  1.6199  0.5051  0.7160
 8033TIP3   OH248293   4.862   0.120   0.813 -0.1811 -0.7502 -0.5974
 8033TIP3    H148294   4.908   0.039   0.791  3.6157  0.6298  1.4294
 8033TIP3    H248295   4.873   0.130   0.907 -1.9517  1.3658 -0.5306
 8034TIP3   OH248296   3.357   0.987   1.912 -0.1198  0.0907 -0.0650
 8034TIP3    H148297   3.375   0.990   1.818 -1.0055 -1.3079 -0.3042
 8034TIP3    H248298   3.424   0.927   1.947  0.2111  0.6119  0.1987
 8035TIP3   OH248299   3.715   0.986   2.367 -0.1661 -0.0709  0.1422
 8035TIP3    H148300   3.734   1.073   2.402  2.0392  0.2778 -1.6654
 8035TIP3    H248301   3.767   0.926   2.422 -0.0513 -0.0213  0.0864
 8036TIP3   OH248302   3.170   1.994   2.059 -0.1632  0.1844  0.1036
 8036TIP3    H148303   3.210   2.004   1.972  0.7585 -2.7554  0.0824
 8036TIP3    H248304   3.236   1.948   2.110 -1.9543 -1.1173  1.3568
 8037TIP3   OH248305   1.728   3.910   3.209  0.1977 -0.2783  0.5807
 8037TIP3    H148306   1.780   3.988   3.231 -1.4478  1.0054  0.1204
 8037TIP3    H248307   1.642   3.928   3.247 -0.3459 -1.6702  0.0521
 8038TIP3   OH248308   1.359   6.600   3.473 -0.2124  0.6627  0.4624
 8038TIP3    H148309   1.405   6.580   3.391 -1.6533 -0.4391 -0.1087
 8038TIP3    H248310   1.425   6.644   3.527  0.7976  1.3330 -1.2391
 8039TIP3   OH248311   4.535   5.898   2.242  0.6872  0.5200  0.6722
 8039TIP3    H148312   4.533   5.989   2.212  0.2387  0.8090  1.5552
 8039TIP3    H248313   4.498   5.901   2.330  0.1103 -0.6128  0.4812
 8040TIP3   OH248314   5.645   0.925   1.499  0.3889 -0.3677  0.0651
 8040TIP3    H148315   5.654   0.935   1.594 -0.8556  0.1582  0.1550
 8040TIP3    H248316   5.644   1.015   1.466 -2.5346 -0.3540 -0.0484
 8041TIP3   OH248317   1.097   2.301   1.108 -0.2140 -0.5099  0.0696
 8041TIP3    H148318   1.008   2.326   1.083 -0.0777 -0.4710 -0.3850
 8041TIP3    H248319   1.087   2.259   1.193 -0.7802 -1.3024 -0.3752
 8042TIP3   OH248320   6.890   7.047   2.550  0.4088  0.3094  0.9377
 8042TIP3    H148321   6.954   6.998   2.499 -1.2217 -0.2551 -0.6685
 8042TIP3    H248322   6.873   6.992   2.626 -0.8050 -1.3521 -0.4427
 8043TIP3   OH248323   4.660   5.555   2.090 -0.0516 -0.2390 -0.3144
 8043TIP3    H148324   4.569   5.577   2.111 -0.0283 -0.9798  0.6118
 8043TIP3    H248325   4.711   5.596   2.160  0.3086 -0.0139 -0.7078
 8044TIP3   OH248326   1.336   1.073   1.595  0.0844 -0.2947  0.3184
 8044TIP3    H148327   1.360   1.162   1.571  0.4602  0.1457  2.1912
 8044TIP3    H248328   1.240   1.074   1.600  0.0681 -0.1012 -0.0227
 8045TIP3   OH248329   5.511   1.263   2.656  0.3729 -0.9115 -0.4001
 8045TIP3    H148330   5.515   1.261   2.752 -0.3951 -1.6313 -0.3735
 8045TIP3    H248331   5.572   1.333   2.632  0.2146 -0.3836  0.6288
 8046TIP3   OH248332   6.022   1.707   3.363  0.0111 -0.3671  0.0633
 8046TIP3    H148333   5.965   1.630   3.365 -0.5031 -0.0312 -0.8968
 8046TIP3    H248334   5.970   1.775   3.320  0.5749  0.4286  0.5886
 8047TIP3   OH248335   7.095   7.468   3.016 -0.0771  0.7104  0.1938
 8047TIP3    H148336   7.167   7.412   2.986  0.0379  0.9336  0.0571
 8047TIP3    H248337   7.094   7.541   2.955 -1.2172  0.1010 -0.5608
 8048TIP3   OH248338   1.673   6.115   0.997  0.5002 -0.1317  0.2717
 8048TIP3    H148339   1.633   6.167   0.928 -1.4717  0.4776  1.7968
 8048TIP3    H248340   1.638   6.152   1.078  0.7289 -2.4509  1.4955
 8049TIP3   OH248341   1.409   0.489   2.809 -0.0180 -1.0856  0.8327
 8049TIP3    H148342   1.493   0.468   2.769  1.1264  2.5297  1.0298
 8049TIP3    H248343   1.431   0.519   2.897 -1.0749  2.5057  0.0231
 8050TIP3   OH248344   2.134   1.765   3.164 -0.1522 -0.8730 -0.1197
 8050TIP3    H148345   2.057   1.815   3.190 -0.7243 -1.4525 -0.6801
 8050TIP3    H248346   2.207   1.809   3.208 -0.7559 -0.1163  0.1410
 8051TIP3   OH248347   7.340   3.976   1.379 -0.5853 -0.1852 -0.1257
 8051TIP3    H148348   7.351   3.977   1.284 -1.3269 -0.9618 -0.2302
 8051TIP3    H248349   7.254   3.936   1.393 -0.4192 -0.2170  0.8808
 8052TIP3   OH248350   5.960   2.114   1.927  0.4063  0.3528  0.0687
 8052TIP3    H148351   5.961   2.116   1.831  2.0206  1.9176  0.0659
 8052TIP3    H248352   5.888   2.171   1.952  0.6062  0.7454 -0.2332
 8053TIP3   OH248353   4.006   5.356   1.772 -0.2571 -0.3627  0.0724
 8053TIP3    H148354   3.940   5.293   1.800 -0.8424 -0.1728 -0.8668
 8053TIP3    H248355   3.963   5.441   1.777 -0.1720 -0.2621 -0.7748
 8054TIP3   OH248356   3.693   2.716   2.536  0.3446 -0.2162 -0.9590
 8054TIP3    H148357   3.755   2.663   2.587 -0.6793 -0.6847 -0.1563
 8054TIP3    H248358   3.745   2.749   2.463  1.0126 -2.4836 -1.6140
 8055TIP3   OH248359   4.311   5.512   2.601  0.1115 -0.1888  0.3499
 8055TIP3    H148360   4.256   5.589   2.613  0.1663 -0.0469 -0.2447
 8055TIP3    H248361   4.253   5.446   2.563 -0.2909 -0.9355  2.1447
 8056TIP3   OH248362   1.704   1.073   3.518 -0.4113  0.3554 -0.1041
 8056TIP3    H148363   1.640   1.001   3.509  0.3434 -0.1781 -1.6281
 8056TIP3    H248364   1.789   1.030   3.514  0.0586  1.3459 -1.2921
 8057TIP3   OH248365   3.777   5.305   2.217 -0.4104  0.4758 -0.0799
 8057TIP3    H148366   3.718   5.241   2.177 -0.5813  1.1319 -0.9231
 8057TIP3    H248367   3.862   5.261   2.218 -0.4628  0.3313 -0.9197
 8058TIP3   OH248368   0.853   6.666   2.144  0.2250 -0.1287 -0.3412
 8058TIP3    H148369   0.845   6.761   2.140  0.3378 -0.1422 -0.9541
 8058TIP3    H248370   0.889   6.648   2.231 -0.6141  0.3301  0.1024
 8059TIP3   OH248371   5.821   4.792   2.397 -0.7489  0.2044  0.2475
 8059TIP3    H148372   5.810   4.764   2.306  2.2021  0.0777 -0.1879
 8059TIP3    H248373   5.822   4.888   2.392 -1.6067  0.2200  0.3144
 8060TIP3   OH248374   0.914   2.037   2.319 -0.4866  0.4309  0.5591
 8060TIP3    H148375   0.984   2.102   2.309  0.4192 -0.6350 -0.4019
 8060TIP3    H248376   0.899   2.005   2.230 -0.1812 -1.4017  1.1235
 8061TIP3   OH248377   2.551   6.718   1.838  0.1314  0.8011  0.0461
 8061TIP3    H148378   2.486   6.769   1.887  1.3577  1.1897  1.3578
 8061TIP3    H248379   2.515   6.630   1.836 -0.6789  1.1126  0.2823
 8062TIP3   OH248380   1.156   6.430   0.556 -0.0568 -0.4315  0.1952
 8062TIP3    H148381   1.175   6.494   0.625 -1.1575 -0.6181  0.6913
 8062TIP3    H248382   1.070   6.456   0.522  0.1604 -0.7599 -0.6275
 8063TIP3   OH248383   4.495   2.502   1.966 -0.2720  0.1283 -0.1255
 8063TIP3    H148384   4.527   2.589   1.944 -0.0646  0.1615  0.2961
 8063TIP3    H248385   4.494   2.500   2.062 -0.4141 -0.2810 -0.1328
 8064TIP3   OH248386   6.711   3.463   1.877 -0.3600  0.3000  0.0036
 8064TIP3    H148387   6.757   3.511   1.947  1.8355 -1.7418  0.0894
 8064TIP3    H248388   6.724   3.371   1.900 -0.1109 -0.4194 -2.7689
 8065TIP3   OH248389   2.273   4.985   1.810  0.1009  0.2833  0.2202
 8065TIP3    H148390   2.365   5.010   1.807 -0.4027  2.3905  0.6159
 8065TIP3    H248391   2.263   4.942   1.895  1.1504 -2.1372 -0.7861
 8066TIP3   OH248392   4.501   2.018   2.796  0.1561 -0.0272 -0.4351
 8066TIP3    H148393   4.543   1.976   2.720  0.4662 -0.8338  0.1762
 8066TIP3    H248394   4.415   2.044   2.764 -0.0272 -1.0922 -0.8352
 8067TIP3   OH248395   3.334   2.799   2.731 -0.4940 -0.3428  0.0840
 8067TIP3    H148396   3.314   2.731   2.667  1.1899 -1.8086  1.0373
 8067TIP3    H248397   3.348   2.751   2.813  2.5852  0.8754  0.4038
 8068TIP3   OH248398   0.931   1.946   2.799  0.1837 -0.4220 -0.6499
 8068TIP3    H148399   0.898   1.879   2.739  1.3917 -0.6979 -1.0287
 8068TIP3    H248400   0.938   1.902   2.884 -1.1052 -0.1505 -0.3759
 8069TIP3   OH248401   1.586   0.504   1.992 -0.1547  0.0550 -0.0455
 8069TIP3    H148402   1.639   0.550   1.927 -0.5983  2.2188  1.0160
 8069TIP3    H248403   1.628   0.419   2.001  1.7671  0.8373 -0.9276
 8070TIP3   OH248404   2.377   3.368   0.481  0.2859  0.3883  0.0461
 8070TIP3    H148405   2.448   3.309   0.458  0.3478  0.9972 -1.4441
 8070TIP3    H248406   2.421   3.450   0.506  0.1715  0.0849  1.3192
 8071TIP3   OH248407   4.594   6.992   2.738  0.2707  0.4145  0.1194
 8071TIP3    H148408   4.572   6.995   2.831 -0.9105 -1.2839 -0.0567
 8071TIP3    H248409   4.603   6.899   2.719  3.1731  0.7950 -0.9104
 8072TIP3   OH248410   4.367   2.770   1.243  0.4674  0.1147  0.4734
 8072TIP3    H148411   4.435   2.733   1.187  1.2332  1.1001  0.7310
 8072TIP3    H248412   4.414   2.804   1.319 -0.5898 -1.6150  1.9951
 8073TIP3   OH248413   1.598   5.620   1.899  0.0992  0.1873 -0.3360
 8073TIP3    H148414   1.665   5.638   1.965  0.6479 -0.1823 -0.7976
 8073TIP3    H248415   1.606   5.692   1.836 -1.9352  1.8659  1.1456
 8074TIP3   OH248416   0.507   2.577   2.357  0.1998  0.3413  0.5407
 8074TIP3    H148417   0.456   2.654   2.383 -1.0345 -0.2131 -0.1739
 8074TIP3    H248418   0.588   2.614   2.322 -1.6400  1.6110 -2.8367
 8075TIP3   OH248419   4.596   0.827   1.047 -0.1204 -0.3005  0.2013
 8075TIP3    H148420   4.514   0.785   1.075  0.1922 -0.0116  1.6055
 8075TIP3    H248421   4.659   0.804   1.115  0.6985  0.3813 -0.3080
 8076TIP3   OH248422   1.422   4.737   0.744  0.0102 -0.5170 -0.3585
 8076TIP3    H148423   1.328   4.722   0.731  0.0982 -0.0927 -1.6114
 8076TIP3    H248424   1.429   4.773   0.832 -1.1790  0.8881 -0.7994
 8077TIP3   OH248425   0.776   2.282   2.335  0.0114  0.6125 -0.2244
 8077TIP3    H148426   0.791   2.192   2.363  1.7279  1.1050  0.5800
 8077TIP3    H248427   0.813   2.336   2.405  1.0707  1.9179 -1.7249
 8078TIP3   OH248428   4.377   0.206   1.575  0.4088  0.1808 -0.0009
 8078TIP3    H148429   4.285   0.196   1.601  0.8810  0.3598  1.9211
 8078TIP3    H248430   4.373   0.251   1.490 -1.2809 -0.3086 -0.2244
 8079TIP3   OH248431   5.733   0.635   2.091  0.0737  0.2358 -0.7717
 8079TIP3    H148432   5.759   0.562   2.147 -2.0926 -0.0018  0.0195
 8079TIP3    H248433   5.805   0.645   2.029  0.9798 -1.7519 -0.1078
 8080TIP3   OH248434   3.596   3.313   1.473  0.1200 -0.4160 -0.2846
 8080TIP3    H148435   3.589   3.378   1.544  1.3220  0.4672 -0.9357
 8080TIP3    H248436   3.534   3.343   1.407 -0.2792 -0.6780 -0.0307
 8081TIP3   OH248437   4.100   2.898   0.770 -0.7166  0.1756 -0.2148
 8081TIP3    H148438   4.073   2.872   0.858  0.4712 -0.2893  0.0221
 8081TIP3    H248439   4.083   2.992   0.767 -2.2571 -0.0721 -0.0559
 8082TIP3   OH248440   1.311   1.506   1.238  0.2944 -0.3373  0.5756
 8082TIP3    H148441   1.349   1.591   1.261 -0.9490  0.6139 -0.6639
 8082TIP3    H248442   1.217   1.518   1.249 -0.4140  0.0376 -3.9152
 8083TIP3   OH248443   4.318   2.776   1.655  0.3657 -0.0234  0.1765
 8083TIP3    H148444   4.250   2.844   1.660 -1.8691 -2.1573  0.9125
 8083TIP3    H248445   4.269   2.694   1.650  2.9455 -1.6199 -0.8384
 8084TIP3   OH248446   6.683   1.722   3.485 -0.3933  0.2745  0.1925
 8084TIP3    H148447   6.767   1.723   3.440  0.3046 -0.0091  1.4531
 8084TIP3    H248448   6.674   1.633   3.519 -1.0071  0.4182  0.4278
 8085TIP3   OH248449   4.733   5.766   3.040  0.2172 -0.8917  0.0789
 8085TIP3    H148450   4.724   5.671   3.032  0.6125 -0.8935 -0.4768
 8085TIP3    H248451   4.732   5.783   3.134 -3.6512 -1.0280  0.2284
 8086TIP3   OH248452   2.082   6.214   0.832 -0.4223  0.7727  0.4419
 8086TIP3    H148453   2.057   6.275   0.901 -2.6779  0.9770 -0.4513
 8086TIP3    H248454   2.069   6.264   0.751 -1.9182 -0.6986 -0.2887
 8087TIP3   OH248455   3.454   7.551   3.492 -0.0395 -0.2355  0.4996
 8087TIP3    H148456   3.543   7.561   3.526  0.0508 -0.4905  0.3383
 8087TIP3    H248457   3.410   7.495   3.556  0.3192 -1.2648 -0.1209
 8088TIP3   OH248458   0.700   5.285   1.140 -0.1240 -0.1633 -0.3841
 8088TIP3    H148459   0.701   5.364   1.087  0.0884  0.1755  0.1118
 8088TIP3    H248460   0.698   5.317   1.230 -3.3895 -0.6682 -0.1537
 8089TIP3   OH248461   6.377   2.349   0.429  0.0585  0.5904 -0.8017
 8089TIP3    H148462   6.332   2.432   0.447  1.5517  0.6613  3.7566
 8089TIP3    H248463   6.307   2.284   0.430 -0.6624  1.3446 -0.0351
 8090TIP3   OH248464   3.312   4.962   2.625 -0.0514 -0.6772  0.0240
 8090TIP3    H148465   3.383   4.899   2.638 -0.0976 -0.8990 -0.7132
 8090TIP3    H248466   3.353   5.035   2.578 -0.6979 -1.7392 -2.3799
 8091TIP3   OH248467   1.200   6.133   0.692  0.0190  0.4827  0.2930
 8091TIP3    H148468   1.191   6.226   0.673 -0.0414  0.4299  0.0666
 8091TIP3    H248469   1.255   6.099   0.622 -2.0278 -0.1541 -1.0815
 8092TIP3   OH248470   4.760   5.066   2.520  0.4213 -0.4870 -0.6668
 8092TIP3    H148471   4.723   4.987   2.559 -1.3877 -0.6640 -2.5565
 8092TIP3    H248472   4.851   5.044   2.502 -0.0662 -2.1770 -1.1961
 8093TIP3   OH248473   3.057   1.008   2.860  0.3504 -0.2849 -0.3606
 8093TIP3    H148474   2.987   1.054   2.908  0.0830 -0.4239 -0.6137
 8093TIP3    H248475   3.108   1.078   2.819 -0.6356 -0.2244 -1.5610
 8094TIP3   OH248476   2.173   2.662   1.948  1.0139 -0.8418  0.0945
 8094TIP3    H148477   2.123   2.603   2.004  1.4745 -1.1695  0.1646
 8094TIP3    H248478   2.262   2.659   1.983  1.0516 -0.1322  0.0755
 8095TIP3   OH248479   7.651   3.502   1.316 -0.2269 -0.3800 -0.0317
 8095TIP3    H148480   7.626   3.475   1.227 -0.5965  2.5220 -0.8960
 8095TIP3    H248481   7.731   3.553   1.303 -1.2790  1.6187  1.0461
 8096TIP3   OH248482   1.801   4.061   1.144 -0.0303 -0.3199 -0.2047
 8096TIP3    H148483   1.759   4.107   1.071  0.2745 -0.8930 -0.7547
 8096TIP3    H248484   1.894   4.077   1.132  0.0426 -0.6841 -0.1282
 8097TIP3   OH248485   2.436   6.479   1.746 -0.2301  0.0553 -0.3210
 8097TIP3    H148486   2.386   6.400   1.768  1.0000 -0.4621  0.7019
 8097TIP3    H248487   2.457   6.469   1.653 -0.7576 -0.4137 -0.3967
 8098TIP3   OH248488   6.948   6.107   1.696  0.0998 -0.6294 -0.3817
 8098TIP3    H148489   6.883   6.177   1.685  1.0023  0.0640 -1.6235
 8098TIP3    H248490   7.030   6.154   1.714  0.6917 -1.3609 -1.0996
 8099TIP3   OH248491   4.499   7.235   2.252  0.5991  0.4341  0.0267
 8099TIP3    H148492   4.485   7.167   2.186 -0.8561  0.9844 -0.2764
 8099TIP3    H248493   4.423   7.228   2.310  1.5698  0.3428  1.3223
 8100TIP3   OH248494   7.367   7.161   1.135 -0.1267  0.2411  0.1266
 8100TIP3    H148495   7.365   7.077   1.182 -0.3685  0.9173  1.3544
 8100TIP3    H248496   7.275   7.180   1.117 -0.2298  1.0775  1.4143
 8101TIP3   OH248497   0.424   3.359   2.406 -0.2258 -0.0239  0.0604
 8101TIP3    H148498   0.491   3.404   2.354  0.8021 -1.0394  0.4594
 8101TIP3    H248499   0.470   3.332   2.485 -1.1719 -0.5555  0.4373
 8102TIP3   OH248500   4.042   2.879   1.259 -1.1229 -0.0525  0.2855
 8102TIP3    H148501   4.044   2.851   1.168 -1.5553 -1.6482  0.7310
 8102TIP3    H248502   4.083   2.808   1.307 -0.5518  0.9361  1.3140
 8103TIP3   OH248503   0.849   1.673   2.098  0.0959 -0.1307 -0.0939
 8103TIP3    H148504   0.898   1.628   2.166  0.2390 -0.9203 -0.7052
 8103TIP3    H248505   0.875   1.630   2.017 -1.9149 -0.8880 -0.4128
 8104TIP3   OH248506   2.645   3.675   2.712  0.1792  0.5229  0.3847
 8104TIP3    H148507   2.568   3.731   2.723  1.1122  1.6902  1.2197
 8104TIP3    H248508   2.719   3.733   2.730  1.1924 -0.8899  0.8947
 8105TIP3   OH248509   3.804   2.174   1.256 -0.0429  0.3433 -0.1564
 8105TIP3    H148510   3.864   2.231   1.208 -0.6109  1.7326  0.7090
 8105TIP3    H248511   3.719   2.217   1.250 -0.5195 -0.4749  0.4236
 8106TIP3   OH248512   6.186   0.026   1.832  0.3856  0.1045  0.2782
 8106TIP3    H148513   6.234   0.019   1.750 -0.2067 -0.7737 -0.0142
 8106TIP3    H248514   6.107  -0.026   1.817  0.0365  0.3467  1.2344
 8107TIP3   OH248515   0.636   3.415   0.698  0.1086 -0.3123 -0.8152
 8107TIP3    H148516   0.684   3.497   0.681 -0.8336  0.3090 -0.5680
 8107TIP3    H248517   0.699   3.346   0.676  0.8466  0.4713 -1.2670
 8108TIP3   OH248518   7.649   1.298   2.309 -0.1992  0.3353  0.0783
 8108TIP3    H148519   7.613   1.215   2.340  0.2432  0.1892  0.2176
 8108TIP3    H248520   7.740   1.296   2.338  0.2765  0.1280 -1.3227
 8109TIP3   OH248521   7.085   4.056   0.440 -0.5380  0.1379 -0.0635
 8109TIP3    H148522   7.128   4.125   0.491  1.5190 -0.7151 -0.5508
 8109TIP3    H248523   7.112   4.073   0.349 -0.9448 -0.6473 -0.3406
 8110TIP3   OH248524   1.784   2.850   1.450 -0.6602  0.0371 -0.3187
 8110TIP3    H148525   1.717   2.910   1.416 -1.0943 -0.3167 -0.0890
 8110TIP3    H248526   1.792   2.874   1.542  1.5251  1.9518 -0.9203
 8111TIP3   OH248527   7.622   4.191   1.563 -0.0940  0.1105 -0.3325
 8111TIP3    H148528   7.552   4.148   1.612  1.3256  0.0845  1.7905
 8111TIP3    H248529   7.590   4.280   1.547 -1.2701 -0.3967 -0.9352
 8112TIP3   OH248530   6.688   0.393   3.892 -0.5392 -0.3331  0.4214
 8112TIP3    H148531   6.736   0.475   3.902 -0.4658 -0.2253 -0.6914
 8112TIP3    H248532   6.596   0.418   3.904 -0.4920 -0.1599  0.4269
 8113TIP3   OH248533   1.215   7.675   2.111  0.2969  0.1612 -0.0278
 8113TIP3    H148534   1.257   7.590   2.123  2.1042  1.1100  0.6375
 8113TIP3    H248535   1.121   7.655   2.108  0.7419 -2.0631 -1.8467
 8114TIP3   OH248536   1.060   3.611   1.900 -0.7924 -0.1516 -0.0023
 8114TIP3    H148537   1.126   3.659   1.850 -1.0408  0.9140  0.6575
 8114TIP3    H248538   1.076   3.519   1.880  0.6028  0.1178 -0.2031
 8115TIP3   OH248539   6.440   3.605   1.311  0.0007  0.4413 -0.1364
 8115TIP3    H148540   6.425   3.629   1.403 -0.2363 -1.7050  0.4432
 8115TIP3    H248541   6.525   3.559   1.312 -0.8891 -1.2981 -0.6074
 8116TIP3   OH248542   0.625   3.956   2.178 -0.1605  0.3914  0.5177
 8116TIP3    H148543   0.710   3.998   2.189  1.1525 -2.5049  2.5386
 8116TIP3    H248544   0.587   3.955   2.265 -0.3986 -1.9488  0.4411
 8117TIP3   OH248545   4.894   6.917   2.591  0.3373  0.1442  0.5923
 8117TIP3    H148546   4.884   6.981   2.521  0.9967  0.9712  1.2375
 8117TIP3    H248547   4.915   6.969   2.668 -2.1897 -0.5351  1.8671
 8118TIP3   OH248548   4.563   3.524   0.943  0.0283 -0.7754  0.1910
 8118TIP3    H148549   4.610   3.547   1.023 -1.7695  0.8595  0.8679
 8118TIP3    H248550   4.485   3.477   0.973 -0.8185  0.1160 -0.5294
 8119TIP3   OH248551   7.545   2.908   2.466  0.0523 -0.2411 -0.3003
 8119TIP3    H148552   7.550   2.933   2.374 -0.7493  1.2067  0.0272
 8119TIP3    H248553   7.557   2.989   2.514 -0.9123 -0.7493  0.8442
 8120TIP3   OH248554   4.903   2.271   2.844  0.2150  0.2663 -0.6489
 8120TIP3    H148555   4.988   2.228   2.841  0.9566  1.3977  1.6290
 8120TIP3    H248556   4.855   2.224   2.913 -1.5769 -1.1868 -2.7415
 8121TIP3   OH248557   0.935   0.427   2.099  0.1836 -0.0315 -0.5524
 8121TIP3    H148558   0.997   0.499   2.105 -0.1016  0.1636  0.1976
 8121TIP3    H248559   0.905   0.414   2.189  1.4730 -2.1967 -0.3517
 8122TIP3   OH248560   2.334   5.505   8.361  0.1389 -0.0671  0.2157
 8122TIP3    H148561   2.239   5.491   8.361  0.0855 -0.0380  2.2076
 8122TIP3    H248562   2.367   5.438   8.420  1.3719 -0.0377 -0.4196
 8123TIP3   OH248563   7.326   7.452   2.539  0.7220 -0.4434  0.6366
 8123TIP3    H148564   7.373   7.509   2.479  1.0085 -0.5705  0.7361
 8123TIP3    H248565   7.318   7.503   2.620 -0.3315  0.0139  0.2525
 8124TIP3   OH248566   2.626   1.699   2.210  0.1726  0.2257  0.7262
 8124TIP3    H148567   2.661   1.648   2.283  0.6446 -0.0746  0.2957
 8124TIP3    H248568   2.551   1.649   2.179 -0.1945  0.4902  1.1712
 8125TIP3   OH248569   6.432   4.336   0.627  0.4625 -0.5790  0.2001
 8125TIP3    H148570   6.449   4.294   0.712 -0.8066  0.6236  1.0978
 8125TIP3    H248571   6.413   4.427   0.649 -3.1223 -0.8948 -0.9502
 8126TIP3   OH248572   1.695   3.787   2.733 -0.5467 -0.5548  0.3307
 8126TIP3    H148573   1.754   3.716   2.757 -0.2144  0.1271  1.5888
 8126TIP3    H248574   1.607   3.753   2.749 -0.5052 -1.3475 -0.9476
 8127TIP3   OH248575   6.926   2.610   0.724  0.7873 -0.7406  0.1482
 8127TIP3    H148576   6.889   2.527   0.692  1.9312 -2.7358  3.5306
 8127TIP3    H248577   6.854   2.652   0.770  0.5628 -0.4661 -0.4387
 8128TIP3   OH248578   1.459   5.312   0.659 -0.0943 -0.2855 -0.1830
 8128TIP3    H148579   1.509   5.286   0.582 -2.0328 -0.6685 -1.3976
 8128TIP3    H248580   1.434   5.230   0.701 -0.8530 -0.1769 -0.3951
 8129TIP3   OH248581   3.755   7.479   3.500 -0.8536 -0.0807 -0.0645
 8129TIP3    H148582   3.813   7.535   3.449  1.2847  0.0183  2.3087
 8129TIP3    H248583   3.761   7.394   3.457  0.8313  0.0074 -0.0648
 8130TIP3   OH248584   7.257   4.507   1.632  0.5390 -0.5166  0.0020
 8130TIP3    H148585   7.217   4.469   1.554  0.1180 -1.4118  0.6313
 8130TIP3    H248586   7.192   4.493   1.702  0.5706  0.9658  0.3616
 8131TIP3   OH248587   1.177   4.422   2.836 -0.1270 -0.2855 -0.2615
 8131TIP3    H148588   1.139   4.493   2.784  1.3219 -0.2562 -1.3363
 8131TIP3    H248589   1.214   4.362   2.771 -0.5344 -1.5790  0.6652
 8132TIP3   OH248590   6.349   7.327   3.223  0.1520  0.9221 -0.1318
 8132TIP3    H148591   6.292   7.250   3.219 -0.4272  1.3475 -0.1718
 8132TIP3    H248592   6.412   7.306   3.293  0.3538  0.1855 -0.5232
 8133TIP3   OH248593   6.774   7.553   1.531 -0.3040  0.0189  0.2011
 8133TIP3    H148594   6.715   7.621   1.498 -1.0899  0.2168  1.8636
 8133TIP3    H248595   6.862   7.588   1.515 -0.6854  1.4895  1.0566
 8134TIP3   OH248596   6.671   5.366   6.968 -0.1398  0.1969  0.0972
 8134TIP3    H148597   6.737   5.317   6.919 -0.7382  0.5003 -1.0488
 8134TIP3    H248598   6.587   5.332   6.937 -0.5789 -1.3369  2.7224
 8135TIP3   OH248599   3.840   6.131   2.236  0.4344  0.4929 -0.2895
 8135TIP3    H148600   3.915   6.180   2.270  0.1682  0.5848  0.1819
 8135TIP3    H248601   3.802   6.188   2.169  0.2774  0.8323  0.0787
 8136TIP3   OH248602   5.736   5.903   2.519 -0.4775  0.4745  0.0072
 8136TIP3    H148603   5.735   5.955   2.600  0.5168 -0.9290  0.9636
 8136TIP3    H248604   5.770   5.964   2.453  0.0246  1.2572  0.9506
 8137TIP3   OH248605   0.602   1.618   2.757 -0.5691 -0.0396 -0.0868
 8137TIP3    H148606   0.627   1.528   2.735 -1.7537 -0.0743 -1.4418
 8137TIP3    H248607   0.655   1.640   2.833 -1.1347 -2.3322  1.0589
 8138TIP3   OH248608   2.989   7.530   2.395  0.7576 -0.6900  0.0788
 8138TIP3    H148609   3.060   7.592   2.414  0.2262  0.1573 -0.6193
 8138TIP3    H248610   3.021   7.479   2.321  0.8306 -0.6239  0.0640
 8139TIP3   OH248611   5.998   0.059   3.008  0.1479  0.1490 -0.3038
 8139TIP3    H148612   5.955   0.003   2.943  1.9261 -2.0317  0.2786
 8139TIP3    H248613   6.081   0.085   2.967  1.6600 -1.8964  1.2652
 8140TIP3   OH248614   2.725   4.065   2.100  0.0628  0.5789  0.3092
 8140TIP3    H148615   2.677   3.988   2.130  0.6944  0.1875  0.3379
 8140TIP3    H248616   2.784   4.086   2.172  1.2407 -0.0757 -0.4269
 8141TIP3   OH248617   4.149   0.879   1.557  0.1680  0.3452  0.1842
 8141TIP3    H148618   4.195   0.796   1.567  1.0151  0.4256 -2.1958
 8141TIP3    H248619   4.063   0.865   1.597 -0.7060 -2.6374 -2.3408
 8142TIP3   OH248620   0.803   5.553   1.729 -0.2762  0.3036  0.6432
 8142TIP3    H148621   0.883   5.551   1.678  0.5633 -1.3398  1.9211
 8142TIP3    H248622   0.803   5.470   1.777 -3.3284 -0.2815 -0.1732
 8143TIP3   OH248623   6.350   1.132   2.930  0.3941 -0.0319 -0.2001
 8143TIP3    H148624   6.321   1.043   2.952 -1.1755  0.5433  0.1951
 8143TIP3    H248625   6.366   1.129   2.836  1.3078 -0.9703 -0.0387
 8144TIP3   OH248626   5.088   0.838   1.811  0.3728 -0.2896 -0.3761
 8144TIP3    H148627   5.052   0.868   1.895 -0.3951  0.4333 -0.9484
 8144TIP3    H248628   5.083   0.743   1.816  3.5683 -0.5204  1.8046
 8145TIP3   OH248629   2.148   4.209   0.484  0.2298  0.5716  0.2356
 8145TIP3    H148630   2.214   4.275   0.464 -0.2444  1.5819  1.7875
 8145TIP3    H248631   2.067   4.244   0.448 -0.0990  1.0601  1.4164
 8146TIP3   OH248632   6.707   0.593   2.032  0.1639  0.6531  0.1105
 8146TIP3    H148633   6.719   0.679   2.071  0.3721  0.4471  0.5128
 8146TIP3    H248634   6.771   0.590   1.960 -0.8862  1.3982 -0.8866
 8147TIP3   OH248635   1.516   6.301   3.040  0.3989  0.5114 -0.0708
 8147TIP3    H148636   1.589   6.245   3.067 -1.0577 -1.8953 -0.8553
 8147TIP3    H248637   1.493   6.271   2.953 -1.2032  1.5670 -0.0548
 8148TIP3   OH248638   6.332   2.603   1.005 -0.7268 -0.8712 -0.4590
 8148TIP3    H148639   6.402   2.585   1.069 -0.1694  1.7463 -0.2070
 8148TIP3    H248640   6.253   2.610   1.058 -0.9785 -2.4877 -0.5777
 8149TIP3   OH248641   4.721   5.357   0.979  0.3384  0.1802 -0.1572
 8149TIP3    H148642   4.640   5.393   1.015 -0.0595 -0.0131 -0.8414
 8149TIP3    H248643   4.785   5.365   1.050 -0.7242 -1.3062  1.0481
 8150TIP3   OH248644   5.080   0.785   1.076  0.2368  0.0320  0.4599
 8150TIP3    H148645   5.087   0.870   1.118  0.1940  0.3047 -0.0844
 8150TIP3    H248646   4.987   0.775   1.057  0.1844 -0.3093  0.8709
 8151TIP3   OH248647   1.933   5.139   0.397  0.4624  0.3210 -0.0277
 8151TIP3    H148648   2.013   5.191   0.395  1.8303 -1.6700  0.2411
 8151TIP3    H248649   1.955   5.058   0.352 -1.4550 -0.2509 -0.0393
 8152TIP3   OH248650   2.189   3.311   1.301  0.0221  0.0541  0.2181
 8152TIP3    H148651   2.283   3.291   1.294 -0.1208 -0.3516 -0.5706
 8152TIP3    H248652   2.185   3.379   1.369  0.8961  0.1321  0.2072
 8153TIP3   OH248653   3.821   0.704   1.489 -0.1931 -0.3202 -0.0324
 8153TIP3    H148654   3.738   0.663   1.463 -1.0562  0.6179  1.1324
 8153TIP3    H248655   3.798   0.794   1.510  1.1810  0.0230  0.1170
 8154TIP3   OH248656   4.841   2.008   1.840 -0.3094 -0.4166 -0.1806
 8154TIP3    H148657   4.818   2.095   1.809 -0.7773 -1.1613 -2.0974
 8154TIP3    H248658   4.777   1.989   1.908 -0.9169  0.3135 -0.5352
 8155TIP3   OH248659   4.580   6.171   1.192  0.1051 -0.2352 -0.4252
 8155TIP3    H148660   4.550   6.083   1.170  0.2160 -0.1263 -1.0166
 8155TIP3    H248661   4.676   6.164   1.193  0.1020 -0.5018  1.1213
 8156TIP3   OH248662   5.498   2.406   1.835  0.3889 -0.7969 -0.2210
 8156TIP3    H148663   5.406   2.423   1.856  0.7007 -0.6787  1.1761
 8156TIP3    H248664   5.516   2.459   1.758 -1.0505 -1.8169 -1.2944
 8157TIP3   OH248665   0.980   4.366   1.705  0.1230 -0.5245  0.1912
 8157TIP3    H148666   0.929   4.330   1.633 -0.1621 -1.6336  0.9137
 8157TIP3    H248667   0.920   4.425   1.750 -0.2352 -1.0957  0.4767
 8158TIP3   OH248668   4.287   0.736   1.084  0.3689  0.3859  0.2465
 8158TIP3    H148669   4.216   0.673   1.080 -0.8502  1.5260  2.2304
 8158TIP3    H248670   4.245   0.821   1.067  1.8920  0.7827 -1.9793
 8159TIP3   OH248671   0.803   0.223   1.968  0.2007 -0.1291 -0.0078
 8159TIP3    H148672   0.742   0.272   2.024  1.0116  2.2505 -1.0418
 8159TIP3    H248673   0.885   0.273   1.973  0.7562 -0.7411 -2.0194
 8160TIP3   OH248674   1.869   5.502   0.583  0.5680 -0.1142 -0.9443
 8160TIP3    H148675   1.839   5.559   0.654  1.5156 -0.7964  0.0549
 8160TIP3    H248676   1.799   5.437   0.573  0.2147  0.2677 -0.9598
 8161TIP3   OH248677   3.606   5.401   1.895  0.6446 -0.4292 -0.1658
 8161TIP3    H148678   3.599   5.421   1.802  1.2577  1.4388  0.1472
 8161TIP3    H248679   3.692   5.434   1.920  1.1655 -2.3304  0.7670
 8162TIP3   OH248680   6.953   6.957   1.888 -0.1220  0.5328  0.2173
 8162TIP3    H148681   6.968   6.920   1.975 -0.4639  1.4088  0.6578
 8162TIP3    H248682   7.017   6.912   1.832  0.3506  0.2221  0.9865
 8163TIP3   OH248683   1.298   4.567   2.043 -0.2534 -0.0284 -0.2027
 8163TIP3    H148684   1.321   4.475   2.052 -0.3050 -0.0060  0.1687
 8163TIP3    H248685   1.242   4.571   1.965 -1.8503 -0.6049  0.8661
 8164TIP3   OH248686   2.913   1.570   1.208  0.1871  0.3477 -0.0408
 8164TIP3    H148687   2.849   1.641   1.197 -0.5403 -0.2575  0.2185
 8164TIP3    H248688   2.904   1.543   1.299 -0.4167 -0.8896 -0.4460
 8165TIP3   OH248689   3.261   0.530   1.560 -0.1444  0.6627  0.1187
 8165TIP3    H148690   3.175   0.565   1.541 -0.5886 -0.0670  0.7220
 8165TIP3    H248691   3.292   0.493   1.477 -0.3061  1.1359 -0.1522
 8166TIP3   OH248692   0.009   5.536   3.215  0.2987  0.2445 -0.2437
 8166TIP3    H148693   0.062   5.490   3.151 -1.8768  1.3723 -3.0495
 8166TIP3    H248694  -0.039   5.467   3.261  2.1722 -0.6045  0.5545
 8167TIP3   OH248695   2.513   6.129   1.647  0.0359 -0.0345  0.2389
 8167TIP3    H148696   2.604   6.105   1.668 -0.4343  0.1106  2.6492
 8167TIP3    H248697   2.520   6.215   1.607  0.9168  0.3068  1.0880
 8168TIP3   OH248698   2.200   6.710   1.441 -0.4277  0.5187 -0.1644
 8168TIP3    H148699   2.165   6.779   1.385  0.5299  0.7873 -0.4569
 8168TIP3    H248700   2.250   6.756   1.508  0.8483  0.1051 -0.7992
 8169TIP3   OH248701   3.537   3.238   2.015  0.5443 -0.3053  0.3632
 8169TIP3    H148702   3.466   3.189   2.055 -0.6754  1.0927 -0.0253
 8169TIP3    H248703   3.513   3.244   1.922  0.4819  1.2810  0.4589
 8170TIP3   OH248704   7.557   6.124   3.380 -0.4102  0.3053  0.3176
 8170TIP3    H148705   7.608   6.201   3.403  1.6018 -0.3096 -1.6610
 8170TIP3    H248706   7.485   6.158   3.326  1.0246  0.8078 -1.3896
 8171TIP3   OH248707   6.155   6.650   3.434  0.5135 -0.8038 -0.5610
 8171TIP3    H148708   6.124   6.740   3.441  0.2302 -0.8988 -0.6037
 8171TIP3    H248709   6.250   6.657   3.448  0.3669 -0.6243  0.4232
 8172TIP3   OH248710   4.057   7.544   0.855 -0.3271  0.0798 -0.4227
 8172TIP3    H148711   4.063   7.532   0.760 -1.1471 -0.0702 -0.4604
 8172TIP3    H248712   3.994   7.479   0.883 -0.5655  0.5508  0.1427
 8173TIP3   OH248713   4.848   5.259   3.011  0.0917 -0.3105  0.0714
 8173TIP3    H148714   4.875   5.204   2.937  1.0472 -0.2514  0.3575
 8173TIP3    H248715   4.790   5.203   3.062 -0.7325 -0.2856 -0.8186
 8174TIP3   OH248716   2.307   7.429   1.464 -0.0389  0.3975  0.2879
 8174TIP3    H148717   2.330   7.357   1.522 -0.4014 -0.0924 -0.1702
 8174TIP3    H248718   2.248   7.484   1.517 -0.3936 -0.0609  0.3764
 8175TIP3   OH248719   7.529   5.009   2.882 -0.2619 -0.1955  0.3993
 8175TIP3    H148720   7.561   5.081   2.935  0.3045  0.2543 -0.5280
 8175TIP3    H248721   7.437   5.000   2.905 -0.1945  0.4575  0.9217
 8176TIP3   OH248722   5.389   5.997   1.928  0.5319  0.1159  0.3698
 8176TIP3    H148723   5.317   5.959   1.877  0.9604  0.1941 -0.3084
 8176TIP3    H248724   5.378   6.091   1.919  0.2478  0.1451  0.9503
 8177TIP3   OH248725   0.821   6.595   0.788  0.3687  0.3418 -0.1698
 8177TIP3    H148726   0.727   6.613   0.791  0.4843  0.9160  0.0928
 8177TIP3    H248727   0.836   6.531   0.858  0.0585 -0.3138 -0.6941
 8178TIP3   OH248728   0.460   5.814   2.497 -0.7020  0.8337  0.1209
 8178TIP3    H148729   0.446   5.751   2.426  0.1508  1.9758 -1.1162
 8178TIP3    H248730   0.373   5.835   2.529 -1.1376  0.6493 -0.9139
 8179TIP3   OH248731   1.075   5.039   2.813  0.4207 -0.0843  0.3498
 8179TIP3    H148732   1.166   5.019   2.794  0.8226  1.5830  0.3840
 8179TIP3    H248733   1.076   5.130   2.842 -1.2773  0.0226  0.1688
 8180TIP3   OH248734   1.658   6.755   2.468  0.0344 -0.1557  0.0372
 8180TIP3    H148735   1.701   6.734   2.386 -1.2848 -0.0786 -0.7101
 8180TIP3    H248736   1.627   6.670   2.502 -0.7226 -0.0330 -0.3205
 8181TIP3   OH248737   7.259   1.144   2.491  0.2655 -0.2680 -0.2640
 8181TIP3    H148738   7.214   1.228   2.483  1.3417  0.4665  1.1812
 8181TIP3    H248739   7.190   1.083   2.516  0.2530  1.2587  4.2039
 8182TIP3   OH248740   2.506   4.949   0.768  0.2601 -0.4651  0.1318
 8182TIP3    H148741   2.541   5.007   0.835 -0.0644  0.8814 -0.8112
 8182TIP3    H248742   2.573   4.881   0.757  0.8747 -0.0043  0.9358
 8183TIP3   OH248743   5.926   7.508   3.531  0.0047 -0.7425 -0.2679
 8183TIP3    H148744   5.983   7.501   3.454  1.5356  1.5636  0.5307
 8183TIP3    H248745   5.977   7.469   3.602  0.1969  0.4201  0.2518
 8184TIP3   OH248746   3.258   2.106   1.819 -0.2929 -0.1108  0.0862
 8184TIP3    H148747   3.179   2.147   1.784 -1.5298 -0.9544  1.7897
 8184TIP3    H248748   3.307   2.179   1.858 -0.9815  0.1932  0.3948
 8185TIP3   OH248749   7.502   2.171   3.046 -0.7168 -0.2657 -0.3514
 8185TIP3    H148750   7.431   2.108   3.052 -0.1242 -1.0634 -1.5064
 8185TIP3    H248751   7.581   2.121   3.067 -0.5048  0.7167  1.4064
 8186TIP3   OH248752   6.914   5.352   2.622  0.1944 -0.1999 -0.0985
 8186TIP3    H148753   6.842   5.414   2.635 -0.4575 -0.8097 -0.7579
 8186TIP3    H248754   6.957   5.381   2.542  0.6429  0.1189  0.2544
 8187TIP3   OH248755   1.721   0.072   1.934 -0.7236  0.5029  0.5594
 8187TIP3    H148756   1.786   0.019   1.888  0.7623  2.4436  0.2625
 8187TIP3    H248757   1.637   0.041   1.901  0.2164  1.3830 -3.1343
 8188TIP3   OH248758   4.983   7.242   2.062  0.2581  0.2414 -1.0455
 8188TIP3    H148759   4.908   7.299   2.041  0.1423  1.3340  1.7918
 8188TIP3    H248760   4.972   7.223   2.155  1.9426 -2.0572 -1.2529
 8189TIP3   OH248761   7.664   2.529   2.571 -0.1959 -0.1906 -0.1318
 8189TIP3    H148762   7.687   2.437   2.558  0.5545 -0.1288  0.6171
 8189TIP3    H248763   7.663   2.540   2.666 -3.5300 -0.1973 -0.0751
 8190TIP3   OH248764   1.119   3.680   1.499  0.0263 -0.3405  0.3102
 8190TIP3    H148765   1.118   3.594   1.458  0.4889 -0.9363  1.4937
 8190TIP3    H248766   1.130   3.741   1.427  0.7841 -1.3429 -0.4529
 8191TIP3   OH248767   4.746   3.650   1.256  0.4485 -0.2663 -0.4064
 8191TIP3    H148768   4.678   3.645   1.323  0.0260  0.6068 -0.7553
 8191TIP3    H248769   4.731   3.734   1.213  1.4872 -0.2535 -0.7725
 8192TIP3   OH248770   6.406   5.145   1.476 -0.6616 -0.0744 -0.0589
 8192TIP3    H148771   6.366   5.093   1.406 -1.4178 -0.5130  0.6833
 8192TIP3    H248772   6.414   5.233   1.439  0.2399 -0.6008 -1.1865
 8193TIP3   OH248773   2.235   1.812   2.869  0.4647 -0.1905 -0.1100
 8193TIP3    H148774   2.215   1.824   2.962  2.0090  0.1093  0.2271
 8193TIP3    H248775   2.309   1.751   2.869  0.9356  0.3556 -1.0860
 8194TIP3   OH248776   5.845   5.755   1.209 -0.4040  0.0139 -0.5340
 8194TIP3    H148777   5.875   5.763   1.118 -1.1622 -0.7442 -0.8753
 8194TIP3    H248778   5.925   5.752   1.261  0.0239  1.3612 -1.0850
 8195TIP3   OH248779   0.810   4.207   2.693 -0.2249  0.0715 -0.8788
 8195TIP3    H148780   0.898   4.179   2.668  0.4220  0.3132  0.9797
 8195TIP3    H248781   0.794   4.164   2.777 -2.1969 -0.5398 -1.5027
 8196TIP3   OH248782   6.579   1.090   1.782 -0.6528  0.3364  0.3866
 8196TIP3    H148783   6.615   1.092   1.871 -2.0988 -0.6878  1.0486
 8196TIP3    H248784   6.484   1.089   1.795 -0.8897  0.2784 -1.1761
 8197TIP3   OH248785   1.403   5.877   0.638 -0.3855 -0.0676 -0.1290
 8197TIP3    H148786   1.496   5.901   0.645 -0.3349 -0.0147 -0.9912
 8197TIP3    H248787   1.368   5.933   0.570 -1.1889  0.2696  0.5437
 8198TIP3   OH248788   3.450   2.017   0.984  0.0870  0.0390  0.3800
 8198TIP3    H148789   3.368   2.063   1.002  0.3232  0.6161  0.0121
 8198TIP3    H248790   3.454   2.014   0.888 -0.6737 -2.1100  0.3682
 8199TIP3   OH248791   0.431   6.790   2.823 -0.3897  0.1292 -0.0508
 8199TIP3    H148792   0.411   6.869   2.774 -0.0136  0.7383  0.7438
 8199TIP3    H248793   0.502   6.816   2.882 -0.6465 -0.6439  0.6209
 8200TIP3   OH248794   5.320   2.176   1.747 -0.1645  0.1315 -0.0917
 8200TIP3    H148795   5.243   2.215   1.704 -0.0261  0.2828 -0.2030
 8200TIP3    H248796   5.382   2.249   1.756  0.7088 -0.3578 -1.6904
 8201TIP3   OH248797   2.410   0.233   2.047  0.4844  0.2080 -0.0412
 8201TIP3    H148798   2.360   0.259   2.124 -0.7569  2.2579 -1.4391
 8201TIP3    H248799   2.482   0.295   2.043  0.5416  0.1104 -0.5450
 8202TIP3   OH248800   2.454   2.055   1.334 -0.5257 -0.4787 -0.3768
 8202TIP3    H148801   2.388   2.113   1.373  0.4364  1.5343 -1.5435
 8202TIP3    H248802   2.446   2.070   1.239  2.3732  0.8566 -0.5220
 8203TIP3   OH248803   0.135   3.437   2.361 -0.3658 -0.1942 -0.1790
 8203TIP3    H148804   0.190   3.442   2.282 -0.2782 -1.7306 -0.2481
 8203TIP3    H248805   0.046   3.426   2.327 -0.2739 -1.3273 -0.0822
 8204TIP3   OH248806   3.711   5.844   1.354  0.2979  0.4113 -0.1059
 8204TIP3    H148807   3.753   5.772   1.307  1.7181  2.0305 -1.4674
 8204TIP3    H248808   3.664   5.893   1.286  1.0463  1.9044  0.4071
 8205TIP3   OH248809   0.007   6.548   1.002  0.4012  0.3972 -0.3313
 8205TIP3    H148810  -0.070   6.551   1.059  0.9211 -2.0821  0.6321
 8205TIP3    H248811   0.038   6.458   1.009  3.1691  1.2045 -1.0037
 8206TIP3   OH248812   4.253   6.415   2.171 -0.2760  0.0395  0.1461
 8206TIP3    H148813   4.322   6.412   2.105  0.3029  2.6838  0.4946
 8206TIP3    H248814   4.181   6.462   2.129 -0.3594  0.6881  0.9658
 8207TIP3   OH248815   5.069   6.932   1.643  0.3298 -0.2753 -0.5798
 8207TIP3    H148816   5.129   6.861   1.621  1.9644  0.7211  0.4766
 8207TIP3    H248817   5.099   6.964   1.728 -2.0138 -0.0320  0.2269
 8208TIP3   OH248818   4.924   5.987   2.937  0.5119 -0.5229 -0.4525
 8208TIP3    H148819   5.003   5.969   2.988  0.1661  0.8447  0.6213
 8208TIP3    H248820   4.867   5.912   2.955  1.1686 -1.0493 -0.4822
 8209TIP3   OH248821   1.034   6.736   1.066  0.7247  0.4903  0.2151
 8209TIP3    H148822   0.950   6.730   1.111  0.1174 -0.5054 -1.0024
 8209TIP3    H248823   1.084   6.660   1.098  0.4927  0.0905 -0.3435
 8210TIP3   OH248824   7.389   5.289   2.994  0.0779 -0.5936  0.0659
 8210TIP3    H148825   7.477   5.252   3.002  1.3289  1.8044 -1.4861
 8210TIP3    H248826   7.380   5.349   3.068  0.0681 -0.2413 -0.2186
 8211TIP3   OH248827   3.729   2.860   2.304  0.1539 -0.1996 -0.0404
 8211TIP3    H148828   3.730   2.863   2.209  0.8775  3.1321 -0.0468
 8211TIP3    H248829   3.821   2.867   2.330 -0.0880 -0.3100  0.9090
 8212TIP3   OH248830   0.797   3.093   1.155  0.0416 -0.5558 -0.2034
 8212TIP3    H148831   0.788   3.160   1.223 -0.2482 -1.2198  0.4204
 8212TIP3    H248832   0.707   3.078   1.125  0.2874  0.7438 -1.7524
 8213TIP3   OH248833   7.056   2.277   3.229  0.0155 -0.0138  0.1514
 8213TIP3    H148834   7.125   2.223   3.190 -0.9429 -0.9003 -0.3461
 8213TIP3    H248835   7.001   2.216   3.277 -1.9186  0.2446 -1.5981
 8214TIP3   OH248836   2.449   1.481   1.623  0.2739 -0.3076 -0.1404
 8214TIP3    H148837   2.388   1.421   1.581  0.0238  0.4407 -0.8589
 8214TIP3    H248838   2.518   1.424   1.659  0.2943 -0.9845 -1.2182
 8215TIP3   OH248839   1.074   3.267   1.606 -0.0529  0.4624  0.1369
 8215TIP3    H148840   1.076   3.180   1.647  0.6217  0.4572  0.1002
 8215TIP3    H248841   0.981   3.285   1.593 -0.1839 -0.6885 -0.7530
 8216TIP3   OH248842   2.937   0.936   1.044 -0.2108 -0.3690 -0.4767
 8216TIP3    H148843   3.019   0.926   0.996  0.1572 -0.0237  0.0702
 8216TIP3    H248844   2.963   0.933   1.136 -0.6428  0.9829 -0.2895
 8217TIP3   OH248845   6.112   6.589   0.513 -0.5817  0.0817 -0.0468
 8217TIP3    H148846   6.157   6.669   0.486  1.2735 -0.6291  0.7171
 8217TIP3    H248847   6.021   6.603   0.488  0.6124 -0.1154 -5.7827
 8218TIP3   OH248848   0.636   6.205   3.228  0.6980  0.4332  0.3660
 8218TIP3    H148849   0.725   6.185   3.254  0.4309  1.4268  2.2028
 8218TIP3    H248850   0.597   6.247   3.305 -1.4242 -0.1789 -0.3067
 8219TIP3   OH248851   0.140   0.547   2.142 -0.2666 -0.2723 -0.2000
 8219TIP3    H148852   0.105   0.597   2.216  0.5527  0.4277 -0.2803
 8219TIP3    H248853   0.062   0.511   2.099 -1.0768  2.5708 -1.3488
 8220TIP3   OH248854   1.160   5.983   1.151 -0.1229  0.3869 -0.3185
 8220TIP3    H148855   1.188   5.912   1.093 -1.2645  1.1877 -1.9374
 8220TIP3    H248856   1.190   6.063   1.107 -0.6527  1.0044  0.4127
 8221TIP3   OH248857   3.102   4.117   1.472 -0.5049 -0.1506  0.8719
 8221TIP3    H148858   3.135   4.028   1.461  0.4388 -0.0489  2.4833
 8221TIP3    H248859   3.008   4.107   1.487 -0.4605 -0.8449  0.6993
 8222TIP3   OH248860   5.041   3.626   1.197 -0.4864  0.0142 -0.4231
 8222TIP3    H148861   4.964   3.673   1.230 -0.8098 -0.8357  0.0788
 8222TIP3    H248862   5.092   3.606   1.276 -0.5255 -0.7657 -0.5934
 8223TIP3   OH248863   6.661   0.521   1.181  0.4321  0.7561  0.0855
 8223TIP3    H148864   6.751   0.495   1.162  0.6733  2.3991 -1.3695
 8223TIP3    H248865   6.631   0.562   1.099 -1.8813 -0.3740  0.3004
 8224TIP3   OH248866   3.912   0.325   2.578  0.1313 -0.2886 -0.0631
 8224TIP3    H148867   3.918   0.420   2.574  0.7174 -0.3339 -0.3315
 8224TIP3    H248868   3.955   0.301   2.660  0.7383 -0.3828 -0.4085
 8225TIP3   OH248869   0.945   5.488   0.750 -0.1689 -0.2940 -0.7307
 8225TIP3    H148870   0.987   5.555   0.695 -0.9821  0.0024 -1.0100
 8225TIP3    H248871   0.851   5.504   0.739 -0.5051  2.4652  3.9121
 8226TIP3   OH248872   3.502   7.578   2.045  1.0495  0.2223 -0.2651
 8226TIP3    H148873   3.550   7.647   1.999  0.6121 -0.8941 -2.5348
 8226TIP3    H248874   3.571   7.520   2.077  1.3970 -0.9899 -2.8961
 8227TIP3   OH248875   3.947   1.093   1.959  0.3958  0.3603  0.6478
 8227TIP3    H148876   3.853   1.082   1.971  0.2516  0.7798 -0.0374
 8227TIP3    H248877   3.977   1.008   1.925 -0.1227  0.9073 -1.2711
 8228TIP3   OH248878   3.725   4.411   0.761 -0.1484  0.6776 -0.1746
 8228TIP3    H148879   3.798   4.371   0.713  0.1622  0.4865  0.4456
 8228TIP3    H248880   3.717   4.359   0.840  0.0743  1.6622  0.5155
 8229TIP3   OH248881   5.651   6.425   1.673  0.3379  0.3160 -0.2353
 8229TIP3    H148882   5.666   6.336   1.641  0.8110  0.5908 -0.8012
 8229TIP3    H248883   5.736   6.469   1.665 -0.0331  0.9978 -0.5600
 8230TIP3   OH248884   4.749   2.839   2.399  0.3234  0.2176  0.6577
 8230TIP3    H148885   4.680   2.812   2.460  0.9909 -1.2826  0.7848
 8230TIP3    H248886   4.745   2.774   2.329  0.8005  0.8454  0.0406
 8231TIP3   OH248887   6.764   1.003   2.627 -0.2512  0.0051 -0.0439
 8231TIP3    H148888   6.812   1.066   2.681 -1.2099 -0.0035  0.8294
 8231TIP3    H248889   6.693   0.972   2.683 -0.4497 -1.0278 -0.8479
 8232TIP3   OH248890   4.618   3.995   1.818 -0.3830  0.4852  0.0679
 8232TIP3    H148891   4.675   3.918   1.819 -0.7381  0.2136  1.4012
 8232TIP3    H248892   4.534   3.962   1.785  0.0153  0.7442 -1.2588
 8233TIP3   OH248893   3.347   0.873   1.196 -0.5386 -0.0184 -0.2904
 8233TIP3    H148894   3.363   0.909   1.283 -0.8836 -0.7787  0.0986
 8233TIP3    H248895   3.434   0.871   1.154  0.1735 -2.3424  1.1070
 8234TIP3   OH248896   2.185   4.486   2.870 -0.6248 -0.1199  0.2358
 8234TIP3    H148897   2.137   4.499   2.952 -0.8480 -0.8439  0.2264
 8234TIP3    H248898   2.131   4.425   2.820  0.6578 -1.5992  0.5660
 8235TIP3   OH248899   3.000   3.602   0.507  0.0936  0.4147 -0.2790
 8235TIP3    H148900   2.925   3.659   0.485 -1.5847 -0.6210  2.2627
 8235TIP3    H248901   2.977   3.517   0.469  0.9209  0.5481 -1.0964
 8236TIP3   OH248902   1.266   5.800   0.917 -0.0469  0.3151 -0.1726
 8236TIP3    H148903   1.309   5.862   0.857  1.7434  0.2577  0.9729
 8236TIP3    H248904   1.200   5.756   0.863  0.4715  1.3206 -1.6945
 8237TIP3   OH248905   7.526   0.238   1.230  0.1573  0.0360  0.4119
 8237TIP3    H148906   7.515   0.161   1.286  0.9931  0.4918  1.2334
 8237TIP3    H248907   7.450   0.293   1.251 -0.0796 -0.2552  0.3296
 8238TIP3   OH248908   0.712   1.692   3.019 -0.4531 -0.3576  0.5092
 8238TIP3    H148909   0.765   1.612   3.016  0.2773  0.1281 -2.0333
 8238TIP3    H248910   0.774   1.761   3.042 -0.5454 -0.1984  0.2867
 8239TIP3   OH248911   0.058   4.279   2.178  0.1149 -0.1575 -0.0582
 8239TIP3    H148912   0.004   4.210   2.140 -0.2965  0.5062 -0.7058
 8239TIP3    H248913   0.033   4.358   2.130  1.1739  0.2888  0.1040
 8240TIP3   OH248914   7.352   2.594   0.905 -0.2391  0.1875 -0.3460
 8240TIP3    H148915   7.419   2.527   0.890  0.7725  1.4650 -1.8760
 8240TIP3    H248916   7.400   2.677   0.900 -1.6642  1.0764  0.2178
 8241TIP3   OH248917   6.714   5.446   1.255  0.0825  0.1966 -0.0274
 8241TIP3    H148918   6.779   5.455   1.185 -0.8084 -0.1019 -0.9174
 8241TIP3    H248919   6.739   5.366   1.302  0.2777  0.0112 -0.4467
 8242TIP3   OH248920   3.223   1.544   2.005  0.4433  0.0806 -0.3693
 8242TIP3    H148921   3.279   1.485   1.955  0.4612 -0.1856 -0.0429
 8242TIP3    H248922   3.139   1.499   2.010  0.1198  0.6000 -1.0817
 8243TIP3   OH248923   2.202   3.227   0.938 -0.1775  0.3077  0.8732
 8243TIP3    H148924   2.210   3.248   0.845 -0.5677 -0.5877  0.6270
 8243TIP3    H248925   2.110   3.205   0.950 -0.0035 -0.2107  1.3268
 8244TIP3   OH248926   1.786   1.343   0.807  0.7681  0.7391  0.1478
 8244TIP3    H148927   1.849   1.411   0.827  0.7564  1.5254 -2.2272
 8244TIP3    H248928   1.719   1.386   0.754 -0.0306 -0.7963 -0.1703
 8245TIP3   OH248929   1.638   3.264   1.122 -0.6212  0.0882  0.3012
 8245TIP3    H148930   1.543   3.267   1.112 -0.5060 -1.2334 -1.8059
 8245TIP3    H248931   1.671   3.326   1.057 -0.0181 -1.4430 -0.9103
 8246TIP3   OH248932   7.452   0.357   2.241 -0.4431 -0.2632  0.5642
 8246TIP3    H148933   7.498   0.343   2.324  0.7717 -0.1810 -0.0745
 8246TIP3    H248934   7.519   0.388   2.181 -1.1311 -1.0888 -0.6793
 8247TIP3   OH248935   7.423   3.250   1.648 -0.4175 -0.6879 -0.5496
 8247TIP3    H148936   7.501   3.195   1.636 -0.9236 -1.2590 -1.3173
 8247TIP3    H248937   7.352   3.200   1.608 -0.7812  0.8218 -1.8843
 8248TIP3   OH248938   1.306   2.187   2.578 -0.8109  0.2383 -0.4357
 8248TIP3    H148939   1.381   2.243   2.561 -1.1731  1.0992  0.6816
 8248TIP3    H248940   1.332   2.133   2.652 -0.3664 -1.3076 -1.6636
 8249TIP3   OH248941   1.421   0.927   2.585  0.3293  0.2174 -0.4011
 8249TIP3    H148942   1.450   0.980   2.511 -0.6798  1.3649  0.0095
 8249TIP3    H248943   1.423   0.986   2.659  0.6815 -0.7486  0.3840
 8250TIP3   OH248944   3.548   0.512   1.592 -0.4391 -0.2069  0.8776
 8250TIP3    H148945   3.584   0.509   1.503 -1.9433 -0.3053  0.2251
 8250TIP3    H248946   3.461   0.551   1.580 -0.5668 -0.0044  2.3527
 8251TIP3   OH248947   5.636   7.323   2.311 -0.2236  0.4961 -0.2267
 8251TIP3    H148948   5.687   7.335   2.231  0.4495  2.0927  0.3978
 8251TIP3    H248949   5.626   7.411   2.347 -2.0041  0.0256  0.5650
 8252TIP3   OH248950   6.728   5.030   2.286  0.2386  0.1522 -0.7742
 8252TIP3    H148951   6.776   5.072   2.215 -1.4806  0.6930 -1.6750
 8252TIP3    H248952   6.651   5.085   2.299 -0.2378 -0.7667  0.4978
 8253TIP3   OH248953   2.248   3.953   0.522  0.2978 -0.2754 -0.6420
 8253TIP3    H148954   2.210   3.917   0.441  1.1309  0.8130 -1.5608
 8253TIP3    H248955   2.222   4.046   0.521 -0.3247 -0.4146  0.7561
 8254TIP3   OH248956   6.218   5.557   1.712 -0.2043  0.2640 -0.5260
 8254TIP3    H148957   6.280   5.571   1.784  0.1494 -0.0683 -0.7610
 8254TIP3    H248958   6.260   5.599   1.637  0.6886 -1.6261 -1.1526
 8255TIP3   OH248959   1.095   2.387   1.706 -0.6492 -0.4374 -0.1724
 8255TIP3    H148960   1.081   2.392   1.612  0.0910  0.4372 -0.2556
 8255TIP3    H248961   1.185   2.354   1.715 -0.0751  1.1311  0.1741
 8256TIP3   OH248962   7.480   2.559   1.306 -0.3778 -0.2882  1.1886
 8256TIP3    H148963   7.543   2.489   1.288  0.0085  0.3014  0.1563
 8256TIP3    H248964   7.405   2.514   1.345  0.0193 -1.2220  0.9064
 8257TIP3   OH248965   5.273   1.520   0.761  0.5504  0.5367  0.2879
 8257TIP3    H148966   5.318   1.514   0.845 -0.1782 -1.2342  0.5843
 8257TIP3    H248967   5.229   1.436   0.750 -1.6583  1.7104 -0.5747
 8258TIP3   OH248968   0.807   5.059   1.937 -0.2843 -0.3573  0.3383
 8258TIP3    H148969   0.873   5.081   1.872 -0.8453 -1.1404 -0.5262
 8258TIP3    H248970   0.733   5.025   1.886 -1.1572  0.0052  1.3102
 8259TIP3   OH248971   2.430   3.458   2.716 -0.5737 -0.2381  0.0241
 8259TIP3    H148972   2.477   3.540   2.731 -0.0969 -0.2487 -1.2662
 8259TIP3    H248973   2.492   3.390   2.744 -0.7698 -0.1845  0.6045
 8260TIP3   OH248974   4.441   3.321   1.349 -0.4503 -0.4389 -0.2942
 8260TIP3    H148975   4.362   3.372   1.363  0.2157  0.6211 -0.2356
 8260TIP3    H248976   4.456   3.276   1.432  0.3718  1.3656  0.5954
 8261TIP3   OH248977   5.717   6.039   1.001  0.2343  0.1384  0.0712
 8261TIP3    H148978   5.765   6.103   1.053 -0.9628  1.1885 -0.0550
 8261TIP3    H248979   5.625   6.058   1.019 -0.1610 -1.3323 -0.2542
 8262TIP3   OH248980   5.335   7.535   2.999  0.1818 -0.3085 -0.1282
 8262TIP3    H148981   5.301   7.593   3.066 -0.7285 -0.4576 -0.4512
 8262TIP3    H248982   5.371   7.460   3.048 -0.5435 -0.4526  0.1901
 8263TIP3   OH248983   6.733   0.864   2.101 -0.2722 -0.1508 -0.0718
 8263TIP3    H148984   6.797   0.932   2.079 -0.7754  1.0879  1.9852
 8263TIP3    H248985   6.648   0.902   2.078 -0.8190  1.1999  3.5608
 8264TIP3   OH248986   2.142   6.250   0.475 -0.3942 -0.2970 -0.0264
 8264TIP3    H148987   2.148   6.340   0.509 -0.3455  0.2936 -1.5118
 8264TIP3    H248988   2.231   6.217   0.478 -0.1027  0.3458 -1.0750
 8265TIP3   OH248989   2.029   3.020   2.442  0.2886  0.0046  0.2326
 8265TIP3    H148990   2.032   3.116   2.439  0.7251  0.0207  0.8799
 8265TIP3    H248991   2.079   2.997   2.521 -0.2332 -0.7307  0.3633
 8266TIP3   OH248992   2.842   7.368   1.748  0.5714  0.0758  0.3029
 8266TIP3    H148993   2.771   7.432   1.741  0.9376  0.6179  1.2952
 8266TIP3    H248994   2.884   7.389   1.831  0.8697 -1.2904  0.5181
 8267TIP3   OH248995   6.260   1.756   0.572 -0.1532  0.3267  0.6194
 8267TIP3    H148996   6.178   1.769   0.524  0.0467  0.4501  0.3072
 8267TIP3    H248997   6.255   1.666   0.604  0.3152 -0.2347 -0.8019
 8268TIP3   OH248998   1.598   5.776   1.669  0.1888 -0.0163  0.0114
 8268TIP3    H148999   1.627   5.868   1.665 -0.8433  0.5218  2.5288
 8268TIP3    H249000   1.605   5.745   1.579 -1.2130  3.0972 -1.3279
 8269TIP3   OH249001   4.099   2.348   1.840  0.0551  0.5238 -0.0794
 8269TIP3    H149002   4.146   2.425   1.873 -0.3660  0.2967  1.1145
 8269TIP3    H249003   4.029   2.334   1.904 -0.4517 -0.2907 -0.7982
 8270TIP3   OH249004   4.911   3.501   0.390 -0.0367 -0.1450  0.4651
 8270TIP3    H149005   4.818   3.509   0.411 -0.3098 -2.4318  0.3917
 8270TIP3    H249006   4.915   3.434   0.322  1.5604  1.1090 -0.7721
 8271TIP3   OH249007   7.105   1.621   2.093 -0.2447  0.8171 -0.1419
 8271TIP3    H149008   7.142   1.558   2.031  2.2499  0.3735  1.6340
 8271TIP3    H249009   7.160   1.699   2.082 -1.2524  1.5506 -0.0721
 8272TIP3   OH249010   7.072   6.771   1.681  0.8302 -0.0521 -0.1544
 8272TIP3    H149011   7.060   6.713   1.606  0.9247  1.0935 -1.0919
 8272TIP3    H249012   7.141   6.832   1.653 -0.9220  2.0378 -0.1951
 8273TIP3   OH249013   2.150   5.735   2.277 -0.3711  0.0275  0.0555
 8273TIP3    H149014   2.107   5.666   2.226  1.0154 -0.4527 -0.5257
 8273TIP3    H249015   2.152   5.701   2.366 -1.7745  0.3563  0.2285
 8274TIP3   OH249016   2.024   2.847   2.191  0.8238  0.1258 -0.0229
 8274TIP3    H149017   2.072   2.915   2.144  0.6775  0.6978  0.6468
 8274TIP3    H249018   2.036   2.868   2.284 -0.9670  0.4735  0.1675
 8275TIP3   OH249019   1.863   6.910   2.672  0.9262 -0.3859 -0.2495
 8275TIP3    H149020   1.802   6.922   2.600  0.7070 -1.2649 -0.2233
 8275TIP3    H249021   1.857   6.990   2.723  0.7856  0.0780 -0.9859
 8276TIP3   OH249022   0.475   5.375   0.677 -0.3023 -0.3419 -0.3046
 8276TIP3    H149023   0.562   5.395   0.709  0.2171  0.6954 -2.2037
 8276TIP3    H249024   0.456   5.287   0.710  0.3757  0.3859  2.2273
 8277TIP3   OH249025   1.953   6.366   1.022 -0.5459 -0.0886 -0.0554
 8277TIP3    H149026   1.862   6.369   1.052 -0.6641  0.6388 -0.4485
 8277TIP3    H249027   1.974   6.457   1.000 -0.3140 -0.5026 -1.6858
 8278TIP3   OH249028   0.507   4.900   1.259  0.6552  0.3106 -0.1164
 8278TIP3    H149029   0.465   4.837   1.201 -0.3144  2.1917 -1.5524
 8278TIP3    H249030   0.540   4.847   1.332 -2.3580 -1.5630  0.0562
 8279TIP3   OH249031   0.982   6.553   1.641 -0.3349  0.2036  0.1196
 8279TIP3    H149032   0.951   6.576   1.729 -1.7690 -0.2141 -0.2548
 8279TIP3    H249033   1.028   6.471   1.653 -2.4815 -1.0672  0.1831
 8280TIP3   OH249034   5.143   1.166   2.053  0.0365  0.0593  0.0085
 8280TIP3    H149035   5.126   1.188   1.961  0.5237 -1.0154 -0.3632
 8280TIP3    H249036   5.126   1.247   2.101  1.0611  1.0312 -1.1870
 8281TIP3   OH249037   1.640   0.809   2.365  0.1047  0.1188 -0.0950
 8281TIP3    H149038   1.704   0.807   2.435  0.1139 -1.4484 -0.1179
 8281TIP3    H249039   1.582   0.882   2.387 -2.5757 -2.8173  4.0076
 8282TIP3   OH249040   7.667   0.905   2.530  0.0765  0.2533 -0.4209
 8282TIP3    H149041   7.606   0.963   2.484 -1.3215 -0.0893  0.9057
 8282TIP3    H249042   7.612   0.859   2.594  1.5719 -0.8124  0.1454
 8283TIP3   OH249043   2.882   3.316   0.511 -0.6924 -0.4527  0.0246
 8283TIP3    H149044   2.857   3.230   0.546 -0.3579 -0.6569 -0.2281
 8283TIP3    H249045   2.978   3.316   0.516 -0.5800 -0.7694 -1.5133
 8284TIP3   OH249046   4.054   2.471   2.218 -0.3999  0.0630 -0.4466
 8284TIP3    H149047   4.027   2.398   2.161 -1.1136  0.0160 -0.0531
 8284TIP3    H249048   4.033   2.442   2.306 -0.5495  0.6896 -0.2711
 8285TIP3   OH249049   4.902   7.285   0.727 -0.5890  0.1446 -0.2965
 8285TIP3    H149050   4.960   7.222   0.685  1.1050  0.4119  1.4821
 8285TIP3    H249051   4.846   7.232   0.785  0.7765  0.1899  1.1342
 8286TIP3   OH249052   0.570   4.385   1.686  0.0059 -0.3239  0.2699
 8286TIP3    H149053   0.575   4.297   1.721  1.6519 -1.1708 -1.8321
 8286TIP3    H249054   0.486   4.389   1.642  0.2828 -1.1873 -0.3660
 8287TIP3   OH249055   5.875   7.251   1.301  0.3739 -0.3873  0.6783
 8287TIP3    H149056   5.805   7.191   1.277 -1.1848  2.1548 -1.8231
 8287TIP3    H249057   5.830   7.323   1.346  1.5819  0.6357  0.2962
 8288TIP3   OH249058   2.365   1.565   2.187  0.2243 -0.2676 -0.1488
 8288TIP3    H149059   2.319   1.647   2.203 -0.5484 -0.9528  1.3821
 8288TIP3    H249060   2.303   1.512   2.136 -1.7099 -1.9162  3.4925
 8289TIP3   OH249061   4.163   2.661   1.378  0.1861  0.4785 -0.0073
 8289TIP3    H149062   4.234   2.701   1.329  0.0060 -0.3538 -0.9854
 8289TIP3    H249063   4.172   2.567   1.360 -1.3283  0.3828 -0.4003
 8290TIP3   OH249064   6.039   6.376   1.377 -0.2957 -0.2926  0.5917
 8290TIP3    H149065   6.002   6.384   1.465  0.0924  1.0002  0.6623
 8290TIP3    H249066   6.041   6.466   1.344  1.3892 -0.5019  0.0266
 8291TIP3   OH249067   1.104   3.067   1.775  0.5588  0.1472 -0.0818
 8291TIP3    H149068   1.132   3.109   1.857  0.3638  0.0304  0.0446
 8291TIP3    H249069   1.052   2.992   1.803 -1.4572  1.3761 -0.2733
 8292TIP3   OH249070   1.694   4.705   1.194  0.3989 -0.1749  0.1714
 8292TIP3    H149071   1.771   4.761   1.182  0.4826 -0.2353  0.4220
 8292TIP3    H249072   1.726   4.629   1.243  0.2996 -0.4800 -0.2323
 8293TIP3   OH249073   5.258   4.141   1.704  0.5067 -0.5344 -0.3219
 8293TIP3    H149074   5.184   4.163   1.760  1.5345 -0.1101  0.9207
 8293TIP3    H249075   5.282   4.224   1.662  1.4922 -0.2302  0.8038
 8294TIP3   OH249076   2.797   7.138   2.619  0.7110 -0.9213 -0.2942
 8294TIP3    H149077   2.759   7.166   2.702 -1.8226  2.2345 -2.3007
 8294TIP3    H249078   2.739   7.069   2.587  0.0879 -0.2564 -0.6254
 8295TIP3   OH249079   2.031   5.247   3.133 -0.3527  0.6935 -0.2361
 8295TIP3    H149080   2.104   5.221   3.076  0.5794  1.1776  0.7104
 8295TIP3    H249081   1.976   5.170   3.137 -0.7186  0.7812 -2.1887
 8296TIP3   OH249082   0.750   4.452   1.931  0.4257 -0.2764 -0.5407
 8296TIP3    H149083   0.712   4.439   2.018  0.7045 -2.5485 -0.6816
 8296TIP3    H249084   0.674   4.467   1.874  0.1645  0.2468 -0.0646
 8297TIP3   OH249085   6.679   1.368   1.781  0.3003  0.6595  0.0741
 8297TIP3    H149086   6.628   1.287   1.782  1.5660 -0.1908  2.2555
 8297TIP3    H249087   6.691   1.387   1.688 -2.5136  0.0011 -0.4986
 8298TIP3   OH249088   2.407   7.058   1.507  0.2005 -0.5034 -0.1547
 8298TIP3    H149089   2.458   7.027   1.432  0.9889  0.5478 -0.0713
 8298TIP3    H249090   2.472   7.087   1.571 -0.4859  0.2578  0.2208
 8299TIP3   OH249091   2.604   5.456   1.206 -0.0865 -0.8266  0.3744
 8299TIP3    H149092   2.669   5.403   1.159  1.1682  0.6411  0.3725
 8299TIP3    H249093   2.656   5.505   1.270 -1.3347 -0.2802  0.9871
 8300TIP3   OH249094   5.380   6.875   1.981 -0.1001 -0.3766  0.3664
 8300TIP3    H149095   5.300   6.884   1.930  0.6633  1.2587 -0.6323
 8300TIP3    H249096   5.449   6.909   1.925  1.0821 -0.3478  1.7566
 8301TIP3   OH249097   2.357   0.821   2.259 -0.4043 -0.0486 -0.2680
 8301TIP3    H149098   2.263   0.807   2.269 -0.8203  0.3942 -2.8373
 8301TIP3    H249099   2.364   0.898   2.202  1.5176 -0.1602 -0.2509
 8302TIP3   OH249100   2.381   6.570   2.524  0.0058 -0.2518  0.0718
 8302TIP3    H149101   2.369   6.479   2.497  1.7779 -0.3873 -0.3889
 8302TIP3    H249102   2.342   6.622   2.454  2.4256 -0.6394 -1.6737
 8303TIP3   OH249103   0.171   2.397   3.099 -0.0357  0.2244  0.2413
 8303TIP3    H149104   0.233   2.376   3.030  0.8487 -0.2895  1.1631
 8303TIP3    H249105   0.207   2.475   3.142  0.7017 -0.8138  1.5937
 8304TIP3   OH249106   6.346   3.971   1.902 -0.2090  0.2342  0.0132
 8304TIP3    H149107   6.358   4.017   1.985  3.4415  0.2743 -0.3706
 8304TIP3    H249108   6.322   3.881   1.928 -2.4157  1.0057  0.9058
 8305TIP3   OH249109   5.302   1.896   1.255  0.4599 -0.2190  0.5176
 8305TIP3    H149110   5.300   1.989   1.274  2.2781  0.1292 -0.8655
 8305TIP3    H249111   5.280   1.854   1.339 -0.6837  1.4154  1.0734
 8306TIP3   OH249112   0.449   4.015   1.521 -0.3191 -0.2357  0.4682
 8306TIP3    H149113   0.354   4.012   1.526 -0.3697 -0.7273 -0.5581
 8306TIP3    H249114   0.476   4.050   1.606 -1.4050 -0.1298  0.7883
 8307TIP3   OH249115   2.924   2.725   1.173  0.2478  0.0244  0.4941
 8307TIP3    H149116   2.995   2.696   1.231  2.7472 -0.6886 -2.6799
 8307TIP3    H249117   2.918   2.656   1.107 -0.6438  2.0047 -1.5769
 8308TIP3   OH249118   7.408   1.718   0.678  0.0662 -0.5739  0.3144
 8308TIP3    H149119   7.458   1.785   0.631  1.8037 -1.0787  1.3280
 8308TIP3    H249120   7.323   1.758   0.695 -0.6054 -0.3150 -3.0580
 8309TIP3   OH249121   1.691   1.740   1.551 -0.3347  0.2751  0.3160
 8309TIP3    H149122   1.765   1.747   1.491 -0.1403 -0.6904  0.4280
 8309TIP3    H249123   1.614   1.750   1.495 -0.1311  1.0920  0.1722
 8310TIP3   OH249124   3.656   2.689   2.908 -0.0323  0.3448  0.1856
 8310TIP3    H149125   3.655   2.615   2.847 -0.1603  0.5849 -0.1048
 8310TIP3    H249126   3.569   2.688   2.948  0.6602 -0.9425  1.7404
 8311TIP3   OH249127   1.070   6.990   0.719  0.2917  0.1745  0.4908
 8311TIP3    H149128   1.032   6.906   0.691 -0.0070 -0.4367  2.5541
 8311TIP3    H249129   1.062   7.047   0.642  2.5534 -2.2874 -1.8096
 8312TIP3   OH249130   0.671   2.582   0.997 -0.4638 -0.4896  0.6596
 8312TIP3    H149131   0.618   2.658   1.019 -1.1618 -0.7106 -0.1978
 8312TIP3    H249132   0.730   2.612   0.928  0.5816 -0.2344  1.6341
 8313TIP3   OH249133   4.354   7.296   0.825 -0.0078 -0.1204  0.4252
 8313TIP3    H149134   4.358   7.269   0.734 -1.0459  1.0114  0.0135
 8313TIP3    H249135   4.341   7.391   0.822  0.3337 -0.0045  1.7540
 8314TIP3   OH249136   0.520   3.829   1.941  0.4994 -0.1218 -0.3314
 8314TIP3    H149137   0.572   3.870   2.009  0.5133 -0.0271 -0.3995
 8314TIP3    H249138   0.448   3.786   1.988 -0.7420  1.7530 -0.3982
 8315TIP3   OH249139   1.867   1.405   1.347  0.2147  0.3001 -0.7639
 8315TIP3    H149140   1.822   1.454   1.278  0.6829 -0.1112 -1.3712
 8315TIP3    H249141   1.930   1.350   1.300 -1.1713 -1.8478 -0.2119
 8316TIP3   OH249142   5.519   3.400   2.732 -0.2558 -0.1327  0.1238
 8316TIP3    H149143   5.434   3.424   2.769  0.0363 -0.1722  0.8209
 8316TIP3    H249144   5.578   3.469   2.759  0.0965 -0.4860  0.2667
 8317TIP3   OH249145   1.714   6.500   2.557  0.6749  0.2943  0.9802
 8317TIP3    H149146   1.721   6.431   2.623  0.9036 -0.4249  0.2361
 8317TIP3    H249147   1.794   6.490   2.504  0.7240  1.1546  0.8800
 8318TIP3   OH249148   6.988   0.541   2.321 -0.1808 -0.3738  0.3307
 8318TIP3    H149149   7.077   0.509   2.306  0.4430  0.5521  1.8005
 8318TIP3    H249150   6.969   0.518   2.412 -0.5998  1.2962  0.6954
 8319TIP3   OH249151   4.696   7.473   2.908 -0.2525  0.1120 -0.2986
 8319TIP3    H149152   4.683   7.394   2.857 -1.1894  0.3976 -0.5146
 8319TIP3    H249153   4.618   7.526   2.892  0.2908  1.0215 -0.0506
 8320TIP3   OH249154   1.924   1.916   3.160 -0.5865 -1.3933  0.0916
 8320TIP3    H149155   1.849   1.892   3.215  1.2890 -1.8726  2.6023
 8320TIP3    H249156   1.908   2.008   3.137 -1.5023 -1.2088  1.3544
 8321TIP3   OH249157   3.844   4.689   2.595 -0.5132  0.7514  0.3020
 8321TIP3    H149158   3.853   4.624   2.664  2.7615  0.5031 -0.1928
 8321TIP3    H249159   3.841   4.637   2.514 -0.7749  1.1401  0.0588
 8322TIP3   OH249160   5.188   5.947   1.036  0.0570  0.3409  0.1300
 8322TIP3    H149161   5.251   5.877   1.050 -0.1843  0.4784  2.0571
 8322TIP3    H249162   5.241   6.025   1.017  0.4012  0.1601  0.3629
 8323TIP3   OH249163   4.429   4.804   1.459 -0.0101  0.4930 -0.3147
 8323TIP3    H149164   4.451   4.755   1.380 -0.3036  0.6424 -0.4892
 8323TIP3    H249165   4.387   4.739   1.516  0.1595  0.3967 -0.2999
 8324TIP3   OH249166   6.557   5.386   1.015  0.8163  0.1076 -0.2638
 8324TIP3    H149167   6.539   5.298   1.048 -2.1875  0.1524 -1.4798
 8324TIP3    H249168   6.606   5.428   1.086  0.3582 -1.8306  1.3016
 8325TIP3   OH249169   0.762   7.463   1.359 -0.0981 -0.0197 -0.4895
 8325TIP3    H149170   0.687   7.522   1.353  0.3433  0.6188  0.0946
 8325TIP3    H249171   0.752   7.403   1.285 -0.7953  0.5031 -0.8298
 8326TIP3   OH249172   0.887   1.266   1.784 -0.1916 -0.2262  0.0173
 8326TIP3    H149173   0.833   1.211   1.843  0.4463 -1.2037 -0.2824
 8326TIP3    H249174   0.827   1.335   1.755 -0.5227  0.3147  1.8313
 8327TIP3   OH249175   0.305   1.992   1.189 -0.3430 -0.1457  0.2561
 8327TIP3    H149176   0.341   2.080   1.178 -0.9853  0.0620 -0.3024
 8327TIP3    H249177   0.350   1.956   1.266  0.9615  0.1221 -0.3639
 8328TIP3   OH249178   4.945   3.477   0.798 -0.3233 -0.5576 -0.2463
 8328TIP3    H149179   4.900   3.468   0.882 -0.8315 -2.2749 -0.6645
 8328TIP3    H249180   4.879   3.516   0.739 -1.0965 -2.3703 -0.6593
 8329TIP3   OH249181   3.089   2.549   0.784  0.3121  0.3667 -0.5266
 8329TIP3    H149182   3.040   2.509   0.856  1.4858 -1.6620 -0.7648
 8329TIP3    H249183   3.067   2.494   0.708  3.5558 -1.2743 -0.4577
 8330TIP3   OH249184   5.581   1.761   1.926 -0.1877  0.5316 -0.4324
 8330TIP3    H149185   5.574   1.840   1.873  1.7552  1.1477  0.1418
 8330TIP3    H249186   5.526   1.779   2.002  0.1492  1.3077 -0.3596
 8331TIP3   OH249187   0.621   3.975   2.804  0.6267  0.1679  0.1930
 8331TIP3    H149188   0.686   4.005   2.868  0.2441  0.3200  0.5124
 8331TIP3    H249189   0.544   3.956   2.856 -0.3821  2.2451 -0.4447
 8332TIP3   OH249190   2.846   7.602   0.995  0.0143 -0.1091  0.3483
 8332TIP3    H149191   2.765   7.582   1.042  0.0813  0.9723  0.9671
 8332TIP3    H249192   2.825   7.588   0.903 -0.9601  0.4001  0.4812
 8333TIP3   OH249193   0.782   5.952   1.265 -0.0448  0.2524  0.4023
 8333TIP3    H149194   0.722   5.878   1.275 -2.0930  1.4556 -1.9341
 8333TIP3    H249195   0.825   5.936   1.181  0.4651  1.0805  0.4939
 8334TIP3   OH249196   3.772   2.936   1.292 -0.1743 -1.0328  0.3660
 8334TIP3    H149197   3.740   2.923   1.203 -1.3667  1.8761  0.2588
 8334TIP3    H249198   3.865   2.955   1.282 -0.7384  1.5897 -0.5969
 8335TIP3   OH249199   3.518   3.341   2.438 -0.3310  0.5767 -0.1245
 8335TIP3    H149200   3.549   3.384   2.358  0.7990 -0.7269 -0.4418
 8335TIP3    H249201   3.572   3.377   2.508  0.6066 -0.2560 -0.3880
 8336TIP3   OH249202   4.215   1.318   7.870 -0.3578  0.6070 -0.2967
 8336TIP3    H149203   4.294   1.280   7.910 -0.5959 -1.1296 -1.3818
 8336TIP3    H249204   4.144   1.259   7.897 -1.1086  1.4929 -0.2935
 8337TIP3   OH249205   4.918   1.323   1.223  0.1434  0.5789  0.3695
 8337TIP3    H149206   4.997   1.287   1.181  0.6429  0.1913  1.6046
 8337TIP3    H249207   4.951   1.370   1.300 -0.9191 -0.9329  1.8237
 8338TIP3   OH249208   3.747   6.423   2.382 -0.2929  0.1460  0.0220
 8338TIP3    H149209   3.829   6.382   2.408 -0.6388  0.0136  0.9418
 8338TIP3    H249210   3.773   6.493   2.322  0.6007  0.7991  1.1274
 8339TIP3   OH249211   4.132   3.041   2.910  0.5640  0.1124  0.2915
 8339TIP3    H149212   4.111   3.121   2.958 -1.5408 -1.5094  2.3221
 8339TIP3    H249213   4.215   3.011   2.948  0.2251  0.1950  1.1249
 8340TIP3   OH249214   1.197   5.717   0.656 -0.1559 -0.2264  0.3723
 8340TIP3    H149215   1.287   5.746   0.645 -0.4152  1.5628  2.4034
 8340TIP3    H249216   1.203   5.625   0.679  1.0704 -0.3590 -0.4055
 8341TIP3   OH249217   6.182   6.469   2.382  0.4278  0.5458  0.2034
 8341TIP3    H149218   6.102   6.497   2.339 -0.0971  0.4240  1.0758
 8341TIP3    H249219   6.166   6.377   2.406  1.0665  0.3293 -0.1683
 8342TIP3   OH249220   5.552   0.059   1.519 -0.5990 -0.4921 -0.0253
 8342TIP3    H149221   5.564   0.078   1.426 -0.7513  0.5155  0.1571
 8342TIP3    H249222   5.617   0.113   1.563 -0.8659 -0.5868  0.4894
 8343TIP3   OH249223   0.609   1.871   2.339 -0.0982  0.1734  0.6242
 8343TIP3    H149224   0.633   1.779   2.333 -0.4016  0.1010  0.5392
 8343TIP3    H249225   0.675   1.916   2.286  0.2377  0.0399  0.9195
 8344TIP3   OH249226   3.970   5.970   2.971 -0.1646 -0.0401 -0.1631
 8344TIP3    H149227   4.043   5.984   2.911  2.0558 -2.7161  1.6741
 8344TIP3    H249228   3.928   6.056   2.978  2.4386  1.4877 -1.7520
 8345TIP3   OH249229   4.372   1.026   1.889 -0.4209 -0.1013  0.5570
 8345TIP3    H149230   4.410   1.000   1.805 -0.0936 -1.0570  0.9857
 8345TIP3    H249231   4.390   0.952   1.947 -0.8983  0.4263  1.3928
 8346TIP3   OH249232   0.349   2.992   1.840 -0.1440  0.6274 -0.1015
 8346TIP3    H149233   0.422   2.937   1.868  0.2805  0.6045 -1.2105
 8346TIP3    H249234   0.377   3.028   1.756 -1.5121  0.4206 -0.6684
 8347TIP3   OH249235   5.906   3.060   0.421 -0.5259 -0.7212  0.5265
 8347TIP3    H149236   5.980   3.042   0.479 -0.1695  0.9308  0.6420
 8347TIP3    H249237   5.932   3.023   0.337 -0.1201 -1.2691  0.8844
 8348TIP3   OH249238   2.410   4.048   8.933 -0.0687 -0.3823  0.0541
 8348TIP3    H149239   2.431   4.137   8.906 -2.9011  0.4975  0.3520
 8348TIP3    H249240   2.433   3.993   8.858 -0.1797  0.8889 -0.9369
 8349TIP3   OH249241   2.312   2.655   1.473 -0.1386  0.0498 -0.3531
 8349TIP3    H149242   2.232   2.668   1.422 -0.4447  1.3463  0.4161
 8349TIP3    H249243   2.283   2.618   1.556  0.1957 -0.5623 -0.4986
 8350TIP3   OH249244   4.048   5.653   2.008  1.1321 -0.7178 -0.7601
 8350TIP3    H149245   4.142   5.641   1.995  1.1193 -1.4518 -0.2966
 8350TIP3    H249246   4.042   5.713   2.083  1.2894 -2.6534  0.9046
 8351TIP3   OH249247   6.991   1.140   3.410  0.1615  0.1723  0.2038
 8351TIP3    H149248   6.944   1.063   3.440  0.3115  0.5010  1.3083
 8351TIP3    H249249   6.966   1.209   3.471  0.5391  0.8453 -0.3831
 8352TIP3   OH249250   1.765   1.506   2.035  0.4466 -0.2553 -0.2206
 8352TIP3    H149251   1.760   1.499   1.940  1.1776 -0.7862 -0.2246
 8352TIP3    H249252   1.675   1.526   2.062  0.4188  0.8515 -1.0893
 8353TIP3   OH249253   0.585   6.374   1.810 -0.0996 -0.1566 -0.1001
 8353TIP3    H149254   0.596   6.424   1.729 -0.6295 -0.8130 -0.5936
 8353TIP3    H249255   0.531   6.430   1.866  1.5116  0.9591  0.4256
 8354TIP3   OH249256   4.989   1.597   0.923  0.4809  0.4093 -0.2171
 8354TIP3    H149257   5.028   1.637   1.001 -1.4153  0.7513  0.6155
 8354TIP3    H249258   4.986   1.668   0.859  0.9336  0.4622 -0.1799
 8355TIP3   OH249259   2.833   2.071   0.823  1.1389  0.1413 -0.1561
 8355TIP3    H149260   2.774   2.095   0.752 -0.6833 -0.2590  1.1606
 8355TIP3    H249261   2.866   1.985   0.798 -0.8505 -0.7906  0.2449
 8356TIP3   OH249262   1.594   2.667   2.941  0.5108 -0.7493  0.1074
 8356TIP3    H149263   1.598   2.645   3.035  1.7209  0.5102  0.3815
 8356TIP3    H249264   1.534   2.742   2.937  1.6848  0.2273  0.1238
 8357TIP3   OH249265   6.848   5.127   1.042 -0.5104  0.8381 -0.4435
 8357TIP3    H149266   6.758   5.151   1.064  0.0864  1.4020  1.5620
 8357TIP3    H249267   6.863   5.045   1.089  0.7184  1.9251  1.1952
 8358TIP3   OH249268   0.180   6.455   1.949  0.1177  0.3956 -0.3683
 8358TIP3    H149269   0.177   6.362   1.928  0.0293  0.4397 -0.5536
 8358TIP3    H249270   0.274   6.475   1.954  0.1545  0.4982 -1.2497
 8359TIP3   OH249271   3.158   7.035   1.246  0.1844  0.1192 -0.3777
 8359TIP3    H149272   3.097   7.099   1.209  0.0724  1.3840  1.8680
 8359TIP3    H249273   3.172   6.972   1.175 -1.7188  1.2027 -1.8007
 8360TIP3   OH249274   2.020   0.591   1.937  0.2095  0.0053  0.1401
 8360TIP3    H149275   1.981   0.530   1.999 -0.2045  0.0635 -0.0630
 8360TIP3    H249276   2.112   0.596   1.963  0.1824 -0.4836  0.3363
 8361TIP3   OH249277   4.468   2.324   1.500 -0.2921  0.2414 -0.1737
 8361TIP3    H149278   4.444   2.285   1.584  1.0002 -0.3565 -0.0707
 8361TIP3    H249279   4.523   2.398   1.523  0.2511 -0.0581 -0.4980
 8362TIP3   OH249280   6.339   5.171   2.868  0.2426  0.7647  0.0585
 8362TIP3    H149281   6.401   5.120   2.920  1.5099  1.8240 -0.3408
 8362TIP3    H249282   6.366   5.262   2.882 -1.1662  1.2470 -0.2342
 8363TIP3   OH249283   5.217   4.257   1.115 -0.0388  0.0199  0.1612
 8363TIP3    H149284   5.188   4.195   1.182  0.6847 -0.2520  0.2332
 8363TIP3    H249285   5.143   4.263   1.054 -0.3305 -0.4767  0.4590
 8364TIP3   OH249286   3.667   0.966   1.820 -0.4045 -0.3998 -0.7664
 8364TIP3    H149287   3.616   1.047   1.828  2.2775  1.3660 -0.3650
 8364TIP3    H249288   3.677   0.934   1.909  1.3322  0.7677 -0.4822
 8365TIP3   OH249289   1.377   7.567   0.450 -0.0026 -0.0179  0.4269
 8365TIP3    H149290   1.346   7.640   0.504  0.1459 -0.2060  0.7744
 8365TIP3    H249291   1.323   7.570   0.371  1.5733  1.9030 -0.6515
 8366TIP3   OH249292   3.735   2.322   0.849 -0.1186 -0.4110 -0.8296
 8366TIP3    H149293   3.761   2.392   0.908  3.3916 -2.0467 -0.1508
 8366TIP3    H249294   3.692   2.258   0.905 -0.5310 -0.1405 -0.8410
 8367TIP3   OH249295   5.126   1.404   2.213 -0.0067  0.2207 -0.2295
 8367TIP3    H149296   5.177   1.481   2.186 -1.4600  1.0984 -0.5907
 8367TIP3    H249297   5.049   1.441   2.256 -0.8494 -1.0380 -0.6201
 8368TIP3   OH249298   5.750   5.058   2.375  0.0221  0.2967 -0.3308
 8368TIP3    H149299   5.695   5.066   2.453 -2.0888  0.7990 -1.7766
 8368TIP3    H249300   5.815   5.127   2.384 -1.2643  1.4831  0.1876
 8369TIP3   OH249301   5.587   2.291   1.548 -0.4110 -0.6290 -0.5882
 8369TIP3    H149302   5.519   2.269   1.485 -1.9580  0.6862  0.5253
 8369TIP3    H249303   5.626   2.207   1.572 -0.7104 -1.2715 -2.2336
 8370TIP3   OH249304   3.425   0.288   0.689 -0.5445  0.0674  0.4966
 8370TIP3    H149305   3.433   0.194   0.678 -0.2931  0.1798 -0.2965
 8370TIP3    H249306   3.333   0.302   0.712 -0.7723 -0.2959 -0.1863
 8371TIP3   OH249307   3.815   4.078   1.275  0.2421 -0.1529 -0.1961
 8371TIP3    H149308   3.806   4.155   1.332  0.1278  1.1225 -1.8701
 8371TIP3    H249309   3.839   4.114   1.190  1.2153 -2.0687 -0.7863
 8372TIP3   OH249310   2.337   1.470   0.941  0.2034 -0.7336 -0.4384
 8372TIP3    H149311   2.388   1.421   1.006 -1.3556  0.3754  1.7685
 8372TIP3    H249312   2.382   1.555   0.937 -0.8181 -0.0983  0.7779
 8373TIP3   OH249313   3.118   0.842   0.858  0.5645 -0.0986  0.2729
 8373TIP3    H149314   3.132   0.754   0.892  0.0807 -0.1015  0.4844
 8373TIP3    H249315   3.135   0.835   0.764  0.5388 -0.4153  0.2908
 8374TIP3   OH249316   6.538   7.344   3.439 -0.2650 -0.2208 -0.3396
 8374TIP3    H149317   6.630   7.366   3.428 -0.9734  2.0270 -3.2482
 8374TIP3    H249318   6.497   7.425   3.470 -1.4590 -0.6622 -0.6763
 8375TIP3   OH249319   4.360   7.394   2.937  0.2786  0.1237  0.1081
 8375TIP3    H149320   4.305   7.323   2.904 -1.5611  0.8601  1.4149
 8375TIP3    H249321   4.389   7.441   2.858  0.9199 -1.5801 -0.7251
 8376TIP3   OH249322   4.078   0.297   2.801 -0.1671  0.4474  0.3801
 8376TIP3    H149323   4.070   0.325   2.892 -0.0267 -0.4776  0.6889
 8376TIP3    H249324   4.172   0.289   2.786 -0.1833  0.8139  0.0879
 8377TIP3   OH249325   1.386   3.638   2.476  0.5638 -0.0692 -0.3938
 8377TIP3    H149326   1.460   3.667   2.423  0.2934  0.2271 -0.6187
 8377TIP3    H249327   1.339   3.719   2.497  0.2840 -0.2588 -0.2859
 8378TIP3   OH249328   7.068   4.603   1.320  0.3300 -0.0625  0.3029
 8378TIP3    H149329   7.137   4.660   1.286  0.7844 -0.6822  0.1754
 8378TIP3    H249330   7.049   4.637   1.407 -0.0399  0.8345 -0.1178
 8379TIP3   OH249331   5.377   7.329   1.301 -0.5150  0.2965  0.9509
 8379TIP3    H149332   5.360   7.346   1.394 -0.5901 -0.4416  1.0792
 8379TIP3    H249333   5.449   7.388   1.279 -0.4898  0.4702  1.4852
 8380TIP3   OH249334   5.556   4.752   2.523 -0.3389  0.3059 -0.1694
 8380TIP3    H149335   5.643   4.765   2.485  0.7580  1.5100  2.5064
 8380TIP3    H249336   5.517   4.839   2.522 -1.1431 -0.0505 -0.4529
 8381TIP3   OH249337   1.249   5.771   2.730 -0.0845 -0.4236 -0.6521
 8381TIP3    H149338   1.164   5.798   2.698  0.7602  1.1970 -1.6599
 8381TIP3    H249339   1.243   5.676   2.738 -1.7682 -0.3961 -1.2734
 8382TIP3   OH249340   2.071   7.188   2.308  0.1488 -0.6846  0.3888
 8382TIP3    H149341   2.147   7.238   2.280  0.0710 -1.1333 -0.6609
 8382TIP3    H249342   2.071   7.196   2.404  0.4230  0.8857  0.2861
 8383TIP3   OH249343   4.822   7.179   3.129  0.0280  0.3326  0.0191
 8383TIP3    H149344   4.773   7.121   3.071  1.0274  0.5005 -1.0602
 8383TIP3    H249345   4.757   7.240   3.163 -0.7367 -0.3246 -0.2383
 8384TIP3   OH249346   0.672   4.550   0.520  0.2417  0.0948  0.5206
 8384TIP3    H149347   0.748   4.515   0.474 -0.1012 -1.6802  1.2026
 8384TIP3    H249348   0.675   4.644   0.504  2.0643 -0.0453 -0.2039
 8385TIP3   OH249349   7.027   6.270   2.417  0.4686 -0.8148  0.4789
 8385TIP3    H149350   6.976   6.259   2.497  0.3708 -1.5575  0.3244
 8385TIP3    H249351   7.076   6.189   2.408  1.6940 -0.1079  0.6235
 8386TIP3   OH249352   4.806   0.548   2.464  0.6930 -0.0622 -0.0935
 8386TIP3    H149353   4.808   0.468   2.413  2.4356  1.2576 -2.2523
 8386TIP3    H249354   4.861   0.530   2.540 -0.3993 -1.4414  0.4071
 8387TIP3   OH249355   6.533   4.525   2.852 -0.1121 -0.1152 -0.3314
 8387TIP3    H149356   6.568   4.437   2.865  0.1871  0.4225  4.6898
 8387TIP3    H249357   6.458   4.529   2.912  0.3633  3.2204  0.2262
 8388TIP3   OH249358   4.681   7.533   0.832  0.1347 -0.0401  0.7368
 8388TIP3    H149359   4.589   7.544   0.805 -0.0781 -0.6387  1.2067
 8388TIP3    H249360   4.715   7.465   0.775  1.0560  1.9180 -1.2112
 8389TIP3   OH249361   6.917   1.651   3.309  0.6961 -0.0105 -0.5492
 8389TIP3    H149362   7.003   1.612   3.290  0.0857 -1.1850 -1.0082
 8389TIP3    H249363   6.868   1.643   3.227  0.1876  0.7639 -0.3282
 8390TIP3   OH249364   7.359   3.696   0.487  0.2602  0.3170  1.0725
 8390TIP3    H149365   7.373   3.695   0.582  0.4145 -1.0853  1.0502
 8390TIP3    H249366   7.407   3.620   0.455 -1.3364 -0.3091  0.0879
 8391TIP3   OH249367   6.320   6.329   1.407 -0.1210 -0.1518  0.0701
 8391TIP3    H149368   6.226   6.308   1.399 -0.2605  0.6653 -0.6735
 8391TIP3    H249369   6.361   6.245   1.429 -1.3259 -0.0395  3.3511
 8392TIP3   OH249370   1.152   4.175   0.748  0.0170  0.4754 -0.1933
 8392TIP3    H149371   1.181   4.097   0.701 -1.2474 -0.3284  0.3141
 8392TIP3    H249372   1.199   4.171   0.832 -1.7038 -1.0238  0.7804
 8393TIP3   OH249373   6.278   0.361   2.219 -0.1659  0.5011  0.2871
 8393TIP3    H149374   6.328   0.282   2.199  1.1702  1.8103 -2.0475
 8393TIP3    H249375   6.310   0.389   2.304 -0.3651 -1.2001  0.9612
 8394TIP3   OH249376   6.017   1.118   1.636  0.2593 -0.0636 -0.5727
 8394TIP3    H149377   5.998   1.172   1.713  1.8397  0.1405 -0.3055
 8394TIP3    H249378   6.035   1.031   1.671  1.7156  0.1995 -0.6187
 8395TIP3   OH249379   6.379   6.497   0.606  0.0383  0.6349 -0.4565
 8395TIP3    H149380   6.362   6.407   0.635 -1.0196  0.0652 -2.6027
 8395TIP3    H249381   6.299   6.523   0.561  1.1992  1.7367 -2.0051
 8396TIP3   OH249382   4.464   0.076   2.273  0.1448 -0.3107  0.2644
 8396TIP3    H149383   4.439  -0.016   2.267 -2.1870  0.3639 -2.1882
 8396TIP3    H249384   4.399   0.115   2.332 -0.1432  0.1222 -0.3282
 8397TIP3   OH249385   3.497   3.112   1.744  0.1045  0.3261 -0.0390
 8397TIP3    H149386   3.433   3.081   1.680  1.5232  0.5294 -1.6452
 8397TIP3    H249387   3.581   3.080   1.711  0.9457  0.8685  1.4781
 8398TIP3   OH249388   4.818   6.082   0.835  0.5692  0.3970 -0.0550
 8398TIP3    H149389   4.823   6.151   0.901  2.4563 -0.2603  0.5522
 8398TIP3    H249390   4.727   6.053   0.838  0.0093  2.0832  0.4583
 8399TIP3   OH249391   1.600   0.179   1.316  0.8630 -0.1971  0.2873
 8399TIP3    H149392   1.551   0.171   1.397 -0.2337  0.6664 -0.2667
 8399TIP3    H249393   1.553   0.245   1.265  0.0795 -2.3830 -2.0641
 8400TIP3   OH249394   6.606   6.833   0.809  0.4183  0.0291 -0.0509
 8400TIP3    H149395   6.653   6.750   0.812  2.1613  0.9891  2.2336
 8400TIP3    H249396   6.564   6.840   0.895 -2.1880  0.2152 -1.2655
 8401TIP3   OH249397   5.784   0.047   3.490  0.2259  0.1571 -0.0954
 8401TIP3    H149398   5.829  -0.037   3.500  1.6953  1.2169  3.6627
 8401TIP3    H249399   5.844   0.100   3.436 -0.1551 -0.7437 -1.4652
 8402TIP3   OH249400   0.048   7.421   2.038 -0.1352 -0.2500 -0.5542
 8402TIP3    H149401   0.069   7.419   1.945 -0.4927 -1.8807 -0.6283
 8402TIP3    H249402  -0.023   7.357   2.049  0.1841 -0.4030  0.8994
 8403TIP3   OH249403   5.959   2.705   1.524  0.1807 -0.6560 -0.6454
 8403TIP3    H149404   5.931   2.684   1.613 -1.7221 -1.0933 -1.3128
 8403TIP3    H249405   5.913   2.642   1.469  1.4864 -0.5250 -1.9446
 8404TIP3   OH249406   5.112   0.406   2.330 -0.1044  0.0024  0.1305
 8404TIP3    H149407   5.023   0.376   2.346  0.7705 -2.3373  1.1638
 8404TIP3    H249408   5.116   0.494   2.368 -2.3162  0.7869 -1.2802
 8405TIP3   OH249409   4.547   5.687   1.058  0.0199  0.0208 -0.1799
 8405TIP3    H149410   4.616   5.641   1.106  0.6046 -0.6916 -1.6141
 8405TIP3    H249411   4.477   5.622   1.049 -0.2323  0.2648  0.0099
 8406TIP3   OH249412   2.594   4.419   1.346  0.0905 -0.4688  0.1469
 8406TIP3    H149413   2.621   4.483   1.412 -0.4590 -1.5541  1.4673
 8406TIP3    H249414   2.556   4.347   1.396 -0.4756 -1.2758 -1.3719
 8407TIP3   OH249415   1.347   5.143   1.103 -0.7711  0.2767 -0.2184
 8407TIP3    H149416   1.350   5.197   1.025  0.6822 -1.7754 -1.6846
 8407TIP3    H249417   1.436   5.109   1.113 -1.4099 -1.1468  1.1185
 8408TIP3   OH249418   2.108   6.981   2.137  0.3791  0.0214  0.6927
 8408TIP3    H149419   2.030   6.939   2.103  0.3936  0.3001  0.3106
 8408TIP3    H249420   2.076   7.060   2.180  0.5487  0.7171 -0.4290
 8409TIP3   OH249421   4.991   0.539   2.660 -0.2916  0.4288  0.3500
 8409TIP3    H149422   4.986   0.614   2.719  0.0493  0.0058  0.9284
 8409TIP3    H249423   5.071   0.493   2.686 -0.6203 -0.2634  0.1666
 8410TIP3   OH249424   0.258   5.843   2.055  0.1259  0.3369 -0.2774
 8410TIP3    H149425   0.265   5.748   2.048  2.6791  0.3240  1.0511
 8410TIP3    H249426   0.331   5.876   2.002  0.7806  1.3964  1.2015
 8411TIP3   OH249427   0.178   3.078   2.122 -0.8117  0.0592 -0.0813
 8411TIP3    H149428   0.231   3.017   2.174  0.5791 -0.2728 -1.8151
 8411TIP3    H249429   0.089   3.042   2.128 -0.3458 -1.0714  0.4540
 8412TIP3   OH249430   6.676   5.714   0.983 -0.1500 -0.2784 -0.1067
 8412TIP3    H149431   6.581   5.711   0.992 -0.2242 -0.1222 -0.7566
 8412TIP3    H249432   6.704   5.780   1.046 -0.3563 -1.1070  0.8765
 8413TIP3   OH249433   0.538   1.504   2.073 -0.4975 -0.6040 -0.5203
 8413TIP3    H149434   0.520   1.510   1.979 -3.4615 -2.8733 -0.2576
 8413TIP3    H249435   0.628   1.472   2.079  0.2132  0.8666 -2.5071
 8414TIP3   OH249436   0.056   2.553   1.456  0.8048 -0.1724 -0.3724
 8414TIP3    H149437   0.011   2.469   1.468  1.5294 -0.5218 -0.0972
 8414TIP3    H249438   0.120   2.536   1.387 -0.7975  0.8465 -2.2464
 8415TIP3   OH249439   1.211   7.222   2.458  0.2647  0.6152  0.1480
 8415TIP3    H149440   1.115   7.220   2.450  0.3970 -0.9654 -1.8807
 8415TIP3    H249441   1.231   7.152   2.520  0.1041  1.5627  1.3122
 8416TIP3   OH249442   0.619   1.785   0.764  0.3352 -0.8163 -0.2805
 8416TIP3    H149443   0.551   1.757   0.703 -1.8617 -0.6917  1.9728
 8416TIP3    H249444   0.620   1.881   0.757  0.8170 -0.8545 -0.8229
 8417TIP3   OH249445   5.666   4.682   1.724  0.1037 -0.0427 -0.4822
 8417TIP3    H149446   5.728   4.745   1.761  0.7613 -0.1428 -1.3710
 8417TIP3    H249447   5.639   4.722   1.641  1.2512 -1.3226 -1.5183
 8418TIP3   OH249448   3.719   7.263   1.459  0.0196 -0.2541  0.0865
 8418TIP3    H149449   3.657   7.208   1.412 -2.7757  1.9975  0.8469
 8418TIP3    H249450   3.699   7.352   1.431  1.2330  0.7870  2.2266
 8419TIP3   OH249451   4.064   0.510   2.083  0.1010 -0.3126 -0.2906
 8419TIP3    H149452   4.031   0.472   2.165 -2.4242  0.4607 -0.8537
 8419TIP3    H249453   4.003   0.479   2.016  0.8920  0.7478 -1.5453
 8420TIP3   OH249454   0.159   6.186   1.914  0.2172 -0.0718  0.7381
 8420TIP3    H149455   0.184   6.167   2.004  1.5511 -1.9669  0.0410
 8420TIP3    H249456   0.085   6.128   1.897  0.5653 -0.4184  0.3608
 8421TIP3   OH249457   1.595   4.490   0.963 -0.0940  0.6381  0.1759
 8421TIP3    H149458   1.672   4.451   0.921 -1.0647 -0.5085 -0.6054
 8421TIP3    H249459   1.611   4.584   0.958  1.5945  0.4090  0.7056
 8422TIP3   OH249460   1.460   6.825   2.254 -0.0924 -0.0203  0.2689
 8422TIP3    H149461   1.417   6.834   2.339  0.5957 -1.7136  0.8279
 8422TIP3    H249462   1.549   6.799   2.275  0.8631  2.0016 -0.9197
 8423TIP3   OH249463   3.123   6.162   2.170  0.9692  0.5758  0.0981
 8423TIP3    H149464   3.142   6.213   2.091  1.7317  0.8461  0.4522
 8423TIP3    H249465   3.204   6.116   2.190  1.0996  1.2520  1.2589
 8424TIP3   OH249466   4.584   1.937   2.560 -0.2791 -0.1081  0.0447
 8424TIP3    H149467   4.614   1.992   2.488  1.5089 -0.7370  0.2642
 8424TIP3    H249468   4.529   1.870   2.518 -0.7420  0.5942 -0.4804
 8425TIP3   OH249469   4.394   7.450   1.979  0.6926 -0.0961  0.6103
 8425TIP3    H149470   4.355   7.457   1.892  1.6085  1.3939  0.2871
 8425TIP3    H249471   4.460   7.380   1.970  2.4725  1.6195 -0.6258
 8426TIP3   OH249472   2.738   6.459   1.372  0.1590  0.3512 -0.1170
 8426TIP3    H149473   2.823   6.481   1.333  0.4432 -0.3616  0.0907
 8426TIP3    H249474   2.756   6.448   1.466  0.5020 -2.8672 -0.4438
 8427TIP3   OH249475   5.565   5.538   1.234  0.1260  0.2801 -0.2940
 8427TIP3    H149476   5.632   5.594   1.274 -0.6450  1.4696 -0.5983
 8427TIP3    H249477   5.584   5.543   1.140 -2.0060  2.9705 -0.7093
 8428TIP3   OH249478   5.935   5.320   1.209  0.0248  0.0314  0.1945
 8428TIP3    H149479   5.981   5.373   1.145 -1.5551 -0.4722 -1.4389
 8428TIP3    H249480   6.001   5.260   1.244  0.6690 -0.5545 -1.9301
 8429TIP3   OH249481   3.102   0.342   2.360  0.1078  0.8811 -0.1806
 8429TIP3    H149482   3.110   0.403   2.287 -1.4119  0.3654 -0.8230
 8429TIP3    H249483   3.079   0.259   2.320 -3.6740  1.1961  0.9300
 8430TIP3   OH249484   0.866   2.377   1.012  0.3299 -0.1747 -0.1102
 8430TIP3    H149485   0.811   2.454   1.024  0.3812 -0.3896  1.7796
 8430TIP3    H249486   0.805   2.306   0.996  0.1371 -0.1228  0.3729
 8431TIP3   OH249487   1.332   1.239   0.747  0.0716 -0.2140  0.6749
 8431TIP3    H149488   1.292   1.188   0.818 -0.5505 -0.7051 -0.0136
 8431TIP3    H249489   1.279   1.317   0.740  0.2808 -0.0497  0.9092
 8432TIP3   OH249490   2.970   3.761   0.755 -0.6917 -0.6150  0.0518
 8432TIP3    H149491   2.924   3.701   0.695 -1.2538  0.0633 -0.2092
 8432TIP3    H249492   3.032   3.705   0.801 -2.4213 -1.7691  1.1015
 8433TIP3   OH249493   5.847   3.304   2.157  0.0495  0.6221  0.2838
 8433TIP3    H149494   5.831   3.383   2.209  0.5985  0.4404  0.7389
 8433TIP3    H249495   5.862   3.337   2.068 -1.6711  0.8806  0.0596
 8434TIP3   OH249496   2.567   5.554   2.343 -0.0257  0.4154 -0.3897
 8434TIP3    H149497   2.577   5.566   2.437  0.7269  0.3057 -0.4487
 8434TIP3    H249498   2.641   5.602   2.305 -0.1726  0.2334 -0.9077
 8435TIP3   OH249499   5.398   1.044   2.135  0.1102 -0.7311 -0.8458
 8435TIP3    H149500   5.380   0.977   2.070  0.9012 -1.1067 -0.6931
 8435TIP3    H249501   5.340   1.117   2.112  0.1313 -0.9949 -1.7509
 8436TIP3   OH249502   0.509   2.409   0.633  0.1738  0.0351  0.2204
 8436TIP3    H149503   0.601   2.394   0.653  0.8562  0.5545 -2.2298
 8436TIP3    H249504   0.482   2.333   0.581  0.1743  1.3003 -1.7390
 8437TIP3   OH249505   1.325   4.102   1.922 -0.0605  0.0518 -0.1886
 8437TIP3    H149506   1.375   4.021   1.927 -0.0494  0.1238  1.4952
 8437TIP3    H249507   1.234   4.074   1.911 -0.0401 -0.1954  0.2379
 8438TIP3   OH249508   0.863   2.342   1.980 -0.2380  0.2048 -0.5986
 8438TIP3    H149509   0.904   2.383   2.057 -1.3660  1.9420 -0.8477
 8438TIP3    H249510   0.937   2.315   1.925  0.5855  0.6689  0.2428
 8439TIP3   OH249511   5.767   2.027   0.925  0.1293  0.4204 -0.2728
 8439TIP3    H149512   5.745   2.016   0.833 -0.4917 -2.5461  0.1240
 8439TIP3    H249513   5.849   1.980   0.936 -0.8033 -1.0034  1.0179
 8440TIP3   OH249514   4.247   3.465   2.152  0.1563  0.5876  0.7610
 8440TIP3    H149515   4.176   3.488   2.211 -1.7484  0.9419 -1.4985
 8440TIP3    H249516   4.216   3.387   2.106  0.5385  1.5506 -1.2668
 8441TIP3   OH249517   2.494   4.776   1.216  0.1908 -0.2989  0.0488
 8441TIP3    H149518   2.433   4.844   1.191 -1.7592 -2.8059 -2.7241
 8441TIP3    H249519   2.451   4.729   1.287  0.7527  0.2764  0.7860
 8442TIP3   OH249520   1.470   4.965   2.228  0.1779 -0.6953 -0.4875
 8442TIP3    H149521   1.470   4.961   2.323  1.4648  0.7886 -0.3865
 8442TIP3    H249522   1.378   4.981   2.205  0.1650  1.0915  0.6493
 8443TIP3   OH249523   1.123   5.090   2.305  0.7233  0.2977 -0.4704
 8443TIP3    H149524   1.148   5.050   2.222  1.1640  2.3544 -1.4127
 8443TIP3    H249525   1.038   5.052   2.327  0.8756 -0.7013 -1.5490
 8444TIP3   OH249526   3.784   2.478   1.606  0.7223 -0.0138  0.1183
 8444TIP3    H149527   3.835   2.468   1.525  0.1413 -0.3706 -0.2111
 8444TIP3    H249528   3.766   2.389   1.634  3.2106  0.0104  2.1568
 8445TIP3   OH249529   5.032   5.430   1.219 -0.1723 -0.0799  0.1607
 8445TIP3    H149530   4.983   5.428   1.301 -2.0231  0.4071 -0.8855
 8445TIP3    H249531   5.115   5.471   1.242 -1.0673  1.0161  1.5990
 8446TIP3   OH249532   6.297   6.007   0.977  0.4003 -0.2566  0.0130
 8446TIP3    H149533   6.307   6.043   1.065  0.0184 -0.7430  0.2590
 8446TIP3    H249534   6.336   5.920   0.982 -0.6257 -0.7313  0.0138
 8447TIP3   OH249535   1.458   4.935   2.528  0.0978  0.1089 -0.1790
 8447TIP3    H149536   1.448   5.011   2.585  1.4177  0.3487 -0.2381
 8447TIP3    H249537   1.370   4.899   2.520 -0.4245  1.2183  0.4173
 8448TIP3   OH249538   3.316   7.076   0.699  0.0235  0.2977  0.5387
 8448TIP3    H149539   3.356   7.011   0.642 -0.6715 -0.0901  0.4915
 8448TIP3    H249540   3.304   7.153   0.643  2.1767  1.0015  0.9537
 8449TIP3   OH249541   1.849   4.733   1.939  0.3426  0.3130 -0.4831
 8449TIP3    H149542   1.819   4.667   1.876  0.0042  0.6504 -0.6830
 8449TIP3    H249543   1.769   4.762   1.983  0.3653  1.1864 -0.9821
 8450TIP3   OH249544   3.355   6.305   1.693 -0.3589  0.1335  0.3604
 8450TIP3    H149545   3.420   6.365   1.656 -0.3297  0.6103  1.1647
 8450TIP3    H249546   3.406   6.238   1.737 -0.3873  0.8648  1.5585
 8451TIP3   OH249547   3.753   1.977   2.761 -0.4095 -0.0586 -0.2323
 8451TIP3    H149548   3.838   2.009   2.733 -0.1604 -1.1209 -0.7363
 8451TIP3    H249549   3.768   1.941   2.849  0.2839 -2.5583 -1.2881
 8452TIP3   OH249550   7.244   2.357   0.430  0.2502 -0.3056 -0.0948
 8452TIP3    H149551   7.149   2.348   0.428 -0.1305 -0.2863  4.8706
 8452TIP3    H249552   7.259   2.442   0.470  2.1604 -1.4307  1.8178
 8453TIP3   OH249553   4.246   3.466   1.433  0.0118  0.0944  0.1062
 8453TIP3    H149554   4.230   3.430   1.520  0.2600  0.1582  0.1794
 8453TIP3    H249555   4.178   3.532   1.421 -1.0952 -1.1037 -0.4510
 8454TIP3   OH249556   7.088   3.038   3.197 -0.3148  0.0611  0.4902
 8454TIP3    H149557   7.098   2.949   3.230 -0.3894 -0.7816 -1.6074
 8454TIP3    H249558   6.995   3.057   3.210  0.1059  0.7802  3.0259
 8455TIP3   OH249559   4.950   2.788   0.606 -0.2999 -0.0814 -0.5012
 8455TIP3    H149560   4.929   2.708   0.654 -0.6254  0.5517  0.4532
 8455TIP3    H249561   4.865   2.819   0.574 -0.2015 -0.0193 -0.7002
 8456TIP3   OH249562   5.056   6.662   3.156  0.3065  0.6782  0.2795
 8456TIP3    H149563   5.003   6.647   3.234 -1.5336  0.7558 -0.8845
 8456TIP3    H249564   5.033   6.750   3.127  0.5541  0.4665 -0.6178
 8457TIP3   OH249565   5.826   7.326   0.728 -0.2704 -0.0592 -0.5539
 8457TIP3    H149566   5.815   7.400   0.669  0.8911  0.4344 -0.1865
 8457TIP3    H249567   5.888   7.357   0.794 -1.1316 -0.7748  0.6336
 8458TIP3   OH249568   1.701   1.238   2.233  0.3568 -0.5842 -0.1455
 8458TIP3    H149569   1.787   1.277   2.219  0.2642 -0.8273 -1.5233
 8458TIP3    H249570   1.639   1.308   2.211  0.1789 -0.3875  0.9018
 8459TIP3   OH249571   0.645   6.338   0.511  0.2050 -1.0533 -0.3075
 8459TIP3    H149572   0.610   6.304   0.428 -0.4357 -0.8296 -0.1417
 8459TIP3    H249573   0.588   6.412   0.531  2.3889  1.0386 -1.3756
 8460TIP3   OH249574   5.063   7.396   3.263 -0.0411  0.0791 -0.1253
 8460TIP3    H149575   5.103   7.478   3.293  1.8875 -0.4816 -0.9901
 8460TIP3    H249576   5.128   7.329   3.282 -0.6299 -0.9210 -1.4420
 8461TIP3   OH249577   0.492   7.558   1.411 -0.2745  0.2748  0.1430
 8461TIP3    H149578   0.464   7.631   1.356  1.6572  1.2200  0.3302
 8461TIP3    H249579   0.483   7.590   1.501 -1.3279 -0.4815  0.3351
 8462TIP3   OH249580   2.227   5.996   2.065 -0.1275 -0.1566  0.1135
 8462TIP3    H149581   2.160   5.964   2.005 -0.1000  0.7030 -0.3943
 8462TIP3    H249582   2.298   5.932   2.057 -1.5989 -2.1639  2.1205
 8463TIP3   OH249583   7.544   6.710   1.704 -0.3565 -0.0076 -0.2140
 8463TIP3    H149584   7.519   6.688   1.615  1.0100 -1.6625 -0.2400
 8463TIP3    H249585   7.531   6.630   1.754  0.5480  0.3778  0.6935
 8464TIP3   OH249586   6.913   5.977   1.928  0.2212  0.3741 -0.0686
 8464TIP3    H149587   6.916   5.934   1.842  1.6609  0.7082 -0.2146
 8464TIP3    H249588   6.979   6.046   1.922 -0.2968  0.9800  1.0161
 8465TIP3   OH249589   0.705   6.994   1.881  0.3811  0.0687  0.0995
 8465TIP3    H149590   0.640   7.064   1.883  1.2485  0.8903  0.6779
 8465TIP3    H249591   0.654   6.913   1.880 -0.6431  0.7014 -0.2711
 8466TIP3   OH249592   0.423   2.063   1.745 -0.1207  0.3139  0.4672
 8466TIP3    H149593   0.436   2.049   1.839 -0.0986 -2.5157  0.1264
 8466TIP3    H249594   0.467   1.989   1.703 -0.5873  1.2243 -1.7545
 8467TIP3   OH249595   7.132   2.668   2.459 -0.0756 -0.2644 -0.5528
 8467TIP3    H149596   7.121   2.758   2.492  1.1259 -0.9221  1.8250
 8467TIP3    H249597   7.226   2.658   2.448 -0.0654 -1.6030  0.4732
 8468TIP3   OH249598   1.060   0.970   1.612 -0.0818 -1.0578  0.3279
 8468TIP3    H149599   1.032   0.923   1.691 -1.1562  0.2880  0.7756
 8468TIP3    H249600   0.980   0.982   1.561 -0.0473  1.1966  0.7274
 8469TIP3   OH249601   0.799   6.790   1.481  0.2933  0.1542  0.2364
 8469TIP3    H149602   0.856   6.826   1.549  0.2548 -0.1874  0.4560
 8469TIP3    H249603   0.844   6.711   1.451  1.2610  1.3096 -1.5089
 8470TIP3   OH249604   6.587   0.560   0.511  0.1808 -0.1456 -0.2324
 8470TIP3    H149605   6.618   0.558   0.420  0.2872  2.6466 -0.3649
 8470TIP3    H249606   6.622   0.642   0.545  1.3784 -1.7886  2.8402
 8471TIP3   OH249607   0.138   1.528   1.900  0.5952 -0.3196  0.1057
 8471TIP3    H149608   0.224   1.485   1.898  1.1109  0.6566  0.5029
 8471TIP3    H249609   0.157   1.620   1.883 -0.0561  0.3516  2.5448
 8472TIP3   OH249610   6.767   4.190   1.120  0.0945 -0.1322 -0.1381
 8472TIP3    H149611   6.772   4.248   1.045  0.5822  1.2168  0.8896
 8472TIP3    H249612   6.693   4.131   1.101  0.1208  0.2726 -1.5736
 8473TIP3   OH249613   4.134   1.478   2.882 -0.4385  0.2608 -0.0293
 8473TIP3    H149614   4.174   1.511   2.963  0.0368 -0.1489 -0.0933
 8473TIP3    H249615   4.208   1.455   2.826 -0.7333  1.7801 -1.1212
 8474TIP3   OH249616   6.760   7.303   2.606  0.3104  0.0141 -0.0385
 8474TIP3    H149617   6.824   7.237   2.633 -0.8763 -1.0521  0.2725
 8474TIP3    H249618   6.729   7.341   2.688  0.3255  0.3212 -0.1741
 8475TIP3   OH249619   5.603   7.369   0.904 -0.1041  0.1592  0.5794
 8475TIP3    H149620   5.671   7.368   0.836  0.8746 -2.8532  1.4697
 8475TIP3    H249621   5.640   7.425   0.973 -0.7304  2.5197 -0.8763
 8476TIP3   OH249622   3.575   4.818   0.731 -0.0850  0.6931  0.1976
 8476TIP3    H149623   3.564   4.911   0.712 -0.8632  0.1912 -2.1790
 8476TIP3    H249624   3.670   4.805   0.733  0.0384  1.6125  1.1509
 8477TIP3   OH249625   7.636   7.628   1.461 -0.7025 -0.0391 -0.2674
 8477TIP3    H149626   7.709   7.641   1.522 -1.4854  0.2544  0.6429
 8477TIP3    H249627   7.593   7.713   1.457 -1.6984 -0.5136  0.1580
 8478TIP3   OH249628   4.415   4.366   0.388 -0.2887 -0.2553  0.3247
 8478TIP3    H149629   4.410   4.328   0.476 -2.3188  0.8866  0.7849
 8478TIP3    H249630   4.435   4.292   0.331 -0.3510 -1.2912  1.5936
 8479TIP3   OH249631   2.445   6.786   3.384 -0.4656 -0.3361 -0.2464
 8479TIP3    H149632   2.359   6.777   3.426 -1.3470  2.0114 -1.3666
 8479TIP3    H249633   2.470   6.877   3.400  1.2222 -0.6130 -1.0760
 8480TIP3   OH249634   0.780   4.699   0.830 -0.2256 -0.0032  0.1865
 8480TIP3    H149635   0.838   4.629   0.800 -3.5528 -2.5459 -0.9083
 8480TIP3    H249636   0.763   4.750   0.751 -0.6441 -0.1697  0.1703
 8481TIP3   OH249637   7.477   6.921   1.503  0.3092  0.4511  0.1454
 8481TIP3    H149638   7.532   6.980   1.451 -0.3640  0.1622 -0.9379
 8481TIP3    H249639   7.464   6.845   1.447  0.0370 -0.1303  0.9818
 8482TIP3   OH249640   0.094   3.211   0.773 -0.2986 -0.2482  0.3752
 8482TIP3    H149641   0.185   3.226   0.747  0.0349 -0.7479  1.2185
 8482TIP3    H249642   0.051   3.296   0.759  0.2615 -0.0395 -0.1369
 8483TIP3   OH249643   7.415   7.410   3.002 -0.3091 -0.3166  0.5208
 8483TIP3    H149644   7.381   7.324   3.026 -0.3578 -0.3026  0.5006
 8483TIP3    H249645   7.500   7.392   2.962 -0.7638 -0.4382 -0.4177
 8484TIP3   OH249646   3.756   6.867   1.541 -0.6427  0.5181 -0.3916
 8484TIP3    H149647   3.756   6.775   1.566  1.6557 -0.1272 -2.2957
 8484TIP3    H249648   3.757   6.915   1.624  1.4381 -1.2998  0.7460
 8485TIP3   OH249649   1.808   3.413   2.528 -0.7422  0.2814  0.0147
 8485TIP3    H149650   1.714   3.422   2.542 -0.7386 -1.2972  1.5250
 8485TIP3    H249651   1.847   3.489   2.571 -1.3659  1.7055 -1.8711
 8486TIP3   OH249652   3.647   3.502   1.887  0.4815  0.6283  0.2678
 8486TIP3    H149653   3.715   3.436   1.902  0.4342  0.1800 -1.3254
 8486TIP3    H249654   3.662   3.532   1.797 -0.1188  2.0716  0.6264
 8487TIP3   OH249655   3.216   6.437   2.450  0.1796 -0.5780  0.2567
 8487TIP3    H149656   3.170   6.482   2.379  1.0065 -1.0326 -0.6004
 8487TIP3    H249657   3.309   6.450   2.431  0.4226 -1.4387  0.7752
 8488TIP3   OH249658   2.211   1.521   1.974  0.0839 -1.3586  0.5599
 8488TIP3    H149659   2.183   1.571   1.898 -0.3865 -0.8158  1.0840
 8488TIP3    H249660   2.133   1.472   2.000  0.0853 -1.1091  1.0347
 8489TIP3   OH249661   3.946   2.287   2.052  0.2596 -0.2414 -0.3192
 8489TIP3    H149662   3.991   2.209   2.084 -1.2117 -0.0949  2.4646
 8489TIP3    H249663   3.854   2.272   2.073 -0.7043  0.5670 -3.4592
 8490TIP3   OH249664   3.535   4.180   1.675  0.7295  0.8701 -0.4418
 8490TIP3    H149665   3.574   4.250   1.728  1.5506 -0.4174  0.7351
 8490TIP3    H249666   3.441   4.194   1.682  0.8795  1.7114 -0.0246
 8491TIP3   OH249667   1.899   5.744   0.993 -0.3296 -0.4000  0.2469
 8491TIP3    H149668   1.924   5.836   1.000  0.4921 -0.6528  0.8413
 8491TIP3    H249669   1.849   5.726   1.072  0.5466 -0.7669  0.7234
 8492TIP3   OH249670   4.771   5.222   1.761  0.2466 -0.1679  0.1198
 8492TIP3    H149671   4.842   5.261   1.711  0.7994  1.4835  2.0667
 8492TIP3    H249672   4.813   5.155   1.815 -0.0001 -0.4360 -0.0097
 8493TIP3   OH249673   3.412   7.440   1.448 -0.2142  0.0051 -0.4402
 8493TIP3    H149674   3.350   7.495   1.496  1.9098  1.4963  0.7158
 8493TIP3    H249675   3.469   7.501   1.401  1.1355 -1.2543 -0.5218
 8494TIP3   OH249676   3.502   3.441   0.697 -0.0616  0.6194  0.1995
 8494TIP3    H149677   3.476   3.456   0.606  0.8082 -0.8848 -0.3369
 8494TIP3    H249678   3.419   3.426   0.742 -0.4181 -1.9639 -1.0659
 8495TIP3   OH249679   1.105   0.586   2.345 -0.4361 -0.1350 -0.1984
 8495TIP3    H149680   1.182   0.557   2.393 -0.9312 -2.8981 -0.8900
 8495TIP3    H249681   1.036   0.524   2.369 -2.2791  1.7481 -0.2310
 8496TIP3   OH249682   3.794   3.205   1.942 -0.3618 -0.7527  0.4720
 8496TIP3    H149683   3.785   3.127   1.886 -0.5179 -1.0252  0.8720
 8496TIP3    H249684   3.707   3.216   1.981  0.0579 -1.2531  1.5604
 8497TIP3   OH249685   6.129   1.447   1.058 -0.3769 -0.4565 -0.1100
 8497TIP3    H149686   6.190   1.400   1.115 -1.1042  0.7267  1.7746
 8497TIP3    H249687   6.043   1.436   1.101 -0.5576  2.6471  0.6110
 8498TIP3   OH249688   2.773   6.646   2.003  0.2888 -0.0214 -0.4150
 8498TIP3    H149689   2.748   6.695   2.081 -0.5515 -0.4747 -0.3901
 8498TIP3    H249690   2.707   6.669   1.938  1.6475  1.2857 -1.3948
 8499TIP3   OH249691   1.968   0.734   1.238  0.2886 -0.1485  0.4347
 8499TIP3    H149692   1.997   0.811   1.188 -2.0662 -0.0259 -0.9062
 8499TIP3    H249693   2.028   0.665   1.212 -0.0574  0.2606 -1.6195
 8500TIP3   OH249694   0.664   1.140   3.080 -0.3252 -0.1637 -0.2255
 8500TIP3    H149695   0.640   1.229   3.107  0.5757 -0.0966  0.4208
 8500TIP3    H249696   0.668   1.091   3.163 -3.2169 -1.4712 -0.7237
 8501TIP3   OH249697   0.199   6.450   1.606 -0.7022  0.0911  0.2865
 8501TIP3    H149698   0.280   6.413   1.570 -1.6596 -1.7249 -0.0907
 8501TIP3    H249699   0.172   6.515   1.541  0.2329  0.4656  0.2435
 8502TIP3   OH249700   6.072   5.019   1.944 -0.5592 -0.6528  0.2674
 8502TIP3    H149701   6.048   5.043   2.033 -0.9559  0.1470 -0.0437
 8502TIP3    H249702   6.160   4.982   1.952 -0.4373 -0.2317  0.9354
 8503TIP3   OH249703   7.367   2.408   1.834 -0.2076 -0.2490 -0.1618
 8503TIP3    H149704   7.419   2.483   1.808 -0.1611 -0.0912  0.3645
 8503TIP3    H249705   7.332   2.432   1.920  0.3113 -1.0700  0.2932
 8504TIP3   OH249706   5.727   1.216   0.760 -0.2582  0.0972  0.4316
 8504TIP3    H149707   5.633   1.215   0.740 -0.0472  0.7544 -0.7002
 8504TIP3    H249708   5.735   1.283   0.828 -0.5951  0.2034  0.3734
 8505TIP3   OH249709   5.766   3.753   1.998  0.5811 -0.4130  0.3241
 8505TIP3    H149710   5.684   3.709   1.978  0.3435  0.3159 -0.3530
 8505TIP3    H249711   5.743   3.846   2.001  0.8541 -0.3404  2.6934
 8506TIP3   OH249712   3.389   0.308   2.263  0.4011 -0.4884 -0.2921
 8506TIP3    H149713   3.448   0.271   2.198  1.0156  2.2090 -1.4007
 8506TIP3    H249714   3.305   0.318   2.217 -0.2008 -1.8090  0.4575
 8507TIP3   OH249715   2.449   0.047   0.608  0.5312 -0.2946  0.1869
 8507TIP3    H149716   2.432  -0.020   0.543 -1.2365  0.5171 -0.2502
 8507TIP3    H249717   2.532   0.086   0.581 -0.3116  0.2325 -1.8049
 8508TIP3   OH249718   4.453   3.003   1.822  0.5210 -0.2209  0.2156
 8508TIP3    H149719   4.451   2.912   1.850  0.8784 -0.1510  0.4793
 8508TIP3    H249720   4.361   3.027   1.814  0.3966 -1.1918 -1.8820
 8509TIP3   OH249721   1.003   1.206   3.578 -0.0372 -0.3943  0.4634
 8509TIP3    H149722   0.953   1.125   3.593 -0.3159 -0.2698  0.2244
 8509TIP3    H249723   1.076   1.179   3.522  0.7006 -0.7568  1.5721
 8510TIP3   OH249724   0.326   1.866   3.277 -0.3498 -0.1187  0.0968
 8510TIP3    H149725   0.268   1.850   3.202  1.6304  0.7047 -1.7053
 8510TIP3    H249726   0.377   1.786   3.285 -0.7019 -0.2902  0.7634
 8511TIP3   OH249727   1.605   0.856   1.368 -0.4010 -0.4645  0.0036
 8511TIP3    H149728   1.522   0.870   1.323 -0.2188 -0.6318 -0.3914
 8511TIP3    H249729   1.669   0.905   1.316 -0.0895 -1.1463 -0.2708
 8512TIP3   OH249730   1.113   6.842   2.358  0.7666 -0.8615 -0.2498
 8512TIP3    H149731   1.100   6.912   2.294  0.4156  0.5590  1.2946
 8512TIP3    H249732   1.193   6.867   2.403  1.4879 -2.3127 -0.6904
 8513TIP3   OH249733   2.302   4.165   3.188 -0.7840 -0.2697  0.6404
 8513TIP3    H149734   2.381   4.139   3.141 -0.8190  0.3659  0.2130
 8513TIP3    H249735   2.307   4.261   3.192 -0.5610 -0.3191  2.3204
 8514TIP3   OH249736   5.999   1.689   1.187  0.0571 -0.2656  0.0858
 8514TIP3    H149737   6.055   1.675   1.263 -0.5358  1.0042  0.7929
 8514TIP3    H249738   5.943   1.612   1.183 -0.1833 -0.1489  1.1830
 8515TIP3   OH249739   2.703   0.913   2.507  0.4620  0.2822  0.4847
 8515TIP3    H149740   2.678   0.826   2.477 -1.4887  1.5592 -1.9842
 8515TIP3    H249741   2.621   0.954   2.533  1.3498  1.4006  1.6507
 8516TIP3   OH249742   7.259   2.058   3.143  0.4683 -0.3504 -0.0733
 8516TIP3    H149743   7.306   2.052   3.226 -1.1019  0.4169  0.9184
 8516TIP3    H249744   7.216   1.973   3.134  0.0884 -0.1929  0.2465
 8517TIP3   OH249745   6.173   2.174   0.509 -0.0422  0.1300 -1.2870
 8517TIP3    H149746   6.086   2.135   0.503 -0.1020  0.2650 -1.3050
 8517TIP3    H249747   6.216   2.126   0.580 -0.0872 -0.0191 -1.3609
 8518TIP3   OH249748   3.771   7.498   1.759 -0.2097 -0.4212  0.4008
 8518TIP3    H149749   3.807   7.534   1.840 -0.6782 -1.9397  1.3341
 8518TIP3    H249750   3.687   7.543   1.748  0.7350  1.2456 -0.3802
 8519TIP3   OH249751   4.041   0.931   1.087 -0.1847 -0.3037 -0.1545
 8519TIP3    H149752   3.975   0.886   1.139  1.0947 -0.6005  1.2727
 8519TIP3    H249753   3.990   0.987   1.028 -1.7394 -1.8219 -0.3458
 8520TIP3   OH249754   5.489   3.787   0.911 -0.4134 -0.5418  0.1735
 8520TIP3    H149755   5.417   3.761   0.969  1.8774 -1.6990  2.6723
 8520TIP3    H249756   5.515   3.873   0.942 -1.7690  0.7156 -1.9150
 8521TIP3   OH249757   5.748   2.738   0.578  0.2035 -0.0515 -0.0651
 8521TIP3    H149758   5.798   2.762   0.500  3.0447 -2.4270  0.8214
 8521TIP3    H249759   5.737   2.821   0.625  1.9821  0.8572 -1.1054
 8522TIP3   OH249760   6.005   3.730   2.154 -0.5305  0.2862 -0.1357
 8522TIP3    H149761   5.922   3.708   2.110 -0.0221 -0.0893 -0.9504
 8522TIP3    H249762   5.981   3.742   2.246 -1.7431  1.7162 -0.5921
 8523TIP3   OH249763   0.348   0.663   0.624  0.2277 -0.1309 -0.5247
 8523TIP3    H149764   0.399   0.717   0.563 -2.1674 -0.9696 -3.5306
 8523TIP3    H249765   0.405   0.589   0.644  1.5884  0.8522 -0.6204
 8524TIP3   OH249766   0.278   4.080   1.861  0.0684 -0.1673 -0.0281
 8524TIP3    H149767   0.349   4.121   1.910  0.1652  0.6619 -0.8243
 8524TIP3    H249768   0.322   4.028   1.794 -0.0658 -0.0762 -0.1892
 8525TIP3   OH249769   1.096   3.096   2.114  0.1838  0.1657  0.0307
 8525TIP3    H149770   1.176   3.103   2.166  0.3682  0.6527 -0.3123
 8525TIP3    H249771   1.096   3.007   2.080 -1.7854 -1.5303  3.8284
 8526TIP3   OH249772   5.769   7.408   2.067 -0.2787 -0.1638  0.2691
 8526TIP3    H149773   5.759   7.337   2.003 -0.4579 -0.2066  0.3435
 8526TIP3    H249774   5.767   7.488   2.016 -0.2828 -0.2049  0.2050
 8527TIP3   OH249775   3.442   0.283   2.549 -0.2165  0.2102 -0.2473
 8527TIP3    H149776   3.389   0.339   2.606 -1.2783 -0.3008 -0.6965
 8527TIP3    H249777   3.388   0.270   2.471  0.4329 -0.6122 -0.5781
 8528TIP3   OH249778   3.750   4.741   2.948 -0.0834  0.4589 -0.0184
 8528TIP3    H149779   3.678   4.802   2.966  0.2684  0.4645  1.4501
 8528TIP3    H249780   3.829   4.795   2.951 -0.0539  0.8932 -3.7035
 8529TIP3   OH249781   5.571   2.101   2.054 -0.5533  0.0929 -0.0204
 8529TIP3    H149782   5.586   2.157   2.130  0.4763  0.9155 -0.7948
 8529TIP3    H249783   5.479   2.116   2.032 -0.9548 -0.4204  1.2496
 8530TIP3   OH249784   5.713   1.629   1.033  0.2922  0.5004 -0.4377
 8530TIP3    H149785   5.729   1.705   1.088  0.1379  0.5838 -0.5055
 8530TIP3    H249786   5.770   1.641   0.957  0.4146  0.4476 -0.3537
 8531TIP3   OH249787   0.577   4.989   1.751 -0.2236 -0.2400 -0.2815
 8531TIP3    H149788   0.619   4.957   1.672  0.1874  0.4659 -0.3616
 8531TIP3    H249789   0.520   4.918   1.779  0.0692 -0.7194 -0.8839
 8532TIP3   OH249790   2.894   2.593   1.647 -0.4619 -0.0618  0.0870
 8532TIP3    H149791   2.842   2.531   1.698  2.4792 -2.0212  0.9292
 8532TIP3    H249792   2.975   2.605   1.698  0.2827  2.2890 -1.4646
 8533TIP3   OH249793   3.809   3.084   1.040 -0.3489 -0.8159  0.0958
 8533TIP3    H149794   3.817   3.049   0.952  0.4704  1.7612 -0.9390
 8533TIP3    H249795   3.738   3.148   1.035  0.6106  0.3762  0.9019
 8534TIP3   OH249796   3.491   2.407   1.501 -0.1230  0.1263  0.2942
 8534TIP3    H149797   3.403   2.430   1.473 -0.1382 -2.2034 -1.9015
 8534TIP3    H249798   3.482   2.323   1.546  0.9733 -0.1640  0.0106
 8535TIP3   OH249799   4.922   0.540   1.613  0.2870  0.1145  0.6024
 8535TIP3    H149800   4.866   0.473   1.574  2.4166 -1.1103 -0.4897
 8535TIP3    H249801   4.916   0.525   1.708 -1.1816  0.0211  0.5150
 8536TIP3   OH249802   3.723   6.553   1.656 -0.2813 -0.2367 -0.2469
 8536TIP3    H149803   3.761   6.545   1.568  0.7495  1.4290 -0.0025
 8536TIP3    H249804   3.761   6.480   1.705  1.3502  0.4255 -0.4620
 8537TIP3   OH249805   4.746   6.017   1.452  0.1229  0.9746  0.2698
 8537TIP3    H149806   4.776   6.010   1.361 -1.1840 -0.9920 -0.0640
 8537TIP3    H249807   4.795   5.948   1.498  1.2064  2.3315  1.2193
 8538TIP3   OH249808   2.964   2.678   2.210  0.2581  0.4539  0.0246
 8538TIP3    H149809   2.905   2.750   2.190  0.1801  0.4204  0.1334
 8538TIP3    H249810   2.932   2.605   2.158  2.4942  1.4429 -3.0056
 8539TIP3   OH249811   1.830   4.358   0.810  0.4601  0.2465  0.1495
 8539TIP3    H149812   1.819   4.453   0.812  0.4091  0.2827 -0.9352
 8539TIP3    H249813   1.919   4.346   0.777 -0.0375 -0.0662 -1.1474
 8540TIP3   OH249814   6.823   5.911   2.984 -0.5873  0.0510  0.1617
 8540TIP3    H149815   6.763   5.858   2.931  0.2791 -0.0719 -0.7282
 8540TIP3    H249816   6.840   5.858   3.061 -1.3295 -0.0725  0.2461
 8541TIP3   OH249817   3.695   6.697   1.241 -0.4910  0.4181 -0.5505
 8541TIP3    H149818   3.606   6.728   1.232 -0.6628  0.4555  0.9766
 8541TIP3    H249819   3.748   6.776   1.254 -0.7211  0.2370  1.8253
 8542TIP3   OH249820   6.025   7.656   0.453 -0.0059 -0.0586 -0.4451
 8542TIP3    H149821   5.964   7.614   0.513 -0.6348 -0.3786 -1.2813
 8542TIP3    H249822   6.090   7.589   0.434  0.8577  0.4141  0.7665
 8543TIP3   OH249823   4.414   3.068   2.337  0.5902  0.2545 -0.5865
 8543TIP3    H149824   4.446   3.069   2.427  2.4144 -2.1829 -1.1130
 8543TIP3    H249825   4.469   3.132   2.291  1.8418 -0.7865 -0.5822
 8544TIP3   OH249826   4.179   2.590   0.958  0.2421  0.3467 -0.2568
 8544TIP3    H149827   4.256   2.632   0.919  0.1021 -1.0000 -2.1250
 8544TIP3    H249828   4.215   2.523   1.016  0.4715  0.2215 -0.5442
 8545TIP3   OH249829   6.730   2.804   2.002  0.2559  0.3056 -0.3550
 8545TIP3    H149830   6.735   2.884   2.055  1.7010  0.7043 -1.0524
 8545TIP3    H249831   6.812   2.759   2.018  0.2120 -0.1569 -1.3375
 8546TIP3   OH249832   3.374   7.564   3.075  0.3191  0.5605  0.3275
 8546TIP3    H149833   3.446   7.588   3.132  0.9741  1.7649 -0.9374
 8546TIP3    H249834   3.295   7.589   3.124  0.8512  1.2683  0.8461
 8547TIP3   OH249835   6.650   7.383   1.016 -0.1949 -0.2936  0.1330
 8547TIP3    H149836   6.651   7.355   0.925 -1.1811 -1.7815  0.5311
 8547TIP3    H249837   6.559   7.407   1.032 -0.0756 -0.2621  0.7836
 8548TIP3   OH249838   4.265   2.130   1.836 -0.4274  0.5116  0.0191
 8548TIP3    H149839   4.201   2.059   1.828 -1.0047  0.8994  0.9731
 8548TIP3    H249840   4.212   2.210   1.842  0.2255  1.1191 -1.7347
 8549TIP3   OH249841   3.818   1.037   0.693 -0.0143  0.2316 -0.0054
 8549TIP3    H149842   3.812   1.033   0.598 -1.5216  1.5645 -0.0197
 8549TIP3    H249843   3.792   1.127   0.715  0.8737  0.1321  1.6330
 8550TIP3   OH249844   2.785   7.456   6.958  0.2444  0.1479 -0.2761
 8550TIP3    H149845   2.711   7.408   6.995 -0.5261  0.0754 -1.8250
 8550TIP3    H249846   2.861   7.402   6.979 -0.0352  0.4531  1.7446
 8551TIP3   OH249847   0.881   1.333   3.223  0.8359 -0.3663  0.6785
 8551TIP3    H149848   0.830   1.361   3.146  1.7599 -0.3892  0.0416
 8551TIP3    H249849   0.972   1.334   3.193  1.0921 -1.8706  1.3011
 8552TIP3   OH249850   4.545   0.048   1.135 -0.0594  0.2034  0.4085
 8552TIP3    H149851   4.548  -0.009   1.212 -0.7087 -0.0404  0.2627
 8552TIP3    H249852   4.626   0.030   1.088 -1.1986 -2.2286 -0.7744
 8553TIP3   OH249853   2.069   6.440   0.674 -0.7593  0.1987  0.6471
 8553TIP3    H149854   2.146   6.485   0.640 -0.8653 -0.5748 -0.6558
 8553TIP3    H249855   2.039   6.495   0.746  0.4013  1.0423  0.5065
 8554TIP3   OH249856   0.808   5.625   1.131  0.1360 -0.0489  0.0940
 8554TIP3    H149857   0.884   5.680   1.111 -0.1179  0.3749  0.2751
 8554TIP3    H249858   0.747   5.684   1.175 -1.2487  0.1832 -2.0013
 8555TIP3   OH249859   7.364   2.924   0.554  0.8960  0.1588 -0.0469
 8555TIP3    H149860   7.441   2.897   0.604  0.3645 -0.7564  0.3124
 8555TIP3    H249861   7.290   2.903   0.612  0.2984 -0.3394 -0.9652
 8556TIP3   OH249862   3.502   1.398   1.929  0.0349  0.6200 -0.2835
 8556TIP3    H149863   3.545   1.483   1.939  1.3067 -0.0135 -0.1892
 8556TIP3    H249864   3.478   1.373   2.018  2.7852 -0.6564  0.2133
 8557TIP3   OH249865   2.824   7.357   0.570  0.5197  0.1932  0.7565
 8557TIP3    H149866   2.732   7.376   0.585 -0.0535  1.0630 -2.8273
 8557TIP3    H249867   2.867   7.443   0.570  0.5743  0.2210 -1.1851
 8558TIP3   OH249868   2.011   2.398   3.090  0.3070 -0.1517 -0.1486
 8558TIP3    H149869   2.061   2.406   3.009  0.9812  1.7265  0.4159
 8558TIP3    H249870   1.997   2.303   3.100  1.6689 -0.5404 -1.5665
 8559TIP3   OH249871   2.481   2.169   1.644  0.4957  0.2692 -0.8250
 8559TIP3    H149872   2.485   2.231   1.717  1.7210 -0.5541 -0.1592
 8559TIP3    H249873   2.558   2.191   1.591  0.4398 -0.1047 -1.0602
 8560TIP3   OH249874   1.228   4.641   0.424 -0.0520  0.1806  0.1624
 8560TIP3    H149875   1.203   4.605   0.509  1.1804 -2.2686 -0.4159
 8560TIP3    H249876   1.162   4.608   0.363  2.3674 -3.6376 -0.8106
 8561TIP3   OH249877   1.823   6.617   0.940 -0.7182 -0.0664  0.3020
 8561TIP3    H149878   1.792   6.661   0.861  0.4762  0.0891 -0.1017
 8561TIP3    H249879   1.746   6.610   0.996 -1.2941  0.9981 -0.3376
 8562TIP3   OH249880   2.524   1.844   8.902  0.0700 -0.8112 -0.0308
 8562TIP3    H149881   2.557   1.754   8.909  1.2948 -0.3685  0.1750
 8562TIP3    H249882   2.565   1.890   8.976 -1.0226 -0.2128  0.2273
 8563TIP3   OH249883   1.001   5.733   2.618  0.1426 -0.4529  0.1248
 8563TIP3    H149884   0.957   5.661   2.665  2.4099 -1.1446  1.3277
 8563TIP3    H249885   0.946   5.809   2.636 -1.9617 -1.6970 -0.6221
 8564TIP3   OH249886   2.133   5.703   2.727 -0.1564  0.0472  0.3467
 8564TIP3    H149887   2.167   5.632   2.673 -0.6838 -0.4217  0.6306
 8564TIP3    H249888   2.163   5.682   2.816 -0.5754  0.0124  0.4811
 8565TIP3   OH249889   6.117   7.679   2.656  0.1896 -0.2136 -0.0949
 8565TIP3    H149890   6.191   7.739   2.666  0.3674 -0.2378 -1.2055
 8565TIP3    H249891   6.087   7.692   2.566  0.6730 -2.2801 -0.6083
 8566TIP3   OH249892   3.228   6.140   2.629 -0.2662  0.0271 -0.3427
 8566TIP3    H149893   3.176   6.221   2.630 -0.2281  0.0531  0.7445
 8566TIP3    H249894   3.197   6.091   2.706 -0.0086 -0.8183 -0.7635
 8567TIP3   OH249895   5.099   7.638   3.119 -0.2552  0.6965  0.1382
 8567TIP3    H149896   5.005   7.642   3.099 -0.9254 -3.2357  1.5823
 8567TIP3    H249897   5.104   7.658   3.213  0.2478  0.2470  0.2092
 8568TIP3   OH249898   6.316   7.046   0.489 -0.7034 -0.0017 -0.2619
 8568TIP3    H149899   6.362   7.087   0.563 -0.4111  1.6217 -1.2987
 8568TIP3    H249900   6.233   7.093   0.484 -0.7006 -0.0635 -0.9842
 8569TIP3   OH249901   1.504   2.479   1.785  0.0687  0.6540 -0.3473
 8569TIP3    H149902   1.583   2.530   1.802 -0.2568  0.6930  1.2376
 8569TIP3    H249903   1.455   2.532   1.722  1.1431  0.7724 -1.1102
 8570TIP3   OH249904   1.216   1.757   2.130 -0.1964  0.4807 -0.3042
 8570TIP3    H149905   1.224   1.841   2.175 -0.7671  0.4064 -0.0516
 8570TIP3    H249906   1.281   1.700   2.172 -0.5998  0.4656  0.3002
 8571TIP3   OH249907   2.651   6.923   2.223 -0.2660 -0.1563  0.1354
 8571TIP3    H149908   2.589   6.851   2.218 -1.3747  0.7386  0.6661
 8571TIP3    H249909   2.597   7.001   2.237  0.4346  1.5295 -4.7114
 8572TIP3   OH249910   3.370   6.703   2.749  0.1048  0.1513  0.4700
 8572TIP3    H149911   3.459   6.700   2.785  1.6517 -1.2771 -3.0429
 8572TIP3    H249912   3.371   6.778   2.690  0.3609 -2.0287 -2.4998
 8573TIP3   OH249913   0.070   7.493   3.272  0.1046 -0.2457  0.0492
 8573TIP3    H149914   0.103   7.514   3.184 -1.5119 -0.4071 -0.6322
 8573TIP3    H249915   0.121   7.417   3.299  0.2608 -0.5213 -0.9805
 8574TIP3   OH249916   6.566   1.743   1.439 -0.5896  0.3403 -0.1874
 8574TIP3    H149917   6.565   1.763   1.533 -1.7438  0.6370 -0.2533
 8574TIP3    H249918   6.613   1.817   1.400 -1.0956  0.7967  0.0461
 8575TIP3   OH249919   2.319   7.042   2.536 -0.4919  0.1415  0.1764
 8575TIP3    H149920   2.354   6.957   2.563  0.4120  0.3773 -0.1899
 8575TIP3    H249921   2.273   7.075   2.613 -1.1628 -0.8259  0.2132
 8576TIP3   OH249922   1.020   5.918   0.735  0.9567 -0.1354  0.2269
 8576TIP3    H149923   1.057   5.850   0.679 -0.8336 -0.8488 -0.1482
 8576TIP3    H249924   1.082   5.990   0.729  1.8597 -0.9717 -1.0054
 8577TIP3   OH249925   3.576   3.927   1.320  0.0605 -0.0679 -0.1050
 8577TIP3    H149926   3.653   3.967   1.279  0.1181  1.3911  1.3544
 8577TIP3    H249927   3.502   3.980   1.289 -0.0967 -0.0464  0.3079
 8578TIP3   OH249928   7.554   5.154   0.659  0.4698  0.0614  0.2947
 8578TIP3    H149929   7.600   5.214   0.718 -0.1860  0.2496  0.6136
 8578TIP3    H249930   7.624   5.114   0.607  0.9511  0.7515  0.3995
 8579TIP3   OH249931   0.978   0.826   2.457  0.1268 -0.1434  0.0869
 8579TIP3    H149932   1.054   0.779   2.424 -0.3940 -0.2877 -0.9669
 8579TIP3    H249933   0.911   0.814   2.389 -0.7625  0.1677  0.8809
 8580TIP3   OH249934   4.329   1.796   0.745 -0.6273 -0.0275 -0.0643
 8580TIP3    H149935   4.237   1.818   0.735 -0.6539 -0.1179 -0.0132
 8580TIP3    H249936   4.335   1.704   0.719 -0.6447 -0.1773  0.4655
 8581TIP3   OH249937   2.907   3.988   0.476  0.0190 -0.3851 -0.4535
 8581TIP3    H149938   2.858   3.909   0.456 -0.4165 -0.0047 -0.9262
 8581TIP3    H249939   2.844   4.045   0.520  0.7522 -0.8988  1.3556
 8582TIP3   OH249940   2.106   4.239   0.759 -0.0752 -0.0674  0.0529
 8582TIP3    H149941   2.076   4.221   0.670 -1.5944 -2.4222  0.9453
 8582TIP3    H249942   2.190   4.193   0.766 -1.0556 -1.9078  0.4601
 8583TIP3   OH249943   4.299   7.662   0.867 -0.5286 -0.2396 -0.2623
 8583TIP3    H149944   4.272   7.750   0.843 -1.3016  0.3709  2.4885
 8583TIP3    H249945   4.223   7.623   0.910  0.0054 -2.0223 -0.8083
 8584TIP3   OH249946   7.561   1.587   3.438 -0.3414 -0.4895  0.9701
 8584TIP3    H149947   7.567   1.641   3.517 -0.0326  1.4311 -0.3027
 8584TIP3    H249948   7.470   1.598   3.409 -0.0156  0.1709  0.1694
 8585TIP3   OH249949   7.406   3.876   2.323  0.3113 -0.3156  0.1930
 8585TIP3    H149950   7.451   3.831   2.252 -0.3799  0.3555 -0.6982
 8585TIP3    H249951   7.343   3.811   2.356  0.2508 -0.4480 -0.1804
 8586TIP3   OH249952   1.379   7.487   0.829 -0.1277 -0.0465 -0.2758
 8586TIP3    H149953   1.455   7.545   0.835  0.2949 -0.6937  0.8931
 8586TIP3    H249954   1.312   7.529   0.883 -0.5531  0.4220 -1.1454
 8587TIP3   OH249955   2.117   5.999   2.332  0.7153  0.3251 -0.0646
 8587TIP3    H149956   2.108   5.908   2.305  1.0028 -0.1707  1.3836
 8587TIP3    H249957   2.089   6.050   2.256  1.9926 -0.9325 -1.4455
 8588TIP3   OH249958   5.531   4.473   0.539 -0.9994 -0.5012  0.4280
 8588TIP3    H149959   5.470   4.404   0.513 -1.3704  0.1146 -0.3787
 8588TIP3    H249960   5.475   4.548   0.559 -0.6306 -0.5592  1.7706
 8589TIP3   OH249961   6.629   5.560   1.895 -0.6300 -0.5750 -0.5200
 8589TIP3    H149962   6.645   5.619   1.969 -1.8157 -2.1484  1.0968
 8589TIP3    H249963   6.564   5.605   1.842 -0.7289  0.0235  0.0956
 8590TIP3   OH249964   3.249   7.048   3.044 -0.4726  0.0973  0.3089
 8590TIP3    H149965   3.295   7.131   3.053 -1.5694  0.6433  1.1385
 8590TIP3    H249966   3.165   7.062   3.087 -0.7273 -1.4143  0.3690
 8591TIP3   OH249967   0.706   0.165   0.758 -0.1590 -0.5739 -0.3469
 8591TIP3    H149968   0.642   0.128   0.817  1.1016 -0.4942  1.1357
 8591TIP3    H249969   0.790   0.131   0.789  0.8062  1.5648 -0.4189
 8592TIP3   OH249970   3.863   4.545   2.820 -0.0082  0.6379 -0.5385
 8592TIP3    H149971   3.927   4.492   2.869 -1.0961  0.4970  0.7685
 8592TIP3    H249972   3.830   4.608   2.883 -0.1953  1.5895 -1.5651
 8593TIP3   OH249973   5.168   6.467   1.234 -0.5591  0.2958 -0.2201
 8593TIP3    H149974   5.092   6.524   1.245 -1.4086 -0.1491 -2.9858
 8593TIP3    H249975   5.220   6.509   1.166  0.2270 -0.8298 -0.3489
 8594TIP3   OH249976   6.721   2.847   1.611  0.2120 -0.1144 -0.0836
 8594TIP3    H149977   6.664   2.838   1.535 -0.8032 -1.9075  0.8256
 8594TIP3    H249978   6.677   2.798   1.681  0.8000  1.9473  1.8716
 8595TIP3   OH249979   0.019   0.348   0.788  0.5180 -0.2136  0.3297
 8595TIP3    H149980  -0.069   0.329   0.758  0.0785 -0.5386  1.7577
 8595TIP3    H249981   0.054   0.410   0.723 -0.3790 -0.8390 -0.7868
 8596TIP3   OH249982   1.353   7.427   2.108 -0.4183 -0.3549 -0.0494
 8596TIP3    H149983   1.418   7.377   2.158 -1.1513 -1.8446 -0.4966
 8596TIP3    H249984   1.371   7.404   2.017 -0.4739  0.6203 -0.3162
 8597TIP3   OH249985   7.230   1.437   1.817 -0.3463  0.0177  0.0857
 8597TIP3    H149986   7.195   1.456   1.730  1.9292  0.5056 -0.7970
 8597TIP3    H249987   7.315   1.480   1.819 -0.4091  0.2214  2.6750
 8598TIP3   OH249988   0.279   1.074   2.184  0.5269 -0.2940 -0.2263
 8598TIP3    H149989   0.357   1.122   2.159  0.7036 -0.2804  0.3345
 8598TIP3    H249990   0.212   1.102   2.122  0.3418  1.4609  0.7133
 8599TIP3   OH249991   3.924   3.861   1.619 -0.3251  0.0848  0.4300
 8599TIP3    H149992   3.851   3.885   1.561  0.3292 -2.2075 -1.4825
 8599TIP3    H249993   3.883   3.852   1.705 -1.6179  2.1160  0.0986
 8600TIP3   OH249994   3.248   0.470   1.854  0.2924 -0.7145  0.3892
 8600TIP3    H149995   3.252   0.375   1.846  0.3509 -0.5849 -1.6598
 8600TIP3    H249996   3.245   0.502   1.763  1.3420  1.2849  0.9858
 8601TIP3   OH249997   0.304   3.976   2.200 -0.1401  0.6023 -0.3149
 8601TIP3    H149998   0.299   4.045   2.133  1.9310  1.1592  0.0441
 8601TIP3    H249999   0.298   3.895   2.150 -2.8746  0.9516 -0.7282
 8602TIP3   OH250000   1.232   0.109   1.837 -0.0790 -0.1700 -0.6767
 8602TIP3    H150001   1.256   0.200   1.848  0.8320 -0.4491 -0.2885
 8602TIP3    H250002   1.220   0.076   1.926  0.6630 -0.7009 -0.7651
 8603TIP3   OH250003   6.882   0.898   1.684  0.7411 -0.3456 -0.6548
 8603TIP3    H150004   6.911   0.832   1.621 -1.5590 -0.7857 -1.3686
 8603TIP3    H250005   6.880   0.853   1.768 -1.0389 -1.3297 -1.1745
 8604TIP3   OH250006   6.240   4.145   1.719  0.3962 -0.0583 -0.2498
 8604TIP3    H150007   6.314   4.197   1.688  0.2324 -0.1022 -0.7396
 8604TIP3    H250008   6.277   4.085   1.784  0.8959 -0.4300 -0.8631
 8605TIP3   OH250009   5.899   2.655   0.800  0.2335  0.4054  0.2259
 8605TIP3    H150010   5.844   2.647   0.723  0.6246 -0.1810  0.0038
 8605TIP3    H250011   5.863   2.730   0.848 -0.0203  0.7575 -0.5101
 8606TIP3   OH250012   3.437   0.627   0.963  0.2153 -0.0873  0.0874
 8606TIP3    H150013   3.511   0.669   1.007  1.2578 -1.2164 -0.5334
 8606TIP3    H250014   3.363   0.639   1.023  0.6583  1.8429  0.3195
 8607TIP3   OH250015   1.903   5.072   2.444  0.3131  0.3344 -0.0201
 8607TIP3    H150016   1.969   5.024   2.495 -0.2967 -0.1893  0.2900
 8607TIP3    H250017   1.921   5.047   2.353 -0.3144 -0.9090  0.1779
 8608TIP3   OH250018   5.998   5.847   0.974 -0.3848 -0.0936  0.3090
 8608TIP3    H150019   6.077   5.887   1.012 -0.6674  1.9045 -1.0859
 8608TIP3    H250020   5.980   5.898   0.896 -2.6862 -0.9744  0.1894
 8609TIP3   OH250021   2.246   1.147   1.829 -0.8091  0.0570 -0.1903
 8609TIP3    H150022   2.185   1.197   1.774 -3.2728 -0.7906  1.5848
 8609TIP3    H250023   2.222   1.056   1.815  1.2791 -0.4681 -0.7133
 8610TIP3   OH250024   0.237   1.300   2.367 -0.3031  0.2590 -0.0553
 8610TIP3    H150025   0.317   1.254   2.342  0.5366  0.6443  1.7499
 8610TIP3    H250026   0.268   1.377   2.416 -1.7664  0.4095  0.6937
 8611TIP3   OH250027   3.183   2.037   1.487  0.1174  0.6079 -0.5109
 8611TIP3    H150028   3.247   2.079   1.429 -1.0525  1.7009 -1.0680
 8611TIP3    H250029   3.154   2.107   1.545  0.5352 -0.2451  0.7782
 8612TIP3   OH250030   2.170   4.545   2.424  0.2168 -0.7819 -0.2319
 8612TIP3    H150031   2.234   4.550   2.354  0.3758 -0.9858 -0.1011
 8612TIP3    H250032   2.178   4.456   2.458 -1.4886 -1.4772 -1.4882
 8613TIP3   OH250033   3.092   6.189   3.076  0.2326  0.0003 -0.1530
 8613TIP3    H150034   3.063   6.268   3.030  0.2243 -0.2520 -0.5815
 8613TIP3    H250035   3.114   6.127   3.007 -1.9649 -1.2258  0.1460
 8614TIP3   OH250036   1.464   2.873   2.025  0.1155  0.5426  0.3569
 8614TIP3    H150037   1.524   2.923   2.080  0.2970  0.2355  0.4378
 8614TIP3    H250038   1.506   2.872   1.939 -0.3396  1.3291  0.1157
 8615TIP3   OH250039   5.849   6.763   3.274  0.4154 -0.3169  0.0041
 8615TIP3    H150040   5.839   6.796   3.364 -0.4151  1.5991 -0.7335
 8615TIP3    H250041   5.910   6.826   3.233 -0.0481 -0.5440 -1.0601
 8616TIP3   OH250042   0.701   0.811   2.637  0.4215  0.2191 -0.1508
 8616TIP3    H150043   0.686   0.904   2.655  0.1521 -0.4061  4.0301
 8616TIP3    H250044   0.765   0.785   2.704 -0.8110 -2.9270 -0.0486
 8617TIP3   OH250045   3.237   6.861   1.035 -0.4635 -0.4311  0.1170
 8617TIP3    H150046   3.315   6.900   0.995  0.1537 -1.2285  0.5034
 8617TIP3    H250047   3.174   6.854   0.964 -0.0349 -0.1490 -0.2952
 8618TIP3   OH250048   2.197   3.272   3.075 -0.1808  0.2989  0.4221
 8618TIP3    H150049   2.187   3.189   3.121 -0.1208  0.7714  1.3126
 8618TIP3    H250050   2.254   3.252   3.001 -1.6653 -0.8409 -0.4635
 8619TIP3   OH250051   2.363   6.300   2.471  0.0870  0.0996  0.2400
 8619TIP3    H150052   2.456   6.278   2.469  1.0055  3.4857 -0.1508
 8619TIP3    H250053   2.333   6.285   2.381  0.0827 -1.4949  0.4862
 8620TIP3   OH250054   2.230   1.821   0.922  0.0179 -0.1871  0.5440
 8620TIP3    H150055   2.174   1.768   0.979  0.8541 -1.1463  0.4852
 8620TIP3    H250056   2.311   1.772   0.915  0.0084  0.0021 -1.3421
 8621TIP3   OH250057   2.130   3.646   0.876  0.3932 -0.0528  0.6440
 8621TIP3    H150058   2.149   3.609   0.962  1.1195 -3.2970 -0.7707
 8621TIP3    H250059   2.079   3.579   0.831  2.4658  0.2379 -2.4149
 8622TIP3   OH250060   0.931   4.437   2.603 -0.0674  0.4606 -0.2768
 8622TIP3    H150061   0.860   4.400   2.655 -0.1912  1.5446  0.3405
 8622TIP3    H250062   0.910   4.530   2.596  0.1066  0.3857 -2.0298
 8623TIP3   OH250063   3.707   2.143   2.358 -0.0457 -0.5427  0.0279
 8623TIP3    H150064   3.709   2.202   2.283 -0.4694 -0.0001  0.4422
 8623TIP3    H250065   3.694   2.200   2.433  1.8496 -0.9101  0.6994
 8624TIP3   OH250066   3.282   2.978   1.373 -0.1087 -0.0773  0.0785
 8624TIP3    H150067   3.244   2.899   1.412 -0.7007 -0.1641 -0.6406
 8624TIP3    H250068   3.375   2.972   1.393 -0.5102  0.4262  2.3763
 8625TIP3   OH250069   6.566   2.580   1.426  0.1816  0.2994 -0.0423
 8625TIP3    H150070   6.657   2.611   1.426  0.1655  0.3465  0.0199
 8625TIP3    H250071   6.564   2.513   1.358  0.4894 -0.3443  0.5605
 8626TIP3   OH250072   7.619   3.843   1.443  0.0171  0.5549 -0.3779
 8626TIP3    H150073   7.534   3.886   1.455 -0.6308 -0.7837  0.1160
 8626TIP3    H250074   7.611   3.797   1.360  0.0678  0.0164 -0.0895
 8627TIP3   OH250075   5.725   5.296   0.804 -0.2217 -0.1871 -0.0249
 8627TIP3    H150076   5.736   5.248   0.722  0.5254  0.3065 -0.2305
 8627TIP3    H250077   5.805   5.277   0.854 -0.1127  0.4666  0.0693
 8628TIP3   OH250078   4.407   6.086   2.701 -0.0088  0.1038 -0.7563
 8628TIP3    H150079   4.438   6.059   2.788  0.8288 -0.5804 -1.2502
 8628TIP3    H250080   4.486   6.110   2.654 -0.5600  1.4711 -1.0113
 8629TIP3   OH250081   4.873   1.531   2.224 -0.0587 -0.4183 -0.4746
 8629TIP3    H150082   4.895   1.538   2.131  0.2928  1.0390 -0.3030
 8629TIP3    H250083   4.788   1.574   2.232  0.5236  0.6806  0.0721
 8630TIP3   OH250084   3.767   4.661   1.017  0.0684 -0.0835  0.1930
 8630TIP3    H150085   3.834   4.626   0.958  2.6378  3.2528  0.8196
 8630TIP3    H250086   3.791   4.627   1.103  1.3232  1.3758  0.4742
 8631TIP3   OH250087   1.560   5.383   1.795 -0.0415 -0.5821 -0.3781
 8631TIP3    H150088   1.580   5.470   1.829 -1.4010  0.4129 -1.9728
 8631TIP3    H250089   1.465   5.374   1.805  0.1258 -2.1334  0.2398
 8632TIP3   OH250090   4.418   5.645   2.186 -0.0350 -1.0268 -0.0941
 8632TIP3    H150091   4.357   5.627   2.257 -1.6505  0.6866 -0.9661
 8632TIP3    H250092   4.440   5.738   2.196 -0.6018 -0.6343 -2.0119
 8633TIP3   OH250093   2.951   5.117   1.232  0.0353  0.2290  0.7942
 8633TIP3    H150094   3.039   5.080   1.225  0.3865  1.0666  0.6878
 8633TIP3    H250095   2.895   5.051   1.193  0.5912 -0.4060  1.0505
 8634TIP3   OH250096   1.898   3.831   1.724 -0.5560  0.2234  0.2910
 8634TIP3    H150097   1.862   3.810   1.638 -0.3557  1.3359 -0.0814
 8634TIP3    H250098   1.906   3.747   1.768  1.1412 -0.6133 -1.4786
 8635TIP3   OH250099   3.179   2.184   1.024  0.2156 -0.0880 -0.5325
 8635TIP3    H150100   3.126   2.105   1.035  1.0428 -0.6777 -0.6333
 8635TIP3    H250101   3.116   2.256   1.020 -0.5206 -0.6900  0.0904
 8636TIP3   OH250102   5.199   6.165   1.748 -0.1349 -0.6653 -0.2785
 8636TIP3    H150103   5.179   6.243   1.801 -0.7987 -0.2000 -1.1825
 8636TIP3    H250104   5.151   6.179   1.666 -0.0797 -1.9244 -0.5457
 8637TIP3   OH250105   5.638   5.048   2.637  0.1470 -0.1063  0.0543
 8637TIP3    H150106   5.546   5.065   2.656  0.6554  1.4410  1.4104
 8637TIP3    H250107   5.671   5.006   2.716  1.3556  2.5980  1.1288
 8638TIP3   OH250108   7.079   2.413   1.634  0.0845 -0.1784 -0.2771
 8638TIP3    H150109   7.024   2.391   1.559  0.7335 -1.1263 -0.4946
 8638TIP3    H250110   7.164   2.435   1.595  0.6009 -1.2655  0.1982
 8639TIP3   OH250111   7.096   4.498   1.846 -0.6063  0.2522 -0.0425
 8639TIP3    H150112   7.044   4.574   1.874 -1.0783  0.1075 -0.5072
 8639TIP3    H250113   7.053   4.424   1.889  0.7181  0.3743  1.5900
 8640TIP3   OH250114   5.634   0.592   0.604 -0.6086  0.5572  0.2191
 8640TIP3    H150115   5.629   0.543   0.522  1.2710  2.5706 -1.2144
 8640TIP3    H250116   5.685   0.535   0.662  1.0706  0.4965 -1.2243
 8641TIP3   OH250117   0.340   7.674   1.934 -0.1065 -0.1275 -0.3753
 8641TIP3    H150118   0.434   7.688   1.948 -0.0523 -0.0991 -0.7405
 8641TIP3    H250119   0.335   7.586   1.897  0.0101  0.6972 -2.5297
 8642TIP3   OH250120   1.962   4.902   2.209  0.1444  0.2304 -0.0367
 8642TIP3    H150121   2.030   4.852   2.163 -0.9155 -0.1143 -1.2803
 8642TIP3    H250122   1.890   4.841   2.221  0.4792  0.2109  2.4584
 8643TIP3   OH250123   6.180   7.478   1.340 -0.0087 -0.0035 -0.0610
 8643TIP3    H150124   6.134   7.553   1.304 -2.4654 -1.7436 -0.8227
 8643TIP3    H250125   6.131   7.455   1.419 -0.8406 -2.1869 -1.1269
 8644TIP3   OH250126   6.879   3.623   3.281 -0.6798  0.2661  0.0867
 8644TIP3    H150127   6.796   3.660   3.253 -1.8404  0.3985  3.2940
 8644TIP3    H250128   6.935   3.699   3.299 -1.2142  0.3367  1.5452
 8645TIP3   OH250129   6.779   1.613   1.890 -0.6066  0.2957  0.9773
 8645TIP3    H150130   6.776   1.681   1.822  2.0730 -1.1702 -0.8181
 8645TIP3    H250131   6.724   1.543   1.856 -1.6366  0.6748  1.8039
 8646TIP3   OH250132   5.198   0.596   1.613  0.1390 -0.1721 -0.3861
 8646TIP3    H150133   5.205   0.636   1.526  0.2111 -0.7149 -0.6368
 8646TIP3    H250134   5.104   0.594   1.632  0.2087  1.6686  0.3805
 8647TIP3   OH250135   7.661   1.921   0.792 -0.0147 -0.5055  0.6366
 8647TIP3    H150136   7.636   1.897   0.702  0.0229 -1.6106  0.9016
 8647TIP3    H250137   7.751   1.954   0.783 -0.3992  0.4405  0.1264
 8648TIP3   OH250138   7.580   1.488   2.742  0.4324 -0.0402 -0.7401
 8648TIP3    H150139   7.512   1.556   2.740 -0.0419 -0.4604  0.2969
 8648TIP3    H250140   7.600   1.471   2.650  1.4525  2.3597 -1.0235
 8649TIP3   OH250141   3.224   3.503   2.570  0.3516 -0.3303 -0.0191
 8649TIP3    H150142   3.175   3.583   2.587 -0.7465 -0.4671 -2.2157
 8649TIP3    H250143   3.189   3.439   2.632  0.8607  0.6814  1.3796
 8650TIP3   OH250144   7.208   7.258   2.854 -0.5697 -0.0913  0.0655
 8650TIP3    H150145   7.264   7.201   2.801 -0.6538 -0.3415  0.2384
 8650TIP3    H250146   7.148   7.298   2.792  0.4442  0.9615 -0.2622
 8651TIP3   OH250147   5.439   1.842   2.121  0.1178 -0.2572 -0.0996
 8651TIP3    H150148   5.490   1.846   2.202 -0.7498 -0.2125  0.4557
 8651TIP3    H250149   5.407   1.932   2.109 -1.0472 -0.5871  0.3692
 8652TIP3   OH250150   5.582   0.634   2.896 -0.1930  0.8037 -0.0017
 8652TIP3    H150151   5.526   0.661   2.824  0.0070  0.9204 -0.1138
 8652TIP3    H250152   5.574   0.538   2.898 -0.7093  0.8493  0.2430
 8653TIP3   OH250153   7.263   7.059   2.111  0.4900  0.3509  0.0129
 8653TIP3    H150154   7.281   7.128   2.047  1.6565  0.2864  0.2587
 8653TIP3    H250155   7.280   7.099   2.196  2.5868 -0.6162  0.0988
 8654TIP3   OH250156   6.827   4.631   3.107  0.3022 -0.1536  0.1555
 8654TIP3    H150157   6.911   4.588   3.090  0.3781 -0.4089  1.0858
 8654TIP3    H250158   6.793   4.587   3.185  0.2110  1.2222  0.9357
 8655TIP3   OH250159   1.123   1.034   2.801 -0.1483 -0.1020  0.5366
 8655TIP3    H150160   1.171   1.096   2.856 -1.9976  1.2536  0.6998
 8655TIP3    H250161   1.139   0.949   2.843  0.3094  0.5938  1.8638
 8656TIP3   OH250162   6.714   6.878   0.461 -0.3863  0.1494 -0.8174
 8656TIP3    H150163   6.743   6.808   0.519 -1.0809  0.5754  0.0814
 8656TIP3    H250164   6.621   6.859   0.445 -0.4582  0.5956 -0.9448
 8657TIP3   OH250165   6.736   2.092   1.904  0.0358 -0.1714  0.6349
 8657TIP3    H150166   6.748   2.080   1.998  1.0683 -0.3079  0.5024
 8657TIP3    H250167   6.759   2.184   1.888  0.5443 -0.3308  0.4235
 8658TIP3   OH250168   0.103   2.767   2.454 -0.0144  0.2783 -0.0288
 8658TIP3    H150169   0.072   2.685   2.494  0.8954  0.9563  2.1865
 8658TIP3    H250170   0.036   2.831   2.476 -0.5790  0.2417 -1.5153
 8659TIP3   OH250171   5.928   1.411   1.283 -0.0994 -0.0338  0.0169
 8659TIP3    H150172   5.845   1.364   1.286 -0.6855  0.9455 -0.2194
 8659TIP3    H250173   5.985   1.365   1.345 -0.6914 -0.9411 -0.0983
 8660TIP3   OH250174   5.536   6.311   3.680  0.2043  0.2042  0.1866
 8660TIP3    H150175   5.600   6.363   3.630  0.6469  2.0000  2.4190
 8660TIP3    H250176   5.456   6.364   3.679 -0.1029 -0.2519  0.4552
 8661TIP3   OH250177   1.371   6.396   0.856  0.5771 -0.6608 -0.4372
 8661TIP3    H150178   1.392   6.488   0.871  1.7164 -1.1485  1.4364
 8661TIP3    H250179   1.448   6.361   0.811  1.8298 -1.3937  2.0580
 8662TIP3   OH250180   7.632   6.773   0.328  0.6404  0.1537  0.5311
 8662TIP3    H150181   7.629   6.792   0.234  2.6864  0.1146  0.4264
 8662TIP3    H250182   7.554   6.817   0.364 -2.1586 -2.6193 -1.5934
 8663TIP3   OH250183   2.899   2.072   1.359  0.1591  0.9644  0.4389
 8663TIP3    H150184   2.973   2.014   1.343 -1.6249 -1.1161 -0.8395
 8663TIP3    H250185   2.919   2.152   1.310  0.9424 -0.1079 -1.0345
 8664TIP3   OH250186   7.542   5.324   1.064  0.2934  0.3577  0.1228
 8664TIP3    H150187   7.453   5.314   1.029 -0.3593 -2.0945  2.2072
 8664TIP3    H250188   7.599   5.297   0.992 -0.8304 -1.1146 -0.2572
 8665TIP3   OH250189   7.255   0.833   0.763 -0.5656  0.2619 -0.2993
 8665TIP3    H150190   7.335   0.790   0.795 -0.7144 -0.5696 -1.0313
 8665TIP3    H250191   7.267   0.925   0.787 -0.6617 -0.2857  2.1575
 8666TIP3   OH250192   6.573   0.039   1.408 -0.7805  0.4416 -1.0385
 8666TIP3    H150193   6.545  -0.045   1.370 -0.3582  0.2074 -0.8400
 8666TIP3    H250194   6.559   0.102   1.338 -1.1398  0.2128 -1.1801
 8667TIP3   OH250195   4.179   0.524   2.973  0.0033  0.0977 -0.2354
 8667TIP3    H150196   4.243   0.470   3.019 -0.3254 -2.2365 -2.2837
 8667TIP3    H250197   4.098   0.514   3.024  0.9406  2.3230  1.8437
 8668TIP3   OH250198   7.596   5.383   1.694 -0.8018 -0.6371 -0.0248
 8668TIP3    H150199   7.542   5.411   1.620 -1.2384 -1.8175 -0.1736
 8668TIP3    H250200   7.549   5.308   1.730  0.7228 -1.6775 -0.1334
 8669TIP3   OH250201   1.936   6.083   0.423  0.1693 -0.8747  0.1863
 8669TIP3    H150202   1.948   6.038   0.506  0.0728  0.2968  0.8530
 8669TIP3    H250203   2.005   6.149   0.421 -1.0050  0.3810  0.2302
 8670TIP3   OH250204   2.685   2.854   1.640 -0.2118 -0.7749 -0.6725
 8670TIP3    H150205   2.753   2.834   1.705 -0.6848 -0.1147  0.0457
 8670TIP3    H250206   2.722   2.824   1.557  0.3157 -1.8613 -0.0801
 8671TIP3   OH250207   5.872   1.101   1.397  0.0261  0.1851 -0.3415
 8671TIP3    H150208   5.901   1.140   1.480  0.4581  0.3650 -0.5749
 8671TIP3    H250209   5.892   1.008   1.406 -1.0925 -0.0257  0.2548
 8672TIP3   OH250210   3.146   4.600   1.189 -0.3466  0.4432  0.1591
 8672TIP3    H150211   3.137   4.664   1.259  0.9220 -0.5880  1.3291
 8672TIP3    H250212   3.156   4.516   1.235  0.3326 -0.2866 -1.2580
 8673TIP3   OH250213   0.838   1.096   1.439 -0.0322 -0.1849  0.9887
 8673TIP3    H150214   0.771   1.147   1.485  1.2345  1.5689  1.0123
 8673TIP3    H250215   0.920   1.143   1.457  0.9820 -1.3891 -0.2852
 8674TIP3   OH250216   5.918   4.402   2.783  0.1204 -0.2129 -0.1702
 8674TIP3    H150217   5.993   4.425   2.837 -0.1830  0.5519 -0.0686
 8674TIP3    H250218   5.842   4.417   2.839 -0.0895 -2.1632  0.1602
 8675TIP3   OH250219   2.088   1.000   1.242 -0.3257 -0.1321 -0.4080
 8675TIP3    H150220   2.138   1.016   1.322  0.1544 -1.0644 -0.5093
 8675TIP3    H250221   2.152   0.964   1.180 -0.5427  1.2049 -1.4443
 8676TIP3   OH250222   4.880   5.986   1.713 -0.3507 -0.3150  0.3482
 8676TIP3    H150223   4.902   6.021   1.800 -0.4662  0.8263 -0.0638
 8676TIP3    H250224   4.798   6.029   1.690 -0.6373 -1.0816 -0.0694
 8677TIP3   OH250225   2.192   1.878   1.620 -0.0392 -0.3616 -0.2770
 8677TIP3    H150226   2.245   1.958   1.621 -0.6668  0.0656  0.6751
 8677TIP3    H250227   2.203   1.843   1.532  2.8741 -0.9991  0.2365
 8678TIP3   OH250228   1.526   2.378   2.535  0.3916 -0.3224  0.6316
 8678TIP3    H150229   1.476   2.450   2.496  2.5358  1.0796  0.3502
 8678TIP3    H250230   1.566   2.415   2.613 -0.4824 -1.9547  1.9270
 8679TIP3   OH250231   3.247   3.072   2.902  0.2598 -0.2250  0.0074
 8679TIP3    H150232   3.308   3.088   2.974  1.1283  0.8578 -0.9359
 8679TIP3    H250233   3.176   3.135   2.916  0.1644 -0.3721  0.1966
 8680TIP3   OH250234   6.940   6.544   2.843 -0.1082 -0.0076  0.0816
 8680TIP3    H150235   6.874   6.553   2.773 -1.0556  0.5514  1.0163
 8680TIP3    H250236   6.893   6.568   2.923  0.8294 -1.1067  0.9879
 8681TIP3   OH250237   1.397   3.301   1.985  0.4994 -0.6753  0.0842
 8681TIP3    H150238   1.463   3.272   1.921  0.8834 -1.2203  0.7148
 8681TIP3    H250239   1.315   3.301   1.936  0.7900 -1.0649 -0.4216
 8682TIP3   OH250240   3.589   6.761   0.873 -0.2564 -0.3922  0.2511
 8682TIP3    H150241   3.668   6.809   0.897 -1.4969  0.8923  2.0305
 8682TIP3    H250242   3.526   6.829   0.848  0.1608 -1.4958 -4.8599
 8683TIP3   OH250243   4.377   1.448   1.630  0.1082  0.0995 -0.4628
 8683TIP3    H150244   4.344   1.385   1.566  0.6874 -0.5827 -0.1082
 8683TIP3    H250245   4.405   1.394   1.704  1.0340  0.7316 -0.3339
 8684TIP3   OH250246   5.824   4.518   2.504 -0.5748  0.4463 -0.4351
 8684TIP3    H150247   5.813   4.456   2.432  0.4231  0.4875 -0.6394
 8684TIP3    H250248   5.829   4.603   2.462 -0.0531  0.4782 -0.3139
 8685TIP3   OH250249   2.223   5.029   2.461 -0.3612  0.3156 -0.1631
 8685TIP3    H150250   2.301   4.988   2.497 -1.7375 -0.6588  1.8689
 8685TIP3    H250251   2.168   5.047   2.537 -1.6949  1.9334 -1.4372
 8686TIP3   OH250252   7.518   5.229   2.733  0.4394  0.0685  0.2911
 8686TIP3    H150253   7.438   5.277   2.755  0.2060 -0.1754 -0.0141
 8686TIP3    H250254   7.500   5.139   2.760  0.1721 -0.2224 -0.8092
 8687TIP3   OH250255   3.531   7.161   1.956 -0.4856  0.3710 -0.2720
 8687TIP3    H150256   3.607   7.138   2.011 -0.3743  0.5880 -0.3332
 8687TIP3    H250257   3.567   7.217   1.888 -0.9469  1.7867  0.6004
 8688TIP3   OH250258   5.567   4.139   1.654  0.3339 -0.7509 -0.1191
 8688TIP3    H150259   5.528   4.225   1.640  2.2192  0.0352 -0.7846
 8688TIP3    H250260   5.506   4.078   1.612 -1.7465  0.0348  1.5511
 8689TIP3   OH250261   1.373   5.377   0.934 -0.4078 -0.8181 -0.3674
 8689TIP3    H150262   1.463   5.397   0.908 -0.8095  0.3129 -0.9828
 8689TIP3    H250263   1.322   5.389   0.854 -1.4270  0.9430  0.4621
 8690TIP3   OH250264   1.759   2.878   1.115  0.1056  0.3294  0.3989
 8690TIP3    H150265   1.736   2.936   1.042 -2.8474  1.1521  1.8317
 8690TIP3    H250266   1.814   2.931   1.172 -1.5709  1.3997  1.0891
 8691TIP3   OH250267   1.557   4.480   2.658 -0.5344  0.6207 -0.0740
 8691TIP3    H150268   1.495   4.522   2.599 -0.8850 -0.3786 -0.4397
 8691TIP3    H250269   1.643   4.502   2.622 -0.7532 -1.6716 -2.2494
 8692TIP3   OH250270   0.401   4.722   1.085 -0.2244  0.6101 -0.3443
 8692TIP3    H150271   0.311   4.704   1.057  0.4813 -0.9289 -1.7640
 8692TIP3    H250272   0.441   4.766   1.010  0.5690  0.1169 -0.2178
 8693TIP3   OH250273   3.378   0.683   1.977  0.1927  0.3504 -0.1826
 8693TIP3    H150274   3.459   0.681   1.928  0.9475  0.0791  1.0211
 8693TIP3    H250275   3.334   0.601   1.954 -0.1197  0.8555 -1.4283
 8694TIP3   OH250276   0.399   6.250   0.848 -0.3961 -0.3175 -0.5443
 8694TIP3    H150277   0.348   6.232   0.927 -2.1395  0.9025 -1.3320
 8694TIP3    H250278   0.334   6.263   0.780  0.8862  2.2652 -1.4135
 8695TIP3   OH250279   4.856   2.977   2.017 -0.1725 -0.1895 -0.4106
 8695TIP3    H150280   4.835   3.061   1.976 -1.9215 -0.5111 -0.2500
 8695TIP3    H250281   4.908   3.000   2.094 -0.1409  0.7013 -0.6849
 8696TIP3   OH250282   4.816   5.584   1.859  0.2589  0.5833 -0.0888
 8696TIP3    H150283   4.790   5.540   1.939  3.0242 -1.5867 -0.2479
 8696TIP3    H250284   4.887   5.642   1.885  0.4712  0.6564 -0.8066
 8697TIP3   OH250285   6.981   5.455   1.400 -0.0236  0.5719 -0.2352
 8697TIP3    H150286   7.042   5.491   1.335 -0.8299  1.2574 -0.6422
 8697TIP3    H250287   6.998   5.361   1.399  1.8409  0.8646  0.5312
 8698TIP3   OH250288   4.053   5.891   1.078  0.1807 -0.6802  0.0779
 8698TIP3    H150289   4.141   5.866   1.051 -0.0587 -1.2477 -0.2159
 8698TIP3    H250290   4.019   5.944   1.006  1.2206  1.8377  1.3403
 8699TIP3   OH250291   2.876   1.531   2.383  0.1848  0.3989 -0.3761
 8699TIP3    H150292   2.856   1.617   2.420 -0.0281 -0.0824  0.6525
 8699TIP3    H250293   2.865   1.470   2.456 -1.2227 -0.7076 -1.4509
 8700TIP3   OH250294   1.551   4.745   1.509 -0.2293 -0.1813  0.0710
 8700TIP3    H150295   1.493   4.792   1.449  1.8100  1.0692 -1.0131
 8700TIP3    H250296   1.588   4.814   1.565 -0.5702 -1.0959  1.4820
 8701TIP3   OH250297   1.311   7.529   1.652 -0.1978 -0.4722 -0.0548
 8701TIP3    H150298   1.265   7.447   1.629  0.1206 -1.0289  1.2149
 8701TIP3    H250299   1.303   7.583   1.574 -1.4046 -1.2811 -0.5272
 8702TIP3   OH250300   4.367   5.870   2.934  0.3436 -0.7211 -0.1599
 8702TIP3    H150301   4.446   5.817   2.947 -0.4530 -2.4905 -1.9612
 8702TIP3    H250302   4.397   5.961   2.944  2.4033 -1.3767  0.0822
 8703TIP3   OH250303   6.170   0.485   1.372 -0.5690  0.7505  0.1369
 8703TIP3    H150304   6.218   0.565   1.394 -1.5472  0.7837  2.3646
 8703TIP3    H250305   6.082   0.500   1.406 -1.1979 -0.6888 -0.7641
 8704TIP3   OH250306   0.013   5.831   1.596  0.1566  0.0938  0.2631
 8704TIP3    H150307   0.065   5.890   1.541  5.0599 -1.6187  2.3967
 8704TIP3    H250308   0.000   5.879   1.677  1.2765 -0.5130  0.8315
 8705TIP3   OH250309   1.511   2.112   2.033 -0.2982  0.0316  0.1961
 8705TIP3    H150310   1.425   2.071   2.033 -0.7037  0.8033  1.4074
 8705TIP3    H250311   1.519   2.150   2.121  1.4118 -0.2933  0.2283
 8706TIP3   OH250312   2.166   1.993   2.662  0.0678 -0.0555 -0.1356
 8706TIP3    H150313   2.189   1.927   2.727  0.0527 -1.3948 -1.4390
 8706TIP3    H250314   2.158   1.944   2.580  0.8753  1.6840 -1.3157
 8707TIP3   OH250315   0.992   4.787   3.025  1.2028 -0.0700  0.4027
 8707TIP3    H150316   0.915   4.767   2.971  1.0800 -1.3031  1.0162
 8707TIP3    H250317   0.959   4.849   3.090  1.5786  2.2846 -1.4703
 8708TIP3   OH250318   6.639   0.642   2.496  0.4073  0.3455  0.3994
 8708TIP3    H150319   6.672   0.564   2.451 -0.3568 -0.4172  1.1282
 8708TIP3    H250320   6.684   0.715   2.453  0.7250 -0.4504 -0.6634
 8709TIP3   OH250321   5.143   2.556   0.790 -0.0262 -0.6209  0.3173
 8709TIP3    H150322   5.222   2.586   0.834 -0.9829  1.0181  1.0190
 8709TIP3    H250323   5.081   2.628   0.801 -1.5378 -1.7536 -0.4334
 8710TIP3   OH250324   2.487   1.854   1.960 -0.3495 -0.3788  0.4014
 8710TIP3    H150325   2.476   1.765   1.927 -1.1087 -0.5672  1.1364
 8710TIP3    H250326   2.514   1.904   1.883 -1.3471 -0.9603 -0.3574
 8711TIP3   OH250327   2.889   0.834   1.743  0.2937  0.1551  0.5843
 8711TIP3    H150328   2.830   0.780   1.796 -0.7475  0.8735  0.1970
 8711TIP3    H250329   2.957   0.862   1.803 -0.6957  0.6956  1.4839
 8712TIP3   OH250330   2.541   1.690   1.466 -0.0609 -0.3072  0.1145
 8712TIP3    H150331   2.631   1.710   1.490 -0.4562  1.7130  0.1463
 8712TIP3    H250332   2.508   1.636   1.537  0.9416 -0.5499  0.4114
 8713TIP3   OH250333   3.036   4.221   1.012 -0.2515  0.2481  0.5555
 8713TIP3    H150334   3.015   4.155   0.945 -0.0389  1.5592 -0.8534
 8713TIP3    H250335   3.113   4.266   0.979 -0.0898  0.8813  1.7369
 8714TIP3   OH250336   3.227   3.356   0.748 -0.2854 -0.4423  0.3736
 8714TIP3    H150337   3.206   3.289   0.683 -1.5473  0.8891 -0.6765
 8714TIP3    H250338   3.146   3.371   0.796 -1.0172  2.3898 -1.4580
 8715TIP3   OH250339   4.628   5.192   2.321  0.4443 -0.3287  0.3678
 8715TIP3    H150340   4.670   5.149   2.396 -1.5365  0.4636  2.0512
 8715TIP3    H250341   4.594   5.274   2.356 -0.9837 -0.1558 -1.2559
 8716TIP3   OH250342   0.657   2.719   0.506 -0.0676 -0.3139  0.1436
 8716TIP3    H150343   0.563   2.701   0.504 -0.1672 -0.1223  1.7770
 8716TIP3    H250344   0.698   2.640   0.472 -0.7877 -0.8168  0.4227
 8717TIP3   OH250345   6.705   7.584   1.837  0.2827  0.3992 -0.2071
 8717TIP3    H150346   6.723   7.577   1.743 -0.5700 -0.6897 -0.3167
 8717TIP3    H250347   6.744   7.505   1.875 -1.5794 -0.4945 -0.0444
 8718TIP3   OH250348   2.891   6.439   0.601  0.2731 -0.4108  0.3817
 8718TIP3    H150349   2.852   6.363   0.558 -1.6273 -0.2628  1.6910
 8718TIP3    H250350   2.924   6.405   0.684 -1.4683  0.2783  1.4212
 8719TIP3   OH250351   7.468   6.483   1.149  0.0206 -0.5915  0.2010
 8719TIP3    H150352   7.443   6.394   1.125 -0.6087 -0.6232  0.9407
 8719TIP3    H250353   7.546   6.472   1.204  2.1837 -0.4599 -2.6084
 8720TIP3   OH250354   1.270   0.313   2.072 -0.3223 -0.3133 -0.4503
 8720TIP3    H150355   1.322   0.365   2.134 -0.4107  1.6812 -1.9306
 8720TIP3    H250356   1.281   0.223   2.101  2.9802  0.1081  0.0908
 8721TIP3   OH250357   5.296   1.493   1.288 -0.4796  0.1189 -0.3190
 8721TIP3    H150358   5.380   1.515   1.326 -0.3008 -0.0801 -0.5950
 8721TIP3    H250359   5.297   1.397   1.280 -0.4039  0.1711 -1.0595
 8722TIP3   OH250360   2.631   2.814   1.005  0.5040 -0.4308  0.3181
 8722TIP3    H150361   2.608   2.773   1.089 -1.3728  0.7665  0.4544
 8722TIP3    H250362   2.665   2.742   0.953  0.6130 -1.4425  1.7161
 8723TIP3   OH250363   5.673   6.617   1.267  0.3431  0.3183  0.6585
 8723TIP3    H150364   5.685   6.608   1.173 -2.5847  2.7480 -0.1115
 8723TIP3    H250365   5.712   6.702   1.288  0.3985  0.0897  1.5253
 8724TIP3   OH250366   4.815   5.986   0.512  0.0476 -0.8036  0.6131
 8724TIP3    H150367   4.827   5.896   0.481 -2.2806 -1.9191  2.5706
 8724TIP3    H250368   4.897   6.007   0.557  1.7956 -0.7305 -2.3865
 8725TIP3   OH250369   5.744   3.247   0.583  0.3372 -0.6505  0.2346
 8725TIP3    H150370   5.782   3.178   0.529 -0.0311 -1.8194  1.4136
 8725TIP3    H250371   5.739   3.209   0.671 -4.1442 -0.8718  0.1137
 8726TIP3   OH250372   6.371   2.835   1.439 -0.2503 -0.2952 -0.9738
 8726TIP3    H150373   6.312   2.888   1.493  1.7571 -1.0813  2.2432
 8726TIP3    H250374   6.342   2.745   1.455  0.1732 -0.5367 -1.5389
 8727TIP3   OH250375   0.775   1.563   0.704 -0.0722 -0.2294 -0.1045
 8727TIP3    H150376   0.841   1.570   0.774 -0.9455  0.8772  0.6326
 8727TIP3    H250377   0.704   1.621   0.732 -2.0897 -2.5407 -0.1001
 8728TIP3   OH250378   2.525   3.367   1.474  0.4036 -0.2519 -0.4245
 8728TIP3    H150379   2.538   3.274   1.494  1.8158 -0.0141 -0.1840
 8728TIP3    H250380   2.528   3.372   1.379 -0.5463 -0.5535 -0.4876
 8729TIP3   OH250381   6.776   7.137   2.048 -0.0028 -0.4493 -0.0313
 8729TIP3    H150382   6.831   7.077   1.998  0.1178 -0.0850 -0.3431
 8729TIP3    H250383   6.808   7.130   2.138  0.7102 -0.0637 -0.2475
 8730TIP3   OH250384   2.296   4.543   1.304 -0.1235  0.0833 -0.3721
 8730TIP3    H150385   2.243   4.622   1.310 -0.7238 -0.3455  0.0128
 8730TIP3    H250386   2.355   4.548   1.379  0.8174  0.8597 -1.1345
 8731TIP3   OH250387   2.346   5.678   1.441 -0.1845  0.1917  0.3560
 8731TIP3    H150388   2.416   5.685   1.375  0.4069 -1.2081  0.8045
 8731TIP3    H250389   2.366   5.749   1.503  0.0243  0.6733 -0.2443
 8732TIP3   OH250390   4.292   2.031   1.345 -0.2138 -0.2615 -0.2135
 8732TIP3    H150391   4.365   1.969   1.357 -0.0067 -0.0634 -0.4318
 8732TIP3    H250392   4.214   1.979   1.361 -0.0897 -0.8156 -1.3048
 8733TIP3   OH250393   4.745   3.273   1.609  0.2063  0.1593 -0.0821
 8733TIP3    H150394   4.755   3.314   1.522  0.0945 -0.5561 -0.4405
 8733TIP3    H250395   4.651   3.260   1.618  0.0648  1.6492  0.8264
 8734TIP3   OH250396   1.857   6.359   2.803 -0.3597 -0.3092 -0.1161
 8734TIP3    H150397   1.950   6.348   2.782 -0.2602 -0.6286  0.4821
 8734TIP3    H250398   1.856   6.397   2.891 -0.7080  3.3413 -1.4885
 8735TIP3   OH250399   6.237   3.599   2.332 -0.3907 -0.6437  0.6817
 8735TIP3    H150400   6.208   3.664   2.268  0.4012  0.3216  1.2741
 8735TIP3    H250401   6.286   3.535   2.280  0.5598  0.3227  0.3594
 8736TIP3   OH250402   3.217   5.820   0.758 -0.0817 -0.5209  0.5974
 8736TIP3    H150403   3.189   5.790   0.844 -0.3414 -1.0925  0.3227
 8736TIP3    H250404   3.135   5.834   0.710 -0.0300  1.9802  1.1442
 8737TIP3   OH250405   7.403   6.307   2.114 -0.1136 -0.4760  0.6749
 8737TIP3    H150406   7.414   6.328   2.207  0.3333  0.2073  0.4727
 8737TIP3    H250407   7.335   6.367   2.084 -0.1366 -0.5788  0.5213
 8738TIP3   OH250408   6.066   4.016   1.564 -0.2046  0.4448 -0.1628
 8738TIP3    H150409   6.080   4.074   1.639 -0.0737  0.5393 -0.2617
 8738TIP3    H250410   6.036   3.934   1.604 -0.5829  0.6409 -0.0372
 8739TIP3   OH250411   0.758   7.318   3.155 -0.4379  0.2140  0.1656
 8739TIP3    H150412   0.706   7.241   3.181 -1.0799  1.0486  1.4695
 8739TIP3    H250413   0.835   7.281   3.113 -0.0575 -1.2357  1.9574
 8740TIP3   OH250414   1.798   5.499   3.287 -0.7879  0.1371 -0.2756
 8740TIP3    H150415   1.881   5.508   3.240 -1.1477  1.2213 -0.7408
 8740TIP3    H250416   1.809   5.420   3.339  1.0652  1.0043  0.7486
 8741TIP3   OH250417   5.254   1.168   2.727 -0.1803  0.1322 -0.5621
 8741TIP3    H150418   5.191   1.240   2.717 -2.2225 -1.6664 -1.5789
 8741TIP3    H250419   5.330   1.195   2.677 -1.1609  1.3099 -1.4740
 8742TIP3   OH250420   6.903   3.880   1.640 -0.3799 -0.0901 -0.5600
 8742TIP3    H150421   6.868   3.822   1.572  1.2209 -1.3329 -0.4037
 8742TIP3    H250422   6.832   3.940   1.660 -0.9639  0.2425 -3.2213
 8743TIP3   OH250423   0.275   0.565   2.437 -0.6697  0.1590 -0.0657
 8743TIP3    H150424   0.224   0.499   2.483 -0.7915  2.2582  3.1162
 8743TIP3    H250425   0.210   0.629   2.408 -0.2020  0.9966  0.7071
 8744TIP3   OH250426   4.525   3.864   1.333 -0.3585  0.0021  0.2138
 8744TIP3    H150427   4.520   3.852   1.238  1.4241 -1.4061  0.2523
 8744TIP3    H250428   4.465   3.798   1.369  0.5760 -0.9270  0.1027
 8745TIP3   OH250429   2.787   5.671   2.188  0.0465  0.8470  0.8025
 8745TIP3    H150430   2.867   5.651   2.139 -0.1735  1.0131  0.3747
 8745TIP3    H250431   2.765   5.760   2.162 -0.9939  0.3570 -0.0738
 8746TIP3   OH250432   5.818   6.047   2.312  0.0888  0.1911  0.1546
 8746TIP3    H150433   5.912   6.028   2.309  0.5365  2.1831  0.1359
 8746TIP3    H250434   5.797   6.073   2.222 -0.0746  1.4217  0.5354
 8747TIP3   OH250435   6.365   5.397   1.410 -0.7096 -0.3219  0.4128
 8747TIP3    H150436   6.443   5.441   1.445 -1.1773  0.7596  0.1480
 8747TIP3    H250437   6.292   5.441   1.452 -1.1875 -1.1171  0.4170
 8748TIP3   OH250438   3.764   2.762   1.530  0.1568  0.2086  0.1645
 8748TIP3    H150439   3.774   2.823   1.456  1.0189  1.3387  1.1692
 8748TIP3    H250440   3.731   2.682   1.490  0.6571  0.7633 -1.4679
 8749TIP3   OH250441   5.005   0.856   0.770  0.0743  0.4633 -0.6264
 8749TIP3    H150442   4.913   0.864   0.796  0.2501  1.4692 -0.2455
 8749TIP3    H250443   5.035   0.775   0.811 -0.5487  0.3110 -0.4600
 8750TIP3   OH250444   0.264   5.568   2.026  0.1501 -0.0690 -0.2817
 8750TIP3    H150445   0.202   5.500   1.999 -0.8273  1.0295 -0.9049
 8750TIP3    H250446   0.349   5.537   1.995 -0.1488 -1.3779  0.1531
 8751TIP3   OH250447   7.677   0.542   1.331  0.0381 -0.0562 -0.2675
 8751TIP3    H150448   7.650   0.518   1.243 -0.3603  0.9444 -0.4332
 8751TIP3    H250449   7.760   0.590   1.319  0.0220  0.0185 -0.0964
 8752TIP3   OH250450   1.405   7.126   2.952  0.2335 -0.0683 -0.0189
 8752TIP3    H150451   1.368   7.042   2.925  0.5592 -0.1623 -0.1781
 8752TIP3    H250452   1.341   7.191   2.924  0.0638 -0.2503 -0.0520
 8753TIP3   OH250453   3.879   0.492   2.301 -0.3494 -0.1999 -0.5451
 8753TIP3    H150454   3.788   0.468   2.321 -0.4021  0.5043  0.1235
 8753TIP3    H250455   3.917   0.515   2.386 -0.7640  3.5393 -1.1624
 8754TIP3   OH250456   5.293   5.944   0.766 -0.2508 -0.1818 -0.4286
 8754TIP3    H150457   5.204   5.914   0.782  0.5252 -1.5475  1.8514
 8754TIP3    H250458   5.289   6.039   0.782 -1.0846 -0.4042  0.8321
 8755TIP3   OH250459   4.288   6.155   1.544  0.5231 -0.4054  0.0358
 8755TIP3    H150460   4.297   6.210   1.466 -0.0086  1.7410  1.3919
 8755TIP3    H250461   4.362   6.095   1.540  1.2080  0.4810 -1.4734
 8756TIP3   OH250462   3.562   1.753   1.640  0.8762 -0.2621  0.0774
 8756TIP3    H150463   3.597   1.798   1.563 -0.5563 -0.7956 -0.9386
 8756TIP3    H250464   3.470   1.739   1.618  0.7828 -1.6855  1.3102
 8757TIP3   OH250465   4.865   3.217   1.870  0.1839  0.1856 -0.1893
 8757TIP3    H150466   4.819   3.277   1.928 -0.3813 -0.5474  0.1396
 8757TIP3    H250467   4.853   3.254   1.783 -0.4343  0.3804 -0.0281
 8758TIP3   OH250468   4.171   6.178   1.792 -0.1346 -0.1160  0.3920
 8758TIP3    H150469   4.197   6.183   1.700  1.7556 -0.7143  0.8396
 8758TIP3    H250470   4.230   6.113   1.830 -0.9353  0.0455  2.0103
 8759TIP3   OH250471   1.194   4.797   2.222  0.4362  0.5515  0.0394
 8759TIP3    H150472   1.201   4.713   2.177  3.1946  0.7387 -0.0515
 8759TIP3    H250473   1.195   4.862   2.152  0.0262  0.7306  0.1942
 8760TIP3   OH250474   7.532   0.359   1.765  0.5896  0.1659 -0.3381
 8760TIP3    H150475   7.442   0.326   1.759  0.7827 -0.5123  0.3988
 8760TIP3    H250476   7.562   0.362   1.675 -0.3061  0.7862 -0.6329
 8761TIP3   OH250477   5.866   5.724   0.534  0.2949 -0.6544 -0.5647
 8761TIP3    H150478   5.828   5.811   0.545 -0.2354 -1.0889  1.3371
 8761TIP3    H250479   5.804   5.679   0.477 -0.8122 -0.5815  0.5461
 8762TIP3   OH250480   1.725   6.666   2.207 -0.7563  0.5472  0.7270
 8762TIP3    H150481   1.745   6.672   2.113  0.0456 -0.7190  0.7919
 8762TIP3    H250482   1.744   6.575   2.230 -0.1108  1.0437  2.3067
 8763TIP3   OH250483   1.326   5.723   1.678 -0.2069  0.1071  0.2313
 8763TIP3    H150484   1.417   5.716   1.704  0.0840  2.3321  0.0115
 8763TIP3    H250485   1.327   5.711   1.583  0.3255  2.9081 -0.1930
 8764TIP3   OH250486   1.438   4.079   9.083 -0.1594  0.4006  0.0038
 8764TIP3    H150487   1.432   4.174   9.073 -0.8876  0.4212  0.5039
 8764TIP3    H250488   1.360   4.056   9.134 -0.2422 -0.5204 -0.5130
 8765TIP3   OH250489   7.140   6.170   1.348 -0.2211  0.1195  0.2987
 8765TIP3    H150490   7.100   6.128   1.424  0.5305  2.1531  1.9139
 8765TIP3    H250491   7.216   6.216   1.383 -0.5933  2.2380 -1.4573
 8766TIP3   OH250492   2.009   4.347   2.655  0.3722  0.1649 -0.1704
 8766TIP3    H150493   2.090   4.298   2.670 -0.0021 -0.3881  0.0900
 8766TIP3    H250494   1.958   4.332   2.734  0.5846  1.6692  0.2778
 8767TIP3   OH250495   5.120   3.402   0.546  0.6158 -0.7612 -0.5115
 8767TIP3    H150496   5.206   3.425   0.511  0.6119 -1.6041 -1.1207
 8767TIP3    H250497   5.058   3.445   0.487  0.6207 -0.2730 -0.1589
 8768TIP3   OH250498   4.895   3.799   2.121 -0.1734 -0.0122 -0.3355
 8768TIP3    H150499   4.806   3.830   2.109  0.1601  0.7943 -0.8165
 8768TIP3    H250500   4.943   3.876   2.154  0.0777 -0.7666  1.1499
 8769TIP3   OH250501   7.163   2.094   1.255  0.0151 -0.5590 -0.1365
 8769TIP3    H150502   7.224   2.040   1.205 -0.9040 -2.6365  0.8870
 8769TIP3    H250503   7.193   2.087   1.345 -0.5915  0.0325  0.1213
 8770TIP3   OH250504   4.294   1.571   2.255 -0.0558 -0.0026  0.1562
 8770TIP3    H150505   4.278   1.511   2.183 -0.5107  1.6107 -1.1590
 8770TIP3    H250506   4.361   1.528   2.307  0.2163 -1.2819 -1.1747
 8771TIP3   OH250507   4.398   5.318   0.610  0.4671 -0.6357 -0.5981
 8771TIP3    H150508   4.384   5.250   0.675 -0.2124  0.4686  0.4562
 8771TIP3    H250509   4.434   5.392   0.660 -0.5150  0.4029 -1.3759
 8772TIP3   OH250510   1.728   5.635   0.796 -0.2275  0.4212  0.2731
 8772TIP3    H150511   1.781   5.677   0.863  1.5891 -0.1529 -0.7089
 8772TIP3    H250512   1.678   5.706   0.756  1.6247  1.4666 -0.3336
 8773TIP3   OH250513   0.492   1.717   1.326  0.2275  0.0342 -0.3402
 8773TIP3    H150514   0.399   1.695   1.330 -0.1397  1.5438  0.1718
 8773TIP3    H250515   0.530   1.652   1.266 -1.2507 -0.2473 -1.0126
 8774TIP3   OH250516   2.626   2.495   1.080  0.5698  0.1768  0.5018
 8774TIP3    H150517   2.719   2.478   1.094  0.9831  1.9733  0.1505
 8774TIP3    H250518   2.605   2.566   1.141 -0.6200 -0.2615  0.6478
 8775TIP3   OH250519   7.508   1.422   0.489  0.0584  0.2750  0.0515
 8775TIP3    H150520   7.569   1.380   0.428 -3.3469  0.4482 -3.8807
 8775TIP3    H250521   7.535   1.514   0.489  1.4235 -0.1017  0.6334
 8776TIP3   OH250522   2.001   1.533   8.077  0.6022 -0.4843  0.2745
 8776TIP3    H150523   1.927   1.498   8.127 -1.5388  0.9890 -1.6617
 8776TIP3    H250524   2.001   1.627   8.097  1.8942 -0.4234  0.0949
 8777TIP3   OH250525   5.157   1.192   1.525  0.3623 -0.1549  0.0232
 8777TIP3    H150526   5.222   1.219   1.460  0.8886  0.1216  0.6570
 8777TIP3    H250527   5.207   1.144   1.591 -0.1705 -0.4448  0.2284
 8778TIP3   OH250528   7.124   6.071   0.405  0.4947  0.1724  0.4302
 8778TIP3    H150529   7.116   6.032   0.492  1.0778  0.3420  0.5591
 8778TIP3    H250530   7.048   6.037   0.357  0.7314 -0.7480  0.6903
 8779TIP3   OH250531   4.363   1.592   3.060  0.3552  0.0362 -0.1824
 8779TIP3    H150532   4.387   1.659   2.996  0.3894  0.9790  0.7890
 8779TIP3    H250533   4.425   1.520   3.044  0.6607  0.4438 -0.8835
 8780TIP3   OH250534   1.061   3.562   2.217  0.1195 -0.2677  0.0248
 8780TIP3    H150535   1.153   3.575   2.192  0.2061  0.1441  0.5281
 8780TIP3    H250536   1.018   3.644   2.193 -0.4519 -0.9997 -1.5994
 8781TIP3   OH250537   7.485   6.992   1.826 -0.2086  0.3964 -0.6523
 8781TIP3    H150538   7.484   6.917   1.767 -1.0948 -0.7793  0.7956
 8781TIP3    H250539   7.479   6.955   1.914 -2.7351  2.1760  0.0574
 8782TIP3   OH250540   1.023   5.208   0.797 -0.0647 -0.4396  0.2098
 8782TIP3    H150541   1.055   5.196   0.886 -0.8826  0.0096  0.5857
 8782TIP3    H250542   0.974   5.291   0.800  0.2497 -0.1980 -0.7601
 8783TIP3   OH250543   0.379   3.849   1.107 -0.5679  0.4846 -0.1705
 8783TIP3    H150544   0.313   3.845   1.038 -0.1019 -1.7317 -0.5587
 8783TIP3    H250545   0.424   3.764   1.103  1.3788  1.3747  0.9916
 8784TIP3   OH250546   0.230   7.274   2.203  0.2400  0.2728 -0.1935
 8784TIP3    H150547   0.173   7.332   2.152 -1.2313 -0.2628  0.7822
 8784TIP3    H250548   0.212   7.296   2.294 -0.2961 -1.6020  0.2065
 8785TIP3   OH250549   3.010   5.352   0.847 -0.3936 -0.6148  0.4881
 8785TIP3    H150550   3.060   5.429   0.821 -1.5843 -0.5911 -1.9877
 8785TIP3    H250551   3.077   5.287   0.868  0.7642 -0.4533 -2.3085
 8786TIP3   OH250552   1.791   6.923   1.772  0.0208  0.3908 -0.2296
 8786TIP3    H150553   1.759   6.879   1.694  0.1922  0.9344 -0.6194
 8786TIP3    H250554   1.873   6.964   1.745 -1.1234  2.7069 -0.5207
 8787TIP3   OH250555   2.009   1.509   3.146 -0.1117 -0.2596 -0.5390
 8787TIP3    H150556   2.068   1.450   3.193 -1.1250  0.2446  1.4953
 8787TIP3    H250557   2.011   1.590   3.197 -1.8947  0.0379 -0.8732
 8788TIP3   OH250558   1.185   4.564   1.785 -0.2875 -0.7445  0.1649
 8788TIP3    H150559   1.150   4.487   1.739 -0.5670  0.5517 -1.9328
 8788TIP3    H250560   1.138   4.638   1.746 -0.5945  0.4699  2.6930
 8789TIP3   OH250561   6.777   3.070   0.894 -0.2860  0.6608 -0.0134
 8789TIP3    H150562   6.774   3.072   0.798 -0.9138  1.2328  0.0102
 8789TIP3    H250563   6.712   3.004   0.918  0.8269 -0.4642 -0.0078
 8790TIP3   OH250564   6.356   0.119   0.558 -0.4989 -0.0770 -0.1421
 8790TIP3    H150565   6.397   0.052   0.504 -0.3398  2.0477 -2.8432
 8790TIP3    H250566   6.412   0.196   0.549 -1.8210  1.0915  1.0446
 8791TIP3   OH250567   0.796   1.481   0.460 -0.3414 -0.4252 -0.2291
 8791TIP3    H150568   0.800   1.523   0.546  1.1429 -1.4144  0.2338
 8791TIP3    H250569   0.820   1.390   0.477  0.4634 -0.5378 -1.7514
 8792TIP3   OH250570   0.103   0.016   3.440 -0.4158  0.7591  0.1075
 8792TIP3    H150571   0.133  -0.035   3.514 -2.5174  0.0552  0.5320
 8792TIP3    H250572   0.099  -0.046   3.367  1.6250  1.4414 -0.6562
 8793TIP3   OH250573   3.260   3.346   2.307  0.1071  0.0036  0.1159
 8793TIP3    H150574   3.203   3.389   2.371  0.6039  0.2782  0.3792
 8793TIP3    H250575   3.349   3.365   2.338  0.3524  0.3047 -0.7674
 8794TIP3   OH250576   7.068   2.082   2.511 -0.1830  0.2502 -0.3893
 8794TIP3    H150577   7.011   2.145   2.555  0.1530 -0.1325  0.6150
 8794TIP3    H250578   7.067   2.109   2.419  1.2628  2.7283  0.2412
 8795TIP3   OH250579   7.222   0.991   1.427 -0.1484 -0.4325 -0.1067
 8795TIP3    H150580   7.131   1.010   1.402 -0.5327 -0.3532  1.2843
 8795TIP3    H250581   7.230   1.025   1.516  1.6461  0.7894 -0.6795
 8796TIP3   OH250582   7.364   3.976   0.447  0.6135  0.3193  0.3671
 8796TIP3    H150583   7.283   3.949   0.490  0.9196  2.2942  2.3460
 8796TIP3    H250584   7.401   3.895   0.411 -1.4847 -0.8357  0.6959
 8797TIP3   OH250585   5.006   6.372   1.988  0.3489  0.4603  0.3602
 8797TIP3    H150586   5.047   6.434   1.928 -1.3218  2.0790  0.7810
 8797TIP3    H250587   5.069   6.361   2.059  1.6011 -0.1058 -0.8103
 8798TIP3   OH250588   0.740   3.948   1.392  0.4911  0.2563  0.0136
 8798TIP3    H150589   0.659   3.986   1.357  1.3182  0.3010 -1.9934
 8798TIP3    H250590   0.771   4.011   1.456 -0.3039  0.9527 -0.2692
 8799TIP3   OH250591   6.142   6.958   1.135 -0.5307 -0.0004  0.2070
 8799TIP3    H150592   6.167   7.050   1.125  0.8635 -0.2713  1.0252
 8799TIP3    H250593   6.114   6.950   1.226  4.5627 -1.4456  1.9753
 8800TIP3   OH250594   5.397   6.878   1.243 -0.3319 -0.5560  0.1237
 8800TIP3    H150595   5.426   6.953   1.190 -1.1337  1.2172  2.0541
 8800TIP3    H250596   5.450   6.805   1.211  1.6659  1.1598 -0.7868
 8801TIP3   OH250597   4.836   6.818   1.370  0.0412  0.2360  0.4370
 8801TIP3    H150598   4.919   6.787   1.332  0.5588  1.9052  0.1448
 8801TIP3    H250599   4.774   6.817   1.296 -0.3120 -1.2905  0.7203
 8802TIP3   OH250600   4.070   2.320   1.545  0.2291  0.2560 -0.2697
 8802TIP3    H150601   4.081   2.321   1.640 -1.8687  1.3922  0.0326
 8802TIP3    H250602   3.996   2.260   1.531 -0.1838  0.9301 -1.0488
 8803TIP3   OH250603   6.028   4.823   1.019  0.1524  0.4938  0.1259
 8803TIP3    H150604   6.014   4.734   0.987 -1.6242  0.6173  0.4483
 8803TIP3    H250605   6.039   4.876   0.940  2.1139 -0.0990 -0.0494
 8804TIP3   OH250606   6.901   3.890   1.193  0.3610  0.4752  0.1519
 8804TIP3    H150607   6.960   3.916   1.264  0.6379  0.2678  0.0005
 8804TIP3    H250608   6.872   3.973   1.155 -0.2283  0.5995  0.8592
 8805TIP3   OH250609   3.263   2.311   0.711  0.2083 -0.5001  0.3028
 8805TIP3    H150610   3.243   2.388   0.763 -1.8400  0.0142 -1.1108
 8805TIP3    H250611   3.178   2.279   0.682  1.1956 -1.1136 -2.1777
 8806TIP3   OH250612   4.066   4.912   1.914  0.3567  0.0426  0.0994
 8806TIP3    H150613   4.135   4.871   1.863  0.7532  1.6414 -0.7435
 8806TIP3    H250614   4.089   4.895   2.005  1.8355  0.4840 -0.1659
 8807TIP3   OH250615   0.642   2.901   2.236  0.0790 -0.4693  0.1639
 8807TIP3    H150616   0.657   2.829   2.297  0.0476  0.0870  0.8408
 8807TIP3    H250617   0.696   2.973   2.270  1.1324 -0.5639 -1.2247
 8808TIP3   OH250618   1.307   3.893   2.490 -0.1752  0.1413  0.0993
 8808TIP3    H150619   1.291   3.914   2.398 -0.0060  2.9314  0.6218
 8808TIP3    H250620   1.222   3.907   2.532 -0.3850 -1.6247  0.3462
 8809TIP3   OH250621   5.466   2.941   0.739  0.5227  0.3570 -0.1482
 8809TIP3    H150622   5.489   2.970   0.650  1.0240 -2.4715 -1.0521
 8809TIP3    H250623   5.382   2.897   0.728 -0.6265  2.0309  1.3111
 8810TIP3   OH250624   3.573   4.933   3.045 -0.1184  0.6968  0.3219
 8810TIP3    H150625   3.549   4.865   3.108 -0.1213  1.1639  0.8265
 8810TIP3    H250626   3.574   5.014   3.096  0.0136  1.0578 -0.2489
 8811TIP3   OH250627   0.334   4.148   2.767  0.9021  0.5609 -0.4820
 8811TIP3    H150628   0.244   4.118   2.772  1.1116 -0.0031 -0.0248
 8811TIP3    H250629   0.386   4.075   2.800  1.3722  1.6663  1.3209
 8812TIP3   OH250630   4.276   6.313   0.678 -0.3552 -0.1266  0.3337
 8812TIP3    H150631   4.319   6.271   0.603  0.2385 -0.0279  0.6154
 8812TIP3    H250632   4.316   6.399   0.683 -2.0091  0.7547 -0.6263
 8813TIP3   OH250633   5.619   4.308   1.002 -0.0541 -0.4973 -0.0463
 8813TIP3    H150634   5.638   4.378   1.064 -0.4501 -0.4563  0.0279
 8813TIP3    H250635   5.674   4.328   0.926 -0.0926 -0.1633  0.0131
 8814TIP3   OH250636   6.389   7.372   0.930  0.4992 -0.1232  0.3191
 8814TIP3    H150637   6.350   7.450   0.968 -2.0783 -0.7162 -0.8794
 8814TIP3    H250638   6.407   7.395   0.839  0.3602 -0.7154  0.1348
 8815TIP3   OH250639   0.437   5.640   2.269  0.1526 -1.0053 -0.0272
 8815TIP3    H150640   0.529   5.638   2.240  0.5138  1.7974  0.6960
 8815TIP3    H250641   0.387   5.659   2.189  0.4520 -0.1041 -0.0043
 8816TIP3   OH250642   0.497   2.809   1.134 -0.2951 -0.2574 -0.4659
 8816TIP3    H150643   0.568   2.826   1.196  0.3643  0.9638 -1.5162
 8816TIP3    H250644   0.449   2.736   1.173 -0.5899  1.1674  2.0690
 8817TIP3   OH250645   3.140   7.268   0.848 -0.6675  0.0813 -0.0894
 8817TIP3    H150646   3.061   7.222   0.818 -1.3601  0.2742  1.3303
 8817TIP3    H250647   3.198   7.269   0.772 -1.6637 -0.8826 -0.8945
 8818TIP3   OH250648   7.503   4.136   0.624 -0.2332  0.4020  0.0429
 8818TIP3    H150649   7.556   4.206   0.586 -0.2432  0.5748  0.3411
 8818TIP3    H250650   7.443   4.111   0.554  0.3807  0.0535 -0.3684
 8819TIP3   OH250651   7.529   4.295   1.222 -0.3622 -0.5882 -0.7685
 8819TIP3    H150652   7.600   4.231   1.215 -0.5148 -0.8362 -0.0642
 8819TIP3    H250653   7.511   4.320   1.131  0.5688 -0.5828 -0.9636
 8820TIP3   OH250654   1.383   3.800   0.818 -0.1440  0.2719  0.3204
 8820TIP3    H150655   1.463   3.842   0.786 -0.7263  1.5058  0.4060
 8820TIP3    H250656   1.389   3.710   0.788  0.2543  0.8895 -1.5885
 8821TIP3   OH250657   7.533   7.363   1.091  0.1465 -0.0829  0.4271
 8821TIP3    H150658   7.477   7.288   1.114 -0.2017  0.0364 -0.0281
 8821TIP3    H250659   7.473   7.437   1.086  0.3410  0.0463 -0.0710
 8822TIP3   OH250660   0.864   3.353   2.337  0.2331  0.0545  0.2703
 8822TIP3    H150661   0.922   3.390   2.404  0.3248  0.9073 -0.2667
 8822TIP3    H250662   0.784   3.405   2.344  0.2201  0.1063 -0.2310
 8823TIP3   OH250663   2.109   1.216   1.607 -0.4904  0.0549 -0.7123
 8823TIP3    H150664   2.127   1.174   1.523 -1.2969 -1.4196 -0.1667
 8823TIP3    H250665   2.029   1.175   1.639  0.6690 -0.6275  1.5600
 8824TIP3   OH250666   1.360   1.751   1.563 -0.0662 -0.5015  0.3426
 8824TIP3    H150667   1.357   1.797   1.647 -0.1181 -1.7262  1.0436
 8824TIP3    H250668   1.307   1.672   1.577 -1.7111  0.2134 -1.4717
 8825TIP3   OH250669   3.888   0.630   1.811  0.6408 -0.0768 -0.1139
 8825TIP3    H150670   3.831   0.554   1.826 -1.0303  1.4876  1.9543
 8825TIP3    H250671   3.884   0.643   1.716 -1.4191 -0.8344 -0.2014
 8826TIP3   OH250672   1.232   4.899   0.930 -0.0328 -0.2894  0.0864
 8826TIP3    H150673   1.144   4.901   0.892  0.0544 -0.7152 -0.1488
 8826TIP3    H250674   1.217   4.890   1.024 -0.2749  2.3677  0.3576
 8827TIP3   OH250675   2.274   1.084   2.104  0.0522  0.4123 -0.7241
 8827TIP3    H150676   2.246   1.114   2.017 -0.6717  1.5044 -0.1464
 8827TIP3    H250677   2.203   1.113   2.162  0.0605 -1.1469  0.1031
 8828TIP3   OH250678   1.898   5.389   2.330  0.0267 -0.8842 -1.0956
 8828TIP3    H150679   1.959   5.415   2.262 -0.4583 -0.9193 -1.5523
 8828TIP3    H250680   1.917   5.296   2.345  1.1119 -0.5290 -0.1422
 8829TIP3   OH250681   6.681   7.391   2.855  0.0363 -0.2956  0.6535
 8829TIP3    H150682   6.734   7.331   2.908  0.9759 -0.6275 -0.6375
 8829TIP3    H250683   6.598   7.399   2.904  1.5565  0.9964  3.2316
 8830TIP3   OH250684   5.138   2.292   0.752  0.0326  0.0547 -0.3136
 8830TIP3    H150685   5.135   2.303   0.656  1.0961  2.9551 -0.1310
 8830TIP3    H250686   5.159   2.380   0.785  1.4411 -1.2265  2.5072
 8831TIP3   OH250687   7.251   6.170   3.327  0.1164 -0.3315 -0.0737
 8831TIP3    H150688   7.266   6.142   3.237  2.8473  0.5854 -0.0175
 8831TIP3    H250689   7.252   6.090   3.378  0.1189 -0.7384 -0.7016
 8832TIP3   OH250690   2.745   4.200   0.954  0.1128  0.1290  0.5917
 8832TIP3    H150691   2.816   4.141   0.931  0.9888  1.2589  0.3349
 8832TIP3    H250692   2.694   4.210   0.873 -1.3737 -1.9675  1.1602
 8833TIP3   OH250693   5.403   3.333   2.454 -0.1415  0.2379  0.5968
 8833TIP3    H150694   5.440   3.398   2.514 -1.0253  2.9018 -1.5157
 8833TIP3    H250695   5.322   3.305   2.496  0.0018  0.9077  1.3457
 8834TIP3   OH250696   2.740   4.768   2.279 -0.8644  0.0933  0.5394
 8834TIP3    H150697   2.681   4.742   2.350 -1.2896 -1.8689 -0.4421
 8834TIP3    H250698   2.735   4.863   2.276 -2.5889  0.0745  1.6586
 8835TIP3   OH250699   4.824   3.168   0.654  0.1012 -0.0535 -0.1503
 8835TIP3    H150700   4.757   3.216   0.702 -0.3582  0.2132 -1.0293
 8835TIP3    H250701   4.891   3.233   0.633  0.8404 -0.3958  1.0466
 8836TIP3   OH250702   2.135   3.698   1.385  0.0463  0.4970 -0.1115
 8836TIP3    H150703   2.126   3.710   1.290  0.6683  1.1086 -0.1003
 8836TIP3    H250704   2.129   3.787   1.421 -2.2032  0.1087  0.6198
 8837TIP3   OH250705   4.738   5.494   2.559 -0.1426 -0.2160  0.0240
 8837TIP3    H150706   4.731   5.549   2.482  1.5422 -1.2494 -0.9231
 8837TIP3    H250707   4.717   5.552   2.632 -3.4675  0.3900 -1.2506
 8838TIP3   OH250708   3.526   5.482   2.649  0.0035 -0.6506 -0.1612
 8838TIP3    H150709   3.453   5.456   2.705 -0.2604 -0.2909 -0.3372
 8838TIP3    H250710   3.581   5.404   2.643  1.2200 -0.1086  2.4156
 8839TIP3   OH250711   4.538   5.329   1.300 -0.2709 -0.1427  0.1879
 8839TIP3    H150712   4.497   5.358   1.219  1.7225 -0.2661 -0.9233
 8839TIP3    H250713   4.492   5.248   1.323 -0.6855 -0.2476 -0.9666
 8840TIP3   OH250714   2.843   4.500   0.824 -0.4181  0.0028  0.1855
 8840TIP3    H150715   2.892   4.464   0.898  0.0064 -1.3118 -0.6800
 8840TIP3    H250716   2.757   4.460   0.831 -0.8551  1.0312  0.7841
 8841TIP3   OH250717   2.058   0.041   0.769 -0.3460 -0.7521 -0.2956
 8841TIP3    H150718   2.123  -0.028   0.781 -0.9884 -1.3846 -0.3734
 8841TIP3    H250719   2.107   0.115   0.733  0.3256 -1.2113 -0.3368
 8842TIP3   OH250720   2.077   2.724   1.349  0.2265 -0.2175 -0.5894
 8842TIP3    H150721   2.027   2.655   1.305 -0.9004  0.7448 -0.8744
 8842TIP3    H250722   2.011   2.787   1.377  0.9945 -0.3578  1.7404
 8843TIP3   OH250723   0.345   2.901   2.225 -0.2044 -0.1351 -0.1859
 8843TIP3    H150724   0.423   2.926   2.273  0.9905  0.7231 -2.4102
 8843TIP3    H250725   0.346   2.805   2.224  0.7532 -0.1291 -0.0741
 8844TIP3   OH250726   3.824   6.291   1.762 -0.8961 -0.0131 -0.3282
 8844TIP3    H150727   3.874   6.290   1.843 -0.0413  2.0554 -0.7650
 8844TIP3    H250728   3.792   6.201   1.752 -0.2366 -0.5297  1.7880
 8845TIP3   OH250729   7.640   5.015   0.387  0.1902  0.0166 -0.1258
 8845TIP3    H150730   7.579   5.088   0.402 -0.8175 -0.8456  0.0605
 8845TIP3    H250731   7.724   5.049   0.417 -0.8196  0.0843  2.9938
 8846TIP3   OH250732   3.842   0.385   1.582  0.0011  0.3045  0.5141
 8846TIP3    H150733   3.934   0.402   1.603  0.2524 -0.1024 -0.2397
 8846TIP3    H250734   3.840   0.377   1.487 -0.7132 -0.2886  0.5709
 8847TIP3   OH250735   2.917   4.466   1.435 -0.4320 -0.1200 -0.0575
 8847TIP3    H150736   2.922   4.547   1.385 -0.9176  0.2496  0.4739
 8847TIP3    H250737   2.949   4.398   1.375 -0.3373  0.4124 -0.6184
 8848TIP3   OH250738   3.650   1.856   2.307 -0.3942 -0.0042  0.1297
 8848TIP3    H150739   3.693   1.934   2.341  2.2765 -0.3199 -2.1175
 8848TIP3    H250740   3.634   1.875   2.215 -1.5609 -1.4050 -0.0074
 8849TIP3   OH250741   4.390   2.971   2.996  0.1930 -0.7254  0.1530
 8849TIP3    H150742   4.447   3.017   3.056 -0.3976  0.6544 -0.2942
 8849TIP3    H250743   4.449   2.933   2.931  0.6517  0.3533 -0.0898
 8850TIP3   OH250744   3.225   2.569   1.114  0.4168 -0.5217  0.1380
 8850TIP3    H150745   3.282   2.507   1.070  0.6927 -0.3188  0.2025
 8850TIP3    H250746   3.141   2.525   1.122  0.8805 -1.2781  1.0805
 8851TIP3   OH250747   1.988   7.106   0.565 -0.2270  0.0227 -0.0370
 8851TIP3    H150748   1.908   7.112   0.616 -0.7602 -1.3508 -0.6488
 8851TIP3    H250749   2.025   7.194   0.567 -2.7349  1.2026 -1.2943
 8852TIP3   OH250750   3.530   1.611   2.315  0.7920  0.6252  0.7830
 8852TIP3    H150751   3.597   1.560   2.360  2.1113 -0.0896 -1.7978
 8852TIP3    H250752   3.563   1.701   2.315  0.6470  0.6833  1.4330
 8853TIP3   OH250753   3.414   0.262   3.188  0.1037  0.0834 -0.3803
 8853TIP3    H150754   3.505   0.286   3.170 -0.0562 -0.4644 -2.0877
 8853TIP3    H250755   3.417   0.168   3.206 -0.0829  0.1423 -0.0226
 8854TIP3   OH250756   6.238   2.560   0.540 -0.2876  0.0297 -0.1170
 8854TIP3    H150757   6.164   2.514   0.580  0.2318 -0.8882 -0.1717
 8854TIP3    H250758   6.292   2.587   0.614 -1.0781  1.4518 -0.0259
 8855TIP3   OH250759   4.090   3.373   0.940  0.1627  0.2260 -0.1321
 8855TIP3    H150760   3.997   3.397   0.942  0.4412  1.6561 -1.6883
 8855TIP3    H250761   4.135   3.445   0.985  0.6163  0.1649 -0.4765
 8856TIP3   OH250762   0.177   6.681   1.810  0.2052  0.6048 -0.3672
 8856TIP3    H150763   0.123   6.666   1.888 -0.6799  0.2417 -1.0457
 8856TIP3    H250764   0.188   6.594   1.771  1.2188  0.6839 -0.2883
 8857TIP3   OH250765   4.057   4.503   2.439 -0.3435 -0.0264 -0.3250
 8857TIP3    H150766   4.090   4.513   2.528 -1.9903  2.4744  0.1341
 8857TIP3    H250767   4.107   4.431   2.402  2.1746  0.4828  1.7831
 8858TIP3   OH250768   2.952   4.372   2.718  0.1813 -0.1845  0.7758
 8858TIP3    H150769   2.908   4.433   2.777  0.2908 -0.7624  1.4616
 8858TIP3    H250770   3.045   4.387   2.732  0.2435  1.0695 -0.7093
 8859TIP3   OH250771   4.843   6.978   1.961 -0.6867  0.5156 -0.7842
 8859TIP3    H150772   4.854   7.058   1.911  1.0994  0.4042 -0.6596
 8859TIP3    H250773   4.849   7.006   2.052  0.5014  0.1984 -0.7511
 8860TIP3   OH250774   5.769   4.409   1.271  0.1823  0.1488 -0.1581
 8860TIP3    H150775   5.766   4.368   1.357  0.9872  0.8041  0.1953
 8860TIP3    H250776   5.853   4.381   1.234 -0.0116  0.1396 -0.6002
 8861TIP3   OH250777   6.171   6.580   2.055 -0.3627 -0.1302 -0.2625
 8861TIP3    H150778   6.228   6.515   2.094  0.5706 -0.4325 -2.0306
 8861TIP3    H250779   6.117   6.611   2.127  0.8624 -1.0706  1.1093
 8862TIP3   OH250780   5.904   1.427   0.631 -0.5297 -0.5739  0.3156
 8862TIP3    H150781   5.899   1.426   0.535 -1.2240  1.6891  0.2696
 8862TIP3    H250782   5.827   1.378   0.659 -0.5987 -0.8266 -0.2886
 8863TIP3   OH250783   1.094   3.353   1.072 -0.2822  0.0156  0.1034
 8863TIP3    H150784   1.040   3.426   1.102 -0.3813 -0.3752  0.9163
 8863TIP3    H250785   1.088   3.356   0.977  0.8741  1.9670  0.0146
 8864TIP3   OH250786   4.999   7.145   2.745 -0.3591  0.5678 -0.3418
 8864TIP3    H150787   4.958   7.231   2.738  0.7104  0.9942 -1.8773
 8864TIP3    H250788   5.053   7.150   2.824 -0.6245  1.1475 -0.1904
 8865TIP3   OH250789   1.576   7.547   1.169  0.7499  0.2303  0.1844
 8865TIP3    H150790   1.556   7.547   1.263 -0.6862  0.7892 -0.0818
 8865TIP3    H250791   1.507   7.602   1.131  1.1234 -0.2569 -1.2403
 8866TIP3   OH250792   1.576   6.789   3.465 -0.2504  0.1740 -0.3764
 8866TIP3    H150793   1.503   6.832   3.421 -0.4604 -0.0412 -0.2424
 8866TIP3    H250794   1.651   6.846   3.449 -0.0852 -0.4040 -1.8894
 8867TIP3   OH250795   2.007   7.407   0.679  0.5236 -0.1622  0.2194
 8867TIP3    H150796   1.965   7.386   0.763  0.0687 -1.0506 -0.2130
 8867TIP3    H250797   2.006   7.502   0.675 -0.1324 -0.1307  0.8881
 8868TIP3   OH250798   0.926   4.318   2.352  0.1492  0.1866 -0.0132
 8868TIP3    H150799   0.939   4.325   2.446  1.6840  0.3186 -0.2082
 8868TIP3    H250800   0.872   4.394   2.330 -1.9618 -0.9544  1.0194
 8869TIP3   OH250801   6.565   5.430   1.640  0.2761  0.2522 -0.0334
 8869TIP3    H150802   6.637   5.368   1.629  1.3787  1.2769  1.0664
 8869TIP3    H250803   6.526   5.408   1.725  2.0209  2.2791  1.4119
 8870TIP3   OH250804   0.385   5.388   1.271  0.2923 -0.1483 -0.0524
 8870TIP3    H150805   0.407   5.432   1.189  0.6712 -0.3737 -0.0724
 8870TIP3    H250806   0.363   5.299   1.246  0.2876 -0.1840  0.0768
 8871TIP3   OH250807   0.515   0.289   2.782 -0.1119 -0.8118 -0.1997
 8871TIP3    H150808   0.599   0.331   2.802  1.2289 -2.7348 -1.4084
 8871TIP3    H250809   0.452   0.332   2.841  1.6067  0.9845  0.4586
 8872TIP3   OH250810   4.180   4.769   3.124 -0.3637  0.2426 -0.0790
 8872TIP3    H150811   4.140   4.731   3.202  1.6107  0.0678  0.8826
 8872TIP3    H250812   4.224   4.848   3.154 -1.4773  1.4607 -1.4592
 8873TIP3   OH250813   4.441   0.525   1.234  0.3664  0.1445 -0.0151
 8873TIP3    H150814   4.388   0.593   1.192  0.7798  0.1224 -0.5819
 8873TIP3    H250815   4.452   0.555   1.324  0.6037  0.8673 -0.2780
 8874TIP3   OH250816   7.340   5.761   2.603 -0.2611  0.0885  0.0560
 8874TIP3    H150817   7.292   5.826   2.655  0.5445 -0.7799  1.9591
 8874TIP3    H250818   7.320   5.784   2.512 -1.0517  2.1798  0.7028
 8875TIP3   OH250819   0.305   2.632   3.168 -0.0292  0.1799  0.6335
 8875TIP3    H150820   0.288   2.719   3.204 -0.3727  0.1803  0.4723
 8875TIP3    H250821   0.400   2.622   3.174  0.3092  1.5046 -1.4668
 8876TIP3   OH250822   4.663   0.088   2.470  0.1642 -0.1420  0.0903
 8876TIP3    H150823   4.625   0.106   2.557  0.9694  2.1808  0.0264
 8876TIP3    H250824   4.588   0.091   2.411 -0.2342 -0.6572  0.5505
 8877TIP3   OH250825   5.955   6.371   0.610 -0.1560 -0.1576 -0.5873
 8877TIP3    H150826   6.021   6.439   0.599  0.0386  0.3656  2.7970
 8877TIP3    H250827   6.006   6.290   0.619 -0.2822 -0.4768 -2.3539
 8878TIP3   OH250828   5.684   5.496   2.293 -0.2286 -0.4681  0.3056
 8878TIP3    H150829   5.651   5.578   2.257 -0.0290 -0.2244  0.6760
 8878TIP3    H250830   5.615   5.467   2.353  0.1617 -0.0268  0.9782
 8879TIP3   OH250831   0.589   7.391   0.949 -0.0467 -0.1140 -0.1496
 8879TIP3    H150832   0.512   7.391   0.893 -1.6739  0.3096  1.9779
 8879TIP3    H250833   0.575   7.317   1.009  0.8939  0.3492  0.6700
 8880TIP3   OH250834   6.125   1.182   2.684 -0.4754  0.0193 -0.1460
 8880TIP3    H150835   6.090   1.157   2.598 -2.8001 -0.2617  0.8254
 8880TIP3    H250836   6.098   1.112   2.743 -0.3853  1.0429  1.1580
 8881TIP3   OH250837   0.829   1.447   2.964  0.4733  0.4283 -0.6955
 8881TIP3    H150838   0.790   1.401   2.890  0.0344 -4.0818  1.9824
 8881TIP3    H250839   0.920   1.419   2.965  0.5067  0.5092  0.3439
 8882TIP3   OH250840   3.358   6.906   2.283 -0.0724  0.2707  0.3585
 8882TIP3    H150841   3.381   6.851   2.208  2.6442  0.7339  0.7434
 8882TIP3    H250842   3.393   6.993   2.262  0.3229  0.5349  1.9391
 8883TIP3   OH250843   6.929   4.285   1.933  0.1786  0.4149 -0.4458
 8883TIP3    H150844   6.886   4.205   1.963  0.5984  0.0539 -0.7860
 8883TIP3    H250845   6.862   4.353   1.941  0.4057  0.4573  1.7911
 8884TIP3   OH250846   4.211   5.669   0.401  0.1647  0.0325  0.0178
 8884TIP3    H150847   4.281   5.699   0.343 -1.2567  0.5141 -1.5476
 8884TIP3    H250848   4.187   5.583   0.367 -0.7866  0.3871 -0.2556
 8885TIP3   OH250849   0.287   0.472   1.397  0.2077  0.0687  0.0429
 8885TIP3    H150850   0.341   0.448   1.322 -0.6124 -0.2812 -0.4489
 8885TIP3    H250851   0.343   0.528   1.451  0.2807  1.7735 -1.6860
 8886TIP3   OH250852   1.115   4.085   2.659 -0.1426 -0.0261 -0.4383
 8886TIP3    H150853   1.174   4.153   2.626  0.3904 -1.2593 -2.1948
 8886TIP3    H250854   1.103   4.107   2.752 -0.4057  2.7154 -1.0257
 8887TIP3   OH250855   5.131   3.605   1.465 -0.1219  0.7553 -0.1137
 8887TIP3    H150856   5.121   3.572   1.554 -0.8732 -0.5068 -0.6430
 8887TIP3    H250857   5.093   3.693   1.468  0.6932  1.1012  1.0031
 8888TIP3   OH250858   4.157   2.076   0.646 -0.2490 -0.4388 -0.1184
 8888TIP3    H150859   4.118   2.157   0.679 -1.5105 -0.7942 -0.6855
 8888TIP3    H250860   4.119   2.007   0.701  1.1437 -0.6485  0.6498
 8889TIP3   OH250861   0.460   4.083   3.228  0.2640 -0.1056 -0.0513
 8889TIP3    H150862   0.404   4.017   3.187  0.3168 -0.4931  0.5051
 8889TIP3    H250863   0.435   4.083   3.320  2.0379 -1.1911  0.4838
 8890TIP3   OH250864   1.684   6.835   1.210 -0.2555  0.2688  0.6722
 8890TIP3    H150865   1.702   6.911   1.265 -0.1638  0.7189  0.0360
 8890TIP3    H250866   1.668   6.872   1.123 -0.6721 -0.4045  0.4557
 8891TIP3   OH250867   0.677   5.615   0.698  0.0922  0.0197 -0.2460
 8891TIP3    H150868   0.585   5.608   0.673 -0.3398  1.2164  0.8703
 8891TIP3    H250869   0.705   5.700   0.664 -0.7297  2.0905  3.6365
 8892TIP3   OH250870   7.526   7.151   0.516  0.2628 -0.0452 -0.0864
 8892TIP3    H150871   7.580   7.117   0.588  0.2337  1.3327  0.6248
 8892TIP3    H250872   7.508   7.242   0.541 -1.9488 -0.2953 -0.5524
 8893TIP3   OH250873   4.166   5.717   2.723 -0.1005  0.5614  0.4170
 8893TIP3    H150874   4.210   5.768   2.791  2.7478 -1.2621  0.0839
 8893TIP3    H250875   4.165   5.775   2.647  0.0048  1.3079  0.9695
 8894TIP3   OH250876   0.915   1.537   0.952 -0.5046  0.3630 -0.2638
 8894TIP3    H150877   0.922   1.592   1.030 -1.9002  0.8554 -0.4432
 8894TIP3    H250878   0.835   1.486   0.967 -0.2759 -0.2120 -0.9629
 8895TIP3   OH250879   7.423   5.385   2.300 -0.5048  0.4542 -0.0181
 8895TIP3    H150880   7.449   5.472   2.268 -0.3243  1.0300  1.6164
 8895TIP3    H250881   7.490   5.362   2.364 -1.2757 -0.3148  0.5299
 8896TIP3   OH250882   5.937   1.593   2.782 -0.0338  0.6161 -0.0684
 8896TIP3    H150883   5.955   1.664   2.844  1.0326  1.4500 -1.2670
 8896TIP3    H250884   6.021   1.577   2.739 -0.4010 -0.9798 -0.2475
 8897TIP3   OH250885   6.388   7.109   1.002  0.5463 -0.3091  0.2071
 8897TIP3    H150886   6.394   7.114   1.097 -0.0362 -0.0250  0.2339
 8897TIP3    H250887   6.380   7.200   0.974 -1.6090 -0.4812  0.0712
 8898TIP3   OH250888   0.607   5.739   1.302 -0.6523 -0.2434 -0.6067
 8898TIP3    H150889   0.612   5.697   1.388 -0.4582  0.2193 -0.3907
 8898TIP3    H250890   0.518   5.772   1.296 -0.5711  0.0106 -0.4439
 8899TIP3   OH250891   1.736   7.240   0.612 -0.1585 -0.4127  0.1962
 8899TIP3    H150892   1.702   7.313   0.665  3.3177  0.3612  1.6573
 8899TIP3    H250893   1.775   7.282   0.536 -1.6760 -1.2075 -1.0804
 8900TIP3   OH250894   5.091   4.000   0.990  0.0683  0.0402  0.0407
 8900TIP3    H150895   5.076   3.988   1.083 -1.2581  0.9132 -0.0410
 8900TIP3    H250896   5.068   4.092   0.973 -1.2767 -0.5258 -1.4292
 8901TIP3   OH250897   5.150   3.280   1.890  0.0177 -0.6306  0.1662
 8901TIP3    H150898   5.061   3.263   1.921  0.9759 -1.4017  2.7615
 8901TIP3    H250899   5.192   3.195   1.890  0.7703 -0.2759 -1.0873
 8902TIP3   OH250900   4.157   4.519   2.739 -0.5438  0.0135 -0.5117
 8902TIP3    H150901   4.138   4.545   2.829 -2.0215  0.0599 -0.8062
 8902TIP3    H250902   4.106   4.439   2.726 -1.8261  0.9794 -1.8320
 8903TIP3   OH250903   3.847   4.317   1.114 -0.2269  0.1724 -0.2481
 8903TIP3    H150904   3.826   4.371   1.191  1.1703  2.5294 -1.3949
 8903TIP3    H250905   3.766   4.313   1.064 -0.3180  1.4655 -0.2391
 8904TIP3   OH250906   4.668   1.703   2.208  0.6293 -0.0601  0.1366
 8904TIP3    H150907   4.664   1.731   2.117  1.3759 -1.7975 -0.4556
 8904TIP3    H250908   4.600   1.754   2.252  0.2601  0.7927 -1.3730
 8905TIP3   OH250909   0.027   1.971   1.871  0.4717  0.5961  0.1514
 8905TIP3    H150910   0.007   1.903   1.807 -4.0270  2.4606 -0.8467
 8905TIP3    H250911  -0.002   1.936   1.954 -1.9505  1.1716 -0.3792
 8906TIP3   OH250912   3.399   7.278   2.987 -0.4663 -0.2958  0.2404
 8906TIP3    H150913   3.361   7.277   2.899 -0.0546 -2.0492  0.0291
 8906TIP3    H250914   3.379   7.365   3.022 -0.0175  0.6991 -1.8446
 8907TIP3   OH250915   1.877   5.137   1.022 -0.0473  0.6957 -0.3429
 8907TIP3    H150916   1.849   5.094   0.942 -0.6427  0.5084 -0.0433
 8907TIP3    H250917   1.803   5.193   1.047  0.5417  1.5677 -0.4876
 8908TIP3   OH250918   5.742   2.933   1.553  0.6228  0.2513 -0.2031
 8908TIP3    H150919   5.684   2.897   1.620 -0.7782  0.8907 -1.0250
 8908TIP3    H250920   5.745   2.865   1.485 -0.2846  0.7449 -0.7672
 8909TIP3   OH250921   1.701   5.921   0.751  0.1467  0.3480  0.6132
 8909TIP3    H150922   1.795   5.935   0.741 -0.1586  2.7957  0.6440
 8909TIP3    H250923   1.672   5.990   0.810 -1.8446  0.2755 -0.1921
 8910TIP3   OH250924   6.643   2.345   2.395 -0.1154  0.2380 -0.3095
 8910TIP3    H150925   6.637   2.437   2.421 -0.2204  0.0994  0.1583
 8910TIP3    H250926   6.682   2.301   2.471  1.7285  0.2036 -1.1970
 8911TIP3   OH250927   7.178   5.686   1.126 -0.2726 -0.5868 -0.1314
 8911TIP3    H150928   7.122   5.762   1.141  0.7453  0.5956 -1.9352
 8911TIP3    H250929   7.202   5.692   1.033  1.2122 -2.1673  0.1046
 8912TIP3   OH250930   5.886   0.466   1.040  0.4628  0.6736  0.4990
 8912TIP3    H150931   5.855   0.429   0.958 -3.3522 -0.3256  2.1661
 8912TIP3    H250932   5.873   0.561   1.031  1.1686  0.6896 -0.4116
 8913TIP3   OH250933   3.724   7.086   1.735 -0.2595  0.2370 -0.3518
 8913TIP3    H150934   3.737   7.157   1.672 -2.2683 -0.6956 -1.9139
 8913TIP3    H250935   3.729   7.129   1.821 -0.0082  1.9977 -1.2064
 8914TIP3   OH250936   5.230   7.228   0.898  0.2651  0.4209 -0.1291
 8914TIP3    H150937   5.198   7.272   0.977 -0.9959  0.6974 -0.7758
 8914TIP3    H250938   5.161   7.165   0.876  0.9008 -0.1070 -0.6557
 8915TIP3   OH250939   6.569   4.000   1.046 -0.2509 -0.4694  0.2391
 8915TIP3    H150940   6.566   3.905   1.042 -0.7248 -0.4366 -0.4152
 8915TIP3    H250941   6.481   4.026   1.073  0.2551 -0.2548  1.8047
 8916TIP3   OH250942   3.709   4.344   2.645  0.3220  0.1311  0.5652
 8916TIP3    H150943   3.756   4.403   2.704  1.3472  0.2138 -0.2901
 8916TIP3    H250944   3.708   4.390   2.561  0.9299 -0.9436 -0.0600
 8917TIP3   OH250945   4.098   3.299   2.604  0.1104  0.4086  0.1906
 8917TIP3    H150946   4.092   3.233   2.536 -0.4138 -0.4509  1.0507
 8917TIP3    H250947   4.026   3.360   2.585 -2.0828 -1.5313  1.7115
 8918TIP3   OH250948   6.965   1.289   3.164  0.3417 -0.3324  0.2886
 8918TIP3    H150949   6.968   1.237   3.245  1.8837 -1.6396 -0.5618
 8918TIP3    H250950   7.011   1.370   3.186  0.5482 -0.5768  0.7823
 8919TIP3   OH250951   7.081   3.006   2.351  0.2418 -0.1932  0.4229
 8919TIP3    H150952   7.119   2.970   2.271  0.2525 -2.0449  1.2136
 8919TIP3    H250953   7.157   3.024   2.407  0.3575  2.5648 -0.4804
 8920TIP3   OH250954   0.922   2.156   1.783 -0.1426 -0.2094  0.1301
 8920TIP3    H150955   0.894   2.234   1.735 -1.3112 -0.5730  0.1933
 8920TIP3    H250956   1.006   2.133   1.745 -0.3106  0.4341 -0.6533
 8921TIP3   OH250957   0.499   0.815   0.971  0.4109 -0.2884  0.5135
 8921TIP3    H150958   0.527   0.763   1.046 -0.2212 -0.5967  0.5489
 8921TIP3    H250959   0.505   0.755   0.896  2.4300  0.4322  0.0438
 8922TIP3   OH250960   6.421   6.476   2.101 -0.9256 -0.1767  0.0512
 8922TIP3    H150961   6.429   6.569   2.083 -1.9466 -0.2780 -0.9799
 8922TIP3    H250962   6.423   6.470   2.197  0.0624  0.7952  0.1099
 8923TIP3   OH250963   2.385   7.661   1.958  0.1495  0.1481 -0.5877
 8923TIP3    H150964   2.387   7.752   1.987  1.1323  1.2913 -3.7610
 8923TIP3    H250965   2.475   7.642   1.932 -0.4208 -1.0312 -1.8456
 8924TIP3   OH250966   3.998   6.292   2.374 -0.0972  0.1320 -0.0809
 8924TIP3    H150967   4.069   6.228   2.368  0.1398  0.2748  1.0195
 8924TIP3    H250968   4.037   6.366   2.420 -0.7490  0.5251 -0.1566
 8925TIP3   OH250969   5.727   6.607   3.093 -0.4503 -0.0076  0.5949
 8925TIP3    H150970   5.798   6.650   3.141 -0.4393 -0.4860  1.0074
 8925TIP3    H250971   5.771   6.553   3.027 -0.3033 -2.0676  2.2748
 8926TIP3   OH250972   4.035   0.621   0.983 -0.0455 -0.1681  0.0884
 8926TIP3    H150973   3.991   0.540   0.956 -0.3381 -0.4950  1.4432
 8926TIP3    H250974   4.001   0.638   1.071  1.7763  0.1276  0.7879
 8927TIP3   OH250975   0.042   5.319   0.778  0.0253 -0.9305 -0.0903
 8927TIP3    H150976   0.070   5.401   0.737 -1.0503 -1.6884 -2.4737
 8927TIP3    H250977   0.082   5.322   0.865  0.4291  1.8818 -0.2637
 8928TIP3   OH250978   2.651   6.507   3.258  0.3337  0.4267  0.7761
 8928TIP3    H150979   2.658   6.532   3.350  1.0704  0.2070  0.7919
 8928TIP3    H250980   2.558   6.488   3.244  0.2587  0.2289  1.5323
 8929TIP3   OH250981   4.277   1.011   1.328  0.1321  0.0635  0.1598
 8929TIP3    H150982   4.237   0.957   1.259 -2.3039  1.1700  0.6083
 8929TIP3    H250983   4.254   0.967   1.409  0.8367  0.1170  0.3945
 8930TIP3   OH250984   2.615   2.819   3.316 -0.4004  0.2631 -0.1524
 8930TIP3    H150985   2.637   2.895   3.370 -0.1950  0.4831 -0.5389
 8930TIP3    H250986   2.566   2.761   3.374  0.2788  0.2550  0.4172
 8931TIP3   OH250987   0.804   1.737   1.477 -0.0616 -0.4486  0.0302
 8931TIP3    H150988   0.899   1.737   1.491  0.4176 -1.7432 -2.5727
 8931TIP3    H250989   0.790   1.798   1.405 -1.0663 -0.9098 -0.1835
 8932TIP3   OH250990   7.472   0.721   3.275  0.3227 -0.2533 -0.8527
 8932TIP3    H150991   7.479   0.635   3.316  1.5976 -0.1146 -0.7236
 8932TIP3    H250992   7.484   0.704   3.181  1.7510 -0.1281 -0.7254
 8933TIP3   OH250993   4.081   5.454   2.433  0.2213 -0.0102  0.3914
 8933TIP3    H150994   4.002   5.507   2.428 -0.1124 -0.4434  1.0393
 8933TIP3    H250995   4.058   5.381   2.489  0.7645 -0.7034 -0.2694
 8934TIP3   OH250996   7.274   5.690   0.580 -0.1937  0.1341  0.2034
 8934TIP3    H150997   7.360   5.675   0.540  0.9641  1.4042  2.0542
 8934TIP3    H250998   7.212   5.685   0.507  1.5080 -0.1902 -1.2810
 8935TIP3   OH250999   2.560   3.970   0.766 -0.2615  0.8517  0.1061
 8935TIP3    H151000   2.558   3.902   0.699 -1.8162 -1.3666  2.2599
 8935TIP3    H251001   2.649   3.966   0.802  0.2624  1.3757 -1.0425
 8936TIP3   OH251002   6.513   5.311   1.979 -0.3597  0.0169  0.8559
 8936TIP3    H151003   6.573   5.383   1.959 -1.2536  1.6694  3.6444
 8936TIP3    H251004   6.468   5.294   1.896  0.4155  2.1534 -0.0660
 8937TIP3   OH251005   7.340   6.796   2.131 -0.0605  0.1980  0.7044
 8937TIP3    H151006   7.427   6.818   2.096  0.1718 -0.1576  1.0436
 8937TIP3    H251007   7.293   6.880   2.132  0.2227  0.3629  0.3605
 8938TIP3   OH251008   5.559   1.572   2.416 -0.2818  0.0403  0.1477
 8938TIP3    H151009   5.552   1.649   2.360  0.1490 -0.5985 -0.8165
 8938TIP3    H251010   5.469   1.552   2.442 -0.5780 -0.1093 -0.9584
 8939TIP3   OH251011   1.175   1.463   0.926  0.0676 -0.5958  0.1952
 8939TIP3    H151012   1.088   1.502   0.932  0.2138 -0.3161  0.5655
 8939TIP3    H251013   1.234   1.531   0.958  0.5385 -0.3857 -1.0420
 8940TIP3   OH251014   2.802   1.737   1.566 -0.3291 -0.0931 -0.0638
 8940TIP3    H151015   2.789   1.690   1.648 -2.0539  3.1886  1.7657
 8940TIP3    H251016   2.888   1.777   1.574 -0.0470 -0.6215 -0.3757
 8941TIP3   OH251017   1.254   1.471   2.272  0.3041  0.6666 -0.6775
 8941TIP3    H151018   1.212   1.427   2.198 -0.2269  0.2035 -0.1043
 8941TIP3    H251019   1.274   1.401   2.334  3.0783  0.6484 -1.4172
 8942TIP3   OH251020   1.736   4.968   1.405 -0.1166  0.0198 -0.2558
 8942TIP3    H151021   1.781   4.886   1.427 -3.3748 -1.3516  2.1047
 8942TIP3    H251022   1.795   5.036   1.436  0.9124 -1.6050  1.6129
 8943TIP3   OH251023   6.522   7.153   2.531 -0.0578 -0.2993  0.4060
 8943TIP3    H151024   6.470   7.173   2.609 -0.2975  0.3389  0.0957
 8943TIP3    H251025   6.605   7.197   2.545 -0.3593  0.4234 -0.0022
 8944TIP3   OH251026   3.138   6.087   1.701 -0.2705  0.2205 -0.3664
 8944TIP3    H151027   3.228   6.091   1.732  0.3183  0.5663 -2.0464
 8944TIP3    H251028   3.133   6.004   1.654 -1.0977 -0.2096  0.4379
 8945TIP3   OH251029   3.471   6.420   2.335 -0.4962  0.5221 -0.2661
 8945TIP3    H151030   3.566   6.418   2.342 -0.5905 -0.2091  1.4760
 8945TIP3    H251031   3.447   6.332   2.306 -0.7268 -0.1167  1.7067
 8946TIP3   OH251032   5.131   6.548   1.825 -0.5903 -0.3543  0.4358
 8946TIP3    H151033   5.067   6.561   1.756  0.3341 -0.4477 -0.4693
 8946TIP3    H251034   5.146   6.635   1.862  2.0548  0.5699 -2.3908
 8947TIP3   OH251035   0.052   3.598   1.977 -0.1499  1.3496  0.5652
 8947TIP3    H151036   0.078   3.513   1.942 -1.4125  1.6402 -1.2350
 8947TIP3    H251037   0.034   3.652   1.900 -0.0355  3.0635  1.6626
 8948TIP3   OH251038   0.458   0.274   3.538  0.2094 -0.2902  0.3956
 8948TIP3    H151039   0.442   0.181   3.558 -2.7208  0.3886  1.7643
 8948TIP3    H251040   0.371   0.314   3.542  1.4465  2.6157  0.2238
 8949TIP3   OH251041   0.793   4.477   3.364 -0.1134 -0.6389 -0.2009
 8949TIP3    H151042   0.799   4.407   3.430  1.5700 -0.7636 -0.4382
 8949TIP3    H251043   0.884   4.502   3.348 -0.6583  1.2321 -0.5396
 8950TIP3   OH251044   4.814   3.825   0.577  0.3894 -0.4092  0.2442
 8950TIP3    H151045   4.779   3.910   0.603 -0.1762 -0.5838  0.0743
 8950TIP3    H251046   4.754   3.762   0.617  0.3349 -0.7079 -0.3007
 8951TIP3   OH251047   4.544   6.647   2.195 -0.5547 -0.1419 -0.4843
 8951TIP3    H151048   4.523   6.592   2.270 -0.0711 -1.4122 -1.2461
 8951TIP3    H251049   4.470   6.708   2.188 -0.5092  0.1492  1.1253
 8952TIP3   OH251050   1.758   3.085   2.489  0.3917 -0.0583  0.3198
 8952TIP3    H151051   1.776   3.122   2.576 -1.2568  0.3407  0.5188
 8952TIP3    H251052   1.845   3.069   2.452  1.1687 -1.0474  2.3666
 8953TIP3   OH251053   1.198   2.058   1.955 -0.1604 -0.0648  0.0581
 8953TIP3    H151054   1.207   2.123   2.025 -0.1701 -0.4425  0.4129
 8953TIP3    H251055   1.103   2.052   1.940 -0.1771 -0.1951  0.2143
 8954TIP3   OH251056   5.564   2.972   1.293  0.5479 -0.5606 -0.1142
 8954TIP3    H151057   5.659   2.963   1.306  0.5264  0.7850  1.4602
 8954TIP3    H251058   5.550   2.953   1.201  2.4593 -0.0959 -0.5449
 8955TIP3   OH251059   2.582   0.060   2.261  0.1319  0.3799 -0.2107
 8955TIP3    H151060   2.646   0.124   2.231  0.4527 -0.1598 -0.6754
 8955TIP3    H251061   2.630  -0.022   2.269  0.2140  0.5885  2.3301
 8956TIP3   OH251062   3.034   3.920   3.159 -0.5807  0.3073  0.1879
 8956TIP3    H151063   3.038   3.906   3.065  0.1819  1.4167  0.0353
 8956TIP3    H251064   3.125   3.928   3.187 -0.8123  3.5679  0.4005
 8957TIP3   OH251065   2.190   0.872   2.572  0.1708  0.7408  0.0843
 8957TIP3    H151066   2.178   0.873   2.477 -2.0048 -2.2231  0.1847
 8957TIP3    H251067   2.116   0.922   2.605 -2.8298 -3.3274  0.2171
 8958TIP3   OH251068   4.069   4.906   0.643 -0.0844  0.4233 -0.0262
 8958TIP3    H151069   4.086   4.892   0.737 -1.2370  0.4774  0.2030
 8958TIP3    H251070   4.093   4.822   0.603  0.3930  0.3890  0.3104
 8959TIP3   OH251071   3.070   1.985   3.105  0.6527  0.3955 -0.5552
 8959TIP3    H151072   3.126   1.917   3.068 -0.4273 -0.1887 -1.1524
 8959TIP3    H251073   2.981   1.952   3.095  0.2072  1.0814  0.8331
 8960TIP3   OH251074   5.257   0.916   2.365 -0.6521  0.5591  0.4924
 8960TIP3    H151075   5.245   0.999   2.410 -1.0756  1.1579 -0.6897
 8960TIP3    H251076   5.297   0.939   2.282 -0.6061 -0.4383  0.2199
 8961TIP3   OH251077   2.882   7.068   2.224 -0.0131 -0.3533  0.0347
 8961TIP3    H151078   2.813   7.004   2.242 -0.0057 -0.4874 -0.4280
 8961TIP3    H251079   2.867   7.095   2.134  0.1182  0.1375  0.1548
 8962TIP3   OH251080   6.653   6.350   2.781  0.5114  0.4284  0.1725
 8962TIP3    H151081   6.575   6.391   2.744  0.0644 -0.5133  0.0436
 8962TIP3    H251082   6.726   6.386   2.730  0.1620  1.2779  0.2633
 8963TIP3   OH251083   2.527   3.830   1.215 -0.0257  0.2760 -0.1877
 8963TIP3    H151084   2.611   3.858   1.178 -0.2524  1.6830  0.2809
 8963TIP3    H251085   2.551   3.772   1.288  0.5670  1.0296  0.2322
 8964TIP3   OH251086   2.626   7.257   2.401 -0.5103  0.1587 -0.0663
 8964TIP3    H151087   2.605   7.279   2.492 -3.5849  1.3852 -0.9430
 8964TIP3    H251088   2.637   7.162   2.402 -1.1026  0.0730  1.5170
 8965TIP3   OH251089   5.828   1.051   0.544 -0.6304  0.3841 -0.2682
 8965TIP3    H151090   5.752   1.068   0.488  0.3440  1.3549 -1.3562
 8965TIP3    H251091   5.823   1.118   0.612 -0.4638  0.7798 -0.6439
 8966TIP3   OH251092   3.437   5.175   2.489  0.1477 -0.2985 -0.4090
 8966TIP3    H151093   3.517   5.215   2.524  0.0732  0.5701 -1.1843
 8966TIP3    H251094   3.385   5.249   2.457  0.8240 -1.0329 -3.6308
 8967TIP3   OH251095   5.472   5.108   0.518  0.1230  0.1068  0.1653
 8967TIP3    H151096   5.410   5.160   0.569 -1.0185  0.3217 -1.3452
 8967TIP3    H251097   5.477   5.024   0.564 -1.8305 -0.1543  0.0025
 8968TIP3   OH251098   5.488   0.206   1.055  0.2717  0.3407  0.5143
 8968TIP3    H151099   5.427   0.276   1.036  0.1034  0.2235  0.6178
 8968TIP3    H251100   5.544   0.200   0.978 -0.1138  0.1708  0.2447
 8969TIP3   OH251101   4.078   2.345   0.805 -0.0845 -0.6852 -0.2200
 8969TIP3    H151102   4.127   2.427   0.804 -0.3815 -0.4970 -1.8248
 8969TIP3    H251103   3.991   2.369   0.775 -0.1328 -1.6169 -0.8582
 8970TIP3   OH251104   1.037   2.986   1.478 -0.0753 -0.0767  0.5676
 8970TIP3    H151105   0.951   3.026   1.481  1.1170  2.7832 -0.2285
 8970TIP3    H251106   1.071   3.008   1.391  1.2990 -1.5665  0.6766
 8971TIP3   OH251107   3.760   2.500   3.209 -0.9666  0.3439  0.7486
 8971TIP3    H151108   3.726   2.525   3.123  0.4266  0.1523  0.1034
 8971TIP3    H251109   3.717   2.558   3.271 -2.8133 -0.2310  0.0553
 8972TIP3   OH251110   0.391   6.188   1.781 -0.5969 -0.1689 -0.0429
 8972TIP3    H151111   0.319   6.217   1.836 -0.7874  0.0521 -0.4040
 8972TIP3    H251112   0.451   6.262   1.777  0.9281 -1.1399  2.2826
 8973TIP3   OH251113   4.853   3.461   1.052 -0.1955  0.1869 -0.4480
 8973TIP3    H151114   4.893   3.527   1.110 -1.2342  0.5833 -0.1631
 8973TIP3    H251115   4.863   3.378   1.100 -1.9897  0.6617  0.8302
 8974TIP3   OH251116   4.456   3.006   0.721  0.0224 -0.1363 -0.2659
 8974TIP3    H151117   4.428   3.042   0.637  0.3033  0.5918 -0.0627
 8974TIP3    H251118   4.433   3.074   0.785 -0.7231 -0.9340  0.3245
 8975TIP3   OH251119   0.947   0.737   2.740 -1.0474  0.6768 -0.0592
 8975TIP3    H151120   0.940   0.745   2.645 -1.1016 -1.0150 -0.2272
 8975TIP3    H251121   1.013   0.669   2.754 -0.7795  1.1452  1.1335
 8976TIP3   OH251122   2.111   0.771   1.514  0.2112  0.0535 -0.3874
 8976TIP3    H151123   2.165   0.708   1.562 -0.5504 -0.5784 -0.3404
 8976TIP3    H251124   2.134   0.758   1.422  1.1629  0.7808 -0.2707
 8977TIP3   OH251125   2.202   2.016   1.103 -0.3998  1.2804  0.1281
 8977TIP3    H151126   2.208   2.100   1.058 -0.4505  1.7076  0.9071
 8977TIP3    H251127   2.198   1.951   1.032 -2.4654  2.0522 -0.5568
 8978TIP3   OH251128   6.423   1.416   1.216  0.0852  0.1779  0.3432
 8978TIP3    H151129   6.407   1.339   1.161 -1.4017 -1.0090  2.3224
 8978TIP3    H251130   6.456   1.380   1.298  4.0463  1.9999 -0.2240
 8979TIP3   OH251131   4.311   1.710   1.595  0.6019 -0.1535  0.0099
 8979TIP3    H151132   4.329   1.616   1.602 -2.5008 -0.8906 -0.1275
 8979TIP3    H251133   4.358   1.749   1.668 -0.0275 -2.2141  1.6369
 8980TIP3   OH251134   4.304   0.328   2.102  0.7722 -0.0839  1.0933
 8980TIP3    H151135   4.331   0.239   2.079  0.8879  0.4991 -1.2978
 8980TIP3    H251136   4.209   0.328   2.090  1.0020  0.6448 -1.2050
 8981TIP3   OH251137   5.042   4.272   1.525 -0.2022  0.0803 -0.0002
 8981TIP3    H151138   5.011   4.226   1.603  0.8955  0.9777  1.0024
 8981TIP3    H251139   5.006   4.360   1.534 -1.6779 -0.3095 -1.5333
 8982TIP3   OH251140   4.418   3.792   1.684 -0.0113  0.0049  0.4426
 8982TIP3    H151141   4.325   3.770   1.684 -0.3762  1.4884  0.8158
 8982TIP3    H251142   4.460   3.720   1.732 -0.6220 -1.9245 -1.7296
 8983TIP3   OH251143   5.087   4.110   1.310 -0.1616  0.8136 -0.2066
 8983TIP3    H151144   5.145   4.047   1.352 -1.0334  0.5214  0.5889
 8983TIP3    H251145   5.053   4.163   1.382  0.1926  1.8977 -0.8120
 8984TIP3   OH251146   2.142   6.980   1.425 -0.1721  1.1512  0.0712
 8984TIP3    H151147   2.157   7.035   1.348  1.5150  1.1926  0.3999
 8984TIP3    H251148   2.215   7.000   1.484 -0.7841  0.2411  1.1794
 8985TIP3   OH251149   1.487   4.940   1.286 -0.1515 -0.2726 -0.0978
 8985TIP3    H151150   1.450   5.005   1.346 -1.3776 -2.6474  1.8618
 8985TIP3    H251151   1.577   4.928   1.316 -0.7011 -1.3064  1.2141
 8986TIP3   OH251152   2.027   1.695   1.061 -0.0730  0.6617  0.2926
 8986TIP3    H151153   2.015   1.609   1.020  1.2936  1.4557 -1.9690
 8986TIP3    H251154   2.050   1.675   1.152 -2.3071 -1.2288  0.5312
 8987TIP3   OH251155   2.962   1.462   1.732  0.0520 -0.3616  0.2835
 8987TIP3    H151156   2.904   1.533   1.761 -0.4794 -0.6006 -0.1883
 8987TIP3    H251157   2.924   1.383   1.769  0.5900 -0.4191  0.7253
 8988TIP3   OH251158   6.185   7.433   0.415  0.0389 -0.0921 -0.0361
 8988TIP3    H151159   6.221   7.389   0.492  0.0570 -0.5507 -0.3041
 8988TIP3    H251160   6.260   7.447   0.358 -0.1157 -0.5545 -0.3556
 8989TIP3   OH251161   5.871   2.698   2.565 -0.5311 -0.2952 -0.4497
 8989TIP3    H151162   5.805   2.636   2.597  0.1871 -0.5624  0.5391
 8989TIP3    H251163   5.889   2.669   2.475 -0.8392 -0.9934 -0.2947
 8990TIP3   OH251164   6.722   4.754   2.136  0.7349  0.0212 -0.1290
 8990TIP3    H151165   6.802   4.800   2.162  0.8711  0.5243 -1.3297
 8990TIP3    H251166   6.684   4.809   2.068  1.2957 -1.9498 -2.1777
 8991TIP3   OH251167   5.310   1.606   2.174  0.1716  0.4213  0.1058
 8991TIP3    H151168   5.361   1.661   2.115  0.2156  1.5419  1.1515
 8991TIP3    H251169   5.272   1.667   2.238 -2.2199 -0.3853 -0.4296
 8992TIP3   OH251170   3.250   4.960   2.882  1.3218  0.5961  0.2890
 8992TIP3    H151171   3.203   4.879   2.902  0.4791  0.8568 -0.5475
 8992TIP3    H251172   3.259   4.959   2.786  1.1471  1.5690  0.2558
 8993TIP3   OH251173   4.312   5.055   2.374 -0.0627  0.6803 -0.0612
 8993TIP3    H151174   4.228   5.026   2.409 -1.3914  1.7831 -2.1346
 8993TIP3    H251175   4.293   5.140   2.333  1.9694  0.7641 -0.9391
 8994TIP3   OH251176   0.757   1.351   2.074 -0.6531 -0.0574  0.2507
 8994TIP3    H151177   0.804   1.370   1.993 -0.5244 -2.4570 -0.2940
 8994TIP3    H251178   0.824   1.359   2.142  0.0183 -1.1218 -0.2567
 8995TIP3   OH251179   6.431   7.475   2.681 -0.8246 -0.0424  0.0282
 8995TIP3    H151180   6.503   7.435   2.729 -0.3318  0.5265 -0.2198
 8995TIP3    H251181   6.358   7.474   2.743 -0.7055 -0.9306  0.1603
 8996TIP3   OH251182   6.961   7.355   2.049 -0.3223  0.0724  0.3361
 8996TIP3    H151183   6.989   7.302   1.974 -2.1654 -0.1234 -0.2611
 8996TIP3    H251184   6.876   7.318   2.073 -0.6766  1.4371  1.2320
 8997TIP3   OH251185   4.818   6.822   1.730 -0.5899  0.7864  0.1520
 8997TIP3    H151186   4.911   6.837   1.712 -0.9982  1.8622 -1.1830
 8997TIP3    H251187   4.803   6.867   1.813  0.3111 -0.3646  0.9752
 8998TIP3   OH251188   7.616   5.023   1.292 -0.0988  0.1542 -0.0569
 8998TIP3    H151189   7.702   5.008   1.332 -0.1812  2.2103  1.0356
 8998TIP3    H251190   7.612   5.118   1.280 -3.0617  0.4397  2.0106
 8999TIP3   OH251191   7.408   2.131   2.117  0.1795 -0.0261 -0.2092
 8999TIP3    H151192   7.383   2.048   2.157 -2.5596  0.7304 -0.1405
 8999TIP3    H251193   7.391   2.119   2.024  3.3725 -0.6747 -0.8370
 9000TIP3   OH251194   7.640   2.733   1.143 -0.4548  0.4889  0.4000
 9000TIP3    H151195   7.713   2.673   1.133 -0.6150  0.3095  0.2959
 9000TIP3    H251196   7.569   2.679   1.178 -1.1558  0.2025 -1.3377
 9001TIP3   OH251197   5.856   0.733   0.998  0.7942  0.5494  0.5711
 9001TIP3    H151198   5.827   0.751   0.909 -0.7010  0.4891  1.0227
 9001TIP3    H251199   5.866   0.820   1.038 -2.0279  0.5730  1.3890
 9002TIP3   OH251200   0.728   0.285   3.440  0.8888  0.1015  0.0951
 9002TIP3    H151201   0.632   0.289   3.442  0.7945  0.2675 -2.1045
 9002TIP3    H251202   0.756   0.372   3.468  0.1972  1.4227 -2.8371
 9003TIP3   OH251203   0.405   2.648   0.540 -0.2717  0.2557  0.6145
 9003TIP3    H151204   0.437   2.567   0.580  0.2814  0.1011 -0.1091
 9003TIP3    H251205   0.312   2.631   0.524 -0.3561  0.0931  1.2664
 9004TIP3   OH251206   0.431   7.362   3.618  0.1373 -0.4648 -0.1760
 9004TIP3    H151207   0.413   7.284   3.565  1.8750 -1.2338  0.3018
 9004TIP3    H251208   0.519   7.390   3.592  0.4211  0.0362  1.2180
 9005TIP3   OH251209   2.210   4.177   1.924  0.5027  0.1931 -0.4056
 9005TIP3    H151210   2.262   4.166   2.005  0.7549  4.2543  0.1625
 9005TIP3    H251211   2.119   4.169   1.953  0.6200 -0.9669 -0.2843
 9006TIP3   OH251212   0.757   3.978   1.060  0.1094  0.4051  0.5362
 9006TIP3    H151213   0.710   4.011   1.137  0.5674  1.4978  0.3570
 9006TIP3    H251214   0.688   3.960   0.996 -0.6718 -3.6549  2.2110
 9007TIP3   OH251215   3.527   7.203   1.045  0.5413  0.1088  0.0880
 9007TIP3    H151216   3.544   7.282   0.995 -1.4184 -0.1279 -1.0670
 9007TIP3    H251217   3.468   7.232   1.115  0.3108 -0.2090  0.0275
 9008TIP3   OH251218   2.789   4.669   1.244 -0.0317  0.0374 -0.0713
 9008TIP3    H151219   2.864   4.664   1.185  1.3855 -0.3945  1.6869
 9008TIP3    H251220   2.737   4.590   1.224 -0.2867  0.5476 -1.5778
 9009TIP3   OH251221   3.069   6.855   2.316  0.2601  0.5902 -0.0144
 9009TIP3    H151222   3.156   6.888   2.293 -0.0939  1.9811  0.5455
 9009TIP3    H251223   3.012   6.932   2.313 -0.7161 -0.0647  0.8371
 9010TIP3   OH251224   0.716   1.434   1.067  0.1578 -0.1273 -0.1040
 9010TIP3    H151225   0.704   1.437   1.162 -0.1276  0.3690 -0.1543
 9010TIP3    H251226   0.629   1.453   1.032  0.0166 -1.3407 -0.4676
 9011TIP3   OH251227   2.280   2.405   2.345 -0.5900  0.1449  0.2404
 9011TIP3    H151228   2.287   2.344   2.419 -0.6508  0.7256  0.7281
 9011TIP3    H251229   2.354   2.465   2.355 -0.5048  0.1313 -0.2657
 9012TIP3   OH251230   3.681   5.935   1.728  0.0916  0.2979 -0.2932
 9012TIP3    H151231   3.756   5.941   1.787  1.1434 -0.2464 -1.5333
 9012TIP3    H251232   3.713   5.968   1.645 -1.6855  2.1436 -0.3391
 9013TIP3   OH251233   1.700   6.140   2.414 -0.4442 -0.3149 -0.2677
 9013TIP3    H151234   1.616   6.102   2.389 -1.2250 -0.4660  2.3032
 9013TIP3    H251235   1.765   6.075   2.389 -1.3589 -1.3627  0.0066
 9014TIP3   OH251236   7.382   3.695   0.767  0.1505 -0.2068  0.1186
 9014TIP3    H151237   7.334   3.776   0.752  0.7415  0.0502 -0.4351
 9014TIP3    H251238   7.349   3.662   0.850 -0.8154  0.0824 -0.1352
 9015TIP3   OH251239   6.123   4.657   1.960 -0.4188 -0.6146 -0.3520
 9015TIP3    H151240   6.178   4.580   1.976  0.5776  0.1532  0.0205
 9015TIP3    H251241   6.081   4.640   1.875  2.7277  0.0572 -2.1869
 9016TIP3   OH251242   4.623   5.716   1.456  0.0274 -0.2488 -0.0051
 9016TIP3    H151243   4.620   5.811   1.471  1.4367  0.1742 -2.0727
 9016TIP3    H251244   4.597   5.706   1.365 -1.1769 -1.9986  0.4808
 9017TIP3   OH251245   2.980   5.513   1.602 -0.5632 -0.2787  0.4480
 9017TIP3    H151246   3.006   5.425   1.628  0.2405 -0.4793 -0.8823
 9017TIP3    H251247   3.006   5.569   1.675 -0.7396 -1.0957  1.1449
 9018TIP3   OH251248   0.349   4.461   1.516 -0.3138  0.6319  0.1239
 9018TIP3    H151249   0.305   4.543   1.537 -1.0283  0.4379 -0.5352
 9018TIP3    H251250   0.298   4.394   1.561  0.9295  0.6270  1.5855
 9019TIP3   OH251251   0.906   2.575   1.390 -0.4101  0.3954 -0.5241
 9019TIP3    H151252   0.969   2.527   1.336  0.1062 -1.8857  1.8894
 9019TIP3    H251253   0.960   2.637   1.440 -0.4643  0.3395 -0.3979
 9020TIP3   OH251254   1.495   7.491   2.616  0.1956 -0.2666 -0.2278
 9020TIP3    H151255   1.583   7.527   2.621  0.5622 -0.8977 -1.7525
 9020TIP3    H251256   1.474   7.469   2.707  0.1444  3.1640  0.7352
 9021TIP3   OH251257   5.132   4.671   2.380 -0.0542  0.0570 -0.0672
 9021TIP3    H151258   5.152   4.745   2.322  0.4479 -0.0771 -0.0718
 9021TIP3    H251259   5.189   4.601   2.350  0.7568  0.2182  1.0532
 9022TIP3   OH251260   1.495   2.186   2.306 -0.3960  0.4136  0.3853
 9022TIP3    H151261   1.516   2.258   2.365  2.6399 -0.0627  0.0460
 9022TIP3    H251262   1.534   2.109   2.346  0.3126 -0.2144 -1.4068
 9023TIP3   OH251263   2.159   2.196   0.882 -0.1945  0.0946 -0.3639
 9023TIP3    H151264   2.141   2.109   0.847 -2.1475 -1.0590  3.0868
 9023TIP3    H251265   2.074   2.240   0.885  0.2345  0.8969  0.9190
 9024TIP3   OH251266   7.005   5.724   2.478  0.5359  0.5674  0.2150
 9024TIP3    H151267   7.081   5.700   2.532  0.4200 -3.4541 -1.0769
 9024TIP3    H251268   6.932   5.677   2.517 -1.0873  3.0750  0.4458
 9025TIP3   OH251269   1.875   2.376   1.157  0.5614 -0.1871 -0.3171
 9025TIP3    H151270   1.832   2.312   1.213 -0.0356  0.4910  0.0180
 9025TIP3    H251271   1.844   2.461   1.189  2.0427  0.3272 -0.1586
 9026TIP3   OH251272   2.447   0.439   1.113 -0.3177  0.4740 -0.3325
 9026TIP3    H151273   2.428   0.435   1.207 -1.4290 -2.1222 -0.5856
 9026TIP3    H251274   2.537   0.406   1.105  0.3993  2.2245 -0.1167
 9027TIP3   OH251275   1.347   6.883   2.506  0.0818  0.2165  0.4199
 9027TIP3    H151276   1.429   6.928   2.525 -0.2756  0.5146  1.2957
 9027TIP3    H251277   1.288   6.909   2.576 -0.8257  0.1507 -0.2918
 9028TIP3   OH251278   7.087   0.658   3.509  0.7673 -0.2822 -0.7673
 9028TIP3    H151279   7.127   0.740   3.538  0.7082 -0.4658 -0.1668
 9028TIP3    H251280   7.003   0.685   3.471  0.3434 -0.1443  0.2316
 9029TIP3   OH251281   1.345   3.570   2.038  0.5335  0.2613  0.1401
 9029TIP3    H151282   1.292   3.491   2.053  0.9413  0.4901  3.5723
 9029TIP3    H251283   1.402   3.546   1.965 -1.0350 -1.6768 -0.5720
 9030TIP3   OH251284   6.995   0.401   3.179 -0.1097 -0.4199 -0.1361
 9030TIP3    H151285   6.923   0.386   3.241 -0.0142  2.2825  0.7487
 9030TIP3    H251286   7.064   0.442   3.231  1.0437 -0.5290 -1.5200
 9031TIP3   OH251287   3.794   3.776   1.892  0.0993 -0.1935  0.0262
 9031TIP3    H151288   3.827   3.690   1.916  1.2269  0.4700  1.0203
 9031TIP3    H251289   3.859   3.837   1.927 -0.4035  1.0481 -1.0849
 9032TIP3   OH251290   7.424   0.189   2.718 -0.4570 -0.0320 -0.3790
 9032TIP3    H151291   7.359   0.247   2.758 -1.2985 -1.8294  0.9806
 9032TIP3    H251292   7.390   0.101   2.732  1.5062 -0.9591 -1.0362
 9033TIP3   OH251293   1.428   1.868   2.440 -0.3547 -0.1294 -0.2932
 9033TIP3    H151294   1.514   1.905   2.423 -0.4124  0.5805  0.8596
 9033TIP3    H251295   1.446   1.780   2.473  0.1299  0.8618  2.3690
 9034TIP3   OH251296   1.140   1.077   1.914 -0.1420 -0.1043 -0.0541
 9034TIP3    H151297   1.093   1.000   1.946  0.5642 -2.4229 -3.9000
 9034TIP3    H251298   1.108   1.089   1.824  3.4617  0.8277 -1.3780
 9035TIP3   OH251299   4.785   2.716   1.699  0.5849  0.1016  0.3478
 9035TIP3    H151300   4.762   2.808   1.686 -0.2394 -0.1987 -0.4105
 9035TIP3    H251301   4.860   2.718   1.758  0.2793  1.2386  0.7177
 9036TIP3   OH251302   7.633   6.282   0.906  0.0780  0.1620  0.5126
 9036TIP3    H151303   7.578   6.210   0.936 -1.0276  0.4336 -0.7500
 9036TIP3    H251304   7.575   6.336   0.853  1.4848  0.6292 -0.6402
 9037TIP3   OH251305   5.053   2.209   2.038  0.3175  0.0002 -0.2177
 9037TIP3    H151306   5.004   2.153   2.099 -0.3775 -0.4111 -1.1376
 9037TIP3    H251307   4.986   2.253   1.986  0.9009  0.5329 -0.5339
 9038TIP3   OH251308   6.349   4.964   2.675 -0.2632 -0.0912 -0.0983
 9038TIP3    H151309   6.331   5.022   2.749 -3.5040 -1.4405  0.3324
 9038TIP3    H251310   6.399   4.892   2.713 -0.3059  0.1309  0.3904
 9039TIP3   OH251311   5.267   1.732   1.773 -0.6558  0.5988 -0.5377
 9039TIP3    H151312   5.180   1.747   1.810 -0.7583  0.8058 -0.8518
 9039TIP3    H251313   5.283   1.638   1.785  0.3242  1.0252  2.1747
 9040TIP3   OH251314   0.532   0.471   2.362 -0.4596 -0.3632  0.3800
 9040TIP3    H151315   0.521   0.381   2.393 -3.3731 -0.8233 -1.5512
 9040TIP3    H251316   0.453   0.516   2.392 -1.2548  0.2818 -2.4253
 9041TIP3   OH251317   0.075   4.344   2.738  0.6643  0.4541  0.4181
 9041TIP3    H151318   0.147   4.366   2.680  0.7313  1.4248  0.8412
 9041TIP3    H251319   0.087   4.251   2.758  0.8669  0.2043 -0.7806
 9042TIP3   OH251320   3.725   5.120   1.210 -0.3508 -0.0100 -0.4088
 9042TIP3    H151321   3.786   5.191   1.190  1.9973 -1.8139 -0.1146
 9042TIP3    H251322   3.665   5.117   1.135  1.6327  0.1180 -2.0765
 9043TIP3   OH251323   7.204   0.527   3.308 -0.1836  0.4021  0.4680
 9043TIP3    H151324   7.162   0.582   3.373  1.5136  2.2771  0.0724
 9043TIP3    H251325   7.288   0.502   3.348 -0.7873 -1.7731  0.5443
 9044TIP3   OH251326   5.224   1.821   1.525  0.2541 -0.0465 -0.2710
 9044TIP3    H151327   5.236   1.767   1.603 -0.7951 -0.3028 -0.2710
 9044TIP3    H251328   5.129   1.826   1.513  0.3989 -0.2287 -1.6809
 9045TIP3   OH251329   5.863   3.056   0.790 -0.2075  0.1361 -0.2474
 9045TIP3    H151330   5.946   3.009   0.802  0.2101  0.1429 -2.5299
 9045TIP3    H251331   5.800   3.007   0.843  0.7633 -1.3966 -0.4178
 9046TIP3   OH251332   1.084   3.122   1.210 -0.4963  0.1114 -0.2231
 9046TIP3    H151333   1.009   3.089   1.162  0.5138 -2.0537 -0.3990
 9046TIP3    H251334   1.114   3.197   1.159 -0.4333 -1.1364 -2.1082
 9047TIP3   OH251335   5.601   5.664   2.565 -0.2201  0.4149  0.2943
 9047TIP3    H151336   5.669   5.614   2.609  0.7102  2.2584  1.0688
 9047TIP3    H251337   5.647   5.739   2.527 -1.4155  0.2811 -1.5677
 9048TIP3   OH251338   7.643   0.900   2.096  0.9283  0.4233 -0.6829
 9048TIP3    H151339   7.554   0.883   2.128  0.8974  0.0308 -0.9748
 9048TIP3    H251340   7.633   0.969   2.031  0.9968  1.2757  0.1798
 9049TIP3   OH251341   7.560   6.712   0.763 -0.2508 -1.0038 -0.5816
 9049TIP3    H151342   7.609   6.704   0.845 -0.8495 -3.3180 -0.3803
 9049TIP3    H251343   7.477   6.753   0.788  0.2751 -0.0566 -0.3611
 9050TIP3   OH251344   3.268   5.457   1.123  0.1579  0.2129 -0.7678
 9050TIP3    H151345   3.266   5.451   1.028  0.8635 -0.3585 -0.7565
 9050TIP3    H251346   3.273   5.550   1.141 -2.3878  0.5187 -1.2072
 9051TIP3   OH251347   2.352   3.037   3.159 -0.2622  0.1710 -0.4205
 9051TIP3    H151348   2.401   3.041   3.077  2.2982  1.8712  1.0539
 9051TIP3    H251349   2.346   2.943   3.179 -0.5991 -0.2470 -2.3092
 9052TIP3   OH251350   2.078   1.669   1.742  0.0145  0.4177  0.2042
 9052TIP3    H151351   2.069   1.604   1.673  0.0249  0.5279  0.0987
 9052TIP3    H251352   2.136   1.735   1.705  1.2183 -0.2467  0.8418
 9053TIP3   OH251353   6.983   3.337   1.683  0.0901 -0.2403  0.5383
 9053TIP3    H151354   6.968   3.352   1.776  0.1461 -2.0412  0.8844
 9053TIP3    H251355   6.916   3.274   1.658  0.2405  0.0303 -0.5868
 9054TIP3   OH251356   2.890   2.260   2.612  0.5073  0.3845  0.3399
 9054TIP3    H151357   2.923   2.240   2.524  1.0582 -1.8370  0.9800
 9054TIP3    H251358   2.969   2.275   2.664  0.2585  0.0955  0.7967
 9055TIP3   OH251359   7.555   2.306   3.284 -0.2387  0.1156 -0.4058
 9055TIP3    H151360   7.557   2.391   3.240  2.4038 -0.1186 -0.9027
 9055TIP3    H251361   7.549   2.242   3.212 -0.4754 -0.1645 -0.1386
 9056TIP3   OH251362   1.672   3.023   0.877 -0.0974 -0.0938 -0.7234
 9056TIP3    H151363   1.672   3.089   0.808 -0.9724  0.9738  0.2510
 9056TIP3    H251364   1.619   2.951   0.842  0.9613 -0.3496 -1.8442
 9057TIP3   OH251365   6.984   1.627   2.775  0.2170  0.4566 -0.2620
 9057TIP3    H151366   7.003   1.589   2.689  0.2395  0.8468 -0.4310
 9057TIP3    H251367   6.992   1.722   2.761  1.5880  0.4726  0.4890
 9058TIP3   OH251368   4.077   6.555   1.308  0.2694  0.0235 -0.1968
 9058TIP3    H151369   4.171   6.576   1.312  0.2700 -0.2443  1.7203
 9058TIP3    H251370   4.034   6.641   1.313  0.3904  0.0867 -0.2206
 9059TIP3   OH251371   5.063   5.045   1.606  0.3939  0.2465 -0.2227
 9059TIP3    H151372   5.042   5.033   1.513  0.0487 -2.2502  0.1089
 9059TIP3    H251373   5.058   5.139   1.620 -2.4472  0.4843 -2.0754
 9060TIP3   OH251374   3.568   5.203   3.153  0.5416  0.1192 -0.6349
 9060TIP3    H151375   3.597   5.266   3.087 -0.9593  2.1736  0.5900
 9060TIP3    H251376   3.603   5.236   3.235  0.5507 -1.2277 -0.0680
 9061TIP3   OH251377   1.140   5.239   1.935  0.1211 -0.1025  0.4578
 9061TIP3    H151378   1.048   5.257   1.915  0.0057 -0.4404  0.6832
 9061TIP3    H251379   1.172   5.320   1.975 -0.6523 -0.6659  2.3258
 9062TIP3   OH251380   1.686   0.702   1.107 -0.1765  0.4559  0.0695
 9062TIP3    H151381   1.696   0.643   1.182  2.2857 -0.4384 -0.8553
 9062TIP3    H251382   1.729   0.783   1.133  0.4413  0.2389 -0.2543
 9063TIP3   OH251383   6.040   4.483   2.186  0.0419  0.1012 -0.6079
 9063TIP3    H151384   6.108   4.422   2.214 -0.8055 -0.4601  0.3133
 9063TIP3    H251385   6.071   4.568   2.216  1.5189  0.2654 -2.4264
 9064TIP3   OH251386   1.391   1.049   2.161  0.2954 -0.3563  0.4863
 9064TIP3    H151387   1.306   1.009   2.144 -1.1109  2.3848  0.5468
 9064TIP3    H251388   1.430   1.060   2.074  0.0327 -0.4570  0.3557
 9065TIP3   OH251389   2.276   4.287   1.188  0.4474  0.8057  0.5337
 9065TIP3    H151390   2.295   4.367   1.236 -1.0680  0.2578  2.1036
 9065TIP3    H251391   2.358   4.237   1.192  0.3477  0.7269  2.6783
 9066TIP3   OH251392   3.659   6.649   0.640 -0.1287  0.0031  0.1657
 9066TIP3    H151393   3.588   6.701   0.603 -1.2450 -0.1092  1.9874
 9066TIP3    H251394   3.662   6.675   0.732  0.3076 -2.0050  0.7704
 9067TIP3   OH251395   6.691   4.724   1.121 -0.6704 -0.1947  0.5173
 9067TIP3    H151396   6.669   4.635   1.149 -0.7758  0.0828  1.3211
 9067TIP3    H251397   6.729   4.712   1.034 -2.8025 -0.8183 -0.4090
 9068TIP3   OH251398   1.855   3.570   2.279 -0.1707 -0.1167  0.0728
 9068TIP3    H151399   1.921   3.595   2.215 -1.2082  0.8950 -0.6442
 9068TIP3    H251400   1.882   3.483   2.308  0.6296 -0.3752 -1.3427
 9069TIP3   OH251401   2.216   0.865   1.048  0.8902 -0.0835  0.4246
 9069TIP3    H151402   2.233   0.776   1.018  0.9604 -0.3471  1.2175
 9069TIP3    H251403   2.285   0.918   1.007  0.4777 -0.2767 -0.5527
 9070TIP3   OH251404   6.742   1.346   1.272 -0.7379 -0.3919 -0.1208
 9070TIP3    H151405   6.715   1.380   1.186 -0.8636 -0.7224 -0.2129
 9070TIP3    H251406   6.834   1.320   1.258 -0.0568  1.5299  0.4220
 9071TIP3   OH251407   1.860   3.345   2.955  0.1221  0.0525 -0.6086
 9071TIP3    H151408   1.834   3.360   3.046 -1.7923  2.4247 -1.4299
 9071TIP3    H251409   1.797   3.280   2.923  1.1196 -1.1810 -0.1715
 9072TIP3   OH251410   0.682   6.851   2.598 -0.2065 -1.1651 -0.1250
 9072TIP3    H151411   0.667   6.845   2.693 -0.6186 -0.3542 -0.1295
 9072TIP3    H251412   0.757   6.794   2.582 -0.7297 -2.0694  0.5425
 9073TIP3   OH251413   5.241   2.299   2.490 -0.0131 -0.4200 -0.8878
 9073TIP3    H151414   5.186   2.221   2.493 -0.1437 -0.3183 -0.4299
 9073TIP3    H251415   5.187   2.364   2.445  0.1656 -0.6473 -1.4275
 9074TIP3   OH251416   6.873   7.141   3.212  0.0624 -0.4502 -0.1863
 9074TIP3    H151417   6.892   7.057   3.170  0.6174  1.2944 -3.8198
 9074TIP3    H251418   6.928   7.141   3.290  1.3206 -2.8116 -0.9570
 9075TIP3   OH251419   0.500   1.131   2.464 -0.1952  0.3518  0.2912
 9075TIP3    H151420   0.410   1.099   2.460 -0.6083  1.5467 -0.6329
 9075TIP3    H251421   0.553   1.059   2.429 -0.8115 -0.2545  0.5798
 9076TIP3   OH251422   6.119   6.209   0.845 -0.2251 -0.1671  0.5688
 9076TIP3    H151423   6.189   6.157   0.883 -0.4731 -0.7903  0.1934
 9076TIP3    H251424   6.062   6.145   0.802 -0.1953  0.4620 -0.4551
 9077TIP3   OH251425   4.298   5.612   1.935 -0.0116 -0.6213  0.1239
 9077TIP3    H151426   4.372   5.636   1.880 -1.4757  1.1134 -1.2365
 9077TIP3    H251427   4.334   5.606   2.023  1.4703  1.8398 -0.2238
 9078TIP3   OH251428   6.577   0.276   0.887  0.5503 -0.2950 -0.4345
 9078TIP3    H151429   6.508   0.318   0.835  0.4636  2.4702  1.6565
 9078TIP3    H251430   6.631   0.349   0.918  1.6752 -1.9484  1.7704
 9079TIP3   OH251431   2.107   4.213   3.376 -0.6572 -0.0257 -0.4073
 9079TIP3    H151432   2.184   4.168   3.341 -0.0345  0.5859  0.1573
 9079TIP3    H251433   2.119   4.305   3.353 -2.5765 -0.2518 -2.7354
 9080TIP3   OH251434   0.189   7.289   2.496 -0.2460  0.0656 -0.2077
 9080TIP3    H151435   0.238   7.228   2.550 -1.5917 -0.7456  0.1284
 9080TIP3    H251436   0.211   7.376   2.531 -1.5246 -0.4682  2.0416
 9081TIP3   OH251437   1.827   4.538   2.554 -0.0826  0.1183 -0.5304
 9081TIP3    H151438   1.850   4.580   2.471 -0.6869 -0.8982 -1.2250
 9081TIP3    H251439   1.900   4.478   2.571 -1.2862 -1.8613 -1.8789
 9082TIP3   OH251440   6.899   5.740   1.708  0.4304 -0.0321  0.1196
 9082TIP3    H151441   6.853   5.675   1.655 -0.9448  1.8422 -1.1393
 9082TIP3    H251442   6.990   5.735   1.680  0.0023 -0.1660 -1.3191
 9083TIP3   OH251443   0.317   0.395   2.010 -0.1429  0.3926 -0.4506
 9083TIP3    H151444   0.262   0.450   2.066  0.3207 -1.9027  2.5387
 9083TIP3    H251445   0.255   0.339   1.964 -0.4491  0.3758 -0.0262
 9084TIP3   OH251446   7.284   2.348   2.277  0.2578 -0.1037  0.0452
 9084TIP3    H151447   7.261   2.415   2.212 -0.7060 -1.6214 -1.2488
 9084TIP3    H251448   7.323   2.278   2.225  2.6481 -0.0038  1.5362
 9085TIP3   OH251449   3.762   6.625   2.194 -0.4296  0.0091 -0.2877
 9085TIP3    H151450   3.766   6.691   2.124 -0.2864 -0.2118 -0.4874
 9085TIP3    H251451   3.699   6.661   2.257  0.0655  0.6109 -0.1175
 9086TIP3   OH251452   1.431   1.287   1.037 -0.5189 -0.0392 -0.0785
 9086TIP3    H151453   1.358   1.348   1.042 -0.5521 -0.0995  0.1634
 9086TIP3    H251454   1.499   1.326   1.092 -0.0721  0.4252 -0.9402
 9087TIP3   OH251455   7.283   0.222   1.727 -0.3537  0.0203  0.1066
 9087TIP3    H151456   7.247   0.153   1.671  1.0199 -0.8226  0.2128
 9087TIP3    H251457   7.218   0.233   1.796 -1.0701 -0.4446 -0.4855
 9088TIP3   OH251458   0.741   0.983   0.913  0.2760 -0.0040 -0.0838
 9088TIP3    H151459   0.654   0.950   0.935  0.1375 -0.5536 -1.4051
 9088TIP3    H251460   0.793   0.968   0.992  0.2186 -3.3802 -0.5525
 9089TIP3   OH251461   4.062   3.168   1.117 -0.5994 -0.1443  0.1279
 9089TIP3    H151462   3.976   3.125   1.110  0.1354 -1.5418 -0.7105
 9089TIP3    H251463   4.058   3.239   1.054 -0.7997 -0.8390 -0.6591
 9090TIP3   OH251464   3.420   7.645   0.703 -0.4187  0.1106  0.1210
 9090TIP3    H151465   3.494   7.672   0.757  0.4860  0.5449 -1.2934
 9090TIP3    H251466   3.442   7.556   0.675 -0.5477  0.1513 -0.1138
 9091TIP3   OH251467   4.491   5.834   2.519 -0.4076  0.3949 -0.1639
 9091TIP3    H151468   4.526   5.908   2.569  0.3324  0.2161 -0.3901
 9091TIP3    H251469   4.510   5.758   2.573 -1.0762  0.3604  0.0214
 9092TIP3   OH251470   4.573   6.990   1.258 -0.1966 -0.3562 -0.3289
 9092TIP3    H151471   4.503   7.023   1.202  1.6633  0.5292 -2.2704
 9092TIP3    H251472   4.579   6.897   1.237 -1.3599 -0.6522  0.5477
 9093TIP3   OH251473   4.747   2.165   2.463  0.2042 -0.2236  0.0164
 9093TIP3    H151474   4.766   2.107   2.536 -1.0371 -0.1970  0.3721
 9093TIP3    H251475   4.731   2.251   2.503  0.2278 -0.0485 -0.3435
 9094TIP3   OH251476   5.198   1.182   0.909 -0.2263 -0.5498 -0.6959
 9094TIP3    H151477   5.178   1.164   1.001  1.6778  2.5940  0.4819
 9094TIP3    H251478   5.123   1.230   0.876  0.2912  0.8996  0.1604
 9095TIP3   OH251479   0.587   4.878   0.944 -0.4024  0.8121 -0.1742
 9095TIP3    H151480   0.643   4.813   0.902 -1.3518 -1.2913  1.6600
 9095TIP3    H251481   0.647   4.930   0.997 -0.0128 -0.8783  1.1186
 9096TIP3   OH251482   2.475   4.769   1.782  0.2099  1.0141 -0.1849
 9096TIP3    H151483   2.519   4.714   1.718  0.2182  1.3185 -0.4422
 9096TIP3    H251484   2.510   4.857   1.767 -0.4539  1.2532 -0.3690
 9097TIP3   OH251485   4.082   2.393   2.929 -0.3486  0.3929  0.2561
 9097TIP3    H151486   4.082   2.488   2.928 -1.3611  0.4183  1.0362
 9097TIP3    H251487   4.015   2.369   2.864  1.1485  0.1554 -1.2564
 9098TIP3   OH251488   6.301   3.604   1.067  0.7356  0.3300  0.3377
 9098TIP3    H151489   6.369   3.605   1.134  0.6759 -0.2108  0.4089
 9098TIP3    H251490   6.257   3.519   1.078 -1.5658  1.6083  1.9097
 9099TIP3   OH251491   5.887   4.247   2.257 -0.0527  0.4967 -0.1075
 9099TIP3    H151492   5.929   4.317   2.207 -1.4037  1.7952  0.5277
 9099TIP3    H251493   5.796   4.273   2.264  0.0077  0.2518  2.7821
 9100TIP3   OH251494   6.889   3.446   2.541 -0.1035 -0.1217 -0.2164
 9100TIP3    H151495   6.848   3.527   2.571  1.1267  0.5911 -0.3691
 9100TIP3    H251496   6.896   3.457   2.446 -0.3890 -0.6313 -0.2963
 9101TIP3   OH251497   6.982   1.316   1.874 -0.8398 -0.0967  0.0487
 9101TIP3    H151498   7.067   1.360   1.874 -0.3860 -0.9567 -0.1304
 9101TIP3    H251499   6.929   1.366   1.813 -0.0872 -0.2557 -0.7528
 9102TIP3   OH251500   7.543   4.196   2.567 -0.0023 -0.1551 -0.3343
 9102TIP3    H151501   7.514   4.143   2.641  1.3678 -0.0850  0.2757
 9102TIP3    H251502   7.599   4.263   2.606  0.3132  0.2093 -1.3768
 9103TIP3   OH251503   0.197   5.174   2.192  0.6911  0.3699  0.0016
 9103TIP3    H151504   0.151   5.221   2.123 -0.6229  1.4823  1.5607
 9103TIP3    H251505   0.272   5.229   2.213  2.2880 -0.9678 -1.8675
 9104TIP3   OH251506   4.200   5.253   1.975 -0.0210 -0.3269  0.1103
 9104TIP3    H151507   4.175   5.295   1.892 -2.6768 -0.7569  0.6183
 9104TIP3    H251508   4.265   5.188   1.949  2.1904  2.1220 -1.0583
 9105TIP3   OH251509   2.355   5.174   0.615  0.2291 -0.5355  0.2610
 9105TIP3    H151510   2.350   5.086   0.651 -0.1053 -1.5400 -2.0465
 9105TIP3    H251511   2.449   5.187   0.597  0.0668 -1.3333 -1.3566
 9106TIP3   OH251512   2.455   3.174   1.854  0.2802  0.0368  0.0334
 9106TIP3    H151513   2.412   3.095   1.887 -0.1408 -0.6869 -2.0946
 9106TIP3    H251514   2.388   3.217   1.801  0.4610  1.9372  1.2640
 9107TIP3   OH251515   7.003   7.523   1.753  0.0345 -0.0596  0.3854
 9107TIP3    H151516   7.001   7.428   1.761 -0.1601 -0.0762  0.1445
 9107TIP3    H251517   7.093   7.547   1.776  0.2199 -0.3464 -0.0240
 9108TIP3   OH251518   7.665   6.386   3.407 -0.1188  0.3817  0.2886
 9108TIP3    H151519   7.757   6.384   3.380 -0.5183  0.3070 -1.1495
 9108TIP3    H251520   7.648   6.478   3.425  0.0171  0.5315 -0.3094
 9109TIP3   OH251521   1.670   4.849   0.754  0.2889  0.4467  0.0111
 9109TIP3    H151522   1.625   4.879   0.833 -0.2908  0.9793 -0.5161
 9109TIP3    H251523   1.607   4.791   0.712  1.1531 -1.0530  0.6844
 9110TIP3   OH251524   6.083   0.800   1.184  0.0721  0.2298  0.5354
 9110TIP3    H151525   6.057   0.795   1.276 -0.6623  3.2689  0.6053
 9110TIP3    H251526   6.007   0.770   1.136  0.9806 -2.8910  0.8167
 9111TIP3   OH251527   4.135   5.933   0.532 -0.5504  0.3253 -0.1021
 9111TIP3    H151528   4.144   5.839   0.548  0.8765  0.0379 -2.2496
 9111TIP3    H251529   4.068   5.938   0.463 -0.3427  0.8643 -0.2624
 9112TIP3   OH251530   2.822   0.129   2.109 -0.4720 -0.0617  0.1282
 9112TIP3    H151531   2.825   0.107   2.016 -0.4825 -1.4133  0.4179
 9112TIP3    H251532   2.898   0.084   2.147  0.3662  1.6337  0.5714
 9113TIP3   OH251533   0.868   1.714   2.635 -0.5517 -0.3849 -0.2846
 9113TIP3    H151534   0.823   1.641   2.591  0.7699 -0.7270 -1.1279
 9113TIP3    H251535   0.932   1.745   2.571 -0.3046  0.7751  0.4939
 9114TIP3   OH251536   2.704   4.458   2.440  0.0478  0.4691  0.3882
 9114TIP3    H151537   2.686   4.459   2.534  1.0674 -0.2924  0.6133
 9114TIP3    H251538   2.783   4.511   2.430  0.9151 -0.8078  0.2104
 9115TIP3   OH251539   3.118   4.123   0.543 -0.0881  0.3634  0.0080
 9115TIP3    H151540   3.060   4.058   0.503 -0.1333  0.7134 -0.5062
 9115TIP3    H251541   3.063   4.201   0.552 -0.1485  0.2161  0.9848
 9116TIP3   OH251542   1.686   0.828   0.766 -0.0307 -0.4536  0.1541
 9116TIP3    H151543   1.654   0.912   0.733 -0.8589  0.9085  3.8781
 9116TIP3    H251544   1.772   0.848   0.803  0.2029 -1.5101  0.2240
 9117TIP3   OH251545   7.434   6.034   2.071 -0.1726  0.3513  0.2289
 9117TIP3    H151546   7.484   6.047   1.990 -0.2854 -1.9023 -0.2790
 9117TIP3    H251547   7.418   6.123   2.104  0.9941  1.2790 -1.5202
 9118TIP3   OH251548   4.079   1.897   0.855 -0.6481  0.5489 -0.2267
 9118TIP3    H151549   4.081   1.808   0.892  1.9283  0.4678 -0.3673
 9118TIP3    H251550   3.997   1.935   0.888 -1.4133 -1.5768  0.5128
 9119TIP3   OH251551   1.654   7.528   0.551 -0.8308 -0.0109 -0.3487
 9119TIP3    H151552   1.567   7.498   0.524 -0.5005 -0.4527 -0.9616
 9119TIP3    H251553   1.638   7.593   0.619 -1.6013 -1.6591  1.1522
 9120TIP3   OH251554   6.843   0.061   2.255 -0.1771  0.0119  0.0868
 9120TIP3    H151555   6.906   0.010   2.305 -0.7369  0.0509  0.8490
 9120TIP3    H251556   6.872   0.053   2.164 -0.9229 -2.7293 -0.0157
 9121TIP3   OH251557   5.562   1.838   1.488 -0.3343  0.6875  0.3059
 9121TIP3    H151558   5.613   1.915   1.463  0.5368  0.6889  2.0051
 9121TIP3    H251559   5.520   1.862   1.570  0.2464 -0.7601  1.0578
 9122TIP3   OH251560   2.639   2.604   3.102  0.6870  0.3931 -0.4094
 9122TIP3    H151561   2.580   2.612   3.027 -0.3790 -1.2383  0.1946
 9122TIP3    H251562   2.656   2.694   3.129 -1.5808  0.9240 -0.5676
 9123TIP3   OH251563   3.622   4.806   1.240  0.2044 -0.4942  0.0724
 9123TIP3    H151564   3.660   4.732   1.288 -1.8139 -1.3626  0.4435
 9123TIP3    H251565   3.630   4.782   1.148  2.8495  0.5562 -0.0625
 9124TIP3   OH251566   0.418   1.503   3.035  0.9974 -0.4704 -0.2615
 9124TIP3    H151567   0.354   1.566   3.002  0.5449  0.0748  1.5340
 9124TIP3    H251568   0.501   1.529   2.996  0.2496 -0.8645 -2.2045
 9125TIP3   OH251569   7.428   6.874   2.461 -0.2027 -0.4787 -0.4275
 9125TIP3    H151570   7.515   6.840   2.440 -0.1349 -1.3257  1.0663
 9125TIP3    H251571   7.417   6.949   2.402  2.3006  0.7866  0.5352
 9126TIP3   OH251572   0.520   2.307   1.680  0.3622 -0.0034  0.1422
 9126TIP3    H151573   0.521   2.310   1.584 -0.1043 -3.1426 -0.0781
 9126TIP3    H251574   0.515   2.214   1.700 -0.8527  0.6167  3.2342
 9127TIP3   OH251575   7.025   3.567   1.527  0.2226 -0.0238  0.1350
 9127TIP3    H151576   7.023   3.502   1.598  0.7356 -1.7227 -1.3256
 9127TIP3    H251577   6.934   3.594   1.516  0.0822 -0.0462  1.1499
 9128TIP3   OH251578   4.143   6.720   2.443 -0.1926  0.1083 -0.1000
 9128TIP3    H151579   4.106   6.751   2.525  3.6090  0.9854  1.4855
 9128TIP3    H251580   4.167   6.629   2.460  1.5454  0.5922  0.1929
 9129TIP3   OH251581   4.063   1.656   0.987  0.0840 -0.3677  0.6492
 9129TIP3    H151582   4.120   1.703   1.048  0.1280 -2.0915  2.0373
 9129TIP3    H251583   4.094   1.565   0.992 -0.9452 -0.8268 -0.7623
 9130TIP3   OH251584   7.571   2.290   1.271  0.0799  0.4499 -0.4250
 9130TIP3    H151585   7.597   2.310   1.360 -1.9701  0.4911  0.2139
 9130TIP3    H251586   7.615   2.207   1.250 -1.5299 -1.0174  1.6448
 9131TIP3   OH251587   5.307   4.486   2.288 -0.1044  0.0356 -0.3145
 9131TIP3    H151588   5.276   4.438   2.211  0.1878 -0.3834 -0.1752
 9131TIP3    H251589   5.387   4.531   2.258  0.5337 -0.8770 -0.0131
 9132TIP3   OH251590   1.334   0.488   2.534 -0.1645 -0.0644  0.7218
 9132TIP3    H151591   1.340   0.491   2.629 -1.8265  2.8529  0.8419
 9132TIP3    H251592   1.414   0.530   2.503  0.6589 -1.5518  0.7734
 9133TIP3   OH251593   4.628   5.880   1.934 -0.2462 -0.3592  0.3077
 9133TIP3    H151594   4.605   5.819   2.004 -0.3993  0.1448  0.7033
 9133TIP3    H251595   4.723   5.874   1.927 -0.2287 -0.4022  0.5676
 9134TIP3   OH251596   2.817   6.298   2.632  0.5640 -0.0711  0.2708
 9134TIP3    H151597   2.774   6.264   2.553 -0.4915  0.4061  0.6159
 9134TIP3    H251598   2.802   6.231   2.698 -1.4442  0.9294  0.9287
 9135TIP3   OH251599   1.933   1.794   2.887  0.2575  0.5568 -0.1270
 9135TIP3    H151600   1.967   1.824   2.972  0.3064  0.5723 -0.1523
 9135TIP3    H251601   1.943   1.870   2.830 -3.7546  2.1494  0.9132
 9136TIP3   OH251602   1.681   3.142   2.873  0.2433 -0.1968  0.1392
 9136TIP3    H151603   1.659   3.104   2.957 -0.1829 -1.6016 -0.5862
 9136TIP3    H251604   1.597   3.159   2.831  0.4557  0.0582 -0.1932
 9137TIP3   OH251605   3.234   5.177   0.853 -0.1016 -0.3983  0.8136
 9137TIP3    H151606   3.311   5.188   0.798 -0.8195  0.4515 -0.0477
 9137TIP3    H251607   3.181   5.112   0.806 -1.0522  0.8619  0.0881
 9138TIP3   OH251608   2.360   6.978   2.280  0.0269  0.1515  0.0873
 9138TIP3    H151609   2.329   6.998   2.368 -1.3429 -1.5612  0.0554
 9138TIP3    H251610   2.293   7.011   2.221  0.8368  1.1079 -0.3298
 9139TIP3   OH251611   0.743   0.023   3.367 -0.3242 -0.0214 -0.2734
 9139TIP3    H151612   0.800   0.050   3.295 -1.2338  1.7222 -0.3870
 9139TIP3    H251613   0.724   0.103   3.415 -1.1995 -0.8575  0.8409
 9140TIP3   OH251614   6.118   0.038   1.518 -0.5493  0.3624 -0.2892
 9140TIP3    H151615   6.200   0.010   1.557 -0.6024  0.3720 -0.1705
 9140TIP3    H251616   6.143   0.110   1.460 -0.3358 -0.3096 -1.0389
 9141TIP3   OH251617   1.517   4.827   1.021 -0.7137  0.8103  0.4615
 9141TIP3    H151618   1.566   4.770   1.080 -1.7419 -0.2012  0.3676
 9141TIP3    H251619   1.488   4.899   1.076  1.1885  1.6711  0.4334
 9142TIP3   OH251620   3.596   1.227   1.745 -0.2585 -0.2645  0.1687
 9142TIP3    H151621   3.576   1.279   1.823  1.8320 -0.4678  0.9023
 9142TIP3    H251622   3.647   1.285   1.689  0.2795 -0.8463  0.0438
 9143TIP3   OH251623   2.043   5.717   1.388 -0.5242  0.0136  0.0611
 9143TIP3    H151624   2.134   5.689   1.388 -0.7205 -0.7182  1.4063
 9143TIP3    H251625   2.000   5.660   1.452 -2.3576 -0.9585 -1.9090
 9144TIP3   OH251626   3.284   0.814   1.639 -0.2708 -0.6212  0.7156
 9144TIP3    H151627   3.347   0.847   1.574  0.5583 -1.8831  0.8405
 9144TIP3    H251628   3.274   0.722   1.617 -0.4063 -0.9433  2.0492
 9145TIP3   OH251629   3.088   3.123   2.209 -0.2651  0.2590 -0.0472
 9145TIP3    H151630   3.126   3.201   2.168  2.2262 -0.5584  0.5121
 9145TIP3    H251631   3.043   3.156   2.287  0.7470  1.1706  0.1707
 9146TIP3   OH251632   5.939   4.077   1.914 -0.0026  0.3361 -0.1902
 9146TIP3    H151633   6.001   4.005   1.922  0.3558  0.8215  2.4422
 9146TIP3    H251634   5.880   4.051   1.843  1.7628 -1.2171 -1.1703
 9147TIP3   OH251635   5.491   2.520   1.295 -0.1805  0.6869 -0.1407
 9147TIP3    H151636   5.402   2.551   1.281 -0.5638 -0.0566  0.6131
 9147TIP3    H251637   5.489   2.427   1.273  1.2616  1.3190 -3.6589
 9148TIP3   OH251638   6.368   3.084   0.970 -0.0581  0.4245  0.0688
 9148TIP3    H151639   6.417   3.161   0.997 -1.3909  0.9136  1.2199
 9148TIP3    H251640   6.276   3.109   0.981 -0.6111 -0.4080 -2.1092
 9149TIP3   OH251641   6.277   0.500   3.347 -0.2489  0.1069 -0.1523
 9149TIP3    H151642   6.187   0.531   3.334  0.6626  2.3908 -1.7755
 9149TIP3    H251643   6.292   0.439   3.274  0.0689  1.1893 -1.0212
 9150TIP3   OH251644   4.114   4.861   0.898 -0.2797 -0.4166  0.4856
 9150TIP3    H151645   4.029   4.818   0.888  0.0867 -1.0994  0.2770
 9150TIP3    H251646   4.148   4.828   0.982  0.1465 -0.7970  0.1689
 9151TIP3   OH251647   4.668   3.666   0.743  0.2587  0.5216 -0.1106
 9151TIP3    H151648   4.648   3.627   0.828 -1.2160  0.5683 -0.4086
 9151TIP3    H251649   4.584   3.668   0.697  0.9145  1.0634 -1.3411
 9152TIP3   OH251650   0.504   4.182   1.992  0.2960  0.5279  0.8540
 9152TIP3    H151651   0.552   4.127   2.054  2.4934  0.5052 -0.7437
 9152TIP3    H251652   0.499   4.268   2.034  1.8368  0.5457  1.0586
 9153TIP3   OH251653   4.702   1.401   1.897 -0.6536 -0.1783  0.2869
 9153TIP3    H151654   4.658   1.434   1.819 -0.8395 -1.4221 -0.1577
 9153TIP3    H251655   4.775   1.461   1.910  0.8185 -1.2377 -2.2516
 9154TIP3   OH251656   3.621   2.727   3.293 -0.3588  0.3894 -0.3391
 9154TIP3    H151657   3.553   2.743   3.228 -0.4425  0.0650 -0.3313
 9154TIP3    H251658   3.614   2.801   3.354  0.0718  0.9771 -0.9873
 9155TIP3   OH251659   0.848   2.725   2.086  0.3005  0.0982  0.7511
 9155TIP3    H151660   0.896   2.734   2.169 -0.6643  3.1923  1.1092
 9155TIP3    H251661   0.791   2.650   2.100  3.0512 -2.0381  1.2768
 9156TIP3   OH251662   7.463   5.228   1.878 -0.0184 -0.0612 -0.6248
 9156TIP3    H151663   7.456   5.155   1.940  0.5073  0.5874  0.2164
 9156TIP3    H251664   7.378   5.271   1.882  0.3081  0.5172  0.3454
 9157TIP3   OH251665   2.319   7.266   2.049  0.3775  0.1144 -0.4467
 9157TIP3    H151666   2.400   7.231   2.084 -0.0835 -0.6675 -0.1343
 9157TIP3    H251667   2.295   7.336   2.110  1.8254  1.7271 -1.6283
 9158TIP3   OH251668   0.294   6.917   0.452 -0.3435  0.6496  0.3372
 9158TIP3    H151669   0.339   6.901   0.369  0.0352  0.8835  0.4954
 9158TIP3    H251670   0.341   6.863   0.515 -1.6851 -0.8721  0.1080
 9159TIP3   OH251671   1.463   5.866   2.070 -0.2791 -0.2700  0.4720
 9159TIP3    H151672   1.450   5.911   1.987  0.0547  0.7451  0.9592
 9159TIP3    H251673   1.522   5.794   2.049  0.7855  0.7070  0.0510
 9160TIP3   OH251674   2.772   6.741   1.264 -0.1755 -0.4481 -0.1308
 9160TIP3    H151675   2.852   6.728   1.214  0.4158 -0.9018  0.8996
 9160TIP3    H251676   2.796   6.719   1.354 -0.9719  1.1321  0.5205
 9161TIP3   OH251677   2.196   5.251   0.407  0.0704  0.1352 -0.4911
 9161TIP3    H151678   2.255   5.239   0.332 -1.5564 -1.3084 -1.6317
 9161TIP3    H251679   2.250   5.230   0.483  1.8640  1.9257 -1.1596
 9162TIP3   OH251680   2.798   0.497   2.280 -0.5952 -0.1285 -0.1854
 9162TIP3    H151681   2.844   0.556   2.339 -2.3835  0.4751  0.6902
 9162TIP3    H251682   2.747   0.440   2.337  0.2432 -1.8478 -1.0594
 9163TIP3   OH251683   6.813   5.658   1.466 -0.0495 -0.1225  0.0527
 9163TIP3    H151684   6.720   5.634   1.463 -0.0343 -0.3048  0.7687
 9163TIP3    H251685   6.859   5.576   1.447 -0.0315 -0.1000  0.0006
 9164TIP3   OH251686   0.673   7.476   2.417 -0.0274  0.0034 -0.1087
 9164TIP3    H151687   0.732   7.434   2.354  1.1464  0.1708  0.8359
 9164TIP3    H251688   0.630   7.404   2.462 -1.2315 -0.1206 -1.3695
 9165TIP3   OH251689   6.658   5.178   1.699 -0.6564  0.2683 -0.5195
 9165TIP3    H151690   6.604   5.117   1.750 -1.2665  1.4890  0.3635
 9165TIP3    H251691   6.747   5.166   1.733 -0.7818 -0.1076 -0.3209
 9166TIP3   OH251692   2.947   2.129   2.889 -0.5216 -0.0447 -0.2440
 9166TIP3    H151693   2.968   2.214   2.851  0.3544 -0.2973 -0.3489
 9166TIP3    H251694   3.008   2.120   2.962  0.4424 -1.2365 -1.1553
 9167TIP3   OH251695   4.018   4.195   3.017  0.1789  0.0481 -0.1906
 9167TIP3    H151696   4.002   4.222   2.927  0.3692  1.8451  0.2799
 9167TIP3    H251697   3.950   4.130   3.035 -1.4270  1.4608 -0.8556
 9168TIP3   OH251698   7.595   1.250   0.765  0.1935  0.4774  0.0203
 9168TIP3    H151699   7.604   1.242   0.860 -1.9240 -0.4650  0.1877
 9168TIP3    H251700   7.538   1.326   0.752 -1.5781 -0.8584 -0.3304
 9169TIP3   OH251701   5.898   6.530   3.439 -0.6830 -0.2146 -0.4741
 9169TIP3    H151702   5.874   6.615   3.403 -0.3451  0.2899  0.4898
 9169TIP3    H251703   5.993   6.527   3.432 -0.7654 -1.0878 -1.7443
 9170TIP3   OH251704   6.094   1.128   0.483  0.4262  0.2659  0.1147
 9170TIP3    H151705   6.007   1.094   0.502  0.4192  0.3148  0.1669
 9170TIP3    H251706   6.079   1.210   0.437  0.4324 -0.3553 -1.0461
 9171TIP3   OH251707   4.097   4.971   2.532  0.3938  0.3446  0.0097
 9171TIP3    H151708   4.008   4.951   2.504 -0.3567  2.4001  0.7509
 9171TIP3    H251709   4.127   4.892   2.576 -1.1369 -0.3057 -0.0499
 9172TIP3   OH251710   6.923   3.768   0.801  0.5944  0.0355 -0.5728
 9172TIP3    H151711   6.928   3.839   0.737  1.1763  1.2630  0.7558
 9172TIP3    H251712   6.849   3.793   0.858  0.9938 -0.2468  0.0838
 9173TIP3   OH251713   2.536   1.321   1.074 -0.1556  0.3382  0.0925
 9173TIP3    H151714   2.596   1.352   1.005 -2.5359  1.4026 -1.6455
 9173TIP3    H251715   2.553   1.380   1.148 -1.0911  2.6743 -1.4374
 9174TIP3   OH251716   2.795   3.538   0.810 -0.0226 -0.2386  0.1015
 9174TIP3    H151717   2.748   3.612   0.847  1.0512  1.3005 -1.4618
 9174TIP3    H251718   2.726   3.476   0.785 -1.0145  0.6229  0.6103
 9175TIP3   OH251719   6.700   2.660   0.853  0.3219 -0.2910 -0.3863
 9175TIP3    H151720   6.722   2.625   0.939 -0.0693  0.3437 -0.0210
 9175TIP3    H251721   6.654   2.742   0.871  0.0177 -0.2731 -1.1929
 9176TIP3   OH251722   3.072   1.818   1.275 -0.3667 -0.0166 -0.2370
 9176TIP3    H151723   3.089   1.744   1.218  0.8062 -1.5766  1.9781
 9176TIP3    H251724   3.088   1.895   1.220  1.7028 -1.4050 -1.7473
 9177TIP3   OH251725   4.223   1.823   2.230 -0.3381 -0.2630  0.0586
 9177TIP3    H151726   4.252   1.732   2.231  0.0552 -0.1441 -0.4433
 9177TIP3    H251727   4.303   1.874   2.240 -0.5686  0.0294  0.4223
 9178TIP3   OH251728   5.664   6.784   2.548 -0.0236 -0.0369  0.1346
 9178TIP3    H151729   5.695   6.721   2.612 -2.4832 -1.0289  0.4775
 9178TIP3    H251730   5.633   6.730   2.475 -0.7470  0.8490 -0.2340
 9179TIP3   OH251731   1.383   1.323   2.454 -0.0736  0.1210  0.1482
 9179TIP3    H151732   1.349   1.238   2.482  1.2769 -0.2152  0.8719
 9179TIP3    H251733   1.477   1.308   2.442 -0.0699  1.1116 -1.3429
 9180TIP3   OH251734   4.087   1.318   1.853  0.2869  0.4442 -0.4872
 9180TIP3    H151735   4.044   1.242   1.893 -1.4253  2.1224  1.0358
 9180TIP3    H251736   4.159   1.340   1.912 -0.7051  1.4177  0.3930
 9181TIP3   OH251737   4.718   4.198   2.338  0.0246 -0.3427 -0.3681
 9181TIP3    H151738   4.629   4.166   2.346  0.8891 -2.8348  0.1106
 9181TIP3    H251739   4.772   4.130   2.379  2.0360  1.8829  0.9551
 9182TIP3   OH251740   4.048   7.193   2.236 -0.3357 -0.2018 -0.3313
 9182TIP3    H151741   4.065   7.284   2.212  0.6688 -0.3580 -0.2526
 9182TIP3    H251742   4.019   7.198   2.327 -3.1573  0.2924 -1.1573
 9183TIP3   OH251743   5.415   0.255   0.740 -0.5388 -0.0613  0.8020
 9183TIP3    H151744   5.342   0.194   0.729 -0.1258 -0.0644 -3.4003
 9183TIP3    H251745   5.379   0.341   0.717  0.6322 -0.0642 -1.3753
 9184TIP3   OH251746   7.557   0.979   1.560 -0.0013  0.0046  0.1186
 9184TIP3    H151747   7.567   0.958   1.467 -1.0426 -1.0249  0.2104
 9184TIP3    H251748   7.627   0.930   1.603  0.6791  0.7306 -0.1358
 9185TIP3   OH251749   7.624   1.846   2.620 -0.8366  0.2115  0.7066
 9185TIP3    H151750   7.653   1.937   2.628 -0.0369 -0.1715  3.4971
 9185TIP3    H251751   7.574   1.830   2.701  0.1595 -2.1772  0.9263
 9186TIP3   OH251752   1.870   0.268   1.376 -0.2250  0.0460 -0.0165
 9186TIP3    H151753   1.938   0.222   1.327  0.7578  0.4116  0.9395
 9186TIP3    H251754   1.788   0.238   1.339  0.4640 -0.4093 -1.2108
 9187TIP3   OH251755   6.284   4.087   2.615  0.2588 -0.3927 -0.0147
 9187TIP3    H151756   6.371   4.113   2.585  0.6995  0.8229  2.1092
 9187TIP3    H251757   6.233   4.168   2.615  0.0930 -0.4527  1.7037
 9188TIP3   OH251758   4.050   0.851   1.865  0.3995  0.0215 -0.1056
 9188TIP3    H151759   4.125   0.825   1.918  0.3484  1.1501  0.5642
 9188TIP3    H251760   3.997   0.772   1.857  0.5148 -0.2387  1.3959
 9189TIP3   OH251761   3.324   3.434   2.915 -0.3759 -0.2827  0.0291
 9189TIP3    H151762   3.243   3.425   2.964 -0.3519  0.1871  0.1657
 9189TIP3    H251763   3.393   3.410   2.977 -0.2607  1.4332  0.6147
 9190TIP3   OH251764   5.881   4.905   1.749 -0.2386 -0.6380 -0.4930
 9190TIP3    H151765   5.948   4.955   1.796 -1.3326 -1.3534  1.9759
 9190TIP3    H251766   5.895   4.928   1.657  1.6711  1.2756  0.1783
 9191TIP3   OH251767   5.964   1.389   0.371  0.6791  0.2386  0.2563
 9191TIP3    H151768   5.871   1.369   0.358  0.5845 -0.0729  1.3565
 9191TIP3    H251769   5.990   1.431   0.289 -0.0428 -1.0511 -0.6894
 9192TIP3   OH251770   7.481   1.363   2.115 -0.5371  0.2021 -0.7554
 9192TIP3    H151771   7.547   1.384   2.181  0.8513 -0.6577 -1.8025
 9192TIP3    H251772   7.501   1.421   2.042 -1.9324  1.0096 -0.5173
 9193TIP3   OH251773   6.967   6.256   2.684  0.2794  0.0436 -0.1697
 9193TIP3    H151774   7.005   6.281   2.768  0.3275 -0.0342 -0.1682
 9193TIP3    H251775   6.923   6.173   2.701 -0.1927  0.3089 -0.0896
 9194TIP3   OH251776   0.052   7.643   2.643  0.2452 -0.4945  0.3110
 9194TIP3    H151777   0.046   7.631   2.549  3.2243  0.1631 -0.0412
 9194TIP3    H251778  -0.005   7.575   2.679 -0.6536 -1.0123 -1.9030
 9195TIP3   OH251779   5.409   0.629   2.376 -0.1725 -0.0335 -0.2990
 9195TIP3    H151780   5.317   0.653   2.369 -0.1284  0.1642 -0.1990
 9195TIP3    H251781   5.420   0.603   2.467  0.3010  1.7627  0.1964
 9196TIP3   OH251782   2.105   0.163   1.273 -0.0992  0.0429 -0.4561
 9196TIP3    H151783   2.155   0.088   1.241 -2.2380 -1.1538 -1.1312
 9196TIP3    H251784   2.134   0.236   1.218  1.5544 -0.3829 -0.2060
 9197TIP3   OH251785   5.595   2.057   1.142 -0.5337 -0.6183 -0.2085
 9197TIP3    H151786   5.635   2.061   1.055  1.1878  1.0246  0.5821
 9197TIP3    H251787   5.622   1.972   1.177  2.1155  0.2815  0.1532
 9198TIP3   OH251788   6.060   0.864   1.732  0.4450 -0.7902  0.0609
 9198TIP3    H151789   6.006   0.788   1.755  0.3510 -1.4566 -2.0584
 9198TIP3    H251790   6.147   0.827   1.714  1.2966  0.0843  2.0890
 9199TIP3   OH251791   0.054   4.121   1.324  0.0560 -0.1544 -0.7468
 9199TIP3    H151792  -0.005   4.140   1.396 -0.1353 -2.1398 -0.3402
 9199TIP3    H251793   0.142   4.131   1.361 -0.0390 -1.7435 -0.0452
 9200TIP3   OH251794   5.175   6.672   2.220  0.5306  0.3364 -0.3753
 9200TIP3    H151795   5.268   6.668   2.199  0.8298 -0.5061  0.9572
 9200TIP3    H251796   5.160   6.763   2.246  1.4499  0.0936  1.1923
 9201TIP3   OH251797   4.382   5.085   0.448  0.2710  0.0329 -0.6357
 9201TIP3    H151798   4.293   5.121   0.446 -0.6703 -2.0016  0.9530
 9201TIP3    H251799   4.435   5.155   0.486 -1.1074  0.5026  0.5087
 9202TIP3   OH251800   6.058   6.946   1.692 -0.0947 -0.3938  0.2446
 9202TIP3    H151801   6.153   6.943   1.683 -0.1552  1.1636 -1.4133
 9202TIP3    H251802   6.041   7.013   1.758 -0.0658  0.0071 -0.1551
 9203TIP3   OH251803   2.195   4.439   3.242 -0.1991 -0.3032  0.0116
 9203TIP3    H151804   2.218   4.531   3.228 -1.7391  0.1635  0.3253
 9203TIP3    H251805   2.119   4.425   3.185  0.6372 -1.6868 -0.7979
 9204TIP3   OH251806   2.554   7.323   1.879  0.0173 -0.6394  0.3277
 9204TIP3    H151807   2.467   7.301   1.913  0.2591 -0.1933  1.2604
 9204TIP3    H251808   2.567   7.414   1.906  1.0537 -0.9172  0.7891
 9205TIP3   OH251809   7.470   0.706   0.965 -0.2071 -0.3870  0.8055
 9205TIP3    H151810   7.514   0.757   0.897 -0.7123 -0.6927  0.2460
 9205TIP3    H251811   7.413   0.768   1.009 -0.7156 -0.4354  0.2176
 9206TIP3   OH251812   0.207   6.969   1.430 -0.0266 -0.1229  0.0860
 9206TIP3    H151813   0.154   7.038   1.391  0.5171  0.1247 -0.2258
 9206TIP3    H251814   0.150   6.929   1.496 -1.6159 -1.7226 -2.1178
 9207TIP3   OH251815   5.615   3.738   1.649 -0.4493 -0.1986 -0.0654
 9207TIP3    H151816   5.535   3.784   1.623  0.2249  1.4168  0.5470
 9207TIP3    H251817   5.585   3.651   1.676 -2.0186  0.3911  0.2441
 9208TIP3   OH251818   5.135   0.671   2.418 -0.2363 -0.0874 -0.4590
 9208TIP3    H151819   5.184   0.752   2.404  1.5201 -0.9041  0.5873
 9208TIP3    H251820   5.062   0.697   2.474 -0.3054  0.9405 -0.9970
 9209TIP3   OH251821   2.149   2.433   2.810  0.1927 -0.2884 -0.5820
 9209TIP3    H151822   2.153   2.395   2.722  0.3285  2.8508 -2.0383
 9209TIP3    H251823   2.175   2.524   2.798  3.2633 -0.4416  3.2327
 9210TIP3   OH251824   6.505   0.886   1.525 -0.0042 -0.1117  0.4239
 9210TIP3    H151825   6.569   0.911   1.458 -1.1900  1.9610 -0.0348
 9210TIP3    H251826   6.541   0.919   1.607 -0.3266  0.7891  0.2106
 9211TIP3   OH251827   4.703   4.092   0.611 -0.1206 -0.5881  0.2037
 9211TIP3    H151828   4.735   4.179   0.586  0.0725 -0.5551  0.5604
 9211TIP3    H251829   4.659   4.105   0.694  1.0340 -1.0398  0.9167
 9212TIP3   OH251830   5.801   4.284   1.513 -0.3683  0.2497  0.2638
 9212TIP3    H151831   5.857   4.211   1.538 -1.3914 -1.3606 -1.7602
 9212TIP3    H251832   5.735   4.289   1.582  0.1008 -0.3224  0.7612
 9213TIP3   OH251833   4.546   3.117   1.169 -0.4969 -0.0777 -0.3483
 9213TIP3    H151834   4.460   3.086   1.142 -0.3776 -1.2557  0.5558
 9213TIP3    H251835   4.527   3.193   1.225 -1.0882 -1.3963  1.3251
 9214TIP3   OH251836   0.542   7.100   1.392  0.1648 -0.0401 -0.5623
 9214TIP3    H151837   0.610   7.041   1.361  0.2801 -0.7003  0.8948
 9214TIP3    H251838   0.466   7.044   1.409 -0.3002  0.4870 -0.8499
 9215TIP3   OH251839   0.833   3.121   2.208 -0.1689 -0.3250 -0.2413
 9215TIP3    H151840   0.839   3.199   2.265 -0.7511  0.2774 -0.9817
 9215TIP3    H251841   0.922   3.110   2.174 -0.0013 -0.2048  0.1415
 9216TIP3   OH251842   5.215   0.126   1.322 -0.1522  0.1182  0.0402
 9216TIP3    H151843   5.260   0.209   1.310 -0.8271  0.4134 -0.4923
 9216TIP3    H251844   5.238   0.074   1.245  0.6318 -0.3700  0.5875
 9217TIP3   OH251845   7.588   2.671   2.830 -0.4190 -0.1556  0.1386
 9217TIP3    H151846   7.516   2.630   2.878 -0.5391  0.0607  0.1436
 9217TIP3    H251847   7.648   2.700   2.899 -0.8610  0.6605  0.1906
 9218TIP3   OH251848   7.160   4.228   2.306 -0.0016 -0.1020  0.7076
 9218TIP3    H151849   7.143   4.322   2.296  0.5823 -0.0209  0.4402
 9218TIP3    H251850   7.252   4.217   2.279 -0.4713 -0.9747 -0.6163
 9219TIP3   OH251851   3.384   2.981   1.109  0.3569  0.4036 -0.2582
 9219TIP3    H151852   3.317   2.971   1.042 -0.6564  0.8117  0.6706
 9219TIP3    H251853   3.336   2.981   1.192  1.4241  1.4467  0.3933
 9220TIP3   OH251854   0.425   4.476   1.260  0.6244 -0.6156 -0.0921
 9220TIP3    H151855   0.393   4.565   1.243  1.2707 -0.4324 -0.3809
 9220TIP3    H251856   0.390   4.455   1.347  1.6151  0.4701  0.6108
 9221TIP3   OH251857   0.572   5.279   1.684 -0.3071  0.2560  0.7186
 9221TIP3    H151858   0.578   5.185   1.700 -0.3399 -0.1615 -1.5082
 9221TIP3    H251859   0.538   5.287   1.595 -1.4626  2.4033  1.2873
 9222TIP3   OH251860   3.523   0.262   1.997  0.0932 -0.1868  0.2304
 9222TIP3    H151861   3.439   0.244   1.955 -0.2424  1.1848  0.2565
 9222TIP3    H251862   3.584   0.274   1.925  0.3284 -1.3587  0.2132
 9223TIP3   OH251863   6.551   2.877   0.932  0.2835 -0.3068 -0.7023
 9223TIP3    H151864   6.498   2.956   0.918 -0.5182 -0.2479  2.0843
 9223TIP3    H251865   6.527   2.847   1.019  2.7406 -1.9900 -0.4971
 9224TIP3   OH251866   7.284   4.440   1.153  0.3904  0.4652  0.0083
 9224TIP3    H151867   7.320   4.495   1.223  0.2908  1.0784 -0.4206
 9224TIP3    H251868   7.206   4.401   1.192  0.7888  0.1432  0.5121
 9225TIP3   OH251869   7.660   4.863   1.034  0.0187  0.2054 -0.3916
 9225TIP3    H151870   7.649   4.924   1.107  0.5822  0.9354 -0.8987
 9225TIP3    H251871   7.572   4.829   1.019 -0.7667  2.4549 -1.4138
 9226TIP3   OH251872   3.730   7.276   0.448 -0.1913  0.2208  0.0569
 9226TIP3    H151873   3.782   7.352   0.424  0.3558 -0.1106  0.1631
 9226TIP3    H251874   3.794   7.211   0.476 -0.6462 -0.2874 -0.0564
 9227TIP3   OH251875   0.062   0.297   0.455 -0.2562 -0.3794  0.4696
 9227TIP3    H151876   0.114   0.236   0.508 -0.5165  0.1472  1.3546
 9227TIP3    H251877   0.046   0.250   0.373  2.1313 -0.3384 -0.1019
 9228TIP3   OH251878   5.893   5.458   1.737  0.3548 -0.1856  0.2654
 9228TIP3    H151879   5.861   5.440   1.649  0.9255 -0.7482  0.1666
 9228TIP3    H251880   5.951   5.385   1.757  2.4512  1.3020  0.0041
 9229TIP3   OH251881   4.235   6.495   2.861 -0.3104 -0.3172 -0.1450
 9229TIP3    H151882   4.207   6.409   2.892  0.4970  0.3448  2.6892
 9229TIP3    H251883   4.322   6.481   2.826 -0.7693 -0.8803 -1.1041
 9230TIP3   OH251884   6.834   2.678   1.295  0.0465  0.3685 -0.0641
 9230TIP3    H151885   6.810   2.765   1.265 -0.8827  0.6050  1.2703
 9230TIP3    H251886   6.923   2.687   1.328 -0.0315  0.7946  0.0271
 9231TIP3   OH251887   0.130   3.082   2.442 -0.6261 -0.8804  0.2120
 9231TIP3    H151888   0.220   3.114   2.442 -0.4409 -1.3280  1.6989
 9231TIP3    H251889   0.098   3.099   2.353  1.3165 -1.8311 -0.7156
 9232TIP3   OH251890   2.066   5.345   1.808 -0.5989  0.1868  0.0182
 9232TIP3    H151891   2.095   5.278   1.746 -0.0734  2.2584 -2.1054
 9232TIP3    H251892   2.142   5.362   1.863 -0.1307  0.3309 -0.6566
 9233TIP3   OH251893   1.989   5.998   0.680  0.4776 -0.4549  0.9560
 9233TIP3    H151894   2.041   5.918   0.688  1.2471  0.0204  0.8011
 9233TIP3    H251895   2.028   6.058   0.743 -0.3300 -0.3078  1.3379
 9234TIP3   OH251896   0.475   3.044   2.501 -0.4605 -0.3051  0.0475
 9234TIP3    H151897   0.562   3.004   2.504  0.4206  1.1448 -2.5862
 9234TIP3    H251898   0.480   3.116   2.565  1.0192  0.9224 -1.3406
 9235TIP3   OH251899   7.415   4.780   2.196  0.1115 -0.4522 -0.0316
 9235TIP3    H151900   7.328   4.800   2.232 -0.6139 -1.9597 -0.8224
 9235TIP3    H251901   7.469   4.764   2.273 -0.4329  0.0252  0.4637
 9236TIP3   OH251902   4.337   6.979   2.619  0.1896  0.1735  0.2263
 9236TIP3    H151903   4.341   6.899   2.568  0.3261  1.2323 -1.5158
 9236TIP3    H251904   4.429   7.002   2.636  0.1727  0.3416  0.0922
 9237TIP3   OH251905   7.296   7.189   1.870 -0.1061  0.5117 -0.3317
 9237TIP3    H151906   7.329   7.253   1.808 -0.3630  1.6436  0.6463
 9237TIP3    H251907   7.368   7.129   1.884  1.0003  1.9688  0.5073
 9238TIP3   OH251908   7.366   0.892   1.842  0.5160  0.2091 -0.3723
 9238TIP3    H151909   7.408   0.810   1.868  1.8242  0.6717 -0.9839
 9238TIP3    H251910   7.350   0.883   1.748 -0.8313  0.0325 -0.1589
 9239TIP3   OH251911   5.343   5.611   3.225  0.0765  0.5114  0.1550
 9239TIP3    H151912   5.271   5.667   3.256 -0.6221 -0.7531  0.8805
 9239TIP3    H251913   5.405   5.673   3.186 -1.0369  1.7164  0.1967
 9240TIP3   OH251914   5.290   1.569   2.484  0.7541 -0.1599 -0.1063
 9240TIP3    H151915   5.212   1.531   2.526  0.4891 -0.7368 -1.0910
 9240TIP3    H251916   5.265   1.658   2.463  0.2596 -0.4261 -0.6601
 9241TIP3   OH251917   5.981   0.165   3.852  0.4945 -0.7398 -0.0833
 9241TIP3    H151918   5.913   0.099   3.839  1.0654 -1.4534  0.5228
 9241TIP3    H251919   5.941   0.246   3.819  0.2855 -1.6196 -2.1046
 9242TIP3   OH251920   0.844   5.645   2.320  0.0486 -0.3648 -0.4415
 9242TIP3    H151921   0.814   5.600   2.399 -0.4276 -0.1208 -0.4764
 9242TIP3    H251922   0.777   5.626   2.254 -0.2421  0.4989 -0.4142
 9243TIP3   OH251923   7.600   5.933   1.273 -0.3881 -0.1610 -0.1193
 9243TIP3    H151924   7.562   5.916   1.359  0.0868 -0.7726 -0.0232
 9243TIP3    H251925   7.542   5.888   1.211 -1.5684  1.4784 -0.2891
 9244TIP3   OH251926   0.280   4.933   0.740 -0.0286 -0.3371 -0.6710
 9244TIP3    H151927   0.297   4.839   0.742  0.0949 -0.2994  0.5237
 9244TIP3    H251928   0.195   4.943   0.781 -0.8328 -0.0601 -2.3086
 9245TIP3   OH251929   1.147   5.198   3.127  0.3176  0.1334  0.4514
 9245TIP3    H151930   1.141   5.272   3.188  0.0832  1.2049 -0.8222
 9245TIP3    H251931   1.111   5.232   3.045  1.6855 -0.8955 -0.6131
 9246TIP3   OH251932   3.017   6.741   1.780 -0.3093 -0.2659  0.2043
 9246TIP3    H151933   2.947   6.704   1.834  1.3076 -2.3278  1.0205
 9246TIP3    H251934   3.054   6.665   1.734  0.9733  0.8631 -0.6894
 9247TIP3   OH251935   5.823   2.847   1.281  0.3056  0.5779 -0.2874
 9247TIP3    H151936   5.907   2.877   1.247  0.2795  1.3579  0.3127
 9247TIP3    H251937   5.831   2.751   1.285  0.2757  0.4468 -2.5295
 9248TIP3   OH251938   3.617   4.970   3.354  0.2189  0.2759  0.1953
 9248TIP3    H151939   3.641   5.061   3.373  1.0594  0.3707 -1.1681
 9248TIP3    H251940   3.523   4.973   3.338  0.3921  1.0884 -0.7464
 9249TIP3   OH251941   6.967   5.186   0.806 -0.1083 -0.1602  0.7783
 9249TIP3    H151942   6.965   5.277   0.779  2.3257 -0.1712  0.3561
 9249TIP3    H251943   6.916   5.183   0.887 -1.5199  1.2403 -0.0190
 9250TIP3   OH251944   3.124   3.869   2.594 -0.4112  0.2052 -0.1644
 9250TIP3    H151945   3.077   3.794   2.556 -1.6013  0.8574 -0.0181
 9250TIP3    H251946   3.090   3.945   2.546 -0.1585  0.7783  0.5553
 9251TIP3   OH251947   3.805   1.183   1.412 -0.3577  0.7239 -0.2162
 9251TIP3    H151948   3.757   1.265   1.402  0.7467  1.6502  1.4906
 9251TIP3    H251949   3.887   1.197   1.365 -1.1843 -0.4053 -2.1001
 9252TIP3   OH251950   4.028   6.290   1.498  0.3105  0.4174 -0.2626
 9252TIP3    H151951   4.022   6.289   1.594 -0.6323  0.3617 -0.3083
 9252TIP3    H251952   4.087   6.362   1.478  1.3547 -0.2316  0.3902
 9253TIP3   OH251953   5.731   6.012   2.040 -0.1968  0.1009 -0.4727
 9253TIP3    H151954   5.784   6.042   1.966 -0.9279 -0.5053 -1.2644
 9253TIP3    H251955   5.722   5.918   2.027 -1.9097  0.2473 -0.6870
 9254TIP3   OH251956   7.104   0.187   1.247  0.4047 -0.6752 -0.1072
 9254TIP3    H151957   7.076   0.117   1.188  0.3194 -1.6782  1.0618
 9254TIP3    H251958   7.196   0.203   1.224  0.1304 -0.4436 -1.0646
 9255TIP3   OH251959   0.467   2.381   1.424 -0.7833  0.5997 -0.3555
 9255TIP3    H151960   0.447   2.287   1.427 -0.8417  0.6223  0.1170
 9255TIP3    H251961   0.540   2.388   1.362  0.2568  0.0366  0.7428
 9256TIP3   OH251962   2.951   7.095   1.770  0.4711 -0.4950  0.0468
 9256TIP3    H151963   3.033   7.046   1.784  0.7309 -0.1712 -0.3112
 9256TIP3    H251964   2.979   7.175   1.725 -0.0232 -0.2907  0.1032
 9257TIP3   OH251965   5.006   2.629   2.602  0.8442  0.1244  0.0266
 9257TIP3    H151966   5.065   2.630   2.677  0.4914 -1.8637  0.3866
 9257TIP3    H251967   4.935   2.688   2.627  0.7259 -0.5112  1.2728
 9258TIP3   OH251968   6.743   1.962   2.767 -0.1916 -0.0649 -0.2883
 9258TIP3    H151969   6.700   2.022   2.705 -0.4349 -0.4676 -0.5152
 9258TIP3    H251970   6.671   1.925   2.817  0.0425  0.6204  0.5776
 9259TIP3   OH251971   0.023   6.048   2.290 -0.0626 -0.6392 -0.0558
 9259TIP3    H151972  -0.069   6.050   2.313 -0.8289  1.8812 -2.7533
 9259TIP3    H251973   0.031   5.976   2.227 -0.5099 -0.1139 -0.7338
 9260TIP3   OH251974   4.515   3.867   1.025 -0.4871 -0.1570 -0.6624
 9260TIP3    H151975   4.609   3.858   1.010  0.2201 -0.3534  3.0050
 9260TIP3    H251976   4.503   3.961   1.044 -0.1786 -0.6642  2.6979
 9261TIP3   OH251977   1.622   6.033   1.619  0.0098  0.0294 -0.2665
 9261TIP3    H151978   1.688   6.101   1.603  0.8897 -0.7817 -0.1686
 9261TIP3    H251979   1.550   6.057   1.561  0.8610  0.2928 -1.2546
 9262TIP3   OH251980   3.481   4.144   3.208  0.2339  0.3759 -0.5153
 9262TIP3    H151981   3.437   4.177   3.129 -0.2311  0.1425 -0.3558
 9262TIP3    H251982   3.566   4.115   3.176 -0.3175 -0.6256 -1.1208
 9263TIP3   OH251983   5.786   4.313   1.886  0.3420  0.0048  0.4815
 9263TIP3    H151984   5.856   4.248   1.893  1.9990  1.6822  0.2242
 9263TIP3    H251985   5.818   4.388   1.938 -1.3903  0.7195  0.5722
 9264TIP3   OH251986   7.403   4.249   1.894  0.2584 -0.3734 -0.1834
 9264TIP3    H151987   7.367   4.208   1.816  1.0752  1.5466 -1.6313
 9264TIP3    H251988   7.344   4.322   1.912  1.0291  0.2196 -0.0188
 9265TIP3   OH251989   3.055   4.852   1.408 -0.2287  0.2958  0.4165
 9265TIP3    H151990   2.994   4.923   1.391  0.1131  0.2710 -1.0130
 9265TIP3    H251991   3.140   4.886   1.380  0.4177  0.2831  2.2397
 9266TIP3   OH251992   6.803   5.654   2.727  0.1595  0.3958 -0.2720
 9266TIP3    H151993   6.744   5.602   2.781  1.0579 -0.4352 -0.0497
 9266TIP3    H251994   6.764   5.741   2.725 -0.0730  0.3625  1.4585
 9267TIP3   OH251995   0.514   6.530   0.835  0.2160  0.0861 -0.3426
 9267TIP3    H151996   0.529   6.442   0.870  1.5527  0.3718 -0.1326
 9267TIP3    H251997   0.425   6.552   0.862  0.7854 -0.1532  1.9195
 9268TIP3   OH251998   5.824   7.498   1.064 -0.2935  0.0739  0.6887
 9268TIP3    H151999   5.890   7.460   1.006  0.2684 -0.6872  1.7832
 9268TIP3    H252000   5.875   7.536   1.136 -0.9743  1.0486  0.6792
 9269TIP3   OH252001   7.615   6.670   3.413  0.7707  0.2922 -0.0048
 9269TIP3    H152002   7.528   6.699   3.441  0.4953 -1.9665  1.7156
 9269TIP3    H252003   7.604   6.652   3.320 -0.5211  0.3753  0.1032
 9270TIP3   OH252004   6.783   2.287   2.179  0.1027  0.1161  0.2087
 9270TIP3    H152005   6.738   2.316   2.258 -0.6882 -0.4652 -0.0199
 9270TIP3    H252006   6.768   2.357   2.116 -1.2311 -0.4603 -0.1352
 9271TIP3   OH252007   6.446   4.332   2.044 -0.1554 -0.0507 -0.2723
 9271TIP3    H152008   6.469   4.277   2.119  1.0568  1.7141  0.7158
 9271TIP3    H252009   6.353   4.313   2.029  0.6482 -4.0849 -1.5307
 9272TIP3   OH252010   6.291   1.993   0.685  0.7857  0.1291  0.2357
 9272TIP3    H152011   6.328   1.966   0.769  3.0317  0.7135 -0.4805
 9272TIP3    H252012   6.287   1.913   0.633  0.8419  0.0169  0.4058
 9273TIP3   OH252013   6.334   2.083   2.243 -0.3405 -0.0720 -0.1734
 9273TIP3    H152014   6.341   2.052   2.153 -0.8661 -1.4434  0.2344
 9273TIP3    H252015   6.380   2.017   2.295 -1.9567 -0.5103  0.7793
 9274TIP3   OH252016   0.575   0.325   2.074  0.0870  0.3162  0.6287
 9274TIP3    H152017   0.572   0.256   2.140 -0.7846  0.2121  0.4957
 9274TIP3    H252018   0.486   0.361   2.072  0.4559  1.2555  0.4966
 9275TIP3   OH252019   0.184   0.189   2.724 -0.5053  0.3678 -0.2006
 9275TIP3    H152020   0.244   0.185   2.650  0.3713  0.4704  0.4920
 9275TIP3    H252021   0.129   0.111   2.715  0.9709 -0.7682  0.1811
 9276TIP3   OH252022   2.258   4.635   1.031  0.4419 -0.4621 -0.7109
 9276TIP3    H152023   2.278   4.584   1.110  0.5478 -1.0099 -1.0891
 9276TIP3    H252024   2.341   4.639   0.984  0.4689  0.1878 -0.6112
 9277TIP3   OH252025   2.650   7.069   0.750 -0.3771 -0.2043 -0.4662
 9277TIP3    H152026   2.652   7.101   0.841 -0.6604  1.4636 -1.0034
 9277TIP3    H252027   2.557   7.073   0.726 -0.1529  0.7394 -1.2529
 9278TIP3   OH252028   5.675   7.525   2.637 -0.2749 -0.0069  0.3823
 9278TIP3    H152029   5.682   7.546   2.544  0.7578 -1.6818  0.0275
 9278TIP3    H252030   5.582   7.524   2.655 -0.5544 -0.8500 -0.9557
 9279TIP3   OH252031   5.541   1.392   1.958  0.3461  0.2135 -0.3932
 9279TIP3    H152032   5.577   1.478   1.981  1.6053 -0.1827 -0.8050
 9279TIP3    H252033   5.483   1.370   2.031  0.4478  1.1645 -0.0161
 9280TIP3   OH252034   3.225   4.452   0.535 -0.2342 -0.3500  0.1263
 9280TIP3    H152035   3.233   4.547   0.535  2.0226 -0.4340 -1.9764
 9280TIP3    H252036   3.311   4.421   0.564  0.0219 -1.7044 -1.9080
 9281TIP3   OH252037   2.860   6.976   2.925  0.3667  0.4119  0.4145
 9281TIP3    H152038   2.814   7.054   2.896 -2.5055 -0.5407  1.9758
 9281TIP3    H252039   2.902   6.942   2.846 -1.9224  1.2245 -1.2688
 9282TIP3   OH252040   7.088   0.668   1.174 -0.0327  0.1457 -0.0637
 9282TIP3    H152041   7.173   0.660   1.217 -0.2975  2.6011  1.0978
 9282TIP3    H252042   7.042   0.587   1.196  1.1990 -0.2672  1.1377
 9283TIP3   OH252043   6.787   2.581   2.469  0.1678 -0.1473  0.2703
 9283TIP3    H152044   6.737   2.658   2.442 -0.1501 -0.4776 -0.1086
 9283TIP3    H252045   6.849   2.567   2.397 -0.0581 -0.4871  0.1369
 9284TIP3   OH252046   6.919   0.062   3.390 -0.1857  0.5819  0.8029
 9284TIP3    H152047   6.889   0.039   3.478 -1.0519 -1.1136  0.1130
 9284TIP3    H252048   6.958  -0.019   3.357  4.2403  2.2873  1.1718
 9285TIP3   OH252049   6.561   4.852   2.518 -0.2860 -0.2309 -0.6222
 9285TIP3    H152050   6.567   4.932   2.570 -1.1001 -1.0797  0.8200
 9285TIP3    H252051   6.652   4.823   2.508 -0.1880 -0.9618  1.8463
 9286TIP3   OH252052   3.297   6.355   1.059  0.2798  0.4145 -0.2642
 9286TIP3    H152053   3.382   6.359   1.104 -0.9393 -0.3044  2.2994
 9286TIP3    H252054   3.284   6.443   1.025  1.6990  0.7523 -0.0027
 9287TIP3   OH252055   6.724   0.360   1.409  0.2657  0.3790 -0.1530
 9287TIP3    H152056   6.715   0.444   1.365 -0.5207 -0.1804 -1.1162
 9287TIP3    H252057   6.645   0.353   1.463  1.1364  0.9779  1.2181
 9288TIP3   OH252058   3.523   2.805   1.710 -0.2473 -0.2665 -0.6434
 9288TIP3    H152059   3.595   2.810   1.648  0.0801 -0.5081 -0.2891
 9288TIP3    H252060   3.530   2.717   1.748  0.0501  0.1539  0.3101
 9289TIP3   OH252061   2.133   7.449   0.376  0.2473 -0.1404 -0.3268
 9289TIP3    H152062   2.141   7.543   0.395 -0.0161  0.1977 -1.7726
 9289TIP3    H252063   2.041   7.429   0.389  0.2706 -0.1566 -0.1877
 9290TIP3   OH252064   6.268   2.569   1.471  0.0424  0.0602  0.4286
 9290TIP3    H152065   6.330   2.515   1.520 -0.7050 -1.5874 -0.3718
 9290TIP3    H252066   6.255   2.523   1.388 -1.7477  0.6672  0.3115
 9291TIP3   OH252067   3.363   4.067   1.901  0.1817  0.0234 -0.4708
 9291TIP3    H152068   3.437   4.040   1.847 -0.2529 -0.8250 -0.6566
 9291TIP3    H252069   3.364   4.006   1.975 -0.1307  0.2221 -0.3013
 9292TIP3   OH252070   7.582   0.235   3.443  0.6674  0.6593  0.0487
 9292TIP3    H152071   7.505   0.189   3.476 -0.3841  0.9151 -1.9050
 9292TIP3    H252072   7.648   0.167   3.432 -0.8410 -0.5476 -2.7458
 9293TIP3   OH252073   4.433   1.813   1.343 -0.0491 -0.4063 -0.1360
 9293TIP3    H152074   4.387   1.729   1.334 -2.5039  0.8467 -0.1386
 9293TIP3    H252075   4.479   1.805   1.427 -0.7998 -1.5300  0.2090
 9294TIP3   OH252076   3.034   2.691   1.430 -0.0659  0.6291  0.2371
 9294TIP3    H152077   2.961   2.636   1.459  2.5357 -3.1871  0.2345
 9294TIP3    H252078   3.095   2.691   1.504  0.8912  1.9269 -0.5020
 9295TIP3   OH252079   4.285   5.918   0.951 -0.2880  0.1159  0.6200
 9295TIP3    H152080   4.333   5.866   0.887  1.7461 -0.9150  2.8430
 9295TIP3    H252081   4.245   5.989   0.900  2.3806  0.1681 -1.6107
 9296TIP3   OH252082   4.157   4.090   0.640  0.0501  0.4354  0.2687
 9296TIP3    H152083   4.234   4.125   0.596  0.7586 -1.5341 -0.1529
 9296TIP3    H252084   4.192   4.042   0.715 -0.8491  0.3591  0.6556
 9297TIP3   OH252085   2.375   2.423   3.001  0.2741 -0.8859  0.0515
 9297TIP3    H152086   2.291   2.430   2.956 -0.6633  0.8556  1.9306
 9297TIP3    H252087   2.427   2.496   2.966  0.3102 -0.7989  0.2874
 9298TIP3   OH252088   0.775   3.188   1.859 -0.7462 -0.0642 -0.0738
 9298TIP3    H152089   0.826   3.222   1.932  1.8971 -1.8870 -0.9260
 9298TIP3    H252090   0.777   3.257   1.793 -0.3046  0.2963  0.3148
 9299TIP3   OH252091   0.828   4.637   1.665 -0.3481 -0.1331  0.3653
 9299TIP3    H152092   0.886   4.654   1.590 -1.6415  3.5608  0.0069
 9299TIP3    H252093   0.762   4.577   1.631  0.1171  0.0337 -0.8828
 9300TIP3   OH252094   1.142   4.336   2.198  0.1029 -0.3251  0.3255
 9300TIP3    H152095   1.057   4.332   2.242  0.4258 -0.8967  0.9206
 9300TIP3    H252096   1.159   4.429   2.187 -0.8770 -0.2134 -0.3608
 9301TIP3   OH252097   1.856   0.217   0.784 -0.0250  0.2291  0.5906
 9301TIP3    H152098   1.889   0.290   0.731 -2.3417  0.8718 -0.1056
 9301TIP3    H252099   1.906   0.141   0.755 -1.1930  0.5467 -2.6369
 9302TIP3   OH252100   0.468   0.834   1.753  0.1529  0.1922  0.1366
 9302TIP3    H152101   0.415   0.907   1.784  0.7903  0.7530 -0.0838
 9302TIP3    H252102   0.487   0.854   1.662 -2.8560 -2.0951 -1.2026
 9303TIP3   OH252103   2.316   5.148   1.063  0.1347 -0.5134 -1.0245
 9303TIP3    H152104   2.328   5.060   1.028  1.4274 -0.8081  0.0905
 9303TIP3    H252105   2.232   5.177   1.026 -0.9504 -2.6772 -0.4051
 9304TIP3   OH252106   6.922   6.595   1.832  0.4543  0.0407  0.4547
 9304TIP3    H152107   6.834   6.611   1.798  0.6389 -2.2547 -1.3144
 9304TIP3    H252108   6.976   6.662   1.788 -0.1487  0.4188  0.2738
 9305TIP3   OH252109   1.480   7.653   1.847 -0.3463  0.1519 -0.0355
 9305TIP3    H152110   1.468   7.576   1.792  0.7969  0.1359 -0.2997
 9305TIP3    H252111   1.413   7.714   1.819  0.0633  0.0462 -1.2712
 9306TIP3   OH252112   5.924   2.335   2.378  0.2444 -0.1245  0.0814
 9306TIP3    H152113   5.978   2.263   2.345  0.1440  0.3565 -1.1918
 9306TIP3    H252114   5.900   2.308   2.467  4.0994  0.4357  1.4962
 9307TIP3   OH252115   0.221   6.643   0.872  0.1938 -0.6245 -0.4949
 9307TIP3    H152116   0.149   6.601   0.918  0.8841  0.3391  1.5995
 9307TIP3    H252117   0.190   6.731   0.853  0.5228 -0.4782 -0.3551
 9308TIP3   OH252118   2.534   6.264   2.889  0.0211 -0.3798 -0.6705
 9308TIP3    H152119   2.542   6.212   2.809  1.3456  0.7792 -1.3289
 9308TIP3    H252120   2.468   6.330   2.867 -1.9505 -1.8986  0.2932
 9309TIP3   OH252121   2.847   1.611   2.896 -0.0568  0.1218 -0.1360
 9309TIP3    H152122   2.920   1.666   2.923 -0.0699 -0.3154  0.8138
 9309TIP3    H252123   2.788   1.671   2.849  0.3581  0.7152  0.0900
 9310TIP3   OH252124   2.000   1.780   2.511  0.8537 -0.0243 -0.9310
 9310TIP3    H152125   1.953   1.719   2.454 -0.8030 -1.3964  1.6891
 9310TIP3    H252126   1.954   1.863   2.501 -1.4122 -0.9956  0.5332
 9311TIP3   OH252127   6.308   3.148   2.313 -0.5064 -0.2354 -0.6293
 9311TIP3    H152128   6.217   3.143   2.342 -1.1131 -1.1086 -2.5585
 9311TIP3    H252129   6.358   3.112   2.386 -1.3635  2.6714  1.6233
 9312TIP3   OH252130   6.287   0.495   0.864  0.0521  0.2687 -0.5403
 9312TIP3    H152131   6.254   0.490   0.954  2.5438  0.3032  0.4304
 9312TIP3    H252132   6.277   0.587   0.841 -0.9895  0.1865 -0.5038
 9313TIP3   OH252133   0.396   6.992   2.172  0.5037 -0.1226 -0.0258
 9313TIP3    H152134   0.397   6.940   2.252  2.5409  0.6514  0.5124
 9313TIP3    H252135   0.468   7.055   2.183 -1.2320  2.2037 -1.0409
 9314TIP3   OH252136   7.458   7.111   2.732 -0.0699 -0.2650 -0.1051
 9314TIP3    H152137   7.485   7.092   2.642  1.3055 -0.5878  0.3536
 9314TIP3    H252138   7.536   7.148   2.774 -1.1130  1.3191  0.5588
 9315TIP3   OH252139   6.485   3.613   2.989  0.1663  0.1988 -0.1566
 9315TIP3    H152140   6.428   3.578   2.921 -1.4606 -1.6196  1.9917
 9315TIP3    H252141   6.481   3.708   2.977 -0.9631 -0.0322 -1.9045
 9316TIP3   OH252142   3.009   2.365   1.355  0.1642 -0.7645 -0.3125
 9316TIP3    H152143   3.040   2.372   1.265 -0.1265  2.2408 -0.2810
 9316TIP3    H252144   2.941   2.431   1.362 -0.7750 -1.8618  1.7832
 9317TIP3   OH252145   5.617   0.370   1.890 -0.6393  0.1089  1.1595
 9317TIP3    H152146   5.620   0.458   1.853 -0.5325 -1.1951 -2.3506
 9317TIP3    H252147   5.566   0.379   1.970  0.5442  3.5347  1.6877
 9318TIP3   OH252148   6.911   1.081   2.236  0.4702  0.0570 -0.1416
 9318TIP3    H152149   6.938   1.055   2.148  1.0856 -0.6210  0.2311
 9318TIP3    H252150   6.925   1.175   2.239 -1.1525  0.3732 -1.3135
 9319TIP3   OH252151   7.528   5.744   1.007 -0.1113 -0.2708  0.3001
 9319TIP3    H152152   7.551   5.664   1.055 -1.3566 -1.7025 -1.3813
 9319TIP3    H252153   7.446   5.723   0.962  0.1054  1.5908 -1.0878
 9320TIP3   OH252154   7.424   7.670   2.349 -0.0463  0.1958 -0.2702
 9320TIP3    H152155   7.439   7.657   2.255  3.1332 -0.6860  0.2431
 9320TIP3    H252156   7.463   7.755   2.369 -0.4136  0.2338  0.3160
 9321TIP3   OH252157   5.369   0.658   2.711 -0.2050 -0.3701  0.0731
 9321TIP3    H152158   5.315   0.584   2.738  0.7316 -1.2622 -0.4391
 9321TIP3    H252159   5.308   0.732   2.708 -0.8574 -0.7735  2.0722
 9322TIP3   OH252160   4.771   3.416   1.374 -0.0424 -0.2980 -0.1657
 9322TIP3    H152161   4.757   3.498   1.326  0.1712 -0.0083  0.2600
 9322TIP3    H252162   4.840   3.372   1.325  0.6052  0.2764  0.2164
 9323TIP3   OH252163   7.601   3.110   2.644 -0.6509 -0.0009  0.4896
 9323TIP3    H152164   7.588   3.170   2.718  0.4146  0.6940  0.1538
 9323TIP3    H252165   7.665   3.156   2.589 -0.7007 -0.9451 -0.3662
 9324TIP3   OH252166   5.594   1.304   2.917  0.3743  0.0388  0.2672
 9324TIP3    H152167   5.543   1.379   2.948 -0.3668 -0.6811  0.8299
 9324TIP3    H252168   5.568   1.231   2.974 -1.3612 -1.4705 -2.2454
 9325TIP3   OH252169   6.119   4.904   0.749 -0.1898  0.4599 -0.3138
 9325TIP3    H152170   6.166   4.859   0.679  0.3522 -0.4223  0.5827
 9325TIP3    H252171   6.167   4.986   0.761 -0.3256  0.6449 -1.0116
 9326TIP3   OH252172   2.607   7.529   1.164  0.3946  0.3323  0.1809
 9326TIP3    H152173   2.661   7.507   1.240  0.4559  0.2753  0.1213
 9326TIP3    H252174   2.554   7.451   1.149  1.1207 -0.0519 -0.4678
 9327TIP3   OH252175   2.604   0.695   2.374 -0.0104 -0.1515 -0.0919
 9327TIP3    H152176   2.593   0.608   2.414  0.5571 -0.6000 -0.8724
 9327TIP3    H252177   2.515   0.726   2.359 -0.2962  0.5208  2.4711
 9328TIP3   OH252178   6.582   5.158   1.168  0.0304  0.0556  0.2779
 9328TIP3    H152179   6.591   5.180   1.261  0.6610 -1.2540  0.5514
 9328TIP3    H252180   6.534   5.075   1.169 -0.5090  0.3543 -0.6038
 9329TIP3   OH252181   6.194   4.888   1.682  0.0614  0.0096 -0.3066
 9329TIP3    H152182   6.145   4.924   1.609  2.0280 -1.2945 -2.3806
 9329TIP3    H252183   6.283   4.922   1.671  0.3683  0.0283  1.7023
 9330TIP3   OH252184   1.078   5.188   1.066 -0.0715 -0.1157 -0.4471
 9330TIP3    H152185   1.072   5.273   1.110  1.2695 -0.0766 -0.3147
 9330TIP3    H252186   1.158   5.149   1.100 -1.4175 -2.1027  0.6245
 9331TIP3   OH252187   4.696   2.964   1.681 -0.4417 -0.1772  0.2255
 9331TIP3    H152188   4.733   3.052   1.669  2.6009 -0.8738  2.8863
 9331TIP3    H252189   4.623   2.977   1.741  0.6769  0.5198  1.5104
 9332TIP3   OH252190   1.465   7.237   2.328  0.0895 -0.2548  0.6632
 9332TIP3    H152191   1.373   7.231   2.350 -0.2881 -3.2162 -1.1381
 9332TIP3    H252192   1.510   7.183   2.393  0.3629  0.0099  0.6984
 9333TIP3   OH252193   3.013   6.455   1.233  0.0593  0.0007  0.0338
 9333TIP3    H152194   3.003   6.544   1.198 -2.4872 -0.2043  0.0551
 9333TIP3    H252195   3.083   6.462   1.298  1.5647  1.4272 -1.6367
 9334TIP3   OH252196   0.545   3.714   2.457  0.1009  0.1439 -0.0792
 9334TIP3    H152197   0.526   3.795   2.410  1.9123  1.5064  1.4122
 9334TIP3    H252198   0.602   3.740   2.529  0.6941 -2.4528  0.4994
 9335TIP3   OH252199   3.321   0.125   1.318 -0.6936 -0.2074 -0.1196
 9335TIP3    H152200   3.264   0.049   1.315 -0.6702 -0.2783  0.9177
 9335TIP3    H252201   3.291   0.175   1.394  1.1140 -0.6496  0.9337
 9336TIP3   OH252202   5.368   3.049   1.942  0.1756  0.2662  0.3611
 9336TIP3    H152203   5.394   2.957   1.944  0.8840  0.4463 -0.3465
 9336TIP3    H252204   5.371   3.073   1.850  2.0499  1.5789  0.7237
 9337TIP3   OH252205   5.200   5.194   2.004 -0.4651 -0.4055 -0.0185
 9337TIP3    H152206   5.201   5.099   1.991 -0.9705 -0.6017  1.1855
 9337TIP3    H252207   5.292   5.217   2.020 -0.2340 -0.5607 -1.0533
 9338TIP3   OH252208   4.730   3.913   1.503  0.3419  0.5474  0.4723
 9338TIP3    H152209   4.715   3.895   1.596 -0.4114  1.1046  0.4742
 9338TIP3    H252210   4.645   3.901   1.462  0.2375  2.0404  0.1615
 9339TIP3   OH252211   0.084   2.464   1.027 -0.2041 -0.0940 -0.1658
 9339TIP3    H152212   0.102   2.457   0.934 -0.9422  0.8613 -0.4095
 9339TIP3    H252213  -0.001   2.421   1.038 -0.1984 -0.0551  0.0334
 9340TIP3   OH252214   7.165   4.619   0.960 -0.0842 -0.7239 -0.3985
 9340TIP3    H152215   7.175   4.539   1.012  0.2400 -1.4780 -1.5899
 9340TIP3    H252216   7.115   4.593   0.884  0.6159  0.0474 -1.1493
 9341TIP3   OH252217   6.120   7.500   3.275  0.3601  0.7014  0.1509
 9341TIP3    H152218   6.180   7.573   3.258  1.2607 -0.5874 -2.9133
 9341TIP3    H252219   6.177   7.423   3.279 -0.8378 -0.2215  0.0582
 9342TIP3   OH252220   4.322   5.622   0.660  0.3249  0.2854  0.4236
 9342TIP3    H152221   4.384   5.690   0.686  0.5505 -0.3092  1.5050
 9342TIP3    H252222   4.291   5.649   0.574  0.1097  1.9728  1.0013
 9343TIP3   OH252223   5.839   1.204   2.748 -0.6438 -0.6131  0.3583
 9343TIP3    H152224   5.900   1.218   2.676  0.1638 -1.5003  0.8487
 9343TIP3    H252225   5.817   1.111   2.744 -1.4722 -0.4354  0.5808
 9344TIP3   OH252226   4.852   6.178   1.118  0.6049 -0.0079 -0.2105
 9344TIP3    H152227   4.881   6.092   1.149  0.2636 -0.0344  0.0385
 9344TIP3    H252228   4.892   6.240   1.179 -1.3289 -0.1476  1.2580
 9345TIP3   OH252229   7.490   5.542   2.735  0.6130  0.1440  0.2728
 9345TIP3    H152230   7.435   5.619   2.722  0.1543 -0.0128  1.1554
 9345TIP3    H252231   7.437   5.469   2.702  0.7082  0.1151  0.1856
 9346TIP3   OH252232   0.393   2.400   1.917  0.1277  0.0775 -0.1396
 9346TIP3    H152233   0.328   2.332   1.903  2.1727 -2.6394  2.3435
 9346TIP3    H252234   0.461   2.382   1.852  0.7697 -0.4238  0.6547
 9347TIP3   OH252235   6.538   6.809   2.700  0.2401  0.0729 -0.0685
 9347TIP3    H152236   6.601   6.831   2.769  0.3851  2.1224 -0.7961
 9347TIP3    H252237   6.537   6.885   2.642 -2.5673 -0.0742 -0.3717
 9348TIP3   OH252238   6.670   1.183   2.040  0.0455 -0.3559 -0.1074
 9348TIP3    H152239   6.694   1.269   2.007  0.4784 -0.6003 -0.4463
 9348TIP3    H252240   6.601   1.200   2.104  2.7233  0.6574  2.7635
 9349TIP3   OH252241   5.432   1.537   2.918 -0.5359  0.1224 -0.0138
 9349TIP3    H152242   5.362   1.528   2.982 -1.1031  0.1982 -0.6150
 9349TIP3    H252243   5.391   1.578   2.842 -0.1601 -1.0564 -0.8865
 9350TIP3   OH252244   0.683   1.912   0.472  0.1954 -0.2782 -0.2394
 9350TIP3    H152245   0.643   1.971   0.535  2.2222 -0.2964  1.1761
 9350TIP3    H252246   0.629   1.833   0.474  0.4190 -0.4275  1.7983
 9351TIP3   OH252247   1.549   7.305   1.530 -0.9828  0.3053 -0.0554
 9351TIP3    H152248   1.560   7.385   1.478  2.1547 -0.5889 -0.9894
 9351TIP3    H252249   1.634   7.292   1.572 -2.0846 -1.4015  1.8681
 9352TIP3   OH252250   6.909   5.828   0.454 -0.2943 -0.5293  0.3493
 9352TIP3    H152251   6.977   5.772   0.415  1.6953  0.2854  2.3891
 9352TIP3    H252252   6.827   5.791   0.422  1.0434 -1.3486 -2.5971
 9353TIP3   OH252253   5.764   1.825   1.241  0.5774  0.4621 -0.2613
 9353TIP3    H152254   5.854   1.801   1.219 -0.0513 -1.3954 -1.0274
 9353TIP3    H252255   5.773   1.882   1.317  2.4121  0.6305 -0.5488
 9354TIP3   OH252256   1.469   6.517   3.218  0.1475  0.0177  0.1074
 9354TIP3    H152257   1.506   6.443   3.171  1.4875 -0.5263  1.9237
 9354TIP3    H252258   1.388   6.537   3.170 -1.0706 -3.5395  0.3822
 9355TIP3   OH252259   7.128   0.026   2.912  0.3423  0.1208 -0.5041
 9355TIP3    H152260   7.093   0.071   2.835  0.0380  1.3325  0.3214
 9355TIP3    H252261   7.141   0.095   2.977  0.2341 -0.9192  0.6654
 9356TIP3   OH252262   0.763   7.139   0.503  0.3400  0.5238  0.5906
 9356TIP3    H152263   0.857   7.134   0.487  0.3873  1.9794  0.2425
 9356TIP3    H252264   0.753   7.216   0.560 -0.5029 -0.5233  1.9012
 9357TIP3   OH252265   4.304   0.051   1.984  0.5540  0.3204 -0.0344
 9357TIP3    H152266   4.343  -0.035   1.967 -1.0009  0.0027 -2.4146
 9357TIP3    H252267   4.219   0.048   1.941  0.0697  2.7712  0.6122
 9358TIP3   OH252268   3.720   6.074   2.526 -0.0165 -0.3546 -0.0575
 9358TIP3    H152269   3.801   6.029   2.553 -0.0209  0.2736  1.0533
 9358TIP3    H252270   3.751   6.154   2.484 -0.0595 -0.0185  0.5459
 9359TIP3   OH252271   4.776   0.827   1.888  0.9892  0.2793 -0.0316
 9359TIP3    H152272   4.779   0.919   1.863  1.6265 -0.4598 -3.0288
 9359TIP3    H252273   4.715   0.787   1.826 -1.2922 -0.9777  2.7905
 9360TIP3   OH252274   2.689   1.419   0.850 -0.1870  0.1971  0.1862
 9360TIP3    H152275   2.785   1.420   0.842  0.3505 -0.1803  4.4241
 9360TIP3    H252276   2.663   1.509   0.831  1.4377  1.0731  1.7785
 9361TIP3   OH252277   7.449   1.753   2.799 -0.3902 -0.0115 -0.9203
 9361TIP3    H152278   7.394   1.828   2.819  0.4445  0.3550  0.0974
 9361TIP3    H252279   7.406   1.679   2.840 -0.2911  0.2220 -0.3862
 9362TIP3   OH252280   0.397   5.531   0.442 -0.0949  0.0075  0.5445
 9362TIP3    H152281   0.410   5.446   0.484  1.2312 -0.1878 -0.2063
 9362TIP3    H252282   0.407   5.595   0.513  1.6294 -0.3424  0.6535
 9363TIP3   OH252283   2.243   3.488   1.079 -0.2348  0.6687 -0.1068
 9363TIP3    H152284   2.248   3.410   1.024  0.3865 -0.4692  1.4654
 9363TIP3    H252285   2.308   3.473   1.148 -1.8060  1.4365  1.6341
 9364TIP3   OH252286   4.097   2.845   2.703 -0.5077  0.0707  0.2927
 9364TIP3    H152287   4.123   2.910   2.767  0.2409 -0.1075  0.1817
 9364TIP3    H252288   4.149   2.866   2.625 -0.5589 -0.4058  0.1243
 9365TIP3   OH252289   0.785   5.139   1.494 -0.7208  0.4633  1.2297
 9365TIP3    H152290   0.692   5.157   1.479 -0.9274 -1.5741 -0.2297
 9365TIP3    H252291   0.801   5.055   1.452  2.4159  1.9491 -0.9202
 9366TIP3   OH252292   1.750   6.638   1.938 -0.2893 -0.5237  0.5664
 9366TIP3    H152293   1.660   6.622   1.967 -0.9905 -1.3924 -1.8998
 9366TIP3    H252294   1.741   6.693   1.861  1.4742  1.2859  1.5438
 9367TIP3   OH252295   7.451   6.580   2.263 -0.3346  0.3261 -0.3389
 9367TIP3    H152296   7.520   6.646   2.268  1.1238 -1.0857 -0.9778
 9367TIP3    H252297   7.399   6.604   2.186 -0.2227  1.0714 -0.1912
 9368TIP3   OH252298   5.105   3.916   3.134  0.6506 -0.2902  0.0813
 9368TIP3    H152299   5.182   3.927   3.189  1.6117 -0.0154 -1.2568
 9368TIP3    H252300   5.133   3.855   3.066 -1.0893 -2.1219  0.9153
 9369TIP3   OH252301   1.869   7.483   1.428 -0.3759  0.2422  0.1344
 9369TIP3    H152302   1.921   7.536   1.489 -0.4116  1.0849 -0.5394
 9369TIP3    H252303   1.866   7.536   1.348 -1.7447 -0.0718 -0.0441
 9370TIP3   OH252304   1.689   5.999   2.656 -0.3973  0.2018  0.6056
 9370TIP3    H152305   1.600   5.969   2.641  0.3845 -2.0157 -0.1213
 9370TIP3    H252306   1.710   6.051   2.578 -1.0543  0.7623  0.7981
 9371TIP3   OH252307   4.476   5.978   1.445  0.0120  0.3247 -0.7706
 9371TIP3    H152308   4.465   5.957   1.352 -1.1807  0.5724 -0.7033
 9371TIP3    H252309   4.567   6.007   1.453  0.6342 -1.2550 -1.5522
 9372TIP3   OH252310   4.819   0.287   2.350 -0.0649  0.4188  0.7805
 9372TIP3    H152311   4.785   0.211   2.397 -1.0248  0.4802  0.2028
 9372TIP3    H252312   4.784   0.278   2.261  1.3397  0.5514  0.1901
 9373TIP3   OH252313   3.525   1.920   2.594 -0.0803 -0.5238 -0.4436
 9373TIP3    H152314   3.579   1.940   2.671  1.5317 -0.8718 -1.4284
 9373TIP3    H252315   3.584   1.873   2.535 -0.8920  0.7454 -2.3847
 9374TIP3   OH252316   6.328   1.727   2.930 -0.0095  0.4518  0.2722
 9374TIP3    H152317   6.248   1.767   2.964 -0.9613  0.8361 -2.2134
 9374TIP3    H252318   6.306   1.700   2.841  2.0958 -1.1423  0.1500
 9375TIP3   OH252319   0.005   0.951   3.008 -0.1159  0.4687 -0.0738
 9375TIP3    H152320   0.034   0.862   2.989  0.6386  0.8249 -0.6660
 9375TIP3    H252321   0.016   0.961   3.103 -2.5181 -0.8535  0.3994
 9376TIP3   OH252322   2.797   2.612   2.761  0.4104  0.0634  0.4373
 9376TIP3    H152323   2.765   2.522   2.764  0.9632 -0.2533 -1.4584
 9376TIP3    H252324   2.859   2.618   2.833 -0.0235 -0.9179  0.9096
 9377TIP3   OH252325   4.572   6.797   1.615 -0.1418 -0.0745 -0.1562
 9377TIP3    H152326   4.655   6.791   1.662 -0.1763 -0.3707 -0.1345
 9377TIP3    H252327   4.576   6.727   1.550 -0.1434  0.2567 -0.5198
 9378TIP3   OH252328   6.841   1.976   3.064  0.1744  0.7311 -0.0123
 9378TIP3    H152329   6.848   2.018   2.979 -2.9203  1.9362  0.2227
 9378TIP3    H252330   6.747   1.963   3.078  0.4325  1.5993  3.6485
 9379TIP3   OH252331   5.448   3.627   2.546  0.3356  0.2495  0.4908
 9379TIP3    H152332   5.392   3.656   2.474  0.5212 -0.1439  0.1794
 9379TIP3    H252333   5.536   3.626   2.509  0.3519 -0.5395  0.5366
 9380TIP3   OH252334   7.164   4.744   2.822  0.1865  0.0702 -0.1906
 9380TIP3    H152335   7.107   4.670   2.801  0.3930 -0.6908  1.7511
 9380TIP3    H252336   7.249   4.719   2.787  0.0031 -0.1077 -0.5165
 9381TIP3   OH252337   1.976   1.232   2.368  0.4288 -0.6528  0.1628
 9381TIP3    H152338   2.031   1.248   2.445 -0.1912  0.2655  0.4423
 9381TIP3    H252339   1.968   1.318   2.326 -2.4567 -0.2446  1.2952
 9382TIP3   OH252340   5.866   3.790   1.473 -0.1256 -0.0438 -0.4125
 9382TIP3    H152341   5.792   3.843   1.501 -1.4133 -1.4172 -1.0554
 9382TIP3    H252342   5.873   3.721   1.540  1.7148  1.0406  0.5822
 9383TIP3   OH252343   2.376   0.268   1.792 -0.1648  0.0427  0.0538
 9383TIP3    H152344   2.284   0.274   1.764  0.0495  1.4248 -0.4507
 9383TIP3    H252345   2.371   0.240   1.883 -1.0032 -1.6292 -0.4630
 9384TIP3   OH252346   2.264   7.598   1.728  0.6792  0.3796 -0.2257
 9384TIP3    H152347   2.303   7.649   1.799 -0.3209  0.4421  0.2887
 9384TIP3    H252348   2.238   7.516   1.770 -0.0574  0.4803 -0.4816
 9385TIP3   OH252349   3.866   1.567   1.167  0.0961 -0.1736  0.2061
 9385TIP3    H152350   3.929   1.611   1.110  0.4113 -0.1373  0.5790
 9385TIP3    H252351   3.903   1.577   1.255 -0.3329 -0.3217  0.4032
 9386TIP3   OH252352   3.667   5.087   2.082 -0.4479 -0.7590 -0.1715
 9386TIP3    H152353   3.582   5.093   2.040 -1.7185 -0.6908  2.2414
 9386TIP3    H252354   3.685   4.993   2.087  0.2717 -0.7402 -1.8145
 9387TIP3   OH252355   0.528   2.076   2.517  0.0900  0.0189  0.1037
 9387TIP3    H152356   0.486   2.135   2.454 -2.7856 -1.7479  0.1572
 9387TIP3    H252357   0.567   2.008   2.462  2.2674  1.1804  0.1035
 9388TIP3   OH252358   3.202   2.968   2.438 -0.1683  0.0202 -0.2003
 9388TIP3    H152359   3.176   2.975   2.346 -1.8857  0.2669  0.2626
 9388TIP3    H252360   3.205   2.874   2.455 -0.7896 -0.0188 -0.2776
 9389TIP3   OH252361   4.318   4.342   1.734  0.7538  0.7927  0.0194
 9389TIP3    H152362   4.325   4.259   1.689 -0.5100  0.4645  0.3896
 9389TIP3    H252363   4.312   4.318   1.827  0.4450  1.3000  0.1328
 9390TIP3   OH252364   6.404   4.872   0.558  0.2841 -0.4774  0.0697
 9390TIP3    H152365   6.485   4.863   0.607  0.3187 -1.1128 -0.0974
 9390TIP3    H252366   6.380   4.964   0.568  0.1769 -0.6383  1.4339
 9391TIP3   OH252367   7.392   4.033   1.668  0.2192  0.1688 -0.2955
 9391TIP3    H152368   7.387   4.019   1.574 -0.3162 -0.3898 -0.1869
 9391TIP3    H252369   7.323   3.978   1.705  0.2139  0.6234  0.3981
 9392TIP3   OH252370   1.549   4.185   1.527  0.5330  0.1448  0.3241
 9392TIP3    H152371   1.547   4.265   1.474  0.2535 -0.5095 -0.7001
 9392TIP3    H252372   1.535   4.115   1.463  0.0244 -0.6696  1.3146
 9393TIP3   OH252373   5.397   6.934   2.231  0.3766  0.1133 -0.1420
 9393TIP3    H152374   5.372   7.026   2.221  0.8874  0.2418 -0.3102
 9393TIP3    H252375   5.386   6.897   2.143 -0.9951 -0.2985  0.1848
 9394TIP3   OH252376   3.808   3.413   0.956  0.1360 -0.5683  0.5916
 9394TIP3    H152377   3.785   3.422   1.049 -0.3291 -0.1537  0.4422
 9394TIP3    H252378   3.773   3.493   0.916  1.9515  0.1520  0.3612
 9395TIP3   OH252379   1.017   5.800   1.333 -0.4204 -0.0829  0.3136
 9395TIP3    H152380   0.956   5.873   1.323 -1.2202 -0.5441  1.6205
 9395TIP3    H252381   1.094   5.827   1.283 -1.5679  0.6321 -1.1498
 9396TIP3   OH252382   3.153   2.026   2.356  0.1255  0.1518  0.1548
 9396TIP3    H152383   3.086   2.093   2.339 -1.3742 -1.2914  0.0775
 9396TIP3    H252384   3.224   2.048   2.296 -1.8378 -0.3502 -2.5897
 9397TIP3   OH252385   0.868   2.294   3.067 -0.7249 -0.4991  0.5330
 9397TIP3    H152386   0.772   2.289   3.058 -0.8015  0.0990  0.9148
 9397TIP3    H252387   0.894   2.206   3.093 -1.2684 -0.4878  1.1562
 9398TIP3   OH252388   2.440   0.802   1.429 -0.3917  0.1187 -0.3843
 9398TIP3    H152389   2.379   0.749   1.377 -1.0057  0.9869 -0.5645
 9398TIP3    H252390   2.440   0.762   1.515  0.4372 -1.1907 -0.9509
 9399TIP3   OH252391   4.831   7.465   2.056 -0.2684 -0.3215  0.0013
 9399TIP3    H152392   4.798   7.420   2.134  1.5806  1.2467  1.8035
 9399TIP3    H252393   4.763   7.528   2.034 -0.5934 -0.4299  0.6639
 9400TIP3   OH252394   5.076   5.823   2.325 -0.3727  0.3244  0.5911
 9400TIP3    H152395   5.090   5.729   2.332  2.3377  0.5678 -0.3521
 9400TIP3    H252396   5.010   5.843   2.392 -1.4003 -2.2658  0.4581
 9401TIP3   OH252397   7.409   2.477   2.924  0.0985  0.0379  0.0941
 9401TIP3    H152398   7.411   2.462   3.018 -2.1278 -1.5923 -0.0326
 9401TIP3    H252399   7.494   2.445   2.892  1.8602  2.7135  1.7007
 9402TIP3   OH252400   1.863   1.508   2.661  0.2230 -0.1336  0.5835
 9402TIP3    H152401   1.881   1.591   2.615  0.3248 -0.1468  0.5999
 9402TIP3    H252402   1.781   1.524   2.708  0.2830 -0.0171  0.6477
 9403TIP3   OH252403   4.556   3.634   3.132 -0.3378  0.2031 -0.8668
 9403TIP3    H152404   4.528   3.626   3.041  0.9424  1.5877 -1.4262
 9403TIP3    H252405   4.565   3.729   3.145  2.1361 -0.0541 -0.1722
 9404TIP3   OH252406   2.798   0.936   1.502  0.1875 -0.3629  0.0761
 9404TIP3    H152407   2.808   0.861   1.443 -1.9380 -1.2445  0.7395
 9404TIP3    H252408   2.842   0.909   1.583 -1.8953 -1.6329  0.8644
 9405TIP3   OH252409   6.481   5.742   1.768 -0.1453 -0.0810  0.3456
 9405TIP3    H152410   6.421   5.748   1.694  1.5611 -0.8624 -1.1823
 9405TIP3    H252411   6.553   5.802   1.745  1.1290 -1.4470  0.6329
 9406TIP3   OH252412   0.002   0.704   1.650 -0.2604  0.7632  0.3582
 9406TIP3    H152413   0.071   0.769   1.644  0.7512 -0.2399  0.7665
 9406TIP3    H252414   0.017   0.645   1.577 -1.0951  0.9004  0.0604
 9407TIP3   OH252415   0.194   2.538   2.814  0.7850 -0.0350 -0.1651
 9407TIP3    H152416   0.283   2.506   2.826  1.0506  0.8750  0.3630
 9407TIP3    H252417   0.181   2.602   2.885  0.1414  0.7348 -0.9557
 9408TIP3   OH252418   4.708   4.587   2.216 -0.2232  0.1380 -0.2344
 9408TIP3    H152419   4.733   4.594   2.308 -2.1122  0.6562  0.2793
 9408TIP3    H252420   4.742   4.667   2.176  0.5584 -0.0610  0.0203
 9409TIP3   OH252421   6.639   6.116   1.892  0.2130 -0.2566  0.0860
 9409TIP3    H152422   6.703   6.185   1.906 -0.1388  0.2873 -0.9126
 9409TIP3    H252423   6.682   6.055   1.833 -0.6158  0.7588 -1.6258
 9410TIP3   OH252424   2.240   7.507   0.793 -0.0247 -0.2201 -0.1248
 9410TIP3    H152425   2.162   7.459   0.822 -0.0823  1.3304  2.6066
 9410TIP3    H252426   2.310   7.442   0.795 -0.5019 -0.7238  1.3775
 9411TIP3   OH252427   6.491   5.020   3.035  0.0797  0.5787 -0.1737
 9411TIP3    H152428   6.579   4.982   3.033 -1.0637 -2.2546 -1.4060
 9411TIP3    H252429   6.435   4.950   3.067 -1.8022  2.2695  0.4681
 9412TIP3   OH252430   2.691   4.296   2.715  0.0035 -0.4108 -0.2045
 9412TIP3    H152431   2.784   4.314   2.703 -0.4022  0.4157 -2.7645
 9412TIP3    H252432   2.652   4.381   2.736 -0.3020 -0.5610 -0.1498
 9413TIP3   OH252433   0.343   1.344   1.947  0.8814  0.3078  0.2774
 9413TIP3    H152434   0.406   1.301   2.005 -0.9267 -0.4276  1.8011
 9413TIP3    H252435   0.258   1.320   1.983 -0.2932  0.9900 -1.9095
 9414TIP3   OH252436   3.196   6.209   3.404 -0.1964 -0.3459 -0.1286
 9414TIP3    H152437   3.233   6.173   3.484 -2.1172  0.1323  1.0201
 9414TIP3    H252438   3.103   6.189   3.408 -1.1831  3.4181 -0.0858
 9415TIP3   OH252439   0.814   2.356   1.588  0.2489  0.5168 -0.1832
 9415TIP3    H152440   0.829   2.448   1.567  0.5847  0.1913 -1.4735
 9415TIP3    H252441   0.770   2.357   1.673 -0.9974  1.9364 -0.8096
 9416TIP3   OH252442   0.866   4.061   2.178 -0.0863  0.0225 -0.3307
 9416TIP3    H152443   0.862   4.098   2.089 -1.8569  1.5512  0.2897
 9416TIP3    H252444   0.859   4.138   2.235  1.0412 -0.9345  1.1494
 9417TIP3   OH252445   7.283   0.633   2.307 -0.4928  0.0102  0.0637
 9417TIP3    H152446   7.362   0.592   2.340 -0.8128 -0.5677  0.1237
 9417TIP3    H252447   7.254   0.691   2.377 -0.9005 -0.8424  0.6153
 9418TIP3   OH252448   7.419   6.208   1.408  0.3127 -0.0021  0.1202
 9418TIP3    H152449   7.457   6.202   1.320  1.7021 -0.2003  0.7094
 9418TIP3    H252450   7.485   6.254   1.460 -0.0080 -0.8647  1.3249
 9419TIP3   OH252451   3.457   4.819   1.740  0.0823 -0.2946 -0.0059
 9419TIP3    H152452   3.426   4.742   1.693  0.2077  0.6009 -1.6099
 9419TIP3    H252453   3.547   4.796   1.765 -0.2218 -1.0451  0.4410
 9420TIP3   OH252454   1.868   5.186   1.469 -0.2149 -0.1461 -0.3043
 9420TIP3    H152455   1.796   5.205   1.530 -0.5056 -0.0025 -0.6836
 9420TIP3    H252456   1.947   5.210   1.516 -0.4940  0.9215 -0.3318
 9421TIP3   OH252457   0.616   0.678   1.212  0.1034  0.3001 -0.4962
 9421TIP3    H152458   0.663   0.728   1.279  0.1353 -0.4420  0.0455
 9421TIP3    H252459   0.663   0.595   1.207 -1.1619 -0.4882  0.1037
 9422TIP3   OH252460   1.653   0.789   2.097  0.2894  0.8054  0.3869
 9422TIP3    H152461   1.649   0.819   2.188 -0.9317  0.9041  0.3209
 9422TIP3    H252462   1.653   0.693   2.103 -1.1054  0.7801  0.4952
 9423TIP3   OH252463   4.365   3.372   2.550  0.1992  0.2661 -0.3440
 9423TIP3    H152464   4.406   3.342   2.631 -0.7997 -2.0488 -0.6201
 9423TIP3    H252465   4.278   3.331   2.550 -0.4434  1.5251 -1.8274
 9424TIP3   OH252466   2.439   5.785   2.804  0.0178  0.2287  0.1534
 9424TIP3    H152467   2.512   5.761   2.861  0.2735  0.5352 -0.0430
 9424TIP3    H252468   2.361   5.759   2.853  0.0977  2.7317  1.7789
 9425TIP3   OH252469   1.247   5.562   1.409 -0.3550 -0.2524 -0.4260
 9425TIP3    H152470   1.256   5.594   1.319 -1.1842 -0.0590 -0.4537
 9425TIP3    H252471   1.236   5.468   1.400 -1.2846 -0.1373 -0.6000
 9426TIP3   OH252472   3.492   3.862   0.507  0.4732 -0.2352 -0.4506
 9426TIP3    H152473   3.454   3.918   0.440  0.8660 -1.6858 -1.9394
 9426TIP3    H252474   3.426   3.859   0.577 -1.6104 -1.5800 -2.3421
 9427TIP3   OH252475   0.135   7.491   0.444  0.2559  0.6180  0.3549
 9427TIP3    H152476   0.042   7.472   0.453  0.5963 -2.1397 -0.7082
 9427TIP3    H252477   0.165   7.429   0.377  2.7230  1.9102  0.1426
 9428TIP3   OH252478   1.225   1.086   2.499 -0.0694 -0.0481  0.3522
 9428TIP3    H152479   1.268   1.008   2.534 -1.8108 -2.0213 -1.5875
 9428TIP3    H252480   1.144   1.094   2.550 -0.9995 -0.9530 -0.9109
 9429TIP3   OH252481   0.508   6.224   2.111 -0.2834 -0.2923  0.0914
 9429TIP3    H152482   0.415   6.240   2.123 -0.7021 -2.5393  0.2319
 9429TIP3    H252483   0.550   6.306   2.137 -2.2090  0.8629 -0.2622
 9430TIP3   OH252484   0.333   1.642   0.712 -0.1968  0.2475  0.3268
 9430TIP3    H152485   0.304   1.691   0.789  0.2249  1.2485 -0.1441
 9430TIP3    H252486   0.302   1.553   0.728  2.3832 -0.3308  3.0813
 9431TIP3   OH252487   2.921   4.829   1.972  0.8190  0.0771 -0.0232
 9431TIP3    H152488   2.887   4.913   2.003  1.7412 -0.0692  1.4727
 9431TIP3    H252489   2.994   4.853   1.914 -1.3881  0.3737 -2.8765
 9432TIP3   OH252490   5.730   3.526   2.282  0.5798  0.0436 -0.0647
 9432TIP3    H152491   5.726   3.620   2.301 -0.2604  0.1105 -0.4932
 9432TIP3    H252492   5.736   3.484   2.368 -1.2663  0.4149  0.2858
 9433TIP3   OH252493   7.057   0.759   2.744 -0.0213  0.5743 -0.6547
 9433TIP3    H152494   7.100   0.842   2.766  1.1904 -0.3622  0.7018
 9433TIP3    H252495   7.058   0.709   2.826 -1.4210 -0.4993 -1.2516
 9434TIP3   OH252496   2.181   2.538   1.690  0.0099 -0.6389  0.2428
 9434TIP3    H152497   2.153   2.574   1.775 -0.4639 -2.6622  0.9997
 9434TIP3    H252498   2.099   2.514   1.647  0.2175  0.7965 -1.0475
 9435TIP3   OH252499   0.283   5.163   1.666 -0.6315  0.5811 -0.2383
 9435TIP3    H152500   0.313   5.141   1.755 -0.1340  1.4397 -0.1843
 9435TIP3    H252501   0.255   5.254   1.672 -1.1578  0.4657 -0.8311
 9436TIP3   OH252502   7.370   3.536   2.691  0.1770  0.6013  0.4466
 9436TIP3    H152503   7.303   3.590   2.734  0.2615  0.5832  0.6040
 9436TIP3    H252504   7.420   3.499   2.763  0.0729  0.2467  0.3401
 9437TIP3   OH252505   2.609   5.697   1.663  0.4924 -0.2585 -0.2342
 9437TIP3    H152506   2.538   5.757   1.639 -0.6420 -2.0223 -1.5419
 9437TIP3    H252507   2.669   5.701   1.589  0.4169 -0.7214 -0.3220
 9438TIP3   OH252508   2.140   4.866   1.533 -0.0227  0.2499  0.2080
 9438TIP3    H152509   2.233   4.872   1.555 -0.2253  0.7777  0.9783
 9438TIP3    H252510   2.101   4.943   1.574 -0.7868  0.0715 -0.1711
 9439TIP3   OH252511   3.076   6.888   1.485 -0.2727  0.2250  0.4062
 9439TIP3    H152512   2.995   6.907   1.533 -0.3043  0.6610  0.1824
 9439TIP3    H252513   3.079   6.954   1.416 -0.0047 -0.1292  0.0737
 9440TIP3   OH252514   1.287   1.904   3.269  0.2304 -0.5441 -0.4900
 9440TIP3    H152515   1.321   1.846   3.338 -0.4213 -0.3132  0.0271
 9440TIP3    H252516   1.192   1.892   3.273 -0.0687  1.7444  0.7051
 9441TIP3   OH252517   4.276   1.570   1.290 -0.1141 -0.5251  0.1945
 9441TIP3    H152518   4.311   1.501   1.347 -0.4007  1.0253  2.3754
 9441TIP3    H252519   4.228   1.523   1.222  2.5301 -2.5693 -0.4348
 9442TIP3   OH252520   6.288   1.013   1.226 -0.4083 -0.5174 -0.0520
 9442TIP3    H152521   6.271   1.026   1.320  0.5921 -0.9795  0.2144
 9442TIP3    H252522   6.223   0.948   1.199 -0.1256 -1.0742  0.5562
 9443TIP3   OH252523   0.169   3.481   0.639  0.2678 -0.8628  0.3830
 9443TIP3    H152524   0.165   3.539   0.564  2.0597 -3.8702 -2.3135
 9443TIP3    H252525   0.077   3.468   0.664 -0.2284  2.1471  0.4603
 9444TIP3   OH252526   7.035   7.240   1.801  0.2711 -0.7592 -0.0889
 9444TIP3    H152527   7.126   7.211   1.809 -0.0404 -1.7381 -0.0103
 9444TIP3    H252528   6.989   7.165   1.764 -0.5677 -0.3791  0.1617
 9445TIP3   OH252529   7.336   2.036   1.866  0.3331  0.0699  0.6248
 9445TIP3    H152530   7.387   2.021   1.786 -1.9590  0.4585 -1.0149
 9445TIP3    H252531   7.313   1.948   1.897 -2.5424 -0.2266 -1.8368
 9446TIP3   OH252532   5.054   1.510   1.426 -0.5785  0.3472 -0.1485
 9446TIP3    H152533   5.012   1.593   1.405 -0.8573 -0.2544 -2.1001
 9446TIP3    H252534   5.142   1.517   1.387  0.0157  0.3433  1.1278
 9447TIP3   OH252535   0.201   2.354   0.440  0.2418 -0.1460 -0.1213
 9447TIP3    H152536   0.165   2.426   0.491 -0.1674  0.0191 -0.6330
 9447TIP3    H252537   0.150   2.354   0.359  0.0610 -1.1674 -0.0261
 9448TIP3   OH252538   1.344   0.106   0.608 -0.2022 -0.4741 -0.2730
 9448TIP3    H152539   1.316   0.139   0.693  0.5360 -1.1460  0.2384
 9448TIP3    H252540   1.425   0.154   0.589 -0.4851 -0.1560 -0.7175
 9449TIP3   OH252541   0.151   4.442   0.865 -0.1560  0.2736  0.2798
 9449TIP3    H152542   0.245   4.439   0.885 -0.3482 -0.9043  1.1678
 9449TIP3    H252543   0.128   4.351   0.845 -0.6114  0.9280 -2.5909
 9450TIP3   OH252544   1.466   2.853   1.453 -0.3167  0.7466 -0.0832
 9450TIP3    H152545   1.441   2.900   1.374 -0.3288 -0.5193 -0.8725
 9450TIP3    H252546   1.546   2.806   1.429 -0.4882  0.0994  0.5472
 9451TIP3   OH252547   0.474   3.375   1.586  0.1277 -0.1566 -0.1458
 9451TIP3    H152548   0.425   3.456   1.595  0.1623 -0.0567 -0.8452
 9451TIP3    H252549   0.511   3.378   1.498  1.0496 -0.4209  0.2190
 9452TIP3   OH252550   3.006   6.405   2.931 -0.0916 -0.1094 -0.0900
 9452TIP3    H152551   2.986   6.498   2.936 -3.2668 -0.6934  0.2429
 9452TIP3    H252552   3.028   6.389   2.840 -1.5462  0.6621 -0.6002
 9453TIP3   OH252553   7.551   1.711   3.092 -0.6283 -0.0741  0.2334
 9453TIP3    H152554   7.472   1.672   3.130 -0.5232 -2.4604 -1.7523
 9453TIP3    H252555   7.518   1.769   3.023 -0.7596 -2.5997 -1.9795
 9454TIP3   OH252556   4.362   4.076   1.661  0.0864 -0.8635  0.8018
 9454TIP3    H152557   4.425   4.114   1.600  0.5678  1.3115  2.5025
 9454TIP3    H252558   4.380   3.982   1.660  0.9688 -0.7250 -1.3381
 9455TIP3   OH252559   6.774   2.408   0.588 -0.2441 -0.1112 -0.3627
 9455TIP3    H152560   6.721   2.368   0.657  0.1025  0.2144  0.0989
 9455TIP3    H252561   6.720   2.479   0.554 -0.8293 -0.8975 -1.1298
 9456TIP3   OH252562   0.372   2.583   1.228  0.0387  0.1673 -0.2959
 9456TIP3    H152563   0.451   2.550   1.271  0.4326  2.4764  0.8906
 9456TIP3    H252564   0.311   2.509   1.231  1.4767 -1.0298  0.5729
 9457TIP3   OH252565   1.373   3.025   1.664 -0.2554 -0.6156  0.3150
 9457TIP3    H152566   1.283   3.038   1.693 -0.1227 -1.6206  1.2465
 9457TIP3    H252567   1.366   2.973   1.584 -0.4928 -1.1612  0.6841
 9458TIP3   OH252568   1.295   4.909   0.536 -0.2804  0.7300 -0.3878
 9458TIP3    H152569   1.357   4.876   0.471 -0.7396  1.0423 -1.0024
 9458TIP3    H252570   1.220   4.849   0.530 -0.3889  0.8522 -0.2606
 9459TIP3   OH252571   0.331   3.306   1.887  0.3720 -0.7462 -0.1165
 9459TIP3    H152572   0.399   3.355   1.840  0.8631  0.3710  1.6604
 9459TIP3    H252573   0.378   3.236   1.932  0.2549 -0.4006  0.5527
 9460TIP3   OH252574   2.424   6.767   0.635  0.1088 -0.3636  0.5997
 9460TIP3    H152575   2.516   6.763   0.661 -0.3201 -0.9515  2.1463
 9460TIP3    H252576   2.407   6.861   0.622  0.7508 -0.1878  0.9890
 9461TIP3   OH252577   2.509   6.076   3.075  0.0695 -0.1842  0.0228
 9461TIP3    H152578   2.550   6.137   3.014 -0.7418 -2.0897 -2.6154
 9461TIP3    H252579   2.421   6.062   3.039  0.0536 -2.4959  0.7961
 9462TIP3   OH252580   0.824   5.048   1.076  0.2587  0.6683 -0.5970
 9462TIP3    H152581   0.759   5.117   1.071  0.0359  0.4765 -0.3436
 9462TIP3    H252582   0.908   5.094   1.083  0.1330  0.9107 -0.7051
 9463TIP3   OH252583   5.436   7.168   2.572 -0.4000  0.0657  0.0798
 9463TIP3    H152584   5.447   7.073   2.578  3.2301  0.4204  2.1570
 9463TIP3    H252585   5.495   7.195   2.502 -1.9317  0.8140 -0.9790
 9464TIP3   OH252586   0.105   1.709   2.422 -0.0752  0.7232 -0.2661
 9464TIP3    H152587   0.054   1.756   2.488 -1.2355  0.6560 -1.0845
 9464TIP3    H252588   0.164   1.776   2.387  1.3008  0.5304  1.5048
 9465TIP3   OH252589   5.062   6.781   1.970 -0.0572 -0.2310 -0.1768
 9465TIP3    H152590   5.060   6.743   2.058 -0.6044 -1.7659 -0.8043
 9465TIP3    H252591   5.003   6.856   1.975 -1.6230 -1.4413  0.3123
 9466TIP3   OH252592   4.517   4.232   2.942  0.4357  0.0453  0.4302
 9466TIP3    H152593   4.425   4.254   2.928  0.3110 -0.3277  0.6412
 9466TIP3    H252594   4.552   4.305   2.992  1.0318  1.6995 -2.2166
 9467TIP3   OH252595   4.493   3.596   1.364  0.6000  0.4468  0.2027
 9467TIP3    H152596   4.398   3.588   1.373  0.5821  0.7479  0.2712
 9467TIP3    H252597   4.526   3.510   1.391  0.3693  0.4500  0.5028
 9468TIP3   OH252598   5.428   2.817   2.187  0.6476 -0.3579  0.3338
 9468TIP3    H152599   5.515   2.788   2.161  1.1862 -1.6470  3.1858
 9468TIP3    H252600   5.440   2.908   2.214  1.0191 -0.3906  0.2777
 9469TIP3   OH252601   3.629   5.417   2.980  0.7540  0.1509  0.2699
 9469TIP3    H152602   3.593   5.505   2.986 -0.0165 -0.0321 -1.2321
 9469TIP3    H252603   3.719   5.430   2.950  0.8136  0.4474  0.5699
 9470TIP3   OH252604   7.642   0.476   1.056  0.5045 -0.0093 -0.6568
 9470TIP3    H152605   7.562   0.521   1.030 -0.5181 -0.3478  1.6544
 9470TIP3    H252606   7.667   0.425   0.979 -1.3727  0.2759 -1.5125
 9471TIP3   OH252607   7.600   1.816   1.684 -0.0695 -0.1947 -0.1323
 9471TIP3    H152608   7.513   1.818   1.723 -0.4719  0.8296 -1.0241
 9471TIP3    H252609   7.616   1.724   1.663 -0.6091 -0.4916  0.7252
 9472TIP3   OH252610   4.390   6.353   2.634  0.0643  0.0865  0.0586
 9472TIP3    H152611   4.450   6.389   2.699  1.1201 -0.9479 -0.2994
 9472TIP3    H252612   4.364   6.269   2.670  0.3922 -0.3421 -0.6933
 9473TIP3   OH252613   0.683   0.888   2.932  0.0319 -0.1937  0.1215
 9473TIP3    H152614   0.696   0.855   3.021  0.4306 -0.3592  0.0046
 9473TIP3    H252615   0.665   0.981   2.943  0.7111 -0.0853  0.3361
 9474TIP3   OH252616   4.704   6.877   2.358 -0.1484 -0.1654  0.1554
 9474TIP3    H152617   4.734   6.844   2.443  1.0975  0.3373 -0.0751
 9474TIP3    H252618   4.633   6.818   2.333  0.3571 -1.1206  0.9227
 9475TIP3   OH252619   7.536   7.412   0.578 -0.1296  0.2839  0.4224
 9475TIP3    H152620   7.557   7.412   0.671 -1.8137  1.3587  0.8636
 9475TIP3    H252621   7.494   7.497   0.563 -1.1267 -0.4025 -0.9935
 9476TIP3   OH252622   5.378   3.204   3.064 -0.1242  0.1843 -0.3198
 9476TIP3    H152623   5.373   3.243   2.977  1.3998 -2.0074 -1.4671
 9476TIP3    H252624   5.287   3.184   3.086 -0.8639  3.3565 -0.0653
 9477TIP3   OH252625   0.032   7.198   2.815 -0.3430 -0.2852  0.0487
 9477TIP3    H152626   0.065   7.213   2.903  0.0805  0.6508 -0.2562
 9477TIP3    H252627   0.097   7.142   2.774  0.2743  0.5611 -0.1595
 9478TIP3   OH252628   1.299   6.211   1.753  0.0369 -0.0722  0.2630
 9478TIP3    H152629   1.247   6.174   1.682  0.5772  0.4215 -0.4047
 9478TIP3    H252630   1.289   6.305   1.743 -0.8096  0.0024  1.5608
 9479TIP3   OH252631   2.999   4.343   0.624 -0.1364  0.4466  0.2964
 9479TIP3    H152632   2.964   4.425   0.660  1.0295  1.1980 -0.2075
 9479TIP3    H252633   3.070   4.371   0.566 -1.0906 -0.7895 -1.5990
 9480TIP3   OH252634   4.098   0.424   1.712 -0.0439 -0.1259  0.0958
 9480TIP3    H152635   4.090   0.435   1.806 -0.6924  1.4099 -0.1117
 9480TIP3    H252636   4.114   0.330   1.700  1.3187 -0.1657  1.7935
 9481TIP3   OH252637   6.382   6.649   2.403  0.4969 -0.1898  0.3900
 9481TIP3    H152638   6.358   6.732   2.443 -1.4490  0.5996 -2.1144
 9481TIP3    H252639   6.299   6.601   2.396  1.4975 -2.1761  1.3229
 9482TIP3   OH252640   0.020   7.660   3.074 -0.5769 -0.1938  0.1594
 9482TIP3    H152641  -0.021   7.736   3.033 -0.1081  0.8546  1.5476
 9482TIP3    H252642   0.104   7.651   3.029 -0.8177 -0.1494 -0.2978
 9483TIP3   OH252643   4.757   2.478   1.297 -0.3589 -0.3949 -0.5636
 9483TIP3    H152644   4.847   2.447   1.309 -0.5768 -0.9206 -0.2530
 9483TIP3    H252645   4.708   2.399   1.273 -1.0420 -0.4268  0.8254
 9484TIP3   OH252646   5.802   3.789   0.566 -0.2066  0.0292  0.2327
 9484TIP3    H152647   5.796   3.763   0.474 -1.6586  0.3899  0.2011
 9484TIP3    H252648   5.741   3.731   0.612 -0.6621  0.8753  0.7257
 9485TIP3   OH252649   5.099   5.229   2.425 -0.1256  0.0916 -0.1519
 9485TIP3    H152650   5.164   5.291   2.459  1.7280 -1.2845 -1.0157
 9485TIP3    H252651   5.081   5.261   2.336  0.5616 -0.3757 -0.4683
 9486TIP3   OH252652   4.863   2.297   0.634 -0.0610 -0.3289  0.4197
 9486TIP3    H152653   4.778   2.301   0.591 -0.4343 -0.5710  1.1107
 9486TIP3    H252654   4.852   2.348   0.714  0.0138 -1.4806  1.1946
 9487TIP3   OH252655   4.036   5.238   2.582 -0.1149 -0.0739 -0.4147
 9487TIP3    H152656   3.981   5.213   2.656  0.3366  0.1628  0.0097
 9487TIP3    H252657   4.086   5.159   2.561 -0.8818 -0.3988 -1.0450
 9488TIP3   OH252658   1.911   2.534   1.601 -0.4103 -0.1521 -0.0709
 9488TIP3    H152659   1.859   2.568   1.674  0.7654  0.4202  0.5180
 9488TIP3    H252660   1.910   2.439   1.614  1.0265  0.0079  1.6002
 9489TIP3   OH252661   0.933   4.903   2.608  0.0374 -0.0739 -0.1513
 9489TIP3    H152662   0.919   4.945   2.693  2.2786 -1.1794  0.8461
 9489TIP3    H252663   0.848   4.866   2.585 -0.2668 -1.1467  2.4181
 9490TIP3   OH252664   6.208   7.256   2.262  0.1002  0.4114 -0.3021
 9490TIP3    H152665   6.167   7.297   2.186 -0.0205  0.8022 -0.0287
 9490TIP3    H252666   6.279   7.204   2.225 -0.8301 -0.5271 -0.8044
 9491TIP3   OH252667   6.364   7.566   3.515  0.6080  0.0086 -0.1727
 9491TIP3    H152668   6.313   7.606   3.444 -0.0741 -0.9280 -0.2231
 9491TIP3    H252669   6.376   7.637   3.578 -2.5435 -0.1746  0.8300
 9492TIP3   OH252670   6.198   0.261   2.518 -0.3209 -0.2415 -0.2699
 9492TIP3    H152671   6.266   0.213   2.566 -0.9789 -0.2992  0.6249
 9492TIP3    H252672   6.243   0.338   2.483  0.2019 -0.2582  0.3410
 9493TIP3   OH252673   3.590   4.310   1.025  0.0523  0.1971 -0.4170
 9493TIP3    H152674   3.523   4.350   0.970 -1.4095 -2.5872 -0.7803
 9493TIP3    H252675   3.547   4.297   1.110  0.4573 -0.6747 -0.3389
 9494TIP3   OH252676   0.318   4.643   2.929  0.3116  0.1191 -0.1516
 9494TIP3    H152677   0.413   4.649   2.923  0.1691  1.5362 -1.3926
 9494TIP3    H252678   0.293   4.714   2.989  0.0751 -0.8049  0.8838
 9495TIP3   OH252679   0.494   0.255   1.306 -0.3887  0.2929 -0.3038
 9495TIP3    H152680   0.443   0.256   1.387 -0.3266  2.2208 -0.2468
 9495TIP3    H252681   0.435   0.219   1.241 -0.7186 -0.4943  0.4013
 9496TIP3   OH252682   4.653   1.581   2.663  0.1173 -0.3874  0.3773
 9496TIP3    H152683   4.589   1.537   2.720 -1.0943 -0.9523 -1.3510
 9496TIP3    H252684   4.725   1.519   2.655  1.1472  0.3896  2.6174
 9497TIP3   OH252685   1.654   5.379   0.875  0.4730 -0.1446 -0.3404
 9497TIP3    H152686   1.643   5.390   0.780 -1.2490  0.6414 -0.0785
 9497TIP3    H252687   1.693   5.462   0.904  0.4287 -0.1454 -0.2787
 9498TIP3   OH252688   6.144   6.196   2.397  0.2973 -0.2354 -0.1783
 9498TIP3    H152689   6.115   6.119   2.348 -0.0550 -0.8580  0.9589
 9498TIP3    H252690   6.087   6.198   2.475  0.1238  1.3321 -0.3068
 9499TIP3   OH252691   7.191   1.473   0.485  0.6002  0.4741 -0.1787
 9499TIP3    H152692   7.140   1.542   0.443  1.3472  0.5939 -0.9127
 9499TIP3    H252693   7.273   1.471   0.437  0.8061 -0.5618  0.1844
 9500TIP3   OH252694   2.495   1.048   1.868  0.1059 -0.0249  0.1048
 9500TIP3    H152695   2.511   1.014   1.780 -0.5414 -1.6640  0.5749
 9500TIP3    H252696   2.414   1.098   1.860  0.8688  1.1520 -0.5277
 9501TIP3   OH252697   5.238   6.362   2.137 -0.4406  0.0276  0.1087
 9501TIP3    H152698   5.327   6.337   2.113 -0.1862  0.0620  0.9651
 9501TIP3    H252699   5.249   6.441   2.190 -0.9253 -0.2631  0.6668
 9502TIP3   OH252700   2.687   3.869   1.747 -0.2692 -0.4757 -0.0779
 9502TIP3    H152701   2.727   3.937   1.694 -2.9817  1.2979 -0.0256
 9502TIP3    H252702   2.675   3.796   1.687 -0.6402  0.4329 -1.1357
 9503TIP3   OH252703   4.843   5.815   3.283  0.1911  0.4930 -0.2033
 9503TIP3    H152704   4.813   5.906   3.288 -0.8225  0.1169  0.8604
 9503TIP3    H252705   4.939   5.822   3.281  0.1295  1.5677  0.0911
 9504TIP3   OH252706   6.239   4.630   2.361  0.1014  0.0972 -0.0934
 9504TIP3    H152707   6.263   4.563   2.425 -0.0482  0.9129  0.8344
 9504TIP3    H252708   6.320   4.679   2.347  0.1621 -0.1487 -0.6294
 9505TIP3   OH252709   2.529   0.123   1.154  0.5150 -0.3964 -0.4777
 9505TIP3    H152710   2.563   0.037   1.181  0.0857 -0.7020 -0.8849
 9505TIP3    H252711   2.509   0.112   1.061  0.0140  0.0098 -0.4180
 9506TIP3   OH252712   2.728   7.471   1.417  0.0905 -0.1310 -0.1560
 9506TIP3    H152713   2.818   7.503   1.406  0.2209  0.1411  1.4273
 9506TIP3    H252714   2.738   7.385   1.457 -0.3446  0.1081  0.4906
 9507TIP3   OH252715   3.441   4.152   2.446  0.1108 -0.2298  0.1029
 9507TIP3    H152716   3.381   4.179   2.516 -1.6717 -0.0504 -1.3957
 9507TIP3    H252717   3.418   4.060   2.430 -1.0353  0.3000 -1.6138
 9508TIP3   OH252718   0.993   0.377   3.343  0.4763 -1.1288  0.1262
 9508TIP3    H152719   0.925   0.443   3.354 -0.8570 -2.1397 -1.5491
 9508TIP3    H252720   1.048   0.410   3.271  0.4030 -1.3510 -0.0360
 9509TIP3   OH252721   2.783   3.872   2.450  0.4773 -0.2957  0.0064
 9509TIP3    H152722   2.784   3.962   2.418  0.3421 -0.4787 -0.5249
 9509TIP3    H252723   2.716   3.871   2.518  0.7404  0.0912  0.2722
 9510TIP3   OH252724   1.272   1.501   1.630 -0.1144 -0.3612 -0.2438
 9510TIP3    H152725   1.235   1.413   1.632  0.7034 -0.8363 -2.7168
 9510TIP3    H252726   1.345   1.497   1.692 -1.1894 -0.8248  1.0475
 9511TIP3   OH252727   5.672   6.845   1.873  0.5734  0.2339  0.0828
 9511TIP3    H152728   5.763   6.816   1.879  0.4820 -0.3565 -1.1245
 9511TIP3    H252729   5.620   6.764   1.874  0.0180  0.5870  1.2765
 9512TIP3   OH252730   5.404   2.999   2.796 -0.2590  0.3185  0.6828
 9512TIP3    H152731   5.325   2.967   2.753  0.4907 -0.4316 -0.1727
 9512TIP3    H252732   5.442   2.922   2.838 -0.1279  0.7318  1.3431
 9513TIP3   OH252733   6.460   7.074   3.361  0.3287  0.1254  0.3820
 9513TIP3    H152734   6.511   6.996   3.386  0.5134  0.2168  0.2942
 9513TIP3    H252735   6.489   7.142   3.422  0.4928  0.2437  0.1725
 9514TIP3   OH252736   4.394   2.493   2.242 -0.3432  0.3081 -0.3443
 9514TIP3    H152737   4.324   2.433   2.266 -1.2063  0.6799 -1.8421
 9514TIP3    H252738   4.426   2.526   2.326 -0.9170 -1.0161  0.4286
 9515TIP3   OH252739   5.893   2.287   0.829  0.2963  0.0576  0.3904
 9515TIP3    H152740   5.801   2.308   0.842  0.7506  1.0519  2.4166
 9515TIP3    H252741   5.892   2.212   0.770 -1.8564 -0.4657  0.9870
 9516TIP3   OH252742   0.641   6.135   0.719  0.0497  0.1287 -0.2363
 9516TIP3    H152743   0.557   6.165   0.753 -1.0715 -1.7479 -1.2228
 9516TIP3    H252744   0.660   6.194   0.645 -0.1373  0.8534  0.2830
 9517TIP3   OH252745   3.863   0.306   1.305  0.0325  0.1195  0.2661
 9517TIP3    H152746   3.781   0.256   1.302 -0.1477  0.4369 -0.3940
 9517TIP3    H252747   3.875   0.338   1.215  0.2072  1.1576  0.6418
 9518TIP3   OH252748   3.270   0.691   0.656 -0.1532 -0.0135  0.0210
 9518TIP3    H152749   3.336   0.664   0.720 -0.1848  0.7279  0.3822
 9518TIP3    H252750   3.282   0.632   0.582 -0.5403 -1.2993  0.9586
 9519TIP3   OH252751   7.322   5.827   2.336 -0.1945 -0.4910 -0.3803
 9519TIP3    H152752   7.371   5.901   2.371 -0.1378 -1.6587  2.2283
 9519TIP3    H252753   7.375   5.795   2.263  1.0402  0.5381  0.0357
 9520TIP3   OH252754   0.940   5.180   1.739 -0.4046  0.2653 -0.2677
 9520TIP3    H152755   0.860   5.164   1.688 -0.4266 -0.3003 -0.0663
 9520TIP3    H252756   0.971   5.265   1.708 -2.4725  1.7597  1.4757
 9521TIP3   OH252757   1.137   6.588   1.928 -0.5647  0.0535  0.6572
 9521TIP3    H152758   1.183   6.649   1.985 -0.2790 -1.5703  2.2513
 9521TIP3    H252759   1.048   6.585   1.963 -0.9517  0.5638 -0.2590
 9522TIP3   OH252760   4.895   3.306   2.157  0.0295 -0.1017 -0.3222
 9522TIP3    H152761   4.977   3.318   2.204 -1.2875  1.2030  1.8260
 9522TIP3    H252762   4.844   3.248   2.214 -0.5230 -0.9786 -1.6682
 9523TIP3   OH252763   4.549   5.606   1.712 -0.0637  0.0953 -0.1665
 9523TIP3    H152764   4.585   5.611   1.623 -0.5717  2.3554 -0.3030
 9523TIP3    H252765   4.621   5.636   1.768 -0.4134  0.6914 -0.0341
 9524TIP3   OH252766   0.832   0.703   2.236  0.3910  0.5673 -0.3087
 9524TIP3    H152767   0.843   0.618   2.280 -1.0837  0.8529  0.7064
 9524TIP3    H252768   0.755   0.691   2.181  0.0029  1.3084  0.0575
 9525TIP3   OH252769   1.667   1.753   2.229 -0.3649 -0.5542  0.3843
 9525TIP3    H152770   1.702   1.833   2.270  0.0793 -0.0518 -0.8996
 9525TIP3    H252771   1.633   1.783   2.144 -1.9593 -1.4188  0.6834
 9526TIP3   OH252772   4.244   5.386   0.404  0.0731  0.4154 -0.1297
 9526TIP3    H152773   4.311   5.366   0.469  0.8183  1.9444 -0.3807
 9526TIP3    H252774   4.161   5.380   0.452  0.4046 -1.0094  0.3032
 9527TIP3   OH252775   7.072   4.192   1.675 -0.3701  0.7444  0.1927
 9527TIP3    H152776   7.037   4.207   1.762  0.9991  0.2088  0.8688
 9527TIP3    H252777   7.040   4.266   1.623 -1.9300  0.6038  0.9057
 9528TIP3   OH252778   5.632   4.315   2.261 -0.4090  0.0704 -0.2738
 9528TIP3    H152779   5.552   4.273   2.294 -0.4822 -0.9701 -1.6830
 9528TIP3    H252780   5.600   4.382   2.200 -0.2262  0.0824 -0.3568
 9529TIP3   OH252781   5.843   7.611   0.657 -0.4457  0.1598  0.1026
 9529TIP3    H152782   5.789   7.646   0.586 -0.4098  0.1758  0.0831
 9529TIP3    H252783   5.840   7.678   0.725  0.9420  0.9459 -0.5733
 9530TIP3   OH252784   2.987   3.382   1.242  0.6981 -0.0738 -0.1822
 9530TIP3    H152785   2.936   3.340   1.312 -1.5246  2.1645 -0.2996
 9530TIP3    H252786   3.056   3.430   1.288  0.7308 -0.5298  0.2545
 9531TIP3   OH252787   4.274   4.066   1.920  0.0764  0.1972 -0.2849
 9531TIP3    H152788   4.307   4.087   1.832  1.2076  1.0476  0.3166
 9531TIP3    H252789   4.310   4.135   1.975 -0.6541 -0.3135  0.8492
 9532TIP3   OH252790   1.603   1.859   1.964 -0.1129  0.3502  0.1650
 9532TIP3    H152791   1.584   1.953   1.966  0.5838  0.6291 -2.4743
 9532TIP3    H252792   1.692   1.854   1.928  0.4865 -1.2969  1.7485
 9533TIP3   OH252793   4.870   2.789   1.404  0.0344  0.1323 -0.1445
 9533TIP3    H152794   4.806   2.719   1.415  0.9126 -0.6085  0.4886
 9533TIP3    H252795   4.818   2.868   1.387 -1.0661 -0.3352  0.8868
 9534TIP3   OH252796   6.795   3.464   2.281  0.7405 -0.1323 -0.2678
 9534TIP3    H152797   6.868   3.406   2.257  0.6617  0.1921 -1.3527
 9534TIP3    H252798   6.717   3.408   2.276  0.9432 -0.6326  1.4727
 9535TIP3   OH252799   6.025   6.182   2.653 -0.8051 -0.2582 -0.4333
 9535TIP3    H152800   6.056   6.252   2.710  0.9036 -0.7122 -0.7445
 9535TIP3    H252801   5.942   6.155   2.692  0.2153 -0.4406  1.7750
 9536TIP3   OH252802   6.812   4.924   2.776 -0.0393 -0.0876 -0.2226
 9536TIP3    H152803   6.890   4.883   2.739 -1.2028 -0.7015 -2.1175
 9536TIP3    H252804   6.777   4.978   2.705 -1.6072 -0.2257  0.4075
 9537TIP3   OH252805   3.675   4.726   1.875 -0.5815 -0.0686 -0.4114
 9537TIP3    H152806   3.733   4.650   1.871 -0.9924 -0.3362 -1.5653
 9537TIP3    H252807   3.673   4.749   1.968 -0.8795 -1.7922  0.0428
 9538TIP3   OH252808   6.946   6.773   0.317 -0.1516 -0.1944  0.5001
 9538TIP3    H152809   6.911   6.838   0.378  0.3439  0.9492 -0.4021
 9538TIP3    H252810   6.873   6.754   0.258 -0.2409 -0.3191  0.6498
 9539TIP3   OH252811   4.457   4.685   2.183  0.2930 -0.4018  0.3603
 9539TIP3    H152812   4.544   4.647   2.194  1.7159  2.9593  2.3138
 9539TIP3    H252813   4.443   4.736   2.263 -1.8315  2.2081 -1.5112
 9540TIP3   OH252814   3.460   6.088   2.414  0.4443 -0.0292  0.2209
 9540TIP3    H152815   3.400   6.110   2.485  0.0481  0.8692 -0.3788
 9540TIP3    H252816   3.545   6.077   2.457  0.1632  0.2615  0.8625
 9541TIP3   OH252817   4.069   7.034   0.870  0.1592 -0.0236 -0.1592
 9541TIP3    H152818   4.100   7.092   0.939  0.4058 -1.6292  1.1388
 9541TIP3    H252819   4.134   7.044   0.800 -0.3960  2.0372 -0.4266
 9542TIP3   OH252820   5.381   1.008   2.910  0.5051  0.1562 -0.0137
 9542TIP3    H152821   5.336   0.938   2.863 -0.0090  0.4033  0.0961
 9542TIP3    H252822   5.354   1.088   2.865  0.5194  0.3386  0.3011
 9543TIP3   OH252823   0.645   6.488   1.192 -0.2749  0.0542 -0.1004
 9543TIP3    H152824   0.697   6.448   1.262  1.9418 -1.8390 -2.5940
 9543TIP3    H252825   0.567   6.433   1.186  1.2249 -2.1202 -1.3382
 9544TIP3   OH252826   6.208   2.041   1.022  0.3561 -0.0439 -0.0589
 9544TIP3    H152827   6.281   1.980   1.033  0.6286  0.1687 -0.6555
 9544TIP3    H252828   6.142   1.992   0.972  0.4778  0.0671 -0.3322
 9545TIP3   OH252829   3.234   5.276   1.408 -0.1489  0.2076 -0.2872
 9545TIP3    H152830   3.315   5.225   1.415  2.1011  3.5838  0.5549
 9545TIP3    H252831   3.190   5.242   1.329  1.5706 -2.3527 -0.2366
 9546TIP3   OH252832   5.932   5.208   2.626 -0.1976  0.3430  0.3653
 9546TIP3    H152833   5.936   5.271   2.554 -0.6658  0.2615  0.2612
 9546TIP3    H252834   6.005   5.232   2.683  1.1427 -0.5233 -0.8946
 9547TIP3   OH252835   7.026   2.616   1.822  0.7069  0.3258 -0.4782
 9547TIP3    H152836   6.998   2.682   1.758 -3.1793 -1.7309 -1.2376
 9547TIP3    H252837   7.058   2.543   1.768  1.2718  0.0966  0.1576
 9548TIP3   OH252838   0.337   7.517   2.602  0.1196  0.0592 -0.4587
 9548TIP3    H152839   0.343   7.609   2.626  1.4138 -0.1808  0.2038
 9548TIP3    H252840   0.363   7.469   2.681  2.5621 -0.7790 -1.6652
 9549TIP3   OH252841   0.752   3.640   2.004 -0.5036  0.6990  0.1745
 9549TIP3    H152842   0.844   3.637   2.031 -0.5311  1.8609  0.4289
 9549TIP3    H252843   0.730   3.733   2.000 -0.9809  0.5470 -2.3253
 9550TIP3   OH252844   7.131   5.456   0.874  0.2882 -0.3727 -0.3639
 9550TIP3    H152845   7.100   5.454   0.784 -0.0416 -1.1017 -0.2487
 9550TIP3    H252846   7.051   5.449   0.927  0.4939 -0.1808 -0.0245
 9551TIP3   OH252847   7.255   7.235   3.707  1.0029  0.3859  0.4805
 9551TIP3    H152848   7.297   7.219   3.792  0.8299 -1.1179  0.3111
 9551TIP3    H252849   7.322   7.210   3.643  0.7729  0.5407  0.1822
 9552TIP3   OH252850   4.020   7.538   1.629  0.0988  0.2476  0.1586
 9552TIP3    H152851   4.018   7.567   1.538 -1.1555  2.4242  0.7979
 9552TIP3    H252852   3.929   7.516   1.650  0.6850 -2.3334  0.3378
 9553TIP3   OH252853   2.015   6.775   2.376  0.2917 -0.0922  0.2765
 9553TIP3    H152854   1.963   6.807   2.302  1.2892 -0.9288 -0.8394
 9553TIP3    H252855   1.998   6.837   2.447  2.1455  3.0044 -1.7283
 9554TIP3   OH252856   1.233   2.493   0.943  0.0148 -0.5276 -0.1181
 9554TIP3    H152857   1.166   2.538   0.891  0.4215 -0.5351 -0.6565
 9554TIP3    H252858   1.185   2.458   1.019 -0.8058 -1.4986 -1.0495
 9555TIP3   OH252859   7.116   3.283   3.369  0.1911  0.3278 -0.8385
 9555TIP3    H152860   7.036   3.281   3.317  0.0838 -0.2348 -0.6602
 9555TIP3    H252861   7.176   3.224   3.323  0.1403 -0.0697 -0.3976
 9556TIP3   OH252862   6.352   0.067   2.280  0.1583  0.1749  0.5237
 9556TIP3    H152863   6.346  -0.027   2.300  1.2369 -0.1835 -0.6675
 9556TIP3    H252864   6.376   0.108   2.363  1.1049 -0.8062  0.7559
 9557TIP3   OH252865   2.280   7.022   0.922  0.0535 -0.1023 -0.0761
 9557TIP3    H152866   2.194   7.022   0.964  0.3206  0.7465  0.5053
 9557TIP3    H252867   2.327   6.950   0.964 -0.3614 -0.5652 -0.3909
 9558TIP3   OH252868   4.692   6.665   3.121  0.5995  0.2966 -0.3191
 9558TIP3    H152869   4.714   6.588   3.067 -2.3965 -0.6387 -0.3906
 9558TIP3    H252870   4.738   6.649   3.204  3.2713  0.5203 -1.6471
 9559TIP3   OH252871   0.690   1.689   3.557  0.5628 -0.5223  0.0616
 9559TIP3    H152872   0.753   1.761   3.562  0.3820 -0.2902 -0.8325
 9559TIP3    H252873   0.742   1.610   3.572  1.2241 -0.3997 -1.3693
 9560TIP3   OH252874   4.184   7.239   1.037 -0.5580  0.3954  0.0428
 9560TIP3    H152875   4.258   7.256   0.978 -1.0798  1.0750 -0.4325
 9560TIP3    H252876   4.218   7.260   1.124  0.3439 -1.0023  0.0564
 9561TIP3   OH252877   3.673   0.187   2.241  0.5685  0.0362 -0.3300
 9561TIP3    H152878   3.657   0.247   2.314  0.8098  0.3549 -0.5379
 9561TIP3    H252879   3.641   0.234   2.164 -0.0744 -0.4677 -0.3798
 9562TIP3   OH252880   2.716   0.708   1.917  0.4102 -0.1927  0.2881
 9562TIP3    H152881   2.683   0.628   1.876  0.4872 -1.5710  2.7291
 9562TIP3    H252882   2.640   0.745   1.962 -0.2468  2.5441 -2.6962
 9563TIP3   OH252883   4.444   1.893   1.786 -0.0089  0.0005 -0.4139
 9563TIP3    H152884   4.372   1.844   1.826  0.4770 -0.0837  0.3813
 9563TIP3    H252885   4.409   1.982   1.776 -0.7670 -0.3980 -1.5232
 9564TIP3   OH252886   4.827   3.958   2.456  0.0806 -0.3097 -0.2065
 9564TIP3    H152887   4.909   3.937   2.412  0.3976  0.0737  0.1974
 9564TIP3    H252888   4.844   3.942   2.549  0.2975  1.5713  0.1181
 9565TIP3   OH252889   4.283   7.116   2.124  0.1705 -0.1408 -0.3682
 9565TIP3    H152890   4.268   7.125   2.030 -0.0557 -0.5606 -0.3729
 9565TIP3    H252891   4.206   7.156   2.165 -0.6981 -1.7202 -0.3866
 9566TIP3   OH252892   5.346   6.701   2.526 -0.0702  0.2740 -0.1380
 9566TIP3    H152893   5.262   6.739   2.550 -0.0986  0.3582 -0.3688
 9566TIP3    H252894   5.405   6.776   2.518 -0.1416  0.2762 -0.6585
 9567TIP3   OH252895   7.003   4.699   1.572 -0.0693  0.2040  0.3373
 9567TIP3    H152896   6.985   4.793   1.579 -0.0039  0.1961  0.6373
 9567TIP3    H252897   6.918   4.657   1.585 -0.2010  0.2398 -0.3787
 9568TIP3   OH252898   0.231   4.523   1.781 -0.8378  0.6242  0.9150
 9568TIP3    H152899   0.164   4.585   1.753 -0.1536  0.8307 -0.3461
 9568TIP3    H252900   0.225   4.451   1.718 -0.6568  0.0927  1.4928
 9569TIP3   OH252901   3.300   4.031   0.938 -0.1295 -0.1276  0.2659
 9569TIP3    H152902   3.332   4.102   0.883  0.5122 -0.4134  0.2557
 9569TIP3    H252903   3.352   3.955   0.912 -0.7325 -0.5773  0.3515
 9570TIP3   OH252904   4.932   5.019   2.794 -0.2308  0.1068  0.0665
 9570TIP3    H152905   4.895   4.948   2.742 -0.1393  0.7744 -0.9164
 9570TIP3    H252906   4.937   5.094   2.735  1.0927  0.5217  0.6641
 9571TIP3   OH252907   6.481   1.864   2.402  0.6214  0.0495  0.1773
 9571TIP3    H152908   6.575   1.873   2.386  0.8341 -2.9651 -0.9160
 9571TIP3    H252909   6.475   1.835   2.493  1.0594 -2.2670 -0.4530
 9572TIP3   OH252910   1.603   3.019   3.102 -0.1114 -0.7305  0.5501
 9572TIP3    H152911   1.557   2.946   3.060 -0.5199 -1.2834  1.8751
 9572TIP3    H252912   1.672   2.976   3.154 -0.3636 -0.1776  1.3506
 9573TIP3   OH252913   4.808   6.360   1.484 -0.3429  0.7169  0.2017
 9573TIP3    H152914   4.877   6.345   1.418 -0.2319  0.9345  0.2700
 9573TIP3    H252915   4.781   6.271   1.509  1.7454  0.5198  2.1022
 9574TIP3   OH252916   0.527   4.060   1.255  0.0299  0.1276 -0.4126
 9574TIP3    H152917   0.470   4.007   1.199 -0.5851  1.8432 -1.4960
 9574TIP3    H252918   0.485   4.058   1.341 -1.6007  1.1958 -1.1406
 9575TIP3   OH252919   3.025   3.592   2.728 -0.1008  0.5195  0.5204
 9575TIP3    H152920   2.974   3.523   2.771  0.7573 -0.2192  0.3821
 9575TIP3    H252921   2.980   3.606   2.644 -0.6141  0.5494  0.7940
 9576TIP3   OH252922   7.393   7.640   0.665  0.3822  0.9444 -1.0821
 9576TIP3    H152923   7.332   7.712   0.655 -0.1666  0.3159 -2.6562
 9576TIP3    H252924   7.355   7.585   0.733 -1.1663  0.2664 -2.4320
 9577TIP3   OH252925   3.519   7.342   1.732 -0.0028 -0.5703 -0.0302
 9577TIP3    H152926   3.600   7.390   1.746 -0.8393  1.2841 -1.0743
 9577TIP3    H252927   3.501   7.352   1.638 -1.7876 -0.2815  0.3037
 9578TIP3   OH252928   3.838   5.462   2.012 -0.4623 -0.0126 -0.1925
 9578TIP3    H152929   3.823   5.422   2.098 -1.1494  0.2373 -0.1905
 9578TIP3    H252930   3.902   5.531   2.028 -0.6055  0.0480  0.1227
 9579TIP3   OH252931   6.425   0.630   2.055  0.2684 -0.2392 -0.0181
 9579TIP3    H152932   6.510   0.590   2.072  0.9769  0.0628 -2.5153
 9579TIP3    H252933   6.444   0.720   2.032 -0.8455  0.1245  0.4128
 9580TIP3   OH252934   6.781   1.812   1.702  0.2893 -0.9897 -0.0869
 9580TIP3    H152935   6.705   1.869   1.690 -0.5585 -1.6773  1.6767
 9580TIP3    H252936   6.856   1.867   1.681 -0.6346  0.0031 -0.8809
 9581TIP3   OH252937   0.576   5.217   2.069  0.7501  0.2523 -0.2450
 9581TIP3    H152938   0.587   5.294   2.013  1.0139  0.2568 -0.1909
 9581TIP3    H252939   0.657   5.168   2.058 -0.1271 -0.9449 -1.6663
 9582TIP3   OH252940   5.695   0.091   2.014 -0.6144  0.4903  0.7183
 9582TIP3    H152941   5.643   0.162   1.975 -1.7509 -1.2877 -1.1832
 9582TIP3    H252942   5.635   0.016   2.017  1.4608 -1.3184 -0.4857
 9583TIP3   OH252943   1.294   2.518   2.362  0.2680 -0.3558 -0.2211
 9583TIP3    H152944   1.306   2.575   2.438 -3.3951  0.7349 -0.2588
 9583TIP3    H252945   1.346   2.558   2.293  0.2518  1.1392  0.5944
 9584TIP3   OH252946   2.044   4.781   2.483  0.8325 -0.5227  0.1757
 9584TIP3    H152947   2.099   4.852   2.451  0.1429 -0.6820 -1.5108
 9584TIP3    H252948   2.081   4.702   2.443  0.0765 -0.7620 -0.0844
 9585TIP3   OH252949   1.660   6.022   0.361  1.1018  0.0968 -0.3898
 9585TIP3    H152950   1.683   5.934   0.331  2.0177  0.1547  0.1213
 9585TIP3    H252951   1.739   6.074   0.348  0.8176  0.6597  0.0470
 9586TIP3   OH252952   2.032   0.375   2.108 -0.7688 -0.4453 -0.2275
 9586TIP3    H152953   2.058   0.310   2.174  0.7330  0.5997  0.2394
 9586TIP3    H252954   2.078   0.348   2.028  1.8074  1.2930  0.5499
 9587TIP3   OH252955   2.706   0.337   1.149 -0.6419 -0.4561 -0.1558
 9587TIP3    H152956   2.663   0.253   1.136 -0.2912 -1.0814  2.3630
 9587TIP3    H252957   2.766   0.323   1.222  1.9562  1.0794 -1.8161
 9588TIP3   OH252958   0.782   7.181   2.743 -0.1654  0.6839 -0.3649
 9588TIP3    H152959   0.726   7.123   2.794  0.4390 -0.1580 -0.6158
 9588TIP3    H252960   0.866   7.181   2.790  0.8043 -1.1050 -1.9400
 9589TIP3   OH252961   5.973   6.609   2.259  0.0158 -0.4208 -0.0015
 9589TIP3    H152962   5.895   6.559   2.234 -0.3966  0.4154 -0.4295
 9589TIP3    H252963   5.947   6.653   2.340  0.3575 -0.8360  0.3401
 9590TIP3   OH252964   4.860   6.622   3.366  0.1544  0.3074  0.1461
 9590TIP3    H152965   4.905   6.552   3.413  0.9797 -0.1594 -1.2990
 9590TIP3    H252966   4.883   6.702   3.414  0.7139 -0.1783  0.7068
 9591TIP3   OH252967   1.812   2.606   1.296 -0.1521 -0.6349 -0.2511
 9591TIP3    H152968   1.718   2.590   1.308 -0.3687  1.3300  1.1379
 9591TIP3    H252969   1.837   2.659   1.371  2.0184 -0.7912 -0.7922
 9592TIP3   OH252970   3.502   6.097   0.922  0.3877  0.1640 -0.3049
 9592TIP3    H152971   3.519   6.180   0.877  1.0511 -0.0349 -0.4372
 9592TIP3    H252972   3.529   6.030   0.860  0.8753 -0.1265  0.2078
 9593TIP3   OH252973   4.587   6.105   2.503 -0.3808  0.2513  0.1743
 9593TIP3    H152974   4.560   6.167   2.436  0.9535  0.0349 -0.5941
 9593TIP3    H252975   4.682   6.100   2.495 -0.3670 -1.1803  0.8463
 9594TIP3   OH252976   6.690   4.489   3.355 -0.7968 -0.2566  0.4894
 9594TIP3    H152977   6.638   4.447   3.287  2.7610 -1.8584 -1.5054
 9594TIP3    H252978   6.751   4.421   3.384  0.8227  1.7081  1.9705
 9595TIP3   OH252979   6.760   6.941   1.193  0.1212  0.5068  0.0612
 9595TIP3    H152980   6.843   6.912   1.157 -1.0385  0.1762 -2.5875
 9595TIP3    H252981   6.757   7.035   1.175 -0.2487  0.4325 -0.2933
 9596TIP3   OH252982   2.497   1.695   0.962  0.2409 -0.4337  0.0120
 9596TIP3    H152983   2.539   1.685   1.048  0.2835  0.0877  0.0583
 9596TIP3    H252984   2.512   1.787   0.939 -0.8983 -0.2292  0.0394
 9597TIP3   OH252985   2.275   5.906   0.606  0.2948 -0.3865 -0.0903
 9597TIP3    H152986   2.322   5.961   0.544 -1.7512  2.5528  0.7557
 9597TIP3    H252987   2.196   5.879   0.559 -0.5550  0.6441  0.6838
 9598TIP3   OH252988   2.804   6.950   1.054  0.2062 -0.1865  0.5484
 9598TIP3    H152989   2.820   6.903   1.135  1.0029  0.1665  0.6028
 9598TIP3    H252990   2.790   6.882   0.988  2.4619 -0.5545  0.3862
 9599TIP3   OH252991   5.729   4.386   0.760  0.5632  0.6893  0.1824
 9599TIP3    H152992   5.701   4.395   0.669 -0.4644  0.5917  0.4822
 9599TIP3    H252993   5.823   4.366   0.754  0.2539 -0.6091 -0.9041
 9600TIP3   OH252994   2.625   3.489   2.133  0.1338  0.1423  0.3035
 9600TIP3    H152995   2.702   3.439   2.106  0.3066  0.3662  0.3737
 9600TIP3    H252996   2.617   3.557   2.066  0.9307  1.0821  1.1268
 9601TIP3   OH252997   6.696   0.040   0.878 -0.3731 -0.1121 -0.7539
 9601TIP3    H152998   6.647   0.123   0.882  1.0819  0.8945 -2.3218
 9601TIP3    H252999   6.727   0.026   0.967  0.3630  1.6979 -0.6909
 9602TIP3   OH253000   5.851   6.080   1.492 -0.2782  0.4762 -0.1155
 9602TIP3    H153001   5.787   6.021   1.453  0.0321  0.0335  0.0377
 9602TIP3    H253002   5.811   6.167   1.486 -0.7706  0.2396 -0.2687
 9603TIP3   OH253003   6.324   3.273   1.918  0.4404 -0.1069  0.0808
 9603TIP3    H153004   6.366   3.336   1.859  0.0634  2.0823  2.0218
 9603TIP3    H253005   6.234   3.268   1.886  0.7064 -0.4328 -0.6541
 9604TIP3   OH253006   6.763   2.647   3.252  0.1067  0.4123  0.0732
 9604TIP3    H153007   6.691   2.705   3.227  0.2922  0.5598 -0.1204
 9604TIP3    H253008   6.721   2.564   3.275 -0.0020 -0.0145 -1.5909
 9605TIP3   OH253009   7.037   2.723   3.239  0.0866  0.0192 -0.3326
 9605TIP3    H153010   6.944   2.707   3.254 -0.0206 -0.4860 -1.4111
 9605TIP3    H253011   7.082   2.654   3.287 -0.1964 -0.9455 -1.4170
 9606TIP3   OH253012   6.032   4.042   2.367 -0.2220 -0.2051 -0.6124
 9606TIP3    H153013   6.061   4.112   2.425  2.3913 -0.3379 -1.5992
 9606TIP3    H253014   6.013   4.085   2.284  1.4260 -0.5996 -1.2331
 9607TIP3   OH253015   0.099   6.824   2.585 -0.5256  0.4594  0.4663
 9607TIP3    H153016   0.092   6.855   2.675 -2.0534 -0.2395  0.6257
 9607TIP3    H253017   0.183   6.858   2.554  0.0013  0.7649  2.1251
 9608TIP3   OH253018   6.558   5.621   1.366  0.4146  0.4923 -0.1224
 9608TIP3    H153019   6.565   5.708   1.327 -0.3869 -0.1122 -1.7181
 9608TIP3    H253020   6.602   5.563   1.304  2.1576 -0.1055  1.5838
 9609TIP3   OH253021   6.710   1.369   0.438 -0.2914  0.6646 -0.0650
 9609TIP3    H153022   6.638   1.391   0.498 -0.6195  0.0281 -0.2194
 9609TIP3    H253023   6.725   1.275   0.452 -1.0549  0.2643 -1.6997
 9610TIP3   OH253024   0.482   0.447   0.722 -0.1053  0.2546  0.0952
 9610TIP3    H153025   0.405   0.391   0.731  0.4184 -0.5452 -0.3031
 9610TIP3    H253026   0.556   0.387   0.733  0.4637  1.1178  1.1192
 9611TIP3   OH253027   4.369   6.143   2.977 -0.2205  0.0704  0.0865
 9611TIP3    H153028   4.423   6.188   3.042  1.0418  1.4225 -1.7874
 9611TIP3    H253029   4.285   6.189   2.980  0.3777  1.2366 -0.3541
 9612TIP3   OH253030   2.917   1.185   1.513  0.1392 -0.4792  0.5543
 9612TIP3    H153031   2.990   1.149   1.563 -0.2395 -1.6312  0.3142
 9612TIP3    H253032   2.868   1.108   1.483  0.7070  0.1066 -2.1464
 9613TIP3   OH253033   1.107   3.012   2.711 -0.1708  0.1663 -0.0137
 9613TIP3    H153034   1.129   2.968   2.793  1.5469  1.3621  0.2163
 9613TIP3    H253035   1.173   2.981   2.649 -0.8019  0.1003 -0.6616
 9614TIP3   OH253036   7.364   2.367   2.545  0.5235  0.1114 -0.0101
 9614TIP3    H153037   7.330   2.386   2.458 -0.6194  0.4174  0.4764
 9614TIP3    H253038   7.332   2.439   2.599  2.4062  0.6908  0.4022
 9615TIP3   OH253039   1.178   0.698   1.121 -0.1095  0.2693 -0.1337
 9615TIP3    H153040   1.173   0.703   1.217  0.3980 -0.6863 -0.0348
 9615TIP3    H253041   1.241   0.627   1.105  0.9180  1.3731 -1.1769
 9616TIP3   OH253042   2.871   0.106   1.843  0.7495 -0.4485 -0.0838
 9616TIP3    H153043   2.797   0.098   1.783  0.1954  1.4136  0.2990
 9616TIP3    H253044   2.908   0.192   1.824  2.7781 -1.2840 -0.1779
 9617TIP3   OH253045   5.642   4.982   1.891 -0.0569  1.2538  0.0636
 9617TIP3    H153046   5.712   4.965   1.828 -1.2518  1.0579 -1.2730
 9617TIP3    H253047   5.666   5.065   1.932  1.6800  0.4819  0.7035
 9618TIP3   OH253048   6.340   1.127   1.891 -0.3167  0.6306 -0.3292
 9618TIP3    H153049   6.254   1.091   1.914 -0.6818  2.1383  0.7649
 9618TIP3    H253050   6.333   1.221   1.910  0.8988  1.1595 -2.2217
 9619TIP3   OH253051   7.395   0.120   1.441  0.4844  0.2067 -0.3867
 9619TIP3    H153052   7.422   0.181   1.510  0.6858 -1.2676  0.9028
 9619TIP3    H253053   7.310   0.087   1.469  0.9384 -1.0332 -0.3867
 9620TIP3   OH253054   1.614   4.875   3.088  0.1257  0.3610  0.4150
 9620TIP3    H153055   1.650   4.964   3.095  2.2347 -0.4523  0.5478
 9620TIP3    H253056   1.680   4.819   3.129 -0.9004 -1.3388 -0.1613
 9621TIP3   OH253057   3.597   5.690   2.914 -0.5703 -0.3641  0.1372
 9621TIP3    H153058   3.507   5.723   2.924 -0.0381  1.8169 -1.5212
 9621TIP3    H253059   3.610   5.684   2.820  2.0992  2.8784  0.1167
 9622TIP3   OH253060   1.885   5.962   2.116 -0.2166  0.1384 -0.2410
 9622TIP3    H153061   1.857   6.048   2.145  0.4181  0.3314 -0.1742
 9622TIP3    H253062   1.885   5.908   2.195 -0.1424  0.2087 -0.1928
 9623TIP3   OH253063   1.406   3.178   2.502 -0.3451  0.0598  0.1059
 9623TIP3    H153064   1.413   3.116   2.430 -0.6390  0.3184 -0.1510
 9623TIP3    H253065   1.353   3.249   2.467 -0.1360  0.3877  0.4419
 9624TIP3   OH253066   1.243   5.462   2.046 -0.5371  0.7764 -0.1402
 9624TIP3    H153067   1.324   5.495   2.084 -2.0633  2.4844  1.8794
 9624TIP3    H253068   1.228   5.517   1.970 -0.4732  1.3933  0.2827
 9625TIP3   OH253069   6.902   3.852   2.413 -0.0654  0.2216  0.0874
 9625TIP3    H153070   6.872   3.788   2.479  0.4805  0.3432  0.4619
 9625TIP3    H253071   6.972   3.900   2.457  1.4186 -0.7443 -1.0946
 9626TIP3   OH253072   7.068   5.588   2.735 -0.0635  0.3376  0.2062
 9626TIP3    H153073   6.973   5.595   2.728 -0.1895  0.2652  1.5293
 9626TIP3    H253074   7.089   5.629   2.819  1.4633  3.3017 -1.4613
 9627TIP3   OH253075   3.442   3.407   1.263 -0.0577 -0.2394  0.3681
 9627TIP3    H153076   3.458   3.474   1.197  1.5253 -0.7224  0.2338
 9627TIP3    H253077   3.357   3.431   1.301 -0.7305  0.3616 -1.4410
 9628TIP3   OH253078   4.270   3.860   2.726 -0.3366  0.1690  0.0766
 9628TIP3    H153079   4.287   3.782   2.674 -0.4054  0.1435  0.0917
 9628TIP3    H253080   4.343   3.865   2.788 -0.1615  0.2991 -0.1422
 9629TIP3   OH253081   6.197   0.916   2.509 -0.3148 -0.4729 -0.8882
 9629TIP3    H153082   6.164   0.891   2.595 -0.7841 -1.0804 -1.2307
 9629TIP3    H253083   6.210   0.832   2.464  0.7351 -0.2010 -1.1173
 9630TIP3   OH253084   3.784   4.049   3.134 -0.0733  0.5433 -0.3140
 9630TIP3    H153085   3.730   4.035   3.056 -0.7223  0.7754  0.0793
 9630TIP3    H253086   3.864   3.999   3.118 -0.3672  0.2698 -0.9563
 9631TIP3   OH253087   1.784   2.745   2.120  0.0852  0.1902  0.0143
 9631TIP3    H153088   1.873   2.749   2.153 -0.3145 -0.5733  1.2628
 9631TIP3    H253089   1.762   2.835   2.095  1.4359  0.2664 -1.0202
 9632TIP3   OH253090   5.461   2.250   1.278  0.7124  0.3573 -0.7727
 9632TIP3    H153091   5.390   2.209   1.327 -1.0025  2.1253 -1.6099
 9632TIP3    H253092   5.510   2.177   1.240  1.0594 -1.0141  2.0199
 9633TIP3   OH253093   5.318   2.908   1.381  0.6351  0.2497 -0.0191
 9633TIP3    H153094   5.262   2.961   1.324  0.4559  2.9457  2.4228
 9633TIP3    H253095   5.407   2.929   1.352  0.5186 -0.0655 -0.6333
 9634TIP3   OH253096   7.397   5.980   1.578 -0.3118 -0.2876 -0.5616
 9634TIP3    H153097   7.460   6.007   1.645  0.1609 -0.2622 -1.0140
 9634TIP3    H253098   7.397   6.051   1.515 -1.7053  0.2843  0.0386
 9635TIP3   OH253099   6.082   2.465   0.771 -0.5261 -0.6770  0.6669
 9635TIP3    H153100   6.033   2.547   0.775 -0.7862 -0.8642  1.4187
 9635TIP3    H253101   6.023   2.399   0.808 -0.5443 -1.3253 -0.4638
 9636TIP3   OH253102   2.526   0.164   2.655  0.3997  0.0025  0.1000
 9636TIP3    H153103   2.501   0.235   2.714 -0.6779 -0.6970  0.5092
 9636TIP3    H253104   2.452   0.103   2.657  1.2095 -1.0421 -0.3817
 9637TIP3   OH253105   0.896   6.711   2.559  0.0486  0.0032  0.1719
 9637TIP3    H153106   0.906   6.618   2.540  1.1529  0.2287 -0.4148
 9637TIP3    H253107   0.947   6.755   2.491 -1.5466  1.0943 -0.3698
 9638TIP3   OH253108   4.342   7.487   2.384  0.8410 -0.3724  0.2295
 9638TIP3    H153109   4.424   7.494   2.432  1.0228 -2.5364  0.3261
 9638TIP3    H253110   4.318   7.395   2.390 -0.3712 -0.2593 -1.8278
 9639TIP3   OH253111   5.519   3.326   0.485  0.0094  0.2574 -0.0006
 9639TIP3    H153112   5.604   3.333   0.527 -0.5436  0.7205  1.0944
 9639TIP3    H253113   5.508   3.409   0.438 -0.7047  1.1198  1.6046
 9640TIP3   OH253114   1.367   6.264   2.683 -0.1579 -0.5792  0.2778
 9640TIP3    H153115   1.456   6.261   2.718 -0.3203  1.7541  1.0781
 9640TIP3    H253116   1.377   6.243   2.590  1.6058  1.6937 -0.1588
 9641TIP3   OH253117   2.626   2.699   1.283 -0.6710  0.6630  0.5651
 9641TIP3    H153118   2.628   2.631   1.351 -0.2931 -2.1789 -2.0812
 9641TIP3    H253119   2.718   2.709   1.256 -0.8784  1.3490  0.0682
 9642TIP3   OH253120   4.401   0.460   2.529  0.2393  0.1228  0.5562
 9642TIP3    H153121   4.332   0.393   2.529  0.7473 -0.4381 -0.5647
 9642TIP3    H253122   4.477   0.415   2.492  1.1718  0.7744  1.6326
 9643TIP3   OH253123   4.820   4.921   1.623 -0.4561 -0.0621  0.1836
 9643TIP3    H153124   4.906   4.964   1.621 -0.3743 -0.2436 -0.2169
 9643TIP3    H253125   4.813   4.877   1.539 -0.3849 -1.1421  0.7245
 9644TIP3   OH253126   3.760   2.207   1.620 -0.3432 -0.0669  1.0562
 9644TIP3    H153127   3.820   2.158   1.563  0.9241 -1.0322  3.0981
 9644TIP3    H253128   3.673   2.175   1.596  0.0469  0.1799 -0.8707
 9645TIP3   OH253129   4.945   2.078   0.782  0.3365  0.1660 -0.5276
 9645TIP3    H153130   5.019   2.129   0.812  0.0247  0.2009  0.2071
 9645TIP3    H253131   4.925   2.113   0.695  1.3823 -0.0739 -0.8735
 9646TIP3   OH253132   5.277   0.029   1.595  0.2546 -0.8949  0.7266
 9646TIP3    H153133   5.371   0.043   1.593  0.2732 -0.6119  2.2009
 9646TIP3    H253134   5.247   0.046   1.506  1.4225  0.2968  0.5448
 9647TIP3   OH253135   6.000   0.105   2.414  0.1678  0.0909  0.0878
 9647TIP3    H153136   5.968   0.142   2.332  0.8396  0.4814 -0.0014
 9647TIP3    H253137   6.077   0.157   2.436  1.6445 -1.7334 -0.4412
 9648TIP3   OH253138   4.879   2.161   1.489 -0.0342 -0.1161 -0.5983
 9648TIP3    H153139   4.825   2.175   1.567  1.2248 -2.0213  0.7252
 9648TIP3    H253140   4.828   2.196   1.417 -2.2646 -0.3383  0.7913
 9649TIP3   OH253141   1.621   7.632   3.050  0.0363 -0.1296 -0.3119
 9649TIP3    H153142   1.642   7.548   3.091 -0.9072 -0.6850 -0.9368
 9649TIP3    H253143   1.544   7.614   2.996  0.8643  0.7227 -1.8300
 9650TIP3   OH253144   5.052   3.734   0.464  0.2679 -0.3256  0.4598
 9650TIP3    H153145   5.031   3.656   0.413  0.9542  0.5263 -1.1839
 9650TIP3    H253146   4.973   3.753   0.514 -0.3342 -1.3200 -0.1008
 9651TIP3   OH253147   4.555   7.461   2.550  0.4826  0.4743 -0.1888
 9651TIP3    H153148   4.586   7.374   2.575 -2.0272 -0.4340  0.0735
 9651TIP3    H253149   4.519   7.497   2.631 -0.0230  1.0406 -0.6594
 9652TIP3   OH253150   0.889   3.363   2.048 -0.3714  0.2450 -0.7594
 9652TIP3    H153151   0.893   3.349   2.143  1.1808  2.3074 -0.4492
 9652TIP3    H253152   0.864   3.455   2.039  0.1098  0.2405 -2.3502
 9653TIP3   OH253153   0.794   6.375   1.399  0.6625 -0.2207 -0.0762
 9653TIP3    H153154   0.793   6.280   1.417 -0.6566 -0.6183 -1.9486
 9653TIP3    H253155   0.749   6.413   1.475  0.3562 -1.1975  0.2616
 9654TIP3   OH253156   1.934   2.256   2.527 -0.6385 -0.0019  0.4703
 9654TIP3    H153157   1.963   2.295   2.444 -0.9396  1.5845  1.0790
 9654TIP3    H253158   1.855   2.206   2.504  0.1226 -0.8393 -0.4390
 9655TIP3   OH253159   5.980   4.115   1.294  0.2558  0.4470  0.0242
 9655TIP3    H153160   6.024   4.047   1.346  1.3364  0.5256 -0.7624
 9655TIP3    H253161   5.901   4.072   1.261 -0.3313  0.3222  1.5103
 9656TIP3   OH253162   0.005   2.980   1.850  0.2610  0.0026  0.1933
 9656TIP3    H153163  -0.038   3.005   1.769  1.6782  0.8573 -0.3380
 9656TIP3    H253164  -0.015   3.051   1.911  2.2227  1.3170 -0.5696
 9657TIP3   OH253165   7.574   6.010   0.984 -0.2896 -0.0647  0.1443
 9657TIP3    H153166   7.653   6.000   1.036  0.1724 -0.4454 -0.6055
 9657TIP3    H253167   7.531   5.924   0.990  1.1707 -1.0771 -2.2914
 9658TIP3   OH253168   6.499   2.759   1.189 -0.0286  0.5526 -0.2632
 9658TIP3    H153169   6.484   2.746   1.283  1.3703 -1.2638 -0.2244
 9658TIP3    H253170   6.594   2.766   1.181  0.2534 -2.9637 -1.8456
 9659TIP3   OH253171   7.299   7.426   2.126 -0.2193  0.1202 -0.0643
 9659TIP3    H153172   7.321   7.500   2.183 -1.9781 -0.1142  1.0031
 9659TIP3    H253173   7.223   7.456   2.076  0.7868  0.0112 -1.7174
 9660TIP3   OH253174   2.303   6.248   1.810  0.1334  0.4126 -0.0659
 9660TIP3    H153175   2.320   6.182   1.743  0.2572  0.9488 -0.5733
 9660TIP3    H253176   2.208   6.255   1.813  0.0050 -1.3053  1.5075
 9661TIP3   OH253177   2.729   6.267   3.139 -0.4888  0.8648 -0.2370
 9661TIP3    H153178   2.709   6.355   3.169 -1.5224  0.3192  0.7744
 9661TIP3    H253179   2.678   6.257   3.058 -2.6155  0.3010  1.0891
 9662TIP3   OH253180   4.806   2.380   3.462 -0.5245  0.1702 -0.0696
 9662TIP3    H153181   4.826   2.450   3.399  2.5423  1.1135  1.6899
 9662TIP3    H253182   4.766   2.311   3.410 -0.1331  1.7296 -2.6247
 9663TIP3   OH253183   5.096   2.522   2.375  0.1913  0.4028  0.5293
 9663TIP3    H153184   5.024   2.556   2.321  1.2646  1.3412 -0.3550
 9663TIP3    H253185   5.078   2.555   2.463 -1.2490 -0.6246  0.6637
 9664TIP3   OH253186   4.330   7.263   1.291 -0.4285  0.4025  0.0378
 9664TIP3    H153187   4.404   7.306   1.332  0.6298 -1.5594  0.3019
 9664TIP3    H253188   4.316   7.184   1.343 -0.7436 -0.8013 -1.7873
 9665TIP3   OH253189   7.283   4.342   2.729  0.2590  0.2889  0.1829
 9665TIP3    H153190   7.345   4.409   2.698 -0.5846  0.8793 -0.2675
 9665TIP3    H253191   7.201   4.365   2.687 -0.0916 -0.9381  0.1770
 9666TIP3   OH253192   1.249   2.644   2.090 -0.4722  0.3796  1.2501
 9666TIP3    H153193   1.228   2.627   1.998 -0.8714  0.3501  1.3472
 9666TIP3    H253194   1.281   2.734   2.091 -0.1308  0.2636  1.0273
 9667TIP3   OH253195   7.177   1.424   2.396 -0.3148  0.0881  0.0092
 9667TIP3    H153196   7.225   1.401   2.317 -0.9003  0.2650 -0.4021
 9667TIP3    H253197   7.097   1.467   2.364 -1.5777 -1.7156  0.6215
 9668TIP3   OH253198   5.806   6.457   1.990 -0.4738 -0.0725  0.2581
 9668TIP3    H153199   5.863   6.382   1.974  0.5513  0.7592 -0.1081
 9668TIP3    H253200   5.861   6.533   1.971 -2.1202  0.7427 -1.5377
 9669TIP3   OH253201   6.368   1.015   2.296 -0.2769  0.3335 -0.5580
 9669TIP3    H153202   6.301   0.992   2.361  1.3969 -0.6503  0.9114
 9669TIP3    H253203   6.451   0.991   2.338  1.0817  2.2105 -1.9950
 9670TIP3   OH253204   2.833   4.970   1.667 -0.3027  0.3316  0.0585
 9670TIP3    H153205   2.797   4.933   1.587  0.3825  1.0085 -0.5822
 9670TIP3    H253206   2.851   5.062   1.645 -0.1773  0.5460  1.0053
 9671TIP3   OH253207   1.614   4.210   2.491 -0.3031 -0.3468 -0.0692
 9671TIP3    H153208   1.520   4.197   2.503 -0.3078 -0.7237 -0.4916
 9671TIP3    H253209   1.626   4.305   2.498 -0.7450 -0.2759 -0.2173
 9672TIP3   OH253210   7.467   5.629   2.173  0.2821 -0.2516  0.1287
 9672TIP3    H153211   7.488   5.596   2.085 -0.7332  0.1508 -0.2816
 9672TIP3    H253212   7.540   5.686   2.195  0.7940 -0.7542 -0.2403
 9673TIP3   OH253213   0.807   4.003   1.678  0.6506  0.0042 -0.5294
 9673TIP3    H153214   0.829   3.916   1.645  0.4597 -0.1805 -0.1785
 9673TIP3    H253215   0.889   4.037   1.714  0.4727 -0.5141  0.3981
 9674TIP3   OH253216   7.625   4.443   1.450  0.1724  0.1639  0.0374
 9674TIP3    H153217   7.590   4.397   1.373  0.3421 -0.4684  0.3321
 9674TIP3    H253218   7.557   4.506   1.473  0.3882  0.8264 -1.0208
 9675TIP3   OH253219   1.986   3.591   1.135 -0.1757  0.2508 -0.2206
 9675TIP3    H153220   2.066   3.539   1.125  0.1142  0.3504  1.2937
 9675TIP3    H253221   1.932   3.539   1.194 -0.4312  1.0562  0.2697
 9676TIP3   OH253222   6.283   1.600   0.909  0.3538 -0.0479  0.2251
 9676TIP3    H153223   6.226   1.562   0.976  1.0058  1.0535  1.4524
 9676TIP3    H253224   6.257   1.557   0.827 -0.0120 -1.9003  1.2803
 9677TIP3   OH253225   3.204   4.333   1.297  0.0569  0.5124 -0.1735
 9677TIP3    H153226   3.156   4.263   1.342  1.0608  0.1781  0.3954
 9677TIP3    H253227   3.193   4.313   1.204 -1.4472  0.8134 -0.0808
 9678TIP3   OH253228   2.392   5.880   1.628  0.0921 -0.4757  0.7073
 9678TIP3    H153229   2.446   5.957   1.644  0.7305 -0.9854  1.0578
 9678TIP3    H253230   2.332   5.877   1.702 -0.1120 -0.1697  0.5571
 9679TIP3   OH253231   6.709   3.527   1.272  0.1478 -0.0064 -0.1975
 9679TIP3    H153232   6.736   3.471   1.344  0.1412  0.4612  0.1699
 9679TIP3    H253233   6.790   3.547   1.225  0.0279 -1.1402 -0.9332
 9680TIP3   OH253234   2.030   3.265   2.573 -0.6389  0.3104  0.1643
 9680TIP3    H153235   2.062   3.280   2.662 -2.1206  2.7001  0.3752
 9680TIP3    H253236   1.943   3.305   2.571 -1.2069 -0.8806 -1.9933
 9681TIP3   OH253237   4.862   6.293   2.273  0.1635  0.4500 -0.0475
 9681TIP3    H153238   4.901   6.379   2.287 -1.9509  1.4247  0.3608
 9681TIP3    H253239   4.932   6.231   2.292  1.5234  2.0581  0.4571
 9682TIP3   OH253240   6.769   4.233   1.632 -0.4063  0.3241  0.0962
 9682TIP3    H153241   6.723   4.246   1.715  0.1591  0.9797  0.3228
 9682TIP3    H253242   6.854   4.197   1.657  0.3002  1.8143 -0.0725
 9683TIP3   OH253243   7.536   1.912   0.532 -0.3121  0.2585 -0.0981
 9683TIP3    H153244   7.617   1.953   0.502  0.6038 -1.9632 -0.8284
 9683TIP3    H253245   7.468   1.950   0.476  0.8532 -0.9571 -2.4646
 9684TIP3   OH253246   6.055   1.047   1.946  0.6177  0.2309 -0.1034
 9684TIP3    H153247   6.023   1.022   2.032 -1.4069  0.0467 -0.8510
 9684TIP3    H253248   6.046   0.968   1.893  0.8958  0.6079 -0.7272
 9685TIP3   OH253249   3.616   5.781   3.351  0.3479 -0.0289 -0.3409
 9685TIP3    H153250   3.548   5.717   3.329  3.1848 -2.8259 -1.7653
 9685TIP3    H253251   3.670   5.787   3.272  3.4277 -0.2116  1.5872
 9686TIP3   OH253252   1.918   2.055   2.728 -0.6164  0.1957 -0.3613
 9686TIP3    H153253   1.863   2.052   2.650  0.5284  0.2702 -1.2036
 9686TIP3    H253254   2.007   2.047   2.694 -0.1219 -0.1581  0.9801
 9687TIP3   OH253255   6.771   6.276   2.111  0.6916 -0.5612 -0.5658
 9687TIP3    H153256   6.729   6.199   2.150  2.3767 -0.7511  0.9924
 9687TIP3    H253257   6.860   6.248   2.093  1.3971  1.0605  0.2166
 9688TIP3   OH253258   2.047   2.734   0.749 -0.4402 -0.2418  0.1627
 9688TIP3    H153259   2.130   2.688   0.756 -0.4779 -0.7752 -1.9918
 9688TIP3    H253260   1.995   2.703   0.823  0.6672 -1.1997  0.5646
 9689TIP3   OH253261   6.119   1.441   2.401 -0.5163  0.8292 -0.0268
 9689TIP3    H153262   6.146   1.486   2.481  0.8962  0.4459 -0.2636
 9689TIP3    H253263   6.145   1.500   2.330  0.0886  0.2594 -0.2820
 9690TIP3   OH253264   7.465   0.468   3.345 -0.6425 -0.3466 -0.2070
 9690TIP3    H153265   7.500   0.468   3.256  0.4427  2.5771  0.1376
 9690TIP3    H253266   7.496   0.386   3.383  1.1870 -0.3794 -1.6722
 9691TIP3   OH253267   7.395   5.669   1.336 -0.1316 -0.4787 -0.6643
 9691TIP3    H153268   7.417   5.668   1.429 -0.5956  0.2626 -0.5462
 9691TIP3    H253269   7.337   5.744   1.325  0.9080  0.1936 -1.7804
 9692TIP3   OH253270   1.757   4.215   2.230  0.3699 -0.6900  0.0779
 9692TIP3    H153271   1.712   4.216   2.315 -0.6163 -0.3750 -0.4267
 9692TIP3    H253272   1.732   4.131   2.190 -2.7481  0.8706 -1.6755
 9693TIP3   OH253273   5.483   5.062   1.247  0.6303  0.2986  0.1524
 9693TIP3    H153274   5.485   4.978   1.200 -0.5021  0.0212  0.5478
 9693TIP3    H253275   5.557   5.111   1.212  0.3581 -0.2455 -1.2667
 9694TIP3   OH253276   6.710   4.340   2.267  0.0824  1.0433  0.2518
 9694TIP3    H153277   6.695   4.384   2.351  2.1665  0.9462  0.7187
 9694TIP3    H253278   6.777   4.275   2.286 -1.4136 -0.9449 -0.8957
 9695TIP3   OH253279   6.400   6.807   1.042  0.5347  0.5367 -0.1286
 9695TIP3    H153280   6.314   6.766   1.033  0.9923 -0.4089 -0.2062
 9695TIP3    H253281   6.381   6.901   1.044 -0.3391  0.4446 -2.0289
 9696TIP3   OH253282   5.121   2.774   1.498 -0.2769 -0.2026  0.7911
 9696TIP3    H153283   5.029   2.782   1.473 -0.5330  0.4585  1.8668
 9696TIP3    H253284   5.168   2.826   1.434 -0.4562 -1.7587 -0.6904
 9697TIP3   OH253285   7.255   7.071   0.508  0.0745  0.2017  0.0705
 9697TIP3    H153286   7.230   7.025   0.427  1.4311  0.3899 -0.4672
 9697TIP3    H253287   7.350   7.076   0.505  0.1173  0.6163  1.4761
 9698TIP3   OH253288   4.876   5.479   1.619 -0.8119  0.2915 -0.2702
 9698TIP3    H153289   4.971   5.489   1.615 -0.9905  1.9535 -1.1206
 9698TIP3    H253290   4.852   5.513   1.705 -0.7893  1.5775 -0.7530
 9699TIP3   OH253291   1.709   6.393   2.258  0.0082 -0.2650  0.0569
 9699TIP3    H153292   1.654   6.357   2.189 -0.5638 -0.5085  0.6358
 9699TIP3    H253293   1.701   6.330   2.330 -1.2876  1.1655  1.2203
 9700TIP3   OH253294   0.572   7.230   1.696 -0.3149  1.1462  0.2957
 9700TIP3    H153295   0.500   7.293   1.708  0.5931  2.2466  0.1366
 9700TIP3    H253296   0.528   7.147   1.677 -1.5650  1.5603  1.2169
 9701TIP3   OH253297   7.221   3.679   2.858 -0.0246 -0.0659  0.2243
 9701TIP3    H153298   7.268   3.693   2.940 -0.8928 -0.2388  0.7657
 9701TIP3    H253299   7.129   3.681   2.882 -0.2914 -2.3225 -0.3661
 9702TIP3   OH253300   3.584   4.789   2.662  0.0231 -0.1854 -0.0062
 9702TIP3    H153301   3.672   4.763   2.690 -0.2711 -0.5205  0.6070
 9702TIP3    H253302   3.535   4.708   2.657 -0.1314 -0.0520 -0.8033
 9703TIP3   OH253303   0.745   0.840   1.407  0.0110  0.4760 -0.2302
 9703TIP3    H153304   0.779   0.923   1.374  1.0109  0.9455  1.7991
 9703TIP3    H253305   0.820   0.800   1.451 -0.3249 -1.7700 -1.5725
 9704TIP3   OH253306   3.958   0.293   1.934 -0.4189  0.0024  0.8944
 9704TIP3    H153307   3.981   0.261   2.021 -0.9945  1.5203  1.6476
 9704TIP3    H253308   3.875   0.250   1.913 -0.6320  0.1568  1.4133
 9705TIP3   OH253309   5.300   4.830   2.177  0.3474 -0.5441 -0.0887
 9705TIP3    H153310   5.396   4.828   2.174  0.3445 -0.3238 -0.4558
 9705TIP3    H253311   5.277   4.915   2.139  0.0571  0.2036  1.6559
 9706TIP3   OH253312   5.715   6.535   2.714 -0.5916 -0.0803  0.2674
 9706TIP3    H153313   5.653   6.470   2.681  1.0179 -0.7583 -1.5911
 9706TIP3    H253314   5.754   6.493   2.791 -0.6520 -0.6902 -0.0267
 9707TIP3   OH253315   0.935   4.808   1.110 -0.3012 -0.0069  0.4152
 9707TIP3    H153316   0.993   4.829   1.183  0.1445  0.8366 -0.1534
 9707TIP3    H253317   0.883   4.887   1.097  0.2100  0.1787 -0.6890
 9708TIP3   OH253318   6.440   1.469   3.001 -0.1984 -0.2757 -0.0813
 9708TIP3    H153319   6.434   1.561   3.028  0.3554 -0.3846  0.4521
 9708TIP3    H253320   6.525   1.462   2.958  0.2535 -0.7706  0.8637
 9709TIP3   OH253321   0.255   5.849   3.148  0.2527 -0.2168 -0.7496
 9709TIP3    H153322   0.336   5.897   3.165  0.5669 -0.6353 -1.0589
 9709TIP3    H253323   0.279   5.783   3.084 -0.3560 -0.2897 -0.9093
 9710TIP3   OH253324   3.127   2.379   1.996  0.3915 -0.3483 -0.1974
 9710TIP3    H153325   3.131   2.435   2.073  1.1752  1.7041 -1.6520
 9710TIP3    H253326   3.076   2.303   2.025 -2.7254  2.0504  1.3018
 9711TIP3   OH253327   1.558   0.198   2.483  0.5788 -0.7573  0.8047
 9711TIP3    H153328   1.590   0.287   2.469  1.8081 -0.9252  2.2629
 9711TIP3    H253329   1.485   0.188   2.421  1.4286  0.7013 -0.4813
 9712TIP3   OH253330   1.015   5.251   1.439 -0.1048  0.1079  0.2231
 9712TIP3    H153331   0.929   5.212   1.457  0.2391 -1.0945 -0.6548
 9712TIP3    H253332   1.008   5.284   1.349 -0.3663  2.0952  0.9141
 9713TIP3   OH253333   4.436   6.352   1.703 -0.2234  0.0637  0.1413
 9713TIP3    H153334   4.349   6.332   1.669 -0.1586  0.1493 -0.0714
 9713TIP3    H253335   4.424   6.434   1.750  0.3207  1.5863 -2.2329
 9714TIP3   OH253336   5.813   0.441   2.265 -0.1673 -0.4089 -0.2915
 9714TIP3    H153337   5.838   0.439   2.358 -0.1327  0.0146 -0.2925
 9714TIP3    H253338   5.871   0.376   2.224  0.3507 -0.0491 -0.1460
 9715TIP3   OH253339   4.654   5.491   3.038 -0.6037 -0.3258 -0.4297
 9715TIP3    H153340   4.559   5.482   3.032 -0.7218 -0.2348  0.8765
 9715TIP3    H253341   4.678   5.441   3.116  0.7095 -2.0782 -1.8658
 9716TIP3   OH253342   5.279   3.477   3.100 -0.3079 -0.0358  0.0643
 9716TIP3    H153343   5.190   3.454   3.128 -0.1895 -1.4245 -0.6013
 9716TIP3    H253344   5.332   3.402   3.126  0.2582 -0.2161 -1.5175
 9717TIP3   OH253345   4.787   3.827   1.010 -0.1460  0.5337  0.0739
 9717TIP3    H153346   4.857   3.821   0.945  0.1220  1.5454  0.2499
 9717TIP3    H253347   4.823   3.884   1.078 -0.6123 -0.0979  0.8668
 9718TIP3   OH253348   2.849   4.528   2.906 -0.2851 -0.3101  0.2112
 9718TIP3    H153349   2.914   4.585   2.948  0.2747 -1.5463  1.0757
 9718TIP3    H253350   2.765   4.573   2.921  0.2397  0.7251  0.0933
 9719TIP3   OH253351   7.222   3.746   1.554 -0.4896 -0.1420 -0.7208
 9719TIP3    H153352   7.145   3.689   1.547  0.0884 -0.7310 -2.9576
 9719TIP3    H253353   7.287   3.705   1.497  0.6602  1.6555 -0.7670
 9720TIP3   OH253354   4.205   3.002   1.452  0.0711  0.3871 -0.2318
 9720TIP3    H153355   4.151   3.037   1.522  0.5541 -0.5633  0.6374
 9720TIP3    H253356   4.145   2.949   1.399 -0.3257  1.2365 -0.6572
 9721TIP3   OH253357   2.071   1.914   2.074 -0.4002 -0.1274 -0.3074
 9721TIP3    H153358   2.016   1.913   1.995 -1.4796  1.6533  0.3534
 9721TIP3    H253359   2.009   1.911   2.147  0.6150 -4.5652  0.6825
 9722TIP3   OH253360   3.151   4.326   1.662  0.3103 -0.2337 -0.2965
 9722TIP3    H153361   3.130   4.242   1.621 -0.6527 -0.0948 -0.1280
 9722TIP3    H253362   3.066   4.368   1.675  0.7696  0.7160 -0.2542
 9723TIP3   OH253363   5.967   3.610   2.651  0.1288  0.4934  0.2706
 9723TIP3    H153364   5.975   3.705   2.660  1.8816  0.3902  0.2476
 9723TIP3    H253365   5.920   3.597   2.569 -2.3951  1.3241  1.4864
 9724TIP3   OH253366   3.379   0.186   1.036 -0.4471  0.2843  0.1515
 9724TIP3    H153367   3.333   0.103   1.022  1.0316 -1.0853  2.8028
 9724TIP3    H253368   3.367   0.205   1.128  1.4337  1.6530  0.1610
 9725TIP3   OH253369   4.588   4.356   2.159 -0.5102 -0.6632  0.4063
 9725TIP3    H153370   4.644   4.299   2.211  1.9905 -0.4924 -1.8724
 9725TIP3    H253371   4.632   4.441   2.160 -1.1998 -0.2630 -0.7021
 9726TIP3   OH253372   0.083   5.668   0.773  0.2890  0.1570  0.3892
 9726TIP3    H153373   0.027   5.691   0.848  0.2273 -0.2068  0.4565
 9726TIP3    H253374   0.045   5.716   0.700  1.3312  1.8391  0.9092
 9727TIP3   OH253375   3.445   2.429   2.229  0.2695  0.4268  1.0478
 9727TIP3    H153376   3.358   2.463   2.253 -0.4970 -0.8296  0.2079
 9727TIP3    H253377   3.488   2.502   2.186 -1.3563  0.4012 -0.7710
 9728TIP3   OH253378   4.010   6.349   1.946 -0.4928 -0.0333  0.2695
 9728TIP3    H153379   4.063   6.296   1.886  0.6866 -0.5159  1.6851
 9728TIP3    H253380   4.048   6.437   1.939  0.5182 -0.3670  1.2430
 9729TIP3   OH253381   1.554   4.122   1.789 -0.0011  0.3119  0.2737
 9729TIP3    H153382   1.466   4.133   1.824  0.8937 -0.9860  3.1965
 9729TIP3    H253383   1.545   4.141   1.695 -3.6032 -0.9182  0.2280
 9730TIP3   OH253384   1.427   1.285   1.422  0.3853  0.5610 -0.8142
 9730TIP3    H153385   1.388   1.233   1.352 -1.6711 -0.8432  1.2389
 9730TIP3    H253386   1.373   1.364   1.427 -0.3469  0.0213  0.0478
 9731TIP3   OH253387   1.833   3.806   0.482 -0.7925 -0.1233  0.0660
 9731TIP3    H153388   1.910   3.819   0.536  0.7641  1.9145 -2.4450
 9731TIP3    H253389   1.783   3.887   0.489 -2.1452 -0.9618  0.7062
 9732TIP3   OH253390   5.958   0.125   0.855  0.5055 -0.0676 -0.3726
 9732TIP3    H153391   6.027   0.064   0.827  1.3429  0.7367 -0.1034
 9732TIP3    H253392   5.996   0.212   0.842 -0.4502  0.3851 -0.1857
 9733TIP3   OH253393   4.722   2.905   0.712 -0.3732  0.2349  0.7785
 9733TIP3    H153394   4.649   2.960   0.742 -0.3095 -0.0047  1.3936
 9733TIP3    H253395   4.789   2.968   0.683 -0.7589  0.4567  0.3608
 9734TIP3   OH253396   4.500   1.163   2.833  0.1917  0.1314  0.3321
 9734TIP3    H153397   4.432   1.103   2.800 -2.2112  2.6402  0.3545
 9734TIP3    H253398   4.528   1.124   2.915 -0.7743 -1.3146  0.0199
 9735TIP3   OH253399   7.209   5.038   1.169  0.0252  0.6425 -0.0012
 9735TIP3    H153400   7.168   4.964   1.125 -1.8088  1.7494 -0.2656
 9735TIP3    H253401   7.297   5.007   1.191 -0.6170 -1.5414 -0.2356
 9736TIP3   OH253402   4.048   4.843   2.877  0.3890  0.1698 -0.2092
 9736TIP3    H153403   4.100   4.842   2.957 -0.6026 -1.7678  0.5075
 9736TIP3    H253404   4.106   4.807   2.810  0.8950  0.8185 -0.1255
 9737TIP3   OH253405   2.887   0.097   1.430 -0.1899 -0.2492  0.2602
 9737TIP3    H153406   2.963   0.062   1.479  0.3354 -0.0011 -0.3658
 9737TIP3    H253407   2.846   0.158   1.491  1.3078  1.1676 -0.0716
 9738TIP3   OH253408   2.424   1.056   1.005 -0.2293  0.1293  0.2157
 9738TIP3    H153409   2.452   1.147   1.015  0.3719  0.8164 -4.9199
 9738TIP3    H253410   2.502   1.010   0.975 -1.3966 -1.0936 -1.1354
 9739TIP3   OH253411   1.602   4.478   1.446 -0.3393  0.2285  0.4047
 9739TIP3    H153412   1.609   4.574   1.446 -1.0718  0.2875  0.3231
 9739TIP3    H253413   1.600   4.455   1.538  2.5818  0.0499  0.5131
 9740TIP3   OH253414   4.022   7.449   2.839  0.0208 -0.3294 -0.6639
 9740TIP3    H153415   3.948   7.459   2.900  1.2774 -3.4098  1.6414
 9740TIP3    H253416   4.074   7.528   2.853 -0.4379 -0.3141  1.3079
 9741TIP3   OH253417   0.493   1.330   2.658  0.2945  0.3870  0.2082
 9741TIP3    H153418   0.485   1.265   2.589 -0.3950  0.6109  0.0668
 9741TIP3    H253419   0.450   1.290   2.734 -3.5829  2.0185 -0.8500
 9742TIP3   OH253420   4.056   1.399   2.298 -0.1878  0.0250 -0.1269
 9742TIP3    H153421   4.016   1.459   2.235 -1.3763 -1.2641 -0.6547
 9742TIP3    H253422   4.116   1.346   2.245 -0.4320 -0.3874  0.0046
 9743TIP3   OH253423   6.971   1.550   0.930 -0.2935 -0.4885 -0.3191
 9743TIP3    H153424   6.934   1.627   0.972  0.8402 -0.5973  0.9516
 9743TIP3    H253425   6.968   1.482   0.997  2.3580 -0.4313 -0.0393
 9744TIP3   OH253426   7.043   4.911   2.624 -0.0506 -0.2864 -0.5791
 9744TIP3    H153427   7.091   4.853   2.683 -0.7705 -0.9289 -0.6063
 9744TIP3    H253428   7.076   4.999   2.644  0.4843 -0.6163  0.0155
 9745TIP3   OH253429   5.421   5.781   0.963  0.1354 -0.0773 -0.2515
 9745TIP3    H153430   5.428   5.723   0.887  0.4687  0.1084 -0.3609
 9745TIP3    H253431   5.415   5.869   0.927 -2.5916 -0.1383 -0.1967
 9746TIP3   OH253432   0.191   0.196   2.389  0.2133  0.0718 -0.5231
 9746TIP3    H153433   0.165   0.133   2.321  1.1533 -0.2563 -0.6061
 9746TIP3    H253434   0.287   0.197   2.384  0.4500 -1.3880  2.0355
 9747TIP3   OH253435   5.760   3.957   1.742 -0.0832  0.1146  0.0414
 9747TIP3    H153436   5.720   3.872   1.721  2.5347 -0.8587 -1.4647
 9747TIP3    H253437   5.690   4.020   1.728 -2.4009 -1.7828  2.0761
 9748TIP3   OH253438   5.170   2.847   1.109 -0.2870 -0.0219 -0.5975
 9748TIP3    H153439   5.247   2.879   1.061  0.1273  0.4449  0.3665
 9748TIP3    H253440   5.113   2.813   1.040 -0.4082  2.0555 -1.6190
 9749TIP3   OH253441   3.691   1.502   2.569  0.2395  0.0906 -0.1636
 9749TIP3    H153442   3.604   1.539   2.583 -1.5719 -3.5266 -0.6295
 9749TIP3    H253443   3.712   1.459   2.652  1.8288  1.1932  0.0593
 9750TIP3   OH253444   2.690   4.561   1.567 -0.6751 -0.1344  0.4305
 9750TIP3    H153445   2.765   4.512   1.533 -1.0848 -0.5753  0.1399
 9750TIP3    H253446   2.716   4.588   1.655  0.3136  0.8131 -0.1388
 9751TIP3   OH253447   1.221   4.861   1.204 -0.0712 -0.3980  0.2317
 9751TIP3    H153448   1.205   4.774   1.240  0.5410 -0.7868 -0.3947
 9751TIP3    H253449   1.316   4.874   1.214  0.0169 -0.2694 -0.6826
 9752TIP3   OH253450   2.235   6.542   1.042 -0.1374  0.0517  0.3520
 9752TIP3    H153451   2.199   6.585   0.964  0.2829 -0.1170  0.0630
 9752TIP3    H253452   2.287   6.469   1.008  0.9603  0.6334  0.7179
 9753TIP3   OH253453   4.100   1.817   1.453 -0.5077 -0.3705 -0.0454
 9753TIP3    H153454   4.052   1.749   1.406 -1.6360  1.2229 -1.3025
 9753TIP3    H253455   4.184   1.776   1.476 -0.8943 -1.9649 -1.3337
 9754TIP3   OH253456   3.302   5.725   1.054  0.2751 -0.2622  0.2722
 9754TIP3    H153457   3.387   5.744   1.013  0.4441 -1.0991  0.2153
 9754TIP3    H253458   3.291   5.794   1.119  1.1428 -0.3169  0.4894
 9755TIP3   OH253459   5.804   7.356   1.712 -0.2213 -0.4568 -0.7129
 9755TIP3    H153460   5.784   7.281   1.768 -0.4243  2.3659  3.3694
 9755TIP3    H253461   5.725   7.410   1.715  1.4125  2.0447  0.2733
 9756TIP3   OH253462   3.233   1.096   0.951  0.0287  0.1688  0.9317
 9756TIP3    H153463   3.235   1.008   0.913 -0.7357  0.2973  0.5694
 9756TIP3    H253464   3.321   1.108   0.987  0.3020 -0.5454  0.5399
 9757TIP3   OH253465   6.985   6.834   1.118  0.1429 -0.0914 -0.3694
 9757TIP3    H153466   6.967   6.740   1.113  0.2227 -0.2063  1.0528
 9757TIP3    H253467   7.061   6.841   1.176 -0.4819  0.8962  0.3581
 9758TIP3   OH253468   0.585   1.770   1.036  0.6087  0.4842 -0.0642
 9758TIP3    H153469   0.490   1.758   1.042  0.8086 -0.9148  0.9528
 9758TIP3    H253470   0.609   1.734   0.951  0.4802 -1.5269  0.6757
 9759TIP3   OH253471   0.069   0.431   2.602 -0.0529  0.2405  0.0974
 9759TIP3    H153472   0.043   0.392   2.686  1.6798 -1.5760 -0.1191
 9759TIP3    H253473   0.052   0.362   2.538  0.8068  0.7479 -0.6962
 9760TIP3   OH253474   7.566   3.037   1.558  0.3051  0.0851  0.1894
 9760TIP3    H153475   7.548   3.032   1.464  1.3607  2.6813 -0.2223
 9760TIP3    H253476   7.607   2.953   1.579  0.5807 -0.3159 -1.7818
 9761TIP3   OH253477   1.667   1.234   2.914  0.0463  0.1685 -0.3395
 9761TIP3    H153478   1.696   1.173   2.982  0.2701  0.1794 -0.4225
 9761TIP3    H253479   1.694   1.320   2.947  1.1023  0.0837 -0.9106
 9762TIP3   OH253480   2.407   3.356   2.048 -0.0491  0.1706 -0.0544
 9762TIP3    H153481   2.489   3.391   2.084 -0.0427  0.6689 -0.5460
 9762TIP3    H253482   2.435   3.286   1.989  0.0122  0.2659 -0.1371
 9763TIP3   OH253483   5.867   1.457   3.302 -0.1260  0.3528 -0.1704
 9763TIP3    H153484   5.844   1.367   3.325 -0.3120  0.6251  0.7566
 9763TIP3    H253485   5.800   1.483   3.239 -0.7330  0.1946  0.3879
 9764TIP3   OH253486   6.801   5.910   2.394  0.0638 -0.5032 -0.4268
 9764TIP3    H153487   6.832   5.940   2.308  1.0552  1.5070  0.5382
 9764TIP3    H253488   6.862   5.841   2.418 -0.6820 -1.6217 -1.6262
 9765TIP3   OH253489   1.448   3.194   2.759 -0.1861 -0.1602 -0.0417
 9765TIP3    H153490   1.441   3.190   2.664  0.8962  0.6378 -0.1610
 9765TIP3    H253491   1.366   3.235   2.788 -0.2433  0.1637 -0.6672
 9766TIP3   OH253492   0.365   4.901   2.646 -0.3428  0.5757 -0.1101
 9766TIP3    H153493   0.294   4.923   2.706  0.0882 -0.3213  0.7601
 9766TIP3    H253494   0.438   4.878   2.703  0.0175 -0.4918 -0.9663
 9767TIP3   OH253495   1.486   4.677   1.842 -0.1829  0.4201  0.4994
 9767TIP3    H153496   1.477   4.772   1.833  0.5003  0.5203  0.8316
 9767TIP3    H253497   1.439   4.657   1.923 -2.4235  0.1252 -0.7784
 9768TIP3   OH253498   5.499   4.479   2.560  0.0305 -0.3734 -0.3977
 9768TIP3    H153499   5.437   4.450   2.493  2.9339 -1.2854 -2.9212
 9768TIP3    H253500   5.505   4.574   2.547 -1.0851 -0.2047  0.1728
 9769TIP3   OH253501   0.542   3.990   0.909 -0.1951  0.0442  0.2981
 9769TIP3    H153502   0.493   3.978   0.827 -1.4256  1.4332  0.7893
 9769TIP3    H253503   0.487   3.947   0.975  1.0648 -1.5724  0.3724
 9770TIP3   OH253504   4.722   6.283   2.002 -0.5154  0.2635  0.1308
 9770TIP3    H153505   4.788   6.264   2.069  0.4317 -1.3490 -1.1751
 9770TIP3    H253506   4.753   6.364   1.961 -0.3119  0.4673  0.6764
 9771TIP3   OH253507   3.532   7.148   2.571 -0.0788  0.0064 -0.1258
 9771TIP3    H153508   3.620   7.113   2.583 -0.3004 -0.7190 -0.5431
 9771TIP3    H253509   3.536   7.195   2.487 -0.1863 -0.3597 -0.3383
 9772TIP3   OH253510   4.078   4.730   1.629 -0.0820 -0.2086  0.2618
 9772TIP3    H153511   4.054   4.700   1.542  0.2434  1.5328 -0.4867
 9772TIP3    H253512   4.089   4.825   1.619  1.0040 -0.1116  1.9513
 9773TIP3   OH253513   3.756   1.310   0.739 -0.2344 -0.7892 -0.2749
 9773TIP3    H153514   3.669   1.272   0.727 -0.5380 -0.6027  1.1863
 9773TIP3    H253515   3.748   1.366   0.816  0.5561  1.2444 -1.5914
 9774TIP3   OH253516   7.518   2.281   0.382 -0.3470  0.0605  0.1972
 9774TIP3    H153517   7.426   2.293   0.358 -0.3035 -1.1858 -0.6945
 9774TIP3    H253518   7.515   2.230   0.463 -0.4421  1.7415  1.3052
 9775TIP3   OH253519   5.991   5.759   1.733 -0.5205 -0.2524 -0.3590
 9775TIP3    H153520   6.058   5.690   1.734 -0.2736 -0.0628 -1.9228
 9775TIP3    H253521   5.909   5.713   1.752 -0.1783 -0.7614 -0.0753
 9776TIP3   OH253522   6.600   2.746   2.360  0.2408 -0.1035 -0.7053
 9776TIP3    H153523   6.569   2.678   2.300 -0.0910  0.4016 -1.1130
 9776TIP3    H253524   6.590   2.828   2.311 -1.2461  0.4634  0.4829
 9777TIP3   OH253525   3.027   3.424   0.922  0.3589 -0.7878  0.1397
 9777TIP3    H153526   3.009   3.347   0.975 -1.0960 -0.6010 -0.0463
 9777TIP3    H253527   2.941   3.456   0.895  0.9770  0.2999 -0.6504
 9778TIP3   OH253528   6.073   5.192   2.194 -0.0086 -0.4713 -0.5926
 9778TIP3    H153529   6.151   5.142   2.216 -0.7215 -0.5044  2.2374
 9778TIP3    H253530   6.106   5.280   2.174  0.7175  0.2417  3.0743
 9779TIP3   OH253531   4.339   4.257   2.106  0.1766 -0.3713  0.1212
 9779TIP3    H153532   4.280   4.280   2.178 -0.0283 -2.0923  0.5595
 9779TIP3    H253533   4.416   4.313   2.120 -0.9611  1.2878  0.0428
 9780TIP3   OH253534   2.559   1.494   1.265  0.4235  0.5467 -0.2487
 9780TIP3    H153535   2.542   1.575   1.314  0.5231  1.1663 -1.2201
 9780TIP3    H253536   2.627   1.449   1.317  0.1559  0.9356  0.4551
 9781TIP3   OH253537   5.113   2.251   1.597  0.2336 -0.2879 -0.3320
 9781TIP3    H153538   5.090   2.339   1.628 -0.5614 -0.2035 -1.1369
 9781TIP3    H253539   5.029   2.206   1.589  0.6485 -1.2009  0.2611
 9782TIP3   OH253540   5.327   3.487   1.957 -0.2354  0.1872 -0.0918
 9782TIP3    H153541   5.369   3.470   2.041 -1.1122 -0.8649  0.1697
 9782TIP3    H253542   5.264   3.415   1.948 -0.0225  0.1831 -1.7370
 9783TIP3   OH253543   5.876   1.344   1.781 -0.1921  0.0866  0.0290
 9783TIP3    H153544   5.837   1.369   1.697 -1.1244  2.6603  1.1362
 9783TIP3    H253545   5.818   1.276   1.814 -0.1800 -0.5049 -1.1085
 9784TIP3   OH253546   0.258   1.784   1.896  0.5504 -0.0141  0.5990
 9784TIP3    H153547   0.343   1.819   1.923  0.7343  1.7448 -1.8989
 9784TIP3    H253548   0.197   1.856   1.911 -0.0302 -0.3969  0.0832
 9785TIP3   OH253549   5.070   7.038   1.235 -0.3238  0.4501  0.3813
 9785TIP3    H153550   5.081   6.946   1.259  1.3045  0.0876 -1.4796
 9785TIP3    H253551   5.067   7.085   1.319 -0.1981 -1.1920  1.3391
 9786TIP3   OH253552   4.315   1.303   1.392  0.2968  0.2014  0.0184
 9786TIP3    H153553   4.366   1.256   1.326 -0.0335  0.3552 -0.3549
 9786TIP3    H253554   4.251   1.239   1.424  0.8890 -0.0699  0.6798
 9787TIP3   OH253555   0.624   4.685   1.355  0.3161  1.1550 -0.0979
 9787TIP3    H153556   0.610   4.602   1.400 -1.6645  1.8241  0.6408
 9787TIP3    H253557   0.652   4.661   1.267  0.4850 -0.2586  0.3232
 9788TIP3   OH253558   6.979   2.314   0.427  0.4498 -0.2905  0.1280
 9788TIP3    H153559   6.927   2.281   0.355  1.0480  0.6839 -0.7766
 9788TIP3    H253560   6.920   2.370   0.477  1.0155  2.3662 -1.9687
 9789TIP3   OH253561   1.271   3.505   2.851 -0.4520 -0.4254 -0.6524
 9789TIP3    H153562   1.234   3.417   2.850 -1.8554  0.1475 -0.8154
 9789TIP3    H253563   1.327   3.506   2.928 -1.3201 -1.1135  0.0086
 9790TIP3   OH253564   0.409   2.096   1.451  0.0225 -0.1100 -0.0286
 9790TIP3    H153565   0.334   2.093   1.511  0.8695  4.9682  1.7580
 9790TIP3    H253566   0.468   2.028   1.483 -1.1347 -0.0034  2.5841
 9791TIP3   OH253567   7.085   5.884   0.670  0.0763 -0.1717 -0.2643
 9791TIP3    H153568   7.015   5.870   0.606 -1.1457 -2.3054  1.3776
 9791TIP3    H253569   7.152   5.819   0.647 -1.2704 -2.4136  1.6574
 9792TIP3   OH253570   0.928   3.615   2.462  0.4473  0.1337  0.4923
 9792TIP3    H153571   0.984   3.603   2.386  1.1683 -0.1479  1.0548
 9792TIP3    H253572   0.968   3.687   2.511  0.2462  0.0192  0.8309
 9793TIP3   OH253573   1.291   4.389   0.954  0.0155 -0.1970  0.2278
 9793TIP3    H153574   1.370   4.432   0.924 -1.2855  1.1580 -1.4404
 9793TIP3    H253575   1.313   4.296   0.954  0.5892 -0.2169 -3.7515
 9794TIP3   OH253576   1.313   2.667   1.596  0.4477 -0.1634  0.6721
 9794TIP3    H153577   1.284   2.621   1.518  1.5567  0.3793 -0.0803
 9794TIP3    H253578   1.370   2.737   1.564  0.8220  0.1543  1.9456
 9795TIP3   OH253579   6.742   5.972   1.445 -0.1051  0.1352 -0.3107
 9795TIP3    H153580   6.817   5.920   1.419 -0.4110  0.0221 -0.9879
 9795TIP3    H253581   6.671   5.943   1.387 -0.2840  1.2819 -0.6873
 9796TIP3   OH253582   4.933   0.189   2.071 -0.8122 -0.0175 -0.0064
 9796TIP3    H153583   4.983   0.109   2.086 -1.8545 -0.3927  1.6927
 9796TIP3    H253584   4.842   0.159   2.067 -1.2353  1.0974  0.9025
 9797TIP3   OH253585   7.240   1.868   2.111 -0.3735  0.6589 -0.5618
 9797TIP3    H153586   7.273   1.854   2.200  0.8005  0.6927 -0.9799
 9797TIP3    H253587   7.168   1.929   2.122  0.3175  1.3425  0.2835
 9798TIP3   OH253588   7.268   6.906   1.294  0.1590  0.0732 -0.8120
 9798TIP3    H153589   7.242   6.982   1.346  0.8035  0.4859 -1.0841
 9798TIP3    H253590   7.230   6.831   1.341  0.9179  0.4131  0.3948
 9799TIP3   OH253591   5.240   7.346   2.543 -0.2426 -0.0069 -0.0154
 9799TIP3    H153592   5.249   7.393   2.625  0.3408  0.7338 -0.4958
 9799TIP3    H253593   5.299   7.271   2.551  1.8629  1.4934 -0.7573
 9800TIP3   OH253594   1.185   3.257   2.923 -0.1548 -0.2321  0.2557
 9800TIP3    H153595   1.208   3.236   3.014  0.3589  0.8440  0.3981
 9800TIP3    H253596   1.110   3.201   2.903  0.2237 -1.0657  1.0725
 9801TIP3   OH253597   6.528   1.949   1.772  0.0458 -0.0458 -0.1367
 9801TIP3    H153598   6.486   1.915   1.851  0.2822  0.5101  0.2353
 9801TIP3    H253599   6.607   1.993   1.804  0.9846 -1.1721 -0.8347
 9802TIP3   OH253600   4.733   2.547   2.192  0.2940  0.0711  0.4901
 9802TIP3    H153601   4.817   2.575   2.157 -0.4943 -0.4681 -2.0143
 9802TIP3    H253602   4.674   2.622   2.176 -0.9909 -1.4718 -3.1197
 9803TIP3   OH253603   6.495   2.284   2.814 -0.3788  0.0798  0.0840
 9803TIP3    H153604   6.537   2.257   2.896 -0.1487 -0.4862 -0.2128
 9803TIP3    H253605   6.447   2.364   2.837  0.7153  0.6488  0.4824
 9804TIP3   OH253606   7.152   4.120   0.972 -0.0238  0.2413 -0.0199
 9804TIP3    H153607   7.118   4.199   0.930  2.3963  1.0460 -0.5815
 9804TIP3    H253608   7.143   4.138   1.066  0.8307  1.3606 -0.1360
 9805TIP3   OH253609   4.009   6.513   0.909  0.1580  0.4149 -0.4209
 9805TIP3    H153610   4.054   6.485   0.829  2.3692 -1.3786  1.3130
 9805TIP3    H253611   4.061   6.586   0.942 -0.2765  0.6195 -0.1770
 9806TIP3   OH253612   3.166   3.203   1.547  0.1105 -0.2109 -0.0185
 9806TIP3    H153613   3.186   3.174   1.458  1.7322  1.8225 -0.3914
 9806TIP3    H253614   3.236   3.264   1.569 -0.1644 -0.7678  2.7542
 9807TIP3   OH253615   1.448   3.703   3.272 -0.1558 -0.5657 -0.4022
 9807TIP3    H153616   1.469   3.782   3.223  0.2572  0.0994  0.7973
 9807TIP3    H253617   1.408   3.735   3.353 -2.3824 -1.6803 -0.9925
 9808TIP3   OH253618   2.993   4.358   2.146 -0.0572 -0.0166  0.3864
 9808TIP3    H153619   2.926   4.426   2.144 -1.4525 -1.2368  2.1329
 9808TIP3    H253620   3.022   4.350   2.056 -2.6659  0.2300 -0.5588
 9809TIP3   OH253621   3.688   3.220   0.752  0.4052  0.2709 -0.5208
 9809TIP3    H153622   3.622   3.287   0.731  0.3267  0.6537  0.8729
 9809TIP3    H253623   3.728   3.250   0.834  0.2481 -1.4699  0.2428
 9810TIP3   OH253624   6.822   6.172   1.073 -0.0261 -0.3298 -0.0408
 9810TIP3    H153625   6.862   6.237   1.130  0.0301 -0.4013  0.0016
 9810TIP3    H253626   6.875   6.175   0.993 -1.9182  1.9879 -1.3457
 9811TIP3   OH253627   1.991   1.465   0.916  0.7612 -0.0516 -0.1467
 9811TIP3    H153628   2.031   1.391   0.961  3.3591  1.8197  0.9205
 9811TIP3    H253629   2.051   1.485   0.844 -0.8037  0.0263 -1.5103
 9812TIP3   OH253630   6.370   5.746   1.026 -0.1700 -0.3093 -0.0280
 9812TIP3    H153631   6.329   5.698   0.955 -0.5376 -0.1522  0.0758
 9812TIP3    H253632   6.342   5.700   1.105  1.0237 -1.0779 -0.0275
 9813TIP3   OH253633   2.000   1.381   2.106  0.2336 -0.0661  0.2173
 9813TIP3    H153634   1.945   1.447   2.064  0.4774  0.0393  0.0624
 9813TIP3    H253635   1.975   1.299   2.063 -1.1947 -0.3502  1.4803
 9814TIP3   OH253636   0.263   1.515   3.381 -0.3030 -0.2649  0.0450
 9814TIP3    H153637   0.345   1.563   3.376 -0.3037 -0.2369  0.3009
 9814TIP3    H253638   0.275   1.455   3.454  0.1499 -1.4992 -1.0011
 9815TIP3   OH253639   3.180   4.839   0.967  0.3845  0.4593 -0.1061
 9815TIP3    H153640   3.268   4.814   0.993  0.5533  1.3837  0.2460
 9815TIP3    H253641   3.142   4.760   0.929  0.9966 -0.2285  0.7050
 9816TIP3   OH253642   2.947   7.380   1.278 -0.1362  0.2093  0.6152
 9816TIP3    H153643   2.948   7.329   1.359  0.1523  1.6374  1.5673
 9816TIP3    H253644   2.973   7.319   1.210 -2.1578 -1.5021  1.2942
 9817TIP3   OH253645   3.274   3.796   1.763 -0.7333 -0.2399 -0.0050
 9817TIP3    H153646   3.234   3.882   1.751 -0.4367  0.0473  0.9333
 9817TIP3    H253647   3.364   3.815   1.789 -0.6750 -0.8335  0.2430
 9818TIP3   OH253648   5.198   0.718   2.940  0.4838 -0.2241 -0.2240
 9818TIP3    H153649   5.205   0.699   3.034  1.4584  1.4517  0.0769
 9818TIP3    H253650   5.104   0.729   2.925  0.4364  1.5929  1.0397
 9819TIP3   OH253651   0.406   3.298   3.311  0.2218  0.7888 -0.5783
 9819TIP3    H153652   0.428   3.205   3.322 -0.0457  0.7777 -0.1083
 9819TIP3    H253653   0.485   3.337   3.273 -0.2248  0.0731 -2.3146
 9820TIP3   OH253654   0.952   4.250   0.572  0.3383  0.2539 -0.4640
 9820TIP3    H153655   0.956   4.187   0.499 -0.1070  1.4445 -1.5657
 9820TIP3    H253656   1.034   4.237   0.620  0.4864 -0.8000 -0.9791
 9821TIP3   OH253657   2.966   1.924   2.740  0.4730  0.0883 -0.0609
 9821TIP3    H153658   3.007   1.858   2.795 -0.8890  0.6191  1.6683
 9821TIP3    H253659   2.946   1.996   2.799 -1.1069  0.6642 -1.2233
 9822TIP3   OH253660   4.090   5.185   0.658  0.8941 -0.6804  0.3059
 9822TIP3    H153661   4.064   5.100   0.622  1.0660  0.0710 -1.7619
 9822TIP3    H253662   4.181   5.173   0.687  1.1726 -1.0389 -0.6766
 9823TIP3   OH253663   2.445   6.388   0.958  0.3100 -0.4492  0.4239
 9823TIP3    H153664   2.465   6.294   0.960  3.0422  0.0162 -0.7958
 9823TIP3    H253665   2.529   6.431   0.970 -0.5771  1.8498 -0.9044
 9824TIP3   OH253666   0.857   6.781   2.837 -0.1236 -0.4838 -1.1409
 9824TIP3    H153667   0.881   6.747   2.750  1.4335 -1.9488 -0.1960
 9824TIP3    H253668   0.928   6.752   2.894 -2.3530 -1.7880  1.1559
 9825TIP3   OH253669   2.156   6.612   2.944  0.5486  0.5414 -0.5032
 9825TIP3    H153670   2.243   6.586   2.974  0.3000  0.1739 -0.0734
 9825TIP3    H253671   2.097   6.576   3.010  0.0047 -0.0090 -1.2690
 9826TIP3   OH253672   6.900   7.656   2.581 -0.3371  0.1190  0.1664
 9826TIP3    H153673   6.809   7.647   2.555 -0.3511  0.2138  0.1851
 9826TIP3    H253674   6.950   7.617   2.509 -0.4072 -0.2553  0.3151
 9827TIP3   OH253675   5.056   6.064   1.528  0.5207  0.6672  0.3925
 9827TIP3    H153676   4.991   6.040   1.594  0.0539  0.2528 -0.2127
 9827TIP3    H253677   5.123   5.996   1.535  0.0494  0.1477 -0.1436
 9828TIP3   OH253678   3.057   7.233   2.324  0.3858 -0.5743  0.1698
 9828TIP3    H153679   3.078   7.178   2.399  0.6508 -2.8084 -1.4432
 9828TIP3    H253680   2.979   7.193   2.286 -0.0839  0.8530 -0.4387
 9829TIP3   OH253681   1.620   2.056   2.717  0.0898 -0.3334 -0.6036
 9829TIP3    H153682   1.674   2.054   2.638 -0.1759 -0.6186 -0.7777
 9829TIP3    H253683   1.634   1.971   2.758 -0.3335 -0.4653 -0.7251
 9830TIP3   OH253684   3.571   0.603   1.325 -0.2247 -0.1908 -0.1787
 9830TIP3    H153685   3.502   0.540   1.304 -0.2217 -0.1645 -0.2694
 9830TIP3    H253686   3.591   0.645   1.241  0.0281 -0.3265 -0.1890
 9831TIP3   OH253687   5.602   2.893   1.792 -0.1636  0.2383  0.1197
 9831TIP3    H153688   5.625   2.924   1.879 -3.5837 -0.0768  1.2911
 9831TIP3    H253689   5.617   2.799   1.795 -0.9232  0.1277  0.6258
 9832TIP3   OH253690   1.969   3.458   0.749 -0.6260 -0.3462 -0.3981
 9832TIP3    H153691   1.996   3.369   0.731 -0.3048 -0.2181 -0.5437
 9832TIP3    H253692   1.912   3.481   0.675 -0.8615 -0.4962 -0.2637
 9833TIP3   OH253693   3.308   7.261   2.108 -0.6812  0.2403 -0.6834
 9833TIP3    H153694   3.256   7.183   2.089  0.9488 -2.0500  2.9201
 9833TIP3    H253695   3.382   7.256   2.048 -0.2492 -1.4758 -0.0674
 9834TIP3   OH253696   3.323   5.582   1.830  0.5388  0.0427 -0.0902
 9834TIP3    H153697   3.380   5.655   1.853  0.9726 -0.1590 -0.5231
 9834TIP3    H253698   3.359   5.547   1.749  0.8454 -1.1769  0.5464
 9835TIP3   OH253699   6.088   4.456   0.691 -0.1830  0.0883 -0.6520
 9835TIP3    H153700   6.162   4.512   0.669 -0.2410  0.6604  0.5300
 9835TIP3    H253701   6.090   4.386   0.625  0.3495  1.0458 -1.6934
 9836TIP3   OH253702   6.395   5.326   0.568  0.3340  0.2035  0.0816
 9836TIP3    H153703   6.303   5.327   0.540 -0.2636 -0.1007  1.8435
 9836TIP3    H253704   6.398   5.389   0.640  0.6182 -2.2499  2.3712
 9837TIP3   OH253705   6.039   7.348   1.550  0.1748  0.8552  0.3491
 9837TIP3    H153706   6.005   7.283   1.489  0.3388 -0.5939  1.7084
 9837TIP3    H253707   5.965   7.370   1.607  0.5570  0.4908  1.0043
 9838TIP3   OH253708   6.701   2.757   0.361 -0.4436  0.6904 -0.4594
 9838TIP3    H153709   6.640   2.687   0.381 -1.0694  0.9947 -1.2212
 9838TIP3    H253710   6.740   2.732   0.278  1.0287  0.1431  0.3739
 9839TIP3   OH253711   6.256   2.450   1.236  0.8110 -0.7775 -0.0598
 9839TIP3    H153712   6.187   2.429   1.174  0.4609 -0.1646  0.1136
 9839TIP3    H253713   6.334   2.407   1.201  0.7236 -0.0734 -1.1648
 9840TIP3   OH253714   4.974   6.651   2.566  0.1174  0.0137 -0.1522
 9840TIP3    H153715   4.998   6.744   2.564  0.7857 -0.1590 -1.1451
 9840TIP3    H253716   4.879   6.651   2.554  0.0097  0.5884  0.6088
 9841TIP3   OH253717   7.307   0.727   1.364 -0.4474  0.2535  0.5380
 9841TIP3    H153718   7.288   0.816   1.393  1.4804  1.6517 -2.0886
 9841TIP3    H253719   7.402   0.726   1.348 -0.6126 -1.8523 -0.7565
 9842TIP3   OH253720   6.726   0.207   2.639 -0.0904 -0.1918 -0.0447
 9842TIP3    H153721   6.693   0.215   2.550 -1.2176  2.5169  0.5083
 9842TIP3    H253722   6.821   0.199   2.630 -0.0887  1.0939 -1.4863
 9843TIP3   OH253723   3.134   7.038   2.044  0.2660 -0.7648 -0.0504
 9843TIP3    H153724   3.156   6.997   1.960  0.0985  0.9327 -0.9595
 9843TIP3    H253725   3.046   7.005   2.064  0.3342 -1.2431 -0.4932
 9844TIP3   OH253726   1.733   6.440   1.721 -0.0372 -0.8111  0.2162
 9844TIP3    H153727   1.651   6.484   1.699 -0.6062 -1.5449  0.8010
 9844TIP3    H253728   1.801   6.499   1.690 -0.7837 -0.4162 -0.7208
 9845TIP3   OH253729   1.846   3.216   1.962 -0.5239  0.1853  0.0797
 9845TIP3    H153730   1.864   3.240   1.870 -0.4120  0.4735  0.1730
 9845TIP3    H253731   1.817   3.298   2.002 -0.1262  0.1699  0.4124
 9846TIP3   OH253732   2.581   4.544   2.675 -0.7169  0.3077 -0.1968
 9846TIP3    H153733   2.642   4.615   2.696  0.3769 -0.8199  0.6066
 9846TIP3    H253734   2.495   4.587   2.671 -0.3705  1.4207  2.0909
 9847TIP3   OH253735   7.197   2.055   1.530  0.4356 -0.2135 -0.0130
 9847TIP3    H153736   7.269   1.992   1.527  0.6871  0.0921 -1.1118
 9847TIP3    H253737   7.231   2.127   1.583  0.0543 -1.0855  1.4602
 9848TIP3   OH253738   5.114   5.892   1.843 -0.4133 -0.7131  0.4399
 9848TIP3    H153739   5.082   5.981   1.853 -0.1474 -0.5528 -0.0761
 9848TIP3    H253740   5.068   5.841   1.910 -0.8613 -0.2667  0.4726
 9849TIP3   OH253741   5.626   7.609   1.781  0.3411  0.4364  0.0227
 9849TIP3    H153742   5.710   7.654   1.769 -0.2142  1.2986 -0.7838
 9849TIP3    H253743   5.560   7.677   1.768 -0.5479 -0.6404 -1.4972
 9850TIP3   OH253744   1.575   2.580   3.202  0.1749 -0.7696  0.5400
 9850TIP3    H153745   1.513   2.586   3.274 -1.3568  0.5348 -0.7923
 9850TIP3    H253746   1.550   2.499   3.156  1.0231 -1.4954  1.3274
 9851TIP3   OH253747   6.333   5.701   1.514 -0.3998 -0.5482  0.1070
 9851TIP3    H153748   6.409   5.655   1.479  0.6175  0.8326  0.4248
 9851TIP3    H253749   6.286   5.732   1.436  0.2124 -0.0869 -0.0862
 9852TIP3   OH253750   4.460   3.651   0.552  0.3661 -0.2507  0.0494
 9852TIP3    H153751   4.390   3.613   0.606  1.2410 -0.8720  0.7840
 9852TIP3    H253752   4.416   3.716   0.498 -0.6074  0.1429  1.2707
 9853TIP3   OH253753   6.042   3.737   0.694 -0.0885 -0.4776 -0.4865
 9853TIP3    H153754   5.965   3.740   0.638 -0.5058  1.1125  0.1029
 9853TIP3    H253755   6.007   3.726   0.783  0.1594  2.2192  0.0283
 9854TIP3   OH253756   1.754   3.557   0.605 -0.6683  0.0109  0.2145
 9854TIP3    H153757   1.780   3.628   0.546 -0.4354 -1.6080 -1.7588
 9854TIP3    H253758   1.663   3.576   0.629 -1.5557 -0.4042 -2.5380
 9855TIP3   OH253759   5.097   5.545   2.326 -0.5991  0.1386  0.9629
 9855TIP3    H153760   5.066   5.464   2.285  3.0508 -0.3250 -1.3174
 9855TIP3    H253761   5.180   5.520   2.366  0.1312  2.5514  1.0699
 9856TIP3   OH253762   6.689   1.341   3.206 -0.9756  0.2286 -0.2025
 9856TIP3    H153763   6.780   1.312   3.199 -1.0020 -0.3928  1.4483
 9856TIP3    H253764   6.694   1.437   3.207 -0.3980  0.2059 -0.7138
 9857TIP3   OH253765   7.118   3.035   1.847 -0.1134 -0.0620  0.8287
 9857TIP3    H153766   7.139   2.942   1.855  0.2837 -0.0210  0.3421
 9857TIP3    H253767   7.136   3.055   1.755 -1.8470  0.0893  0.4890
 9858TIP3   OH253768   1.499   7.157   3.202  0.1966 -0.8370 -0.2491
 9858TIP3    H153769   1.468   7.076   3.243  2.2465 -2.2853 -1.3562
 9858TIP3    H253770   1.469   7.151   3.111  0.0064 -0.1447 -0.2360
 9859TIP3   OH253771   2.188   5.263   2.325  0.4100  0.0374  0.5171
 9859TIP3    H153772   2.146   5.244   2.241  0.2814 -0.7872  0.7494
 9859TIP3    H253773   2.203   5.176   2.363 -0.4697  0.4118  1.7874
 9860TIP3   OH253774   4.987   3.706   2.775 -1.1246  0.2057  0.6598
 9860TIP3    H153775   5.048   3.716   2.849  1.0771  1.2515 -1.1622
 9860TIP3    H253776   4.997   3.614   2.748 -1.1110  0.1104  0.9852
 9861TIP3   OH253777   1.843   7.613   1.202 -0.1578 -0.4831  0.3367
 9861TIP3    H153778   1.762   7.592   1.155  0.2634 -1.8216  0.1717
 9861TIP3    H253779   1.879   7.688   1.155 -1.6448  0.5956  0.8470
 9862TIP3   OH253780   5.229   0.249   2.101 -0.3575  0.1972 -0.2616
 9862TIP3    H153781   5.245   0.270   2.009  3.3200 -0.4073  0.0876
 9862TIP3    H253782   5.154   0.304   2.125 -1.6473  0.1610 -3.6214
 9863TIP3   OH253783   6.358   0.761   0.551 -0.3640  1.0288 -0.1687
 9863TIP3    H153784   6.332   0.675   0.518  1.5258  0.6880 -0.8978
 9863TIP3    H253785   6.430   0.787   0.495 -1.2998  3.4084 -0.3495
 9864TIP3   OH253786   5.967   1.068   0.848 -0.0352  0.1852  0.0019
 9864TIP3    H153787   5.895   1.117   0.807 -1.8828 -1.4859  1.1080
 9864TIP3    H253788   5.930   1.035   0.929  1.8605 -1.1642  0.3684
 9865TIP3   OH253789   4.690   2.069   2.074  0.3877  0.3788  0.3524
 9865TIP3    H153790   4.772   2.067   2.124  0.8731 -1.2028 -0.4439
 9865TIP3    H253791   4.647   2.150   2.102  2.4730  1.5456  0.3706
 9866TIP3   OH253792   1.886   5.735   1.996  0.4622  0.2939 -0.2373
 9866TIP3    H153793   1.892   5.826   2.024  0.3163  0.0085  0.7581
 9866TIP3    H253794   1.878   5.739   1.901 -1.8281  1.4207 -0.0469
 9867TIP3   OH253795   7.606   0.813   3.489 -0.3249  0.2338 -0.1466
 9867TIP3    H153796   7.559   0.770   3.418  0.1815  0.1585 -0.4348
 9867TIP3    H253797   7.696   0.784   3.480  0.6725  3.3847 -2.0284
 9868TIP3   OH253798   3.901   6.945   2.195 -0.0384 -0.1186 -0.0237
 9868TIP3    H153799   3.955   7.019   2.224  0.6967 -0.5071 -0.3732
 9868TIP3    H253800   3.879   6.898   2.275  0.6309 -0.2770  0.0744
 9869TIP3   OH253801   6.563   1.611   1.096  0.3702  0.3805 -0.0147
 9869TIP3    H153802   6.565   1.551   1.022 -0.4144 -1.0540  1.0828
 9869TIP3    H253803   6.532   1.558   1.170  0.1144  2.0132  1.1106
 9870TIP3   OH253804   5.360   2.208   0.456  0.5944 -0.2746 -0.2822
 9870TIP3    H153805   5.359   2.282   0.517  1.5162 -0.1257 -0.4314
 9870TIP3    H253806   5.268   2.193   0.435  0.2355 -0.3956  1.2333
 9871TIP3   OH253807   4.079   7.257   2.657  0.3859 -0.4638 -0.1561
 9871TIP3    H153808   4.032   7.318   2.714 -2.2402 -1.0679 -1.5163
 9871TIP3    H253809   4.052   7.171   2.686  2.0827 -0.9488  0.1158
 9872TIP3   OH253810   4.686   3.399   1.947  0.0220 -0.2654  0.2764
 9872TIP3    H153811   4.623   3.459   1.908 -0.2832 -1.2231 -0.7607
 9872TIP3    H253812   4.632   3.334   1.992  0.2453 -1.1413 -0.6962
 9873TIP3   OH253813   1.096   2.280   0.771  0.2399  0.3473 -0.3429
 9873TIP3    H153814   1.116   2.351   0.833  2.1723 -0.4695  0.0650
 9873TIP3    H253815   1.064   2.208   0.826 -1.5647  0.8107 -0.7372
 9874TIP3   OH253816   6.958   3.612   1.171 -0.6970  0.2990 -0.0050
 9874TIP3    H153817   6.977   3.702   1.142 -1.7030  0.1899 -1.0732
 9874TIP3    H253818   6.987   3.557   1.099  0.1918 -0.2829  0.7706
 9875TIP3   OH253819   0.636   3.518   2.276 -0.5036  0.2264  0.2496
 9875TIP3    H153820   0.639   3.532   2.181 -1.4793  1.5989  0.3998
 9875TIP3    H253821   0.647   3.605   2.314 -1.8019 -0.0521  1.3607
 9876TIP3   OH253822   3.903   4.591   1.797 -0.0662  0.3697  0.0750
 9876TIP3    H153823   3.865   4.551   1.719 -0.9017  0.3529  0.4820
 9876TIP3    H253824   3.975   4.645   1.763 -0.6734  0.6882 -0.7599
 9877TIP3   OH253825   5.649   1.189   1.851  0.0150  0.1710 -0.2959
 9877TIP3    H153826   5.616   1.190   1.761 -1.2861 -0.1994  0.1506
 9877TIP3    H253827   5.601   1.260   1.894 -0.5425 -0.6760  0.4942
 9878TIP3   OH253828   1.058   7.563   0.897 -0.0533  0.1925 -0.2844
 9878TIP3    H153829   1.036   7.651   0.866 -1.4448 -0.0085  0.0632
 9878TIP3    H253830   1.015   7.556   0.982 -0.4642 -1.0247 -0.5676
 9879TIP3   OH253831   2.690   4.153   1.640  0.6556 -0.7119 -0.2321
 9879TIP3    H153832   2.604   4.166   1.601  0.3929 -1.9915 -0.1361
 9879TIP3    H253833   2.677   4.173   1.733  0.5270 -0.6295 -0.2673
 9880TIP3   OH253834   2.323   0.076   2.336  0.1992  0.1307 -0.2815
 9880TIP3    H153835   2.306   0.050   2.427 -0.4094 -0.3624 -0.5329
 9880TIP3    H253836   2.418   0.086   2.332  0.4122 -1.5678 -0.0465
 9881TIP3   OH253837   1.860   7.318   3.041 -0.3742  0.0817  0.7669
 9881TIP3    H153838   1.885   7.403   3.005 -1.1607 -0.4245 -1.0940
 9881TIP3    H253839   1.909   7.311   3.123  0.7932  1.6961  0.2518
 9882TIP3   OH253840   2.508   1.289   2.621  0.0341  0.2611  0.2222
 9882TIP3    H153841   2.476   1.374   2.651 -0.1555 -0.4497  2.2240
 9882TIP3    H253842   2.507   1.234   2.700 -0.5820 -1.8260 -1.1502
 9883TIP3   OH253843   2.261   4.221   2.715  0.0532 -0.4990 -0.6714
 9883TIP3    H153844   2.343   4.249   2.674 -0.2614  1.1886 -0.2395
 9883TIP3    H253845   2.288   4.155   2.779  1.1847  0.5041 -0.0631
 9884TIP3   OH253846   7.061   4.868   1.007  0.0378  0.5029  0.3651
 9884TIP3    H153847   7.029   4.870   0.917  0.2587  0.6491  0.2880
 9884TIP3    H253848   7.078   4.776   1.026 -2.1596  0.1749  1.0286
 9885TIP3   OH253849   1.063   6.710   0.705  0.1052 -0.1406 -0.8398
 9885TIP3    H153850   1.000   6.662   0.759  1.4935 -1.1364 -0.0392
 9885TIP3    H253851   1.141   6.716   0.759  0.5315  1.6050 -1.5743
 9886TIP3   OH253852   7.221   5.908   3.419 -0.5635  0.5425  0.5966
 9886TIP3    H153853   7.205   5.865   3.336  2.1071 -1.6140  1.0699
 9886TIP3    H253854   7.155   5.872   3.479 -0.9110  0.2028  0.0111
 9887TIP3   OH253855   7.441   4.138   2.316  0.6601 -0.8094 -0.3203
 9887TIP3    H153856   7.460   4.158   2.407  0.6273 -0.4430 -0.3940
 9887TIP3    H253857   7.419   4.045   2.316 -0.5737 -0.5411  0.2526
 9888TIP3   OH253858   4.135   3.146   2.395  0.0315 -0.2403  0.3236
 9888TIP3    H153859   4.075   3.117   2.326 -0.9773  1.9438  0.2324
 9888TIP3    H253860   4.221   3.116   2.365 -0.7983 -2.3680 -0.1227
 9889TIP3   OH253861   5.301   5.424   3.037  0.0711 -0.0754  0.3584
 9889TIP3    H153862   5.210   5.402   3.056 -0.1923  0.3394 -0.3697
 9889TIP3    H253863   5.328   5.479   3.111 -0.1432 -0.5332  0.7774
 9890TIP3   OH253864   7.072   7.528   0.435 -0.5497  0.2494  0.2248
 9890TIP3    H153865   7.068   7.502   0.343 -0.3475  0.6482  0.0985
 9890TIP3    H253866   7.083   7.446   0.483  0.4786  0.1399 -0.1872
 9891TIP3   OH253867   1.845   2.621   3.186 -0.3200 -0.4097 -0.3662
 9891TIP3    H153868   1.899   2.545   3.165  0.7499  0.6504 -1.5694
 9891TIP3    H253869   1.756   2.586   3.190 -0.0006 -1.5389 -2.0741
 9892TIP3   OH253870   3.364   3.091   2.167 -0.1208 -0.4286  0.1042
 9892TIP3    H153871   3.432   3.069   2.231  0.0688  0.3999  0.1942
 9892TIP3    H253872   3.305   3.149   2.214  0.3952  0.7457 -0.6598
 9893TIP3   OH253873   3.920   1.264   2.678 -0.3221 -0.7993  0.3242
 9893TIP3    H153874   3.977   1.188   2.692 -0.8477 -1.2037  0.3219
 9893TIP3    H253875   3.917   1.307   2.763 -0.6079 -1.2055  0.5268
 9894TIP3   OH253876   3.167   6.309   1.905  0.3449  0.3441  0.0218
 9894TIP3    H153877   3.110   6.364   1.850 -0.0989  0.8236  0.9300
 9894TIP3    H253878   3.224   6.263   1.843 -1.8699 -1.1473 -1.0454
 9895TIP3   OH253879   6.462   4.875   1.580 -0.1452  0.3527 -0.2621
 9895TIP3    H153880   6.457   4.954   1.526  0.5456 -0.3986 -1.4874
 9895TIP3    H253881   6.444   4.803   1.519 -2.6029 -0.3600  1.1900
 9896TIP3   OH253882   5.148   6.022   2.654 -0.3179 -0.5138  0.3494
 9896TIP3    H153883   5.218   6.024   2.588 -0.9367  0.8956 -0.3267
 9896TIP3    H253884   5.175   5.955   2.716  2.0034  0.4556  0.5067
 9897TIP3   OH253885   7.131   0.409   1.561  0.6608 -0.6405  0.0506
 9897TIP3    H153886   7.175   0.344   1.615  0.2118  0.5010  1.8936
 9897TIP3    H253887   7.051   0.430   1.609  1.4070  2.1933  0.2378
 9898TIP3   OH253888   7.605   3.462   2.193  0.0271 -0.0358  0.7613
 9898TIP3    H153889   7.623   3.461   2.099  2.3764  1.2247  1.1051
 9898TIP3    H253890   7.582   3.552   2.212 -1.9292 -0.5869  1.2184
 9899TIP3   OH253891   3.483   5.807   0.837  0.7708  0.1020  0.0498
 9899TIP3    H153892   3.489   5.718   0.803 -0.8487  0.1124 -0.3603
 9899TIP3    H253893   3.398   5.839   0.806  1.0617  1.5847  0.6812
 9900TIP3   OH253894   0.225   5.974   0.687  0.2462  0.3225  0.2330
 9900TIP3    H153895   0.207   6.066   0.668  0.1290  0.0968 -0.8114
 9900TIP3    H253896   0.240   5.972   0.782 -0.3571  1.3110  0.3691
 9901TIP3   OH253897   4.592   6.017   0.359 -0.7240 -0.0435  0.3408
 9901TIP3    H153898   4.658   6.005   0.427 -0.9997 -1.4164  0.4012
 9901TIP3    H253899   4.641   6.049   0.283  0.3123 -2.3823 -0.0632
 9902TIP3   OH253900   4.657   0.626   2.160 -0.0221  0.6532  0.7404
 9902TIP3    H153901   4.655   0.706   2.107  1.1373  0.9621  1.1239
 9902TIP3    H253902   4.750   0.602   2.162 -0.3131 -0.5091  0.9315
 9903TIP3   OH253903   2.365   3.090   2.364  0.4741 -0.2412 -0.1330
 9903TIP3    H153904   2.330   3.083   2.452  0.0724 -0.2050 -0.2879
 9903TIP3    H253905   2.288   3.087   2.307  0.7309 -0.2740 -0.4812
 9904TIP3   OH253906   6.883   2.159   1.202  0.0414 -0.1991  0.1848
 9904TIP3    H153907   6.963   2.111   1.223  0.5558 -0.0526 -1.2977
 9904TIP3    H253908   6.885   2.168   1.107 -0.5872  1.8142  0.3225
 9905TIP3   OH253909   3.652   2.984   3.438 -0.6772 -0.0747  0.1274
 9905TIP3    H153910   3.634   3.064   3.389  2.2342 -0.1164 -1.2246
 9905TIP3    H253911   3.728   3.006   3.492  0.6928 -2.0984 -0.8739
 9906TIP3   OH253912   6.468   7.533   0.718  0.0333 -0.2695  0.3414
 9906TIP3    H153913   6.540   7.548   0.779  1.2477 -1.5122 -0.6988
 9906TIP3    H253914   6.509   7.539   0.631 -0.6767 -2.7564 -0.2456
 9907TIP3   OH253915   0.054   3.601   2.776  0.0760  0.0161 -0.7189
 9907TIP3    H153916  -0.012   3.549   2.822  0.3908 -0.1334 -0.4300
 9907TIP3    H253917   0.016   3.689   2.772 -0.6943 -0.3533 -1.7028
 9908TIP3   OH253918   5.689   2.869   0.898  0.8734 -0.1736  0.7822
 9908TIP3    H153919   5.641   2.830   0.971 -0.3666  1.6456  1.0048
 9908TIP3    H253920   5.621   2.892   0.834  1.5446  1.3873  0.5901
 9909TIP3   OH253921   3.387   3.168   2.612 -0.7791 -0.0318  0.4304
 9909TIP3    H153922   3.427   3.110   2.547  0.5286  0.5318  0.6870
 9909TIP3    H253923   3.417   3.256   2.586 -1.5855  0.3739  0.8494
 9910TIP3   OH253924   0.974   7.106   1.898 -0.3450 -0.4735 -0.1424
 9910TIP3    H153925   0.887   7.073   1.876 -0.4793 -0.4887  0.3940
 9910TIP3    H253926   1.000   7.056   1.976 -0.0443 -0.1577 -0.0353
 9911TIP3   OH253927   0.506   4.562   2.486 -0.2667 -0.2079  0.5097
 9911TIP3    H153928   0.454   4.521   2.555 -0.2117 -1.9504 -0.4104
 9911TIP3    H253929   0.570   4.616   2.532 -0.7695 -0.6682  1.7794
 9912TIP3   OH253930   7.448   2.632   2.405  0.8107 -0.1618  0.0342
 9912TIP3    H153931   7.497   2.585   2.472 -0.7549  1.9204  2.8608
 9912TIP3    H253932   7.466   2.724   2.422 -0.4687  0.4918 -1.7848
 9913TIP3   OH253933   3.123   7.466   2.160 -0.0232 -0.2091 -0.6429
 9913TIP3    H153934   3.198   7.468   2.100  1.0235 -1.0843  0.5733
 9913TIP3    H253935   3.125   7.377   2.197 -2.9052 -0.9685 -2.0684
 9914TIP3   OH253936   4.825   5.340   1.396 -0.2775  0.4994 -0.2654
 9914TIP3    H153937   4.731   5.337   1.378 -0.0783  0.9820 -1.5063
 9914TIP3    H253938   4.831   5.375   1.485 -1.2700  0.5325 -0.1936
 9915TIP3   OH253939   5.338   3.735   2.320  0.0104  0.2002  0.1091
 9915TIP3    H153940   5.293   3.688   2.250 -0.5541 -0.6571  1.0066
 9915TIP3    H253941   5.388   3.803   2.276  0.3097 -0.8204 -1.1794
 9916TIP3   OH253942   2.412   2.846   1.616 -0.1383  0.6395 -0.0160
 9916TIP3    H153943   2.404   2.763   1.568 -1.3275 -0.6693  2.2291
 9916TIP3    H253944   2.504   2.850   1.642 -0.2006 -0.3671  0.4175
 9917TIP3   OH253945   3.191   2.788   0.905 -1.0287 -0.3970 -0.0731
 9917TIP3    H153946   3.182   2.712   0.848  0.8725 -1.3535  0.7946
 9917TIP3    H253947   3.176   2.753   0.993  1.9479 -0.3141  0.5537
 9918TIP3   OH253948   7.211   1.919   2.857  0.1595 -0.3793  0.1487
 9918TIP3    H153949   7.214   2.014   2.844 -0.0993 -0.5543 -1.4658
 9918TIP3    H253950   7.125   1.894   2.825  0.1603 -1.1478  0.7295
 9919TIP3   OH253951   1.906   2.167   2.210  0.6359 -0.0951 -0.4149
 9919TIP3    H153952   1.861   2.252   2.214  1.1631  0.1627  2.6023
 9919TIP3    H253953   1.853   2.109   2.264  1.8310 -0.8407  0.0081
 9920TIP3   OH253954   6.845   6.021   2.721 -0.1981  0.5285 -0.3768
 9920TIP3    H153955   6.757   6.051   2.698  0.1891  3.2055  1.1820
 9920TIP3    H253956   6.833   5.973   2.803 -0.1247  2.0257  0.5523
 9921TIP3   OH253957   4.017   0.767   2.171  0.1759 -0.4935 -0.0723
 9921TIP3    H153958   4.038   0.676   2.151 -2.5839 -1.0717 -0.6920
 9921TIP3    H253959   3.922   0.774   2.158  0.1168  2.1930  1.0705
 9922TIP3   OH253960   3.923   5.099   2.804  0.2779  0.4847 -0.0770
 9922TIP3    H153961   3.831   5.075   2.815  0.3408  0.9086  1.8764
 9922TIP3    H253962   3.971   5.020   2.827  0.4046  0.4694 -0.3970
 9923TIP3   OH253963   0.157   5.921   1.044 -0.3272 -0.1131 -0.7346
 9923TIP3    H153964   0.169   5.826   1.040  1.3065  0.1082 -1.7727
 9923TIP3    H253965   0.179   5.945   1.134 -2.6893 -0.9130  0.1300
 9924TIP3   OH253966   2.585   4.342   0.512  0.2891  0.2023  0.1265
 9924TIP3    H153967   2.564   4.383   0.596 -0.4971  0.0528  0.0136
 9924TIP3    H253968   2.556   4.406   0.446 -1.8364 -0.8705 -0.0709
 9925TIP3   OH253969   0.519   6.507   2.456 -0.1270  0.1150 -0.4169
 9925TIP3    H153970   0.448   6.444   2.456  0.3213 -0.3985 -0.5250
 9925TIP3    H253971   0.533   6.528   2.549  0.0407 -0.3095 -0.3454
 9926TIP3   OH253972   4.482   2.947   1.457  1.0732 -0.3804 -0.4315
 9926TIP3    H153973   4.515   2.895   1.529  2.7677 -0.5226 -1.2693
 9926TIP3    H253974   4.394   2.974   1.485  1.1335 -1.6003  1.0517
 9927TIP3   OH253975   3.311   3.535   3.288  0.1879  0.2039 -0.1877
 9927TIP3    H153976   3.380   3.495   3.235 -0.3058  0.6530 -1.1885
 9927TIP3    H253977   3.358   3.596   3.346  0.6108  0.7978 -1.1281
 9928TIP3   OH253978   5.238   5.786   2.810  0.1597 -0.0287 -0.7116
 9928TIP3    H153979   5.167   5.727   2.786  1.2286 -2.0650  0.7886
 9928TIP3    H253980   5.317   5.734   2.798  1.1066  0.7123  1.6317
 9929TIP3   OH253981   5.907   5.363   2.368  0.5472 -0.3686  0.7453
 9929TIP3    H153982   5.951   5.361   2.283  1.6072 -3.3500  1.2332
 9929TIP3    H253983   5.828   5.415   2.353  1.4933  0.5232 -1.6167
 9930TIP3   OH253984   0.558   7.087   3.161  0.2135  0.3166 -0.0873
 9930TIP3    H153985   0.501   7.098   3.084  0.2202 -0.4346 -0.2000
 9930TIP3    H253986   0.640   7.052   3.127  1.4672  3.0645 -0.1808
 9931TIP3   OH253987   1.809   6.310   0.568 -0.2277  0.4252  1.3172
 9931TIP3    H153988   1.873   6.380   0.577  0.0284  0.1628  1.5447
 9931TIP3    H253989   1.850   6.247   0.509 -0.7406  0.7912  0.5561
 9932TIP3   OH253990   1.659   1.877   3.322  0.1744  0.4643  0.2684
 9932TIP3    H153991   1.630   1.961   3.285 -0.3240 -0.2412 -0.9804
 9932TIP3    H253992   1.593   1.857   3.389 -0.5829  0.3182 -0.5114
 9933TIP3   OH253993   4.541   7.031   2.052 -0.6081 -0.1124  0.0091
 9933TIP3    H153994   4.486   6.959   2.082  0.9322 -2.1743 -1.7782
 9933TIP3    H253995   4.629   7.011   2.086 -0.1072  0.7880 -0.6881
 9934TIP3   OH253996   1.051   4.682   2.762 -0.2711 -0.0088  0.4012
 9934TIP3    H153997   1.059   4.776   2.773 -1.6429  0.3425 -1.2158
 9934TIP3    H253998   0.979   4.657   2.819 -0.2016 -0.0052  0.4905
 9935TIP3   OH253999   5.721   0.401   0.783 -0.1687  0.0354 -0.4439
 9935TIP3    H154000   5.626   0.392   0.786 -0.2432  0.9273  2.1252
 9935TIP3    H254001   5.754   0.318   0.817 -0.1171  0.5217  0.7214
 9936TIP3   OH254002   5.905   2.553   1.966 -0.0462  0.1187  0.0920
 9936TIP3    H154003   5.978   2.492   1.978  0.6946  1.0566  0.4624
 9936TIP3    H254004   5.834   2.498   1.932  0.5550 -0.9772  0.5304
 9937TIP3   OH254005   5.313   3.177   2.197 -0.2871 -0.2610 -0.6627
 9937TIP3    H154006   5.388   3.153   2.251  0.2061 -0.2119 -1.3159
 9937TIP3    H254007   5.333   3.141   2.111 -1.1652 -0.5305 -0.7619
 9938TIP3   OH254008   1.720   3.283   0.748  0.2434  0.1553 -0.6168
 9938TIP3    H154009   1.711   3.357   0.808 -0.3464 -0.2603 -0.1664
 9938TIP3    H254010   1.721   3.322   0.661 -1.6736  0.6076 -0.4768
 9939TIP3   OH254011   0.692   2.931   2.618  0.2072 -0.3523 -0.3332
 9939TIP3    H154012   0.768   2.958   2.567 -0.3729 -1.0178 -1.5962
 9939TIP3    H254013   0.715   2.954   2.708  1.3520  0.6518 -0.8440
 9940TIP3   OH254014   5.513   2.769   2.976  0.0783 -0.7412 -0.4384
 9940TIP3    H154015   5.479   2.687   3.013 -1.3213 -0.5177 -1.1716
 9940TIP3    H254016   5.607   2.767   2.997 -0.0686 -2.1546  0.2337
 9941TIP3   OH254017   1.022   1.817   2.417 -0.4183  0.3999  0.2877
 9941TIP3    H154018   1.110   1.843   2.388 -0.6204 -0.9836 -1.7795
 9941TIP3    H254019   0.964   1.883   2.379 -0.3608  0.8640  0.9876
 9942TIP3   OH254020   6.110   5.354   0.540 -0.3163 -0.4298  0.1643
 9942TIP3    H154021   6.097   5.379   0.631 -0.5213 -2.2576  0.6872
 9942TIP3    H254022   6.034   5.299   0.519  1.4938 -3.1287  0.1409
 9943TIP3   OH254023   3.627   5.483   2.368 -0.1640 -0.2990  0.1650
 9943TIP3    H154024   3.577   5.481   2.286  1.1409 -0.4345 -0.6550
 9943TIP3    H254025   3.708   5.436   2.348 -0.0262 -0.7733  1.6899
 9944TIP3   OH254026   1.815   0.855   1.597  0.1021  0.4473  0.3355
 9944TIP3    H154027   1.744   0.876   1.536 -1.4665 -0.8784  1.5858
 9944TIP3    H254028   1.883   0.817   1.542 -1.4326 -1.1137 -0.5840
 9945TIP3   OH254029   2.094   0.406   2.676 -0.0573 -0.0816 -0.2109
 9945TIP3    H154030   2.047   0.351   2.613 -1.3149 -0.7033  1.1982
 9945TIP3    H254031   2.136   0.343   2.735  0.4981  0.4735 -0.0123
 9946TIP3   OH254032   5.940   6.383   0.955  0.4657 -0.4789 -0.3525
 9946TIP3    H154033   5.958   6.321   0.885 -0.5523  0.7314 -1.7305
 9946TIP3    H254034   6.005   6.452   0.942  1.6226 -1.1973  1.2019
 9947TIP3   OH254035   0.936   1.049   2.604 -1.3056 -0.4464  0.1699
 9947TIP3    H154036   0.946   0.972   2.548 -0.2618 -0.1531 -0.0766
 9947TIP3    H254037   0.985   1.028   2.684 -1.0289 -0.0610  0.1082
 9948TIP3   OH254038   4.234   4.507   2.137 -0.1702  0.0093 -0.3880
 9948TIP3    H154039   4.292   4.583   2.138  0.3383 -0.3570 -0.9208
 9948TIP3    H254040   4.234   4.476   2.228  0.6338 -0.1010 -0.4140
 9949TIP3   OH254041   4.163   5.124   0.989 -0.5909  0.5374 -0.2744
 9949TIP3    H154042   4.073   5.153   1.007 -0.9720 -1.0944  0.6946
 9949TIP3    H254043   4.152   5.046   0.933 -0.0101 -1.4314  2.1712
 9950TIP3   OH254044   5.264   4.877   1.616  0.0095  0.2562 -0.1422
 9950TIP3    H154045   5.197   4.945   1.628 -2.0117 -1.9139  2.2214
 9950TIP3    H254046   5.234   4.829   1.539  1.6525  2.0970 -2.0563
 9951TIP3   OH254047   1.608   0.673   3.274 -0.6298 -0.0833  0.0768
 9951TIP3    H154048   1.514   0.655   3.285 -0.4389 -1.3492 -0.2586
 9951TIP3    H254049   1.651   0.589   3.289  0.2973 -0.0140 -1.8920
 9952TIP3   OH254050   4.658   5.001   1.953  0.0387  0.0070  0.2370
 9952TIP3    H154051   4.674   4.907   1.951 -1.0158 -0.1725 -1.5137
 9952TIP3    H254052   4.576   5.010   2.003 -0.0712 -0.0378  0.0648
 9953TIP3   OH254053   1.841   5.052   0.769  0.0522 -0.2615 -0.2156
 9953TIP3    H154054   1.782   4.980   0.747  0.3816 -0.1699 -1.4441
 9953TIP3    H254055   1.923   5.030   0.727  0.1675  0.8193 -0.5837
 9954TIP3   OH254056   2.556   1.064   1.570  0.4266  0.3797 -0.2615
 9954TIP3    H154057   2.529   1.110   1.490 -0.5879  0.5735  0.1670
 9954TIP3    H254058   2.621   1.001   1.541  0.0615  0.4367 -1.2500
 9955TIP3   OH254059   4.094   7.282   0.448  0.2238 -0.0906  0.1676
 9955TIP3    H154060   4.054   7.196   0.460  1.4379 -0.6260  0.5749
 9955TIP3    H254061   4.044   7.322   0.377  0.2928 -1.5711 -0.7706
 9956TIP3   OH254062   1.952   6.399   1.397  0.0007 -0.2441 -0.5377
 9956TIP3    H154063   2.044   6.392   1.371  0.5859  1.2905  0.9584
 9956TIP3    H254064   1.932   6.492   1.389 -0.8924 -0.2875  0.8371
 9957TIP3   OH254065   3.377   3.899   2.456 -0.2560  0.6331  0.3708
 9957TIP3    H154066   3.289   3.933   2.476 -0.4273  0.2764  0.2333
 9957TIP3    H254067   3.374   3.807   2.483 -0.9775 -0.3138 -2.5836
 9958TIP3   OH254068   4.625   4.544   0.404 -0.0117 -0.1970  0.0927
 9958TIP3    H154069   4.535   4.511   0.400 -0.3969  0.8197  0.1272
 9958TIP3    H254070   4.624   4.625   0.353  0.8810 -0.1574  0.1177
 9959TIP3   OH254071   0.897   3.008   2.462  0.2172  0.0741  0.2795
 9959TIP3    H154072   0.922   3.035   2.374 -0.7159 -0.1450 -0.0605
 9959TIP3    H254073   0.973   3.031   2.516  0.6882  0.4681 -0.5244
 9960TIP3   OH254074   7.532   0.574   2.440 -0.1819  0.4338 -0.6767
 9960TIP3    H154075   7.504   0.650   2.491 -1.5839 -0.1153 -0.5917
 9960TIP3    H254076   7.594   0.529   2.498  0.3148  1.2575 -0.5499
 9961TIP3   OH254077   6.423   7.418   2.985  0.5439  0.1038  0.0823
 9961TIP3    H154078   6.357   7.385   2.923 -0.6089  1.9583  0.2223
 9961TIP3    H254079   6.399   7.378   3.068  1.9092 -2.1513 -0.5097
 9962TIP3   OH254080   4.789   5.604   1.184 -0.0507  0.2863  0.0245
 9962TIP3    H154081   4.832   5.622   1.268 -0.0024  1.0460 -0.1513
 9962TIP3    H254082   4.859   5.607   1.120 -0.1425  0.0756 -0.0833
 9963TIP3   OH254083   7.199   2.919   2.111 -0.2103  0.2630 -0.2962
 9963TIP3    H154084   7.233   2.841   2.068 -1.5417  0.8118 -2.5376
 9963TIP3    H254085   7.227   2.991   2.055  1.2510  1.4830  1.8901
 9964TIP3   OH254086   5.984   3.781   2.438  0.0212 -0.1542  0.8336
 9964TIP3    H154087   5.988   3.876   2.449 -0.5582 -0.2931  2.5257
 9964TIP3    H254088   6.066   3.749   2.475  1.0695 -0.2362 -1.3978
 9965TIP3   OH254089   4.369   2.827   2.137  0.0601  0.3237  0.3152
 9965TIP3    H154090   4.400   2.905   2.182  1.1320 -1.2964  2.6034
 9965TIP3    H254091   4.447   2.788   2.099 -0.5423  0.6138 -1.2743
 9966TIP3   OH254092   0.755   1.992   1.298 -0.3511  0.2279  0.2593
 9966TIP3    H154093   0.786   2.082   1.303 -1.0915  0.4084  1.8092
 9966TIP3    H254094   0.675   1.990   1.349  1.0619 -1.8871  2.6438
 9967TIP3   OH254095   2.316   5.431   3.060 -0.0208  0.4460  0.1589
 9967TIP3    H154096   2.288   5.354   3.010 -1.5577  0.1978  1.3465
 9967TIP3    H254097   2.404   5.409   3.090  1.1491  0.7612 -2.6824
 9968TIP3   OH254098   7.282   7.593   1.800 -0.3218  0.2820  0.7366
 9968TIP3    H154099   7.353   7.653   1.823 -0.3815 -0.4458  3.0973
 9968TIP3    H254100   7.327   7.517   1.762  0.1567  0.0863  1.6490
 9969TIP3   OH254101   1.696   7.349   1.885  0.0608 -0.0515 -0.4769
 9969TIP3    H154102   1.761   7.336   1.954  0.7467  0.6561 -0.9727
 9969TIP3    H254103   1.746   7.348   1.803 -0.3556  1.6425 -0.8008
 9970TIP3   OH254104   2.169   6.138   2.600 -0.0347  0.1302  0.0291
 9970TIP3    H154105   2.149   6.094   2.518 -1.2392 -0.5951  0.6804
 9970TIP3    H254106   2.239   6.199   2.578 -1.2392  0.9206 -1.8293
 9971TIP3   OH254107   2.915   1.273   2.173  0.1819 -0.2179 -0.0591
 9971TIP3    H154108   3.000   1.246   2.210 -0.5404  0.7498  2.5318
 9971TIP3    H254109   2.931   1.362   2.140 -0.4044  1.3103  3.3095
 9972TIP3   OH254110   0.289   2.220   2.117  0.7047 -0.0655 -0.5944
 9972TIP3    H154111   0.283   2.201   2.210  1.4632  0.2767 -0.4651
 9972TIP3    H254112   0.336   2.304   2.113 -1.0598  0.9358 -1.1952
 9973TIP3   OH254113   7.189   0.330   2.352 -0.3442 -0.7082 -0.6628
 9973TIP3    H154114   7.274   0.367   2.330 -0.0487 -0.0216  1.3836
 9973TIP3    H254115   7.161   0.284   2.273  1.5056 -0.1936 -1.6701
 9974TIP3   OH254116   0.918   7.611   2.203  0.6854 -0.0253 -0.2162
 9974TIP3    H154117   0.961   7.528   2.223 -1.4597 -0.6781  2.1075
 9974TIP3    H254118   0.946   7.670   2.273  1.2377  0.9200 -1.1838
 9975TIP3   OH254119   1.707   4.059   0.540 -0.1257  0.5052 -0.4810
 9975TIP3    H154120   1.717   4.153   0.550 -1.3450  0.5695  0.3373
 9975TIP3    H254121   1.689   4.027   0.628  2.0830 -0.7662 -0.4235
 9976TIP3   OH254122   5.425   6.114   2.573  0.0313 -0.3654  0.4421
 9976TIP3    H154123   5.457   6.045   2.631  0.3830 -1.0056 -0.4863
 9976TIP3    H254124   5.457   6.089   2.486 -0.8478  0.3436 -0.1023
 9977TIP3   OH254125   5.172   3.607   2.167  0.3197 -0.4746  0.3753
 9977TIP3    H154126   5.187   3.530   2.222  1.8498  0.2203  1.0152
 9977TIP3    H254127   5.120   3.575   2.094  0.5556 -2.0216  0.8383
 9978TIP3   OH254128   3.302   1.737   1.549  0.4027  0.5803 -0.0525
 9978TIP3    H154129   3.246   1.706   1.620 -0.4073 -0.2633 -1.0170
 9978TIP3    H254130   3.250   1.805   1.505  0.6247  0.6386 -0.2273
 9979TIP3   OH254131   6.520   5.239   2.336 -0.2489  0.0855 -0.3717
 9979TIP3    H154132   6.472   5.211   2.258  0.2377  1.0343 -1.0407
 9979TIP3    H254133   6.480   5.323   2.360  0.9533  0.8389 -0.8753
 9980TIP3   OH254134   1.361   2.049   2.804 -0.2497  0.0277 -0.6782
 9980TIP3    H154135   1.447   2.061   2.765 -0.1995  0.8240 -0.3571
 9980TIP3    H254136   1.378   2.005   2.888 -0.0845  0.7407 -0.3300
 9981TIP3   OH254137   6.516   3.920   0.626 -0.5624  0.3430  0.0017
 9981TIP3    H154138   6.547   3.869   0.701 -3.4878 -0.3409  0.8844
 9981TIP3    H254139   6.481   3.854   0.566  0.1653  1.0180 -1.1936
 9982TIP3   OH254140   2.242   7.274   1.672 -0.5420  0.1966  0.1051
 9982TIP3    H154141   2.180   7.316   1.732 -0.5936  0.6786 -0.2774
 9982TIP3    H254142   2.245   7.183   1.700 -2.3447 -0.1141 -0.6372
 9983TIP3   OH254143   7.519   7.603   2.089  0.2423  0.1648 -0.4187
 9983TIP3    H154144   7.588   7.548   2.053 -1.8666 -2.4207 -0.8105
 9983TIP3    H254145   7.493   7.659   2.016 -0.5772 -1.5085 -1.4723
 9984TIP3   OH254146   1.993   6.802   1.147 -0.2787 -0.5783  0.0149
 9984TIP3    H154147   1.982   6.754   1.065 -0.6041  0.1425 -0.3755
 9984TIP3    H254148   2.074   6.852   1.135 -0.8372  0.2843 -0.2646
 9985TIP3   OH254149   0.519   0.053   0.915  0.3125  0.3310 -0.2386
 9985TIP3    H154150   0.444   0.108   0.938 -0.1855  1.0310 -3.1208
 9985TIP3    H254151   0.480  -0.029   0.883  0.8888 -0.1768  0.3297
 9986TIP3   OH254152   0.165   0.257   1.597  0.3226 -0.1467 -0.0575
 9986TIP3    H154153   0.245   0.291   1.638  1.4973 -1.1362 -1.4056
 9986TIP3    H254154   0.171   0.285   1.506 -0.0810 -1.5380 -0.5366
 9987TIP3   OH254155   4.786   2.508   0.819  0.0777  0.0430 -0.0953
 9987TIP3    H154156   4.750   2.454   0.889 -2.1515  1.8304  0.2493
 9987TIP3    H254157   4.714   2.519   0.757  2.0171 -1.6748 -2.9443
 9988TIP3   OH254158   7.197   2.494   2.053  0.2836  0.2050 -0.0390
 9988TIP3    H154159   7.223   2.584   2.029 -1.7593  1.0183  0.6172
 9988TIP3    H254160   7.106   2.487   2.024 -0.5097 -0.6713  2.4352
 9989TIP3   OH254161   0.471   3.424   3.555 -0.4903 -0.1562 -0.0472
 9989TIP3    H154162   0.504   3.337   3.577  2.5103  0.5885 -1.1099
 9989TIP3    H254163   0.429   3.412   3.470 -0.7825 -0.7131  0.1730
 9990TIP3   OH254164   5.433   3.945   2.114  0.1972 -0.3806 -0.5341
 9990TIP3    H154165   5.527   3.937   2.130  0.1724 -0.1665 -0.2874
 9990TIP3    H254166   5.426   4.014   2.048  0.1857 -0.1588 -0.2966
 9991TIP3   OH254167   2.269   5.681   2.987  0.4747 -0.0705 -0.0665
 9991TIP3    H154168   2.318   5.740   3.045 -2.0320  1.2847  0.8238
 9991TIP3    H254169   2.302   5.594   3.009  1.3103  0.6281  1.6405
 9992TIP3   OH254170   1.587   7.561   1.460 -0.0208 -0.5359 -0.5843
 9992TIP3    H154171   1.679   7.569   1.439  0.0237  0.4595 -0.0445
 9992TIP3    H254172   1.573   7.619   1.535 -0.4366 -2.9521  1.3548
 9993TIP3   OH254173   2.810   6.384   1.953  0.6711  0.7491 -0.2380
 9993TIP3    H154174   2.818   6.479   1.957  2.2966  0.5972  1.7569
 9993TIP3    H254175   2.819   6.355   2.044 -0.2743 -1.2975 -0.7300
 9994TIP3   OH254176   3.488   4.637   1.540  0.3847 -0.0417  0.7334
 9994TIP3    H154177   3.444   4.560   1.503  0.2321  0.9189 -1.1968
 9994TIP3    H254178   3.578   4.631   1.509 -0.5601  2.7495 -3.4292
 9995TIP3   OH254179   3.097   7.097   2.617 -0.0088 -0.5030  0.3101
 9995TIP3    H154180   3.101   7.003   2.634 -1.3944 -0.4086  1.2853
 9995TIP3    H254181   3.005   7.114   2.595 -0.0143  0.7844  1.2071
 9996TIP3   OH254182   0.941   6.758   0.441 -0.1855 -0.1594  0.2226
 9996TIP3    H154183   0.955   6.682   0.384  1.1610  0.7702 -0.7636
 9996TIP3    H254184   0.964   6.728   0.528  4.4466  0.0951 -0.6966
 9997TIP3   OH254185   0.217   2.224   2.765 -0.4549  0.5151 -0.2544
 9997TIP3    H154186   0.267   2.270   2.833  0.6938  0.1229 -0.8017
 9997TIP3    H254187   0.250   2.134   2.768 -1.1689  0.2337 -0.6150
 9998TIP3   OH254188   7.026   0.037   0.621  0.3414  0.0218  0.3549
 9998TIP3    H154189   7.107   0.086   0.632  0.6128 -0.1514 -0.7149
 9998TIP3    H254190   7.046  -0.027   0.553 -1.6143  2.1958 -2.5291
 9999TIP3   OH254191   3.315   6.932   2.575 -0.1318  0.2651 -0.1694
 9999TIP3    H154192   3.290   6.911   2.485 -0.5283  0.1602 -0.0364
 9999TIP3    H254193   3.371   7.009   2.566 -1.5502  1.3275 -0.3951
10000TIP3   OH254194   0.486   5.975   1.951  0.0890  0.1450  0.4141
10000TIP3    H154195   0.437   6.041   1.902 -2.5106 -1.4517  0.6668
10000TIP3    H254196   0.509   6.019   2.033 -0.0319  1.2646 -0.1341
10001TIP3   OH254197   3.352   4.071   0.401 -0.1033 -0.2365 -0.0926
10001TIP3    H154198   3.376   4.150   0.352 -1.4712  0.5199  0.3845
10001TIP3    H254199   3.262   4.088   0.430 -0.5235 -2.0959 -0.2087
10002TIP3   OH254200   0.847   2.252   1.340 -0.1423 -0.1971  0.1763
10002TIP3    H154201   0.824   2.296   1.422 -0.2906 -0.2196  0.1463
10002TIP3    H254202   0.936   2.218   1.355 -0.7382 -1.5411  0.8876
10003TIP3   OH254203   1.811   2.151   1.324 -0.0179  0.4683  0.4653
10003TIP3    H154204   1.899   2.123   1.297 -0.3223 -0.9409  0.8624
10003TIP3    H254205   1.786   2.089   1.392 -1.4640  0.6671  0.1428
10004TIP3   OH254206   3.558   5.552   0.784 -0.2755  0.9537  0.4272
10004TIP3    H154207   3.524   5.466   0.806 -0.8223  1.1859  0.5168
10004TIP3    H254208   3.608   5.539   0.704  0.3981  0.3917  0.9392
10005TIP3   OH254209   4.945   0.393   0.814  0.2548  0.0641 -0.3524
10005TIP3    H154210   4.854   0.420   0.824 -0.3737 -0.4819 -3.4835
10005TIP3    H254211   4.940   0.306   0.775  2.1539 -0.3066  0.1126
10006TIP3   OH254212   1.884   2.405   2.747 -0.0280  0.2694  0.2263
10006TIP3    H154213   1.952   2.472   2.748  1.0105 -0.7309  2.0519
10006TIP3    H254214   1.912   2.344   2.679 -0.8306  1.4574 -1.2455
10007TIP3   OH254215   0.429   7.409   2.829 -1.0787 -0.1245 -0.4238
10007TIP3    H154216   0.403   7.332   2.880 -0.5620 -0.3806 -0.5418
10007TIP3    H254217   0.523   7.418   2.846 -0.9070 -0.1773 -1.2736
10008TIP3   OH254218   0.291   1.579   1.562  0.3845 -0.0921  0.2334
10008TIP3    H154219   0.284   1.637   1.487 -0.7417  0.1258  0.4756
10008TIP3    H254220   0.200   1.550   1.577  0.2364  1.4040  2.6966
10009TIP3   OH254221   6.039   3.306   1.890 -0.3245 -0.2988  0.5140
10009TIP3    H154222   5.970   3.361   1.925 -1.8276 -1.7116 -0.0961
10009TIP3    H254223   6.018   3.296   1.798  1.0221 -0.3267  0.1816
10010TIP3   OH254224   1.021   4.997   0.631 -0.2019 -0.4159  0.0384
10010TIP3    H154225   1.115   4.989   0.613 -0.7400 -1.4211 -3.0834
10010TIP3    H254226   1.013   5.077   0.681  2.2544  0.2803 -0.5254
10011TIP3   OH254227   7.046   4.857   3.071 -0.0989  0.0150 -0.4776
10011TIP3    H154228   7.117   4.798   3.047 -0.1981 -0.2576 -0.1057
10011TIP3    H254229   7.063   4.937   3.020  1.2686  0.4809  0.6611
10012TIP3   OH254230   2.741   6.587   2.633 -0.5057 -0.1075  0.3818
10012TIP3    H154231   2.768   6.495   2.636  0.6566  0.2521  1.8022
10012TIP3    H254232   2.729   6.605   2.539  2.1563 -0.9005 -0.2016
10013TIP3   OH254233   6.526   1.016   0.806 -0.2774  0.1710  0.3018
10013TIP3    H154234   6.473   1.023   0.726 -0.9549 -0.0293  0.7240
10013TIP3    H254235   6.465   1.035   0.877  0.3236  0.3602  0.7737
10014TIP3   OH254236   5.689   1.397   0.375  0.4612 -0.1093 -0.2269
10014TIP3    H154237   5.657   1.487   0.367  0.9338  0.3243  2.0138
10014TIP3    H254238   5.621   1.352   0.426  1.2700 -0.3651  0.6700
10015TIP3   OH254239   7.496   5.853   3.372 -0.2899  0.6900  0.2466
10015TIP3    H154240   7.413   5.848   3.418  0.9662  0.1626  2.5660
10015TIP3    H254241   7.522   5.945   3.380  0.4863  0.3694  1.7038
10016TIP3   OH254242   7.412   1.148   0.578  0.2078 -0.1585  0.0711
10016TIP3    H154243   7.482   1.167   0.639 -2.0106  2.3078  2.0873
10016TIP3    H254244   7.412   1.222   0.517 -2.2645  1.4474  1.8404
10017TIP3   OH254245   0.003   1.116   2.789  0.4917 -0.1506  0.4593
10017TIP3    H154246   0.001   1.055   2.863  2.4881 -0.1892  0.5399
10017TIP3    H254247  -0.084   1.155   2.787 -0.0718 -1.2526  1.8920
10018TIP3   OH254248   2.725   6.968   1.540 -0.0621 -0.8928  0.3799
10018TIP3    H154249   2.673   6.976   1.620  0.3917 -2.7812  0.9019
10018TIP3    H254250   2.744   6.875   1.533  1.1590 -0.5615 -1.1449
10019TIP3   OH254251   3.416   2.337   2.486 -0.7680 -1.0662  0.0074
10019TIP3    H154252   3.377   2.416   2.522  2.5725 -0.2266  2.3346
10019TIP3    H254253   3.454   2.365   2.403 -0.8213 -0.5770  0.1420
10020TIP3   OH254254   5.501   5.649   1.644 -0.0360  0.0666  0.5892
10020TIP3    H154255   5.445   5.616   1.714 -2.3155  0.0994 -1.1092
10020TIP3    H254256   5.539   5.571   1.605  0.7267  0.0073  1.4295
10021TIP3   OH254257   7.473   4.124   0.884 -0.9117  0.0700 -0.0809
10021TIP3    H154258   7.478   4.101   0.792 -0.9805 -0.4453  0.0397
10021TIP3    H254259   7.467   4.219   0.885 -0.8248  0.0820 -0.6033
10022TIP3   OH254260   4.498   4.927   0.969  0.0771 -0.3978 -0.0355
10022TIP3    H154261   4.546   4.894   0.893 -1.2307 -1.6478 -0.3645
10022TIP3    H254262   4.436   4.857   0.990 -0.2570  0.3416  1.5852
10023TIP3   OH254263   5.239   2.422   2.789  0.0665 -0.0237 -0.6492
10023TIP3    H154264   5.307   2.377   2.840 -0.5388 -1.3212 -0.9575
10023TIP3    H254265   5.185   2.352   2.753 -1.3732  0.9703 -0.5229
10024TIP3   OH254266   3.389   6.598   0.978  0.0698  0.2987  0.0043
10024TIP3    H154267   3.442   6.547   1.039  0.7517  0.8569 -0.1093
10024TIP3    H254268   3.415   6.689   0.995 -1.1924  0.6245  0.2681
10025TIP3   OH254269   7.216   5.937   2.818  0.1842  0.4140 -0.0376
10025TIP3    H154270   7.145   6.001   2.823  0.9436  1.2501  0.5322
10025TIP3    H254271   7.183   5.860   2.864 -0.8553  0.2804 -0.9940
10026TIP3   OH254272   3.188   0.325   0.826  0.2694  0.5120  0.3490
10026TIP3    H154273   3.129   0.257   0.793  1.2798  0.7238 -2.0938
10026TIP3    H254274   3.244   0.280   0.889 -0.6018 -0.3598  0.5165
10027TIP3   OH254275   1.097   2.146   1.357  0.1770  0.4880  0.1691
10027TIP3    H154276   1.161   2.090   1.312 -0.0893  2.2152 -2.6421
10027TIP3    H254277   1.102   2.119   1.448  1.7118 -2.4657 -0.6296
10028TIP3   OH254278   6.232   2.082   1.952  0.4098  0.3882  0.6433
10028TIP3    H154279   6.245   1.988   1.954  1.9120  0.5798  1.0803
10028TIP3    H254280   6.139   2.094   1.971 -0.0532 -1.0342 -0.5699
10029TIP3   OH254281   3.398   2.868   3.192  0.0472  0.3875 -0.3383
10029TIP3    H154282   3.322   2.843   3.139  0.4477  0.3700 -0.9154
10029TIP3    H254283   3.424   2.953   3.158  0.4438  0.2755 -0.3164
10030TIP3   OH254284   4.768   6.397   0.959  0.0883  0.5893  0.0860
10030TIP3    H154285   4.677   6.384   0.931  0.4079 -0.8416 -0.3476
10030TIP3    H254286   4.787   6.321   1.014  0.4174  1.8724  1.8453
10031TIP3   OH254287   2.954   2.937   1.446  0.9556  0.1581 -0.3352
10031TIP3    H154288   2.980   2.845   1.441  1.6804  0.2304  1.4303
10031TIP3    H254289   3.035   2.984   1.464  0.1928  0.7746  1.8281
10032TIP3   OH254290   0.994   0.367   3.011 -0.2386 -0.5921  0.5036
10032TIP3    H154291   0.909   0.390   3.050 -0.6276  0.1239 -0.6939
10032TIP3    H254292   1.058   0.388   3.079 -0.5434  4.1138 -0.2699
10033TIP3   OH254293   4.014   2.693   1.623  0.4538  0.0802  0.5365
10033TIP3    H154294   4.078   2.671   1.555  0.8764  2.6875 -0.0004
10033TIP3    H254295   3.935   2.717   1.576 -0.5494 -1.8342  1.1604
10034TIP3   OH254296   0.628   0.008   1.956 -0.1521 -0.2235 -0.2823
10034TIP3    H154297   0.668   0.090   1.984  0.3808 -0.6959  0.3443
10034TIP3    H254298   0.700  -0.054   1.952 -0.1538 -0.1630 -2.8691
10035TIP3   OH254299   0.725   3.891   2.548  0.2292 -0.3167 -0.0427
10035TIP3    H154300   0.695   3.924   2.632 -0.0295 -1.5809  0.3861
10035TIP3    H254301   0.666   3.931   2.484  0.9772  1.3451  0.2520
10036TIP3   OH254302   4.874   2.431   1.942 -0.0271  0.1096  0.6998
10036TIP3    H154303   4.886   2.522   1.915  2.6810 -0.1190  0.8105
10036TIP3    H254304   4.849   2.436   2.034 -3.6331  0.7380 -0.1643
10037TIP3   OH254305   2.507   4.504   0.717  0.1979  0.0062 -0.1675
10037TIP3    H154306   2.460   4.462   0.790 -0.3185  0.8790  0.0125
10037TIP3    H254307   2.520   4.594   0.746 -0.1927  0.4223 -1.2415
10038TIP3   OH254308   4.641   4.123   2.692 -0.0858 -0.3476  0.4586
10038TIP3    H154309   4.732   4.102   2.715 -0.2105 -1.3284  0.0780
10038TIP3    H254310   4.599   4.141   2.776 -0.0420 -1.9119  0.8333
10039TIP3   OH254311   7.102   4.186   1.254  0.0629 -0.7290 -0.2238
10039TIP3    H154312   7.136   4.230   1.332 -2.6684  0.8492  0.2216
10039TIP3    H254313   7.053   4.111   1.288 -3.0795  1.2285 -0.0312
10040TIP3   OH254314   4.413   6.874   0.827 -0.1057  0.2043 -0.3323
10040TIP3    H154315   4.382   6.922   0.750  1.4020  0.3048 -0.9227
10040TIP3    H254316   4.506   6.858   0.809 -0.2418 -1.7593  0.4574
10041TIP3   OH254317   4.247   0.582   0.768 -0.0532 -0.2652 -0.0788
10041TIP3    H154318   4.186   0.618   0.832 -1.8349 -0.2342 -1.7097
10041TIP3    H254319   4.200   0.587   0.685  1.6810 -1.5085 -1.1949
10042TIP3   OH254320   2.142   6.460   2.181 -0.2311 -0.1958  0.1039
10042TIP3    H154321   2.082   6.418   2.120  0.2567  1.6130 -1.7063
10042TIP3    H254322   2.218   6.402   2.183 -1.2197 -1.5201  0.9468
10043TIP3   OH254323   7.166   1.320   0.847  0.5417 -0.4812 -0.2852
10043TIP3    H154324   7.099   1.351   0.908  0.8012  0.0744 -0.2695
10043TIP3    H254325   7.121   1.317   0.762  0.5640  0.1841 -0.3320
10044TIP3   OH254326   5.549   0.669   0.899 -0.0487  0.2971 -0.7669
10044TIP3    H154327   5.623   0.716   0.861 -0.5537  1.9173  0.1979
10044TIP3    H254328   5.481   0.735   0.910 -0.5151 -0.4597  1.3627
10045TIP3   OH254329   1.240   4.203   3.048  0.8410 -0.0490  0.7535
10045TIP3    H154330   1.281   4.260   2.983  1.3140  0.3426  1.3770
10045TIP3    H254331   1.178   4.150   2.999  2.0296 -0.5923 -0.2187
10046TIP3   OH254332   0.560   3.232   2.037 -0.4159 -0.1325  0.6912
10046TIP3    H154333   0.612   3.200   2.110  0.6345 -0.0916 -0.0215
10046TIP3    H254334   0.619   3.230   1.962 -1.1406  0.8455  0.0593
10047TIP3   OH254335   5.545   0.753   3.145  0.4849  0.7048  0.1351
10047TIP3    H154336   5.454   0.730   3.161  0.7881 -1.8429 -1.2383
10047TIP3    H254337   5.557   0.737   3.051  1.8415  3.0121 -0.1381
10048TIP3   OH254338   3.677   2.417   2.549 -0.3281  0.2023  0.2212
10048TIP3    H154339   3.622   2.383   2.619  0.3182  0.9732  1.1197
10048TIP3    H254340   3.636   2.500   2.523  1.0309  1.4313  1.7641
10049TIP3   OH254341   4.904   2.538   2.932  0.2891  0.1416 -0.4920
10049TIP3    H154342   4.911   2.449   2.896  0.3242  0.0592 -0.2839
10049TIP3    H254343   4.835   2.579   2.880  0.7769  0.2334 -1.0705
10050TIP3   OH254344   6.900   0.902   0.711 -1.0910 -0.0828  0.8140
10050TIP3    H154345   6.961   0.940   0.649 -2.5116  1.1163  0.0683
10050TIP3    H254346   6.953   0.882   0.788  0.3028  0.4835  0.0389
10051TIP3   OH254347   0.969   3.766   1.269  0.0151  0.1700  0.5646
10051TIP3    H154348   0.932   3.813   1.343  0.2437  0.9096  0.2202
10051TIP3    H254349   1.019   3.832   1.221 -2.5247  0.4493 -1.9227
10052TIP3   OH254350   5.048   2.372   1.050 -0.1549  0.7144 -0.0437
10052TIP3    H154351   4.957   2.368   1.018  0.2311 -3.0410 -1.1308
10052TIP3    H254352   5.092   2.432   0.990 -1.5437  1.3956 -0.4333
10053TIP3   OH254353   0.011   7.576   2.372  0.2089 -0.3524  0.0093
10053TIP3    H154354  -0.077   7.581   2.334  0.0079 -1.1659  0.3453
10053TIP3    H254355   0.069   7.600   2.300 -0.2989  0.4591 -0.1433
10054TIP3   OH254356   2.153   2.022   2.359 -0.3554  0.0927  0.7293
10054TIP3    H154357   2.169   1.984   2.273 -0.0804 -0.7002  1.1205
10054TIP3    H254358   2.085   2.088   2.344  0.0177  0.2880 -0.1692
10055TIP3   OH254359   5.757   3.294   2.876  0.4854 -0.7290 -0.5992
10055TIP3    H154360   5.718   3.228   2.934  2.2640  0.4520  2.1567
10055TIP3    H254361   5.732   3.378   2.915 -0.1784  0.2431 -2.9580
10056TIP3   OH254362   6.854   5.429   1.794 -0.2266  0.4738 -0.1725
10056TIP3    H154363   6.794   5.500   1.771 -1.1685  0.1311  1.1411
10056TIP3    H254364   6.833   5.408   1.885  1.7941  0.2284  0.2811
10057TIP3   OH254365   3.034   5.886   1.235  0.1983  0.6507 -0.7604
10057TIP3    H154366   3.116   5.935   1.243 -0.1894  1.6461 -2.4530
10057TIP3    H254367   3.044   5.813   1.296  1.5433  1.8135  0.4947
10058TIP3   OH254368   5.132   4.700   2.994  0.2228 -0.4504  0.3816
10058TIP3    H154369   5.216   4.736   2.967  0.0588 -0.7609 -0.6033
10058TIP3    H254370   5.081   4.775   3.023  0.7826 -0.2402  0.8180
10059TIP3   OH254371   3.017   1.495   0.946  0.9453 -0.1728  0.1360
10059TIP3    H154372   3.027   1.401   0.958 -0.3740 -0.3143  0.2836
10059TIP3    H254373   2.975   1.526   1.026  0.0302  0.2929 -0.5027
10060TIP3   OH254374   7.291   3.918   3.074  0.6808 -0.0432  0.4558
10060TIP3    H154375   7.291   3.823   3.067 -3.1008 -0.1319 -1.8781
10060TIP3    H254376   7.371   3.940   3.122  1.2497 -4.3848  1.9138
10061TIP3   OH254377   2.326   0.557   1.895 -0.2543  0.5038 -0.3995
10061TIP3    H154378   2.367   0.506   1.964 -1.0578 -0.6486 -0.7528
10061TIP3    H254379   2.343   0.648   1.919 -0.9729  0.1507  1.6055
10062TIP3   OH254380   3.591   3.213   1.111 -0.2692 -0.2497 -0.3373
10062TIP3    H154381   3.524   3.272   1.146  0.4869 -0.1718  1.0304
10062TIP3    H254382   3.545   3.129   1.102 -0.5416 -0.2374  0.7477
10063TIP3   OH254383   0.185   2.149   1.647 -0.1557 -0.2100 -0.4934
10063TIP3    H154384   0.272   2.127   1.681  0.0118 -0.2879 -0.9580
10063TIP3    H254385   0.133   2.170   1.725 -0.4771 -2.7247  0.0623
10064TIP3   OH254386   6.499   5.883   2.441 -0.4311 -0.0365 -0.0409
10064TIP3    H154387   6.577   5.906   2.491 -0.8661  1.2115  0.0915
10064TIP3    H254388   6.473   5.798   2.477  0.3025 -0.0149  0.5850
10065TIP3   OH254389   5.737   7.044   1.192  0.5800  0.1369  0.0256
10065TIP3    H154390   5.785   7.026   1.111  0.0480  2.2122 -0.8173
10065TIP3    H254391   5.648   7.063   1.163 -0.0414 -0.7936  1.2857
10066TIP3   OH254392   6.371   7.658   1.640  0.2732  0.3335 -0.2744
10066TIP3    H154393   6.410   7.680   1.555  0.7882  0.3283 -0.0470
10066TIP3    H254394   6.444   7.664   1.702 -0.1552  0.6219  0.2161
10067TIP3   OH254395   6.458   2.301   1.668 -0.3938 -0.6761  1.0200
10067TIP3    H154396   6.475   2.245   1.744 -0.8009 -1.2307  0.7084
10067TIP3    H254397   6.363   2.313   1.668 -0.5589 -1.7990 -0.1707
10068TIP3   OH254398   7.190   5.301   1.666  0.4979  0.1681  0.7119
10068TIP3    H154399   7.195   5.208   1.687  0.2410  0.2013  0.9271
10068TIP3    H254400   7.220   5.307   1.575  0.7731 -0.0880  0.7842
10069TIP3   OH254401   2.525   2.543   2.689  0.1694 -0.3503 -0.3184
10069TIP3    H154402   2.507   2.577   2.776 -0.6904 -0.9638 -0.2403
10069TIP3    H254403   2.531   2.448   2.701  3.2362 -0.2747 -0.4063
10070TIP3   OH254404   2.769   4.649   1.815 -0.0084 -0.0771  0.6882
10070TIP3    H154405   2.813   4.722   1.859 -0.8455  0.1550  1.1580
10070TIP3    H254406   2.700   4.622   1.876  0.8492 -1.8635  0.9295
10071TIP3   OH254407   7.657   7.389   0.834  0.2902  0.0746  0.0308
10071TIP3    H154408   7.590   7.384   0.902  0.9762 -1.2477  0.6552
10071TIP3    H254409   7.732   7.431   0.877 -0.1721  1.7374 -0.7231
10072TIP3   OH254410   6.860   6.695   0.628  0.5385 -0.3125  0.2676
10072TIP3    H154411   6.930   6.742   0.673  1.2218  1.1245 -2.0990
10072TIP3    H254412   6.905   6.640   0.564 -0.4450  0.6699 -1.3224
10073TIP3   OH254413   0.853   0.163   1.716 -0.5179 -0.3282  0.2515
10073TIP3    H154414   0.813   0.171   1.802 -1.9399  1.0867 -0.5043
10073TIP3    H254415   0.911   0.087   1.724 -0.5452 -0.1844  2.4578
10074TIP3   OH254416   3.681   3.835   2.227 -0.2862  0.0631 -0.3285
10074TIP3    H154417   3.768   3.797   2.216 -0.9518 -1.3488 -0.8899
10074TIP3    H254418   3.626   3.788   2.166 -1.5635  0.5829  0.3843
10075TIP3   OH254419   6.102   2.450   2.609  0.4191 -0.4994 -0.1767
10075TIP3    H154420   6.122   2.453   2.703  0.8184  0.0383 -0.2709
10075TIP3    H254421   6.021   2.401   2.603 -0.2469  0.4758  0.5570
10076TIP3   OH254422   3.735   4.100   1.911 -0.1239  0.4735 -0.3239
10076TIP3    H154423   3.666   4.051   1.866  0.2938 -0.3230 -0.1036
10076TIP3    H254424   3.711   4.192   1.898 -1.1962  0.2087 -0.2994
10077TIP3   OH254425   2.417   6.176   0.533 -0.7046 -0.4312 -0.0128
10077TIP3    H154426   2.510   6.199   0.535 -0.8980  0.5578 -1.0377
10077TIP3    H254427   2.394   6.159   0.624  1.4393 -4.9186 -0.0560
10078TIP3   OH254428   0.465   6.771   1.784  0.2708 -0.1180 -0.1990
10078TIP3    H154429   0.399   6.839   1.794  0.8042  0.3136  0.4398
10078TIP3    H254430   0.453   6.740   1.694  0.8899  1.7345 -0.9683
10079TIP3   OH254431   1.275   5.344   1.701  0.2596  0.1720 -0.2780
10079TIP3    H154432   1.229   5.275   1.748  0.7075  0.5170  0.7102
10079TIP3    H254433   1.224   5.423   1.717  0.3411  0.2693 -0.4887
10080TIP3   OH254434   6.666   4.611   1.803  0.5931 -0.2404 -0.3196
10080TIP3    H154435   6.670   4.644   1.713 -2.4766  0.8719 -0.1446
10080TIP3    H254436   6.692   4.685   1.857 -0.4850  0.0616 -0.1939
10081TIP3   OH254437   7.005   0.987   2.490  0.6686  0.0888  0.4343
10081TIP3    H154438   6.927   0.995   2.544  0.4457 -0.3597  0.1803
10081TIP3    H254439   6.974   0.994   2.400  1.0523  0.9425  0.3590
10082TIP3   OH254440   1.480   0.450   1.200 -0.6092 -0.1503 -0.5469
10082TIP3    H154441   1.401   0.459   1.148 -0.4122 -2.1314 -1.2840
10082TIP3    H254442   1.549   0.429   1.137 -0.1455 -1.5172  0.3507
10083TIP3   OH254443   5.427   3.001   1.032 -0.3535  0.8244  0.0250
10083TIP3    H154444   5.446   3.013   0.939  0.4179  1.6380  0.2740
10083TIP3    H254445   5.399   3.088   1.063 -0.5816  0.5695  0.5537
10084TIP3   OH254446   4.440   1.889   0.977  0.0151 -0.2207 -0.2426
10084TIP3    H154447   4.393   1.878   0.894  0.6366  0.5667 -0.7138
10084TIP3    H254448   4.452   1.799   1.009  0.0199 -0.5628 -1.1469
10085TIP3   OH254449   6.637   6.445   3.028  0.3429 -0.3641  0.3847
10085TIP3    H154450   6.653   6.412   2.940 -2.6427  0.5380 -0.6191
10085TIP3    H254451   6.704   6.511   3.041  0.6136 -0.2315 -1.3891
10086TIP3   OH254452   5.769   6.608   0.531 -0.3831  0.0914  0.2825
10086TIP3    H154453   5.772   6.513   0.533  0.2954  0.0196 -1.6057
10086TIP3    H254454   5.686   6.631   0.573 -0.9548 -1.3870  0.0109
10087TIP3   OH254455   6.187   6.095   1.992 -0.0509  0.3218  0.1984
10087TIP3    H154456   6.229   6.063   1.912 -0.4590  0.3470 -0.0327
10087TIP3    H254457   6.258   6.134   2.043  0.6685 -1.8631  0.9770
10088TIP3   OH254458   0.373   1.487   1.176  0.2268 -0.1007  0.0351
10088TIP3    H154459   0.285   1.524   1.161  0.3182  0.1883  0.1866
10088TIP3    H254460   0.409   1.475   1.088  0.1536  0.0784 -0.0222
10089TIP3   OH254461   5.782   5.152   2.088  0.2102 -0.2658 -0.4035
10089TIP3    H154462   5.878   5.156   2.084  0.2546 -0.0686  0.5912
10089TIP3    H254463   5.763   5.120   2.177 -0.6443 -0.2405 -0.5690
10090TIP3   OH254464   1.491   0.852   1.627  0.2831 -0.0658  0.6732
10090TIP3    H154465   1.500   0.824   1.536  0.0008 -0.5973  0.7993
10090TIP3    H254466   1.451   0.939   1.622 -0.1202 -0.2676  0.3004
10091TIP3   OH254467   7.548   2.086   0.981  0.2730 -0.0542 -0.6923
10091TIP3    H154468   7.609   2.078   1.055 -1.1601 -0.7251  0.4773
10091TIP3    H254469   7.596   2.048   0.907  1.5423  0.1132  0.0096
10092TIP3   OH254470   5.650   4.239   3.199 -0.1627  0.0862 -0.0623
10092TIP3    H154471   5.714   4.236   3.271 -2.1591 -0.5660  1.7973
10092TIP3    H254472   5.635   4.332   3.184  2.0957  0.3027 -1.4376
10093TIP3   OH254473   1.730   0.539   0.663 -0.4426 -0.0561 -0.2910
10093TIP3    H154474   1.730   0.629   0.629  1.3424  0.0446 -0.1282
10093TIP3    H254475   1.744   0.550   0.757 -1.6189 -0.4717 -0.0563
10094TIP3   OH254476   7.263   6.543   2.051 -0.6000  0.4307  0.3335
10094TIP3    H154477   7.182   6.510   2.090 -2.3041  0.9382 -2.5193
10094TIP3    H254478   7.250   6.638   2.047 -0.4952  0.4000 -1.3517
10095TIP3   OH254479   1.524   5.453   1.269 -0.0493 -0.2365 -1.4105
10095TIP3    H154480   1.464   5.480   1.199 -1.1041 -0.8956 -0.7950
10095TIP3    H254481   1.481   5.378   1.310  1.2376 -0.7600 -0.9701
10096TIP3   OH254482   3.889   2.290   2.738 -0.0687  0.1436  0.0318
10096TIP3    H154483   3.936   2.207   2.727  0.0820  0.4883 -2.3392
10096TIP3    H254484   3.797   2.265   2.747 -0.4209 -0.2893 -3.4378
10097TIP3   OH254485   5.505   5.998   2.823  0.0367 -0.1327  0.2055
10097TIP3    H154486   5.548   5.920   2.858  0.1868 -0.1509 -0.0188
10097TIP3    H254487   5.456   6.034   2.897 -0.2981 -0.6241  0.2243
10098TIP3   OH254488   5.201   1.214   2.420 -0.0777  0.3316  0.2898
10098TIP3    H154489   5.193   1.272   2.496 -1.1885  0.1352  0.3421
10098TIP3    H254490   5.179   1.269   2.345 -1.3550 -0.0522  0.3616
10099TIP3   OH254491   3.202   5.825   1.594  0.7149 -0.3130 -0.5419
10099TIP3    H154492   3.290   5.812   1.561  1.9063 -0.4308  2.3606
10099TIP3    H254493   3.203   5.784   1.681 -1.6749  1.1910  0.2887
10100TIP3   OH254494   4.358   2.154   2.391 -0.4269  0.5317 -0.0878
10100TIP3    H154495   4.386   2.234   2.348 -0.2049  0.0064 -0.9463
10100TIP3    H254496   4.287   2.181   2.450  0.6495  1.5989  0.7785
10101TIP3   OH254497   3.153   7.577   1.276  0.1172  0.5370  0.3528
10101TIP3    H154498   3.065   7.539   1.283  0.1385  0.8196  3.3052
10101TIP3    H254499   3.196   7.525   1.208 -1.9113 -0.4429 -0.2541
10102TIP3   OH254500   6.127   0.240   0.466 -0.3115  0.1357 -0.2505
10102TIP3    H154501   6.060   0.173   0.479 -0.4933  0.2382 -0.6794
10102TIP3    H254502   6.210   0.193   0.478 -0.4526  0.0942  0.6911
10103TIP3   OH254503   4.671   0.405   1.104  0.8434 -0.3034 -0.3181
10103TIP3    H154504   4.691   0.331   1.161  1.1576 -1.2746 -1.6491
10103TIP3    H254505   4.608   0.457   1.154  0.2915 -1.6821  0.4859
10104TIP3   OH254506   7.400   1.443   1.455 -0.3869 -0.1005 -0.1495
10104TIP3    H154507   7.428   1.405   1.538 -0.7086  0.2757  0.1341
10104TIP3    H254508   7.413   1.372   1.391  0.0230 -0.3340  0.1864
10105TIP3   OH254509   5.809   4.974   1.162  0.1242 -0.2263 -0.2944
10105TIP3    H154510   5.780   5.001   1.249  0.1821  1.2529 -0.6977
10105TIP3    H254511   5.898   4.941   1.174  0.2985  0.3934  0.1385
10106TIP3   OH254512   0.507   4.904   2.407 -0.2347  0.1102 -0.3131
10106TIP3    H154513   0.439   4.875   2.347  0.0446 -1.7780  0.2315
10106TIP3    H254514   0.460   4.928   2.487 -0.2820 -1.2234  0.0743
10107TIP3   OH254515   0.918   0.943   3.532  0.2629  0.0728  0.4385
10107TIP3    H154516   0.996   0.894   3.561 -0.1736 -0.2277  1.1333
10107TIP3    H254517   0.860   0.942   3.608  0.0811  1.3404  0.3347
10108TIP3   OH254518   7.305   5.650   0.855 -0.4492  0.4940  0.0329
10108TIP3    H154519   7.310   5.662   0.760 -0.9164  0.8042  0.0474
10108TIP3    H254520   7.245   5.576   0.867  1.5895 -1.2769 -0.0093
10109TIP3   OH254521   0.775   6.890   0.711  0.1578 -0.6074 -0.4043
10109TIP3    H154522   0.706   6.872   0.647 -0.9949  2.4541 -0.2061
10109TIP3    H254523   0.803   6.804   0.742 -2.1190 -2.0270 -2.0031
10110TIP3   OH254524   5.205   4.156   2.243  0.3953 -0.3779  0.2600
10110TIP3    H154525   5.267   4.188   2.178 -0.8731 -1.7392 -1.7389
10110TIP3    H254526   5.131   4.217   2.237 -0.6694 -1.7398 -1.2618
10111TIP3   OH254527   2.193   7.047   1.861 -0.7347 -0.4493 -0.0430
10111TIP3    H154528   2.167   6.989   1.932  0.3911 -1.6541 -0.5864
10111TIP3    H254529   2.278   7.082   1.887 -1.0855  0.4542 -0.0406
10112TIP3   OH254530   7.200   5.771   1.639  0.0895  0.3022 -0.2494
10112TIP3    H154531   7.218   5.698   1.698 -1.4734  0.9195  1.0683
10112TIP3    H254532   7.286   5.803   1.613  0.8014 -1.3308 -0.0375
10113TIP3   OH254533   0.570   1.872   1.554 -0.0630 -0.7764 -0.7005
10113TIP3    H154534   0.512   1.805   1.519 -1.9151  0.0934  0.5816
10113TIP3    H254535   0.658   1.835   1.542 -0.9916 -3.4754  0.0520
10114TIP3   OH254536   7.633   0.355   2.017  0.4989  0.8487  0.4087
10114TIP3    H154537   7.702   0.290   2.004  0.8785  0.6321  2.9979
10114TIP3    H254538   7.610   0.384   1.928  0.7782 -2.2994 -0.8270
10115TIP3   OH254539   7.114   2.190   1.830 -0.4199 -0.9736  0.8929
10115TIP3    H154540   7.128   2.263   1.769 -0.5778 -0.5859  1.3106
10115TIP3    H254541   7.201   2.150   1.838 -0.7384 -2.1535 -0.9590
10116TIP3   OH254542   4.874   1.768   2.595  0.0437  0.5468 -0.2107
10116TIP3    H154543   4.941   1.707   2.626  1.2437  1.3326 -1.1374
10116TIP3    H254544   4.792   1.718   2.600  0.6739 -0.4297  0.9989
10117TIP3   OH254545   2.949   1.538   2.126 -0.6386  0.1322 -0.5495
10117TIP3    H154546   2.929   1.621   2.084  3.3711  1.6543  0.1324
10117TIP3    H254547   2.925   1.551   2.218 -0.4938  0.3599 -0.5439
10118TIP3   OH254548   5.823   1.009   1.076 -0.3645  0.4473  0.0147
10118TIP3    H154549   5.840   1.048   1.162  0.9106 -3.2012  1.6178
10118TIP3    H254550   5.728   0.997   1.074 -0.3682  0.1539  1.1729
10119TIP3   OH254551   6.962   1.279   1.040 -0.2676  0.7461  0.0446
10119TIP3    H154552   6.879   1.233   1.035 -0.1339  0.5752 -0.7751
10119TIP3    H254553   7.028   1.210   1.047 -0.0106  0.7352 -1.9278
10120TIP3   OH254554   1.739   6.014   1.865 -0.1136  0.0421  0.3116
10120TIP3    H154555   1.680   6.023   1.790  0.1125 -1.2940 -0.0567
10120TIP3    H254556   1.681   6.008   1.941 -0.3781  0.4014  0.1433
10121TIP3   OH254557   0.825   3.650   0.791 -0.0585  0.0560 -0.1049
10121TIP3    H154558   0.762   3.715   0.760  1.2135  2.1078  1.4113
10121TIP3    H254559   0.890   3.700   0.839  2.6874 -1.9697 -1.4316
10122TIP3   OH254560   6.006   2.038   1.301 -0.3638  0.2287  0.3882
10122TIP3    H154561   6.053   1.966   1.344 -1.8730  0.0614  1.8667
10122TIP3    H254562   6.044   2.043   1.214 -0.4067 -2.5795  0.1203
10123TIP3   OH254563   2.529   4.466   2.235  0.0233 -0.1605 -0.3283
10123TIP3    H154564   2.610   4.468   2.287  0.3189  0.6926 -0.8016
10123TIP3    H254565   2.487   4.551   2.253 -1.3151 -1.0084  0.7368
10124TIP3   OH254566   1.099   1.150   2.258  0.3403  0.3564  0.5618
10124TIP3    H154567   1.157   1.109   2.322  0.1098 -0.5972  0.1831
10124TIP3    H254568   1.065   1.077   2.207 -1.8448  0.7744  1.3066
10125TIP3   OH254569   4.837   4.686   2.453  0.0851  0.4637 -0.4684
10125TIP3    H154570   4.932   4.687   2.455  0.1426 -1.2775  1.1814
10125TIP3    H254571   4.811   4.763   2.504  0.6192  0.5227 -0.2809
10126TIP3   OH254572   6.538   1.236   1.399  0.2624  1.1971  0.0710
10126TIP3    H154573   6.543   1.143   1.416 -1.1216  1.1015  0.1325
10126TIP3    H254574   6.623   1.259   1.361  0.0177 -0.4488 -1.6119
10127TIP3   OH254575   0.752   3.439   1.760 -0.3725  0.3311 -0.1034
10127TIP3    H154576   0.714   3.499   1.824 -3.1079 -1.2505 -0.1020
10127TIP3    H254577   0.703   3.455   1.679 -0.5725 -1.2365 -0.3352
10128TIP3   OH254578   5.419   5.134   0.883 -0.0297 -0.3864 -0.2368
10128TIP3    H154579   5.513   5.124   0.899 -0.3176 -0.4629  1.6714
10128TIP3    H254580   5.396   5.058   0.829  1.3722  0.8785 -2.8016
10129TIP3   OH254581   1.798   3.649   3.145 -0.0980  0.2766 -0.7569
10129TIP3    H154582   1.888   3.664   3.173 -0.0795  0.0091 -0.6695
10129TIP3    H254583   1.751   3.728   3.173 -0.2595 -0.3553  0.8453
10130TIP3   OH254584   1.647   4.162   0.907  0.3733 -0.5158  0.2826
10130TIP3    H154585   1.686   4.241   0.871  1.6413  0.1000  2.7745
10130TIP3    H254586   1.553   4.178   0.907  0.6465  1.3041  1.3365
10131TIP3   OH254587   0.406   7.503   2.332  0.3544 -0.8127 -0.8409
10131TIP3    H154588   0.384   7.475   2.421  0.0832  0.7320 -0.3952
10131TIP3    H254589   0.502   7.501   2.329  0.3921 -0.2304 -0.2738
10132TIP3   OH254590   6.689   4.387   0.914  0.2521  0.1561 -0.6818
10132TIP3    H154591   6.627   4.381   0.841 -0.3504 -1.1418 -0.0999
10132TIP3    H254592   6.636   4.421   0.987  0.4615 -0.0697 -0.4247
10133TIP3   OH254593   3.423   1.273   1.232  0.1393 -0.1435  0.2038
10133TIP3    H154594   3.425   1.366   1.209  1.0183 -0.4235 -0.9816
10133TIP3    H254595   3.331   1.248   1.224 -0.4389  1.0363  2.4591
10134TIP3   OH254596   6.866   6.113   3.222 -0.1882 -0.2184  0.0072
10134TIP3    H154597   6.812   6.079   3.150 -1.3966 -2.9652  2.0144
10134TIP3    H254598   6.873   6.206   3.204 -0.7276 -0.6798 -3.4354
10135TIP3   OH254599   4.572   3.044   2.553  0.1696 -0.1787  0.8782
10135TIP3    H154600   4.580   2.951   2.574  0.6485 -0.1420  0.8664
10135TIP3    H254601   4.553   3.086   2.637 -0.0112 -0.2826  0.8898
10136TIP3   OH254602   4.969   4.849   2.033 -0.5262 -0.2855  0.6386
10136TIP3    H154603   4.931   4.894   2.109 -1.0112 -0.3593  0.4443
10136TIP3    H254604   4.904   4.784   2.008 -0.7106  0.2345 -0.2998
10137TIP3   OH254605   6.547   7.607   0.468 -0.2106 -0.4167  0.3129
10137TIP3    H154606   6.583   7.525   0.435 -0.5830  0.2129 -1.7947
10137TIP3    H254607   6.621   7.667   0.471 -0.6578  0.3902 -2.4057
10138TIP3   OH254608   0.362   5.716   0.659 -0.0179 -0.3066  0.1492
10138TIP3    H154609   0.346   5.808   0.638  0.7811  0.5625  2.8610
10138TIP3    H254610   0.278   5.685   0.694 -0.2939 -0.6555 -0.7870
10139TIP3   OH254611   7.174   5.995   1.037  0.2939  0.1048  0.3028
10139TIP3    H154612   7.102   5.936   1.012  0.5190  0.0990 -0.3444
10139TIP3    H254613   7.166   6.069   0.978  0.6631  0.2245  0.4013
10140TIP3   OH254614   0.283   1.278   1.706 -1.0031 -0.4524  0.2191
10140TIP3    H154615   0.352   1.328   1.662  1.9934 -3.5379  0.9892
10140TIP3    H254616   0.293   1.300   1.798  0.0755 -2.0540  0.5137
10141TIP3   OH254617   0.613   6.584   3.100 -0.0653  0.0405  0.2925
10141TIP3    H154618   0.657   6.573   3.184  1.7272 -2.4473 -0.8275
10141TIP3    H254619   0.613   6.497   3.061 -1.9622  0.8592 -1.7927
10142TIP3   OH254620   5.188   4.809   2.646 -0.0286  0.1790  0.1129
10142TIP3    H154621   5.174   4.752   2.570 -0.9733 -0.1996  0.5518
10142TIP3    H254622   5.247   4.759   2.702 -0.6062 -0.2501  0.3530
10143TIP3   OH254623   7.131   7.670   2.357 -0.2039 -0.6075 -0.9584
10143TIP3    H154624   7.143   7.742   2.295 -0.3651  0.2209 -0.0503
10143TIP3    H254625   7.220   7.648   2.385 -0.2133 -0.0380 -0.4498
10144TIP3   OH254626   7.332   2.732   1.961  0.3954 -0.0355 -0.0206
10144TIP3    H154627   7.343   2.717   1.868 -2.6827 -3.2660 -0.0906
10144TIP3    H254628   7.415   2.705   2.000  0.8398 -1.2228 -1.6762
10145TIP3   OH254629   3.777   3.373   1.226 -0.1237  0.0715  0.0591
10145TIP3    H154630   3.796   3.330   1.310 -0.1877 -0.8435 -0.3834
10145TIP3    H254631   3.712   3.316   1.185 -0.8121  1.0187 -0.2058
10146TIP3   OH254632   3.488   1.543   1.149 -0.0163  0.4799  0.3363
10146TIP3    H154633   3.430   1.562   1.223 -1.3162  1.5922 -0.9224
10146TIP3    H254634   3.511   1.629   1.114  1.0222 -0.0113 -0.2368
10147TIP3   OH254635   5.583   6.585   1.888  0.3371 -0.2421 -0.6625
10147TIP3    H154636   5.662   6.542   1.919  0.1519 -1.7758 -2.2106
10147TIP3    H254637   5.574   6.558   1.797  0.6262  3.7030 -2.0778
10148TIP3   OH254638   7.172   4.211   0.654  1.0062  0.5097  0.3828
10148TIP3    H154639   7.117   4.269   0.707 -1.5347 -1.2140 -0.1458
10148TIP3    H254640   7.261   4.228   0.684  0.1247  2.7847  2.0162
10149TIP3   OH254641   2.189   2.103   2.940 -0.2670  0.5556 -0.5022
10149TIP3    H154642   2.236   2.184   2.920  0.6039 -0.0731 -1.0850
10149TIP3    H254643   2.224   2.039   2.878 -2.1387  0.1279 -1.1755
10150TIP3   OH254644   4.528   2.530   0.735  0.0679 -0.1492 -0.1665
10150TIP3    H154645   4.465   2.462   0.758 -0.9389  0.8860  0.2605
10150TIP3    H254646   4.475   2.608   0.720  1.3068  1.1447  1.6490
10151TIP3   OH254647   1.298   6.317   0.352  0.8906  0.1360  0.3193
10151TIP3    H154648   1.261   6.366   0.278  2.2794  2.0306  0.7886
10151TIP3    H254649   1.248   6.346   0.428  0.4249 -0.7089  0.3482
10152TIP3   OH254650   5.083   7.518   2.853 -0.1226  0.6053 -0.4145
10152TIP3    H154651   5.163   7.548   2.809  0.6946  0.8157  1.1196
10152TIP3    H254652   5.090   7.554   2.942 -0.0435 -2.4278  0.9370
10153TIP3   OH254653   2.602   7.010   0.448  0.3206 -0.8581 -0.1980
10153TIP3    H154654   2.532   7.060   0.492 -0.1667  0.9368 -2.7989
10153TIP3    H254655   2.673   7.074   0.437  1.8557 -2.2609  1.0751
10154TIP3   OH254656   5.232   7.037   3.237 -0.0507  0.5530 -0.0189
10154TIP3    H154657   5.154   7.019   3.290  0.8380 -1.4252  0.7533
10154TIP3    H254658   5.252   7.129   3.254 -1.6496  0.8461  0.5088
10155TIP3   OH254659   3.705   5.583   0.568 -0.0252  0.1438 -0.0813
10155TIP3    H154660   3.710   5.597   0.473  1.1749 -2.2368 -0.4386
10155TIP3    H254661   3.791   5.607   0.601 -0.2646  0.4459  0.3371
10156TIP3   OH254662   6.989   6.826   2.126 -0.3289  0.2938 -0.5226
10156TIP3    H154663   7.015   6.859   2.211 -3.4809  1.2503  0.2138
10156TIP3    H254664   7.010   6.732   2.128  0.1604  0.4188  1.0826
10157TIP3   OH254665   3.714   6.764   1.973  0.3896  0.3966 -0.0627
10157TIP3    H154666   3.624   6.764   2.006  0.3925 -2.6992  0.2438
10157TIP3    H254667   3.705   6.744   1.880  0.7502  1.3854 -0.3250
10158TIP3   OH254668   4.012   3.998   2.777  0.6164 -0.3700 -0.4511
10158TIP3    H154669   4.078   3.945   2.732  0.9934 -2.3244  2.1941
10158TIP3    H254670   3.979   3.942   2.847 -1.4169  1.7772  0.4655
10159TIP3   OH254671   0.253   1.852   2.257  0.2158  0.1380 -0.1987
10159TIP3    H154672   0.285   1.765   2.235 -0.7464 -0.7636  1.6767
10159TIP3    H254673   0.298   1.911   2.196  1.6575 -1.5447 -0.8440
10160TIP3   OH254674   2.861   2.992   2.927  0.2370  0.2227  0.2186
10160TIP3    H154675   2.835   3.082   2.948  1.8749  0.6790  0.3963
10160TIP3    H254676   2.856   2.945   3.010 -2.9907 -0.5503 -0.2636
10161TIP3   OH254677   6.437   6.208   2.074  0.5221 -0.3612  0.3759
10161TIP3    H154678   6.521   6.180   2.036  0.9640 -0.6498  1.5174
10161TIP3    H254679   6.439   6.303   2.069 -0.0933 -0.4182 -1.6705
10162TIP3   OH254680   7.378   7.597   1.193  0.2214  0.2274  0.3167
10162TIP3    H154681   7.381   7.679   1.143  1.6674  0.1612  0.2467
10162TIP3    H254682   7.406   7.622   1.281 -0.5504  0.0135  0.6316
10163TIP3   OH254683   3.376   6.033   2.167 -0.2137  0.1988  0.4040
10163TIP3    H154684   3.400   6.062   2.255 -0.4158  0.3747  0.4038
10163TIP3    H254685   3.453   6.052   2.114 -0.5441  1.3023  0.2845
10164TIP3   OH254686   0.101   6.060   2.573  0.3798  0.1945 -0.1816
10164TIP3    H154687   0.108   5.980   2.625  1.2887 -0.1999 -0.8766
10164TIP3    H254688   0.073   6.030   2.486  1.2298  0.5669 -0.5919
10165TIP3   OH254689   4.301   6.832   2.259  0.0811 -0.6902 -0.4627
10165TIP3    H154690   4.248   6.883   2.197  1.4031 -0.2813 -1.2910
10165TIP3    H254691   4.236   6.792   2.317 -1.0609  1.4063 -0.1625
10166TIP3   OH254692   0.052   4.195   0.847  0.3705  0.7909 -0.0480
10166TIP3    H154693  -0.036   4.159   0.859  0.8396 -0.6660 -0.6794
10166TIP3    H254694   0.106   4.150   0.912  1.1938 -0.5857 -1.5942
10167TIP3   OH254695   1.218   0.251   0.826 -0.1712  0.1300 -0.2198
10167TIP3    H154696   1.308   0.272   0.851  0.3677 -1.1852 -0.9322
10167TIP3    H254697   1.164   0.293   0.893  0.9537  1.1165  0.0992
10168TIP3   OH254698   6.340   1.212   1.041 -0.3136  0.3016  0.2653
10168TIP3    H154699   6.350   1.170   1.126  3.2682  0.1978 -0.0369
10168TIP3    H254700   6.317   1.140   0.982  0.7184 -0.3309  0.6019
10169TIP3   OH254701   5.367   3.887   1.640 -0.4490  0.1993 -0.4429
10169TIP3    H154702   5.339   3.978   1.650 -0.7505 -0.0976  1.8762
10169TIP3    H254703   5.309   3.837   1.697 -0.7225 -1.5711 -2.1665
10170TIP3   OH254704   4.065   4.525   3.021 -0.1445  0.5933  0.6621
10170TIP3    H154705   4.089   4.454   3.081  1.1800 -0.5054 -1.0958
10170TIP3    H254706   4.099   4.604   3.063  3.3053 -0.4545  0.1514
10171TIP3   OH254707   0.318   2.411   0.846  0.3676 -0.6427  0.3518
10171TIP3    H154708   0.309   2.323   0.807  0.7677 -0.7678  0.5329
10171TIP3    H254709   0.380   2.456   0.788  0.5448 -0.6465  0.5382
10172TIP3   OH254710   1.507   6.931   1.836  0.0042  0.3609  0.0532
10172TIP3    H154711   1.462   6.963   1.757 -0.2351  2.8283  1.1040
10172TIP3    H254712   1.596   6.965   1.828 -0.3369  1.6496  1.3596
10173TIP3   OH254713   5.141   7.068   1.857  0.3262  0.0595 -0.3077
10173TIP3    H154714   5.217   7.118   1.826 -0.3951  1.2658 -0.1893
10173TIP3    H254715   5.092   7.130   1.910 -0.1067 -1.0685  0.6507
10174TIP3   OH254716   0.302   4.483   2.139  0.2753  0.1865  0.7538
10174TIP3    H154717   0.377   4.489   2.198  2.2906  0.3220 -1.6268
10174TIP3    H254718   0.281   4.389   2.138  1.4414 -0.0938  0.3223
10175TIP3   OH254719   7.665   0.011   1.751 -0.1721 -0.3491  0.1610
10175TIP3    H154720   7.680  -0.080   1.774  2.5885  0.3380  1.5001
10175TIP3    H254721   7.597   0.040   1.811 -1.7227 -1.6749 -0.8635
10176TIP3   OH254722   6.689   3.336   2.735  0.1229 -0.2849  0.1774
10176TIP3    H154723   6.744   3.387   2.676 -0.7667  0.6187  0.1032
10176TIP3    H254724   6.613   3.311   2.682 -0.8410  0.8146  0.9995
10177TIP3   OH254725   4.013   3.277   1.402 -0.0081 -0.2394  0.2993
10177TIP3    H154726   4.100   3.309   1.425  0.3519  0.2757 -1.6222
10177TIP3    H254727   4.027   3.224   1.323 -0.9182 -3.3162  2.0268
10178TIP3   OH254728   3.180   0.039   2.439 -0.4899 -0.4483 -0.2851
10178TIP3    H154729   3.173   0.082   2.524 -0.3003 -0.3590 -0.3129
10178TIP3    H254730   3.274   0.042   2.419 -0.5624 -0.2611 -0.6043
10179TIP3   OH254731   5.779   7.630   2.880 -0.0528  0.0280 -0.2488
10179TIP3    H154732   5.715   7.685   2.927  0.4205  0.6155 -0.2839
10179TIP3    H254733   5.736   7.610   2.797 -0.6373 -0.4876  0.1710
10180TIP3   OH254734   6.788   7.072   0.822  0.0144  0.5332 -0.5185
10180TIP3    H154735   6.765   6.979   0.813 -1.6852  0.8408  0.2621
10180TIP3    H254736   6.870   7.071   0.872  0.6455 -0.5623 -1.5112
10181TIP3   OH254737   6.784   3.041   2.144 -0.2682  0.0554 -0.3236
10181TIP3    H154738   6.863   3.093   2.156 -0.6518  0.5248  0.2998
10181TIP3    H254739   6.731   3.061   2.222 -1.0921 -0.0698 -0.8380
10182TIP3   OH254740   3.808   1.180   1.053  0.1158 -0.1738 -0.2700
10182TIP3    H154741   3.866   1.185   0.977  0.6954 -0.8373  0.1164
10182TIP3    H254742   3.763   1.265   1.055  0.3551 -0.0243 -1.1421
10183TIP3   OH254743   2.736   6.467   1.692 -0.4356 -0.8543 -0.1130
10183TIP3    H154744   2.644   6.491   1.704 -0.5482 -1.1128 -0.4406
10183TIP3    H254745   2.768   6.450   1.780 -0.1611  1.1567  0.2314
10184TIP3   OH254746   0.758   1.357   2.711 -0.4218 -0.5115  0.1870
10184TIP3    H154747   0.678   1.315   2.681  0.5528 -2.1509 -0.2058
10184TIP3    H254748   0.820   1.346   2.639 -0.0671  1.5492  0.1057
10185TIP3   OH254749   6.412   1.116   2.677 -0.1632 -0.4858 -0.2722
10185TIP3    H154750   6.472   1.182   2.640  1.3645 -1.1762  0.8400
10185TIP3    H254751   6.332   1.125   2.626  1.1253 -0.0019 -2.3377
10186TIP3   OH254752   0.194   3.677   1.291  0.2130 -0.4258 -0.0675
10186TIP3    H154753   0.222   3.733   1.219 -0.8720  2.7471  1.7787
10186TIP3    H254754   0.273   3.660   1.341  0.7026 -1.3682 -1.1169
10187TIP3   OH254755   5.924   6.455   2.536 -0.1481 -0.5692 -0.4125
10187TIP3    H154756   5.850   6.497   2.578 -0.1117  1.8481 -2.5227
10187TIP3    H254757   5.993   6.454   2.602 -1.2908 -0.6878  0.8209
10188TIP3   OH254758   1.628   3.924   0.810 -0.1312  0.5237 -0.0710
10188TIP3    H154759   1.708   3.883   0.842 -0.6964 -0.6574 -0.1158
10188TIP3    H254760   1.644   4.018   0.817  0.9247  0.2948  0.7342
10189TIP3   OH254761   6.663   3.729   3.191 -0.2761 -0.1359 -0.3243
10189TIP3    H154762   6.612   3.802   3.225 -0.5495  0.1305 -1.2610
10189TIP3    H254763   6.603   3.684   3.131 -0.2156 -1.3241  0.4720
10190TIP3   OH254764   6.678   2.190   2.633  0.4347 -0.2324 -0.0478
10190TIP3    H154765   6.603   2.212   2.689 -0.1566 -1.7615 -0.1980
10190TIP3    H254766   6.753   2.230   2.677 -0.5302  2.0732 -0.3384
10191TIP3   OH254767   4.503   7.342   1.531 -0.4612 -0.0552  0.1551
10191TIP3    H154768   4.434   7.351   1.597 -0.2810  0.8088  0.2363
10191TIP3    H254769   4.531   7.251   1.539  0.2301  0.2685  1.9736
10192TIP3   OH254770   6.591   3.761   0.822  0.6271  0.4963 -0.4763
10192TIP3    H154771   6.586   3.666   0.812  0.1123  0.3576  0.8700
10192TIP3    H254772   6.654   3.775   0.893  1.0548  1.1976 -0.9698
10193TIP3   OH254773   6.791   3.131   1.683 -0.4670  0.3911  0.0788
10193TIP3    H154774   6.750   3.148   1.768  1.7767 -2.4508  1.9307
10193TIP3    H254775   6.774   3.038   1.667 -0.4376  0.7585 -2.4223
10194TIP3   OH254776   7.540   2.971   1.235  0.4338 -0.1002  0.5143
10194TIP3    H154777   7.581   3.046   1.192 -0.1240  1.3291  2.3335
10194TIP3    H254778   7.572   2.895   1.187  2.4947  1.1684 -0.2515
10195TIP3   OH254779   7.306   2.077   0.479 -0.2907  0.1475  0.6013
10195TIP3    H154780   7.236   2.013   0.467 -0.3575  0.3134  0.0640
10195TIP3    H254781   7.262   2.161   0.478 -0.0827  0.2558  0.2072
10196TIP3   OH254782   1.305   7.353   1.388  0.0720  0.0634 -0.0247
10196TIP3    H154783   1.370   7.313   1.445  0.2469  2.2567  1.4288
10196TIP3    H254784   1.233   7.290   1.385  0.9322 -1.0099  0.9033
10197TIP3   OH254785   2.166   7.505   2.589 -0.4646 -0.0802 -0.1387
10197TIP3    H154786   2.204   7.486   2.675 -0.2705 -0.7737 -0.3714
10197TIP3    H254787   2.188   7.429   2.535  0.2559  0.7624 -1.0885
10198TIP3   OH254788   0.792   5.485   2.581  0.5036  0.6957  0.0480
10198TIP3    H154789   0.741   5.546   2.636  1.7427  1.9107 -0.0955
10198TIP3    H254790   0.827   5.421   2.643  0.0888  0.7629  0.3584
10199TIP3   OH254791   5.486   1.203   0.522 -0.8825 -0.1678  0.3327
10199TIP3    H154792   5.401   1.158   0.522 -2.0182  1.7303 -2.2306
10199TIP3    H254793   5.476   1.271   0.589 -2.3917  1.5587 -1.5126
10200TIP3   OH254794   4.385   4.815   1.956  0.4329 -0.7932  0.2565
10200TIP3    H154795   4.400   4.812   2.051  1.5408  0.3650  0.1460
10200TIP3    H254796   4.410   4.728   1.925  1.1099 -0.8324  0.8925
10201TIP3   OH254797   4.004   0.049   1.422  0.2145 -0.9598 -0.2491
10201TIP3    H154798   4.022  -0.004   1.344  0.6249 -0.0801 -0.7578
10201TIP3    H254799   3.944   0.117   1.392  1.4058  0.1834 -0.1312
10202TIP3   OH254800   7.676   0.012   0.673 -0.0486  0.4481  0.1014
10202TIP3    H154801   7.583  -0.006   0.686 -0.2599  1.2792 -0.2044
10202TIP3    H254802   7.717  -0.018   0.754 -0.8652  1.9954  1.1554
10203TIP3   OH254803   3.832   3.579   1.422  0.0146 -0.2920 -0.2271
10203TIP3    H154804   3.812   3.524   1.346 -0.2833 -0.9301  0.3080
10203TIP3    H254805   3.915   3.620   1.400 -0.7495  0.6722 -1.5397
10204TIP3   OH254806   0.006   7.163   1.892  0.3504  0.2010  0.0523
10204TIP3    H154807   0.060   7.117   1.957  2.2296  0.7221 -1.0819
10204TIP3    H254808  -0.065   7.101   1.872  1.4138 -1.1804  0.4104
10205TIP3   OH254809   7.194   1.042   2.028  0.2123  0.7480  0.7133
10205TIP3    H154810   7.245   0.995   1.962  1.4348  0.5665  1.7536
10205TIP3    H254811   7.104   1.038   1.995  0.6123 -0.3789 -0.3377
10206TIP3   OH254812   4.157   7.500   2.186 -0.3110 -0.2554 -0.3296
10206TIP3    H154813   4.237   7.482   2.136  0.5533 -0.3992  1.0448
10206TIP3    H254814   4.189   7.535   2.269 -1.7667  1.7936 -0.5861
10207TIP3   OH254815   3.422   0.969   1.433  0.5322 -0.1480 -0.1200
10207TIP3    H154816   3.515   0.949   1.445  0.1913 -0.9491  1.5094
10207TIP3    H254817   3.415   1.063   1.450  1.0765 -0.0370 -0.4906
10208TIP3   OH254818   2.284   0.623   0.804 -0.5928  0.4343 -0.0239
10208TIP3    H154819   2.350   0.639   0.872  0.6145 -1.2443 -0.7132
10208TIP3    H254820   2.281   0.704   0.754 -0.4619  1.2068  1.1830
10209TIP3   OH254821   1.721   7.188   2.661 -0.0118  0.0022 -0.1206
10209TIP3    H154822   1.762   7.267   2.625 -1.2671  1.0428  0.6719
10209TIP3    H254823   1.720   7.202   2.755  1.9986 -2.0925  0.3210
10210TIP3   OH254824   4.230   5.827   2.485 -0.8315 -0.1115 -0.3392
10210TIP3    H154825   4.323   5.847   2.497 -0.7886  0.2385 -1.1831
10210TIP3    H254826   4.216   5.837   2.391 -1.6278 -0.5863 -0.2732
10211TIP3   OH254827   7.073   4.922   0.691  0.4708 -0.8577 -0.3578
10211TIP3    H154828   7.065   5.017   0.701  1.6055 -0.6807 -0.8872
10211TIP3    H254829   7.166   4.908   0.671 -0.1500 -1.8141 -2.9702
10212TIP3   OH254830   3.461   6.626   1.713 -0.2869  0.2634 -0.1984
10212TIP3    H154831   3.401   6.668   1.650  1.0870  1.3516 -0.8234
10212TIP3    H254832   3.538   6.603   1.660  1.0246  1.4662  1.1143
10213TIP3   OH254833   6.084   5.169   3.190  0.2276  0.2960 -0.1127
10213TIP3    H154834   6.033   5.152   3.111  0.5995  1.6734 -0.6880
10213TIP3    H254835   6.021   5.207   3.252 -0.1385 -1.1033  0.4035
10214TIP3   OH254836   3.612   4.357   1.891 -0.2605  0.0560 -0.3474
10214TIP3    H154837   3.654   4.412   1.825 -1.2038 -0.8803 -1.7789
10214TIP3    H254838   3.528   4.399   1.908 -0.8813 -0.7590 -1.2710
10215TIP3   OH254839   0.125   4.466   2.486 -0.8033  1.1569  0.3088
10215TIP3    H154840   0.054   4.476   2.423  0.1509 -1.5443 -1.3571
10215TIP3    H254841   0.176   4.546   2.478 -1.7056  1.6366 -1.0406
10216TIP3   OH254842   5.102   2.384   0.503  0.2443  0.1597  0.0326
10216TIP3    H154843   5.026   2.347   0.547 -0.4909 -1.4166 -2.3697
10216TIP3    H254844   5.069   2.461   0.457  0.3662  0.1941  0.0005
10217TIP3   OH254845   5.844   3.579   1.665 -0.3590 -0.3111 -0.1551
10217TIP3    H154846   5.870   3.575   1.756  0.2967  0.0494 -0.3188
10217TIP3    H254847   5.753   3.609   1.667 -0.5705 -0.9664  0.3994
10218TIP3   OH254848   4.601   1.768   1.585 -0.4542  0.1282 -0.0597
10218TIP3    H154849   4.571   1.829   1.652 -1.3971 -0.1814 -0.1864
10218TIP3    H254850   4.616   1.686   1.632 -0.3505  0.1276 -0.0934
10219TIP3   OH254851   7.619   6.906   3.077  0.2758 -0.4799 -0.2388
10219TIP3    H154852   7.679   6.903   3.003  2.5595 -2.2061  1.5438
10219TIP3    H254853   7.597   6.815   3.094 -0.8894 -0.0505  0.6852
10220TIP3   OH254854   5.667   2.275   2.269  0.2330  0.4286 -0.0484
10220TIP3    H154855   5.752   2.317   2.258  0.3844  0.4477  1.0764
10220TIP3    H254856   5.606   2.331   2.221  1.0705 -0.5276 -2.3717
10221TIP3   OH254857   5.275   1.041   0.690 -0.3278 -0.3530 -0.2520
10221TIP3    H154858   5.254   1.090   0.769 -1.1253 -0.3468 -0.4560
10221TIP3    H254859   5.191   1.003   0.663 -0.1145 -0.1631 -1.2231
10222TIP3   OH254860   1.428   1.744   1.315  0.1529  0.2259  0.1943
10222TIP3    H154861   1.404   1.776   1.401 -3.5258 -0.2278 -0.4866
10222TIP3    H254862   1.457   1.822   1.267 -1.7707  1.2912  0.6647
10223TIP3   OH254863   6.120   1.528   1.831  0.4694  0.4367  0.4382
10223TIP3    H154864   6.033   1.497   1.806  1.3290 -1.8155  0.0025
10223TIP3    H254865   6.162   1.452   1.872  1.8435  1.8089  1.7185
10224TIP3   OH254866   2.744   2.483   1.447  0.7015  0.5223  0.1278
10224TIP3    H154867   2.779   2.498   1.535  0.3264  0.7936  0.2355
10224TIP3    H254868   2.727   2.389   1.443 -0.5313  0.6934  0.8263
10225TIP3   OH254869   5.415   7.022   1.543 -0.0393 -0.8176 -0.7944
10225TIP3    H154870   5.365   6.976   1.475 -0.5846  0.8617 -1.5803
10225TIP3    H254871   5.483   7.069   1.495  0.6870 -1.0101  0.0197
10226TIP3   OH254872   3.647   1.424   1.357  0.2952 -0.1460  0.4843
10226TIP3    H154873   3.671   1.468   1.275 -1.1803  0.3433  0.2839
10226TIP3    H254874   3.556   1.397   1.343 -0.1594  0.4458  2.1694
10227TIP3   OH254875   1.313   2.741   2.547  0.1546 -0.2920  0.3566
10227TIP3    H154876   1.397   2.713   2.583 -0.5293 -0.6544  1.7264
10227TIP3    H254877   1.249   2.714   2.612 -1.2925 -1.9371 -1.6238
10228TIP3   OH254878   5.137   2.656   2.851  0.1329  0.2897  0.0709
10228TIP3    H154879   5.183   2.578   2.818  0.4641  0.5096  0.0063
10228TIP3    H254880   5.087   2.624   2.926  1.5164  0.3143  1.0430
10229TIP3   OH254881   4.742   3.017   1.338  0.1402 -0.3607 -0.7298
10229TIP3    H154882   4.677   3.010   1.408 -0.1447  0.3850 -0.9053
10229TIP3    H254883   4.691   3.043   1.261  0.4298 -1.2919 -1.2508
10230TIP3   OH254884   0.049   1.967   1.487  0.4545  0.4157  0.1516
10230TIP3    H154885  -0.020   1.922   1.535 -0.9950  2.5816  0.2498
10230TIP3    H254886   0.087   2.028   1.550  2.6340 -0.8143  0.1389
10231TIP3   OH254887   6.190   2.366   1.644  0.1875 -0.0498 -0.4713
10231TIP3    H154888   6.164   2.457   1.628  1.7042  0.4099 -0.5007
10231TIP3    H254889   6.161   2.319   1.566  3.4109  1.2996 -2.7004
10232TIP3   OH254890   3.813   2.821   0.562  0.3128  0.6917 -0.3731
10232TIP3    H154891   3.790   2.728   0.565 -2.6477  1.3126 -0.6406
10232TIP3    H254892   3.877   2.828   0.491 -2.5265 -0.6790 -3.3305
10233TIP3   OH254893   0.126   0.955   0.697 -0.0729  0.2131  0.3717
10233TIP3    H154894   0.164   0.876   0.660 -2.0928 -0.1301 -1.1756
10233TIP3    H254895   0.201   1.008   0.724  1.4204 -1.0859 -1.0069
10234TIP3   OH254896   5.537   5.333   2.520  0.0173  0.6331  0.8005
10234TIP3    H154897   5.474   5.344   2.591  1.3856  0.4230  2.1020
10234TIP3    H254898   5.604   5.275   2.556  0.9441  0.8061 -0.5502
10235TIP3   OH254899   3.701   0.345   1.810  0.4035 -0.1275  0.2203
10235TIP3    H154900   3.782   0.344   1.760  0.2645 -1.3217 -0.0099
10235TIP3    H254901   3.638   0.391   1.754  1.2840  2.2598  1.0642
10236TIP3   OH254902   0.575   1.370   3.204 -0.1872 -0.0910 -0.3022
10236TIP3    H154903   0.500   1.398   3.151 -0.6034 -0.3364  0.1584
10236TIP3    H254904   0.537   1.332   3.283  0.4437  1.4153  0.7723
10237TIP3   OH254905   7.641   3.133   0.993  0.0015  0.7334 -0.0691
10237TIP3    H154906   7.666   3.150   0.902 -0.7396 -0.4522 -0.5159
10237TIP3    H254907   7.717   3.160   1.044  0.5341  1.1675 -1.0577
10238TIP3   OH254908   0.646   5.500   0.936 -0.2186  0.1181  0.1059
10238TIP3    H154909   0.686   5.558   1.001 -0.9237  0.6996  0.0250
10238TIP3    H254910   0.669   5.539   0.852  1.0905 -0.8918 -0.0279
10239TIP3   OH254911   0.735   4.615   1.112  0.0043 -0.0295  0.0829
10239TIP3    H154912   0.710   4.606   1.020  0.8109  0.2048 -0.1674
10239TIP3    H254913   0.817   4.663   1.110  0.1040 -0.1493  0.9215
10240TIP3   OH254914   5.322   7.628   1.079  0.3556  0.6005 -0.0988
10240TIP3    H154915   5.389   7.695   1.067  0.8045  0.2545  0.4428
10240TIP3    H254916   5.342   7.561   1.013 -0.1875  1.0614 -0.7470
10241TIP3   OH254917   0.839   4.695   2.042  0.0638  0.3361 -0.0704
10241TIP3    H154918   0.829   4.620   1.984  0.3467  0.6175 -0.4932
10241TIP3    H254919   0.751   4.714   2.075  0.1252 -0.7397  0.7573
10242TIP3   OH254920   3.431   4.977   2.292  0.4353  0.3974  0.3820
10242TIP3    H154921   3.465   5.038   2.227 -2.6759  2.7212  0.6939
10242TIP3    H254922   3.421   5.028   2.372  0.2558 -1.2681  1.4868
10243TIP3   OH254923   3.511   2.650   2.085 -0.2861 -0.1554 -0.0140
10243TIP3    H154924   3.452   2.673   2.013  1.4369 -0.7132 -1.7105
10243TIP3    H254925   3.590   2.700   2.067  0.6297 -1.2710  0.7865
10244TIP3   OH254926   2.684   1.010   0.941 -0.1145  0.0502  0.0596
10244TIP3    H154927   2.758   0.962   0.979 -0.4020 -1.6695 -1.3825
10244TIP3    H254928   2.709   1.024   0.849 -0.9732  0.7324 -0.0817
10245TIP3   OH254929   6.091   1.740   2.020 -0.2693 -0.4459 -0.1446
10245TIP3    H154930   6.006   1.783   2.010 -0.2262 -0.2834  0.1816
10245TIP3    H254931   6.086   1.664   1.963 -1.5327 -1.7832  1.6411
10246TIP3   OH254932   3.275   4.393   0.994  0.1360  0.1031 -0.3528
10246TIP3    H154933   3.307   4.450   1.064 -0.4482 -0.2872  0.2478
10246TIP3    H254934   3.243   4.453   0.927  0.1877  0.4899 -0.0361
10247TIP3   OH254935   5.936   6.489   1.632  0.3531  0.2366 -0.1856
10247TIP3    H154936   5.927   6.583   1.615  0.2751  0.3237  0.3280
10247TIP3    H254937   5.993   6.484   1.709 -0.1487 -0.1154  0.1663
10248TIP3   OH254938   3.722   2.562   0.684  0.2144 -0.0660  0.1205
10248TIP3    H154939   3.690   2.472   0.693  1.0460 -0.4579 -0.6637
10248TIP3    H254940   3.751   2.585   0.773  2.0683 -1.4079 -0.0756
10249TIP3   OH254941   0.551   7.210   2.533  0.1091  0.4885 -0.1242
10249TIP3    H154942   0.465   7.171   2.518 -1.2554  3.3395 -0.3210
10249TIP3    H254943   0.575   7.181   2.621 -1.7856  0.8411  0.5539
10250TIP3   OH254944   6.103   7.257   1.140 -0.0813  0.0379  0.2315
10250TIP3    H154945   6.151   7.332   1.174  1.7783 -1.1659  0.3558
10250TIP3    H254946   6.028   7.248   1.200  1.4925 -0.2194  2.2773
10251TIP3   OH254947   3.399   2.869   3.486  0.1064  0.2167  0.0916
10251TIP3    H154948   3.469   2.916   3.532  0.5759 -0.6012  0.2362
10251TIP3    H254949   3.432   2.859   3.397 -0.8025  1.8001 -0.4528
10252TIP3   OH254950   5.277   3.068   1.664  0.0867 -0.2837 -0.5193
10252TIP3    H154951   5.330   3.073   1.585  1.7827  0.3057  0.5989
10252TIP3    H254952   5.192   3.104   1.638  1.3777  2.3618 -1.4562
10253TIP3   OH254953   1.451   4.522   2.402 -0.1178 -0.6178 -0.1018
10253TIP3    H154954   1.510   4.597   2.413  0.7951 -1.6279  3.2369
10253TIP3    H254955   1.363   4.558   2.411  0.1259  0.3752 -1.3684
10254TIP3   OH254956   2.511   1.964   0.945  0.0817 -0.4790  0.4421
10254TIP3    H154957   2.538   2.024   0.876 -1.4468 -0.2888 -0.0134
10254TIP3    H254958   2.466   2.018   1.009 -2.3452 -1.2094 -0.5222
10255TIP3   OH254959   4.833   0.501   2.978 -0.0737 -1.0193 -0.6566
10255TIP3    H154960   4.809   0.537   3.063 -0.2617  0.2750 -1.2275
10255TIP3    H254961   4.862   0.577   2.927  1.2866 -1.9442 -1.3397
10256TIP3   OH254962   7.201   1.383   2.696  0.3826  0.1516 -0.0268
10256TIP3    H154963   7.187   1.423   2.610  0.3798  0.9598  0.3465
10256TIP3    H254964   7.203   1.456   2.757 -0.7822 -0.4868  0.8166
10257TIP3   OH254965   2.962   3.530   2.242  0.1101  0.3314 -0.3709
10257TIP3    H154966   2.914   3.506   2.162  0.8076 -1.8092 -0.2168
10257TIP3    H254967   3.038   3.579   2.211 -0.5722  1.0906 -0.8651
10258TIP3   OH254968   4.889   5.750   0.364 -0.1541 -0.0733 -0.2082
10258TIP3    H154969   4.960   5.695   0.397  0.8024  1.3001  0.1069
10258TIP3    H254970   4.885   5.732   0.271  0.8522  0.0930 -0.2882
10259TIP3   OH254971   7.532   0.906   0.754  0.2962 -0.2330  0.8757
10259TIP3    H154972   7.619   0.935   0.726  0.7695 -2.6972 -0.5541
10259TIP3    H254973   7.489   0.985   0.785  3.0988  1.0591  1.8311
10260TIP3   OH254974   1.766   1.479   3.004 -0.2016 -0.1552  0.3373
10260TIP3    H154975   1.705   1.547   3.034 -0.0907  0.2484 -0.3293
10260TIP3    H254976   1.819   1.459   3.081 -1.3755 -0.7470  1.0243
10261TIP3   OH254977   5.233   2.463   1.815  0.4202  0.6798  0.2721
10261TIP3    H154978   5.257   2.554   1.796 -0.6105  1.0844  0.8616
10261TIP3    H254979   5.140   2.457   1.795  0.5678 -0.3905 -0.2141
10262TIP3   OH254980   4.473   4.079   0.395 -0.4917 -0.0677 -0.1853
10262TIP3    H154981   4.553   4.076   0.448  0.6500  0.2622 -1.7918
10262TIP3    H254982   4.415   4.015   0.436  0.8325 -0.7901  0.6703
10263TIP3   OH254983   2.174   2.951   2.665  0.1327 -0.0140 -0.2857
10263TIP3    H154984   2.174   2.862   2.700 -2.1135  0.1522  0.2764
10263TIP3    H254985   2.120   3.001   2.727  2.0952  1.9851 -0.0647
10264TIP3   OH254986   7.189   3.105   1.571 -0.5905  0.1666  0.0158
10264TIP3    H154987   7.205   3.089   1.478  1.1113  0.8579  0.1407
10264TIP3    H254988   7.162   3.197   1.575  0.5837  0.5178  0.2950
10265TIP3   OH254989   4.879   7.544   2.450 -0.5914 -0.1018 -0.4929
10265TIP3    H154990   4.800   7.511   2.408 -0.6457  0.3564 -0.7586
10265TIP3    H254991   4.870   7.639   2.448 -1.2405 -0.0542  1.7635
10266TIP3   OH254992   0.111   0.542   0.594  0.2365 -0.5717  0.0748
10266TIP3    H154993   0.116   0.476   0.524  0.1223  0.3895 -0.8548
10266TIP3    H254994   0.201   0.573   0.604  0.3833 -1.2123  0.8725
10267TIP3   OH254995   1.318   6.474   1.389  0.1090  0.2134  0.1465
10267TIP3    H154996   1.300   6.568   1.378  2.3884  0.4512 -3.0348
10267TIP3    H254997   1.268   6.431   1.320 -1.2943 -1.0854  1.8679
10268TIP3   OH254998   2.848   6.311   1.064 -0.0081  0.3835  0.4594
10268TIP3    H154999   2.903   6.357   1.128 -0.6907 -0.2793  1.5406
10268TIP3    H255000   2.761   6.310   1.104 -0.5706  0.4432 -0.7385
10269TIP3   OH255001   5.010   4.184   1.851 -0.4488  0.7802 -0.6763
10269TIP3    H155002   5.020   4.271   1.891 -0.1440  1.0884 -1.4015
10269TIP3    H255003   4.926   4.152   1.885 -0.1221  0.9451  0.3440
10270TIP3   OH255004   6.639   6.245   3.382  0.0265 -0.1358  0.0974
10270TIP3    H155005   6.626   6.196   3.302  1.3942  2.0358 -1.5693
10270TIP3    H255006   6.720   6.210   3.420 -0.8947 -1.5152  0.8698
10271TIP3   OH255007   5.179   5.945   3.025  0.0931  0.1610 -0.1133
10271TIP3    H155008   5.213   5.906   2.945 -0.0984 -0.6932  0.2094
10271TIP3    H255009   5.243   6.012   3.049 -0.8370  1.8516 -2.0473
10272TIP3   OH255010   3.975   3.413   1.948 -0.3419  0.1950  0.5070
10272TIP3    H155011   4.053   3.409   1.892 -0.8013  2.8816 -0.4918
10272TIP3    H255012   3.924   3.336   1.924  0.6301 -0.0106 -1.0137
10273TIP3   OH255013   3.110   0.864   1.867 -0.1001 -0.8311 -0.3263
10273TIP3    H155014   3.157   0.937   1.908 -0.2297  0.6271 -2.6161
10273TIP3    H255015   3.175   0.822   1.811 -0.4059 -1.6148 -0.1084
10274TIP3   OH255016   6.955   2.564   2.253  0.0331 -0.1833 -0.5003
10274TIP3    H155017   6.982   2.625   2.185 -0.2761  0.2696 -0.2190
10274TIP3    H255018   7.027   2.563   2.316 -0.2482  0.4061 -0.1638
10275TIP3   OH255019   1.883   1.551   2.340 -0.5742  0.1833 -0.0414
10275TIP3    H155020   1.810   1.584   2.287 -0.0916  1.0797 -0.1766
10275TIP3    H255021   1.842   1.502   2.411 -1.2607 -0.3960 -0.8203
10276TIP3   OH255022   2.068   6.189   2.903 -0.0786 -0.3154 -0.2349
10276TIP3    H155023   2.143   6.215   2.957  0.4834  0.2153 -1.2408
10276TIP3    H255024   2.103   6.186   2.814 -1.0138 -1.0755 -0.5895
10277TIP3   OH255025   2.223   5.348   2.021 -0.5490 -0.6554  0.3081
10277TIP3    H155026   2.176   5.275   2.060 -0.7077  0.0538  1.4951
10277TIP3    H255027   2.302   5.357   2.074 -0.5906  0.1148  0.2544
10278TIP3   OH255028   3.137   4.088   2.432 -0.2642  0.5016  0.3764
10278TIP3    H155029   3.107   4.179   2.428 -0.2886  0.4614 -0.5804
10278TIP3    H255030   3.128   4.056   2.342 -2.7460 -1.2767  1.1644
10279TIP3   OH255031   7.485   2.207   0.687  0.0728 -0.5725  0.6291
10279TIP3    H155032   7.410   2.265   0.692 -0.1872 -0.7775 -0.6597
10279TIP3    H255033   7.448   2.119   0.673  0.5118 -0.8336  1.0597
10280TIP3   OH255034   1.432   7.303   1.853 -0.0870  0.5147 -0.0871
10280TIP3    H155035   1.527   7.288   1.857 -0.1098  0.5473  0.7825
10280TIP3    H255036   1.421   7.366   1.782  0.5646  0.6669 -0.0673
10281TIP3   OH255037   5.348   2.070   2.279 -0.2421 -0.0591 -0.4605
10281TIP3    H155038   5.353   2.102   2.369 -2.1994  1.7953 -0.9346
10281TIP3    H255039   5.359   2.148   2.225  0.6350 -1.1009 -1.8521
10282TIP3   OH255040   2.695   7.624   1.635 -0.0275 -0.5902 -0.2417
10282TIP3    H155041   2.623   7.684   1.615 -0.5709 -0.8749  0.7772
10282TIP3    H255042   2.721   7.588   1.550 -0.6152  0.0529 -0.7018
10283TIP3   OH255043   4.054   3.597   2.335 -0.0844  0.2167  0.2229
10283TIP3    H155044   3.997   3.593   2.411  0.0307  0.0115  0.2989
10283TIP3    H255045   3.997   3.628   2.264 -0.3413 -0.1786  0.2519
10284TIP3   OH255046   4.434   6.591   1.847 -0.7297 -0.2303 -0.4579
10284TIP3    H155047   4.526   6.578   1.869 -0.3981 -0.1378 -1.7279
10284TIP3    H255048   4.425   6.685   1.835 -1.3569 -0.0573  1.1298
10285TIP3   OH255049   5.377   3.490   1.423 -0.2688  0.1221  0.2140
10285TIP3    H155050   5.300   3.544   1.444  0.3571  1.6539 -1.1811
10285TIP3    H255051   5.429   3.491   1.503 -0.6078  1.0292  0.4438
10286TIP3   OH255052   4.873   5.511   2.847  0.2905  0.2803  0.1748
10286TIP3    H155053   4.889   5.427   2.806 -1.2399  0.1493 -0.2170
10286TIP3    H255054   4.824   5.490   2.927 -0.1512  0.7806  0.0464
10287TIP3   OH255055   6.771   3.306   1.075  0.4828  0.0746 -0.1713
10287TIP3    H155056   6.825   3.372   1.030  0.3690  0.2523 -0.0497
10287TIP3    H255057   6.765   3.234   1.012  0.3615  0.3033 -0.4249
10288TIP3   OH255058   3.652   4.360   2.186  0.3517  0.0280 -0.4827
10288TIP3    H155059   3.671   4.375   2.094  0.0660  1.0139 -0.3909
10288TIP3    H255060   3.578   4.300   2.186 -1.1701  1.8098 -0.9671
10289TIP3   OH255061   5.983   0.531   3.335 -0.2648 -0.2294 -0.0230
10289TIP3    H155062   5.997   0.462   3.400  1.3841  0.7382  0.7052
10289TIP3    H255063   5.898   0.569   3.358 -1.3088 -2.0744 -0.5554
10290TIP3   OH255064   4.009   5.589   1.174  0.2800  0.1687  0.0562
10290TIP3    H155065   3.973   5.675   1.195  0.3021 -0.0095  0.8585
10290TIP3    H255066   4.089   5.583   1.226  0.0781 -0.4836  0.2985
10291TIP3   OH255067   5.710   7.609   2.350 -0.2987  0.5288  0.0955
10291TIP3    H155068   5.805   7.617   2.350 -0.2769  0.5267  1.3419
10291TIP3    H255069   5.687   7.586   2.260  1.0376 -1.1935  0.1483
10292TIP3   OH255070   4.064   7.360   1.350  0.2531  0.5864 -0.2203
10292TIP3    H155071   4.148   7.316   1.339  0.6658  1.1855  0.4613
10292TIP3    H255072   4.046   7.398   1.263 -0.0554 -0.7882 -0.7814
10293TIP3   OH255073   5.257   4.663   1.447  0.0308 -0.5219 -0.2616
10293TIP3    H155074   5.286   4.600   1.513  2.2260 -1.3707 -1.9019
10293TIP3    H255075   5.246   4.610   1.368 -2.9281  0.3780 -0.5820
10294TIP3   OH255076   0.903   3.123   2.898  0.1276 -0.7915  0.3361
10294TIP3    H155077   0.809   3.117   2.880  0.3337  0.1656 -1.2268
10294TIP3    H255078   0.945   3.093   2.817  1.1493  0.2256  0.4680
10295TIP3   OH255079   3.531   6.460   1.168 -0.4966 -0.0719 -0.0144
10295TIP3    H155080   3.604   6.522   1.169 -2.3247  2.2159  0.5961
10295TIP3    H255081   3.515   6.440   1.261 -0.9511 -0.1465 -0.1059
10296TIP3   OH255082   7.671   5.101   2.362  0.1656 -0.7881  0.8243
10296TIP3    H155083   7.753   5.109   2.313 -0.0341 -0.1358  0.5897
10296TIP3    H255084   7.684   5.023   2.416  0.8211 -0.8732  0.5617
10297TIP3   OH255085   6.881   3.344   3.202  0.2881 -0.3204  0.0462
10297TIP3    H155086   6.911   3.425   3.242  0.0623 -0.4066  0.4020
10297TIP3    H255087   6.816   3.371   3.137  2.1337 -0.0181 -1.7776
10298TIP3   OH255088   4.147   7.633   2.612  0.0036 -0.1677  0.7552
10298TIP3    H155089   4.204   7.677   2.676  0.3506 -0.9194  0.9747
10298TIP3    H255090   4.191   7.550   2.594 -1.3842 -1.1003  1.4952
10299TIP3   OH255091   2.416   1.556   2.658  0.1698  0.2795 -0.0453
10299TIP3    H155092   2.356   1.611   2.608 -1.0237  0.2542  1.3151
10299TIP3    H255093   2.454   1.614   2.723  0.5097 -0.0407  0.0473
10300TIP3   OH255094   1.523   1.659   1.045  0.2469 -0.4732 -0.0506
10300TIP3    H155095   1.446   1.696   1.001  0.9542  2.0904  0.6729
10300TIP3    H255096   1.514   1.686   1.136  0.2802 -3.2050  0.8551
10301TIP3   OH255097   4.447   0.485   1.891 -0.1764  0.4600 -0.0503
10301TIP3    H155098   4.517   0.487   1.957 -0.8746  1.2049  0.6873
10301TIP3    H255099   4.377   0.434   1.932 -0.1416 -0.1347 -0.7206
10302TIP3   OH255100   3.682   0.163   2.555 -0.1268  0.3440 -0.3915
10302TIP3    H155101   3.599   0.211   2.566 -0.7721 -1.0512  1.0560
10302TIP3    H255102   3.747   0.219   2.597 -1.0279 -0.4117  2.1930
10303TIP3   OH255103   1.845   2.988   1.715 -0.2133 -0.2270 -0.0920
10303TIP3    H155104   1.877   3.070   1.678  0.6173 -0.9474 -1.0256
10303TIP3    H255105   1.924   2.940   1.739 -0.6814 -0.8394  0.2525
10304TIP3   OH255106   6.431   0.370   0.633  0.1285 -0.0617 -0.3296
10304TIP3    H155107   6.475   0.443   0.590 -0.5162  1.3860  1.3262
10304TIP3    H255108   6.339   0.396   0.634 -0.1998 -1.1845 -0.2159
10305TIP3   OH255109   0.308   4.808   1.472 -0.5416  0.4771  0.0565
10305TIP3    H155110   0.357   4.848   1.400 -0.2386 -0.0458 -0.0288
10305TIP3    H255111   0.250   4.745   1.430 -0.6507  0.4576  0.2351
10306TIP3   OH255112   0.087   2.784   2.150 -0.0042 -0.1399  0.2133
10306TIP3    H155113   0.008   2.732   2.167  1.0156 -1.0507  2.5574
10306TIP3    H255114   0.130   2.791   2.235  1.6971  1.6421 -0.7077
10307TIP3   OH255115   6.512   4.151   0.810  0.3665 -0.0520 -1.4112
10307TIP3    H155116   6.469   4.082   0.760  0.4707 -0.7670 -0.5394
10307TIP3    H255117   6.586   4.108   0.852  0.5984  0.6532 -1.0733
10308TIP3   OH255118   2.897   0.995   3.138 -0.7421 -0.1210  0.2445
10308TIP3    H155119   2.982   0.964   3.106  0.1002  0.9767  1.3235
10308TIP3    H255120   2.903   1.090   3.131 -2.5610 -0.0649 -1.2665
10309TIP3   OH255121   7.341   2.277   3.443  0.4727  0.0799 -0.1674
10309TIP3    H155122   7.365   2.232   3.524  0.4801  1.1179  0.4175
10309TIP3    H255123   7.420   2.273   3.389  0.6020 -0.2410  0.0421
10310TIP3   OH255124   5.972   0.165   1.946 -0.0993 -0.3074  0.4740
10310TIP3    H155125   5.899   0.104   1.944 -0.1815 -0.2174  0.7593
10310TIP3    H255126   6.047   0.114   1.916 -0.8674  0.4180 -3.2096
10311TIP3   OH255127   3.084   3.818   2.905  0.2329  0.0097  0.3134
10311TIP3    H155128   3.098   3.736   2.857  0.5909  0.6443 -0.6856
10311TIP3    H255129   3.164   3.868   2.890  0.6353 -0.0172  2.1047
10312TIP3   OH255130   1.957   5.863   2.625  0.9543 -0.3226 -0.3727
10312TIP3    H155131   2.006   5.882   2.545  2.3540 -0.1561  0.4865
10312TIP3    H255132   2.011   5.798   2.671  0.3615 -0.1425  0.5982
10313TIP3   OH255133   3.428   6.795   0.565  0.4404 -0.2456 -0.1546
10313TIP3    H155134   3.339   6.778   0.596  0.6181  0.2029  0.6033
10313TIP3    H255135   3.416   6.825   0.475 -0.4610  2.8960  0.8929
10314TIP3   OH255136   0.345   5.856   1.359  0.3938 -0.8540  0.3324
10314TIP3    H155137   0.358   5.903   1.441  1.0941 -0.3969 -0.0231
10314TIP3    H255138   0.264   5.807   1.371 -0.1053  0.0832  0.8828
10315TIP3   OH255139   6.107   5.371   0.835  0.1670 -0.3334 -0.0610
10315TIP3    H155140   6.104   5.406   0.924  0.2574  0.4452 -0.3539
10315TIP3    H255141   6.056   5.290   0.840 -1.0960  0.4474  0.3807
10316TIP3   OH255142   0.099   6.140   3.037  0.0295 -0.1503 -0.5938
10316TIP3    H155143   0.091   6.222   3.086 -0.2759 -0.3408 -0.3198
10316TIP3    H255144   0.186   6.106   3.062 -0.7944 -1.1014  1.1819
10317TIP3   OH255145   0.746   5.877   0.670  0.3217  0.2769 -0.0610
10317TIP3    H155146   0.717   5.967   0.685  1.5923  0.5719  0.7761
10317TIP3    H255147   0.841   5.882   0.675  0.3778 -1.2660  0.9021
10318TIP3   OH255148   1.218   2.560   1.333 -0.2050 -0.2789  0.4991
10318TIP3    H155149   1.262   2.478   1.311 -1.9169 -1.3358  0.7939
10318TIP3    H255150   1.211   2.607   1.249  1.2315 -0.1757  0.4146
10319TIP3   OH255151   1.657   4.547   2.057 -0.0426 -0.3638  0.6573
10319TIP3    H155152   1.591   4.487   2.091  0.0096 -0.2151  1.0179
10319TIP3    H255153   1.736   4.495   2.050 -0.7471 -1.2566 -2.1098
10320TIP3   OH255154   3.960   5.857   2.175  0.0484 -0.1122  0.1954
10320TIP3    H155155   3.899   5.930   2.185 -0.4736 -0.2437 -1.6023
10320TIP3    H255156   4.045   5.892   2.203 -0.1952  1.2024 -0.6175
10321TIP3   OH255157   6.470   1.811   2.679  0.4632 -0.1228  0.2687
10321TIP3    H155158   6.538   1.747   2.657  0.1532 -0.2620 -0.3182
10321TIP3    H255159   6.391   1.758   2.692  0.1201  0.1666 -0.5852
10322TIP3   OH255160   6.821   4.833   2.454  0.7443  0.7390 -0.0880
10322TIP3    H155161   6.812   4.915   2.406 -0.0081  0.0113 -1.2389
10322TIP3    H255162   6.892   4.849   2.517  1.1126  2.0154 -0.8029
10323TIP3   OH255163   0.996   3.406   0.773 -0.4883  0.0505 -0.3237
10323TIP3    H155164   0.944   3.482   0.795 -1.8769 -0.8327 -0.4440
10323TIP3    H255165   0.937   3.350   0.722  0.1781 -1.5501  0.5909
10324TIP3   OH255166   6.966   5.765   0.914  0.4965  0.1000  0.2640
10324TIP3    H155167   7.016   5.775   0.833  0.2568  0.1481  0.1232
10324TIP3    H255168   6.877   5.792   0.892  0.5749  0.7766  0.7119
10325TIP3   OH255169   6.451   7.495   1.266 -0.1952  0.2689 -0.0320
10325TIP3    H155170   6.382   7.478   1.331  0.6689 -0.1989  0.7791
10325TIP3    H255171   6.505   7.416   1.268 -1.0436 -0.4644 -2.5023
10326TIP3   OH255172   6.346   5.138   2.140 -0.0047 -0.1999 -0.2010
10326TIP3    H155173   6.369   5.191   2.064 -0.3971  0.9929  0.4821
10326TIP3    H255174   6.361   5.048   2.112 -1.3343  0.1150 -2.1151
10327TIP3   OH255175   1.430   1.069   2.808 -0.0099 -0.4333 -0.4980
10327TIP3    H155176   1.496   1.128   2.845 -0.9489  1.0919 -1.1791
10327TIP3    H255177   1.350   1.091   2.854 -0.6228 -0.3574 -1.5760
10328TIP3   OH255178   2.979   3.674   2.475  0.0823 -0.1178  0.2276
10328TIP3    H155179   2.920   3.750   2.476  0.4938  0.2248 -0.5576
10328TIP3    H255180   2.965   3.634   2.389 -0.1697 -0.9669  0.6607
10329TIP3   OH255181   5.475   0.155   1.776 -0.2251  0.2596 -0.2980
10329TIP3    H155182   5.403   0.206   1.739 -1.3772  0.3463  1.9018
10329TIP3    H255183   5.543   0.219   1.794 -0.1370  0.3997 -1.0990
10330TIP3   OH255184   0.007   3.750   1.756  0.1992  0.1319 -0.2219
10330TIP3    H155185   0.033   3.791   1.673  1.7884 -0.3585 -0.0071
10330TIP3    H255186  -0.077   3.790   1.777  0.0624  0.7239 -1.7548
10331TIP3   OH255187   2.239   2.261   2.577  0.2152 -0.5963  0.6712
10331TIP3    H155188   2.152   2.290   2.550  0.0137  0.2712  2.1018
10331TIP3    H255189   2.230   2.166   2.588 -0.1269 -0.7284 -0.6152
10332TIP3   OH255190   1.887   4.264   0.357  0.4801 -0.0619 -0.4577
10332TIP3    H155191   1.843   4.183   0.334  1.8060 -0.7779 -0.5759
10332TIP3    H255192   1.830   4.306   0.421  0.7640 -2.1158  1.2351
10333TIP3   OH255193   6.356   5.143   0.958  0.0303  0.4481 -0.4465
10333TIP3    H155194   6.394   5.080   1.019  1.2470  0.3560 -1.2649
10333TIP3    H255195   6.308   5.204   1.013 -0.2128 -0.5283  0.4589
10334TIP3   OH255196   7.075   4.489   2.603  0.4593  0.2317 -0.3109
10334TIP3    H155197   7.024   4.408   2.611  2.6062 -1.2353 -0.5131
10334TIP3    H255198   7.011   4.554   2.575 -1.4738 -1.2424  0.3703
10335TIP3   OH255199   4.393   3.836   1.987 -0.1724  0.3863  0.1302
10335TIP3    H155200   4.345   3.917   1.973 -0.9111 -0.0877 -0.1640
10335TIP3    H255201   4.354   3.774   1.925  1.0974  0.0890 -0.4061
10336TIP3   OH255202   2.063   0.759   2.193  0.6234  0.0901  0.1176
10336TIP3    H155203   2.014   0.833   2.228  0.3378  0.4210 -0.9497
10336TIP3    H255204   2.069   0.776   2.099  0.4989 -1.2611 -0.1604
10337TIP3   OH255205   5.840   5.345   1.487 -0.0348  0.4665  0.4235
10337TIP3    H155206   5.874   5.264   1.524  0.4615  0.4437 -0.0691
10337TIP3    H255207   5.851   5.335   1.392 -2.2328  0.0795  0.1480
10338TIP3   OH255208   1.716   3.472   0.956 -0.2632 -0.0838 -0.0936
10338TIP3    H155209   1.644   3.508   1.008  0.0836 -0.5372  0.7051
10338TIP3    H255210   1.793   3.521   0.984  0.2213 -1.4211  1.0177
10339TIP3   OH255211   7.577   0.868   1.297  0.6216 -0.2973 -0.4267
10339TIP3    H155212   7.640   0.808   1.256  1.3133 -0.8348  1.3422
10339TIP3    H255213   7.558   0.932   1.229  3.1724 -0.0449 -1.0188
10340TIP3   OH255214   1.459   6.248   1.123 -0.0276 -0.0332 -0.3951
10340TIP3    H155215   1.489   6.333   1.091  0.5405 -0.5625 -1.3049
10340TIP3    H255216   1.370   6.240   1.088 -1.2893  1.4594  2.1623
10341TIP3   OH255217   3.302   3.681   0.648 -0.0943 -0.1744  0.3014
10341TIP3    H155218   3.212   3.675   0.616 -0.9880  1.2428  2.3170
10341TIP3    H255219   3.349   3.612   0.600 -1.9545 -0.2196 -1.6432
10342TIP3   OH255220   6.957   5.943   2.179 -0.0093  0.3393  0.0875
10342TIP3    H155221   6.967   5.942   2.083  0.2459 -0.2519  0.1141
10342TIP3    H255222   7.011   6.016   2.208 -1.5366  1.6966 -0.3642
10343TIP3   OH255223   2.151   2.402   1.265 -0.4813  0.0547  0.4272
10343TIP3    H155224   2.181   2.467   1.202 -0.2523 -1.0868 -0.6925
10343TIP3    H255225   2.068   2.371   1.229  0.3035 -1.5719 -0.0674
10344TIP3   OH255226   2.881   3.318   1.507 -0.4576 -0.0394 -0.7384
10344TIP3    H155227   2.825   3.298   1.582 -0.1993 -1.0783 -0.7971
10344TIP3    H255228   2.962   3.270   1.525 -0.3873 -0.2865 -1.6689
10345TIP3   OH255229   2.325   7.396   3.128 -0.1726  0.0574  0.5991
10345TIP3    H155230   2.349   7.478   3.172  1.7094 -0.2417  0.2421
10345TIP3    H255231   2.406   7.345   3.127 -0.6065 -0.7062 -1.5604
10346TIP3   OH255232   0.776   3.136   1.470 -0.1250 -0.6434 -0.4102
10346TIP3    H155233   0.704   3.167   1.415  0.5204  1.5886 -0.1043
10346TIP3    H255234   0.742   3.139   1.559  0.4947  0.9790 -0.2098
10347TIP3   OH255235   2.833   3.082   0.640  0.5097  0.2438 -0.4632
10347TIP3    H155236   2.760   3.027   0.669  1.2460 -1.7438 -2.1122
10347TIP3    H255237   2.908   3.052   0.692  0.3005  1.9778  0.9140
10348TIP3   OH255238   7.171   6.851   2.611 -0.3465 -0.4624  0.2312
10348TIP3    H155239   7.258   6.849   2.571 -0.3552 -2.3114  0.2286
10348TIP3    H255240   7.151   6.759   2.630 -2.2501 -0.0623  0.3546
10349TIP3   OH255241   6.919   4.972   1.485  0.0678 -0.2880  0.1765
10349TIP3    H155242   7.007   5.008   1.483 -0.2806  0.6248 -1.8764
10349TIP3    H255243   6.895   4.963   1.392 -2.8523  1.7894  0.5792
10350TIP3   OH255244   7.207   0.607   1.810 -0.2894 -0.1660  0.0787
10350TIP3    H155245   7.203   0.596   1.905  1.0194 -1.2367  0.0418
10350TIP3    H255246   7.299   0.624   1.792 -0.2325 -1.5832 -1.1359
10351TIP3   OH255247   1.196   7.351   0.546 -0.5214  0.0935 -0.1539
10351TIP3    H155248   1.279   7.396   0.530  0.5053 -1.4798  0.5983
10351TIP3    H255249   1.133   7.422   0.562  0.8399  1.2809  0.0507
10352TIP3   OH255250   5.111   1.316   1.825 -0.1486 -0.0529 -0.0798
10352TIP3    H155251   5.070   1.339   1.742 -0.0207 -0.2032 -0.1864
10352TIP3    H255252   5.182   1.379   1.835 -0.9761  0.8076  0.5650
10353TIP3   OH255253   4.639   1.067   3.051  0.4238  0.3161  0.2509
10353TIP3    H155254   4.713   1.017   3.015  0.3081 -0.8395  1.5387
10353TIP3    H255255   4.679   1.148   3.082  0.8006  0.5851 -0.8720
10354TIP3   OH255256   7.484   6.610   1.462 -0.6589  0.3032 -0.3042
10354TIP3    H155257   7.520   6.664   1.392 -2.3285  0.9849 -0.6929
10354TIP3    H255258   7.499   6.520   1.433 -0.5156  0.5778 -1.1035
10355TIP3   OH255259   7.679   5.833   2.116  0.1940 -0.2335 -0.4373
10355TIP3    H155260   7.623   5.870   2.048  0.2278  1.3789  0.3630
10355TIP3    H255261   7.767   5.832   2.077  0.2137  0.6829 -0.4302
10356TIP3   OH255262   2.001   4.479   1.835 -0.4432  0.0474  0.0652
10356TIP3    H155263   1.998   4.400   1.889  0.1081 -0.2555 -0.3415
10356TIP3    H255264   1.909   4.496   1.812 -0.6683  0.1044  0.9713
10357TIP3   OH255265   5.560   3.604   0.428  0.4534  0.0184 -0.3603
10357TIP3    H155266   5.571   3.628   0.520  2.2334  1.1494 -0.8323
10357TIP3    H255267   5.489   3.660   0.398 -0.9360 -1.1562  0.5544
10358TIP3   OH255268   1.767   2.428   2.265  0.0160  0.3801 -0.4308
10358TIP3    H155269   1.692   2.480   2.236  0.4421  1.1886 -0.1254
10358TIP3    H255270   1.804   2.479   2.337 -0.0371 -0.7520  0.4351
10359TIP3   OH255271   4.310   3.680   2.515  0.0662 -0.4328  0.2819
10359TIP3    H155272   4.339   3.667   2.424 -0.8624 -0.9698  0.0501
10359TIP3    H255273   4.262   3.600   2.536 -3.2082  1.2613 -0.1400
10360TIP3   OH255274   3.186   5.563   2.987  0.5882 -0.3361  0.4887
10360TIP3    H155275   3.201   5.655   3.009 -0.1483  0.3070 -1.4664
10360TIP3    H255276   3.097   5.544   3.017  0.0588  0.1585 -0.7144
10361TIP3   OH255277   6.671   0.455   3.601 -0.6740 -0.1112  0.1171
10361TIP3    H155278   6.666   0.419   3.690 -0.0672 -1.2259 -0.2687
10361TIP3    H255279   6.692   0.547   3.613 -0.5972 -0.2481  1.1375
10362TIP3   OH255280   1.678   2.332   1.477  0.1444  0.4270  0.5798
10362TIP3    H155281   1.726   2.281   1.413 -1.3778  0.8825 -1.0138
10362TIP3    H255282   1.724   2.318   1.560  2.1194 -0.2479 -0.5840
10363TIP3   OH255283   7.411   4.763   0.983  0.2380  0.6934  0.3467
10363TIP3    H155284   7.447   4.691   0.931  1.1491  1.9935 -0.9189
10363TIP3    H255285   7.317   4.746   0.987  0.5549 -1.0735  0.9563
10364TIP3   OH255286   7.037   3.829   2.151  0.4069  0.0898 -0.6008
10364TIP3    H155287   7.006   3.851   2.239 -2.0444 -2.0158 -0.8053
10364TIP3    H255288   7.003   3.900   2.095  0.8344  0.7326 -0.0617
10365TIP3   OH255289   5.448   6.115   1.028  0.2765  0.2688 -0.1474
10365TIP3    H155290   5.463   6.203   1.063 -0.6333 -0.3346  1.8570
10365TIP3    H255291   5.396   6.070   1.094 -1.0534 -1.1650 -2.0344
10366TIP3   OH255292   4.129   6.996   1.252  0.1415  0.0437 -0.2894
10366TIP3    H155293   4.178   6.994   1.170 -0.8102 -1.3080 -0.8694
10366TIP3    H255294   4.190   7.033   1.315  1.1238  0.4968 -1.4599
10367TIP3   OH255295   7.402   6.286   1.833  0.0040 -0.0041  0.0404
10367TIP3    H155296   7.458   6.209   1.824  1.5193  1.1369 -0.8565
10367TIP3    H255297   7.418   6.318   1.922  0.5106  0.0848 -0.0772
10368TIP3   OH255298   3.440   7.666   2.304  0.5810 -0.2910 -0.2476
10368TIP3    H155299   3.426   7.642   2.213  2.8143  0.8789 -0.9639
10368TIP3    H255300   3.534   7.659   2.317  0.4375  0.6111  1.6737
10369TIP3   OH255301   1.352   5.900   2.951 -0.3582 -0.1433  0.3413
10369TIP3    H155302   1.332   5.857   2.868 -0.2641  0.0341  0.2273
10369TIP3    H255303   1.270   5.896   3.000 -0.1123 -1.2471  0.6868
10370TIP3   OH255304   4.151   6.454   2.524  0.0252 -0.2450  0.6070
10370TIP3    H155305   4.234   6.425   2.562 -0.2301  0.9464  2.1949
10370TIP3    H255306   4.095   6.469   2.600 -2.6459 -3.7312 -0.4338
10371TIP3   OH255307   2.160   0.505   1.680  0.6028 -0.3747 -0.0810
10371TIP3    H155308   2.084   0.523   1.736  1.4199 -2.1318  1.7113
10371TIP3    H255309   2.236   0.519   1.736  1.4654 -2.0867 -0.7328
10372TIP3   OH255310   5.611   0.113   1.261 -0.0242  0.0284 -0.1268
10372TIP3    H155311   5.566   0.148   1.184 -1.7792 -1.2802  0.2363
10372TIP3    H255312   5.680   0.058   1.226 -1.0001 -0.7943 -0.8077
10373TIP3   OH255313   2.094   4.033   1.119 -0.2801  0.0995 -0.3391
10373TIP3    H155314   2.109   4.118   1.079  1.0501 -0.3161 -0.7881
10373TIP3    H255315   2.153   3.974   1.071 -1.1600 -1.0628 -0.0263
10374TIP3   OH255316   6.810   6.222   1.493  0.3467 -0.3508  0.1161
10374TIP3    H155317   6.740   6.270   1.449  1.1716 -0.6152 -1.5375
10374TIP3    H255318   6.787   6.130   1.481 -0.0155 -0.4383  1.2854
10375TIP3   OH255319   1.377   5.956   1.843 -0.4144  0.1468 -0.2113
10375TIP3    H155320   1.367   5.908   1.760 -0.1231 -0.8454  0.3133
10375TIP3    H255321   1.341   6.043   1.824 -1.0281 -0.2913 -1.1691
10376TIP3   OH255322   0.843   4.238   1.504 -0.1568 -0.1555  0.3404
10376TIP3    H155323   0.767   4.216   1.558  0.5323 -2.9459  0.2977
10376TIP3    H255324   0.805   4.269   1.422 -1.2016  1.3589  1.3429
10377TIP3   OH255325   4.400   4.121   2.573 -1.0575 -1.3022  0.0475
10377TIP3    H155326   4.486   4.158   2.595 -2.2593  1.3392  0.7284
10377TIP3    H255327   4.377   4.068   2.649 -1.0670 -0.0079  0.9698
10378TIP3   OH255328   4.626   4.637   1.699  0.1035  0.0514  0.3422
10378TIP3    H155329   4.648   4.687   1.620  0.3157 -0.2765  0.1928
10378TIP3    H255330   4.534   4.614   1.688 -0.2146  1.0582  0.7670
10379TIP3   OH255331   1.171   2.643   1.824 -0.0807 -0.6148  0.3246
10379TIP3    H155332   1.232   2.660   1.753  1.7980 -1.2944  1.6931
10379TIP3    H255333   1.119   2.568   1.794 -0.9536  0.5550 -1.2304
10380TIP3   OH255334   3.182   3.320   2.010  0.2545  0.5633  0.2166
10380TIP3    H155335   3.233   3.339   2.088  1.5575  0.2436 -0.5294
10380TIP3    H255336   3.208   3.387   1.947 -0.9532  0.9616  0.1110
10381TIP3   OH255337   1.250   4.172   1.561  0.4973  0.4659  0.2324
10381TIP3    H155338   1.220   4.263   1.559  1.8890  1.0053  1.4152
10381TIP3    H255339   1.339   4.175   1.527  0.5015 -0.4914  0.1169
10382TIP3   OH255340   7.536   1.105   1.935  0.0360  0.4068  0.2532
10382TIP3    H155341   7.469   1.040   1.914 -0.9768  2.0470 -1.9462
10382TIP3    H255342   7.491   1.170   1.988  0.8910 -0.3173  1.9283
10383TIP3   OH255343   2.198   3.224   2.180 -0.2450 -0.0994  0.3705
10383TIP3    H155344   2.277   3.259   2.139 -1.7443  1.8847 -1.0174
10383TIP3    H255345   2.153   3.177   2.110 -0.6331 -0.6309  0.9582
10384TIP3   OH255346   2.813   1.264   1.879 -0.2303 -0.2472 -0.5744
10384TIP3    H155347   2.819   1.170   1.898  0.3257 -0.0945  0.0939
10384TIP3    H255348   2.798   1.304   1.965 -1.9817  0.1720 -1.0483
10385TIP3   OH255349   5.428   4.196   2.416 -0.3244  0.4365 -0.0606
10385TIP3    H155350   5.341   4.185   2.376 -0.4623  0.3798  0.2545
10385TIP3    H255351   5.446   4.113   2.460 -0.1194  0.4553 -0.1074
10386TIP3   OH255352   3.191   0.153   2.686 -0.4736 -0.8516  0.2526
10386TIP3    H155353   3.216   0.081   2.743 -2.2648 -0.6204  1.4214
10386TIP3    H255354   3.234   0.230   2.724 -1.1033 -0.8148  0.9253
10387TIP3   OH255355   1.126   0.307   2.528 -0.5490  0.2646  0.2271
10387TIP3    H155356   1.080   0.370   2.584 -1.8239  1.1623 -1.7006
10387TIP3    H255357   1.203   0.355   2.496 -0.1210 -0.0578  0.7617
10388TIP3   OH255358   1.968   5.531   1.578 -0.1467 -0.2419  0.5383
10388TIP3    H155359   1.880   5.496   1.564 -0.7577  0.8487  1.4573
10388TIP3    H255360   2.011   5.466   1.633 -0.0653 -1.1940 -0.6097
10389TIP3   OH255361   3.467   5.763   2.583  0.1899  0.0092 -0.0640
10389TIP3    H155362   3.423   5.790   2.503  0.0558 -0.9971 -0.3374
10389TIP3    H255363   3.395   5.746   2.645  0.3034  1.6089  0.5805
10390TIP3   OH255364   4.645   5.911   1.173 -0.2144 -0.1952 -0.1060
10390TIP3    H155365   4.605   5.832   1.138 -1.8377  0.1318  0.9000
10390TIP3    H255366   4.739   5.893   1.170 -0.4969 -1.7563 -0.8089
10391TIP3   OH255367   6.478   6.754   0.467  0.2569 -0.1077  0.0211
10391TIP3    H155368   6.458   6.691   0.536 -0.4877  0.0889 -0.0057
10391TIP3    H255369   6.396   6.763   0.418  0.6923 -0.0156 -0.7033
10392TIP3   OH255370   6.642   0.751   0.743  0.1927 -0.2897 -0.7720
10392TIP3    H155371   6.733   0.777   0.731  0.4453  0.1498  1.4991
10392TIP3    H255372   6.593   0.833   0.739  0.1092 -0.3231 -0.4896
10393TIP3   OH255373   4.371   4.293   0.675 -0.0646  0.3890  0.0848
10393TIP3    H155374   4.464   4.306   0.662 -0.1294  0.3637 -0.4167
10393TIP3    H255375   4.363   4.259   0.765  0.5349 -1.0072 -0.3575
10394TIP3   OH255376   6.702   5.488   2.430 -0.0190  0.3433 -0.1519
10394TIP3    H155377   6.639   5.429   2.389 -0.9482  1.9336 -1.1211
10394TIP3    H255378   6.766   5.506   2.362  1.0993 -0.6514  0.5914
10395TIP3   OH255379   3.767   5.157   1.529  0.2359 -0.0076  0.1010
10395TIP3    H155380   3.841   5.143   1.470 -0.4160  0.1671 -0.7798
10395TIP3    H255381   3.802   5.142   1.617  1.5261  0.9472 -0.2331
10396TIP3   OH255382   4.574   4.835   0.708  0.2550 -0.0037  0.2701
10396TIP3    H155383   4.630   4.757   0.708  0.7262  0.3281  0.4988
10396TIP3    H255384   4.521   4.826   0.629  0.8990 -0.1366 -0.1615
10397TIP3   OH255385   1.611   5.944   2.980 -0.1030  0.2414  0.3760
10397TIP3    H155386   1.640   6.025   3.022  0.9038  1.1074 -1.8157
10397TIP3    H255387   1.515   5.946   2.986 -0.0585  1.2663  0.9054
10398TIP3   OH255388   7.141   6.381   0.884  0.1006 -0.2887 -0.5578
10398TIP3    H155389   7.176   6.458   0.927  1.0766 -0.7373 -0.5198
10398TIP3    H255390   7.046   6.387   0.896  0.3514 -1.2316  3.1898
10399TIP3   OH255391   3.798   7.202   3.379 -0.3854 -0.0328 -0.9105
10399TIP3    H155392   3.769   7.241   3.296 -3.0365 -2.3767 -1.2603
10399TIP3    H255393   3.888   7.175   3.362 -0.3043  1.0590 -2.4526
10400TIP3   OH255394   6.772   3.717   1.452 -0.1922 -0.9163  0.1064
10400TIP3    H155395   6.719   3.664   1.393 -1.7672 -0.5563  1.1314
10400TIP3    H255396   6.749   3.807   1.430 -1.3874 -0.7867  1.7240
10401TIP3   OH255397   3.321   6.543   1.955 -0.1303 -0.5507  0.4137
10401TIP3    H155398   3.352   6.556   1.866 -0.7047 -1.0186  0.1410
10401TIP3    H255399   3.328   6.449   1.970  0.0141 -0.4675  0.8841
10402TIP3   OH255400   4.266   3.965   0.847  0.1763 -0.1831 -0.1828
10402TIP3    H155401   4.245   3.972   0.940 -0.6670  2.6363 -0.5167
10402TIP3    H255402   4.331   3.894   0.843  1.5687  0.7756  2.7682
10403TIP3   OH255403   7.554   7.247   2.454 -0.2850  0.2549  0.2958
10403TIP3    H155404   7.644   7.275   2.470 -0.2409  0.3289 -0.0741
10403TIP3    H255405   7.563   7.172   2.394 -0.4418 -0.0689  0.6773
10404TIP3   OH255406   4.987   3.127   1.524 -0.5839  0.1909 -0.2302
10404TIP3    H155407   4.933   3.088   1.455  0.3942 -1.6122 -0.0243
10404TIP3    H255408   4.924   3.160   1.588 -1.5461  2.3549 -2.1268
10405TIP3   OH255409   7.238   1.184   1.623  0.0289  0.1641 -0.2912
10405TIP3    H155410   7.249   1.234   1.703 -1.2678 -0.3591  0.2355
10405TIP3    H255411   7.164   1.224   1.578  1.4904  1.2485 -1.8980
10406TIP3   OH255412   4.364   4.820   3.385 -0.4375  0.2654 -0.1613
10406TIP3    H155413   4.315   4.833   3.466 -1.9278 -1.6029 -0.6970
10406TIP3    H255414   4.336   4.891   3.328 -0.4973  0.7428  0.4550
10407TIP3   OH255415   1.381   3.460   1.334  0.3229 -0.8909 -0.6736
10407TIP3    H155416   1.286   3.460   1.348  0.4701 -1.0576  0.4303
10407TIP3    H255417   1.410   3.374   1.366  0.9348 -0.5432 -0.2746
10408TIP3   OH255418   3.140   2.873   2.088  0.2731  0.0606  0.0739
10408TIP3    H155419   3.164   2.963   2.111 -0.0381  0.5480 -1.4308
10408TIP3    H255420   3.048   2.866   2.112  0.5168 -0.1497  0.9934
10409TIP3   OH255421   4.554   1.789   2.947 -0.1433 -0.0259  0.1537
10409TIP3    H155422   4.513   1.865   2.904  0.6283  0.1278 -0.3289
10409TIP3    H255423   4.601   1.744   2.876  0.0467 -0.5215  0.5897
10410TIP3   OH255424   4.696   6.243   0.582 -0.4645 -0.3638 -0.2204
10410TIP3    H155425   4.774   6.296   0.601 -1.0501 -0.3019  2.2996
10410TIP3    H255426   4.730   6.154   0.571  0.1235 -0.0766 -0.8287
10411TIP3   OH255427   3.360   3.900   2.130 -0.0655 -0.1163  0.7334
10411TIP3    H155428   3.269   3.872   2.139 -0.1682 -1.5684 -2.8706
10411TIP3    H255429   3.409   3.818   2.123  1.0255  0.6084 -0.4799
10412TIP3   OH255430   1.060   2.850   1.970 -0.3703  0.4817 -0.6099
10412TIP3    H155431   0.974   2.808   1.971 -0.0502 -0.1827  0.4526
10412TIP3    H255432   1.117   2.788   1.925 -0.3830  0.8350 -1.1346
10413TIP3   OH255433   7.463   5.634   1.602 -0.0589 -0.5269  0.2638
10413TIP3    H155434   7.412   5.614   1.680  0.8381  0.0741  1.0242
10413TIP3    H255435   7.539   5.682   1.634  0.0201  0.2752 -1.0410
10414TIP3   OH255436   3.442   0.209   1.603 -0.3358  0.6012 -0.2087
10414TIP3    H155437   3.442   0.303   1.620 -0.3559  0.8118 -1.3015
10414TIP3    H255438   3.385   0.172   1.670 -0.4595  1.3852  0.1284
10415TIP3   OH255439   5.751   1.367   1.003 -0.3746 -0.0378  0.1304
10415TIP3    H155440   5.726   1.310   1.075 -0.1046 -0.5188 -0.1509
10415TIP3    H255441   5.749   1.455   1.040  2.2336 -0.4337  1.4621
10416TIP3   OH255442   2.066   5.503   3.229  0.2129 -0.8646 -0.2733
10416TIP3    H155443   2.050   5.412   3.205  0.2786 -0.5921 -1.4059
10416TIP3    H255444   2.152   5.523   3.191 -0.6414  0.2239 -1.7261
10417TIP3   OH255445   3.005   2.631   2.951 -0.0866 -0.0188  0.1650
10417TIP3    H155446   3.085   2.581   2.936 -1.0058 -1.7187  0.7275
10417TIP3    H255447   2.975   2.605   3.038 -3.6371 -2.9956 -1.6477
10418TIP3   OH255448   7.113   3.278   0.793 -0.2651  0.3423  0.5648
10418TIP3    H155449   7.046   3.231   0.744  0.4699  1.0933 -1.2546
10418TIP3    H255450   7.190   3.221   0.789 -0.1184  0.5371  0.6034
10419TIP3   OH255451   1.619   3.572   1.221  0.1256  0.0202 -0.0124
10419TIP3    H155452   1.635   3.665   1.207  0.2412  0.1285  0.7714
10419TIP3    H255453   1.526   3.566   1.243  0.4817  0.1784  1.6391
10420TIP3   OH255454   7.088   2.517   0.933 -0.6429 -0.5176 -0.3005
10420TIP3    H155455   7.182   2.531   0.943 -0.6435 -0.5336 -0.2723
10420TIP3    H255456   7.063   2.570   0.857 -1.1757  2.0068  1.4657
10421TIP3   OH255457   2.415   4.577   1.562 -0.1920 -0.0441  0.0899
10421TIP3    H155458   2.510   4.578   1.562 -0.1886  1.1515 -1.0219
10421TIP3    H255459   2.392   4.508   1.625  1.3879 -0.3665  0.3489
10422TIP3   OH255460   1.706   3.435   2.046 -0.6772 -0.0562 -0.1846
10422TIP3    H155461   1.627   3.485   2.025 -1.4570 -1.3113 -0.3751
10422TIP3    H255462   1.700   3.421   2.140  0.1433  1.1651  0.0694
10423TIP3   OH255463   0.728   7.451   2.806  0.4524  0.2802  0.2999
10423TIP3    H155464   0.727   7.370   2.756 -0.3982  0.3361  0.2015
10423TIP3    H255465   0.814   7.454   2.847  0.4726 -0.6998  0.3496
10424TIP3   OH255466   6.509   6.758   2.187  0.0363 -0.0495  0.2250
10424TIP3    H155467   6.568   6.829   2.212 -1.0655  0.7556  0.5903
10424TIP3    H255468   6.464   6.736   2.268 -0.5265 -0.3195 -0.1618
10425TIP3   OH255469   7.285   7.446   0.866  0.1271  0.2728 -0.0379
10425TIP3    H155470   7.192   7.429   0.880  0.3688 -1.5148 -0.3801
10425TIP3    H255471   7.329   7.366   0.895  1.5407  0.9564 -0.1969
10426TIP3   OH255472   0.607   0.899   2.129 -0.1411  0.0703 -0.5006
10426TIP3    H155473   0.638   0.885   2.218 -0.2674 -0.5096 -0.5433
10426TIP3    H255474   0.517   0.866   2.130  0.1724 -0.8409 -1.0828
10427TIP3   OH255475   4.989   1.796   1.796 -0.5550  0.4130  0.0644
10427TIP3    H155476   4.934   1.873   1.808  0.1615  0.6419  2.6759
10427TIP3    H255477   4.936   1.735   1.746 -2.2903  1.4992  0.5023
10428TIP3   OH255478   7.119   6.022   3.083  0.4199  0.2126 -0.1577
10428TIP3    H155479   7.120   5.957   3.152 -1.4439 -1.1861 -1.3635
10428TIP3    H255480   7.047   6.081   3.105 -0.3117 -0.3541 -0.9798
10429TIP3   OH255481   5.064   1.930   0.987 -0.0162 -0.5768  0.9037
10429TIP3    H155482   5.026   1.980   0.915  1.2895 -0.2709  0.3966
10429TIP3    H255483   4.990   1.914   1.047 -1.1595 -1.0204 -0.5761
10430TIP3   OH255484   0.315   1.976   2.809  0.2696 -0.1512  0.2510
10430TIP3    H155485   0.330   1.906   2.745  0.5516 -1.2089  1.4356
10430TIP3    H255486   0.378   1.959   2.879  0.3554  1.3062  0.5762
10431TIP3   OH255487   5.541   3.149   2.627  0.2369  0.8042 -0.4177
10431TIP3    H155488   5.494   3.087   2.683  1.8363 -0.1303 -0.0544
10431TIP3    H255489   5.512   3.235   2.657 -0.9812  0.2784 -0.0084
10432TIP3   OH255490   6.324   7.507   2.422  0.7295 -0.1373  0.1125
10432TIP3    H155491   6.331   7.478   2.513 -2.3655 -0.1390  0.4456
10432TIP3    H255492   6.301   7.427   2.374 -2.4626  0.5978  0.1902
10433TIP3   OH255493   1.782   0.982   1.179  0.3525  0.0557  0.7247
10433TIP3    H155494   1.775   1.064   1.131 -0.5432  0.0605  0.8481
10433TIP3    H255495   1.874   0.957   1.170  0.4333  0.6035 -0.0763
10434TIP3   OH255496   3.050   2.216   1.640  0.2336 -0.6377 -0.0294
10434TIP3    H155497   3.044   2.263   1.557  2.2608 -1.6788 -0.8309
10434TIP3    H255498   2.968   2.237   1.686 -0.2841  1.1187 -1.6497
10435TIP3   OH255499   0.070   5.293   1.301 -0.4088 -0.3681 -0.1738
10435TIP3    H155500   0.105   5.372   1.343  0.1693 -1.1186  0.7995
10435TIP3    H255501   0.041   5.323   1.215  0.6026  0.7263 -0.1638
10436TIP3   OH255502   3.443   4.198   2.139  0.3999 -0.2592  0.0240
10436TIP3    H155503   3.398   4.178   2.058 -1.4102 -1.5359  1.2666
10436TIP3    H255504   3.430   4.120   2.194  2.7455 -0.0202  1.0680
10437TIP3   OH255505   5.882   4.162   0.926 -0.4658  0.0101 -0.1184
10437TIP3    H155506   5.820   4.109   0.876  0.0393 -0.2923 -0.4383
10437TIP3    H255507   5.950   4.100   0.952 -0.0454  0.4336 -0.1976
10438TIP3   OH255508   2.147   1.342   1.213 -0.3232  0.7461  0.3088
10438TIP3    H155509   2.234   1.324   1.248 -0.6251  0.7711  1.0801
10438TIP3    H255510   2.127   1.430   1.244 -0.1409  1.2313 -0.8638
10439TIP3   OH255511   3.200   4.882   2.155  0.2925  0.4955 -0.0636
10439TIP3    H155512   3.267   4.905   2.220 -0.2120 -3.7201  2.3554
10439TIP3    H255513   3.119   4.918   2.191  0.3879  0.2675  0.3997
   7.68049   7.68049  30.00000
